/*--------------------------------*- C++ -*----------------------------------*\
  =========                 |
  \\      /  F ield         | OpenFOAM: The Open Source CFD Toolbox
   \\    /   O peration     | Website:  https://openfoam.org
    \\  /    A nd           | Version:  8
     \\/     M anipulation  |
\*---------------------------------------------------------------------------*/
FoamFile
{
    version     2.0;
    format      ascii;
    class       volScalarField;
    location    "3400";
    object      alphat;
}
// * * * * * * * * * * * * * * * * * * * * * * * * * * * * * * * * * * * * * //

dimensions      [1 -1 -1 0 0 0 0];

internalField   nonuniform List<scalar> 
48000
(
4.90532e-05
8.42858e-05
0.000107187
0.000122545
0.000135341
0.000146085
0.000155396
0.000163674
0.000171321
0.000178345
0.000184865
0.000190962
0.000196689
0.000202092
0.000207203
0.000212051
0.000216657
0.00022104
0.000225213
0.000229189
0.000232978
0.00023659
0.000240032
0.000243311
0.000246433
0.000249404
0.000252229
0.000254913
0.00025746
0.000259875
0.000262161
0.000264323
0.000266364
0.000268289
0.000270101
0.000271804
0.000273401
0.000274896
0.000276292
0.000277594
0.000278803
0.000279923
0.000280958
0.000281911
0.000282801
0.000283618
0.000284361
0.000285032
0.000285637
0.000286176
0.000286653
0.000287071
0.000287433
0.000287742
0.000287999
0.000288207
0.000288369
0.000288486
0.000288562
0.000288597
0.000288594
0.000288555
0.000288481
0.000288375
0.000288237
0.00028807
0.000287874
0.000287651
0.000287403
0.00028713
0.000286834
0.000286516
0.000286176
0.000285817
0.000285437
0.00028504
0.000284624
0.000284192
0.000283743
0.000283278
0.000282798
0.000282303
0.000281794
0.000281272
0.000280735
0.000280186
0.000279624
0.00027905
0.000278464
0.000277865
0.000277255
0.000276633
0.000276
0.000275355
0.000274699
0.000274032
0.000273354
0.000272664
0.000271963
0.000271251
0.000270528
0.000269793
0.000269047
0.00026829
0.00026752
0.000266739
0.000265946
0.000265141
0.000264323
0.000263493
0.000262651
0.000261795
0.000260926
0.000260044
0.000259148
0.000258238
0.000257314
0.000256376
0.000255423
0.000254455
0.000253471
0.000252472
0.000251457
0.000250426
0.000249378
0.000248313
0.00024723
0.000246131
0.000245013
0.000243877
0.000242723
0.000241549
0.000240356
0.000239144
0.000237912
0.000236659
0.000235386
0.000234091
0.000232776
0.000231438
0.000230079
0.000228697
0.000227292
0.000225865
0.000224414
0.000222939
0.000221441
0.000219917
0.00021837
0.000216797
0.000215198
0.000213574
0.000211923
0.000210246
0.000208542
0.000206811
0.000205052
0.000203265
0.000201449
0.000199604
0.00019773
0.000195825
0.00019389
0.000191923
0.000189924
0.000187892
0.000185826
0.000183726
0.00018159
0.000179417
0.000177206
0.000174955
0.000172663
0.000170328
0.000167947
0.000165518
0.000163039
0.000160506
0.000157916
0.000155266
0.000152552
0.000149775
0.000146943
0.000144026
0.000141007
0.000137876
0.000134617
0.000131208
0.000127627
0.000123841
0.000119807
0.000115472
0.000110813
0.000105691
9.99423e-05
9.33145e-05
8.53657e-05
7.52646e-05
6.25156e-05
0.000188379
4.90461e-05
8.42892e-05
0.000107187
0.000122546
0.000135342
0.000146085
0.000155397
0.000163675
0.000171321
0.000178345
0.000184866
0.000190962
0.00019669
0.000202092
0.000207204
0.000212051
0.000216658
0.00022104
0.000225213
0.000229189
0.000232978
0.00023659
0.000240032
0.000243311
0.000246434
0.000249405
0.00025223
0.000254913
0.00025746
0.000259875
0.000262161
0.000264323
0.000266364
0.000268289
0.000270101
0.000271804
0.000273401
0.000274896
0.000276292
0.000277594
0.000278803
0.000279923
0.000280958
0.000281911
0.000282801
0.000283618
0.000284361
0.000285033
0.000285637
0.000286176
0.000286653
0.000287071
0.000287433
0.000287742
0.000287999
0.000288207
0.000288369
0.000288486
0.000288562
0.000288597
0.000288594
0.000288555
0.000288481
0.000288375
0.000288237
0.00028807
0.000287874
0.000287651
0.000287403
0.00028713
0.000286834
0.000286516
0.000286176
0.000285817
0.000285437
0.00028504
0.000284624
0.000284192
0.000283743
0.000283278
0.000282798
0.000282303
0.000281794
0.000281272
0.000280735
0.000280186
0.000279624
0.00027905
0.000278464
0.000277865
0.000277255
0.000276633
0.000276
0.000275355
0.000274699
0.000274032
0.000273354
0.000272664
0.000271963
0.000271251
0.000270528
0.000269793
0.000269047
0.00026829
0.00026752
0.000266739
0.000265946
0.000265141
0.000264323
0.000263493
0.000262651
0.000261795
0.000260926
0.000260044
0.000259148
0.000258238
0.000257314
0.000256376
0.000255423
0.000254455
0.000253471
0.000252472
0.000251457
0.000250426
0.000249378
0.000248313
0.00024723
0.000246131
0.000245013
0.000243877
0.000242723
0.000241549
0.000240356
0.000239144
0.000237912
0.000236659
0.000235386
0.000234091
0.000232776
0.000231438
0.000230079
0.000228697
0.000227292
0.000225865
0.000224414
0.000222939
0.000221441
0.000219917
0.00021837
0.000216797
0.000215198
0.000213574
0.000211923
0.000210246
0.000208542
0.000206811
0.000205052
0.000203265
0.000201449
0.000199604
0.00019773
0.000195825
0.00019389
0.000191923
0.000189924
0.000187892
0.000185826
0.000183726
0.00018159
0.000179417
0.000177206
0.000174955
0.000172663
0.000170328
0.000167947
0.000165518
0.000163039
0.000160506
0.000157916
0.000155266
0.000152552
0.000149775
0.000146943
0.000144026
0.000141007
0.000137876
0.000134617
0.000131208
0.000127627
0.000123841
0.000119807
0.000115472
0.000110813
0.000105691
9.99423e-05
9.33143e-05
8.53649e-05
7.52634e-05
6.25207e-05
0.000188388
7.38464e-05
0.000555162
0.000882919
0.00111176
0.00128159
0.00142051
0.00153967
0.00164443
0.00173764
0.00182203
0.00189925
0.00197043
0.00203647
0.00209802
0.00215561
0.00220967
0.00226055
0.00230852
0.00235382
0.00239666
0.00243721
0.00247563
0.00251204
0.00254657
0.00257931
0.00261036
0.00263981
0.00266773
0.0026942
0.00271927
0.00274301
0.00276548
0.00278672
0.00280679
0.00282573
0.00284359
0.00286042
0.00287624
0.0028911
0.00290503
0.00291808
0.00293025
0.00294157
0.00295199
0.00296136
0.00296994
0.00297783
0.00298507
0.00299171
0.00299777
0.00300328
0.00300826
0.00301273
0.00301672
0.00302024
0.00302332
0.00302597
0.00302821
0.00303006
0.00303154
0.00303265
0.00303341
0.00303384
0.00303396
0.00303376
0.00303328
0.00303251
0.00303147
0.00303017
0.00302862
0.00302682
0.0030248
0.00302255
0.00302009
0.00301742
0.00301455
0.00301148
0.00300822
0.00300479
0.00300117
0.00299738
0.00299343
0.00298931
0.00298503
0.00298059
0.002976
0.00297126
0.00296638
0.00296134
0.00295617
0.00295085
0.00294539
0.00293979
0.00293405
0.00292817
0.00292215
0.002916
0.00290971
0.00290329
0.00289672
0.00289002
0.00288317
0.00287619
0.00286906
0.0028618
0.00285438
0.00284683
0.00283912
0.00283127
0.00282326
0.0028151
0.00280679
0.00279832
0.00278968
0.00278089
0.00277193
0.0027628
0.0027535
0.00274403
0.00273438
0.00272456
0.00271455
0.00270435
0.00269397
0.00268339
0.00267262
0.00266165
0.00265048
0.0026391
0.00262751
0.00261572
0.0026037
0.00259147
0.00257902
0.00256634
0.00255343
0.00254028
0.0025269
0.00251328
0.00249942
0.00248531
0.00247095
0.00245634
0.00244147
0.00242633
0.00241093
0.00239527
0.00237933
0.00236311
0.00234661
0.00232983
0.00231276
0.0022954
0.00227774
0.00225978
0.00224151
0.00222293
0.00220403
0.00218481
0.00216525
0.00214537
0.00212514
0.00210455
0.00208361
0.0020623
0.00204061
0.00201853
0.00199604
0.00197313
0.0019498
0.00192601
0.00190175
0.00187699
0.00185172
0.00182589
0.00179949
0.00177246
0.00174476
0.00171633
0.00168711
0.00165697
0.00162579
0.00159339
0.00155976
0.00152482
0.00148843
0.00145036
0.00141037
0.00136809
0.00132303
0.00127448
0.0012213
0.00116128
0.00109351
0.00101515
0.000921419
0.00080369
0.000644515
0.00040429
5.43579e-05
7.38502e-05
0.000555181
0.000882925
0.00111178
0.00128161
0.00142053
0.00153969
0.00164445
0.00173765
0.00182205
0.00189926
0.00197045
0.00203648
0.00209803
0.00215563
0.00220969
0.00226056
0.00230853
0.00235383
0.00239667
0.00243722
0.00247564
0.00251205
0.00254658
0.00257932
0.00261037
0.00263982
0.00266774
0.00269421
0.00271928
0.00274302
0.00276548
0.00278673
0.0028068
0.00282574
0.0028436
0.00286042
0.00287625
0.00289111
0.00290504
0.00291808
0.00293026
0.00294157
0.00295199
0.00296136
0.00296995
0.00297784
0.00298508
0.00299172
0.00299778
0.00300328
0.00300826
0.00301274
0.00301672
0.00302025
0.00302333
0.00302598
0.00302822
0.00303007
0.00303154
0.00303265
0.00303342
0.00303385
0.00303396
0.00303377
0.00303328
0.00303251
0.00303147
0.00303017
0.00302862
0.00302683
0.00302481
0.00302256
0.0030201
0.00301742
0.00301455
0.00301149
0.00300823
0.00300479
0.00300118
0.00299739
0.00299343
0.00298931
0.00298503
0.0029806
0.00297601
0.00297127
0.00296638
0.00296135
0.00295617
0.00295085
0.00294539
0.00293979
0.00293405
0.00292817
0.00292216
0.00291601
0.00290972
0.00290329
0.00289673
0.00289002
0.00288318
0.00287619
0.00286907
0.0028618
0.00285439
0.00284683
0.00283913
0.00283127
0.00282327
0.00281511
0.00280679
0.00279832
0.00278969
0.00278089
0.00277193
0.00276281
0.00275351
0.00274404
0.00273439
0.00272456
0.00271455
0.00270436
0.00269397
0.0026834
0.00267262
0.00266165
0.00265048
0.00263911
0.00262752
0.00261572
0.00260371
0.00259148
0.00257902
0.00256634
0.00255343
0.00254029
0.00252691
0.00251329
0.00249943
0.00248532
0.00247096
0.00245634
0.00244147
0.00242634
0.00241094
0.00239527
0.00237933
0.00236311
0.00234662
0.00232984
0.00231277
0.0022954
0.00227774
0.00225978
0.00224151
0.00222293
0.00220403
0.00218481
0.00216526
0.00214537
0.00212514
0.00210456
0.00208362
0.0020623
0.00204061
0.00201853
0.00199604
0.00197314
0.0019498
0.00192601
0.00190175
0.001877
0.00185172
0.0018259
0.00179949
0.00177246
0.00174476
0.00171634
0.00168711
0.00165697
0.0016258
0.00159339
0.00155977
0.00152483
0.00148843
0.00145037
0.00141037
0.00136809
0.00132303
0.00127448
0.00122131
0.00116128
0.00109351
0.00101515
0.00092142
0.00080369
0.00064452
0.000404286
5.43494e-05
9.24312e-05
0.000844519
0.00150244
0.00199474
0.002382
0.00270297
0.00297849
0.00322057
0.00343653
0.00363153
0.00380922
0.00397227
0.0041227
0.00426212
0.0043918
0.00451277
0.0046259
0.00473192
0.00483146
0.00492504
0.00501315
0.00509619
0.00517453
0.00524849
0.00531837
0.00538443
0.00544691
0.00550602
0.00556196
0.0056149
0.00566501
0.00571245
0.00575734
0.00579982
0.00584001
0.00587801
0.00591392
0.00594785
0.00597987
0.00601006
0.0060385
0.00606524
0.00609031
0.00611371
0.00613539
0.00615556
0.00617435
0.00619186
0.00620815
0.0062233
0.00623735
0.00625036
0.00626237
0.00627341
0.00628354
0.00629278
0.00630117
0.00630875
0.00631553
0.00632156
0.00632686
0.00633145
0.00633537
0.00633864
0.00634128
0.00634331
0.00634475
0.00634563
0.00634597
0.00634577
0.00634506
0.00634386
0.00634218
0.00634003
0.00633743
0.0063344
0.00633093
0.00632705
0.00632276
0.00631808
0.00631302
0.00630757
0.00630175
0.00629557
0.00628903
0.00628215
0.00627491
0.00626733
0.00625941
0.00625116
0.00624258
0.00623367
0.00622443
0.00621487
0.00620498
0.00619477
0.00618423
0.00617338
0.00616219
0.00615068
0.00613885
0.00612669
0.00611419
0.00610137
0.00608821
0.00607471
0.00606087
0.00604669
0.00603216
0.00601728
0.00600204
0.00598643
0.00597047
0.00595413
0.00593742
0.00592032
0.00590284
0.00588496
0.00586669
0.00584801
0.00582892
0.00580941
0.00578948
0.00576912
0.00574832
0.00572708
0.00570538
0.00568322
0.0056606
0.0056375
0.00561392
0.00558986
0.00556529
0.00554022
0.00551464
0.00548854
0.00546191
0.00543474
0.00540703
0.00537876
0.00534993
0.00532052
0.00529054
0.00525997
0.00522879
0.00519701
0.00516461
0.00513158
0.00509792
0.0050636
0.00502862
0.00499296
0.00495663
0.00491959
0.00488184
0.00484336
0.00480415
0.00476417
0.00472342
0.00468187
0.00463951
0.00459631
0.00455225
0.00450731
0.00446145
0.00441465
0.00436687
0.00431807
0.00426822
0.00421726
0.00416514
0.00411181
0.00405721
0.00400125
0.00394385
0.00388491
0.00382433
0.00376197
0.00369766
0.00363123
0.00356242
0.00349096
0.00341654
0.00333889
0.00325763
0.00317226
0.00308214
0.00298648
0.00288423
0.00277397
0.00265378
0.00252093
0.00237146
0.00220107
0.00200292
0.00176637
0.00147448
0.00109982
0.000602655
6.61192e-05
9.2432e-05
0.000844525
0.00150245
0.00199477
0.00238203
0.002703
0.00297853
0.00322061
0.00343657
0.00363157
0.00380926
0.0039723
0.00412273
0.00426215
0.00439183
0.0045128
0.00462593
0.00473195
0.00483148
0.00492506
0.00501317
0.00509621
0.00517455
0.00524851
0.00531839
0.00538445
0.00544693
0.00550604
0.00556197
0.00561491
0.00566503
0.00571246
0.00575735
0.00579983
0.00584002
0.00587802
0.00591393
0.00594786
0.00597988
0.00601007
0.00603851
0.00606525
0.00609032
0.00611372
0.0061354
0.00615557
0.00617436
0.00619186
0.00620816
0.0062233
0.00623736
0.00625036
0.00626237
0.00627342
0.00628355
0.00629279
0.00630118
0.00630875
0.00631554
0.00632156
0.00632686
0.00633146
0.00633538
0.00633864
0.00634128
0.00634331
0.00634476
0.00634564
0.00634597
0.00634577
0.00634507
0.00634386
0.00634218
0.00634003
0.00633744
0.0063344
0.00633093
0.00632705
0.00632277
0.00631809
0.00631302
0.00630757
0.00630176
0.00629557
0.00628904
0.00628215
0.00627491
0.00626733
0.00625942
0.00625117
0.00624258
0.00623367
0.00622443
0.00621487
0.00620498
0.00619477
0.00618424
0.00617338
0.00616219
0.00615069
0.00613885
0.00612669
0.0061142
0.00610137
0.00608821
0.00607471
0.00606088
0.00604669
0.00603216
0.00601728
0.00600204
0.00598644
0.00597047
0.00595413
0.00593742
0.00592032
0.00590284
0.00588496
0.00586669
0.00584801
0.00582892
0.00580942
0.00578948
0.00576912
0.00574832
0.00572708
0.00570538
0.00568322
0.0056606
0.0056375
0.00561393
0.00558986
0.00556529
0.00554022
0.00551464
0.00548854
0.00546191
0.00543474
0.00540703
0.00537876
0.00534993
0.00532052
0.00529054
0.00525997
0.00522879
0.00519701
0.00516461
0.00513158
0.00509792
0.0050636
0.00502862
0.00499296
0.00495663
0.00491959
0.00488184
0.00484336
0.00480415
0.00476417
0.00472342
0.00468187
0.00463951
0.00459631
0.00455225
0.00450731
0.00446145
0.00441465
0.00436687
0.00431807
0.00426822
0.00421726
0.00416514
0.00411181
0.00405721
0.00400125
0.00394385
0.00388491
0.00382433
0.00376197
0.00369766
0.00363123
0.00356242
0.00349096
0.00341654
0.00333889
0.00325763
0.00317226
0.00308214
0.00298648
0.00288423
0.00277397
0.00265378
0.00252093
0.00237146
0.00220107
0.00200292
0.00176637
0.00147448
0.00109982
0.00060265
6.61203e-05
0.000104818
0.00101997
0.00191831
0.00263116
0.0032129
0.00370371
0.00412872
0.00450393
0.00483989
0.00514397
0.00542146
0.00567632
0.00591156
0.00612959
0.00633232
0.00652134
0.00669797
0.00686335
0.00701844
0.00716409
0.00730104
0.00742997
0.00755145
0.00766603
0.00777417
0.00787631
0.00797285
0.00806415
0.00815053
0.00823229
0.00830971
0.00838303
0.0084525
0.00851832
0.00858069
0.00863979
0.00869578
0.00874882
0.00879905
0.00884659
0.00889156
0.00893405
0.00897414
0.00901189
0.00904733
0.00908064
0.00911195
0.00914139
0.00916905
0.00919503
0.00921941
0.00924225
0.00926363
0.00928361
0.00930224
0.00931957
0.00933566
0.00935054
0.00936427
0.00937689
0.00938843
0.00939894
0.00940844
0.00941698
0.00942459
0.00943129
0.00943711
0.00944209
0.00944625
0.00944961
0.0094522
0.00945403
0.00945514
0.00945554
0.00945525
0.00945428
0.00945266
0.00945039
0.00944749
0.00944398
0.00943986
0.00943516
0.00942987
0.009424
0.00941758
0.00941059
0.00940306
0.00939499
0.00938637
0.00937722
0.00936754
0.00935734
0.00934661
0.00933536
0.00932358
0.00931129
0.00929848
0.00928514
0.00927128
0.0092569
0.009242
0.00922656
0.00921059
0.00919409
0.00917705
0.00915947
0.00914134
0.00912265
0.0091034
0.00908359
0.00906321
0.00904225
0.0090207
0.00899856
0.00897581
0.00895246
0.00892849
0.00890389
0.00887866
0.00885278
0.00882624
0.00879904
0.00877116
0.0087426
0.00871334
0.00868338
0.00865269
0.00862128
0.00858912
0.00855621
0.00852254
0.00848809
0.00845284
0.0084168
0.00837993
0.00834224
0.0083037
0.00826431
0.00822405
0.0081829
0.00814085
0.00809788
0.00805399
0.00800914
0.00796333
0.00791654
0.00786875
0.00781995
0.00777011
0.00771921
0.00766723
0.00761416
0.00755996
0.00750462
0.0074481
0.00739039
0.00733145
0.00727125
0.00720975
0.00714693
0.00708275
0.00701715
0.00695011
0.00688156
0.00681147
0.00673976
0.00666637
0.00659124
0.00651429
0.00643544
0.00635457
0.0062716
0.00618639
0.00609882
0.00600872
0.00591591
0.0058202
0.00572133
0.00561904
0.00551299
0.00540278
0.00528797
0.00516803
0.00504237
0.00491026
0.0047708
0.00462286
0.004465
0.00429537
0.00411161
0.00391065
0.00368836
0.00343927
0.00315615
0.00282967
0.00244612
0.00198611
0.00142342
0.000734278
7.52904e-05
0.000104818
0.00101998
0.00191834
0.0026312
0.00321295
0.00370376
0.00412877
0.00450398
0.00483994
0.00514402
0.00542151
0.00567636
0.00591161
0.00612963
0.00633236
0.00652138
0.00669801
0.00686339
0.00701847
0.00716412
0.00730108
0.00743
0.00755148
0.00766605
0.0077742
0.00787634
0.00797288
0.00806417
0.00815055
0.00823231
0.00830973
0.00838305
0.00845252
0.00851834
0.0085807
0.0086398
0.00869579
0.00874883
0.00879906
0.0088466
0.00889157
0.00893406
0.00897415
0.00901189
0.00904733
0.00908064
0.00911196
0.00914139
0.00916905
0.00919503
0.00921941
0.00924226
0.00926364
0.00928361
0.00930224
0.00931957
0.00933566
0.00935054
0.00936427
0.00937689
0.00938843
0.00939894
0.00940844
0.00941698
0.00942459
0.00943129
0.00943711
0.00944209
0.00944625
0.00944961
0.0094522
0.00945403
0.00945514
0.00945554
0.00945525
0.00945428
0.00945266
0.00945039
0.00944749
0.00944398
0.00943986
0.00943516
0.00942987
0.009424
0.00941758
0.00941059
0.00940306
0.00939498
0.00938637
0.00937722
0.00936754
0.00935734
0.00934661
0.00933535
0.00932358
0.00931129
0.00929847
0.00928514
0.00927128
0.0092569
0.00924199
0.00922656
0.00921059
0.00919409
0.00917705
0.00915947
0.00914133
0.00912265
0.0091034
0.00908359
0.00906321
0.00904224
0.0090207
0.00899855
0.00897581
0.00895246
0.00892849
0.00890389
0.00887865
0.00885277
0.00882624
0.00879904
0.00877116
0.0087426
0.00871334
0.00868337
0.00865269
0.00862128
0.00858912
0.00855621
0.00852253
0.00848808
0.00845284
0.00841679
0.00837993
0.00834224
0.0083037
0.00826431
0.00822404
0.00818289
0.00814084
0.00809788
0.00805398
0.00800914
0.00796333
0.00791654
0.00786875
0.00781994
0.0077701
0.0077192
0.00766723
0.00761415
0.00755996
0.00750462
0.0074481
0.00739039
0.00733144
0.00727124
0.00720975
0.00714693
0.00708274
0.00701715
0.0069501
0.00688156
0.00681146
0.00673975
0.00666637
0.00659124
0.00651429
0.00643543
0.00635457
0.00627159
0.00618639
0.00609881
0.00600871
0.00591591
0.00582019
0.00572133
0.00561904
0.00551298
0.00540278
0.00528796
0.00516802
0.00504236
0.00491026
0.0047708
0.00462286
0.00446499
0.00429536
0.00411161
0.00391065
0.00368836
0.00343926
0.00315614
0.00282967
0.00244612
0.00198611
0.00142342
0.000734277
7.52908e-05
0.000114785
0.00113928
0.00221508
0.00310537
0.00384961
0.00448646
0.00504281
0.00553689
0.00598131
0.00638503
0.00675459
0.00709492
0.00740981
0.00770227
0.00797473
0.00822917
0.00846728
0.0086905
0.00890006
0.00909705
0.00928243
0.00945706
0.00962171
0.00977708
0.0099238
0.0100625
0.0101936
0.0103176
0.0104351
0.0105463
0.0106517
0.0107516
0.0108464
0.0109363
0.0110216
0.0111026
0.0111794
0.0112523
0.0113216
0.0113872
0.0114496
0.0115087
0.0115646
0.0116176
0.0116677
0.0117151
0.0117599
0.0118022
0.0118423
0.0118801
0.0119159
0.0119496
0.0119815
0.0120115
0.0120397
0.0120663
0.0120912
0.0121146
0.0121364
0.0121569
0.0121759
0.0121935
0.0122099
0.012225
0.0122388
0.0122515
0.012263
0.0122734
0.0122828
0.0122911
0.0122983
0.0123046
0.0123099
0.0123142
0.0123177
0.0123202
0.0123219
0.0123227
0.0123226
0.0123218
0.0123201
0.0123176
0.0123143
0.0123103
0.0123054
0.0122999
0.0122935
0.0122865
0.0122787
0.0122701
0.0122609
0.0122509
0.0122402
0.0122288
0.0122167
0.0122038
0.0121903
0.012176
0.012161
0.0121453
0.0121288
0.0121117
0.0120937
0.0120751
0.0120557
0.0120356
0.0120147
0.0119931
0.0119706
0.0119474
0.0119234
0.0118987
0.0118731
0.0118467
0.0118194
0.0117913
0.0117624
0.0117326
0.011702
0.0116704
0.011638
0.0116046
0.0115703
0.0115351
0.0114989
0.0114618
0.0114236
0.0113845
0.0113443
0.0113031
0.0112609
0.0112176
0.0111731
0.0111276
0.011081
0.0110332
0.0109843
0.0109341
0.0108828
0.0108303
0.0107765
0.0107214
0.010665
0.0106074
0.0105483
0.010488
0.0104262
0.010363
0.0102983
0.0102322
0.0101646
0.0100954
0.0100246
0.00995225
0.00987822
0.00980248
0.009725
0.00964573
0.00956461
0.0094816
0.00939664
0.00930965
0.00922058
0.00912934
0.00903587
0.00894006
0.00884182
0.00874105
0.00863763
0.00853142
0.00842228
0.00831005
0.00819454
0.00807556
0.00795285
0.00782616
0.00769519
0.00755956
0.00741888
0.00727267
0.00712035
0.00696129
0.00679471
0.00661972
0.00643523
0.00623993
0.00603217
0.00580995
0.00557073
0.00531132
0.00502764
0.00471448
0.00436518
0.00397108
0.00352128
0.00300129
0.00239241
0.00167302
0.00083475
8.26219e-05
0.000114785
0.00113929
0.00221511
0.00310541
0.00384966
0.00448652
0.00504286
0.00553695
0.00598137
0.00638509
0.00675465
0.00709498
0.00740987
0.00770233
0.00797478
0.00822922
0.00846733
0.00869055
0.00890011
0.0090971
0.00928247
0.0094571
0.00962175
0.00977712
0.00992384
0.0100625
0.0101936
0.0103176
0.0104351
0.0105463
0.0106517
0.0107517
0.0108464
0.0109363
0.0110216
0.0111026
0.0111794
0.0112523
0.0113216
0.0113873
0.0114496
0.0115087
0.0115646
0.0116176
0.0116677
0.0117151
0.0117599
0.0118022
0.0118423
0.0118801
0.0119159
0.0119496
0.0119815
0.0120115
0.0120397
0.0120663
0.0120912
0.0121146
0.0121364
0.0121569
0.0121759
0.0121935
0.0122099
0.012225
0.0122388
0.0122515
0.012263
0.0122734
0.0122828
0.0122911
0.0122983
0.0123046
0.0123099
0.0123142
0.0123177
0.0123202
0.0123219
0.0123227
0.0123226
0.0123218
0.0123201
0.0123176
0.0123143
0.0123103
0.0123054
0.0122999
0.0122935
0.0122865
0.0122787
0.0122701
0.0122609
0.0122509
0.0122402
0.0122288
0.0122167
0.0122038
0.0121903
0.012176
0.012161
0.0121453
0.0121288
0.0121117
0.0120937
0.0120751
0.0120557
0.0120356
0.0120147
0.011993
0.0119706
0.0119474
0.0119234
0.0118987
0.0118731
0.0118467
0.0118194
0.0117913
0.0117624
0.0117326
0.011702
0.0116704
0.011638
0.0116046
0.0115703
0.0115351
0.0114989
0.0114618
0.0114236
0.0113845
0.0113443
0.0113031
0.0112609
0.0112176
0.0111731
0.0111276
0.011081
0.0110332
0.0109843
0.0109341
0.0108828
0.0108303
0.0107765
0.0107214
0.010665
0.0106074
0.0105483
0.010488
0.0104262
0.010363
0.0102983
0.0102322
0.0101646
0.0100954
0.0100246
0.00995225
0.00987821
0.00980247
0.00972499
0.00964572
0.00956461
0.00948159
0.00939663
0.00930964
0.00922057
0.00912934
0.00903586
0.00894005
0.00884182
0.00874105
0.00863762
0.00853141
0.00842227
0.00831004
0.00819454
0.00807555
0.00795285
0.00782616
0.00769518
0.00755956
0.00741888
0.00727266
0.00712034
0.00696128
0.0067947
0.00661971
0.00643522
0.00623992
0.00603217
0.00580995
0.00557073
0.00531131
0.00502764
0.00471448
0.00436518
0.00397108
0.00352128
0.00300129
0.00239241
0.00167302
0.000834748
8.2622e-05
0.000123257
0.00123412
0.00244512
0.00347664
0.0043543
0.00511391
0.00578263
0.00637991
0.00691961
0.00741179
0.00786389
0.00828157
0.00866918
0.00903019
0.00936739
0.00968309
0.00997922
0.0102574
0.0105191
0.0107656
0.010998
0.0112173
0.0114243
0.0116199
0.0118049
0.0119799
0.0121456
0.0123026
0.0124513
0.0125924
0.0127262
0.0128532
0.0129737
0.0130882
0.013197
0.0133004
0.0133987
0.0134921
0.0135809
0.0136654
0.0137457
0.013822
0.0138945
0.0139634
0.0140287
0.0140908
0.0141497
0.0142056
0.0142587
0.0143091
0.0143569
0.0144023
0.0144453
0.014486
0.0145246
0.0145611
0.0145956
0.0146282
0.0146589
0.0146879
0.0147152
0.0147408
0.0147647
0.0147872
0.0148081
0.0148276
0.0148456
0.0148623
0.0148777
0.0148918
0.0149046
0.0149162
0.0149266
0.0149358
0.0149439
0.0149509
0.0149567
0.0149615
0.0149653
0.014968
0.0149697
0.0149704
0.0149702
0.0149689
0.0149667
0.0149636
0.0149595
0.0149544
0.0149485
0.0149416
0.0149338
0.0149251
0.0149155
0.014905
0.0148936
0.0148812
0.014868
0.0148538
0.0148388
0.0148228
0.0148059
0.0147881
0.0147694
0.0147497
0.0147291
0.0147075
0.014685
0.0146615
0.0146371
0.0146116
0.0145852
0.0145577
0.0145292
0.0144997
0.0144691
0.0144375
0.0144048
0.014371
0.0143361
0.0143
0.0142628
0.0142245
0.014185
0.0141443
0.0141024
0.0140592
0.0140148
0.0139691
0.0139222
0.0138739
0.0138242
0.0137732
0.0137209
0.0136671
0.0136119
0.0135552
0.0134971
0.0134374
0.0133762
0.0133135
0.0132491
0.0131831
0.0131155
0.0130462
0.0129751
0.0129023
0.0128277
0.0127513
0.012673
0.0125928
0.0125106
0.0124264
0.0123402
0.0122519
0.0121614
0.0120687
0.0119738
0.0118765
0.0117767
0.0116745
0.0115698
0.0114624
0.0113522
0.0112392
0.0111232
0.0110042
0.010882
0.0107563
0.0106272
0.0104944
0.0103577
0.0102169
0.0100717
0.00992189
0.00976712
0.00960705
0.00944125
0.00926926
0.00909053
0.00890443
0.00871023
0.00850708
0.00829396
0.00806969
0.00783286
0.00758176
0.0073143
0.00702796
0.00671963
0.00638543
0.0060206
0.00561916
0.00517364
0.00467472
0.0041107
0.00346767
0.00272873
0.00187725
0.000917323
8.88172e-05
0.000123257
0.00123414
0.00244515
0.00347668
0.00435436
0.00511397
0.0057827
0.00637998
0.00691968
0.00741185
0.00786396
0.00828163
0.00866925
0.00903026
0.00936746
0.00968315
0.00997928
0.0102575
0.0105192
0.0107657
0.0109981
0.0112173
0.0114243
0.01162
0.0118049
0.01198
0.0121457
0.0123026
0.0124514
0.0125924
0.0127262
0.0128532
0.0129737
0.0130882
0.013197
0.0133004
0.0133987
0.0134921
0.0135809
0.0136654
0.0137457
0.013822
0.0138945
0.0139634
0.0140288
0.0140908
0.0141497
0.0142057
0.0142587
0.0143091
0.0143569
0.0144023
0.0144453
0.014486
0.0145246
0.0145611
0.0145956
0.0146282
0.014659
0.0146879
0.0147152
0.0147408
0.0147647
0.0147872
0.0148081
0.0148276
0.0148456
0.0148623
0.0148777
0.0148918
0.0149046
0.0149162
0.0149266
0.0149358
0.0149439
0.0149509
0.0149567
0.0149615
0.0149653
0.014968
0.0149697
0.0149704
0.0149702
0.0149689
0.0149667
0.0149635
0.0149595
0.0149544
0.0149485
0.0149416
0.0149338
0.0149251
0.0149155
0.014905
0.0148935
0.0148812
0.014868
0.0148538
0.0148388
0.0148228
0.0148059
0.0147881
0.0147694
0.0147497
0.0147291
0.0147075
0.014685
0.0146615
0.0146371
0.0146116
0.0145852
0.0145577
0.0145292
0.0144997
0.0144691
0.0144375
0.0144048
0.014371
0.0143361
0.0143
0.0142628
0.0142245
0.014185
0.0141443
0.0141024
0.0140592
0.0140148
0.0139691
0.0139221
0.0138739
0.0138242
0.0137732
0.0137209
0.0136671
0.0136119
0.0135552
0.0134971
0.0134374
0.0133762
0.0133134
0.0132491
0.0131831
0.0131155
0.0130461
0.0129751
0.0129023
0.0128277
0.0127513
0.012673
0.0125928
0.0125106
0.0124264
0.0123402
0.0122519
0.0121614
0.0120687
0.0119737
0.0118764
0.0117767
0.0116745
0.0115698
0.0114624
0.0113522
0.0112392
0.0111232
0.0110042
0.0108819
0.0107563
0.0106272
0.0104944
0.0103577
0.0102169
0.0100717
0.00992188
0.00976711
0.00960704
0.00944124
0.00926925
0.00909052
0.00890442
0.00871023
0.00850707
0.00829395
0.00806969
0.00783286
0.00758175
0.0073143
0.00702796
0.00671962
0.00638543
0.0060206
0.00561915
0.00517364
0.00467472
0.0041107
0.00346767
0.00272873
0.00187725
0.000917321
8.88172e-05
0.000130776
0.00131536
0.00263502
0.00378059
0.00476802
0.00563035
0.00639448
0.00708044
0.00770286
0.00827259
0.0087977
0.00928437
0.0097374
0.0101606
0.010557
0.0109291
0.0112791
0.0116087
0.0119196
0.012213
0.0124902
0.0127524
0.0130004
0.0132351
0.0134575
0.0136683
0.0138681
0.0140577
0.0142376
0.0144084
0.0145707
0.0147248
0.0148714
0.0150108
0.0151434
0.0152696
0.0153896
0.015504
0.0156128
0.0157165
0.0158152
0.0159092
0.0159987
0.0160839
0.016165
0.0162423
0.0163157
0.0163857
0.0164523
0.0165157
0.016576
0.0166334
0.0166881
0.01674
0.0167894
0.0168364
0.0168809
0.0169233
0.0169634
0.0170014
0.0170374
0.0170714
0.0171036
0.0171339
0.0171624
0.0171892
0.0172144
0.0172379
0.0172599
0.0172803
0.0172992
0.0173167
0.0173328
0.0173475
0.0173608
0.0173728
0.0173835
0.017393
0.0174012
0.0174082
0.0174139
0.0174185
0.0174219
0.0174241
0.0174252
0.0174251
0.017424
0.0174217
0.0174183
0.0174138
0.0174082
0.0174015
0.0173937
0.0173848
0.0173748
0.0173638
0.0173516
0.0173384
0.017324
0.0173086
0.0172921
0.0172744
0.0172556
0.0172357
0.0172147
0.0171925
0.0171692
0.0171447
0.017119
0.0170921
0.0170641
0.0170348
0.0170042
0.0169725
0.0169394
0.0169051
0.0168695
0.0168325
0.0167943
0.0167546
0.0167136
0.0166712
0.0166273
0.0165821
0.0165353
0.0164871
0.0164373
0.016386
0.0163332
0.0162787
0.0162227
0.0161649
0.0161056
0.0160444
0.0159816
0.015917
0.0158506
0.0157823
0.0157122
0.0156402
0.0155662
0.0154903
0.0154123
0.0153323
0.0152502
0.0151659
0.0150794
0.0149907
0.0148997
0.0148063
0.0147106
0.0146123
0.0145116
0.0144082
0.0143022
0.0141935
0.014082
0.0139675
0.0138501
0.0137296
0.0136059
0.013479
0.0133486
0.0132147
0.0130771
0.0129356
0.0127902
0.0126406
0.0124866
0.012328
0.0121645
0.0119959
0.0118218
0.011642
0.0114559
0.0112632
0.0110634
0.0108558
0.0106398
0.0104146
0.0101793
0.00993288
0.00967408
0.00940145
0.00911328
0.00880753
0.00848172
0.0081329
0.00775748
0.0073511
0.00690844
0.00642303
0.00588696
0.00529064
0.0046225
0.00386926
0.00301616
0.00205108
0.000988145
9.42405e-05
0.000130776
0.00131537
0.00263506
0.00378063
0.00476808
0.00563041
0.00639455
0.00708051
0.00770294
0.00827266
0.00879777
0.00928445
0.00973747
0.0101606
0.010557
0.0109292
0.0112791
0.0116088
0.0119196
0.0122131
0.0124903
0.0127524
0.0130004
0.0132352
0.0134576
0.0136683
0.0138682
0.0140577
0.0142376
0.0144084
0.0145707
0.0147249
0.0148715
0.0150108
0.0151434
0.0152696
0.0153897
0.015504
0.0156128
0.0157165
0.0158152
0.0159092
0.0159987
0.0160839
0.0161651
0.0162423
0.0163158
0.0163857
0.0164523
0.0165157
0.016576
0.0166334
0.0166881
0.01674
0.0167894
0.0168364
0.0168809
0.0169233
0.0169634
0.0170014
0.0170374
0.0170714
0.0171036
0.0171339
0.0171624
0.0171892
0.0172144
0.0172379
0.0172599
0.0172803
0.0172992
0.0173167
0.0173328
0.0173475
0.0173608
0.0173728
0.0173835
0.017393
0.0174012
0.0174082
0.0174139
0.0174185
0.0174219
0.0174241
0.0174252
0.0174251
0.017424
0.0174217
0.0174183
0.0174138
0.0174082
0.0174015
0.0173937
0.0173848
0.0173748
0.0173638
0.0173516
0.0173384
0.017324
0.0173086
0.0172921
0.0172744
0.0172556
0.0172357
0.0172147
0.0171925
0.0171692
0.0171447
0.017119
0.0170921
0.0170641
0.0170348
0.0170042
0.0169725
0.0169394
0.0169051
0.0168695
0.0168325
0.0167943
0.0167546
0.0167136
0.0166712