/*--------------------------------*- C++ -*----------------------------------*\
  =========                 |
  \\      /  F ield         | OpenFOAM: The Open Source CFD Toolbox
   \\    /   O peration     | Website:  https://openfoam.org
    \\  /    A nd           | Version:  8
     \\/     M anipulation  |
\*---------------------------------------------------------------------------*/
FoamFile
{
    version     2.0;
    format      ascii;
    class       volScalarField;
    location    "3400";
    object      nut;
}
// * * * * * * * * * * * * * * * * * * * * * * * * * * * * * * * * * * * * * //

dimensions      [0 2 -1 0 0 0 0];

internalField   nonuniform List<scalar> 
48000
(
4.87838e-05
8.3823e-05
0.000106598
0.000121872
0.000134598
0.000145282
0.000154543
0.000162776
0.00017038
0.000177366
0.00018385
0.000189913
0.000195609
0.000200982
0.000206065
0.000210887
0.000215467
0.000219825
0.000223975
0.00022793
0.000231698
0.00023529
0.000238713
0.000241974
0.000245079
0.000248034
0.000250844
0.000253512
0.000256045
0.000258447
0.00026072
0.00026287
0.0002649
0.000266814
0.000268616
0.00027031
0.000271898
0.000273385
0.000274773
0.000276067
0.00027727
0.000278384
0.000279413
0.000280361
0.000281246
0.000282058
0.000282796
0.000283465
0.000284065
0.000284601
0.000285076
0.000285492
0.000285852
0.000286158
0.000286414
0.000286621
0.000286782
0.000286898
0.000286973
0.000287008
0.000287005
0.000286966
0.000286893
0.000286787
0.00028665
0.000286483
0.000286288
0.000286067
0.00028582
0.000285549
0.000285254
0.000284937
0.0002846
0.000284242
0.000283865
0.000283469
0.000283056
0.000282626
0.000282179
0.000281717
0.000281239
0.000280747
0.000280241
0.000279721
0.000279188
0.000278642
0.000278083
0.000277512
0.000276928
0.000276333
0.000275726
0.000275108
0.000274478
0.000273837
0.000273184
0.000272521
0.000271846
0.00027116
0.000270463
0.000269755
0.000269036
0.000268305
0.000267563
0.00026681
0.000266045
0.000265268
0.000264479
0.000263678
0.000262865
0.00026204
0.000261202
0.000260351
0.000259487
0.000258609
0.000257718
0.000256814
0.000255895
0.000254962
0.000254014
0.000253051
0.000252073
0.000251079
0.000250069
0.000249044
0.000248001
0.000246942
0.000245866
0.000244773
0.000243661
0.000242531
0.000241383
0.000240216
0.00023903
0.000237824
0.000236599
0.000235353
0.000234087
0.000232799
0.000231491
0.000230161
0.000228809
0.000227435
0.000226038
0.000224618
0.000223176
0.000221709
0.000220219
0.000218704
0.000217164
0.0002156
0.00021401
0.000212395
0.000210754
0.000209086
0.000207392
0.00020567
0.000203921
0.000202143
0.000200338
0.000198503
0.000196639
0.000194744
0.00019282
0.000190864
0.000188876
0.000186855
0.000184801
0.000182712
0.000180588
0.000178427
0.000176228
0.00017399
0.00017171
0.000169388
0.00016702
0.000164605
0.000162139
0.000159621
0.000157045
0.000154409
0.00015171
0.000148948
0.000146132
0.000143231
0.000140229
0.000137115
0.000133874
0.000130484
0.000126923
0.000123157
0.000119146
0.000114835
0.000110201
0.000105107
9.93908e-05
9.27995e-05
8.48945e-05
7.48492e-05
6.21706e-05
0.00018734
4.87767e-05
8.38263e-05
0.000106599
0.000121873
0.000134598
0.000145283
0.000154543
0.000162776
0.00017038
0.000177366
0.000183851
0.000189913
0.000195609
0.000200982
0.000206066
0.000210887
0.000215468
0.000219826
0.000223976
0.00022793
0.000231698
0.00023529
0.000238713
0.000241975
0.00024508
0.000248034
0.000250844
0.000253513
0.000256045
0.000258447
0.00026072
0.00026287
0.0002649
0.000266815
0.000268616
0.00027031
0.000271898
0.000273385
0.000274773
0.000276067
0.00027727
0.000278384
0.000279413
0.000280361
0.000281246
0.000282058
0.000282796
0.000283465
0.000284065
0.000284601
0.000285076
0.000285492
0.000285852
0.000286158
0.000286414
0.000286621
0.000286782
0.000286898
0.000286973
0.000287008
0.000287005
0.000286966
0.000286893
0.000286787
0.00028665
0.000286483
0.000286288
0.000286067
0.00028582
0.000285549
0.000285254
0.000284937
0.0002846
0.000284242
0.000283865
0.000283469
0.000283056
0.000282626
0.000282179
0.000281717
0.000281239
0.000280747
0.000280241
0.000279721
0.000279188
0.000278642
0.000278083
0.000277512
0.000276928
0.000276333
0.000275726
0.000275108
0.000274478
0.000273837
0.000273184
0.000272521
0.000271846
0.00027116
0.000270463
0.000269755
0.000269036
0.000268305
0.000267563
0.00026681
0.000266045
0.000265268
0.000264479
0.000263678
0.000262865
0.00026204
0.000261202
0.000260351
0.000259487
0.000258609
0.000257718
0.000256814
0.000255895
0.000254961
0.000254014
0.000253051
0.000252073
0.000251079
0.000250069
0.000249044
0.000248001
0.000246942
0.000245866
0.000244773
0.000243661
0.000242531
0.000241383
0.000240216
0.00023903
0.000237824
0.000236599
0.000235353
0.000234087
0.000232799
0.000231491
0.000230161
0.000228809
0.000227435
0.000226038
0.000224618
0.000223176
0.000221709
0.000220219
0.000218704
0.000217164
0.0002156
0.00021401
0.000212395
0.000210754
0.000209086
0.000207392
0.00020567
0.000203921
0.000202143
0.000200338
0.000198503
0.000196639
0.000194744
0.00019282
0.000190864
0.000188876
0.000186855
0.000184801
0.000182712
0.000180588
0.000178427
0.000176228
0.00017399
0.00017171
0.000169388
0.00016702
0.000164605
0.000162139
0.000159621
0.000157045
0.000154409
0.00015171
0.000148948
0.000146132
0.000143231
0.000140229
0.000137116
0.000133874
0.000130484
0.000126923
0.000123157
0.000119146
0.000114835
0.000110201
0.000105107
9.93908e-05
9.27994e-05
8.48938e-05
7.48481e-05
6.21757e-05
0.000187349
7.34409e-05
0.000552113
0.00087807
0.00110566
0.00127455
0.00141271
0.00153121
0.0016354
0.00172809
0.00181203
0.00188882
0.00195961
0.00202528
0.00208649
0.00214377
0.00219754
0.00224813
0.00229583
0.00234089
0.00238349
0.00242382
0.00246203
0.00249824
0.00253258
0.00256514
0.00259602
0.00262531
0.00265307
0.00267939
0.00270433
0.00272794
0.00275028
0.0027714
0.00279136
0.0028102
0.00282796
0.00284469
0.00286043
0.0028752
0.00288906
0.00290203
0.00291414
0.00292539
0.00293575
0.00294507
0.00295361
0.00296145
0.00296865
0.00297525
0.00298128
0.00298675
0.0029917
0.00299615
0.00300012
0.00300362
0.00300668
0.00300932
0.00301154
0.00301338
0.00301484
0.00301595
0.00301671
0.00301714
0.00301725
0.00301706
0.00301657
0.00301581
0.00301477
0.00301348
0.00301193
0.00301015
0.00300814
0.0030059
0.00300345
0.00300079
0.00299793
0.00299488
0.00299164
0.00298823
0.00298463
0.00298086
0.00297693
0.00297283
0.00296857
0.00296416
0.0029596
0.00295488
0.00295002
0.00294501
0.00293986
0.00293457
0.00292914
0.00292357
0.00291787
0.00291202
0.00290604
0.00289992
0.00289366
0.00288727
0.00288074
0.00287408
0.00286727
0.00286032
0.00285324
0.00284601
0.00283864
0.00283112
0.00282346
0.00281565
0.00280768
0.00279957
0.0027913
0.00278288
0.00277429
0.00276555
0.00275664
0.00274756
0.00273831
0.00272889
0.0027193
0.00270952
0.00269957
0.00268943
0.0026791
0.00266858
0.00265787
0.00264696
0.00263585
0.00262454
0.00261302
0.00260128
0.00258934
0.00257717
0.00256478
0.00255217
0.00253934
0.00252626
0.00251296
0.00249942
0.00248563
0.0024716
0.00245732
0.00244278
0.00242799
0.00241294
0.00239763
0.00238205
0.0023662
0.00235007
0.00233366
0.00231697
0.0023
0.00228273
0.00226517
0.00224731
0.00222914
0.00221066
0.00219186
0.00217275
0.00215331
0.00213353
0.00211341
0.00209294
0.00207211
0.00205092
0.00202935
0.00200739
0.00198502
0.00196225
0.00193904
0.00191538
0.00189125
0.00186663
0.0018415
0.00181582
0.00178956
0.00176268
0.00173513
0.00170686
0.0016778
0.00164782
0.00161682
0.0015846
0.00155115
0.00151641
0.00148022
0.00144236
0.00140259
0.00136054
0.00131572
0.00126745
0.00121456
0.00115487
0.00108747
0.00100954
0.000916334
0.000799255
0.000640958
0.000402059
5.4058e-05
7.34447e-05
0.000552133
0.000878077
0.00110567
0.00127457
0.00141273
0.00153123
0.00163541
0.00172811
0.00181204
0.00188883
0.00195963
0.0020253
0.00208651
0.00214379
0.00219755
0.00224814
0.00229585
0.0023409
0.00238351
0.00242384
0.00246204
0.00249825
0.00253259
0.00256515
0.00259603
0.00262532
0.00265308
0.0026794
0.00270434
0.00272794
0.00275029
0.00277141
0.00279137
0.00281021
0.00282797
0.0028447
0.00286043
0.00287521
0.00288907
0.00290204
0.00291414
0.0029254
0.00293576
0.00294508
0.00295361
0.00296146
0.00296866
0.00297526
0.00298128
0.00298676
0.00299171
0.00299616
0.00300012
0.00300363
0.00300669
0.00300932
0.00301155
0.00301339
0.00301485
0.00301596
0.00301671
0.00301714
0.00301725
0.00301706
0.00301658
0.00301581
0.00301478
0.00301348
0.00301194
0.00301016
0.00300814
0.00300591
0.00300346
0.0030008
0.00299794
0.00299489
0.00299165
0.00298823
0.00298463
0.00298087
0.00297693
0.00297283
0.00296858
0.00296417
0.0029596
0.00295489
0.00295003
0.00294502
0.00293987
0.00293458
0.00292915
0.00292358
0.00291787
0.00291203
0.00290604
0.00289993
0.00289367
0.00288728
0.00288075
0.00287408
0.00286727
0.00286033
0.00285324
0.00284601
0.00283864
0.00283113
0.00282346
0.00281565
0.00280769
0.00279958
0.00279131
0.00278288
0.0027743
0.00276555
0.00275664
0.00274756
0.00273832
0.0027289
0.0027193
0.00270953
0.00269957
0.00268943
0.00267911
0.00266859
0.00265788
0.00264697
0.00263586
0.00262454
0.00261302
0.00260129
0.00258934
0.00257718
0.00256479
0.00255218
0.00253934
0.00252627
0.00251296
0.00249942
0.00248563
0.0024716
0.00245732
0.00244279
0.002428
0.00241295
0.00239763
0.00238205
0.0023662
0.00235007
0.00233367
0.00231698
0.0023
0.00228274
0.00226517
0.00224731
0.00222914
0.00221066
0.00219187
0.00217275
0.00215331
0.00213353
0.00211341
0.00209294
0.00207212
0.00205092
0.00202935
0.00200739
0.00198503
0.00196225
0.00193904
0.00191538
0.00189126
0.00186664
0.0018415
0.00181582
0.00178956
0.00176268
0.00173514
0.00170687
0.0016778
0.00164783
0.00161682
0.0015846
0.00155116
0.00151641
0.00148022
0.00144236
0.00140259
0.00136054
0.00131573
0.00126745
0.00121456
0.00115487
0.00108748
0.00100955
0.000916335
0.000799255
0.000640963
0.000402055
5.40495e-05
9.19236e-05
0.000839881
0.00149419
0.00198378
0.00236892
0.00268812
0.00296213
0.00320289
0.00341766
0.00361159
0.0037883
0.00395045
0.00410006
0.00423871
0.00436768
0.00448798
0.00460049
0.00470593
0.00480492
0.00489799
0.00498561
0.00506819
0.0051461
0.00521966
0.00528915
0.00535485
0.00541698
0.00547576
0.00553139
0.00558404
0.00563388
0.00568105
0.00572569
0.00576794
0.0058079
0.00584569
0.00588141
0.00591515
0.00594699
0.00597702
0.0060053
0.00603189
0.00605682
0.00608009
0.00610165
0.0061217
0.00614039
0.00615779
0.006174
0.00618906
0.00620303
0.00621596
0.0062279
0.00623889
0.00624896
0.00625815
0.00626649
0.00627402
0.00628076
0.00628676
0.00629202
0.00629659
0.00630049
0.00630373
0.00630635
0.00630837
0.00630981
0.00631068
0.00631101
0.00631081
0.00631011
0.00630891
0.00630723
0.0063051
0.00630251
0.00629949
0.00629604
0.00629218
0.00628792
0.00628326
0.00627822
0.0062728
0.00626701
0.00626087
0.00625436
0.00624751
0.00624031
0.00623277
0.0062249
0.00621669
0.00620816
0.0061993
0.00619011
0.0061806
0.00617076
0.0061606
0.00615013
0.00613933
0.0061282
0.00611676
0.00610499
0.00609289
0.00608047
0.00606771
0.00605462
0.0060412
0.00602744
0.00601333
0.00599888
0.00598408
0.00596892
0.00595341
0.00593753
0.00592128
0.00590466
0.00588766
0.00587027
0.00585249
0.00583432
0.00581574
0.00579676
0.00577736
0.00575754
0.00573729
0.0057166
0.00569547
0.0056739
0.00565186
0.00562936
0.00560639
0.00558295
0.00555901
0.00553458
0.00550965
0.00548421
0.00545825
0.00543177
0.00540475
0.00537719
0.00534907
0.0053204
0.00529116
0.00526134
0.00523094
0.00519994
0.00516833
0.00513611
0.00510326
0.00506978
0.00503565
0.00500087
0.00496541
0.00492927
0.00489244
0.0048549
0.00481663
0.00477763
0.00473788
0.00469735
0.00465603
0.0046139
0.00457095
0.00452713
0.00448243
0.00443683
0.00439029
0.00434277
0.00429424
0.00424466
0.00419398
0.00414216
0.00408912
0.00403482
0.00397916
0.00392208
0.00386347
0.00380323
0.00374121
0.00367726
0.00361119
0.00354276
0.00347169
0.00339769
0.00332046
0.00323965
0.00315475
0.00306513
0.00297
0.00286831
0.00275866
0.00263914
0.00250702
0.00235837
0.00218892
0.00199187
0.00175662
0.00146634
0.00109375
0.000599329
6.57543e-05
9.19244e-05
0.000839887
0.0014942
0.00198381
0.00236895
0.00268816
0.00296217
0.00320292
0.00341769
0.00361162
0.00378833
0.00395048
0.00410009
0.00423874
0.0043677
0.00448801
0.00460052
0.00470595
0.00480494
0.00489801
0.00498563
0.00506821
0.00514612
0.00521967
0.00528917
0.00535486
0.005417
0.00547578
0.00553141
0.00558406
0.00563389
0.00568106
0.00572571
0.00576795
0.00580791
0.0058457
0.00588142
0.00591516
0.005947
0.00597702
0.0060053
0.00603189
0.00605683
0.0060801
0.00610165
0.00612171
0.0061404
0.0061578
0.006174
0.00618906
0.00620304
0.00621597
0.00622791
0.00623889
0.00624896
0.00625815
0.00626649
0.00627402
0.00628077
0.00628676
0.00629203
0.00629659
0.00630049
0.00630374
0.00630636
0.00630837
0.00630981
0.00631068
0.00631101
0.00631081
0.00631011
0.00630891
0.00630724
0.0063051
0.00630251
0.00629949
0.00629604
0.00629218
0.00628792
0.00628326
0.00627822
0.0062728
0.00626702
0.00626087
0.00625436
0.00624751
0.00624031
0.00623278
0.0062249
0.0062167
0.00620816
0.0061993
0.00619011
0.0061806
0.00617076
0.00616061
0.00615013
0.00613933
0.00612821
0.00611676
0.00610499
0.00609289
0.00608047
0.00606771
0.00605463
0.0060412
0.00602744
0.00601333
0.00599888
0.00598408
0.00596892
0.00595341
0.00593753
0.00592128
0.00590466
0.00588766
0.00587027
0.00585249
0.00583432
0.00581574
0.00579676
0.00577736
0.00575754
0.00573729
0.0057166
0.00569547
0.0056739
0.00565186
0.00562936
0.00560639
0.00558295
0.00555901
0.00553458
0.00550965
0.00548421
0.00545825
0.00543177
0.00540475
0.00537719
0.00534907
0.0053204
0.00529116
0.00526134
0.00523094
0.00519994
0.00516833
0.00513611
0.00510326
0.00506978
0.00503565
0.00500087
0.00496541
0.00492927
0.00489244
0.0048549
0.00481663
0.00477763
0.00473788
0.00469735
0.00465603
0.0046139
0.00457095
0.00452713
0.00448244
0.00443683
0.00439029
0.00434277
0.00429424
0.00424466
0.00419398
0.00414216
0.00408912
0.00403482
0.00397916
0.00392208
0.00386347
0.00380323
0.00374121
0.00367726
0.00361119
0.00354276
0.00347169
0.00339769
0.00332046
0.00323965
0.00315475
0.00306513
0.00297
0.00286831
0.00275866
0.00263914
0.00250702
0.00235838
0.00218892
0.00199187
0.00175662
0.00146634
0.00109375
0.000599325
6.57554e-05
0.000104242
0.00101436
0.00190778
0.00261671
0.00319526
0.00368337
0.00410604
0.00447919
0.00481331
0.00511572
0.00539169
0.00564514
0.0058791
0.00609592
0.00629754
0.00648552
0.00666118
0.00682565
0.00697988
0.00712473
0.00726093
0.00738915
0.00750996
0.00762391
0.00773145
0.00783304
0.00792904
0.00801984
0.00810574
0.00818705
0.00826404
0.00833696
0.00840604
0.0084715
0.00853352
0.00859229
0.00864797
0.00870072
0.00875067
0.00879794
0.00884266
0.00888492
0.00892478
0.00896232
0.00899756
0.00903068
0.00906182
0.00909109
0.0091186
0.00914444
0.00916868
0.00919139
0.00921265
0.00923252
0.00925104
0.00926827
0.00928427
0.00929907
0.00931272
0.00932526
0.00933674
0.00934718
0.00935663
0.00936512
0.00937268
0.00937934
0.00938513
0.00939008
0.00939421
0.00939755
0.00940012
0.00940195
0.00940304
0.00940344
0.00940314
0.00940218
0.00940056
0.0093983
0.00939542
0.00939192
0.00938783
0.00938315
0.00937788
0.00937205
0.00936566
0.00935871
0.00935122
0.00934318
0.00933461
0.00932551
0.00931589
0.00930574
0.00929506
0.00928387
0.00927216
0.00925994
0.00924719
0.00923393
0.00922015
0.00920584
0.00919102
0.00917567
0.00915979
0.00914338
0.00912643
0.00910894
0.00909091
0.00907232
0.00905318
0.00903348
0.00901321
0.00899236
0.00897093
0.00894891
0.00892629
0.00890307
0.00887923
0.00885476
0.00882967
0.00880393
0.00877754
0.00875049
0.00872277
0.00869436
0.00866526
0.00863546
0.00860495
0.00857371
0.00854173
0.008509
0.00847551
0.00844125
0.0084062
0.00837035
0.00833369
0.0082962
0.00825788
0.0082187
0.00817866
0.00813774
0.00809592
0.00805319
0.00800954
0.00796494
0.00791939
0.00787285
0.00782533
0.00777679
0.00772723
0.00767661
0.00762492
0.00757214
0.00751824
0.0074632
0.007407
0.00734961
0.00729099
0.00723112
0.00716996
0.00710749
0.00704366
0.00697843
0.00691175
0.00684359
0.00677387
0.00670256
0.00662958
0.00655487
0.00647834
0.00639992
0.0063195
0.00623699
0.00615225
0.00606516
0.00597555
0.00588326
0.00578808
0.00568976
0.00558803
0.00548256
0.00537296
0.00525878
0.00513951
0.00501454
0.00488316
0.00474448
0.00459735
0.00444036
0.00427166
0.00408892
0.00388907
0.00366801
0.00342029
0.00313873
0.00281406
0.00243262
0.00197515
0.00141556
0.000730225
7.48749e-05
0.000104243
0.00101438
0.00190781
0.00261675
0.00319531
0.00368342
0.00410609
0.00447924
0.00481336
0.00511577
0.00539174
0.00564519
0.00587914
0.00609597
0.00629758
0.00648556
0.00666122
0.00682569
0.00697992
0.00712477
0.00726097
0.00738918
0.00750999
0.00762394
0.00773148
0.00783306
0.00792907
0.00801986
0.00810576
0.00818707
0.00826406
0.00833698
0.00840606
0.00847151
0.00853353
0.0085923
0.00864798
0.00870073
0.00875068
0.00879795
0.00884267
0.00888493
0.00892479
0.00896233
0.00899757
0.00903069
0.00906183
0.0090911
0.00911861
0.00914444
0.00916868
0.0091914
0.00921266
0.00923252
0.00925104
0.00926827
0.00928427
0.00929907
0.00931272
0.00932526
0.00933674
0.00934718
0.00935663
0.00936512
0.00937268
0.00937934
0.00938513
0.00939008
0.00939421
0.00939755
0.00940012
0.00940194
0.00940304
0.00940344
0.00940314
0.00940218
0.00940056
0.0093983
0.00939542
0.00939192
0.00938783
0.00938314
0.00937788
0.00937205
0.00936566
0.00935871
0.00935122
0.00934318
0.00933461
0.00932551
0.00931589
0.00930573
0.00929506
0.00928387
0.00927216
0.00925993
0.00924719
0.00923393
0.00922014
0.00920584
0.00919102
0.00917566
0.00915978
0.00914337
0.00912643
0.00910894
0.0090909
0.00907232
0.00905318
0.00903348
0.0090132
0.00899236
0.00897093
0.00894891
0.00892629
0.00890306
0.00887922
0.00885476
0.00882966
0.00880393
0.00877754
0.00875048
0.00872276
0.00869436
0.00866526
0.00863546
0.00860494
0.0085737
0.00854172
0.00850899
0.00847551
0.00844124
0.00840619
0.00837034
0.00833368
0.0082962
0.00825788
0.0082187
0.00817866
0.00813774
0.00809592
0.00805319
0.00800953
0.00796494
0.00791938
0.00787285
0.00782533
0.00777679
0.00772722
0.0076766
0.00762492
0.00757213
0.00751824
0.0074632
0.007407
0.0073496
0.00729098
0.00723111
0.00716996
0.00710749
0.00704365
0.00697842
0.00691175
0.00684358
0.00677387
0.00670256
0.00662958
0.00655486
0.00647834
0.00639992
0.0063195
0.00623698
0.00615225
0.00606515
0.00597555
0.00588326
0.00578807
0.00568975
0.00558803
0.00548256
0.00537296
0.00525878
0.0051395
0.00501453
0.00488316
0.00474447
0.00459735
0.00444035
0.00427166
0.00408892
0.00388907
0.003668
0.00342028
0.00313873
0.00281406
0.00243262
0.00197515
0.00141556
0.000730224
7.48753e-05
0.000114154
0.00113302
0.00220292
0.00308832
0.00382847
0.00446183
0.00501511
0.00550648
0.00594846
0.00634996
0.00671749
0.00705595
0.00736912
0.00765997
0.00793092
0.00818397
0.00842077
0.00864276
0.00885117
0.00904708
0.00923144
0.00940511
0.00956885
0.00972336
0.00986928
0.0100072
0.0101376
0.0102609
0.0103777
0.0104883
0.0105932
0.0106925
0.0107868
0.0108762
0.010961
0.0110415
0.0111179
0.0111905
0.0112593
0.0113246
0.0113866
0.0114454
0.011501
0.0115537
0.0116035
0.0116506
0.0116952
0.0117373
0.0117771
0.0118147
0.0118503
0.0118839
0.0119155
0.0119454
0.0119734
0.0119999
0.0120246
0.0120479
0.0120696
0.0120899
0.0121088
0.0121264
0.0121426
0.0121576
0.0121714
0.012184
0.0121955
0.0122058
0.0122151
0.0122233
0.0122306
0.0122368
0.0122421
0.0122464
0.0122498
0.0122523
0.012254
0.0122548
0.0122547
0.0122538
0.0122522
0.0122497
0.0122464
0.0122424
0.0122376
0.012232
0.0122258
0.0122187
0.012211
0.0122025
0.0121933
0.0121834
0.0121727
0.0121614
0.0121493
0.0121365
0.012123
0.0121088
0.0120939
0.0120783
0.0120619
0.0120448
0.012027
0.0120085
0.0119892
0.0119692
0.0119484
0.0119269
0.0119046
0.0118815
0.0118577
0.011833
0.0118076
0.0117813
0.0117542
0.0117263
0.0116975
0.0116679
0.0116374
0.011606
0.0115738
0.0115406
0.0115065
0.0114715
0.0114355
0.0113985
0.0113606
0.0113217
0.0112817
0.0112408
0.0111987
0.0111557
0.0111115
0.0110662
0.0110198
0.0109723
0.0109237
0.0108738
0.0108228
0.0107705
0.010717
0.0106622
0.0106062
0.0105488
0.0104901
0.0104301
0.0103686
0.0103058
0.0102415
0.0101758
0.0101085
0.0100397
0.00996931
0.00989733
0.0098237
0.00974838
0.00967133
0.00959249
0.00951183
0.00942927
0.00934478
0.00925827
0.00916969
0.00907896
0.008986
0.00889072
0.00879303
0.00869281
0.00858996
0.00848434
0.0083758
0.00826419
0.00814932
0.00803099
0.00790896
0.00778297
0.00765272
0.00751784
0.00737794
0.00723253
0.00708105
0.00692287
0.00675721
0.00658318
0.00639971
0.00620549
0.00599888
0.00577789
0.00553999
0.00528201
0.0049999
0.00468847
0.00434109
0.00394916
0.00350185
0.00298473
0.00237921
0.00166378
0.000830143
8.21659e-05
0.000114155
0.00113303
0.00220295
0.00308836
0.00382852
0.00446188
0.00501517
0.00550654
0.00594852
0.00635002
0.00671755
0.00705601
0.00736917
0.00766002
0.00793098
0.00818402
0.00842082
0.00864281
0.00885122
0.00904712
0.00923148
0.00940515
0.00956889
0.0097234
0.00986931
0.0100072
0.0101376
0.0102609
0.0103777
0.0104884
0.0105932
0.0106926
0.0107868
0.0108762
0.010961
0.0110415
0.0111179
0.0111905
0.0112593
0.0113246
0.0113866
0.0114454
0.011501
0.0115537
0.0116035
0.0116506
0.0116952
0.0117373
0.0117771
0.0118148
0.0118503
0.0118839
0.0119155
0.0119454
0.0119734
0.0119999
0.0120246
0.0120479
0.0120696
0.0120899
0.0121088
0.0121264
0.0121426
0.0121576
0.0121714
0.012184
0.0121955
0.0122058
0.0122151
0.0122233
0.0122306
0.0122368
0.0122421
0.0122464
0.0122498
0.0122523
0.012254
0.0122548
0.0122547
0.0122538
0.0122522
0.0122497
0.0122464
0.0122424
0.0122376
0.012232
0.0122258
0.0122187
0.012211
0.0122025
0.0121933
0.0121833
0.0121727
0.0121614
0.0121493
0.0121365
0.012123
0.0121088
0.0120939
0.0120783
0.0120619
0.0120448
0.012027
0.0120085
0.0119892
0.0119692
0.0119484
0.0119269
0.0119046
0.0118815
0.0118577
0.011833
0.0118076
0.0117813
0.0117542
0.0117263
0.0116975
0.0116679
0.0116374
0.011606
0.0115738
0.0115406
0.0115065
0.0114715
0.0114355
0.0113985
0.0113606
0.0113217
0.0112817
0.0112408
0.0111987
0.0111557
0.0111115
0.0110662
0.0110198
0.0109723
0.0109237
0.0108738
0.0108228
0.0107705
0.010717
0.0106622
0.0106062
0.0105488
0.0104901
0.0104301
0.0103686
0.0103058
0.0102415
0.0101757
0.0101085
0.0100397
0.00996931
0.00989732
0.00982369
0.00974838
0.00967132
0.00959249
0.00951182
0.00942927
0.00934477
0.00925827
0.00916969
0.00907895
0.00898599
0.00889071
0.00879302
0.00869281
0.00858995
0.00848433
0.00837579
0.00826418
0.00814931
0.00803098
0.00790896
0.00778297
0.00765271
0.00751784
0.00737793
0.00723252
0.00708105
0.00692286
0.0067572
0.00658318
0.00639971
0.00620548
0.00599888
0.00577789
0.00553999
0.005282
0.00499989
0.00468846
0.00434109
0.00394916
0.00350185
0.00298473
0.00237921
0.00166378
0.000830141
8.2166e-05
0.00012258
0.00122734
0.00243169
0.00345754
0.00433039
0.00508582
0.00575088
0.00634487
0.00688161
0.00737108
0.0078207
0.00823608
0.00862157
0.00898059
0.00931594
0.00962991
0.0099244
0.0102011
0.0104614
0.0107065
0.0109376
0.0111556
0.0113615
0.0115561
0.01174
0.0119141
0.0120789
0.012235
0.0123829
0.0125232
0.0126562
0.0127825
0.0129024
0.0130163
0.0131245
0.0132273
0.013325
0.0134179
0.0135062
0.0135902
0.0136701
0.013746
0.0138181
0.0138866
0.0139516
0.0140133
0.0140719
0.0141275
0.0141803
0.0142304
0.0142779
0.014323
0.0143658
0.0144063
0.0144446
0.0144809
0.0145153
0.0145477
0.0145782
0.014607
0.0146341
0.0146596
0.0146834
0.0147057
0.0147265
0.0147459
0.0147639
0.0147805
0.0147957
0.0148097
0.0148225
0.014834
0.0148443
0.0148535
0.0148615
0.0148685
0.0148743
0.0148791
0.0148828
0.0148855
0.0148872
0.0148879
0.0148876
0.0148864
0.0148842
0.014881
0.014877
0.014872
0.014866
0.0148592
0.0148514
0.0148428
0.0148332
0.0148228
0.0148114
0.0147991
0.014786
0.0147719
0.0147569
0.0147411
0.0147243
0.0147066
0.0146879
0.0146684
0.0146479
0.0146264
0.014604
0.0145807
0.0145563
0.014531
0.0145047
0.0144774
0.0144491
0.0144197
0.0143893
0.0143578
0.0143253
0.0142917
0.014257
0.0142211
0.0141841
0.014146
0.0141067
0.0140662
0.0140245
0.0139816
0.0139375
0.013892
0.0138453
0.0137973
0.0137479
0.0136972
0.0136452
0.0135917
0.0135368
0.0134804
0.0134226
0.0133633
0.0133024
0.01324
0.013176
0.0131104
0.0130431
0.0129742
0.0129035
0.0128311
0.0127569
0.0126809
0.012603
0.0125233
0.0124416
0.0123579
0.0122721
0.0121843
0.0120943
0.0120021
0.0119077
0.0118109
0.0117117
0.0116101
0.0115059
0.0113991
0.0112896
0.0111772
0.0110619
0.0109435
0.0108219
0.010697
0.0105686
0.0104365
0.0103005
0.0101605
0.0100161
0.00986713
0.00971322
0.00955403
0.00938914
0.0092181
0.00904036
0.00885529
0.00866216
0.00846013
0.00824819
0.00802516
0.00778963
0.00753991
0.00727394
0.00698918
0.00668254
0.00635019
0.00598738
0.00558815
0.00514509
0.00464892
0.00408801
0.00344853
0.00271367
0.00186689
0.000912261
8.8327e-05
0.00012258
0.00122736
0.00243173
0.00345759
0.00433045
0.00508588
0.00575094
0.00634494
0.00688167
0.00737115
0.00782077
0.00823615
0.00862163
0.00898066
0.00931601
0.00962997
0.00992446
0.0102011
0.0104614
0.0107065
0.0109376
0.0111557
0.0113616
0.0115561
0.0117401
0.0119141
0.0120789
0.012235
0.0123829
0.0125232
0.0126563
0.0127825
0.0129024
0.0130163
0.0131245
0.0132273
0.013325
0.0134179
0.0135063
0.0135902
0.0136701
0.013746
0.0138181
0.0138866
0.0139516
0.0140133
0.0140719
0.0141275
0.0141803
0.0142304
0.0142779
0.014323
0.0143658
0.0144063
0.0144446
0.0144809
0.0145153
0.0145477
0.0145782
0.014607
0.0146341
0.0146596
0.0146834
0.0147057
0.0147265
0.0147459
0.0147639
0.0147805
0.0147957
0.0148097
0.0148225
0.014834
0.0148443
0.0148535
0.0148615
0.0148685
0.0148743
0.0148791
0.0148828
0.0148855
0.0148872
0.0148879
0.0148876
0.0148864
0.0148842
0.014881
0.014877
0.014872
0.014866
0.0148592
0.0148514
0.0148428
0.0148332
0.0148228
0.0148114
0.0147991
0.014786
0.0147719
0.0147569
0.0147411
0.0147243
0.0147066
0.0146879
0.0146684
0.0146479
0.0146264
0.014604
0.0145806
0.0145563
0.014531
0.0145047
0.0144774
0.014449
0.0144197
0.0143893
0.0143578
0.0143253
0.0142917
0.014257
0.0142211
0.0141841
0.014146
0.0141067
0.0140662
0.0140245
0.0139816
0.0139375
0.013892
0.0138453
0.0137973
0.0137479
0.0136972
0.0136452
0.0135917
0.0135368
0.0134804
0.0134226
0.0133633
0.0133024
0.01324
0.013176
0.0131104
0.0130431
0.0129741
0.0129035
0.0128311
0.0127569
0.0126809
0.012603
0.0125233
0.0124415
0.0123578
0.0122721
0.0121843
0.0120943
0.0120021
0.0119077
0.0118109
0.0117117
0.0116101
0.0115059
0.0113991
0.0112896
0.0111772
0.0110618
0.0109435
0.0108219
0.010697
0.0105686
0.0104365
0.0103005
0.0101605
0.0100161
0.00986712
0.00971321
0.00955402
0.00938913
0.00921809
0.00904035
0.00885528
0.00866216
0.00846012
0.00824818
0.00802515
0.00778963
0.00753991
0.00727393
0.00698917
0.00668254
0.00635019
0.00598737
0.00558814
0.00514509
0.00464892
0.00408801
0.00344853
0.00271367
0.00186689
0.000912258
8.8327e-05
0.000130058
0.00130814
0.00262055
0.00375983
0.00474184
0.00559943
0.00635937
0.00704155
0.00766056
0.00822716
0.00874938
0.00923338
0.00968392
0.0101048
0.010499
0.0108691
0.0112171
0.0115449
0.0118541
0.0121459
0.0124216
0.0126823
0.0129289
0.0131624
0.0133836
0.0135932
0.0137919
0.0139804
0.0141593
0.0143292
0.0144906
0.0146439
0.0147897
0.0149283
0.0150601
0.0151856
0.015305
0.0154187
0.015527
0.01563
0.0157282
0.0158217
0.0159107
0.0159955
0.0160761
0.0161529
0.016226
0.0162955
0.0163618
0.0164248
0.0164848
0.0165419
0.0165962
0.0166479
0.016697
0.0167437
0.016788
0.0168301
0.01687
0.0169078
0.0169436
0.0169774
0.0170094
0.0170395
0.0170679
0.0170945
0.0171195
0.0171429
0.0171648
0.0171851
0.0172039
0.0172213
0.0172373
0.0172519
0.0172651
0.0172771
0.0172877
0.0172971
0.0173053
0.0173122
0.0173179
0.0173225
0.0173258
0.017328
0.0173291
0.0173291
0.0173279
0.0173256
0.0173222
0.0173177
0.0173122
0.0173055
0.0172977
0.0172889
0.017279
0.017268
0.0172559
0.0172427
0.0172285
0.0172131
0.0171967
0.0171791
0.0171605
0.0171407
0.0171197
0.0170977
0.0170745
0.0170501
0.0170246
0.0169978
0.0169699
0.0169408
0.0169104
0.0168788
0.016846
0.0168118
0.0167764
0.0167397
0.0167016
0.0166622
0.0166214
0.0165792
0.0165356
0.0164906
0.0164441
0.0163961
0.0163466
0.0162956
0.0162431
0.0161889
0.0161331
0.0160757
0.0160167
0.0159559
0.0158934
0.0158292
0.0157631
0.0156952
0.0156255
0.0155539
0.0154803
0.0154048
0.0153273
0.0152477
0.015166
0.0150822
0.0149962
0.014908
0.0148175
0.0147246
0.0146294
0.0145317
0.0144315
0.0143287
0.0142233
0.0141152
0.0140042
0.0138904
0.0137737
0.0136538
0.0135308
0.0134046
0.0132749
0.0131417
0.0130049
0.0128642
0.0127196
0.0125708
0.0124177
0.0122599
0.0120974
0.0119297
0.0117566
0.0115777
0.0113927
0.0112011
0.0110023
0.0107959
0.0105811
0.0103571
0.0101231
0.00987806
0.00962069
0.00934956
0.00906299
0.00875892
0.00843491
0.00808802
0.00771467
0.00731053
0.00687031
0.00638758
0.00585447
0.00526144
0.00459699
0.00384791
0.00299952
0.00203976
0.000982692
9.37204e-05
0.000130058
0.00130815
0.00262059
0.00375987
0.00474189
0.00559949
0.00635943
0.00704162
0.00766063
0.00822723
0.00874946
0.00923346
0.00968399
0.0101048
0.010499
0.0108691
0.0112172
0.011545
0.0118541
0.012146
0.0124217
0.0126823
0.012929
0.0131625
0.0133836
0.0135932
0.0137919
0.0139805
0.0141594
0.0143293
0.0144906
0.0146439
0.0147897
0.0149283
0.0150602
0.0151856
0.0153051
0.0154187
0.015527
0.0156301
0.0157282
0.0158217
0.0159107
0.0159955
0.0160761
0.0161529
0.016226
0.0162956
0.0163618
0.0164248
0.0164848
0.0165419
0.0165962
0.0166479
0.016697
0.0167437
0.016788
0.0168301
0.01687
0.0169078
0.0169436
0.0169774
0.0170094
0.0170395
0.0170679
0.0170945
0.0171195
0.0171429
0.0171648
0.0171851
0.0172039
0.0172213
0.0172373
0.0172519
0.0172651
0.0172771
0.0172877
0.0172971
0.0173053
0.0173122
0.0173179
0.0173225
0.0173258
0.017328
0.0173291
0.0173291
0.0173279
0.0173256
0.0173222
0.0173177
0.0173122
0.0173055
0.0172977
0.0172889
0.017279
0.017268
0.0172559
0.0172427
0.0172285
0.0172131
0.0171967
0.0171791
0.0171605
0.0171407
0.0171197
0.0170977
0.0170745
0.0170501
0.0170246
0.0169978
0.0169699
0.0169408
0.0169104
0.0168788
0.016846
0.0168118
0.0167764
0.0167397
0.0167016
0.0166622
0.0166214
0.0165792
0.0165356
0.0164906
0.0164441
0.0163961
0.0163466
0.0162956