/*--------------------------------*- C++ -*----------------------------------*\
  =========                 |
  \\      /  F ield         | OpenFOAM: The Open Source CFD Toolbox
   \\    /   O peration     | Website:  https://openfoam.org
    \\  /    A nd           | Version:  8
     \\/     M anipulation  |
\*---------------------------------------------------------------------------*/
FoamFile
{
    version     2.0;
    format      ascii;
    class       volVectorField;
    location    "3400";
    object      U;
}
// * * * * * * * * * * * * * * * * * * * * * * * * * * * * * * * * * * * * * //

dimensions      [0 1 -1 0 0 0 0];

internalField   nonuniform List<vector> 
48000
(
(-0.0170906 2.15222e-07 0.0187136)
(-0.034944 -6.25314e-08 0.0171715)
(-0.0489353 -1.58431e-07 0.0084615)
(-0.0526176 -1.30135e-07 0.000206802)
(-0.048523 -9.27849e-08 -0.00577887)
(-0.0392289 -8.13857e-08 -0.00979884)
(-0.026289 -6.69559e-08 -0.0124554)
(-0.0111355 -3.71253e-08 -0.0141675)
(0.00569103 -5.81371e-09 -0.0150938)
(0.0230719 1.22674e-08 -0.0153849)
(0.0408052 1.4765e-08 -0.0153367)
(0.0585242 5.2352e-09 -0.0150771)
(0.0760026 -8.78723e-09 -0.0146741)
(0.0930811 -2.15723e-08 -0.0141729)
(0.109644 -3.0154e-08 -0.0136051)
(0.125605 -3.38661e-08 -0.0129929)
(0.140907 -3.34435e-08 -0.0123525)
(0.155504 -3.0093e-08 -0.0116959)
(0.169371 -2.50597e-08 -0.0110324)
(0.182489 -1.93411e-08 -0.0103687)
(0.19485 -1.36301e-08 -0.00971053)
(0.206454 -8.36456e-09 -0.00906197)
(0.217305 -3.7634e-09 -0.00842648)
(0.227413 4.96384e-11 -0.00780672)
(0.236792 3.09931e-09 -0.00720485)
(0.245459 5.41988e-09 -0.00662255)
(0.253433 7.0951e-09 -0.00606113)
(0.260737 8.25062e-09 -0.0055216)
(0.267394 8.99115e-09 -0.00500469)
(0.273429 9.41376e-09 -0.0045109)
(0.278868 9.59842e-09 -0.00404052)
(0.283739 9.60984e-09 -0.00359368)
(0.288067 9.51276e-09 -0.00317033)
(0.291882 9.33952e-09 -0.00277028)
(0.295209 9.1187e-09 -0.00239324)
(0.298077 8.88455e-09 -0.0020388)
(0.300512 8.62375e-09 -0.00170644)
(0.302541 8.36866e-09 -0.00139558)
(0.30419 8.10596e-09 -0.00110557)
(0.305484 7.83945e-09 -0.000835707)
(0.306448 7.58626e-09 -0.000585246)
(0.307104 7.32546e-09 -0.000353421)
(0.307476 7.07608e-09 -0.000139398)
(0.307585 6.83432e-09 5.80474e-05)
(0.307452 6.60779e-09 0.000239516)
(0.307097 6.39648e-09 0.000405449)
(0.306538 6.1985e-09 0.000556956)
(0.305792 6.01195e-09 0.000694978)
(0.304877 5.84442e-09 0.000820361)
(0.303807 5.69594e-09 0.000933908)
(0.302598 5.55697e-09 0.00103639)
(0.301262 5.44656e-09 0.00112857)
(0.299813 5.34186e-09 0.00121118)
(0.298262 5.26572e-09 0.0012849)
(0.296621 5.2048e-09 0.00135043)
(0.294898 5.16101e-09 0.00140838)
(0.293105 5.14959e-09 0.00145937)
(0.291248 5.14198e-09 0.00150397)
(0.289336 5.16101e-09 0.00154272)
(0.287377 5.19718e-09 0.00157613)
(0.285376 5.24477e-09 0.00160465)
(0.283341 5.30949e-09 0.00162875)
(0.281275 5.38373e-09 0.00164881)
(0.279185 5.48272e-09 0.00166523)
(0.277074 5.58361e-09 0.00167836)
(0.274947 5.69973e-09 0.00168851)
(0.272808 5.82346e-09 0.001696)
(0.27066 5.951e-09 0.00170108)
(0.268505 6.08806e-09 0.00170402)
(0.266346 6.22893e-09 0.00170505)
(0.264187 6.36789e-09 0.00170437)
(0.262028 6.51066e-09 0.00170219)
(0.259872 6.66104e-09 0.00169867)
(0.25772 6.81333e-09 0.00169398)
(0.255574 6.96752e-09 0.00168827)
(0.253435 7.1198e-09 0.00168167)
(0.251305 7.2759e-09 0.0016743)
(0.249183 7.43009e-09 0.00166627)
(0.247072 7.57666e-09 0.0016577)
(0.244971 7.72133e-09 0.00164866)
(0.242881 7.86791e-09 0.00163926)
(0.240803 8.00496e-09 0.00162956)
(0.238737 8.14773e-09 0.00161964)
(0.236684 8.2905e-09 0.00160956)
(0.234642 8.42375e-09 0.00159939)
(0.232614 8.55699e-09 0.00158919)
(0.230598 8.68072e-09 0.001579)
(0.228594 8.80826e-09 0.00156888)
(0.226603 8.92438e-09 0.00155887)
(0.224625 9.03098e-09 0.00154901)
(0.222658 9.14709e-09 0.00153935)
(0.220704 9.2575e-09 0.00152992)
(0.21876 9.36409e-09 0.00152076)
(0.216829 9.46879e-09 0.00151191)
(0.214908 9.56587e-09 0.00150339)
(0.212997 9.66104e-09 0.00149523)
(0.211097 9.75241e-09 0.00148747)
(0.209205 9.84378e-09 0.00148013)
(0.207323 9.93705e-09 0.00147325)
(0.205449 1.00151e-08 0.00146684)
(0.203583 1.00912e-08 0.00146093)
(0.201723 1.01769e-08 0.00145555)
(0.199871 1.02511e-08 0.00145073)
(0.198023 1.03254e-08 0.00144647)
(0.196181 1.03939e-08 0.00144282)
(0.194343 1.047e-08 0.00143978)
(0.192509 1.05386e-08 0.00143738)
(0.190677 1.06033e-08 0.00143564)
(0.188846 1.06737e-08 0.00143459)
(0.187017 1.07365e-08 0.00143424)
(0.185188 1.08031e-08 0.00143461)
(0.183358 1.08641e-08 0.00143573)
(0.181526 1.0925e-08 0.0014376)
(0.179692 1.09859e-08 0.00144026)
(0.177853 1.10525e-08 0.00144372)
(0.17601 1.11191e-08 0.001448)
(0.174162 1.118e-08 0.00145311)
(0.172306 1.12467e-08 0.00145907)
(0.170443 1.13171e-08 0.00146591)
(0.168571 1.13856e-08 0.00147363)
(0.166689 1.14599e-08 0.00148225)
(0.164795 1.15246e-08 0.00149179)
(0.16289 1.16083e-08 0.00150227)
(0.160971 1.16845e-08 0.00151369)
(0.159038 1.1772e-08 0.00152607)
(0.157089 1.18558e-08 0.00153943)
(0.155124 1.19395e-08 0.00155377)
(0.15314 1.20309e-08 0.00156911)
(0.151137 1.21337e-08 0.00158546)
(0.149114 1.22327e-08 0.00160282)
(0.147069 1.23469e-08 0.0016212)
(0.145001 1.24687e-08 0.00164062)
(0.142909 1.25829e-08 0.00166107)
(0.140792 1.27162e-08 0.00168255)
(0.138648 1.28418e-08 0.00170508)
(0.136477 1.29827e-08 0.00172864)
(0.134277 1.3135e-08 0.00175324)
(0.132046 1.32949e-08 0.00177887)
(0.129785 1.3451e-08 0.00180553)
(0.127491 1.36261e-08 0.0018332)
(0.125164 1.38012e-08 0.00186188)
(0.122802 1.39916e-08 0.00189155)
(0.120404 1.41782e-08 0.00192219)
(0.117969 1.43761e-08 0.00195378)
(0.115497 1.45969e-08 0.00198629)
(0.112985 1.48254e-08 0.00201971)
(0.110435 1.50729e-08 0.00205399)
(0.107843 1.53241e-08 0.00208909)
(0.10521 1.56097e-08 0.00212499)
(0.102535 1.59142e-08 0.00216162)
(0.0998173 1.62417e-08 0.00219894)
(0.0970561 1.66034e-08 0.00223688)
(0.0942509 1.69993e-08 0.00227539)
(0.0914014 1.74333e-08 0.00231439)
(0.0885073 1.79054e-08 0.00235379)
(0.0855683 1.84232e-08 0.00239352)
(0.0825844 1.89905e-08 0.00243346)
(0.0795558 1.95958e-08 0.00247352)
(0.0764825 2.02392e-08 0.00251357)
(0.0733651 2.09474e-08 0.00255347)
(0.070204 2.1686e-08 0.00259308)
(0.0670002 2.24589e-08 0.00263222)
(0.0637545 2.32698e-08 0.00267073)
(0.0604683 2.40579e-08 0.00270838)
(0.0571431 2.48612e-08 0.00274495)
(0.0537806 2.56151e-08 0.00278018)
(0.0503832 2.63384e-08 0.00281378)
(0.0469532 2.69895e-08 0.00284544)
(0.0434938 2.75187e-08 0.00287477)
(0.0400082 2.79793e-08 0.00290136)
(0.0365005 2.83524e-08 0.00292475)
(0.0329751 2.86418e-08 0.0029444)
(0.0294373 2.89083e-08 0.00295969)
(0.025893 2.92205e-08 0.00296993)
(0.0223491 2.96164e-08 0.00297431)
(0.0188132 3.02028e-08 0.00297189)
(0.0152944 3.10137e-08 0.00296161)
(0.0118027 3.20721e-08 0.00294221)
(0.0083502 3.33095e-08 0.0029122)
(0.00494902 3.46192e-08 0.00286969)
(0.00162146 3.57423e-08 0.00281234)
(-0.00163177 3.60469e-08 0.00273049)
(-0.00476196 3.57118e-08 0.00262199)
(-0.00776241 3.52702e-08 0.00249048)
(-0.0105984 3.4661e-08 0.00233354)
(-0.013238 3.42727e-08 0.0021462)
(-0.015643 3.46382e-08 0.00192172)
(-0.0177672 3.63819e-08 0.00165363)
(-0.0195571 3.9816e-08 0.00133319)
(-0.0209488 4.4872e-08 0.000949916)
(-0.0218661 5.06666e-08 0.000490971)
(-0.0222223 5.53267e-08 -5.91649e-05)
(-0.0219079 5.58749e-08 -0.00071337)
(-0.0208152 5.09484e-08 -0.00148386)
(-0.018822 4.34634e-08 -0.00237766)
(-0.0158205 4.2778e-08 -0.00337128)
(-0.011759 5.74434e-08 -0.00435885)
(-0.00691445 7.13623e-08 -0.00499289)
(-0.00135992 6.55607e-08 -0.00372629)
(0.000851007 3.16753e-09 0.00124838)
(-0.0170919 2.1522e-07 0.0187133)
(-0.0349443 -6.25316e-08 0.0171713)
(-0.0489353 -1.5843e-07 0.00846137)
(-0.0526173 -1.30134e-07 0.000206591)
(-0.0485227 -9.27842e-08 -0.00577911)
(-0.0392286 -8.13851e-08 -0.00979908)
(-0.0262886 -6.69554e-08 -0.0124556)
(-0.0111351 -3.71251e-08 -0.0141677)
(0.00569135 -5.81367e-09 -0.015094)
(0.0230721 1.22673e-08 -0.0153851)
(0.0408055 1.47649e-08 -0.0153369)
(0.0585244 5.23517e-09 -0.0150773)
(0.0760028 -8.78719e-09 -0.0146742)
(0.0930813 -2.15722e-08 -0.0141731)
(0.109644 -3.01539e-08 -0.0136053)
(0.125606 -3.3866e-08 -0.0129931)
(0.140907 -3.34434e-08 -0.0123527)
(0.155505 -3.00929e-08 -0.0116961)
(0.169371 -2.50597e-08 -0.0110325)
(0.182489 -1.93411e-08 -0.0103689)
(0.19485 -1.36301e-08 -0.00971067)
(0.206454 -8.36454e-09 -0.00906211)
(0.217305 -3.7634e-09 -0.00842661)
(0.227413 4.96383e-11 -0.00780685)
(0.236792 3.0993e-09 -0.00720497)
(0.245459 5.41987e-09 -0.00662267)
(0.253433 7.09509e-09 -0.00606125)
(0.260737 8.25061e-09 -0.00552172)
(0.267394 8.99114e-09 -0.00500481)
(0.273429 9.41375e-09 -0.00451101)
(0.278868 9.59841e-09 -0.00404064)
(0.283739 9.60983e-09 -0.00359379)
(0.288067 9.51274e-09 -0.00317043)
(0.291881 9.33951e-09 -0.00277039)
(0.295209 9.11869e-09 -0.00239335)
(0.298077 8.88454e-09 -0.0020389)
(0.300512 8.62374e-09 -0.00170654)
(0.302541 8.36865e-09 -0.00139568)
(0.30419 8.10595e-09 -0.00110567)
(0.305484 7.83944e-09 -0.000835803)
(0.306447 7.58625e-09 -0.000585341)
(0.307104 7.32545e-09 -0.000353514)
(0.307476 7.07608e-09 -0.00013949)
(0.307585 6.83431e-09 5.79567e-05)
(0.307452 6.60778e-09 0.000239426)
(0.307097 6.39648e-09 0.00040536)
(0.306537 6.1985e-09 0.000556869)
(0.305792 6.01194e-09 0.000694891)
(0.304877 5.84442e-09 0.000820276)
(0.303807 5.69594e-09 0.000933823)
(0.302598 5.55697e-09 0.00103631)
(0.301262 5.44656e-09 0.00112849)
(0.299813 5.34186e-09 0.0012111)
(0.298262 5.26571e-09 0.00128482)
(0.296621 5.20479e-09 0.00135035)
(0.294898 5.16101e-09 0.0014083)
(0.293104 5.14959e-09 0.00145929)
(0.291248 5.14197e-09 0.00150389)
(0.289336 5.16101e-09 0.00154264)
(0.287377 5.19717e-09 0.00157605)
(0.285376 5.24476e-09 0.00160458)
(0.283341 5.30949e-09 0.00162867)
(0.281275 5.38373e-09 0.00164873)
(0.279185 5.48271e-09 0.00166516)
(0.277074 5.5836e-09 0.00167828)
(0.274947 5.69972e-09 0.00168844)
(0.272808 5.82346e-09 0.00169592)
(0.27066 5.951e-09 0.00170101)
(0.268505 6.08805e-09 0.00170395)
(0.266346 6.22892e-09 0.00170497)
(0.264187 6.36788e-09 0.0017043)
(0.262028 6.51065e-09 0.00170211)
(0.259872 6.66103e-09 0.00169859)
(0.25772 6.81332e-09 0.00169391)
(0.255574 6.96751e-09 0.00168819)
(0.253435 7.1198e-09 0.00168159)
(0.251305 7.27589e-09 0.00167422)
(0.249183 7.43008e-09 0.0016662)
(0.247072 7.57665e-09 0.00165762)
(0.244971 7.72133e-09 0.00164859)
(0.242881 7.8679e-09 0.00163918)
(0.240803 8.00496e-09 0.00162948)
(0.238737 8.14772e-09 0.00161956)
(0.236683 8.29049e-09 0.00160948)
(0.234642 8.42374e-09 0.00159931)
(0.232614 8.55699e-09 0.00158911)
(0.230598 8.68072e-09 0.00157892)
(0.228594 8.80826e-09 0.0015688)
(0.226603 8.92437e-09 0.00155879)
(0.224625 9.03097e-09 0.00154893)
(0.222658 9.14708e-09 0.00153927)
(0.220703 9.25749e-09 0.00152984)
(0.21876 9.36409e-09 0.00152068)
(0.216829 9.46878e-09 0.00151183)
(0.214908 9.56586e-09 0.00150331)
(0.212997 9.66104e-09 0.00149515)
(0.211096 9.7524e-09 0.00148739)
(0.209205 9.84377e-09 0.00148005)
(0.207323 9.93705e-09 0.00147317)
(0.205449 1.00151e-08 0.00146676)
(0.203583 1.00912e-08 0.00146085)
(0.201723 1.01769e-08 0.00145547)
(0.19987 1.02511e-08 0.00145064)
(0.198023 1.03254e-08 0.00144639)
(0.196181 1.03939e-08 0.00144273)
(0.194343 1.047e-08 0.00143969)
(0.192509 1.05385e-08 0.0014373)
(0.190677 1.06033e-08 0.00143556)
(0.188846 1.06737e-08 0.00143451)
(0.187017 1.07365e-08 0.00143416)
(0.185188 1.08031e-08 0.00143453)
(0.183358 1.0864e-08 0.00143564)
(0.181526 1.0925e-08 0.00143752)
(0.179692 1.09859e-08 0.00144018)
(0.177853 1.10525e-08 0.00144364)
(0.17601 1.11191e-08 0.00144791)
(0.174162 1.118e-08 0.00145302)
(0.172306 1.12466e-08 0.00145898)
(0.170443 1.13171e-08 0.00146582)
(0.168571 1.13856e-08 0.00147354)
(0.166689 1.14598e-08 0.00148216)
(0.164795 1.15246e-08 0.0014917)
(0.16289 1.16083e-08 0.00150218)
(0.160971 1.16845e-08 0.0015136)
(0.159038 1.1772e-08 0.00152598)
(0.157089 1.18558e-08 0.00153934)
(0.155124 1.19395e-08 0.00155368)
(0.15314 1.20309e-08 0.00156902)
(0.151137 1.21337e-08 0.00158537)
(0.149114 1.22327e-08 0.00160273)
(0.147069 1.23469e-08 0.00162111)
(0.145001 1.24687e-08 0.00164052)
(0.142909 1.25829e-08 0.00166097)
(0.140792 1.27162e-08 0.00168246)
(0.138648 1.28418e-08 0.00170498)
(0.136477 1.29827e-08 0.00172854)
(0.134277 1.3135e-08 0.00175314)
(0.132046 1.32949e-08 0.00177877)
(0.129785 1.3451e-08 0.00180543)
(0.127491 1.36261e-08 0.0018331)
(0.125164 1.38012e-08 0.00186178)
(0.122802 1.39916e-08 0.00189145)
(0.120404 1.41781e-08 0.00192208)
(0.117969 1.43761e-08 0.00195367)
(0.115497 1.45969e-08 0.00198619)
(0.112985 1.48254e-08 0.0020196)
(0.110435 1.50728e-08 0.00205388)
(0.107843 1.53241e-08 0.00208899)
(0.10521 1.56097e-08 0.00212488)
(0.102535 1.59142e-08 0.00216151)
(0.0998173 1.62416e-08 0.00219882)
(0.0970561 1.66033e-08 0.00223677)
(0.0942509 1.69993e-08 0.00227527)
(0.0914014 1.74333e-08 0.00231427)
(0.0885073 1.79054e-08 0.00235367)
(0.0855683 1.84232e-08 0.0023934)
(0.0825845 1.89905e-08 0.00243334)
(0.0795558 1.95958e-08 0.0024734)
(0.0764825 2.02392e-08 0.00251344)
(0.0733651 2.09474e-08 0.00255334)
(0.0702041 2.1686e-08 0.00259295)
(0.0670002 2.24588e-08 0.00263209)
(0.0637545 2.32698e-08 0.00267059)
(0.0604683 2.40579e-08 0.00270824)
(0.0571431 2.48612e-08 0.00274481)
(0.0537807 2.5615e-08 0.00278003)
(0.0503832 2.63384e-08 0.00281364)
(0.0469533 2.69894e-08 0.00284528)
(0.0434938 2.75186e-08 0.00287461)
(0.0400082 2.79793e-08 0.0029012)
(0.0365005 2.83524e-08 0.00292459)
(0.0329751 2.86418e-08 0.00294423)
(0.0294373 2.89083e-08 0.00295952)
(0.0258931 2.92205e-08 0.00296976)
(0.0223491 2.96164e-08 0.00297413)
(0.0188133 3.02027e-08 0.00297171)
(0.0152944 3.10137e-08 0.00296142)
(0.0118028 3.20721e-08 0.00294202)
(0.00835024 3.33094e-08 0.002912)
(0.00494906 3.46191e-08 0.00286949)
(0.00162149 3.57422e-08 0.00281213)
(-0.00163174 3.60468e-08 0.00273027)
(-0.00476193 3.57118e-08 0.00262178)
(-0.00776238 3.52701e-08 0.00249026)
(-0.0105983 3.4661e-08 0.00233332)
(-0.0132379 3.42726e-08 0.00214597)
(-0.0156429 3.46381e-08 0.00192149)
(-0.0177672 3.63818e-08 0.00165339)
(-0.0195571 3.9816e-08 0.00133295)
(-0.0209487 4.48719e-08 0.000949664)
(-0.0218661 5.06665e-08 0.000490703)
(-0.0222224 5.53266e-08 -5.94557e-05)
(-0.021908 5.58748e-08 -0.000713689)
(-0.0208152 5.09483e-08 -0.0014842)
(-0.0188221 4.34633e-08 -0.00237802)
(-0.0158205 4.2778e-08 -0.00337162)
(-0.0117592 5.74435e-08 -0.00435916)
(-0.00691474 7.1363e-08 -0.0049933)
(-0.00136046 6.55601e-08 -0.00372702)
(0.000850428 3.16745e-09 0.00124669)
(-0.0141047 1.56222e-07 0.0395632)
(-0.0201997 2.97735e-08 0.0257773)
(-0.0202648 1.6753e-09 0.0109253)
(-0.0165496 -1.67961e-08 -0.00218676)
(-0.00955619 -1.99248e-08 -0.0122085)
(5.23724e-05 -1.59985e-08 -0.0193277)
(0.0117141 -8.06964e-09 -0.024168)
(0.0248438 -2.95027e-10 -0.027325)
(0.0390141 3.87497e-09 -0.0292095)
(0.0538223 3.78836e-09 -0.0301466)
(0.0689837 6.3778e-10 -0.0304401)
(0.084245 -3.79682e-09 -0.0302717)
(0.0994168 -7.86496e-09 -0.0297692)
(0.114352 -1.06719e-08 -0.0290226)
(0.128936 -1.19835e-08 -0.0280972)
(0.143082 -1.1993e-08 -0.0270412)
(0.156724 -1.10921e-08 -0.0258912)
(0.169812 -9.67484e-09 -0.0246756)
(0.182309 -8.06196e-09 -0.0234167)
(0.19419 -6.48476e-09 -0.0221323)
(0.205438 -5.07414e-09 -0.0208367)
(0.216044 -3.90005e-09 -0.0195416)
(0.226005 -2.98201e-09 -0.0182567)
(0.235324 -2.30572e-09 -0.0169898)
(0.244006 -1.83837e-09 -0.0157476)
(0.252061 -1.54282e-09 -0.0145354)
(0.259503 -1.38339e-09 -0.0133577)
(0.266348 -1.31914e-09 -0.012218)
(0.272612 -1.31771e-09 -0.0111191)
(0.278316 -1.35149e-09 -0.0100634)
(0.28348 -1.40432e-09 -0.00905247)
(0.288126 -1.46047e-09 -0.00808742)
(0.292276 -1.51377e-09 -0.00716896)
(0.295954 -1.5585e-09 -0.00629743)
(0.299181 -1.59277e-09 -0.00547276)
(0.301983 -1.6118e-09 -0.00469461)
(0.304381 -1.62465e-09 -0.00396236)
(0.306399 -1.63131e-09 -0.00327516)
(0.308061 -1.63178e-09 -0.00263194)
(0.309387 -1.62988e-09 -0.00203149)
(0.310399 -1.62321e-09 -0.00147243)
(0.31112 -1.61655e-09 -0.000953275)
(0.311568 -1.60369e-09 -0.000472461)
(0.311763 -1.59227e-09 -2.83334e-05)
(0.311725 -1.58798e-09 0.000380845)
(0.31147 -1.57894e-09 0.000756866)
(0.311017 -1.56799e-09 0.00110149)
(0.310381 -1.55704e-09 0.00141645)
(0.309577 -1.54419e-09 0.00170348)
(0.308621 -1.53087e-09 0.00196427)
(0.307525 -1.51564e-09 0.0022005)
(0.306303 -1.50088e-09 0.00241377)
(0.304965 -1.48375e-09 0.00260565)
(0.303525 -1.46376e-09 0.00277766)
(0.301991 -1.44662e-09 0.00293126)
(0.300374 -1.42378e-09 0.00306781)
(0.298682 -1.40189e-09 0.00318866)
(0.296924 -1.37714e-09 0.00329504)
(0.295108 -1.35144e-09 0.00338814)
(0.29324 -1.32384e-09 0.00346906)
(0.291327 -1.29671e-09 0.00353886)
(0.289374 -1.27006e-09 0.0035985)
(0.287388 -1.24103e-09 0.0036489)
(0.285373 -1.21248e-09 0.0036909)
(0.283334 -1.18345e-09 0.00372528)
(0.281274 -1.15632e-09 0.00375277)
(0.279198 -1.12919e-09 0.00377405)
(0.277109 -1.10349e-09 0.00378972)
(0.275009 -1.07684e-09 0.00380037)
(0.272903 -1.05543e-09 0.00380652)
(0.270791 -1.03497e-09 0.00380864)
(0.268677 -1.01403e-09 0.00380718)
(0.266562 -9.95469e-10 0.00380254)
(0.264449 -9.78337e-10 0.00379509)
(0.262338 -9.62158e-10 0.00378518)
(0.260231 -9.47406e-10 0.00377311)
(0.258129 -9.3551e-10 0.00375917)
(0.256033 -9.24565e-10 0.00374361)
(0.253945 -9.16477e-10 0.00372668)
(0.251865 -9.08864e-10 0.0037086)
(0.249793 -9.03154e-10 0.00368956)
(0.247731 -9.02204e-10 0.00366975)
(0.245678 -8.99351e-10 0.00364934)
(0.243636 -9.00304e-10 0.00362848)
(0.241603 -9.00306e-10 0.00360733)
(0.239581 -9.03163e-10 0.00358601)
(0.23757 -9.06973e-10 0.00356465)
(0.235569 -9.14113e-10 0.00354336)
(0.233579 -9.20302e-10 0.00352226)
(0.2316 -9.2887e-10 0.00350144)
(0.229631 -9.36962e-10 0.003481)
(0.227672 -9.46958e-10 0.00346102)
(0.225723 -9.57906e-10 0.0034416)
(0.223783 -9.68854e-10 0.0034228)
(0.221853 -9.80753e-10 0.0034047)
(0.219932 -9.95509e-10 0.00338739)
(0.21802 -1.00979e-09 0.00337091)
(0.216115 -1.02216e-09 0.00335534)
(0.214218 -1.03644e-09 0.00334074)
(0.212329 -1.0512e-09 0.00332717)
(0.210445 -1.06643e-09 0.00331469)
(0.208568 -1.08071e-09 0.00330335)
(0.206696 -1.09737e-09 0.0032932)
(0.204828 -1.11212e-09 0.0032843)
(0.202965 -1.12735e-09 0.0032767)
(0.201104 -1.14306e-09 0.00327044)
(0.199246 -1.15876e-09 0.00326557)
(0.19739 -1.17495e-09 0.00326215)
(0.195535 -1.19018e-09 0.0032602)
(0.193679 -1.20303e-09 0.00325978)
(0.191824 -1.21826e-09 0.00326093)
(0.189966 -1.23349e-09 0.00326369)
(0.188106 -1.24634e-09 0.00326809)
(0.186242 -1.26205e-09 0.00327419)
(0.184375 -1.27442e-09 0.00328201)
(0.182502 -1.28727e-09 0.0032916)
(0.180622 -1.2987e-09 0.00330298)
(0.178736 -1.30964e-09 0.0033162)
(0.176841 -1.32154e-09 0.00333129)
(0.174937 -1.33202e-09 0.00334827)
(0.173023 -1.34201e-09 0.00336718)
(0.171098 -1.35153e-09 0.00338805)
(0.16916 -1.3601e-09 0.0034109)
(0.167208 -1.36962e-09 0.00343576)
(0.165242 -1.37723e-09 0.00346265)
(0.163261 -1.38532e-09 0.00349159)
(0.161262 -1.39246e-09 0.0035226)
(0.159246 -1.3996e-09 0.0035557)
(0.157211 -1.40722e-09 0.0035909)
(0.155156 -1.41246e-09 0.00362821)
(0.153079 -1.4196e-09 0.00366764)
(0.150981 -1.4234e-09 0.00370918)
(0.148858 -1.42816e-09 0.00375285)
(0.146711 -1.4353e-09 0.00379863)
(0.144539 -1.44102e-09 0.00384652)
(0.14234 -1.44815e-09 0.00389651)
(0.140112 -1.45101e-09 0.00394857)
(0.137856 -1.45482e-09 0.00400269)
(0.13557 -1.4591e-09 0.00405882)
(0.133253 -1.46529e-09 0.00411695)
(0.130904 -1.46957e-09 0.00417703)
(0.128521 -1.47529e-09 0.004239)
(0.126105 -1.48338e-09 0.00430282)
(0.123654 -1.48956e-09 0.00436841)
(0.121168 -1.49385e-09 0.00443571)
(0.118644 -1.49956e-09 0.00450464)
(0.116084 -1.5048e-09 0.0045751)
(0.113485 -1.51146e-09 0.00464699)
(0.110848 -1.51479e-09 0.0047202)
(0.108172 -1.5205e-09 0.0047946)
(0.105456 -1.52241e-09 0.00487007)
(0.1027 -1.52812e-09 0.00494644)
(0.099904 -1.52907e-09 0.00502355)
(0.0970672 -1.52955e-09 0.00510122)
(0.0941898 -1.53383e-09 0.00517925)
(0.0912717 -1.53811e-09 0.00525742)
(0.0883132 -1.54192e-09 0.00533549)
(0.0853146 -1.54573e-09 0.0054132)
(0.0822763 -1.5562e-09 0.00549027)
(0.0791989 -1.56477e-09 0.00556637)
(0.0760834 -1.57809e-09 0.00564116)
(0.0729307 -1.59618e-09 0.00571427)
(0.069742 -1.62187e-09 0.00578527)
(0.0665189 -1.65804e-09 0.0058537)
(0.0632632 -1.70278e-09 0.00591906)
(0.0599768 -1.76084e-09 0.00598078)
(0.0566621 -1.83127e-09 0.00603824)
(0.0533219 -1.91598e-09 0.00609074)
(0.0499592 -2.01973e-09 0.00613751)
(0.0465777 -2.12919e-09 0.00617768)
(0.0431814 -2.25007e-09 0.00621028)
(0.0397747 -2.3719e-09 0.00623421)
(0.0363629 -2.48231e-09 0.00624824)
(0.0329519 -2.57368e-09 0.00625097)
(0.029548 -2.64602e-09 0.00624081)
(0.0261589 -2.67934e-09 0.00621595)
(0.0227928 -2.68409e-09 0.00617429)
(0.0194592 -2.66316e-09 0.00611341)
(0.0161688 -2.63365e-09 0.0060305)
(0.0129336 -2.62889e-09 0.00592199)
(0.0097679 -2.69171e-09 0.0057842)
(0.00668586 -2.80688e-09 0.00560981)
(0.00370622 -2.95251e-09 0.0053937)
(0.00084725 -3.16666e-09 0.00513271)
(-0.00186873 -3.39605e-09 0.00481941)
(-0.00441377 -3.54929e-09 0.004446)
(-0.00676118 -3.52264e-09 0.00400264)
(-0.00887873 -3.22282e-09 0.00347767)
(-0.0107311 -2.60319e-09 0.00285688)
(-0.012279 -1.73419e-09 0.00212413)
(-0.0134795 -8.72806e-10 0.00126134)
(-0.0142878 -5.65372e-10 0.000249238)
(-0.014659 -1.49243e-09 -0.000926372)
(-0.0145487 -3.85672e-09 -0.00227107)
(-0.0139259 -6.06111e-09 -0.00376997)
(-0.0127802 -3.6359e-09 -0.00534994)
(-0.011139 6.4361e-09 -0.00680419)
(-0.00904391 2.46326e-09 -0.00765468)
(-0.00643748 -2.61519e-08 -0.00666392)
(-0.00389191 -3.14525e-07 -0.00196366)
(-0.0141053 1.56223e-07 0.0395627)
(-0.0201999 2.97734e-08 0.0257772)
(-0.0202647 1.67528e-09 0.0109252)
(-0.0165495 -1.67959e-08 -0.00218692)
(-0.00955605 -1.99245e-08 -0.0122087)
(5.25245e-05 -1.59983e-08 -0.0193279)
(0.0117142 -8.06955e-09 -0.0241681)
(0.024844 -2.95024e-10 -0.0273251)
(0.0390142 3.87494e-09 -0.0292096)
(0.0538224 3.78832e-09 -0.0301467)
(0.0689838 6.37775e-10 -0.0304402)
(0.0842451 -3.79679e-09 -0.0302717)
(0.0994168 -7.86491e-09 -0.0297692)
(0.114352 -1.06719e-08 -0.0290227)
(0.128936 -1.19835e-08 -0.0280972)
(0.143082 -1.1993e-08 -0.0270412)
(0.156724 -1.10921e-08 -0.0258912)
(0.169812 -9.6748e-09 -0.0246757)
(0.182309 -8.06192e-09 -0.0234168)
(0.19419 -6.48474e-09 -0.0221323)
(0.205438 -5.07412e-09 -0.0208367)
(0.216044 -3.90004e-09 -0.0195417)
(0.226005 -2.98199e-09 -0.0182567)
(0.235324 -2.30572e-09 -0.0169899)
(0.244005 -1.83837e-09 -0.0157476)
(0.252061 -1.54282e-09 -0.0145354)
(0.259503 -1.38339e-09 -0.0133577)
(0.266348 -1.31913e-09 -0.012218)
(0.272612 -1.3177e-09 -0.0111192)
(0.278316 -1.35149e-09 -0.0100635)
(0.28348 -1.40431e-09 -0.00905249)
(0.288126 -1.46047e-09 -0.00808744)
(0.292276 -1.51377e-09 -0.00716898)
(0.295953 -1.5585e-09 -0.00629744)
(0.299181 -1.59276e-09 -0.00547278)
(0.301982 -1.6118e-09 -0.00469463)
(0.304381 -1.62464e-09 -0.00396238)
(0.306399 -1.6313e-09 -0.00327518)
(0.30806 -1.63178e-09 -0.00263197)
(0.309387 -1.62987e-09 -0.00203151)
(0.310399 -1.62321e-09 -0.00147245)
(0.311119 -1.61654e-09 -0.000953298)
(0.311568 -1.60369e-09 -0.000472483)
(0.311763 -1.59227e-09 -2.83565e-05)
(0.311725 -1.58798e-09 0.000380821)
(0.31147 -1.57894e-09 0.000756842)
(0.311017 -1.56799e-09 0.00110146)
(0.310381 -1.55704e-09 0.00141642)
(0.309577 -1.54419e-09 0.00170345)
(0.308621 -1.53086e-09 0.00196425)
(0.307525 -1.51563e-09 0.00220047)
(0.306302 -1.50088e-09 0.00241374)
(0.304965 -1.48374e-09 0.00260563)
(0.303525 -1.46376e-09 0.00277764)
(0.301991 -1.44662e-09 0.00293123)
(0.300374 -1.42378e-09 0.00306779)
(0.298682 -1.40189e-09 0.00318863)
(0.296924 -1.37714e-09 0.00329501)
(0.295108 -1.35144e-09 0.00338811)
(0.29324 -1.32384e-09 0.00346904)
(0.291327 -1.29671e-09 0.00353884)
(0.289374 -1.27006e-09 0.00359848)
(0.287388 -1.24103e-09 0.00364888)
(0.285373 -1.21247e-09 0.00369087)
(0.283333 -1.18344e-09 0.00372525)
(0.281274 -1.15632e-09 0.00375275)
(0.279198 -1.12919e-09 0.00377402)
(0.277109 -1.10349e-09 0.0037897)
(0.275009 -1.07684e-09 0.00380035)
(0.272903 -1.05543e-09 0.00380649)
(0.270791 -1.03497e-09 0.00380861)
(0.268677 -1.01403e-09 0.00380715)
(0.266562 -9.95467e-10 0.00380252)
(0.264449 -9.78336e-10 0.00379507)
(0.262338 -9.62156e-10 0.00378516)
(0.260231 -9.47405e-10 0.00377309)
(0.258129 -9.35508e-10 0.00375915)
(0.256033 -9.24564e-10 0.00374359)
(0.253945 -9.16475e-10 0.00372666)
(0.251865 -9.08862e-10 0.00370858)
(0.249793 -9.03153e-10 0.00368954)
(0.247731 -9.02203e-10 0.00366973)
(0.245678 -8.99349e-10 0.00364932)
(0.243636 -9.00303e-10 0.00362846)
(0.241603 -9.00305e-10 0.00360731)
(0.239581 -9.03162e-10 0.00358599)
(0.23757 -9.06971e-10 0.00356463)
(0.235569 -9.14112e-10 0.00354334)
(0.233579 -9.20301e-10 0.00352224)
(0.2316 -9.28869e-10 0.00350142)
(0.22963 -9.36961e-10 0.00348098)
(0.227672 -9.46957e-10 0.003461)
(0.225723 -9.57905e-10 0.00344158)
(0.223783 -9.68853e-10 0.00342278)
(0.221853 -9.80752e-10 0.00340468)
(0.219932 -9.95507e-10 0.00338737)
(0.21802 -1.00979e-09 0.00337089)
(0.216115 -1.02216e-09 0.00335532)
(0.214218 -1.03644e-09 0.00334072)
(0.212329 -1.0512e-09 0.00332715)
(0.210445 -1.06643e-09 0.00331467)
(0.208568 -1.08071e-09 0.00330333)
(0.206696 -1.09736e-09 0.00329318)
(0.204828 -1.11212e-09 0.00328428)
(0.202965 -1.12735e-09 0.00327668)
(0.201104 -1.14306e-09 0.00327042)
(0.199246 -1.15876e-09 0.00326555)
(0.19739 -1.17495e-09 0.00326213)
(0.195535 -1.19018e-09 0.00326018)
(0.193679 -1.20303e-09 0.00325976)
(0.191823 -1.21826e-09 0.00326091)
(0.189966 -1.23349e-09 0.00326367)
(0.188106 -1.24634e-09 0.00326807)
(0.186242 -1.26205e-09 0.00327417)
(0.184375 -1.27442e-09 0.00328199)
(0.182502 -1.28727e-09 0.00329158)
(0.180622 -1.2987e-09 0.00330296)
(0.178736 -1.30964e-09 0.00331618)
(0.176841 -1.32154e-09 0.00333127)
(0.174937 -1.33201e-09 0.00334825)
(0.173023 -1.34201e-09 0.00336716)
(0.171098 -1.35153e-09 0.00338803)
(0.16916 -1.3601e-09 0.00341088)
(0.167208 -1.36962e-09 0.00343574)
(0.165242 -1.37723e-09 0.00346263)
(0.163261 -1.38532e-09 0.00349157)
(0.161262 -1.39246e-09 0.00352258)
(0.159246 -1.3996e-09 0.00355568)
(0.157211 -1.40722e-09 0.00359088)
(0.155156 -1.41245e-09 0.00362819)
(0.153079 -1.41959e-09 0.00366761)
(0.150981 -1.4234e-09 0.00370916)
(0.148858 -1.42816e-09 0.00375283)
(0.146711 -1.4353e-09 0.00379861)
(0.144539 -1.44101e-09 0.0038465)
(0.14234 -1.44815e-09 0.00389649)
(0.140112 -1.45101e-09 0.00394855)
(0.137856 -1.45482e-09 0.00400266)
(0.13557 -1.4591e-09 0.0040588)
(0.133253 -1.46529e-09 0.00411693)
(0.130904 -1.46957e-09 0.004177)
(0.128521 -1.47528e-09 0.00423898)
(0.126105 -1.48338e-09 0.00430279)
(0.123654 -1.48956e-09 0.00436839)
(0.121168 -1.49385e-09 0.00443569)
(0.118644 -1.49956e-09 0.00450461)
(0.116084 -1.50479e-09 0.00457507)
(0.113485 -1.51146e-09 0.00464696)
(0.110848 -1.51479e-09 0.00472017)
(0.108172 -1.5205e-09 0.00479458)
(0.105456 -1.5224e-09 0.00487004)
(0.1027 -1.52812e-09 0.00494641)
(0.099904 -1.52907e-09 0.00502352)
(0.0970672 -1.52954e-09 0.00510119)
(0.0941898 -1.53383e-09 0.00517922)
(0.0912717 -1.53811e-09 0.00525739)
(0.0883132 -1.54192e-09 0.00533547)
(0.0853146 -1.54573e-09 0.00541318)
(0.0822763 -1.5562e-09 0.00549024)
(0.079199 -1.56476e-09 0.00556634)
(0.0760834 -1.57809e-09 0.00564113)
(0.0729307 -1.59617e-09 0.00571424)
(0.069742 -1.62187e-09 0.00578524)
(0.066519 -1.65804e-09 0.00585367)
(0.0632632 -1.70278e-09 0.00591903)
(0.0599768 -1.76084e-09 0.00598075)
(0.0566621 -1.83127e-09 0.00603821)
(0.0533219 -1.91598e-09 0.00609071)
(0.0499593 -2.01973e-09 0.00613748)
(0.0465777 -2.12919e-09 0.00617764)
(0.0431814 -2.25007e-09 0.00621024)
(0.0397747 -2.3719e-09 0.00623418)
(0.036363 -2.48231e-09 0.00624821)
(0.0329519 -2.57368e-09 0.00625094)
(0.0295481 -2.64602e-09 0.00624078)
(0.0261589 -2.67933e-09 0.00621591)
(0.0227928 -2.68409e-09 0.00617425)
(0.0194592 -2.66315e-09 0.00611337)
(0.0161688 -2.63364e-09 0.00603046)
(0.0129336 -2.62889e-09 0.00592195)
(0.00976791 -2.6917e-09 0.00578415)
(0.00668588 -2.80687e-09 0.00560976)
(0.00370623 -2.9525e-09 0.00539366)
(0.000847265 -3.16666e-09 0.00513266)
(-0.00186872 -3.39604e-09 0.00481936)
(-0.00441376 -3.54928e-09 0.00444596)
(-0.00676116 -3.52263e-09 0.0040026)
(-0.00887871 -3.22281e-09 0.00347762)
(-0.0107311 -2.60319e-09 0.00285683)
(-0.012279 -1.73419e-09 0.00212408)
(-0.0134795 -8.72804e-10 0.00126129)
(-0.0142878 -5.65371e-10 0.000249178)
(-0.014659 -1.49243e-09 -0.00092644)
(-0.0145487 -3.85672e-09 -0.00227114)
(-0.0139259 -6.0611e-09 -0.00377005)
(-0.0127803 -3.6359e-09 -0.00535002)
(-0.0111391 6.43614e-09 -0.00680429)
(-0.00904406 2.46329e-09 -0.00765481)
(-0.0064378 -2.61519e-08 -0.00666415)
(-0.00389266 -3.14521e-07 -0.00196426)
(-0.0055591 1.56063e-07 0.0529582)
(-0.00552189 2.14545e-08 0.0252586)
(-0.000233723 1.07273e-08 0.00507945)
(0.00689195 9.0142e-10 -0.0106081)
(0.0154792 -9.15646e-10 -0.0225277)
(0.0253006 1.33165e-09 -0.0312736)
(0.0362253 5.16375e-09 -0.0374583)
(0.0480586 8.35478e-09 -0.0416422)
(0.0605912 9.53601e-09 -0.0442772)
(0.0736229 8.65936e-09 -0.0457243)
(0.0869642 6.48299e-09 -0.0462827)
(0.100434 3.88305e-09 -0.0461715)
(0.113883 1.59103e-09 -0.0455549)
(0.127182 -3.51797e-11 -0.0445555)
(0.140231 -9.2086e-10 -0.0432666)
(0.152946 -1.18547e-09 -0.0417599)
(0.16526 -1.01532e-09 -0.0400912)
(0.177122 -5.97943e-10 -0.0383048)
(0.188493 -8.2047e-11 -0.0364361)
(0.199342 4.25282e-10 -0.0345139)
(0.209649 8.67172e-10 -0.0325618)
(0.219399 1.21102e-09 -0.0305992)
(0.228585 1.44946e-09 -0.0286422)
(0.237203 1.58819e-09 -0.0267043)
(0.245256 1.64601e-09 -0.0247967)
(0.25275 1.6365e-09 -0.0229288)
(0.259692 1.5801e-09 -0.0211083)
(0.266094 1.49492e-09 -0.0193415)
(0.271971 1.39164e-09 -0.0176335)
(0.277336 1.28551e-09 -0.0159885)
(0.282207 1.18296e-09 -0.0144096)
(0.286603 1.08682e-09 -0.012899)
(0.290542 1.00259e-09 -0.0114583)
(0.294044 9.3001e-10 -0.0100885)
(0.297129 8.70522e-10 -0.00878976)
(0.299818 8.22217e-10 -0.00756195)
(0.30213 7.82717e-10 -0.00640438)
(0.304087 7.50356e-10 -0.00531599)
(0.305709 7.26085e-10 -0.00429537)
(0.307015 7.04907e-10 -0.00334082)