/*--------------------------------*- C++ -*----------------------------------*\
  =========                 |
  \\      /  F ield         | OpenFOAM: The Open Source CFD Toolbox
   \\    /   O peration     | Website:  https://openfoam.org
    \\  /    A nd           | Version:  8
     \\/     M anipulation  |
\*---------------------------------------------------------------------------*/
FoamFile
{
    version     2.0;
    format      ascii;
    class       volScalarField;
    location    "100";
    object      alphat;
}
// * * * * * * * * * * * * * * * * * * * * * * * * * * * * * * * * * * * * * //

dimensions      [1 -1 -1 0 0 0 0];

internalField   nonuniform List<scalar> 
46000
(
5.07481e-05
7.12488e-05
8.73197e-05
0.000100224
0.000110605
0.000119106
0.000126259
0.00013247
0.000138025
0.000143115
0.000147846
0.00015227
0.000156419
0.000160354
0.00016394
0.00016709
0.000169755
0.00017192
0.000173595
0.000174808
0.000175601
0.000176023
0.00017613
0.000175978
0.000175623
0.00017512
0.000174519
0.000173865
0.000173197
0.000172548
0.000171944
0.000171408
0.000170947
0.000170565
0.000170263
0.000170037
0.000169883
0.000169794
0.000169762
0.000169777
0.000169831
0.000169916
0.000170024
0.000170147
0.00017028
0.000170421
0.00017057
0.000170727
0.000170893
0.000171069
0.000171257
0.000171457
0.00017167
0.000171893
0.000172125
0.000172364
0.000172606
0.000172851
0.000173098
0.000173346
0.000173592
0.000173833
0.000174068
0.000174297
0.000174518
0.000174732
0.000174937
0.000175131
0.000175311
0.000175475
0.000175618
0.000175737
0.000175827
0.000175887
0.000175914
0.00017591
0.000175879
0.000175827
0.00017576
0.000175695
0.000175643
0.000175615
0.000175623
0.000175676
0.000175782
0.000175948
0.000176176
0.000176467
0.000176816
0.000177217
0.000177663
0.000178143
0.000178651
0.000179179
0.000179718
0.000180261
0.000180801
0.000181329
0.000181839
0.000182327
0.000182786
0.000183215
0.000183611
0.000183971
0.000184301
0.000184598
0.000184864
0.0001851
0.000185307
0.000185489
0.000185647
0.000185781
0.000185892
0.000185979
0.000186042
0.000186084
0.000186108
0.000186122
0.000186131
0.000186143
0.000186166
0.000186207
0.000186273
0.000186366
0.000186486
0.000186627
0.00018678
0.000186932
0.000187076
0.000187206
0.000187311
0.000187388
0.000187435
0.000187454
0.000187448
0.000187423
0.000187383
0.000187333
0.000187276
0.000187214
0.000187151
0.000187087
0.000187023
0.00018696
0.0001869
0.000186844
0.000186792
0.000186746
0.000186705
0.00018667
0.000186639
0.000186611
0.000186583
0.000186553
0.000186518
0.000186473
0.000186415
0.000186339
0.000186243
0.000186121
0.000185971
0.000185789
0.000185573
0.000185321
0.000185034
0.000184711
0.000184355
0.00018397
0.000183559
0.000183129
0.000182684
0.000182231
0.000181774
0.000181316
0.00018086
0.000180405
0.00017995
0.000179493
0.000179029
0.000178556
0.00017807
0.00017757
0.000177056
0.000176525
0.000175971
0.000175378
0.000174712
0.000173915
0.00017289
0.000171504
0.000169581
0.000166911
0.000163255
0.000158341
0.000151831
0.000143232
0.000131729
0.000116028
9.45781e-05
6.60946e-05
5.07607e-05
7.12396e-05
8.73234e-05
0.000100232
0.000110614
0.000119114
0.000126267
0.000132479
0.000138036
0.000143128
0.000147862
0.00015229
0.000156441
0.000160378
0.000163966
0.000167116
0.000169782
0.000171948
0.000173624
0.000174838
0.000175633
0.000176056
0.000176164
0.000176012
0.000175657
0.000175153
0.000174551
0.000173896
0.000173228
0.000172578
0.000171973
0.000171436
0.000170974
0.000170592
0.000170289
0.000170063
0.00016991
0.000169821
0.000169789
0.000169804
0.000169858
0.000169943
0.00017005
0.000170173
0.000170305
0.000170446
0.000170594
0.00017075
0.000170916
0.000171092
0.000171279
0.00017148
0.000171692
0.000171916
0.000172148
0.000172387
0.00017263
0.000172875
0.000173122
0.000173369
0.000173615
0.000173856
0.00017409
0.000174319
0.00017454
0.000174754
0.000174959
0.000175153
0.000175333
0.000175498
0.000175641
0.00017576
0.00017585
0.000175909
0.000175937
0.000175933
0.000175902
0.000175849
0.000175783
0.000175717
0.000175665
0.000175638
0.000175647
0.000175701
0.000175809
0.000175975
0.000176204
0.000176494
0.000176842
0.000177242
0.000177687
0.000178168
0.000178677
0.000179205
0.000179745
0.000180289
0.000180829
0.000181357
0.000181868
0.000182356
0.000182816
0.000183246
0.000183642
0.000184004
0.000184333
0.000184631
0.000184897
0.000185132
0.000185339
0.00018552
0.000185677
0.00018581
0.00018592
0.000186006
0.00018607
0.000186113
0.000186138
0.000186152
0.000186162
0.000186174
0.000186198
0.000186239
0.000186303
0.000186393
0.000186509
0.000186647
0.000186797
0.000186951
0.0001871
0.000187235
0.000187345
0.000187426
0.000187476
0.000187497
0.000187492
0.000187467
0.000187427
0.000187376
0.000187318
0.000187255
0.000187189
0.000187122
0.000187056
0.000186992
0.00018693
0.000186871
0.000186818
0.00018677
0.000186728
0.000186692
0.00018666
0.000186631
0.000186603
0.000186572
0.000186536
0.000186491
0.000186432
0.000186356
0.000186259
0.000186137
0.000185987
0.000185805
0.00018559
0.000185338
0.00018505
0.000184726
0.000184369
0.000183982
0.00018357
0.000183138
0.000182692
0.000182238
0.00018178
0.000181322
0.000180865
0.00018041
0.000179955
0.000179498
0.000179035
0.000178562
0.000178077
0.000177579
0.000177067
0.000176537
0.000175985
0.000175393
0.000174729
0.000173932
0.000172908
0.000171523
0.0001696
0.00016693
0.000163273
0.000158359
0.000151848
0.000143248
0.000131744
0.000116042
9.4588e-05
6.60955e-05
7.13996e-05
0.000136415
0.000180774
0.000211796
0.000234026
0.000250152
0.000262004
0.000270873
0.000277663
0.000282995
0.000287282
0.00029078
0.000293616
0.00029589
0.000297761
0.000299265
0.00030042
0.000301244
0.000301754
0.000301973
0.000301929
0.000301657
0.000301199
0.000300599
0.000299903
0.000299153
0.00029839
0.000297649
0.000296956
0.00029633
0.000295785
0.000295323
0.000294946
0.000294654
0.000294443
0.000294307
0.000294239
0.000294227
0.000294262
0.000294333
0.00029443
0.000294545
0.000294672
0.000294811
0.000294959
0.000295115
0.000295281
0.000295457
0.000295649
0.000295857
0.000296083
0.000296327
0.000296586
0.000296857
0.000297136
0.00029742
0.000297704
0.000297985
0.000298261
0.000298532
0.000298801
0.000299066
0.000299327
0.000299582
0.000299831
0.00030007
0.000300296
0.000300505
0.00030069
0.000300846
0.000300968
0.00030105
0.000301092
0.000301092
0.000301054
0.000300985
0.000300893
0.000300788
0.000300681
0.000300585
0.000300509
0.000300467
0.000300468
0.000300521
0.00030063
0.000300796
0.00030102
0.000301295
0.000301616
0.000301974
0.000302363
0.000302774
0.000303203
0.000303643
0.000304091
0.00030454
0.000304985
0.000305422
0.000305844
0.00030625
0.000306635
0.000306997
0.000307333
0.000307643
0.000307925
0.000308184
0.000308421
0.000308637
0.000308833
0.000309011
0.00030917
0.000309306
0.000309415
0.000309494
0.000309544
0.000309573
0.000309588
0.000309602
0.000309624
0.000309663
0.000309728
0.000309824
0.000309952
0.00031011
0.00031029
0.000310479
0.000310664
0.00031083
0.00031097
0.000311077
0.000311152
0.000311203
0.000311234
0.000311251
0.000311261
0.000311265
0.000311265
0.000311262
0.000311254
0.000311243
0.000311229
0.000311214
0.000311197
0.00031118
0.000311166
0.000311155
0.000311148
0.000311145
0.000311144
0.000311144
0.000311141
0.000311134
0.000311119
0.000311094
0.000311056
0.000311001
0.000310925
0.000310824
0.000310695
0.000310535
0.000310341
0.000310111
0.000309845
0.000309542
0.000309204
0.000308835
0.000308441
0.000308025
0.000307595
0.000307156
0.000306715
0.000306275
0.000305838
0.000305404
0.000304971
0.000304536
0.000304094
0.000303642
0.000303175
0.000302695
0.000302202
0.000301702
0.000301198
0.000300689
0.000300161
0.000299573
0.000298848
0.000297855
0.000296401
0.000294231
0.000291031
0.000286454
0.000280125
0.000271633
0.000260465
0.000245848
0.000226437
0.000199638
0.000158626
8.13863e-05
7.14427e-05
0.000136357
0.0001807
0.000211741
0.000234002
0.00025016
0.000262042
0.000270936
0.000277748
0.000283099
0.000287402
0.000290914
0.000293762
0.000296041
0.000297915
0.000299419
0.000300575
0.0003014
0.000301912
0.000302133
0.000302091
0.000301818
0.000301357
0.000300752
0.00030005
0.000299295
0.000298527
0.000297781
0.000297084
0.000296457
0.000295911
0.000295448
0.000295071
0.000294779
0.000294569
0.000294434
0.000294367
0.000294357
0.000294393
0.000294464
0.000294562
0.000294676
0.000294803
0.000294941
0.000295088
0.000295245
0.00029541
0.000295586
0.000295777
0.000295984
0.00029621
0.000296453
0.000296712
0.000296982
0.000297261
0.000297545
0.000297829
0.00029811
0.000298385
0.000298656
0.000298924
0.000299188
0.000299448
0.000299703
0.000299952
0.000300192
0.000300419
0.000300628
0.000300813
0.000300969
0.000301091
0.000301174
0.000301216
0.000301216
0.000301178
0.000301108
0.000301016
0.00030091
0.000300803
0.000300706
0.000300631
0.000300589
0.000300592
0.000300646
0.000300756
0.000300923
0.000301146
0.000301421
0.000301742
0.0003021
0.000302489
0.000302901
0.000303331
0.000303772
0.00030422
0.00030467
0.000305115
0.00030555
0.000305973
0.000306378
0.000306762
0.000307124
0.00030746
0.000307771
0.000308054
0.000308312
0.000308548
0.000308762
0.000308957
0.000309131
0.000309285
0.000309418
0.000309527
0.000309609
0.000309661
0.00030969
0.000309706
0.000309719
0.00030974
0.000309779
0.000309843
0.000309938
0.000310065
0.000310221
0.000310398
0.000310586
0.000310773
0.000310945
0.000311093
0.00031121
0.000311292
0.000311343
0.000311371
0.000311383
0.000311387
0.000311388
0.000311386
0.000311382
0.000311372
0.000311359
0.000311342
0.000311325
0.000311307
0.00031129
0.000311275
0.000311263
0.000311255
0.000311251
0.00031125
0.000311249
0.000311246
0.000311238
0.000311223
0.000311199
0.00031116
0.000311104
0.000311026
0.000310924
0.000310796
0.000310637
0.000310446
0.000310218
0.000309953
0.000309649
0.000309309
0.000308938
0.000308541
0.000308124
0.000307692
0.000307253
0.000306811
0.00030637
0.000305934
0.000305501
0.000305069
0.000304634
0.000304192
0.00030374
0.000303275
0.000302797
0.000302307
0.000301809
0.000301308
0.000300802
0.000300276
0.000299691
0.000298967
0.000297976
0.000296523
0.000294352
0.000291152
0.000286574
0.000280242
0.000271745
0.00026057
0.000245944
0.000226522
0.000199712
0.000158691
8.13949e-05
8.9884e-05
0.000171685
0.000229209
0.000270016
0.000299311
0.000320353
0.000335432
0.000346222
0.000353969
0.000359586
0.000363714
0.000366772
0.000368998
0.000370482
0.00037146
0.000372049
0.000372319
0.000372317
0.000372077
0.000371627
0.000371001
0.000370232
0.000369359
0.000368423
0.000367461
0.000366513
0.000365609
0.000364774
0.000364028
0.00036338
0.000362835
0.000362387
0.000362037
0.000361783
0.000361619
0.000361535
0.000361521
0.000361562
0.000361648
0.000361766
0.000361904
0.000362054
0.00036221
0.00036237
0.000362532
0.0003627
0.000362875
0.000363062
0.000363264
0.000363487
0.00036373
0.000363996
0.000364282
0.000364586
0.000364903
0.000365229
0.000365559
0.000365888
0.000366211
0.000366526
0.000366835
0.000367138
0.000367434
0.000367721
0.000367998
0.000368259
0.000368502
0.000368718
0.000368903
0.00036905
0.000369154
0.00036921
0.000369218
0.000369178
0.000369095
0.000368977
0.000368834
0.000368677
0.000368516
0.000368357
0.000368213
0.000368095
0.000368012
0.000367971
0.000367977
0.00036803
0.000368131
0.000368277
0.000368463
0.000368684
0.000368937
0.000369218
0.000369523
0.000369851
0.000370196
0.000370554
0.00037092
0.00037129
0.000371658
0.000372022
0.000372375
0.000372716
0.000373041
0.000373347
0.000373632
0.000373898
0.000374146
0.000374376
0.000374589
0.000374781
0.000374951
0.000375092
0.000375201
0.000375277
0.000375323
0.000375346
0.000375357
0.00037537
0.000375398
0.000375452
0.000375541
0.00037567
0.000375838
0.000376039
0.000376262
0.000376491
0.000376712
0.000376912
0.000377079
0.000377211
0.000377314
0.000377393
0.000377458
0.000377514
0.000377567
0.000377619
0.000377668
0.000377715
0.000377758
0.000377797
0.00037783
0.000377859
0.000377884
0.000377907
0.000377931
0.000377955
0.000377981
0.000378009
0.000378036
0.00037806
0.000378079
0.00037809
0.000378092
0.00037808
0.000378052
0.000378005
0.000377935
0.000377838
0.000377711
0.00037755
0.000377354
0.00037712
0.000376848
0.000376539
0.000376198
0.000375828
0.000375437
0.000375032
0.000374619
0.000374206
0.000373796
0.000373395
0.000373001
0.000372613
0.000372228
0.000371839
0.000371444
0.000371038
0.000370622
0.000370199
0.000369778
0.00036937
0.000368986
0.000368631
0.00036829
0.000367922
0.000367439
0.000366692
0.00036547
0.000363498
0.000360448
0.000355958
0.000349618
0.000340918
0.000329101
0.000312915
0.000290132
0.000256429
0.000201164
9.72412e-05
8.98912e-05
0.000171595
0.00022911
0.000269952
0.000299299
0.000320396
0.000335524
0.000346357
0.000354139
0.000359784
0.000363935
0.000367013
0.000369254
0.00037075
0.000371733
0.000372324
0.000372596
0.000372595
0.000372354
0.000371904
0.000371276
0.000370502
0.000369623
0.000368679
0.00036771
0.000366754
0.000365843
0.000365003
0.000364252
0.000363602
0.000363056
0.000362607
0.000362257
0.000362005
0.000361842
0.00036176
0.000361747
0.000361791
0.000361879
0.000361998
0.000362137
0.000362288
0.000362444
0.000362604
0.000362766
0.000362933
0.000363107
0.000363293
0.000363494
0.000363715
0.000363957
0.000364221
0.000364506
0.000364808
0.000365125
0.00036545
0.00036578
0.000366109
0.000366432
0.000366746
0.000367055
0.000367357
0.000367653
0.00036794
0.000368217
0.000368479
0.000368721
0.000368938
0.000369123
0.00036927
0.000369374
0.000369431
0.000369439
0.000369398
0.000369315
0.000369197
0.000369053
0.000368895
0.000368733
0.000368574
0.00036843
0.000368312
0.00036823
0.00036819
0.000368196
0.000368251
0.000368353
0.000368498
0.000368685
0.000368906
0.00036916
0.000369442
0.000369748
0.000370076
0.000370421
0.000370778
0.000371144
0.000371513
0.00037188
0.000372242
0.000372595
0.000372934
0.000373258
0.000373564
0.000373848
0.000374112
0.000374359
0.000374588
0.000374798
0.000374988
0.000375154
0.000375293
0.000375402
0.000375479
0.000375526
0.000375548
0.000375558
0.00037557
0.000375596
0.000375648
0.000375736
0.000375864
0.000376031
0.000376232
0.000376454
0.000376686
0.000376911
0.000377117
0.000377292
0.000377432
0.000377538
0.000377617
0.000377677
0.000377727
0.000377774
0.000377822
0.000377869
0.000377914
0.000377955
0.000377991
0.000378022
0.000378049
0.000378074
0.000378097
0.00037812
0.000378144
0.000378169
0.000378196
0.000378223
0.000378248
0.000378267
0.000378279
0.00037828
0.000378268
0.00037824
0.000378192
0.000378121
0.000378023
0.000377897
0.000377738
0.000377544
0.000377311
0.000377039
0.00037673
0.000376387
0.000376015
0.000375622
0.000375215
0.000374801
0.000374387
0.000373978
0.000373577
0.000373185
0.000372798
0.000372414
0.000372027
0.000371633
0.00037123
0.000370816
0.000370396
0.000369978
0.000369573
0.000369193
0.00036884
0.000368503
0.000368138
0.000367656
0.000366912
0.000365693
0.000363722
0.000360673
0.000356183
0.000349841
0.000341136
0.000329311
0.000313113
0.000290316
0.000256595
0.000201305
9.72604e-05
0.000103131
0.000195607
0.000259489
0.000304227
0.000335993
0.000358603
0.000374626
0.00038586
0.000393627
0.00039894
0.000402558
0.000405003
0.00040658
0.000407411
0.00040769
0.00040758
0.000407176
0.000406538
0.000405709
0.000404727
0.000403629
0.000402453
0.000401237
0.000400018
0.000398834
0.000397714
0.000396683
0.00039576
0.000394954
0.000394268
0.0003937
0.000393244
0.000392901
0.000392665
0.000392528
0.000392478
0.000392501
0.000392583
0.000392708
0.000392862
0.000393032
0.00039321
0.000393388
0.000393562
0.000393734
0.000393905
0.000394081
0.000394266
0.000394466
0.000394687
0.000394933
0.000395205
0.000395505
0.00039583
0.000396175
0.000396537
0.000396909
0.000397284
0.000397655
0.000398015
0.000398363
0.000398698
0.00039902
0.000399327
0.000399616
0.000399883
0.000400123
0.000400332
0.000400505
0.000400635
0.000400717
0.000400747
0.000400722
0.000400646
0.000400523
0.00040036
0.000400166
0.000399952
0.000399725
0.000399489
0.000399252
0.000399026
0.000398819
0.000398639
0.000398493
0.000398383
0.000398313
0.000398284
0.000398296
0.00039835
0.000398446
0.000398584
0.000398763
0.000398983
0.000399238
0.000399526
0.000399839
0.000400173
0.00040052
0.000400875
0.000401232
0.000401585
0.000401931
0.000402265
0.000402582
0.00040288
0.000403161
0.000403421
0.00040366
0.000403874
0.000404057
0.000404206
0.000404318
0.000404393
0.000404437
0.000404458
0.000404468
0.000404481
0.000404514
0.000404579
0.000404686
0.000404839
0.000405036
0.000405271
0.000405529
0.000405797
0.00040606
0.000406305
0.000406519
0.000406701
0.000406855
0.000406988
0.000407108
0.000407221
0.000407328
0.000407433
0.000407533
0.000407627
0.000407713
0.000407791
0.000407861
0.000407923
0.000407979
0.000408031
0.00040808
0.000408129
0.000408177
0.000408224
0.000408269
0.00040831
0.000408345
0.000408371
0.000408388
0.000408392
0.000408381
0.000408353
0.000408303
0.000408227
0.000408122
0.000407984
0.000407811
0.000407599
0.00040735
0.000407066
0.000406751
0.000406411
0.000406054
0.000405689
0.000405322
0.00040496
0.000404608
0.000404268
0.000403939
0.00040362
0.000403305
0.00040299
0.000402673
0.000402354
0.000402036
0.00040173
0.000401453
0.000401223
0.000401064
0.00040099
0.000401
0.000401064
0.000401109
0.000401008
0.000400573
0.000399566
0.000397704
0.000394657
0.000390003
0.000383102
0.000372872
0.000357452
0.000333626
0.000295499
0.000230182
0.000109862
0.000103126
0.00019549
0.000259366
0.000304149
0.000335982
0.000358661
0.000374745
0.000386029
0.000393835
0.000399181
0.000402825
0.000405292
0.000406888
0.000407732
0.00040802
0.000407914
0.000407511
0.000406872
0.000406041
0.000405055
0.000403951
0.000402767
0.000401542
0.000400315
0.000399121
0.000397993
0.000396955
0.000396026
0.000395217
0.000394529
0.000393959
0.000393503
0.000393161
0.000392927
0.000392791
0.000392744
0.000392769
0.000392854
0.000392981
0.000393137
0.000393309
0.000393488
0.000393666
0.000393841
0.000394013
0.000394183
0.000394357
0.000394541
0.000394739
0.000394958
0.000395202
0.000395472
0.00039577
0.000396093
0.000396438
0.000396799
0.00039717
0.000397545
0.000397916
0.000398276
0.000398624
0.000398959
0.000399281
0.000399589
0.000399878
0.000400145
0.000400385
0.000400595
0.000400768
0.000400898
0.00040098
0.000401009
0.000400985
0.000400908
0.000400785
0.000400621
0.000400427
0.000400211
0.000399983
0.000399747
0.00039951
0.000399283
0.000399077
0.000398897
0.000398751
0.000398642
0.000398573
0.000398544
0.000398557
0.000398612
0.000398709
0.000398848
0.000399028
0.000399247
0.000399503
0.000399789
0.000400102
0.000400434
0.00040078
0.000401133
0.000401488
0.00040184
0.000402184
0.000402516
0.000402832
0.000403129
0.000403408
0.000403667
0.000403904
0.000404115
0.000404297
0.000404444
0.000404556
0.000404631
0.000404675
0.000404695
0.000404702
0.000404713
0.000404743
0.000404806
0.000404911
0.000405063
0.000405261
0.000405496
0.000405757
0.00040603
0.000406298
0.000406549
0.000406768
0.000406954
0.00040711
0.000407242
0.000407358
0.000407465
0.000407568
0.000407669
0.000407766
0.000407858
0.000407942
0.000408019
0.000408087
0.000408148
0.000408203
0.000408254
0.000408303
0.000408351
0.000408399
0.000408446
0.000408492
0.000408533
0.000408568
0.000408595
0.000408612
0.000408616
0.000408605
0.000408576
0.000408525
0.000408449
0.000408345
0.000408208
0.000408035
0.000407824
0.000407575
0.00040729
0.000406974
0.000406633
0.000406274
0.000405907
0.00040554
0.000405178
0.000404826
0.000404487
0.00040416
0.000403843
0.00040353
0.000403218
0.000402904
0.000402587
0.000402272
0.000401969
0.000401694
0.000401468
0.000401312
0.000401241
0.000401254
0.000401321
0.000401369
0.000401271
0.000400839
0.000399835
0.000397976
0.00039493
0.000390274
0.000383368
0.000373131
0.000357701
0.000333863
0.000295721
0.000230367
0.000109888
0.000112748
0.000213317
0.000280535
0.000326127
0.000357462
0.000379137
0.000394141
0.000404375
0.000411102
0.000415283
0.000417709
0.000418983
0.000419484
0.000419376
0.000418792
0.000417908
0.000416814
0.000415561
0.000414189
0.00041273
0.00041122
0.000409694
0.000408189
0.000406737
0.000405368
0.000404106
0.00040297
0.000401969
0.000401107
0.000400381
0.000399781
0.000399306
0.000398956
0.000398722
0.000398595
0.00039856
0.000398601
0.000398703
0.000398848
0.00039902
0.000399206
0.000399394
0.000399577
0.000399751
0.000399917
0.000400078
0.000400239
0.000400407
0.000400589
0.000400794
0.000401026
0.00040129
0.000401587
0.000401918
0.000402277
0.00040266
0.000403058
0.000403464
0.000403867
0.000404258
0.000404632
0.000404985
0.000405316
0.000405621
0.000405901
0.000406152
0.000406374
0.000406561
0.000406712
0.000406818
0.000406873
0.000406872
0.000406815
0.000406703
0.000406539
0.00040633
0.000406084
0.000405807
0.000405508
0.000405186
0.000404845
0.000404495
0.000404145
0.000403806
0.000403485
0.000403192
0.000402933
0.000402715
0.000402543
0.000402424
0.000402362
0.00040236
0.000402421
0.000402544
0.000402725
0.00040296
0.000403241
0.00040356
0.000403908
0.000404277
0.000404659
0.000405046
0.000405432
0.000405811
0.000406177
0.000406523
0.000406847
0.000407146
0.000407417
0.000407656
0.000407857
0.000408018
0.000408137
0.000408217
0.000408266
0.000408291
0.000408304
0.000408322
0.000408362
0.000408438
0.000408561
0.000408733
0.000408953
0.000409215
0.000409505
0.000409812
0.00041012
0.000410416
0.000410688
0.000410931
0.000411149
0.000411348
0.000411534
0.000411709
0.000411876
0.000412034
0.000412181
0.000412317
0.00041244
0.000412549
0.000412645
0.000412731
0.000412807
0.000412878
0.000412945
0.00041301
0.000413072
0.000413132
0.000413189
0.000413241
0.000413288
0.000413329
0.000413362
0.000413386
0.0004134
0.0004134
0.000413383
0.000413344
0.000413279
0.000413183
0.000413053
0.000412888
0.000412688
0.000412455
0.000412195
0.000411915
0.000411623
0.000411328
0.000411037
0.000410756
0.00041049
0.00041024
0.000410006
0.000409785
0.000409574
0.000409372
0.000409179
0.000408999
0.000408845
0.000408733
0.000408691
0.000408751
0.000408951
0.000409324
0.000409892
0.000410653
0.000411568
0.000412555
0.000413478
0.000414155
0.000414359
0.000413791
0.000411982
0.000408101
0.000400671
0.000387183
0.000363504
0.000322554
0.000250391
0.000119924
0.000112736
0.000213178
0.000280389
0.000326033
0.000357444
0.000379195
0.000394265
0.00040455
0.000411317
0.000415529
0.000417981
0.000419277
0.000419797
0.000419704
0.00041913
0.000418251
0.000417157
0.000415902
0.000414524
0.000413058
0.000411539
0.000410003
0.000408488
0.000407026
0.000405647
0.000404378
0.000403234
0.000402228
0.000401363
0.000400635
0.000400034
0.00039956
0.000399211
0.000398979
0.000398854
0.000398822
0.000398866
0.000398971
0.000399118
0.000399293
0.00039948
0.00039967
0.000399854
0.000400029
0.000400194
0.000400354
0.000400514
0.00040068
0.00040086
0.000401062
0.000401292
0.000401554
0.000401849
0.000402178
0.000402536
0.000402918
0.000403316
0.000403722
0.000404125
0.000404517
0.000404892
0.000405245
0.000405576
0.000405882
0.000406162
0.000406413
0.000406635
0.000406822
0.000406972
0.000407078
0.000407133
0.000407132
0.000407075
0.000406962
0.000406798
0.000406589
0.000406341
0.000406064
0.000405763
0.000405441
0.000405099
0.000404748
0.000404398
0.000404059
0.000403739
0.000403445
0.000403187
0.000402969
0.000402798
0.00040268
0.000402619
0.000402618
0.000402679
0.000402802
0.000402983
0.000403217
0.000403497
0.000403814
0.000404161
0.000404529
0.000404908
0.000405293
0.000405677
0.000406054
0.000406419
0.000406763
0.000407085
0.000407383
0.000407653
0.00040789
0.000408091
0.00040825
0.000408369
0.000408448
0.000408495
0.000408519
0.00040853
0.000408546
0.000408583
0.000408657
0.000408777
0.000408949
0.00040917
0.000409434
0.000409728
0.000410039
0.000410352
0.000410654
0.000410929
0.000411175
0.000411393
0.000411591
0.000411773
0.000411945
0.000412108
0.000412262
0.000412408
0.000412542
0.000412662
0.00041277
0.000412865
0.00041295
0.000413026
0.000413096
0.000413162
0.000413226
0.000413288
0.000413349
0.000413406
0.000413459
0.000413506
0.000413548
0.000413581
0.000413606
0.000413619
0.000413619
0.000413601
0.000413562
0.000413497
0.000413402
0.000413273
0.000413107
0.000412907
0.000412673
0.000412412
0.000412131
0.000411838
0.000411542
0.00041125
0.00041097
0.000410704
0.000410456
0.000410224
0.000410006
0.000409798
0.000409599
0.000409408
0.000409232
0.00040908
0.000408971
0.000408932
0.000408995
0.000409197
0.000409573
0.000410144
0.000410908
0.000411826
0.000412816
0.000413743
0.000414423
0.000414629
0.000414061
0.000412249
0.000408364
0.000400928
0.000387436
0.000363754
0.000322797
0.000250597
0.000119954
0.000119867
0.000226765
0.000295776
0.000340721
0.000370096
0.00038937
0.000402128
0.000410472
0.000415532
0.000418052
0.000418741
0.000418274
0.000417151
0.000415636
0.000413822
0.0004119
0.000409941
0.000407971
0.000406002
0.00040405
0.000402136
0.000400283
0.000398516
0.00039686
0.000395334
0.000393954
0.000392729
0.000391662
0.00039075
0.000389981
0.000389348
0.000388849
0.000388482
0.000388236
0.000388101
0.00038806
0.000388097
0.000388193
0.000388332
0.000388496
0.00038867
0.000388843
0.000389007
0.000389159
0.000389298
0.000389428
0.000389556
0.00038969
0.000389838
0.000390009
0.000390211
0.00039045
0.000390728
0.000391045
0.000391397
0.000391778
0.000392179
0.000392588
0.000392995
0.000393389
0.00039376
0.000394104
0.000394418
0.0003947
0.000394949
0.000395167
0.000395352
0.000395504
0.000395618
0.00039569
0.000395712
0.000395676
0.000395582
0.000395429
0.000395222
0.000394965
0.000394662
0.00039432
0.000393944
0.000393534
0.000393086
0.00039261
0.000392117
0.00039162
0.00039113
0.000390661
0.000390224
0.000389831
0.000389493
0.000389221
0.000389022
0.000388904
0.000388869
0.000388916
0.000389044
0.000389246
0.000389512
0.000389832
0.000390196
0.000390592
0.00039101
0.00039144
0.000391874
0.000392304
0.000392723
0.000393121
0.000393492
0.000393831
0.000394136
0.000394401
0.000394623
0.0003948
0.000394933
0.000395025
0.000395085
0.000395123
0.000395148
0.000395179
0.000395233
0.000395325
0.000395465
0.000395656
0.000395898
0.000396185
0.000396506
0.000396849
0.000397202
0.000397551
0.000397884
0.000398191
0.000398476
0.000398742
0.000398992
0.000399227
0.000399448
0.000399654
0.000399842
0.000400011
0.000400161
0.000400293
0.000400408
0.000400509
0.0004006
0.000400683
0.000400761
0.000400836
0.000400907
0.000400976
0.000401042
0.000401105
0.000401165
0.000401222
0.000401277
0.000401328
0.000401375
0.000401414
0.000401442
0.000401453
0.000401442
0.000401405
0.000401338
0.00040124
0.000401112
0.000400956
0.000400779
0.000400587
0.000400391
0.000400197
0.000400014
0.000399846
0.000399699
0.000399573
0.000399469
0.000399387
0.000399325
0.000399287
0.000399279
0.000399311
0.000399405
0.00039959
0.000399905
0.000400404
0.000401143
0.000402186
0.000403586
0.000405384
0.000407589
0.000410168
0.00041303
0.000416021
0.00041893
0.000421436
0.000422972
0.000422487
0.000418129
0.000406846
0.000383792
0.000341112
0.000264578
0.000128118
0.000119851
0.000226608
0.000295612
0.000340613
0.000370066
0.000389421
0.000402244
0.000410637
0.000415732
0.000418279
0.000418991
0.000418543
0.000417438
0.00041594
0.000414136
0.000412218
0.000410259
0.000408283
0.000406307
0.000404345
0.000402419
0.000400555
0.000398777
0.000397111
0.000395576
0.000394188
0.000392957
0.000391885
0.00039097
0.0003902
0.000389566
0.000389068
0.000388703
0.000388459
0.000388326
0.000388288
0.000388328
0.000388428
0.00038857
0.000388736
0.000388912
0.000389087
0.000389252
0.000389404
0.000389543
0.000389672
0.000389799
0.00038993
0.000390076
0.000390245
0.000390445
0.000390681
0.000390957
0.000391272
0.000391623
0.000392004
0.000392404
0.000392814
0.000393222
0.000393616
0.000393988
0.000394333
0.000394647
0.00039493
0.000395179
0.000395397
0.000395582
0.000395733
0.000395846
0.000395918
0.000395939
0.000395903
0.000395809
0.000395656
0.000395449
0.000395191
0.000394887
0.000394544
0.000394167
0.000393756
0.000393307
0.00039283
0.000392337
0.000391839
0.000391349
0.000390879
0.000390442
0.000390049
0.000389712
0.00038944
0.000389242
0.000389124
0.000389089
0.000389136
0.000389264
0.000389465
0.00038973
0.000390049
0.000390412
0.000390806
0.000391222
0.00039165
0.000392082
0.000392511
0.000392927
0.000393324
0.000393694
0.000394032
0.000394336
0.000394601
0.000394822
0.000394998
0.000395129
0.00039522
0.000395278
0.000395314
0.000395338
0.000395367
0.000395418
0.000395508
0.000395646
0.000395837
0.00039608
0.000396369
0.000396694
0.000397042
0.000397399
0.000397753
0.000398088
0.000398397
0.000398681
0.000398946
0.000399193
0.000399426
0.000399645
0.000399848
0.000400034
0.000400202
0.000400351
0.000400481
0.000400595
0.000400695
0.000400785
0.000400867
0.000400945
0.000401019
0.000401091
0.000401161
0.000401227
0.000401291
0.000401351
0.000401409
0.000401464
0.000401516
0.000401562
0.000401601
0.000401628
0.000401639
0.000401629
0.000401592
0.000401525
0.000401427
0.000401298
0.000401141
0.000400963
0.000400771
0.000400574
0.000400379
0.000400195
0.000400029
0.000399882
0.000399758
0.000399657
0.000399577
0.000399519
0.000399484
0.000399478
0.000399514
0.00039961
0.000399797
0.000400116
0.000400616
0.000401358
0.000402403
0.000403806
0.000405607
0.000407815
0.000410397
0.00041326
0.000416252
0.000419161
0.000421665
0.000423196
0.000422707
0.000418349
0.000407071
0.000384028
0.000341355
0.00026479
0.00012815
0.000125166
0.000236985
0.000306969
0.000350661
0.000377467
0.000393678
0.000403582
0.000409653
0.000412918
0.000413746
0.000412568
0.000410055
0.000406877
0.000403476
0.000400025
0.000396723
0.000393636
0.000390759
0.000388068
0.000385545
0.000383184
0.000380985
0.000378955
0.0003771
0.000375428
0.00037394
0.000372635
0.000371509
0.000370549
0.000369738
0.000369071
0.000368544
0.00036815
0.00036788
0.000367719
0.000367651
0.000367658
0.000367722
0.000367825
0.00036795
0.000368082
0.00036821
0.000368327
0.00036843
0.000368519
0.000368597
0.000368673
0.000368754
0.000368852
0.000368974
0.00036913
0.000369326
0.000369565
0.000369847
0.000370166
0.000370517
0.000370888
0.000371268
0.000371642
0.000372001
0.000372335
0.000372637
0.000372904
0.000373136
0.000373333