/*--------------------------------*- C++ -*----------------------------------*\
  =========                 |
  \\      /  F ield         | OpenFOAM: The Open Source CFD Toolbox
   \\    /   O peration     | Website:  https://openfoam.org
    \\  /    A nd           | Version:  8
     \\/     M anipulation  |
\*---------------------------------------------------------------------------*/
FoamFile
{
    version     2.0;
    format      ascii;
    class       volScalarField;
    location    "100";
    object      epsilon;
}
// * * * * * * * * * * * * * * * * * * * * * * * * * * * * * * * * * * * * * //

dimensions      [0 2 -3 0 0 0 0];

internalField   nonuniform List<scalar> 
46000
(
925.916
1193.93
1452.48
1659.63
1825.89
1961.91
2076.45
2176.16
2265.72
2348.15
2425.12
2497.39
2565.44
2629.9
2688.51
2739.82
2783.05
2817.93
2844.63
2863.63
2875.66
2881.59
2882.37
2878.98
2872.41
2863.58
2853.34
2842.46
2831.56
2821.17
2811.69
2803.47
2796.59
2791.08
2786.91
2784.02
2782.3
2781.62
2781.82
2782.73
2784.19
2786.06
2788.18
2790.43
2792.73
2795.05
2797.39
2799.78
2802.26
2804.86
2807.63
2810.6
2813.79
2817.19
2820.77
2824.5
2828.35
2832.28
2836.31
2840.37
2844.4
2848.36
2852.22
2855.96
2859.56
2863.02
2866.32
2869.44
2872.32
2874.91
2877.16
2879
2880.35
2881.19
2881.5
2881.3
2880.64
2879.63
2878.41
2877.24
2876.32
2875.82
2875.92
2876.8
2878.58
2881.34
2885.12
2889.91
2895.61
2902.11
2909.26
2916.91
2924.94
2933.22
2941.65
2950.1
2958.45
2966.57
2974.39
2981.82
2988.79
2995.26
3001.21
3006.62
3011.57
3016.03
3020.03
3023.6
3026.76
3029.56
3031.98
3034.03
3035.65
3036.81
3037.52
3037.8
3037.75
3037.49
3037.18
3036.98
3037.05
3037.54
3038.56
3040.16
3042.3
3044.81
3047.48
3050.07
3052.44
3054.45
3055.99
3057
3057.52
3057.6
3057.35
3056.85
3056.19
3055.42
3054.58
3053.69
3052.77
3051.82
3050.87
3049.93
3049.02
3048.17
3047.4
3046.73
3046.17
3045.7
3045.3
3044.95
3044.6
3044.22
3043.75
3043.14
3042.32
3041.23
3039.8
3037.96
3035.65
3032.82
3029.4
3025.38
3020.74
3015.5
3009.71
3003.45
2996.81
2989.89
2982.82
2975.71
2968.63
2961.65
2954.79
2948.04
2941.36
2934.67
2927.91
2921
2913.88
2906.52
2898.92
2891.03
2882.78
2873.93
2863.95
2851.92
2836.33
2815
2785.11
2743.26
2685.57
2607.69
2504.2
2367.17
2183.33
1931.36
1585.12
1217.57
926.286
1194.3
1452.77
1659.86
1826.07
1962.06
2076.59
2176.31
2265.9
2348.37
2425.39
2497.72
2565.8
2630.28
2688.91
2740.24
2783.47
2818.37
2845.09
2864.12
2876.19
2882.14
2882.94
2879.56
2872.98
2864.14
2853.88
2842.98
2832.06
2821.65
2812.15
2803.91
2797.02
2791.5
2787.32
2784.43
2782.72
2782.05
2782.25
2783.15
2784.61
2786.47
2788.59
2790.83
2793.12
2795.42
2797.75
2800.13
2802.6
2805.2
2807.97
2810.95
2814.14
2817.54
2821.13
2824.87
2828.72
2832.65
2836.68
2840.73
2844.76
2848.71
2852.56
2856.29
2859.9
2863.36
2866.66
2869.77
2872.66
2875.26
2877.51
2879.34
2880.7
2881.54
2881.85
2881.64
2880.98
2879.97
2878.75
2877.58
2876.66
2876.17
2876.3
2877.21
2879
2881.78
2885.56
2890.33
2896.02
2902.5
2909.65
2917.32
2925.38
2933.69
2942.14
2950.61
2958.96
2967.1
2974.93
2982.37
2989.36
2995.85
3001.81
3007.24
3012.19
3016.65
3020.65
3024.21
3027.36
3030.12
3032.52
3034.54
3036.15
3037.32
3038.04
3038.35
3038.31
3038.05
3037.75
3037.55
3037.61
3038.09
3039.07
3040.61
3042.66
3045.11
3047.77
3050.43
3052.93
3055.08
3056.76
3057.88
3058.47
3058.6
3058.37
3057.87
3057.18
3056.38
3055.48
3054.53
3053.53
3052.51
3051.49
3050.49
3049.53
3048.63
3047.82
3047.11
3046.52
3046.03
3045.61
3045.24
3044.88
3044.49
3044.01
3043.38
3042.55
3041.44
3040
3038.17
3035.87
3033.04
3029.62
3025.58
3020.92
3015.65
3009.82
3003.51
2996.83
2989.87
2982.77
2975.62
2968.53
2961.54
2954.67
2947.92
2941.25
2934.57
2927.83
2920.95
2913.87
2906.55
2898.98
2891.14
2882.93
2874.11
2864.17
2852.17
2836.59
2815.27
2785.38
2743.53
2685.84
2607.95
2504.45
2367.41
2183.56
1931.58
1585.32
1217.73
1349.33
1339.21
1478.01
1615.07
1740.51
1858.1
1973.24
2088.86
2204.94
2319.32
2428.78
2530.01
2620.31
2697.68
2761.6
2812.39
2850.92
2878.41
2896.26
2905.96
2908.91
2906.49
2899.91
2890.33
2878.76
2866.09
2853.11
2840.47
2828.68
2818.11
2809.01
2801.52
2795.7
2791.51
2788.85
2787.56
2787.45
2788.3
2789.9
2792.03
2794.51
2797.19
2799.94
2802.68
2805.38
2808.06
2810.75
2813.53
2816.48
2819.68
2823.2
2827.05
2831.24
2835.72
2840.42
2845.23
2850.04
2854.76
2859.3
2863.61
2867.67
2871.48
2875.08
2878.5
2881.76
2884.89
2887.88
2890.71
2893.33
2895.65
2897.61
2899.1
2900.07
2900.47
2900.31
2899.64
2898.55
2897.19
2895.75
2894.44
2893.53
2893.28
2893.96
2895.79
2898.96
2903.58
2909.69
2917.25
2926.15
2936.22
2947.23
2958.96
2971.17
2983.61
2996.07
3008.32
3020.17
3031.46
3042.05
3051.86
3060.8
3068.84
3075.97
3082.2
3087.56
3092.12
3095.97
3099.19
3101.87
3104.09
3105.88
3107.27
3108.24
3108.81
3109.01
3108.9
3108.6
3108.26
3108.04
3108.12
3108.66
3109.78
3111.55
3113.93
3116.82
3120.01
3123.23
3126.22
3128.71
3130.53
3131.61
3131.94
3131.57
3130.62
3129.23
3127.52
3125.61
3123.61
3121.56
3119.53
3117.55
3115.64
3113.81
3112.08
3110.45
3108.96
3107.61
3106.41
3105.38
3104.48
3103.7
3102.98
3102.27
3101.49
3100.57
3099.4
3097.9
3095.99
3093.58
3090.62
3087.04
3082.8
3077.87
3072.24
3065.95
3059.02
3051.55
3043.6
3035.3
3026.75
3018.06
3009.33
3000.63
2991.99
2983.4
2974.82
2966.18
2957.39
2948.35
2938.98
2929.22
2919.05
2908.47
2897.45
2885.9
2873.48
2859.48
2842.58
2820.76
2791.21
2750.61
2695.51
2623
2531.05
2418.13
2281.2
2111.94
1897.83
1638.44
1591.58
1349.58
1340.28
1478.93
1615.72
1740.89
1858.24
1973.2
2088.68
2204.66
2318.97
2428.38
2529.58
2619.86
2697.21
2761.13
2811.92
2850.45
2877.95
2895.83
2905.56
2908.56
2906.18
2899.64
2890.09
2878.54
2865.89
2852.92
2840.28
2828.48
2817.91
2808.8
2801.3
2795.46
2791.27
2788.6
2787.31
2787.19
2788.04
2789.63
2791.75
2794.23
2796.89
2799.63
2802.37
2805.06
2807.73
2810.42
2813.19
2816.14
2819.34
2822.86
2826.71
2830.91
2835.39
2840.09
2844.9
2849.71
2854.43
2858.97
2863.27
2867.32
2871.13
2874.72
2878.13
2881.39
2884.52
2887.51
2890.34
2892.96
2895.29
2897.24
2898.74
2899.71
2900.11
2899.95
2899.28
2898.19
2896.83
2895.39
2894.09
2893.18
2892.94
2893.63
2895.47
2898.65
2903.28
2909.4
2916.96
2925.86
2935.92
2946.94
2958.68
2970.9
2983.36
2995.83
3008.1
3019.97
3031.28
3041.89
3051.71
3060.66
3068.71
3075.85
3082.09
3087.46
3092.03
3095.88
3099.1
3101.77
3103.97
3105.74
3107.1
3108.07
3108.64
3108.85
3108.75
3108.47
3108.13
3107.93
3108.01
3108.55
3109.66
3111.4
3113.76
3116.62
3119.79
3123.01
3126.03
3128.59
3130.51
3131.69
3132.11
3131.81
3130.92
3129.55
3127.84
3125.92
3123.88
3121.78
3119.69
3117.64
3115.67
3113.78
3111.99
3110.32
3108.79
3107.4
3106.18
3105.12
3104.2
3103.4
3102.67
3101.94
3101.15
3100.21
3099.03
3097.52
3095.6
3093.19
3090.22
3086.65
3082.4
3077.47
3071.83
3065.52
3058.57
3051.06
3043.08
3034.74
3026.16
3017.44
3008.69
2999.97
2991.32
2982.72
2974.14
2965.51
2956.73
2947.7
2938.35
2928.62
2918.47
2907.92
2896.93
2885.41
2873.01
2859.03
2842.15
2820.33
2790.79
2750.18
2695.08
2622.57
2530.65
2417.77
2280.92
2111.75
1897.72
1638.36
1591.87
1679.18
1597.36
1676.59
1752.09
1814.65
1872.47
1935.58
2009.89
2096.49
2192.57
2293.05
2392.1
2484.32
2565.28
2632.41
2685.44
2724.97
2752.29
2769.04
2777.01
2777.93
2773.42
2764.96
2753.81
2741.08
2727.68
2714.38
2701.75
2690.26
2680.18
2671.67
2664.85
2659.78
2656.41
2654.64
2654.29
2655.14
2656.95
2659.48
2662.49
2665.79
2669.19
2672.57
2675.86
2679.02
2682.08
2685.1
2688.15
2691.35
2694.78
2698.52
2702.63
2707.12
2711.97
2717.11
2722.44
2727.84
2733.18
2738.34
2743.23
2747.79
2752.01
2755.92
2759.55
2762.95
2766.13
2769.11
2771.89
2774.43
2776.65
2778.46
2779.79
2780.58
2780.81
2780.47
2779.63
2778.37
2776.84
2775.2
2773.61
2772.3
2771.52
2771.53
2772.57
2774.82
2778.44
2783.49
2789.97
2797.8
2806.87
2817.03
2828.09
2839.84
2852.04
2864.46
2876.83
2888.94
2900.6
2911.63
2921.91
2931.35
2939.87
2947.47
2954.13
2959.88
2964.75
2968.83
2972.21
2974.98
2977.18
2978.86
2980.02
2980.68
2980.88
2980.7
2980.24
2979.62
2979.03
2978.63
2978.62
2979.17
2980.39
2982.33
2984.94
2988.05
2991.43
2994.84
2998.01
3000.68
3002.71
3004.02
3004.61
3004.52
3003.85
3002.69
3001.15
2999.33
2997.34
2995.24
2993.12
2991.03
2988.99
2987.03
2985.18
2983.44
2981.84
2980.39
2979.08
2977.92
2976.89
2975.97
2975.13
2974.31
2973.44
2972.43
2971.18
2969.61
2967.63
2965.14
2962.08
2958.38
2953.99
2948.9
2943.1
2936.64
2929.56
2921.94
2913.87
2905.48
2896.86
2888.12
2879.35
2870.59
2861.86
2853.14
2844.38
2835.5
2826.41
2817.02
2807.28
2797.15
2786.65
2775.8
2764.63
2753.07
2740.84
2727.31
2711.35
2691.24
2664.8
2629.69
2583.9
2526.3
2456.68
2374.61
2276.92
2154.11
1994.26
1806.49
1880.77
1679.27
1598.43
1677.51
1752.68
1814.88
1872.4
1935.27
2009.41
2095.88
2191.86
2292.26
2391.25
2483.41
2564.32
2631.43
2684.44
2723.98
2751.32
2768.11
2776.11
2777.08
2772.62
2764.2
2753.09
2740.4
2727.03
2713.74
2701.13
2689.64
2679.56
2671.04
2664.22
2659.14
2655.77
2653.99
2653.64
2654.48
2656.28
2658.79
2661.8
2665.08
2668.48
2671.85
2675.13
2678.29
2681.34
2684.36
2687.42
2690.61
2694.04
2697.79
2701.9
2706.39
2711.24
2716.38
2721.7
2727.09
2732.42
2737.58
2742.46
2747.01
2751.22
2755.12
2758.75
2762.15
2765.33
2768.31
2771.09
2773.63
2775.85
2777.66
2778.99
2779.78
2780
2779.67
2778.83
2777.57
2776.04
2774.4
2772.83
2771.52
2770.76
2770.78
2771.82
2774.08
2777.7
2782.75
2789.22
2797.06
2806.14
2816.31
2827.38
2839.15
2851.37
2863.8
2876.2
2888.33
2900
2911.05
2921.34
2930.79
2939.33
2946.93
2953.59
2959.34
2964.22
2968.3
2971.67
2974.42
2976.61
2978.28
2979.44
2980.11
2980.31
2980.13
2979.68
2979.08
2978.5
2978.11
2978.1
2978.63
2979.83
2981.74
2984.32
2987.42
2990.82
2994.26
2997.48
3000.22
3002.31
3003.68
3004.33
3004.3
3003.67
3002.54
3001.01
2999.17
2997.13
2994.98
2992.8
2990.65
2988.57
2986.56
2984.67
2982.89
2981.26
2979.78
2978.45
2977.27
2976.22
2975.29
2974.43
2973.6
2972.71
2971.69
2970.43
2968.85
2966.86
2964.38
2961.32
2957.61
2953.21
2948.11
2942.29
2935.81
2928.7
2921.06
2912.97
2904.54
2895.9
2887.14
2878.35
2869.58
2860.84
2852.11
2843.35
2834.48
2825.4
2816.03
2806.31
2796.2
2785.71
2774.88
2763.73
2752.18
2739.97
2726.45
2710.48
2690.36
2663.91
2628.78
2582.98
2525.39
2455.79
2373.77
2276.14
2153.41
1993.65
1805.98
1881.19
1917.26
1797.03
1832.93
1847.7
1837.92
1820.74
1813.35
1826.17
1862.38
1919.44
1991.39
2070.79
2150.42
2224.33
2287.68
2338.8
2377.41
2404.25
2420.72
2428.5
2429.34
2424.92
2416.74
2406.07
2394.01
2381.45
2369.08
2357.43
2346.9
2337.71
2329.98
2323.9
2319.5
2316.74
2315.51
2315.66
2316.98
2319.25
2322.22
2325.66
2329.35
2333.11
2336.82
2340.37
2343.74
2346.94
2350.03
2353.09
2356.22
2359.52
2363.1
2367.03
2371.36
2376.09
2381.18
2386.57
2392.13
2397.73
2403.24
2408.52
2413.48
2418.05
2422.2
2425.98
2429.42
2432.58
2435.5
2438.19
2440.62
2442.76
2444.49
2445.76
2446.52
2446.74
2446.42
2445.59
2444.32
2442.69
2440.86
2438.95
2437.09
2435.5
2434.39
2433.98
2434.46
2435.99
2438.69
2442.59
2447.71
2454.01
2461.42
2469.83
2479.12
2489.09
2499.52
2510.2
2520.89
2531.39
2541.53
2551.14
2560.1
2568.32
2575.76
2582.4
2588.25
2593.3
2597.58
2601.14
2604.05
2606.35
2608.04
2609.13
2609.66
2609.67
2609.28
2608.61
2607.78
2606.97
2606.38
2606.18
2606.54
2607.59
2609.36
2611.79
2614.74
2618.01
2621.37
2624.6
2627.49
2629.88
2631.7
2632.91
2633.54
2633.62
2633.21
2632.38
2631.19
2629.73
2628.07
2626.31
2624.5
2622.69
2620.94
2619.27
2617.7
2616.25
2614.93
2613.72
2612.63
2611.64
2610.75
2609.93
2609.15
2608.36
2607.49
2606.46
2605.19
2603.57
2601.53
2598.98
2595.84
2592.06
2587.61
2582.5
2576.76
2570.44
2563.62
2556.39
2548.86
2541.13
2533.3
2525.43
2517.57
2509.71
2501.85
2493.93
2485.88
2477.63
2469.12
2460.32
2451.23
2441.89
2432.36
2422.72
2413
2403.09
2392.7
2381.3
2368.14
2352.47
2333.85
2312.61
2289.87
2267.03
2243.69
2214.37
2165.08
2078.78
1962.72
2109.32
1917.2
1798.09
1833.84
1848.23
1838.07
1820.57
1812.95
1825.62
1861.71
1918.7
1990.57
2069.9
2149.47
2223.33
2286.64
2337.76
2376.38
2403.25
2419.75
2427.57
2428.45
2424.07
2415.92
2405.3
2393.27
2380.73
2368.38
2356.76
2346.23
2337.05
2329.32
2323.24
2318.84
2316.07
2314.85
2314.99
2316.31
2318.57
2321.52
2324.94
2328.62
2332.38
2336.08
2339.63
2343
2346.2
2349.29
2352.36
2355.49
2358.8
2362.38
2366.3
2370.63
2375.35
2380.43
2385.81
2391.35
2396.94
2402.43
2407.7
2412.65
2417.21
2421.37
2425.15
2428.59
2431.75
2434.67
2437.36
2439.79
2441.93
2443.66
2444.93
2445.69
2445.9
2445.58
2444.76
2443.48
2441.86
2440.04
2438.14
2436.3
2434.71
2433.61
2433.2
2433.69
2435.21
2437.9
2441.81
2446.93
2453.25
2460.68
2469.13
2478.43
2488.42
2498.88
2509.57
2520.28
2530.8
2540.95
2550.57
2559.54
2567.76
2575.2
2581.84
2587.68
2592.72
2596.98
2600.54
2603.44
2605.72
2607.41
2608.51
2609.05
2609.08
2608.7
2608.04
2607.22
2606.42
2605.82
2605.61
2605.95
2606.96
2608.69
2611.11
2614.06
2617.36
2620.78
2624.08
2627.03
2629.47
2631.32
2632.57
2633.23
2633.34
2632.95
2632.11
2630.9
2629.39
2627.69
2625.88
2624.03
2622.19
2620.4
2618.7
2617.1
2615.63
2614.29
2613.07
2611.96
2610.95
2610.04
2609.21
2608.42
2607.62
2606.74
2605.7
2604.43
2602.81
2600.78
2598.22
2595.07
2591.27
2586.8
2581.67
2575.9
2569.56
2562.71
2555.46
2547.91
2540.16
2532.31
2524.43
2516.56
2508.71
2500.84
2492.92
2484.88
2476.65
2468.17
2459.39
2450.31
2440.98
2431.47
2421.84
2412.12
2402.21
2391.82
2380.4
2367.22
2351.52
2332.9
2311.63
2288.9
2266.07
2242.76
2213.46
2164.21
2077.94
1961.99
2109.85
2090.27
1950.78
1950.39
1905.94
1822.17
1726.89
1645.28
1592.32
1572.94
1584.63
1620.58
1672.18
1730.96
1789.99
1843.19
1887.42
1921.41
1945.24
1959.89
1966.78
1967.46
1963.45
1956.12
1946.63
1935.95
1924.87
1913.99
1903.76
1894.5
1886.39
1879.66
1874.41
1870.66
1868.37
1867.46
1867.79
1869.21
1871.49
1874.43
1877.8
1881.41
1885.07
1888.65
1892.06
1895.26
1898.24
1901.06
1903.79
1906.53
1909.39
1912.48
1915.89
1919.69
1923.92
1928.56
1933.56
1938.82
1944.21
1949.57
1954.76
1959.64
1964.14
1968.21
1971.85
1975.13
1978.07
1980.75
1983.19
1985.4
1987.35
1989
1990.24
1991.02
1991.32
1991.11
1990.39
1989.18
1987.55
1985.59
1983.43
1981.11
1978.79
1976.65
1974.86
1973.62
1973.08
1973.39
1974.64
1976.91
1980.22
1984.58
1989.95
1996.26
2003.4
2011.19
2019.45
2027.99
2036.61
2045.13
2053.39
2061.23
2068.57
2075.33
2081.48
2087.01
2091.92
2096.14
2099.69
2102.61
2104.91
2106.59
2107.66
2108.15
2108.11
2107.66
2106.91
2106
2105.09
2104.37
2104
2104.14
2104.9
2106.32
2108.37
2110.94
2113.88
2117
2120.15
2123.16
2125.85
2128.13
2129.94
2131.27
2132.12
2132.49
2132.42
2131.95
2131.13
2130.04
2128.76
2127.37
2125.94
2124.52
2123.16
2121.88
2120.71
2119.63
2118.63
2117.71
2116.86
2116.09
2115.39
2114.75
2114.16
2113.57
2112.92
2112.13
2111.12
2109.79
2108.04
2105.8
2103
2099.61
2095.64
2091.11
2086.06
2080.57
2074.72
2068.62
2062.34
2055.98
2049.59
2043.21
2036.84
2030.47
2024.06
2017.56
2010.92
2004.11
1997.11
1989.94
1982.66
1975.34
1968.11
1961.11
1954.51
1948.49
1943.41
1939.83
1938.83
1942.31
1953.21
1975.19
2011.23
2060.68
2114.98
2153.94
2151.47
2105.61
2290.14
2090.08
1951.85
1951.3
1906.46
1822.28
1726.69
1644.88
1591.81
1572.35
1584
1619.91
1671.46
1730.18
1789.16
1842.33
1886.55
1920.55
1944.42
1959.11
1966.04
1966.75
1962.78
1955.47
1946.01
1935.36
1924.3
1913.43
1903.22
1893.97
1885.86
1879.14
1873.9
1870.15
1867.86
1866.95
1867.29
1868.7
1870.97
1873.9
1877.26
1880.86
1884.51
1888.09
1891.5
1894.69
1897.68
1900.51
1903.25
1905.99
1908.86
1911.95
1915.35
1919.15
1923.36
1927.99
1932.97
1938.21
1943.58
1948.92
1954.09
1958.97
1963.47
1967.54
1971.19
1974.47
1977.42
1980.1
1982.54
1984.75
1986.7
1988.34
1989.58
1990.36
1990.66
1990.45
1989.73
1988.53
1986.9
1984.95
1982.8
1980.5
1978.19
1976.05
1974.27
1973.02
1972.47
1972.77
1974.03
1976.3
1979.64
1984.02
1989.43
1995.77
2002.93
2010.74
2019.03
2027.58
2036.22
2044.75
2053.01
2060.85
2068.19
2074.95
2081.09
2086.6
2091.49
2095.69
2099.23
2102.14
2104.43
2106.11
2107.19
2107.7
2107.68
2107.24
2106.5
2105.61
2104.7
2103.97
2103.58
2103.69
2104.41
2105.8
2107.83
2110.41
2113.38
2116.57
2119.78
2122.86
2125.59
2127.89
2129.73
2131.08
2131.93
2132.31
2132.22
2131.72
2130.87
2129.74
2128.43
2127.01
2125.56
2124.11
2122.73
2121.44
2120.25
2119.15
2118.14
2117.21
2116.35
2115.56
2114.85
2114.2
2113.6
2113
2112.35
2111.56
2110.55
2109.22
2107.47
2105.22
2102.4
2098.99
2094.99
2090.43
2085.35
2079.84
2073.97
2067.85
2061.56
2055.19
2048.79
2042.41
2036.04
2029.67
2023.27
2016.79
2010.17
2003.38
1996.41
1989.25
1981.98
1974.67
1967.44
1960.44
1953.82
1947.79
1942.69
1939.09
1938.07
1941.54
1952.43
1974.4
2010.44
2059.88
2114.16
2153.07
2150.56
2104.78
2290.73
2218.14
2072.43
2042.41
1944.56
1792.81
1625.86
1476.69
1364.24
1294.38
1264
1265.16
1288.16
1323.69
1364.09
1403.58
1437.5
1463.96
1482.53
1493.77
1498.74
1498.69
1494.86
1488.36
1480.16
1471.03
1461.62
1452.4
1443.74
1435.9
1429.03
1423.4
1419.02
1415.9
1414.01
1413.28
1413.6
1414.84
1416.83
1419.39
1422.32
1425.44
1428.61
1431.69
1434.6
1437.28
1439.74
1442.02
1444.19
1446.33
1448.56
1450.97
1453.68
1456.76
1460.26
1464.18
1468.47
1473.06
1477.81
1482.58
1487.21
1491.58
1495.59
1499.19
1502.39
1505.21
1507.72
1509.97
1512.02
1513.87
1515.55
1517.02
1518.19
1518.99
1519.36
1519.27
1518.69
1517.6
1516.04
1514.05
1511.74
1509.2
1506.47
1503.69
1501
1498.59
1496.6
1495.19
1494.49
1494.6
1495.59
1497.5
1500.35
1504.1
1508.7
1514.02
1519.94
1526.28
1532.89
1539.59
1546.22
1552.66
1558.79
1564.54
1569.87
1574.73
1579.13
1583.03
1586.34
1589.08
1591.24
1592.83
1593.85
1594.32
1594.3
1593.87
1593.15
1592.28
1591.41
1590.67
1590.22
1590.2
1590.69
1591.75
1593.37
1595.48
1597.97
1600.73
1603.62
1606.56
1609.33
1611.84
1614.01
1615.79
1617.14
1618.06
1618.55
1618.62
1618.33
1617.72
1616.89
1615.91
1614.85
1613.79
1612.77
1611.81
1610.93
1610.11
1609.35
1608.63
1607.96
1607.35
1606.82
1606.39
1606.05
1605.79
1605.56
1605.3
1604.91
1604.31
1603.4
1602.09
1600.33
1598.08
1595.34
1592.13
1588.5
1584.51
1580.23
1575.74
1571.12
1566.44
1561.75
1557.08
1552.44
1547.83
1543.23
1538.6
1533.92
1529.16
1524.32
1519.41
1514.47
1509.6
1504.97
1500.83
1497.63
1496.16
1497.72
1504.28
1518.66
1544.98
1588.71
1655.97
1751.47
1874.6
2013.93
2142.61
2223.53
2241.02
2436.48
2217.86
2073.51
2043.35
1945.09
1792.93
1625.68
1476.34
1363.81
1293.92
1263.54
1264.67
1287.64
1323.13
1363.48
1402.94
1436.87
1463.34
1481.94
1493.22
1498.23
1498.22
1494.42
1487.94
1479.76
1470.65
1461.24
1452.04
1443.39
1435.55
1428.69
1423.07
1418.7
1415.58
1413.69
1412.97
1413.29
1414.53
1416.52
1419.06
1421.98
1425.1
1428.26
1431.34
1434.24
1436.93
1439.41
1441.7
1443.87
1446.02
1448.25
1450.67
1453.38
1456.45
1459.93
1463.83
1468.11
1472.67
1477.4
1482.15
1486.77
1491.14
1495.14
1498.75
1501.95
1504.78
1507.3
1509.55
1511.6
1513.46
1515.13
1516.6
1517.76
1518.56
1518.93
1518.84
1518.26
1517.17
1515.62
1513.64
1511.34
1508.82
1506.1
1503.32
1500.64
1498.22
1496.22
1494.81
1494.11
1494.23
1495.23
1497.17
1500.05
1503.84
1508.46
1513.81
1519.74
1526.1
1532.71
1539.42
1546.06
1552.49
1558.62
1564.37
1569.68
1574.53
1578.91
1582.79
1586.08
1588.8
1590.96
1592.55
1593.58
1594.07
1594.07
1593.66
1592.95
1592.1
1591.22
1590.47
1590
1589.95
1590.4
1591.43
1593.03
1595.15
1597.67
1600.48
1603.43
1606.42
1609.24
1611.78
1613.96
1615.74
1617.1
1618.01
1618.48
1618.53
1618.2
1617.57
1616.72
1615.72
1614.65
1613.58
1612.54
1611.58
1610.68
1609.86
1609.08
1608.35
1607.67
1607.05
1606.51
1606.06
1605.72
1605.46
1605.23
1604.96
1604.58
1603.99
1603.07
1601.75
1599.98
1597.71
1594.95
1591.71
1588.06
1584.04
1579.74
1575.23
1570.6
1565.91
1561.21
1556.54
1551.91
1547.3
1542.71
1538.09
1533.43
1528.7
1523.88
1518.98
1514.06
1509.2
1504.56
1500.41
1497.2
1495.71
1497.25
1503.79
1518.16
1544.47
1588.19
1655.45
1750.94
1874.04
2013.3
2141.86
2222.65
2240.15
2437.1
2313.03
2169.77
2117.52
1975.51
1766.69
1539.79
1334.78
1173.88
1063.32
998.79
970.92
968.988
983.102
1005.32
1030.11
1052.53
1070.28
1082.59
1089.66
1092.19
1091.07
1087.2
1081.41
1074.41
1066.79
1059.01
1051.43
1044.33
1037.92
1032.36
1027.83
1024.32
1021.81
1020.27
1019.65
1019.87
1020.82
1022.37
1024.36
1026.65
1029.08
1031.54
1033.91
1036.11
1038.12
1039.92
1041.55
1043.08
1044.57
1046.14
1047.87
1049.87
1052.2
1054.9
1057.99
1061.42
1065.13
1068.99
1072.88
1076.66
1080.22
1083.47
1086.36
1088.9
1091.11
1093.06
1094.79
1096.37
1097.82
1099.15
1100.35
1101.38
1102.13
1102.52
1102.5
1102.03
1101.07
1099.62
1097.72
1095.43
1092.88
1090.07
1087.1
1084.08
1081.17
1078.5
1076.22
1074.47
1073.35
1072.94
1073.31
1074.48
1076.46
1079.2
1082.64
1086.67
1091.16
1095.99
1101.01
1106.09
1111.1
1115.96
1120.59
1124.93
1128.95
1132.64
1135.98
1138.87
1141.27
1143.19
1144.6
1145.52
1145.96
1145.96
1145.6
1144.98
1144.24
1143.48
1142.84
1142.42
1142.33
1142.65
1143.43
1144.67
1146.35
1148.4
1150.72
1153.24
1155.87
1158.51
1160.98
1163.2
1165.11
1166.66
1167.82
1168.58
1168.96
1168.99
1168.72
1168.22
1167.57
1166.85
1166.11
1165.39
1164.71
1164.08
1163.5
1162.94
1162.41
1161.92
1161.49
1161.16
1160.94
1160.87
1160.92
1161.06
1161.23
1161.36
1161.35
1161.11
1160.58
1159.7
1158.44
1156.8
1154.8
1152.47
1149.86
1147.04
1144.08
1141.02
1137.93
1134.86
1131.83
1128.86
1125.96
1123.12
1120.33
1117.55
1114.79
1112.02
1109.25
1106.52
1103.92
1101.66
1100.15
1100.1
1102.81
1110.76
1127.05
1155.72
1202.69
1275.64
1383.05
1531.58
1721.21
1938.23
2149.25
2305.28
2374.5
2558.89
2312.69
2170.86
2118.48
1976.05
1766.83
1539.64
1334.48
1173.54
1062.98
998.464
970.595
968.648
982.734
1004.92
1029.69
1052.1
1069.86
1082.21
1089.32
1091.89
1090.8
1086.95
1081.18
1074.2
1066.59
1058.81
1051.24
1044.14
1037.73
1032.18
1027.66
1024.15
1021.65
1020.12
1019.5
1019.73
1020.68
1022.22
1024.2
1026.48
1028.92
1031.37
1033.73
1035.94
1037.95
1039.76
1041.4
1042.94
1044.44
1046.01
1047.75
1049.74
1052.06
1054.75
1057.82
1061.24
1064.93
1068.78
1072.65
1076.43
1079.98
1083.22
1086.12
1088.66
1090.88
1092.83
1094.57
1096.15
1097.6
1098.93
1100.12
1101.15
1101.9
1102.29
1102.27
1101.8
1100.84
1099.4
1097.5
1095.22
1092.69
1089.89
1086.92
1083.91
1080.99
1078.32
1076.04
1074.28
1073.16
1072.77
1073.16
1074.36
1076.36
1079.12
1082.58
1086.63
1091.14
1095.97
1101
1106.08
1111.09
1115.94
1120.56
1124.9
1128.91
1132.58
1135.9
1138.77
1141.16
1143.07
1144.48
1145.41
1145.87
1145.89
1145.55
1144.94
1144.21
1143.45
1142.8
1142.36
1142.24
1142.53
1143.29
1144.52
1146.2
1148.26
1150.63
1153.19
1155.86
1158.54
1161.03
1163.27
1165.17
1166.72
1167.87
1168.61
1168.97
1168.98
1168.69
1168.18
1167.52
1166.79
1166.04
1165.32
1164.64
1164.01
1163.41
1162.85
1162.31
1161.81
1161.37
1161.03
1160.81
1160.73
1160.77
1160.91
1161.09
1161.22
1161.21
1160.98
1160.45
1159.56
1158.29
1156.62
1154.6
1152.24
1149.62
1146.78
1143.8
1140.73
1137.64
1134.56
1131.53
1128.56
1125.67
1122.83
1120.05
1117.29
1114.55
1111.8
1109.04
1106.32
1103.73
1101.47
1099.95
1099.88
1102.58
1110.52
1126.79
1155.45
1202.42
1275.38
1382.79
1531.32
1720.9
1937.81
2148.63
2304.44
2373.61
2559.52
2382.55
2245.9
2178.4
2002.71
1749.6
1476.13
1228.15
1030.54
889.565
799.59
749.701
728.178
724.741
731.435
742.844
754.492
763.952
770.254
773.302
773.455
771.263
767.31
762.144
756.237
749.982
743.696
737.632
731.985
726.896
722.603
719.1
716.378
714.42
713.201
712.674
712.776
713.419
714.501
715.911
717.53
719.247
720.962
722.594
724.089
725.417
726.581
727.61
728.556
729.489
730.491
731.644
733.022
734.683
736.66
738.954
741.532
744.326
747.243
750.174
753.013
755.665
758.065
760.181
762.015
763.599
764.979
766.208
767.328
768.37
769.342
770.241
771.057
771.669
772.001
771.988
771.572
770.717
769.407
767.66
765.532
763.14
760.504
757.686
754.781
751.903
749.176
746.727
744.668
743.098
742.098
741.723
742.007
742.956
744.546
746.73
749.431
752.557
756.001
759.653
763.409
767.172
770.865
774.424
777.802
780.963
783.883
786.541
788.923
790.921
792.517
793.704
794.483
794.868
794.894
794.62
794.136
793.559
792.983
792.493
792.176
792.112
792.364
792.973
793.952
795.284
796.931
798.834
800.927
803.151
805.458
807.674
809.705
811.485
812.964
814.114
814.923
815.4
815.574
815.495
815.224
814.825
814.358
813.87
813.391
812.937
812.508
812.1
811.711
811.346
811.023
810.771
810.624
810.613
810.754
811.041
811.445
811.912
812.375
812.757
812.986
813.002
812.762
812.244
811.448
810.391
809.103
807.625
806.004
804.289
802.529
800.769
799.047
797.395
795.834
794.376
793.025
791.773
790.609
789.517
788.48
787.499
786.616
785.963
785.827
786.749
789.619
796.611
810.571
835.678
877.01
941.318
1038.31
1178.72
1371.4
1617.28
1900.81
2182.26
2400.76
2507.63
2664.89
2382.16
2247
2179.39
2003.28
1749.76
1476.02
1227.92
1030.28
889.324
799.374
749.496
727.967
724.513
731.185
742.574
754.22
763.693
770.022
773.104
773.291
771.127
767.197
762.046
756.147
749.895
743.611
737.548
731.903
726.82
722.532
719.034
716.316
714.363
713.148
712.625
712.729
713.372
714.453
715.86
717.475
719.189
720.902
722.535
724.032
725.365
726.536
727.573
728.527
729.467
730.473
731.627
733.002
734.658
736.626
738.909
741.474
744.254
747.158
750.079
752.909
755.556
757.955
760.073
761.912
763.502
764.887
766.119
767.242
768.284
769.255
770.151
770.963
771.571
771.901
771.886
771.471
770.618
769.314
767.574
765.455
763.073
760.443
757.63
754.726
751.847
749.117
746.664
744.605
743.04
742.049
741.689
741.991
742.958
744.566
746.765
749.478
752.612
756.061
759.716
763.472
767.235
770.926
774.48
777.852
781.004
783.912
786.558
788.925
790.911
792.5
793.687
794.473
794.871
794.913
794.657
794.186
793.612
793.035
792.538
792.208
792.126
792.358
792.948
793.915
795.246
796.904
798.829
800.953
803.207
805.543
807.777
809.816
811.595
813.068
814.208
815.004
815.468
815.63
815.541
815.261
814.857
814.387
813.898
813.419
812.964
812.533
812.122
811.728
811.357
811.027
810.768
810.615
810.598
810.735
811.019
811.423
811.892
812.359
812.745
812.977
812.992
812.746
812.218
811.409
810.335
809.03
807.535
805.899
804.172
802.403
800.636
798.91
797.256
795.695
794.24
792.894
791.652
790.501
789.422
788.4
787.431
786.556
785.906
785.77
786.687
789.55
796.531
810.481
835.58
876.915
941.233
1038.24
1178.67
1371.34
1617.18
1900.56
2181.76
2399.96
2506.72
2665.53
2432.36
2303.23
2226.05
2026.4
1741.1
1433.65
1154.34
930.134
767.358
659.257
593.523
557.554
540.779
535.311
535.845
538.616
541.184
542.488
542.209
540.425
537.393
533.423
528.824
523.871
518.8
513.809
509.059
504.685
500.802
497.56
494.922
492.87
491.383
490.436
489.988
489.988
490.368
491.053
491.958
492.998
494.093
495.171
496.176
497.07
497.839
498.488
499.044
499.55
500.064
500.648
501.365
502.27
503.401
504.778
506.394
508.219
510.195
512.25
514.302
516.27
518.091
519.718
521.133
522.345
523.378
524.271
525.064
525.791
526.473
527.118
527.721
528.276
528.705
528.915
528.843
528.435
527.652
526.48
524.927
523.039
520.902
518.592
516.135
513.601
511.08
508.671
506.473
504.579
503.067
502.001
501.426
501.368
501.831
502.799
504.233
506.077
508.262
510.708
513.335
516.063
518.823
521.553
524.205
526.741
529.13
531.348
533.376
535.202
536.784
538.054
539.002
539.632
539.954
539.999
539.815
539.473
539.078
538.696
538.387
538.212
538.229
538.485
539.008
539.813
540.89
542.213
543.742
545.43
547.231
549.108
550.952
552.657
554.161
555.421
556.413
557.129
557.58
557.792
557.807
557.674
557.442
557.157
556.852
556.547
556.253
555.971
555.7
555.445
555.218
555.04
554.941
554.951
555.097
555.39
555.824
556.373
556.991
557.623
558.21
558.695
559.035
559.198
559.171
558.956
558.567
558.029
557.371
556.629
555.841
555.043
554.274
553.566
552.95
552.449
552.08
551.852
551.766
551.813
551.982
552.265
552.679
553.306
554.354
556.238
559.668
566.217
578.099
598.107
630.577
682.118
760.414
876.65
1043.63
1272.26
1564.43
1902.73
2241.33
2508.1
2638.51
2759.35
2431.94
2304.34
2227.05
2026.99
1741.29
1433.57
1154.15
929.933
767.186
659.115
593.397
557.428
540.642
535.158
535.675
538.448
541.029
542.355
542.102
540.345
537.335
533.382
528.794
523.846
518.778
513.787
509.037
504.664
500.787
497.547
494.912
492.863
491.379
490.434
489.989
489.991
490.372
491.056
491.96
492.998
494.092
495.169
496.175
497.072
497.845
498.5
499.061
499.574
500.092
500.679
501.397
502.3
503.427
504.797
506.406
508.221
510.188
512.234
514.278
516.241
518.058
519.685
521.102
522.316
523.353
524.25
525.046
525.775
526.457
527.101
527.701
528.251
528.678
528.887
528.814
528.406
527.626
526.458
524.911
523.03
520.901
518.596
516.141
513.609
511.087
508.676
506.477
504.582
503.073
502.013
501.448
501.401
501.877
502.856
504.3
506.152
508.342
510.792
513.42
516.149
518.908
521.637
524.286
526.818
529.201
531.412
533.431
535.246
536.82
538.085
539.033
539.668
540
540.058
539.887
539.556
539.16
538.776
538.462
538.278
538.283
538.525
539.037
539.833
540.909
542.238
543.781
545.487
547.307
549.204
551.06
552.77
554.273
555.529
556.513
557.221
557.664
557.869
557.879
557.741
557.508
557.222
556.918
556.614
556.32
556.037
555.765
555.507
555.277
555.094
554.991
554.997
555.138
555.428
555.861
556.409
557.029
557.665
558.255
558.743
559.082
559.242
559.209
558.985
558.585
558.034
557.365
556.612
555.815
555.01
554.236
553.524
552.906
552.405
552.038
551.814
551.734
551.79
551.969
552.262
552.684
553.317
554.367
556.251
559.68
566.222
578.098
598.103
630.573
682.122
760.438
876.705
1043.72
1272.36
1564.48
1902.61
2240.91
2507.33
2637.58
2759.99
2467.34
2344.82
2261.82
2046.02
1738.62
1407.59
1106.36
863.401
685.178
564.324
487.373
441.057
414.594
400.136
392.54
388.57
385.915
383.457
380.707
377.523
373.929
370.024
365.933
361.782
357.687
353.755
350.078
346.734
343.845
341.436
339.478
337.952
336.835
336.102
335.719
335.643
335.823
336.203
336.721
337.319
337.94
338.537
339.075
339.531
339.898
340.187
340.421
340.635
340.871
341.177
341.594
342.16
342.896
343.81
344.891
346.11
347.423
348.775
350.11
351.373
352.523
353.532
354.394
355.117
355.723
356.24
356.696
357.113
357.505
357.873
358.212
358.508
358.742
358.807
358.647
358.218
357.489
356.446
355.1
353.485
351.665
349.736
347.715
345.653
343.617
341.681
339.919
338.401
337.183
336.312
335.818
335.717
336.008
336.675
337.688
339.003
340.569
342.327
344.221
346.193
348.194
350.181
352.119
353.978
355.735
357.371
358.868
360.212
361.391
362.368
363.103
363.599
363.868
363.935
363.838
363.632
363.41