/*--------------------------------*- C++ -*----------------------------------*\
  =========                 |
  \\      /  F ield         | OpenFOAM: The Open Source CFD Toolbox
   \\    /   O peration     | Website:  https://openfoam.org
    \\  /    A nd           | Version:  8
     \\/     M anipulation  |
\*---------------------------------------------------------------------------*/
FoamFile
{
    version     2.0;
    format      ascii;
    class       volScalarField;
    location    "100";
    object      k;
}
// * * * * * * * * * * * * * * * * * * * * * * * * * * * * * * * * * * * * * //

dimensions      [0 2 -2 0 0 0 0];

internalField   nonuniform List<scalar> 
46000
(
0.723619
0.973088
1.18785
1.36014
1.49865
1.61208
1.70763
1.79075
1.86533
1.93385
1.99773
2.05764
2.11395
2.16735
2.21598
2.25866
2.29473
2.32399
2.34655
2.36282
2.37337
2.3789
2.38016
2.37795
2.37305
2.36621
2.35813
2.3494
2.34058
2.33208
2.32425
2.31739
2.31159
2.30688
2.30325
2.30066
2.29904
2.29828
2.29826
2.29886
2.29994
2.30138
2.30309
2.30495
2.30689
2.30889
2.31095
2.31308
2.3153
2.31764
2.32012
2.32277
2.32559
2.32856
2.33167
2.33488
2.33816
2.34149
2.34486
2.34826
2.35162
2.35493
2.35814
2.36126
2.36428
2.36717
2.36995
2.37256
2.375
2.3772
2.37911
2.38069
2.38188
2.38264
2.38297
2.38288
2.38241
2.38165
2.38071
2.37979
2.37907
2.37868
2.37879
2.37951
2.38097
2.38323
2.38634
2.39028
2.39499
2.40039
2.40635
2.41276
2.41951
2.42651
2.43364
2.44082
2.44793
2.45487
2.46157
2.46796
2.47398
2.47958
2.48474
2.48944
2.49374
2.49763
2.50111
2.50421
2.50695
2.50936
2.51146
2.51323
2.51467
2.51576
2.5165
2.51692
2.51708
2.51708
2.51702
2.51704
2.51723
2.51772
2.51859
2.51988
2.52158
2.52357
2.52571
2.5278
2.52976
2.53147
2.53281
2.53375
2.53428
2.53445
2.5343
2.53393
2.53338
2.53272
2.53198
2.5312
2.53038
2.52954
2.52871
2.52789
2.5271
2.52635
2.52568
2.52507
2.52455
2.5241
2.52372
2.52336
2.52302
2.52264
2.5222
2.52163
2.52088
2.51991
2.51866
2.51706
2.51509
2.51268
2.5098
2.50643
2.50256
2.49821
2.49341
2.48821
2.48268
2.47691
2.47098
2.46497
2.45896
2.45297
2.44705
2.44118
2.43533
2.42946
2.42352
2.41745
2.41121
2.40478
2.39814
2.39127
2.3841
2.37641
2.36777
2.35739
2.344
2.32581
2.30047
2.26515
2.21666
2.15135
2.06474
1.9502
1.79677
1.58686
1.299
0.952744
0.723851
0.973172
1.188
1.3603
1.49878
1.6122
1.70774
1.79088
1.86547
1.93403
1.99796
2.0579
2.11424
2.16767
2.21632
2.25901
2.29509
2.32436
2.34694
2.36323
2.3738
2.37935
2.38062
2.37842
2.37352
2.36667
2.35857
2.34983
2.34099
2.33248
2.32463
2.31776
2.31195
2.30723
2.3036
2.30101
2.29939
2.29864
2.29862
2.29922
2.30029
2.30174
2.30344
2.30529
2.30723
2.30921
2.31126
2.31338
2.31559
2.31793
2.32042
2.32307
2.32589
2.32886
2.33197
2.33519
2.33847
2.3418
2.34518
2.34857
2.35193
2.35522
2.35844
2.36155
2.36456
2.36746
2.37024
2.37286
2.37529
2.37749
2.37941
2.38099
2.38218
2.38294
2.38327
2.38318
2.38271
2.38194
2.381
2.38009
2.37937
2.37899
2.37911
2.37985
2.38133
2.3836
2.3867
2.39063
2.39533
2.40072
2.40668
2.4131
2.41987
2.42688
2.43403
2.44122
2.44833
2.45529
2.46199
2.46839
2.47442
2.48003
2.4852
2.48992
2.49422
2.49811
2.50159
2.50468
2.50741
2.5098
2.51188
2.51364
2.51507
2.51615
2.5169
2.51734
2.51751
2.51751
2.51746
2.51748
2.51768
2.51816
2.519
2.52025
2.52189
2.52383
2.52595
2.52809
2.53013
2.53193
2.53336
2.53438
2.53496
2.53515
2.53502
2.53465
2.53409
2.53341
2.53264
2.53182
2.53095
2.53007
2.5292
2.52834
2.52751
2.52673
2.52602
2.5254
2.52486
2.52439
2.52399
2.52362
2.52327
2.52288
2.52243
2.52185
2.52109
2.52011
2.51885
2.51726
2.51529
2.51288
2.51001
2.50663
2.50275
2.49838
2.49355
2.48832
2.48277
2.47697
2.47102
2.46499
2.45896
2.45297
2.44704
2.44117
2.43532
2.42946
2.42353
2.41748
2.41126
2.40485
2.39824
2.3914
2.38426
2.37659
2.36798
2.35761
2.34424
2.32605
2.30071
2.26539
2.21689
2.15158
2.06496
1.95042
1.79698
1.58704
1.29915
0.952813
1.03282
1.42226
1.72007
1.94634
2.12406
2.2692
2.39347
2.50422
2.60523
2.69784
2.78198
2.85701
2.9221
2.97679
3.02176
3.0575
3.08469
3.10413
3.11672
3.12339
3.12506
3.12266
3.11705
3.10907
3.09952
3.08908
3.0784
3.068
3.05828
3.04957
3.04206
3.03582
3.03092
3.02734
3.02499
3.02377
3.02352
3.02408
3.02528
3.02695
3.02894
3.03112
3.0334
3.03572
3.03807
3.04044
3.04285
3.04537
3.04805
3.05095
3.0541
3.05753
3.06121
3.06511
3.06916
3.07329
3.07742
3.08148
3.08541
3.08919
3.09281
3.09629
3.09962
3.10282
3.1059
3.10886
3.11167
3.1143
3.11669
3.11878
3.12049
3.12175
3.1225
3.12274
3.12249
3.12178
3.12074
3.11948
3.11817
3.11698
3.11611
3.11577
3.11614
3.1174
3.11967
3.12302
3.12746
3.13294
3.13938
3.14663
3.15455
3.16296
3.17172
3.18067
3.18966
3.19855
3.2072
3.21551
3.22338
3.23074
3.23754
3.24374
3.24932
3.25429
3.25865
3.26247
3.26579
3.26867
3.27116
3.27331
3.27513
3.27661
3.27773
3.27848
3.27887
3.27898
3.27893
3.27883
3.27885
3.27911
3.27974
3.28085
3.28246
3.28456
3.28703
3.28971
3.29238
3.29483
3.29688
3.29841
3.29938
3.29982
3.2998
3.29939
3.29871
3.29783
3.29682
3.29574
3.29461
3.29347
3.29234
3.29124
3.29017
3.28915
3.2882
3.28734
3.28657
3.2859
3.28533
3.28483
3.28438
3.28394
3.28347
3.28291
3.2822
3.28128
3.28007
3.27852
3.27655
3.27413
3.27121
3.26774
3.26372
3.25913
3.25401
3.2484
3.24235
3.23594
3.22927
3.22242
3.21547
3.20851
3.20158
3.19469
3.18784
3.18097
3.17403
3.16695
3.15967
3.15213
3.14431
3.13623
3.1279
3.11932
3.11034
3.10058
3.08925
3.07498
3.05568
3.02852
2.9901
2.93677
2.86505
2.77174
2.65341
2.5045
2.31358
2.06041
1.70772
1.20655
1.03322
1.42252
1.72025
1.94648
2.12419
2.26933
2.39361
2.5044
2.60547
2.69813
2.78234
2.85742
2.92257
2.9773
3.02229
3.05803
3.08523
3.10468
3.1173
3.12401
3.12571
3.12332
3.11772
3.10973
3.10016
3.08971
3.079
3.06857
3.05884
3.05011
3.04258
3.03634
3.03144
3.02785
3.0255
3.02428
3.02404
3.02461
3.02581
3.02748
3.02947
3.03164
3.03391
3.03622
3.03856
3.04093
3.04334
3.04585
3.04853
3.05143
3.05458
3.058
3.06168
3.06558
3.06963
3.07375
3.07788
3.08194
3.08587
3.08965
3.09326
3.09673
3.10005
3.10325
3.10633
3.10929
3.11211
3.11474
3.11714
3.11923
3.12094
3.1222
3.12296
3.1232
3.12294
3.12223
3.12118
3.11992
3.11861
3.11742
3.11656
3.11622
3.11661
3.11788
3.12016
3.12352
3.12796
3.13344
3.13988
3.14713
3.15505
3.16348
3.17225
3.18121
3.19021
3.19911
3.20778
3.21609
3.22397
3.23134
3.23814
3.24434
3.24993
3.25491
3.25928
3.2631
3.26642
3.26929
3.27176
3.27388
3.27567
3.27712
3.27824
3.27899
3.2794
3.27953
3.27948
3.27939
3.2794
3.27966
3.2803
3.28139
3.28298
3.28505
3.2875
3.29016
3.29285
3.29535
3.29748
3.29911
3.30016
3.30066
3.30065
3.30024
3.29954
3.29865
3.29762
3.29651
3.29535
3.29417
3.29299
3.29184
3.29074
3.28969
3.28871
3.28782
3.28703
3.28634
3.28575
3.28524
3.28478
3.28433
3.28385
3.28328
3.28257
3.28163
3.28041
3.27884
3.27688
3.27447
3.27155
3.2681
3.26408
3.25948
3.25434
3.2487
3.24262
3.23619
3.22949
3.22261
3.21565
3.20868
3.20174
3.19485
3.18799
3.18112
3.17419
3.16712
3.15984
3.15232
3.14453
3.13648
3.12819
3.11963
3.11067
3.10094
3.08963
3.07537
3.05607
3.02891
2.99049
2.93715
2.86542
2.7721
2.65376
2.50484
2.31392
2.06073
1.70802
1.20673
1.29171
1.74129
2.06139
2.28735
2.45102
2.57601
2.68023
2.77506
2.86606
2.95451
3.03912
3.11748
3.18704
3.24547
3.29241
3.32843
3.35445
3.37158
3.38109
3.38424
3.38226
3.37632
3.36748
3.35671
3.34484
3.3326
3.32061
3.30933
3.29913
3.29023
3.28274
3.27672
3.27221
3.26918
3.26752
3.2671
3.26772
3.26918
3.27128
3.27382
3.27661
3.27952
3.28244
3.2853
3.2881
3.29085
3.2936
3.29642
3.2994
3.30259
3.30608
3.30988
3.31401
3.31843
3.32309
3.3279
3.33276
3.33759
3.34227
3.34674
3.35098
3.35499
3.35876
3.36233
3.36569
3.36886
3.37182
3.37453
3.37695
3.379
3.3806
3.3817
3.38224
3.38222
3.38166
3.38063
3.37923
3.3776
3.37587
3.3742
3.37275
3.37174
3.37137
3.37181
3.37321
3.37565
3.37916
3.38375
3.38934
3.39584
3.40314
3.41111
3.4196
3.42847
3.43754
3.44664
3.45562
3.46434
3.47268
3.48055
3.48786
3.49457
3.50065
3.50609
3.51088
3.51506
3.51869
3.52182
3.5245
3.52675
3.52857
3.52996
3.53089
3.53139
3.53151
3.53136
3.53106
3.53078
3.53068
3.53094
3.53168
3.53301
3.53495
3.53744
3.54032
3.5434
3.54646
3.54927
3.55164
3.55346
3.55472
3.55545
3.5557
3.55557
3.55514
3.55447
3.55362
3.55265
3.5516
3.55051
3.54941
3.54832
3.54726
3.54625
3.54531
3.54446
3.5437
3.54303
3.54244
3.54192
3.54144
3.54097
3.54047
3.53988
3.53913
3.53816
3.53688
3.53524
3.53315
3.53057
3.52745
3.52373
3.51942
3.51451
3.50906
3.5031
3.49672
3.49
3.48305
3.47595
3.4688
3.46166
3.45456
3.4475
3.44045
3.43336
3.42616
3.41878
3.41117
3.4033
3.39521
3.38693
3.37855
3.37009
3.36146
3.35228
3.34178
3.32858
3.3107
3.28556
3.25024
3.2019
3.13802
3.05621
2.95285
2.82035
2.64258
2.3917
2.01752
1.43228
1.2918
1.74141
2.0615
2.28745
2.45113
2.57613
2.68039
2.77527
2.86633
2.95485
3.03952
3.11794
3.18756
3.24604
3.293
3.32905
3.35508
3.37224
3.38178
3.38495
3.38299
3.37706
3.36822
3.35744
3.34555
3.33329
3.32128
3.30998
3.29976
3.29085
3.28335
3.27733
3.27282
3.26978
3.26813
3.26771
3.26834
3.26981
3.27191
3.27444
3.27724
3.28014
3.28306
3.28592
3.28871
3.29146
3.2942
3.29702
3.29999
3.30318
3.30666
3.31046
3.31458
3.319
3.32365
3.32845
3.33331
3.33813
3.34281
3.34728
3.35151
3.35551
3.35928
3.36284
3.36621
3.36938
3.37234
3.37505
3.37747
3.37952
3.38113
3.38222
3.38277
3.38274
3.38218
3.38115
3.37975
3.37811
3.37639
3.37472
3.37328
3.37228
3.37191
3.37236
3.37376
3.37621
3.37973
3.38432
3.38991
3.39642
3.40374
3.41172
3.42023
3.42911
3.43819
3.44731
3.4563
3.46503
3.47337
3.48124
3.48856
3.49527
3.50135
3.50679
3.51158
3.51576
3.51938
3.5225
3.52516
3.52738
3.52919
3.53056
3.53149
3.532
3.53213
3.53199
3.53169
3.53141
3.53131
3.53155
3.53228
3.53359
3.53551
3.53798
3.54086
3.54396
3.54706
3.54993
3.55237
3.55427
3.55558
3.55634
3.55661
3.55647
3.55603
3.55534
3.55447
3.55346
3.55237
3.55124
3.55009
3.54897
3.54788
3.54684
3.54588
3.545
3.54422
3.54353
3.54293
3.5424
3.54192
3.54144
3.54093
3.54033
3.53958
3.53859
3.5373
3.53565
3.53357
3.531
3.52788
3.52416
3.51984
3.51492
3.50944
3.50346
3.49705
3.49031
3.48334
3.47622
3.46906
3.46191
3.45481
3.44775
3.4407
3.43362
3.42642
3.41905
3.41146
3.40362
3.39555
3.3873
3.37894
3.3705
3.36189
3.35273
3.34224
3.32905
3.31117
3.28602
3.2507
3.20235
3.13846
3.05664
2.95327
2.82076
2.643
2.39212
2.01795
1.43258
1.47822
1.971
2.2928
2.49266
2.61276
2.68674
2.74071
2.79153
2.84754
2.91056
2.97831
3.04664
3.11104
3.16763
3.21387
3.24949
3.27491
3.29109
3.29927
3.30086
3.29723
3.28969
3.27942
3.26745
3.25466
3.24177
3.22935
3.21786
3.20758
3.1987
3.19128
3.18544
3.18119
3.1785
3.17725
3.1773
3.17844
3.18047
3.18314
3.18625
3.18959
3.19301
3.19638
3.19962
3.20273
3.2057
3.20861
3.21154
3.21456
3.21779
3.2213
3.22516
3.22939
3.23399
3.23893
3.24413
3.24948
3.25487
3.26018
3.26529
3.27012
3.27463
3.2788
3.28265
3.2862
3.28946
3.29245
3.29516
3.29754
3.29955
3.30108
3.30209
3.30252
3.30238
3.30168
3.30047
3.29883
3.29687
3.29471
3.29246
3.29024
3.28823
3.28663
3.28561
3.28532
3.28589
3.28741
3.28991
3.29339
3.29784
3.3032
3.30942
3.31639
3.32397
3.33201
3.34035
3.34879
3.3572
3.36541
3.3733
3.38076
3.38772
3.39413
3.39995
3.40519
3.40981
3.41385
3.41733
3.42029
3.42273
3.42465
3.42602
3.42686
3.42721
3.42715
3.42681
3.42631
3.42584
3.42558
3.42572
3.42641
3.42774
3.42974
3.43232
3.43535
3.43863
3.44194
3.4451
3.44791
3.45025
3.45209
3.45346
3.45438
3.45491
3.4551
3.455
3.45463
3.45406
3.45333
3.45249
3.45158
3.45064
3.4497
3.4488
3.44796
3.4472
3.44651
3.44589
3.44534
3.44484
3.44438
3.44393
3.44347
3.44296
3.44233
3.44152
3.44045
3.43907
3.43727
3.435
3.43219
3.4288
3.42481
3.42023
3.4151
3.40948
3.40346
3.39712
3.39058
3.38391
3.37722
3.37054
3.36391
3.35732
3.35074
3.34411
3.33738
3.3305
3.32345
3.31624
3.30894
3.30166
3.29453
3.28766
3.28107
3.27455
3.26762
3.2594
3.24864
3.23388
3.21371
3.18705
3.15301
3.10995
3.05312
2.97076
2.8392
2.61972
2.24813
1.61119
1.47816
1.97099
2.29282
2.49271
2.61282
2.68683
2.74084
2.79172
2.84779
2.91087
2.97869
3.04708
3.11153
3.16817
3.21445
3.2501
3.27555
3.29175
3.29996
3.30157
3.29794
3.2904
3.28012
3.26814
3.25533
3.24242
3.22999
3.21848
3.20819
3.1993
3.19188
3.18603
3.18179
3.1791
3.17787
3.17792
3.17907
3.1811
3.18377
3.18688
3.19022
3.19364
3.19701
3.20025
3.20335
3.20633
3.20924
3.21216
3.21518
3.2184
3.22191
3.22575
3.22998
3.23457
3.23949
3.24468
3.25002
3.2554
3.2607
3.2658
3.27063
3.27514
3.27931
3.28316
3.28671
3.28998
3.29297
3.29568
3.29806
3.30007
3.3016
3.30261
3.30304
3.3029
3.3022
3.30098
3.29934
3.29738
3.29522
3.29298
3.29076
3.28877
3.28717
3.28615
3.28587
3.28644
3.28795
3.29045
3.29395
3.29841
3.3038
3.31004
3.31703
3.32463
3.33269
3.34103
3.34949
3.3579
3.36612
3.37401
3.38147
3.38843
3.39483
3.40065
3.40587
3.41048
3.4145
3.41797
3.42092
3.42335
3.42525
3.42663
3.42748
3.42783
3.42778
3.42744
3.42694
3.42646
3.42619
3.42631
3.42698
3.42828
3.43025
3.43283
3.43587
3.43919
3.44257
3.44579
3.44866
3.45105
3.45293
3.45431
3.45524
3.45577
3.45595
3.45582
3.45543
3.45483
3.45405
3.45317
3.45223
3.45126
3.4503
3.44938
3.44851
3.44773
3.44703
3.4464
3.44584
3.44533
3.44486
3.4444
3.44394
3.44342
3.44278
3.44196
3.44089
3.43951
3.43772
3.43545
3.43263
3.42923
3.42522
3.42062
3.41547
3.40983
3.40378
3.39742
3.39085
3.38418
3.37747
3.37079
3.36416
3.35758
3.351
3.34438
3.33767
3.33081
3.32378
3.3166
3.30932
3.30206
3.29495
3.28809
3.28151
3.275
3.26808
3.25985
3.24909
3.23433
3.21415
3.18748
3.15343
3.11038
3.05354
2.97119
2.83964
2.62018
2.24862
1.61159
1.61378
2.14443
2.45899
2.62095
2.68308
2.69011
2.67735
2.66803
2.67388
2.69761
2.73622
2.78391
2.83437
2.88219
2.92293
2.95493
2.97777
2.99193
2.99845
2.99865
2.99389
2.98549
2.97463
2.96231
2.94938
2.93652
2.92425
2.91296
2.9029
2.89419
2.88699
2.88138
2.87735
2.87487
2.87382
2.87407
2.87541
2.87764
2.88052
2.88384
2.88737
2.89095
2.89444
2.89777
2.90089
2.90383
2.90663
2.90939
2.9122
2.91518
2.91843
2.92204
2.92607
2.93053
2.93542
2.94067
2.94617
2.95178
2.95736
2.96277
2.96787
2.97261
2.97693
2.98084
2.98436
2.98754
2.9904
2.99295
2.99519
2.99708
2.99855
2.9995
2.99991
2.99974
2.999
2.9977
2.9959
2.99367
2.99109
2.98828
2.98529
2.98225
2.97934
2.97674
2.9746
2.97311
2.97237
2.9725
2.97356
2.9756
2.97864
2.98266
2.98762
2.99342
2.99993
3.00698
3.01441
3.02204
3.02969
3.03722
3.04449
3.0514
3.05788
3.06387
3.06936
3.07431
3.07866
3.08244
3.08564
3.08825
3.09026
3.09167
3.0925
3.09279
3.09264
3.09219
3.09157
3.09097
3.09058
3.09059
3.09115
3.09235
3.09422
3.09671
3.09969
3.103
3.10646
3.10989
3.11313
3.11602
3.11852
3.12061
3.12229
3.12358
3.12448
3.12503
3.12523
3.12514
3.1248
3.12426
3.12359
3.12284
3.12207
3.12133
3.12063
3.11999
3.11941
3.11889
3.11841
3.11797
3.11756
3.11718
3.11683
3.11647
3.11608
3.1156
3.11495
3.11405
3.11282
3.11117
3.10903
3.10634
3.10309
3.09927
3.09494
3.09015
3.08498
3.07954
3.07391
3.06819
3.06245
3.05675
3.0511
3.04551
3.03995
3.03438
3.02878
3.02312
3.0174
3.0117
3.00611
3.0008
2.99596
2.9918
2.98852
2.98621
2.9849
2.98457
2.98519
2.98697
2.99058
2.99723
3.00793
3.02159
3.03145
3.02016
2.95459
2.7832
2.42747
1.75317
1.61363
2.14432
2.45892
2.62093
2.68309
2.69016
2.67744
2.66818
2.67409
2.69788
2.73654
2.78429
2.83479
2.88264
2.92343
2.95547
2.97834
2.99252
2.99906
2.99927
2.99452
2.98611
2.97523
2.9629
2.94995
2.93707
2.92479
2.91348
2.90342
2.89471
2.88751
2.8819
2.87788
2.8754
2.87437
2.87462
2.87598
2.87821
2.88109
2.88441
2.88794
2.89152
2.89501
2.89834
2.90146
2.9044
2.90721
2.90997
2.91278
2.91575
2.91899
2.92259
2.92661
2.93106
2.93593
2.94116
2.94665
2.95225
2.95782
2.96321
2.96832
2.97305
2.97738
2.98129
2.98482
2.98801
2.99087
2.99342
2.99566
2.99755
2.99901
2.99996
3.00037
3.0002
2.99945
2.99816
2.99636
2.99412
2.99156
2.98875
2.98576
2.98273
2.97983
2.97722
2.97509
2.97359
2.97285
2.97298
2.97405
2.97611
2.97917
2.98323
2.98821
2.99404
3.00056
3.00763
3.01507
3.0227
3.03036
3.03789
3.04515
3.05205
3.05852
3.0645
3.06997
3.0749
3.07924
3.083
3.08618
3.08878
3.0908
3.09222
3.09305
3.09335
3.09321
3.09276
3.09214
3.09153
3.09113
3.09111
3.09164
3.09281
3.09466
3.09714
3.10014
3.1035
3.10702
3.11052
3.11382
3.11676
3.11928
3.12138
3.12306
3.12434
3.12523
3.12575
3.12593
3.1258
3.12542
3.12486
3.12416
3.12339
3.1226
3.12184
3.12112
3.12047
3.11988
3.11935
3.11886
3.11841
3.11799
3.11761
3.11725
3.11689
3.11649
3.116
3.11535
3.11446
3.11323
3.11158
3.10943
3.10673
3.10345
3.09962
3.09526
3.09044
3.08525
3.07978
3.07413
3.0684
3.06266
3.05696
3.05132
3.04573
3.04019
3.03464
3.02905
3.02341
3.01773
3.01205
3.00648
3.00119
2.99636
2.99221
2.98892
2.98661
2.9853
2.98496
2.98558
2.98735
2.99096
2.99761
3.00831
3.02198
3.03185
3.02057
2.95503
2.78367
2.428
1.75362
1.71408
2.27885
2.58372
2.70588
2.70788
2.64509
2.56187
2.48791
2.43839
2.41704
2.42029
2.441
2.47129
2.50435
2.53498
2.55966
2.57714
2.58738
2.59106
2.58929
2.58326
2.57416
2.56302
2.55077
2.53813
2.5257
2.51392
2.50311
2.4935
2.48518
2.47836
2.47305
2.46924
2.4669
2.46591
2.46614
2.46742
2.46953
2.47227
2.47541
2.47876
2.48212
2.48538
2.48844
2.49126
2.49386
2.49629
2.49863
2.50099
2.5035
2.50627
2.50941
2.51299
2.51706
2.5216
2.52655
2.53182
2.53726
2.54269
2.54796
2.55294
2.55751
2.56163
2.56529
2.56853
2.5714
2.57394
2.57619
2.57817
2.57985
2.58119
2.58208
2.58247
2.58231
2.58158
2.58025
2.57835
2.57592
2.57301
2.56971
2.56609
2.56221
2.55823
2.55432
2.55065
2.54742
2.54479
2.5429
2.54188
2.54182
2.5428
2.54483
2.5479
2.55196
2.55689
2.56257
2.56881
2.57545
2.5823
2.5892
2.596
2.60258
2.60885
2.61475
2.62022
2.62524
2.62974
2.63364
2.63695
2.63965
2.64173
2.64317
2.64401
2.64431
2.64415
2.64368
2.64304
2.64241
2.64197
2.64189
2.64233
2.64337
2.64505
2.64735
2.65017
2.65338
2.65685
2.66042
2.66397
2.6673
2.67034
2.67303
2.67534
2.67725
2.67875
2.67984
2.68053
2.68084
2.68084
2.68058
2.68013
2.67959
2.67899
2.67841
2.67787
2.67737
2.67691
2.67649
2.67611
2.67575
2.67543
2.67517
2.67498
2.67487
2.6748
2.67474
2.67461
2.67433
2.67379
2.67291
2.6716
2.6698
2.6675
2.66469
2.66142
2.65775
2.65375
2.64952
2.64514
2.6407
2.63627
2.6319
2.62761
2.62341
2.6193
2.61527
2.6113
2.60742
2.60366
2.60012
2.59693
2.5943
2.59249
2.59183
2.59273
2.59569
2.60143
2.61102
2.62589
2.64808
2.68047
2.72662
2.78934
2.86773
2.95246
3.01989
3.02685
2.90866
2.57334
1.86834
1.71386
2.27866
2.5836
2.70581
2.70786
2.64511
2.56194
2.48802
2.43855
2.41725
2.42054
2.4413
2.47162
2.5047
2.53537
2.56008
2.57759
2.58785
2.59156
2.5898
2.58377
2.57465
2.56351
2.55123
2.53857
2.52612
2.51433
2.50352
2.4939
2.48558
2.47876
2.47346
2.46967
2.46733
2.46636
2.4666
2.46789
2.47001
2.47275
2.47589
2.47923
2.4826
2.48586
2.48892
2.49175
2.49435
2.49678
2.49913
2.50149
2.504
2.50676
2.50989
2.51346
2.51751
2.52203
2.52697
2.53222
2.53764
2.54306
2.54833
2.5533
2.55787
2.56199
2.56567
2.56892
2.57179
2.57433
2.57659
2.57856
2.58024
2.58158
2.58247
2.58285
2.58269
2.58195
2.58063
2.57873
2.5763
2.57339
2.5701
2.56649
2.56262
2.55864
2.55472
2.55105
2.54781
2.54517
2.54328
2.54227
2.54224
2.54324
2.5453
2.5484
2.55248
2.55743
2.56312
2.56938
2.57602
2.58287
2.58977
2.59657
2.60314
2.6094
2.61528
2.62074
2.62573
2.63021
2.6341
2.63739
2.64008
2.64216
2.64361
2.64447
2.64477
2.64463
2.64416
2.64352
2.64288
2.64242
2.64232
2.64273
2.64374
2.6454
2.64769
2.65052
2.65378
2.65731
2.66094
2.66454
2.66792
2.67097
2.67367
2.67598
2.67788
2.67937
2.68044
2.6811
2.68138
2.68135
2.68106
2.6806
2.68004
2.67944
2.67884
2.67829
2.67778
2.67732
2.67689
2.67649
2.67612
2.6758
2.67553
2.67534
2.67522
2.67515
2.67509
2.67496
2.67468
2.67415
2.67326
2.67194
2.67013
2.66781
2.66498
2.66169
2.65799
2.65396
2.64971
2.64531
2.64086
2.63643
2.63206
2.62777
2.62358
2.61949
2.61547
2.61153
2.60767
2.60394
2.60042
2.59725
2.59463
2.59283
2.59218
2.59308
2.59603
2.60177
2.61134
2.6262
2.64838
2.68077
2.72692
2.78964
2.86805
2.9528
3.02026
3.02725
2.90912
2.57388
1.86882
1.78862
2.38371
2.68009
2.76679
2.71468
2.58825
2.43998
2.30542
2.20298
2.13733
2.10441
2.09602
2.10315
2.118
2.13491
2.14922
2.15894
2.16349
2.16318
2.15875
2.15113
2.14124
2.12993
2.11792
2.10579
2.09402
2.08295
2.07283
2.06385
2.05613
2.04983
2.04491
2.04137
2.03914
2.03813
2.03821
2.03923
2.041
2.04332
2.04599
2.04883
2.05167
2.05439
2.0569
2.05917
2.06121
2.06306
2.06482
2.0666
2.06851
2.07068
2.07322
2.07621
2.07969
2.08365
2.08804
2.09276
2.09764
2.10254
2.10728
2.11172
2.11577
2.11936
2.12251
2.12524
2.12762
2.12969
2.13152
2.13313
2.1345
2.13562
2.1364
2.13674
2.13656
2.13582
2.13448
2.13252
2.12995
2.1268
2.12316
2.11913
2.11471
2.11004
2.10529
2.10064
2.09629
2.09242
2.0892
2.08678
2.08529
2.08481
2.08539
2.08704
2.08972
2.09336
2.09781
2.10294
2.10858
2.11454
2.12067
2.12682
2.13285
2.13869
2.14424
2.14944
2.15426
2.15866
2.16252
2.16579
2.16847
2.17053
2.17198
2.17284
2.17317
2.17306
2.17264
2.17208
2.17151
2.17112
2.17105
2.17144
2.17237
2.17389
2.17598
2.1786
2.18165
2.18502
2.18857
2.19221
2.19578
2.19913
2.20218
2.20488
2.20718
2.20905
2.21048
2.21147
2.21205
2.21228
2.21223
2.21198
2.21161
2.21119
2.21077
2.21037
2.21
2.20966
2.20935
2.20906
2.20881
2.20863
2.20854
2.20857
2.20875
2.20906
2.20945
2.20986
2.21019
2.21034
2.21023
2.20976
2.20888
2.20758
2.20585
2.20373
2.20129
2.19858
2.19571
2.19273
2.18973
2.18678
2.18393
2.1812
2.17863
2.17624
2.17403
2.17204
2.17031
2.1689
2.16794
2.16759
2.1681
2.16982
2.17322
2.17896
2.188
2.20178
2.22274
2.25373
2.29826
2.36118
2.44815
2.56348
2.70621
2.86421
3.00758
3.08343
3.01487
2.69801
1.96477
1.78835
2.38346
2.67992
2.76669
2.71463
2.58825
2.44002
2.3055
2.20309
2.13748
2.10459
2.09623
2.10339
2.11827
2.13519
2.14952
2.15927
2.16385
2.16355
2.15913
2.15151
2.14161
2.13029
2.11826
2.10612
2.09433
2.08324
2.07312
2.06413
2.05642
2.05012
2.04522
2.04169
2.03947
2.03847
2.03856
2.03959
2.04137
2.04369
2.04636
2.0492
2.05204
2.05476
2.05728
2.05955
2.06159
2.06345
2.06522
2.067
2.06891
2.07108
2.07361
2.07659
2.08005
2.084
2.08837
2.09307
2.09794
2.10282
2.10756
2.112
2.11604
2.11965
2.1228
2.12554
2.12792
2.13
2.13183
2.13343
2.13481
2.13591
2.1367
2.13703
2.13685
2.13611
2.13476
2.1328
2.13023
2.12709
2.12346
2.11943
2.11502
2.11035
2.1056
2.10095
2.09659
2.09271
2.08949
2.08708
2.0856
2.08514
2.08574
2.08742
2.09013
2.09378
2.09825
2.10339
2.10903
2.115
2.12113
2.12727
2.1333
2.13912
2.14466
2.14985
2.15465
2.15903
2.16287
2.16613
2.16879
2.17085
2.17231
2.17318
2.17352
2.17343
2.17302
2.17245
2.17189
2.17148
2.17139
2.17175
2.17265
2.17415
2.17624
2.17887
2.18195
2.18535
2.18896
2.19265
2.19626
2.19963
2.20269
2.20538
2.20767
2.20952
2.21093
2.2119
2.21246
2.21267
2.2126
2.21234
2.21196
2.21154
2.21111
2.2107
2.21033
2.20999
2.20967
2.20937
2.20912
2.20892
2.20883
2.20886
2.20903
2.20933
2.20972
2.21013
2.21047
2.21063
2.21051
2.21004
2.20916
2.20783
2.20609
2.20395
2.20148
2.19875
2.19585
2.19286
2.18985
2.1869
2.18404
2.18132
2.17876
2.17638
2.17419
2.17222
2.1705
2.16912
2.16818
2.16785
2.16838
2.1701
2.1735
2.17924
2.18827
2.20204
2.22298
2.25396
2.29848
2.3614
2.44837
2.56371
2.70646
2.8645
3.0079
3.0838
3.01531
2.69855
1.96526
1.84335
2.46382
2.75417
2.81257
2.71641
2.53737
2.33449
2.14829
2
1.89507
1.829
1.79278
1.77666
1.77231
1.77369
1.77592
1.77645
1.77424
1.76918
1.76164
1.75217
1.74142
1.72994
1.71823
1.70672
1.69572
1.68548
1.67619
1.66796
1.66101
1.65532
1.65087
1.64762
1.64551
1.64445
1.64432
1.64498
1.64627
1.64801
1.65004
1.65218
1.65431
1.65631
1.65811
1.65969
1.66106
1.66227
1.6634
1.66455
1.66586
1.66742
1.66933
1.67167
1.67448
1.67773
1.68137
1.6853
1.68937
1.69345
1.69736
1.701
1.70427
1.70713
1.70958
1.71166
1.71344
1.71497
1.71631
1.71748
1.71848
1.71928
1.71986
1.72005
1.71979
1.71898
1.71759
1.71557
1.71292
1.70965
1.70583
1.70159
1.69693
1.69199
1.68691
1.68187
1.67706
1.67265
1.66884
1.66577
1.66357
1.66233
1.6621
1.6629
1.66469
1.66741
1.67094
1.67516
1.6799
1.68501
1.69034
1.69575
1.70112
1.70636
1.71139
1.71614
1.72056
1.72462
1.72827
1.73137
1.73392
1.73589
1.7373
1.73816
1.73854
1.73852
1.73823
1.73781
1.73741
1.73716
1.7372
1.73764
1.73855
1.73998
1.74193
1.74436
1.74722
1.7504
1.75381
1.75735
1.76092
1.76432
1.76747
1.77028
1.77269
1.77468
1.77623
1.77734
1.77804
1.7784
1.7785
1.7784
1.77818
1.77791
1.77763
1.77736
1.77711
1.77689
1.77668
1.77651
1.7764
1.77638
1.7765
1.7768
1.77729
1.77796
1.77877
1.77965
1.78052
1.78127
1.78182
1.7821
1.78206
1.78167
1.78096
1.77995
1.7787
1.77727
1.77572
1.77414
1.7726
1.77114
1.76983
1.76873
1.76786
1.76728
1.76702
1.76714
1.76771
1.76884
1.77066
1.77339
1.77733
1.78295
1.79091
1.80215
1.81796
1.84095
1.87425
1.92213
1.98938
2.08193
2.20732
2.3711
2.57207
2.79536
3.00521
3.14004
3.11233
2.80839
2.04825
1.84304
2.46353
2.75398
2.81246
2.71636
2.53736
2.33451
2.14835
2.00008
1.89518
1.82913
1.79293
1.77683
1.77249
1.77388
1.77612
1.77667
1.77448
1.76944
1.7619
1.75244
1.74168
1.73019
1.71847
1.70694
1.69592
1.68568
1.67638
1.66815
1.6612
1.65552
1.65108
1.64784
1.64574
1.64469
1.64457
1.64524
1.64653
1.64828
1.65031
1.65245
1.65458
1.65658
1.65839
1.65997
1.66135
1.66256
1.66369
1.66486
1.66616
1.66771
1.66962
1.67195
1.67475
1.67798
1.68161
1.68553
1.68959
1.69365
1.69756
1.7012
1.70447
1.70733
1.70979
1.71188
1.71366
1.71519
1.71653
1.7177
1.71869
1.7195
1.72007
1.72026
1.71999
1.71918
1.71779
1.71577
1.71312
1.70985
1.70604
1.7018
1.69715
1.69222
1.68714
1.68209
1.67727
1.67286
1.66904
1.66598
1.66378
1.66256
1.66235
1.66317
1.66498
1.66771
1.67126
1.67548
1.68023
1.68535
1.69068
1.69608
1.70145
1.70668
1.7117
1.71643
1.72085
1.72489
1.72851
1.73161
1.73415
1.73612
1.73753
1.7384
1.7388
1.73879
1.7385
1.73808
1.73768
1.73742
1.73745
1.73786
1.73875
1.74016
1.7421
1.74454
1.74742
1.75064
1.75408
1.75766
1.76126
1.76469
1.76784
1.77064
1.77305
1.77502
1.77655
1.77765
1.77834
1.77869
1.77877
1.77866
1.77844
1.77817
1.77788
1.77761
1.77736
1.77713
1.77692
1.77675
1.77663
1.77661
1.77672
1.77701
1.7775
1.77816
1.77897
1.77986
1.78073
1.78149
1.78204
1.78232
1.78227
1.78187
1.78114
1.78012
1.77884
1.77739
1.77583
1.77424
1.77268
1.77122
1.76992
1.76881
1.76795
1.76738
1.76713
1.76727
1.76786
1.769
1.77084
1.77359
1.77754
1.78317
1.79112
1.80236
1.81817
1.84114
1.87443
1.92228
1.98953
2.08208
2.20747
2.37127
2.57226
2.79559
3.00548
3.14038
3.11275
2.80892
2.04874
1.88267
2.52291
2.80945
2.84696
2.71751
2.49801
2.2524
2.02507
1.83961
1.70221
1.60799
1.5473
1.50994
1.48735
1.4733
1.46326
1.4543
1.44505
1.43502
1.42421
1.41282
1.40113
1.38945
1.37804
1.36713
1.35692
1.34755
1.33914
1.33176
1.32558
1.32053
1.31655
1.3136
1.31161
1.31049
1.31013
1.3104
1.31118
1.3123
1.31363
1.31503
1.3164
1.31764
1.31871
1.31959
1.3203
1.32089
1.32144
1.32204
1.32279
1.32379
1.32512
1.32683
1.32895
1.33144
1.33426
1.3373
1.34044
1.34355
1.3465
1.34921
1.35159
1.35362
1.35532
1.35672
1.35788
1.35885
1.35968
1.36038
1.36096
1.36139
1.36165
1.36162
1.36117
1.36024
1.35875
1.35666
1.35395
1.35065
1.34681
1.34254
1.33794
1.33308
1.32809
1.32315
1.31843
1.31409
1.3103
1.3072
1.3049
1.30349
1.303
1.30344
1.30478
1.30695
1.30987
1.3134
1.31742
1.32178
1.32636
1.33103
1.3357
1.34028
1.34469
1.34888
1.3528
1.35641
1.35966
1.3625
1.36485
1.36668
1.36801
1.36887
1.36931
1.36941
1.36928
1.36908
1.36891
1.36889
1.36912
1.3697
1.37067
1.3721
1.37397
1.37626
1.37893
1.38189
1.38507
1.38837
1.39172
1.39496
1.39796
1.40064
1.40295
1.40486
1.40635
1.40744
1.40816
1.40858
1.40875
1.40876
1.40867
1.40852
1.40837
1.40821
1.40807
1.40795
1.40786
1.40782
1.40787
1.40805
1.4084
1.40896
1.40974
1.41072
1.41188
1.41313
1.4144
1.41562
1.41669
1.41756
1.4182
1.41859
1.41875
1.4187
1.4185
1.41821
1.41787
1.41756
1.41734
1.41727
1.41742
1.41786
1.41863
1.41981
1.42146
1.42368
1.42656
1.43023
1.43488
1.44078
1.44834
1.45819
1.47122
1.48867
1.51274
1.54631
1.59269
1.6566
1.74478
1.86414
2.02349
2.22925
2.47973
2.75744
3.02138
3.20258
3.20496
2.90742
2.12255
1.88234
2.52259
2.80924
2.84684
2.71745
2.498
2.25242
2.02511
1.83966
1.70228
1.60807
1.54739
1.51005
1.48746
1.47341
1.46339
1.45443
1.4452
1.43519
1.42438
1.41299
1.4013
1.38961
1.37819
1.36727
1.35705
1.34767
1.33925
1.33188
1.3257
1.32065
1.31668
1.31374
1.31176
1.31064
1.31029
1.31058
1.31135
1.31248
1.31381
1.31522
1.31658
1.31783
1.3189
1.31979
1.3205
1.3211
1.32165
1.32225
1.323
1.324
1.32533
1.32703
1.32914
1.33162
1.33443
1.33746
1.34059
1.34369
1.34664
1.34934
1.35172
1.35376
1.35546
1.35687
1.35803
1.359
1.35982
1.36053
1.3611
1.36153
1.36179
1.36175
1.3613
1.36036
1.35887
1.35678
1.35408
1.35078
1.34695
1.34269
1.33808
1.33322
1.32824
1.32329
1.31856
1.31422
1.31043
1.30733
1.30504
1.30363
1.30316
1.30361
1.30497
1.30716
1.31008
1.31362
1.31764
1.32201
1.32659
1.33126
1.33593
1.3405
1.3449
1.34908
1.35299
1.35658
1.35983
1.36266
1.36499
1.36682
1.36816
1.36903
1.36948
1.36959
1.36947
1.36926
1.36909
1.36907
1.36929
1.36984
1.3708
1.37221
1.37408
1.37638
1.37906
1.38204
1.38524
1.38857
1.39194
1.3952
1.39821
1.40089
1.4032
1.40509
1.40657
1.40765
1.40836
1.40877
1.40893
1.40894
1.40884
1.4087
1.40854
1.40839
1.40825
1.40812
1.40803
1.40799
1.40804
1.40821
1.40856
1.40911
1.40988
1.41087
1.41202
1.41327
1.41455
1.41577
1.41684
1.41772
1.41835
1.41873
1.41888
1.41882
1.41861
1.41829
1.41794
1.41762
1.4174
1.41733
1.41748
1.41791
1.41869
1.41987
1.42154
1.42377
1.42666
1.43034
1.43501
1.44092
1.4485
1.45835
1.47138
1.48882
1.51288
1.54643
1.5928
1.6567
1.74487
1.86423
2.02358
2.22936
2.47988
2.75763
3.02162
3.2029
3.20537
2.90794
2.12305
1.9104
2.56484
2.84903
2.87186
2.71858
2.4696
2.19217
1.93348
1.71903
1.55591
1.43891
1.35794
1.30254
1.264
1.2361
1.21474
1.19689
1.18098
1.1662
1.15222
1.13891
1.12626
1.1143
1.1031
1.09271
1.0832
1.07463
1.06701
1.06047
1.055
1.05052
1.04697
1.04429
1.0424
1.04121
1.04063
1.04054
1.04082
1.04136
1.04204
1.04275
1.04342
1.04398
1.0444
1.04467
1.04482
1.04489
1.04496
1.0451
1.0454
1.04593
1.04675
1.04789
1.04935
1.05111
1.05311
1.05526
1.05746
1.0596
1.0616
1.06339
1.0649
1.06615
1.06713
1.06788
1.06846
1.0689
1.06923
1.06948
1.06963
1.06966
1.06953
1.0692
1.06852
1.06739
1.06577
1.06361
1.06089
1.05764
1.05391
1.0498
1.04544
1.04092
1.03633
1.03184
1.02758
1.0237
1.02035
1.01764
1.01565
1.01445
1.01407
1.0145
1.01569
1.0176
1.02013
1.02317
1.02662
1.03035
1.03427
1.03827
1.04227
1.04619
1.04998
1.05358
1.05696
1.06007
1.06288
1.06537
1.06747
1.06914
1.07039
1.07125
1.07177
1.07202
1.07209
1.07214
1.07225