/*--------------------------------*- C++ -*----------------------------------*\
  =========                 |
  \\      /  F ield         | OpenFOAM: The Open Source CFD Toolbox
   \\    /   O peration     | Website:  https://openfoam.org
    \\  /    A nd           | Version:  8
     \\/     M anipulation  |
\*---------------------------------------------------------------------------*/
FoamFile
{
    version     2.0;
    format      ascii;
    class       volScalarField;
    location    "100";
    object      nut;
}
// * * * * * * * * * * * * * * * * * * * * * * * * * * * * * * * * * * * * * //

dimensions      [0 2 -1 0 0 0 0];

internalField   nonuniform List<scalar> 
46000
(
5.08968e-05
7.13785e-05
8.74293e-05
0.000100323
0.000110705
0.000119216
0.000126388
0.000132624
0.000138212
0.000143338
0.00014811
0.000152579
0.000156772
0.000160754
0.000164386
0.00016758
0.000170289
0.000172496
0.000174212
0.000175464
0.000176294
0.000176751
0.000176891
0.00017677
0.000176446
0.000175971
0.000175397
0.000174769
0.000174126
0.0001735
0.000172918
0.000172403
0.000171963
0.000171601
0.000171317
0.00017111
0.000170975
0.000170903
0.000170888
0.000170921
0.000170992
0.000171093
0.000171216
0.000171354
0.000171501
0.000171656
0.000171819
0.000171988
0.000172167
0.000172355
0.000172554
0.000172765
0.000172988
0.000173222
0.000173464
0.000173712
0.000173963
0.000174216
0.000174471
0.000174727
0.00017498
0.000175227
0.000175469
0.000175703
0.00017593
0.000176148
0.000176358
0.000176556
0.000176741
0.000176908
0.000177055
0.000177177
0.00017727
0.000177332
0.000177362
0.000177361
0.000177332
0.000177281
0.000177216
0.000177152
0.000177101
0.000177074
0.000177083
0.000177137
0.000177244
0.000177411
0.000177641
0.000177932
0.000178283
0.000178686
0.000179134
0.000179617
0.000180128
0.000180659
0.000181203
0.000181751
0.000182295
0.000182829
0.000183346
0.000183839
0.000184306
0.000184741
0.000185143
0.000185511
0.000185846
0.00018615
0.000186422
0.000186663
0.000186877
0.000187064
0.000187226
0.000187365
0.00018748
0.00018757
0.000187636
0.000187681
0.000187709
0.000187724
0.000187736
0.00018775
0.000187774
0.000187817
0.000187884
0.000187978
0.000188099
0.000188241
0.000188394
0.000188547
0.000188692
0.000188822
0.000188929
0.000189006
0.000189053
0.000189072
0.000189067
0.000189041
0.000189001
0.00018895
0.000188892
0.000188829
0.000188764
0.000188698
0.000188633
0.000188568
0.000188507
0.000188448
0.000188394
0.000188346
0.000188303
0.000188265
0.000188232
0.000188201
0.000188171
0.000188139
0.000188101
0.000188054
0.000187994
0.000187916
0.000187817
0.000187694
0.000187541
0.000187357
0.000187139
0.000186885
0.000186595
0.000186269
0.00018591
0.000185522
0.000185109
0.000184675
0.000184227
0.000183771
0.000183311
0.00018285
0.00018239
0.000181931
0.000181472
0.00018101
0.000180542
0.000180063
0.000179573
0.000179068
0.000178548
0.000178011
0.000177452
0.000176852
0.00017618
0.000175375
0.000174342
0.000172947
0.000171015
0.000168334
0.000164666
0.000159739
0.000153216
0.000144602
0.000133079
0.000117342
9.58071e-05
6.70965e-05
5.09091e-05
7.13691e-05
8.74329e-05
0.000100331
0.000110714
0.000119225
0.000126396
0.000132633
0.000138223
0.000143351
0.000148127
0.000152598
0.000156794
0.000160778
0.000164411
0.000167606
0.000170316
0.000172524
0.000174241
0.000175494
0.000176325
0.000176784
0.000176925
0.000176804
0.000176479
0.000176004
0.000175429
0.0001748
0.000174156
0.00017353
0.000172947
0.000172431
0.00017199
0.000171627
0.000171344
0.000171137
0.000171001
0.000170931
0.000170916
0.000170948
0.000171019
0.00017112
0.000171242
0.00017138
0.000171527
0.000171681
0.000171843
0.000172012
0.000172189
0.000172377
0.000172577
0.000172788
0.000173011
0.000173245
0.000173487
0.000173735
0.000173987
0.000174241
0.000174495
0.000174751
0.000175003
0.00017525
0.000175491
0.000175725
0.000175952
0.000176171
0.00017638
0.000176578
0.000176763
0.000176931
0.000177078
0.0001772
0.000177294
0.000177356
0.000177386
0.000177384
0.000177355
0.000177304
0.000177239
0.000177174
0.000177124
0.000177098
0.000177108
0.000177163
0.000177271
0.000177439
0.000177668
0.000177959
0.000178309
0.000178711
0.000179159
0.000179642
0.000180154
0.000180686
0.00018123
0.000181779
0.000182324
0.000182858
0.000183375
0.000183869
0.000184336
0.000184772
0.000185175
0.000185543
0.000185879
0.000186183
0.000186455
0.000186696
0.000186909
0.000187095
0.000187256
0.000187394
0.000187507
0.000187598
0.000187664
0.00018771
0.000187739
0.000187755
0.000187766
0.000187781
0.000187806
0.000187849
0.000187914
0.000188006
0.000188123
0.000188261
0.000188413
0.000188567
0.000188717
0.000188852
0.000188963
0.000189045
0.000189095
0.000189116
0.000189111
0.000189086
0.000189046
0.000188994
0.000188934
0.00018887
0.000188803
0.000188734
0.000188667
0.0001886
0.000188536
0.000188476
0.000188421
0.000188371
0.000188326
0.000188288
0.000188253
0.000188222
0.000188191
0.000188158
0.00018812
0.000188072
0.000188011
0.000187933
0.000187834
0.00018771
0.000187558
0.000187374
0.000187156
0.000186902
0.000186611
0.000186285
0.000185925
0.000185535
0.00018512
0.000184685
0.000184237
0.000183779
0.000183318
0.000182856
0.000182396
0.000181937
0.000181478
0.000181016
0.000180548
0.000180071
0.000179581
0.000179078
0.000178559
0.000178024
0.000177466
0.000176868
0.000176197
0.000175393
0.000174361
0.000172966
0.000171034
0.000168353
0.000164684
0.000159757
0.000153233
0.000144619
0.000133095
0.000117356
9.58174e-05
6.70977e-05
7.11494e-05
0.000135941
0.000180159
0.0002111
0.000233293
0.000249414
0.000261287
0.000270194
0.000277037
0.000282432
0.00028679
0.000290364
0.000293278
0.00029563
0.000297579
0.000299158
0.000300386
0.00030128
0.000301856
0.000302138
0.000302154
0.000301941
0.000301539
0.000300993
0.000300348
0.000299648
0.000298933
0.000298237
0.000297587
0.000297004
0.000296499
0.000296075
0.000295734
0.000295478
0.000295301
0.000295199
0.000295163
0.000295182
0.000295247
0.000295348
0.000295474
0.000295616
0.000295769
0.000295933
0.000296105
0.000296284
0.000296471
0.000296668
0.00029688
0.000297107
0.000297351
0.000297612
0.000297887
0.000298174
0.000298468
0.000298766
0.000299064
0.000299358
0.000299645
0.000299929
0.000300208
0.000300482
0.000300752
0.000301016
0.000301272
0.000301519
0.000301752
0.000301966
0.000302158
0.000302319
0.000302446
0.000302534
0.00030258
0.000302585
0.000302551
0.000302486
0.000302397
0.000302295
0.000302191
0.000302097
0.000302023
0.000301982
0.000301985
0.000302038
0.000302147
0.000302314
0.000302537
0.000302812
0.000303133
0.000303491
0.00030388
0.000304292
0.000304723
0.000305167
0.000305618
0.000306072
0.000306523
0.000306966
0.000307397
0.00030781
0.000308204
0.000308575
0.00030892
0.000309239
0.000309531
0.000309798
0.000310044
0.000310268
0.000310473
0.000310658
0.000310824
0.000310966
0.000311081
0.000311166
0.000311221
0.000311253
0.000311272
0.000311289
0.000311314
0.000311355
0.000311422
0.000311519
0.000311649
0.000311807
0.000311988
0.000312177
0.000312362
0.000312529
0.000312669
0.000312776
0.000312852
0.000312904
0.000312935
0.000312953
0.000312963
0.000312967
0.000312967
0.000312962
0.000312953
0.00031294
0.000312924
0.000312906
0.000312886
0.000312867
0.00031285
0.000312835
0.000312825
0.000312819
0.000312814
0.000312809
0.000312803
0.000312791
0.000312773
0.000312744
0.000312703
0.000312645
0.000312566
0.000312463
0.000312331
0.000312169
0.000311972
0.00031174
0.000311471
0.000311166
0.000310825
0.000310454
0.000310057
0.000309639
0.000309207
0.000308766
0.000308322
0.000307879
0.000307439
0.000307002
0.000306566
0.000306126
0.00030568
0.000305223
0.000304751
0.000304265
0.000303767
0.000303261
0.000302751
0.000302235
0.0003017
0.000301106
0.000300374
0.000299374
0.000297914
0.000295739
0.000292539
0.000287966
0.000281649
0.000273179
0.000262043
0.000247469
0.000228103
0.000201322
0.000160193
8.23203e-05
7.11922e-05
0.000135882
0.000180086
0.000211046
0.000233269
0.000249422
0.000261324
0.000270258
0.000277122
0.000282537
0.00028691
0.000290498
0.000293423
0.000295782
0.000297733
0.000299312
0.00030054
0.000301435
0.000302014
0.000302299
0.000302316
0.000302102
0.000301697
0.000301146
0.000300496
0.00029979
0.00029907
0.000298369
0.000297716
0.00029713
0.000296625
0.0002962
0.00029586
0.000295603
0.000295428
0.000295327
0.000295292
0.000295313
0.000295379
0.00029548
0.000295606
0.000295747
0.000295901
0.000296063
0.000296235
0.000296415
0.000296601
0.000296798
0.000297009
0.000297235
0.000297479
0.000297739
0.000298014
0.0002983
0.000298594
0.000298892
0.000299189
0.000299484
0.000299771
0.000300053
0.000300331
0.000300605
0.000300874
0.000301138
0.000301395
0.000301642
0.000301876
0.000302091
0.000302282
0.000302444
0.000302572
0.00030266
0.000302706
0.00030271
0.000302676
0.00030261
0.000302521
0.000302418
0.000302314
0.000302219
0.000302146
0.000302106
0.000302109
0.000302164
0.000302274
0.000302442
0.000302665
0.000302939
0.00030326
0.000303618
0.000304007
0.000304421
0.000304852
0.000305297
0.000305749
0.000306203
0.000306654
0.000307096
0.000307526
0.000307939
0.000308332
0.000308702
0.000309048
0.000309367
0.000309659
0.000309927
0.000310171
0.000310394
0.000310597
0.000310779
0.00031094
0.00031108
0.000311195
0.000311281
0.000311338
0.000311371
0.000311391
0.000311407
0.000311431
0.000311472
0.000311538
0.000311634
0.000311762
0.000311919
0.000312097
0.000312286
0.000312473
0.000312645
0.000312794
0.000312911
0.000312993
0.000313045
0.000313073
0.000313085
0.00031309
0.00031309
0.000313088
0.000313082
0.000313072
0.000313056
0.000313038
0.000313018
0.000312997
0.000312978
0.00031296
0.000312945
0.000312933
0.000312926
0.000312921
0.000312916
0.000312909
0.000312897
0.000312878
0.00031285
0.000312808
0.000312749
0.000312668
0.000312564
0.000312433
0.000312272
0.000312079
0.000311849
0.00031158
0.000311274
0.000310932
0.000310558
0.000310159
0.000309739
0.000309306
0.000308864
0.000308419
0.000307976
0.000307537
0.0003071
0.000306665
0.000306226
0.00030578
0.000305323
0.000304853
0.000304369
0.000303873
0.00030337
0.000302863
0.00030235
0.000301817
0.000301225
0.000300495
0.000299496
0.000298037
0.000295862
0.000292662
0.000288087
0.000281768
0.000273293
0.00026215
0.000247567
0.00022819
0.000201398
0.000160258
8.23295e-05
8.94288e-05
0.000170837
0.000228105
0.00026875
0.000297951
0.000318949
0.000334023
0.000344837
0.000352631
0.000358311
0.000362513
0.000365654
0.000367967
0.000369541
0.000370609
0.000371285
0.000371641
0.00037172
0.000371557
0.000371182
0.000370626
0.000369925
0.000369118
0.000368243
0.000367342
0.00036645
0.000365601
0.000364819
0.000364122
0.000363522
0.000363023
0.000362618
0.00036231
0.000362097
0.000361971
0.000361925
0.000361947
0.000362025
0.000362145
0.000362296
0.000362466
0.000362647
0.000362832
0.00036302
0.000363209
0.000363402
0.000363601
0.00036381
0.000364034
0.000364276
0.000364539
0.000364822
0.000365126
0.000365446
0.000365779
0.00036612
0.000366465
0.000366809
0.000367145
0.000367472
0.000367793
0.000368107
0.000368413
0.000368709
0.000368994
0.000369263
0.000369513
0.000369737
0.000369928
0.000370081
0.000370191
0.000370254
0.000370267
0.000370233
0.000370155
0.000370042
0.000369903
0.000369749
0.000369591
0.000369435
0.000369293
0.000369176
0.000369093
0.000369052
0.000369057
0.000369109
0.000369208
0.000369352
0.000369536
0.000369755
0.000370007
0.000370289
0.000370596
0.000370926
0.000371275
0.000371638
0.000372011
0.000372389
0.000372766
0.000373139
0.000373502
0.000373853
0.000374189
0.000374506
0.000374801
0.000375077
0.000375335
0.000375576
0.000375797
0.000375998
0.000376175
0.000376324
0.000376439
0.00037652
0.00037657
0.000376597
0.000376611
0.000376626
0.000376655
0.00037671
0.0003768
0.00037693
0.000377098
0.000377299
0.000377521
0.00037775
0.000377971
0.000378171
0.000378338
0.000378471
0.000378575
0.000378655
0.00037872
0.000378777
0.000378831
0.000378882
0.000378931
0.000378976
0.000379017
0.000379053
0.000379083
0.000379109
0.000379131
0.000379151
0.00037917
0.00037919
0.000379212
0.000379235
0.000379258
0.000379277
0.000379292
0.000379299
0.000379296
0.00037928
0.000379249
0.000379199
0.000379126
0.000379027
0.000378898
0.000378736
0.000378538
0.000378302
0.000378028
0.000377718
0.000377374
0.000377003
0.00037661
0.000376203
0.000375788
0.000375373
0.000374961
0.000374557
0.00037416
0.000373769
0.00037338
0.000372987
0.000372587
0.000372177
0.000371756
0.000371328
0.000370901
0.000370487
0.000370097
0.000369734
0.000369387
0.000369011
0.000368521
0.00036777
0.000366548
0.000364582
0.00036155
0.000357094
0.000350808
0.000342185
0.000330472
0.000314412
0.000291764
0.000258153
0.000202789
9.81661e-05
8.94359e-05
0.000170747
0.000228006
0.000268686
0.000297939
0.000318992
0.000334115
0.000344972
0.0003528
0.000358508
0.000362734
0.000365894
0.000368222
0.000369808
0.000370882
0.000371561
0.000371917
0.000371997
0.000371834
0.000371458
0.000370901
0.000370195
0.000369381
0.000368499
0.00036759
0.000366691
0.000365835
0.000365047
0.000364346
0.000363744
0.000363243
0.000362838
0.00036253
0.000362318
0.000362195
0.000362151
0.000362175
0.000362254
0.000362376
0.000362528
0.0003627
0.000362881
0.000363067
0.000363254
0.000363443
0.000363636
0.000363834
0.000364042
0.000364264
0.000364505
0.000364766
0.000365049
0.000365351
0.00036567
0.000366002
0.000366342
0.000366687
0.00036703
0.000367366
0.000367693
0.000368013
0.000368327
0.000368632
0.000368929
0.000369214
0.000369484
0.000369734
0.000369958
0.00037015
0.000370303
0.000370414
0.000370476
0.000370489
0.000370455
0.000370377
0.000370263
0.000370123
0.000369969
0.00036981
0.000369654
0.000369511
0.000369395
0.000369312
0.000369272
0.000369277
0.00036933
0.00036943
0.000369574
0.000369758
0.000369979
0.000370232
0.000370514
0.000370822
0.000371152
0.000371501
0.000371864
0.000372236
0.000372613
0.000372989
0.00037336
0.000373723
0.000374072
0.000374407
0.000374723
0.000375018
0.000375293
0.00037555
0.000375788
0.000376008
0.000376205
0.000376379
0.000376526
0.000376641
0.000376723
0.000376774
0.0003768
0.000376813
0.000376827
0.000376854
0.000376907
0.000376996
0.000377124
0.000377292
0.000377492
0.000377715
0.000377946
0.000378172
0.000378378
0.000378553
0.000378693
0.0003788
0.00037888
0.000378941
0.000378991
0.000379039
0.000379086
0.000379132
0.000379176
0.000379215
0.000379248
0.000379277
0.000379301
0.000379322
0.000379342
0.000379361
0.00037938
0.000379402
0.000379424
0.000379447
0.000379466
0.000379481
0.000379488
0.000379485
0.00037947
0.000379439
0.000379388
0.000379314
0.000379214
0.000379086
0.000378925
0.000378729
0.000378495
0.000378221
0.00037791
0.000377565
0.000377192
0.000376797
0.000376388
0.000375972
0.000375556
0.000375144
0.000374741
0.000374345
0.000373956
0.000373568
0.000373177
0.000372779
0.00037237
0.000371951
0.000371526
0.000371103
0.000370692
0.000370305
0.000369945
0.0003696
0.000369228
0.00036874
0.000367992
0.000366772
0.000364808
0.000361777
0.00035732
0.000351032
0.000342404
0.000330683
0.000314612
0.00029195
0.000258322
0.000202931
9.81861e-05
0.000102575
0.000194563
0.000258123
0.000302649
0.000334282
0.000356817
0.00037281
0.000384048
0.000391845
0.000397209
0.000400892
0.000403412
0.000405071
0.000405988
0.000406355
0.000406331
0.000406011
0.000405453
0.000404702
0.000403794
0.000402766
0.000401657
0.000400505
0.000399349
0.000398223
0.00039716
0.000396182
0.00039531
0.000394552
0.000393912
0.000393388
0.000392974
0.000392671
0.000392474
0.000392374
0.00039236
0.000392418
0.000392534
0.000392691
0.000392877
0.000393078
0.000393285
0.00039349
0.000393691
0.000393888
0.000394082
0.000394279
0.000394485
0.000394704
0.000394943
0.000395206
0.000395495
0.000395809
0.000396149
0.000396509
0.000396885
0.00039727
0.000397658
0.000398042
0.000398414
0.000398772
0.000399118
0.00039945
0.000399765
0.000400062
0.000400337
0.000400584
0.0004008
0.00040098
0.000401117
0.000401205
0.00040124
0.000401222
0.000401152
0.000401034
0.000400876
0.000400687
0.000400476
0.000400252
0.000400019
0.000399784
0.000399558
0.000399351
0.00039917
0.000399021
0.000398909
0.000398836
0.000398803
0.000398813
0.000398864
0.000398959
0.000399097
0.000399278
0.0003995
0.00039976
0.000400053
0.000400374
0.000400716
0.000401072
0.000401437
0.000401804
0.000402168
0.000402525
0.00040287
0.000403197
0.000403506
0.000403796
0.000404066
0.000404314
0.000404535
0.000404726
0.000404881
0.000404997
0.000405077
0.000405124
0.000405148
0.000405158
0.000405172
0.000405205
0.000405269
0.000405375
0.000405528
0.000405724
0.000405957
0.000406214
0.000406482
0.000406745
0.00040699
0.000407204
0.000407386
0.000407541
0.000407676
0.000407797
0.000407909
0.000408017
0.000408121
0.00040822
0.000408312
0.000408396
0.000408471
0.000408538
0.000408596
0.000408648
0.000408696
0.000408741
0.000408785
0.000408829
0.000408871
0.000408911
0.000408947
0.000408977
0.000409
0.000409012
0.000409013
0.000409
0.000408969
0.000408917
0.00040884
0.000408734
0.000408596
0.000408421
0.000408209
0.000407959
0.000407674
0.000407357
0.000407016
0.000406658
0.000406291
0.000405922
0.000405559
0.000405204
0.000404862
0.00040453
0.000404207
0.000403889
0.00040357
0.000403249
0.000402925
0.000402603
0.000402292
0.000402009
0.000401773
0.000401607
0.000401525
0.000401527
0.000401583
0.000401622
0.000401517
0.000401088
0.0004001
0.000398275
0.000395292
0.000390733
0.000383965
0.000373909
0.000358696
0.000335089
0.000297128
0.000231754
0.000110763
0.00010257
0.000194447
0.000258
0.000302572
0.000334271
0.000356875
0.000372928
0.000384216
0.000392053
0.000397449
0.000401159
0.0004037
0.000405378
0.000406309
0.000406684
0.000406664
0.000406345
0.000405786
0.000405032
0.00040412
0.000403087
0.000401971
0.00040081
0.000399645
0.00039851
0.000397438
0.000396454
0.000395576
0.000394814
0.000394172
0.000393647
0.000393233
0.00039293
0.000392735
0.000392637
0.000392626
0.000392687
0.000392805
0.000392965
0.000393153
0.000393356
0.000393563
0.00039377
0.000393971
0.000394167
0.000394361
0.000394556
0.00039476
0.000394978
0.000395215
0.000395476
0.000395762
0.000396075
0.000396413
0.000396772
0.000397147
0.000397532
0.00039792
0.000398303
0.000398676
0.000399034
0.00039938
0.000399712
0.000400028
0.000400325
0.0004006
0.000400847
0.000401064
0.000401243
0.00040138
0.000401468
0.000401504
0.000401486
0.000401415
0.000401297
0.000401138
0.000400948
0.000400737
0.000400512
0.000400278
0.000400042
0.000399817
0.000399609
0.000399428
0.00039928
0.000399168
0.000399096
0.000399064
0.000399075
0.000399127
0.000399223
0.000399362
0.000399543
0.000399766
0.000400025
0.000400318
0.000400638
0.000400978
0.000401333
0.000401696
0.000402062
0.000402424
0.000402778
0.000403121
0.000403448
0.000403755
0.000404044
0.000404312
0.000404558
0.000404778
0.000404966
0.00040512
0.000405236
0.000405316
0.000405363
0.000405385
0.000405394
0.000405405
0.000405435
0.000405497
0.000405602
0.000405753
0.000405949
0.000406184
0.000406444
0.000406716
0.000406984
0.000407235
0.000407454
0.000407641
0.000407797
0.00040793
0.000408047
0.000408155
0.000408258
0.000408358
0.000408454
0.000408544
0.000408626
0.0004087
0.000408764
0.000408822
0.000408873
0.00040892
0.000408965
0.000409008
0.000409052
0.000409094
0.000409135
0.000409171
0.000409202
0.000409224
0.000409238
0.000409239
0.000409225
0.000409194
0.000409141
0.000409064
0.000408959
0.000408821
0.000408647
0.000408435
0.000408185
0.000407899
0.000407581
0.000407239
0.000406879
0.000406511
0.000406141
0.000405777
0.000405424
0.000405082
0.000404752
0.000404432
0.000404115
0.000403799
0.000403481
0.00040316
0.00040284
0.000402532
0.000402252
0.00040202
0.000401856
0.000401777
0.000401782
0.000401841
0.000401883
0.000401781
0.000401356
0.00040037
0.000398548
0.000395566
0.000391006
0.000384233
0.000374169
0.000358947
0.000335329
0.000297353
0.000231942
0.00011079
0.000112132
0.000212157
0.000279018
0.000324378
0.000355566
0.000377154
0.000392115
0.000402341
0.000409087
0.000413308
0.000415789
0.000417129
0.000417703
0.000417672
0.000417166
0.00041636
0.000415342
0.000414163
0.000412861
0.000411469
0.000410024
0.000408559
0.000407112
0.000405716
0.0004044
0.000403188
0.000402099
0.000401143
0.000400323
0.000399637
0.000399075
0.000398637
0.000398322
0.000398121
0.000398026
0.000398022
0.000398094
0.000398225
0.000398398
0.000398597
0.000398808
0.000399021
0.000399227
0.000399424
0.00039961
0.00039979
0.000399969
0.000400153
0.000400351
0.00040057
0.000400815
0.000401092
0.000401402
0.000401744
0.000402115
0.00040251
0.00040292
0.000403337
0.00040375
0.000404152
0.000404536
0.000404898
0.000405236
0.000405549
0.000405836
0.000406094
0.000406322
0.000406516
0.000406672
0.000406785
0.000406846
0.000406851
0.0004068
0.000406694
0.000406536
0.000406332
0.00040609
0.000405817
0.00040552
0.000405201
0.000404861
0.00040451
0.00040416
0.000403818
0.000403495
0.000403198
0.000402936
0.000402714
0.00040254
0.000402418
0.000402355
0.000402354
0.000402417
0.000402542
0.000402728
0.000402969
0.000403257
0.000403584
0.000403941
0.00040432
0.000404711
0.000405108
0.000405504
0.000405893
0.000406269
0.000406624
0.000406956
0.000407263
0.000407542
0.000407787
0.000407994
0.000408159
0.000408282
0.000408365
0.000408415
0.000408441
0.000408453
0.000408471
0.000408509
0.000408583
0.000408703
0.000408874
0.000409092
0.000409351
0.000409641
0.000409946
0.000410253
0.00041055
0.000410822
0.000411065
0.000411285
0.000411485
0.000411671
0.000411847
0.000412013
0.000412171
0.000412317
0.00041245
0.00041257
0.000412676
0.000412768
0.00041285
0.000412923
0.000412989
0.000413052
0.000413112
0.00041317
0.000413226
0.000413278
0.000413326
0.000413369
0.000413406
0.000413436
0.000413458
0.000413469
0.000413468
0.00041345
0.00041341
0.000413345
0.000413249
0.00041312
0.000412954
0.000412753
0.00041252
0.00041226
0.000411979
0.000411686
0.000411389
0.000411097
0.000410814
0.000410546
0.000410294
0.000410057
0.000409832
0.000409618
0.000409412
0.000409215
0.000409032
0.000408872
0.000408755
0.000408707
0.000408761
0.000408953
0.000409316
0.000409874
0.000410625
0.000411532
0.000412517
0.000413451
0.000414156
0.000414415
0.000413936
0.000412258
0.000408558
0.000401359
0.000388147
0.000364758
0.000324038
0.000251868
0.000120789
0.000112121
0.000212019
0.000278874
0.000324285
0.000355548
0.000377211
0.000392238
0.000402516
0.000409301
0.000413553
0.00041606
0.000417422
0.000418014
0.000417999
0.000417503
0.000416702
0.000415684
0.000414502
0.000413195
0.000411796
0.000410342
0.000408868
0.00040741
0.000406004
0.000404679
0.000403459
0.000402363
0.000401402
0.000400579
0.000399891
0.000399328
0.000398891
0.000398576
0.000398378
0.000398285
0.000398284
0.000398359
0.000398493
0.000398668
0.00039887
0.000399083
0.000399297
0.000399505
0.000399701
0.000399888
0.000400067
0.000400244
0.000400427
0.000400622
0.000400839
0.000401082
0.000401357
0.000401664
0.000402005
0.000402375
0.000402768
0.000403178
0.000403595
0.000404009
0.000404411
0.000404795
0.000405158
0.000405497
0.000405811
0.000406097
0.000406356
0.000406583
0.000406777
0.000406933
0.000407045
0.000407106
0.000407112
0.000407061
0.000406954
0.000406795
0.000406591
0.000406348
0.000406074
0.000405777
0.000405456
0.000405115
0.000404764
0.000404414
0.000404072
0.000403749
0.000403452
0.00040319
0.000402969
0.000402795
0.000402675
0.000402613
0.000402612
0.000402675
0.000402801
0.000402987
0.000403226
0.000403513
0.000403839
0.000404195
0.000404572
0.000404961
0.000405356
0.00040575
0.000406137
0.000406511
0.000406864
0.000407195
0.000407501
0.000407778
0.000408022
0.000408228
0.000408393
0.000408515
0.000408597
0.000408645
0.00040867
0.00040868
0.000408695
0.000408731
0.000408802
0.000408921
0.00040909
0.000409309
0.000409571
0.000409864
0.000410174
0.000410487
0.000410788
0.000411064
0.00041131
0.00041153
0.000411729
0.000411912
0.000412083
0.000412246
0.0004124
0.000412544
0.000412675
0.000412793
0.000412898
0.000412989
0.00041307
0.000413142
0.000413207
0.00041327
0.000413329
0.000413387
0.000413443
0.000413496
0.000413544
0.000413588
0.000413625
0.000413656
0.000413678
0.000413689
0.000413688
0.000413669
0.00041363
0.000413565
0.000413469
0.00041334
0.000413174
0.000412973
0.000412739
0.000412477
0.000412195
0.000411901
0.000411604
0.00041131
0.000411028
0.000410761
0.00041051
0.000410275
0.000410053
0.000409842
0.000409639
0.000409445
0.000409264
0.000409108
0.000408994
0.000408949
0.000409005
0.0004092
0.000409566
0.000410127
0.00041088
0.000411791
0.000412779
0.000413716
0.000414424
0.000414685
0.000414207
0.000412527
0.000408823
0.000401619
0.000388403
0.000365011
0.000324284
0.000252076
0.00012082
0.000119211
0.000225525
0.000294165
0.000338873
0.000368101
0.000387292
0.000400007
0.000408341
0.000413415
0.00041597
0.00041671
0.000416302
0.000415245
0.000413799
0.000412055
0.000410202
0.00040831
0.000406404
0.000404497
0.000402603
0.000400745
0.000398944
0.000397228
0.000395619
0.000394138
0.0003928
0.000391614
0.000390584
0.000389706
0.00038897
0.000388368
0.000387899
0.000387559
0.000387341
0.000387231
0.000387215
0.000387275
0.000387395
0.000387556
0.000387741
0.000387936
0.000388128
0.00038831
0.000388479
0.000388634
0.000388778
0.000388919
0.000389065
0.000389224
0.000389406
0.000389618
0.000389867
0.000390154
0.00039048
0.000390841
0.000391232
0.000391642
0.00039206
0.000392476
0.000392877
0.000393256
0.000393608
0.000393928
0.000394216
0.000394471
0.000394694
0.000394885
0.000395042
0.000395162
0.00039524
0.000395267
0.000395237
0.000395148
0.000395002
0.0003948
0.000394547
0.000394249
0.00039391
0.000393536
0.000393128
0.000392681
0.000392204
0.00039171
0.000391211
0.000390718
0.000390245
0.000389805
0.000389409
0.000389069
0.000388796
0.000388597
0.000388479
0.000388446
0.000388497
0.000388629
0.000388836
0.000389109
0.000389437
0.000389809
0.000390213
0.000390639
0.000391077
0.00039152
0.000391958
0.000392385
0.00039279
0.000393168
0.000393514
0.000393824
0.000394094
0.00039432
0.000394499
0.000394634
0.000394727
0.000394787
0.000394824
0.000394847
0.000394876
0.000394928
0.000395017
0.000395154
0.000395342
0.000395582
0.000395866
0.000396185
0.000396527
0.00039688
0.000397229
0.000397562
0.000397869
0.000398155
0.000398422
0.000398672
0.000398908
0.000399129
0.000399333
0.000399519
0.000399686
0.000399833
0.000399961
0.000400072
0.00040017
0.000400256
0.000400336
0.00040041
0.000400481
0.000400548
0.000400614
0.000400676
0.000400735
0.000400792
0.000400846
0.000400898
0.000400948
0.000400993
0.000401032
0.000401059
0.00040107
0.00040106
0.000401024
0.000400957
0.000400859
0.000400731
0.000400575
0.000400397
0.000400205
0.000400008
0.000399813
0.000399627
0.000399458
0.000399308
0.00039918
0.000399073
0.000398988
0.000398923
0.000398882
0.000398869
0.000398897
0.000398986
0.000399165
0.000399474
0.000399964
0.000400693
0.000401724
0.000403111
0.000404895
0.00040709
0.000409668
0.000412543
0.000415569
0.000418546
0.000421161
0.000422856
0.000422588
0.000418506
0.000407549
0.00038484
0.00034244
0.000265944
0.000128941
0.000119195
0.000225369
0.000294001
0.000338766
0.000368073
0.000387342
0.000400123
0.000408505
0.000413615
0.000416196
0.000416958
0.000416571
0.000415531
0.000414102
0.000412368
0.000410519
0.000408627
0.000406716
0.0004048
0.000402897
0.000401027
0.000399216
0.000397488
0.000395869
0.000394379
0.000393033
0.000391841
0.000390807
0.000389926
0.000389188
0.000388585
0.000388117
0.00038778
0.000387563
0.000387456
0.000387443
0.000387507
0.00038763
0.000387794
0.000387981
0.000388178
0.000388372
0.000388555
0.000388723
0.000388878
0.000389022
0.000389162
0.000389306
0.000389463
0.000389642
0.000389852
0.000390098
0.000390383
0.000390707
0.000391068
0.000391457
0.000391867
0.000392286
0.000392702
0.000393105
0.000393485
0.000393837
0.000394158
0.000394446
0.000394702
0.000394925
0.000395115
0.000395271
0.00039539
0.000395468
0.000395495
0.000395465
0.000395376
0.000395229
0.000395027
0.000394773
0.000394474
0.000394135
0.00039376
0.00039335
0.000392902
0.000392425
0.00039193
0.00039143
0.000390937
0.000390464
0.000390023
0.000389628
0.000389288
0.000389015
0.000388817
0.000388699
0.000388666
0.000388717
0.000388849
0.000389056
0.000389328
0.000389654
0.000390025
0.000390427
0.000390852
0.000391288
0.000391729
0.000392165
0.00039259
0.000392994
0.00039337
0.000393715
0.000394024
0.000394293
0.000394519
0.000394697
0.000394831
0.000394923
0.000394981
0.000395016
0.000395038
0.000395064
0.000395114
0.0003952
0.000395336
0.000395524
0.000395764
0.000396051
0.000396374
0.000396721
0.000397078
0.000397431
0.000397767
0.000398076
0.000398362
0.000398627
0.000398875
0.000399107
0.000399325
0.000399527
0.000399712
0.000399877
0.000400023
0.00040015
0.00040026
0.000400356
0.000400442
0.000400521
0.000400595
0.000400665
0.000400733
0.000400798
0.000400861
0.000400921
0.000400978
0.000401033
0.000401086
0.000401135
0.000401181
0.000401219
0.000401246
0.000401257
0.000401247
0.000401211
0.000401145
0.000401047
0.000400917
0.000400761
0.000400582
0.000400389
0.000400191
0.000399995
0.00039981
0.000399641
0.000399492
0.000399366
0.000399261
0.000399178
0.000399117
0.000399078
0.000399069
0.0003991
0.000399192
0.000399373
0.000399685
0.000400177
0.000400909
0.000401941
0.000403331
0.000405119
0.000407316
0.000409897
0.000412773
0.000415801
0.000418777
0.00042139
0.000423081
0.000422809
0.000418727
0.000407776
0.000385078
0.000342685
0.000266159
0.000128974
0.00012448
0.000235687
0.000305292
0.00034875
0.00037542
0.000391557
0.000401428
0.000407493
0.000410773
0.000411634
0.000410505
0.00040805
0.000404935
0.000401599
0.000398213
0.000394973
0.000391947
0.000389126
0.000386487
0.000384015
0.000381701
0.000379546
0.000377558
0.000375742
0.000374106
0.000372652
0.000371379
0.000370282
0.000369349
0.000368563
0.00036792
0.000367415
0.000367043
0.000366793
0.000366652
0.000366603
0.000366628
0.000366709
0.000366829
0.000366969
0.000367117
0.000367259
0.000367389
0.000367504
0.000367604
0.000367692
0.000367777
0.000367867
0.000367973
0.000368103
0.000368266
0.000368469
0.000368714
0.000369002
0.000369329
0.000369687
0.000370065
0.000370451
0.000370833
0.000371198
0.000371537
0.000371845
0.000372117
0.000372354
0.000372555
0.000372724