/*--------------------------------*- C++ -*----------------------------------*\
  =========                 |
  \\      /  F ield         | OpenFOAM: The Open Source CFD Toolbox
   \\    /   O peration     | Website:  https://openfoam.org
    \\  /    A nd           | Version:  8
     \\/     M anipulation  |
\*---------------------------------------------------------------------------*/
FoamFile
{
    version     2.0;
    format      ascii;
    class       surfaceScalarField;
    location    "100";
    object      phi;
}
// * * * * * * * * * * * * * * * * * * * * * * * * * * * * * * * * * * * * * //

dimensions      [1 0 -1 0 0 0 0];

internalField   nonuniform List<scalar> 
114370
(
2.55441e-08
-2.05451e-11
-2.55236e-08
6.29204e-08
-2.09076e-11
-3.74251e-08
1.02069e-07
-1.22956e-11
-3.91463e-08
1.38614e-07
-7.64783e-12
-3.65349e-08
1.70412e-07
-5.35764e-12
-3.17912e-08
1.96636e-07
-4.06182e-12
-2.62187e-08
2.17215e-07
-3.22359e-12
-2.0576e-08
2.32537e-07
-2.60798e-12
-1.53191e-08
2.43244e-07
-2.10845e-12
-1.07051e-08
2.501e-07
-1.6901e-12
-6.8544e-09
2.53894e-07
-1.33737e-12
-3.79328e-09
2.55378e-07
-1.02753e-12
-1.48258e-09
2.55222e-07
-7.33831e-13
1.5643e-10
2.53997e-07
-4.595e-13
1.2257e-09
2.52151e-07
-2.30287e-13
1.84558e-09
2.50016e-07
-7.44725e-14
2.13561e-09
2.47819e-07
-1.992e-14
2.1968e-09
2.45709e-07
-6.14233e-14
2.11008e-09
2.43772e-07
-1.51554e-13
1.93649e-09
2.42052e-07
-2.23776e-13
1.72039e-09
2.4056e-07
-2.32777e-13
1.49236e-09
2.39289e-07
-1.72977e-13
1.27117e-09
2.38223e-07
-6.64287e-14
1.06601e-09
2.37343e-07
5.83591e-14
8.79788e-10
2.36631e-07
1.78687e-13
7.12035e-10
2.3607e-07
2.80252e-13
5.60902e-10
2.35645e-07
3.5443e-13
4.24186e-10
2.35345e-07
3.97655e-13
3.00112e-10
2.35156e-07
4.1377e-13
1.88108e-10
2.35066e-07
4.12747e-13
8.94263e-11
2.35059e-07
4.04129e-13
7.14473e-12
2.35114e-07
3.918e-13
-5.5933e-11
2.35212e-07
3.74175e-13
-9.8763e-11
2.35334e-07
3.47028e-13
-1.21853e-10
2.35461e-07
3.08809e-13
-1.27411e-10
2.3558e-07
2.65296e-13
-1.1908e-10
2.35681e-07
2.28413e-13
-1.01175e-10
2.35759e-07
2.09119e-13
-7.78449e-11
2.35811e-07
2.09721e-13
-5.25775e-11
2.35839e-07
2.22547e-13
-2.82344e-11
2.35846e-07
2.34154e-13
-7.31683e-12
2.35838e-07
2.32331e-13
7.92314e-12
2.35822e-07
2.14551e-13
1.58071e-11
2.35806e-07
1.83734e-13
1.5484e-11
2.35799e-07
1.3929e-13
6.70346e-12
2.35809e-07
8.23899e-14
-1.04028e-11
2.35844e-07
1.30956e-14
-3.51507e-11
2.3591e-07
-6.99882e-14
-6.57573e-11
2.36009e-07
-1.60578e-13
-9.9113e-11
2.36141e-07
-2.48106e-13
-1.31194e-10
2.36299e-07
-3.23727e-13
-1.57661e-10
2.36473e-07
-3.82915e-13
-1.74375e-10
2.36652e-07
-4.247e-13
-1.7794e-10
2.36818e-07
-4.48595e-13
-1.66465e-10
2.36959e-07
-4.52432e-13
-1.40381e-10
2.37063e-07
-4.3323e-13
-1.02843e-10
2.37122e-07
-3.90246e-13
-5.92638e-11
2.37138e-07
-3.26818e-13
-1.60394e-11
2.37118e-07
-2.5049e-13
2.09957e-11
2.3707e-07
-1.72267e-13
4.81557e-11
2.37005e-07
-1.03399e-13
6.4372e-11
2.36935e-07
-5.19461e-14
7.04288e-11
2.36867e-07
-2.09568e-14
6.81693e-11
2.36807e-07
-7.86374e-15
5.99279e-11
2.36758e-07
-5.44433e-15
4.8271e-11
2.36723e-07
-5.11779e-15
3.58586e-11
2.36697e-07
-5.1366e-16
2.52295e-11
2.36679e-07
1.00878e-14
1.83568e-11
2.36663e-07
2.48033e-14
1.63643e-11
2.36643e-07
4.27634e-14
1.97045e-11
2.36614e-07
6.54555e-14
2.85197e-11
2.36572e-07
9.4377e-14
4.23456e-11
2.36512e-07
1.2873e-13
5.93156e-11
2.36436e-07
1.65898e-13
7.59582e-11
2.36348e-07
2.03171e-13
8.78165e-11
2.36257e-07
2.37496e-13
9.05216e-11
2.36176e-07
2.64326e-13
8.06722e-11
2.3612e-07
2.77659e-13
5.60668e-11
2.36104e-07
2.72817e-13
1.52511e-11
2.36147e-07
2.50743e-13
-4.24519e-11
2.36263e-07
2.17954e-13
-1.16514e-10
2.36468e-07
1.85779e-13
-2.04829e-10
2.36771e-07
1.69378e-13
-3.03188e-10
2.37176e-07
1.83586e-13
-4.05733e-10
2.37683e-07
2.39461e-13
-5.06574e-10
2.38283e-07
3.39053e-13
-6.01063e-10
2.38968e-07
4.67939e-13
-6.8518e-10
2.39721e-07
5.93195e-13
-7.53636e-10
2.4052e-07
6.75222e-13
-7.99513e-10
2.41336e-07
6.89004e-13
-8.16863e-10
2.42139e-07
6.37971e-13
-8.04143e-10
2.42904e-07
5.49381e-13
-7.65386e-10
2.43612e-07
4.56138e-13
-7.08508e-10
2.44254e-07
3.78133e-13
-6.42097e-10
2.44826e-07
3.1396e-13
-5.72101e-10
2.45326e-07
2.49089e-13
-5.0038e-10
2.45753e-07
1.72733e-13
-4.26827e-10
2.46105e-07
8.48354e-14
-3.52683e-10
2.46386e-07
-1.03489e-14
-2.81e-10
2.46601e-07
-1.11135e-13
-2.14428e-10
2.46754e-07
-2.16424e-13
-1.53692e-10
2.46853e-07
-3.19627e-13
-9.8293e-11
2.46902e-07
-4.07199e-13
-4.81084e-11
2.46906e-07
-4.61441e-13
-4.16856e-12
2.46874e-07
-4.71037e-13
3.21729e-11
2.46814e-07
-4.37093e-13
6.053e-11
2.46733e-07
-3.66154e-13
8.15182e-11
2.46638e-07
-2.62801e-13
9.55464e-11
2.46537e-07
-1.31063e-13
1.01224e-10
2.46441e-07
9.20094e-15
9.55681e-11
2.46363e-07
1.05885e-13
7.78799e-11
2.4631e-07
9.66053e-14
5.31242e-11
2.46281e-07
-2.41162e-14
2.92e-11
2.4627e-07
-1.83529e-13
1.09762e-11
2.46273e-07
-3.03079e-13
-2.59061e-12
2.46289e-07
-3.56467e-13
-1.63872e-11
2.46324e-07
-3.61058e-13
-3.45378e-11
2.46382e-07
-3.42576e-13
-5.74209e-11
2.46464e-07
-3.07187e-13
-8.16389e-11
2.46566e-07
-2.41651e-13
-1.02073e-10
2.46681e-07
-1.26765e-13
-1.14878e-10
2.46801e-07
5.03339e-14
-1.1962e-10
2.4692e-07
2.85525e-13
-1.19516e-10
2.47038e-07
5.43557e-13
-1.18783e-10
2.47154e-07
7.44899e-13
-1.17182e-10
2.4726e-07
7.87397e-13
-1.06848e-10
2.47337e-07
6.15945e-13
-7.75423e-11
2.47364e-07
2.83541e-13
-2.68521e-11
2.47327e-07
-6.78547e-14
3.65746e-11
2.47228e-07
-2.93624e-13
9.94808e-11
2.47076e-07
-3.34023e-13
1.52002e-10
2.46887e-07
-2.32915e-13
1.89963e-10
2.46674e-07
-8.75464e-14
2.1224e-10
2.46455e-07
8.929e-15
2.19299e-10
2.46241e-07
1.03769e-14
2.13741e-10
2.46041e-07
-6.65286e-14
1.9994e-10
2.45859e-07
-1.65983e-13
1.82398e-10
2.45695e-07
-2.40742e-13
1.64545e-10
2.45547e-07
-2.8229e-13
1.48245e-10
2.45413e-07
-3.143e-13
1.33796e-10
2.45293e-07
-3.65089e-13
1.20668e-10
2.45185e-07
-4.43149e-13
1.08515e-10
2.45088e-07
-5.30352e-13
9.74288e-11
2.45002e-07
-5.97533e-13
8.71551e-11
2.44926e-07
-6.28806e-13
7.64911e-11
2.44862e-07
-6.3268e-13
6.42292e-11
2.44812e-07
-6.31189e-13
5.07042e-11
2.44775e-07
-6.3699e-13
3.78037e-11
2.44748e-07
-6.44147e-13
2.76828e-11
2.44726e-07
-6.40847e-13
2.20238e-11
2.44705e-07
-6.24676e-13
2.20255e-11
2.44678e-07
-6.02667e-13
2.81311e-11
2.44639e-07
-5.80439e-13
3.96144e-11
2.44584e-07
-5.55972e-13
5.50228e-11
2.44511e-07
-5.27536e-13
7.34675e-11
2.44416e-07
-5.06687e-13
9.53107e-11
2.44296e-07
-5.17385e-13
1.21149e-10
2.44146e-07
-5.78339e-13
1.50154e-10
2.43967e-07
-6.83483e-13
1.79874e-10
2.4376e-07
-7.99482e-13
2.07705e-10
2.43529e-07
-8.84374e-13
2.32188e-10
2.43277e-07
-9.1024e-13
2.52934e-10
2.43008e-07
-8.7295e-13
2.69846e-10
2.42726e-07
-7.88287e-13
2.82694e-10
2.42436e-07
-6.82862e-13
2.91199e-10
2.42141e-07
-5.81648e-13
2.95443e-10
2.41845e-07
-4.96421e-13
2.96259e-10
2.41551e-07
-4.25155e-13
2.95105e-10
2.41258e-07
-3.59544e-13
2.93421e-10
2.40966e-07
-2.91841e-13
2.92073e-10
2.40675e-07
-2.18441e-13
2.91281e-10
2.40384e-07
-1.41071e-13
2.91153e-10
2.40092e-07
-6.45987e-14
2.92486e-10
2.39795e-07
8.73652e-15
2.96899e-10
2.39489e-07
7.97958e-14
3.05935e-10
2.39168e-07
1.44667e-13
3.20287e-10
2.38828e-07
1.90538e-13
3.3996e-10
2.38464e-07
2.02767e-13
3.64771e-10
2.38069e-07
1.75906e-13
3.94391e-10
2.37641e-07
1.17583e-13
4.27936e-10
2.37178e-07
4.18087e-14
4.63862e-10
2.36677e-07
-3.98808e-14
5.00926e-10
2.36136e-07
-1.17523e-13
5.40328e-10
2.35548e-07
-1.75651e-13
5.88711e-10
2.34886e-07
-1.9477e-13
6.61948e-10
2.34097e-07
-1.6241e-13
7.90034e-10
2.33074e-07
-8.28354e-14
1.02301e-09
2.31637e-07
2.28808e-14
1.43675e-09
2.295e-07
1.33169e-13
2.13672e-09
2.26242e-07
2.48796e-13
3.25764e-09
2.21285e-07
3.87538e-13
4.95705e-09
2.13883e-07
5.44155e-13
7.40133e-09
2.03139e-07
6.77601e-13
1.07438e-08
1.88045e-07
7.62081e-13
1.50932e-08
1.67576e-07
8.08904e-13
2.04678e-08
1.4087e-07
7.94912e-13
2.67049e-08
1.07572e-07
6.11035e-13
3.32972e-08
6.8716e-08
9.60622e-14
3.88555e-08
2.86444e-08
-1.11242e-12
4.00724e-08
-4.16426e-12
2.86481e-08
2.55078e-08
-2.55257e-08
6.2964e-08
-3.74332e-08
1.0212e-07
-3.9165e-08
1.38668e-07
-3.65546e-08
1.70472e-07
-3.18081e-08
1.96701e-07
-2.62325e-08
2.17285e-07
-2.05871e-08
2.32611e-07
-1.53284e-08
2.43322e-07
-1.07134e-08
2.50183e-07
-6.86257e-09
2.53983e-07
-3.80206e-09
2.55474e-07
-1.49223e-09
2.55326e-07
1.47359e-10
2.54105e-07
1.2202e-09
2.52259e-07
1.84627e-09
2.50116e-07
2.14229e-09
2.47911e-07
2.2054e-09
2.45796e-07
2.1146e-09
2.43863e-07
1.9327e-09
2.42154e-07
1.70832e-09
2.40679e-07
1.47566e-09
2.39424e-07
1.25433e-09
2.38372e-07
1.05206e-09
2.37503e-07
8.6977e-10
2.36797e-07
7.0591e-10
2.36239e-07
5.58314e-10
2.35815e-07
4.24513e-10
2.35513e-07
3.02241e-10
2.35322e-07
1.90666e-10
2.35231e-07
9.14591e-11
2.35223e-07
8.55095e-12
2.35278e-07
-5.46085e-11
2.35375e-07
-9.6961e-11
2.35495e-07
-1.19575e-10
2.35621e-07
-1.25366e-10
2.35739e-07
-1.18244e-10
2.35842e-07
-1.01979e-10
2.35922e-07
-7.96201e-11
2.35976e-07
-5.38527e-11
2.36003e-07
-2.77095e-11
2.36008e-07
-4.65335e-12
2.35996e-07
1.21488e-11
2.35975e-07
2.08339e-11
2.35954e-07
2.09966e-11
2.35942e-07
1.28507e-11
2.35945e-07
-3.39639e-12
2.35972e-07
-2.74388e-11
2.3603e-07
-5.79869e-11
2.36122e-07
-9.20673e-11
2.36247e-07
-1.25348e-10
2.364e-07
-1.53034e-10
2.3657e-07
-1.70759e-10
2.36745e-07
-1.75237e-10
2.36909e-07
-1.64815e-10
2.37049e-07
-1.39987e-10
2.37152e-07
-1.03666e-10
2.37212e-07
-6.08492e-11
2.3723e-07
-1.76029e-11
2.37209e-07
2.02816e-11
2.3716e-07
4.88653e-11
2.37093e-07
6.66588e-11
2.37019e-07
7.39858e-11
2.36947e-07
7.22963e-11
2.36883e-07
6.37303e-11
2.36832e-07
5.10012e-11
2.36795e-07
3.72566e-11
2.36769e-07
2.55914e-11
2.36751e-07
1.8164e-11
2.36735e-07
1.57958e-11
2.36716e-07
1.86089e-11
2.3669e-07
2.68102e-11
2.36649e-07
4.02218e-11
2.36592e-07
5.7076e-11
2.36519e-07
7.37823e-11
2.36433e-07
8.58301e-11
2.36344e-07
8.89637e-11
2.36265e-07
7.98529e-11
2.36209e-07
5.60901e-11
2.36194e-07
1.57517e-11
2.36236e-07
-4.23143e-11
2.36354e-07
-1.17793e-10
2.36563e-07
-2.08417e-10
2.36872e-07
-3.09539e-10
2.37287e-07
-4.14712e-10
2.37805e-07
-5.17169e-10
2.38416e-07
-6.11079e-10
2.39108e-07
-6.91657e-10
2.39863e-07
-7.54408e-10
2.40659e-07
-7.94859e-10
2.41469e-07
-8.09629e-10
2.42268e-07
-7.98014e-10
2.43031e-07
-7.62664e-10
2.4374e-07
-7.08947e-10
2.44384e-07
-6.43467e-10
2.44957e-07
-5.72071e-10
2.45455e-07
-4.98199e-10
2.45878e-07
-4.23261e-10
2.46227e-07
-3.48677e-10
2.46504e-07
-2.76878e-10
2.46714e-07
-2.10354e-10
2.46864e-07
-1.5042e-10
2.46961e-07
-9.71176e-11
2.47011e-07
-5.0032e-11
2.47019e-07
-9.10791e-12
2.46994e-07
2.53445e-11
2.4694e-07
5.31386e-11
2.46865e-07
7.43545e-11
2.46776e-07
8.92515e-11
2.46678e-07
9.77972e-11
2.46579e-07
9.87718e-11
2.46489e-07
8.97934e-11
2.4642e-07
6.95168e-11
2.46378e-07
4.12302e-11
2.46365e-07
1.30781e-11
2.46373e-07
-8.44191e-12
2.46397e-07
-2.44394e-11
2.46438e-07
-4.11248e-11
2.465e-07
-6.28423e-11
2.46588e-07
-8.81373e-11
2.46699e-07
-1.11277e-10
2.46826e-07
-1.26664e-10
2.46958e-07
-1.3181e-10
2.47085e-07
-1.27412e-10
2.47201e-07
-1.15644e-10
2.473e-07
-9.81923e-11
2.47376e-07
-7.52609e-11
2.47423e-07
-4.6174e-11
2.47434e-07
-1.07938e-11
2.47404e-07
3.03367e-11
2.47327e-07
7.61105e-11
2.47203e-07
1.24131e-10
2.47033e-07
1.69719e-10
2.46827e-07
2.05731e-10
2.46602e-07
2.25115e-10
2.46377e-07
2.25027e-10
2.46167e-07
2.09163e-10
2.45981e-07
1.86043e-10
2.45817e-07
1.64239e-10
2.45668e-07
1.48018e-10
2.45532e-07
1.36447e-10
2.45405e-07
1.25933e-10
2.45291e-07
1.13737e-10
2.45191e-07
9.99758e-11
2.45103e-07
8.66695e-11
2.45028e-07
7.50481e-11
2.44963e-07
6.42281e-11
2.4491e-07
5.25639e-11
2.44869e-07
3.99782e-11
2.4484e-07
2.88266e-11
2.44816e-07
2.24773e-11
2.44793e-07
2.29491e-11
2.44762e-07
2.97723e-11
2.44721e-07
4.11098e-11
2.44664e-07
5.60345e-11
2.44588e-07
7.54546e-11
2.44487e-07
1.00483e-10
2.44357e-07
1.29987e-10
2.44196e-07
1.60157e-10
2.44008e-07
1.86948e-10
2.43799e-07
2.08931e-10
2.4357e-07
2.275e-10
2.43325e-07
2.4467e-10
2.43063e-07
2.61218e-10
2.42786e-07
2.76399e-10
2.42497e-07
2.88471e-10
2.42201e-07
2.95772e-10
2.41902e-07
2.98125e-10
2.41605e-07
2.97087e-10
2.4131e-07
2.94732e-10
2.41017e-07
2.92464e-10
2.40726e-07
2.90853e-10
2.40436e-07
2.90207e-10
2.40144e-07
2.91349e-10
2.39848e-07
2.95931e-10
2.39543e-07
3.05832e-10
2.39221e-07
3.22095e-10
2.38877e-07
3.4442e-10
2.38506e-07
3.71554e-10
2.38104e-07
4.0204e-10
2.3767e-07
4.34654e-10
2.37201e-07
4.68483e-10
2.36698e-07
5.03288e-10
2.36157e-07
5.40877e-10
2.35569e-07
5.87866e-10
2.34909e-07
6.59826e-10
2.34122e-07
7.86697e-10
2.33104e-07
1.01889e-09
2.31671e-07
1.43271e-09
2.29537e-07
2.13361e-09
2.26282e-07
3.25594e-09
2.21325e-07
4.9569e-09
2.13923e-07
7.40283e-09
2.03177e-07
1.07471e-08
1.88079e-07
1.50987e-08
1.67604e-07
2.04754e-08
1.4089e-07
2.67145e-08
1.07583e-07
3.33085e-08
6.87174e-08
3.88683e-08
2.86389e-08
4.00831e-08
2.86446e-08
3.81917e-08
-3.58735e-13
-6.3647e-08
7.43053e-08
-4.68847e-12
-7.35285e-08
1.08808e-07
-4.17061e-12
-7.3645e-08
1.40294e-07
-3.27414e-12
-6.80174e-08
1.67732e-07
-2.55377e-12
-5.92272e-08
1.90613e-07
-2.06562e-12
-4.90981e-08
2.08885e-07
-1.70973e-12
-3.88471e-08
2.22831e-07
-1.41962e-12
-2.92642e-08
2.32941e-07
-1.16961e-12
-2.08139e-08
2.39809e-07
-9.4818e-13
-1.3721e-08
2.44055e-07
-7.39115e-13
-8.03834e-09
2.46273e-07
-5.33098e-13
-3.70031e-09
2.46993e-07
-3.37911e-13
-5.63343e-10
2.46674e-07
-2.01106e-13
1.54498e-09
2.45697e-07
-1.48894e-13
2.82287e-09
2.44352e-07
-1.51766e-13
3.4805e-09
2.42851e-07
-1.73989e-13
3.69833e-09
2.41336e-07
-1.71758e-13
3.62481e-09
2.39898e-07
-1.22874e-13
3.37486e-09
2.38585e-07
-3.71371e-14
3.0328e-09
2.37421e-07
5.73284e-14
2.65625e-09
2.36412e-07
1.37701e-13
2.28035e-09
2.35555e-07
1.96586e-13
1.92307e-09
2.34843e-07
2.36634e-13
1.59137e-09
2.34268e-07
2.61925e-13
1.2864e-09
2.33821e-07
2.74281e-13
1.00684e-09
2.33494e-07
2.75187e-13
7.50844e-10
2.33277e-07
2.69243e-13
5.17373e-10
2.33157e-07
2.62822e-13
3.07255e-10
2.33122e-07
2.59844e-13
1.23925e-10
2.33156e-07
2.58843e-13
-2.76868e-11
2.33244e-07
2.53519e-13
-1.44191e-10
2.3337e-07
2.38632e-13
-2.24356e-10
2.33517e-07
2.1436e-13
-2.68959e-10
2.33671e-07
1.86933e-13
-2.8159e-10
2.3382e-07
1.65683e-13
-2.68191e-10
2.33955e-07
1.5632e-13
-2.35977e-10
2.34069e-07
1.5609e-13
-1.92273e-10
2.3416e-07
1.55347e-13
-1.43792e-10
2.34228e-07
1.44911e-13
-9.65346e-11
2.34277e-07
1.21629e-13
-5.58762e-11
2.34311e-07
8.98349e-14
-2.64213e-11
2.34338e-07
5.75297e-14
-1.15538e-11
2.34366e-07
2.5036e-14
-1.30847e-11
2.34404e-07
-1.59282e-14
-3.14787e-11
2.3446e-07
-6.87296e-14
-6.61666e-11
2.3454e-07
-1.29606e-13
-1.15103e-10
2.34648e-07
-1.9256e-13
-1.7412e-10
2.34786e-07
-2.49731e-13
-2.36966e-10
2.34951e-07
-2.95183e-13
-2.96016e-10
2.35137e-07
-3.27709e-13
-3.43227e-10
2.35334e-07
-3.48648e-13
-3.71078e-10
2.3553e-07
-3.58469e-13
-3.73679e-10
2.35712e-07
-3.55287e-13
-3.48172e-10
2.35868e-07
-3.36588e-13
-2.96005e-10
2.35989e-07
-3.02353e-13
-2.23334e-10
2.3607e-07
-2.56704e-13
-1.40053e-10
2.36112e-07
-2.06602e-13
-5.75708e-11
2.36119e-07
-1.60366e-13
1.34525e-11
2.36102e-07
-1.23814e-13
6.56331e-11
2.3607e-07
-9.84447e-14
9.634e-11
2.36034e-07
-8.30967e-14
1.06759e-10
2.36001e-07
-7.3891e-14
1.00508e-10
2.35979e-07
-6.5651e-14
8.27347e-11
2.35968e-07
-5.38715e-14
5.93856e-11
2.35967e-07
-3.74365e-14
3.6442e-11
2.35973e-07
-1.81976e-14
1.91623e-11
2.3598e-07
1.59406e-15
1.12792e-11
2.35982e-07
2.16454e-14
1.45825e-11
2.35972e-07
4.40446e-14
2.90875e-11
2.35947e-07
6.95713e-14
5.36515e-11
2.35904e-07
9.67509e-14
8.58434e-11
2.35842e-07
1.23541e-13
1.21107e-10
2.35765e-07
1.48556e-13
1.52827e-10
2.35679e-07
1.70687e-13
1.73391e-10
2.35593e-07
1.87558e-13
1.75639e-10
2.3552e-07
1.95959e-13
1.53947e-10
2.35471e-07
1.94035e-13
1.04495e-10
2.35462e-07
1.83385e-13
2.47402e-11
2.35506e-07
1.70588e-13
-8.68819e-11
2.35618e-07
1.64109e-13
-2.29303e-10
2.35811e-07
1.71461e-13
-3.97742e-10
2.36092e-07
1.98513e-13
-5.83969e-10
2.36463e-07
2.47077e-13
-7.77108e-10
2.36922e-07
3.12656e-13
-9.65983e-10
2.37461e-07
3.81459e-13
-1.14093e-09
2.38069e-07
4.32032e-13
-1.29336e-09
2.38729e-07
4.45836e-13
-1.41402e-09
2.39422e-07
4.20299e-13
-1.49318e-09
2.40128e-07
3.7142e-13
-1.52379e-09
2.40829e-07
3.22038e-13
-1.50503e-09
2.41506e-07
2.861e-13
-1.44297e-09
2.42146e-07
2.61006e-13
-1.34817e-09
2.42735e-07
2.32159e-13
-1.23205e-09
2.43266e-07
1.85996e-13
-1.10334e-09
2.43732e-07
1.21485e-13
-9.66805e-10
2.44131e-07
4.88175e-14
-8.25638e-10
2.44463e-07
-2.25704e-14
-6.84418e-10
2.44731e-07
-9.08285e-14
-5.48676e-10
2.44938e-07
-1.56594e-13
-4.22251e-10
2.45091e-07
-2.15046e-13
-3.06189e-10
2.45193e-07
-2.55729e-13
-2.00198e-10
2.4525e-07
-2.69102e-13
-1.04651e-10
2.45267e-07
-2.5301e-13
-2.13491e-11
2.45252e-07
-2.1807e-13
4.72888e-11
2.45213e-07
-1.74182e-13
1.0047e-10
2.45155e-07
-1.23379e-13
1.39234e-10
2.45086e-07
-7.00016e-14
1.64404e-10
2.45012e-07
-2.77489e-14
1.75122e-10
2.44938e-07
-2.28492e-14
1.69283e-10
2.44869e-07
-7.24071e-14
1.47311e-10
2.44807e-07
-1.53136e-13
1.14929e-10
2.44756e-07
-2.08388e-13
8.00125e-11
2.44721e-07
-2.04708e-13
4.70275e-11
2.44703e-07
-1.63648e-13
1.48485e-11
2.44708e-07
-1.25191e-13
-2.10714e-11
2.44737e-07
-1.0747e-13
-6.38642e-11
2.44792e-07
-9.67134e-14
-1.12255e-10
2.44871e-07
-6.46289e-14
-1.61017e-10
2.44972e-07
4.8222e-15
-2.03205e-10
2.45091e-07
1.08764e-13
-2.33336e-10
2.4522e-07
2.27912e-13
-2.49426e-10
2.45353e-07
3.25787e-13
-2.52878e-10
2.4548e-07
3.51227e-13
-2.45676e-10
2.45588e-07
2.63642e-13
-2.25677e-10
2.45666e-07
7.80897e-14
-1.85079e-10
2.45705e-07
-1.19551e-13
-1.16529e-10
2.45701e-07
-2.19467e-13
-2.22958e-11
2.45653e-07
-1.80832e-13
8.43887e-11
2.45565e-07
-5.61066e-14
1.87482e-10
2.45442e-07
6.83453e-14
2.75534e-10
2.45289e-07
1.25096e-13
3.42484e-10
2.45116e-07
9.53271e-14
3.85408e-10
2.44931e-07
6.36282e-15
4.03955e-10
2.44744e-07
-9.04375e-14
4.01187e-10
2.44561e-07
-1.51191e-13
3.8276e-10
2.44389e-07
-1.65826e-13
3.54825e-10
2.44231e-07
-1.58789e-13
3.22654e-10
2.44089e-07
-1.64308e-13
2.89963e-10
2.43964e-07
-2.00413e-13
2.58745e-10
2.43855e-07
-2.59743e-13
2.29937e-10
2.4376e-07
-3.18224e-13
2.04231e-10
2.43676e-07
-3.54138e-13
1.8203e-10
2.43601e-07
-3.65198e-13
1.62573e-10
2.43534e-07
-3.6871e-13
1.43722e-10
2.43475e-07
-3.83237e-13
1.23541e-10
2.43424e-07
-4.09883e-13
1.02132e-10
2.43381e-07
-4.33156e-13
8.15463e-11
2.43344e-07
-4.40475e-13
6.4474e-11
2.43313e-07
-4.35245e-13
5.36578e-11
2.43284e-07
-4.28589e-13
5.17652e-11
2.43252e-07
-4.24106e-13
6.06467e-11
2.43211e-07
-4.16748e-13
8.05e-11
2.43156e-07
-4.05882e-13
1.1019e-10
2.43082e-07
-4.03872e-13
1.48561e-10
2.42982e-07
-4.26742e-13
1.95063e-10
2.42855e-07
-4.76045e-13
2.48688e-10
2.427e-07
-5.32886e-13
3.06583e-10
2.42516e-07
-5.70623e-13
3.64439e-10
2.42306e-07
-5.7335e-13
4.18372e-10
2.42072e-07
-5.43199e-13
4.66159e-10
2.41819e-07
-4.93347e-13
5.06868e-10
2.41549e-07
-4.38516e-13
5.39978e-10
2.41268e-07
-3.90615e-13
5.65062e-10
2.40977e-07
-3.55788e-13
5.82002e-10
2.40682e-07
-3.30704e-13
5.91403e-10
2.40384e-07
-3.04774e-13
5.9485e-10
2.40085e-07
-2.69139e-13
5.94572e-10
2.39786e-07
-2.2235e-13
5.9272e-10
2.39487e-07
-1.68955e-13
5.90916e-10
2.39188e-07
-1.15377e-13
5.9033e-10
2.38887e-07
-6.62803e-14
5.92224e-10
2.38581e-07
-2.26916e-14
5.98619e-10
2.38266e-07
1.56837e-14
6.12119e-10
2.37937e-07
4.47473e-14
6.34835e-10
2.3759e-07
5.55616e-14
6.67695e-10
2.37219e-07
4.21986e-14
7.10711e-10
2.36821e-07
8.32866e-15
7.63309e-10
2.36392e-07
-3.47695e-14
8.23999e-10
2.3593e-07
-7.55213e-14
8.89756e-10
2.35438e-07
-1.07216e-13
9.56245e-10
2.34919e-07
-1.28008e-13
1.01988e-09
2.34378e-07
-1.3907e-13
1.08191e-09
2.33813e-07
-1.41952e-13
1.15452e-09
2.33206e-07
-1.32243e-13
1.26904e-09
2.32509e-07
-9.84057e-14
1.48684e-09
2.31621e-07
-3.67015e-14
1.91203e-09
2.30355e-07
3.66661e-14
2.70274e-09
2.28414e-07
1.03258e-13
4.07683e-09
2.25364e-07
1.67121e-13
6.30835e-09
2.2061e-07
2.38912e-13
9.71023e-09
2.13412e-07
3.03763e-13
1.45998e-08
2.02909e-07
3.39409e-13
2.12461e-08
1.88207e-07
3.54508e-13
2.97957e-08
1.68504e-07
3.74216e-13
4.01707e-08
1.43301e-07
4.07389e-13
5.19089e-08
1.12687e-07
4.6844e-13
6.39118e-08
7.76096e-08
6.21821e-13
7.39323e-08
3.98737e-08
3.94433e-13
7.78089e-08
-2.41327e-12
6.85174e-08
3.81717e-08
-6.3743e-08
7.43238e-08
-7.35918e-08
1.08845e-07
-7.36935e-08
1.40341e-07
-6.80551e-08
1.67786e-07
-5.92563e-08
1.90671e-07
-4.91205e-08
2.08946e-07
-3.88648e-08
2.22895e-07
-2.92788e-08
2.33008e-07
-2.08271e-08
2.39878e-07
-1.37341e-08
2.44128e-07
-8.05236e-09
2.46351e-07
-3.71547e-09
2.47076e-07
-5.77867e-10
2.46761e-07
1.53457e-09
2.45788e-07
2.81939e-09
2.44447e-07
3.48339e-09
2.42949e-07
3.70297e-09
2.41438e-07
3.625e-09
2.40004e-07
3.36663e-09
2.38696e-07
3.01662e-09
2.37535e-07
2.63601e-09
2.36529e-07
2.26038e-09
2.35675e-07
1.90606e-09
2.34967e-07
1.57824e-09
2.34396e-07
1.27724e-09
2.33952e-07
1.00151e-09
2.33628e-07
7.48791e-10
2.33413e-07
5.17363e-10
2.33296e-07
3.07808e-10
2.33263e-07
1.24176e-10
2.333e-07
-2.75923e-11
2.33389e-07
-1.43492e-10
2.33515e-07
-2.2244e-10
2.33661e-07
-2.65983e-10
2.33815e-07
-2.78552e-10
2.33963e-07
-2.66316e-10
2.34097e-07
-2.35746e-10
2.34211e-07
-1.92876e-10
2.34301e-07
-1.43604e-10
2.34367e-07
-9.42431e-11
2.34414e-07
-5.12303e-11
2.34446e-07
-2.00082e-11
2.34471e-07
-3.98809e-12
2.34496e-07
-4.40597e-12
2.3453e-07
-2.12372e-11
2.3458e-07
-5.40607e-11
2.34654e-07
-1.01528e-10
2.34756e-07
-1.60127e-10
2.34887e-07
-2.23726e-10
2.35046e-07
-2.84279e-10
2.35226e-07
-3.33198e-10
2.35417e-07
-3.62723e-10
2.35609e-07
-3.671e-10
2.35787e-07
-3.43688e-10
2.35941e-07
-2.93883e-10
2.3606e-07
-2.23429e-10
2.36141e-07
-1.41645e-10
2.36182e-07
-5.95342e-11
2.3619e-07
1.22867e-11
2.36173e-07
6.60987e-11
2.3614e-07
9.87255e-11
2.36104e-07
1.1077e-10
2.3607e-07
1.05337e-10
2.36047e-07
8.73096e-11
2.36035e-07
6.27935e-11
2.36034e-07
3.83415e-11
2.36039e-07
1.98413e-11
2.36046e-07
1.12058e-11
2.36048e-07
1.38728e-11
2.36039e-07
2.75239e-11
2.36015e-07
5.11065e-11
2.35973e-07
8.2476e-11
2.35913e-07
1.17178e-10
2.35838e-07
1.48549e-10
2.35755e-07
1.69066e-10
2.35672e-07
1.71792e-10
2.35601e-07
1.51144e-10
2.35555e-07
1.02933e-10
2.35547e-07
2.39409e-11
2.35592e-07
-8.80154e-11
2.35707e-07
-2.32124e-10
2.35902e-07
-4.03417e-10
2.36186e-07
-5.93162e-10
2.36561e-07
-7.89782e-10
2.37025e-07
-9.81013e-10
2.3757e-07
-1.15574e-09
2.38183e-07
-1.30448e-09
2.38848e-07
-1.41886e-09
2.39546e-07
-1.49184e-09
2.40255e-07
-1.51905e-09
2.40958e-07
-1.50045e-09
2.41636e-07
-1.44069e-09
2.42275e-07
-1.34786e-09
2.42864e-07
-1.23159e-09
2.43392e-07
-1.10075e-09
2.43856e-07
-9.61762e-10
2.44252e-07
-8.19144e-10
2.44581e-07
-6.77388e-10
2.44845e-07
-5.41391e-10
2.45049e-07
-4.15065e-10
2.45199e-07
-3.0026e-10
2.45299e-07
-1.97204e-10
2.45354e-07
-1.05743e-10
2.45371e-07
-2.63151e-11
2.45356e-07
3.98479e-11
2.45317e-07
9.20815e-11
2.45261e-07
1.30785e-10
2.45193e-07
1.56707e-10
2.4512e-07
1.7045e-10
2.45047e-07
1.71476e-10
2.44979e-07
1.58159e-10
2.44918e-07
1.30078e-10
2.44868e-07
9.13468e-11
2.4483e-07
5.0126e-11
2.4481e-07
1.20374e-11
2.4481e-07
-2.50515e-11
2.44836e-07
-6.69452e-11
2.44888e-07
-1.15853e-10
2.44968e-07
-1.67718e-10
2.45071e-07
-2.14391e-10
2.45192e-07
-2.48276e-10
2.45326e-07
-2.65073e-10
2.45462e-07
-2.63627e-10
2.45591e-07
-2.44409e-10
2.45702e-07
-2.08207e-10
2.45782e-07
-1.55833e-10
2.45825e-07
-8.88067e-11
2.45824e-07
-1.03119e-11
2.45779e-07
7.5385e-11
2.45691e-07
1.63948e-10
2.45565e-07
2.50108e-10
2.45409e-07
3.2632e-10
2.45231e-07
3.83287e-10
2.45043e-07
4.13293e-10
2.44853e-07
4.14506e-10
2.4467e-07
3.92727e-10
2.44497e-07
3.5875e-10
2.44338e-07
3.22978e-10
2.44195e-07
2.91022e-10
2.44068e-07
2.63143e-10
2.43956e-07
2.3704e-10
2.43859e-07
2.11199e-10
2.43772e-07
1.86387e-10
2.43694e-07
1.64292e-10
2.43623e-07
1.44998e-10
2.43561e-07
1.26448e-10
2.43507e-07
1.06528e-10
2.4346e-07
8.56023e-11
2.43422e-07
6.7073e-11
2.43388e-07
5.55287e-11
2.43357e-07
5.41464e-11
2.43323e-07
6.35549e-11
2.4328e-07
8.29718e-11
2.43224e-07
1.1223e-10
2.43147e-07
1.52177e-10
2.43044e-07
2.02678e-10
2.42913e-07
2.60437e-10
2.42753e-07
3.19401e-10
2.42566e-07
3.73955e-10
2.42352e-07
4.21838e-10
2.42116e-07
4.63829e-10
2.41859e-07
5.012e-10
2.41586e-07
5.34001e-10
2.41301e-07
5.61119e-10
2.41008e-07
5.80952e-10
2.40711e-07
5.92505e-10
2.40413e-07
5.96607e-10
2.40114e-07
5.9577e-10
2.39816e-07
5.92795e-10
2.39518e-07
5.89759e-10
2.39221e-07
5.88105e-10
2.38922e-07
5.89279e-10
2.38618e-07
5.95377e-10
2.38304e-07
6.09226e-10
2.37977e-07
6.33479e-10
2.3763e-07
6.69407e-10
2.37258e-07
7.16417e-10
2.36858e-07
7.72466e-10
2.36425e-07
8.3471e-10
2.3596e-07
8.99828e-10
2.35464e-07
9.6429e-10
2.34942e-07
1.02561e-09
2.34397e-07
1.08558e-09
2.33829e-07
1.15623e-09
2.3322e-07
1.26854e-09
2.32523e-07
1.48401e-09
2.31635e-07
1.90736e-09
2.3037e-07
2.69735e-09
2.28432e-07
4.07191e-09
2.25384e-07
6.30473e-09
2.20632e-07
9.70848e-09
2.13435e-07
1.46006e-08
2.02933e-07
2.12499e-08
1.8823e-07
2.98029e-08
1.68525e-07
4.0181e-08
1.43318e-07
5.19214e-08
1.12699e-07
6.39255e-08
7.76171e-08
7.39459e-08
3.98727e-08
7.78187e-08
6.8517e-08
3.65766e-08
-3.41341e-12
-1.00219e-07
7.00112e-08
-2.79609e-12
-1.06958e-07
1.00488e-07
-2.42513e-12
-1.04119e-07
1.27565e-07
-2.03442e-12
-9.50919e-08
1.50834e-07
-1.67126e-12
-8.24942e-08
1.70114e-07
-1.38244e-12
-6.83763e-08
1.85497e-07
-1.14394e-12
-5.4229e-08
1.97294e-07
-9.44972e-13
-4.10604e-08
2.05952e-07
-7.79081e-13
-2.94717e-08
2.11981e-07
-6.35608e-13
-1.97493e-08
2.15894e-07
-4.95931e-13
-1.19504e-08
2.18169e-07
-3.48938e-13
-5.9751e-09
2.19227e-07
-1.97771e-13
-1.62153e-09
2.19424e-07
-7.92278e-14
1.34797e-09
2.19056e-07
-1.95913e-14
3.19069e-09
2.18357e-07
-9.47866e-15
4.17918e-09
2.17497e-07
-2.94468e-14
4.5588e-09
2.16588e-07
-4.58498e-14
4.53373e-09
2.15701e-07
-3.65133e-14
4.26209e-09
2.14875e-07
-1.70765e-15
3.85853e-09
2.14132e-07
4.52327e-14
3.39985e-09
2.1348e-07
9.21508e-14
2.93217e-09
2.12923e-07
1.33475e-13
2.47944e-09
2.12463e-07
1.68323e-13
2.05179e-09
2.12097e-07
1.96382e-13
1.6522e-09
2.11822e-07
2.16001e-13
1.28078e-09
2.11636e-07
2.26274e-13
9.37278e-10
2.1153e-07
2.2933e-13
6.22532e-10
2.11498e-07
2.28492e-13
3.39382e-10
2.11528e-07
2.27804e-13
9.33305e-11
2.11611e-07
2.28848e-13
-1.10489e-10
2.11735e-07
2.25935e-13
-2.68889e-10
2.1189e-07
2.13779e-13
-3.797e-10
2.12064e-07
1.92839e-13
-4.43403e-10
2.12247e-07
1.6748e-13
-4.63945e-10
2.12427e-07
1.44477e-13
-4.48355e-10
2.12596e-07
1.29048e-13
-4.05686e-10
2.1275e-07
1.21373e-13
-3.45753e-10
2.12884e-07
1.16383e-13
-2.78192e-10
2.12999e-07
1.07966e-13
-2.12002e-10
2.13098e-07
9.40815e-14
-1.55286e-10
2.13187e-07
7.62181e-14
-1.14839e-10
2.13271e-07
5.27076e-14
-9.55975e-11
2.13358e-07
2.20551e-14
-1.00327e-10
2.13456e-07
-1.34938e-14
-1.29695e-10
2.13572e-07
-5.68712e-14
-1.82282e-10
2.13711e-07
-1.09653e-13
-2.54216e-10
2.13876e-07
-1.65621e-13
-3.38828e-10
2.14066e-07
-2.17766e-13
-4.26942e-10
2.14278e-07
-2.61209e-13
-5.07824e-10
2.14506e-07
-2.94211e-13
-5.70405e-10
2.14739e-07
-3.16844e-13
-6.04617e-10
2.14969e-07
-3.28692e-13
-6.02994e-10
2.15184e-07
-3.28037e-13
-5.62466e-10
2.15374e-07
-3.13163e-13
-4.85765e-10
2.15532e-07
-2.84248e-13
-3.81656e-10
2.15656e-07
-2.44429e-13
-2.63597e-10
2.15746e-07
-1.98868e-13
-1.47021e-10
2.15805e-07
-1.52672e-13
-4.61139e-11
2.15842e-07
-1.12768e-13
2.84502e-11
2.15867e-07
-8.32028e-14
7.17358e-11
2.15889e-07
-6.31476e-14
8.51974e-11
2.15915e-07
-5.08619e-14
7.46728e-11
2.15949e-07
-4.27649e-14
4.86448e-11
2.15991e-07
-3.43917e-14
1.67891e-11
2.16039e-07
-2.47475e-14
-1.16124e-11
2.16087e-07
-1.32906e-14
-2.90264e-11
2.16129e-07
6.9654e-16
-3.03825e-11
2.16157e-07
1.67088e-14
-1.3505e-11
2.16166e-07
3.55433e-14
2.05119e-11
2.16151e-07
5.69199e-14
6.79632e-11
2.16114e-07
8.05464e-14
1.23515e-10
2.16055e-07
1.05623e-13
1.79933e-10
2.15979e-07
1.30656e-13
2.28145e-10
2.15894e-07
1.54083e-13
2.58467e-10
2.15807e-07
1.73272e-13
2.61967e-10
2.1573e-07
1.84992e-13
2.31519e-10
2.15672e-07
1.87104e-13
1.62167e-10
2.15645e-07
1.79977e-13
5.09731e-11
2.15662e-07
1.69573e-13
-1.04051e-10
2.15734e-07
1.62126e-13
-3.01364e-10
2.1587e-07
1.62444e-13
-5.33813e-10
2.16076e-07
1.76582e-13
-7.89956e-10
2.16354e-07
2.07962e-13
-1.05507e-09
2.16701e-07
2.55925e-13
-1.3137e-09
2.17112e-07
3.13131e-13
-1.55184e-09
2.17575e-07
3.65418e-13
-1.75728e-09
2.1808e-07
3.97498e-13
-1.91879e-09
2.18613e-07
4.01655e-13
-2.02644e-09
2.19162e-07
3.81678e-13
-2.07393e-09
2.19718e-07
3.4847e-13
-2.06088e-09
2.20268e-07
3.11799e-13
-1.993e-09
2.20799e-07
2.74669e-13
-1.88018e-09
2.21301e-07
2.33459e-13
-1.73378e-09
2.21761e-07
1.83194e-13
-1.564e-09
2.22173e-07
1.23668e-13
-1.37886e-09
2.22533e-07
5.98171e-14
-1.18546e-09
2.2284e-07
-3.83386e-15
-9.91514e-10
2.23096e-07
-6.63801e-14
-8.04328e-10
2.23302e-07
-1.27608e-13
-6.28712e-10
2.23463e-07
-1.83633e-13
-4.66542e-10
2.23581e-07
-2.26784e-13
-3.18295e-10
2.23661e-07
-2.50767e-13
-1.84827e-10
2.23708e-07
-2.51772e-13
-6.79377e-11
2.23726e-07
-2.31454e-13
2.97338e-11
2.2372e-07
-1.96963e-13
1.06764e-10
2.23695e-07
-1.52941e-13
1.64117e-10
2.23656e-07
-1.01768e-13
2.03149e-10
2.23607e-07
-5.11092e-14
2.24051e-10
2.23551e-07
-1.88724e-14
2.26046e-10
2.23488e-07
-2.35379e-14
2.09798e-10
2.23424e-07
-6.27135e-14
1.79185e-10
2.23365e-07
-1.07706e-13
1.39342e-10
2.23318e-07
-1.31705e-13
9.33741e-11
2.23292e-07
-1.31709e-13
4.12377e-11
2.2329e-07
-1.31208e-13
-1.89945e-11
2.23314e-07
-1.39689e-13
-8.78923e-11
2.23365e-07
-1.40295e-13
-1.62401e-10
2.2344e-07
-1.18974e-13
-2.36239e-10
2.23538e-07
-6.6782e-14
-3.01538e-10
2.23656e-07
1.59365e-14
-3.51189e-10
2.23787e-07
1.1924e-13
-3.80466e-10
2.23921e-07
2.21765e-13
-3.87226e-10
2.24045e-07
2.90832e-13
-3.70472e-10
2.24147e-07
2.94307e-13
-3.27905e-10
2.24218e-07
2.25655e-13
-2.55633e-10
2.24253e-07
1.1894e-13
-1.5234e-10
2.24256e-07
2.62282e-14
-2.4702e-11
2.24227e-07
-1.28717e-14
1.12552e-10
2.24171e-07
2.64742e-15
2.43958e-10
2.24088e-07
3.70423e-14
3.58487e-10
2.23981e-07
5.25144e-14
4.49001e-10
2.23856e-07
2.95848e-14
5.11187e-10
2.23716e-07
-2.7591e-14
5.43642e-10
2.23569e-07
-9.65241e-14
5.48588e-10
2.2342e-07
-1.50995e-13
5.31123e-10
2.23278e-07