/*--------------------------------*- C++ -*----------------------------------*\
  =========                 |
  \\      /  F ield         | OpenFOAM: The Open Source CFD Toolbox
   \\    /   O peration     | Website:  https://openfoam.org
    \\  /    A nd           | Version:  8
     \\/     M anipulation  |
\*---------------------------------------------------------------------------*/
FoamFile
{
    version     2.0;
    format      ascii;
    class       volScalarField;
    location    "100";
    object      T;
}
// * * * * * * * * * * * * * * * * * * * * * * * * * * * * * * * * * * * * * //

dimensions      [0 0 0 1 0 0 0];

internalField   nonuniform List<scalar> 
46000
(
300.974
300.606
300.418
300.33
300.301
300.308
300.34
300.389
300.45
300.52
300.595
300.673
300.752
300.829
300.903
300.975
301.046
301.114
301.181
301.246
301.31
301.372
301.434
301.495
301.554
301.612
301.669
301.724
301.777
301.829
301.878
301.924
301.969
302.012
302.052
302.091
302.128
302.164
302.198
302.231
302.262
302.292
302.321
302.348
302.374
302.399
302.422
302.445
302.466
302.486
302.505
302.523
302.54
302.557
302.572
302.586
302.6
302.612
302.624
302.634
302.644
302.653
302.661
302.668
302.674
302.68
302.686
302.691
302.696
302.7
302.705
302.709
302.714
302.718
302.722
302.726
302.73
302.734
302.738
302.741
302.744
302.747
302.748
302.749
302.75
302.749
302.748
302.746
302.743
302.74
302.738
302.735
302.733
302.732
302.732
302.732
302.733
302.736
302.739
302.743
302.748
302.753
302.759
302.766
302.772
302.779
302.786
302.792
302.799
302.805
302.811
302.817
302.823
302.828
302.833
302.837
302.841
302.845
302.849
302.852
302.855
302.857
302.858
302.859
302.859
302.858
302.857
302.856
302.855
302.854
302.853
302.853
302.853
302.854
302.854
302.854
302.854
302.853
302.852
302.851
302.849
302.847
302.845
302.843
302.84
302.838
302.835
302.832
302.828
302.824
302.82
302.816
302.812
302.809
302.805
302.802
302.799
302.797
302.795
302.793
302.791
302.79
302.789
302.788
302.788
302.788
302.789
302.789
302.79
302.792
302.793
302.794
302.795
302.796
302.796
302.796
302.795
302.794
302.793
302.791
302.789
302.787
302.785
302.783
302.781
302.778
302.776
302.775
302.777
302.782
302.794
302.817
302.855
302.917
303.012
303.157
303.381
303.733
304.276
304.977
300.972
300.605
300.417
300.33
300.301
300.308
300.34
300.389
300.45
300.52
300.595
300.673
300.752
300.829
300.903
300.975
301.046
301.114
301.181
301.246
301.31
301.372
301.434
301.494
301.554
301.612
301.669
301.724
301.777
301.828
301.877
301.924
301.969
302.011
302.052
302.091
302.128
302.164
302.198
302.231
302.262
302.292
302.321
302.348
302.374
302.399
302.422
302.445
302.466
302.486
302.506
302.524
302.541
302.557
302.572
302.586
302.6
302.612
302.624
302.635
302.644
302.653
302.661
302.668
302.675
302.681
302.686
302.691
302.696
302.701
302.706
302.71
302.714
302.719
302.723
302.727
302.731
302.735
302.739
302.742
302.745
302.747
302.749
302.75
302.75
302.749
302.748
302.746
302.743
302.741
302.738
302.736
302.734
302.732
302.732
302.732
302.734
302.736
302.739
302.743
302.748
302.753
302.759
302.765
302.772
302.779
302.785
302.792
302.799
302.805
302.811
302.817
302.823
302.828
302.833
302.837
302.841
302.845
302.849
302.852
302.855
302.857
302.858
302.859
302.859
302.859
302.858
302.857
302.856
302.855
302.854
302.853
302.853
302.853
302.854
302.854
302.853
302.853
302.852
302.851
302.849
302.847
302.845
302.843
302.841
302.838
302.835
302.832
302.829
302.825
302.821
302.817
302.813
302.809
302.806
302.803
302.8
302.797
302.795
302.794
302.792
302.791
302.79
302.789
302.789
302.789
302.789
302.79
302.791
302.793
302.794
302.796
302.797
302.798
302.798
302.798
302.797
302.796
302.795
302.793
302.791
302.789
302.787
302.784
302.782
302.779
302.777
302.776
302.777
302.783
302.795
302.817
302.856
302.918
303.013
303.158
303.382
303.734
304.277
304.978
298.828
298.837
298.862
298.901
298.952
299.014
299.085
299.163
299.247
299.336
299.428
299.522
299.616
299.708
299.796
299.881
299.962
300.039
300.112
300.182
300.249
300.313
300.376
300.436
300.494
300.551
300.605
300.657
300.708
300.756
300.802
300.846
300.889
300.93
300.969
301.007
301.043
301.079
301.113
301.146
301.177
301.207
301.236
301.264
301.29
301.315
301.338
301.361
301.382
301.402
301.421
301.439
301.456
301.472
301.487
301.502
301.516
301.528
301.541
301.552
301.562
301.571
301.58
301.588
301.595
301.602
301.608
301.614
301.619
301.625
301.63
301.635
301.64
301.645
301.649
301.654
301.658
301.662
301.665
301.668
301.671
301.673
301.674
301.675
301.674
301.673
301.672
301.67
301.668
301.666
301.664
301.663
301.663
301.664
301.666
301.669
301.673
301.677
301.683
301.69
301.697
301.704
301.712
301.72
301.729
301.737
301.745
301.753
301.76
301.767
301.774
301.78
301.786
301.791
301.795
301.8
301.803
301.807
301.809
301.811
301.813
301.814
301.815
301.815
301.814
301.813
301.813
301.812
301.811
301.811
301.811
301.812
301.812
301.813
301.813
301.813
301.812
301.811
301.809
301.807
301.805
301.803
301.8
301.797
301.794
301.791
301.787
301.783
301.779
301.775
301.771
301.767
301.763
301.759
301.756
301.753
301.75
301.748
301.746
301.744
301.743
301.742
301.741
301.74
301.739
301.738
301.738
301.738
301.738
301.737
301.737
301.737
301.736
301.735
301.733
301.731
301.729
301.727
301.724
301.721
301.717
301.714
301.71
301.706
301.701
301.697
301.693
301.691
301.693
301.701
301.718
301.751
301.804
301.886
302.008
302.184
302.435
302.789
303.259
303.782
298.827
298.837
298.862
298.901
298.952
299.014
299.085
299.163
299.247
299.336
299.428
299.522
299.616
299.708
299.796
299.881
299.962
300.039
300.112
300.182
300.249
300.313
300.376
300.436
300.494
300.55
300.605
300.657
300.707
300.756
300.802
300.846
300.889
300.93
300.969
301.007
301.044
301.079
301.113
301.146
301.177
301.208
301.236
301.264
301.29
301.315
301.339
301.361
301.382
301.402
301.421
301.439
301.456
301.472
301.488
301.502
301.516
301.529
301.541
301.552
301.562
301.572
301.58
301.588
301.596
301.602
301.608
301.614
301.62
301.625
301.631
301.636
301.641
301.645
301.65
301.654
301.658
301.662
301.666
301.669
301.672
301.673
301.675
301.675
301.675
301.674
301.672
301.67
301.668
301.666
301.665
301.664
301.664
301.664
301.666
301.669
301.673
301.678
301.683
301.69
301.697
301.704
301.712
301.72
301.729
301.737
301.745
301.753
301.76
301.767
301.774
301.78
301.786
301.791
301.796
301.8
301.804
301.807
301.809
301.812
301.813
301.814
301.815
301.815
301.815
301.814
301.813
301.813
301.812
301.812
301.812
301.812
301.812
301.813
301.813
301.813
301.812
301.811
301.809
301.808
301.805
301.803
301.8
301.797
301.794
301.791
301.788
301.784
301.78
301.776
301.771
301.767
301.763
301.759
301.756
301.753
301.751
301.749
301.747
301.745
301.744
301.742
301.741
301.74
301.74
301.739
301.739
301.739
301.739
301.738
301.738
301.738
301.737
301.736
301.735
301.733
301.731
301.728
301.725
301.722
301.719
301.715
301.711
301.707
301.702
301.698
301.694
301.692
301.694
301.701
301.719
301.752
301.805
301.887
302.009
302.185
302.437
302.79
303.261
303.784
298.303
298.345
298.386
298.43
298.478
298.533
298.594
298.662
298.735
298.814
298.896
298.98
299.066
299.151
299.234
299.315
299.391
299.464
299.534
299.6
299.663
299.723
299.782
299.837
299.891
299.943
299.993
300.041
300.086
300.13
300.172
300.212
300.251
300.288
300.324
300.359
300.393
300.426
300.457
300.488
300.517
300.545
300.572
300.597
300.621
300.644
300.665
300.685
300.704
300.722
300.739
300.755
300.77
300.785
300.799
300.812
300.824
300.836
300.848
300.858
300.868
300.877
300.885
300.893
300.9
300.906
300.912
300.918
300.924
300.929
300.935
300.94
300.945
300.95
300.954
300.959
300.963
300.967
300.97
300.973
300.975
300.976
300.977
300.977
300.976
300.974
300.972
300.97
300.968
300.966
300.965
300.964
300.965
300.966
300.969
300.973
300.978
300.984
300.991
300.998
301.006
301.014
301.023
301.031
301.04
301.048
301.057
301.065
301.072
301.079
301.085
301.091
301.096
301.1
301.104
301.107
301.11
301.112
301.113
301.114
301.114
301.114
301.113
301.113
301.112
301.111
301.11
301.11
301.11
301.11
301.11
301.111
301.111
301.112
301.112
301.111
301.11
301.109
301.107
301.105
301.102
301.099
301.096
301.093
301.09
301.086
301.082
301.078
301.074
301.07
301.066
301.062
301.058
301.055
301.052
301.05
301.048
301.046
301.045
301.044
301.043
301.042
301.041
301.04
301.039
301.039
301.038
301.038
301.037
301.036
301.035
301.034
301.033
301.031
301.028
301.026
301.023
301.02
301.016
301.013
301.009
301.005
301
300.995
300.989
300.984
300.979
300.977
300.98
300.991
301.016
301.06
301.13
301.234
301.383
301.588
301.864
302.226
302.67
303.14
298.303
298.345
298.386
298.43
298.478
298.533
298.594
298.662
298.735
298.814
298.896
298.98
299.066
299.151
299.234
299.315
299.391
299.464
299.534
299.6
299.663
299.723
299.782
299.837
299.891
299.943
299.993
300.04
300.086
300.13
300.172
300.212
300.251
300.288
300.324
300.359
300.393
300.426
300.457
300.488
300.517
300.545
300.572
300.597
300.621
300.644
300.666
300.686
300.705
300.723
300.74
300.756
300.771
300.785
300.799
300.812
300.825
300.837
300.848
300.858
300.868
300.877
300.886
300.893
300.9
300.907
300.913
300.919
300.924
300.93
300.935
300.94
300.946
300.95
300.955
300.959
300.964
300.967
300.971
300.973
300.975
300.977
300.977
300.977
300.976
300.974
300.972
300.97
300.968
300.966
300.965
300.965
300.965
300.967
300.969
300.973
300.978
300.984
300.991
300.998
301.006
301.014
301.023
301.031
301.04
301.048
301.057
301.065
301.072
301.079
301.085
301.091
301.096
301.101
301.104
301.108
301.11
301.112
301.113
301.114
301.114
301.114
301.114
301.113
301.112
301.112
301.111
301.111
301.11
301.11
301.111
301.111
301.111
301.112
301.112
301.111
301.111
301.109
301.107
301.105
301.103
301.1
301.097
301.094
301.09
301.087
301.083
301.079
301.075
301.07
301.066
301.062
301.059
301.055
301.053
301.05
301.048
301.047
301.045
301.044
301.043
301.042
301.042
301.041
301.04
301.039
301.039
301.038
301.038
301.037
301.036
301.035
301.034
301.032
301.03
301.027
301.024
301.021
301.018
301.014
301.01
301.006
301.001
300.996
300.99
300.984
300.98
300.978
300.981
300.992
301.017
301.061
301.131
301.235
301.384
301.589
301.866
302.228
302.672
303.143
298.193
298.213
298.235
298.262
298.294
298.332
298.376
298.427
298.484
298.547
298.615
298.686
298.758
298.832
298.904
298.975
299.043
299.108
299.17
299.229
299.286
299.34
299.392
299.441
299.489
299.535
299.579
299.62
299.66
299.699
299.735
299.77
299.804
299.837
299.869
299.9
299.93
299.958
299.986
300.013
300.039
300.064
300.087
300.109
300.13
300.15
300.168
300.185
300.201
300.216
300.23
300.244
300.256
300.269
300.28
300.292
300.303
300.314
300.324
300.334
300.343
300.351
300.358
300.365
300.372
300.378
300.383
300.389
300.394
300.4
300.405
300.41
300.415
300.42
300.425
300.429
300.433
300.437
300.44
300.442
300.443
300.444
300.444
300.443
300.441
300.439
300.437
300.434
300.432
300.43
300.429
300.429
300.429
300.432
300.435
300.439
300.445
300.452
300.459
300.467
300.475
300.483
300.492
300.5
300.509
300.517
300.525
300.532
300.539
300.545
300.551
300.555
300.56
300.563
300.565
300.567
300.568
300.569
300.569
300.568
300.567
300.566
300.565
300.564
300.563
300.562
300.561
300.561
300.56
300.561
300.561
300.562
300.562
300.563
300.563
300.562
300.561
300.56
300.557
300.555
300.552
300.549
300.546
300.542
300.539
300.535
300.531
300.527
300.523
300.519
300.516
300.512
300.509
300.506
300.504
300.502
300.501
300.5
300.499
300.499
300.498
300.498
300.497
300.497
300.496
300.496
300.495
300.494
300.493
300.492
300.491
300.489
300.487
300.485
300.482
300.479
300.476
300.473
300.469
300.465
300.461
300.456
300.451
300.444
300.437
300.431
300.425
300.423
300.428
300.445
300.478
300.535
300.623
300.75
300.924
301.156
301.456
301.828
302.261
302.71
298.193
298.212
298.235
298.262
298.294
298.332
298.376
298.427
298.485
298.547
298.615
298.686
298.758
298.832
298.905
298.975
299.043
299.108
299.17
299.229
299.286
299.34
299.392
299.441
299.489
299.535
299.578
299.62
299.66
299.699
299.735
299.771
299.805
299.837
299.869
299.9
299.93
299.959
299.987
300.013
300.039
300.064
300.087
300.109
300.13
300.15
300.168
300.185
300.202
300.217
300.231
300.244
300.257
300.269
300.281
300.292
300.303
300.314
300.324
300.334
300.343
300.351
300.359
300.366
300.372
300.378
300.384
300.39
300.395
300.4
300.406
300.411
300.416
300.421
300.425
300.43
300.434
300.437
300.44
300.442
300.444
300.445
300.444
300.443
300.442
300.44
300.437
300.434
300.432
300.43
300.429
300.429
300.43
300.432
300.436
300.44
300.446
300.452
300.459
300.467
300.475
300.483
300.492
300.5
300.509
300.517
300.525
300.532
300.539
300.545
300.551
300.556
300.56
300.563
300.566
300.568
300.569
300.569
300.569
300.568
300.568
300.566
300.565
300.564
300.563
300.562
300.562
300.561
300.561
300.562
300.562
300.563
300.563
300.563
300.563
300.563
300.562
300.56
300.558
300.555
300.553
300.55
300.546
300.543
300.539
300.536
300.532
300.528
300.524
300.52
300.516
300.513
300.51
300.507
300.505
300.503
300.502
300.501
300.5
300.499
300.499
300.499
300.498
300.497
300.497
300.496
300.496
300.495
300.494
300.493
300.491
300.49
300.488
300.485
300.483
300.48
300.477
300.474
300.47
300.466
300.462
300.457
300.452
300.445
300.438
300.431
300.426
300.424
300.429
300.445
300.479
300.536
300.624
300.751
300.925
301.157
301.457
301.829
302.263
302.712
298.17
298.178
298.189
298.203
298.222
298.247
298.278
298.315
298.358
298.407
298.461
298.519
298.579
298.64
298.701
298.761
298.819
298.875
298.928
298.979
299.027
299.074
299.119
299.161
299.202
299.241
299.278
299.314
299.347
299.38
299.411
299.44
299.469
299.497
299.524
299.55
299.575
299.6
299.623
299.646
299.668
299.689
299.708
299.727
299.744
299.76
299.775
299.789
299.802
299.814
299.825
299.836
299.846
299.856
299.866
299.876
299.886
299.895
299.904
299.912
299.92
299.928
299.935
299.941
299.947
299.952
299.957
299.962
299.968
299.973
299.978
299.983
299.988
299.993
299.997
300.001
300.005
300.008
300.01
300.012
300.013
300.013
300.012
300.01
300.008
300.005
300.003
300
299.997
299.996
299.995
299.995
299.996
299.999
300.002
300.007
300.013
300.02
300.027
300.035
300.043
300.051
300.059
300.067
300.075
300.082
300.09
300.096
300.102
300.107
300.112
300.116
300.118
300.12
300.122
300.122
300.122
300.121
300.12
300.118
300.116
300.115
300.113
300.111
300.11
300.109
300.109
300.108
300.109
300.109
300.11
300.111
300.111
300.111
300.111
300.111
300.109
300.108
300.105
300.102
300.099
300.096
300.093
300.089
300.086
300.083
300.079
300.075
300.072
300.068
300.065
300.062
300.06
300.057
300.056
300.055
300.054
300.054
300.054
300.054
300.054
300.053
300.053
300.053
300.052
300.052
300.051
300.05
300.049
300.047
300.045
300.043
300.041
300.038
300.036
300.033
300.03
300.026
300.022
300.018
300.014
300.008
300.001
299.994
299.985
299.977
299.971
299.97
299.978
300.001
300.045
300.117
300.224
300.373
300.572
300.828
301.146
301.526
301.954
302.387
298.17
298.178
298.189
298.203
298.222
298.247
298.278
298.315
298.358
298.407
298.461
298.519
298.579
298.64
298.701
298.761
298.819
298.875
298.928
298.979
299.028
299.074
299.119
299.161
299.202
299.241
299.278
299.314
299.348
299.38
299.411
299.441
299.469
299.497
299.524
299.55
299.575
299.6
299.624
299.646
299.668
299.689
299.709
299.727
299.744
299.76
299.775
299.789
299.802
299.814
299.825
299.836
299.846
299.857
299.867
299.876
299.886
299.895
299.904
299.913
299.921
299.928
299.935
299.941
299.947
299.953
299.958
299.963
299.968
299.973
299.978
299.983
299.988
299.993
299.998
300.002
300.005
300.009
300.011
300.013
300.013
300.013
300.013
300.011
300.009
300.006
300.003
300
299.998
299.996
299.995
299.995
299.997
299.999
300.003
300.008
300.014
300.02
300.028
300.035
300.043
300.051
300.06
300.068
300.075
300.083
300.09
300.096
300.102
300.108
300.112
300.116
300.119
300.121
300.122
300.123
300.122
300.122
300.12
300.119
300.117
300.115
300.113
300.112
300.111
300.11
300.109
300.109
300.109
300.11
300.111
300.111
300.112
300.112
300.112
300.111
300.11
300.108
300.106
300.103
300.1
300.097
300.094
300.09
300.087
300.083
300.08
300.076
300.072
300.069
300.066
300.063
300.06
300.058
300.056
300.055
300.055
300.054
300.054
300.054
300.054
300.054
300.054
300.053
300.053
300.052
300.051
300.05
300.049
300.048
300.046
300.044
300.041
300.039
300.036
300.033
300.03
300.027
300.023
300.019
300.014
300.009
300.002
299.994
299.986
299.977
299.971
299.97
299.978
300.001
300.045
300.117
300.224
300.374
300.573
300.829
301.148
301.528
301.956
302.389
298.164
298.168
298.174
298.182
298.194
298.211
298.233
298.26
298.294
298.332
298.375
298.421
298.47
298.52
298.571
298.62
298.669
298.715
298.76
298.802
298.843
298.882
298.919
298.954
298.988
299.02
299.051
299.08
299.107
299.134
299.159
299.183
299.206
299.229
299.251
299.273
299.293
299.313
299.333
299.351
299.369
299.386
299.402
299.416
299.43
299.443
299.454
299.465
299.475
299.484
299.493
299.501
299.51
299.518
299.526
299.534
299.543
299.551
299.559
299.566
299.573
299.58
299.585
299.591
299.596
299.601
299.605
299.61
299.615
299.62
299.625
299.63
299.635
299.639
299.643
299.647
299.65
299.653
299.655
299.656
299.656
299.655
299.654
299.651
299.648
299.645
299.642
299.639
299.637
299.636
299.635
299.635
299.637
299.64
299.644
299.649
299.655
299.662
299.669
299.676
299.684
299.691
299.699
299.706
299.713
299.719
299.725
299.731
299.736
299.74
299.743
299.746
299.747
299.748
299.748
299.748
299.746
299.745
299.742
299.74
299.738
299.735
299.733
299.732
299.731
299.73
299.729
299.73
299.73
299.731
299.732
299.732
299.733
299.733
299.733
299.732
299.731
299.729
299.726
299.723
299.72
299.717
299.714
299.711
299.708
299.705
299.701
299.698
299.695
299.692
299.689
299.687
299.685
299.684
299.683
299.682
299.682
299.682
299.683
299.683
299.683
299.683
299.683
299.683
299.682
299.682
299.681
299.679
299.678
299.676
299.674
299.672
299.669
299.667
299.664
299.661
299.658
299.654
299.65
299.646
299.64
299.634
299.626
299.617
299.607
299.598
299.592
299.593
299.606
299.638
299.694
299.782
299.909
300.079
300.3
300.575
300.907
301.292
301.712
302.129
298.164
298.168
298.174
298.182
298.194
298.211
298.233
298.26
298.294
298.332
298.375
298.421
298.47
298.52
298.571
298.62
298.669
298.715
298.76
298.802
298.843
298.882
298.919
298.954
298.988
299.02
299.051
299.08
299.107
299.134
299.159
299.183
299.207
299.229
299.251
299.273
299.294
299.314
299.333
299.352
299.369
299.386
299.402
299.417
299.43
299.443
299.455
299.465
299.475
299.484
299.493
299.502
299.51
299.518
299.527
299.535
299.543
299.551
299.559
299.566
299.573
299.58
299.586
299.591
299.596
299.601
299.606
299.611
299.616
299.62
299.625
299.63
299.635
299.64
299.644
299.648
299.651
299.653
299.655
299.656
299.656
299.656
299.654
299.652
299.649
299.646
299.643
299.64
299.638
299.636
299.635
299.636
299.638
299.641
299.645
299.65
299.656
299.662
299.669
299.677
299.684
299.692
299.699
299.706
299.713
299.72
299.726
299.731
299.736
299.74
299.744
299.746
299.748
299.749
299.749
299.748
299.747
299.745
299.743
299.741
299.738
299.736
299.734
299.732
299.731
299.73
299.73
299.73
299.731
299.732
299.732
299.733
299.734
299.734
299.734
299.733
299.731
299.729
299.727
299.724
299.721
299.718
299.715
299.712
299.708
299.705
299.702
299.699
299.696
299.693
299.69
299.688
299.686
299.684
299.683
299.683
299.683
299.683
299.683
299.683
299.684
299.684
299.684
299.683
299.683
299.682
299.681
299.68
299.678
299.676
299.674
299.672
299.67
299.667
299.664
299.661
299.658
299.655
299.651
299.646
299.641
299.634
299.626
299.617
299.607
299.598
299.592
299.593
299.607
299.638
299.695
299.783
299.909
300.08
300.301
300.577
300.909
301.294
301.714
302.131
298.163
298.165
298.168
298.174
298.182
298.195
298.211
298.233
298.259
298.29
298.324
298.362
298.402
298.442
298.483
298.524
298.563
298.601
298.637
298.672
298.705
298.737
298.767
298.795
298.822
298.848
298.872
298.895
298.917
298.937
298.957
298.976
298.995
299.013
299.03
299.047
299.064
299.08
299.095
299.11
299.124
299.137
299.149
299.16
299.17
299.18
299.188
299.196
299.204
299.211
299.217
299.224
299.231
299.237
299.244
299.251
299.259
299.265
299.272
299.279
299.284
299.29
299.295
299.3
299.304
299.308
299.313
299.317
299.321
299.326
299.331
299.335
299.34
299.344
299.348
299.351
299.354
299.356
299.357
299.357
299.357
299.355
299.353
299.35
299.347
299.344
299.341
299.338
299.336
299.335
299.335
299.336
299.338
299.341
299.345
299.35
299.355
299.362
299.368
299.375
299.382
299.389
299.395
299.401
299.407
299.413
299.418
299.422
299.426
299.429
299.431
299.432
299.433
299.433
299.432
299.43
299.428
299.426
299.423
299.42
299.418
299.415
299.413
299.412
299.411
299.41
299.41
299.411
299.412
299.413
299.413
299.414
299.415
299.415
299.414
299.413
299.412
299.41
299.407
299.405
299.402
299.399
299.396
299.393
299.39
299.388
299.385
299.382
299.38
299.377
299.375
299.373
299.372
299.371
299.371
299.371
299.371
299.372
299.372
299.373
299.373
299.373
299.373
299.373
299.372
299.372
299.37
299.369
299.367
299.365
299.363
299.361
299.358
299.356
299.353
299.35
299.346
299.343
299.338
299.333
299.327
299.32
299.311
299.3
299.29
299.281
299.277
299.282
299.303
299.346
299.416
299.521
299.666
299.855
300.093
300.382
300.722
301.106
301.516
301.914
298.163
298.165
298.168
298.174
298.182
298.195
298.211
298.233
298.259
298.29
298.324
298.362
298.402
298.442
298.483
298.524
298.563
298.601
298.637
298.672
298.705
298.737
298.767
298.795
298.822
298.848
298.872
298.895
298.917
298.938
298.957
298.976
298.995
299.013
299.03
299.047
299.064
299.08
299.095
299.11
299.124
299.137
299.149
299.16
299.171
299.18
299.189
299.197
299.204
299.211
299.218
299.224
299.231
299.238
299.245
299.252
299.259
299.266
299.272
299.279
299.285
299.29
299.295
299.3
299.304
299.309
299.313
299.317
299.322
299.326
299.331
299.336
299.34
299.345
299.348
299.352
299.354
299.356
299.357
299.358
299.357
299.356
299.354
299.351
299.348
299.344
299.341
299.339
299.337
299.335
299.335
299.336
299.338
299.341
299.345
299.35
299.356
299.362
299.369
299.376
299.382
299.389
299.395
299.402
299.408
299.413
299.418
299.422
299.426
299.429
299.431
299.433
299.433
299.433
299.432
299.431
299.429
299.426
299.424
299.421
299.418
299.416
299.414
299.412
299.411
299.411
299.411
299.411
299.412
299.413
299.414
299.415
299.415
299.415
299.415
299.414
299.412
299.41
299.408
299.405
299.402
299.4
299.397
299.394
299.391
299.388
299.385
299.383
299.38
299.378
299.375
299.374
299.372
299.372
299.371
299.371
299.372
299.372
299.373
299.373
299.374
299.374
299.374
299.373
299.373
299.372
299.371
299.369
299.368
299.366
299.363
299.361
299.359
299.356
299.353
299.35
299.347
299.343
299.339
299.334
299.328
299.32
299.311
299.301
299.29
299.281
299.277
299.282
299.304
299.346
299.417
299.522
299.666
299.856
300.094
300.383
300.723
301.107
301.518
301.916
298.162
298.163
298.166
298.17
298.177
298.186
298.2
298.217
298.239
298.264
298.292
298.323
298.355
298.387
298.42
298.452
298.484
298.514
298.543
298.571
298.597
298.622
298.646
298.668
298.689
298.709
298.727
298.745
298.761
298.777
298.792
298.807
298.821
298.835
298.848
298.861
298.874
298.886
298.898
298.909
298.92
298.929
298.938
298.947
298.954
298.961
298.967
298.973
298.979
298.984
298.989
298.994
298.999
299.005
299.011
299.017
299.023
299.028
299.034
299.039
299.044
299.049
299.053
299.057
299.061
299.065
299.069
299.073
299.077
299.081
299.085
299.09
299.094
299.097
299.101
299.104
299.106
299.107
299.107
299.107
299.106
299.104
299.101
299.098
299.095
299.092
299.089
299.087
299.085
299.084
299.084
299.085
299.087
299.091
299.095
299.099
299.105
299.11
299.116
299.122
299.128
299.134
299.139
299.144
299.149
299.153
299.157
299.161
299.163
299.165
299.166
299.167
299.166
299.165
299.164
299.162
299.159
299.157
299.154
299.151
299.149
299.146
299.145
299.143
299.143
299.142
299.143
299.143
299.144
299.145
299.146
299.147
299.148
299.147
299.147
299.146
299.144
299.142
299.14
299.138
299.135
299.133
299.13
299.128
299.125
299.123
299.121
299.118
299.116
299.114
299.113
299.112
299.111
299.111
299.111
299.111
299.112
299.112
299.113
299.114
299.114
299.114
299.114
299.114
299.113
299.112
299.111
299.109
299.108
299.106
299.103
299.101
299.098
299.096
299.093
299.09
299.087
299.083
299.078
299.073
299.066
299.057
299.048
299.037
299.027
299.02
299.02
299.032
299.063
299.118
299.203
299.323
299.483
299.687
299.937
300.235
300.577
300.956
301.353
301.729
298.162
298.163
298.166
298.17
298.177
298.186
298.2
298.217
298.239
298.264
298.292
298.323
298.355
298.387
298.42
298.452
298.484
298.514
298.543
298.571
298.597
298.622
298.646
298.668
298.689
298.709
298.727
298.745
298.761
298.777
298.792
298.807
298.821
298.835
298.848
298.861
298.874
298.886
298.898
298.909
298.92
298.93
298.939
298.947
298.955
298.961
298.968
298.974
298.979
298.984
298.989
298.994
299
299.005
299.011
299.017
299.023
299.029
299.034
299.04
299.045
299.049
299.054
299.057
299.061
299.065
299.069
299.073
299.077
299.081
299.086
299.09
299.094
299.098
299.101
299.104
299.106
299.107
299.108
299.107
299.106
299.104
299.102
299.099
299.095
299.092
299.089
299.087
299.085
299.084
299.085
299.086
299.088
299.091
299.095
299.1
299.105
299.111
299.116
299.122
299.128
299.134
299.139
299.145
299.149
299.154
299.158
299.161
299.163
299.165
299.167
299.167
299.167
299.166
299.164
299.162
299.16
299.157
299.154
299.151
299.149
299.147
299.145
299.144
299.143
299.143
299.143
299.144
299.145
299.146
299.147
299.148
299.148
299.148
299.147
299.146
299.145
299.143
299.141
299.138
299.136
299.133
299.131
299.128
299.126
299.123
299.121
299.119
299.117
299.115
299.113
299.112
299.111
299.111
299.111
299.111
299.112
299.113
299.113
299.114
299.114
299.115
299.114
299.114
299.113
299.112
299.111
299.11
299.108
299.106
299.104
299.101
299.099
299.096
299.093
299.09
299.087
299.083
299.079
299.073
299.066
299.058
299.048
299.038
299.028
299.021
299.02
299.033
299.063
299.119
299.204
299.324
299.484
299.688
299.938
300.236
300.578
300.958
301.354
301.731
298.161
298.162
298.164
298.168
298.173
298.181
298.192
298.207
298.225
298.246
298.269
298.293
298.319
298.345
298.37
298.396
298.42
298.444
298.466
298.488
298.508
298.528
298.546
298.563
298.579
298.594
298.607
298.62
298.633
298.644
298.656
298.666
298.677
298.687
298.697
298.707
298.716
298.725
298.734
298.742
298.75
298.757
298.764
298.77
298.775
298.78
298.784
298.788
298.792
298.796
298.8
298.804
298.809
298.813
298.818
298.823
298.828
298.833
298.837
298.842
298.846
298.849
298.853
298.856
298.859
298.863
298.866
298.87
298.873
298.877
298.881
298.885
298.888
298.892
298.895
298.897
298.898
298.899
298.899
298.898
298.896
298.894
298.891
298.888
298.885
298.882
298.88
298.878
298.876
298.876
298.876
298.878
298.88
298.883
298.886
298.891
298.895
298.9
298.905
298.91
298.915
298.919
298.924
298.928
298.932
298.935
298.938
298.94
298.942
298.943
298.943
298.943
298.942
298.941
298.939
298.937
298.934
298.931
298.929
298.926
298.924
298.922
298.921
298.92
298.919
298.919
298.92
298.921
298.922
298.923
298.924
298.925
298.925
298.925
298.924
298.923
298.922
298.92
298.918
298.916
298.914
298.912
298.91
298.907
298.906
298.904
298.902
298.9
298.898
298.897
298.896
298.895
298.895
298.895
298.895
298.896
298.897
298.897
298.898
298.899
298.899
298.899
298.899
298.898
298.898
298.897
298.895
298.894
298.892
298.89
298.888
298.886
298.883
298.881
298.878
298.875
298.872
298.868
298.863
298.857
298.85
298.842
298.832
298.823
298.815
298.812
298.819
298.839
298.88
298.947
299.045
299.179
299.351
299.565
299.823
300.123
300.463
300.833
301.213
301.567
298.161
298.162
298.164
298.168
298.173
298.181
298.192
298.207
298.225
298.246
298.269
298.293
298.319
298.345
298.37
298.396
298.42
298.444
298.466
298.488
298.508
298.528
298.546
298.563
298.579
298.594
298.607
298.62
298.633
298.644
298.656
298.666
298.677
298.687
298.697
298.707
298.716
298.726
298.734
298.743
298.75
298.757
298.764
298.77
298.775
298.78
298.785
298.789
298.793
298.796
298.8
298.804
298.809
298.813
298.818
298.823
298.828
298.833
298.837
298.842
298.846
298.85
298.853
298.856
298.86
298.863
298.866
298.87
298.874
298.877
298.881
298.885
298.889
298.892
298.895
298.897
298.898
298.899
298.899
298.898
298.896
298.894
298.891
298.888
298.885
298.882
298.88
298.878
298.877
298.876
298.877
298.878
298.88
298.883
298.887
298.891
298.895
298.9
298.905
298.91
298.915
298.92
298.924
298.928
298.932
298.935
298.938
298.94
298.942
298.943
298.944
298.943
298.943
298.941
298.939
298.937
298.935
298.932
298.929
298.927
298.924
298.922
298.921
298.92
298.92
298.92
298.92
298.921
298.922
298.923
298.924
298.925
298.925
298.925
298.924
298.923
298.922
298.92
298.918
298.916
298.914
298.912
298.91
298.908
298.906
298.904
298.902
298.9
298.899
298.897
298.896
298.896
298.895
298.895
298.896
298.896
298.897
298.898
298.898
298.899
298.899
298.899
298.899
298.899
298.898
298.897
298.896
298.894
298.892
298.89
298.888
298.886
298.884
298.881
298.878
298.875
298.872
298.868
298.863
298.857
298.85
298.842
298.833
298.823
298.815
298.813
298.819
298.84
298.88
298.948
299.046
299.179
299.352
299.566
299.824
300.125
300.465
300.835
301.215
301.569
298.161
298.162
298.163
298.166
298.17
298.177
298.186
298.198
298.214
298.231
298.25
298.269
298.289
298.309
298.329
298.348
298.367
298.385
298.402
298.418
298.434
298.448
298.462
298.475
298.486
298.497
298.507
298.517
298.526
298.534
298.542
298.55
298.557
298.565
298.572
298.579
298.586
298.593
298.599
298.605
298.61
298.615
298.62
298.624
298.628
298.631
298.634
298.637
298.64
298.643
298.646
298.649
298.653
298.656
298.66
298.664
298.668
298.672
298.676
298.679
298.682
298.685
298.688
298.691
298.694
298.697
298.7
298.703
298.706
298.709
298.712
298.716
298.719
298.721
298.723
298.725
298.726
298.726
298.725
298.724
298.722
298.72
298.717
298.715
298.712
298.709
298.707
298.706
298.705
298.705
298.705
298.707
298.709
298.711
298.714
298.718
298.722
298.726
298.73
298.734
298.738
298.741
298.745
298.748
298.751
298.753
298.755
298.756
298.757
298.758
298.758
298.757
298.756
298.754
298.753
298.75
298.748