/*--------------------------------*- C++ -*----------------------------------*\
  =========                 |
  \\      /  F ield         | OpenFOAM: The Open Source CFD Toolbox
   \\    /   O peration     | Website:  https://openfoam.org
    \\  /    A nd           | Version:  8
     \\/     M anipulation  |
\*---------------------------------------------------------------------------*/
FoamFile
{
    version     2.0;
    format      ascii;
    class       volVectorField;
    location    "100";
    object      U;
}
// * * * * * * * * * * * * * * * * * * * * * * * * * * * * * * * * * * * * * //

dimensions      [0 1 -1 0 0 0 0];

internalField   nonuniform List<vector> 
46000
(
(0.103691 -0.000316439 -0.0979243)
(0.32296 -0.000276631 -0.184221)
(0.628454 -0.000168022 -0.201963)
(0.920403 -0.000109539 -0.190022)
(1.18242 -7.97938e-05 -0.164739)
(1.4038 -6.25543e-05 -0.134598)
(1.58153 -5.08214e-05 -0.104072)
(1.71726 -4.15376e-05 -0.0756579)
(1.81519 -3.35189e-05 -0.050723)
(1.88087 -2.65802e-05 -0.0299182)
(1.92031 -2.06829e-05 -0.013417)
(1.93946 -1.56071e-05 -0.00104486)
(1.94378 -1.09632e-05 0.00758906)
(1.93797 -6.70021e-06 0.0129695)
(1.92597 -3.18422e-06 0.0157274)
(1.91071 -8.6192e-07 0.0165608)
(1.89427 -1.47603e-07 0.0160851)
(1.87804 -9.4344e-07 0.0147962)
(1.86289 -2.50835e-06 0.0130648)
(1.84928 -3.76974e-06 0.0111584)
(1.8374 -3.96639e-06 0.00926373)
(1.82724 -3.00088e-06 0.00749818)
(1.81871 -1.26361e-06 0.00592079)
(1.81166 7.54779e-07 0.0045487)
(1.80596 2.68755e-06 0.00337493)
(1.80145 4.31406e-06 0.0023808)
(1.79802 5.49722e-06 0.00154256)
(1.79558 6.17597e-06 0.000836461)
(1.79403 6.4178e-06 0.000244333)
(1.79327 6.39941e-06 -0.000240754)
(1.79319 6.28417e-06 -0.000610849)
(1.79367 6.11857e-06 -0.000858921)
(1.79454 5.85323e-06 -0.000987984)
(1.79564 5.41692e-06 -0.00100587)
(1.79684 4.79656e-06 -0.000929029)
(1.79801 4.0983e-06 -0.000781979)
(1.79907 3.51908e-06 -0.000592975)
(1.79995 3.22967e-06 -0.000388376)
(1.80063 3.25869e-06 -0.000188905)
(1.80111 3.47847e-06 -9.55252e-06)
(1.80141 3.66672e-06 0.000138303)
(1.80155 3.63738e-06 0.000244497)
(1.8016 3.35937e-06 0.00030196)
(1.80161 2.87299e-06 0.000308994)
(1.80165 2.16661e-06 0.000267517)
(1.80178 1.24848e-06 0.000181379)
(1.80207 1.29594e-07 5.55473e-05)
(1.80257 -1.19851e-06 -0.000100761)
(1.80331 -2.64088e-06 -0.000271151)
(1.80431 -4.02855e-06 -0.000434147)
(1.80554 -5.21895e-06 -0.000566775)
(1.80693 -6.1391e-06 -0.000647463)
(1.8084 -6.77458e-06 -0.000658495)
(1.80984 -7.12071e-06 -0.000589522)
(1.81112 -7.14593e-06 -0.00044201)
(1.81215 -6.805e-06 -0.000232083)
(1.81285 -6.0881e-06 1.12776e-05)
(1.81321 -5.04947e-06 0.000253368)
(1.81324 -3.81551e-06 0.000460988)
(1.81301 -2.56706e-06 0.000612006)
(1.81261 -1.48159e-06 0.000700661)
(1.81213 -6.85049e-07 0.000732726)
(1.81163 -2.22122e-07 0.000719403)
(1.81117 -4.62687e-08 0.000673064)
(1.81078 -3.53356e-08 0.000605763)
(1.81049 -4.6898e-08 0.000529284)
(1.8103 2.01071e-08 0.000454999)
(1.81017 1.86302e-07 0.000392122)
(1.81007 4.15424e-07 0.00034635)
(1.80997 6.95108e-07 0.000321007)
(1.80982 1.05573e-06 0.000319342)
(1.80958 1.52314e-06 0.000342834)
(1.80922 2.07959e-06 0.000385792)
(1.80872 2.6776e-06 0.000432688)
(1.8081 3.27212e-06 0.000460898)
(1.80742 3.81551e-06 0.000447295)
(1.80676 4.23601e-06 0.000374448)
(1.80622 4.43704e-06 0.000232974)
(1.80594 4.34568e-06 1.98736e-05)
(1.80603 3.97812e-06 -0.000265553)
(1.80662 3.44122e-06 -0.00062226)
(1.80784 2.92227e-06 -0.0010423)
(1.80977 2.66574e-06 -0.0015065)
(1.81249 2.90803e-06 -0.0019866)
(1.81598 3.8242e-06 -0.00245474)
(1.82023 5.44334e-06 -0.00289204)
(1.82516 7.5231e-06 -0.00328445)
(1.83069 9.51668e-06 -0.0036079)
(1.83666 1.07769e-05 -0.00382179)
(1.84288 1.09138e-05 -0.00388449)
(1.84911 1.00149e-05 -0.00377907)
(1.85514 8.54977e-06 -0.00352621)
(1.86079 7.05956e-06 -0.00317621)
(1.86595 5.85293e-06 -0.00278748)
(1.8706 4.87913e-06 -0.00240117)
(1.8747 3.87857e-06 -0.00202683)
(1.87826 2.67367e-06 -0.00165485)
(1.88125 1.27402e-06 -0.00128278)
(1.88368 -2.46425e-07 -0.00092452)
(1.88559 -1.86481e-06 -0.000596837)
(1.88701 -3.56637e-06 -0.000305526)
(1.888 -5.23993e-06 -4.62344e-05)
(1.88859 -6.65617e-06 0.000185613)
(1.88881 -7.51745e-06 0.000388227)
(1.88873 -7.64448e-06 0.000554552)
(1.8884 -7.06696e-06 0.000681038)
(1.88789 -5.89296e-06 0.000771343)
(1.88724 -4.19167e-06 0.000827228)
(1.88651 -2.02028e-06 0.000835537)
(1.88577 2.9448e-07 0.000768156)
(1.88512 1.86514e-06 0.000612199)
(1.88464 1.62804e-06 0.000401008)
(1.88437 -4.64485e-07 0.000197518)
(1.88425 -3.12628e-06 4.68754e-05)
(1.88426 -5.03952e-06 -5.10524e-05)
(1.88435 -5.82246e-06 -0.000129834)
(1.88456 -5.82183e-06 -0.000222431)
(1.88493 -5.47529e-06 -0.000336542)
(1.88549 -4.86563e-06 -0.000451664)
(1.88622 -3.75907e-06 -0.000533425)
(1.88709 -1.84367e-06 -0.00055629)
(1.88801 1.07905e-06 -0.000521878)
(1.88893 4.93395e-06 -0.000464333)
(1.88984 9.1403e-06 -0.000432111)
(1.89074 1.23729e-05 -0.000441233)
(1.89162 1.2928e-05 -0.000438687)
(1.89235 9.92946e-06 -0.000333904)
(1.89278 4.34757e-06 -8.19961e-05)
(1.89275 -1.38971e-06 0.000271724)
(1.89221 -4.92102e-06 0.00063134)
(1.89122 -5.37696e-06 0.000921674)
(1.88988 -3.58521e-06 0.00111489)
(1.88832 -1.18778e-06 0.00120983)
(1.88664 3.05469e-07 0.00121486)
(1.88497 1.96163e-07 0.00114893)
(1.88337 -1.16763e-06 0.00104102)
(1.88191 -2.82038e-06 0.000920506)
(1.88058 -3.99643e-06 0.000809076)
(1.87938 -4.6086e-06 0.000717147)
(1.8783 -5.09383e-06 0.000643575)
(1.87732 -5.92973e-06 0.000580714)
(1.87644 -7.23131e-06 0.000522527)
(1.87564 -8.65788e-06 0.000468191)
(1.87493 -9.70289e-06 0.000417097)
(1.87429 -1.01172e-05 0.000362694)
(1.87374 -1.00826e-05 0.000296874)
(1.87328 -1.00016e-05 0.000221076)
(1.87294 -1.00885e-05 0.000148056)
(1.87268 -1.02195e-05 9.28153e-05)
(1.87248 -1.01735e-05 6.5801e-05)
(1.8723 -9.90225e-06 7.24877e-05)
(1.87211 -9.5275e-06 0.000112739)
(1.87184 -9.15269e-06 0.000178768)
(1.87146 -8.7529e-06 0.000258088)
(1.87096 -8.30387e-06 0.000342872)
(1.87031 -7.99458e-06 0.000436282)
(1.86948 -8.2074e-06 0.000546279)
(1.86844 -9.23157e-06 0.000672342)
(1.86717 -1.09537e-05 0.000800946)
(1.86567 -1.28242e-05 0.000914732)
(1.86398 -1.41622e-05 0.0010035)
(1.86212 -1.45192e-05 0.001066)
(1.86011 -1.38372e-05 0.00110472)
(1.858 -1.23937e-05 0.00112136)
(1.8558 -1.0655e-05 0.00111616)
(1.85355 -9.049e-06 0.0010906)
(1.85129 -7.74872e-06 0.00105103)
(1.84904 -6.67608e-06 0.00100856)
(1.84679 -5.66107e-06 0.000974147)
(1.84457 -4.5753e-06 0.000953548)
(1.84235 -3.37961e-06 0.000945859)
(1.84013 -2.11483e-06 0.000947308)
(1.83791 -8.54884e-07 0.00095811)
(1.83567 3.71477e-07 0.000984908)
(1.83337 1.56493e-06 0.00103513)
(1.83098 2.62919e-06 0.00111096)
(1.82846 3.33654e-06 0.00121003)
(1.82577 3.46415e-06 0.00132983)
(1.82287 2.95643e-06 0.00146939)
(1.81972 1.96071e-06 0.00162719)
(1.8163 7.17952e-07 0.00179923)
(1.8126 -5.7598e-07 0.00198241)
(1.80862 -1.7821e-06 0.00218384)
(1.80431 -2.71634e-06 0.00243392)
(1.79958 -3.1054e-06 0.00280237)
(1.79415 -2.69388e-06 0.00341897)
(1.78745 -1.45975e-06 0.00450002)
(1.77845 2.65138e-07 0.0063779)
(1.76543 2.06294e-06 0.00952694)
(1.74574 3.89023e-06 0.0145765)
(1.71561 6.00554e-06 0.0223007)
(1.67001 8.34813e-06 0.0335775)
(1.60261 1.04264e-05 0.0493127)
(1.50605 1.19736e-05 0.0703147)
(1.37231 1.30287e-05 0.0970947)
(1.19388 1.30792e-05 0.129408)
(0.964566 1.06427e-05 0.165326)
(0.687505 3.68337e-06 0.19731)
(0.363737 -1.25524e-05 0.203309)
(0.11955 -5.29695e-05 0.127324)
(0.103578 -0.000316308 -0.0980532)
(0.323071 -0.000276566 -0.184324)
(0.628789 -0.000167988 -0.202085)
(0.920791 -0.000109518 -0.190139)
(1.18285 -7.9779e-05 -0.164837)
(1.40427 -6.25428e-05 -0.134676)
(1.58204 -5.08118e-05 -0.104132)
(1.71781 -4.15291e-05 -0.0757072)
(1.81577 -3.35115e-05 -0.0507661)
(1.88148 -2.65739e-05 -0.0299605)
(1.92096 -2.06776e-05 -0.0134642)
(1.94016 -1.56027e-05 -0.00110004)
(1.94455 -1.09601e-05 0.00753506)
(1.93879 -6.69817e-06 0.0129388)
(1.92681 -3.18323e-06 0.0157417)
(1.91151 -8.61653e-07 0.016623)
(1.895 -1.47559e-07 0.0161681)
(1.87871 -9.43176e-07 0.0148545)
(1.86355 -2.50766e-06 0.0130619)
(1.85 -3.76865e-06 0.0110886)
(1.83823 -3.96513e-06 0.00915152)
(1.82821 -2.99983e-06 0.00737837)
(1.8198 -1.26313e-06 0.00581907)
(1.81284 7.54472e-07 0.00447548)
(1.8072 2.68642e-06 0.00333058)
(1.80273 4.31219e-06 0.0023624)
(1.79931 5.49483e-06 0.00154566)
(1.79686 6.17331e-06 0.000853626)
(1.7953 6.41507e-06 0.000265923)
(1.79453 6.39673e-06 -0.000222446)
(1.79445 6.28156e-06 -0.000597984)
(1.79492 6.11606e-06 -0.00084856)
(1.79578 5.85085e-06 -0.000976049)
(1.79688 5.41474e-06 -0.000991434)
(1.79806 4.79465e-06 -0.000916097)
(1.79923 4.09666e-06 -0.000777279)
(1.80029 3.51765e-06 -0.000600471)
(1.80118 3.22835e-06 -0.000404625)
(1.80189 3.25734e-06 -0.00020389)
(1.80237 3.47703e-06 -1.30014e-05)
(1.80266 3.66522e-06 0.000150504)
(1.80278 3.63589e-06 0.000269079)
(1.8028 3.35802e-06 0.00033284)
(1.80277 2.87186e-06 0.00034247)
(1.80277 2.16579e-06 0.000303326)
(1.80285 1.24804e-06 0.000220922)
(1.80308 1.2955e-07 9.8718e-05)
(1.80352 -1.19813e-06 -5.73343e-05)
(1.80421 -2.64008e-06 -0.000232267)
(1.80515 -4.02737e-06 -0.000403056)
(1.80633 -5.21747e-06 -0.000543682)
(1.80769 -6.1374e-06 -0.000630653)
(1.80913 -6.77276e-06 -0.000646662)
(1.81054 -7.11882e-06 -0.000583072)
(1.81181 -7.14404e-06 -0.000442297)
(1.81283 -6.8032e-06 -0.000239387)
(1.81354 -6.08648e-06 -7.26796e-07)
(1.8139 -5.04811e-06 0.000241411)
(1.81394 -3.81449e-06 0.000454616)
(1.81371 -2.56638e-06 0.000615396)
(1.8133 -1.4812e-06 0.000715187)
(1.81279 -6.84873e-07 0.000756586)
(1.81226 -2.22067e-07 0.000747976)
(1.81176 -4.62577e-08 0.000700175)
(1.81135 -3.53274e-08 0.000625939)
(1.81105 -4.68873e-08 0.000540208)
(1.81085 2.01026e-08 0.000458304)
(1.81072 1.8626e-07 0.000391135)
(1.81062 4.1533e-07 0.000342601)
(1.81053 6.9495e-07 0.000313652)
(1.81039 1.05549e-06 0.000307874)
(1.81017 1.52278e-06 0.000328965)
(1.80982 2.0791e-06 0.000372193)
(1.80934 2.67695e-06 0.000420991)
(1.80874 3.27131e-06 0.000451701)
(1.80808 3.81455e-06 0.000441498)
(1.80743 4.23494e-06 0.000373565)
(1.80691 4.43591e-06 0.00023765)
(1.80662 4.34456e-06 2.80125e-05)
(1.80671 3.9771e-06 -0.000259218)
(1.80731 3.44032e-06 -0.0006248)
(1.80855 2.92149e-06 -0.00106013)
(1.81052 2.66498e-06 -0.00154324)
(1.8133 2.90714e-06 -0.00204178)
(1.81688 3.82295e-06 -0.00252179)
(1.82121 5.44144e-06 -0.00295586)
(1.82622 7.52038e-06 -0.00332365)
(1.83178 9.51325e-06 -0.00360545)
(1.83774 1.07732e-05 -0.00377787)
(1.84392 1.09102e-05 -0.00381932)
(1.85011 1.00117e-05 -0.00372136)
(1.85611 8.547e-06 -0.00349611)
(1.86176 7.05723e-06 -0.00317469)
(1.86694 5.85096e-06 -0.00279859)
(1.8716 4.87748e-06 -0.0024056)
(1.8757 3.87726e-06 -0.00201608)
(1.87923 2.67279e-06 -0.00163314)
(1.8822 1.27361e-06 -0.00125771)
(1.8846 -2.46347e-07 -0.000899401)
(1.88647 -1.86423e-06 -0.000572482)
(1.88787 -3.56528e-06 -0.000285958)
(1.88883 -5.23834e-06 -3.98615e-05)
(1.88941 -6.65411e-06 0.000170943)
(1.88966 -7.51508e-06 0.000351441)
(1.88961 -7.64205e-06 0.000502623)
(1.88934 -7.06463e-06 0.000623615)
(1.88887 -5.89095e-06 0.000714892)
(1.88827 -4.1902e-06 0.000777099)
(1.88758 -2.01955e-06 0.00080713)
(1.88685 2.94375e-07 0.000791625)
(1.88614 1.86449e-06 0.00070712)
(1.88554 1.62752e-06 0.000537023)
(1.88514 -4.64352e-07 0.000301967)
(1.88497 -3.12544e-06 6.74643e-05)
(1.885 -5.03811e-06 -0.000104827)
(1.88515 -5.82073e-06 -0.000210276)
(1.88541 -5.82003e-06 -0.000292252)
(1.88582 -5.47355e-06 -0.000390841)
(1.88641 -4.86403e-06 -0.000505944)
(1.8872 -3.75777e-06 -0.000602629)
(1.88814 -1.843e-06 -0.000643316)
(1.88916 1.07863e-06 -0.000613654)
(1.89018 4.932e-06 -0.000526848)
(1.89113 9.13681e-06 -0.000411084)
(1.89196 1.23687e-05 -0.00029062)
(1.89264 1.29245e-05 -0.000172376)
(1.89311 9.92734e-06 -4.73961e-05)
(1.89334 4.34671e-06 9.73336e-05)
(1.89327 -1.38941e-06 0.000270214)
(1.89286 -4.91981e-06 0.000473586)
(1.89209 -5.37532e-06 0.000702386)
(1.89095 -3.58389e-06 0.000935441)
(1.88949 -1.18729e-06 0.0011295)
(1.8878 3.0534e-07 0.00123365)
(1.88604 1.96083e-07 0.00121967)
(1.88436 -1.16717e-06 0.00110443)
(1.88284 -2.81934e-06 0.000943498)
(1.8815 -3.995e-06 0.000798403)
(1.88031 -4.60697e-06 0.000702166)
(1.87922 -5.09206e-06 0.000648216)
(1.8782 -5.92775e-06 0.000606538)
(1.87727 -7.22904e-06 0.00055093)
(1.87643 -8.6553e-06 0.000477741)
(1.87571 -9.70013e-06 0.000402175)
(1.87507 -1.01144e-05 0.000337652)
(1.87452 -1.00798e-05 0.000281803)
(1.87405 -9.99896e-06 0.000222839)
(1.87367 -1.00859e-05 0.000156783)
(1.87339 -1.0217e-05 9.66152e-05)
(1.87318 -1.01711e-05 6.43346e-05)
(1.87299 -9.89991e-06 7.37213e-05)
(1.87277 -9.52531e-06 0.000120071)
(1.87248 -9.15064e-06 0.000186756)
(1.87209 -8.75099e-06 0.000262763)
(1.87157 -8.3021e-06 0.000352723)
(1.87089 -7.99294e-06 0.000467505)
(1.86999 -8.20583e-06 0.000604997)
(1.86886 -9.22999e-06 0.000742592)
(1.86751 -1.0952e-05 0.000851907)
(1.86597 -1.28225e-05 0.000921175)
(1.86428 -1.41603e-05 0.000961031)
(1.86246 -1.45171e-05 0.000990521)
(1.86051 -1.3835e-05 0.00102159)
(1.85844 -1.23916e-05 0.00105402)
(1.85627 -1.06532e-05 0.00107757)
(1.85402 -9.04742e-06 0.00107968)
(1.85174 -7.74743e-06 0.00105709)
(1.84946 -6.67503e-06 0.00101986)
(1.8472 -5.66024e-06 0.000983283)
(1.84497 -4.57467e-06 0.000957773)
(1.84274 -3.37916e-06 0.000945751)
(1.84053 -2.11455e-06 0.000945337)
(1.83832 -8.54772e-07 0.00095662)
(1.83608 3.71428e-07 0.000985507)
(1.83379 1.56472e-06 0.00104098)
(1.83141 2.62883e-06 0.00112808)
(1.82887 3.3361e-06 0.00124377)
(1.82613 3.46372e-06 0.00137917)
(1.82317 2.95609e-06 0.00152526)
(1.81997 1.9605e-06 0.00167698)
(1.81651 7.17881e-07 0.00183371)
(1.81278 -5.75925e-07 0.00199938)
(1.80878 -1.78193e-06 0.00218631)
(1.80447 -2.71606e-06 0.00242584)
(1.79975 -3.10506e-06 0.00278602)
(1.79433 -2.69356e-06 0.0033955)
(1.78766 -1.45956e-06 0.00447209)
(1.7787 2.65101e-07 0.00635088)
(1.7657 2.06263e-06 0.00950675)
(1.74604 3.8896e-06 0.0145663)
(1.71592 6.00454e-06 0.0223005)
(1.67032 8.3467e-06 0.0335869)
(1.60291 1.04246e-05 0.0493324)
(1.50633 1.19715e-05 0.0703456)
(1.37255 1.30265e-05 0.0971372)
(1.19407 1.30771e-05 0.129461)
(0.964693 1.06411e-05 0.165386)
(0.687557 3.68286e-06 0.197372)
(0.363721 -1.25509e-05 0.203351)
(0.11952 -5.29677e-05 0.127285)
(0.18044 -5.4025e-05 -0.347154)
(0.419422 -7.61539e-05 -0.438653)
(0.696743 -6.30043e-05 -0.450425)
(0.948173 -4.92624e-05 -0.41926)
(1.17271 -3.83863e-05 -0.365605)
(1.36383 -3.10571e-05 -0.302757)
(1.51963 -2.58498e-05 -0.239021)
(1.64119 -2.16969e-05 -0.17955)
(1.73164 -1.80938e-05 -0.127279)
(1.79523 -1.47605e-05 -0.0835776)
(1.83665 -1.15222e-05 -0.048729)
(1.86056 -8.31961e-06 -0.02228)
(1.87131 -5.28086e-06 -0.00331223)
(1.8725 -3.16876e-06 0.00932516)
(1.86744 -2.41389e-06 0.0169519)
(1.85863 -2.51149e-06 0.0208852)
(1.84795 -2.85466e-06 0.0222217)
(1.83672 -2.76363e-06 0.0218435)
(1.82578 -1.92388e-06 0.0204241)
(1.81566 -5.1405e-07 0.0184582)
(1.8066 1.00923e-06 0.0162869)
(1.7987 2.27748e-06 0.0141186)
(1.79196 3.1813e-06 0.0120574)
(1.78633 3.78455e-06 0.0101403)
(1.78178 4.16612e-06 0.00836927)
(1.77821 4.34896e-06 0.00673228)
(1.77558 4.34429e-06 0.00521441)
(1.77381 4.22476e-06 0.00380665)
(1.77282 4.10417e-06 0.00251338)
(1.77252 4.05285e-06 0.00135795)
(1.77279 4.03929e-06 0.000379583)
(1.77352 3.94819e-06 -0.000388933)
(1.77459 3.69132e-06 -0.00093333)
(1.77587 3.28221e-06 -0.0012564)
(1.77726 2.83439e-06 -0.00138034)
(1.77863 2.50152e-06 -0.00134292)
(1.77992 2.36704e-06 -0.0011894)
(1.78107 2.374e-06 -0.000964077)
(1.78203 2.36309e-06 -0.000705746)
(1.78281 2.19311e-06 -0.000448097)
(1.78342 1.82315e-06 -0.000221785)
(1.78388 1.3332e-06 -5.41716e-05)
(1.78425 8.44847e-07 3.38978e-05)
(1.7846 3.53364e-07 3.0593e-05)
(1.78498 -2.78906e-07 -6.8864e-05)
(1.78545 -1.10944e-06 -0.000264756)
(1.78609 -2.06626e-06 -0.000549421)
(1.78692 -3.04997e-06 -0.000901424)
(1.78797 -3.94099e-06 -0.00128477)
(1.78924 -4.6477e-06 -0.00165354)
(1.7907 -5.1525e-06 -0.00195822)
(1.79227 -5.476e-06 -0.00215141)
(1.79389 -5.62395e-06 -0.00219439)
(1.79544 -5.56542e-06 -0.00206618)
(1.79683 -5.26074e-06 -0.00177259)
(1.79798 -4.71111e-06 -0.00134997)
(1.79882 -3.98398e-06 -0.000859351)
(1.79936 -3.1921e-06 -0.000372096)
(1.79959 -2.46738e-06 4.66885e-05)
(1.7996 -1.89918e-06 0.000355522)
(1.79945 -1.50974e-06 0.000541602)
(1.79922 -1.27853e-06 0.000612191)
(1.79899 -1.14071e-06 0.000586938)
(1.79881 -1.01271e-06 0.000492681)
(1.79872 -8.24073e-07 0.000360417)
(1.79872 -5.60045e-07 0.000222912)
(1.79878 -2.54302e-07 0.000111333)
(1.79888 5.55284e-08 4.93338e-05)
(1.79895 3.68346e-07 4.96865e-05)
(1.79896 7.22255e-07 0.00011643)
(1.79887 1.12999e-06 0.0002487)
(1.79864 1.56429e-06 0.00043738)
(1.79826 1.99024e-06 0.000657433)
(1.79774 2.3866e-06 0.000867327)
(1.79713 2.73668e-06 0.00101644)
(1.79649 3.00226e-06 0.00105613)
(1.79588 3.13155e-06 0.00094819)
(1.79541 3.09558e-06 0.000666516)
(1.79518 2.92324e-06 0.000192289)
(1.7953 2.72052e-06 -0.000484762)
(1.79588 2.62255e-06 -0.00135819)
(1.79704 2.74908e-06 -0.00240083)
(1.79884 3.18941e-06 -0.00356216)
(1.80133 3.96858e-06 -0.00477369)
(1.8045 5.01135e-06 -0.00596585)
(1.80832 6.09137e-06 -0.00708072)
(1.81271 6.8589e-06 -0.00806611)
(1.81757 7.02055e-06 -0.00885937)
(1.82275 6.55443e-06 -0.00938741)
(1.82812 5.74105e-06 -0.00959367)
(1.83351 4.95714e-06 -0.00946911)
(1.83878 4.4162e-06 -0.0090592)
(1.84383 4.0548e-06 -0.00844462)
(1.84854 3.61998e-06 -0.00771011)
(1.85283 2.88966e-06 -0.00691475)
(1.85666 1.85934e-06 -0.00608175)
(1.85998 7.07113e-07 -0.00522014)
(1.86279 -4.15892e-07 -0.00435294)
(1.8651 -1.49202e-06 -0.00351635)
(1.86694 -2.5386e-06 -0.00273721)
(1.86834 -3.47306e-06 -0.00202175)
(1.86935 -4.11828e-06 -0.00136585)
(1.86999 -4.31502e-06 -0.000771199)
(1.8703 -4.04445e-06 -0.000251483)
(1.87034 -3.47949e-06 0.000177478)
(1.87017 -2.77046e-06 0.000511868)
(1.86983 -1.95161e-06 0.000758721)
(1.86938 -1.08589e-06 0.000923078)
(1.86887 -4.01257e-07 0.000995034)
(1.86834 -3.41607e-07 0.000953225)
(1.86782 -1.18818e-06 0.00079843)
(1.86735 -2.52279e-06 0.000578818)
(1.86695 -3.37591e-06 0.000362431)
(1.86664 -3.22721e-06 0.000186485)
(1.86645 -2.49269e-06 3.666e-05)
(1.86642 -1.85348e-06 -0.000132294)
(1.86657 -1.58367e-06 -0.000354794)
(1.86691 -1.41873e-06 -0.000628884)
(1.86744 -8.88491e-07 -0.000918634)
(1.86814 2.50439e-07 -0.00117351)
(1.869 1.9307e-06 -0.00135526)
(1.86996 3.82925e-06 -0.00145536)
(1.87098 5.34837e-06 -0.001494)
(1.87199 5.64987e-06 -0.00149486)
(1.87291 4.08277e-06 -0.00144133)
(1.87363 9.46343e-07 -0.00125951)
(1.87409 -2.28152e-06 -0.000871593)
(1.87422 -3.78215e-06 -0.000279601)
(1.87402 -2.97651e-06 0.000420202)
(1.87349 -8.27562e-07 0.00110335)
(1.87268 1.22503e-06 0.00168141)
(1.87161 2.10354e-06 0.00211254)
(1.87035 1.55183e-06 0.00237963)
(1.86897 5.96648e-08 0.00248294)
(1.86754 -1.51156e-06 0.00244738)
(1.86611 -2.44886e-06 0.00231688)
(1.86475 -2.61912e-06 0.00213701)
(1.86348 -2.45961e-06 0.00194338)
(1.86232 -2.54472e-06 0.0017569)
(1.8613 -3.15565e-06 0.00158393)
(1.86039 -4.14479e-06 0.00142343)
(1.8596 -5.09476e-06 0.0012756)
(1.85891 -5.64371e-06 0.00114265)
(1.85829 -5.77007e-06 0.001021)
(1.85773 -5.78291e-06 0.000897286)
(1.85723 -6.00094e-06 0.000759466)
(1.85679 -6.43677e-06 0.000611254)
(1.85641 -6.82063e-06 0.000470859)
(1.85609 -6.93902e-06 0.000358975)
(1.85581 -6.85126e-06 0.000293123)
(1.85556 -6.74196e-06 0.00028762)
(1.85532 -6.66742e-06 0.000349728)
(1.85503 -6.5456e-06 0.000474973)
(1.85466 -6.37411e-06 0.000651499)
(1.85415 -6.36129e-06 0.000871965)
(1.85348 -6.75974e-06 0.00113869)
(1.85261 -7.57152e-06 0.00145324)
(1.85152 -8.47223e-06 0.00180232)
(1.85021 -9.03541e-06 0.00215863)
(1.84869 -9.02718e-06 0.00249597)
(1.84699 -8.50134e-06 0.00279992)
(1.84512 -7.67073e-06 0.00306529)
(1.84311 -6.76511e-06 0.00328853)
(1.841 -5.97966e-06 0.0034649)
(1.83881 -5.42548e-06 0.00359036)
(1.83656 -5.05023e-06 0.00366565)
(1.8343 -4.66879e-06 0.00369937)
(1.83202 -4.1242e-06 0.00370577)
(1.82973 -3.3922e-06 0.00369868)
(1.82745 -2.55547e-06 0.00368717)
(1.82518 -1.72217e-06 0.00367597)
(1.82289 -9.57343e-07 0.00367048)
(1.82058 -2.63832e-07 0.00368336)
(1.81821 3.5909e-07 0.00373388)
(1.81576 8.21169e-07 0.00383889)
(1.81318 9.60585e-07 0.00400644)
(1.81044 6.92946e-07 0.0042381)
(1.8075 1.02838e-07 0.00453287)
(1.80434 -6.16213e-07 0.00488602)
(1.80092 -1.27649e-06 0.0052844)
(1.79726 -1.75794e-06 0.0057069)
(1.79338 -2.02425e-06 0.00613702)
(1.78931 -2.1316e-06 0.00658826)
(1.78508 -2.1625e-06 0.0071401)
(1.78063 -2.05105e-06 0.00798489)
(1.77576 -1.56163e-06 0.00948871)
(1.76995 -6.06513e-07 0.0122634)
(1.76215 5.36689e-07 0.0172333)
(1.7506 1.56259e-06 0.025673)
(1.73257 2.52775e-06 0.0391926)
(1.70417 3.56422e-06 0.0596448)
(1.6603 4.43504e-06 0.0889402)
(1.59479 4.8427e-06 0.128765)
(1.50078 4.95402e-06 0.180181)
(1.37145 5.17634e-06 0.243051)
(1.20155 5.67323e-06 0.315003)
(0.988119 6.6212e-06 0.389559)
(0.736971 8.63821e-06 0.451464)
(0.445673 4.96671e-06 0.468403)
(0.195185 -3.14339e-05 0.378316)
(0.180339 -5.40088e-05 -0.347647)
(0.419464 -7.61599e-05 -0.439003)
(0.696969 -6.30105e-05 -0.450715)
(0.9485 -4.92634e-05 -0.419496)
(1.1731 -3.83839e-05 -0.365791)
(1.36426 -3.10529e-05 -0.302904)
(1.52008 -2.58446e-05 -0.239139)
(1.64166 -2.16914e-05 -0.179649)
(1.73213 -1.80884e-05 -0.127369)
(1.79574 -1.47555e-05 -0.0836666)
(1.83719 -1.15179e-05 -0.0488246)
(1.86113 -8.3162e-06 -0.0223832)
(1.87192 -5.27861e-06 -0.0034084)
(1.87315 -3.1674e-06 0.00926406)
(1.86811 -2.41282e-06 0.0169483)
(1.85933 -2.51034e-06 0.0209336)
(1.84868 -2.85333e-06 0.0222824)
(1.83747 -2.76235e-06 0.0218626)
(1.82658 -1.92298e-06 0.0203675)
(1.81649 -5.1381e-07 0.0183308)
(1.80745 1.00876e-06 0.0161237)
(1.79958 2.27641e-06 0.013959)
(1.79286 3.1798e-06 0.0119262)
(1.78726 3.78277e-06 0.0100452)
(1.78273 4.16417e-06 0.00830983)
(1.7792 4.34693e-06 0.00670576)
(1.77659 4.34228e-06 0.00521506)
(1.77484 4.22282e-06 0.00382352)
(1.77387 4.1023e-06 0.00253345)
(1.77358 4.05101e-06 0.00137301)
(1.77387 4.03745e-06 0.000389891)
(1.77462 3.94639e-06 -0.000377557)
(1.77569 3.68964e-06 -0.000915801)
(1.77698 3.28072e-06 -0.00123356)
(1.77835 2.8331e-06 -0.0013597)
(1.77973 2.50037e-06 -0.00133382)
(1.78101 2.36594e-06 -0.00119512)
(1.78215 2.37289e-06 -0.000977268)
(1.78311 2.36198e-06 -0.00071225)
(1.78388 2.19209e-06 -0.000436565)
(1.78447 1.82231e-06 -0.000190329)
(1.78492 1.33259e-06 -8.71151e-06)
(1.78528 8.44459e-07 8.67705e-05)
(1.7856 3.53203e-07 8.90942e-05)
(1.78595 -2.78782e-07 -2.04955e-06)
(1.78639 -1.10897e-06 -0.000187226)
(1.78698 -2.0654e-06 -0.000463574)
(1.78777 -3.04872e-06 -0.000814575)
(1.78877 -3.93941e-06 -0.00120513)
(1.78999 -4.64587e-06 -0.00158588)
(1.79139 -5.15051e-06 -0.00190285)
(1.79293 -5.47393e-06 -0.00210673)
(1.7945 -5.62185e-06 -0.00216013)
(1.79602 -5.56337e-06 -0.00204421)
(1.79739 -5.25881e-06 -0.00176491)
(1.79852 -4.70939e-06 -0.00135568)
(1.79936 -3.98252e-06 -0.000873289)
(1.79989 -3.19094e-06 -0.000386039)
(1.80013 -2.46649e-06 4.10307e-05)
(1.80014 -1.8985e-06 0.000363657)
(1.79999 -1.50919e-06 0.000564815)
(1.79976 -1.27807e-06 0.0006473)
(1.79952 -1.1403e-06 0.000627008)
(1.79934 -1.01234e-06 0.000529065)
(1.79924 -8.2378e-07 0.000386128)
(1.79923 -5.59847e-07 0.00023581)
(1.79929 -2.54212e-07 0.000114516)
(1.79939 5.55088e-08 4.73677e-05)
(1.79946 3.68216e-07 4.40408e-05)
(1.79948 7.22e-07 0.000105529)
(1.79938 1.12959e-06 0.000231649)
(1.79916 1.56374e-06 0.000415772)
(1.7988 1.98953e-06 0.000633566)
(1.7983 2.38574e-06 0.000842619)
(1.79771 2.73569e-06 0.000992437)
(1.79708 3.00117e-06 0.00103592)
(1.79649 3.1304e-06 0.000935373)
(1.79604 3.09444e-06 0.000662161)
(1.79582 2.92216e-06 0.000192475)
(1.79596 2.71951e-06 -0.000488638)
(1.79655 2.62156e-06 -0.00137653)
(1.79772 2.74802e-06 -0.00244212)
(1.79955 3.18815e-06 -0.00363053)
(1.80206 3.96697e-06 -0.00486749)
(1.80527 5.00927e-06 -0.00607498)
(1.80913 6.08879e-06 -0.00718394)
(1.81357 6.85599e-06 -0.00813572)
(1.81846 7.0176e-06 -0.00887606)
(1.82368 6.55169e-06 -0.00935496)
(1.82907 5.73864e-06 -0.00953847)
(1.83449 4.95504e-06 -0.00942342)
(1.83978 4.4143e-06 -0.00904153)
(1.84482 4.05303e-06 -0.00845076)
(1.84953 3.61839e-06 -0.00771972)
(1.85381 2.88841e-06 -0.00690862)
(1.85761 1.85855e-06 -0.00605553)
(1.86091 7.06816e-07 -0.00518184)
(1.8637 -4.15719e-07 -0.00431052)
(1.86599 -1.49141e-06 -0.00347199)
(1.8678 -2.53758e-06 -0.00269298)
(1.86918 -3.47167e-06 -0.00198614)
(1.87016 -4.11663e-06 -0.00135188)
(1.87078 -4.31329e-06 -0.000787837)
(1.87109 -4.04281e-06 -0.00029663)
(1.87113 -3.47813e-06 0.000115424)
(1.87096 -2.76938e-06 0.000445404)
(1.87063 -1.95085e-06 0.00069479)
(1.87019 -1.08547e-06 0.000867406)
(1.86969 -4.01101e-07 0.000965604)
(1.86916 -3.41474e-07 0.000982157)
(1.86866 -1.18771e-06 0.000900717)
(1.86819 -2.5218e-06 0.000715339)
(1.8678 -3.3746e-06 0.000459702)
(1.86748 -3.22598e-06 0.00020371)
(1.86728 -2.49174e-06 -4.54471e-06)
(1.86722 -1.85277e-06 -0.00018548)
(1.86733 -1.58307e-06 -0.000396239)
(1.86764 -1.4182e-06 -0.000667248)
(1.86817 -8.88161e-07 -0.000974775)
(1.86888 2.50345e-07 -0.00125936)
(1.86976 1.92997e-06 -0.00146603)
(1.87075 3.82779e-06 -0.00156806)
(1.8718 5.34636e-06 -0.00156465)
(1.87284 5.64784e-06 -0.00146565)
(1.87377 4.08138e-06 -0.00127758)
(1.87451 9.46034e-07 -0.000999625)
(1.87499 -2.28075e-06 -0.000631194)
(1.87516 -3.7807e-06 -0.000182504)
(1.87498 -2.9753e-06 0.000328659)
(1.87446 -8.27221e-07 0.000881017)
(1.87363 1.22452e-06 0.00144137)
(1.87254 2.10263e-06 0.00195501)
(1.87125 1.55115e-06 0.00234845)
(1.86984 5.96389e-08 0.00255682)
(1.86838 -1.51092e-06 0.00256125)
(1.86694 -2.44785e-06 0.00240539)
(1.86557 -2.61807e-06 0.00217425)
(1.8643 -2.45865e-06 0.00194845)
(1.86313 -2.54374e-06 0.00176659)
(1.86209 -3.15445e-06 0.00162089)
(1.86118 -4.14323e-06 0.00148238)
(1.86037 -5.09289e-06 0.00133173)
(1.85965 -5.6417e-06 0.0011739)
(1.85901 -5.76806e-06 0.00102669)
(1.85843 -5.78093e-06 0.000896966)
(1.85791 -5.99892e-06 0.000772715)
(1.85744 -6.43463e-06 0.000638593)
(1.85703 -6.81841e-06 0.000497059)
(1.85669 -6.9368e-06 0.000373696)
(1.8564 -6.8491e-06 0.000301968)
(1.85613 -6.73985e-06 0.000301522)
(1.85587 -6.66535e-06 0.000369449)
(1.85557 -6.54359e-06 0.000491926)
(1.85518 -6.37217e-06 0.000664147)
(1.85466 -6.35937e-06 0.000895791)
(1.85397 -6.75771e-06 0.0011939)
(1.85307 -7.56927e-06 0.00154174)
(1.85195 -8.46975e-06 0.00189884)
(1.85061 -9.03283e-06 0.00222615)
(1.84907 -9.02467e-06 0.00251093)
(1.84734 -8.49902e-06 0.00276502)
(1.84544 -7.66867e-06 0.00300296)
(1.84341 -6.76331e-06 0.00322658)
(1.84127 -5.97809e-06 0.00342492)
(1.83905 -5.42407e-06 0.00358039)
(1.8368 -5.04895e-06 0.003679)
(1.83452 -4.66763e-06 0.00372194)
(1.83224 -4.12319e-06 0.00372573)
(1.82996 -3.39139e-06 0.00371005)
(1.82769 -2.55486e-06 0.00368838)
(1.82543 -1.72176e-06 0.00366805)
(1.82315 -9.57114e-07 0.00365617)
(1.82086 -2.63768e-07 0.00366582)
(1.81851 3.59002e-07 0.00371744)
(1.81607 8.20962e-07 0.00383182)
(1.8135 9.60338e-07 0.00402)
(1.81075 6.92763e-07 0.00427931)
(1.8078 1.0281e-07 0.00459749)
(1.80461 -6.16047e-07 0.00495906)
(1.80117 -1.27615e-06 0.00534861)
(1.79748 -1.75746e-06 0.0057519)
(1.79357 -2.02371e-06 0.00616184)
(1.78947 -2.13103e-06 0.00659689)
(1.78522 -2.16191e-06 0.0071355)
(1.78075 -2.05049e-06 0.00796714)
(1.77587 -1.56119e-06 0.00945797)
(1.77006 -6.06344e-07 0.0122239)
(1.76227 5.36537e-07 0.0171936)
(1.75073 1.56214e-06 0.0256416)
(1.73272 2.527e-06 0.0391741)
(1.70433 3.56313e-06 0.0596416)
(1.66048 4.43367e-06 0.088955)
(1.59497 4.84118e-06 0.1288)
(1.50096 4.95246e-06 0.180239)
(1.37162 5.17473e-06 0.24313)
(1.2017 5.67149e-06 0.3151)
(0.988237 6.61921e-06 0.389667)
(0.737046 8.63562e-06 0.451576)
(0.445709 4.96524e-06 0.468483)
(0.195212 -3.143e-05 0.378294)
(0.171986 -6.87507e-05 -0.665055)
(0.400281 -4.70642e-05 -0.728734)
(0.649581 -3.87166e-05 -0.717752)
(0.867353 -3.22061e-05 -0.659492)
(1.05843 -2.62052e-05 -0.573923)
(1.21945 -2.1409e-05 -0.476434)
(1.35027 -1.7547e-05 -0.377939)
(1.45253 -1.44473e-05 -0.285769)
(1.52926 -1.1927e-05 -0.204329)
(1.58416 -9.75508e-06 -0.135793)
(1.62119 -7.62378e-06 -0.0807016)
(1.64414 -5.36153e-06 -0.03846)
(1.65643 -3.01938e-06 -0.00772038)
(1.661 -1.20726e-06 0.0131295)
(1.66022 -3.42283e-07 0.0259154)
(1.6562 -2.46655e-07 0.0326143)
(1.65041 -5.96504e-07 0.0349728)
(1.6439 -8.65777e-07 0.0344428)
(1.63734 -7.0298e-07 0.0321559)
(1.63112 -1.1685e-07 0.028942)
(1.62546 6.57627e-07 0.0253652)
(1.62045 1.40556e-06 0.0217683)
(1.61615 2.0439e-06 0.0183286)
(1.61257 2.58051e-06 0.0151188)
(1.6097 3.02178e-06 0.0121557)
(1.60752 3.33386e-06 0.00943223)
(1.60603 3.4923e-06 0.00693674)
(1.60516 3.53442e-06 0.00466525)
(1.60487 3.52465e-06 0.00263011)
(1.6051 3.529e-06 0.000867574)
(1.60575 3.55894e-06 -0.000581468)
(1.60675 3.51376e-06 -0.00169292)
(1.60802 3.31249e-06 -0.00245572)
(1.60947 2.97139e-06 -0.00287723)
(1.61102 2.56686e-06 -0.00299028)
(1.61258 2.20611e-06 -0.00284973)
(1.61408 1.96691e-06 -0.00252354)
(1.61548 1.84819e-06 -0.0020826)
(1.61673 1.7706e-06 -0.0015941)
(1.61782 1.64224e-06 -0.00111937)
(1.61877 1.43503e-06 -0.000713366)
(1.61961 1.16184e-06 -0.000422427)
(1.62038 7.9231e-07 -0.000280074)
(1.62113 3.0398e-07 -0.000304164)
(1.62194 -2.61176e-07 -0.000498505)
(1.62285 -9.40152e-07 -0.000854773)
(1.62392 -1.76556e-06 -0.00134896)
(1.62517 -2.6414e-06 -0.00193683)
(1.62662 -3.4551e-06 -0.00255525)
(1.62825 -4.12972e-06 -0.00312901)
(1.63001 -4.63806e-06 -0.00357965)
(1.63186 -4.98169e-06 -0.00383467)
(1.63372 -5.15484e-06 -0.00383869)
(1.6355 -5.13121e-06 -0.00356684)
(1.63712 -4.88454e-06 -0.00303601)
(1.63852 -4.41868e-06 -0.00230761)
(1.63966 -3.78438e-06 -0.0014779)
(1.64053 -3.06146e-06 -0.000657473)
(1.64114 -2.33409e-06 5.06223e-05)
(1.64154 -1.70981e-06 0.000570974)
(1.64181 -1.24977e-06 0.000873182)
(1.64201 -9.42457e-07 0.000968973)
(1.64222 -7.5598e-07 0.000896211)
(1.64248 -6.33515e-07 0.000709968)
(1.64281 -5.05382e-07 0.000474386)
(1.6432 -3.56035e-07 0.000251883)