/*--------------------------------*- C++ -*----------------------------------*\
  =========                 |
  \\      /  F ield         | OpenFOAM: The Open Source CFD Toolbox
   \\    /   O peration     | Website:  https://openfoam.org
    \\  /    A nd           | Version:  8
     \\/     M anipulation  |
\*---------------------------------------------------------------------------*/
FoamFile
{
    version     2.0;
    format      ascii;
    class       volScalarField;
    location    "3200";
    object      alphat;
}
// * * * * * * * * * * * * * * * * * * * * * * * * * * * * * * * * * * * * * //

dimensions      [1 -1 -1 0 0 0 0];

internalField   nonuniform List<scalar> 
46000
(
7.59864e-07
3.39222e-06
6.41534e-06
9.24619e-06
1.19241e-05
1.45175e-05
1.70555e-05
1.95444e-05
2.19984e-05
2.44261e-05
2.68379e-05
2.92356e-05
3.16104e-05
3.39706e-05
3.63178e-05
3.86522e-05
4.09729e-05
4.3279e-05
4.55689e-05
4.78409e-05
5.0093e-05
5.23229e-05
5.45285e-05
5.6707e-05
5.88561e-05
6.0973e-05
6.3055e-05
6.50994e-05
6.71035e-05
6.90643e-05
7.09793e-05
7.28457e-05
7.46609e-05
7.64221e-05
7.8127e-05
7.97731e-05
8.1358e-05
8.28795e-05
8.43355e-05
8.5724e-05
8.70432e-05
8.82913e-05
8.94668e-05
9.05683e-05
9.15947e-05
9.25448e-05
9.34177e-05
9.42128e-05
9.49295e-05
9.55676e-05
9.61267e-05
9.66069e-05
9.70085e-05
9.73318e-05
9.75773e-05
9.77458e-05
9.78381e-05
9.78554e-05
9.77989e-05
9.76701e-05
9.74708e-05
9.72035e-05
9.68723e-05
9.64769e-05
9.6018e-05
9.54972e-05
9.49167e-05
9.42787e-05
9.35855e-05
9.28396e-05
9.20435e-05
9.11996e-05
9.03105e-05
8.93789e-05
8.84074e-05
8.73986e-05
8.63552e-05
8.52798e-05
8.41751e-05
8.30436e-05
8.18879e-05
8.07106e-05
7.95141e-05
7.8301e-05
7.70736e-05
7.58342e-05
7.45852e-05
7.33287e-05
7.20669e-05
7.08017e-05
6.95353e-05
6.82694e-05
6.70059e-05
6.57464e-05
6.44927e-05
6.32462e-05
6.20084e-05
6.07806e-05
5.9564e-05
5.836e-05
5.71694e-05
5.59934e-05
5.48328e-05
5.36884e-05
5.2561e-05
5.14511e-05
5.03595e-05
4.92864e-05
4.82325e-05
4.71979e-05
4.6183e-05
4.5188e-05
4.4213e-05
4.3258e-05
4.23232e-05
4.14083e-05
4.05135e-05
3.96384e-05
3.8783e-05
3.79469e-05
3.713e-05
3.63318e-05
3.55522e-05
3.47906e-05
3.40467e-05
3.33201e-05
3.26103e-05
3.19168e-05
3.12392e-05
3.05769e-05
2.99295e-05
2.92964e-05
2.86771e-05
2.8071e-05
2.74777e-05
2.68965e-05
2.63269e-05
2.57684e-05
2.52204e-05
2.46824e-05
2.41539e-05
2.36343e-05
2.31232e-05
2.262e-05
2.2124e-05
2.1636e-05
2.1155e-05
2.06803e-05
2.02115e-05
1.97482e-05
1.929e-05
1.88365e-05
1.83875e-05
1.79425e-05
1.75014e-05
1.70639e-05
1.66297e-05
1.61986e-05
1.57704e-05
1.5345e-05
1.49221e-05
1.45018e-05
1.40838e-05
1.36681e-05
1.3256e-05
1.28468e-05
1.244e-05
1.20354e-05
1.16329e-05
1.12326e-05
1.08346e-05
1.04388e-05
1.00453e-05
9.65412e-06
9.2654e-06
8.87915e-06
8.49542e-06
8.11426e-06
7.73571e-06
7.3598e-06
6.98652e-06
6.61587e-06
6.24774e-06
5.88151e-06
5.51802e-06
5.15692e-06
4.79758e-06
4.44e-06
4.08364e-06
3.72793e-06
3.37206e-06
3.01499e-06
2.65677e-06
2.29648e-06
1.93047e-06
1.55536e-06
1.16719e-06
7.63374e-07
3.59021e-07
6.86628e-08
7.59911e-07
3.39236e-06
6.41551e-06
9.24637e-06
1.19243e-05
1.45177e-05
1.70556e-05
1.95445e-05
2.19985e-05
2.44263e-05
2.6838e-05
2.92358e-05
3.16105e-05
3.39707e-05
3.6318e-05
3.86523e-05
4.0973e-05
4.32791e-05
4.5569e-05
4.7841e-05
5.0093e-05
5.2323e-05
5.45285e-05
5.67071e-05
5.88561e-05
6.0973e-05
6.3055e-05
6.50994e-05
6.71035e-05
6.90643e-05
7.09793e-05
7.28457e-05
7.46608e-05
7.64221e-05
7.8127e-05
7.9773e-05
8.13579e-05
8.28794e-05
8.43354e-05
8.57239e-05
8.70431e-05
8.82912e-05
8.94667e-05
9.05682e-05
9.15946e-05
9.25446e-05
9.34176e-05
9.42127e-05
9.49294e-05
9.55674e-05
9.61265e-05
9.66068e-05
9.70084e-05
9.73316e-05
9.75772e-05
9.77456e-05
9.7838e-05
9.78553e-05
9.77987e-05
9.76699e-05
9.74706e-05
9.72033e-05
9.68722e-05
9.64767e-05
9.60178e-05
9.5497e-05
9.49165e-05
9.42785e-05
9.35854e-05
9.28395e-05
9.20433e-05
9.11994e-05
9.03103e-05
8.93788e-05
8.84073e-05
8.73985e-05
8.63551e-05
8.52797e-05
8.41749e-05
8.30434e-05
8.18877e-05
8.07104e-05
7.95139e-05
7.83008e-05
7.70734e-05
7.5834e-05
7.4585e-05
7.33285e-05
7.20667e-05
7.08016e-05
6.95351e-05
6.82692e-05
6.70057e-05
6.57463e-05
6.44925e-05
6.3246e-05
6.20082e-05
6.07804e-05
5.95639e-05
5.83598e-05
5.71693e-05
5.59933e-05
5.48326e-05
5.36883e-05
5.25608e-05
5.1451e-05
5.03593e-05
4.92863e-05
4.82324e-05
4.71978e-05
4.61829e-05
4.51879e-05
4.42129e-05
4.32579e-05
4.23231e-05
4.14082e-05
4.05134e-05
3.96383e-05
3.87828e-05
3.79468e-05
3.71299e-05
3.63317e-05
3.55521e-05
3.47905e-05
3.40466e-05
3.332e-05
3.26102e-05
3.19167e-05
3.12391e-05
3.05769e-05
2.99294e-05
2.92964e-05
2.8677e-05
2.8071e-05
2.74776e-05
2.68964e-05
2.63268e-05
2.57683e-05
2.52203e-05
2.46823e-05
2.41538e-05
2.36343e-05
2.31231e-05
2.262e-05
2.21239e-05
2.16359e-05
2.11549e-05
2.06802e-05
2.02114e-05
1.97481e-05
1.92899e-05
1.88365e-05
1.83874e-05
1.79425e-05
1.75014e-05
1.70638e-05
1.66296e-05
1.61985e-05
1.57703e-05
1.53449e-05
1.49221e-05
1.45017e-05
1.40837e-05
1.36681e-05
1.3256e-05
1.28468e-05
1.244e-05
1.20353e-05
1.16329e-05
1.12326e-05
1.08345e-05
1.04387e-05
1.00452e-05
9.6541e-06
9.26538e-06
8.87913e-06
8.4954e-06
8.11424e-06
7.73569e-06
7.35978e-06
6.98651e-06
6.61586e-06
6.24773e-06
5.8815e-06
5.51801e-06
5.15691e-06
4.79757e-06
4.43999e-06
4.08364e-06
3.72793e-06
3.37206e-06
3.01499e-06
2.65678e-06
2.29649e-06
1.93048e-06
1.55537e-06
1.1672e-06
7.63382e-07
3.59026e-07
6.86643e-08
3.11014e-06
4.04797e-05
7.07875e-05
9.15863e-05
0.0001076
0.000120815
0.000132136
0.000142228
0.000151451
0.000160014
0.000168054
0.000175674
0.000182951
0.000189931
0.000196649
0.000203132
0.000209402
0.000215477
0.000221368
0.000227087
0.000232643
0.000238041
0.000243287
0.000248384
0.000253335
0.000258143
0.000262809
0.000267333
0.000271717
0.000275959
0.000280061
0.000284022
0.000287841
0.000291517
0.00029505
0.00029844
0.000301684
0.000304782
0.000307735
0.000310539
0.000313196
0.000315705
0.000318064
0.000320274
0.000322334
0.000324244
0.000326005
0.000327616
0.000329078
0.000330391
0.000331556
0.000332574
0.000333445
0.000334172
0.000334754
0.000335195
0.000335495
0.000335656
0.00033568
0.000335568
0.000335324
0.000334946
0.000334437
0.0003338
0.000333041
0.000332164
0.000331171
0.000330068
0.000328857
0.000327541
0.000326125
0.000324612
0.000323006
0.00032131
0.00031953
0.000317668
0.000315728
0.000313715
0.000311633
0.000309484
0.000307275
0.000305007
0.000302686
0.000300315
0.000297899
0.00029544
0.000292943
0.000290411
0.000287848
0.000285258
0.000282644
0.000280009
0.000277357
0.000274692
0.000272015
0.000269331
0.000266641
0.00026395
0.000261259
0.000258572
0.00025589
0.000253216
0.000250552
0.000247901
0.000245264
0.000242643
0.00024004
0.000237457
0.000234894
0.000232353
0.000229836
0.000227344
0.000224877
0.000222437
0.000220023
0.000217637
0.000215279
0.00021295
0.00021065
0.000208378
0.000206136
0.000203922
0.000201737
0.00019958
0.000197451
0.00019535
0.000193276
0.000191228
0.000189206
0.000187209
0.000185236
0.000183286
0.000181358
0.000179451
0.000177564
0.000175696
0.000173846
0.000172012
0.000170194
0.000168389
0.000166597
0.000164817
0.000163046
0.000161286
0.000159534
0.000157788
0.000156046
0.000154308
0.000152572
0.000150837
0.000149101
0.000147364
0.000145624
0.000143879
0.000142129
0.000140373
0.000138608
0.000136835
0.000135052
0.000133257
0.00013145
0.00012963
0.000127794
0.000125939
0.000124056
0.000122154
0.000120233
0.000118293
0.000116331
0.000114348
0.000112342
0.000110312
0.000108257
0.000106175
0.000104065
0.000101925
9.97528e-05
9.75463e-05
9.53027e-05
9.30189e-05
9.0691e-05
8.83149e-05
8.58855e-05
8.33975e-05
8.08411e-05
7.82058e-05
7.54794e-05
7.26476e-05
6.96896e-05
6.65797e-05
6.32818e-05
5.97409e-05
5.58601e-05
5.15534e-05
4.66971e-05
4.10507e-05
3.41808e-05
2.51988e-05
1.22548e-05
3.23314e-07
3.11027e-06
4.04818e-05
7.07905e-05
9.15896e-05
0.000107604
0.000120819
0.000132139
0.000142232
0.000151455
0.000160018
0.000168058
0.000175677
0.000182955
0.000189935
0.000196653
0.000203136
0.000209407
0.000215481
0.000221372
0.000227092
0.000232647
0.000238046
0.000243291
0.000248389
0.00025334
0.000258148
0.000262814
0.000267338
0.000271722
0.000275964
0.000280066
0.000284027
0.000287846
0.000291523
0.000295056
0.000298445
0.000301689
0.000304788
0.00030774
0.000310545
0.000313202
0.00031571
0.00031807
0.000320279
0.00032234
0.00032425
0.000326011
0.000327622
0.000329084
0.000330397
0.000331562
0.00033258
0.000333451
0.000334178
0.00033476
0.000335201
0.000335501
0.000335661
0.000335685
0.000335574
0.000335329
0.000334952
0.000334442
0.000333805
0.000333047
0.000332169
0.000331177
0.000330073
0.000328862
0.000327546
0.00032613
0.000324617
0.000323011
0.000321316
0.000319535
0.000317673
0.000315733
0.00031372
0.000311638
0.000309489
0.000307279
0.000305012
0.000302691
0.00030032
0.000297903
0.000295444
0.000292947
0.000290415
0.000287852
0.000285262
0.000282648
0.000280013
0.000277361
0.000274696
0.000272019
0.000269334
0.000266645
0.000263954
0.000261263
0.000258575
0.000255893
0.00025322
0.000250556
0.000247904
0.000245267
0.000242646
0.000240043
0.00023746
0.000234897
0.000232356
0.000229839
0.000227347
0.00022488
0.000222439
0.000220026
0.00021764
0.000215282
0.000212953
0.000210652
0.000208381
0.000206138
0.000203924
0.000201739
0.000199582
0.000197453
0.000195352
0.000193278
0.00019123
0.000189208
0.000187211
0.000185238
0.000183288
0.00018136
0.000179453
0.000177566
0.000175698
0.000173848
0.000172014
0.000170195
0.00016839
0.000166598
0.000164818
0.000163048
0.000161287
0.000159535
0.000157789
0.000156048
0.000154309
0.000152573
0.000150838
0.000149102
0.000147365
0.000145625
0.00014388
0.00014213
0.000140374
0.000138609
0.000136836
0.000135052
0.000133258
0.000131451
0.00012963
0.000127794
0.000125939
0.000124056
0.000122155
0.000120234
0.000118293
0.000116332
0.000114348
0.000112342
0.000110312
0.000108257
0.000106175
0.000104065
0.000101925
9.97532e-05
9.75468e-05
9.53032e-05
9.30193e-05
9.06915e-05
8.83153e-05
8.58859e-05
8.3398e-05
8.08415e-05
7.82062e-05
7.54798e-05
7.2648e-05
6.969e-05
6.65801e-05
6.32821e-05
5.97413e-05
5.58603e-05
5.15535e-05
4.66973e-05
4.10508e-05
3.41809e-05
2.51988e-05
1.22547e-05
3.23314e-07
6.01002e-06
6.87066e-05
0.000131564
0.000178412
0.000214666
0.000243946
0.00026853
0.000289824
0.000308724
0.000325817
0.000341502
0.000356055
0.000369681
0.000382522
0.000394686
0.000406257
0.000417301
0.000427869
0.000438003
0.000447737
0.000457099
0.000466111
0.000474793
0.000483159
0.000491223
0.000498995
0.000506486
0.000513702
0.00052065
0.000527336
0.000533764
0.000539938
0.000545863
0.00055154
0.000556973
0.000562165
0.000567116
0.000571829
0.000576305
0.000580547
0.000584556
0.000588334
0.000591881
0.000595199
0.000598291
0.000601157
0.000603799
0.000606219
0.000608419
0.000610401
0.000612166
0.000613717
0.000615057
0.000616186
0.000617108
0.000617826
0.000618342
0.000618658
0.000618777
0.000618701
0.000618433
0.000617973
0.000617322
0.000616487
0.000615475
0.00061429
0.00061294
0.000611428
0.000609759
0.000607939
0.000605971
0.000603861
0.000601613
0.000599233
0.000596725
0.000594094
0.000591346
0.000588485
0.000585517
0.000582446
0.000579278
0.000576018
0.000572671
0.000569241
0.000565735
0.000562157
0.000558512
0.000554805
0.000551041
0.000547224
0.00054336
0.000539453
0.000535508
0.000531529
0.00052752
0.000523486
0.000519431
0.000515359
0.000511274
0.000507179
0.000503079
0.000498976
0.000494874
0.000490777
0.000486687
0.000482607
0.00047854
0.000474489
0.000470455
0.000466441
0.000462449
0.000458481
0.000454539
0.000450623
0.000446736
0.000442878
0.000439051
0.000435255
0.000431491
0.000427759
0.00042406
0.000420394
0.00041676
0.000413159
0.000409589
0.000406051
0.000402545
0.000399068
0.00039562
0.0003922
0.000388807
0.00038544
0.000382097
0.000378776
0.000375476
0.000372196
0.000368933
0.000365686
0.000362452
0.000359231
0.000356019
0.000352816
0.00034962
0.000346429
0.00034324
0.000340049
0.000336854
0.000333654
0.000330447
0.000327229
0.000324
0.000320758
0.000317499
0.000314222
0.000310926
0.000307607
0.000304264
0.000300894
0.000297497
0.000294068
0.000290606
0.000287108
0.000283571
0.000279987
0.00027635
0.000272664
0.000268929
0.000265143
0.000261305
0.000257412
0.000253462
0.00024945
0.000245375
0.00024123
0.000237012
0.000232715
0.000228333
0.000223859
0.000219284
0.000214599
0.000209792
0.00020485
0.000199757
0.000194495
0.000189038
0.000183356
0.000177414
0.000171161
0.000164536
0.00015746
0.000149826
0.000141482
0.000132212
0.000121713
0.000109605
9.5235e-05
7.75139e-05
5.45974e-05
2.43264e-05
6.93342e-07
6.01017e-06
6.87095e-05
0.000131569
0.000178419
0.000214673
0.000243954
0.000268538
0.000289832
0.000308731
0.000325825
0.000341509
0.000356063
0.000369688
0.000382529
0.000394693
0.000406265
0.000417308
0.000427876
0.00043801
0.000447745
0.000457107
0.000466119
0.0004748
0.000483167
0.000491231
0.000499003
0.000506494
0.00051371
0.000520658
0.000527343
0.000533772
0.000539946
0.000545871
0.000551548
0.000556981
0.000562172
0.000567124
0.000571837
0.000576313
0.000580555
0.000584564
0.000588342
0.000591889
0.000595207
0.000598299
0.000601165
0.000603807
0.000606227
0.000608427
0.000610409
0.000612174
0.000613725
0.000615064
0.000616194
0.000617116
0.000617834
0.000618349
0.000618665
0.000618785
0.000618709
0.00061844
0.00061798
0.00061733
0.000616494
0.000615482
0.000614297
0.000612947
0.000611435
0.000609766
0.000607945
0.000605978
0.000603867
0.00060162
0.000599239
0.000596731
0.000594101
0.000591352
0.000588491
0.000585523
0.000582452
0.000579284
0.000576024
0.000572676
0.000569247
0.000565741
0.000562162
0.000558517
0.00055481
0.000551046
0.000547229
0.000543365
0.000539458
0.000535513
0.000531533
0.000527524
0.00052349
0.000519435
0.000515363
0.000511278
0.000507183
0.000503083
0.00049898
0.000494878
0.000490781
0.000486691
0.000482611
0.000478544
0.000474492
0.000470458
0.000466444
0.000462452
0.000458484
0.000454541
0.000450626
0.000446739
0.000442881
0.000439054
0.000435258
0.000431493
0.000427762
0.000424062
0.000420396
0.000416762
0.00041316
0.000409591
0.000406053
0.000402546
0.000399069
0.000395621
0.000392202
0.000388809
0.000385441
0.000382098
0.000378777
0.000375478
0.000372197
0.000368934
0.000365687
0.000362453
0.000359231
0.00035602
0.000352817
0.00034962
0.000346429
0.00034324
0.000340049
0.000336855
0.000333655
0.000330447
0.00032723
0.000324001
0.000320758
0.000317499
0.000314222
0.000310926
0.000307607
0.000304264
0.000300894
0.000297496
0.000294068
0.000290606
0.000287108
0.00028357
0.000279987
0.00027635
0.000272664
0.000268929
0.000265143
0.000261305
0.000257412
0.000253461
0.00024945
0.000245374
0.00024123
0.000237012
0.000232715
0.000228333
0.000223859
0.000219284
0.000214599
0.000209792
0.00020485
0.000199757
0.000194495
0.000189037
0.000183356
0.000177414
0.000171161
0.000164536
0.00015746
0.000149826
0.000141482
0.000132212
0.000121713
0.000109605
9.52351e-05
7.7514e-05
5.45974e-05
2.43262e-05
6.93341e-07
8.82208e-06
8.85968e-05
0.000176356
0.000247034
0.000303872
0.000350633
0.000390141
0.000424312
0.000454457
0.00048149
0.000506059
0.000528634
0.000549563
0.000569104
0.000587454
0.000604766
0.000621163
0.00063674
0.000651576
0.000665734
0.000679268
0.00069222
0.000704628
0.000716522
0.000727929
0.000738871
0.000749367
0.000759434
0.000769086
0.000778336
0.000787195
0.000795673
0.000803778
0.000811519
0.000818902
0.000825935
0.000832622
0.00083897
0.000844983
0.000850667
0.000856025
0.000861063
0.000865784
0.000870193
0.000874293
0.000878088
0.000881583
0.00088478
0.000887684
0.000890299
0.000892628
0.000894675
0.000896444
0.00089794
0.000899165
0.000900124
0.00090082
0.000901258
0.00090144
0.000901372
0.000901054
0.000900491
0.000899685
0.000898642
0.00089737
0.000895877
0.000894169
0.000892253
0.000890134
0.000887819
0.000885313
0.000882622
0.000879754
0.000876712
0.000873504
0.000870135
0.000866612
0.00086294
0.000859127
0.000855177
0.000851097
0.000846894
0.000842573
0.00083814
0.000833602
0.000828965
0.000824235
0.000819418
0.00081452
0.000809547
0.000804504
0.000799398
0.000794233
0.000789017
0.000783753
0.000778448
0.000773106
0.000767733
0.000762333
0.000756912
0.000751474
0.000746023
0.000740563
0.0007351
0.000729636
0.000724176
0.000718722
0.000713279
0.000707849
0.000702435
0.00069704
0.000691666
0.000686316
0.000680991
0.000675694
0.000670425
0.000665186
0.000659979
0.000654804
0.000649661
0.000644552
0.000639475
0.000634432
0.000629422
0.000624444
0.000619499
0.000614584
0.000609699
0.000604843
0.000600014
0.000595211
0.000590432
0.000585675
0.000580938
0.000576219
0.000571516
0.000566827
0.000562148
0.000557478
0.000552814
0.000548155
0.000543496
0.000538838
0.000534175
0.000529503
0.00052482
0.000520123
0.000515408
0.000510672
0.000505914
0.00050113
0.000496318
0.000491474
0.000486596
0.000481681
0.000476727
0.000471729
0.000466685
0.000461592
0.000456447
0.000451246
0.000445985
0.000440659
0.000435261
0.000429783
0.000424228
0.000418591
0.000412871
0.000407065
0.000401166
0.000395171
0.000389074
0.000382867
0.000376542
0.000370092
0.000363505
0.000356771
0.000349875
0.000342802
0.000335533
0.000328048
0.000320321
0.000312321
0.000304013
0.000295351
0.000286282
0.000276736
0.000266628
0.000255847
0.000244251
0.000231653
0.000217804
0.000202364
0.000184863
0.000164666
0.000140854
0.000112038
7.62937e-05
3.2742e-05
1.07192e-06
8.82224e-06
8.86e-05
0.000176363
0.000247043
0.000303882
0.000350644
0.000390152
0.000424323
0.000454468
0.000481501
0.00050607
0.000528645
0.000549574
0.000569115
0.000587465
0.000604777
0.000621174
0.000636751
0.000651586
0.000665745
0.000679278
0.000692231
0.000704639
0.000716533
0.00072794
0.000738882
0.000749378
0.000759445
0.000769097
0.000778347
0.000787205
0.000795683
0.000803788
0.000811529
0.000818912
0.000825945
0.000832632
0.00083898
0.000844993
0.000850677
0.000856035
0.000861073
0.000865794
0.000870203
0.000874303
0.000878098
0.000881592
0.00088479
0.000887694
0.000890308
0.000892637
0.000894684
0.000896454
0.000897949
0.000899174
0.000900132
0.000900829
0.000901266
0.000901449
0.00090138
0.000901062
0.000900499
0.000899693
0.00089865
0.000897378
0.000895885
0.000894177
0.00089226
0.000890141
0.000887826
0.00088532
0.00088263
0.000879761
0.000876719
0.000873511
0.000870142
0.000866618
0.000862947
0.000859133
0.000855183
0.000851103
0.000846899
0.000842578
0.000838146
0.000833608
0.000828971
0.000824241
0.000819424
0.000814525
0.000809552
0.000804509
0.000799402
0.000794238
0.000789021
0.000783757
0.000778452
0.00077311
0.000767737
0.000762337
0.000756916
0.000751477
0.000746026
0.000740567
0.000735103
0.000729639
0.000724179
0.000718725
0.000713282
0.000707851
0.000702437
0.000697042
0.000691668
0.000686318
0.000680993
0.000675696
0.000670427
0.000665188
0.000659981
0.000654805
0.000649663
0.000644553
0.000639477
0.000634433
0.000629423
0.000624445
0.0006195
0.000614585
0.0006097
0.000604844
0.000600015
0.000595211
0.000590432
0.000585675
0.000580938
0.000576219
0.000571516
0.000566827
0.000562148
0.000557478
0.000552814
0.000548154
0.000543496
0.000538837
0.000534174
0.000529503
0.00052482
0.000520122
0.000515407
0.000510672
0.000505913
0.00050113
0.000496317
0.000491473
0.000486596
0.000481681
0.000476726
0.000471728
0.000466684
0.000461591
0.000456446
0.000451245
0.000445984
0.000440657
0.000435259
0.000429782
0.000424227
0.00041859
0.00041287
0.000407063
0.000401165
0.00039517
0.000389072
0.000382865
0.000376541
0.000370091
0.000363504
0.00035677
0.000349874
0.000342801
0.000335532
0.000328047
0.00032032
0.00031232
0.000304012
0.00029535
0.000286281
0.000276735
0.000266627
0.000255846
0.000244251
0.000231653
0.000217804
0.000202363
0.000184863
0.000164666
0.000140854
0.000112038
7.62937e-05
3.27417e-05
1.07192e-06
1.15558e-05
0.000104501
0.000211575
0.000302372
0.00037784
0.000441303
0.000495589
0.00054282
0.000584555
0.000621938
0.000655817
0.000686825
0.000715442
0.000742036
0.000766891
0.000790233
0.000812239
0.000833055
0.000852796
0.00087156
0.000889425
0.00090646
0.000922719
0.00093825
0.000953095
0.000967288
0.00098086
0.000993837
0.00100624
0.00101809
0.00102942
0.00104022
0.00105052
0.00106033
0.00106967
0.00107854
0.00108695
0.00109492
0.00110246
0.00110956
0.00111624
0.00112251
0.00112837
0.00113384
0.00113891
0.0011436
0.0011479
0.00115184
0.00115541
0.00115861
0.00116146
0.00116396
0.00116612
0.00116794
0.00116943
0.00117059
0.00117143
0.00117195
0.00117217
0.00117207
0.00117168
0.00117099
0.00117001
0.00116874
0.0011672
0.00116539
0.00116331
0.00116099
0.00115842
0.00115562
0.00115258
0.00114932
0.00114584
0.00114216
0.00113827
0.00113419
0.00112991
0.00112546
0.00112084
0.00111605
0.0011111
0.00110599
0.00110075
0.00109536
0.00108985
0.00108421
0.00107845
0.00107259
0.00106662
0.00106056
0.00105441
0.00104818
0.00104187
0.00103549
0.00102905
0.00102256
0.00101601
0.00100942
0.0010028
0.000996138
0.000989451
0.000982742
0.000976017
0.000969279
0.000962534
0.000955787
0.00094904
0.000942299
0.000935566
0.000928846
0.000922141
0.000915454
0.000908788
0.000902146
0.000895529
0.000888939
0.000882377
0.000875846
0.000869345
0.000862876
0.000856439
0.000850035
0.000843662
0.000837321
0.000831011
0.000824731
0.00081848
0.000812257
0.000806061
0.000799888
0.000793738
0.000787609
0.000781497
0.000775401
0.000769318
0.000763245
0.000757179
0.000751117
0.000745057
0.000738996
0.000732929
0.000726856
0.000720771
0.000714671
0.000708552
0.000702409
0.000696239
0.000690039
0.000683804
0.000677532
0.000671218
0.000664861
0.000658455
0.000651997
0.000645485
0.000638914
0.00063228
0.000625579
0.000618808
0.000611962
0.000605037
0.000598026
0.000590924
0.000583725
0.00057642
0.000569006
0.00056148
0.000553836
0.000546068
0.00053817
0.000530134
0.00052195
0.000513608
0.000505096
0.000496402
0.000487508
0.000478397
0.000469049
0.00045944
0.000449542
0.000439323
0.000428743
0.000417757
0.000406311
0.000394339
0.000381758
0.00036847
0.000354349
0.00033924
0.000322943
0.000305201
0.000285681
0.000263941
0.000239395
0.000211259
0.000178486
0.000139659
9.31397e-05
3.93432e-05
1.44705e-06
1.15559e-05
0.000104504
0.000211583
0.000302382
0.000377852
0.000441317
0.000495603
0.000542834
0.00058457
0.000621953
0.000655832
0.00068684
0.000715457
0.00074205
0.000766906
0.000790247
0.000812254
0.000833069
0.00085281
0.000871574
0.000889439
0.000906473
0.000922732
0.000938264
0.000953109
0.000967302
0.000980873
0.00099385
0.00100625
0.00101811
0.00102943
0.00104023
0.00105053
0.00106035
0.00106968
0.00107855
0.00108697
0.00109494
0.00110247
0.00110957
0.00111625
0.00112252
0.00112839
0.00113385
0.00113892
0.00114361
0.00114792
0.00115185
0.00115542
0.00115862
0.00116147
0.00116397
0.00116613
0.00116795
0.00116944
0.0011706
0.00117144
0.00117196
0.00117218
0.00117208
0.00117169
0.001171
0.00117002
0.00116875
0.00116721
0.00116539
0.00116332
0.001161
0.00115843
0.00115562
0.00115259
0.00114933
0.00114585
0.00114216
0.00113828
0.00113419
0.00112992
0.00112547
0.00112084
0.00111605
0.0011111
0.001106
0.00110075
0.00109537
0.00108985
0.00108421
0.00107846
0.00107259
0.00106663
0.00106056
0.00105441
0.00104818
0.00104187
0.0010355
0.00102906
0.00102256
0.00101602
0.00100943
0.0010028
0.000996142
0.000989455
0.000982746
0.00097602
0.000969282
0.000962537
0.00095579
0.000949043
0.000942301
0.000935569
0.000928848
0.000922143
0.000915456
0.00090879
0.000902148
0.000895531
0.000888941
0.000882379
0.000875848
0.000869347
0.000862878
0.000856441
0.000850036
0.000843663
0.000837322
0.000831012
0.000824732
0.000818481
0.000812258
0.000806061
0.000799889
0.000793739
0.000787609
0.000781497
0.000775401
0.000769318
0.000763245
0.000757179
0.000751117
0.000745057
0.000738995
0.000732929
0.000726855
0.000720771
0.000714671
0.000708551
0.000702409
0.000696239
0.000690038
0.000683803
0.000677531
0.000671217
0.00066486
0.000658454
0.000651996
0.000645484
0.000638912
0.000632278
0.000625578
0.000618807
0.000611961
0.000605035
0.000598024
0.000590923
0.000583723
0.000576418
0.000569004
0.000561478
0.000553834
0.000546067
0.000538169
0.000530132
0.000521948
0.000513607
0.000505095
0.0004964
0.000487506
0.000478396
0.000469048
0.000459439
0.000449541
0.000439321
0.000428742
0.000417756
0.00040631
0.000394338
0.000381757
0.000368469
0.000354348
0.000339239
0.000322942
0.0003052
0.00028568
0.000263941
0.000239395
0.000211259
0.000178487
0.00013966
9.31398e-05
3.93429e-05
1.44705e-06
1.42561e-05
0.000118001
0.000240683
0.000348507
0.000440478
0.000519236
0.000587421
0.000647191
0.000700226
0.000747816
0.00079095
0.000830388
0.000866722
0.000900412
0.000931822
0.000961243
0.000988908
0.00101501
0.00103969
0.0010631
0.00108532
0.00110646
0.00112659
0.00114577
0.00116407
0.00118152
0.00119817
0.00121405
0.0012292
0.00124365
0.00125742
0.00127054
0.00128302
0.00129488
0.00130615
0.00131683
0.00132695
0.00133651
0.00134553
0.00135402
0.001362
0.00136946
0.00137643
0.00138292
0.00138893
0.00139447
0.00139955
0.00140418
0.00140837
0.00141213
0.00141546
0.00141838
0.00142089
0.001423
0.00142472
0.00142605
0.001427
0.00142758
0.00142779
0.00142765
0.00142715
0.00142632
0.00142514
0.00142363
0.0014218
0.00141966
0.00141722
0.00141449
0.00141147
0.00140817
0.0014046
0.00140078
0.00139671
0.00139239
0.00138784
0.00138306
0.00137806
0.00137285
0.00136744
0.00136184
0.00135605
0.00135009
0.00134395
0.00133766
0.00133121
0.00132462
0.00131789
0.00131103
0.00130405
0.00129695
0.00128976
0.00128246
0.00127507
0.00126761
0.00126006
0.00125245
0.00124477
0.00123704
0.00122927
0.00122145
0.00121359
0.00120571
0.0011978
0.00118987
0.00118193
0.00117398
0.00116603
0.00115808
0.00115013
0.00114219
0.00113427
0.00112636
0.00111847
0.0011106
0.00110275
0.00109493
0.00108713
0.00107937
0.00107163
0.00106393
0.00105625
0.00104861
0.00104099
0.00103341
0.00102585
0.00101833
0.00101083
0.00100335
0.000995896
0.000988463
0.000981049
0.00097365
0.000966264
0.000958889
0.00095152
0.000944155
0.00093679
0.000929422
0.000922047
0.000914662
0.000907263
0.000899846
0.000892408
0.000884943
0.000877446
0.000869914
0.000862341
0.000854724
0.000847059
0.000839341
0.000831566
0.000823731
0.00081583
0.00080786
0.000799816
0.000791695
0.00078349
0.000775198
0.000766813
0.000758331
0.000749744
0.000741048
0.000732234
0.000723296
0.000714225
0.000705014
0.000695658
0.00068615
0.00067648
0.00066664
0.000656618
0.000646401
0.000635976
0.000625326
0.000614433
0.000603275
0.000591829
0.000580066
0.000567955
0.000555456
0.000542527
0.000529116
0.000515161
0.000500591
0.000485316
0.000469231
0.000452207
0.000434084
0.000414664
0.000393699
0.000370877
0.000345799
0.000317954
0.000286682
0.000251129
0.000210202
0.000162588
0.000107006
4.49093e-05
1.81962e-06
1.42562e-05
0.000118004
0.000240691
0.000348518
0.000440491
0.000519251
0.000587437
0.000647208
0.000700243
0.000747834
0.000790967
0.000830406
0.000866739
0.000900429
0.000931839
0.00096126
0.000988925
0.00101502
0.00103971
0.00106311
0.00108534
0.00110648
0.00112661
0.00114579
0.00116408
0.00118153
0.00119818
0.00121407
0.00122922
0.00124367
0.00125744
0.00127055
0.00128303
0.0012949
0.00130616
0.00131685
0.00132696
0.00133653
0.00134555
0.00135404
0.00136201
0.00136948
0.00137645
0.00138293
0.00138894
0.00139448
0.00139956
0.00140419
0.00140838
0.00141214
0.00141548
0.00141839
0.0014209
0.00142301
0.00142473
0.00142606
0.00142701
0.00142759
0.0014278
0.00142766
0.00142716
0.00142633
0.00142515
0.00142364
0.00142181
0.00141967
0.00141723
0.00141449
0.00141147
0.00140818
0.00140461
0.00140079
0.00139671
0.0013924
0.00138784
0.00138306
0.00137807
0.00137286
0.00136745
0.00136185
0.00135606
0.00135009
0.00134396
0.00133766
0.00133122
0.00132462
0.00131789
0.00131103
0.00130405
0.00129696
0.00128976
0.00128247
0.00127508
0.00126761
0.00126007
0.00125245
0.00124478
0.00123705
0.00122927
0.00122145
0.00121359
0.00120571
0.0011978
0.00118987
0.00118193
0.00117398
0.00116603
0.00115808
0.00115013
0.00114219
0.00113427
0.00112636
0.00111847
0.0011106
0.00110275
0.00109493
0.00108714
0.00107937
0.00107164
0.00106393
0.00105625
0.00104861
0.001041
0.00103341
0.00102586
0.00101833
0.00101083
0.00100335
0.000995897
0.000988464
0.000981049
0.00097365
0.000966265
0.000958889
0.00095152
0.000944155
0.00093679
0.000929422
0.000922047
0.000914662
0.000907263
0.000899846
0.000892408
0.000884942
0.000877446
0.000869913
0.000862341
0.000854724
0.000847058
0.00083934
0.000831566
0.00082373
0.000815829
0.000807859
0.000799815
0.000791693
0.000783489
0.000775197
0.000766812
0.000758329
0.000749743
0.000741046
0.000732233
0.000723295
0.000714224
0.000705013
0.000695657
0.000686148
0.000676479
0.000666638
0.000656616
0.000646399
0.000635974
0.000625325
0.000614431
0.000603274
0.000591828
0.000580065
0.000567953
0.000555455
0.000542526
0.000529115
0.00051516
0.000500589
0.000485315
0.00046923
0.000452206
0.000434083
0.000414663
0.000393698
0.000370876
0.000345799
0.000317954
0.000286682
0.000251129
0.000210202
0.000162588
0.000107006
4.4909e-05
1.81962e-06
1.69329e-05
0.0001299
0.000265737
0.000388178
0.000494703
0.000587266
0.000668247
0.000739749
0.000803496
0.00086086
0.000912927
0.000960552
0.00100441
0.00104505
0.0010829
0.00111829
0.00115153
0.00118283
0.0012124
0.00124038
0.00126691
0.0012921
0.00131605
0.00133884
0.00136053
0.00138119
0.00140088
0.00141963
0.00143749
0.00145449
0.00147067
0.00148606
0.00150068
0.00151456
0.00152772
0.00154018
0.00155196
0.00156308
0.00157355
0.0015834
0.00159263
0.00160125
0.0016093
0.00161676
0.00162367
0.00163003
0.00163585
0.00164115
0.00164593
0.00165021
0.00165399
0.0016573
0.00166013
0.00166249
0.00166441
0.00166588
0.00166691
0.00166753
0.00166772
0.0016675
0.00166689
0.00166589
0.0016645
0.00166274
0.00166061
0.00165813
0.00165531
0.00165216
0.00164868
0.0016449
0.00164081
0.00163642
0.00163176
0.00162682
0.00162161
0.00161615
0.00161044
0.0016045
0.00159832
0.00159193
0.00158533
0.00157853
0.00157154
0.00156437
0.00155702
0.00154951
0.00154185
0.00153404
0.00152609
0.00151801
0.00150982
0.00150151
0.0014931
0.00148459
0.001476
0.00146733
0.00145858
0.00144977
0.00144091
0.001432
0.00142304
0.00141405
0.00140503
0.00139598
0.00138692
0.00137784