/*--------------------------------*- C++ -*----------------------------------*\
  =========                 |
  \\      /  F ield         | OpenFOAM: The Open Source CFD Toolbox
   \\    /   O peration     | Website:  https://openfoam.org
    \\  /    A nd           | Version:  8
     \\/     M anipulation  |
\*---------------------------------------------------------------------------*/
FoamFile
{
    version     2.0;
    format      ascii;
    class       volScalarField;
    location    "3200";
    object      epsilon;
}
// * * * * * * * * * * * * * * * * * * * * * * * * * * * * * * * * * * * * * //

dimensions      [0 2 -3 0 0 0 0];

internalField   nonuniform List<scalar> 
46000
(
13.7946
55.5649
104.847
150.882
194.366
236.43
277.557
317.858
357.568
396.83
435.812
474.548
512.896
550.994
588.869
626.523
663.946
701.122
738.027
774.634
810.911
846.825
882.337
917.409
952
986.067
1019.57
1052.46
1084.69
1116.23
1147.02
1177.03
1206.21
1234.52
1261.92
1288.37
1313.84
1338.28
1361.67
1383.97
1405.16
1425.2
1444.07
1461.75
1478.22
1493.46
1507.46
1520.21
1531.7
1541.92
1550.88
1558.56
1564.98
1570.14
1574.05
1576.73
1578.18
1578.42
1577.48
1575.37
1572.13
1567.8
1562.44
1556.05
1548.64
1540.24
1530.87
1520.59
1509.41
1497.39
1484.56
1470.97
1456.65
1441.65
1426
1409.76
1392.96
1375.65
1357.86
1339.65
1321.05
1302.1
1282.84
1263.32
1243.56
1223.62
1203.52
1183.3
1162.99
1142.63
1122.25
1101.88
1081.55
1061.28
1041.1
1021.04
1001.12
981.362
961.784
942.406
923.245
904.317
885.637
867.218
849.071
831.208
813.636
796.364
779.398
762.744
746.406
730.388
714.691
699.316
684.265
669.536
655.128
641.038
627.264
613.801
600.646
587.794
575.238
562.974
550.994
539.292
527.86
516.691
505.777
495.11
484.682
474.484
464.507
454.744
445.185
435.821
426.644
417.645
408.816
400.147
391.63
383.257
375.019
366.909
358.912
351.046
343.291
335.637
328.078
320.606
313.215
305.9
298.655
291.476
284.357
277.294
270.284
263.323
256.408
249.536
242.705
235.912
229.155
222.434
215.77
209.151
202.568
196.019
189.503
183.021
176.573
170.16
163.782
157.44
151.135
144.868
138.639
132.451
126.302
120.195
114.127
108.101
102.112
96.153
90.2353
84.3545
78.4999
72.6715
66.8606
61.0576
55.2491
49.4184
43.5654
37.6755
31.6885
25.5481
19.1881
12.5631
5.9166
1.25716
13.7954
55.5673
104.85
150.885
194.368
236.432
277.56
317.861
357.571
396.832
435.814
474.55
512.898
550.996
588.871
626.524
663.947
701.123
738.028
774.635
810.912
846.826
882.338
917.41
952
986.067
1019.57
1052.46
1084.69
1116.23
1147.02
1177.03
1206.21
1234.52
1261.92
1288.37
1313.84
1338.28
1361.67
1383.97
1405.15
1425.19
1444.07
1461.75
1478.22
1493.46
1507.46
1520.21
1531.7
1541.92
1550.87
1558.56
1564.98
1570.14
1574.05
1576.73
1578.17
1578.42
1577.47
1575.37
1572.13
1567.8
1562.44
1556.05
1548.64
1540.23
1530.87
1520.58
1509.41
1497.39
1484.56
1470.97
1456.65
1441.64
1426
1409.76
1392.96
1375.65
1357.86
1339.65
1321.05
1302.1
1282.84
1263.32
1243.56
1223.62
1203.52
1183.3
1162.99
1142.63
1122.25
1101.88
1081.54
1061.28
1041.1
1021.04
1001.12
981.36
961.782
942.404
923.243
904.315
885.635
867.216
849.069
831.206
813.634
796.362
779.396
762.742
746.404
730.386
714.689
699.314
684.263
669.534
655.126
641.036
627.262
613.8
600.645
587.792
575.237
562.972
550.993
539.29
527.858
516.69
505.776
495.109
484.681
474.483
464.506
454.743
445.184
435.82
426.643
417.644
408.814
400.146
391.629
383.256
375.018
366.908
358.911
351.045
343.29
335.636
328.077
320.605
313.214
305.899
298.655
291.475
284.356
277.294
270.284
263.323
256.408
249.536
242.704
235.911
229.154
222.433
215.769
209.151
202.568
196.018
189.503
183.021
176.573
170.159
163.781
157.439
151.134
144.867
138.639
132.451
126.302
120.194
114.127
108.1
102.112
96.1529
90.2352
84.3544
78.4998
72.6714
66.8606
61.0575
55.2491
49.4184
43.5655
37.6756
31.6887
25.5483
19.1882
12.5632
5.91667
1.25718
60.1537
51.4142
66.33
83.9628
102.284
120.936
139.831
158.866
178.037
197.313
216.685
236.157
255.706
275.336
295.044
314.818
334.645
354.504
374.377
394.239
414.065
433.829
453.504
473.058
492.463
511.686
530.695
549.459
567.944
586.117
603.944
621.394
638.434
655.031
671.155
686.774
701.86
716.383
730.318
743.637
756.317
768.335
779.67
790.303
800.217
809.396
817.828
825.501
832.407
838.538
843.89
848.46
852.249
855.259
857.493
858.957
859.662
859.616
858.834
857.332
855.13
852.252
848.734
844.579
839.798
834.409
828.433
821.895
814.818
807.231
799.159
790.631
781.674
772.316
762.587
752.514
742.127
731.452
720.52
709.357
697.99
686.447
674.753
662.934
651.014
639.019
626.97
614.889
602.799
590.719
578.669
566.666
554.729
542.873
531.113
519.464
507.939
496.549
485.306
474.22
463.299
452.553
441.987
431.608
421.423
411.434
401.647
392.063
382.685
373.516
364.554
355.802
347.258
338.922
330.792
322.866
315.143
307.619
300.29
293.155
286.209
279.448
272.867
266.463
260.23
254.165
248.26
242.513
236.917
231.467
226.159
220.985
215.942
211.024
206.226
201.542
196.967
192.496
188.123
183.844
179.654
175.548
171.519
167.565
163.685
159.877
156.133
152.45
148.823
145.248
141.723
138.243
134.806
131.409
128.05
124.725
121.434
118.173
114.942
111.739
108.562
105.41
102.283
99.1827
96.1134
93.0705
90.0511
87.0541
84.0789
81.1252
78.1932
75.283
72.395
69.5296
66.6871
63.8681
61.073
58.3024
55.5566
52.836
50.141
47.4715
44.8273
42.2074
39.6129
37.0428
34.4934
31.9689
29.4665
26.9836
24.5176
22.0665
19.6327
17.2113
14.7901
12.3619
9.92884
7.53463
5.44789
6.38514
60.156
51.4133
66.3281
83.9604
102.281
120.933
139.828
158.862
178.032
197.308
216.679
236.151
255.7
275.329
295.037
314.811
334.637
354.496
374.368
394.229
414.055
433.819
453.493
473.047
492.451
511.674
530.683
549.446
567.93
586.103
603.93
621.38
638.419
655.016
671.139
686.758
701.843
716.366
730.3
743.619
756.299
768.316
779.651
790.284
800.198
809.377
817.808
825.481
832.387
838.518
843.87
848.44
852.229
855.238
857.472
858.937
859.641
859.596
858.814
857.312
855.109
852.232
848.714
844.559
839.778
834.389
828.413
821.875
814.799
807.212
799.141
790.612
781.655
772.298
762.569
752.496
742.109
731.435
720.503
709.34
697.974
686.431
674.737
662.918
650.999
639.004
626.955
614.875
602.785
590.706
578.656
566.653
554.716
542.861
531.101
519.453
507.927
496.538
485.295
474.209
463.289
452.542
441.977
431.599
421.413
411.425
401.638
392.054
382.677
373.507
364.546
355.794
347.251
338.915
330.785
322.859
315.136
307.612
300.284
293.149
286.203
279.442
272.862
266.458
260.225
254.159
248.255
242.508
236.912
231.463
226.154
220.981
215.938
211.02
206.222
201.538
196.963
192.492
188.12
183.841
179.651
175.545
171.516
167.562
163.682
159.874
156.13
152.447
148.821
145.246
141.721
138.241
134.804
131.407
128.048
124.724
121.432
118.172
114.941
111.737
108.56
105.409
102.282
99.1813
96.1121
93.0692
90.0499
87.0529
84.0777
81.1241
78.1921
75.282
72.3941
69.5287
66.6862
63.8673
61.0722
58.3016
55.5559
52.8354
50.1403
47.4709
44.8267
42.2068
39.6124
37.0423
34.4929
31.9685
29.4661
26.9832
24.5173
22.0662
19.6325
17.2112
14.79
12.3618
9.92877
7.53459
5.4479
6.38513
114.477
69.6468
71.6275
80.4449
91.4826
103.594
116.352
129.531
143.025
156.769
170.721
184.853
199.14
213.566
228.115
242.772
257.519
272.338
287.21
302.114
317.03
331.934
346.804
361.616
376.343
390.961
405.444
419.765
433.897
447.813
461.487
474.89
487.997
500.781
513.216
525.276
536.938
548.176
558.969
569.295
579.133
588.463
597.268
605.532
613.239
620.376
626.931
632.895
638.259
643.016
647.163
650.696
653.615
655.92
657.615
658.703
659.191
659.087
658.403
657.149
655.342
652.999
650.14
646.775
642.917
638.579
633.78
628.538
622.874
616.809
610.364
603.562
596.425
588.977
581.239
573.236
564.99
556.524
547.861
539.023
530.032
520.91
511.677
502.354
492.961
483.517
474.04
464.547
455.056
445.583
436.143
426.75
417.418
408.159
398.985
389.908
380.936
372.08
363.348
354.747
346.285
337.966
329.798
321.783
313.927
306.232
298.7
291.335
284.137
277.106
270.244
263.551
257.025
250.665
244.471
238.44
232.57
226.86
221.305
215.903
210.652
205.547
200.585
195.763
191.076
186.52
182.092
177.787
173.602
169.531
165.572
161.718
157.967
154.313
150.754
147.283
143.898
140.594
137.368
134.214
131.13
128.11
125.152
122.254
119.414
116.628
113.892
111.204
108.558
105.954
103.388
100.858
98.3602
95.8938
93.4563
91.0459
88.6608
86.2995
83.9606
81.6428
79.3453
77.0672
74.8082
72.5685
70.3492
68.1489
65.9662
63.8003
61.6507
59.5173
57.4
55.299
53.2145
51.1469
49.0965
47.0638
45.0492
43.0533
41.0765
39.1193
37.1823
35.2656
33.3698
31.4949
29.6415
27.8096
25.9992
24.2112
22.4454
20.7032
18.9855
17.2937
15.6311
14.0024
12.4131
10.8802
9.4482
8.25125
7.87509
13.4849
114.48
69.6449
71.6246
80.4417
91.4791
103.59
116.348
129.527
143.021
156.764
170.716
184.848
199.135
213.56
228.11
242.766
257.513
272.331
287.203
302.107
317.023
331.927
346.796
361.607
376.335
390.953
405.435
419.756
433.888
447.804
461.477
474.88
487.987
500.77
513.205
525.265
536.927
548.165
558.958
569.283
579.121
588.451
597.256
605.519
613.226
620.363
626.918
632.882
638.246
643.003
647.15
650.684
653.602
655.907
657.602
658.69
659.178
659.074
658.39
657.137
655.33
652.987
650.127
646.763
642.904
638.567
633.768
628.527
622.863
616.798
610.353
603.551
596.414
588.966
581.228
573.225
564.979
556.514
547.851
539.013
530.023
520.9
511.668
502.345
492.952
483.508
474.031
464.539
455.048
445.576
436.136
426.743
417.411
408.152
398.978
389.901
380.93
372.074
363.342
354.741
346.279
337.961
329.792
321.778
313.922
306.227
298.696
291.33
284.132
277.102
270.24
263.547
257.021
250.661
244.467
238.436
232.567
226.856
221.302
215.9
210.649
205.544
200.582
195.76
191.073
186.518
182.09
177.785
173.6
169.529
165.569
161.716
157.965
154.311
150.752
147.281
143.897
140.593
137.366
134.213
131.128
128.109
125.151
122.253
119.413
116.627
113.891
111.202
108.557
105.953
103.387
100.857
98.3594
95.893
93.4556
91.0452
88.6601
86.2988
83.9599
81.6422
79.3447
77.0667
74.8077
72.568
70.3487
68.1484
65.9657
63.7999
61.6503
59.5169
57.3997
55.2987
53.2142
51.1466
49.0962
47.0635
45.0489
43.053
41.0762
39.1191
37.182
35.2654
33.3696
31.4947
29.6413
27.8094
25.999
24.2111
22.4453
20.7031
18.9854
17.2936
15.6311
14.0023
12.4131
10.8802
9.44817
8.25124
7.87515
13.4849
166.676
90.2728
82.9974
86.4601
93.4672
102.157
111.832
122.156
132.949
144.101
155.541
167.22
179.102
191.157
203.363
215.697
228.14
240.672
253.272
265.92
278.597
291.282
303.951
316.585
329.16
341.653
354.041
366.301
378.408
390.339
402.07
413.576
424.834
435.821
446.513
456.888
466.925
476.601
485.897
494.793
503.27
511.312
518.902
526.025
532.668
538.818
544.466
549.601
554.216
558.306
561.865
564.891
567.382
569.34
570.765
571.663
572.038
571.897
571.25
570.106
568.477
566.378
563.824
560.825
557.395
553.546
549.295
544.659
539.653
534.298
528.612
522.615
516.326
509.766
502.955
495.914
488.661
481.219
473.606
465.842
457.947
449.939
441.837
433.66
425.423
417.145
408.841
400.526
392.217
383.925
375.666
367.451
359.293
351.202
343.188
335.262
327.432
319.706
312.091
304.594
297.221
289.977
282.867
275.894
269.062
262.373
255.83
249.435
243.187
237.089
231.14
225.34
219.689
214.184
208.826
203.612
198.541
193.61
188.816
184.158
179.632
175.235
170.964
166.816
162.787
158.874
155.073
151.38
147.793
144.306
140.917
137.621
134.415
131.294
128.257
125.297
122.413
119.599
116.854
114.172
111.552
108.988
106.48
104.024
101.619
99.2601
96.9455
94.672
92.4368
90.2373
88.0712
85.9363
83.8303
81.7514
79.6978
77.6678
75.6598
73.6725
71.7047
69.7553
67.8234
65.9083
64.0096
62.1272
60.261
58.4105
56.575
54.7538
52.9466
51.1532
49.3737
47.6081
45.8568
44.1199
42.3979
40.6912
39.0003
37.3257
35.668
34.0278
32.4056
30.8021
29.2179
27.6537
26.1102
24.5882
23.0887
21.6129
20.1623
18.7392
17.3462
15.988
14.6715
13.4068
12.2119
11.122
10.2176
9.72319
10.5838
20.6486
166.679
90.2702
82.994
86.4565
93.4635
102.153
111.828
122.152
132.945
144.097
155.537
167.216
179.097
191.153
203.358
215.692
228.135
240.666
253.266
265.915
278.591
291.275
303.945
316.578
329.153
341.646
354.034
366.294
378.401
390.331
402.062
413.568
424.826
435.812
446.505
456.88
466.916
476.592
485.888
494.784
503.261
511.303
518.893
526.016
532.659
538.809
544.457
549.592
554.207
558.296
561.855
564.881
567.373
569.33
570.756
571.654
572.029
571.888
571.241
570.097
568.468
566.369
563.815
560.816
557.386
553.538
549.287
544.65
539.645
534.29
528.604
522.607
516.319
509.759
502.948
495.907
488.654
481.212
473.599
465.835
457.94
449.933
441.831
433.654
425.417
417.139
408.835
400.521
392.211
383.92
375.661
367.447
359.288
351.197
343.184
335.258
327.428
319.702
312.087
304.591
297.218
289.974
282.864
275.891
269.059
262.37
255.827
249.432
243.185
237.087
231.138
225.338
219.686
214.182
208.824
203.61
198.539
193.608
188.814
184.156
179.63
175.233
170.962
166.814
162.786
158.872
155.072
151.379
147.791
144.305
140.916
137.62
134.414
131.293
128.256
125.296
122.412
119.599
116.853
114.172
111.551
108.987
106.479
104.023
101.618
99.2595
96.945
94.6715
92.4363
90.2368
88.0708
85.9359
83.8299
81.7511
79.6975
77.6674
75.6595
73.6722
71.7044
69.755
67.8232
65.9081
64.0094
62.127
60.2608
58.4103
56.5748
54.7536
52.9464
51.1531
49.3736
47.608
45.8566
44.1198
42.3978
40.6911
39.0002
37.3256
35.6679
34.0277
32.4055
30.8021
29.2179
27.6536
26.1101
24.5882
23.0886
21.6128
20.1623
18.7392
17.3462
15.988
14.6715
13.4068
12.2119
11.122
10.2176
9.72321
10.5839
20.6486
217.191
111.572
96.3612
95.6421
99.7104
106.054
113.717
122.242
131.379
140.978
150.94
161.196
171.698
182.405
193.286
204.315
215.467
226.72
238.051
249.441
260.869
272.312
283.752
295.165
306.532
317.83
329.037
340.131
351.091
361.894
372.517
382.939
393.138
403.092
412.781
422.182
431.277
440.045
448.468
456.528
464.207
471.491
478.364
484.811
490.822
496.384
501.488
506.124
510.287
513.969
517.168
519.879
522.103
523.839
525.09
525.857
526.147
525.965
525.319
524.218
522.673
520.696
518.299
515.493
512.292
508.707
504.754
500.447
495.803
490.839
485.572
480.019
474.2
468.132
461.834
455.325
448.623
441.747
434.715
427.545
420.256
412.864
405.386
397.839
390.239
382.601
374.941
367.272
359.608
351.963
344.348
336.774
329.254
321.797
314.412
307.108
299.894
292.776
285.763
278.858
272.069
265.399
258.854
252.436
246.149
239.995
233.975
228.093
222.348
216.741
211.273
205.942
200.75
195.693
190.772
185.985
181.33
176.804
172.406
168.134
163.984
159.953
156.039
152.239
148.55
144.968
141.489
138.111
134.83
131.643
128.546
125.535
122.608
119.76
116.989
114.29
111.661
109.098
106.597
104.156
101.771
99.4402
97.1608
94.9303
92.746
90.6051
88.5048
86.4426
84.4159
82.4226
80.4602
78.5268
76.6205
74.7394
72.8818
71.0463
69.2313
67.4357
65.6583
63.8981
62.1542
60.4261
58.7131
57.015
55.3316
53.6624
52.007
50.3649
48.7359
47.1198
45.5166
43.9265
42.3497
40.7864
39.2371
37.7022
36.1821
34.6775
33.189
31.7172
30.2629
28.8269
27.41
26.0133
24.6378
23.2848
21.9561
20.6535
19.3797
18.1381
16.9333
15.7721
14.6646
13.6266
12.6857
11.8939
11.3654
11.4139
13.3391
27.6974
217.194
111.569
96.3576
95.6383
99.7065
106.05
113.713
122.238
131.375
140.973
150.935
161.192
171.693
182.4
193.281
204.31
215.462
226.714
238.046
249.436
260.863
272.307
283.746
295.159
306.526
317.823
329.03
340.125
351.085
361.887
372.51
382.933
393.131
403.085
412.774
422.175
431.27
440.038
448.46
456.52
464.2
471.483
478.356
484.804
490.814
496.376
501.48
506.117
510.279
513.962
517.16
519.872
522.096
523.832
525.082
525.85
526.14
525.958
525.312
524.211
522.666
520.689
518.292
515.487
512.285
508.701
504.748
500.441
495.797
490.833
485.566
480.013
474.194
468.126
461.828
455.319
448.618
441.742
434.71
427.541
420.251
412.859
405.381
397.834
390.235
382.597
374.937
367.268
359.605
351.959
344.344
336.771
329.251
321.793
314.408
307.105
299.891
292.774
285.76
278.856
272.066
265.397
258.852
252.434
246.147
239.992
233.973
228.091
222.346
216.739
211.271
205.941
200.748
195.692
190.771
185.983
181.328
176.803
172.405
168.133
163.982
159.952
156.038
152.238
148.549
144.967
141.488
138.11
134.829
131.642
128.545
125.535
122.607
119.76
116.988
114.29
111.66
109.097
106.597
104.156
101.771
99.4397
97.1604
94.9299
92.7456
90.6047
88.5045
86.4423
84.4156
82.4223
80.4599
78.5266
76.6203
74.7392
72.8816
71.0461
69.2311
67.4355
65.6581
63.8979
62.1541
60.4259
58.713
57.0149
55.3315
53.6623
52.0069
50.3648
48.7358
47.1197
45.5166
43.9265
42.3497
40.7864
39.2371
37.7021
36.1821
34.6775
33.189
31.7172
30.2629
28.8269
27.41
26.0132
24.6377
23.2848
21.9561
20.6535
19.3797
18.1381
16.9333
15.7721
14.6645
13.6266
12.6857
11.8939
11.3654
11.4139
13.3393
27.6974
266.935
133.352
110.783
106.406
108.061
112.575
118.734
125.962
133.941
142.481
151.457
160.781
170.391
180.238
190.283
200.493
210.839
221.297
231.842
242.452
253.105
263.78
274.455
285.11
295.723
306.273
316.739
327.099
337.334
347.421
357.339
367.068
376.587
385.876
394.914
403.682
412.161
420.333
428.181
435.687
442.836
449.613
456.003
461.995
467.576
472.735
477.465
481.755
485.601
488.997
491.938
494.422
496.448
498.017
499.129
499.789
499.999
499.767
499.099
498.004
496.491
494.57
492.254
489.553
486.48
483.046
479.265
475.152
470.722
465.991
460.975
455.691
450.155
444.386
438.4
432.216
425.849
419.319
412.642
405.835
398.915
391.898
384.8
377.637
370.424
363.176
355.906
348.627
341.354
334.098
326.87
319.682
312.544
305.465
298.456
291.522
284.674
277.917
271.258
264.703
258.257
251.924
245.709
239.614
233.644
227.8
222.083
216.497
211.041
205.716
200.522
195.46
190.528
185.725
181.052
176.505
172.084
167.786
163.61
159.552
155.612
151.785
148.069
144.461
140.959
137.559
134.257
131.052
127.939
124.915
121.977
119.121
116.345
113.645
111.018
108.46
105.968
103.54
101.171
98.8596
96.6018
94.396
92.2397
90.1301
88.0646
86.0406
84.0554
82.1068
80.1924
78.31
76.4575
74.633
72.8346
71.0607
69.3096
67.5799
65.8703
64.1795
62.5066
60.8505
59.2104
57.5858
55.976
54.3806
52.7994
51.2321
49.6781
48.1373
46.6093
45.0941
43.5917
42.1022
40.6258
39.1628
37.7136
36.2786
34.8583
33.4534
32.0644
30.6923
29.3378
28.0018
26.6855
25.3902
24.1173
22.8685
21.6462
20.4529
19.2923
18.1689
17.0892
16.062
15.1008
14.2265
13.4751
12.9139
12.6905
13.2063
16.111
34.6688
266.938
133.348
110.779
106.402
108.057
112.571
118.73
125.958
133.937
142.477
151.452
160.777
170.387
180.234
190.278
200.488
210.834
221.292
231.837
242.447
253.1
263.775
274.45
285.104
295.717
306.267
316.733
327.094
337.328
347.415
357.333
367.062
376.581
385.869
394.907
403.675
412.155
420.327
428.174
435.681
442.83
449.606
455.997
461.988
467.569
472.729
477.458
481.749
485.595
488.99
491.931
494.415
496.442
498.01
499.123
499.782
499.993
499.761
499.093
497.998
496.485
494.564
492.248
489.548
486.474
483.04
479.26
475.147
470.717
465.986
460.97
455.686
450.15
444.381
438.396
432.211
425.845
419.315
412.638
405.831
398.911
391.894
384.797
377.634
370.421
363.172
355.902
348.624
341.351
334.095
326.867
319.679
312.541
305.463
298.453
291.52
284.672
277.915
271.256
264.701
258.255
251.922
245.707
239.613
233.642
227.798
222.082
216.495
211.039
205.714
200.521
195.458
190.526
185.724
181.05
176.504
172.083
167.785
163.609
159.551
155.611
151.784
148.068
144.461
140.958
137.558
134.257
131.051
127.938
124.914
121.976
119.121
116.345
113.645
111.017
108.459
105.968
103.539
101.171
98.8592
96.6014
94.3956
92.2393
90.1298
88.0643
86.0403
84.0552
82.1066
80.1922
78.3098
76.4573
74.6328
72.8344
71.0605
69.3094
67.5797
65.8701
64.1794
62.5065
60.8504
59.2103
57.5857
55.9759
54.3806
52.7993
51.232
49.6781
48.1372
46.6093
45.0941
43.5917
42.1022
40.6258
39.1628
37.7135
36.2785
34.8583
33.4533
32.0644
30.6923
29.3378
28.0018
26.6855
25.3902
24.1173
22.8685
21.6462
20.4529
19.2923
18.1689
17.0891
16.062
15.1007
14.2265
13.4751
12.9139
12.6905
13.2064
16.1113
34.6689
316.116
155.57
125.953
118.201
117.738
120.715
125.662
131.879
138.984
146.747
155.016
163.686
172.682
181.945
191.429
201.095
210.911
220.848
230.879
240.98
251.127
261.299
271.473
281.629
291.744
301.798
311.77
321.639
331.385
340.987
350.425
359.679
368.729
377.555
386.139
394.462
402.507
410.255
417.691
424.798
431.562
437.968
444.004
449.658
454.918
459.774
464.219
468.245
471.845
475.014
477.75
480.05
481.913
483.339
484.329
484.888
485.019
484.727
484.019
482.903
481.389
479.485
477.203
474.553
471.547
468.197
464.517
460.519
456.219
451.631
446.77
441.654
436.298
430.718
424.931
418.954
412.803
406.494
400.045
393.471
386.789
380.013
373.16
366.243
359.278
352.278
345.258
338.229
331.204
324.194
317.212
310.267
303.369
296.528
289.752
283.05
276.428
269.893
263.453
257.111
250.874
244.746
238.73
232.83
227.049
221.39
215.853
210.441
205.154
199.994
194.96
190.052
185.27
180.612
176.079
171.669
167.379
163.209
159.156
155.217
151.392
147.676
144.068
140.565
137.163
133.86
130.653
127.539
124.514
121.576
118.721
115.947
113.249
110.625
108.072
105.586
103.164
100.804
98.5026
96.2563
94.063
91.9206
89.8264
87.7778
85.7721
83.807
81.8799
79.9886
78.1309
76.3047
74.508
72.7389
70.9957
69.2769
67.5807
65.906
64.2514
62.6157
60.998
59.3973
57.8129
56.2441
54.6903
53.1512
51.6263
50.1154
48.6183
47.1344
45.6638
44.2062
42.7618
41.3306
39.9128
38.5086
37.1186
35.7431
34.3826
33.0378
31.7095
30.3984
29.1055
27.8319
26.5789
25.348
24.1411
22.9603
21.8084
20.6888
19.6059
18.5654
17.5753
16.6467
15.7963
15.0498
14.4513
14.0831
14.125
15.0665
18.9046
41.6082
316.119
155.566
125.949
118.197
117.734
120.711
125.658
131.875
138.98
146.742
155.011
163.682
172.678
181.941
191.425
201.091
210.907
220.843
230.874
240.975
251.122
261.294
271.468
281.623
291.738
301.792
311.764
321.634
331.379
340.981
350.419
359.673
368.723
377.549
386.133
394.457
402.501
410.249
417.685
424.792
431.556
437.963
443.998
449.652
454.912
459.768
464.213
468.239
471.839
475.009
477.745
480.045
481.907
483.333
484.324
484.882
485.013
484.721
484.014
482.898
481.383
479.48
477.198
474.548
471.542
468.193
464.512
460.514
456.214
451.626
446.766
441.65
436.294
430.714
424.927
418.95
412.799
406.491
400.042
393.468
386.785
380.01
373.156
366.24
359.275
352.276
345.255
338.226
331.201
324.192
317.209
310.264
303.367
296.526
289.75
283.048
276.426
269.892
263.451
257.11
250.873
244.744
238.729
232.829
227.048
221.388
215.852
210.439
205.153
199.992
194.958
190.05
185.268
180.611
176.078
171.668
167.378
163.208
159.155
155.217
151.391
147.675
144.067
140.564
137.162
133.86
130.653
127.538
124.514
121.576
118.721
115.946
113.248
110.624
108.071
105.585
103.164
100.804
98.5022
96.2559
94.0626
91.9203
89.8261
87.7775
85.7719
83.8067
81.8797
79.9884
78.1307
76.3045
74.5078
72.7387
70.9956
69.2767
67.5806
65.9059
64.2512
62.6156
60.9979
59.3972
57.8128
56.244
54.6902
53.1511
51.6262
50.1154
48.6182
47.1344
45.6637
44.2062
42.7618
41.3305
39.9127
38.5086
37.1186
35.7431
34.3826
33.0378
31.7095
30.3983
29.1054
27.8319
26.5789
25.348
24.1411
22.9603
21.8084
20.6888
19.6059
18.5654
17.5753
16.6467
15.7962
15.0498
14.4513
14.0831
14.125
15.0666
18.9049
41.6084
364.942
178.218
141.744
130.798
128.401
130.028
133.948
139.338
145.752
152.917
160.658
168.853
177.412
186.267
195.366
204.663
214.123
223.712
233.401
243.163
252.974
262.811
272.65
282.469
292.247
301.963
311.595
321.124
330.528
339.789
348.886
357.799
366.51
375
383.25
391.244
398.963
406.392
413.514
420.316
426.782
432.899
438.656
444.041
449.044
453.655
457.867
461.673
465.067
468.045
470.604
472.742
474.458
475.752
476.627
477.085
477.131
476.769
476.007
474.852
473.312
471.397
469.117
466.482
463.505
460.195
456.567
452.634
448.409
443.907
439.142
434.13
428.887
423.428
417.769
411.926
405.914
399.751
393.451
387.03
380.503
373.886
367.193
360.438
353.635
346.798
339.94
333.072
326.208
319.358
312.533
305.743
298.998
292.307
285.679
279.12
272.639
266.242
259.935
253.724
247.613
241.606
235.709
229.923
224.253
218.7
213.265
207.952
202.76
197.691
192.744
187.919
183.217
178.637
174.177
169.836
165.614
161.507
157.515
153.634
149.864
146.201
142.643
139.187
135.831
132.571
129.406
126.331
123.343
120.441
117.62
114.878
112.211
109.617
107.092
104.634
102.239
99.9039
97.6268
95.4044
93.2347
91.1152
89.0433
87.0165
85.0322
83.0879
81.1815
79.3107
77.4734
75.6675
73.8912
72.1427
70.4202
68.7223
67.0476
65.3945
63.7621
62.1491
60.5545
58.9775
57.4174
55.8735
54.3452
52.8321
51.3339
49.8503
48.381
46.9256
45.4841
44.0564
42.6424
41.2423
39.8562
38.4845
37.1275
35.7856
34.4594
33.1496
31.8569
30.5822
29.3266
28.0914
26.878
25.6882
24.524
23.3882
22.2839
21.2152
20.1874
19.2073
18.2843
17.4317
16.6692
16.0275
15.5585
15.3597
15.6428
16.9857
21.7319
48.5577
364.945
178.214
141.74
130.794
128.397
130.024
133.944
139.334
145.748
152.913
160.654
168.848
177.407
186.263
195.361
204.659
214.118
223.707
233.396
243.158
252.97
262.806
272.645
282.464
292.242
301.957
311.59
321.119
330.523
339.784
348.88
357.794
366.504
374.994
383.245
391.238
398.957
406.386
413.509
420.31
426.776
432.894
438.651
444.035
449.038
453.649
457.862
461.668
465.062
468.04
470.599
472.737
474.453
475.747
476.622
477.08
477.126
476.765
476.002
474.847
473.307
471.392
469.112
466.478
463.5
460.191
456.563
452.63
448.405
443.903
439.138
434.126
428.883
423.424
417.765
411.922
405.911
399.748
393.448
387.027
380.5
373.883
367.19
360.435
353.633
346.796
339.937
333.07
326.206
319.356
312.531
305.741
298.996
292.305
285.677
279.118
272.637
266.24
259.933
253.722
247.611
241.605
235.707
229.922
224.252
218.698
213.264
207.951
202.759
197.689
192.743
187.918
183.216
178.636
174.176
169.835
165.613
161.506
157.514
153.633
149.863
146.2
142.642
139.186
135.83
132.571
129.405
126.33
123.343
120.44
117.62
114.877
112.211
109.617
107.092
104.633
102.238
99.9035
97.6264
95.404
93.2343
91.1149
89.043
87.0162
85.0319
83.0877
81.1813
79.3105
77.4731
75.6673
73.891
72.1425
70.42
68.7222
67.0474
65.3944
63.7619
62.1489
60.5544
58.9774
57.4173
55.8734
54.3451
52.8321
51.3338
49.8502
48.3809
46.9255
45.484
44.0563
42.6423
41.2422
39.8562
38.4845
37.1274
35.7856
34.4594
33.1496
31.8569
30.5822
29.3266
28.0914
26.878
25.6881
24.524
23.3882
22.2839
21.2152
20.1874
19.2072
18.2843
17.4317
16.6692
16.0275
15.5585
15.3596
15.6428
16.9858
21.7322
48.5579
413.765
201.397
158.138
144.105
139.893
140.296
143.316
148.008
153.856
160.55
167.888
175.731
183.975
192.546
201.381
210.431
219.654
229.014
238.48
248.022
257.613
267.229
276.845
286.439
295.989
305.474
314.871
324.161
333.324
342.339
351.187
359.85
368.308
376.544
384.54
392.28
399.746
406.923
413.796
420.351
426.576
432.456
437.982
443.141
447.926
452.328
456.338
459.952
463.164
465.97
468.367
470.354
471.931
473.098
473.858
474.212
474.167
473.726
472.896
471.685
470.101
468.154
465.852
463.206
460.228
456.928
453.319
449.414
445.226
440.77
436.059
431.108
425.933
420.548
414.968
409.21
403.287
397.217
391.013
384.691
378.265
371.751
365.162
358.512
351.814
345.082
338.328
331.564
324.802
318.052
311.326
304.633
297.983
291.384
284.844
278.372
271.974
265.657
259.427
253.289
247.248
241.309
235.475
229.75
224.136
218.636
213.252
207.986
202.838
197.809
192.9
188.111
183.441
178.89
174.457
170.141
165.94
161.854
157.879
154.014
150.257
146.606
143.057
139.61
136.26
133.006
129.844
126.771
123.786
120.883
118.062
115.318
112.649
110.051
107.523
105.06
102.66
100.319
98.0365
95.8082
93.6327
91.5071
89.4289
87.3957
85.4049
83.4543
81.5417
79.6648
77.8217
76.0104
74.229
72.4759
70.7494
69.048
67.3704
65.7153
64.0814
62.4678
60.8734
59.2975
57.7393
56.1982
54.6737
53.1652
51.6725
50.1952
48.7332
47.2861
45.8537
44.4361
43.0331
41.6449
40.2717
38.9137
37.5713
36.2449
34.935
33.6425
32.368
31.1125
29.8773
28.6636
27.4732
26.3079
25.1704
24.0634
22.9908
21.9571
20.9686
20.033
19.1614
18.369
17.6785
17.1254
16.7698
16.7243
17.2335
18.965
24.6134
55.5724
413.767
201.393
158.134
144.101
139.889
140.292
143.312
148.004
153.852
160.546
167.884
175.726
183.971
192.541
201.376
210.426
219.649
229.01
238.475
248.017
257.608
267.224
276.84
286.435
295.985
305.469
314.866
324.156
333.319
342.334
351.182
359.845
368.303
376.539
384.535
392.274
399.74
406.918
413.791
420.346
426.57
432.451
437.976
443.136
447.921
452.323
456.333
459.947
463.159
465.965
468.362
470.35
471.926
473.094
473.853
474.208
474.162
473.721
472.892
471.681
470.097
468.149
465.848
463.202
460.224
456.924
453.315
449.41
445.223
440.766
436.056
431.105
425.93
420.544
414.965
409.207
403.284
397.214
391.01
384.688
378.263
371.748
365.159
358.509
351.812
345.08
338.326
331.562
324.8
318.05
311.324
304.631
297.981
291.382
284.842
278.37
271.972
265.655
259.425
253.287
247.247
241.307
235.474
229.748
224.135
218.635
213.251
207.985
202.837
197.808
192.899
188.11
183.44
178.89
174.457
170.14
165.94
161.853
157.878
154.013
150.256
146.605
143.057
139.609
136.26
133.005
129.843
126.771
123.785
120.883
118.061
115.318
112.648
110.051
107.522
105.059
102.659
100.319
98.0361
95.8079
93.6323
91.5067
89.4286
87.3954
85.4046
83.4541
81.5414
79.6646
77.8214
76.0101
74.2288
72.4757
70.7492
69.0478
67.3702
65.7151
64.0812
62.4676
60.8733
59.2974
57.7392
56.1981
54.6735
53.1651
51.6724
50.1951
48.7331
47.286
45.8537
44.436
43.0331
41.6449
40.2717
38.9137
37.5712
36.2448
34.935
33.6424
32.3679
31.1125
29.8773
28.6636
27.4731
26.3079
25.1703
24.0634
22.9907
21.9571
20.9685
20.033
19.1614
18.369
17.6785
17.1254
16.7698
16.7243
17.2335
18.965
24.6137
55.5726
462.843
225.147
175.153
158.095
152.147
151.413
153.625
157.711
163.087
169.403
176.431
184.013
192.036
200.412
209.074
217.966
227.041
236.261
245.591
254.998
264.454
273.933
283.409
292.86
302.261
311.59
320.828
329.952
338.944
347.782
356.448
364.924
373.19
381.231
389.028
396.565
403.828
410.8
417.467
423.817
429.837
435.515
440.841
445.804
450.396
454.61
458.439
461.877
464.92
467.564
469.808
471.65
473.09
474.13
474.772
475.018
474.874
474.344
473.436
472.156
470.512
468.514
466.172
463.494
460.492
457.178
453.563
449.659
445.481
441.04
436.352
431.43
426.29
420.944
415.409
409.699
403.83
397.814
391.669
385.407
379.043
372.592
366.067
359.481
352.848
346.179
339.488
332.787
326.085
319.395
312.725
306.087
299.49
292.941
286.449
280.022
273.666
267.388
261.194
255.089
249.078
243.166
237.356
231.652
226.057
220.572
215.201
209.944
204.803
199.779
194.871
190.081
185.409