/*--------------------------------*- C++ -*----------------------------------*\
  =========                 |
  \\      /  F ield         | OpenFOAM: The Open Source CFD Toolbox
   \\    /   O peration     | Website:  https://openfoam.org
    \\  /    A nd           | Version:  8
     \\/     M anipulation  |
\*---------------------------------------------------------------------------*/
FoamFile
{
    version     2.0;
    format      ascii;
    class       volScalarField;
    location    "3200";
    object      k;
}
// * * * * * * * * * * * * * * * * * * * * * * * * * * * * * * * * * * * * * //

dimensions      [0 2 -2 0 0 0 0];

internalField   nonuniform List<scalar> 
46000
(
0.0109641
0.0464201
0.0875846
0.126036
0.162356
0.19749
0.231842
0.265504
0.298671
0.331464
0.364024
0.396378
0.428408
0.460229
0.491864
0.523314
0.554571
0.585621
0.616446
0.647021
0.677322
0.707318
0.736979
0.766272
0.795163
0.823617
0.851597
0.879067
0.905991
0.932331
0.958051
0.983114
1.00749
1.03113
1.05402
1.07611
1.09738
1.1178
1.13733
1.15596
1.17365
1.19039
1.20615
1.22092
1.23467
1.2474
1.2591
1.26975
1.27934
1.28788
1.29536
1.30178
1.30715
1.31146
1.31473
1.31696
1.31817
1.31837
1.31759
1.31583
1.31313
1.30951
1.30504
1.2997
1.29351
1.2865
1.27868
1.27009
1.26076
1.25072
1.24001
1.22865
1.2167
1.20417
1.1911
1.17754
1.16351
1.14905
1.1342
1.11899
1.10345
1.08763
1.07155
1.05524
1.03874
1.02209
1.0053
0.988412
0.971453
0.95445
0.937428
0.920414
0.903432
0.886505
0.869653
0.852899
0.836261
0.819758
0.803406
0.78722
0.771217
0.755407
0.739805
0.724421
0.709263
0.694342
0.679665
0.665238
0.651067
0.637156
0.623509
0.610129
0.597017
0.584174
0.571602
0.559298
0.547262
0.535492
0.523986
0.51274
0.501751
0.491014
0.480525
0.47028
0.460272
0.450496
0.440945
0.431615
0.422497
0.413585
0.404873
0.396353
0.388019
0.379862
0.371875
0.364052
0.356385
0.348867
0.34149
0.334247
0.327132
0.320136
0.313254
0.306478
0.299797
0.293225
0.286746
0.280352
0.274036
0.267794
0.261619
0.255508
0.249455
0.243457
0.23751
0.23161
0.225754
0.219939
0.214162
0.208421
0.202715
0.19704
0.191396
0.185782
0.180215
0.174687
0.169188
0.163717
0.158275
0.152861
0.147475
0.142118
0.136791
0.131494
0.126228
0.120994
0.115792
0.110623
0.105488
0.100387
0.0953197
0.0902862
0.085285
0.0803078
0.0753655
0.0704539
0.0655643
0.0606965
0.0558433
0.0509965
0.0461454
0.0412755
0.0363872
0.0314679
0.0264674
0.0213388
0.0160268
0.0104934
0.00494211
0.000996898
0.0109647
0.0464221
0.0875869
0.126039
0.162358
0.197492
0.231844
0.265506
0.298673
0.331466
0.364026
0.39638
0.42841
0.460231
0.491865
0.523315
0.554572
0.585623
0.616447
0.647022
0.677322
0.707318
0.736979
0.766272
0.795163
0.823617
0.851597
0.879067
0.90599
0.93233
0.95805
0.983114
1.00749
1.03113
1.05402
1.07611
1.09738
1.1178
1.13733
1.15596
1.17365
1.19039
1.20615
1.22092
1.23467
1.2474
1.2591
1.26975
1.27934
1.28788
1.29536
1.30178
1.30714
1.31146
1.31472
1.31696
1.31817
1.31837
1.31759
1.31583
1.31312
1.30951
1.30504
1.2997
1.29351
1.28649
1.27868
1.27009
1.26076
1.25072
1.24
1.22865
1.21669
1.20417
1.1911
1.17754
1.16351
1.14905
1.1342
1.11899
1.10345
1.08763
1.07155
1.05524
1.03874
1.02209
1.0053
0.98841
0.971451
0.954447
0.937426
0.920412
0.90343
0.886503
0.869651
0.852897
0.836259
0.819756
0.803404
0.787219
0.771215
0.755406
0.739803
0.724419
0.709262
0.694341
0.679663
0.665236
0.651065
0.637154
0.623507
0.610127
0.597015
0.584173
0.5716
0.559296
0.547261
0.535491
0.523985
0.512739
0.501749
0.491013
0.480524
0.470279
0.460271
0.450494
0.440944
0.431613
0.422496
0.413584
0.404872
0.396352
0.388017
0.379861
0.371874
0.364051
0.356384
0.348866
0.341489
0.334247
0.327131
0.320135
0.313253
0.306477
0.299797
0.293224
0.286745
0.280351
0.274035
0.267793
0.261618
0.255507
0.249455
0.243457
0.237509
0.231609
0.225753
0.219938
0.214161
0.208421
0.202714
0.197039
0.191395
0.185781
0.180215
0.174686
0.169187
0.163717
0.158275
0.15286
0.147475
0.142118
0.136791
0.131494
0.126228
0.120994
0.115792
0.110623
0.105488
0.100387
0.0953195
0.090286
0.0852849
0.0803076
0.0753654
0.0704538
0.0655642
0.0606964
0.0558432
0.0509965
0.0461453
0.0412755
0.0363873
0.031468
0.0264676
0.021339
0.0160269
0.0104935
0.00494217
0.000996917
0.0460724
0.153556
0.230511
0.294867
0.352636
0.406189
0.456662
0.504891
0.551438
0.596604
0.640617
0.683676
0.725898
0.767384
0.808204
0.848405
0.888017
0.927058
0.965534
1.00345
1.04079
1.07754
1.11369
1.14923
1.18411
1.21832
1.25183
1.28462
1.31664
1.34787
1.37828
1.40784
1.43651
1.46426
1.49107
1.5169
1.54172
1.56552
1.58825
1.60991
1.63046
1.64988
1.66816
1.68527
1.70122
1.71597
1.72952
1.74187
1.753
1.76292
1.77162
1.7791
1.78538
1.79045
1.79432
1.79701
1.79853
1.79889
1.79812
1.79623
1.79325
1.78921
1.78414
1.77806
1.77099
1.76296
1.75401
1.74415
1.73343
1.72188
1.70954
1.69645
1.68263
1.66814
1.653
1.63726
1.62095
1.60412
1.5868
1.56904
1.55086
1.53231
1.51342
1.49423
1.47478
1.4551
1.43523
1.41519
1.39503
1.37477
1.35445
1.33408
1.31371
1.29336
1.27304
1.2528
1.23264
1.2126
1.19269
1.17293
1.15334
1.13394
1.11473
1.09575
1.07699
1.05847
1.04021
1.0222
1.00446
0.986996
0.969813
0.952916
0.936309
0.919993
0.903973
0.888247
0.872817
0.857682
0.84284
0.828289
0.814027
0.800049
0.786351
0.772929
0.759777
0.74689
0.73426
0.721882
0.709748
0.697851
0.686183
0.674736
0.663502
0.652472
0.641638
0.63099
0.620521
0.61022
0.600079
0.590089
0.580241
0.570525
0.560932
0.551455
0.542093
0.532838
0.523677
0.514602
0.505604
0.496675
0.487808
0.478997
0.470233
0.46151
0.452823
0.444166
0.435533
0.426919
0.418319
0.40973
0.401145
0.392563
0.383979
0.375389
0.366793
0.358193
0.349583
0.340961
0.332324
0.323669
0.314996
0.306302
0.297587
0.288849
0.280086
0.271296
0.262479
0.25363
0.244748
0.235829
0.226868
0.21786
0.208797
0.199672
0.190473
0.181186
0.171787
0.162271
0.152608
0.142762
0.13269
0.122331
0.111598
0.100402
0.0886026
0.0759707
0.0621502
0.0465083
0.0275968
0.00485629
0.0460741
0.153559
0.230513
0.294868
0.352636
0.40619
0.456663
0.504891
0.551438
0.596604
0.640616
0.683675
0.725897
0.767383
0.808202
0.848403
0.888015
0.927056
0.965532
1.00344
1.04078
1.07754
1.11369
1.14922
1.18411
1.21832
1.25183
1.28461
1.31664
1.34787
1.37828
1.40783
1.4365
1.46425
1.49106
1.51689
1.54172
1.56551
1.58825
1.6099
1.63045
1.64987
1.66815
1.68527
1.70121
1.71596
1.72952
1.74186
1.75299
1.76291
1.77161
1.7791
1.78537
1.79044
1.79431
1.797
1.79852
1.79888
1.79811
1.79622
1.79324
1.7892
1.78413
1.77805
1.77098
1.76296
1.754
1.74414
1.73343
1.72188
1.70954
1.69644
1.68263
1.66813
1.653
1.63725
1.62095
1.60412
1.5868
1.56903
1.55085
1.5323
1.51341
1.49423
1.47477
1.4551
1.43522
1.41519
1.39503
1.37477
1.35444
1.33408
1.31371
1.29335
1.27304
1.25279
1.23264
1.21259
1.19268
1.17292
1.15333
1.13393
1.11473
1.09574
1.07698
1.05847
1.0402
1.02219
1.00446
0.986992
0.969809
0.952912
0.936304
0.919989
0.903968
0.888243
0.872813
0.857678
0.842836
0.828286
0.814023
0.800045
0.786347
0.772925
0.759773
0.746886
0.734257
0.721879
0.709745
0.697848
0.68618
0.674733
0.663499
0.652469
0.641635
0.630987
0.620518
0.610217
0.600076
0.590086
0.580238
0.570523
0.56093
0.551452
0.542091
0.532835
0.523674
0.514599
0.505601
0.496673
0.487806
0.478994
0.47023
0.461508
0.452821
0.444164
0.435531
0.426917
0.418318
0.409728
0.401144
0.392561
0.383977
0.375388
0.366791
0.358191
0.349582
0.34096
0.332322
0.323668
0.314994
0.306301
0.297586
0.288847
0.280084
0.271295
0.262478
0.253629
0.244747
0.235828
0.226867
0.217859
0.208797
0.199671
0.190472
0.181185
0.171787
0.162271
0.152607
0.142762
0.13269
0.122331
0.111598
0.100402
0.0886023
0.0759705
0.06215
0.0465082
0.0275967
0.00485628
0.088125
0.232365
0.326001
0.402221
0.470386
0.533492
0.593084
0.650002
0.704831
0.757966
0.809683
0.86019
0.909633
0.958123
1.00574
1.05255
1.09859
1.14387
1.18843
1.23225
1.27534
1.31769
1.35928
1.40009
1.44011
1.4793
1.51763
1.55509
1.59163
1.62723
1.66185
1.69547
1.72804
1.75955
1.78995
1.81922
1.84732
1.87424
1.89994
1.9244
1.94759
1.9695
1.9901
2.00939
2.02733
2.04393
2.05917
2.07304
2.08554
2.09667
2.10642
2.11481
2.12182
2.12748
2.13179
2.13477
2.13642
2.13677
2.13584
2.13366
2.13024
2.12562
2.11982
2.11288
2.10482
2.09568
2.08548
2.07426
2.06207
2.04893
2.03489
2.01998
2.00426
1.98776
1.97052
1.95259
1.934
1.91481
1.89506
1.87478
1.85402
1.83282
1.81122
1.78927
1.76701
1.74447
1.72169
1.69871
1.67557
1.65229
1.62893
1.60551
1.58205
1.5586
1.53518
1.51182
1.48854
1.46538
1.44235
1.41948
1.39678
1.37429
1.35201
1.32996
1.30816
1.28662
1.26536
1.24438
1.2237
1.20333
1.18326
1.16351
1.14409
1.125
1.10623
1.0878
1.0697
1.05193
1.0345
1.01739
1.00062
0.984161
0.968026
0.952204
0.93669
0.921479
0.906562
0.891933
0.877584
0.863506
0.849691
0.836129
0.822812
0.809729
0.796871
0.784227
0.771787
0.759541
0.747479
0.735589
0.723861
0.712284
0.700848
0.689551
0.678382
0.667331
0.656386
0.645536
0.634773
0.624087
0.613468
0.602909
0.5924
0.581934
0.571505
0.561103
0.550723
0.540359
0.530004
0.519654
0.509302
0.498944
0.488575
0.478192
0.467792
0.457374
0.446933
0.436466
0.42597
0.415441
0.404877
0.394277
0.383636
0.372954
0.362227
0.351454
0.34063
0.329752
0.318817
0.307819
0.296751
0.285608
0.274379
0.263054
0.251619
0.240056
0.228346
0.216462
0.204371
0.192038
0.17941
0.166418
0.15297
0.138938
0.124163
0.10838
0.0911398
0.0715024
0.0466441
0.0103084
0.0881273
0.232367
0.326002
0.402221
0.470385
0.53349
0.593083
0.650001
0.704829
0.757964
0.809681
0.860188
0.90963
0.958121
1.00574
1.05255
1.09858
1.14387
1.18842
1.23225
1.27534
1.31769
1.35928
1.40009
1.4401
1.47929
1.51763
1.55508
1.59163
1.62722
1.66185
1.69546
1.72804
1.75954
1.78994
1.81921
1.84732
1.87423
1.89993
1.92439
1.94758
1.96949
1.9901
2.00938
2.02732
2.04392
2.05916
2.07303
2.08554
2.09666
2.10642
2.1148
2.12182
2.12747
2.13178
2.13476
2.13641
2.13677
2.13584
2.13365
2.13023
2.12561
2.11982
2.11287
2.10482
2.09567
2.08547
2.07426
2.06206
2.04892
2.03488
2.01998
2.00425
1.98775
1.97051
1.95258
1.934
1.9148
1.89505
1.87477
1.85401
1.83281
1.81122
1.78927
1.767
1.74446
1.72168
1.6987
1.67556
1.65229
1.62892
1.6055
1.58204
1.55859
1.53517
1.51181
1.48854
1.46537
1.44234
1.41947
1.39678
1.37428
1.352
1.32995
1.30815
1.28662
1.26535
1.24438
1.2237
1.20332
1.18326
1.16351
1.14409
1.12499
1.10623
1.0878
1.0697
1.05193
1.03449
1.01739
1.00061
0.984157
0.968021
0.952199
0.936686
0.921475
0.906558
0.891929
0.87758
0.863502
0.849687
0.836126
0.822808
0.809725
0.796867
0.784223
0.771784
0.759538
0.747475
0.735585
0.723858
0.712281
0.700845
0.689548
0.678379
0.667328
0.656383
0.645534
0.634771
0.624084
0.613466
0.602906
0.592398
0.581932
0.571502
0.561101
0.550721
0.540357
0.530002
0.519652
0.5093
0.498942
0.488573
0.478191
0.46779
0.457372
0.446931
0.436465
0.425968
0.415439
0.404876
0.394275
0.383635
0.372953
0.362226
0.351452
0.340628
0.329751
0.318816
0.307817
0.29675
0.285607
0.274378
0.263053
0.251618
0.240056
0.228345
0.216462
0.204371
0.192037
0.17941
0.166418
0.15297
0.138937
0.124163
0.10838
0.0911397
0.0715024
0.0466441
0.0103084
0.128655
0.300041
0.405854
0.490191
0.565182
0.634612
0.700293
0.763182
0.823876
0.882771
0.940147
0.996207
1.0511
1.10493
1.15779
1.20972
1.26078
1.31098
1.36034
1.40886
1.45654
1.50337
1.54934
1.59441
1.63857
1.68179
1.72405
1.76531
1.80553
1.84469
1.88276
1.91969
1.95546
1.99003
2.02337
2.05545
2.08624
2.1157
2.14382
2.17056
2.19591
2.21984
2.24232
2.26335
2.28291
2.30098
2.31756
2.33264
2.34622
2.35828
2.36884
2.37789
2.38545
2.39152
2.39611
2.39924
2.40093
2.40119
2.40004
2.39752
2.39365
2.38846
2.38197
2.37423
2.36527
2.35511
2.34379
2.33136
2.31786
2.30331
2.28778
2.2713
2.25391
2.23566
2.2166
2.19678
2.17624
2.15502
2.13317
2.11075
2.08779
2.06434
2.04045
2.01616
1.99151
1.96656
1.94133
1.91587
1.89023
1.86444
1.83853
1.81255
1.78653
1.7605
1.7345
1.70856
1.6827
1.65696
1.63136
1.60592
1.58068
1.55564
1.53084
1.50629
1.482
1.458
1.4343
1.4109
1.38783
1.36509
1.3427
1.32065
1.29895
1.27762
1.25664
1.23603
1.21579
1.19591
1.1764
1.15726
1.13847
1.12004
1.10197
1.08424
1.06685
1.04979
1.03307
1.01666
1.00056
0.984762
0.969256
0.954031
0.939078
0.924385
0.909942
0.895737
0.881759
0.867996
0.854438
0.841071
0.827884
0.814866
0.802009
0.789306
0.776743
0.76431
0.751995
0.739786
0.727672
0.715643
0.703688
0.6918
0.679967
0.668181
0.656434
0.644718
0.633025
0.621348
0.60968
0.598015
0.586347
0.574671
0.562982
0.551275
0.539546
0.527794
0.516013
0.5042
0.492351
0.480462
0.46853
0.456553
0.444527
0.43245
0.420318
0.408129
0.395877
0.38356
0.371173
0.358709
0.346162
0.333524
0.320784
0.307932
0.294953
0.281828
0.268537
0.255052
0.241341
0.227361
0.213057
0.198363
0.183186
0.167394
0.150804
0.133127
0.113821
0.0916422
0.0626469
0.0158352
0.128658
0.300042
0.405854
0.49019
0.56518
0.63461
0.70029
0.76318
0.823873
0.882768
0.940144
0.996204
1.05109
1.10493
1.15778
1.20972
1.26077
1.31098
1.36034
1.40886
1.45654
1.50337
1.54933
1.5944
1.63857
1.68179
1.72404
1.7653
1.80553
1.84469
1.88275
1.91969
1.95545
1.99003
2.02337
2.05545
2.08623
2.1157
2.14381
2.17056
2.1959
2.21983
2.24231
2.26334
2.2829
2.30098
2.31756
2.33263
2.34621
2.35827
2.36883
2.37789
2.38544
2.39151
2.39611
2.39924
2.40092
2.40118
2.40004
2.39751
2.39364
2.38845
2.38197
2.37423
2.36526
2.3551
2.34379
2.33136
2.31785
2.30331
2.28777
2.27129
2.2539
2.23566
2.2166
2.19677
2.17623
2.15501
2.13317
2.11074
2.08778
2.06433
2.04044
2.01615
1.99151
1.96655
1.94132
1.91587
1.89022
1.86443
1.83852
1.81254
1.78652
1.7605
1.7345
1.70855
1.6827
1.65695
1.63135
1.60592
1.58067
1.55564
1.53083
1.50628
1.482
1.45799
1.43429
1.4109
1.38783
1.36509
1.34269
1.32064
1.29895
1.27761
1.25664
1.23603
1.21579
1.19591
1.1764
1.15725
1.13847
1.12004
1.10196
1.08423
1.06684
1.04979
1.03306
1.01665
1.00056
0.984758
0.969252
0.954028
0.939075
0.924382
0.909939
0.895734
0.881756
0.867993
0.854435
0.841068
0.827882
0.814863
0.802006
0.789303
0.776741
0.764308
0.751992
0.739783
0.727669
0.71564
0.703686
0.691797
0.679965
0.668179
0.656432
0.644716
0.633023
0.621346
0.609678
0.598013
0.586345
0.574669
0.56298
0.551273
0.539544
0.527792
0.516011
0.504198
0.492349
0.48046
0.468529
0.456552
0.444526
0.432449
0.420317
0.408127
0.395876
0.383559
0.371172
0.358708
0.346161
0.333523
0.320784
0.307931
0.294952
0.281828
0.268536
0.255052
0.24134
0.22736
0.213057
0.198363
0.183186
0.167394
0.150804
0.133127
0.113821
0.0916424
0.062647
0.0158352
0.167937
0.361965
0.478618
0.569983
0.650497
0.724947
0.795424
0.863009
0.928342
0.991831
1.05376
1.11431
1.17365
1.23187
1.28904
1.34522
1.40045
1.45474
1.50812
1.56057
1.61209
1.66268
1.71231
1.76095
1.80859
1.8552
1.90074
1.94518
1.98848
2.03062
2.07156
2.11126
2.14968
2.1868
2.22258
2.25698
2.28998
2.32154
2.35164
2.38025
2.40735
2.43291
2.45692
2.47935
2.5002
2.51944
2.53708
2.5531
2.5675
2.58027
2.59143
2.60097
2.60891
2.61524
2.61999
2.62317
2.6248
2.6249
2.6235
2.62062
2.61629
2.61054
2.6034
2.59492
2.58512
2.57404
2.56172
2.5482
2.53353
2.51774
2.50089
2.48302
2.46417
2.44441
2.42376
2.40229
2.38005
2.35708
2.33343
2.30916
2.2843
2.25892
2.23305
2.20675
2.18007
2.15304
2.12572
2.09815
2.07037
2.04242
2.01435
1.98619
1.95798
1.92976
1.90156
1.87342
1.84537
1.81743
1.78964
1.76203
1.73461
1.70742
1.68047
1.65379
1.6274
1.6013
1.57553
1.55008
1.52498
1.50024
1.47586
1.45185
1.42823
1.40499
1.38214
1.35968
1.33762
1.31595
1.29468
1.2738
1.25331
1.2332
1.21347
1.19412
1.17514
1.15652
1.13825
1.12033
1.10274
1.08548
1.06854
1.0519
1.03555
1.01949
1.0037
0.988166
0.972879
0.957825
0.942994
0.92837
0.913943
0.899701
0.885637
0.871738
0.857992
0.844386
0.830908
0.817545
0.804286
0.791121
0.778037
0.765025
0.752075
0.739176
0.72632
0.713499
0.700703
0.687926
0.67516
0.662398
0.649633
0.636861
0.624075
0.61127
0.598443
0.585589
0.572705
0.559786
0.546827
0.533825
0.520776
0.507678
0.494525
0.481316
0.468046
0.454712
0.441309
0.427833
0.414279
0.400641
0.386911
0.37308
0.35914
0.345077
0.330878
0.316524
0.301994
0.287262
0.272294
0.257049
0.241473
0.225496
0.209022
0.191914
0.173969
0.154856
0.133919
0.109609
0.0770198
0.0212859
0.16794
0.361966
0.478617
0.569981
0.650495
0.724945
0.795421
0.863007
0.928339
0.991828
1.05375
1.11431
1.17365
1.23186
1.28903
1.34522
1.40044
1.45474
1.50811
1.56057
1.61209
1.66268
1.7123
1.76095
1.80859
1.85519
1.90073
1.94517
1.98848
2.03062
2.07155
2.11125
2.14968
2.18679
2.22257
2.25697
2.28997
2.32153
2.35163
2.38025
2.40734
2.4329
2.45691
2.47934
2.50019
2.51943
2.53707
2.55309
2.56749
2.58027
2.59142
2.60097
2.6089
2.61523
2.61998
2.62317
2.6248
2.6249
2.62349
2.62061
2.61628
2.61053
2.6034
2.59491
2.58511
2.57403
2.56171
2.54819
2.53352
2.51773
2.50088
2.48301
2.46417
2.4444
2.42376
2.40229
2.38004
2.35707
2.33342
2.30915
2.28429
2.25891
2.23305
2.20675
2.18006
2.15304
2.12572
2.09814
2.07036
2.04242
2.01434
1.98618
1.95798
1.92976
1.90156
1.87342
1.84536
1.81743
1.78964
1.76202
1.73461
1.70742
1.68047
1.65379
1.62739
1.6013
1.57552
1.55008
1.52498
1.50023
1.47585
1.45185
1.42822
1.40498
1.38214
1.35968
1.33762
1.31595
1.29468
1.27379
1.2533
1.23319
1.21347
1.19412
1.17514
1.15652
1.13825
1.12033
1.10274
1.08548
1.06854
1.0519
1.03555
1.01949
1.0037
0.988163
0.972876
0.957823
0.942991
0.928368
0.913941
0.899698
0.885634
0.871736
0.85799
0.844384
0.830905
0.817543
0.804284
0.791119
0.778035
0.765023
0.752073
0.739174
0.726319
0.713497
0.700702
0.687925
0.675158
0.662396
0.649632
0.636859
0.624073
0.611269
0.598441
0.585588
0.572704
0.559784
0.546826
0.533824
0.520775
0.507676
0.494524
0.481315
0.468045
0.454711
0.441308
0.427832
0.414278
0.40064
0.38691
0.37308
0.359139
0.345077
0.330877
0.316524
0.301994
0.287261
0.272293
0.257048
0.241472
0.225496
0.209022
0.191914
0.173969
0.154856
0.13392
0.10961
0.07702
0.0212859
0.206659
0.420241
0.547019
0.645071
0.730775
0.809755
0.884454
0.956113
1.02544
1.09289
1.15873
1.22317
1.28634
1.34836
1.40928
1.46915
1.52801
1.58587
1.64274
1.69861
1.75348
1.80733
1.86014
1.91189
1.96254
2.01207
2.06044
2.10762
2.15357
2.19826
2.24166
2.28371
2.32439
2.36367
2.4015
2.43785
2.4727
2.50601
2.53776
2.56791
2.59645
2.62334
2.64858
2.67214
2.69401
2.71418
2.73264
2.74938
2.76441
2.77771
2.78929
2.79917
2.80734
2.81381
2.81862
2.82176
2.82326
2.82314
2.82143
2.81816
2.81336
2.80706
2.7993
2.79011
2.77952
2.76759
2.75434
2.73983
2.7241
2.70719
2.68915
2.67004
2.6499
2.62878
2.60673
2.58381
2.56006
2.53555
2.51031
2.48441
2.4579
2.43082
2.40323
2.37517
2.3467
2.31787
2.28872
2.2593
2.22966
2.19983
2.16987
2.13981
2.1097
2.07956
2.04945
2.01939
1.98942
1.95957
1.92987
1.90036
1.87105
1.84197
1.81315
1.78461
1.75636
1.72843
1.70084
1.6736
1.64672
1.62022
1.5941
1.56837
1.54305
1.51814
1.49363
1.46955
1.44588
1.42263
1.3998
1.37738
1.35538
1.33378
1.3126
1.29181
1.27141
1.25139
1.23176
1.21248
1.19357
1.17501
1.15678
1.13887
1.12128
1.10399
1.08699
1.07026
1.0538
1.03759
1.02161
1.00586
0.990315
0.974973
0.95982
0.944845
0.930032
0.915369
0.900843
0.886441
0.872151
0.857962
0.843862
0.829839
0.815884
0.801985
0.788135
0.774322
0.76054
0.746779
0.733032
0.719291
0.70555
0.691803
0.678044
0.664268
0.650469
0.636644
0.622788
0.608896
0.594965
0.580988
0.566964
0.552887
0.538754
0.524561
0.510304
0.495979
0.481582
0.467107
0.452548
0.4379
0.423155
0.408304
0.393337
0.378242
0.363005
0.347608
0.33203
0.316246
0.300222
0.283917
0.267277
0.250231
0.232677
0.214469
0.195376
0.175003
0.152588
0.126288
0.0903687
0.0266843
0.206661
0.420241
0.547018
0.645069
0.730772
0.809753
0.884451
0.95611
1.02544
1.09288
1.15872
1.22316
1.28634
1.34835
1.40927
1.46915
1.52801
1.58587
1.64273
1.69861
1.75348
1.80733
1.86014
1.91188
1.96254
2.01207
2.06044
2.10762
2.15357
2.19826
2.24165
2.2837
2.32439
2.36366
2.40149
2.43785
2.4727
2.50601
2.53775
2.5679
2.59644
2.62334
2.64857
2.67214
2.69401
2.71418
2.73264
2.74938
2.7644
2.7777
2.78929
2.79916
2.80733
2.81381
2.81861
2.82175
2.82325
2.82313
2.82143
2.81816
2.81336
2.80706
2.79929
2.7901
2.77952
2.76758
2.75434
2.73982
2.72409
2.70718
2.68915
2.67003
2.64989
2.62877
2.60672
2.5838
2.56006
2.53554
2.51031
2.48441
2.45789
2.43081
2.40322
2.37517
2.3467
2.31787
2.28872
2.2593
2.22965
2.19983
2.16987
2.13981
2.10969
2.07956
2.04945
2.01939
1.98942
1.95957
1.92987
1.90035
1.87104
1.84196
1.81314
1.7846
1.75636
1.72843
1.70084
1.6736
1.64672
1.62021
1.59409
1.56837
1.54305
1.51813
1.49363
1.46954
1.44588
1.42263
1.39979
1.37738
1.35538
1.33378
1.31259
1.2918
1.2714
1.25139
1.23175
1.21248
1.19357
1.175
1.15677
1.13887
1.12128
1.10399
1.08699
1.07026
1.0538
1.03759
1.02161
1.00586
0.990313
0.974971
0.959819
0.944843
0.93003
0.915367
0.900841
0.886439
0.87215
0.85796
0.84386
0.829837
0.815882
0.801984
0.788133
0.774321
0.760538
0.746777
0.73303
0.71929
0.705549
0.691802
0.678043
0.664267
0.650468
0.636643
0.622787
0.608895
0.594964
0.580987
0.566963
0.552886
0.538753
0.52456
0.510303
0.495979
0.481581
0.467106
0.452548
0.4379
0.423154
0.408304
0.393337
0.378242
0.363005
0.347608
0.33203
0.316245
0.300221
0.283917
0.267277
0.250231
0.232677
0.214469
0.195376
0.175003
0.152588
0.126288
0.090369
0.0266844
0.244976
0.475999
0.612579
0.7172
0.808016
0.891375
0.970067
1.04551
1.11852
1.18956
1.25895
1.32691
1.39355
1.459
1.52329
1.5865
1.64862
1.70969
1.7697
1.82865
1.88651
1.94329
1.99894
2.05344
2.10677
2.15889
2.20976
2.25935
2.30762
2.35454
2.40007
2.44416
2.48679
2.52792
2.56751
2.60552
2.64194
2.67672
2.70984
2.74127
2.77099
2.79897
2.8252
2.84967
2.87235
2.89324
2.91232
2.9296
2.94508
2.95875
2.97061
2.98068
2.98896
2.99547
3.00023
3.00324
3.00455
3.00416
3.0021
2.99841
2.99313
2.98627
2.97788
2.96801
2.95667
2.94393
2.92982
2.91438
2.89767
2.87973
2.86061
2.84036
2.81904
2.7967
2.77339
2.74916
2.72407
2.69818
2.67153
2.64418
2.61618
2.5876
2.55847
2.52886
2.49881
2.46838
2.43761
2.40655
2.37526
2.34377
2.31213
2.28039
2.24858
2.21675
2.18494
2.15318
2.12151
2.08996
2.05857
2.02736
1.99636
1.9656
1.93511
1.90491
1.87501
1.84545
1.81623
1.78738
1.7589
1.73082
1.70314
1.67587
1.64901
1.62259
1.59659
1.57104
1.54591
1.52123
1.49698
1.47317
1.44979
1.42685
1.40432
1.38222
1.36052
1.33923
1.31834
1.29783
1.27769
1.25792
1.23851
1.21943
1.20069
1.18226
1.16414
1.14631
1.12875
1.11146
1.09441
1.07761
1.06102
1.04465
1.02848
1.0125
0.996689
0.981036
0.965528
0.950153
0.934897
0.919748
0.904695
0.889726
0.87483
0.859997
0.845216
0.830478
0.815774
0.801096
0.786436
0.771786
0.757139
0.742489
0.727829
0.713155
0.69846
0.683741
0.668992
0.654209
0.639386
0.62452
0.609605
0.594638
0.579614
0.564529
0.549379
0.534159
0.518863
0.503487
0.488025
0.47247
0.456813
0.441047
0.425162
0.409145
0.392981
0.376655
0.360144
0.343424
0.326461
0.309215
0.291628
0.273627
0.255102
0.235892
0.215736
0.19418
0.170339
0.142107
0.103027
0.0320633
0.244978
0.475999
0.612578
0.717197
0.808014
0.891372
0.970064
1.04551
1.11851
1.18956
1.25895
1.3269
1.39355
1.45899
1.52329
1.58649
1.64862
1.70969
1.7697
1.82864
1.88651
1.94328
1.99893
2.05344
2.10677
2.15888
2.20975
2.25935
2.30762
2.35454
2.40006
2.44416
2.48679
2.52791
2.5675
2.60552
2.64193
2.67671
2.70983
2.74126
2.77098
2.79896
2.8252
2.84966
2.87234
2.89323
2.91232
2.9296
2.94507
2.95874
2.9706
2.98067
2.98896
2.99547
3.00022
3.00324
3.00454
3.00415
3.0021
2.99841
2.99312
2.98626
2.97788
2.968
2.95667
2.94392
2.92981
2.91437
2.89766
2.87972
2.8606
2.84036
2.81904
2.7967
2.77338
2.74916
2.72407
2.69817
2.67152
2.64417
2.61618
2.58759
2.55847
2.52885
2.4988
2.46837
2.4376
2.40655
2.37525
2.34376
2.31213
2.28038
2.24858
2.21675
2.18494
2.15318
2.12151
2.08996
2.05856
2.02735
1.99636
1.9656
1.93511
1.9049
1.87501
1.84545
1.81623
1.78738
1.7589
1.73082
1.70313
1.67586
1.64901
1.62259
1.59659
1.57103
1.54591
1.52123
1.49698
1.47317
1.44979
1.42684
1.40432
1.38221
1.36052
1.33923
1.31833
1.29782
1.27769
1.25792
1.2385
1.21943
1.20069
1.18226
1.16414
1.1463
1.12875
1.11146
1.09441
1.07761
1.06102
1.04465
1.02848
1.0125
0.996687
0.981034
0.965527
0.950151
0.934896
0.919747
0.904694
0.889725
0.874829
0.859995
0.845215
0.830477
0.815773
0.801095
0.786435
0.771785
0.757138
0.742488
0.727828
0.713154
0.69846
0.68374
0.668991
0.654208
0.639386
0.624519
0.609605
0.594638
0.579614
0.564529
0.549378
0.534158
0.518863
0.503487
0.488024
0.472469
0.456813
0.441047
0.425161
0.409144
0.392981
0.376654
0.360144
0.343424
0.326461
0.309215
0.291628
0.273627
0.255102
0.235892
0.215736
0.19418
0.170339
0.142108
0.103028
0.0320634
0.283046
0.530088
0.676177
0.787377
0.883345
0.971082
1.05371
1.13284
1.20937
1.28383
1.35658
1.42783
1.49772
1.56636
1.6338
1.70008
1.76524
1.82927
1.89217
1.95394
2.01456
2.074
2.13224
2.18925
2.245
2.29945
2.35257
2.40432
2.45467
2.50356
2.55097
2.59686
2.64119
2.68393
2.72503
2.76447
2.80221
2.83823
2.8725
2.90499
2.93568
2.96455
2.99158
3.01675
3.04006
3.06149
3.08103
3.0987
3.11447
3.12836
3.14038
3.15052
3.15881
3.16526
3.16988
3.17269
3.17373
3.17301
3.17056
3.16642
3.16062
3.1532
3.14419
3.13364
3.12158
3.10805
3.09311
3.0768
3.05917
3.04027
3.02015
2.99886
2.97646
2.953
2.92853
2.90311
2.87681
2.84966
2.82173
2.79307
2.76375
2.7338
2.7033
2.67229
2.64082
2.60895
2.57673
2.54421
2.51143
2.47845
2.44531
2.41206
2.37874
2.34539
2.31205
2.27876
2.24556
2.21248
2.17956
2.14683
2.11431
2.08204
2.05003
2.01833
1.98694
1.95589
1.9252
1.89488
1.86495
1.83542
1.80631
1.77762
1.74937
1.72156
1.69419
1.66728
1.64082
1.61481
1.58925
1.56415
1.5395
1.51529
1.49152
1.46819
1.44528
1.42279
1.40072
1.37905
1.35776
1.33686
1.31632
1.29614
1.27631
1.2568
1.23761
1.21873
1.20013
1.18181
1.16375
1.14593
1.12835
1.111
1.09385
1.0769
1.06013
1.04352
1.02707
1.01076
0.994574
0.978502
0.962532
0.946652
0.930851
0.915118
0.899443
0.883816
0.868229
0.852672
0.837137
0.821617
0.806104
0.790593
0.775075
0.759547
0.744002
0.728435
0.712841
0.697216
0.681554
0.665849
0.650099
0.634296
0.618438
0.602519
0.586535
0.570479
0.554348
0.538135
0.521833
0.505436
0.488935
0.472323
0.455587
0.438717
0.421698
0.404513
0.38714
0.369555
0.351724
0.333603
0.315134
0.296237
0.276792
0.256621
0.235431
0.212709
0.187452
0.157325
0.11521
0.0374545
0.283048
0.530088
0.676175
0.787375
0.883342
0.971078
1.05371
1.13284
1.20936
1.28383
1.35658
1.42783
1.49772
1.56635
1.63379
1.70008
1.76523
1.82926
1.89217
1.95394
2.01455
2.07399
2.13223
2.18925
2.245
2.29945
2.35257
2.40432
2.45466
2.50356
2.55097
2.59686
2.64119
2.68392
2.72502
2.76446
2.80221
2.83823
2.8725
2.90499
2.93568
2.96454
2.99157
3.01674
3.04005
3.06148
3.08103
3.09869
3.11447
3.12836
3.14037
3.15052
3.15881
3.16525
3.16987
3.17269
3.17372
3.173
3.17056
3.16642
3.16062
3.1532
3.14419
3.13363
3.12157
3.10805
3.09311
3.0768
3.05917
3.04027
3.02014
2.99886
2.97645
2.95299
2.92853
2.90311
2.8768
2.84965
2.82172
2.79307
2.76374
2.7338
2.70329
2.67228
2.64081
2.60894
2.57672
2.5442
2.51143
2.47845
2.44531
2.41206
2.37874
2.34539
2.31205
2.27876
2.24556
2.21248
2.17956
2.14682
2.11431
2.08203
2.05003
2.01832
1.98694
1.95589
1.92519
1.89487
1.86494
1.83542
1.80631
1.77762
1.74937
1.72156
1.69419
1.66728
1.64081
1.6148
1.58925
1.56415
1.53949
1.51528
1.49152
1.46818
1.44528
1.42279
1.40072
1.37904
1.35776
1.33686
1.31632
1.29614
1.27631
1.2568
1.23761
1.21872
1.20013
1.18181
1.16374
1.14593
1.12835
1.111
1.09385
1.0769
1.06013
1.04352
1.02707
1.01076
0.994573
0.978501
0.962531
0.946651
0.93085
0.915117
0.899442
0.883815
0.868228
0.852671
0.837136
0.821616
0.806103
0.790592
0.775074
0.759546
0.744001
0.728434
0.712841
0.697215
0.681553
0.665849
0.650098
0.634296
0.618438
0.602519
0.586534
0.570479
0.554347
0.538134
0.521832
0.505435
0.488935
0.472322
0.455587
0.438717
0.421698
0.404512
0.38714
0.369555
0.351724
0.333603
0.315134
0.296237
0.276792
0.256621
0.235431
0.21271
0.187453
0.157326
0.115211
0.0374546
0.321138
0.583157
0.738492
0.856305
0.957505
1.04969
1.13629
1.21909
1.2991
1.37692
1.45293
1.52736
1.60036
1.67205
1.74248
1.8117
1.87971
1.94653
2.01216
2.07657
2.13975
2.20168
2.26233
2.32166
2.37964
2.43623
2.4914
2.54511
2.59732
2.648
2.69709
2.74457
2.7904
2.83454
2.87697
2.91763
2.95651
2.99358
3.02881
3.06218
3.09365
3.12323
3.15088
3.1766
3.20037
3.22219
3.24205
3.25995
3.2759
3.28989
3.30194
3.31205
3.32024
3.32653
3.33094
3.33348
3.33418
3.33308
3.3302
3.32557
3.31923
3.31123
3.30159
3.29036
3.27758
3.2633
3.24756
3.23042
3.21191
3.1921
3.17104
3.14877
3.12536
3.10087
3.07533
3.04883
3.0214
2.99311
2.96401
2.93416
2.90362
2.87245
2.84069
2.80841
2.77566
2.74249
2.70895
2.6751
2.64099
2.60666
2.57217
2.53755
2.50285
2.46813
2.4334
2.39873
2.36414
2.32967
2.29536
2.26124
2.22733
2.19368
2.16029
2.12721
2.09445
2.06204
2.02999
1.99832
1.96705
1.93619
1.90576
1.87576
1.84621
1.81711
1.78846
1.76028
1.73257
1.70532
1.67853
1.65221
1.62636
1.60096
1.57602
1.55152
1.52747
1.50384
1.48064
1.45786
1.43547
1.41348
1.39187
1.37063
1.34974
1.32919
1.30898
1.28907
1.26946
1.25014
1.23109
1.21229
1.19374
1.17543
1.15733
1.13943
1.12172
1.10418
1.0868
1.06957
1.05248
1.0355
1.01863
1.00185
0.985165
0.96855
0.951999
0.935501
0.919048
0.902631
0.886242
0.869873
0.853516
0.837165
0.820814
0.804456
0.788086
0.771699
0.755289
0.738851
0.722379
0.705869
0.689314
0.672711
0.656054
0.639337
0.622556
0.605704
0.588776
0.571766
0.554666
0.537469
0.520167
0.50275
0.485208
0.467529
0.449698
0.431697
0.413505
0.395096
0.376435
0.357476
0.338156
0.318389
0.298044
0.276922
0.254698
0.230804
0.204123
0.172105
0.127035
0.0428999
0.321139
0.583156
0.73849
0.856302
0.957502
1.04968
1.13629
1.21909
1.2991
1.37692
1.45292
1.52735
1.60036
1.67205
1.74248
1.81169
1.87971
1.94653
2.01215
2.07657
2.13975
2.20168
2.26232
2.32165
2.37963
2.43623
2.4914
2.54511
2.59732
2.64799
2.69709
2.74457
2.7904
2.83454
2.87696
2.91763
2.95651
2.99358
3.02881
3.06217
3.09365
3.12322
3.15087
3.17659
3.20036
3.22218
3.24204
3.25995
3.27589
3.28989
3.30193
3.31205
3.32024
3.32653
3.33093
3.33347
3.33418
3.33307
3.33019
3.32556
3.31923
3.31122
3.30159
3.29036
3.27758
3.2633
3.24756
3.23041
3.21191
3.1921
3.17103
3.14877
3.12536
3.10086
3.07533
3.04882
3.02139
2.9931
2.964
2.93416
2.90362
2.87244
2.84069
2.80841
2.77565
2.74248
2.70895
2.6751
2.64099
2.60666
2.57216
2.53755
2.50285
2.46812
2.4334
2.39873
2.36414
2.32967
2.29536
2.26123
2.22733
2.19367
2.16029
2.12721
2.09445
2.06203
2.02998
1.99832
1.96705
1.93619
1.90576
1.87576
1.8462
1.8171
1.78846
1.76028
1.73256
1.70531
1.67853