/*--------------------------------*- C++ -*----------------------------------*\
  =========                 |
  \\      /  F ield         | OpenFOAM: The Open Source CFD Toolbox
   \\    /   O peration     | Website:  https://openfoam.org
    \\  /    A nd           | Version:  8
     \\/     M anipulation  |
\*---------------------------------------------------------------------------*/
FoamFile
{
    version     2.0;
    format      ascii;
    class       volScalarField;
    location    "3200";
    object      nut;
}
// * * * * * * * * * * * * * * * * * * * * * * * * * * * * * * * * * * * * * //

dimensions      [0 2 -1 0 0 0 0];

internalField   nonuniform List<scalar> 
46000
(
7.84289e-07
3.49023e-06
6.5848e-06
9.47535e-06
1.22056e-05
1.48468e-05
1.74291e-05
1.99595e-05
2.24528e-05
2.49179e-05
2.73655e-05
2.97976e-05
3.22054e-05
3.45974e-05
3.69755e-05
3.93396e-05
4.16893e-05
4.40234e-05
4.63405e-05
4.86389e-05
5.09166e-05
5.31714e-05
5.5401e-05
5.7603e-05
5.97748e-05
6.19137e-05
6.40169e-05
6.60819e-05
6.81057e-05
7.00857e-05
7.20191e-05
7.39031e-05
7.57352e-05
7.75127e-05
7.9233e-05
8.08938e-05
8.24926e-05
8.40273e-05
8.54956e-05
8.68958e-05
8.82258e-05
8.9484e-05
9.06688e-05
9.17789e-05
9.28129e-05
9.377e-05
9.46491e-05
9.54496e-05
9.6171e-05
9.68129e-05
9.73752e-05
9.78578e-05
9.8261e-05
9.85852e-05
9.88309e-05
9.89989e-05
9.90901e-05
9.91055e-05
9.90465e-05
9.89145e-05
9.87114e-05
9.84397e-05
9.81036e-05
9.77026e-05
9.72376e-05
9.67103e-05
9.61226e-05
9.54771e-05
9.47758e-05
9.40214e-05
9.32163e-05
9.23631e-05
9.14644e-05
9.05227e-05
8.95408e-05
8.85213e-05
8.74669e-05
8.63803e-05
8.5264e-05
8.41207e-05
8.29531e-05
8.17637e-05
8.05549e-05
7.93293e-05
7.80893e-05
7.68373e-05
7.55755e-05
7.43062e-05
7.30314e-05
7.17533e-05
7.04739e-05
6.9195e-05
6.79185e-05
6.66461e-05
6.53795e-05
6.41201e-05
6.28694e-05
6.16289e-05
6.03997e-05
5.9183e-05
5.798e-05
5.67916e-05
5.56188e-05
5.44623e-05
5.33228e-05
5.22012e-05
5.10978e-05
5.00133e-05
4.89479e-05
4.79022e-05
4.68762e-05
4.58703e-05
4.48846e-05
4.39191e-05
4.29739e-05
4.20489e-05
4.11441e-05
4.02592e-05
3.93941e-05
3.85486e-05
3.77224e-05
3.69152e-05
3.61266e-05
3.53563e-05
3.46038e-05
3.38688e-05
3.31507e-05
3.24492e-05
3.17636e-05
3.10936e-05
3.04385e-05
2.97979e-05
2.91712e-05
2.85579e-05
2.79574e-05
2.73692e-05
2.67927e-05
2.62274e-05
2.56727e-05
2.51281e-05
2.45931e-05
2.40671e-05
2.35495e-05
2.30401e-05
2.25377e-05
2.20435e-05
2.15563e-05
2.10755e-05
2.06007e-05
2.01313e-05
1.9667e-05
1.92075e-05
1.87524e-05
1.83015e-05
1.78543e-05
1.74107e-05
1.69704e-05
1.65332e-05
1.60989e-05
1.56673e-05
1.52382e-05
1.48116e-05
1.43873e-05
1.39652e-05
1.35467e-05
1.31311e-05
1.27177e-05
1.23065e-05
1.18974e-05
1.14904e-05
1.10855e-05
1.06828e-05
1.02824e-05
9.88418e-06
9.48834e-06
9.09489e-06
8.70388e-06
8.31536e-06
7.92937e-06
7.54592e-06
7.16504e-06
6.78668e-06
6.41076e-06
6.03663e-06
5.66515e-06
5.29596e-06
4.92842e-06
4.56252e-06
4.19772e-06
3.8334e-06
3.46875e-06
3.10269e-06
2.73526e-06
2.36548e-06
1.98959e-06
1.60407e-06
1.20477e-06
7.88829e-07
3.71531e-07
7.11467e-08
7.84337e-07
3.49038e-06
6.58497e-06
9.47553e-06
1.22058e-05
1.48469e-05
1.74293e-05
1.99597e-05
2.24529e-05
2.49181e-05
2.73656e-05
2.97977e-05
3.22055e-05
3.45976e-05
3.69756e-05
3.93397e-05
4.16893e-05
4.40234e-05
4.63405e-05
4.86389e-05
5.09166e-05
5.31714e-05
5.54011e-05
5.76031e-05
5.97748e-05
6.19137e-05
6.40169e-05
6.60819e-05
6.81057e-05
7.00857e-05
7.20191e-05
7.39031e-05
7.57352e-05
7.75126e-05
7.92329e-05
8.08937e-05
8.24925e-05
8.40272e-05
8.54956e-05
8.68957e-05
8.82257e-05
8.94839e-05
9.06687e-05
9.17787e-05
9.28128e-05
9.37699e-05
9.4649e-05
9.54495e-05
9.61709e-05
9.68128e-05
9.7375e-05
9.78576e-05
9.82609e-05
9.85851e-05
9.88308e-05
9.89988e-05
9.90899e-05
9.91053e-05
9.90463e-05
9.89143e-05
9.87112e-05
9.84396e-05
9.81034e-05
9.77025e-05
9.72374e-05
9.67101e-05
9.61225e-05
9.54769e-05
9.47756e-05
9.40212e-05
9.32161e-05
9.23629e-05
9.14642e-05
9.05225e-05
8.95406e-05
8.85211e-05
8.74667e-05
8.63801e-05
8.52638e-05
8.41206e-05
8.29529e-05
8.17635e-05
8.05547e-05
7.93292e-05
7.80892e-05
7.68371e-05
7.55753e-05
7.4306e-05
7.30312e-05
7.17532e-05
7.04737e-05
6.91949e-05
6.79184e-05
6.6646e-05
6.53793e-05
6.41199e-05
6.28693e-05
6.16287e-05
6.03995e-05
5.91829e-05
5.79799e-05
5.67915e-05
5.56186e-05
5.44621e-05
5.33227e-05
5.22011e-05
5.10977e-05
5.00131e-05
4.89478e-05
4.79021e-05
4.68761e-05
4.58702e-05
4.48845e-05
4.3919e-05
4.29738e-05
4.20488e-05
4.1144e-05
4.02591e-05
3.9394e-05
3.85485e-05
3.77223e-05
3.69151e-05
3.61265e-05
3.53562e-05
3.46037e-05
3.38687e-05
3.31507e-05
3.24491e-05
3.17636e-05
3.10935e-05
3.04385e-05
2.97978e-05
2.91712e-05
2.85578e-05
2.79573e-05
2.73691e-05
2.67926e-05
2.62273e-05
2.56726e-05
2.5128e-05
2.4593e-05
2.4067e-05
2.35495e-05
2.304e-05
2.25377e-05
2.20435e-05
2.15563e-05
2.10755e-05
2.06006e-05
2.01312e-05
1.9667e-05
1.92075e-05
1.87524e-05
1.83014e-05
1.78542e-05
1.74106e-05
1.69703e-05
1.65331e-05
1.60988e-05
1.56672e-05
1.52382e-05
1.48116e-05
1.43872e-05
1.39652e-05
1.35467e-05
1.31311e-05
1.27177e-05
1.23065e-05
1.18973e-05
1.14903e-05
1.10855e-05
1.06828e-05
1.02823e-05
9.88416e-06
9.48832e-06
9.09487e-06
8.70386e-06
8.31534e-06
7.92935e-06
7.54591e-06
7.16502e-06
6.78667e-06
6.41075e-06
6.03662e-06
5.66514e-06
5.29595e-06
4.92842e-06
4.56252e-06
4.19772e-06
3.8334e-06
3.46875e-06
3.10269e-06
2.73526e-06
2.36549e-06
1.9896e-06
1.60409e-06
1.20478e-06
7.88837e-07
3.71536e-07
7.11482e-08
3.17586e-06
4.12757e-05
7.20969e-05
9.31984e-05
0.000109417
0.000122784
0.000134223
0.000144413
0.000153718
0.000162353
0.000170456
0.000178132
0.000185461
0.000192489
0.00019925
0.000205773
0.000212081
0.00021819
0.000224114
0.000229864
0.000235449
0.000240875
0.000246147
0.000251269
0.000256244
0.000261074
0.000265761
0.000270305
0.000274708
0.000278968
0.000283087
0.000287064
0.000290898
0.000294589
0.000298135
0.000301537
0.000304793
0.000307902
0.000310864
0.000313677
0.000316342
0.000318857
0.000321223
0.000323438
0.000325502
0.000327416
0.000329179
0.000330792
0.000332255
0.000333568
0.000334732
0.000335748
0.000336617
0.00033734
0.000337919
0.000338354
0.000338648
0.000338803
0.00033882
0.000338701
0.000338448
0.000338061
0.000337542
0.000336895
0.000336125
0.000335236
0.000334231
0.000333115
0.000331891
0.000330562
0.000329132
0.000327604
0.000325984
0.000324273
0.000322478
0.0003206
0.000318645
0.000316615
0.000314516
0.000312352
0.000310125
0.000307841
0.000305503
0.000303115
0.000300681
0.000298205
0.000295691
0.000293142
0.000290562
0.000287954
0.000285323
0.000282671
0.000280002
0.000277319
0.000274626
0.000271924
0.000269218
0.00026651
0.000263803
0.000261099
0.000258401
0.000255711
0.000253032
0.000250365
0.000247712
0.000245076
0.000242458
0.00023986
0.000237283
0.000234728
0.000232197
0.000229691
0.00022721
0.000224756
0.00022233
0.000219931
0.000217561
0.00021522
0.000212908
0.000210625
0.000208371
0.000206146
0.00020395
0.000201783
0.000199644
0.000197533
0.00019545
0.000193393
0.000191362
0.000189356
0.000187374
0.000185416
0.00018348
0.000181566
0.000179671
0.000177796
0.000175939
0.000174098
0.000172273
0.000170462
0.000168664
0.000166877
0.000165101
0.000163335
0.000161578
0.000159826
0.000158079
0.000156336
0.000154594
0.000152854
0.000151113
0.00014937
0.000147624
0.000145875
0.000144119
0.000142357
0.000140587
0.000138808
0.000137018
0.000135218
0.000133404
0.000131577
0.000129733
0.000127871
0.000125979
0.000124069
0.000122139
0.000120189
0.000118217
0.000116222
0.000114204
0.000112162
0.000110093
0.000107997
0.000105872
0.000103716
0.000101527
9.9302e-05
9.70388e-05
9.4734e-05
9.23838e-05
8.99837e-05
8.75287e-05
8.50133e-05
8.24273e-05
7.97603e-05
7.69996e-05
7.41307e-05
7.11323e-05
6.79781e-05
6.46313e-05
6.10357e-05
5.70923e-05
5.27129e-05
4.77708e-05
4.20193e-05
3.50129e-05
2.5837e-05
1.25814e-05
3.32416e-07
3.17598e-06
4.12778e-05
7.21e-05
9.32018e-05
0.000109421
0.000122788
0.000134227
0.000144417
0.000153722
0.000162357
0.000170459
0.000178136
0.000185465
0.000192493
0.000199254
0.000205777
0.000212085
0.000218194
0.000224118
0.000229869
0.000235454
0.000240879
0.000246151
0.000251273
0.000256248
0.000261079
0.000265765
0.00027031
0.000274713
0.000278974
0.000283093
0.000287069
0.000290904
0.000294594
0.000298141
0.000301542
0.000304798
0.000307907
0.000310869
0.000313683
0.000316348
0.000318863
0.000321228
0.000323443
0.000325508
0.000327422
0.000329185
0.000330798
0.00033226
0.000333573
0.000334738
0.000335754
0.000336623
0.000337346
0.000337924
0.00033836
0.000338654
0.000338809
0.000338826
0.000338707
0.000338454
0.000338067
0.000337547
0.0003369
0.00033613
0.000335241
0.000334237
0.000333121
0.000331896
0.000330567
0.000329137
0.00032761
0.000325989
0.000324279
0.000322483
0.000320605
0.00031865
0.00031662
0.000314521
0.000312357
0.00031013
0.000307846
0.000305508
0.00030312
0.000300686
0.00029821
0.000295695
0.000293146
0.000290566
0.000287959
0.000285327
0.000282675
0.000280006
0.000277323
0.00027463
0.000271928
0.000269222
0.000266514
0.000263807
0.000261103
0.000258405
0.000255715
0.000253035
0.000250368
0.000247716
0.00024508
0.000242461
0.000239863
0.000237286
0.000234731
0.0002322
0.000229694
0.000227213
0.000224759
0.000222333
0.000219934
0.000217564
0.000215223
0.00021291
0.000210627
0.000208373
0.000206148
0.000203952
0.000201785
0.000199646
0.000197535
0.000195452
0.000193395
0.000191364
0.000189358
0.000187376
0.000185418
0.000183482
0.000181567
0.000179673
0.000177798
0.00017594
0.0001741
0.000172275
0.000170463
0.000168665
0.000166879
0.000165102
0.000163336
0.000161579
0.000159827
0.00015808
0.000156337
0.000154595
0.000152855
0.000151114
0.000149371
0.000147625
0.000145875
0.00014412
0.000142358
0.000140588
0.000138809
0.000137019
0.000135218
0.000133405
0.000131577
0.000129734
0.000127871
0.00012598
0.00012407
0.00012214
0.000120189
0.000118217
0.000116223
0.000114205
0.000112162
0.000110094
0.000107998
0.000105873
0.000103717
0.000101527
9.93025e-05
9.70393e-05
9.47345e-05
9.23842e-05
8.99841e-05
8.75291e-05
8.50137e-05
8.24278e-05
7.97608e-05
7.70001e-05
7.41311e-05
7.11327e-05
6.79785e-05
6.46317e-05
6.10361e-05
5.70925e-05
5.27131e-05
4.7771e-05
4.20194e-05
3.5013e-05
2.5837e-05
1.25813e-05
3.32415e-07
6.1055e-06
6.97725e-05
0.000133537
0.000180998
0.000217677
0.000247266
0.000272084
0.000293561
0.000312608
0.000329824
0.000345611
0.000360252
0.000373953
0.00038686
0.000399082
0.000410705
0.000421795
0.000432405
0.000442577
0.000452345
0.000461738
0.000470779
0.000479486
0.000487876
0.000495962
0.000503755
0.000511264
0.000518497
0.000525461
0.000532161
0.000538603
0.000544789
0.000550725
0.000556412
0.000561854
0.000567052
0.00057201
0.000576729
0.00058121
0.000585456
0.000589467
0.000593246
0.000596794
0.000600112
0.000603202
0.000606066
0.000608705
0.000611121
0.000613316
0.000615291
0.00061705
0.000618593
0.000619924
0.000621044
0.000621957
0.000622664
0.000623168
0.000623471
0.000623577
0.000623488
0.000623205
0.00062273
0.000622064
0.000621212
0.000620183
0.000618981
0.000617613
0.000616082
0.000614395
0.000612555
0.000610568
0.000608438
0.000606171
0.00060377
0.000601242
0.000598591
0.000595822
0.00059294
0.000589951
0.000586859
0.00058367
0.000580389
0.00057702
0.00057357
0.000570043
0.000566444
0.000562778
0.00055905
0.000555265
0.000551428
0.000547543
0.000543616
0.000539651
0.000535652
0.000531623
0.00052757
0.000523496
0.000519405
0.000515301
0.000511188
0.00050707
0.00050295
0.000498831
0.000494716
0.00049061
0.000486514
0.000482431
0.000478364
0.000474315
0.000470286
0.00046628
0.000462298
0.000458342
0.000454414
0.000450514
0.000446644
0.000442805
0.000438998
0.000435223
0.000431481
0.000427772
0.000424096
0.000420453
0.000416843
0.000413266
0.00040972
0.000406206
0.000402723
0.000399269
0.000395843
0.000392445
0.000389073
0.000385725
0.000382401
0.000379097
0.000375814
0.000372548
0.000369298
0.000366063
0.000362839
0.000359627
0.000356422
0.000353226
0.000350034
0.000346845
0.000343654
0.00034046
0.00033726
0.000334053
0.000330837
0.000327609
0.000324367
0.000321109
0.000317834
0.000314538
0.00031122
0.000307877
0.000304508
0.000301111
0.000297682
0.000294219
0.000290721
0.000287181
0.000283596
0.000279955
0.000276265
0.000272525
0.000268733
0.000264888
0.000260986
0.000257026
0.000253004
0.000248915
0.000244756
0.000240522
0.000236207
0.000231804
0.000227306
0.000222706
0.000217992
0.000213153
0.000208176
0.000203044
0.000197738
0.000192233
0.000186498
0.000180496
0.000174177
0.000167477
0.000160317
0.000152586
0.000144131
0.00013473
0.000124074
0.000111775
9.71635e-05
7.91242e-05
5.57652e-05
2.48645e-05
7.09216e-07
6.10566e-06
6.97754e-05
0.000133543
0.000181005
0.000217685
0.000247274
0.000272092
0.000293569
0.000312616
0.000329831
0.000345618
0.000360259
0.00037396
0.000386867
0.00039909
0.000410713
0.000421803
0.000432413
0.000442584
0.000452353
0.000461746
0.000470787
0.000479494
0.000487884
0.00049597
0.000503763
0.000511272
0.000518505
0.000525469
0.000532169
0.000538611
0.000544797
0.000550733
0.00055642
0.000561862
0.000567061
0.000572018
0.000576737
0.000581218
0.000585464
0.000589475
0.000593254
0.000596802
0.00060012
0.00060321
0.000606074
0.000608713
0.000611129
0.000613324
0.000615299
0.000617058
0.000618601
0.000619932
0.000621052
0.000621964
0.000622671
0.000623175
0.000623479
0.000623585
0.000623496
0.000623213
0.000622738
0.000622071
0.00062122
0.00062019
0.000618988
0.00061762
0.000616089
0.000614402
0.000612562
0.000610575
0.000608445
0.000606177
0.000603777
0.000601248
0.000598597
0.000595828
0.000592946
0.000589957
0.000586865
0.000583676
0.000580395
0.000577026
0.000573576
0.000570048
0.000566449
0.000562783
0.000559055
0.00055527
0.000551433
0.000547548
0.000543621
0.000539655
0.000535656
0.000531628
0.000527574
0.0005235
0.000519409
0.000515305
0.000511192
0.000507074
0.000502953
0.000498834
0.00049472
0.000490613
0.000486517
0.000482434
0.000478367
0.000474318
0.000470289
0.000466283
0.000462301
0.000458345
0.000454416
0.000450516
0.000446646
0.000442808
0.000439
0.000435225
0.000431483
0.000427774
0.000424098
0.000420455
0.000416845
0.000413268
0.000409722
0.000406208
0.000402724
0.00039927
0.000395845
0.000392447
0.000389074
0.000385726
0.000382402
0.000379098
0.000375815
0.000372549
0.000369299
0.000366063
0.00036284
0.000359627
0.000356423
0.000353226
0.000350035
0.000346845
0.000343655
0.00034046
0.000337261
0.000334054
0.000330837
0.000327609
0.000324367
0.00032111
0.000317834
0.000314538
0.00031122
0.000307877
0.000304508
0.000301111
0.000297682
0.000294219
0.00029072
0.000287181
0.000283596
0.000279955
0.000276265
0.000272525
0.000268733
0.000264887
0.000260986
0.000257026
0.000253003
0.000248915
0.000244756
0.000240522
0.000236206
0.000231804
0.000227306
0.000222706
0.000217992
0.000213153
0.000208176
0.000203044
0.000197738
0.000192233
0.000186498
0.000180496
0.000174177
0.000167477
0.000160317
0.000152586
0.000144131
0.00013473
0.000124074
0.000111775
9.71636e-05
7.91243e-05
5.57653e-05
2.48643e-05
7.09215e-07
8.9377e-06
8.97523e-05
0.000178615
0.000250126
0.000307581
0.000354807
0.000394673
0.000429125
0.000459495
0.000486712
0.000511434
0.000534137
0.000555173
0.000574806
0.000593235
0.000610617
0.000627073
0.000642702
0.000657583
0.000671782
0.000685351
0.000698335
0.000710771
0.00072269
0.000734119
0.00074508
0.000755593
0.000765675
0.00077534
0.000784601
0.00079347
0.000801956
0.000810068
0.000817814
0.000825202
0.000832237
0.000838926
0.000845274
0.000851287
0.000856968
0.000862324
0.000867358
0.000872073
0.000876476
0.000880569
0.000884356
0.000887841
0.000891028
0.000893921
0.000896523
0.000898839
0.000900872
0.000902627
0.000904106
0.000905315
0.000906256
0.000906935
0.000907354
0.000907517
0.000907428
0.00090709
0.000906505
0.000905677
0.000904612
0.000903317
0.0009018
0.000900069
0.000898128
0.000895985
0.000893645
0.000891114
0.000888398
0.000885504
0.000882437
0.000879204
0.000875809
0.000872261
0.000868564
0.000864724
0.000860749
0.000856644
0.000852415
0.000848069
0.000843612
0.00083905
0.000834388
0.000829634
0.000824793
0.000819871
0.000814875
0.000809809
0.00080468
0.000799493
0.000794255
0.000788969
0.000783643
0.00077828
0.000772887
0.000767468
0.000762027
0.00075657
0.000751101
0.000745624
0.000740143
0.000734662
0.000729185
0.000723716
0.000718257
0.000712813
0.000707385
0.000701976
0.00069659
0.000691227
0.000685891
0.000680582
0.000675303
0.000670055
0.000664838
0.000659654
0.000654504
0.000649387
0.000644304
0.000639255
0.000634239
0.000629257
0.000624307
0.000619389
0.000614501
0.000609643
0.000604812
0.000600008
0.000595229
0.000590472
0.000585736
0.000581019
0.000576318
0.000571631
0.000566956
0.00056229
0.00055763
0.000552975
0.000548323
0.00054367
0.000539013
0.000534348
0.000529673
0.000524982
0.000520275
0.000515547
0.000510797
0.000506022
0.000501218
0.000496383
0.000491514
0.000486607
0.000481661
0.000476671
0.000471635
0.00046655
0.000461412
0.000456218
0.000450963
0.000445641
0.000440248
0.000434774
0.00042922
0.000423584
0.000417863
0.000412054
0.000406151
0.000400149
0.000394043
0.000387825
0.000381487
0.000375021
0.000368414
0.000361656
0.000354733
0.000347629
0.000340324
0.000332798
0.000325024
0.000316971
0.000308603
0.000299873
0.000290727
0.000281094
0.000270887
0.000259993
0.000248269
0.000235521
0.000221497
0.000205851
0.000188103
0.000167604
0.000143414
0.000114114
7.77365e-05
3.33734e-05
1.09294e-06
8.93787e-06
8.97556e-05
0.000178622
0.000250135
0.000307591
0.000354818
0.000394684
0.000429136
0.000459507
0.000486724
0.000511445
0.000534148
0.000555184
0.000574817
0.000593246
0.000610627
0.000627084
0.000642713
0.000657594
0.000671793
0.000685362
0.000698345
0.000710781
0.0007227
0.000734129
0.00074509
0.000755604
0.000765685
0.000775351
0.000784612
0.000793481
0.000801966
0.000810079
0.000817825
0.000825212
0.000832247
0.000838936
0.000845284
0.000851297
0.000856978
0.000862334
0.000867367
0.000872083
0.000876486
0.000880578
0.000884365
0.00088785
0.000891037
0.00089393
0.000896533
0.000898848
0.000900882
0.000902636
0.000904115
0.000905324
0.000906265
0.000906944
0.000907363
0.000907526
0.000907437
0.000907098
0.000906514
0.000905685
0.00090462
0.000903325
0.000901808
0.000900076
0.000898136
0.000895992
0.000893652
0.000891121
0.000888406
0.000885511
0.000882444
0.00087921
0.000875816
0.000872267
0.00086857
0.000864731
0.000860755
0.00085665
0.000852421
0.000848075
0.000843618
0.000839055
0.000834394
0.000829639
0.000824798
0.000819876
0.00081488
0.000809814
0.000804685
0.000799498
0.000794259
0.000788974
0.000783647
0.000778284
0.000772891
0.000767471
0.000762031
0.000756573
0.000751104
0.000745627
0.000740146
0.000734665
0.000729188
0.000723719
0.00071826
0.000712815
0.000707387
0.000701979
0.000696592
0.000691229
0.000685893
0.000680584
0.000675305
0.000670056
0.00066484
0.000659656
0.000654505
0.000649388
0.000644305
0.000639256
0.00063424
0.000629258
0.000624308
0.000619389
0.000614502
0.000609643
0.000604813
0.000600009
0.000595229
0.000590473
0.000585737
0.000581019
0.000576318
0.000571631
0.000566956
0.00056229
0.00055763
0.000552975
0.000548322
0.000543669
0.000539013
0.000534348
0.000529672
0.000524982
0.000520274
0.000515547
0.000510797
0.000506021
0.000501217
0.000496382
0.000491513
0.000486606
0.00048166
0.00047667
0.000471634
0.000466549
0.000461411
0.000456217
0.000450962
0.00044564
0.000440246
0.000434773
0.000429219
0.000423583
0.000417862
0.000412052
0.00040615
0.000400148
0.000394042
0.000387824
0.000381486
0.000375019
0.000368413
0.000361655
0.000354732
0.000347628
0.000340323
0.000332797
0.000325023
0.00031697
0.000308602
0.000299872
0.000290726
0.000281093
0.000270886
0.000259993
0.000248268
0.000235521
0.000221497
0.000205851
0.000188103
0.000167604
0.000143414
0.000114115
7.77366e-05
3.33731e-05
1.09294e-06
1.16868e-05
0.000105687
0.000213953
0.000305716
0.000381938
0.000445992
0.000500743
0.000548346
0.000590382
0.000628011
0.000662093
0.00069327
0.00072203
0.000748743
0.000773701
0.00079713
0.000819211
0.000840091
0.000859888
0.0008787
0.000896607
0.000913677
0.000929966
0.000945525
0.000960392
0.000974604
0.000988192
0.00100118
0.0010136
0.00102546
0.00103679
0.0010476
0.0010579
0.00106772
0.00107705
0.00108592
0.00109433
0.0011023
0.00110982
0.00111692
0.00112359
0.00112985
0.0011357
0.00114116
0.00114622
0.00115089
0.00115518
0.0011591
0.00116265
0.00116583
0.00116867
0.00117115
0.00117328
0.00117508
0.00117655
0.00117768
0.0011785
0.001179
0.00117918
0.00117907
0.00117864
0.00117793
0.00117692
0.00117562
0.00117405
0.00117221
0.00117011
0.00116775
0.00116515
0.00116232
0.00115925
0.00115596
0.00115245
0.00114874
0.00114482
0.00114071
0.00113641
0.00113192
0.00112727
0.00112245
0.00111747
0.00111234
0.00110706
0.00110165
0.00109611
0.00109044
0.00108466
0.00107877
0.00107277
0.00106669
0.00106051
0.00105425
0.00104792
0.00104152
0.00103506
0.00102854
0.00102198
0.00101537
0.00100872
0.00100204
0.000995334
0.000988607
0.000981864
0.000975109
0.000968348
0.000961585
0.000954823
0.000948068
0.000941322
0.000934589
0.000927872
0.000921174
0.000914498
0.000907846
0.000901221
0.000894623
0.000888054
0.000881516
0.00087501
0.000868537
0.000862096
0.000855688
0.000849313
0.000842971
0.00083666
0.00083038
0.000824131
0.00081791
0.000811716
0.000805547
0.000799401
0.000793277
0.000787171
0.000781082
0.000775006
0.000768941
0.000762884
0.000756832
0.000750783
0.000744732
0.000738678
0.000732617
0.000726545
0.000720459
0.000714354
0.000708226
0.000702071
0.000695886
0.000689667
0.000683411
0.000677114
0.000670773
0.000664384
0.000657944
0.000651448
0.000644893
0.000638276
0.000631592
0.000624836
0.000618006
0.000611094
0.000604097
0.000597008
0.00058982
0.000582525
0.00057512
0.0005676
0.000559961
0.000552196
0.000544298
0.000536259
0.00052807
0.000519719
0.000511195
0.000502484
0.00049357
0.000484434
0.000475055
0.000465409
0.000455468
0.000445198
0.00043456
0.000423507
0.000411984
0.000399924
0.000387242
0.000373839
0.000359587
0.000344327
0.000327855
0.000309911
0.000290155
0.000268137
0.000243258
0.000214721
0.000181456
0.000142018
9.47339e-05
4.0024e-05
1.47227e-06
1.1687e-05
0.00010569
0.00021396
0.000305726
0.00038195
0.000446005
0.000500757
0.00054836
0.000590396
0.000628026
0.000662108
0.000693285
0.000722044
0.000748758
0.000773716
0.000797144
0.000819226
0.000840105
0.000859902
0.000878714
0.00089662
0.00091369
0.00092998
0.000945538
0.000960406
0.000974618
0.000988206
0.0010012
0.00101361
0.00102547
0.0010368
0.00104761
0.00105791
0.00106773
0.00107706
0.00108593
0.00109434
0.00110231
0.00110983
0.00111693
0.0011236
0.00112986
0.00113572
0.00114117
0.00114623
0.0011509
0.00115519
0.00115911
0.00116266
0.00116585
0.00116868
0.00117116
0.00117329
0.00117509
0.00117656
0.00117769
0.00117851
0.00117901
0.00117919
0.00117908
0.00117865
0.00117794
0.00117693
0.00117563
0.00117406
0.00117222
0.00117012
0.00116776
0.00116516
0.00116233
0.00115926
0.00115597
0.00115246
0.00114875
0.00114483
0.00114071
0.00113641
0.00113193
0.00112728
0.00112246
0.00111748
0.00111234
0.00110707
0.00110165
0.00109611
0.00109045
0.00108466
0.00107877
0.00107278
0.00106669
0.00106052
0.00105426
0.00104793
0.00104153
0.00103507
0.00102855
0.00102198
0.00101537
0.00100872
0.00100204
0.000995338
0.00098861
0.000981867
0.000975112
0.000968351
0.000961588
0.000954826
0.000948071
0.000941325
0.000934591
0.000927875
0.000921177
0.000914501
0.000907848
0.000901222
0.000894624
0.000888056
0.000881518
0.000875012
0.000868538
0.000862097
0.000855689
0.000849314
0.000842972
0.000836661
0.000830381
0.000824132
0.00081791
0.000811716
0.000805547
0.000799402
0.000793277
0.000787171
0.000781082
0.000775006
0.000768941
0.000762884
0.000756832
0.000750782
0.000744732
0.000738677
0.000732616
0.000726545
0.000720458
0.000714353
0.000708225
0.00070207
0.000695885
0.000689666
0.00068341
0.000677113
0.000670772
0.000664383
0.000657942
0.000651447
0.000644892
0.000638275
0.00063159
0.000624835
0.000618004
0.000611093
0.000604096
0.000597007
0.000589818
0.000582524
0.000575118
0.000567599
0.000559959
0.000552194
0.000544297
0.000536258
0.000528068
0.000519718
0.000511194
0.000502483
0.000493568
0.000484432
0.000475053
0.000465408
0.000455466
0.000445196
0.000434558
0.000423506
0.000411983
0.000399923
0.000387241
0.000373838
0.000359586
0.000344326
0.000327854
0.000309911
0.000290155
0.000268137
0.000243258
0.000214721
0.000181456
0.000142018
9.4734e-05
4.00238e-05
1.47227e-06
1.43995e-05
0.00011919
0.000243095
0.000351958
0.000444774
0.000524213
0.000592948
0.000653165
0.000706566
0.000754457
0.000797841
0.000837488
0.000873996
0.000907834
0.000939369
0.000968896
0.000996651
0.00102283
0.00104758
0.00107104
0.00109331
0.00111449
0.00113466
0.00115387
0.00117218
0.00118965
0.00120632
0.00122222
0.00123738
0.00125183
0.00126561
0.00127873
0.00129121
0.00130307
0.00131433
0.00132501
0.00133512
0.00134467
0.00135368
0.00136216
0.00137012
0.00137757
0.00138452
0.00139099
0.00139698
0.0014025
0.00140756
0.00141217
0.00141634
0.00142007
0.00142338
0.00142627
0.00142875
0.00143084
0.00143252
0.00143382
0.00143474
0.00143529
0.00143547
0.0014353
0.00143477
0.0014339
0.00143269
0.00143115
0.00142928
0.00142711
0.00142463
0.00142186
0.00141881
0.00141547
0.00141187
0.00140802
0.00140391
0.00139955
0.00139497
0.00139015
0.00138512
0.00137988
0.00137444
0.0013688
0.00136298
0.00135698
0.00135082
0.00134449
0.00133801
0.00133139
0.00132463
0.00131774
0.00131073
0.00130361
0.00129639
0.00128907
0.00128166
0.00127416
0.00126659
0.00125896
0.00125126
0.00124351
0.00123571
0.00122787
0.00122
0.0012121
0.00120417
0.00119623
0.00118827
0.00118031
0.00117234
0.00116438
0.00115642
0.00114847
0.00114054
0.00113262
0.00112472
0.00111684
0.00110899
0.00110117
0.00109337
0.0010856
0.00107786
0.00107016
0.00106248
0.00105484
0.00104723
0.00103964
0.00103209
0.00102457
0.00101708
0.00100961
0.00100216
0.000994738
0.000987334
0.000979946
0.000972572
0.00096521
0.000957855
0.000950505
0.000943155
0.000935804
0.000928447
0.00092108
0.0009137
0.000906304
0.000898887
0.000891443
0.000883969
0.000876459
0.00086891
0.000861317
0.000853676
0.000845983
0.000838233
0.000830423
0.000822548
0.000814603
0.000806585
0.000798489
0.000790309
0.000782042
0.000773681
0.000765222
0.000756659
0.000747984
0.000739191
0.000730272
0.000721219
0.000712023
0.00070268
0.000693183
0.000683521
0.000673686
0.000663665
0.000653446
0.000643015
0.000632355
0.000621446
0.000610267
0.000598793
0.000586996
0.000574843
0.000562294
0.000549306
0.000535826
0.000521791
0.000507127
0.000491745
0.000475537
0.000458371
0.000440085
0.000420477
0.000399296
0.000376223
0.000350853
0.000322665
0.000290987
0.00025495
0.00021344
0.000165121
0.000108689
4.56199e-05
1.84848e-06
1.43996e-05
0.000119194
0.000243102
0.000351969
0.000444787
0.000524228
0.000592964
0.000653182
0.000706583
0.000754475
0.000797858
0.000837505
0.000874014
0.000907851
0.000939387
0.000968914
0.000996669
0.00102284
0.0010476
0.00107105
0.00109333
0.00111451
0.00113467
0.00115388
0.0011722
0.00118967
0.00120633
0.00122223
0.00123739
0.00125185
0.00126562
0.00127874
0.00129122
0.00130308
0.00131435
0.00132502
0.00133513
0.00134468
0.00135369
0.00136217
0.00137013
0.00137758
0.00138454
0.001391
0.00139699
0.00140251
0.00140757
0.00141218
0.00141635
0.00142008
0.00142339
0.00142628
0.00142877
0.00143085
0.00143253
0.00143383
0.00143475
0.0014353
0.00143548
0.00143531
0.00143478
0.00143391
0.0014327
0.00143116
0.00142929
0.00142712
0.00142464
0.00142187
0.00141881
0.00141548
0.00141188
0.00140802
0.00140391
0.00139956
0.00139497
0.00139016
0.00138513
0.00137989
0.00137444
0.00136881
0.00136299
0.00135699
0.00135082
0.0013445
0.00133802
0.00133139
0.00132464
0.00131775
0.00131074
0.00130362
0.0012964
0.00128907
0.00128166
0.00127417
0.0012666
0.00125896
0.00125127
0.00124352
0.00123572
0.00122788
0.00122
0.0012121
0.00120417
0.00119623
0.00118828
0.00118031
0.00117235
0.00116438
0.00115642
0.00114848
0.00114054
0.00113262
0.00112472
0.00111685
0.00110899
0.00110117
0.00109337
0.0010856
0.00107786
0.00107016
0.00106248
0.00105484
0.00104723
0.00103965
0.00103209
0.00102457
0.00101708
0.00100961
0.00100216
0.000994739
0.000987334
0.000979947
0.000972573
0.00096521
0.000957855
0.000950505
0.000943156
0.000935804
0.000928447
0.00092108
0.0009137
0.000906304
0.000898886
0.000891443
0.000883968
0.000876458
0.000868909
0.000861316
0.000853675
0.000845982
0.000838232
0.000830422
0.000822547
0.000814602
0.000806584
0.000798487
0.000790308
0.000782041
0.00077368
0.000765221
0.000756657
0.000747983
0.00073919
0.000730271
0.000721217
0.000712022
0.000702679
0.000693181
0.00068352
0.000673684
0.000663664
0.000653445
0.000643014
0.000632353
0.000621444
0.000610265
0.000598792
0.000586995
0.000574841
0.000562293
0.000549305
0.000535825
0.00052179
0.000507126
0.000491744
0.000475536
0.00045837
0.000440084
0.000420477
0.000399296
0.000376223
0.000350853
0.000322665
0.000290987
0.00025495
0.00021344
0.000165121
0.000108689
4.56196e-05
1.84849e-06
1.70861e-05
0.000131078
0.000268137
0.000391652
0.000499076
0.000592381
0.000673972
0.000745979
0.000810143
0.000867854
0.00092021
0.000968078
0.00101214
0.00105295
0.00109094
0.00112647
0.00115981
0.0011912
0.00122084
0.00124888
0.00127547
0.0013007
0.00132469
0.00134751
0.00136923
0.00138991
0.00140961
0.00142837
0.00144624
0.00146325
0.00147943
0.00149482
0.00150944
0.00152331
0.00153646
0.00154891
0.00156068
0.00157179
0.00158225
0.00159207
0.00160128
0.00160989
0.00161791
0.00162536
0.00163224
0.00163857
0.00164437
0.00164963
0.00165439
0.00165864
0.00166239
0.00166566
0.00166846
0.00167079
0.00167267
0.0016741
0.0016751
0.00167568
0.00167583
0.00167558
0.00167493
0.00167389
0.00167246
0.00167066
0.00166849
0.00166597
0.00166311
0.00165992
0.0016564
0.00165258
0.00164845
0.00164402
0.00163932
0.00163434
0.00162909
0.00162359
0.00161785
0.00161187
0.00160566
0.00159923
0.00159259
0.00158576
0.00157873
0.00157153
0.00156415
0.00155661
0.00154891
0.00154107
0.00153309
0.00152499
0.00151676
0.00150843
0.00149999
0.00149146
0.00148284
0.00147415
0.00146538
0.00145655
0.00144767
0.00143874
0.00142976
0.00142075