/*--------------------------------*- C++ -*----------------------------------*\
  =========                 |
  \\      /  F ield         | OpenFOAM: The Open Source CFD Toolbox
   \\    /   O peration     | Website:  https://openfoam.org
    \\  /    A nd           | Version:  8
     \\/     M anipulation  |
\*---------------------------------------------------------------------------*/
FoamFile
{
    version     2.0;
    format      ascii;
    class       surfaceScalarField;
    location    "3200";
    object      phi;
}
// * * * * * * * * * * * * * * * * * * * * * * * * * * * * * * * * * * * * * //

dimensions      [1 0 -1 0 0 0 0];

internalField   nonuniform List<scalar> 
114370
(
4.82783e-10
3.8783e-14
-4.82822e-10
1.23721e-09
1.10987e-14
-7.55463e-10
1.88967e-09
7.20965e-15
-6.53062e-10
2.28614e-09
6.35449e-15
-3.96919e-10
2.42036e-09
6.463e-15
-1.34609e-10
2.32588e-09
6.55241e-15
9.41282e-11
2.04453e-09
6.45748e-15
2.81017e-10
1.61521e-09
6.29455e-15
4.29016e-10
1.07004e-09
6.21756e-15
5.44885e-10
4.34583e-10
6.20197e-15
6.35179e-10
-2.70719e-10
6.14803e-15
7.05041e-10
-1.0293e-09
6.00738e-15
7.58333e-10
-1.8282e-09
5.82815e-15
7.98665e-10
-2.6575e-09
5.63939e-15
8.29081e-10
-3.50928e-09
5.43352e-15
8.51573e-10
-4.37717e-09
5.22289e-15
8.67689e-10
-5.25598e-09
5.02778e-15
8.78617e-10
-6.14144e-09
4.85836e-15
8.85279e-10
-7.03e-09
4.71704e-15
8.88394e-10
-7.91869e-09
4.59631e-15
8.88526e-10
-8.80497e-09
4.49132e-15
8.8612e-10
-9.68664e-09
4.39131e-15
8.81525e-10
-1.05618e-08
4.2898e-15
8.75018e-10
-1.14288e-08
4.18243e-15
8.66822e-10
-1.2286e-08
4.06704e-15
8.57111e-10
-1.31322e-08
3.94352e-15
8.46028e-10
-1.3966e-08
3.81382e-15
8.33687e-10
-1.47863e-08
3.68033e-15
8.20181e-10
-1.5592e-08
3.54576e-15
8.05586e-10
-1.6382e-08
3.41216e-15
7.89968e-10
-1.71555e-08
3.28041e-15
7.7338e-10
-1.79115e-08
3.15278e-15
7.55872e-10
-1.86491e-08
3.02939e-15
7.37485e-10
-1.93675e-08
2.91033e-15
7.1826e-10
-2.00658e-08
2.79658e-15
6.98234e-10
-2.07433e-08
2.68923e-15
6.77443e-10
-2.13994e-08
2.58784e-15
6.55923e-10
-2.20332e-08
2.49297e-15
6.33711e-10
-2.26441e-08
2.40503e-15
6.10842e-10
-2.32315e-08
2.32424e-15
5.87355e-10
-2.37949e-08
2.25029e-15
5.63289e-10
-2.43337e-08
2.18252e-15
5.38683e-10
-2.48474e-08
2.12126e-15
5.13581e-10
-2.53355e-08
2.0653e-15
4.88024e-10
-2.57976e-08
2.01423e-15
4.62057e-10
-2.62334e-08
1.96739e-15
4.35726e-10
-2.66426e-08
1.92315e-15
4.09078e-10
-2.70248e-08
1.88124e-15
3.8216e-10
-2.73799e-08
1.84047e-15
3.55021e-10
-2.77077e-08
1.80013e-15
3.2771e-10
-2.80081e-08
1.75963e-15
3.00277e-10
-2.8281e-08
1.71837e-15
2.7277e-10
-2.85263e-08
1.67647e-15
2.45241e-10
-2.87441e-08
1.63407e-15
2.17737e-10
-2.89345e-08
1.592e-15
1.9031e-10
-2.90976e-08
1.55036e-15
1.63006e-10
-2.92336e-08
1.51046e-15
1.35875e-10
-2.93426e-08
1.47213e-15
1.08965e-10
-2.9425e-08
1.43727e-15
8.23208e-11
-2.94811e-08
1.40469e-15
5.59875e-11
-2.95112e-08
1.37531e-15
3.00046e-11
-2.95157e-08
1.34782e-15
4.41036e-12
-2.94951e-08
1.32489e-15
-2.07562e-11
-2.94497e-08
1.30667e-15
-4.54625e-11
-2.93801e-08
1.28932e-15
-6.96805e-11
-2.92868e-08
1.27349e-15
-9.33803e-11
-2.91704e-08
1.25869e-15
-1.16529e-10
-2.90314e-08
1.24552e-15
-1.39094e-10
-2.88705e-08
1.23299e-15
-1.61048e-10
-2.86882e-08
1.22068e-15
-1.82363e-10
-2.84853e-08
1.21e-15
-2.03017e-10
-2.82624e-08
1.19927e-15
-2.2299e-10
-2.80202e-08
1.18929e-15
-2.42263e-10
-2.77595e-08
1.18062e-15
-2.6082e-10
-2.7481e-08
1.17335e-15
-2.78648e-10
-2.71854e-08
1.16728e-15
-2.95736e-10
-2.68734e-08
1.16229e-15
-3.12073e-10
-2.65459e-08
1.15947e-15
-3.27653e-10
-2.62035e-08
1.15773e-15
-3.4247e-10
-2.58471e-08
1.15752e-15
-3.56521e-10
-2.54774e-08
1.15882e-15
-3.69804e-10
-2.50952e-08
1.16196e-15
-3.8232e-10
-2.47013e-08
1.16597e-15
-3.9407e-10
-2.42963e-08
1.17106e-15
-4.05058e-10
-2.38812e-08
1.17703e-15
-4.15288e-10
-2.34565e-08
1.18407e-15
-4.24769e-10
-2.30232e-08
1.19188e-15
-4.33507e-10
-2.25818e-08
1.19979e-15
-4.41513e-10
-2.21331e-08
1.20868e-15
-4.48797e-10
-2.16779e-08
1.21789e-15
-4.55371e-10
-2.12168e-08
1.22765e-15
-4.61248e-10
-2.07505e-08
1.23828e-15
-4.66443e-10
-2.02796e-08
1.24879e-15
-4.7097e-10
-1.98049e-08
1.25952e-15
-4.74846e-10
-1.9327e-08
1.27069e-15
-4.78088e-10
-1.88464e-08
1.28208e-15
-4.80714e-10
-1.83638e-08
1.29411e-15
-4.82741e-10
-1.78798e-08
1.30636e-15
-4.8419e-10
-1.73949e-08
1.31861e-15
-4.8508e-10
-1.69096e-08
1.33108e-15
-4.8543e-10
-1.64245e-08
1.34366e-15
-4.85262e-10
-1.59401e-08
1.35678e-15
-4.84596e-10
-1.54568e-08
1.37e-15
-4.83453e-10
-1.49751e-08
1.38377e-15
-4.81855e-10
-1.44954e-08
1.39679e-15
-4.79823e-10
-1.40182e-08
1.41099e-15
-4.77378e-10
-1.35439e-08
1.42487e-15
-4.74542e-10
-1.30727e-08
1.43907e-15
-4.71337e-10
-1.26051e-08
1.4536e-15
-4.67782e-10
-1.21414e-08
1.46878e-15
-4.63899e-10
-1.16818e-08
1.48386e-15
-4.59709e-10
-1.12268e-08
1.50001e-15
-4.55232e-10
-1.07765e-08
1.5166e-15
-4.50486e-10
-1.03312e-08
1.53374e-15
-4.45492e-10
-9.89112e-09
1.55076e-15
-4.40268e-10
-9.45649e-09
1.56887e-15
-4.34831e-10
-9.02748e-09
1.5873e-15
-4.29198e-10
-8.6043e-09
1.60823e-15
-4.23385e-10
-8.18709e-09
1.62883e-15
-4.17409e-10
-7.77601e-09
1.65085e-15
-4.11282e-10
-7.3712e-09
1.67427e-15
-4.05018e-10
-6.97278e-09
1.69899e-15
-3.98629e-10
-6.58087e-09
1.72469e-15
-3.92125e-10
-6.19556e-09
1.75159e-15
-3.85518e-10
-5.81696e-09
1.78108e-15
-3.78814e-10
-5.44516e-09
1.81361e-15
-3.72022e-10
-5.08023e-09
1.84744e-15
-3.65146e-10
-4.72226e-09
1.88453e-15
-3.58191e-10
-4.37133e-09
1.92356e-15
-3.5116e-10
-4.0275e-09
1.9652e-15
-3.44054e-10
-3.69085e-09
2.01074e-15
-3.36873e-10
-3.36147e-09
2.05888e-15
-3.29616e-10
-3.03942e-09
2.11006e-15
-3.22279e-10
-2.7248e-09
2.1658e-15
-3.14858e-10
-2.41769e-09
2.22456e-15
-3.07348e-10
-2.11819e-09
2.2894e-15
-2.99741e-10
-1.82641e-09
2.35728e-15
-2.92028e-10
-1.54245e-09
2.42971e-15
-2.842e-10
-1.26645e-09
2.50734e-15
-2.76247e-10
-9.98549e-10
2.58974e-15
-2.68156e-10
-7.38885e-10
2.67822e-15
-2.59918e-10
-4.87618e-10
2.77189e-15
-2.51524e-10
-2.44893e-10
2.8673e-15
-2.42985e-10
-1.08301e-11
2.96814e-15
-2.34326e-10
2.14324e-10
3.05639e-15
-2.2542e-10
4.30268e-10
3.14573e-15
-2.16213e-10
6.36762e-10
3.25372e-15
-2.06765e-10
8.33551e-10
3.36973e-15
-1.97062e-10
1.02037e-09
3.49614e-15
-1.87096e-10
1.19695e-09
3.63058e-15
-1.76854e-10
1.36299e-09
3.77283e-15
-1.66325e-10
1.5182e-09
3.92352e-15
-1.55498e-10
1.66228e-09
4.08355e-15
-1.44366e-10
1.79491e-09
4.25289e-15
-1.32922e-10
1.91577e-09
4.43351e-15
-1.21163e-10
2.02456e-09
4.62367e-15
-1.09089e-10
2.12096e-09
4.82337e-15
-9.67022e-11
2.20466e-09
5.03542e-15
-8.40103e-11
2.27536e-09
5.25724e-15
-7.10242e-11
2.3328e-09
5.48902e-15
-5.77594e-11
2.37671e-09
5.73338e-15
-4.4237e-11
2.40686e-09
5.98858e-15
-3.04842e-11
2.42305e-09
6.25484e-15
-1.65346e-11
2.42514e-09
6.52651e-15
-2.43048e-12
2.41298e-09
6.81592e-15
1.18014e-11
2.38649e-09
7.12401e-15
2.61263e-11
2.34563e-09
7.44035e-15
4.0483e-11
2.29044e-09
7.76535e-15
5.4809e-11
2.22101e-09
8.10142e-15
6.90341e-11
2.13753e-09
8.4494e-15
8.30805e-11
2.04025e-09
8.80606e-15
9.68626e-11
1.92954e-09
9.17746e-15
1.10286e-10
1.80586e-09
9.55644e-15
1.23247e-10
1.66977e-09
9.94605e-15
1.35634e-10
1.52199e-09
1.03454e-14
1.47321e-10
1.36333e-09
1.07565e-14
1.58174e-10
1.1948e-09
1.11749e-14
1.68044e-10
1.01752e-09
1.16055e-14
1.7677e-10
8.32823e-10
1.20513e-14
1.84172e-10
6.42227e-10
1.25131e-14
1.90054e-10
4.47471e-10
1.29961e-14
1.94197e-10
2.50539e-10
1.35017e-14
1.96355e-10
5.36841e-11
1.40212e-14
1.96257e-10
-1.40467e-10
1.44969e-14
1.93533e-10
-3.28904e-10
1.49279e-14
1.87798e-10
-5.08244e-10
1.53811e-14
1.78683e-10
-6.74704e-10
1.58455e-14
1.65783e-10
-8.23979e-10
1.63117e-14
1.48576e-10
-9.51109e-10
1.67979e-14
1.2641e-10
-1.0505e-09
1.73361e-14
9.86465e-11
-1.11587e-09
1.79607e-14
6.45953e-11
-1.14031e-09
1.86967e-14
2.36443e-11
-1.11668e-09
1.95372e-14
-2.44603e-11
-1.03834e-09
2.04859e-14
-7.9213e-11
-9.00627e-10
2.15869e-14
-1.38622e-10
-7.04197e-10
2.28342e-14
-1.97392e-10
-4.61839e-10
2.41827e-14
-2.43385e-10
-2.1227e-10
2.5237e-14
-2.50684e-10
-3.47367e-11
2.60963e-14
-1.78791e-10
1.15326e-14
-3.61407e-11
4.82563e-10
-4.82998e-10
1.23712e-09
-7.55586e-10
1.88962e-09
-6.5313e-10
2.28611e-09
-3.96973e-10
2.42033e-09
-1.34657e-10
2.32585e-09
9.40832e-11
2.04451e-09
2.80974e-10
1.61519e-09
4.28975e-10
1.07002e-09
5.44846e-10
4.34566e-10
6.35141e-10
-2.70733e-10
7.05004e-10
-1.02931e-09
7.58298e-10
-1.82821e-09
7.98631e-10
-2.6575e-09
8.29049e-10
-3.50928e-09
8.51543e-10
-4.37717e-09
8.6766e-10
-5.25597e-09
8.7859e-10
-6.14143e-09
8.85253e-10
-7.02999e-09
8.88369e-10
-7.91868e-09
8.88502e-10
-8.80495e-09
8.86097e-10
-9.68662e-09
8.81503e-10
-1.05618e-08
8.74997e-10
-1.14287e-08
8.66802e-10
-1.2286e-08
8.57092e-10
-1.31321e-08
8.4601e-10
-1.39659e-08
8.33669e-10
-1.47862e-08
8.20163e-10
-1.55919e-08
8.05569e-10
-1.6382e-08
7.89951e-10
-1.71555e-08
7.73364e-10
-1.79115e-08
7.55856e-10
-1.86491e-08
7.3747e-10
-1.93674e-08
7.18245e-10
-2.00657e-08
6.98219e-10
-2.07433e-08
6.77429e-10
-2.13993e-08
6.55909e-10
-2.20331e-08
6.33697e-10
-2.2644e-08
6.10828e-10
-2.32315e-08
5.87341e-10
-2.37949e-08
5.63275e-10
-2.43336e-08
5.3867e-10
-2.48473e-08
5.13567e-10
-2.53354e-08
4.8801e-10
-2.57976e-08
4.62044e-10
-2.62334e-08
4.35713e-10
-2.66425e-08
4.09065e-10
-2.70248e-08
3.82147e-10
-2.73799e-08
3.55008e-10
-2.77077e-08
3.27697e-10
-2.8008e-08
3.00263e-10
-2.82809e-08
2.72757e-10
-2.85262e-08
2.45227e-10
-2.87441e-08
2.17724e-10
-2.89344e-08
1.90296e-10
-2.90975e-08
1.62992e-10
-2.92335e-08
1.35861e-10
-2.93426e-08
1.0895e-10
-2.9425e-08
8.23063e-11
-2.94811e-08
5.59729e-11
-2.95111e-08
2.99897e-11
-2.95157e-08
4.39537e-12
-2.9495e-08
-2.07714e-11
-2.94496e-08
-4.54778e-11
-2.938e-08
-6.96961e-11
-2.92868e-08
-9.3396e-11
-2.91703e-08
-1.16545e-10
-2.90313e-08
-1.3911e-10
-2.88704e-08
-1.61064e-10
-2.86881e-08
-1.82379e-10
-2.84852e-08
-2.03034e-10
-2.82623e-08
-2.23007e-10
-2.80202e-08
-2.4228e-10
-2.77595e-08
-2.60838e-10
-2.74809e-08
-2.78666e-10
-2.71853e-08
-2.95754e-10
-2.68733e-08
-3.12091e-10
-2.65458e-08
-3.27671e-10
-2.62034e-08
-3.42489e-10
-2.5847e-08
-3.5654e-10
-2.54774e-08
-3.69824e-10
-2.50952e-08
-3.82339e-10
-2.47012e-08
-3.9409e-10
-2.42963e-08
-4.05078e-10
-2.38811e-08
-4.15309e-10
-2.34565e-08
-4.2479e-10
-2.30231e-08
-4.33528e-10
-2.25817e-08
-4.41534e-10
-2.21331e-08
-4.48818e-10
-2.16778e-08
-4.55392e-10
-2.12167e-08
-4.6127e-10
-2.07504e-08
-4.66465e-10
-2.02796e-08
-4.70993e-10
-1.98049e-08
-4.74869e-10
-1.93269e-08
-4.78111e-10
-1.88464e-08
-4.80737e-10
-1.83638e-08
-4.82765e-10
-1.78797e-08
-4.84214e-10
-1.73948e-08
-4.85104e-10
-1.69096e-08
-4.85455e-10
-1.64245e-08
-4.85287e-10
-1.594e-08
-4.84621e-10
-1.54567e-08
-4.83479e-10
-1.4975e-08
-4.81881e-10
-1.44954e-08
-4.7985e-10
-1.40182e-08
-4.77405e-10
-1.35438e-08
-4.7457e-10
-1.30727e-08
-4.71364e-10
-1.26051e-08
-4.6781e-10
-1.21413e-08
-4.63928e-10
-1.16818e-08
-4.59738e-10
-1.12268e-08
-4.55261e-10
-1.07765e-08
-4.50516e-10
-1.03312e-08
-4.45522e-10
-9.89109e-09
-4.40298e-10
-9.45645e-09
-4.34861e-10
-9.02745e-09
-4.29229e-10
-8.60426e-09
-4.23417e-10
-8.18706e-09
-4.1744e-10
-7.77598e-09
-4.11314e-10
-7.37117e-09
-4.0505e-10
-6.97275e-09
-3.98661e-10
-6.58083e-09
-3.92159e-10
-6.19553e-09
-3.85551e-10
-5.81693e-09
-3.78848e-10
-5.44512e-09
-3.72056e-10
-5.0802e-09
-3.6518e-10
-4.72223e-09
-3.58226e-10
-4.37129e-09
-3.51195e-10
-4.02747e-09
-3.44089e-10
-3.69082e-09
-3.36909e-10
-3.36144e-09
-3.29652e-10
-3.03939e-09
-3.22316e-10
-2.72477e-09
-3.14895e-10
-2.41766e-09
-3.07386e-10
-2.11816e-09
-2.99779e-10
-1.82638e-09
-2.92066e-10
-1.54242e-09
-2.84239e-10
-1.26642e-09
-2.76286e-10
-9.98519e-10
-2.68196e-10
-7.38854e-10
-2.59959e-10
-4.87587e-10
-2.51564e-10
-2.44862e-10
-2.43026e-10
-1.07995e-11
-2.34367e-10
2.14355e-10
-2.25462e-10
4.30299e-10
-2.16255e-10
6.36793e-10
-2.06807e-10
8.33582e-10
-1.97105e-10
1.0204e-09
-1.87139e-10
1.19698e-09
-1.76898e-10
1.36302e-09
-1.66369e-10
1.51823e-09
-1.55543e-10
1.66231e-09
-1.44411e-10
1.79494e-09
-1.32968e-10
1.91581e-09
-1.21209e-10
2.02459e-09
-1.09136e-10
2.12099e-09
-9.67498e-11
2.20469e-09
-8.40586e-11
2.2754e-09
-7.10732e-11
2.33283e-09
-5.78092e-11
2.37674e-09
-4.42876e-11
2.40689e-09
-3.05356e-11
2.42309e-09
-1.65869e-11
2.42517e-09
-2.48365e-12
2.41301e-09
1.17472e-11
2.38652e-09
2.6071e-11
2.34566e-09
4.04265e-11
2.29047e-09
5.47513e-11
2.22104e-09
6.89752e-11
2.13756e-09
8.30203e-11
2.04028e-09
9.6801e-11
1.92957e-09
1.10223e-10
1.80588e-09
1.23183e-10
1.6698e-09
1.35567e-10
1.52201e-09
1.47253e-10
1.36336e-09
1.58104e-10
1.19482e-09
1.67972e-10
1.01754e-09
1.76696e-10
8.32844e-10
1.84096e-10
6.42248e-10
1.89976e-10
4.4749e-10
1.94116e-10
2.50556e-10
1.96271e-10
5.36999e-11
1.96171e-10
-1.40453e-10
1.93445e-10
-3.28891e-10
1.87707e-10
-5.08232e-10
1.78589e-10
-6.74694e-10
1.65687e-10
-8.2397e-10
1.48476e-10
-9.51102e-10
1.26306e-10
-1.0505e-09
9.85393e-11
-1.11586e-09
6.44839e-11
-1.14031e-09
2.35279e-11
-1.11668e-09
-2.45821e-11
-1.03834e-09
-7.9341e-11
-9.00633e-10
-1.38758e-10
-7.0421e-10
-1.97535e-10
-4.61866e-10
-2.43538e-10
-2.1233e-10
-2.50848e-10
-3.48527e-11
-1.78973e-10
-3.63289e-11
7.60284e-10
1.66287e-14
-1.24419e-09
1.23968e-09
3.12591e-16
-1.23594e-09
1.47058e-09
6.37287e-16
-8.84484e-10
1.51441e-09
-9.61781e-17
-4.41174e-10
1.39293e-09
-2.78679e-16
-1.35104e-11
1.126e-09
-3.69267e-16
3.60714e-10
7.3387e-10
-4.7798e-16
6.72833e-10
2.35981e-10
-5.97887e-16
9.26607e-10
-3.49456e-10
-6.71479e-16
1.13004e-09
-1.00609e-09
-7.03099e-16
1.29155e-09
-1.72004e-09
-7.17415e-16
1.41874e-09
-2.47982e-09
-7.1752e-16
1.51788e-09
-3.27578e-09
-7.03632e-16
1.59439e-09
-4.09971e-09
-6.82801e-16
1.6528e-09
-4.94482e-09
-6.55188e-16
1.69648e-09
-5.80544e-09
-6.20417e-16
1.72812e-09
-6.67684e-09
-5.77132e-16
1.74983e-09
-7.55502e-09
-5.26093e-16
1.76328e-09
-8.4366e-09
-4.69955e-16
1.7698e-09
-9.31865e-09
-4.12786e-16
1.77042e-09
-1.01987e-08
-3.57838e-16
1.76601e-09
-1.10745e-08
-3.07768e-16
1.75721e-09
-1.19442e-08
-2.6393e-16
1.74459e-09
-1.28061e-08
-2.27464e-16
1.72856e-09
-1.36586e-08
-1.97963e-16
1.70948e-09
-1.45003e-08
-1.74208e-16
1.68762e-09
-1.533e-08
-1.55248e-16
1.66323e-09
-1.61464e-08
-1.3965e-16
1.63648e-09
-1.69485e-08
-1.26191e-16
1.60755e-09
-1.77352e-08
-1.13599e-16
1.57655e-09
-1.85055e-08
-1.02064e-16
1.5436e-09
-1.92586e-08
-9.08261e-17
1.5088e-09
-1.99934e-08
-7.99129e-17
1.47224e-09
-2.07093e-08
-6.94598e-17
1.434e-09
-2.14053e-08
-5.90603e-17
1.39416e-09
-2.20808e-08
-4.89585e-17
1.35279e-09
-2.27349e-08
-3.92085e-17
1.30996e-09
-2.33671e-08
-2.97019e-17
1.26575e-09
-2.39765e-08
-2.04389e-17
1.22022e-09
-2.45628e-08
-1.13109e-17
1.17347e-09
-2.51251e-08
-2.77881e-18
1.12555e-09
-2.56631e-08
5.56393e-18
1.07655e-09
-2.61761e-08
1.33921e-17
1.02656e-09
-2.66639e-08
2.03532e-17
9.75659e-10
-2.71259e-08
2.64473e-17
9.23933e-10
-2.75617e-08
3.14032e-17
8.71475e-10
-2.79711e-08
3.51127e-17
8.18375e-10
-2.83537e-08
3.744e-17
7.64728e-10
-2.87095e-08
3.83311e-17
7.1063e-10
-2.9038e-08
3.80026e-17
6.56177e-10
-2.93393e-08
3.64817e-17
6.01466e-10
-2.96132e-08
3.38498e-17
5.46596e-10
-2.98597e-08
3.08385e-17
4.91663e-10
-3.00789e-08
2.73396e-17
4.36767e-10
-3.02707e-08
2.38679e-17
3.82002e-10
-3.04352e-08
2.06945e-17
3.27466e-10
-3.05727e-08
1.79007e-17
2.73251e-10
-3.06833e-08
1.5893e-17
2.1945e-10
-3.07672e-08
1.44818e-17
1.66153e-10
-3.08248e-08
1.38025e-17
1.13445e-10
-3.08563e-08
1.38552e-17
6.141e-11
-3.08621e-08
1.45855e-17
1.01259e-11
-3.08426e-08
1.51259e-17
-4.03338e-11
-3.07983e-08
1.53143e-17
-8.99013e-11
-3.07296e-08
1.60177e-17
-1.38509e-10
-3.0637e-08
1.68295e-17
-1.86094e-10
-3.0521e-08
1.73162e-17
-2.32593e-10
-3.03823e-08
1.78571e-17
-2.77947e-10
-3.02213e-08
1.82353e-17
-3.22101e-10
-3.00388e-08
1.83968e-17
-3.65006e-10
-2.98353e-08
1.86396e-17
-4.06616e-10
-2.96116e-08
1.87468e-17
-4.46891e-10
-2.93681e-08
1.90981e-17
-4.85794e-10
-2.91058e-08
1.9639e-17
-5.23295e-10
-2.88252e-08
2.03697e-17
-5.59365e-10
-2.85271e-08
2.13443e-17
-5.93982e-10
-2.82121e-08
2.26713e-17
-6.27126e-10
-2.78811e-08
2.42152e-17
-6.58783e-10
-2.75348e-08
2.6003e-17
-6.88941e-10
-2.71739e-08
2.78991e-17
-7.17594e-10
-2.67991e-08
3.02019e-17
-7.44736e-10
-2.64111e-08
3.23149e-17
-7.70368e-10
-2.60109e-08
3.46177e-17
-7.94493e-10
-2.55989e-08
3.68933e-17
-8.17118e-10
-2.51761e-08
3.90605e-17
-8.38251e-10
-2.47431e-08
4.11464e-17
-8.57906e-10
-2.43007e-08
4.29884e-17
-8.76097e-10
-2.38495e-08
4.46677e-17
-8.92842e-10
-2.33903e-08
4.63741e-17
-9.08162e-10
-2.29237e-08
4.80806e-17
-9.22079e-10
-2.24505e-08
4.93805e-17
-9.34619e-10
-2.19713e-08
5.06261e-17
-9.45808e-10
-2.14867e-08
5.17634e-17
-9.55675e-10
-2.09975e-08
5.26568e-17
-9.64251e-10
-2.05042e-08
5.3496e-17
-9.71569e-10
-2.00074e-08
5.41996e-17
-9.77661e-10
-1.95077e-08
5.46865e-17
-9.82564e-10
-1.90058e-08
5.51192e-17
-9.86314e-10
-1.85021e-08
5.53351e-17
-9.88947e-10
-1.79972e-08
5.52258e-17
-9.90503e-10
-1.74916e-08
5.50623e-17
-9.9102e-10
-1.69858e-08
5.47905e-17
-9.90539e-10
-1.64803e-08
5.39496e-17
-9.89099e-10
-1.59756e-08
5.32171e-17
-9.8674e-10
-1.54721e-08
5.18613e-17
-9.83505e-10
-1.49703e-08
5.04513e-17
-9.79433e-10
-1.44704e-08
4.87975e-17
-9.74565e-10
-1.3973e-08
4.68727e-17
-9.68942e-10
-1.34784e-08
4.45686e-17
-9.62604e-10
-1.29869e-08
4.21561e-17
-9.55591e-10
-1.24988e-08
3.931e-17
-9.47941e-10
-1.20146e-08
3.61388e-17
-9.39694e-10
-1.15344e-08
3.26696e-17
-9.30887e-10
-1.10585e-08
2.90378e-17
-9.21555e-10
-1.05872e-08
2.49724e-17
-9.11735e-10
-1.01208e-08
2.06361e-17
-9.0146e-10
-9.65946e-09
1.59205e-17
-8.90762e-10
-9.20339e-09
1.09339e-17
-8.79672e-10
-8.75279e-09
5.51381e-18
-8.6822e-10
-8.30785e-09
-1.46386e-20
-8.56433e-10
-7.86875e-09
-6.03086e-18
-8.44335e-10
-7.43565e-09
-1.24264e-17
-8.3195e-10
-7.00869e-09
-1.9093e-17
-8.19299e-10
-6.58803e-09
-2.62473e-17
-8.06401e-10
-6.1738e-09
-3.36184e-17
-7.9327e-10
-5.76613e-09
-4.09352e-17
-7.79921e-10
-5.36514e-09
-4.88482e-17
-7.66365e-10
-4.97095e-09
-5.68696e-17
-7.52609e-10
-4.58368e-09
-6.52704e-17
-7.3866e-10
-4.20345e-09
-7.41591e-17
-7.24519e-10
-3.83038e-09
-8.34273e-17
-7.10186e-10
-3.46457e-09
-9.30207e-17
-6.95657e-10
-3.10616e-09
-1.02831e-16
-6.80928e-10
-2.75528e-09
-1.12967e-16
-6.65989e-10
-2.41204e-09
-1.23157e-16
-6.50827e-10
-2.0766e-09
-1.33672e-16
-6.3543e-10
-1.7491e-09
-1.44675e-16
-6.1978e-10
-1.42969e-09
-1.56275e-16
-6.03859e-10
-1.11855e-09
-1.68471e-16
-5.87646e-10
-8.15844e-10
-1.80722e-16
-5.71121e-10
-5.2176e-10
-1.93082e-16
-5.54264e-10
-2.36485e-10
-2.05876e-16
-5.37062e-10
3.97744e-11
-2.1997e-16
-5.1951e-10
3.06723e-10
-2.35474e-16
-5.01543e-10
5.6408e-10
-2.49136e-16
-4.83049e-10
8.11606e-10
-2.60847e-16
-4.64013e-10
1.04901e-09
-2.72396e-16
-4.4445e-10
1.27601e-09
-2.82699e-16
-4.24331e-10
1.49226e-09
-2.92569e-16
-4.03637e-10
1.69747e-09
-3.0206e-16
-3.82341e-10
1.89127e-09
-3.1204e-16
-3.6042e-10
2.07334e-09
-3.22076e-16
-3.37854e-10
2.2433e-09
-3.31949e-16
-3.14625e-10
2.4008e-09
-3.42258e-16
-2.90721e-10
2.54547e-09
-3.52351e-16
-2.66134e-10
2.67693e-09
-3.62282e-16
-2.40863e-10
2.79483e-09
-3.72812e-16
-2.14913e-10
2.89879e-09
-3.83288e-16
-1.88296e-10
2.98848e-09
-3.93983e-16
-1.61034e-10
3.06354e-09
-4.05602e-16
-1.33155e-10
3.12367e-09
-4.17168e-16
-1.047e-10
3.16856e-09
-4.28573e-16
-7.57202e-11
3.19795e-09
-4.40576e-16
-4.62762e-11
3.2116e-09
-4.52688e-16
-1.64422e-11
3.20933e-09
-4.65391e-16
1.37071e-11
3.19099e-09
-4.79567e-16
4.40849e-11
3.15651e-09
-4.93963e-16
7.45808e-11
3.10586e-09
-5.08959e-16
1.0507e-10
3.03907e-09
-5.25205e-16
1.35411e-10
2.95629e-09
-5.42755e-16
1.65449e-10
2.85771e-09
-5.61175e-16
1.9501e-10
2.74366e-09
-5.81007e-16
2.23903e-10
2.61453e-09
-6.02252e-16
2.51918e-10
2.47087e-09
-6.24964e-16
2.78826e-10
2.31334e-09
-6.48763e-16
3.04374e-10
2.14273e-09
-6.74624e-16
3.28289e-10
1.95999e-09
-7.01682e-16
3.50268e-10
1.76625e-09
-7.30585e-16
3.69984e-10
1.56281e-09
-7.60033e-16
3.87075e-10
1.35115e-09
-7.88941e-16
4.01145e-10
1.13302e-09
-8.17417e-16
4.11755e-10
9.10353e-10
-8.45136e-16
4.18417e-10
6.85399e-10
-8.74265e-16
4.20589e-10
4.60662e-10
-9.0166e-16
4.17628e-10
2.38962e-10
-9.2255e-16
4.08835e-10
2.34752e-11
-9.44737e-16
3.93485e-10
-1.8216e-10
-9.73749e-16
3.70711e-10
-3.7388e-10
-1.006e-15
3.39563e-10
-5.47251e-10
-1.03402e-15
2.99022e-10
-6.97375e-10
-1.05019e-15
2.47983e-10
-8.18907e-10
-1.04847e-15
1.85308e-10
-9.06142e-10
-1.03067e-15
1.10024e-10
-9.5313e-10
-9.95908e-16
2.16295e-11
-9.54035e-10
-9.36286e-16
-7.9255e-11
-9.03792e-10
-8.34168e-16
-1.89874e-10
-7.98917e-10
-6.62277e-16
-3.03356e-10
-6.38766e-10
-3.86639e-16
-4.04741e-10
-4.26896e-10
-2.29267e-17
-4.63954e-10
-1.8147e-10
1.49297e-16
-4.25967e-10
-1.38206e-14
-2.18827e-10
7.60136e-10
-1.24428e-09
1.23962e-09
-1.23598e-09
1.47053e-09
-8.845e-10
1.51437e-09
-4.41182e-10
1.3929e-09
-1.35156e-11
1.12598e-09
3.60709e-10
7.33851e-10
6.72828e-10
2.35967e-10
9.26603e-10
-3.49466e-10
1.13004e-09
-1.0061e-09
1.29155e-09
-1.72004e-09
1.41873e-09
-2.47982e-09
1.51787e-09
-3.27577e-09
1.59439e-09
-4.0997e-09
1.65279e-09
-4.9448e-09
1.69647e-09
-5.80543e-09
1.72812e-09
-6.67682e-09
1.74983e-09
-7.555e-09
1.76328e-09
-8.43657e-09
1.76979e-09
-9.31863e-09
1.77042e-09
-1.01987e-08
1.766e-09
-1.10745e-08
1.75721e-09
-1.19442e-08
1.74458e-09
-1.28061e-08
1.72855e-09
-1.36586e-08
1.70947e-09
-1.45003e-08
1.68762e-09
-1.533e-08
1.66323e-09
-1.61464e-08
1.63648e-09
-1.69485e-08
1.60754e-09
-1.77352e-08
1.57654e-09
-1.85055e-08
1.54359e-09
-1.92585e-08
1.5088e-09
-1.99934e-08
1.47224e-09
-2.07092e-08
1.434e-09
-2.14053e-08
1.39416e-09
-2.20807e-08
1.35279e-09
-2.27349e-08
1.30996e-09
-2.3367e-08
1.26575e-09
-2.39765e-08
1.22022e-09
-2.45627e-08
1.17346e-09
-2.5125e-08
1.12555e-09
-2.5663e-08
1.07655e-09
-2.61761e-08
1.02656e-09
-2.66638e-08
9.75656e-10
-2.71258e-08
9.23931e-10
-2.75616e-08
8.71472e-10
-2.7971e-08
8.18372e-10
-2.83537e-08
7.64726e-10
-2.87094e-08
7.10627e-10
-2.90379e-08
6.56174e-10
-2.93392e-08
6.01463e-10
-2.96132e-08
5.46593e-10
-2.98597e-08
4.9166e-10
-3.00788e-08
4.36764e-10
-3.02706e-08
3.81999e-10
-3.04351e-08
3.27463e-10
-3.05726e-08
2.73248e-10
-3.06832e-08
2.19447e-10
-3.07671e-08
1.6615e-10
-3.08247e-08
1.13442e-10
-3.08562e-08
6.14067e-11
-3.0862e-08
1.01225e-11
-3.08426e-08
-4.03373e-11
-3.07982e-08
-8.99048e-11
-3.07295e-08
-1.38513e-10
-3.06369e-08
-1.86098e-10
-3.0521e-08
-2.32596e-10
-3.03822e-08
-2.7795e-10
-3.02213e-08
-3.22105e-10
-3.00388e-08
-3.65009e-10
-2.98353e-08
-4.0662e-10
-2.96115e-08
-4.46894e-10
-2.93681e-08
-4.85798e-10
-2.91057e-08
-5.23299e-10
-2.88251e-08
-5.59369e-10
-2.8527e-08
-5.93986e-10
-2.82121e-08
-6.2713e-10
-2.78811e-08
-6.58787e-10
-2.75347e-08
-6.88946e-10
-2.71738e-08
-7.17598e-10
-2.6799e-08
-7.4474e-10
-2.64111e-08
-7.70372e-10
-2.60108e-08
-7.94498e-10
-2.55989e-08
-8.17122e-10
-2.51761e-08
-8.38256e-10
-2.47431e-08
-8.57911e-10
-2.43006e-08
-8.76102e-10
-2.38494e-08
-8.92847e-10
-2.33902e-08
-9.08167e-10
-2.29237e-08
-9.22084e-10
-2.24504e-08
-9.34624e-10
-2.19712e-08
-9.45813e-10
-2.14867e-08
-9.5568e-10
-2.09974e-08
-9.64256e-10
-2.05041e-08
-9.71574e-10
-2.00073e-08
-9.77666e-10
-1.95077e-08
-9.82569e-10
-1.90057e-08
-9.86319e-10
-1.8502e-08
-9.88952e-10
-1.79971e-08
-9.90508e-10
-1.74915e-08
-9.91026e-10
-1.69858e-08
-9.90544e-10
-1.64803e-08
-9.89104e-10
-1.59756e-08
-9.86746e-10
-1.54721e-08
-9.8351e-10
-1.49702e-08
-9.79438e-10
-1.44704e-08
-9.74571e-10
-1.3973e-08
-9.68948e-10
-1.34783e-08
-9.6261e-10
-1.29868e-08
-9.55596e-10
-1.24988e-08
-9.47947e-10
-1.20145e-08
-9.397e-10
-1.15343e-08
-9.30893e-10
-1.10585e-08
-9.21561e-10
-1.05872e-08
-9.11741e-10
-1.01208e-08
-9.01466e-10
-9.65943e-09
-8.90768e-10
-9.20335e-09
-8.79679e-10
-8.75275e-09
-8.68227e-10
-8.30782e-09
-8.56439e-10
-7.86872e-09
-8.44342e-10
-7.43561e-09
-8.31957e-10
-7.00866e-09
-8.19306e-10
-6.588e-09
-8.06407e-10
-6.17377e-09
-7.93277e-10
-5.7661e-09
-7.79928e-10
-5.36511e-09
-7.66372e-10
-4.97092e-09
-7.52616e-10
-4.58365e-09
-7.38667e-10
-4.20342e-09
-7.24526e-10
-3.83034e-09
-7.10193e-10
-3.46454e-09
-6.95665e-10
-3.10613e-09
-6.80935e-10
-2.75525e-09
-6.65996e-10
-2.41201e-09
-6.50835e-10
-2.07657e-09
-6.35437e-10
-1.74907e-09
-6.19787e-10
-1.42967e-09
-6.03866e-10
-1.11852e-09
-5.87653e-10
-8.15816e-10
-5.71128e-10
-5.21731e-10
-5.54271e-10
-2.36456e-10
-5.3707e-10
3.9803e-11
-5.19518e-10
3.06751e-10
-5.01551e-10
5.64108e-10
-4.83057e-10
8.11635e-10
-4.64021e-10
1.04904e-09
-4.44457e-10
1.27603e-09
-4.24339e-10
1.49229e-09
-4.03645e-10
1.6975e-09
-3.82349e-10
1.8913e-09
-3.60428e-10
2.07337e-09
-3.37862e-10
2.24333e-09
-3.14633e-10
2.40083e-09
-2.90729e-10
2.54549e-09
-2.66142e-10
2.67696e-09
-2.40871e-10
2.79486e-09
-2.14921e-10
2.89882e-09
-1.88304e-10
2.98851e-09
-1.61041e-10
3.06357e-09
-1.33163e-10
3.1237e-09
-1.04708e-10
3.16859e-09
-7.57282e-11
3.19798e-09
-4.62841e-11
3.21163e-09
-1.645e-11
3.20936e-09
1.36992e-11
3.19102e-09
4.40771e-11
3.15654e-09
7.45729e-11
3.10588e-09
1.05062e-10
3.0391e-09
1.35403e-10
2.95631e-09
1.65441e-10
2.85774e-09
1.95002e-10
2.74368e-09
2.23895e-10
2.61456e-09
2.5191e-10
2.4709e-09
2.78818e-10
2.31336e-09
3.04367e-10
2.14275e-09
3.28281e-10
1.96001e-09
3.5026e-10
1.76627e-09
3.69976e-10
1.56282e-09
3.87067e-10
1.35117e-09
4.01136e-10
1.13303e-09
4.11746e-10
9.10368e-10
4.18408e-10
6.85413e-10
4.2058e-10
4.60674e-10
4.17619e-10
2.38974e-10
4.08825e-10
2.34856e-11
3.93475e-10
-1.82151e-10
3.707e-10
-3.73872e-10
3.39551e-10
-5.47244e-10
2.99009e-10
-6.97369e-10
2.47969e-10
-8.18903e-10
1.85292e-10
-9.06139e-10
1.10006e-10
-9.53128e-10
2.161e-11
-9.54035e-10
-7.92772e-11
-9.03794e-10
-1.899e-10
-7.98922e-10
-3.03386e-10
-6.38779e-10
-4.04777e-10
-4.26936e-10
-4.63997e-10
-1.81583e-10
-4.26021e-10
-2.18891e-10
6.34408e-10
9.31994e-15
-1.87916e-09
8.6194e-10
5.44353e-16
-1.46397e-09
8.53653e-10
1.36009e-15
-8.76361e-10
7.03871e-10
7.27341e-16
-2.91512e-10
4.44189e-10
4.71602e-16
2.4607e-10
8.91023e-11
3.15194e-16
7.15711e-10
-3.51399e-10
1.6514e-16
1.11325e-09
-8.67732e-10
3.24952e-17
1.44286e-09
-1.45017e-09
-3.92642e-17
1.71241e-09
-2.08921e-09
-7.49413e-17
1.93052e-09
-2.77593e-09
-1.11292e-16
2.10539e-09
-3.50232e-09
-1.48614e-16
2.24421e-09
-4.26119e-09
-1.74062e-16
2.3532e-09
-5.04608e-09
-1.83245e-16
2.43762e-09
-5.85135e-09
-1.80364e-16
2.5017e-09
-6.67214e-09
-1.69973e-16
2.54886e-09
-7.50423e-09
-1.54892e-16
2.58187e-09
-8.34396e-09
-1.36476e-16
2.60296e-09
-9.18814e-09
-1.15998e-16
2.61393e-09
-1.0034e-08
-9.51408e-17
2.61624e-09
-1.08791e-08
-7.51769e-17
2.61105e-09
-1.17213e-08
-5.70826e-17
2.59933e-09
-1.25586e-08
-4.15084e-17
2.58185e-09
-1.33893e-08
-2.87118e-17
2.55922e-09
-1.42118e-08
-1.84897e-17
2.53198e-09
-1.50247e-08
-1.03541e-17
2.50052e-09
-1.58268e-08
-3.53262e-18
2.46521e-09
-1.66166e-08
2.65235e-18
2.42632e-09
-1.73932e-08
8.90553e-18
2.3841e-09
-1.81555e-08
1.55115e-17
2.33874e-09
-1.89023e-08
2.27684e-17
2.29042e-09
-1.96329e-08
3.04729e-17
2.2393e-09
-2.03461e-08
3.85167e-17
2.1855e-09
-2.10413e-08
4.66963e-17
2.12917e-09
-2.17176e-08
5.48491e-17
2.0704e-09
-2.23742e-08
6.28668e-17
2.00933e-09
-2.30103e-08
7.05731e-17
1.94605e-09
-2.36253e-08
7.79409e-17
1.88069e-09
-2.42184e-08
8.52954e-17
1.81334e-09
-2.47891e-08
9.22572e-17
1.74413e-09
-2.53368e-08
9.89888e-17
1.67317e-09
-2.58609e-08
1.05368e-16
1.60059e-09
-2.63608e-08
1.11342e-16
1.52649e-09
-2.68362e-08
1.16732e-16
1.45102e-09
-2.72866e-08
1.21405e-16
1.3743e-09
-2.77116e-08
1.25332e-16
1.29646e-09
-2.81109e-08
1.28528e-16
1.21764e-09
-2.84842e-08
1.30952e-16
1.13799e-09
-2.88313e-08
1.32738e-16
1.05763e-09
-2.91518e-08
1.34146e-16
9.76728e-10
-2.94458e-08
1.35485e-16
8.9541e-10
-2.97131e-08
1.36663e-16
8.13828e-10
-2.99536e-08
1.38179e-16
7.32125e-10
-3.01673e-08
1.40034e-16
6.50446e-10
-3.03543e-08
1.42242e-16
5.68935e-10
-3.05145e-08
1.44937e-16
4.87731e-10
-3.06483e-08
1.47972e-16
4.06975e-10
-3.07557e-08
1.51427e-16
3.26803e-10
-3.08369e-08
1.55139e-16
2.47346e-10
-3.08922e-08
1.59028e-16
1.68732e-10
-3.09219e-08
1.63106e-16
9.10835e-11
-3.09264e-08
1.67252e-16
1.45187e-11
-3.09059e-08
1.71304e-16
-6.08507e-11
-3.08609e-08
1.75423e-16
-1.34918e-10
-3.07919e-08
1.79434e-16
-2.07581e-10
-3.06993e-08
1.8335e-16
-2.78742e-10
-3.05836e-08
1.87103e-16
-3.48309e-10
-3.04454e-08
1.90843e-16
-4.16197e-10
-3.02852e-08
1.9457e-16
-4.82325e-10
-3.01036e-08
1.98323e-16
-5.46618e-10
-2.99013e-08
2.02009e-16
-6.09009e-10
-2.96787e-08
2.05817e-16
-6.69439e-10
-2.94367e-08
2.09774e-16
-7.27851e-10
-2.91759e-08
2.13961e-16
-7.84199e-10
-2.88968e-08
2.18284e-16
-8.38441e-10
-2.86003e-08
2.22701e-16
-8.90541e-10
-2.8287e-08
2.27322e-16
-9.40471e-10
-2.79576e-08
2.32106e-16
-9.88208e-10
-2.76129e-08
2.36985e-16
-1.03373e-09
-2.72535e-08
2.41971e-16
-1.07703e-09
-2.68801e-08
2.4704e-16
-1.1181e-09
-2.64936e-08
2.52094e-16
-1.15694e-09
-2.60946e-08
2.5719e-16
-1.19355e-09
-2.56838e-08
2.62312e-16
-1.22794e-09
-2.5262e-08
2.67462e-16
-1.26013e-09
-2.48298e-08
2.7249e-16
-1.29012e-09
-2.4388e-08
2.77395e-16
-1.31795e-09
-2.39373e-08
2.82382e-16
-1.34363e-09
-2.34783e-08
2.87247e-16
-1.3672e-09
-2.30117e-08
2.92153e-16
-1.38868e-09
-2.25383e-08
2.97059e-16
-1.40812e-09
-2.20586e-08
3.0187e-16
-1.42555e-09
-2.15733e-08
3.06735e-16
-1.44102e-09
-2.1083e-08
3.1156e-16
-1.45457e-09
-2.05884e-08
3.1633e-16
-1.46624e-09
-2.009e-08
3.2106e-16
-1.47608e-09
-1.95885e-08
3.25776e-16
-1.48415e-09
-1.90843e-08
3.30533e-16
-1.49049e-09
-1.85782e-08
3.35168e-16
-1.49517e-09
-1.80705e-08
3.39681e-16
-1.49824e-09
-1.75618e-08
3.44235e-16
-1.49974e-09
-1.70527e-08
3.48693e-16
-1.49975e-09
-1.65435e-08
3.53125e-16
-1.49832e-09
-1.60348e-08
3.5734e-16
-1.4955e-09
-1.5527e-08
3.61434e-16
-1.49136e-09
-1.50205e-08
3.65527e-16
-1.48596e-09
-1.45157e-08
3.69417e-16
-1.47936e-09
-1.40131e-08
3.73212e-16
-1.4716e-09
-1.3513e-08
3.7698e-16
-1.46276e-09
-1.30158e-08
3.8045e-16
-1.45289e-09
-1.25217e-08
3.83785e-16
-1.44205e-09
-1.20312e-08
3.87011e-16
-1.43029e-09
-1.15445e-08
3.90075e-16
-1.41766e-09
-1.10619e-08
3.93031e-16
-1.40423e-09
-1.05836e-08
3.95661e-16
-1.39003e-09
-1.011e-08
3.98156e-16
-1.37513e-09
-9.64125e-09
4.00623e-16
-1.35957e-09
-9.17759e-09
4.02658e-16
-1.34338e-09
-8.71925e-09
4.04583e-16