/*--------------------------------*- C++ -*----------------------------------*\
  =========                 |
  \\      /  F ield         | OpenFOAM: The Open Source CFD Toolbox
   \\    /   O peration     | Website:  https://openfoam.org
    \\  /    A nd           | Version:  8
     \\/     M anipulation  |
\*---------------------------------------------------------------------------*/
FoamFile
{
    version     2.0;
    format      ascii;
    class       volScalarField;
    location    "3200";
    object      T;
}
// * * * * * * * * * * * * * * * * * * * * * * * * * * * * * * * * * * * * * //

dimensions      [0 0 0 1 0 0 0];

internalField   nonuniform List<scalar> 
46000
(
310.381
309.361
308.578
308.062
307.688
307.393
307.145
306.933
306.746
306.579
306.426
306.287
306.158
306.039
305.928
305.825
305.728
305.636
305.55
305.469
305.392
305.319
305.25
305.185
305.123
305.064
305.009
304.956
304.905
304.858
304.812
304.769
304.728
304.69
304.653
304.618
304.585
304.553
304.523
304.495
304.468
304.443
304.419
304.397
304.375
304.355
304.337
304.319
304.303
304.288
304.274
304.261
304.249
304.238
304.228
304.219
304.211
304.205
304.199
304.194
304.189
304.186
304.184
304.182
304.181
304.181
304.182
304.184
304.186
304.19
304.194
304.199
304.205
304.212
304.219
304.228
304.237
304.246
304.257
304.268
304.28
304.293
304.307
304.321
304.336
304.352
304.368
304.385
304.402
304.421
304.44
304.459
304.479
304.5
304.521
304.543
304.565
304.588
304.612
304.636
304.66
304.685
304.711
304.736
304.763
304.789
304.817
304.844
304.872
304.901
304.929
304.958
304.988
305.018
305.048
305.078
305.109
305.14
305.172
305.203
305.235
305.268
305.301
305.334
305.367
305.401
305.435
305.469
305.504
305.539
305.574
305.61
305.646
305.683
305.72
305.757
305.795
305.834
305.873
305.912
305.953
305.993
306.035
306.077
306.119
306.163
306.207
306.252
306.297
306.343
306.391
306.439
306.488
306.537
306.588
306.64
306.693
306.746
306.801
306.857
306.914
306.972
307.032
307.092
307.153
307.216
307.279
307.344
307.41
307.477
307.545
307.615
307.686
307.758
307.832
307.907
307.983
308.061
308.141
308.222
308.305
308.389
308.476
308.565
308.657
308.752
308.85
308.952
309.059
309.171
309.292
309.422
309.564
309.723
309.905
310.123
310.396
310.756
311.224
311.637
310.381
309.361
308.578
308.062
307.688
307.393
307.145
306.933
306.746
306.579
306.426
306.287
306.158
306.039
305.928
305.825
305.728
305.636
305.55
305.469
305.392
305.319
305.25
305.185
305.123
305.064
305.009
304.956
304.905
304.858
304.812
304.769
304.728
304.69
304.653
304.618
304.585
304.553
304.523
304.495
304.468
304.443
304.419
304.397
304.375
304.355
304.337
304.319
304.303
304.288
304.274
304.261
304.249
304.238
304.228
304.219
304.211
304.205
304.199
304.194
304.189
304.186
304.184
304.182
304.181
304.181
304.182
304.184
304.186
304.19
304.194
304.199
304.205
304.212
304.219
304.228
304.237
304.246
304.257
304.268
304.28
304.293
304.307
304.321
304.336
304.352
304.368
304.385
304.402
304.421
304.44
304.459
304.479
304.5
304.521
304.543
304.565
304.588
304.612
304.636
304.66
304.685
304.711
304.736
304.763
304.789
304.817
304.844
304.872
304.901
304.929
304.958
304.988
305.018
305.048
305.078
305.109
305.14
305.172
305.203
305.235
305.268
305.301
305.334
305.367
305.401
305.435
305.469
305.504
305.539
305.574
305.61
305.646
305.683
305.72
305.757
305.795
305.834
305.873
305.912
305.953
305.993
306.035
306.077
306.119
306.163
306.207
306.252
306.297
306.343
306.391
306.439
306.488
306.537
306.588
306.64
306.693
306.746
306.801
306.857
306.914
306.972
307.032
307.092
307.153
307.216
307.279
307.344
307.41
307.477
307.545
307.615
307.686
307.758
307.832
307.907
307.984
308.061
308.141
308.222
308.305
308.389
308.476
308.565
308.657
308.752
308.85
308.952
309.059
309.171
309.292
309.422
309.564
309.723
309.905
310.123
310.396
310.756
311.224
311.637
306.897
306.428
306.054
305.766
305.536
305.346
305.184
305.043
304.916
304.802
304.697
304.6
304.511
304.428
304.35
304.278
304.209
304.145
304.084
304.027
303.973
303.921
303.873
303.827
303.783
303.742
303.702
303.665
303.629
303.595
303.563
303.533
303.503
303.476
303.449
303.424
303.4
303.377
303.355
303.334
303.315
303.296
303.278
303.261
303.244
303.229
303.214
303.2
303.187
303.174
303.162
303.151
303.141
303.131
303.121
303.112
303.104
303.097
303.089
303.083
303.077
303.071
303.066
303.062
303.058
303.055
303.052
303.049
303.047
303.046
303.045
303.045
303.045
303.046
303.047
303.049
303.051
303.053
303.056
303.06
303.064
303.069
303.074
303.079
303.085
303.091
303.098
303.106
303.113
303.122
303.13
303.139
303.149
303.159
303.169
303.18
303.191
303.202
303.214
303.227
303.24
303.253
303.266
303.28
303.295
303.309
303.324
303.34
303.356
303.372
303.389
303.406
303.423
303.441
303.459
303.477
303.496
303.515
303.535
303.555
303.576
303.596
303.618
303.639
303.661
303.684
303.707
303.731
303.754
303.779
303.804
303.829
303.855
303.882
303.909
303.937
303.965
303.994
304.023
304.054
304.085
304.116
304.149
304.182
304.216
304.25
304.286
304.322
304.36
304.398
304.437
304.477
304.517
304.559
304.602
304.646
304.691
304.737
304.784
304.832
304.882
304.932
304.984
305.036
305.09
305.145
305.201
305.258
305.317
305.376
305.437
305.498
305.561
305.625
305.691
305.757
305.825
305.894
305.964
306.035
306.108
306.182
306.258
306.335
306.415
306.497
306.581
306.669
306.76
306.857
306.96
307.071
307.194
307.332
307.492
307.683
307.922
308.234
308.654
309.127
306.897
306.428
306.054
305.766
305.536
305.346
305.184
305.043
304.916
304.802
304.697
304.6
304.511
304.428
304.35
304.278
304.209
304.145
304.084
304.027
303.973
303.921
303.873
303.827
303.783
303.742
303.702
303.665
303.629
303.595
303.563
303.533
303.503
303.476
303.449
303.424
303.4
303.377
303.355
303.334
303.315
303.296
303.278
303.261
303.244
303.229
303.214
303.2
303.187
303.174
303.162
303.151
303.141
303.131
303.121
303.112
303.104
303.097
303.089
303.083
303.077
303.071
303.066
303.062
303.058
303.055
303.052
303.049
303.047
303.046
303.045
303.045
303.045
303.046
303.047
303.049
303.051
303.053
303.056
303.06
303.064
303.069
303.074
303.079
303.085
303.091
303.098
303.106
303.113
303.122
303.13
303.139
303.149
303.159
303.169
303.18
303.191
303.202
303.214
303.227
303.24
303.253
303.266
303.28
303.295
303.309
303.324
303.34
303.356
303.372
303.389
303.406
303.423
303.441
303.459
303.477
303.496
303.515
303.535
303.555
303.576
303.596
303.618
303.639
303.661
303.684
303.707
303.731
303.755
303.779
303.804
303.829
303.855
303.882
303.909
303.937
303.965
303.994
304.023
304.054
304.085
304.116
304.149
304.182
304.216
304.25
304.286
304.322
304.36
304.398
304.437
304.477
304.518
304.559
304.602
304.646
304.691
304.737
304.784
304.832
304.882
304.932
304.984
305.036
305.09
305.145
305.201
305.258
305.317
305.376
305.437
305.498
305.561
305.625
305.691
305.757
305.825
305.894
305.964
306.035
306.108
306.182
306.258
306.335
306.415
306.497
306.581
306.669
306.761
306.857
306.96
307.071
307.194
307.332
307.492
307.683
307.922
308.234
308.654
309.127
305.213
305.092
304.925
304.761
304.611
304.476
304.354
304.243
304.142
304.049
303.963
303.883
303.808
303.738
303.672
303.61
303.552
303.497
303.445
303.396
303.349
303.305
303.263
303.223
303.185
303.15
303.115
303.083
303.052
303.023
302.995
302.968
302.943
302.919
302.895
302.873
302.852
302.832
302.813
302.794
302.777
302.76
302.744
302.729
302.714
302.7
302.686
302.673
302.661
302.649
302.638
302.627
302.617
302.608
302.598
302.59
302.581
302.573
302.566
302.559
302.553
302.546
302.541
302.535
302.53
302.526
302.522
302.518
302.515
302.512
302.51
302.508
302.506
302.505
302.504
302.504
302.504
302.504
302.505
302.507
302.508
302.51
302.513
302.516
302.519
302.522
302.526
302.531
302.536
302.541
302.547
302.553
302.559
302.566
302.573
302.58
302.588
302.597
302.605
302.614
302.624
302.634
302.644
302.654
302.665
302.676
302.688
302.7
302.713
302.725
302.739
302.752
302.766
302.78
302.795
302.81
302.826
302.842
302.858
302.875
302.892
302.91
302.928
302.946
302.965
302.985
303.005
303.025
303.046
303.068
303.09
303.112
303.136
303.159
303.184
303.209
303.234
303.261
303.288
303.315
303.344
303.373
303.403
303.433
303.465
303.497
303.53
303.564
303.599
303.635
303.672
303.709
303.748
303.787
303.828
303.87
303.912
303.956
304.001
304.047
304.094
304.142
304.191
304.241
304.292
304.345
304.398
304.453
304.508
304.565
304.623
304.682
304.741
304.802
304.864
304.927
304.991
305.056
305.122
305.189
305.257
305.326
305.396
305.468
305.541
305.616
305.693
305.772
305.854
305.94
306.03
306.126
306.23
306.344
306.471
306.616
306.784
306.981
307.214
307.461
305.213
305.092
304.925
304.761
304.611
304.476
304.354
304.243
304.142
304.049
303.963
303.883
303.808
303.738
303.672
303.61
303.552
303.497
303.445
303.396
303.349
303.305
303.263
303.223
303.185
303.15
303.115
303.083
303.052
303.023
302.995
302.968
302.943
302.919
302.895
302.873
302.852
302.832
302.813
302.794
302.777
302.76
302.744
302.729
302.714
302.7
302.686
302.673
302.661
302.649
302.638
302.627
302.617
302.608
302.598
302.59
302.581
302.573
302.566
302.559
302.553
302.546
302.541
302.535
302.53
302.526
302.522
302.518
302.515
302.512
302.51
302.508
302.506
302.505
302.504
302.504
302.504
302.504
302.505
302.507
302.508
302.51
302.513
302.516
302.519
302.522
302.526
302.531
302.536
302.541
302.547
302.553
302.559
302.566
302.573
302.58
302.588
302.597
302.605
302.614
302.624
302.634
302.644
302.654
302.665
302.676
302.688
302.7
302.713
302.725
302.739
302.752
302.766
302.78
302.795
302.81
302.826
302.842
302.858
302.875
302.892
302.91
302.928
302.946
302.965
302.985
303.005
303.025
303.046
303.068
303.09
303.112
303.136
303.159
303.184
303.209
303.234
303.261
303.288
303.315
303.344
303.373
303.403
303.433
303.465
303.497
303.53
303.564
303.599
303.635
303.672
303.709
303.748
303.787
303.828
303.87
303.912
303.956
304.001
304.047
304.094
304.142
304.191
304.241
304.292
304.345
304.398
304.453
304.508
304.565
304.623
304.682
304.741
304.802
304.864
304.927
304.991
305.056
305.122
305.189
305.257
305.326
305.396
305.468
305.541
305.616
305.693
305.772
305.854
305.94
306.03
306.126
306.23
306.344
306.471
306.616
306.784
306.981
307.214
307.461
304.312
304.292
304.216
304.121
304.02
303.921
303.827
303.739
303.655
303.577
303.503
303.434
303.369
303.307
303.249
303.194
303.141
303.092
303.045
303.001
302.959
302.919
302.881
302.845
302.81
302.778
302.746
302.717
302.689
302.662
302.636
302.612
302.588
302.566
302.545
302.524
302.505
302.486
302.468
302.451
302.435
302.419
302.404
302.389
302.376
302.362
302.35
302.337
302.325
302.314
302.303
302.293
302.283
302.274
302.264
302.256
302.247
302.24
302.232
302.225
302.218
302.212
302.205
302.2
302.194
302.189
302.185
302.181
302.177
302.173
302.17
302.167
302.165
302.163
302.161
302.16
302.159
302.158
302.158
302.158
302.158
302.159
302.16
302.162
302.164
302.166
302.169
302.172
302.176
302.179
302.184
302.188
302.193
302.198
302.204
302.21
302.216
302.223
302.23
302.238
302.245
302.254
302.262
302.271
302.28
302.29
302.3
302.31
302.321
302.332
302.344
302.356
302.368
302.381
302.394
302.408
302.422
302.436
302.451
302.466
302.482
302.498
302.515
302.532
302.549
302.567
302.586
302.605
302.624
302.644
302.665
302.686
302.708
302.731
302.754
302.777
302.802
302.827
302.852
302.879
302.906
302.934
302.963
302.992
303.022
303.054
303.086
303.118
303.152
303.187
303.222
303.259
303.296
303.335
303.374
303.415
303.456
303.499
303.542
303.587
303.633
303.679
303.727
303.776
303.826
303.877
303.929
303.982
304.036
304.091
304.147
304.204
304.262
304.321
304.381
304.441
304.503
304.565
304.628
304.693
304.758
304.823
304.89
304.958
305.027
305.097
305.168
305.241
305.316
305.393
305.474
305.558
305.647
305.741
305.842
305.951
306.066
306.187
306.306
306.41
304.312
304.292
304.216
304.121
304.02
303.921
303.827
303.739
303.655
303.577
303.503
303.434
303.369
303.307
303.249
303.194
303.141
303.092
303.045
303.001
302.959
302.919
302.881
302.845
302.81
302.778
302.746
302.717
302.689
302.662
302.636
302.612
302.588
302.566
302.545
302.524
302.505
302.486
302.468
302.451
302.435
302.419
302.404
302.389
302.376
302.362
302.35
302.337
302.325
302.314
302.303
302.293
302.283
302.274
302.264
302.256
302.247
302.24
302.232
302.225
302.218
302.212
302.206
302.2
302.194
302.189
302.185
302.181
302.177
302.173
302.17
302.167
302.165
302.163
302.161
302.16
302.159
302.158
302.158
302.158
302.158
302.159
302.161
302.162
302.164
302.166
302.169
302.172
302.176
302.179
302.184
302.188
302.193
302.198
302.204
302.21
302.216
302.223
302.23
302.238
302.245
302.254
302.262
302.271
302.28
302.29
302.3
302.31
302.321
302.332
302.344
302.356
302.368
302.381
302.394
302.408
302.422
302.436
302.451
302.466
302.482
302.498
302.515
302.532
302.549
302.567
302.586
302.605
302.624
302.644
302.665
302.686
302.708
302.731
302.754
302.777
302.802
302.827
302.852
302.879
302.906
302.934
302.963
302.992
303.022
303.054
303.086
303.118
303.152
303.187
303.222
303.259
303.296
303.335
303.374
303.415
303.456
303.499
303.542
303.587
303.633
303.679
303.727
303.776
303.826
303.877
303.929
303.982
304.036
304.091
304.147
304.204
304.262
304.321
304.381
304.441
304.503
304.565
304.628
304.693
304.758
304.823
304.89
304.958
305.027
305.097
305.168
305.241
305.316
305.394
305.474
305.558
305.647
305.741
305.842
305.951
306.066
306.187
306.306
306.41
303.737
303.741
303.704
303.645
303.577
303.504
303.431
303.359
303.29
303.223
303.16
303.099
303.041
302.986
302.934
302.884
302.837
302.792
302.749
302.709
302.67
302.633
302.598
302.564
302.533
302.502
302.473
302.446
302.42
302.394
302.37
302.348
302.326
302.305
302.285
302.266
302.247
302.23
302.213
302.196
302.181
302.166
302.152
302.138
302.125
302.112
302.099
302.088
302.076
302.065
302.055
302.045
302.035
302.025
302.016
302.008
302
301.992
301.984
301.977
301.97
301.963
301.957
301.951
301.945
301.94
301.935
301.93
301.926
301.922
301.919
301.915
301.912
301.91
301.907
301.905
301.904
301.903
301.902
301.901
301.901
301.901
301.902
301.902
301.904
301.905
301.907
301.909
301.912
301.915
301.918
301.922
301.925
301.93
301.935
301.94
301.945
301.951
301.957
301.963
301.97
301.977
301.985
301.993
302.001
302.01
302.019
302.028
302.038
302.048
302.059
302.07
302.081
302.093
302.105
302.118
302.131
302.144
302.158
302.172
302.187
302.202
302.218
302.234
302.251
302.268
302.285
302.304
302.322
302.342
302.361
302.382
302.403
302.424
302.446
302.469
302.493
302.517
302.542
302.568
302.594
302.621
302.649
302.678
302.707
302.738
302.769
302.801
302.834
302.868
302.902
302.938
302.975
303.013
303.051
303.091
303.131
303.173
303.216
303.26
303.304
303.35
303.397
303.445
303.494
303.544
303.594
303.646
303.699
303.753
303.808
303.863
303.92
303.977
304.035
304.094
304.153
304.214
304.275
304.337
304.399
304.462
304.526
304.59
304.655
304.721
304.788
304.855
304.924
304.995
305.066
305.14
305.216
305.294
305.374
305.455
305.535
305.609
305.67
305.71
303.737
303.741
303.704
303.645
303.577
303.504
303.431
303.359
303.29
303.223
303.16
303.099
303.041
302.986
302.934
302.884
302.837
302.792
302.749
302.708
302.67
302.633
302.598
302.564
302.533
302.502
302.473
302.446
302.42
302.394
302.37
302.348
302.326
302.305
302.285
302.266
302.247
302.23
302.213
302.196
302.181
302.166
302.152
302.138
302.125
302.112
302.099
302.088
302.076
302.065
302.055
302.045
302.035
302.025
302.016
302.008
302
301.992
301.984
301.977
301.97
301.963
301.957
301.951
301.945
301.94
301.935
301.93
301.926
301.922
301.919
301.915
301.912
301.91
301.907
301.905
301.904
301.903
301.902
301.901
301.901
301.901
301.902
301.902
301.904
301.905
301.907
301.909
301.912
301.915
301.918
301.922
301.925
301.93
301.935
301.94
301.945
301.951
301.957
301.963
301.97
301.977
301.985
301.993
302.001
302.01
302.019
302.028
302.038
302.048
302.059
302.07
302.081
302.093
302.105
302.118
302.131
302.144
302.158
302.172
302.187
302.202
302.218
302.234
302.251
302.268
302.285
302.304
302.322
302.342
302.361
302.382
302.403
302.424
302.446
302.469
302.493
302.517
302.542
302.568
302.594
302.621
302.649
302.678
302.707
302.738
302.769
302.801
302.834
302.868
302.902
302.938
302.975
303.013
303.051
303.091
303.131
303.173
303.216
303.26
303.304
303.35
303.397
303.445
303.494
303.544
303.594
303.646
303.699
303.753
303.808
303.863
303.92
303.977
304.035
304.094
304.153
304.214
304.275
304.337
304.399
304.462
304.526
304.59
304.655
304.721
304.788
304.855
304.924
304.995
305.066
305.14
305.216
305.294
305.374
305.455
305.535
305.609
305.67
305.71
303.319
303.327
303.307
303.269
303.22
303.165
303.107
303.049
302.991
302.934
302.879
302.826
302.774
302.725
302.678
302.633
302.59
302.549
302.509
302.472
302.436
302.402
302.369
302.338
302.308
302.28
302.253
302.227
302.202
302.179
302.156
302.134
302.114
302.094
302.075
302.057
302.039
302.022
302.006
301.991
301.976
301.962
301.948
301.935
301.922
301.909
301.898
301.886
301.875
301.864
301.854
301.844
301.835
301.825
301.816
301.808
301.8
301.792
301.784
301.777
301.77
301.763
301.757
301.75
301.745
301.739
301.734
301.729
301.725
301.72
301.716
301.713
301.709
301.706
301.704
301.701
301.699
301.698
301.696
301.695
301.694
301.694
301.694
301.694
301.695
301.696
301.697
301.699
301.701
301.703
301.706
301.709
301.712
301.716
301.72
301.724
301.729
301.734
301.739
301.745
301.751
301.758
301.765
301.772
301.779
301.787
301.796
301.804
301.814
301.823
301.833
301.843
301.854
301.865
301.876
301.888
301.901
301.913
301.926
301.94
301.954
301.969
301.984
301.999
302.015
302.032
302.049
302.066
302.084
302.103
302.122
302.142
302.162
302.183
302.205
302.227
302.25
302.273
302.298
302.323
302.349
302.375
302.402
302.431
302.459
302.489
302.52
302.551
302.584
302.617
302.651
302.686
302.722
302.759
302.797
302.836
302.876
302.917
302.959
303.002
303.046
303.091
303.137
303.184
303.232
303.281
303.331
303.382
303.434
303.486
303.54
303.594
303.649
303.705
303.762
303.819
303.877
303.935
303.994
304.054
304.114
304.174
304.235
304.296
304.358
304.42
304.483
304.546
304.609
304.673
304.737
304.802
304.867
304.932
304.996
305.057
305.113
305.16
305.192
305.205
303.319
303.327
303.307
303.269
303.22
303.165
303.107
303.049
302.991
302.934
302.879
302.826
302.774
302.725
302.678
302.633
302.59
302.549
302.509
302.472
302.436
302.402
302.369
302.338
302.308
302.28
302.253
302.227
302.202
302.179
302.156
302.134
302.114
302.094
302.075
302.057
302.039
302.022
302.006
301.991
301.976
301.962
301.948
301.935
301.922
301.909
301.898
301.886
301.875
301.864
301.854
301.844
301.835
301.825
301.816
301.808
301.8
301.792
301.784
301.777
301.77
301.763
301.757
301.75
301.745
301.739
301.734
301.729
301.725
301.72
301.716
301.713
301.709
301.706
301.704
301.701
301.699
301.698
301.696
301.695
301.694
301.694
301.694
301.694
301.695
301.696
301.697
301.699
301.701
301.703
301.706
301.709
301.712
301.716
301.72
301.724
301.729
301.734
301.739
301.745
301.751
301.758
301.765
301.772
301.779
301.787
301.796
301.804
301.814
301.823
301.833
301.843
301.854
301.865
301.876
301.888
301.901
301.913
301.926
301.94
301.954
301.969
301.984
301.999
302.015
302.032
302.049
302.066
302.084
302.103
302.122
302.142
302.162
302.183
302.205
302.227
302.25
302.273
302.298
302.323
302.349
302.375
302.402
302.431
302.459
302.489
302.52
302.551
302.584
302.617
302.651
302.686
302.722
302.759
302.797
302.836
302.876
302.917
302.959
303.002
303.046
303.091
303.137
303.184
303.232
303.281
303.331
303.382
303.434
303.486
303.54
303.594
303.649
303.705
303.762
303.819
303.877
303.935
303.994
304.054
304.114
304.174
304.235
304.296
304.358
304.42
304.483
304.546
304.609
304.673
304.737
304.802
304.867
304.932
304.996
305.057
305.113
305.16
305.192
305.205
302.989
302.996
302.983
302.957
302.92
302.878
302.832
302.784
302.735
302.686
302.638
302.591
302.546
302.502
302.459
302.418
302.379
302.341
302.304
302.27
302.236
302.205
302.174
302.145
302.117
302.09
302.065
302.041
302.017
301.995
301.973
301.953
301.933
301.914
301.896
301.879
301.862
301.846
301.831
301.816
301.802
301.788
301.775
301.762
301.749
301.737
301.726
301.715
301.704
301.694
301.683
301.674
301.664
301.655
301.646
301.638
301.63
301.622
301.614
301.607
301.6
301.593
301.587
301.58
301.574
301.569
301.563
301.558
301.554
301.549
301.545
301.541
301.537
301.534
301.531
301.528
301.526
301.524
301.522
301.521
301.52
301.519
301.518
301.518
301.518
301.519
301.52
301.521
301.522
301.524
301.526
301.529
301.532
301.535
301.539
301.542
301.547
301.551
301.556
301.561
301.567
301.573
301.579
301.586
301.593
301.6
301.608
301.616
301.625
301.634
301.643
301.653
301.663
301.674
301.685
301.696
301.708
301.72
301.733
301.746
301.759
301.773
301.788
301.803
301.818
301.834
301.85
301.867
301.885
301.903
301.922
301.941
301.961
301.981
302.003
302.024
302.047
302.07
302.094
302.118
302.144
302.17
302.197
302.224
302.253
302.282
302.312
302.343
302.375
302.408
302.441
302.476
302.511
302.548
302.585
302.624
302.663
302.704
302.745
302.787
302.831
302.875
302.92
302.966
303.013
303.062
303.111
303.161
303.211
303.263
303.315
303.368
303.422
303.477
303.532
303.588
303.644
303.701
303.758
303.815
303.873
303.931
303.99
304.048
304.107
304.165
304.224
304.282
304.341
304.399
304.456
304.513
304.569
304.624
304.676
304.723
304.764
304.795
304.813
304.814
302.989
302.996
302.983
302.957
302.92
302.878
302.832
302.784
302.735
302.686
302.638
302.591
302.546
302.502
302.459
302.418
302.379
302.341
302.304
302.27
302.236
302.205
302.174
302.145
302.117
302.09
302.065
302.041
302.017
301.995
301.973
301.953
301.933
301.914
301.896
301.879
301.862
301.846
301.831
301.816
301.802
301.788
301.775
301.762
301.749
301.737
301.726
301.715
301.704
301.694
301.683
301.674
301.664
301.655
301.646
301.638
301.63
301.622
301.614
301.607
301.6
301.593
301.587
301.58
301.574
301.569
301.563
301.558
301.554
301.549
301.545
301.541
301.537
301.534
301.531
301.528
301.526
301.524
301.522
301.521
301.52
301.519
301.518
301.518
301.518
301.519
301.52
301.521
301.522
301.524
301.526
301.529
301.532
301.535
301.539
301.542
301.547
301.551
301.556
301.561
301.567
301.573
301.579
301.586
301.593
301.6
301.608
301.616
301.625
301.634
301.643
301.653
301.663
301.674
301.685
301.696
301.708
301.72
301.733
301.746
301.759
301.773
301.788
301.803
301.818
301.834
301.85
301.867
301.885
301.903
301.922
301.941
301.961
301.981
302.003
302.024
302.047
302.07
302.094
302.118
302.144
302.17
302.197
302.224
302.253
302.282
302.312
302.343
302.375
302.408
302.441
302.476
302.511
302.548
302.585
302.624
302.663
302.704
302.745
302.787
302.831
302.875
302.92
302.966
303.013
303.062
303.111
303.161
303.211
303.263
303.315
303.368
303.422
303.477
303.532
303.588
303.644
303.701
303.758
303.815
303.873
303.931
303.99
304.048
304.107
304.165
304.224
304.282
304.341
304.399
304.456
304.513
304.569
304.624
304.676
304.723
304.764
304.795
304.813
304.814
302.716
302.72
302.711
302.69
302.662
302.629
302.591
302.551
302.509
302.467
302.425
302.384
302.343
302.304
302.265
302.228
302.191
302.157
302.123
302.091
302.06
302.03
302.002
301.974
301.948
301.923
301.899
301.876
301.854
301.833
301.812
301.793
301.774
301.756
301.739
301.722
301.706
301.691
301.676
301.662
301.648
301.635
301.622
301.61
301.598
301.586
301.575
301.564
301.553
301.543
301.533
301.524
301.515
301.506
301.497
301.489
301.48
301.472
301.465
301.458
301.45
301.444
301.437
301.431
301.425
301.419
301.414
301.408
301.403
301.399
301.394
301.39
301.387
301.383
301.38
301.377
301.374
301.372
301.37
301.368
301.367
301.366
301.365
301.364
301.364
301.364
301.365
301.366
301.367
301.368
301.37
301.372
301.374
301.377
301.38
301.384
301.388
301.392
301.396
301.401
301.406
301.412
301.418
301.424
301.43
301.437
301.445
301.453
301.461
301.469
301.478
301.487
301.497
301.507
301.518
301.529
301.54
301.552
301.564
301.576
301.59
301.603
301.617
301.632
301.647
301.662
301.678
301.695
301.712
301.73
301.748
301.767
301.786
301.807
301.827
301.849
301.871
301.894
301.917
301.941
301.966
301.992
302.018
302.045
302.073
302.102
302.132
302.162
302.194
302.226
302.259
302.294
302.329
302.365
302.402
302.439
302.478
302.518
302.559
302.601
302.643
302.687
302.732
302.777
302.823
302.871
302.919
302.968
303.018
303.068
303.12
303.172
303.224
303.278
303.332
303.386
303.441
303.496
303.551
303.607
303.662
303.718
303.774
303.83
303.886
303.941
303.996
304.05
304.104
304.157
304.209
304.26
304.309
304.355
304.397
304.435
304.466
304.488
304.499
304.496
302.716
302.72
302.711
302.69
302.662
302.629
302.591
302.551
302.509
302.467
302.425
302.384
302.343
302.304
302.265
302.228
302.191
302.157
302.123
302.091
302.06
302.03
302.002
301.974
301.948
301.923
301.899
301.876
301.854
301.833
301.812
301.793
301.774
301.756
301.739
301.722
301.706
301.691
301.676
301.662
301.648
301.635
301.622
301.61
301.598
301.586
301.575
301.564
301.553
301.543
301.533
301.524
301.515
301.506
301.497
301.489
301.48
301.472
301.465
301.458
301.45
301.444
301.437
301.431
301.425
301.419
301.414
301.408
301.403
301.399
301.394
301.39
301.387
301.383
301.38
301.377
301.374
301.372
301.37
301.368
301.367
301.366
301.365
301.364
301.364
301.364
301.365
301.366
301.367
301.368
301.37
301.372
301.374
301.377
301.38
301.384
301.388
301.392
301.396
301.401
301.406
301.412
301.418
301.424
301.43
301.437
301.445
301.453
301.461
301.469
301.478
301.487
301.497
301.507
301.518
301.529
301.54
301.552
301.564
301.576
301.59
301.603
301.617
301.632
301.647
301.662
301.678
301.695
301.712
301.73
301.748
301.767
301.786
301.807
301.827
301.849
301.871
301.893
301.917
301.941
301.966
301.992
302.018
302.045
302.073
302.102
302.132
302.162
302.194
302.226
302.259
302.294
302.329
302.365
302.402
302.439
302.478
302.518
302.559
302.601
302.643
302.687
302.732
302.777
302.823
302.871
302.919
302.968
303.018
303.068
303.12
303.172
303.224
303.278
303.332
303.386
303.441
303.496
303.551
303.607
303.662
303.718
303.774
303.83
303.886
303.941
303.996
304.05
304.104
304.157
304.209
304.26
304.309
304.355
304.397
304.435
304.466
304.488
304.499
304.496
302.48
302.482
302.474
302.458
302.435
302.407
302.376
302.342
302.307
302.27
302.233
302.196
302.16
302.124
302.089
302.055
302.022
301.99
301.959
301.929
301.9
301.872
301.846
301.82
301.796
301.772
301.749
301.727
301.706
301.686
301.667
301.648
301.631
301.613
301.597
301.581
301.566
301.551
301.537
301.523
301.51
301.497
301.484
301.472
301.461
301.45
301.439
301.428
301.418
301.408
301.398
301.389
301.38
301.371
301.362
301.354
301.346
301.338
301.33
301.323
301.316
301.309
301.303
301.296
301.29
301.284
301.279
301.273
301.268
301.264
301.259
301.255
301.251
301.247
301.244
301.241
301.238
301.235
301.233
301.231
301.229
301.228
301.227
301.226
301.226
301.225
301.226
301.226
301.227
301.228
301.229
301.231
301.233
301.236
301.238
301.242
301.245
301.249
301.253
301.257
301.262
301.267
301.273
301.279
301.285
301.292
301.299
301.306
301.314
301.322
301.33
301.339
301.349
301.358
301.368
301.379
301.39
301.401
301.413
301.425
301.438
301.451
301.465
301.479
301.494
301.509
301.525
301.541
301.558
301.575
301.593
301.612
301.631
301.651
301.671
301.692
301.714
301.736
301.759
301.783
301.808
301.833
301.859
301.886
301.914
301.942
301.971
302.001
302.032
302.064
302.097
302.131
302.166
302.201
302.238
302.275
302.313
302.353
302.393
302.434
302.476
302.519
302.563
302.608
302.654
302.7
302.748
302.796
302.845
302.895
302.945
302.996
303.047
303.099
303.152
303.205
303.258
303.312
303.365
303.419
303.473
303.527
303.58
303.634
303.687
303.739
303.791
303.842
303.891
303.94
303.987
304.033
304.075
304.115
304.151
304.182
304.207
304.223
304.23
304.226
302.48
302.482
302.474
302.458
302.435
302.407
302.376
302.342
302.307
302.27
302.233
302.196
302.16
302.124
302.089
302.055
302.022
301.99
301.959
301.929
301.9
301.872
301.846
301.82
301.796
301.772
301.749
301.727
301.706
301.686
301.667
301.648
301.631
301.613
301.597
301.581
301.566
301.551
301.537
301.523
301.51
301.497
301.484
301.472
301.461
301.45
301.439
301.428
301.418
301.408
301.398
301.389
301.38
301.371
301.362
301.354
301.346
301.338
301.33
301.323
301.316
301.309
301.303
301.296
301.29
301.284
301.279
301.273
301.268
301.264
301.259
301.255
301.251
301.247
301.244
301.241
301.238
301.235
301.233
301.231
301.229
301.228
301.227
301.226
301.226
301.225
301.226
301.226
301.227
301.228
301.229
301.231
301.233
301.236
301.238
301.242
301.245
301.249
301.253
301.257
301.262
301.267
301.273
301.279
301.285
301.292
301.299
301.306
301.314
301.322
301.33
301.339
301.349
301.358
301.368
301.379
301.39
301.401
301.413
301.425
301.438
301.451
301.465
301.479
301.494
301.509
301.525
301.541
301.558
301.575
301.593
301.612
301.631
301.651
301.671
301.692
301.714
301.736
301.759
301.783
301.808
301.833
301.859
301.886
301.913
301.942
301.971
302.001
302.032
302.064
302.097
302.131
302.166
302.201
302.238
302.275
302.313
302.353
302.393
302.434
302.476
302.519
302.563
302.608
302.654
302.7
302.748
302.796
302.845
302.895
302.945
302.996
303.047
303.099
303.152
303.205
303.258
303.312
303.365
303.419
303.473
303.527
303.58
303.634
303.687
303.739
303.791
303.842
303.891
303.94
303.987
304.033
304.075
304.115
304.151
304.182
304.206
304.223
304.23
304.226
302.272
302.272
302.265
302.251
302.232
302.208
302.182
302.153
302.122
302.09
302.057
302.024
301.992
301.959
301.928
301.896
301.866
301.836
301.808
301.78
301.753
301.727
301.702
301.678
301.655
301.633
301.611
301.591
301.571
301.552
301.533
301.516
301.498
301.482
301.466
301.451
301.436
301.422
301.408
301.395
301.382
301.37
301.358
301.346
301.335
301.324
301.313
301.303
301.293
301.283
301.274
301.265
301.256
301.247
301.239
301.23
301.222
301.215
301.207
301.2
301.193
301.186
301.179
301.173
301.167
301.161
301.155
301.15
301.145
301.14
301.135
301.131
301.127
301.123
301.119
301.116
301.113
301.11
301.108
301.105
301.103
301.102
301.101
301.1
301.099
301.098
301.098
301.099
301.099
301.1
301.101
301.102
301.104
301.106
301.109
301.112
301.115
301.118
301.122
301.126
301.131
301.136
301.141
301.146
301.152
301.159
301.165