/*--------------------------------*- C++ -*----------------------------------*\
  =========                 |
  \\      /  F ield         | OpenFOAM: The Open Source CFD Toolbox
   \\    /   O peration     | Website:  https://openfoam.org
    \\  /    A nd           | Version:  8
     \\/     M anipulation  |
\*---------------------------------------------------------------------------*/
FoamFile
{
    version     2.0;
    format      ascii;
    class       volVectorField;
    location    "3200";
    object      U;
}
// * * * * * * * * * * * * * * * * * * * * * * * * * * * * * * * * * * * * * //

dimensions      [0 1 -1 0 0 0 0];

internalField   nonuniform List<vector> 
46000
(
(0.00130465 5.95043e-07 -0.00134056)
(0.00673624 1.93199e-07 -0.00384814)
(0.0125914 1.34248e-07 -0.00383712)
(0.0167246 1.08965e-07 -0.00248509)
(0.0187141 1.01712e-07 -0.000993871)
(0.0187803 9.78896e-08 0.000316271)
(0.0172352 9.37983e-08 0.0013801)
(0.0144098 9.00166e-08 0.00221217)
(0.0105779 8.75135e-08 0.0028548)
(0.00596556 8.58715e-08 0.00334948)
(0.000745388 8.39536e-08 0.00372504)
(-0.00494567 8.1186e-08 0.0040002)
(-0.010979 7.82797e-08 0.00419791)
(-0.0172816 7.55858e-08 0.00434047)
(-0.0237805 7.29126e-08 0.00443995)
(-0.0304223 7.03334e-08 0.00450537)
(-0.0371631 6.80636e-08 0.00454358)
(-0.043967 6.61612e-08 0.00455986)
(-0.0508045 6.45972e-08 0.0045583)
(-0.0576507 6.32542e-08 0.00454204)
(-0.0644848 6.20515e-08 0.00451357)
(-0.0712891 6.08586e-08 0.00447481)
(-0.078048 5.96068e-08 0.00442727)
(-0.0847479 5.82543e-08 0.00437214)
(-0.0913768 5.6786e-08 0.00431036)
(-0.0979237 5.52086e-08 0.00424268)
(-0.104379 5.35504e-08 0.00416968)
(-0.110733 5.18532e-08 0.00409184)
(-0.116978 5.0152e-08 0.00400956)
(-0.123105 4.8475e-08 0.00392313)
(-0.129108 4.68257e-08 0.00383283)
(-0.134978 4.52372e-08 0.00373888)
(-0.14071 4.37094e-08 0.00364148)
(-0.146296 4.22391e-08 0.0035408)
(-0.151731 4.08361e-08 0.003437)
(-0.157008 3.95104e-08 0.00333024)
(-0.162122 3.8252e-08 0.00322067)
(-0.167068 3.7064e-08 0.00310844)
(-0.171841 3.59498e-08 0.0029937)
(-0.176435 3.49078e-08 0.0028766)
(-0.180846 3.3936e-08 0.00275732)
(-0.18507 3.3028e-08 0.00263601)
(-0.189103 3.21836e-08 0.00251284)
(-0.192942 3.13945e-08 0.002388)
(-0.196582 3.06556e-08 0.00226166)
(-0.200022 2.99653e-08 0.00213401)
(-0.203259 2.93068e-08 0.00200526)
(-0.20629 2.86777e-08 0.00187559)
(-0.209113 2.80654e-08 0.0017452)
(-0.211728 2.74666e-08 0.0016143)
(-0.214133 2.68763e-08 0.0014831)
(-0.216327 2.62854e-08 0.0013518)
(-0.21831 2.56953e-08 0.00122061)
(-0.220082 2.51113e-08 0.00108973)
(-0.221644 2.4539e-08 0.000959373)
(-0.222995 2.39793e-08 0.000829739)
(-0.224139 2.34489e-08 0.000701032)
(-0.225075 2.29377e-08 0.000573449)
(-0.225806 2.2475e-08 0.000447177)
(-0.226333 2.20406e-08 0.000322363)
(-0.226661 2.1653e-08 0.000199091)
(-0.226791 2.12879e-08 7.73837e-05)
(-0.226726 2.09903e-08 -4.23249e-05)
(-0.22647 2.07611e-08 -0.000159618)
(-0.226027 2.0547e-08 -0.000274544)
(-0.225401 2.03579e-08 -0.000387095)
(-0.224595 2.01922e-08 -0.000497158)
(-0.223614 2.00531e-08 -0.000604599)
(-0.222462 1.99333e-08 -0.000709289)
(-0.221145 1.98261e-08 -0.000811113)
(-0.219667 1.97522e-08 -0.000909967)
(-0.218033 1.96825e-08 -0.00100576)
(-0.216249 1.96361e-08 -0.00109842)
(-0.21432 1.96149e-08 -0.00118786)
(-0.212252 1.9617e-08 -0.00127402)
(-0.21005 1.96408e-08 -0.00135686)
(-0.20772 1.96879e-08 -0.00143632)
(-0.205268 1.97635e-08 -0.00151237)
(-0.202699 1.98591e-08 -0.00158498)
(-0.20002 1.99814e-08 -0.00165413)
(-0.197236 2.01237e-08 -0.00171979)
(-0.194353 2.02961e-08 -0.00178198)
(-0.191377 2.04853e-08 -0.00184067)
(-0.188314 2.06928e-08 -0.00189589)
(-0.185169 2.09171e-08 -0.00194765)
(-0.181949 2.11597e-08 -0.00199596)
(-0.178659 2.14208e-08 -0.00204085)
(-0.175304 2.16819e-08 -0.00208235)
(-0.171891 2.19664e-08 -0.0021205)
(-0.168425 2.22594e-08 -0.00215535)
(-0.164911 2.25624e-08 -0.00218693)
(-0.161354 2.28789e-08 -0.00221531)
(-0.157759 2.32004e-08 -0.00224055)
(-0.154132 2.35287e-08 -0.00226269)
(-0.150478 2.38637e-08 -0.00228182)
(-0.146801 2.42038e-08 -0.002298)
(-0.143106 2.45507e-08 -0.00231131)
(-0.139397 2.4901e-08 -0.00232181)
(-0.135679 2.52514e-08 -0.00232961)
(-0.131956 2.56036e-08 -0.00233477)
(-0.128232 2.59575e-08 -0.00233738)
(-0.124511 2.63149e-08 -0.00233754)
(-0.120796 2.66673e-08 -0.00233533)
(-0.117092 2.70282e-08 -0.00233084)
(-0.113401 2.73708e-08 -0.00232418)
(-0.109727 2.77269e-08 -0.00231542)
(-0.106073 2.8073e-08 -0.00230468)
(-0.102442 2.8416e-08 -0.00229204)
(-0.0988363 2.87573e-08 -0.00227761)
(-0.095259 2.90987e-08 -0.00226146)
(-0.0917122 2.94302e-08 -0.00224371)
(-0.0881984 2.97685e-08 -0.00222445)
(-0.0847196 3.01052e-08 -0.00220376)
(-0.0812778 3.04386e-08 -0.00218174)
(-0.0778749 3.07555e-08 -0.00215847)
(-0.0745126 3.10841e-08 -0.00213404)
(-0.0711923 3.14012e-08 -0.00210853)
(-0.0679157 3.17383e-08 -0.00208203)
(-0.064684 3.20556e-08 -0.00205459)
(-0.0614984 3.23796e-08 -0.00202631)
(-0.0583601 3.27087e-08 -0.00199723)
(-0.05527 3.30429e-08 -0.00196743)
(-0.052229 3.33739e-08 -0.00193696)
(-0.0492381 3.3715e-08 -0.00190586)
(-0.046298 3.40629e-08 -0.00187418)
(-0.0434093 3.44444e-08 -0.00184196)
(-0.0405729 3.48293e-08 -0.00180923)
(-0.0377892 3.52344e-08 -0.00177601)
(-0.035059 3.56597e-08 -0.00174232)
(-0.0323828 3.61086e-08 -0.00170817)
(-0.0297612 3.6581e-08 -0.00167355)
(-0.0271947 3.70903e-08 -0.00163847)
(-0.0246841 3.76266e-08 -0.00160291)
(-0.0222298 3.82032e-08 -0.00156685)
(-0.0198327 3.88068e-08 -0.00153026)
(-0.0174934 3.94709e-08 -0.00149311)
(-0.0152127 4.01786e-08 -0.00145535)
(-0.0129915 4.09368e-08 -0.00141694)
(-0.0108308 4.17455e-08 -0.00137782)
(-0.00873147 4.26081e-08 -0.00133794)
(-0.00669471 4.35379e-08 -0.00129723)
(-0.00472177 4.45283e-08 -0.00125563)
(-0.00281368 4.55458e-08 -0.00121333)
(-0.000972254 4.66207e-08 -0.00117063)
(0.000803806 4.74747e-08 -0.00112596)
(0.00250835 4.83157e-08 -0.00107898)
(0.00414208 4.94084e-08 -0.00103076)
(0.00570208 5.06155e-08 -0.000981336)
(0.00718652 5.19638e-08 -0.00093066)
(0.00859326 5.34301e-08 -0.00087868)
(0.00992009 5.50176e-08 -0.000825345)
(0.0111647 5.67231e-08 -0.000770609)
(0.0123248 5.85803e-08 -0.000714439)
(0.0133979 6.05724e-08 -0.000656812)
(0.0143816 6.27264e-08 -0.000597721)
(0.0152734 6.50255e-08 -0.000537172)
(0.0160707 6.74767e-08 -0.000475191)
(0.0167713 7.01068e-08 -0.000411823)
(0.0173726 7.28925e-08 -0.000347133)
(0.0178724 7.58473e-08 -0.000281211)
(0.0182687 7.89915e-08 -0.000214177)
(0.0185593 8.23185e-08 -0.000146182)
(0.0187427 8.58183e-08 -7.7415e-05)
(0.0188173 8.94037e-08 -8.07667e-06)
(0.0187822 9.32891e-08 6.17049e-05)
(0.0186362 9.7483e-08 0.000131724)
(0.0183787 1.018e-07 0.000201659)
(0.0180099 1.06277e-07 0.000271197)
(0.0175299 1.10945e-07 0.000339978)
(0.0169399 1.15827e-07 0.000407604)
(0.0162415 1.20873e-07 0.000473636)
(0.0154369 1.26177e-07 0.000537596)
(0.0145294 1.31649e-07 0.000598964)
(0.0135227 1.37336e-07 0.000657169)
(0.0124218 1.43229e-07 0.000711593)
(0.0112325 1.49354e-07 0.00076156)
(0.00996172 1.55657e-07 0.000806335)
(0.00861768 1.62194e-07 0.000845115)
(0.00720985 1.69004e-07 0.000877021)
(0.00574918 1.76082e-07 0.00090109)
(0.00424826 1.83481e-07 0.000916255)
(0.00272129 1.91196e-07 0.00092134)
(0.0011856 1.99166e-07 0.000915002)
(-0.000342363 2.0652e-07 0.000894791)
(-0.00183794 2.13292e-07 0.000858607)
(-0.0032774 2.20456e-07 0.000805348)
(-0.00463339 2.27863e-07 0.000733816)
(-0.00587387 2.35379e-07 0.00064162)
(-0.00696315 2.43235e-07 0.000525523)
(-0.00785989 2.51731e-07 0.000382764)
(-0.00851765 2.61288e-07 0.000210409)
(-0.00888463 2.7229e-07 6.1416e-06)
(-0.00890466 2.84699e-07 -0.000229944)
(-0.0085217 2.98756e-07 -0.00049323)
(-0.00768789 3.1528e-07 -0.000770175)
(-0.00637944 3.34297e-07 -0.00102729)
(-0.00463091 3.55325e-07 -0.00118955)
(-0.00261096 3.7238e-07 -0.00109896)
(-0.000752024 3.88457e-07 -0.000557803)
(6.56693e-05 1.76507e-07 6.92232e-05)
(0.00130323 5.95038e-07 -0.00134188)
(0.00673496 1.93197e-07 -0.00384933)
(0.0125909 1.34246e-07 -0.00383785)
(0.0167243 1.08963e-07 -0.00248566)
(0.0187138 1.01711e-07 -0.000994366)
(0.01878 9.78883e-08 0.00031582)
(0.017235 9.37971e-08 0.00137968)
(0.0144096 9.00156e-08 0.00221178)
(0.0105778 8.75125e-08 0.00285444)
(0.00596541 8.58706e-08 0.00334913)
(0.000745266 8.39528e-08 0.00372472)
(-0.00494577 8.11852e-08 0.0039999)
(-0.0109791 7.82789e-08 0.00419763)
(-0.0172816 7.55851e-08 0.0043402)
(-0.0237805 7.2912e-08 0.0044397)
(-0.0304223 7.03329e-08 0.00450513)
(-0.0371631 6.80631e-08 0.00454335)
(-0.043967 6.61607e-08 0.00455965)
(-0.0508044 6.45968e-08 0.00455809)
(-0.0576506 6.32537e-08 0.00454185)
(-0.0644847 6.20511e-08 0.00451339)
(-0.0712889 6.08582e-08 0.00447463)
(-0.0780478 5.96064e-08 0.0044271)
(-0.0847477 5.82539e-08 0.00437198)
(-0.0913765 5.67856e-08 0.0043102)
(-0.0979235 5.52082e-08 0.00424252)
(-0.104379 5.35501e-08 0.00416953)
(-0.110733 5.18529e-08 0.0040917)
(-0.116978 5.01517e-08 0.00400941)
(-0.123105 4.84748e-08 0.00392299)
(-0.129107 4.68254e-08 0.00383269)
(-0.134978 4.52369e-08 0.00373875)
(-0.140709 4.37092e-08 0.00364135)
(-0.146296 4.22389e-08 0.00354067)
(-0.15173 4.08359e-08 0.00343687)
(-0.157008 3.95102e-08 0.00333011)
(-0.162122 3.82518e-08 0.00322054)
(-0.167068 3.70638e-08 0.00310831)
(-0.17184 3.59497e-08 0.00299357)
(-0.176434 3.49076e-08 0.00287648)
(-0.180846 3.39359e-08 0.00275719)
(-0.18507 3.30279e-08 0.00263588)
(-0.189103 3.21835e-08 0.00251271)
(-0.192941 3.13943e-08 0.00238787)
(-0.196582 3.06555e-08 0.00226153)
(-0.200022 2.99651e-08 0.00213388)
(-0.203258 2.93067e-08 0.00200513)
(-0.206289 2.86776e-08 0.00187545)
(-0.209113 2.80653e-08 0.00174507)
(-0.211728 2.74665e-08 0.00161417)
(-0.214132 2.68762e-08 0.00148297)
(-0.216326 2.62853e-08 0.00135167)
(-0.218309 2.56952e-08 0.00122047)
(-0.220082 2.51112e-08 0.00108959)
(-0.221643 2.45389e-08 0.00095923)
(-0.222995 2.39792e-08 0.000829594)
(-0.224138 2.34488e-08 0.000700885)
(-0.225074 2.29376e-08 0.0005733)
(-0.225805 2.24749e-08 0.000447025)
(-0.226333 2.20405e-08 0.000322209)
(-0.22666 2.16529e-08 0.000198934)
(-0.22679 2.12878e-08 7.7225e-05)
(-0.226726 2.09903e-08 -4.24861e-05)
(-0.22647 2.07611e-08 -0.000159782)
(-0.226027 2.05469e-08 -0.000274711)
(-0.2254 2.03578e-08 -0.000387264)
(-0.224594 2.01921e-08 -0.00049733)
(-0.223613 2.00531e-08 -0.000604774)
(-0.222462 1.99333e-08 -0.000709466)
(-0.221144 1.9826e-08 -0.000811293)
(-0.219666 1.97521e-08 -0.00091015)
(-0.218033 1.96824e-08 -0.00100595)
(-0.216249 1.96361e-08 -0.0010986)
(-0.21432 1.96148e-08 -0.00118805)
(-0.212252 1.96169e-08 -0.00127422)
(-0.21005 1.96407e-08 -0.00135706)
(-0.20772 1.96879e-08 -0.00143652)
(-0.205268 1.97634e-08 -0.00151258)
(-0.202699 1.9859e-08 -0.00158519)
(-0.20002 1.99813e-08 -0.00165434)
(-0.197236 2.01237e-08 -0.00172001)
(-0.194353 2.02961e-08 -0.00178219)
(-0.191377 2.04852e-08 -0.0018409)
(-0.188313 2.06927e-08 -0.00189612)
(-0.185169 2.0917e-08 -0.00194788)
(-0.181949 2.11596e-08 -0.00199619)
(-0.178659 2.14207e-08 -0.00204108)
(-0.175304 2.16818e-08 -0.00208259)
(-0.171891 2.19664e-08 -0.00212074)
(-0.168424 2.22593e-08 -0.00215559)
(-0.16491 2.25623e-08 -0.00218718)
(-0.161353 2.28788e-08 -0.00221557)
(-0.157759 2.32003e-08 -0.00224081)
(-0.154132 2.35286e-08 -0.00226296)
(-0.150478 2.38636e-08 -0.00228209)
(-0.1468 2.42038e-08 -0.00229827)
(-0.143105 2.45506e-08 -0.00231158)
(-0.139396 2.4901e-08 -0.0023221)
(-0.135678 2.52514e-08 -0.00232989)
(-0.131955 2.56035e-08 -0.00233506)
(-0.128231 2.59574e-08 -0.00233768)
(-0.12451 2.63148e-08 -0.00233784)
(-0.120796 2.66672e-08 -0.00233563)
(-0.117091 2.70281e-08 -0.00233115)
(-0.113401 2.73707e-08 -0.00232449)
(-0.109727 2.77268e-08 -0.00231574)
(-0.106073 2.80729e-08 -0.002305)
(-0.102442 2.84159e-08 -0.00229237)
(-0.098836 2.87572e-08 -0.00227794)
(-0.0952587 2.90986e-08 -0.0022618)
(-0.0917119 2.94301e-08 -0.00224405)
(-0.0881981 2.97684e-08 -0.00222479)
(-0.0847193 3.01051e-08 -0.00220411)
(-0.0812775 3.04385e-08 -0.00218209)
(-0.0778746 3.07554e-08 -0.00215882)
(-0.0745123 3.1084e-08 -0.0021344)
(-0.0711921 3.14011e-08 -0.0021089)
(-0.0679155 3.17382e-08 -0.0020824)
(-0.0646838 3.20555e-08 -0.00205497)
(-0.0614982 3.23795e-08 -0.00202669)
(-0.0583598 3.27086e-08 -0.00199762)
(-0.0552697 3.30428e-08 -0.00196782)
(-0.0522288 3.33738e-08 -0.00193735)
(-0.0492378 3.37149e-08 -0.00190625)
(-0.0462977 3.40628e-08 -0.00187458)
(-0.0434091 3.44443e-08 -0.00184236)
(-0.0405726 3.48292e-08 -0.00180963)
(-0.037789 3.52343e-08 -0.00177642)
(-0.0350588 3.56596e-08 -0.00174273)
(-0.0323826 3.61085e-08 -0.00170858)
(-0.0297609 3.65809e-08 -0.00167397)
(-0.0271945 3.70902e-08 -0.00163889)
(-0.0246838 3.76265e-08 -0.00160333)
(-0.0222296 3.82031e-08 -0.00156727)
(-0.0198325 3.88067e-08 -0.00153069)
(-0.0174932 3.94707e-08 -0.00149354)
(-0.0152125 4.01785e-08 -0.00145578)
(-0.0129913 4.09367e-08 -0.00141738)
(-0.0108305 4.17454e-08 -0.00137826)
(-0.00873124 4.2608e-08 -0.00133838)
(-0.00669448 4.35378e-08 -0.00129767)
(-0.00472154 4.45282e-08 -0.00125608)
(-0.00281344 4.55457e-08 -0.00121379)
(-0.00097202 4.66206e-08 -0.00117109)
(0.000804041 4.74746e-08 -0.00112642)
(0.00250858 4.83155e-08 -0.00107944)
(0.00414232 4.94082e-08 -0.00103122)
(0.00570232 5.06153e-08 -0.000981799)
(0.00718676 5.19637e-08 -0.000931125)
(0.0085935 5.34299e-08 -0.000879148)
(0.00992033 5.50175e-08 -0.000825815)
(0.011165 5.6723e-08 -0.000771082)
(0.0123251 5.85802e-08 -0.000714915)
(0.0133982 6.05723e-08 -0.000657291)
(0.0143819 6.27262e-08 -0.000598203)
(0.0152736 6.50254e-08 -0.000537658)
(0.016071 6.74765e-08 -0.000475682)
(0.0167715 7.01067e-08 -0.000412317)
(0.0173728 7.28923e-08 -0.000347632)
(0.0178727 7.58471e-08 -0.000281716)
(0.0182689 7.89913e-08 -0.000214687)
(0.0185596 8.23183e-08 -0.000146698)
(0.018743 8.58181e-08 -7.79372e-05)
(0.0188175 8.94035e-08 -8.60551e-06)
(0.0187824 9.32889e-08 6.11686e-05)
(0.0186364 9.74828e-08 0.00013118)
(0.018379 1.018e-07 0.000201106)
(0.0180101 1.06277e-07 0.000270634)
(0.0175301 1.10944e-07 0.000339405)
(0.0169401 1.15826e-07 0.00040702)
(0.0162417 1.20872e-07 0.000473041)
(0.0154372 1.26177e-07 0.000536989)
(0.0145296 1.31649e-07 0.000598344)
(0.0135229 1.37336e-07 0.000656535)
(0.012422 1.43229e-07 0.000710944)
(0.0112327 1.49354e-07 0.000760895)
(0.00996191 1.55657e-07 0.000805653)
(0.00861786 1.62194e-07 0.000844415)
(0.00721002 1.69004e-07 0.000876302)
(0.00574934 1.76082e-07 0.000900351)
(0.00424841 1.83481e-07 0.000915494)
(0.00272144 1.91195e-07 0.000920557)
(0.00118573 1.99165e-07 0.000914195)
(-0.000342245 2.0652e-07 0.000893961)
(-0.00183783 2.13292e-07 0.000857755)
(-0.0032773 2.20456e-07 0.000804473)
(-0.00463331 2.27863e-07 0.000732915)
(-0.00587379 2.35379e-07 0.000640691)
(-0.00696308 2.43235e-07 0.000524564)
(-0.00785984 2.5173e-07 0.000381772)
(-0.00851762 2.61287e-07 0.00020938)
(-0.0088846 2.72289e-07 5.07122e-06)
(-0.00890465 2.84697e-07 -0.000231058)
(-0.00852171 2.98755e-07 -0.000494392)
(-0.00768792 3.15278e-07 -0.000771389)
(-0.00637951 3.34295e-07 -0.00102856)
(-0.00463106 3.55323e-07 -0.00119088)
(-0.00261124 3.72377e-07 -0.00110033)
(-0.000752818 3.88454e-07 -0.000559183)
(6.50613e-05 1.76506e-07 6.81049e-05)
(0.00366127 2.42331e-07 -0.00711531)
(0.00834686 5.95322e-09 -0.00876658)
(0.0108058 1.41893e-08 -0.00694872)
(0.0118583 2.45391e-09 -0.00397861)
(0.0115079 -1.27528e-09 -0.000994889)
(0.00996457 -3.20638e-09 0.00161957)
(0.00738238 -4.82851e-09 0.00377558)
(0.00391631 -6.2444e-09 0.00550246)
(-0.00028901 -7.03469e-09 0.00686666)
(-0.0050977 -7.34041e-09 0.0079349)
(-0.0103923 -7.44993e-09 0.00876458)
(-0.0160777 -7.38597e-09 0.00940098)
(-0.0220717 -7.13951e-09 0.00988462)
(-0.0283073 -6.79488e-09 0.0102492)
(-0.0347268 -6.36462e-09 0.0105182)
(-0.041283 -5.85461e-09 0.0107101)
(-0.0479364 -5.25489e-09 0.0108389)
(-0.0546538 -4.58715e-09 0.0109159)
(-0.0614074 -3.88887e-09 0.0109497)
(-0.0681732 -3.20833e-09 0.0109471)
(-0.0749308 -2.57965e-09 0.0109135)
(-0.0816625 -2.02899e-09 0.0108533)
(-0.0883528 -1.56503e-09 0.0107697)
(-0.0949878 -1.19398e-09 0.0106656)
(-0.101555 -9.0539e-10 0.010543)
(-0.108045 -6.82578e-10 0.0104038)
(-0.114445 -5.12211e-10 0.0102492)
(-0.120747 -3.75972e-10 0.0100806)
(-0.126943 -2.60957e-10 0.00989872)
(-0.133024 -1.51777e-10 0.00970447)
(-0.138983 -5.25849e-11 0.0094985)
(-0.144812 4.24414e-11 0.00928139)
(-0.150504 1.32889e-10 0.00905367)
(-0.156054 2.15434e-10 0.00881582)
(-0.161454 2.92157e-10 0.0085683)
(-0.166699 3.61815e-10 0.00831155)
(-0.171784 4.22745e-10 0.00804599)
(-0.176702 4.77444e-10 0.00777208)
(-0.181449 5.24667e-10 0.00749024)
(-0.18602 5.67738e-10 0.00720095)
(-0.19041 6.02919e-10 0.00690467)
(-0.194616 6.33951e-10 0.00660188)
(-0.198632 6.59587e-10 0.00629309)
(-0.202456 6.75675e-10 0.00597883)
(-0.206085 6.8637e-10 0.00565963)
(-0.209515 6.86688e-10 0.00533603)
(-0.212743 6.77876e-10 0.00500861)
(-0.215768 6.57444e-10 0.00467795)
(-0.218588 6.25393e-10 0.00434463)
(-0.2212 5.84215e-10 0.00400924)
(-0.223604 5.33495e-10 0.00367239)
(-0.225799 4.72818e-10 0.00333467)
(-0.227785 4.11319e-10 0.00299668)
(-0.229561 3.47337e-10 0.00265904)
(-0.231128 2.84606e-10 0.00232232)
(-0.232486 2.26448e-10 0.00198712)
(-0.233636 1.73277e-10 0.00165403)
(-0.23458 1.30074e-10 0.00132361)
(-0.235319 9.35154e-11 0.000996419)
(-0.235856 6.56771e-11 0.00067301)
(-0.236192 4.78034e-11 0.000353899)
(-0.23633 3.98928e-11 3.96066e-05)
(-0.236273 2.78298e-11 -0.000269503)
(-0.236025 1.07903e-11 -0.000573118)
(-0.235589 3.29874e-12 -0.00087081)
(-0.234968 -8.71526e-13 -0.00116216)
(-0.234166 -8.77663e-12 -0.00144677)
(-0.233188 -1.5021e-11 -0.00172427)
(-0.232039 -2.2095e-11 -0.0019943)
(-0.230722 -3.04138e-11 -0.00225658)
(-0.229242 -3.74873e-11 -0.00251081)
(-0.227605 -4.58058e-11 -0.00275674)
(-0.225815 -5.12189e-11 -0.00299417)
(-0.223878 -5.45568e-11 -0.0032229)
(-0.221799 -5.62347e-11 -0.00344276)
(-0.219584 -5.45923e-11 -0.00365361)
(-0.217237 -5.00447e-11 -0.00385534)
(-0.214764 -4.38369e-11 -0.00404787)
(-0.212172 -3.51388e-11 -0.00423113)
(-0.209465 -2.68558e-11 -0.00440507)
(-0.20665 -1.35919e-11 -0.00456968)
(-0.203731 -2.8182e-12 -0.00472496)
(-0.200715 8.78589e-12 -0.00487093)
(-0.197608 2.12205e-11 -0.00500764)
(-0.194414 3.03347e-11 -0.00513514)
(-0.19114 4.06946e-11 -0.00525353)
(-0.187791 4.69038e-11 -0.00536289)
(-0.184372 5.02076e-11 -0.00546335)
(-0.180889 5.35117e-11 -0.00555502)
(-0.177348 5.6401e-11 -0.00563806)
(-0.173753 5.51392e-11 -0.00571263)
(-0.170109 5.2217e-11 -0.00577889)
(-0.166422 4.68039e-11 -0.00583703)
(-0.162697 3.88998e-11 -0.00588724)
(-0.158938 2.80892e-11 -0.00592972)
(-0.15515 1.60329e-11 -0.00596469)
(-0.151338 1.06965e-12 -0.00599238)
(-0.147507 -1.72159e-11 -0.00601299)
(-0.143659 -3.84089e-11 -0.00602679)
(-0.1398 -6.33402e-11 -0.00603399)
(-0.135934 -9.07644e-11 -0.00603485)
(-0.132065 -1.20266e-10 -0.00602962)
(-0.128196 -1.57661e-10 -0.00601855)
(-0.12433 -1.93812e-10 -0.0060019)
(-0.120473 -2.38272e-10 -0.00597991)
(-0.116626 -2.83982e-10 -0.00595284)
(-0.112792 -3.33017e-10 -0.00592096)
(-0.108976 -3.87042e-10 -0.00588451)
(-0.105179 -4.44809e-10 -0.00584374)
(-0.101405 -5.05489e-10 -0.00579891)
(-0.0976559 -5.68667e-10 -0.00575025)
(-0.0939342 -6.38498e-10 -0.00569801)
(-0.0902424 -7.10829e-10 -0.00564242)
(-0.0865825 -7.86491e-10 -0.0055837)
(-0.0829565 -8.66316e-10 -0.00552208)
(-0.0793665 -9.47811e-10 -0.00545777)
(-0.0758142 -1.03513e-09 -0.00539097)
(-0.0723012 -1.12496e-09 -0.00532186)
(-0.0688292 -1.21812e-09 -0.00525064)
(-0.0653995 -1.31379e-09 -0.00517747)
(-0.0620137 -1.41362e-09 -0.0051025)
(-0.0586728 -1.51763e-09 -0.00502588)
(-0.0553783 -1.62248e-09 -0.00494774)
(-0.0521311 -1.73233e-09 -0.00486819)
(-0.0489323 -1.84303e-09 -0.00478733)
(-0.045783 -1.95292e-09 -0.00470525)
(-0.0426842 -2.06698e-09 -0.004622)
(-0.0396366 -2.18272e-09 -0.00453765)
(-0.0366414 -2.29848e-09 -0.00445221)
(-0.0336993 -2.42009e-09 -0.00436571)
(-0.0308113 -2.54171e-09 -0.00427813)
(-0.0279782 -2.66752e-09 -0.00418946)
(-0.025201 -2.79336e-09 -0.00409966)
(-0.0224807 -2.92172e-09 -0.00400866)
(-0.0198182 -3.04844e-09 -0.0039164)
(-0.0172145 -3.17768e-09 -0.00382278)
(-0.0146708 -3.30945e-09 -0.00372769)
(-0.0121883 -3.44542e-09 -0.00363102)
(-0.00976806 -3.58725e-09 -0.00353262)
(-0.00741154 -3.72995e-09 -0.00343238)
(-0.00512009 -3.87102e-09 -0.00333015)
(-0.0028952 -4.01713e-09 -0.00322587)
(-0.00073827 -4.1766e-09 -0.00311964)
(0.00134906 -4.35611e-09 -0.00301112)
(0.00336381 -4.50152e-09 -0.0028992)
(0.00530446 -4.60949e-09 -0.00278365)
(0.007169 -4.71334e-09 -0.00266493)
(0.00895504 -4.80141e-09 -0.00254284)
(0.0106602 -4.88368e-09 -0.00241727)
(0.0122821 -4.9635e-09 -0.00228806)
(0.0138182 -5.04669e-09 -0.00215506)
(0.0152657 -5.12827e-09 -0.00201813)
(0.0166219 -5.20657e-09 -0.00187716)
(0.0178841 -5.29075e-09 -0.00173208)
(0.0190493 -5.37166e-09 -0.00158282)
(0.0201148 -5.45263e-09 -0.00142937)
(0.0210776 -5.53866e-09 -0.00127176)
(0.021935 -5.62475e-09 -0.00111007)
(0.022684 -5.71509e-09 -0.000944407)
(0.0233221 -5.81802e-09 -0.000774968)
(0.0238466 -5.91935e-09 -0.000601993)
(0.0242552 -6.0216e-09 -0.000425798)
(0.0245456 -6.13311e-09 -0.000246777)
(0.0247157 -6.24553e-09 -6.54166e-05)
(0.0247639 -6.36877e-09 0.000117882)
(0.0246889 -6.51644e-09 0.000302644)
(0.0244898 -6.66759e-09 0.000488155)
(0.0241659 -6.83057e-09 0.000673634)
(0.0237174 -7.00955e-09 0.000858211)
(0.0231448 -7.21039e-09 0.00104091)
(0.0224493 -7.4256e-09 0.00122066)
(0.0216328 -7.66103e-09 0.00139628)
(0.0206981 -7.91587e-09 0.00156644)
(0.0196486 -8.19095e-09 0.00172973)
(0.0184888 -8.4863e-09 0.00188456)
(0.0172244 -8.80696e-09 0.00202921)
(0.0158619 -9.15294e-09 0.0021618)
(0.0144092 -9.52425e-09 0.00228023)
(0.0128756 -9.91255e-09 0.00238222)
(0.0112719 -1.03078e-08 0.00246524)
(0.00961023 -1.07117e-08 0.00252649)
(0.00790482 -1.11141e-08 0.0025628)
(0.00617187 -1.15436e-08 0.00257066)
(0.00442945 -1.19449e-08 0.00254558)
(0.00269822 -1.22358e-08 0.00248275)
(0.00100146 -1.25201e-08 0.00237752)
(-0.000635562 -1.28851e-08 0.00222413)
(-0.00218151 -1.32906e-08 0.00201609)
(-0.00360451 -1.36559e-08 0.00174613)
(-0.00486812 -1.39089e-08 0.00140626)
(-0.00593257 -1.39739e-08 0.000987975)
(-0.00675469 -1.38574e-08 0.000483802)
(-0.00728914 -1.34883e-08 -0.000110138)
(-0.00748868 -1.26986e-08 -0.000788947)
(-0.0073096 -1.12107e-08 -0.00153106)
(-0.0067169 -8.61509e-09 -0.00227956)
(-0.00568822 -4.26337e-09 -0.0029051)
(-0.00423124 1.71456e-09 -0.00313915)
(-0.00241449 7.04082e-09 -0.00252323)
(-0.000539122 -1.91727e-07 -0.000820782)
(0.00366012 2.42327e-07 -0.00711644)
(0.00834611 5.95302e-09 -0.00876719)
(0.0108055 1.41888e-08 -0.006949)
(0.0118579 2.45383e-09 -0.00397878)
(0.0115076 -1.27524e-09 -0.000995015)
(0.00996436 -3.2063e-09 0.00161946)
(0.00738222 -4.8284e-09 0.00377547)
(0.00391619 -6.24426e-09 0.00550236)
(-0.000289104 -7.03454e-09 0.00686657)
(-0.00509777 -7.34026e-09 0.0079348)
(-0.0103923 -7.44978e-09 0.00876449)
(-0.0160777 -7.38583e-09 0.00940089)
(-0.0220717 -7.13938e-09 0.00988454)
(-0.0283073 -6.79476e-09 0.0102491)
(-0.0347267 -6.36451e-09 0.0105181)
(-0.0412829 -5.85451e-09 0.01071)
(-0.0479362 -5.2548e-09 0.0108389)
(-0.0546537 -4.58707e-09 0.0109158)
(-0.0614072 -3.8888e-09 0.0109496)
(-0.068173 -3.20828e-09 0.010947)
(-0.0749306 -2.57961e-09 0.0109134)
(-0.0816623 -2.02895e-09 0.0108532)
(-0.0883525 -1.56501e-09 0.0107696)
(-0.0949876 -1.19396e-09 0.0106655)
(-0.101555 -9.05376e-10 0.010543)
(-0.108044 -6.82568e-10 0.0104037)
(-0.114445 -5.12203e-10 0.0102492)
(-0.120747 -3.75966e-10 0.0100805)
(-0.126943 -2.60953e-10 0.00989867)
(-0.133024 -1.51774e-10 0.00970442)
(-0.138982 -5.25841e-11 0.00949845)
(-0.144811 4.24408e-11 0.00928134)
(-0.150504 1.32887e-10 0.00905362)
(-0.156053 2.15431e-10 0.00881578)
(-0.161454 2.92153e-10 0.00856826)
(-0.166699 3.61809e-10 0.0083115)
(-0.171783 4.22739e-10 0.00804595)
(-0.176702 4.77438e-10 0.00777203)
(-0.181449 5.2466e-10 0.0074902)
(-0.186019 5.6773e-10 0.00720091)
(-0.19041 6.02911e-10 0.00690462)
(-0.194615 6.33942e-10 0.00660184)
(-0.198632 6.59578e-10 0.00629305)
(-0.202456 6.75665e-10 0.00597879)
(-0.206084 6.8636e-10 0.00565958)
(-0.209514 6.86678e-10 0.00533599)
(-0.212743 6.77866e-10 0.00500857)
(-0.215768 6.57435e-10 0.00467791)
(-0.218587 6.25384e-10 0.00434458)
(-0.221199 5.84207e-10 0.00400919)
(-0.223604 5.33487e-10 0.00367234)
(-0.225799 4.72812e-10 0.00333462)
(-0.227784 4.11314e-10 0.00299663)
(-0.22956 3.47332e-10 0.00265899)
(-0.231127 2.84602e-10 0.00232227)
(-0.232485 2.26445e-10 0.00198707)
(-0.233635 1.73275e-10 0.00165397)
(-0.234579 1.30072e-10 0.00132355)
(-0.235319 9.35141e-11 0.000996366)
(-0.235855 6.56763e-11 0.000672956)
(-0.236191 4.78027e-11 0.000353844)
(-0.236329 3.98922e-11 3.95507e-05)
(-0.236273 2.78294e-11 -0.000269559)
(-0.236025 1.07902e-11 -0.000573175)
(-0.235588 3.2987e-12 -0.000870869)
(-0.234967 -8.71515e-13 -0.00116222)
(-0.234166 -8.77651e-12 -0.00144683)
(-0.233188 -1.50208e-11 -0.00172433)
(-0.232038 -2.20947e-11 -0.00199437)
(-0.230721 -3.04134e-11 -0.00225664)
(-0.229242 -3.74868e-11 -0.00251087)
(-0.227605 -4.58052e-11 -0.00275681)
(-0.225815 -5.12182e-11 -0.00299424)
(-0.223878 -5.45562e-11 -0.00322296)
(-0.221799 -5.6234e-11 -0.00344282)
(-0.219583 -5.45916e-11 -0.00365368)
(-0.217236 -5.00441e-11 -0.00385541)
(-0.214764 -4.38364e-11 -0.00404794)
(-0.212172 -3.51384e-11 -0.0042312)
(-0.209465 -2.68555e-11 -0.00440514)
(-0.206649 -1.35917e-11 -0.00456975)
(-0.203731 -2.81817e-12 -0.00472503)
(-0.200715 8.78578e-12 -0.004871)
(-0.197607 2.12202e-11 -0.00500771)
(-0.194414 3.03343e-11 -0.00513522)
(-0.19114 4.06941e-11 -0.00525361)
(-0.18779 4.69033e-11 -0.00536297)
(-0.184372 5.0207e-11 -0.00546343)
(-0.180889 5.35111e-11 -0.0055551)
(-0.177347 5.64004e-11 -0.00563815)
(-0.173752 5.51386e-11 -0.00571271)
(-0.170109 5.22164e-11 -0.00577897)
(-0.166422 4.68034e-11 -0.00583711)
(-0.162697 3.88994e-11 -0.00588732)
(-0.158938 2.80889e-11 -0.00592981)
(-0.15515 1.60327e-11 -0.00596478)
(-0.151338 1.06964e-12 -0.00599246)
(-0.147506 -1.72157e-11 -0.00601308)
(-0.143659 -3.84085e-11 -0.00602688)
(-0.1398 -6.33395e-11 -0.00603408)
(-0.135934 -9.07634e-11 -0.00603495)
(-0.132065 -1.20265e-10 -0.00602972)
(-0.128195 -1.5766e-10 -0.00601865)
(-0.12433 -1.9381e-10 -0.00600199)
(-0.120472 -2.3827e-10 -0.00598001)
(-0.116625 -2.83979e-10 -0.00595294)
(-0.112792 -3.33014e-10 -0.00592106)
(-0.108976 -3.87038e-10 -0.00588461)
(-0.105179 -4.44804e-10 -0.00584384)
(-0.101405 -5.05484e-10 -0.00579901)
(-0.0976556 -5.68661e-10 -0.00575035)
(-0.093934 -6.38492e-10 -0.00569811)
(-0.0902421 -7.10822e-10 -0.00564252)
(-0.0865822 -7.86484e-10 -0.00558381)
(-0.0829562 -8.66308e-10 -0.00552219)
(-0.0793662 -9.47803e-10 -0.00545788)
(-0.0758139 -1.03512e-09 -0.00539108)
(-0.0723009 -1.12495e-09 -0.00532197)
(-0.0688289 -1.21811e-09 -0.00525075)
(-0.0653993 -1.31378e-09 -0.00517758)
(-0.0620134 -1.41361e-09 -0.00510261)
(-0.0586726 -1.51761e-09 -0.005026)
(-0.055378 -1.62246e-09 -0.00494786)
(-0.0521308 -1.73232e-09 -0.00486831)
(-0.0489321 -1.84302e-09 -0.00478745)
(-0.0457828 -1.9529e-09 -0.00470537)
(-0.0426839 -2.06696e-09 -0.00462213)
(-0.0396364 -2.1827e-09 -0.00453777)
(-0.0366412 -2.29847e-09 -0.00445233)
(-0.0336991 -2.42007e-09 -0.00436583)
(-0.030811 -2.5417e-09 -0.00427826)
(-0.027978 -2.66751e-09 -0.00418959)
(-0.0252008 -2.79334e-09 -0.00409978)
(-0.0224805 -2.9217e-09 -0.00400879)
(-0.0198179 -3.04842e-09 -0.00391653)
(-0.0172143 -3.17766e-09 -0.00382291)
(-0.0146706 -3.30943e-09 -0.00372782)
(-0.012188 -3.4454e-09 -0.00363115)
(-0.00976783 -3.58723e-09 -0.00353275)
(-0.00741132 -3.72993e-09 -0.00343251)
(-0.00511987 -3.871e-09 -0.00333028)
(-0.00289498 -4.01711e-09 -0.003226)
(-0.000738051 -4.17658e-09 -0.00311977)
(0.00134928 -4.35609e-09 -0.00301126)
(0.00336403 -4.5015e-09 -0.00289933)
(0.00530468 -4.60947e-09 -0.00278379)
(0.00716922 -4.71332e-09 -0.00266506)
(0.00895526 -4.80138e-09 -0.00254298)
(0.0106605 -4.88366e-09 -0.00241741)
(0.0122824 -4.96347e-09 -0.0022882)
(0.0138184 -5.04667e-09 -0.0021552)
(0.0152659 -5.12825e-09 -0.00201827)
(0.0166221 -5.20655e-09 -0.0018773)
(0.0178843 -5.29073e-09 -0.00173222)
(0.0190495 -5.37164e-09 -0.00158296)
(0.020115 -5.4526e-09 -0.00142951)
(0.0210778 -5.53864e-09 -0.0012719)
(0.0219352 -5.62473e-09 -0.00111021)
(0.0226842 -5.71507e-09 -0.000944553)
(0.0233223 -5.818e-09 -0.000775115)
(0.0238469 -5.91933e-09 -0.000602141)
(0.0242554 -6.02158e-09 -0.000425948)
(0.0245458 -6.13309e-09 -0.000246928)
(0.0247159 -6.24551e-09 -6.55683e-05)
(0.0247641 -6.36875e-09 0.000117729)
(0.0246891 -6.51642e-09 0.000302489)
(0.02449 -6.66757e-09 0.000487997)
(0.0241661 -6.83055e-09 0.000673475)
(0.0237176 -7.00953e-09 0.000858049)
(0.023145 -7.21038e-09 0.00104075)
(0.0224495 -7.42558e-09 0.0012205)
(0.021633 -7.66101e-09 0.00139611)
(0.0206982 -7.91585e-09 0.00156627)
(0.0196487 -8.19093e-09 0.00172955)
(0.018489 -8.48628e-09 0.00188438)
(0.0172245 -8.80694e-09 0.00202903)
(0.015862 -9.15291e-09 0.00216161)
(0.0144094 -9.52423e-09 0.00228003)
(0.0128758 -9.91253e-09 0.00238202)
(0.011272 -1.03078e-08 0.00246504)
(0.00961036 -1.07116e-08 0.00252628)
(0.00790494 -1.11141e-08 0.00256258)
(0.00617198 -1.15436e-08 0.00257044)
(0.00442956 -1.19449e-08 0.00254535)
(0.00269832 -1.22357e-08 0.00248251)
(0.00100154 -1.252e-08 0.00237727)
(-0.000635486 -1.28851e-08 0.00222386)
(-0.00218145 -1.32905e-08 0.00201581)
(-0.00360445 -1.36559e-08 0.00174584)
(-0.00486807 -1.39089e-08 0.00140595)
(-0.00593254 -1.39738e-08 0.000987644)
(-0.00675467 -1.38574e-08 0.000483445)
(-0.00728912 -1.34883e-08 -0.000110526)
(-0.00748868 -1.26986e-08 -0.000789373)
(-0.00730961 -1.12107e-08 -0.00153153)
(-0.00671693 -8.61507e-09 -0.00228009)
(-0.00568828 -4.26336e-09 -0.00290571)
(-0.00423139 1.71455e-09 -0.00313988)
(-0.00241508 7.04082e-09 -0.00252417)
(-0.000539915 -1.91727e-07 -0.000821971)
(0.00346609 1.54262e-07 -0.0131957)
(0.00640422 1.15865e-08 -0.011346)
(0.00686883 2.37098e-08 -0.00743476)
(0.00622795 1.36705e-08 -0.00319946)
(0.004609 9.32259e-09 0.000774952)
(0.00222323 6.48439e-09 0.0042521)