/*--------------------------------*- C++ -*----------------------------------*\
  =========                 |
  \\      /  F ield         | OpenFOAM: The Open Source CFD Toolbox
   \\    /   O peration     | Website:  https://openfoam.org
    \\  /    A nd           | Version:  8
     \\/     M anipulation  |
\*---------------------------------------------------------------------------*/
FoamFile
{
    version     2.0;
    format      ascii;
    class       volScalarField;
    location    "3600";
    object      alphat;
}
// * * * * * * * * * * * * * * * * * * * * * * * * * * * * * * * * * * * * * //

dimensions      [1 -1 -1 0 0 0 0];

internalField   nonuniform List<scalar> 
48000
(
5.12267e-05
8.86702e-05
0.000109767
0.000125322
0.000138378
0.000149356
0.000158877
0.000167337
0.000175127
0.000182311
0.000188972
0.0001952
0.00020105
0.000206569
0.000211789
0.00021674
0.000221444
0.000225919
0.000230179
0.000234238
0.000238106
0.000241791
0.000245303
0.000248648
0.000251832
0.000254861
0.00025774
0.000260473
0.000263067
0.000265524
0.00026785
0.000270047
0.000272121
0.000274074
0.000275912
0.000277637
0.000279253
0.000280763
0.000282173
0.000283483
0.000284699
0.000285824
0.00028686
0.000287811
0.000288699
0.00028951
0.000290245
0.000290908
0.0002915
0.000292025
0.000292487
0.000292888
0.000293231
0.000293519
0.000293754
0.000293939
0.000294077
0.000294169
0.000294218
0.000294226
0.000294196
0.000294128
0.000294025
0.00029389
0.000293722
0.000293525
0.000293299
0.000293046
0.000292767
0.000292464
0.000292138
0.000291789
0.00029142
0.00029103
0.000290622
0.000290195
0.000289751
0.00028929
0.000288813
0.000288321
0.000287814
0.000287293
0.000286758
0.000286209
0.000285648
0.000285075
0.000284489
0.000283891
0.000283281
0.000282661
0.000282028
0.000281385
0.000280731
0.000280066
0.00027939
0.000278703
0.000278006
0.000277297
0.000276578
0.000275849
0.000275108
0.000274356
0.000273593
0.000272819
0.000272034
0.000271237
0.000270428
0.000269608
0.000268775
0.00026793
0.000267073
0.000266203
0.000265319
0.000264423
0.000263513
0.000262589
0.000261651
0.000260699
0.000259732
0.00025875
0.000257752
0.000256739
0.00025571
0.000254665
0.000253603
0.000252523
0.000251427
0.000250313
0.000249181
0.00024803
0.000246861
0.000245672
0.000244465
0.000243237
0.000241989
0.000240721
0.000239431
0.000238121
0.000236789
0.000235435
0.000234059
0.00023266
0.000231238
0.000229793
0.000228324
0.000226831
0.000225313
0.000223771
0.000222204
0.000220612
0.000218993
0.000217349
0.000215678
0.00021398
0.000212255
0.000210502
0.00020872
0.000206911
0.000205072
0.000203203
0.000201305
0.000199376
0.000197415
0.000195423
0.000193397
0.000191339
0.000189246
0.000187117
0.000184952
0.00018275
0.000180508
0.000178226
0.000175902
0.000173533
0.000171118
0.000168654
0.000166139
0.000163568
0.000160939
0.000158248
0.000155493
0.000152679
0.000149803
0.000146836
0.000143766
0.000140581
0.000137263
0.000133794
0.000130147
0.00012629
0.00012218
0.000117765
0.000113017
0.000107794
0.00010193
9.51685e-05
8.70584e-05
7.67532e-05
6.37785e-05
0.000197688
5.12279e-05
8.8671e-05
0.000109767
0.000125322
0.000138378
0.000149356
0.000158878
0.000167337
0.000175127
0.000182311
0.000188972
0.0001952
0.000201051
0.000206569
0.00021179
0.000216741
0.000221444
0.000225919
0.000230179
0.000234238
0.000238106
0.000241792
0.000245303
0.000248648
0.000251832
0.000254861
0.00025774
0.000260474
0.000263067
0.000265524
0.00026785
0.000270047
0.000272121
0.000274075
0.000275912
0.000277637
0.000279253
0.000280764
0.000282173
0.000283483
0.0002847
0.000285824
0.00028686
0.000287811
0.000288699
0.00028951
0.000290246
0.000290908
0.0002915
0.000292025
0.000292487
0.000292888
0.000293231
0.000293519
0.000293754
0.000293939
0.000294077
0.000294169
0.000294218
0.000294226
0.000294196
0.000294128
0.000294025
0.00029389
0.000293722
0.000293525
0.000293299
0.000293046
0.000292767
0.000292464
0.000292138
0.000291789
0.00029142
0.00029103
0.000290622
0.000290195
0.000289751
0.00028929
0.000288813
0.000288321
0.000287814
0.000287293
0.000286758
0.000286209
0.000285648
0.000285075
0.000284489
0.000283891
0.000283281
0.00028266
0.000282028
0.000281385
0.000280731
0.000280066
0.00027939
0.000278703
0.000278006
0.000277297
0.000276578
0.000275849
0.000275108
0.000274356
0.000273593
0.000272819
0.000272034
0.000271237
0.000270428
0.000269608
0.000268775
0.00026793
0.000267073
0.000266203
0.000265319
0.000264423
0.000263513
0.000262589
0.000261651
0.000260699
0.000259732
0.00025875
0.000257752
0.000256739
0.00025571
0.000254665
0.000253603
0.000252523
0.000251427
0.000250313
0.000249181
0.00024803
0.000246861
0.000245672
0.000244465
0.000243237
0.000241989
0.000240721
0.000239431
0.000238121
0.000236789
0.000235435
0.000234059
0.00023266
0.000231238
0.000229793
0.000228324
0.000226831
0.000225313
0.000223771
0.000222204
0.000220612
0.000218993
0.000217349
0.000215678
0.00021398
0.000212255
0.000210502
0.00020872
0.000206911
0.000205072
0.000203203
0.000201305
0.000199376
0.000197415
0.000195423
0.000193397
0.000191339
0.000189246
0.000187117
0.000184952
0.00018275
0.000180508
0.000178226
0.000175902
0.000173533
0.000171118
0.000168654
0.000166139
0.000163568
0.000160939
0.000158248
0.000155493
0.000152679
0.000149803
0.000146836
0.000143766
0.000140581
0.000137263
0.000133794
0.000130147
0.00012629
0.00012218
0.000117765
0.000113017
0.000107794
0.00010193
9.51683e-05
8.70577e-05
7.6752e-05
6.37837e-05
0.000197697
7.70223e-05
0.000570632
0.00090424
0.00113789
0.00131169
0.00145372
0.00157555
0.00168267
0.00177806
0.00186433
0.00194326
0.00201602
0.00208351
0.00214641
0.00220525
0.00226048
0.00231243
0.00236141
0.00240765
0.00245136
0.00249272
0.00253189
0.002569
0.00260417
0.0026375
0.0026691
0.00269905
0.00272742
0.0027543
0.00277974
0.00280381
0.00282657
0.00284807
0.00286837
0.00288751
0.00290553
0.00292249
0.00293841
0.00295335
0.00296734
0.00298041
0.00299258
0.00300388
0.00301426
0.00302354
0.00303202
0.00303978
0.00304688
0.00305335
0.00305924
0.00306457
0.00306935
0.00307362
0.0030774
0.00308071
0.00308357
0.00308599
0.003088
0.00308961
0.00309084
0.0030917
0.00309222
0.0030924
0.00309226
0.00309182
0.00309107
0.00309005
0.00308876
0.0030872
0.0030854
0.00308336
0.00308108
0.00307859
0.00307588
0.00307297
0.00306985
0.00306655
0.00306306
0.00305939
0.00305555
0.00305154
0.00304736
0.00304303
0.00303854
0.0030339
0.0030291
0.00302417
0.00301908
0.00301386
0.0030085
0.00300299
0.00299735
0.00299158
0.00298567
0.00297963
0.00297345
0.00296713
0.00296069
0.00295411
0.00294739
0.00294054
0.00293355
0.00292642
0.00291916
0.00291175
0.0029042
0.00289651
0.00288867
0.00288069
0.00287255
0.00286426
0.00285582
0.00284722
0.00283846
0.00282954
0.00282045
0.0028112
0.00280177
0.00279217
0.0027824
0.00277244
0.0027623
0.00275197
0.00274146
0.00273075
0.00271984
0.00270873
0.00269742
0.0026859
0.00267417
0.00266223
0.00265007
0.00263769
0.00262508
0.00261224
0.00259918
0.00258587
0.00257233
0.00255854
0.00254451
0.00253023
0.00251569
0.0025009
0.00248584
0.00247052
0.00245493
0.00243906
0.00242292
0.0024065
0.0023898
0.0023728
0.00235552
0.00233793
0.00232004
0.00230185
0.00228334
0.00226451
0.00224537
0.00222589
0.00220608
0.00218592
0.00216541
0.00214455
0.00212332
0.00210171
0.00207971
0.00205731
0.0020345
0.00201126
0.00198758
0.00196344
0.00193881
0.00191368
0.00188802
0.00186179
0.00183496
0.0018075
0.00177935
0.00175045
0.00172072
0.00169005
0.00165827
0.00162528
0.00159105
0.00155548
0.00151843
0.00147966
0.00143891
0.00139582
0.00134987
0.00130033
0.00124596
0.0011847
0.00111557
0.00103563
0.000940017
0.000819941
0.000657629
0.000412699
5.54509e-05
7.70228e-05
0.000570642
0.000904256
0.00113791
0.00131171
0.00145373
0.00157556
0.00168269
0.00177808
0.00186435
0.00194328
0.00201604
0.00208352
0.00214642
0.00220526
0.00226049
0.00231244
0.00236142
0.00240766
0.00245137
0.00249273
0.0025319
0.00256901
0.00260418
0.00263751
0.00266911
0.00269905
0.00272743
0.0027543
0.00277975
0.00280382
0.00282658
0.00284808
0.00286838
0.00288751
0.00290554
0.00292249
0.00293842
0.00295336
0.00296735
0.00298041
0.00299259
0.00300389
0.00301427
0.00302355
0.00303203
0.00303978
0.00304688
0.00305336
0.00305925
0.00306457
0.00306936
0.00307363
0.00307741
0.00308072
0.00308357
0.003086
0.003088
0.00308961
0.00309084
0.00309171
0.00309223
0.00309241
0.00309227
0.00309182
0.00309108
0.00309006
0.00308876
0.00308721
0.00308541
0.00308336
0.00308109
0.00307859
0.00307589
0.00307297
0.00306986
0.00306656
0.00306307
0.0030594
0.00305556
0.00305155
0.00304737
0.00304304
0.00303854
0.0030339
0.00302911
0.00302417
0.00301909
0.00301386
0.0030085
0.003003
0.00299736
0.00299158
0.00298567
0.00297963
0.00297345
0.00296714
0.00296069
0.00295411
0.0029474
0.00294054
0.00293356
0.00292643
0.00291916
0.00291176
0.00290421
0.00289652
0.00288868
0.00288069
0.00287256
0.00286427
0.00285582
0.00284723
0.00283847
0.00282954
0.00282046
0.0028112
0.00280178
0.00279218
0.0027824
0.00277244
0.0027623
0.00275198
0.00274146
0.00273075
0.00271984
0.00270874
0.00269742
0.00268591
0.00267418
0.00266223
0.00265007
0.00263769
0.00262508
0.00261225
0.00259918
0.00258588
0.00257233
0.00255855
0.00254452
0.00253023
0.00251569
0.0025009
0.00248584
0.00247052
0.00245493
0.00243907
0.00242293
0.00240651
0.0023898
0.00237281
0.00235552
0.00233793
0.00232005
0.00230185
0.00228334
0.00226452
0.00224537
0.00222589
0.00220608
0.00218592
0.00216542
0.00214455
0.00212332
0.00210171
0.00207971
0.00205732
0.00203451
0.00201127
0.00198759
0.00196344
0.00193882
0.00191368
0.00188802
0.00186179
0.00183497
0.0018075
0.00177935
0.00175045
0.00172072
0.00169005
0.00165828
0.00162528
0.00159105
0.00155549
0.00151843
0.00147966
0.00143891
0.00139582
0.00134987
0.00130033
0.00124596
0.00118471
0.00111557
0.00103563
0.000940017
0.000819941
0.000657635
0.000412695
5.54419e-05
9.46907e-05
0.000865279
0.00153889
0.00204322
0.00243984
0.00276845
0.00305045
0.0032982
0.00351922
0.00371874
0.00390051
0.00406727
0.00422111
0.00436366
0.0044962
0.00461981
0.00473537
0.00484362
0.0049452
0.00504066
0.00513047
0.00521508
0.00529483
0.00537008
0.00544112
0.00550822
0.00557162
0.00563156
0.00568822
0.00574179
0.00579245
0.00584035
0.00588563
0.00592843
0.00596887
0.00600707
0.00604312
0.00607714
0.00610919
0.00613938
0.00616777
0.00619442
0.00621937
0.0062426
0.00626407
0.00628399
0.0063025
0.0063197
0.00633567
0.00635048
0.00636418
0.00637683
0.00638846
0.00639912
0.00640886
0.0064177
0.00642569
0.00643285
0.00643923
0.00644484
0.00644972
0.0064539
0.00645741
0.00646026
0.00646248
0.00646409
0.00646512
0.00646559
0.00646552
0.00646492
0.00646381
0.00646221
0.00646014
0.00645761
0.00645463
0.00645121
0.00644738
0.00644314
0.00643849
0.00643346
0.00642805
0.00642227
0.00641612
0.00640962
0.00640277
0.00639557
0.00638803
0.00638016
0.00637195
0.00636342
0.00635456
0.00634538
0.00633588
0.00632606
0.00631593
0.00630547
0.0062947
0.0062836
0.00627219
0.00626046
0.0062484
0.00623602
0.00622331
0.00621027
0.00619691
0.0061832
0.00616916
0.00615477
0.00614004
0.00612495
0.00610951
0.0060937
0.00607753
0.00606099
0.00604407
0.00602677
0.00600908
0.00599099
0.00597251
0.00595361
0.0059343
0.00591457
0.00589441
0.00587381
0.00585278
0.00583129
0.00580934
0.00578693
0.00576405
0.00574069
0.00571684
0.00569249
0.00566764
0.00564227
0.00561639
0.00558998
0.00556303
0.00553553
0.00550748
0.00547887
0.00544968
0.00541992
0.00538956
0.0053586
0.00532704
0.00529485
0.00526203
0.00522858
0.00519447
0.0051597
0.00512425
0.00508812
0.00505129
0.00501374
0.00497547
0.00493646
0.00489669
0.00485615
0.00481481
0.00477266
0.00472968
0.00468584
0.00464112
0.0045955
0.00454894
0.00450142
0.00445289
0.00440332
0.00435267
0.00430089
0.00424792
0.00419372
0.0041382
0.00408129
0.00402291
0.00396295
0.0039013
0.00383783
0.00377236
0.0037047
0.00363459
0.00356176
0.00348592
0.00340677
0.00332394
0.0032369
0.00314499
0.00304742
0.00294308
0.00283056
0.00270785
0.00257217
0.00241952
0.0022456
0.00204339
0.00180202
0.00150425
0.00112211
0.000615006
6.74207e-05
9.4691e-05
0.000865292
0.00153892
0.00204324
0.00243987
0.00276849
0.00305049
0.00329824
0.00351925
0.00371877
0.00390054
0.0040673
0.00422114
0.00436368
0.00449622
0.00461983
0.00473539
0.00484364
0.00494522
0.00504068
0.00513049
0.00521509
0.00529485
0.0053701
0.00544114
0.00550824
0.00557164
0.00563157
0.00568823
0.0057418
0.00579246
0.00584036
0.00588564
0.00592844
0.00596888
0.00600708
0.00604313
0.00607714
0.0061092
0.00613939
0.00616778
0.00619443
0.00621938
0.00624261
0.00626408
0.006284
0.00630251
0.00631971
0.00633568
0.00635049
0.00636419
0.00637683
0.00638846
0.00639913
0.00640886
0.00641771
0.00642569
0.00643286
0.00643923
0.00644485
0.00644973
0.00645391
0.00645741
0.00646026
0.00646248
0.0064641
0.00646513
0.0064656
0.00646552
0.00646492
0.00646381
0.00646222
0.00646014
0.00645761
0.00645463
0.00645122
0.00644738
0.00644314
0.0064385
0.00643347
0.00642805
0.00642227
0.00641613
0.00640962
0.00640277
0.00639557
0.00638803
0.00638016
0.00637195
0.00636342
0.00635457
0.00634539
0.00633589
0.00632607
0.00631593
0.00630547
0.0062947
0.0062836
0.00627219
0.00626046
0.0062484
0.00623602
0.00622331
0.00621028
0.00619691
0.0061832
0.00616916
0.00615477
0.00614004
0.00612495
0.00610951
0.00609371
0.00607754
0.00606099
0.00604407
0.00602677
0.00600908
0.005991
0.00597251
0.00595361
0.0059343
0.00591457
0.00589441
0.00587381
0.00585278
0.00583129
0.00580934
0.00578693
0.00576405
0.00574069
0.00571684
0.00569249
0.00566764
0.00564227
0.00561639
0.00558998
0.00556303
0.00553553
0.00550748
0.00547887
0.00544969
0.00541992
0.00538956
0.0053586
0.00532704
0.00529485
0.00526203
0.00522858
0.00519447
0.0051597
0.00512425
0.00508812
0.00505129
0.00501374
0.00497547
0.00493646
0.00489669
0.00485615
0.00481481
0.00477266
0.00472968
0.00468584
0.00464112
0.0045955
0.00454894
0.00450142
0.00445289
0.00440332
0.00435267
0.00430089
0.00424792
0.00419372
0.0041382
0.00408129
0.00402291
0.00396295
0.0039013
0.00383783
0.00377236
0.0037047
0.0036346
0.00356177
0.00348592
0.00340677
0.00332394
0.0032369
0.00314499
0.00304742
0.00294309
0.00283056
0.00270785
0.00257217
0.00241953
0.0022456
0.00204339
0.00180202
0.00150424
0.00112211
0.000615002
6.74218e-05
0.000107263
0.00104509
0.00196589
0.00269677
0.00329312
0.00379613
0.00423159
0.00461594
0.00496002
0.00527137
0.00555541
0.00581621
0.00605688
0.00627985
0.0064871
0.00668025
0.00686066
0.00702948
0.00718771
0.00733622
0.00747576
0.00760702
0.0077306
0.00784705
0.00795687
0.0080605
0.00815834
0.00825077
0.00833813
0.00842072
0.00849884
0.00857275
0.00864268
0.00870887
0.0087715
0.00883078
0.00888688
0.00893995
0.00899014
0.00903759
0.0090824
0.00912469
0.00916454
0.00920199
0.00923709
0.00927002
0.00930092
0.00932993
0.00935713
0.00938264
0.00940654
0.00942889
0.00944977
0.00946924
0.00948735
0.00950417
0.00951974
0.00953411
0.00954732
0.00955942
0.00957045
0.00958045
0.00958945
0.00959749
0.0096046
0.00961081
0.00961615
0.00962065
0.00962434
0.00962724
0.00962937
0.00963077
0.00963144
0.0096314
0.00963069
0.00962931
0.00962728
0.00962462
0.00962134
0.00961745
0.00961297
0.00960791
0.00960227
0.00959607
0.00958932
0.00958202
0.00957418
0.0095658
0.00955689
0.00954746
0.00953751
0.00952704
0.00951605
0.00950455
0.00949253
0.00948
0.00946695
0.00945339
0.00943931
0.00942471
0.00940959
0.00939394
0.00937777
0.00936106
0.00934381
0.00932602
0.00930769
0.0092888
0.00926935
0.00924933
0.00922874
0.00920757
0.00918581
0.00916345
0.00914048
0.0091169
0.0090927
0.00906787
0.00904239
0.00901626
0.00898946
0.008962
0.00893385
0.008905
0.00887545
0.00884518
0.00881418
0.00878244
0.00874995
0.00871669
0.00868265
0.00864783
0.00861219
0.00857575
0.00853847
0.00850034
0.00846136
0.00842151
0.00838077
0.00833912
0.00829656
0.00825306
0.00820862
0.00816321
0.00811681
0.00806941
0.008021
0.00797154
0.00792103
0.00786943
0.00781674
0.00776292
0.00770796
0.00765182
0.00759449
0.00753593
0.00747611
0.007415
0.00735257
0.00728878
0.0072236
0.00715697
0.00708885
0.0070192
0.00694796
0.00687506
0.00680045
0.00672405
0.00664579
0.00656556
0.00648329
0.00639885
0.00631212
0.00622296
0.00613121
0.00603669
0.00593918
0.00583844
0.00573419
0.00562608
0.0055137
0.0053966
0.00527426
0.00514607
0.00501128
0.00486896
0.00471797
0.00455681
0.00438361
0.00419597
0.00399073
0.00376368
0.00350925
0.0032202
0.00288694
0.00249551
0.00202615
0.00145213
0.00074916
7.67684e-05
0.000107263
0.0010451
0.00196591
0.0026968
0.00329316
0.00379617
0.00423164
0.00461599
0.00496007
0.00527141
0.00555545
0.00581625
0.00605692
0.00627989
0.00648714
0.00668029
0.0068607
0.00702952
0.00718774
0.00733624
0.00747579
0.00760704
0.00773063
0.00784708
0.00795689
0.00806052
0.00815836
0.00825079
0.00833815
0.00842074
0.00849886
0.00857277
0.0086427
0.00870888
0.00877152
0.00883079
0.00888689
0.00893996
0.00899015
0.0090376
0.00908241
0.0091247
0.00916454
0.00920199
0.00923709
0.00927003
0.00930093
0.00932993
0.00935714
0.00938265
0.00940654
0.00942889
0.00944977
0.00946924
0.00948735
0.00950417
0.00951974
0.00953411
0.00954732
0.00955942
0.00957045
0.00958045
0.00958945
0.00959749
0.0096046
0.00961081
0.00961615
0.00962065
0.00962434
0.00962724
0.00962937
0.00963077
0.00963144
0.0096314
0.00963069
0.00962931
0.00962728
0.00962462
0.00962134
0.00961745
0.00961297
0.00960791
0.00960227
0.00959607
0.00958932
0.00958202
0.00957418
0.0095658
0.00955689
0.00954746
0.00953751
0.00952704
0.00951605
0.00950454
0.00949253
0.00947999
0.00946695
0.00945338
0.0094393
0.00942471
0.00940958
0.00939394
0.00937776
0.00936106
0.00934381
0.00932602
0.00930769
0.0092888
0.00926935
0.00924933
0.00922874
0.00920757
0.0091858
0.00916345
0.00914048
0.0091169
0.0090927
0.00906786
0.00904239
0.00901625
0.00898946
0.00896199
0.00893384
0.008905
0.00887545
0.00884518
0.00881418
0.00878244
0.00874994
0.00871669
0.00868265
0.00864782
0.00861219
0.00857574
0.00853846
0.00850034
0.00846136
0.0084215
0.00838076
0.00833912
0.00829656
0.00825306
0.00820861
0.0081632
0.00811681
0.00806941
0.00802099
0.00797154
0.00792102
0.00786943
0.00781674
0.00776292
0.00770796
0.00765182
0.00759449
0.00753592
0.00747611
0.007415
0.00735257
0.00728878
0.00722359
0.00715696
0.00708885
0.0070192
0.00694795
0.00687506
0.00680045
0.00672405
0.00664578
0.00656556
0.00648328
0.00639884
0.00631211
0.00622295
0.0061312
0.00603668
0.00593918
0.00583844
0.00573419
0.00562607
0.0055137
0.0053966
0.00527426
0.00514606
0.00501127
0.00486896
0.00471796
0.00455681
0.00438361
0.00419596
0.00399073
0.00376368
0.00350925
0.0032202
0.00288694
0.00249551
0.00202615
0.00145213
0.000749159
7.67689e-05
0.000117451
0.00116752
0.00227091
0.00318429
0.00394783
0.0046011
0.00517165
0.00567821
0.00613371
0.00654735
0.00692586
0.0072743
0.00759656
0.00789573
0.0081743
0.00843432
0.00867751
0.00890534
0.00911909
0.00931988
0.00950868
0.00968639
0.00985379
0.0100116
0.0101605
0.010301
0.0104338
0.0105593
0.010678
0.0107902
0.0108965
0.0109971
0.0110924
0.0111827
0.0112683
0.0113494
0.0114263
0.0114992
0.0115684
0.0116339
0.0116959
0.0117547
0.0118104
0.0118629
0.0119126
0.0119595
0.0120037
0.0120456
0.012085
0.0121223
0.0121575
0.0121906
0.0122219
0.0122513
0.012279
0.0123049
0.0123293
0.0123521
0.0123733
0.0123932
0.0124116
0.0124287
0.0124446
0.0124591
0.0124724
0.0124846
0.0124956
0.0125056
0.0125144
0.0125223
0.0125291
0.0125349
0.0125398
0.0125437
0.0125468
0.0125489
0.0125502
0.0125507
0.0125503
0.0125491
0.0125471
0.0125443
0.0125407
0.0125364
0.0125313
0.0125254
0.0125189
0.0125116
0.0125035
0.0124948
0.0124853
0.0124751
0.0124643
0.0124527
0.0124404
0.0124273
0.0124136
0.0123992
0.012384
0.0123682
0.0123516
0.0123343
0.0123162
0.0122974
0.0122779
0.0122576
0.0122366
0.0122148
0.0121922
0.0121689
0.0121447
0.0121198
0.012094
0.0120674
0.01204
0.0120117
0.0119826
0.0119526
0.0119217
0.0118899
0.0118572
0.0118236
0.011789
0.0117535
0.011717
0.0116795
0.0116411
0.0116016
0.011561
0.0115194
0.0114768
0.011433
0.0113881
0.0113421
0.011295
0.0112467
0.0111972
0.0111465
0.0110946
0.0110414
0.010987
0.0109312
0.0108742
0.0108157
0.010756
0.0106948
0.0106322
0.0105681
0.0105026
0.0104355
0.0103669
0.0102968
0.010225
0.0101515
0.0100764
0.00999946
0.00992077
0.00984025
0.00975785
0.00967349
0.00958714
0.00949871
0.00940814
0.00931536
0.00922027
0.0091228
0.00902283
0.00892026
0.00881497
0.00870683
0.00859568
0.00848136
0.00836368
0.00824243
0.00811736
0.00798822
0.00785467
0.00771636
0.00757286
0.00742368
0.00726826
0.00710591
0.00693588
0.00675723
0.00656886
0.00636942
0.00615725
0.00593027
0.0056859
0.00542089
0.00513108
0.00481115
0.00445435
0.00405186
0.00359263
0.00306187
0.00244053
0.0017066
0.000851516
8.42399e-05
0.000117452
0.00116752
0.00227093
0.00318433
0.00394788
0.00460115
0.0051717
0.00567826
0.00613376
0.0065474
0.00692591
0.00727435
0.00759661
0.00789578
0.00817435
0.00843436
0.00867755
0.00890539
0.00911914
0.00931992
0.00950872
0.00968642
0.00985382
0.0100116
0.0101605
0.0103011
0.0104338
0.0105593
0.010678
0.0107903
0.0108965
0.0109971
0.0110924
0.0111827
0.0112683
0.0113494
0.0114263
0.0114992
0.0115684
0.0116339
0.011696
0.0117547
0.0118104
0.011863
0.0119126
0.0119595
0.0120038
0.0120456
0.0120851
0.0121223
0.0121575
0.0121906
0.0122219
0.0122513
0.012279
0.0123049
0.0123293
0.0123521
0.0123733
0.0123932
0.0124116
0.0124287
0.0124446
0.0124591
0.0124724
0.0124846
0.0124956
0.0125056
0.0125144
0.0125223
0.0125291
0.0125349
0.0125398
0.0125437
0.0125468
0.0125489
0.0125502
0.0125507
0.0125503
0.0125491
0.012547
0.0125443
0.0125407
0.0125364
0.0125313
0.0125254
0.0125189
0.0125116
0.0125035
0.0124948
0.0124853
0.0124751
0.0124643
0.0124527
0.0124404
0.0124273
0.0124136
0.0123992
0.012384
0.0123682
0.0123516
0.0123343
0.0123162
0.0122974
0.0122779
0.0122576
0.0122366
0.0122148
0.0121922
0.0121689
0.0121447
0.0121198
0.012094
0.0120674
0.01204
0.0120117
0.0119826
0.0119526
0.0119217
0.0118899
0.0118572
0.0118236
0.011789
0.0117535
0.011717
0.0116795
0.0116411
0.0116016
0.011561
0.0115194
0.0114768
0.011433
0.0113881
0.0113421
0.011295
0.0112467
0.0111972
0.0111465
0.0110946
0.0110414
0.010987
0.0109312
0.0108742
0.0108157
0.010756
0.0106948
0.0106322
0.0105681
0.0105026
0.0104355
0.0103669
0.0102968
0.010225
0.0101515
0.0100763
0.00999945
0.00992077
0.00984025
0.00975784
0.00967349
0.00958713
0.0094987
0.00940814
0.00931535
0.00922027
0.00912279
0.00902282
0.00892025
0.00881497
0.00870682
0.00859567
0.00848135
0.00836367
0.00824242
0.00811736
0.00798821
0.00785466
0.00771635
0.00757285
0.00742368
0.00726825
0.00710591
0.00693587
0.00675722
0.00656886
0.00636942
0.00615725
0.00593027
0.0056859
0.00542089
0.00513108
0.00481114
0.00445435
0.00405186
0.00359263
0.00306187
0.00244053
0.0017066
0.000851515
8.424e-05
0.000126106
0.00126475
0.00250734
0.00356621
0.00446728
0.00524708
0.00593344
0.00654627
0.00709982
0.00760442
0.00806773
0.00849555
0.00889238
0.00926178
0.00960661
0.00992925
0.0102317
0.0105156
0.0107826
0.0110337
0.0112703
0.0114934
0.0117038
0.0119024
0.01209
0.0122674
0.0124351
0.0125938
0.012744
0.0128862
0.0130211
0.0131488
0.01327
0.013385
0.0134941
0.0135976
0.0136959
0.0137893
0.013878
0.0139622
0.0140422
0.0141181
0.0141902
0.0142586
0.0143234
0.0143849
0.0144432
0.0144985
0.014551
0.0146007
0.0146479
0.0146925
0.0147349
0.014775
0.0148129
0.0148488
0.0148826
0.0149146
0.0149448
0.0149731
0.0149998
0.0150248
0.0150483
0.0150702
0.0150906
0.0151096
0.0151272
0.0151434
0.0151583
0.015172
0.0151844
0.0151956
0.0152056
0.0152145
0.0152223
0.0152289
0.0152345
0.015239
0.0152425
0.015245
0.0152465
0.015247
0.0152465
0.0152451
0.0152427
0.0152394
0.0152352
0.01523
0.0152239
0.015217
0.0152091
0.0152003
0.0151906
0.01518
0.0151685
0.0151562
0.0151429
0.0151287
0.0151136
0.0150976
0.0150807
0.0150628
0.0150441
0.0150244
0.0150037
0.0149821
0.0149596
0.014936
0.0149115
0.014886
0.0148594
0.0148319
0.0148033
0.0147737
0.014743
0.0147112
0.0146784
0.0146444
0.0146093
0.0145731
0.0145357
0.0144972
0.0144574
0.0144164
0.0143742
0.0143307
0.014286
0.0142399
0.0141926
0.0141439
0.0140938
0.0140423
0.0139895
0.0139352
0.0138794
0.0138221
0.0137634
0.013703
0.0136411
0.0135777
0.0135125
0.0134457
0.0133773
0.0133071
0.0132351
0.0131613
0.0130857
0.0130082
0.0129288
0.0128475
0.0127641
0.0126787
0.0125912
0.0125015
0.0124096
0.0123154
0.0122189
0.0121201
0.0120187
0.0119148
0.0118082
0.011699
0.0115869
0.0114719
0.0113538
0.0112326
0.0111081
0.0109802
0.0108487
0.0107133
0.010574
0.0104304
0.0102824
0.0101296
0.00997177
0.00980847
0.00963929
0.00946377
0.00928134
0.00909135
0.00889306
0.00868559
0.00846792
0.00823883
0.00799688
0.00774032
0.00746703
0.00717443
0.00685933
0.00651781
0.00614499
0.00573479
0.00527963
0.00476998
0.00419405
0.00353762
0.00278349
0.00191477
0.000935618
9.05525e-05
0.000126106
0.00126476
0.00250736
0.00356624
0.00446733
0.00524713
0.00593349
0.00654633
0.00709988
0.00760448
0.00806779
0.00849561
0.00889244
0.00926183
0.00960666
0.00992931
0.0102317
0.0105157
0.0107826
0.0110338
0.0112704
0.0114934
0.0117038
0.0119024
0.0120901
0.0122674
0.0124351
0.0125938
0.012744
0.0128863
0.0130211
0.0131489
0.01327
0.013385
0.0134941
0.0135976
0.013696
0.0137893
0.013878
0.0139622
0.0140422
0.0141181
0.0141902
0.0142586
0.0143234
0.0143849
0.0144432
0.0144985
0.014551
0.0146007
0.0146479
0.0146925
0.0147349
0.014775
0.0148129
0.0148488
0.0148826
0.0149146
0.0149448
0.0149731
0.0149998
0.0150248
0.0150483
0.0150702
0.0150906
0.0151096
0.0151272
0.0151434
0.0151583
0.015172
0.0151844
0.0151956
0.0152056
0.0152145
0.0152223
0.0152289
0.0152345
0.015239
0.0152425
0.015245
0.0152465
0.015247
0.0152465
0.0152451
0.0152427
0.0152394
0.0152352
0.01523
0.0152239
0.015217
0.0152091
0.0152003
0.0151906
0.01518
0.0151685
0.0151562
0.0151429
0.0151287
0.0151136
0.0150976
0.0150807
0.0150628
0.0150441
0.0150244
0.0150037
0.0149821
0.0149595
0.014936
0.0149115
0.014886
0.0148594
0.0148319
0.0148033
0.0147737
0.014743
0.0147112
0.0146784
0.0146444
0.0146093
0.0145731
0.0145357
0.0144971
0.0144574
0.0144164
0.0143742
0.0143307
0.014286
0.0142399
0.0141926
0.0141439
0.0140938
0.0140423
0.0139895
0.0139352
0.0138794
0.0138221
0.0137633
0.013703
0.0136411
0.0135776
0.0135125
0.0134457
0.0133773
0.0133071
0.0132351
0.0131613
0.0130857
0.0130082
0.0129288
0.0128475
0.0127641
0.0126787
0.0125912
0.0125015
0.0124096
0.0123154
0.0122189
0.0121201
0.0120187
0.0119148
0.0118082
0.011699
0.0115869
0.0114719
0.0113538
0.0112326
0.0111081
0.0109802
0.0108486
0.0107133
0.010574
0.0104304
0.0102824
0.0101296
0.00997177
0.00980846
0.00963929
0.00946376
0.00928133
0.00909134
0.00889305
0.00868558
0.00846791
0.00823882
0.00799687
0.00774031
0.00746703
0.00717442
0.00685933
0.00651781
0.00614499
0.00573479
0.00527962
0.00476998
0.00419405
0.00353762
0.00278349
0.00191477
0.000935616
9.05525e-05
0.000133775
0.00134803
0.00270245
0.00387897
0.00489337
0.00577924
0.00656409
0.00726841
0.00790723
0.00849169
0.00903011
0.00952883
0.0099928
0.0104259
0.0108314
0.0112117
0.0115692
0.0119056
0.0122226
0.0125216
0.0128038
0.0130704
0.0133224
0.0135607
0.0137862
0.0139997
0.0142019
0.0143935
0.0145751
0.0147474
0.0149108
0.0150659
0.0152132
0.0153531
0.015486
0.0156124
0.0157325
0.0158468
0.0159554
0.0160588
0.0161572
0.0162507
0.0163398
0.0164244
0.0165049
0.0165815
0.0166543
0.0167236
0.0167895
0.0168522
0.0169118
0.0169685
0.0170224
0.0170737
0.0171224
0.0171687
0.0172126
0.0172543
0.0172938
0.0173312
0.0173666
0.0174001
0.0174317
0.0174615
0.0174896
0.017516
0.0175407
0.0175638
0.0175854
0.0176055
0.0176241
0.0176412
0.017657
0.0176715
0.0176846
0.0176964
0.0177069
0.0177162
0.0177242
0.0177311
0.0177367
0.0177412
0.0177445
0.0177467
0.0177478
0.0177477
0.0177465
0.0177442
0.0177409
0.0177364
0.0177308
0.0177242
0.0177165
0.0177077
0.0176978
0.0176869
0.0176748
0.0176617
0.0176475
0.0176321
0.0176157
0.0175982
0.0175795
0.0175597
0.0175388
0.0175167
0.0174935
0.017469
0.0174434
0.0174166
0.0173886
0.0173593
0.0173288
0.017297
0.017264
0.0172296
0.0171939
0.0171569
0.0171185
0.0170788
0.0170376
0.016995
0.016951
0.0169055
0.0168585
0.01681
0.0167599
0.0167083
0.016655
0.0166002
0.0165436
0.0164854
0.0164255
0.0163638
0.0163004
0.0162351
0.016168
0.0160991
0.0160282
0.0159553
0.0158805
0.0158036
0.0157247
0.0156437
0.0155605
0.015475
0.0153874
0.0152974
0.0152051
0.0151104
0.0150132
0.0149135
0.0148112
0.0147062
0.0145985
0.014488
0.0143746
0.0142582
0.0141388
0.0140162
0.0138904
0.0137611
0.0136284
0.013492
0.0133519
0.0132078
0.0130596
0.0129071
0.0127501
0.0125884
0.0124217
0.0122497
0.0120721
0.0118886
0.0116987
0.011502
0.0112979
0.011086
0.0108654
0.0106353
0.010395
0.0101432
0.00987869
0.00960006
0.00930553
0.00899299
0.00865994
0.00830335
0.00791957
0.00750416
0.0070517
0.0065556
0.00600784
0.00539864
0.00471629
0.00394727
0.00307655
0.00209194
0.00100776
9.60776e-05
0.000133775
0.00134804
0.00270247
0.00387901
0.00489342
0.0057793
0.00656415
0.00726847
0.0079073
0.00849175
0.00903017
0.00952889
0.00999286
0.010426
0.0108314
0.0112118
0.0115693
0.0119057
0.0122227
0.0125217
0.0128039
0.0130705
0.0133225
0.0135608
0.0137863
0.0139997
0.0142019
0.0143935
0.0145751
0.0147474
0.0149108
0.0150659
0.0152132
0.0153531
0.015486
0.0156124
0.0157325
0.0158468
0.0159555
0.0160588
0.0161572
0.0162508
0.0163398
0.0164244
0.0165049
0.0165815
0.0166543
0.0167236
0.0167895
0.0168522
0.0169118
0.0169685
0.0170224
0.0170737
0.0171224
0.0171687
0.0172126
0.0172543
0.0172938
0.0173312
0.0173666
0.0174001
0.0174317
0.0174615
0.0174896
0.017516
0.0175407
0.0175638
0.0175854
0.0176055
0.0176241
0.0176412
0.017657
0.0176715
0.0176846
0.0176964
0.0177069
0.0177162
0.0177242
0.0177311
0.0177367
0.0177412
0.0177445
0.0177467
0.0177477
0.0177477
0.0177465
0.0177442
0.0177409
0.0177364
0.0177308
0.0177242
0.0177165
0.0177077
0.0176978
0.0176869
0.0176748
0.0176617
0.0176475
0.0176321
0.0176157
0.0175982
0.0175795
0.0175597
0.0175388
0.0175167
0.0174934
0.017469
0.0174434
0.0174166
0.0173886
0.0173593
0.0173288
0.017297
0.017264
0.0172296
0.0171939
0.0171569
0.0171185
0.0170788
0.0170376
0.016995
0.016951
0.0169055
0.0168585
0.01681
0.0167599
0.0167082
0.016655
0.0166001
0.0165436
0.0164854
0.0164255