/*--------------------------------*- C++ -*----------------------------------*\
  =========                 |
  \\      /  F ield         | OpenFOAM: The Open Source CFD Toolbox
   \\    /   O peration     | Website:  https://openfoam.org
    \\  /    A nd           | Version:  8
     \\/     M anipulation  |
\*---------------------------------------------------------------------------*/
FoamFile
{
    version     2.0;
    format      ascii;
    class       volScalarField;
    location    "3600";
    object      k;
}
// * * * * * * * * * * * * * * * * * * * * * * * * * * * * * * * * * * * * * //

dimensions      [0 2 -2 0 0 0 0];

internalField   nonuniform List<scalar> 
48000
(
0.0285342
0.0732946
0.112321
0.14641
0.178507
0.207954
0.235313
0.261039
0.285912
0.309849
0.332905
0.355209
0.376822
0.397792
0.418153
0.437932
0.457146
0.475807
0.493922
0.511494
0.528525
0.545015
0.560961
0.576363
0.591219
0.605525
0.619283
0.63249
0.645148
0.657257
0.66882
0.67984
0.690321
0.700269
0.70969
0.718591
0.726981
0.734869
0.742264
0.749177
0.755619
0.761601
0.767132
0.772229
0.777001
0.781375
0.78535
0.788939
0.792156
0.795015
0.797533
0.799722
0.801597
0.803173
0.804461
0.805477
0.806232
0.806739
0.80701
0.807056
0.80689
0.806521
0.80596
0.805217
0.804301
0.803221
0.801987
0.800605
0.799085
0.797433
0.795656
0.79376
0.791753
0.78964
0.787426
0.785116
0.782715
0.780228
0.777659
0.775012
0.772289
0.769496
0.766633
0.763705
0.760714
0.757663
0.754552
0.751385
0.748163
0.744888
0.74156
0.738182
0.734754
0.731277
0.727752
0.724179
0.720559
0.716893
0.71318
0.709422
0.705617
0.701766
0.69787
0.693926
0.689937
0.6859
0.681817
0.677686
0.673507
0.669279
0.665002
0.660676
0.656299
0.651871
0.647392
0.642861
0.638276
0.633638
0.628946
0.624198
0.619395
0.614535
0.609618
0.604643
0.59961
0.594518
0.589366
0.584154
0.578882
0.573548
0.568152
0.562695
0.557175
0.551592
0.545947
0.540238
0.534467
0.528632
0.522733
0.516772
0.510747
0.50466
0.49851
0.492298
0.486024
0.479688
0.473292
0.466835
0.460319
0.453744
0.447111
0.44042
0.433674
0.426872
0.420015
0.413106
0.406144
0.399131
0.392067
0.384955
0.377795
0.370588
0.363335
0.356037
0.348695
0.341311
0.333884
0.326415
0.318905
0.311354
0.303762
0.29613
0.288456
0.280739
0.272979
0.265175
0.257323
0.249421
0.241467
0.233459
0.2254
0.217316
0.209204
0.201
0.192683
0.184239
0.175646
0.166878
0.157905
0.148684
0.139164
0.129289
0.119074
0.108321
0.0968555
0.0844265
0.0706259
0.0547425
0.0356983
0.020572
0.0285364
0.0732965
0.112322
0.146412
0.178509
0.207955
0.235315
0.261041
0.285913
0.30985
0.332906
0.35521
0.376823
0.397792
0.418154
0.437933
0.457147
0.475808
0.493923
0.511495
0.528526
0.545016
0.560962
0.576364
0.591219
0.605526
0.619283
0.632491
0.645148
0.657257
0.66882
0.67984
0.690321
0.700269
0.70969
0.718591
0.726981
0.734869
0.742264
0.749178
0.755619
0.761601
0.767132
0.77223
0.777001
0.781375
0.78535
0.788939
0.792156
0.795016
0.797533
0.799722
0.801597
0.803173
0.804461
0.805477
0.806232
0.806739
0.80701
0.807056
0.80689
0.806521
0.80596
0.805217
0.804301
0.803221
0.801987
0.800605
0.799085
0.797432
0.795656
0.79376
0.791753
0.78964
0.787426
0.785116
0.782715
0.780228
0.777659
0.775012
0.772289
0.769496
0.766633
0.763705
0.760714
0.757663
0.754552
0.751385
0.748163
0.744888
0.74156
0.738182
0.734754
0.731277
0.727751
0.724179
0.720559
0.716893
0.71318
0.709422
0.705617
0.701766
0.697869
0.693926
0.689937
0.6859
0.681817
0.677686
0.673507
0.669279
0.665002
0.660676
0.656299
0.651871
0.647392
0.642861
0.638276
0.633638
0.628945
0.624198
0.619395
0.614535
0.609618
0.604643
0.59961
0.594518
0.589366
0.584154
0.578882
0.573548
0.568152
0.562695
0.557175
0.551592
0.545947
0.540238
0.534467
0.528632
0.522733
0.516772
0.510747
0.50466
0.49851
0.492298
0.486024
0.479688
0.473292
0.466835
0.460319
0.453744
0.447111
0.44042
0.433674
0.426872
0.420015
0.413106
0.406144
0.39913
0.392067
0.384955
0.377795
0.370588
0.363335
0.356037
0.348695
0.341311
0.333884
0.326415
0.318905
0.311354
0.303762
0.29613
0.288456
0.280739
0.272979
0.265175
0.257323
0.249421
0.241467
0.233459
0.2254
0.217316
0.209204
0.201
0.192683
0.184239
0.175646
0.166878
0.157905
0.148684
0.139164
0.129289
0.119074
0.108321
0.0968556
0.0844265
0.0706258
0.0547423
0.035699
0.0205725
0.0744154
0.18762
0.267271
0.337506
0.401881
0.462343
0.519685
0.574297
0.626769
0.677424
0.726483
0.774115
0.820438
0.865539
0.909477
0.952293
0.99401
1.03464
1.07419
1.11264
1.15001
1.18626
1.2214
1.2554
1.28826
1.31995
1.35048
1.37983
1.40798
1.43495
1.46073
1.48531
1.50871
1.53093
1.55198
1.57188
1.59063
1.60826
1.62479
1.64023
1.65462
1.66797
1.68031
1.69166
1.70207
1.71157
1.72018
1.72795
1.73488
1.74103
1.74642
1.75107
1.75504
1.75833
1.761
1.76305
1.76453
1.76546
1.76586
1.76577
1.76521
1.7642
1.76277
1.76094
1.75872
1.75615
1.75324
1.75
1.74646
1.74263
1.73853
1.73417
1.72956
1.72473
1.71968
1.71442
1.70896
1.70332
1.6975
1.69151
1.68536
1.67905
1.6726
1.66601
1.65929
1.65244
1.64546
1.63836
1.63114
1.62382
1.61638
1.60883
1.60118
1.59343
1.58557
1.57762
1.56956
1.56141
1.55317
1.54482
1.53638
1.52784
1.51921
1.51048
1.50165
1.49272
1.4837
1.47457
1.46534
1.45602
1.44659
1.43705
1.42741
1.41766
1.40781
1.39784
1.38777
1.37758
1.36728
1.35686
1.34632
1.33566
1.32489
1.31399
1.30297
1.29183
1.28056
1.26916
1.25764
1.24599
1.23421
1.2223
1.21025
1.19808
1.18577
1.17333
1.16076
1.14806
1.13522
1.12225
1.10915
1.09591
1.08255
1.06906
1.05543
1.04168
1.0278
1.0138
0.999672
0.985422
0.971052
0.956563
0.941958
0.927238
0.912407
0.897465
0.882416
0.867262
0.852005
0.836648
0.821193
0.805642
0.789998
0.774263
0.758438
0.742527
0.726529
0.710447
0.694282
0.678033
0.661702
0.645288
0.628789
0.612203
0.595529
0.578762
0.561898
0.544929
0.52785
0.510651
0.493322
0.475852
0.458219
0.440388
0.422337
0.404048
0.385471
0.366564
0.347263
0.327495
0.307161
0.286136
0.264254
0.241348
0.217122
0.191162
0.162838
0.131066
0.0931743
0.0368923
0.0744163
0.187622
0.267272
0.337507
0.401882
0.462344
0.519686
0.574298
0.62677
0.677425
0.726484
0.774115
0.820438
0.865539
0.909477
0.952293
0.99401
1.03464
1.07419
1.11264
1.15001
1.18626
1.2214
1.2554
1.28826
1.31995
1.35048
1.37982
1.40798
1.43495
1.46073
1.48531
1.50871
1.53093
1.55198
1.57188
1.59063
1.60826
1.62479
1.64023
1.65462
1.66797
1.68031
1.69166
1.70207
1.71157
1.72018
1.72794
1.73488
1.74103
1.74641
1.75107
1.75504
1.75833
1.76099
1.76305
1.76453
1.76546
1.76586
1.76577
1.76521
1.7642
1.76277
1.76094
1.75872
1.75615
1.75323
1.75
1.74646
1.74263
1.73853
1.73417
1.72956
1.72473
1.71968
1.71442
1.70896
1.70332
1.6975
1.69151
1.68536
1.67905
1.6726
1.66601
1.65929
1.65244
1.64546
1.63836
1.63114
1.62381
1.61638
1.60883
1.60118
1.59343
1.58557
1.57762
1.56956
1.56141
1.55316
1.54482
1.53638
1.52784
1.51921
1.51048
1.50165
1.49272
1.48369
1.47457
1.46534
1.45602
1.44659
1.43705
1.42741
1.41766
1.40781
1.39784
1.38777
1.37758
1.36727
1.35686
1.34632
1.33566
1.32489
1.31399
1.30297
1.29183
1.28056
1.26916
1.25764
1.24599
1.23421
1.22229
1.21025
1.19808
1.18577
1.17333
1.16076
1.14805
1.13522
1.12225
1.10915
1.09591
1.08255
1.06906
1.05543
1.04168
1.0278
1.0138
0.999671
0.985421
0.971051
0.956563
0.941957
0.927238
0.912406
0.897465
0.882416
0.867261
0.852004
0.836647
0.821192
0.805641
0.789997
0.774262
0.758438
0.742526
0.726529
0.710447
0.694281
0.678033
0.661702
0.645287
0.628788
0.612203
0.595529
0.578762
0.561897
0.544929
0.52785
0.51065
0.493322
0.475851
0.458219
0.440388
0.422337
0.404047
0.385471
0.366564
0.347263
0.327494
0.307161
0.286135
0.264254
0.241347
0.217121
0.191161
0.162838
0.131065
0.0931745
0.0368917
0.112472
0.267556
0.367347
0.452692
0.531031
0.605031
0.675742
0.74372
0.809372
0.87298
0.934749
0.994832
1.05334
1.11037
1.16596
1.22017
1.273
1.32449
1.37461
1.42338
1.47077
1.51678
1.56138
1.60455
1.64628
1.68656
1.72536
1.76267
1.79848
1.83279
1.86559
1.89688
1.92666
1.95495
1.98175
2.00708
2.03096
2.0534
2.07443
2.09408
2.11238
2.12935
2.14503
2.15946
2.17268
2.18472
2.19563
2.20544
2.21419
2.22192
2.22868
2.2345
2.23943
2.24349
2.24674
2.24921
2.25093
2.25195
2.25229
2.252
2.2511
2.24963
2.24761
2.24508
2.24206
2.23857
2.23466
2.23033
2.22561
2.22052
2.21509
2.20933
2.20325
2.19689
2.19024
2.18334
2.17618
2.16879
2.16118
2.15335
2.14532
2.1371
2.12869
2.12011
2.11136
2.10245
2.09338
2.08416
2.0748
2.0653
2.05566
2.04589
2.03599
2.02596
2.0158
2.00553
1.99513
1.98461
1.97397
1.96321
1.95233
1.94134
1.93022
1.91899
1.90764
1.89616
1.88457
1.87285
1.861
1.84904
1.83694
1.82472
1.81237
1.79988
1.78727
1.77451
1.76162
1.74859
1.73542
1.72211
1.70865
1.69505
1.6813
1.66739
1.65334
1.63913
1.62477
1.61025
1.59558
1.58074
1.56574
1.55059
1.53527
1.51979
1.50414
1.48833
1.47236
1.45622
1.43992
1.42346
1.40683
1.39004
1.37309
1.35598
1.33871
1.32128
1.30369
1.28595
1.26806
1.25002
1.23182
1.21349
1.195
1.17638
1.15762
1.13872
1.1197
1.10054
1.08126
1.06185
1.04232
1.02268
1.00292
0.983051
0.963072
0.942986
0.922795
0.902501
0.882105
0.861608
0.84101
0.82031
0.799507
0.778599
0.757583
0.736454
0.715207
0.693834
0.672327
0.650674
0.628862
0.606875
0.58469
0.562278
0.539607
0.516641
0.493328
0.469633
0.445483
0.420795
0.395465
0.36936
0.342304
0.3141
0.284442
0.252881
0.218677
0.180323
0.133287
0.0569341
0.112472
0.267556
0.367348
0.452692
0.531032
0.605031
0.675742
0.74372
0.809372
0.87298
0.934749
0.994832
1.05334
1.11037
1.16596
1.22017
1.273
1.32449
1.37461
1.42338
1.47077
1.51678
1.56138
1.60455
1.64628
1.68656
1.72536
1.76267
1.79848
1.83279
1.86559
1.89688
1.92666
1.95495
1.98175
2.00708
2.03096
2.0534
2.07443
2.09408
2.11238
2.12935
2.14503
2.15946
2.17267
2.18472
2.19562
2.20544
2.21419
2.22192
2.22868
2.2345
2.23942
2.24349
2.24674
2.24921
2.25093
2.25195
2.25229
2.252
2.2511
2.24963
2.24761
2.24508
2.24205
2.23857
2.23466
2.23033
2.22561
2.22052
2.21509
2.20933
2.20325
2.19689
2.19024
2.18334
2.17618
2.16879
2.16118
2.15335
2.14532
2.1371
2.12869
2.12011
2.11136
2.10245
2.09338
2.08416
2.0748
2.0653
2.05566
2.04589
2.03598
2.02596
2.0158
2.00552
1.99513
1.98461
1.97397
1.96321
1.95233
1.94134
1.93022
1.91899
1.90763
1.89616
1.88456
1.87285
1.861
1.84904
1.83694
1.82472
1.81237
1.79988
1.78726
1.77451
1.76162
1.74859
1.73542
1.72211
1.70865
1.69505
1.6813
1.66739
1.65334
1.63913
1.62477
1.61025
1.59557
1.58074
1.56574
1.55059
1.53527
1.51979
1.50414
1.48833
1.47236
1.45622
1.43992
1.42346
1.40683
1.39004
1.37309
1.35598
1.33871
1.32128
1.30369
1.28595
1.26806
1.25002
1.23182
1.21348
1.195
1.17638
1.15762
1.13872
1.1197
1.10054
1.08126
1.06185
1.04232
1.02268
1.00292
0.98305
0.963071
0.942985
0.922794
0.902501
0.882105
0.861607
0.841009
0.820309
0.799506
0.778598
0.757582
0.736454
0.715207
0.693834
0.672326
0.650674
0.628862
0.606875
0.584689
0.562277
0.539607
0.51664
0.493328
0.469633
0.445483
0.420795
0.395465
0.36936
0.342304
0.3141
0.284442
0.252881
0.218677
0.180323
0.133287
0.0569345
0.144322
0.335622
0.451745
0.548003
0.636033
0.719279
0.799084
0.876093
0.950684
1.02311
1.09353
1.1621
1.2289
1.294
1.35748
1.41935
1.47965
1.53838
1.59556
1.65117
1.7052
1.75765
1.80849
1.8577
1.90528
1.95119
1.99543
2.03797
2.07882
2.11796
2.15538
2.1911
2.2251
2.2574
2.288
2.31693
2.34421
2.36985
2.39388
2.41633
2.43723
2.45662
2.47454
2.49101
2.5061
2.51984
2.53227
2.54344
2.55339
2.56218
2.56983
2.57641
2.58195
2.5865
2.5901
2.5928
2.59465
2.59568
2.59593
2.59544
2.59425
2.5924
2.58991
2.58684
2.5832
2.57903
2.57435
2.5692
2.5636
2.55758
2.55115
2.54435
2.53719
2.5297
2.52188
2.51376
2.50536
2.49669
2.48776
2.47859
2.46918
2.45956
2.44973
2.4397
2.42947
2.41906
2.40848
2.39772
2.38681
2.37573
2.3645
2.35311
2.34159
2.32991
2.3181
2.30615
2.29406
2.28184
2.26948
2.25699
2.24436
2.2316
2.21871
2.20569
2.19253
2.17923
2.1658
2.15223
2.13853
2.12468
2.11069
2.09656
2.08228
2.06785
2.05328
2.03855
2.02367
2.00863
1.99344
1.97808
1.96256
1.94688
1.93103
1.91502
1.89883
1.88247
1.86594
1.84923
1.83235
1.81528
1.79804
1.78062
1.76301
1.74522
1.72725
1.7091
1.69076
1.67224
1.65353
1.63464
1.61557
1.59631
1.57687
1.55725
1.53746
1.51749
1.49734
1.47701
1.45652
1.43586
1.41503
1.39404
1.37288
1.35157
1.33011
1.30849
1.28672
1.26481
1.24276
1.22057
1.19825
1.17579
1.15321
1.1305
1.10767
1.08472
1.06165
1.03847
1.01518
0.991767
0.968245
0.94461
0.920861
0.896996
0.87301
0.848901
0.824661
0.800284
0.77576
0.751077
0.726221
0.701175
0.675915
0.650415
0.624642
0.598559
0.572121
0.545274
0.517948
0.490068
0.461534
0.432211
0.401929
0.37046
0.337498
0.302534
0.264656
0.221832
0.167728
0.0739192
0.144323
0.335622
0.451745
0.548003
0.636032
0.719279
0.799084
0.876093
0.950684
1.02311
1.09353
1.1621
1.2289
1.294
1.35748
1.41935
1.47965
1.53838
1.59556
1.65117
1.7052
1.75765
1.80849
1.8577
1.90528
1.95119
1.99543
2.03797
2.07882
2.11796
2.15538
2.19109
2.2251
2.25739
2.288
2.31693
2.34421
2.36985
2.39388
2.41633
2.43723
2.45662
2.47453
2.49101
2.5061
2.51983
2.53227
2.54344
2.55339
2.56217
2.56983
2.5764
2.58194
2.58649
2.5901
2.5928
2.59465
2.59567
2.59592
2.59544
2.59425
2.59239
2.58991
2.58684
2.5832
2.57903
2.57435
2.5692
2.5636
2.55758
2.55115
2.54435
2.53719
2.5297
2.52188
2.51376
2.50536
2.49669
2.48776
2.47859
2.46918
2.45956
2.44973
2.43969
2.42947
2.41906
2.40848
2.39772
2.3868
2.37573
2.3645
2.35311
2.34158
2.32991
2.3181
2.30615
2.29406
2.28184
2.26948
2.25699
2.24436
2.2316
2.21871
2.20569
2.19253
2.17923
2.1658
2.15223
2.13853
2.12468
2.11069
2.09656
2.08228
2.06785
2.05328
2.03855
2.02367
2.00863
1.99344
1.97808
1.96256
1.94688
1.93103
1.91502
1.89883
1.88247
1.86594
1.84923
1.83235
1.81528
1.79804
1.78062
1.76301
1.74522
1.72725
1.7091
1.69076
1.67224
1.65353
1.63464
1.61556
1.59631
1.57687
1.55725
1.53746
1.51748
1.49734
1.47701
1.45652
1.43586
1.41503
1.39404
1.37288
1.35157
1.3301
1.30849
1.28672
1.26481
1.24276
1.22057
1.19825
1.17579
1.15321
1.1305
1.10767
1.08472
1.06165
1.03847
1.01518
0.991766
0.968245
0.94461
0.920861
0.896995
0.87301
0.8489
0.824661
0.800284
0.77576
0.751077
0.726221
0.701174
0.675914
0.650414
0.624642
0.598559
0.57212
0.545273
0.517948
0.490068
0.461534
0.432211
0.401929
0.37046
0.337498
0.302534
0.264656
0.221833
0.167728
0.0739193
0.17304
0.39692
0.52868
0.63533
0.731935
0.823003
0.910284
0.994578
1.0763
1.1557
1.23294
1.30814
1.38138
1.45273
1.52224
1.58994
1.65588
1.72006
1.78249
1.84317
1.9021
1.95927
2.01466
2.06828
2.12009
2.17009
2.21826
2.2646
2.30908
2.35171
2.39248
2.4314
2.46846
2.50367
2.53705
2.5686
2.59836
2.62634
2.65258
2.67709
2.69991
2.72109
2.74066
2.75866
2.77513
2.79013
2.8037
2.81589
2.82674
2.8363
2.84463
2.85176
2.85776
2.86266
2.86653
2.8694
2.87132
2.87234
2.8725
2.87185
2.87042
2.86825
2.8654
2.86188
2.85774
2.85301
2.84773
2.84192
2.83561
2.82884
2.82162
2.81398
2.80595
2.79755
2.78879
2.7797
2.7703
2.76059
2.75061
2.74036
2.72985
2.7191
2.70813
2.69693
2.68552
2.67391
2.6621
2.65011
2.63794
2.6256
2.61309
2.60041
2.58758
2.57459
2.56144
2.54814
2.5347
2.52111
2.50737
2.49349
2.47946
2.46529
2.45097
2.43651
2.4219
2.40715
2.39225
2.3772
2.362
2.34665
2.33114
2.31548
2.29966
2.28368
2.26754
2.25124
2.23477
2.21813
2.20132
2.18434
2.16718
2.14984
2.13233
2.11463
2.09675
2.07868
2.06042
2.04198
2.02334
2.00451
1.98548
1.96626
1.94685
1.92723
1.90742
1.88741
1.8672
1.84679
1.82618
1.80537
1.78437
1.76317
1.74177
1.72017
1.69839
1.67641
1.65424
1.63188
1.60934
1.58662
1.56371
1.54063
1.51737
1.49394
1.47035
1.44659
1.42267
1.39859
1.37436
1.34998
1.32546
1.30079
1.27598
1.25104
1.22596
1.20075
1.17542
1.14996
1.12437
1.09867
1.07284
1.04689
1.02081
0.994615
0.968287
0.941826
0.915227
0.888482
0.861582
0.834515
0.807268
0.779822
0.752157
0.724247
0.696061
0.667563
0.638708
0.609445
0.579708
0.549418
0.518473
0.486739
0.454048
0.420151
0.384699
0.347097
0.306213
0.259458
0.198838
0.089018
0.173041
0.39692
0.528679
0.63533
0.731935
0.823003
0.910284
0.994577
1.0763
1.1557
1.23294
1.30814
1.38138
1.45273
1.52223
1.58994
1.65588
1.72006
1.78249
1.84317
1.9021
1.95927
2.01466
2.06828
2.12009
2.17009
2.21826
2.2646
2.30908
2.35171
2.39248
2.4314
2.46846
2.50367
2.53705
2.5686
2.59836
2.62634
2.65257
2.67709
2.69991
2.72109
2.74066
2.75866
2.77513
2.79013
2.8037
2.81589
2.82674
2.8363
2.84462
2.85176
2.85776
2.86266
2.86653
2.8694
2.87132
2.87234
2.8725
2.87184
2.87042
2.86825
2.8654
2.86188
2.85774
2.85301
2.84773
2.84192
2.83561
2.82883
2.82162
2.81398
2.80595
2.79754
2.78879
2.7797
2.7703
2.76059
2.75061
2.74036
2.72985
2.7191
2.70812
2.69693
2.68552
2.67391
2.6621
2.65011
2.63794
2.6256
2.61309
2.60041
2.58758
2.57459
2.56144
2.54814
2.5347
2.52111
2.50737
2.49349
2.47946
2.46529
2.45097
2.43651
2.4219
2.40715
2.39225
2.3772
2.362
2.34664
2.33114
2.31548
2.29966
2.28368
2.26754
2.25124
2.23477
2.21813
2.20132
2.18434
2.16718
2.14984
2.13233
2.11463
2.09675
2.07868
2.06042
2.04198
2.02334
2.00451
1.98548
1.96626
1.94685
1.92723
1.90742
1.88741
1.8672
1.84679
1.82618
1.80537
1.78437
1.76317
1.74177
1.72017
1.69839
1.67641
1.65424
1.63188
1.60934
1.58662
1.56371
1.54063
1.51737
1.49394
1.47035
1.44659
1.42267
1.39859
1.37436
1.34998
1.32546
1.30079
1.27598
1.25103
1.22596
1.20075
1.17542
1.14996
1.12437
1.09867
1.07284
1.04689
1.02081
0.994614
0.968287
0.941826
0.915227
0.888482
0.861582
0.834515
0.807268
0.779822
0.752157
0.724247
0.696061
0.667562
0.638708
0.609445
0.579708
0.549418
0.518473
0.486739
0.454048
0.420151
0.384699
0.347097
0.306213
0.259458
0.198838
0.089018
0.199481
0.454677
0.601507
0.718433
0.823301
0.921655
1.01569
1.10641
1.19431
1.27966
1.36265
1.44337
1.52193
1.59838
1.67277
1.74515
1.81556
1.88401
1.95052
2.01511
2.07779
2.13855
2.19738
2.25429
2.30927
2.36231
2.41341
2.46254
2.50972
2.55493
2.59818
2.63946
2.67879
2.71616
2.7516
2.78512
2.81674
2.84648
2.87437
2.90044
2.92473
2.94726
2.96809
2.98726
3.00481
3.02078
3.03523
3.0482
3.05975
3.06992
3.07877
3.08635
3.0927
3.09789
3.10196
3.10496
3.10695
3.10796
3.10805
3.10726
3.10564
3.10323
3.10006
3.09619
3.09165
3.08647
3.08069
3.07434
3.06746
3.06007
3.0522
3.04388
3.03513
3.02598
3.01645
3.00656
2.99633
2.98578
2.97493
2.96378
2.95236
2.94068
2.92875
2.91659
2.9042
2.89159
2.87877
2.86575
2.85254
2.83914
2.82557
2.81181
2.79789
2.78379
2.76954
2.75512
2.74054
2.72581
2.71091
2.69587
2.68067
2.66531
2.64981
2.63414
2.61832
2.60235
2.58622
2.56993
2.55348
2.53687
2.5201
2.50316
2.48605
2.46877
2.45132
2.4337
2.4159
2.39792
2.37976
2.36142
2.34289
2.32417
2.30526
2.28616
2.26686
2.24736
2.22767
2.20777
2.18767
2.16736
2.14685
2.12613
2.10521
2.08407
2.06272
2.04116
2.01939
1.99741
1.97522
1.95281
1.9302
1.90737
1.88434
1.8611
1.83765
1.814
1.79015
1.7661
1.74185
1.71741
1.69277
1.66795
1.64294
1.61774
1.59237
1.56682
1.5411
1.51522
1.48916
1.46295
1.43658
1.41006
1.38339
1.35657
1.32961
1.30251
1.27527
1.24789
1.22039
1.19275
1.16497
1.13707
1.10904
1.08087
1.05256
1.02412
0.995528
0.966784
0.937878
0.9088
0.879537
0.850071
0.820383
0.790449
0.76024
0.729721
0.69885
0.667577
0.635837
0.603552
0.570618
0.536899
0.502209
0.466273
0.428672
0.388718
0.345041
0.294517
0.227652
0.10286
0.199482
0.454677
0.601506
0.718432
0.823301
0.921655
1.01569
1.10641
1.1943
1.27966
1.36265
1.44337
1.52193
1.59837
1.67277
1.74515
1.81555
1.88401
1.95052
2.01511
2.07779
2.13854
2.19738
2.25429
2.30927
2.36231
2.41341
2.46254
2.50972
2.55493
2.59818
2.63946
2.67879
2.71616
2.7516
2.78512
2.81674
2.84648
2.87437
2.90044
2.92472
2.94726
2.96809
2.98726
3.00481
3.02078
3.03523
3.0482
3.05975
3.06992
3.07877
3.08635
3.0927
3.09789
3.10196
3.10496
3.10695
3.10796
3.10805
3.10726
3.10564
3.10323
3.10006
3.09619
3.09165
3.08647
3.08069
3.07434
3.06746
3.06006
3.0522
3.04388
3.03513
3.02598
3.01645
3.00656
2.99633
2.98578
2.97493
2.96378
2.95236
2.94068
2.92875
2.91659
2.90419
2.89159
2.87877
2.86575
2.85254
2.83914
2.82557
2.81181
2.79789
2.78379
2.76954
2.75512
2.74054
2.72581
2.71091
2.69587
2.68067
2.66531
2.6498
2.63414
2.61832
2.60235
2.58622
2.56993
2.55348
2.53687
2.5201
2.50316
2.48605
2.46877
2.45132
2.4337
2.4159
2.39792
2.37976
2.36142
2.34289
2.32417
2.30526
2.28616
2.26686
2.24736
2.22767
2.20777
2.18767
2.16736
2.14685
2.12613
2.1052
2.08407
2.06272
2.04116
2.01939
1.99741
1.97521
1.95281
1.9302
1.90737
1.88434
1.8611
1.83765
1.814
1.79015
1.7661
1.74185
1.71741
1.69277
1.66795
1.64294
1.61774
1.59237
1.56682
1.5411
1.51522
1.48916
1.46295
1.43658
1.41006
1.38339
1.35657
1.32961
1.30251
1.27527
1.24789
1.22038
1.19275
1.16497
1.13707
1.10904
1.08087
1.05256
1.02412
0.995528
0.966784
0.937878
0.9088
0.879537
0.850071
0.820383
0.790449
0.76024
0.729721
0.69885
0.667577
0.635837
0.603552
0.570618
0.536899
0.502209
0.466273
0.428672
0.388718
0.345041
0.294517
0.227652
0.10286
0.224483
0.509898
0.671741
0.798956
0.91201
1.01743
1.11785
1.21451
1.30799
1.39865
1.48667
1.57218
1.65527
1.73601
1.81446
1.89068
1.9647
2.03658
2.10632
2.17397
2.23953
2.30303
2.36447
2.42386
2.4812
2.53649
2.58974
2.64093
2.69008
2.73718
2.78224
2.82525
2.86624
2.90521
2.94216
2.97713
3.01013
3.04118
3.07031
3.09755
3.12294
3.14651
3.1683
3.18836
3.20673
3.22346
3.23859
3.25218
3.26428
3.27493
3.2842
3.29212
3.29877
3.30419
3.30843
3.31154
3.31358
3.31459
3.31463
3.31374
3.31197
3.30936
3.30595
3.3018
3.29693
3.29139
3.2852
3.27842
3.27107
3.26317
3.25477
3.24589
3.23656
3.22679
3.21662
3.20607
3.19516
3.18391
3.17233
3.16044
3.14826
3.1358
3.12308
3.1101
3.09689
3.08344
3.06977
3.05589
3.0418
3.02752
3.01304
2.99838
2.98353
2.96851
2.95331
2.93794
2.92241
2.9067
2.89083
2.8748
2.8586
2.84225
2.82572
2.80904
2.79219
2.77518
2.758
2.74066
2.72314
2.70546
2.6876
2.66957
2.65137
2.63298
2.61442
2.59567
2.57674
2.55762
2.5383
2.5188
2.4991
2.4792
2.4591
2.43879
2.41829
2.39757
2.37664
2.35551
2.33416
2.31259
2.29081
2.26881
2.24659
2.22415
2.20149
2.17861
2.15551
2.13218
2.10863
2.08486
2.06087
2.03666
2.01223
1.98758
1.96272
1.93763
1.91234
1.88684
1.86113
1.83521
1.80909
1.78277
1.75625
1.72954
1.70264
1.67555
1.64828
1.62083
1.59321
1.56541
1.53745
1.50932
1.48104
1.45259
1.424
1.39525
1.36635
1.33731
1.30813
1.2788
1.24933
1.21973
1.18998
1.16008
1.13005
1.09986
1.06952
1.03902
1.00835
0.977506
0.94647
0.91523
0.883765
0.852054
0.82007
0.787779
0.755141
0.722105
0.688608
0.65457
0.619882
0.584399
0.547914
0.510121
0.470532
0.428334
0.381928
0.327694
0.254774
0.115795
0.224484
0.509899
0.671741
0.798956
0.91201
1.01743
1.11785
1.2145
1.30799
1.39865
1.48667
1.57218
1.65527
1.73601
1.81446
1.89068
1.9647
2.03657
2.10632
2.17397
2.23953
2.30303
2.36447
2.42386
2.4812
2.53649
2.58973
2.64093
2.69008
2.73718
2.78224
2.82525
2.86624
2.90521
2.94216
2.97713
3.01013
3.04118
3.07031
3.09755
3.12294
3.14651
3.1683
3.18836
3.20673
3.22346
3.23859
3.25218
3.26428
3.27493
3.28419
3.29212
3.29877
3.30419
3.30842
3.31154
3.31358
3.31459
3.31463
3.31374
3.31197
3.30936
3.30595
3.3018
3.29693
3.29139
3.2852
3.27842
3.27107
3.26317
3.25477
3.24589
3.23656
3.22679
3.21662
3.20607
3.19516
3.1839
3.17232
3.16044
3.14826
3.1358
3.12308
3.1101
3.09689
3.08344
3.06977
3.05589
3.0418
3.02752
3.01304
2.99838
2.98353
2.96851
2.95331
2.93794
2.92241
2.9067
2.89083
2.8748
2.8586
2.84224
2.82572
2.80904
2.79219
2.77518
2.758
2.74066
2.72314
2.70546
2.6876
2.66957
2.65137
2.63298
2.61442
2.59567
2.57674
2.55762
2.5383
2.5188
2.4991
2.4792
2.4591
2.43879
2.41828
2.39757
2.37664
2.35551
2.33416
2.31259
2.29081
2.26881
2.24659
2.22415
2.20149
2.17861
2.1555
2.13218
2.10863
2.08486
2.06087
2.03666
2.01223
1.98758
1.96271
1.93763
1.91234
1.88684
1.86112
1.83521
1.80909
1.78277
1.75625
1.72954
1.70264
1.67555
1.64828
1.62083
1.59321
1.56541
1.53745
1.50932
1.48104
1.45259
1.424
1.39525
1.36635
1.33731
1.30813
1.2788
1.24933
1.21973
1.18998
1.16008
1.13004
1.09986
1.06952
1.03902
1.00835
0.977505
0.94647
0.915229
0.883765
0.852054
0.82007
0.787779
0.755141
0.722105
0.688608
0.65457
0.619882
0.584399
0.547914
0.510121
0.470532
0.428334
0.381928
0.327695
0.254774
0.115795
0.249395
0.563681
0.740343
0.877818
0.999021
1.11138
1.21798
1.32025
1.41893
1.51442
1.60695
1.69668
1.78371
1.86812
1.95
2.0294
2.10638
2.181
2.2533
2.32333
2.39111
2.45668
2.52006
2.58127
2.64032
2.69724
2.75202
2.80467
2.85521
2.90365
2.94998
2.99422
3.03637
3.07646
3.11449
3.15049
3.18448
3.21647
3.2465
3.2746
3.30079
3.32513
3.34764
3.36836
3.38735
3.40465
3.42031
3.43437
3.44689
3.45792
3.46752
3.47572
3.4826
3.48821
3.49258
3.49579
3.49788
3.4989
3.49891
3.49795
3.49606
3.4933
3.48971
3.48533
3.48021
3.47437
3.46787
3.46074
3.45301
3.44471
3.43588
3.42654
3.41672
3.40646
3.39577
3.38467
3.3732
3.36136
3.34918
3.33668
3.32386
3.31076
3.29738
3.28372
3.26982
3.25567
3.24129
3.22668
3.21186
3.19683
3.18159
3.16616
3.15054
3.13473
3.11873
3.10256
3.08621
3.06968
3.05298
3.03611
3.01906
3.00185
2.98446
2.96691
2.94918
2.93128
2.9132
2.89496
2.87653
2.85793
2.83915
2.82018
2.80103
2.7817
2.76217
2.74246
2.72255
2.70245
2.68214
2.66164
2.64093
2.62001
2.59889
2.57755
2.556
2.53423
2.51225
2.49004
2.46761
2.44496
2.42208
2.39897
2.37564
2.35208
2.32828
2.30426
2.28
2.25551
2.23079
2.20584
2.18066
2.15525
2.1296
2.10373
2.07763
2.05131
2.02477
1.998
1.97101
1.94381
1.9164
1.88877
1.86094
1.8329
1.80466
1.77623
1.7476
1.71878
1.68978
1.66059
1.63122
1.60168
1.57197
1.54209
1.51204
1.48184
1.45147
1.42095
1.39027
1.35944
1.32845
1.29732
1.26603
1.23459
1.203
1.17125
1.13933
1.10725
1.07499
1.04255
1.00992
0.977071
0.944
0.910681
0.877088
0.843191
0.808947
0.774308
0.739207
0.703561
0.667254
0.630127
0.591951
0.552379
0.510858
0.46644
0.417324
0.359425
0.280609
0.12806
0.249396
0.563682
0.740343
0.877818
0.99902
1.11138
1.21798
1.32025
1.41893
1.51442
1.60695
1.69668
1.78371
1.86812
1.95
2.0294
2.10638
2.181
2.2533
2.32333
2.39111
2.45668
2.52006
2.58127
2.64032
2.69724
2.75202
2.80467
2.85521
2.90365
2.94998
2.99421
3.03637
3.07646
3.11449
3.15049
3.18448
3.21647
3.2465
3.2746
3.30079
3.32513
3.34764
3.36836
3.38735
3.40465
3.42031
3.43437
3.44689
3.45792
3.46751
3.47572
3.4826
3.4882
3.49258
3.49579
3.49788
3.4989
3.49891
3.49795
3.49606
3.4933
3.48971
3.48533
3.4802
3.47437
3.46787
3.46074
3.45301
3.44471
3.43587
3.42654
3.41672
3.40646
3.39577
3.38467
3.3732
3.36136
3.34918
3.33668
3.32386
3.31076
3.29737
3.28372
3.26982
3.25567
3.24129
3.22668
3.21186
3.19683
3.18159
3.16616
3.15054
3.13473
3.11873
3.10256
3.08621
3.06968
3.05298
3.03611
3.01906
3.00185
2.98446
2.96691
2.94918
2.93128
2.9132
2.89496
2.87653
2.85793
2.83915
2.82018
2.80103
2.7817
2.76217
2.74246
2.72255
2.70245
2.68214
2.66164
2.64093
2.62001
2.59889
2.57755
2.556
2.53423
2.51225
2.49004
2.46761
2.44496
2.42208
2.39897
2.37564
2.35208
2.32828
2.30426
2.28
2.25551
2.23079
2.20584
2.18066
2.15525
2.1296
2.10373
2.07763
2.05131
2.02477
1.998
1.97101
1.94381
1.9164
1.88877
1.86094
1.8329
1.80466
1.77623
1.7476
1.71878
1.68978
1.66059
1.63122
1.60168
1.57197
1.54209
1.51204
1.48184
1.45147
1.42095
1.39027
1.35944
1.32845
1.29732
1.26603
1.23459
1.203
1.17124
1.13933
1.10725
1.07499
1.04255
1.00992
0.977071
0.943999
0.910681
0.877088
0.843191
0.808947
0.774308
0.739207
0.703561
0.667254
0.630127
0.591951
0.552379
0.510858
0.46644
0.417324
0.359425
0.28061
0.12806
0.273878
0.616592
0.807895
0.955585
1.0849
1.20411
1.31672
1.42437
1.52793
1.62789
1.72452
1.81802
1.9085
1.99608
2.08086
2.1629
2.2423
2.31911
2.39341
2.46526
2.5347
2.60178
2.66655
2.72904
2.78928
2.84729
2.9031
2.95672
3.00817
3.05747
3.10463
3.14966
3.19258
3.2334
3.27214
3.30882
3.34346
3.37609
3.40672
3.43541
3.46216
3.48703
3.51004
3.53125
3.55069
3.5684
3.58444
3.59886
3.61169
3.62301
3.63285
3.64128
3.64834
3.65409
3.65858
3.66187
3.66401
3.66505
3.66503
3.66402
3.66205
3.65918
3.65545
3.6509
3.64558
3.63952
3.63277
3.62536
3.61733
3.60872
3.59954
3.58984
3.57964
3.56897
3.55786
3.54632
3.53439
3.52208
3.50941
3.4964
3.48307
3.46943
3.4555
3.4413
3.42682
3.41209
3.39712
3.38191
3.36647
3.35081
3.33494
3.31887
3.30259
3.28612
3.26945
3.2526
3.23556
3.21834
3.20094
3.18335
3.16559
3.14765
3.12953
3.11123
3.09275
3.07409
3.05526
3.03624
3.01703
2.99764
2.97807
2.9583
2.93835
2.9182
2.89785
2.8773
2.85656
2.83561
2.81445
2.79308
2.77151
2.74972
2.72771
2.70548
2.68303
2.66035
2.63745
2.61432
2.59096
2.56737
2.54354
2.51948
2.49518
2.47064
2.44586
2.42085
2.39559
2.37009
2.34435
2.31837
2.29215
2.26569
2.23899
2.21205
2.18488
2.15747
2.12983
2.10196
2.07385
2.04553
2.01697
1.9882
1.95921
1.93
1.90058
1.87096
1.84112
1.81109
1.78086
1.75043
1.71982
1.68901
1.65802
1.62685
1.59551
1.56399
1.5323
1.50044
1.46841
1.43621
1.40385
1.37133
1.33865
1.3058
1.27278
1.23959
1.20624
1.1727
1.13899
1.10508
1.07097
1.03664
1.00209
0.967282
0.932199
0.896807
0.861068
0.824928
0.788321
0.751154
0.713304
0.674596
0.634774
0.593452
0.550007
0.50337
0.451535
0.389983
0.305381
0.139857
0.273879
0.616593
0.807895
0.955584
1.0849
1.20411
1.31672
1.42437
1.52793
1.62789
1.72452
1.81801
1.9085
1.99608
2.08086
2.1629
2.2423
2.31911
2.39341
2.46526
2.5347
2.60178
2.66655
2.72904
2.78928
2.84729
2.9031
2.95672
3.00817
3.05747
3.10463
3.14966
3.19258
3.2334
3.27214
3.30882
3.34346
3.37608
3.40672
3.43541
3.46216
3.48703
3.51004
3.53125
3.55069
3.5684
3.58444
3.59886
3.61169
3.62301
3.63285
3.64128
3.64834
3.65409
3.65858
3.66187
3.66401
3.66505
3.66503
3.66402
3.66205
3.65918
3.65545
3.6509
3.64558
3.63952
3.63277
3.62536
3.61733
3.60872
3.59954
3.58984
3.57964
3.56897
3.55786
3.54632
3.53439
3.52208
3.50941
3.4964
3.48307
3.46943
3.4555
3.4413
3.42682
3.41209
3.39712
3.38191
3.36647
3.35081
3.33494
3.31887
3.30259
3.28612
3.26945
3.2526
3.23556
3.21834
3.20094
3.18335
3.16559
3.14765
3.12953
3.11123
3.09275
3.07409
3.05525
3.03623
3.01703
2.99764
2.97807
2.9583
2.93835
2.91819
2.89785
2.8773
2.85656
2.83561
2.81445
2.79308
2.77151
2.74971
2.72771
2.70548
2.68303
2.66035
2.63745
2.61432
2.59096
2.56737
2.54354
2.51948
2.49518
2.47064
2.44586
2.42085
2.39559
2.37009
2.34435
2.31837
2.29215
2.26569
2.23899
2.21205
2.18488
2.15747
2.12983
2.10196
2.07385
2.04553
2.01697
1.9882
1.95921
1.93
1.90058
1.87096
1.84112
1.81109
1.78086
1.75043
1.71982
1.68901
1.65802
1.62685
1.59551
1.56399
1.5323
1.50043
1.46841
1.43621
1.40385
1.37133
1.33865
1.3058
1.27278
1.23959
1.20624
1.1727
1.13899
1.10508
1.07097
1.03664
1.00209
0.967282
0.932198
0.896807
0.861068
0.824928
0.78832
0.751154
0.713304
0.674596
0.634775
0.593452
0.550007