/*--------------------------------*- C++ -*----------------------------------*\
  =========                 |
  \\      /  F ield         | OpenFOAM: The Open Source CFD Toolbox
   \\    /   O peration     | Website:  https://openfoam.org
    \\  /    A nd           | Version:  8
     \\/     M anipulation  |
\*---------------------------------------------------------------------------*/
FoamFile
{
    version     2.0;
    format      ascii;
    class       surfaceScalarField;
    location    "3600";
    object      phi;
}
// * * * * * * * * * * * * * * * * * * * * * * * * * * * * * * * * * * * * * //

dimensions      [1 0 -1 0 0 0 0];

internalField   nonuniform List<scalar> 
119360
(
-3.54167e-07
-1.56542e-12
3.54168e-07
-6.27001e-07
1.26854e-12
2.72781e-07
-7.58506e-07
1.65706e-12
1.31489e-07
-7.60508e-07
4.38535e-14
1.99042e-09
-6.66041e-07
-1.47143e-12
-9.44768e-08
-5.05209e-07
-2.5405e-12
-1.6084e-07
-3.00132e-07
-2.84692e-12
-2.05085e-07
-6.66064e-08
-2.79166e-12
-2.33533e-07
1.83747e-07
-2.45512e-12
-2.50361e-07
4.42369e-07
-2.00168e-12
-2.58631e-07
7.03555e-07
-1.54779e-12
-2.61193e-07
9.63331e-07
-1.15993e-12
-2.59784e-07
1.21884e-06
-8.40744e-13
-2.55513e-07
1.46799e-06
-5.83089e-13
-2.49166e-07
1.70929e-06
-3.78919e-13
-2.41301e-07
1.94161e-06
-2.19796e-13
-2.3233e-07
2.16416e-06
-9.80322e-14
-2.22561e-07
2.37639e-06
-6.96613e-15
-2.12234e-07
2.57791e-06
5.93697e-14
-2.01535e-07
2.76852e-06
1.05888e-13
-1.90612e-07
2.9481e-06
1.36947e-13
-1.79585e-07
3.11664e-06
1.56029e-13
-1.68551e-07
3.27422e-06
1.66132e-13
-1.57592e-07
3.42099e-06
1.69629e-13
-1.46774e-07
3.55713e-06
1.68505e-13
-1.36151e-07
3.6829e-06
1.64231e-13
-1.2577e-07
3.79856e-06
1.5793e-13
-1.15668e-07
3.90443e-06
1.50394e-13
-1.05877e-07
4.00084e-06
1.42331e-13
-9.64213e-08
4.08816e-06
1.34074e-13
-8.73207e-08
4.16674e-06
1.26108e-13
-7.85906e-08
4.23698e-06
1.18476e-13
-7.02423e-08
4.29925e-06
1.11329e-13
-6.2283e-08
4.35396e-06
1.04626e-13
-5.4717e-08
4.4015e-06
9.845e-14
-4.75455e-08
4.44226e-06
9.28712e-14
-4.07672e-08
4.47664e-06
8.77087e-14
-3.43784e-08
4.505e-06
8.30874e-14
-2.83733e-08
4.52774e-06
7.8827e-14
-2.27445e-08
4.54522e-06
7.49135e-14
-1.7483e-08
4.55779e-06
7.14302e-14
-1.25784e-08
4.56581e-06
6.81689e-14
-8.01975e-09
4.56959e-06
6.52546e-14
-3.79461e-09
4.56948e-06
6.2604e-14
1.11648e-10
4.56576e-06
6.02586e-14
3.71246e-09
4.55873e-06
5.80937e-14
7.02095e-09
4.54868e-06
5.61231e-14
1.00524e-08
4.53585e-06
5.44023e-14
1.28217e-08
4.5205e-06
5.28896e-14
1.53432e-08
4.50286e-06
5.15713e-14
1.76312e-08
4.48316e-06
5.035e-14
1.96998e-08
4.46159e-06
4.93231e-14
2.15628e-08
4.43835e-06
4.84072e-14
2.32339e-08
4.41362e-06
4.76578e-14
2.47262e-08
4.38757e-06
4.7075e-14
2.60523e-08
4.36034e-06
4.65892e-14
2.72246e-08
4.33208e-06
4.61729e-14
2.82548e-08
4.30292e-06
4.5937e-14
2.9154e-08
4.27298e-06
4.57705e-14
2.99329e-08
4.24237e-06
4.56317e-14
3.06016e-08
4.2112e-06
4.56456e-14
3.11696e-08
4.17955e-06
4.56595e-14
3.16457e-08
4.14751e-06
4.57983e-14
3.20383e-08
4.11515e-06
4.59648e-14
3.23552e-08
4.08254e-06
4.6173e-14
3.26038e-08
4.04974e-06
4.64089e-14
3.27906e-08
4.01682e-06
4.67281e-14
3.29221e-08
3.98381e-06
4.70612e-14
3.30039e-08
3.95076e-06
4.74359e-14
3.30415e-08
3.91772e-06
4.78244e-14
3.30396e-08
3.88471e-06
4.82408e-14
3.30029e-08
3.85177e-06
4.86849e-14
3.29354e-08
3.81893e-06
4.91428e-14
3.2841e-08
3.7862e-06
4.95591e-14
3.2723e-08
3.75361e-06
4.99616e-14
3.25846e-08
3.72118e-06
5.04334e-14
3.24288e-08
3.68891e-06
5.09469e-14
3.22581e-08
3.65683e-06
5.14049e-14
3.20748e-08
3.62495e-06
5.18906e-14
3.18813e-08
3.59327e-06
5.2293e-14
3.16794e-08
3.56179e-06
5.28342e-14
3.1471e-08
3.53053e-06
5.32089e-14
3.12576e-08
3.49948e-06
5.3653e-14
3.10408e-08
3.46866e-06
5.41526e-14
3.0822e-08
3.43805e-06
5.4555e-14
3.06023e-08
3.40766e-06
5.49991e-14
3.0383e-08
3.37749e-06
5.53876e-14
3.01651e-08
3.34754e-06
5.58456e-14
2.99494e-08
3.3178e-06
5.62203e-14
2.9737e-08
3.28826e-06
5.65533e-14
2.95287e-08
3.25893e-06
5.6928e-14
2.93251e-08
3.2298e-06
5.73165e-14
2.91271e-08
3.20086e-06
5.76357e-14
2.89352e-08
3.17211e-06
5.79549e-14
2.87501e-08
3.14353e-06
5.82463e-14
2.85724e-08
3.11512e-06
5.84683e-14
2.84025e-08
3.08688e-06
5.8732e-14
2.82411e-08
3.05878e-06
5.90511e-14
2.80887e-08
3.03083e-06
5.9287e-14
2.79456e-08
3.00302e-06
5.95091e-14
2.78124e-08
2.97532e-06
5.96617e-14
2.76894e-08
2.94774e-06
5.99531e-14
2.75771e-08
2.92026e-06
6.0189e-14
2.7476e-08
2.89287e-06
6.03971e-14
2.73863e-08
2.86556e-06
6.06053e-14
2.73084e-08
2.83831e-06
6.09106e-14
2.72428e-08
2.81112e-06
6.11326e-14
2.71898e-08
2.78396e-06
6.13685e-14
2.71497e-08
2.75683e-06
6.14934e-14
2.71228e-08
2.72972e-06
6.17431e-14
2.71096e-08
2.7026e-06
6.19513e-14
2.71102e-08
2.67547e-06
6.22566e-14
2.71251e-08
2.64832e-06
6.24647e-14
2.71545e-08
2.62111e-06
6.26729e-14
2.71987e-08
2.59385e-06
6.29504e-14
2.7258e-08
2.56651e-06
6.32418e-14
2.73327e-08
2.53908e-06
6.36026e-14
2.74231e-08
2.51155e-06
6.40189e-14
2.75294e-08
2.48389e-06
6.42826e-14
2.76518e-08
2.4561e-06
6.47267e-14
2.77906e-08
2.42815e-06
6.51846e-14
2.7946e-08
2.40002e-06
6.56425e-14
2.81183e-08
2.37171e-06
6.62115e-14
2.83075e-08
2.34319e-06
6.6725e-14
2.8514e-08
2.31445e-06
6.72801e-14
2.87378e-08
2.28546e-06
6.79462e-14
2.89792e-08
2.25622e-06
6.85845e-14
2.92381e-08
2.2267e-06
6.93617e-14
2.95148e-08
2.19689e-06
7.01943e-14
2.98093e-08
2.16676e-06
7.10547e-14
3.01216e-08
2.1363e-06
7.19707e-14
3.04518e-08
2.1055e-06
7.29698e-14
3.07999e-08
2.07433e-06
7.3969e-14
3.11658e-08
2.04277e-06
7.51625e-14
3.15495e-08
2.01082e-06
7.63837e-14
3.19509e-08
1.97844e-06
7.76882e-14
3.23697e-08
1.94563e-06
7.89372e-14
3.28059e-08
1.91236e-06
8.03527e-14
3.32592e-08
1.87863e-06
8.17405e-14
3.37293e-08
1.84441e-06
8.3267e-14
3.42158e-08
1.80968e-06
8.47658e-14
3.47185e-08
1.77444e-06
8.63201e-14
3.52367e-08
1.73867e-06
8.79577e-14
3.57702e-08
1.70234e-06
8.97063e-14
3.63182e-08
1.66546e-06
9.15937e-14
3.68801e-08
1.62799e-06
9.34533e-14
3.74552e-08
1.58995e-06
9.55072e-14
3.80427e-08
1.5513e-06
9.77554e-14
3.86418e-08
1.51204e-06
1.00142e-13
3.92514e-08
1.47216e-06
1.02668e-13
3.98705e-08
1.43166e-06
1.05582e-13
4.04978e-08
1.39052e-06
1.0858e-13
4.11322e-08
1.34874e-06
1.11911e-13
4.17721e-08
1.30632e-06
1.15519e-13
4.24161e-08
1.26325e-06
1.19377e-13
4.30625e-08
1.21953e-06
1.23568e-13
4.37093e-08
1.17517e-06
1.28092e-13
4.43545e-08
1.13017e-06
1.32866e-13
4.49961e-08
1.08453e-06
1.37834e-13
4.56314e-08
1.03826e-06
1.43052e-13
4.6258e-08
9.91383e-07
1.4827e-13
4.68728e-08
9.43903e-07
1.53572e-13
4.74727e-08
8.95841e-07
1.5879e-13
4.80542e-08
8.47219e-07
1.63647e-13
4.86134e-08
7.98064e-07
1.68143e-13
4.9146e-08
7.48408e-07
1.71779e-13
4.96473e-08
6.98287e-07
1.74555e-13
5.01121e-08
6.47744e-07
1.76026e-13
5.05345e-08
5.96826e-07
1.76109e-13
5.0908e-08
5.45591e-07
1.74749e-13
5.12254e-08
4.94103e-07
1.72223e-13
5.14784e-08
4.42435e-07
1.6856e-13
5.16578e-08
3.90672e-07
1.64702e-13
5.17533e-08
3.38909e-07
1.61149e-13
5.17529e-08
2.87255e-07
1.59095e-13
5.16434e-08
2.35835e-07
1.59706e-13
5.14093e-08
1.84791e-07
1.6398e-13
5.10329e-08
1.34286e-07
1.72723e-13
5.04939e-08
8.45072e-08
1.85657e-13
4.97675e-08
3.56713e-08
2.02005e-13
4.88243e-08
-1.1966e-08
2.19103e-13
4.76254e-08
-5.80902e-08
2.32814e-13
4.6112e-08
-1.02347e-07
2.42584e-13
4.42445e-08
-1.44351e-07
2.47913e-13
4.1991e-08
-1.83659e-07
2.46359e-13
3.92951e-08
-2.19748e-07
2.36977e-13
3.60757e-08
-2.52e-07
2.19547e-13
3.22381e-08
-2.79691e-07
1.9651e-13
2.76776e-08
-3.01965e-07
1.72473e-13
2.22595e-08
-3.17808e-07
1.55709e-13
1.58293e-08
-3.26026e-07
1.57707e-13
8.20399e-09
-3.25222e-07
1.84797e-13
-8.18947e-10
-3.13842e-07
2.32481e-13
-1.13965e-08
-2.90211e-07
2.78722e-13
-2.36473e-08
-2.52681e-07
2.9593e-13
-3.75474e-08
-2.00144e-07
2.98261e-13
-5.25559e-08
-1.33307e-07
3.46723e-13
-6.68575e-08
-5.758e-08
3.87912e-13
-7.57502e-08
4.41029e-09
3.35065e-13
-6.20244e-08
-6.61701e-14
4.35724e-09
-3.54289e-07
3.54258e-07
-6.27128e-07
2.72796e-07
-7.586e-07
1.31458e-07
-7.60561e-07
1.94767e-09
-6.66063e-07
-9.45132e-08
-5.05212e-07
-1.60865e-07
-3.00127e-07
-2.051e-07
-6.65988e-08
-2.33543e-07
1.83754e-07
-2.50368e-07
4.42376e-07
-2.58635e-07
7.03559e-07
-2.61196e-07
9.63334e-07
-2.59786e-07
1.21884e-06
-2.55515e-07
1.46799e-06
-2.49167e-07
1.70929e-06
-2.41302e-07
1.94161e-06
-2.32331e-07
2.16416e-06
-2.22562e-07
2.37639e-06
-2.12235e-07
2.57791e-06
-2.01536e-07
2.76852e-06
-1.90613e-07
2.94809e-06
-1.79586e-07
3.11664e-06
-1.68552e-07
3.27422e-06
-1.57593e-07
3.42099e-06
-1.46775e-07
3.55713e-06
-1.36152e-07
3.68289e-06
-1.25771e-07
3.79856e-06
-1.15669e-07
3.90443e-06
-1.05878e-07
4.00084e-06
-9.64221e-08
4.08815e-06
-8.73215e-08
4.16674e-06
-7.85915e-08
4.23697e-06
-7.02431e-08
4.29925e-06
-6.22838e-08
4.35396e-06
-5.47178e-08
4.4015e-06
-4.75463e-08
4.44226e-06
-4.0768e-08
4.47663e-06
-3.43792e-08
4.505e-06
-2.83741e-08
4.52774e-06
-2.27453e-08
4.54522e-06
-1.74837e-08
4.55779e-06
-1.25792e-08
4.5658e-06
-8.02051e-09
4.56959e-06
-3.79537e-09
4.56948e-06
1.10892e-10
4.56576e-06
3.7117e-09
4.55873e-06
7.0202e-09
4.54867e-06
1.00517e-08
4.53585e-06
1.28209e-08
4.5205e-06
1.53424e-08
4.50286e-06
1.76304e-08
4.48316e-06
1.96991e-08
4.46159e-06
2.15621e-08
4.43835e-06
2.32332e-08
4.41362e-06
2.47254e-08
4.38756e-06
2.60516e-08
4.36033e-06
2.72239e-08
4.33208e-06
2.8254e-08
4.30292e-06
2.91533e-08
4.27298e-06
2.99322e-08
4.24237e-06
3.06009e-08
4.2112e-06
3.11689e-08
4.17955e-06
3.1645e-08
4.14751e-06
3.20376e-08
4.11515e-06
3.23545e-08
4.08254e-06
3.26031e-08
4.04974e-06
3.279e-08
4.01682e-06
3.29214e-08
3.98381e-06
3.30033e-08
3.95076e-06
3.30408e-08
3.91772e-06
3.3039e-08
3.88471e-06
3.30023e-08
3.85177e-06
3.29348e-08
3.81893e-06
3.28403e-08
3.7862e-06
3.27223e-08
3.75361e-06
3.2584e-08
3.72118e-06
3.24281e-08
3.68891e-06
3.22574e-08
3.65683e-06
3.20742e-08
3.62495e-06
3.18806e-08
3.59326e-06
3.16787e-08
3.56179e-06
3.14703e-08
3.53053e-06
3.12569e-08
3.49948e-06
3.10402e-08
3.46866e-06
3.08213e-08
3.43805e-06
3.06017e-08
3.40766e-06
3.03823e-08
3.37749e-06
3.01644e-08
3.34754e-06
2.99488e-08
3.3178e-06
2.97364e-08
3.28826e-06
2.9528e-08
3.25893e-06
2.93245e-08
3.2298e-06
2.91264e-08
3.20086e-06
2.89345e-08
3.17211e-06
2.87494e-08
3.14353e-06
2.85717e-08
3.11512e-06
2.84019e-08
3.08688e-06
2.82405e-08
3.05878e-06
2.8088e-08
3.03083e-06
2.79449e-08
3.00302e-06
2.78117e-08
2.97532e-06
2.76887e-08
2.94774e-06
2.75765e-08
2.92026e-06
2.74753e-08
2.89287e-06
2.73856e-08
2.86556e-06
2.73078e-08
2.83831e-06
2.72421e-08
2.81112e-06
2.71891e-08
2.78396e-06
2.7149e-08
2.75683e-06
2.71221e-08
2.72972e-06
2.71089e-08
2.7026e-06
2.71095e-08
2.67547e-06
2.71244e-08
2.64831e-06
2.71538e-08
2.62111e-06
2.7198e-08
2.59385e-06
2.72573e-08
2.56651e-06
2.7332e-08
2.53908e-06
2.74224e-08
2.51155e-06
2.75286e-08
2.48389e-06
2.76511e-08
2.4561e-06
2.77899e-08
2.42815e-06
2.79453e-08
2.40002e-06
2.81175e-08
2.37171e-06
2.83068e-08
2.34319e-06
2.85133e-08
2.31445e-06
2.87371e-08
2.28546e-06
2.89784e-08
2.25622e-06
2.92374e-08
2.2267e-06
2.9514e-08
2.19689e-06
2.98085e-08
2.16676e-06
3.01208e-08
2.1363e-06
3.04511e-08
2.1055e-06
3.07991e-08
2.07433e-06
3.11651e-08
2.04277e-06
3.15487e-08
2.01082e-06
3.19501e-08
1.97844e-06
3.23689e-08
1.94563e-06
3.28051e-08
1.91236e-06
3.32584e-08
1.87863e-06
3.37284e-08
1.84441e-06
3.4215e-08
1.80968e-06
3.47176e-08
1.77444e-06
3.52359e-08
1.73867e-06
3.57693e-08
1.70234e-06
3.63173e-08
1.66546e-06
3.68792e-08
1.62799e-06
3.74543e-08
1.58995e-06
3.80418e-08
1.5513e-06
3.86409e-08
1.51204e-06
3.92505e-08
1.47216e-06
3.98695e-08
1.43166e-06
4.04969e-08
1.39052e-06
4.11312e-08
1.34874e-06
4.17712e-08
1.30632e-06
4.24152e-08
1.26325e-06
4.30615e-08
1.21953e-06
4.37083e-08
1.17517e-06
4.43535e-08
1.13017e-06
4.4995e-08
1.08453e-06
4.56304e-08
1.03826e-06
4.62569e-08
9.91384e-07
4.68717e-08
9.43903e-07
4.74716e-08
8.95841e-07
4.8053e-08
8.47219e-07
4.86122e-08
7.98065e-07
4.91448e-08
7.48409e-07
4.96461e-08
6.98288e-07
5.01108e-08
6.47744e-07
5.05332e-08
5.96827e-07
5.09067e-08
5.45592e-07
5.1224e-08
4.94104e-07
5.1477e-08
4.42436e-07
5.16564e-08
3.90672e-07
5.17518e-08
3.38909e-07
5.17514e-08
2.87255e-07
5.16419e-08
2.35835e-07
5.14077e-08
1.84791e-07
5.10314e-08
1.34286e-07
5.04923e-08
8.45076e-08
4.97659e-08
3.56717e-08
4.88227e-08
-1.19656e-08
4.76237e-08
-5.80898e-08
4.61103e-08
-1.02347e-07
4.42428e-08
-1.44351e-07
4.19892e-08
-1.83659e-07
3.92933e-08
-2.19748e-07
3.60739e-08
-2.51999e-07
3.22362e-08
-2.79691e-07
2.76757e-08
-3.01964e-07
2.22575e-08
-3.17808e-07
1.58273e-08
-3.26026e-07
8.2019e-09
-3.25223e-07
-8.21135e-10
-3.13842e-07
-1.13988e-08
-2.90212e-07
-2.36498e-08
-2.52682e-07
-3.75501e-08
-2.00145e-07
-5.25586e-08
-1.33309e-07
-6.68599e-08
-5.75855e-08
-7.57535e-08
4.40185e-09
-6.2031e-08
4.33775e-09
-2.46386e-07
-2.45379e-14
6.00506e-07
-3.04941e-07
5.8728e-13
3.31309e-07
-2.81999e-07
9.74914e-13
1.08533e-07
-2.05752e-07
5.58553e-13
-7.42682e-08
-8.6259e-08
1.50199e-13
-2.1398e-07
6.81801e-08
-1.71273e-13
-3.15289e-07
2.49115e-07
-3.26156e-13
-3.86028e-07
4.48982e-07
-3.83894e-13
-4.33409e-07
6.61626e-07
-3.67588e-13
-4.63014e-07
8.82107e-07
-3.21992e-13
-4.79121e-07
1.10633e-06
-2.64948e-13
-4.85428e-07
1.33106e-06
-2.08784e-13
-4.84516e-07
1.55376e-06
-1.5838e-13
-4.78223e-07
1.77248e-06
-1.15269e-13
-4.67897e-07
1.98572e-06
-7.9745e-14
-4.5454e-07
2.19229e-06
-5.13372e-14
-4.3891e-07
2.39131e-06
-2.92714e-14
-4.21593e-07
2.58212e-06
-1.26597e-14
-4.03048e-07
2.76422e-06
-6.03355e-16
-3.83641e-07
2.93727e-06
7.67824e-15
-3.63667e-07
3.10104e-06
1.29518e-14
-3.43367e-07
3.25542e-06
1.58939e-14
-3.22939e-07
3.40037e-06
1.70874e-14
-3.02547e-07
3.53592e-06
1.69764e-14
-2.8233e-07
3.66217e-06
1.59565e-14
-2.62403e-07
3.77925e-06
1.43536e-14
-2.42861e-07
3.88736e-06
1.24107e-14
-2.23785e-07
3.98672e-06
1.02805e-14
-2.05242e-07
4.07758e-06
8.10865e-15
-1.87285e-07
4.16021e-06
5.9923e-15
-1.6996e-07
4.23491e-06
3.98698e-15
-1.533e-07
4.302e-06
2.13432e-15
-1.37331e-07
4.36178e-06
4.55126e-16
-1.22073e-07
4.4146e-06
-1.07141e-15
-1.07538e-07
4.46078e-06
-2.45917e-15
-9.37321e-08
4.50066e-06
-3.64223e-15
-8.0656e-08
4.53458e-06
-4.7004e-15
-6.8306e-08
4.56288e-06
-5.63713e-15
-5.66741e-08
4.58588e-06
-6.4559e-15
-4.57487e-08
4.6039e-06
-7.18447e-15
-3.55149e-08
4.61727e-06
-7.80896e-15
-2.59551e-08
4.6263e-06
-8.35017e-15
-1.70494e-08
4.63128e-06
-8.79425e-15
-8.77582e-09
4.63249e-06
-9.20363e-15
-1.11043e-09
4.63023e-06
-9.59566e-15
5.97117e-09
4.62475e-06
-9.93219e-15
1.24945e-08
4.61631e-06
-1.01993e-14
1.84864e-08
4.60515e-06
-1.04318e-14
2.39738e-08
4.59151e-06
-1.06226e-14
2.89833e-08
4.57559e-06
-1.08064e-14
3.35419e-08
4.55761e-06
-1.09383e-14
3.76758e-08
4.53776e-06
-1.10666e-14
4.14111e-08
4.51622e-06
-1.11776e-14
4.47734e-08
4.49315e-06
-1.12401e-14
4.77874e-08
4.46872e-06
-1.13025e-14
5.04772e-08
4.44308e-06
-1.13372e-14
5.2866e-08
4.41635e-06
-1.13684e-14
5.49762e-08
4.38867e-06
-1.13719e-14
5.6829e-08
4.36016e-06
-1.13615e-14
5.84448e-08
4.33091e-06
-1.13372e-14
5.98428e-08
4.30103e-06
-1.13025e-14
6.10413e-08
4.27062e-06
-1.12574e-14
6.20573e-08
4.23975e-06
-1.1195e-14
6.29071e-08
4.20849e-06
-1.1136e-14
6.36058e-08
4.17692e-06
-1.10597e-14
6.41673e-08
4.1451e-06
-1.0966e-14
6.46049e-08
4.11309e-06
-1.08723e-14
6.49308e-08
4.08094e-06
-1.07717e-14
6.51562e-08
4.04868e-06
-1.06607e-14
6.52917e-08
4.01637e-06
-1.05497e-14
6.53468e-08
3.98404e-06
-1.04352e-14
6.53305e-08
3.95172e-06
-1.03034e-14
6.52508e-08
3.91944e-06
-1.01646e-14
6.51154e-08
3.88723e-06
-1.00328e-14
6.4931e-08
3.8551e-06
-9.9148e-15
6.4704e-08
3.82309e-06
-9.76562e-15
6.44401e-08
3.7912e-06
-9.63032e-15
6.41446e-08
3.75945e-06
-9.50196e-15
6.38222e-08
3.72785e-06
-9.34932e-15
6.34774e-08
3.69641e-06
-9.21402e-15
6.31141e-08
3.66514e-06
-9.07872e-15
6.2736e-08
3.63405e-06
-8.96424e-15
6.23464e-08
3.60313e-06
-8.83935e-15
6.19484e-08
3.57241e-06
-8.70406e-15
6.15448e-08
3.54187e-06
-8.57917e-15
6.11381e-08
3.51152e-06
-8.48551e-15
6.07307e-08
3.48135e-06
-8.37103e-15
6.03247e-08
3.45138e-06
-8.25308e-15
5.99221e-08
3.42158e-06
-8.15595e-15
5.95248e-08
3.39197e-06
-8.08657e-15
5.91344e-08
3.36254e-06
-7.97903e-15
5.87525e-08
3.33328e-06
-7.89231e-15
5.83806e-08
3.3042e-06
-7.81946e-15
5.802e-08
3.27527e-06
-7.75356e-15
5.76721e-08
3.2465e-06
-7.69112e-15
5.7338e-08
3.21788e-06
-7.63216e-15
5.70189e-08
3.1894e-06
-7.5836e-15
5.67158e-08
3.16105e-06
-7.52116e-15
5.64298e-08
3.13283e-06
-7.47607e-15
5.61618e-08
3.10473e-06
-7.44833e-15
5.59127e-08
3.07673e-06
-7.40324e-15
5.56835e-08
3.04883e-06
-7.36162e-15
5.5475e-08
3.02101e-06
-7.34429e-15
5.5288e-08
2.99327e-06
-7.31308e-15
5.51233e-08
2.96559e-06
-7.28534e-15
5.49817e-08
2.93797e-06
-7.25759e-15
5.48639e-08
2.91038e-06
-7.22291e-15
5.47706e-08
2.88283e-06
-7.19517e-15
5.47024e-08
2.85529e-06
-7.19171e-15
5.46602e-08
2.82775e-06
-7.17438e-15
5.46445e-08
2.8002e-06
-7.14317e-15
5.4656e-08
2.77262e-06
-7.11889e-15
5.46953e-08
2.74501e-06
-7.10156e-15
5.47629e-08
2.71734e-06
-7.08769e-15
5.48595e-08
2.68961e-06
-7.07383e-15
5.49857e-08
2.6618e-06
-7.07731e-15
5.51418e-08
2.63389e-06
-7.04957e-15
5.53286e-08
2.60587e-06
-7.04264e-15
5.55463e-08
2.57772e-06
-7.0253e-15
5.57956e-08
2.54943e-06
-6.99756e-15
5.60769e-08
2.52098e-06
-7.00104e-15
5.63905e-08
2.49236e-06
-6.97676e-15
5.67369e-08
2.46354e-06
-6.99065e-15
5.71164e-08
2.43452e-06
-6.98719e-15
5.75294e-08
2.40528e-06
-6.96291e-15
5.7976e-08
2.3758e-06
-6.96292e-15
5.84566e-08
2.34606e-06
-6.9664e-15
5.89714e-08
2.31605e-06
-6.97335e-15
5.95204e-08
2.28575e-06
-6.96642e-15
6.01039e-08
2.25514e-06
-6.98031e-15
6.07218e-08
2.22422e-06
-6.99419e-15
6.13742e-08
2.19295e-06
-7.00808e-15
6.20609e-08
2.16133e-06
-7.0185e-15
6.27819e-08
2.12934e-06
-7.03932e-15
6.35369e-08
2.09696e-06
-7.06361e-15
6.43257e-08
2.06418e-06
-7.09138e-15
6.51479e-08
2.03097e-06
-7.12955e-15
6.60031e-08
1.99734e-06
-7.17466e-15
6.68906e-08
1.96325e-06
-7.22671e-15
6.781e-08
1.9287e-06
-7.27182e-15
6.87604e-08
1.89367e-06
-7.3308e-15
6.97409e-08
1.85815e-06
-7.41061e-15
7.07507e-08
1.82213e-06
-7.49041e-15
7.17886e-08
1.78559e-06
-7.58062e-15
7.28535e-08
1.74852e-06
-7.63961e-15
7.39438e-08
1.71091e-06
-7.71941e-15
7.50582e-08
1.67276e-06
-7.81309e-15
7.61949e-08
1.63404e-06
-7.87207e-15
7.73521e-08
1.59476e-06
-7.94494e-15
7.85278e-08
1.5549e-06
-8.01433e-15
7.97197e-08
1.51447e-06
-8.05944e-15
8.09253e-08
1.47345e-06
-8.1323e-15
8.21421e-08
1.43185e-06
-8.17394e-15
8.33671e-08
1.38967e-06
-8.21904e-15
8.45971e-08
1.34689e-06
-8.29884e-15
8.58287e-08
1.30354e-06
-8.3613e-15
8.7058e-08
1.2596e-06
-8.4411e-15
8.82811e-08
1.2151e-06
-8.52784e-15
8.94935e-08
1.17004e-06
-8.66315e-15
9.06902e-08
1.12442e-06
-8.83315e-15
9.18659e-08
1.07827e-06
-9.03439e-15
9.30149e-08
1.03161e-06
-9.31194e-15
9.41307e-08
9.84446e-07
-9.63807e-15
9.52065e-08
9.36818e-07
-1.00822e-14
9.62346e-08
8.88749e-07
-1.05887e-14
9.72066e-08
8.40275e-07
-1.12201e-14
9.81132e-08
7.91435e-07
-1.19904e-14
9.89442e-08
7.42273e-07
-1.28439e-14
9.96883e-08
6.9284e-07
-1.38847e-14
1.00333e-07
6.43192e-07
-1.4981e-14
1.00864e-07
5.93396e-07
-1.61121e-14
1.01266e-07
5.43522e-07
-1.71737e-14
1.01522e-07
4.93655e-07
-1.80966e-14
1.01611e-07
4.43886e-07
-1.87419e-14
1.01513e-07
3.9432e-07
-1.89778e-14
1.012e-07
3.45074e-07
-1.87072e-14
1.00646e-07
2.96279e-07
-1.78468e-14
9.98174e-08
2.48087e-07
-1.65007e-14
9.86767e-08
2.00664e-07
-1.48284e-14
9.71801e-08
1.54202e-07
-1.31284e-14
9.52758e-08
1.08916e-07
-1.17961e-14
9.29013e-08
6.50417e-08
-1.09773e-14
8.99753e-08
2.28477e-08
-1.09149e-14
8.64273e-08
-1.7355e-08
-1.2143e-14
8.21823e-08
-5.52072e-08
-1.4648e-14
7.71357e-08
-9.03155e-08
-1.8277e-14
7.11721e-08
-1.22246e-07
-2.27734e-14
6.41562e-08
-1.5051e-07
-2.75404e-14
5.59295e-08
-1.74565e-07
-3.1454e-14
4.63027e-08
-1.93819e-07
-3.24324e-14
3.50705e-08
-2.07639e-07
-2.79429e-14
2.20109e-08
-2.15379e-07
-1.70627e-14
6.90676e-09
-2.16402e-07
-3.58045e-15
-1.03879e-08
-2.10179e-07
2.56741e-15
-2.98866e-08
-1.96426e-07
-5.70375e-15
-5.13162e-08
-1.75274e-07
-1.01169e-14
-7.37266e-08
-1.47387e-07
3.19328e-14
-9.47663e-08
-1.13776e-07
-5.66214e-15
-1.09387e-07
-7.06662e-08
-1.99452e-13
-1.05179e-07
-2.13218e-12
-6.63581e-08
-2.46408e-07
6.00621e-07
-3.04962e-07
3.3133e-07
-2.82016e-07
1.08502e-07
-2.05765e-07
-7.43126e-08
-8.62681e-08
-2.14018e-07
6.81743e-08
-3.15316e-07
2.49111e-07
-3.86046e-07
4.48979e-07
-4.3342e-07
6.61624e-07
-4.63021e-07
8.82105e-07
-4.79124e-07
1.10633e-06
-4.8543e-07
1.33106e-06
-4.84518e-07
1.55376e-06
-4.78224e-07
1.77248e-06
-4.67898e-07
1.98571e-06
-4.54541e-07
2.19229e-06
-4.38911e-07
2.39131e-06
-4.21593e-07
2.58212e-06
-4.03049e-07
2.76422e-06
-3.83641e-07
2.93727e-06
-3.63667e-07
3.10104e-06
-3.43367e-07
3.25542e-06
-3.22939e-07
3.40037e-06
-3.02547e-07
3.53592e-06
-2.8233e-07
3.66216e-06
-2.62403e-07
3.77925e-06
-2.42861e-07
3.88736e-06
-2.23785e-07
3.98672e-06
-2.05242e-07
4.07758e-06
-1.87285e-07
4.16021e-06
-1.6996e-07
4.23491e-06
-1.533e-07
4.30199e-06
-1.37331e-07
4.36178e-06
-1.22073e-07
4.41459e-06
-1.07538e-07
4.46077e-06
-9.37322e-08
4.50066e-06
-8.06561e-08
4.53458e-06
-6.83061e-08
4.56288e-06
-5.66742e-08
4.58587e-06
-4.57488e-08
4.6039e-06
-3.5515e-08
4.61727e-06
-2.59552e-08
4.6263e-06
-1.70495e-08
4.63127e-06
-8.77593e-09
4.63249e-06
-1.11055e-09
4.63023e-06
5.97105e-09
4.62475e-06
1.24944e-08
4.61631e-06
1.84863e-08
4.60515e-06
2.39736e-08
4.59151e-06
2.89832e-08
4.57559e-06
3.35417e-08
4.55761e-06
3.76756e-08
4.53776e-06
4.1411e-08
4.51622e-06
4.47732e-08
4.49315e-06
4.77872e-08
4.46872e-06
5.0477e-08
4.44308e-06
5.28658e-08
4.41635e-06
5.4976e-08
4.38867e-06
5.68289e-08
4.36015e-06
5.84446e-08
4.33091e-06
5.98427e-08
4.30103e-06
6.10411e-08
4.27062e-06
6.20572e-08
4.23974e-06
6.2907e-08
4.20849e-06
6.36056e-08
4.17692e-06
6.41671e-08
4.1451e-06
6.46048e-08
4.11309e-06
6.49306e-08
4.08093e-06
6.51561e-08
4.04868e-06
6.52915e-08
4.01637e-06
6.53466e-08
3.98404e-06
6.53303e-08
3.95172e-06
6.52507e-08
3.91944e-06
6.51152e-08
3.88723e-06
6.49309e-08
3.8551e-06
6.47039e-08
3.82309e-06
6.444e-08
3.7912e-06
6.41444e-08
3.75945e-06
6.3822e-08
3.72785e-06
6.34772e-08
3.69641e-06
6.31139e-08
3.66514e-06
6.27358e-08
3.63405e-06
6.23463e-08
3.60313e-06
6.19483e-08
3.57241e-06
6.15447e-08
3.54187e-06
6.1138e-08
3.51152e-06
6.07306e-08
3.48135e-06
6.03246e-08
3.45137e-06
5.9922e-08
3.42158e-06
5.95247e-08
3.39197e-06
5.91343e-08
3.36254e-06
5.87524e-08
3.33328e-06
5.83805e-08
3.3042e-06
5.80199e-08
3.27527e-06
5.7672e-08
3.2465e-06
5.73379e-08
3.21788e-06
5.70188e-08
3.1894e-06
5.67157e-08
3.16105e-06
5.64297e-08
3.13283e-06
5.61617e-08
3.10473e-06
5.59126e-08
3.07673e-06
5.56834e-08
3.04883e-06
5.54749e-08
3.02101e-06
5.52879e-08
2.99327e-06
5.51232e-08
2.96559e-06
5.49816e-08
2.93797e-06
5.48638e-08
2.91038e-06
5.47704e-08
2.88283e-06
5.47023e-08
2.85528e-06
5.46601e-08
2.82775e-06
5.46444e-08
2.8002e-06
5.46559e-08
2.77262e-06
5.46952e-08
2.74501e-06
5.47628e-08
2.71734e-06
5.48594e-08
2.68961e-06
5.49856e-08
2.6618e-06
5.51417e-08
2.63389e-06
5.53284e-08
2.60587e-06
5.55462e-08
2.57772e-06
5.57955e-08
2.54943e-06
5.60768e-08
2.52098e-06
5.63904e-08
2.49235e-06
5.67368e-08
2.46354e-06
5.71163e-08
2.43452e-06
5.75292e-08
2.40528e-06
5.79759e-08
2.3758e-06
5.84565e-08
2.34606e-06
5.89712e-08
2.31605e-06
5.95203e-08
2.28575e-06
6.01038e-08
2.25514e-06
6.07217e-08
2.22422e-06
6.1374e-08
2.19295e-06
6.20608e-08
2.16133e-06
6.27818e-08
2.12934e-06
6.35368e-08
2.09696e-06
6.43256e-08
2.06418e-06
6.51478e-08
2.03097e-06
6.6003e-08
1.99734e-06
6.68905e-08
1.96325e-06
6.78099e-08
1.9287e-06
6.87602e-08
1.89367e-06
6.97408e-08
1.85815e-06
7.07506e-08
1.82213e-06
7.17885e-08
1.78559e-06
7.28533e-08
1.74852e-06
7.39437e-08
1.71091e-06
7.50581e-08
1.67276e-06
7.61948e-08
1.63404e-06
7.7352e-08
1.59476e-06
7.85276e-08
1.5549e-06
7.97195e-08
1.51447e-06
8.09252e-08
1.47345e-06
8.21419e-08
1.43185e-06
8.33669e-08
1.38967e-06
8.45969e-08
1.34689e-06
8.58285e-08
1.30354e-06
8.70579e-08
1.2596e-06
8.8281e-08
1.2151e-06
8.94933e-08
1.17004e-06
9.069e-08
1.12442e-06
9.18658e-08
1.07827e-06
9.30147e-08
1.03161e-06
9.41306e-08
9.84446e-07
9.52064e-08
9.36818e-07
9.62344e-08
8.88749e-07
9.72064e-08
8.40276e-07
9.8113e-08
7.91436e-07
9.8944e-08
7.42273e-07
9.96882e-08
6.9284e-07
1.00333e-07
6.43193e-07
1.00864e-07
5.93396e-07
1.01266e-07
5.43523e-07
1.01522e-07
4.93655e-07
1.01611e-07
4.43886e-07
1.01512e-07
3.9432e-07
1.012e-07
3.45074e-07
1.00646e-07
2.9628e-07
9.98172e-08
2.48087e-07
9.86765e-08
2.00664e-07
9.71799e-08
1.54203e-07
9.52756e-08
1.08916e-07
9.29011e-08
6.50419e-08
8.99751e-08
2.28479e-08
8.64272e-08
-1.73548e-08
8.21821e-08
-5.52071e-08
7.71355e-08
-9.03153e-08
7.11719e-08
-1.22245e-07
6.4156e-08
-1.50509e-07
5.59293e-08
-1.74565e-07
4.63025e-08
-1.93819e-07
3.50703e-08
-2.07639e-07
2.20106e-08
-2.15379e-07
6.90652e-09
-2.16403e-07
-1.03881e-08
-2.10179e-07
-2.98869e-08
-1.96427e-07
-5.13165e-08
-1.75274e-07
-7.3727e-08
-1.47388e-07
-9.47669e-08
-1.13779e-07
-1.09388e-07
-7.0675e-08
-1.0518e-07
-6.63572e-08
-8.82393e-08
1.26665e-12
6.8873e-07
-5.02516e-08
-1.02141e-13
2.93308e-07
3.81682e-08
2.02012e-13
2.01094e-08
1.51988e-07
2.64538e-13
-1.88091e-07
2.85603e-07
1.85064e-13
-3.47598e-07
4.36927e-07
5.66144e-14
-4.66615e-07
6.03475e-07
-2.29365e-14
-5.52578e-07
7.8222e-07
-6.99093e-14
-6.12156e-07
9.70108e-07
-8.19171e-14
-6.50904e-07
1.16432e-06
-7.80174e-14
-6.73333e-07
1.3621e-06
-6.45594e-14
-6.83207e-07
1.561e-06
-4.77638e-14
-6.83422e-07
1.75897e-06
-3.09265e-14
-6.76194e-07
1.9543e-06
-1.56193e-14
-6.63225e-07
2.14559e-06
-2.59151e-15
-6.45831e-07
2.33171e-06
7.92787e-15
-6.25041e-07
2.51179e-06
1.60134e-14
-6.01668e-07
2.6851e-06
2.18872e-14
-5.76365e-07
2.85112e-06
2.58493e-14
-5.4966e-07
3.00944e-06
2.81895e-14
-5.21985e-07
3.15976e-06
2.92286e-14
-4.93695e-07
3.30191e-06
2.92616e-14
-4.65089e-07
3.43578e-06
2.85382e-14
-4.36415e-07
3.56133e-06
2.72736e-14
-4.07882e-07
3.67859e-06
2.56742e-14
-3.79666e-07
3.78764e-06
2.38736e-14
-3.51915e-07
3.88861e-06
2.19914e-14
-3.24755e-07
3.98166e-06
2.01145e-14
-2.9829e-07
4.06698e-06
1.82861e-14
-2.72605e-07
4.14479e-06
1.65705e-14
-2.47771e-07
4.21533e-06
1.49797e-14
-2.23844e-07
4.27886e-06
1.3526e-14
-2.00868e-07
4.33566e-06
1.22215e-14
-1.78876e-07
4.38601e-06
1.10541e-14
-1.57889e-07
4.4302e-06
1.00133e-14
-1.37923e-07
4.46853e-06
9.11121e-15
-1.18981e-07
4.50128e-06
8.31845e-15
-1.01062e-07
4.52877e-06
7.61763e-15
-8.41589e-08
4.55127e-06
7.00355e-15
-6.82568e-08
4.56909e-06
6.46926e-15
-5.33377e-08
4.58252e-06
6.00263e-15
-3.93786e-08
4.59182e-06
5.60538e-15
-2.63531e-08
4.59727e-06
5.26018e-15
-1.42318e-08
4.59914e-06
4.95487e-15
-2.98251e-09
4.59769e-06
4.68079e-15
7.42841e-09
4.59314e-06
4.44834e-15
1.70362e-08
4.58575e-06
4.24365e-15
2.58777e-08
4.57573e-06
4.07192e-15
3.39902e-08
4.5633e-06
3.921e-15
4.14113e-08
4.54867e-06
3.7909e-15
4.81787e-08
4.53201e-06
3.666e-15
5.43295e-08
4.51352e-06
3.56713e-15
5.99008e-08
4.49337e-06
3.47692e-15
6.49286e-08
4.4717e-06
3.39886e-15
6.94483e-08
4.44869e-06
3.33988e-15
7.34942e-08
4.42445e-06
3.2757e-15
7.70996e-08
4.39913e-06
3.2358e-15
8.02962e-08
4.37284e-06
3.1959e-15
8.31147e-08
4.3457e-06
3.17161e-15
8.55843e-08
4.31781e-06
3.156e-15
8.77327e-08
4.28927e-06
3.14732e-15
8.95862e-08
4.26015e-06
3.14385e-15
9.11696e-08
4.23055e-06
3.14385e-15
9.25063e-08
4.20054e-06
3.14732e-15
9.36182e-08
4.17018e-06
3.16119e-15
9.45258e-08
4.13954e-06
3.18721e-15
9.52482e-08
4.10866e-06
3.20802e-15
9.58033e-08
4.07761e-06
3.23751e-15
9.62076e-08
4.04643e-06
3.27567e-15
9.64765e-08
4.01515e-06
3.31903e-15
9.6624e-08
3.98381e-06
3.36413e-15
9.66633e-08
3.95246e-06
3.4179e-15
9.66064e-08
3.92111e-06
3.46473e-15
9.64645e-08
3.88979e-06
3.52717e-15
9.62476e-08
3.85853e-06
3.58788e-15
9.59651e-08
3.82734e-06
3.65033e-15
9.56257e-08
3.79625e-06
3.71277e-15
9.52371e-08
3.76526e-06
3.78215e-15
9.48065e-08
3.7344e-06
3.8498e-15
9.43404e-08
3.70367e-06
3.91745e-15
9.3845e-08
3.67308e-06
3.9955e-15
9.33256e-08
3.64263e-06
4.06488e-15
9.27874e-08
3.61235e-06
4.13774e-15
9.22348e-08
3.58222e-06
4.21926e-15
9.16722e-08
3.55225e-06
4.29211e-15
9.11035e-08
3.52245e-06
4.36496e-15
9.05321e-08
3.49281e-06
4.43434e-15
8.99614e-08
3.46334e-06
4.50372e-15
8.93944e-08
3.43403e-06
4.5731e-15
8.88339e-08
3.40488e-06
4.63208e-15
8.82824e-08
3.37589e-06
4.71013e-15
8.77425e-08
3.34705e-06
4.77084e-15
8.72162e-08
3.31837e-06
4.83502e-15
8.67058e-08
3.28983e-06
4.89919e-15
8.62132e-08
3.26142e-06
4.95643e-15
8.57402e-08
3.23315e-06
5.01193e-15
8.52885e-08
3.20501e-06
5.07438e-15
8.48598e-08
3.17698e-06
5.13508e-15
8.44557e-08
3.14906e-06
5.19059e-15
8.40776e-08
3.12125e-06
5.23568e-15
8.37269e-08
3.09353e-06
5.28945e-15
8.3405e-08
3.06589e-06
5.35016e-15
8.31131e-08
3.03832e-06
5.39699e-15
8.28526e-08
3.01082e-06
5.45249e-15
8.26245e-08
2.98337e-06
5.50279e-15
8.24301e-08
2.95596e-06
5.55309e-15
8.22704e-08
2.92859e-06
5.60686e-15
8.21466e-08
2.90123e-06
5.66237e-15
8.20596e-08
2.87388e-06
5.71267e-15
8.20104e-08
2.84652e-06
5.76297e-15
8.20001e-08
2.81915e-06
5.82194e-15
8.20296e-08
2.79174e-06
5.87744e-15
8.20997e-08
2.76429e-06
5.93295e-15
8.22113e-08
2.73679e-06
5.98151e-15
8.23654e-08
2.70921e-06
6.03528e-15
8.25626e-08
2.68154e-06
6.09426e-15
8.28038e-08
2.65378e-06
6.1515e-15
8.30897e-08
2.62591e-06
6.21221e-15
8.3421e-08
2.5979e-06
6.26251e-15
8.37984e-08
2.56976e-06
6.33363e-15
8.42224e-08
2.54145e-06
6.38913e-15
8.46938e-08
2.51298e-06
6.45158e-15
8.5213e-08
2.48431e-06
6.50708e-15
8.57804e-08
2.45544e-06
6.56953e-15
8.63966e-08
2.42636e-06
6.63718e-15
8.70619e-08
2.39704e-06
6.70136e-15
8.77765e-08
2.36746e-06
6.77248e-15
8.85408e-08
2.33763e-06
6.83666e-15
8.93549e-08
2.30751e-06
6.8939e-15
9.0219e-08
2.2771e-06
6.96328e-15
9.11329e-08
2.24638e-06
7.02399e-15
9.20966e-08
2.21533e-06
7.09338e-15
9.31101e-08
2.18394e-06
7.16103e-15
9.41729e-08
2.15219e-06
7.23562e-15
9.52847e-08
2.12007e-06
7.30847e-15
9.6445e-08
2.08756e-06
7.37265e-15
9.76533e-08
2.05465e-06
7.44377e-15
9.89086e-08
2.02133e-06
7.5201e-15
1.0021e-07
1.98759e-06
7.58775e-15
1.01557e-07
1.9534e-06
7.65887e-15
1.02948e-07
1.91876e-06
7.73866e-15
1.04382e-07
1.88365e-06