/*--------------------------------*- C++ -*----------------------------------*\
  =========                 |
  \\      /  F ield         | OpenFOAM: The Open Source CFD Toolbox
   \\    /   O peration     | Website:  https://openfoam.org
    \\  /    A nd           | Version:  8
     \\/     M anipulation  |
\*---------------------------------------------------------------------------*/
FoamFile
{
    version     2.0;
    format      ascii;
    class       volVectorField;
    location    "3600";
    object      U;
}
// * * * * * * * * * * * * * * * * * * * * * * * * * * * * * * * * * * * * * //

dimensions      [0 1 -1 0 0 0 0];

internalField   nonuniform List<vector> 
48000
(
(-0.0165042 -2.64518e-07 0.0180377)
(-0.0361686 1.83221e-07 0.017288)
(-0.0496324 2.44777e-07 0.00877688)
(-0.0538918 5.17036e-09 0.000501061)
(-0.0500402 -2.12535e-07 -0.00556696)
(-0.0409376 -3.65708e-07 -0.0096676)
(-0.0280967 -4.05562e-07 -0.0123954)
(-0.0129471 -3.95271e-07 -0.0141696)
(0.00389301 -3.44713e-07 -0.0151656)
(0.0214169 -2.78469e-07 -0.0155195)
(0.0392952 -2.13196e-07 -0.0155073)
(0.0572136 -1.57757e-07 -0.0152763)
(0.0749212 -1.12488e-07 -0.0148961)
(0.0922557 -7.62609e-08 -0.0144131)
(0.109096 -4.78353e-08 -0.0138595)
(0.125353 -2.59431e-08 -0.0132581)
(0.140964 -9.41927e-09 -0.0126256)
(0.155882 2.73754e-09 -0.0119744)
(0.170077 1.14068e-08 -0.0113138)
(0.183527 1.73158e-08 -0.010651)
(0.196223 2.11003e-08 -0.00999164)
(0.208162 2.32705e-08 -0.00934011)
(0.219344 2.42528e-08 -0.00869994)
(0.229779 2.43803e-08 -0.00807396)
(0.239478 2.39196e-08 -0.00746442)
(0.248455 2.30782e-08 -0.00687315)
(0.25673 2.20064e-08 -0.00630156)
(0.264322 2.08128e-08 -0.0057508)
(0.271253 1.95812e-08 -0.00522171)
(0.277548 1.83552e-08 -0.00471492)
(0.283231 1.71902e-08 -0.00423087)
(0.288328 1.60899e-08 -0.00376978)
(0.292866 1.50695e-08 -0.00333175)
(0.296871 1.4131e-08 -0.00291671)
(0.300371 1.32724e-08 -0.0025245)
(0.303392 1.24977e-08 -0.0021548)
(0.305962 1.17895e-08 -0.00180723)
(0.308107 1.11575e-08 -0.00148132)
(0.309854 1.05769e-08 -0.0011765)
(0.311227 1.00477e-08 -0.000892167)
(0.312251 9.57554e-09 -0.000627668)
(0.312951 9.1358e-09 -0.000382309)
(0.313351 8.74746e-09 -0.000155335)
(0.313471 8.39528e-09 5.44595e-05)
(0.313335 8.08118e-09 0.000247614)
(0.312961 7.79754e-09 0.000424493)
(0.312371 7.53864e-09 0.000586194)
(0.311582 7.3102e-09 0.000733642)
(0.310611 7.10842e-09 0.000867673)
(0.309476 6.93899e-09 0.000989083)
(0.308192 6.77718e-09 0.00109865)
(0.306773 6.64583e-09 0.00119714)
(0.305233 6.53352e-09 0.0012853)
(0.303585 6.43833e-09 0.00136384)
(0.301841 6.36599e-09 0.00143347)
(0.300011 6.30889e-09 0.00149485)
(0.298105 6.2632e-09 0.00154863)
(0.296134 6.23845e-09 0.0015954)
(0.294105 6.22512e-09 0.00163575)
(0.292027 6.21941e-09 0.00167023)
(0.289907 6.22893e-09 0.00169934)
(0.287751 6.24606e-09 0.00172357)
(0.285565 6.27271e-09 0.00174337)
(0.283355 6.30888e-09 0.00175916)
(0.281126 6.34885e-09 0.00177133)
(0.278882 6.39263e-09 0.00178025)
(0.276627 6.44784e-09 0.00178624)
(0.274365 6.50494e-09 0.00178962)
(0.272099 6.57157e-09 0.00179067)
(0.269832 6.63629e-09 0.00178966)
(0.267567 6.70292e-09 0.00178683)
(0.265304 6.77525e-09 0.00178239)
(0.263048 6.84759e-09 0.00177655)
(0.260799 6.91802e-09 0.00176949)
(0.258559 6.98654e-09 0.00176138)
(0.256328 7.06078e-09 0.00175237)
(0.25411 7.13883e-09 0.0017426)
(0.251903 7.21307e-09 0.00173219)
(0.249709 7.29111e-09 0.00172127)
(0.247529 7.35393e-09 0.00170993)
(0.245363 7.43007e-09 0.00169826)
(0.243211 7.49479e-09 0.00168636)
(0.241074 7.56141e-09 0.00167431)
(0.238953 7.63184e-09 0.00166216)
(0.236846 7.69275e-09 0.00165)
(0.234754 7.75747e-09 0.00163788)
(0.232677 7.81458e-09 0.00162585)
(0.230616 7.8831e-09 0.00161397)
(0.228568 7.93259e-09 0.00160227)
(0.226536 7.98208e-09 0.00159082)
(0.224517 8.03538e-09 0.00157963)
(0.222513 8.08487e-09 0.00156876)
(0.220521 8.12865e-09 0.00155823)
(0.218543 8.17623e-09 0.00154808)
(0.216577 8.2162e-09 0.00153835)
(0.214623 8.24856e-09 0.00152905)
(0.21268 8.28282e-09 0.00152022)
(0.210748 8.3285e-09 0.00151188)
(0.208826 8.36086e-09 0.00150406)
(0.206914 8.39512e-09 0.00149678)
(0.205011 8.41415e-09 0.00149007)
(0.203115 8.45222e-09 0.00148396)
(0.201227 8.48458e-09 0.00147845)
(0.199346 8.51313e-09 0.00147357)
(0.19747 8.53977e-09 0.00146935)
(0.195599 8.57784e-09 0.00146581)
(0.193732 8.60639e-09 0.00146296)
(0.191869 8.63685e-09 0.00146082)
(0.190008 8.65778e-09 0.00145942)
(0.188148 8.69014e-09 0.00145877)
(0.186288 8.71679e-09 0.0014589)
(0.184428 8.75485e-09 0.00145981)
(0.182567 8.7796e-09 0.00146153)
(0.180703 8.81195e-09 0.00146407)
(0.178835 8.84812e-09 0.00146746)
(0.176963 8.88619e-09 0.00147171)
(0.175085 8.92806e-09 0.00147683)
(0.173201 8.97946e-09 0.00148284)
(0.171308 9.01753e-09 0.00148977)
(0.169407 9.07082e-09 0.00149761)
(0.167496 9.12412e-09 0.00150639)
(0.165573 9.18503e-09 0.00151612)
(0.163638 9.25166e-09 0.00152682)
(0.161689 9.31638e-09 0.00153849)
(0.159726 9.3849e-09 0.00155115)
(0.157747 9.46485e-09 0.00156481)
(0.15575 9.55242e-09 0.00157948)
(0.153735 9.64759e-09 0.00159517)
(0.151701 9.74658e-09 0.00161188)
(0.149646 9.85318e-09 0.00162963)
(0.147568 9.96739e-09 0.00164841)
(0.145468 1.0093e-08 0.00166823)
(0.143343 1.02263e-08 0.0016891)
(0.141192 1.03786e-08 0.00171102)
(0.139014 1.05347e-08 0.00173397)
(0.136809 1.07022e-08 0.00175797)
(0.134574 1.08735e-08 0.001783)
(0.132308 1.10562e-08 0.00180906)
(0.130011 1.1239e-08 0.00183613)
(0.127681 1.14446e-08 0.00186421)
(0.125316 1.16502e-08 0.00189328)
(0.122917 1.18672e-08 0.00192333)
(0.120482 1.20918e-08 0.00195432)
(0.11801 1.23278e-08 0.00198624)
(0.1155 1.25791e-08 0.00201905)
(0.11295 1.28342e-08 0.00205273)
(0.110361 1.31083e-08 0.00208724)
(0.107731 1.34053e-08 0.00212253)
(0.10506 1.37213e-08 0.00215857)
(0.102346 1.40449e-08 0.00219529)
(0.0995899 1.44142e-08 0.00223265)
(0.0967903 1.47949e-08 0.00227058)
(0.0939469 1.52137e-08 0.00230901)
(0.0910595 1.56668e-08 0.00234786)
(0.0881278 1.61465e-08 0.00238704)
(0.0851517 1.66719e-08 0.00242647)
(0.0821312 1.72353e-08 0.00246604)
(0.0790666 1.78293e-08 0.00250564)
(0.0759581 1.84613e-08 0.00254513)
(0.0728063 1.91313e-08 0.00258438)
(0.0696119 1.98243e-08 0.00262324)
(0.0663758 2.054e-08 0.00266152)
(0.063099 2.1271e-08 0.00269905)
(0.0597831 2.19868e-08 0.00273561)
(0.0564296 2.26835e-08 0.00277097)
(0.0530406 2.33117e-08 0.00280485)
(0.0496184 2.38942e-08 0.00283697)
(0.0461656 2.43587e-08 0.00286699)
(0.0426853 2.46899e-08 0.00289454)
(0.0391813 2.49183e-08 0.0029192)
(0.0356575 2.50249e-08 0.00294049)
(0.0321187 2.50287e-08 0.00295786)
(0.0285703 2.49983e-08 0.0029707)
(0.0250184 2.49716e-08 0.0029783)
(0.02147 2.50364e-08 0.00297984)
(0.0179331 2.52572e-08 0.00297439)
(0.0144168 2.57026e-08 0.00296087)
(0.0109315 2.63803e-08 0.00293801)
(0.00748908 2.72065e-08 0.00290428)
(0.00410394 2.80669e-08 0.00285777)
(0.000792444 2.86266e-08 0.00279442)
(-0.00243287 2.84933e-08 0.00270659)
(-0.00553483 2.78689e-08 0.00259371)
(-0.00850034 2.70237e-08 0.00245811)
(-0.0112964 2.60491e-08 0.00229691)
(-0.0138909 2.53866e-08 0.00210473)
(-0.016245 2.5577e-08 0.00187545)
(-0.0183129 2.72293e-08 0.00160253)
(-0.0200408 3.07015e-08 0.00127721)
(-0.021365 3.57727e-08 0.000889197)
(-0.02221 4.14455e-08 0.00042576)
(-0.0224889 4.52908e-08 -0.00012789)
(-0.0220946 4.45294e-08 -0.00078419)
(-0.020921 3.79505e-08 -0.00155503)
(-0.0188484 2.85238e-08 -0.00244623)
(-0.0157733 2.60034e-08 -0.00343228)
(-0.0116514 3.8788e-08 -0.00440395)
(-0.00677005 4.858e-08 -0.00500816)
(-0.00121536 3.21179e-08 -0.003682)
(0.000929822 -5.46727e-08 0.00133683)
(-0.0165113 -2.64489e-07 0.0180417)
(-0.0361786 1.83211e-07 0.0172881)
(-0.04964 2.44769e-07 0.00877417)
(-0.0538969 5.17026e-09 0.000497856)
(-0.0500423 -2.12531e-07 -0.00556959)
(-0.0409383 -3.65704e-07 -0.00966937)
(-0.0280965 -4.05559e-07 -0.0123965)
(-0.0129466 -3.95268e-07 -0.0141704)
(0.00389357 -3.44711e-07 -0.0151661)
(0.0214174 -2.78467e-07 -0.0155198)
(0.0392956 -2.13195e-07 -0.0155076)
(0.0572139 -1.57756e-07 -0.0152766)
(0.0749213 -1.12487e-07 -0.0148963)
(0.0922558 -7.62606e-08 -0.0144132)
(0.109096 -4.78351e-08 -0.0138596)
(0.125353 -2.5943e-08 -0.0132583)
(0.140964 -9.41925e-09 -0.0126258)
(0.155882 2.73754e-09 -0.0119745)
(0.170077 1.14068e-08 -0.0113139)
(0.183527 1.73158e-08 -0.0106511)
(0.196223 2.11003e-08 -0.00999175)
(0.208161 2.32704e-08 -0.00934022)
(0.219344 2.42527e-08 -0.00870005)
(0.229779 2.43803e-08 -0.00807407)
(0.239477 2.39196e-08 -0.00746453)
(0.248455 2.30782e-08 -0.00687325)
(0.25673 2.20064e-08 -0.00630167)
(0.264321 2.08128e-08 -0.0057509)
(0.271253 1.95811e-08 -0.00522181)
(0.277548 1.83552e-08 -0.00471503)
(0.283231 1.71902e-08 -0.00423097)
(0.288328 1.60898e-08 -0.00376988)
(0.292865 1.50695e-08 -0.00333184)
(0.296871 1.4131e-08 -0.00291681)
(0.300371 1.32724e-08 -0.00252459)
(0.303392 1.24976e-08 -0.00215489)
(0.305962 1.17895e-08 -0.00180732)
(0.308107 1.11575e-08 -0.0014814)
(0.309854 1.05769e-08 -0.00117659)
(0.311227 1.00476e-08 -0.000892255)
(0.312251 9.57554e-09 -0.000627754)
(0.312951 9.13579e-09 -0.000382394)
(0.313351 8.74745e-09 -0.000155419)
(0.313471 8.39527e-09 5.43765e-05)
(0.313334 8.08117e-09 0.000247532)
(0.312961 7.79753e-09 0.000424412)
(0.312371 7.53863e-09 0.000586114)
(0.311581 7.3102e-09 0.000733563)
(0.310611 7.10841e-09 0.000867594)
(0.309476 6.93899e-09 0.000989005)
(0.308192 6.77718e-09 0.00109857)
(0.306773 6.64583e-09 0.00119707)
(0.305233 6.53351e-09 0.00128522)
(0.303585 6.43833e-09 0.00136377)
(0.301841 6.36599e-09 0.0014334)
(0.300011 6.30888e-09 0.00149478)
(0.298105 6.26319e-09 0.00154855)
(0.296134 6.23844e-09 0.00159533)
(0.294105 6.22512e-09 0.00163568)
(0.292027 6.21941e-09 0.00167016)
(0.289907 6.22892e-09 0.00169927)
(0.287751 6.24606e-09 0.0017235)
(0.285565 6.27271e-09 0.0017433)
(0.283355 6.30887e-09 0.00175909)
(0.281126 6.34885e-09 0.00177126)
(0.278882 6.39263e-09 0.00178017)
(0.276627 6.44783e-09 0.00178617)
(0.274365 6.50494e-09 0.00178955)
(0.272099 6.57156e-09 0.0017906)
(0.269832 6.63629e-09 0.00178959)
(0.267567 6.70291e-09 0.00178676)
(0.265304 6.77525e-09 0.00178232)
(0.263048 6.84758e-09 0.00177648)
(0.260799 6.91801e-09 0.00176942)
(0.258559 6.98654e-09 0.00176131)
(0.256328 7.06078e-09 0.0017523)
(0.254109 7.13882e-09 0.00174253)
(0.251903 7.21306e-09 0.00173212)
(0.249709 7.29111e-09 0.0017212)
(0.247529 7.35392e-09 0.00170986)
(0.245363 7.43006e-09 0.00169819)
(0.243211 7.49478e-09 0.00168629)
(0.241074 7.5614e-09 0.00167424)
(0.238953 7.63183e-09 0.00166209)
(0.236846 7.69275e-09 0.00164993)
(0.234754 7.75747e-09 0.00163781)
(0.232677 7.81457e-09 0.00162578)
(0.230616 7.8831e-09 0.0016139)
(0.228568 7.93259e-09 0.0016022)
(0.226536 7.98208e-09 0.00159074)
(0.224517 8.03537e-09 0.00157956)
(0.222513 8.08486e-09 0.00156869)
(0.220521 8.12864e-09 0.00155816)
(0.218543 8.17623e-09 0.00154801)
(0.216577 8.2162e-09 0.00153827)
(0.214623 8.24855e-09 0.00152898)
(0.21268 8.28282e-09 0.00152014)
(0.210748 8.3285e-09 0.00151181)
(0.208826 8.36085e-09 0.00150399)
(0.206914 8.39512e-09 0.00149671)
(0.205011 8.41415e-09 0.00149)
(0.203115 8.45221e-09 0.00148388)
(0.201227 8.48457e-09 0.00147837)
(0.199346 8.51312e-09 0.0014735)
(0.19747 8.53977e-09 0.00146928)
(0.195599 8.57784e-09 0.00146573)
(0.193732 8.60639e-09 0.00146288)
(0.191869 8.63684e-09 0.00146075)
(0.190008 8.65777e-09 0.00145935)
(0.188148 8.69013e-09 0.0014587)
(0.186288 8.71678e-09 0.00145882)
(0.184428 8.75485e-09 0.00145973)
(0.182567 8.77959e-09 0.00146145)
(0.180703 8.81195e-09 0.001464)
(0.178835 8.84811e-09 0.00146738)
(0.176963 8.88618e-09 0.00147163)
(0.175085 8.92806e-09 0.00147675)
(0.173201 8.97945e-09 0.00148277)
(0.171308 9.01752e-09 0.00148969)
(0.169407 9.07082e-09 0.00149753)
(0.167496 9.12412e-09 0.00150631)
(0.165573 9.18503e-09 0.00151604)
(0.163638 9.25165e-09 0.00152674)
(0.161689 9.31637e-09 0.00153841)
(0.159726 9.3849e-09 0.00155107)
(0.157747 9.46485e-09 0.00156473)
(0.15575 9.55241e-09 0.0015794)
(0.153735 9.64759e-09 0.00159509)
(0.151701 9.74657e-09 0.0016118)
(0.149646 9.85317e-09 0.00162954)
(0.147568 9.96739e-09 0.00164833)
(0.145468 1.0093e-08 0.00166815)
(0.143343 1.02263e-08 0.00168902)
(0.141192 1.03786e-08 0.00171093)
(0.139014 1.05347e-08 0.00173389)
(0.136809 1.07022e-08 0.00175788)
(0.134574 1.08735e-08 0.00178291)
(0.132308 1.10562e-08 0.00180897)
(0.130011 1.1239e-08 0.00183604)
(0.127681 1.14446e-08 0.00186412)
(0.125316 1.16502e-08 0.00189319)
(0.122917 1.18672e-08 0.00192323)
(0.120482 1.20918e-08 0.00195423)
(0.11801 1.23278e-08 0.00198614)
(0.1155 1.25791e-08 0.00201896)
(0.11295 1.28342e-08 0.00205264)
(0.110361 1.31083e-08 0.00208714)
(0.107731 1.34053e-08 0.00212244)
(0.10506 1.37213e-08 0.00215847)
(0.102346 1.40449e-08 0.00219519)
(0.0995899 1.44142e-08 0.00223255)
(0.0967903 1.47949e-08 0.00227048)
(0.0939469 1.52137e-08 0.0023089)
(0.0910595 1.56668e-08 0.00234775)
(0.0881278 1.61465e-08 0.00238694)
(0.0851517 1.66719e-08 0.00242636)
(0.0821312 1.72353e-08 0.00246593)
(0.0790666 1.78293e-08 0.00250552)
(0.0759582 1.84613e-08 0.00254502)
(0.0728064 1.91313e-08 0.00258426)
(0.0696119 1.98242e-08 0.00262312)
(0.0663758 2.054e-08 0.0026614)
(0.0630991 2.1271e-08 0.00269893)
(0.0597831 2.19867e-08 0.00273549)
(0.0564297 2.26835e-08 0.00277084)
(0.0530407 2.33117e-08 0.00280472)
(0.0496184 2.38942e-08 0.00283683)
(0.0461656 2.43586e-08 0.00286685)
(0.0426854 2.46899e-08 0.0028944)
(0.0391813 2.49183e-08 0.00291906)
(0.0356575 2.50249e-08 0.00294034)
(0.0321187 2.50287e-08 0.00295771)
(0.0285703 2.49982e-08 0.00297055)
(0.0250184 2.49716e-08 0.00297814)
(0.02147 2.50363e-08 0.00297967)
(0.0179331 2.52571e-08 0.00297422)
(0.0144168 2.57026e-08 0.0029607)
(0.0109316 2.63803e-08 0.00293783)
(0.00748911 2.72064e-08 0.0029041)
(0.00410397 2.80669e-08 0.00285759)
(0.00079247 2.86265e-08 0.00279423)
(-0.00243285 2.84933e-08 0.0027064)
(-0.0055348 2.78689e-08 0.00259352)
(-0.00850032 2.70237e-08 0.00245792)
(-0.0112964 2.6049e-08 0.00229672)
(-0.0138908 2.53866e-08 0.00210453)
(-0.0162449 2.55769e-08 0.00187525)
(-0.0183128 2.72293e-08 0.00160232)
(-0.0200407 3.07015e-08 0.001277)
(-0.0213649 3.57727e-08 0.000888977)
(-0.0222099 4.14455e-08 0.000425525)
(-0.022489 4.52907e-08 -0.000128145)
(-0.0220947 4.45293e-08 -0.000784471)
(-0.0209211 3.79504e-08 -0.00155534)
(-0.0188485 2.85237e-08 -0.00244655)
(-0.0157734 2.60034e-08 -0.00343257)
(-0.0116515 3.87881e-08 -0.00440421)
(-0.00677032 4.85805e-08 -0.0050085)
(-0.00121586 3.21176e-08 -0.00368263)
(0.000929302 -5.46711e-08 0.0013354)
(-0.0141588 -3.42694e-09 0.040741)
(-0.0208229 8.71619e-08 0.026468)
(-0.0210388 1.44417e-07 0.0115121)
(-0.0175349 8.09578e-08 -0.00168481)
(-0.0106547 2.16343e-08 -0.01185)
(-0.00112365 -2.49715e-08 -0.0191111)
(0.0105213 -4.63916e-08 -0.0240879)
(0.0236822 -5.42594e-08 -0.0273621)
(0.0379255 -5.14572e-08 -0.0293551)
(0.0528501 -4.46278e-08 -0.030386)
(0.0681604 -3.63268e-08 -0.0307517)
(0.0836036 -2.8239e-08 -0.0306443)
(0.098984 -2.10536e-08 -0.0301922)
(0.114151 -1.49676e-08 -0.0294874)
(0.128986 -1.00057e-08 -0.0285962)
(0.1434 -6.08647e-09 -0.0275677)
(0.157322 -3.08771e-09 -0.0264392)
(0.1707 -8.72314e-10 -0.0252396)
(0.183495 6.95835e-10 -0.0239916)
(0.195679 1.73667e-09 -0.0227132)
(0.207233 2.36298e-09 -0.0214191)
(0.218145 2.6728e-09 -0.0201213)
(0.22841 2.74943e-09 -0.0188298)
(0.238028 2.65805e-09 -0.0175526)
(0.247004 2.45389e-09 -0.0162967)
(0.255345 2.17833e-09 -0.0150676)
(0.263065 1.86756e-09 -0.0138701)
(0.270175 1.53966e-09 -0.012708)
(0.276694 1.21366e-09 -0.0115845)
(0.282639 9.02889e-10 -0.010502)
(0.288029 6.12584e-10 -0.00946259)
(0.292886 3.46074e-10 -0.00846761)
(0.297231 1.07167e-10 -0.00751809)
(0.301086 -1.07944e-10 -0.00661462)
(0.304476 -3.01638e-10 -0.00575746)
(0.307421 -4.6773e-10 -0.00494652)
(0.309946 -6.14309e-10 -0.00418144)
(0.312074 -7.45183e-10 -0.00346162)
(0.313828 -8.58448e-10 -0.00278624)
(0.315229 -9.58863e-10 -0.00215428)
(0.3163 -1.04595e-09 -0.00156458)
(0.317063 -1.1221e-09 -0.00101584)
(0.317538 -1.18396e-09 -0.000506628)
(0.317745 -1.24107e-09 -3.54398e-05)
(0.317705 -1.2958e-09 0.000399354)
(0.317435 -1.34339e-09 0.000799459)
(0.316953 -1.38193e-09 0.00116655)
(0.316277 -1.41477e-09 0.00150233)
(0.315423 -1.4438e-09 0.00180849)
(0.314405 -1.4695e-09 0.00208671)
(0.313239 -1.49091e-09 0.00233865)
(0.311938 -1.50899e-09 0.00256596)
(0.310516 -1.52517e-09 0.00277022)
(0.308983 -1.53659e-09 0.002953)
(0.307352 -1.54516e-09 0.00311581)
(0.305632 -1.55134e-09 0.0032601)
(0.303834 -1.5561e-09 0.00338725)
(0.301966 -1.55753e-09 0.00349861)
(0.300036 -1.5561e-09 0.00359542)
(0.298054 -1.55324e-09 0.0036789)
(0.296025 -1.54896e-09 0.00375017)
(0.293955 -1.54277e-09 0.0038103)
(0.291852 -1.5342e-09 0.00386029)
(0.28972 -1.52611e-09 0.00390106)
(0.287565 -1.51564e-09 0.00393349)
(0.28539 -1.50375e-09 0.0039584)
(0.2832 -1.48994e-09 0.00397653)
(0.280999 -1.47519e-09 0.00398858)
(0.278789 -1.46044e-09 0.00399518)
(0.276574 -1.44473e-09 0.00399695)
(0.274357 -1.42903e-09 0.0039944)
(0.272139 -1.4119e-09 0.00398806)
(0.269923 -1.39334e-09 0.00397837)
(0.267711 -1.37525e-09 0.00396576)
(0.265504 -1.3586e-09 0.0039506)
(0.263304 -1.33861e-09 0.00393325)
(0.261113 -1.321e-09 0.00391403)
(0.25893 -1.30387e-09 0.00389322)
(0.256757 -1.28388e-09 0.0038711)
(0.254595 -1.26723e-09 0.0038479)
(0.252444 -1.2501e-09 0.00382385)
(0.250306 -1.23534e-09 0.00379915)
(0.248179 -1.21916e-09 0.00377398)
(0.246065 -1.20203e-09 0.00374851)
(0.243964 -1.18633e-09 0.00372289)
(0.241876 -1.17443e-09 0.00369727)
(0.239801 -1.16063e-09 0.00367177)
(0.237738 -1.14636e-09 0.00364651)
(0.235689 -1.13446e-09 0.00362161)
(0.233652 -1.12542e-09 0.00359716)
(0.231627 -1.11257e-09 0.00357326)
(0.229615 -1.10306e-09 0.00354999)
(0.227614 -1.09354e-09 0.00352744)
(0.225624 -1.08593e-09 0.00350569)
(0.223646 -1.07784e-09 0.0034848)
(0.221678 -1.07118e-09 0.00346485)
(0.21972 -1.06452e-09 0.0034459)
(0.217771 -1.0569e-09 0.00342801)
(0.215832 -1.05119e-09 0.00341124)
(0.2139 -1.04739e-09 0.00339564)
(0.211976 -1.04263e-09 0.00338128)
(0.21006 -1.03645e-09 0.00336819)
(0.208149 -1.03359e-09 0.00335643)
(0.206244 -1.03026e-09 0.00334605)
(0.204344 -1.02646e-09 0.00333709)
(0.202447 -1.0217e-09 0.0033296)
(0.200554 -1.01837e-09 0.00332362)
(0.198664 -1.01457e-09 0.0033192)
(0.196774 -1.01314e-09 0.00331637)
(0.194886 -1.00981e-09 0.00331518)
(0.192997 -1.00648e-09 0.00331566)
(0.191106 -1.0041e-09 0.00331786)
(0.189214 -1.00125e-09 0.0033218)
(0.187319 -9.98871e-10 0.00332753)
(0.185419 -9.96493e-10 0.00333508)
(0.183515 -9.96018e-10 0.00334449)
(0.181604 -9.92688e-10 0.00335578)
(0.179686 -9.91738e-10 0.00336898)
(0.17776 -9.8936e-10 0.00338413)
(0.175825 -9.8603e-10 0.00340126)
(0.17388 -9.86032e-10 0.00342038)
(0.171923 -9.83653e-10 0.00344153)
(0.169953 -9.84131e-10 0.00346473)
(0.16797 -9.84132e-10 0.00349)
(0.165973 -9.81278e-10 0.00351736)
(0.163959 -9.81755e-10 0.00354682)
(0.161929 -9.81756e-10 0.00357839)
(0.15988 -9.81282e-10 0.0036121)
(0.157812 -9.81283e-10 0.00364794)
(0.155724 -9.82712e-10 0.00368593)
(0.153614 -9.83665e-10 0.00372606)
(0.151482 -9.86045e-10 0.00376833)
(0.149325 -9.86998e-10 0.00381274)
(0.147144 -9.88903e-10 0.00385927)
(0.144937 -9.91283e-10 0.00390792)
(0.142703 -9.95091e-10 0.00395865)
(0.14044 -9.99851e-10 0.00401146)
(0.138148 -1.00414e-09 0.0040663)
(0.135826 -1.00937e-09 0.00412314)
(0.133473 -1.01603e-09 0.00418194)
(0.131087 -1.0227e-09 0.00424265)
(0.128668 -1.03079e-09 0.00430521)
(0.126215 -1.04174e-09 0.00436956)
(0.123727 -1.05268e-09 0.00443563)
(0.121203 -1.06173e-09 0.00450334)
(0.118642 -1.07172e-09 0.0045726)
(0.116044 -1.08457e-09 0.00464331)
(0.113408 -1.09409e-09 0.00471535)
(0.110733 -1.10504e-09 0.00478862)
(0.108019 -1.11741e-09 0.00486297)
(0.105266 -1.12645e-09 0.00493826)
(0.102473 -1.1393e-09 0.00501433)
(0.0996401 -1.14834e-09 0.005091)
(0.0967668 -1.15644e-09 0.0051681)
(0.0938533 -1.16976e-09 0.00524539)
(0.0908997 -1.18071e-09 0.00532267)
(0.0879063 -1.19213e-09 0.00539968)
(0.0848734 -1.20498e-09 0.00547615)
(0.0818017 -1.22164e-09 0.00555178)
(0.0786918 -1.24115e-09 0.00562625)
(0.0755447 -1.26304e-09 0.00569921)
(0.0723615 -1.2916e-09 0.00577026)
(0.0691437 -1.32681e-09 0.00583898)
(0.0658927 -1.37345e-09 0.0059049)
(0.0626104 -1.42675e-09 0.00596751)
(0.0592992 -1.49433e-09 0.00602622)
(0.0559613 -1.57428e-09 0.0060804)
(0.0525998 -1.66661e-09 0.00612936)
(0.0492178 -1.77797e-09 0.00617231)
(0.045819 -1.8979e-09 0.00620836)
(0.0424076 -2.02449e-09 0.00623654)
(0.0389884 -2.14823e-09 0.00625575)
(0.0355666 -2.26244e-09 0.00626473)
(0.0321481 -2.35762e-09 0.00626209)
(0.0287398 -2.42235e-09 0.00624622)
(0.0253491 -2.44995e-09 0.0062153)
(0.0219847 -2.43853e-09 0.00616723)
(0.0186561 -2.40331e-09 0.00609958)
(0.0153741 -2.35858e-09 0.00600946)
(0.0121512 -2.33859e-09 0.0058934)
(0.00900119 -2.37571e-09 0.00574698)
(0.00593908 -2.46327e-09 0.00556366)
(0.00298312 -2.59748e-09 0.00533908)
(0.000151681 -2.80117e-09 0.00506925)
(-0.00253157 -3.00771e-09 0.00474703)
(-0.00504021 -3.12002e-09 0.00436445)
(-0.00734695 -3.03246e-09 0.00391187)
(-0.00941975 -2.64507e-09 0.00337771)
(-0.0112235 -1.93026e-09 0.00274787)
(-0.012719 -9.76552e-10 0.0020066)
(-0.013864 -9.61297e-11 0.00113618)
(-0.0146144 1.31352e-10 0.000118201)
(-0.0149255 -9.70841e-10 -0.00106046)
(-0.0147549 -3.54643e-09 -0.00240452)
(-0.014073 -5.84409e-09 -0.00389715)
(-0.0128718 -3.26279e-09 -0.00546207)
(-0.0111814 7.18992e-09 -0.00688783)
(-0.00904676 3.55021e-09 -0.00768955)
(-0.00641222 -2.32698e-08 -0.00661996)
(-0.00386267 -2.75219e-07 -0.00179732)
(-0.0141601 -3.42678e-09 0.0407512)
(-0.0208247 8.71604e-08 0.0264701)
(-0.02104 1.44415e-07 0.0115095)
(-0.0175359 8.09565e-08 -0.00168872)
(-0.0106555 2.1634e-08 -0.0118534)
(-0.00112416 -2.49712e-08 -0.0191134)
(0.010521 -4.63912e-08 -0.0240894)
(0.023682 -5.4259e-08 -0.027363)
(0.0379254 -5.14568e-08 -0.0293556)
(0.05285 -4.46275e-08 -0.0303863)
(0.0681602 -3.63266e-08 -0.0307519)
(0.0836035 -2.82389e-08 -0.0306445)
(0.0989839 -2.10535e-08 -0.0301923)
(0.11415 -1.49675e-08 -0.0294875)
(0.128986 -1.00056e-08 -0.0285963)
(0.143399 -6.08644e-09 -0.0275678)
(0.157322 -3.0877e-09 -0.0264393)
(0.1707 -8.7231e-10 -0.0252396)
(0.183495 6.95833e-10 -0.0239916)
(0.195679 1.73666e-09 -0.0227132)
(0.207233 2.36297e-09 -0.0214191)
(0.218145 2.67279e-09 -0.0201214)
(0.22841 2.74942e-09 -0.0188298)
(0.238028 2.65804e-09 -0.0175527)
(0.247004 2.45388e-09 -0.0162967)
(0.255345 2.17833e-09 -0.0150676)
(0.263064 1.86756e-09 -0.0138701)
(0.270175 1.53966e-09 -0.012708)
(0.276694 1.21366e-09 -0.0115845)
(0.282638 9.02887e-10 -0.010502)
(0.288029 6.12582e-10 -0.0094626)
(0.292886 3.46073e-10 -0.00846762)
(0.297231 1.07167e-10 -0.0075181)
(0.301086 -1.07944e-10 -0.00661464)
(0.304475 -3.01638e-10 -0.00575747)
(0.307421 -4.67729e-10 -0.00494653)
(0.309946 -6.14308e-10 -0.00418146)
(0.312074 -7.45181e-10 -0.00346164)
(0.313828 -8.58446e-10 -0.00278626)
(0.315229 -9.58861e-10 -0.0021543)
(0.3163 -1.04595e-09 -0.0015646)
(0.317063 -1.12209e-09 -0.00101586)
(0.317538 -1.18396e-09 -0.000506647)
(0.317745 -1.24107e-09 -3.54596e-05)
(0.317705 -1.2958e-09 0.000399334)
(0.317435 -1.34338e-09 0.000799438)
(0.316953 -1.38193e-09 0.00116653)
(0.316277 -1.41477e-09 0.00150231)
(0.315422 -1.4438e-09 0.00180847)
(0.314405 -1.46949e-09 0.00208669)
(0.313239 -1.49091e-09 0.00233863)
(0.311938 -1.50899e-09 0.00256593)
(0.310516 -1.52517e-09 0.0027702)
(0.308983 -1.53659e-09 0.00295298)
(0.307352 -1.54516e-09 0.00311579)
(0.305632 -1.55134e-09 0.00326007)
(0.303833 -1.5561e-09 0.00338723)
(0.301966 -1.55753e-09 0.00349858)
(0.300036 -1.5561e-09 0.0035954)
(0.298054 -1.55324e-09 0.00367888)
(0.296025 -1.54896e-09 0.00375015)
(0.293955 -1.54277e-09 0.00381028)
(0.291852 -1.5342e-09 0.00386026)
(0.28972 -1.52611e-09 0.00390104)
(0.287565 -1.51564e-09 0.00393347)
(0.28539 -1.50374e-09 0.00395838)
(0.2832 -1.48994e-09 0.00397651)
(0.280998 -1.47519e-09 0.00398855)
(0.278789 -1.46044e-09 0.00399516)
(0.276574 -1.44473e-09 0.00399692)
(0.274356 -1.42903e-09 0.00399438)
(0.272139 -1.41189e-09 0.00398804)
(0.269923 -1.39333e-09 0.00397835)
(0.267711 -1.37525e-09 0.00396574)
(0.265504 -1.35859e-09 0.00395058)
(0.263304 -1.33861e-09 0.00393323)
(0.261113 -1.321e-09 0.00391401)
(0.25893 -1.30387e-09 0.0038932)
(0.256757 -1.28388e-09 0.00387108)
(0.254595 -1.26723e-09 0.00384788)
(0.252444 -1.25009e-09 0.00382383)
(0.250306 -1.23534e-09 0.00379913)
(0.248179 -1.21916e-09 0.00377396)
(0.246065 -1.20203e-09 0.00374849)
(0.243964 -1.18633e-09 0.00372288)
(0.241876 -1.17443e-09 0.00369725)
(0.239801 -1.16063e-09 0.00367175)
(0.237738 -1.14636e-09 0.0036465)
(0.235689 -1.13446e-09 0.00362159)
(0.233652 -1.12542e-09 0.00359714)
(0.231627 -1.11257e-09 0.00357324)
(0.229615 -1.10306e-09 0.00354997)
(0.227614 -1.09354e-09 0.00352742)
(0.225624 -1.08593e-09 0.00350567)
(0.223646 -1.07784e-09 0.00348479)
(0.221678 -1.07118e-09 0.00346484)
(0.21972 -1.06452e-09 0.00344588)
(0.217771 -1.0569e-09 0.00342799)
(0.215832 -1.05119e-09 0.00341122)
(0.2139 -1.04739e-09 0.00339563)
(0.211976 -1.04263e-09 0.00338126)
(0.21006 -1.03645e-09 0.00336817)
(0.208149 -1.03359e-09 0.00335641)
(0.206244 -1.03026e-09 0.00334603)
(0.204344 -1.02646e-09 0.00333707)
(0.202447 -1.0217e-09 0.00332958)
(0.200554 -1.01837e-09 0.0033236)
(0.198664 -1.01456e-09 0.00331918)
(0.196774 -1.01314e-09 0.00331635)
(0.194886 -1.00981e-09 0.00331516)
(0.192997 -1.00648e-09 0.00331564)
(0.191106 -1.0041e-09 0.00331784)
(0.189214 -1.00125e-09 0.00332178)
(0.187319 -9.98869e-10 0.00332752)
(0.185419 -9.96492e-10 0.00333507)
(0.183515 -9.96017e-10 0.00334447)
(0.181604 -9.92687e-10 0.00335576)
(0.179686 -9.91737e-10 0.00336896)
(0.17776 -9.89359e-10 0.00338411)
(0.175825 -9.86029e-10 0.00340124)
(0.17388 -9.8603e-10 0.00342036)
(0.171923 -9.83652e-10 0.00344152)
(0.169953 -9.8413e-10 0.00346471)
(0.16797 -9.84131e-10 0.00348998)
(0.165973 -9.81277e-10 0.00351734)
(0.163959 -9.81754e-10 0.0035468)
(0.161929 -9.81755e-10 0.00357837)
(0.15988 -9.81281e-10 0.00361208)
(0.157812 -9.81282e-10 0.00364792)
(0.155724 -9.82711e-10 0.00368591)
(0.153614 -9.83664e-10 0.00372604)
(0.151482 -9.86044e-10 0.00376831)
(0.149325 -9.86997e-10 0.00381272)
(0.147144 -9.88902e-10 0.00385925)
(0.144937 -9.91282e-10 0.0039079)
(0.142703 -9.9509e-10 0.00395863)
(0.14044 -9.9985e-10 0.00401144)
(0.138148 -1.00413e-09 0.00406628)
(0.135826 -1.00937e-09 0.00412312)
(0.133473 -1.01603e-09 0.00418192)
(0.131087 -1.0227e-09 0.00424263)
(0.128668 -1.03079e-09 0.00430519)
(0.126215 -1.04173e-09 0.00436954)
(0.123727 -1.05268e-09 0.00443561)
(0.121203 -1.06172e-09 0.00450332)
(0.118642 -1.07172e-09 0.00457258)
(0.116044 -1.08457e-09 0.00464328)
(0.113408 -1.09409e-09 0.00471533)
(0.110733 -1.10503e-09 0.00478859)
(0.108019 -1.11741e-09 0.00486294)
(0.105266 -1.12645e-09 0.00493823)
(0.102473 -1.1393e-09 0.0050143)
(0.0996401 -1.14834e-09 0.00509098)
(0.0967668 -1.15643e-09 0.00516807)
(0.0938533 -1.16976e-09 0.00524537)
(0.0908997 -1.18071e-09 0.00532264)
(0.0879063 -1.19213e-09 0.00539965)
(0.0848734 -1.20498e-09 0.00547612)
(0.0818017 -1.22164e-09 0.00555175)
(0.0786918 -1.24115e-09 0.00562622)
(0.0755447 -1.26304e-09 0.00569918)
(0.0723616 -1.29159e-09 0.00577023)
(0.0691437 -1.32681e-09 0.00583895)
(0.0658927 -1.37345e-09 0.00590487)
(0.0626105 -1.42675e-09 0.00596748)
(0.0592992 -1.49433e-09 0.00602619)
(0.0559613 -1.57428e-09 0.00608038)
(0.0525998 -1.66661e-09 0.00612933)
(0.0492178 -1.77797e-09 0.00617228)
(0.045819 -1.8979e-09 0.00620833)
(0.0424077 -2.02449e-09 0.00623651)
(0.0389884 -2.14822e-09 0.00625571)
(0.0355666 -2.26244e-09 0.0062647)
(0.0321481 -2.35762e-09 0.00626205)
(0.0287398 -2.42234e-09 0.00624618)
(0.0253491 -2.44995e-09 0.00621526)
(0.0219847 -2.43852e-09 0.00616719)
(0.0186561 -2.40331e-09 0.00609954)
(0.0153742 -2.35857e-09 0.00600942)
(0.0121512 -2.33858e-09 0.00589336)
(0.0090012 -2.3757e-09 0.00574694)
(0.00593909 -2.46327e-09 0.00556363)
(0.00298313 -2.59748e-09 0.00533905)
(0.000151695 -2.80116e-09 0.00506921)
(-0.00253155 -3.0077e-09 0.00474699)
(-0.0050402 -3.12002e-09 0.00436441)
(-0.00734694 -3.03245e-09 0.00391183)
(-0.00941974 -2.64507e-09 0.00337767)
(-0.0112235 -1.93026e-09 0.00274783)
(-0.012719 -9.7655e-10 0.00200656)
(-0.013864 -9.61296e-11 0.00113613)
(-0.0146144 1.31352e-10 0.000118148)
(-0.0149256 -9.70839e-10 -0.00106053)
(-0.014755 -3.54643e-09 -0.00240459)
(-0.014073 -5.84409e-09 -0.00389722)
(-0.0128718 -3.26279e-09 -0.00546214)
(-0.0111815 7.18998e-09 -0.00688791)
(-0.0090469 3.55026e-09 -0.00768967)
(-0.00641252 -2.32698e-08 -0.00662016)
(-0.00386336 -2.75215e-07 -0.00179783)
(-0.0058079 1.77469e-07 0.0538228)
(-0.0060137 -1.75862e-08 0.0261513)
(-0.000881486 2.8617e-08 0.00585136)
(0.0061398 3.76424e-08 -0.0100017)
(0.0146838 2.62969e-08 -0.0221149)
(0.0244969 7.55521e-09 -0.0310519)
(0.0354489 -3.49753e-09 -0.0374155)
(0.0473423 -1.00766e-08 -0.0417594)
(0.0599661 -1.1562e-08 -0.0445373)
(0.0731165 -1.08228e-08 -0.0461093)
(0.086603 -8.78971e-09 -0.0467734)
(0.100244 -6.3216e-09 -0.0467523)
(0.113886 -3.88728e-09 -0.0462119)
(0.127399 -1.70281e-09 -0.0452767)
(0.140679 1.29472e-10 -0.0440411)
(0.153639 1.58578e-09 -0.0425778)
(0.16621 2.68325e-09 -0.0409434)
(0.17834 3.45971e-09 -0.0391829)
(0.189984 3.96109e-09 -0.0373322)
(0.201113 4.23379e-09 -0.0354206)
(0.211701 4.32683e-09 -0.033472)
(0.221733 4.28281e-09 -0.0315063)
(0.2312 4.13956e-09 -0.0295401)
(0.240096 3.92611e-09 -0.027587)
(0.248422 3.67245e-09 -0.0256588)
(0.256181 3.39666e-09 -0.0237652)
(0.263381 3.11468e-09 -0.0219144)
(0.270031 2.83841e-09 -0.0201131)
(0.276144 2.57309e-09 -0.0183669)
(0.281735 2.32632e-09 -0.0166804)
(0.286818 2.09979e-09 -0.0150572)
(0.291411 1.89396e-09 -0.0134999)
(0.295533 1.70978e-09 -0.0120107)
(0.299202 1.54654e-09 -0.0105909)
(0.302439 1.40163e-09 -0.00924116)
(0.305264 1.27503e-09 -0.00796184)
(0.307696 1.16439e-09 -0.00675263)
(0.309757 1.06706e-09 -0.00561287)
(0.311466 9.81636e-10 -0.00454153)
(0.312844 9.07157e-10 -0.00353724)
(0.313911 8.41957e-10 -0.00259837)
(0.314685 7.86276e-10 -0.00172304)