/*--------------------------------*- C++ -*----------------------------------*\
  =========                 |
  \\      /  F ield         | OpenFOAM: The Open Source CFD Toolbox
   \\    /   O peration     | Website:  https://openfoam.org
    \\  /    A nd           | Version:  8
     \\/     M anipulation  |
\*---------------------------------------------------------------------------*/
FoamFile
{
    version     2.0;
    format      ascii;
    class       volScalarField;
    location    "2900";
    object      epsilon;
}
// * * * * * * * * * * * * * * * * * * * * * * * * * * * * * * * * * * * * * //

dimensions      [0 2 -3 0 0 0 0];

internalField   nonuniform List<scalar> 
48000
(
1.49387
4.12203
7.7762
11.6085
15.6358
19.6651
23.6667
27.6709
31.7595
35.8328
39.9211
44.0168
48.1148
52.2098
56.2965
60.3688
64.4205
68.445
72.4353
76.3847
80.2862
84.1329
87.9182
91.6356
95.2789
98.8423
102.32
105.708
109.001
112.194
115.285
118.27
121.146
123.912
126.565
129.104
131.529
133.839
136.034
138.114
140.081
141.934
143.675
145.305
146.834
148.273
149.61
150.844
151.977
153.013
153.954
154.803
155.563
156.238
156.83
157.342
157.777
158.138
158.428
158.65
158.807
158.9
158.933
158.909
158.83
158.697
158.514
158.283
158.005
157.684
157.32
156.916
156.473
155.994
155.479
154.931
154.351
153.74
153.1
152.431
151.736
151.015
150.269
149.5
148.708
147.894
147.059
146.204
145.33
144.437
143.526
142.598
141.652
140.691
139.713
138.72
137.712
136.69
135.653
134.603
133.539
132.461
131.371
130.268
129.152
128.024
126.883
125.731
124.566
123.39
122.202
121.003
119.792
118.57
117.337
116.092
114.837
113.57
112.293
111.005
109.706
108.396
107.076
105.746
104.405
103.054
101.693
100.322
98.9415
97.5512
96.1515
94.7427
93.3248
91.8982
90.4631
89.0198
87.5685
86.1096
84.6435
83.1704
81.6907
80.2048
78.7132
77.2163
75.7145
74.2084
72.6984
71.185
69.6689
68.1505
66.6304
65.1092
63.5876
62.0661
60.5455
59.0263
57.5091
55.9948
54.4839
52.977
51.475
49.9785
48.488
47.0044
45.5282
44.0601
42.6008
41.1507
39.7106
38.281
36.8625
35.4555
34.0605
32.6779
31.3083
29.9518
28.6088
27.2795
25.9642
24.663
23.3765
22.1059
20.8558
19.6271
18.4099
17.2022
16.0036
14.8124
13.6272
12.4459
11.2659
10.0842
8.90628
7.72704
6.534
5.31898
4.07137
2.77864
1.45064
0.57136
1.49393
4.12212
7.77634
11.6087
15.636
19.6653
23.667
27.6712
31.7598
35.8331
39.9214
44.0171
48.1151
52.2101
56.2968
60.3691
64.4208
68.4452
72.4356
76.3849
80.2864
84.1331
87.9184
91.6358
95.2791
98.8425
102.321
105.708
109.001
112.194
115.285
118.27
121.146
123.912
126.565
129.104
131.529
133.839
136.034
138.114
140.081
141.934
143.675
145.305
146.834
148.273
149.61
150.844
151.977
153.013
153.954
154.803
155.563
156.238
156.83
157.342
157.777
158.138
158.428
158.65
158.807
158.9
158.933
158.909
158.83
158.697
158.514
158.283
158.005
157.684
157.32
156.916
156.473
155.994
155.479
154.931
154.351
153.74
153.1
152.431
151.736
151.015
150.269
149.5
148.708
147.894
147.059
146.204
145.33
144.437
143.526
142.598
141.652
140.691
139.713
138.72
137.712
136.69
135.653
134.603
133.539
132.461
131.371
130.268
129.152
128.024
126.883
125.731
124.566
123.39
122.202
121.003
119.792
118.57
117.337
116.092
114.837
113.57
112.293
111.005
109.706
108.396
107.076
105.746
104.405
103.054
101.693
100.322
98.9415
97.5512
96.1515
94.7427
93.3248
91.8982
90.4631
89.0198
87.5685
86.1096
84.6435
83.1703
81.6907
80.2048
78.7132
77.2163
75.7145
74.2084
72.6984
71.185
69.6689
68.1505
66.6304
65.1092
63.5876
62.0661
60.5455
59.0263
57.5091
55.9948
54.4839
52.9771
51.475
49.9785
48.488
47.0044
45.5282
44.0601
42.6008
41.1508
39.7107
38.2811
36.8625
35.4555
34.0605
32.678
31.3083
29.9518
28.6088
27.2795
25.9642
24.663
23.3765
22.1059
20.8558
19.6271
18.4099
17.2022
16.0036
14.8124
13.6272
12.4459
11.2659
10.0843
8.90631
7.72707
6.53402
5.31899
4.07138
2.77863
1.45072
0.571355
4.8717
4.16978
5.3472
6.79247
8.36745
10.0061
11.6682
13.3516
15.0623
16.7915
18.5388
20.3023
22.0798
23.8687
25.6663
27.4694
29.2746
31.0784
32.8768
34.666
36.442
38.2007
39.9382
41.6506
43.3342
44.9852
46.6005
48.1767
49.7109
51.2007
52.6434
54.0372
55.3802
56.6708
57.908
59.0908
60.2184
61.2905
62.3069
63.2676
64.173
65.0233
65.8195
66.5628
67.2566
67.9031
68.5007
69.0492
69.5494
70.0025
70.4097
70.7727
71.0929
71.3717
71.6108
71.8117
71.9758
72.1048
72.1999
72.2628
72.2948
72.2972
72.2715
72.2188
72.1405
72.0377
71.9117
71.7635
71.5942
71.4049
71.1964
70.9698
70.726
70.4658
70.19
69.8994
69.5947
69.2766
68.9458
68.6028
68.2484
67.883
67.5072
67.1214
66.7261
66.3217
65.9087
65.4875
65.0583
64.6215
64.1775
63.7265
63.2688
62.8046
62.3342
61.8577
61.3754
60.8875
60.3941
59.8954
59.3915
58.8825
58.3685
57.8498
57.3262
56.7981
56.2653
55.728
55.1863
54.6402
54.0897
53.535
52.976
52.4127
51.8454
51.2738
50.6982
50.1185
49.5348
48.947
48.3553
47.7597
47.1601
46.5567
45.9495
45.3385
44.7238
44.1055
43.4836
42.8581
42.2292
41.597
40.9615
40.3228
39.6811
39.0364
38.3889
37.7387
37.0859
36.4308
35.7734
35.1139
34.4525
33.7895
33.1249
32.4591
31.7922
31.1244
30.456
29.7872
29.1183
28.4496
27.7812
27.1135
26.4467
25.7812
25.1172
24.4549
23.7948
23.137
22.4819
21.8297
21.1808
20.5355
19.8939
19.2564
18.6233
17.9948
17.3711
16.7526
16.1393
15.5316
14.9297
14.3336
13.7436
13.1599
12.5824
12.0114
11.447
10.8891
10.3381
9.79409
9.25766
8.72854
8.20516
7.68725
7.17498
6.66759
6.16474
5.66599
5.17102
4.67999
4.1947
3.71413
3.23701
2.76412
2.2999
1.85969
1.50379
1.77032
4.87177
4.16974
5.34717
6.79238
8.36733
10.006
11.668
13.3514
15.0621
16.7914
18.5386
20.3021
22.0796
23.8685
25.6661
27.4692
29.2744
31.0781
32.8765
34.6657
36.4417
38.2004
39.9379
41.6503
43.3339
44.9849
46.6002
48.1764
49.7106
51.2004
52.6431
54.0369
55.3799
56.6705
57.9077
59.0904
60.2181
61.2902
62.3066
63.2673
64.1726
65.023
65.8192
66.5625
67.2563
67.9028
68.5004
69.0489
69.5491
70.0021
70.4094
70.7724
71.0925
71.3714
71.6105
71.8114
71.9755
72.1045
72.1996
72.2625
72.2945
72.2969
72.2711
72.2185
72.1402
72.0374
71.9114
71.7632
71.5939
71.4046
71.1961
70.9695
70.7257
70.4655
70.1897
69.8991
69.5944
69.2763
68.9455
68.6026
68.2481
67.8827
67.5069
67.1211
66.7258
66.3215
65.9085
65.4872
65.058
64.6213
64.1773
63.7263
63.2685
62.8043
62.3339
61.8575
61.3752
60.8873
60.3939
59.8951
59.3912
58.8822
58.3683
57.8495
57.326
56.7978
56.2651
55.7278
55.1861
54.6399
54.0895
53.5347
52.9757
52.4125
51.8451
51.2736
50.698
50.1183
49.5346
48.9468
48.3551
47.7595
47.1599
46.5565
45.9493
45.3383
44.7236
44.1053
43.4834
42.8579
42.2291
41.5968
40.9613
40.3226
39.6809
39.0362
38.3887
37.7385
37.0857
36.4306
35.7732
35.1137
34.4524
33.7893
33.1248
32.4589
31.792
31.1242
30.4559
29.7871
29.1182
28.4494
27.7811
27.1134
26.4466
25.7811
25.117
24.4548
23.7947
23.1369
22.4818
21.8296
21.1807
20.5354
19.8938
19.2563
18.6232
17.9947
17.371
16.7525
16.1392
15.5316
14.9296
14.3335
13.7436
13.1598
12.5824
12.0114
11.4469
10.8891
10.338
9.79403
9.2576
8.72848
8.20511
7.6872
7.17494
6.66755
6.1647
5.66596
5.17099
4.67996
4.19468
3.71412
3.237
2.7641
2.29988
1.85967
1.50376
1.76999
8.9542
5.59052
5.95351
6.8271
7.88161
9.02934
10.2321
11.4735
12.7455
14.0419
15.359
16.6938
18.0437
19.4062
20.7787
22.1585
23.5428
24.9287
26.3131
27.6927
29.0642
30.4244
31.7699
33.0976
34.4041
35.6864
36.9417
38.1673
39.3605
40.519
41.6408
42.7241
43.7672
44.7687
45.7276
46.643
47.5141
48.3407
49.1225
49.8595
50.5519
51.2
51.8045
52.3664
52.8872
53.368
53.8091
54.2108
54.574
54.8995
55.1886
55.4423
55.6618
55.8484
56.0035
56.1281
56.2236
56.2913
56.3323
56.3478
56.339
56.3071
56.2532
56.1782
56.0833
55.9695
55.8377
55.6888
55.5237
55.3433
55.1483
54.9396
54.7178
54.4838
54.238
53.9812
53.714
53.4368
53.1504
52.8551
52.5514
52.2397
51.9206
51.5944
51.2614
50.9221
50.5766
50.2254
49.8688
49.5069
49.14
48.7684
48.3923
48.0118
47.6271
47.2385
46.846
46.4498
46.0501
45.6469
45.2403
44.8305
44.4175
44.0015
43.5824
43.1604
42.7355
42.3077
41.8772
41.4439
41.0079
40.5692
40.1279
39.6839
39.2373
38.7882
38.3365
37.8823
37.4256
36.9665
36.5048
36.0407
35.5743
35.1054
34.6342
34.1607
33.6849
33.2069
32.7267
32.2444
31.76
31.2735
30.7852
30.2949
29.8029
29.3091
28.8138
28.3169
27.8186
27.319
26.8182
26.3164
25.8136
25.3101
24.8059
24.3013
23.7963
23.2912
22.7862
22.2813
21.7769
21.2731
20.77
20.268
19.7671
19.2677
18.7699
18.2739
17.7799
17.2883
16.7991
16.3126
15.8291
15.3486
14.8715
14.398
13.9281
13.4622
13.0004
12.5429
12.0899
11.6414
11.1977
10.759
10.3252
9.89658
9.4732
9.05514
8.64251
8.23538
7.83387
7.43808
7.0481
6.66385
6.28503
5.91152
5.54328
5.18012
4.82251
4.47044
4.12422
3.78457
3.45278
3.13043
2.81981
2.5264
2.26291
2.06342
2.05882
3.42438
8.95436
5.5905
5.95341
6.82696
7.88144
9.02916
10.2319
11.4733
12.7452
14.0417
15.3588
16.6936
18.0435
19.406
20.7784
22.1583
23.5426
24.9285
26.3129
27.6924
29.064
30.4242
31.7697
33.0973
34.4038
35.6862
36.9415
38.167
39.3602
40.5188
41.6406
42.7239
43.767
44.7685
45.7274
46.6428
47.5139
48.3405
49.1223
49.8593
50.5517
51.1998
51.8043
52.3663
52.887
53.3678
53.8089
54.2106
54.5738
54.8994
55.1884
55.4421
55.6616
55.8483
56.0033
56.128
56.2235
56.2911
56.3321
56.3477
56.3389
56.307
56.253
56.1781
56.0832
55.9694
55.8375
55.6886
55.5236
55.3431
55.1482
54.9395
54.7177
54.4836
54.2379
53.9811
53.7138
53.4367
53.1503
52.8549
52.5512
52.2396
51.9205
51.5943
51.2613
50.922
50.5765
50.2253
49.8687
49.5068
49.1399
48.7683
48.3922
48.0117
47.627
47.2384
46.8459
46.4497
46.05
45.6468
45.2402
44.8304
44.4174
44.0014
43.5823
43.1603
42.7354
42.3076
41.8771
41.4438
41.0078
40.5691
40.1278
39.6838
39.2373
38.7881
38.3365
37.8823
37.4256
36.9664
36.5047
36.0407
35.5742
35.1053
34.6341
34.1606
33.6848
33.2068
32.7266
32.2443
31.7599
31.2735
30.7851
30.2949
29.8028
29.3091
28.8137
28.3168
27.8185
27.3189
26.8182
26.3163
25.8136
25.31
24.8059
24.3012
23.7963
23.2912
22.7861
22.2813
21.7769
21.273
20.77
20.2679
19.7671
19.2676
18.7698
18.2738
17.7799
17.2882
16.7991
16.3126
15.829
15.3486
14.8715
14.3979
13.9281
13.4622
13.0004
12.5429
12.0898
11.6414
11.1977
10.7589
10.3252
9.89656
9.47317
9.05512
8.64249
8.23536
7.83385
7.43806
7.04808
6.66383
6.28502
5.91151
5.54327
5.18011
4.8225
4.47043
4.12421
3.78457
3.45278
3.13043
2.8198
2.5264
2.26291
2.06342
2.05884
3.4244
13.0476
7.30557
7.07015
7.60674
8.40939
9.34497
10.3597
11.4273
12.5328
13.6671
14.8238
15.9985
17.1877
18.3884
19.5979
20.8136
22.0328
23.253
24.4714
25.6852
26.8916
28.0877
29.2707
30.4377
31.5859
32.7126
33.8153
34.8916
35.939
36.9556
37.9395
38.889
39.8025
40.6788
41.5169
42.316
43.0754
43.7947
44.4737
45.1124
45.7109
46.2696
46.789
47.2698
47.713
48.1195
48.4898
48.8248
49.125
49.3914
49.6251
49.8271
49.9984
50.1403
50.2539
50.3403
50.4006
50.4361
50.4477
50.4367
50.4041
50.3509
50.2782
50.1869
50.078
49.9523
49.8108
49.6544
49.4838
49.2997
49.103
48.8944
48.6744
48.4438
48.2032
47.9531
47.694
47.4265
47.1511
46.8683
46.5784
46.2818
45.979
45.6703
45.356
45.0365
44.712
44.3828
44.0492
43.7114
43.3696
43.024
42.6749
42.3224
41.9666
41.6077
41.2458
40.8812
40.5137
40.1437
39.7711
39.3961
39.0187
38.6391
38.2572
37.8731
37.4869
37.0986
36.7082
36.3159
35.9215
35.5253
35.1271
34.727
34.325
33.9212
33.5155
33.108
32.6987
32.2876
31.8748
31.4602
31.0439
30.6259
30.2062
29.7849
29.362
28.9375
28.5115
28.084
27.655
27.2247
26.7931
26.3601
25.926
25.4908
25.0545
24.6172
24.1791
23.7402
23.3007
22.8606
22.42
21.9791
21.5381
21.097
20.6559
20.2151
19.7747
19.3348
18.8956
18.4573
18.02
17.5839
17.1492
16.7161
16.2847
15.8552
15.4278
15.0028
14.5802
14.1602
13.7432
13.3291
12.9182
12.5107
12.1068
11.7066
11.3102
10.9179
10.5297
10.1459
9.76643
9.39157
9.0214
8.65602
8.29553
7.94005
7.58966
7.24446
6.90456
6.57006
6.24104
5.91756
5.59961
5.28728
4.9807
4.68006
4.38578
4.09831
3.81852
3.54769
3.28766
3.04136
2.81373
2.61418
2.46312
2.41436
2.67606
5.06974
13.0478
7.30549
7.07001
7.60657
8.40921
9.34477
10.3595
11.4271
12.5326
13.6668
14.8235
15.9982
17.1874
18.3881
19.5976
20.8133
22.0326
23.2528
24.4712
25.685
26.8914
28.0875
29.2705
30.4375
31.5857
32.7124
33.8151
34.8914
35.9388
36.9555
37.9393
38.8888
39.8023
40.6787
41.5168
42.3158
43.0752
43.7946
44.4736
45.1123
45.7108
46.2695
46.7889
47.2697
47.7129
48.1194
48.4897
48.8246
49.1249
49.3913
49.625
49.827
49.9983
50.1402
50.2538
50.3402
50.4005
50.436
50.4477
50.4367
50.404
50.3509
50.2781
50.1868
50.0779
49.9522
49.8108
49.6543
49.4837
49.2997
49.103
48.8943
48.6744
48.4438
48.2031
47.953
47.694
47.4265
47.1511
46.8682
46.5783
46.2817
45.9789
45.6702
45.3559
45.0364
44.7119
44.3827
44.0491
43.7113
43.3695
43.024
42.6749
42.3223
41.9665
41.6076
41.2458
40.8811
40.5137
40.1437
39.7711
39.3961
39.0187
38.639
38.2571
37.873
37.4868
37.0985
36.7082
36.3158
35.9215
35.5252
35.127
34.7269
34.325
33.9211
33.5155
33.108
32.6987
32.2876
31.8747
31.4602
31.0439
30.6259
30.2062
29.7849
29.362
28.9375
28.5115
28.084
27.655
27.2247
26.793
26.3601
25.926
25.4907
25.0545
24.6172
24.1791
23.7402
23.3007
22.8605
22.42
21.9791
21.5381
21.097
20.6559
20.2151
19.7747
19.3348
18.8956
18.4573
18.02
17.5839
17.1492
16.7161
16.2847
15.8552
15.4278
15.0028
14.5802
14.1602
13.7431
13.3291
12.9182
12.5107
12.1068
11.7066
11.3102
10.9179
10.5297
10.1458
9.76642
9.39157
9.02139
8.65601
8.29553
7.94004
7.58965
7.24445
6.90456
6.57006
6.24104
5.91755
5.59961
5.28728
4.98069
4.68006
4.38578
4.09831
3.81852
3.54769
3.28766
3.04136
2.81373
2.61418
2.46312
2.41436
2.67608
5.06974
17.1442
9.16855
8.40672
8.68848
9.32488
10.1348
11.0463
12.0233
13.0454
14.0999
15.178
16.2738
17.3828
18.5014
19.6267
20.7559
21.8865
23.0162
24.1424
25.2627
26.3747
27.4759
28.5639
29.636
30.6901
31.7236
32.7342
33.72
34.6787
35.6085
36.5078
37.3749
38.2085
39.0075
39.7709
40.4978
41.1878
41.8404
42.4554
43.0328
43.5727
44.0753
44.5412
44.971
45.3654
45.7251
46.0509
46.3434
46.6036
46.8322
47.0302
47.1986
47.3384
47.4508
47.5368
47.5974
47.6337
47.6469
47.638
47.6079
47.5578
47.4886
47.4012
47.2966
47.1758
47.0394
46.8885
46.7237
46.5459
46.3558
46.1541
45.9415
45.7185
45.4858
45.244
44.9935
44.7351
44.469
44.1957
43.9158
43.6296
43.3374
43.0397
42.7368
42.429
42.1166
41.7999
41.479
41.1544
40.8261
40.4944
40.1596
39.8216
39.4809
39.1373
38.7912
38.4427
38.0918
37.7387
37.3834
37.0261
36.6668
36.3056
35.9426
35.5778
35.2112
34.843
34.4732
34.1017
33.7287
33.3541
32.9781
32.6005
32.2215
31.841
31.459
31.0757
30.691
30.3048
29.9174
29.5285
29.1384
28.7469
28.3542
27.9602
27.5649
27.1685
26.7708
26.3721
25.9722
25.5714
25.1695
24.7666
24.3629
23.9583
23.553
23.1469
22.7403
22.3332
21.9256
21.5176
21.1094
20.7011
20.2927
19.8845
19.4764
19.0687
18.6614
18.2548
17.8489
17.4439
17.0399
16.6371
16.2357
15.8358
15.4375
15.0411
14.6467
14.2545
13.8646
13.4771
13.0924
12.7105
12.3315
11.9557
11.5832
11.2142
10.8488
10.4871
10.1294
9.77567
9.42611
9.08085
8.74001
8.40371
8.07206
7.74518
7.42318
7.10618
6.7943
6.48767
6.18642
5.89069
5.60062
5.31639
5.03822
4.76642
4.5014
4.24377
3.99436
3.75438
3.52557
3.31053
3.1135
2.94149
2.80767
2.74001
2.81216
3.30988
6.7039
17.1445
9.16845
8.40656
8.68829
9.32468
10.1346
11.0461
12.0231
13.0452
14.0996
15.1778
16.2736
17.3826
18.5012
19.6265
20.7557
21.8863
23.0159
24.1421
25.2625
26.3745
27.4757
28.5636
29.6358
30.6899
31.7234
32.7341
33.7198
34.6785
35.6084
36.5076
37.3747
38.2084
39.0074
39.7707
40.4977
41.1876
41.8402
42.4553
43.0326
43.5725
44.0752
44.5411
44.9709
45.3653
45.725
46.0508
46.3434
46.6035
46.8321
47.0301
47.1985
47.3384
47.4507
47.5367
47.5973
47.6337
47.6469
47.6379
47.6079
47.5577
47.4885
47.4011
47.2966
47.1757
47.0394
46.8884
46.7237
46.5459
46.3558
46.1541
45.9414
45.7184
45.4857
45.2439
44.9935
44.735
44.4689
44.1957
43.9158
43.6295
43.3374
43.0397
42.7368
42.429
42.1166
41.7998
41.479
41.1543
40.8261
40.4944
40.1595
39.8216
39.4808
39.1373
38.7912
38.4427
38.0918
37.7386
37.3834
37.0261
36.6668
36.3056
35.9426
35.5778
35.2112
34.843
34.4732
34.1017
33.7287
33.3541
32.978
32.6005
32.2214
31.8409
31.459
31.0757
30.6909
30.3048
29.9173
29.5285
29.1384
28.7469
28.3541
27.9601
27.5649
27.1685
26.7708
26.3721
25.9722
25.5713
25.1694
24.7666
24.3629
23.9583
23.553
23.1469
22.7403
22.3331
21.9255
21.5176
21.1094
20.7011
20.2927
19.8845
19.4764
19.0687
18.6614
18.2548
17.8489
17.4439
17.0399
16.6371
16.2357
15.8358
15.4375
15.0411
14.6467
14.2545
13.8646
13.4771
13.0924
12.7105
12.3315
11.9557
11.5832
11.2142
10.8488
10.4871
10.1294
9.77567
9.42611
9.08085
8.74001
8.40371
8.07206
7.74518
7.42318
7.10618
6.7943
6.48767
6.18642
5.89069
5.60062
5.31639
5.03822
4.76642
4.5014
4.24377
3.99436
3.75438
3.52557
3.31053
3.1135
2.94149
2.80767
2.74001
2.81217
3.3099
6.7039
21.2451
11.1295
9.88354
9.95278
10.4641
11.1883
12.0346
12.9581
13.9328
14.9427
15.9769
17.0278
18.0902
19.1597
20.233
21.3075
22.3806
23.4501
24.5138
25.5697
26.6156
27.6495
28.6692
29.6726
30.6577
31.6224
32.5648
33.483
34.3752
35.2398
36.0752
36.88
37.6531
38.3933
39.0997
39.7718
40.4089
41.0106
41.5768
42.1074
42.6025
43.0624
43.4875
43.8783
44.2354
44.5595
44.8513
45.1116
45.3411
45.5407
45.7114
45.8539
45.9695
46.0589
46.1234
46.1638
46.1813
46.1768
46.1513
46.1059
46.0415
45.959
45.8594
45.7435
45.6122
45.4663
45.3066
45.134
44.949
44.7525
44.5451
44.3275
44.1001
43.8637
43.6188
43.3658
43.1054
42.8379
42.5637
42.2834
41.9973
41.7058
41.4091
41.1077
40.8018
40.4917
40.1778
39.8601
39.539
39.2147
38.8873
38.5571
38.2242
37.8888
37.551
37.211
36.8688
36.5246
36.1785
35.8306
35.481
35.1297
34.7768
34.4223
34.0664
33.7091
33.3504
32.9903
32.6289
32.2663
31.9024
31.5373
31.1709
30.8034
30.4348
30.0649
29.694
29.3219
28.9488
28.5746
28.1993
27.8229
27.4455
27.0672
26.6878
26.3075
25.9262
25.5441
25.1611
24.7773
24.3927
24.0073
23.6213
23.2346
22.8474
22.4596
22.0714
21.6828
21.294
20.9049
20.5157
20.1265
19.7373
19.3483
18.9596
18.5713
18.1835
17.7964
17.41
17.0245
16.64
16.2567
15.8747
15.4941
15.1151
14.7379
14.3626
13.9894
13.6183
13.2496
12.8834
12.5198
12.1591
11.8014
11.4467
11.0953
10.7473
10.4029
10.0622
9.72522
9.39225
9.06337
8.73869
8.41836
8.1025
7.79123
7.48468
7.18299
6.88629
6.59474
6.30849
6.02773
5.75265
5.4835
5.22056
4.96417
4.71481
4.47308
4.23981
4.01611
3.80356
3.60441
3.42204
3.26177
3.13253
3.05112
3.05304
3.23178
3.95055
8.33175
21.2454
11.1294
9.88336
9.95257
10.4639
11.1881
12.0344
12.9578
13.9326
14.9424
15.9766
17.0276
18.0899
19.1594
20.2328
21.3072
22.3803
23.4498
24.5136
25.5695
26.6154
27.6493
28.669
29.6724
30.6575
31.6222
32.5646
33.4828
34.3751
35.2396
36.075
36.8798
37.6529
38.3931
39.0996
39.7717
40.4087
41.0105
41.5767
42.1073
42.6024
43.0623
43.4874
43.8782
44.2353
44.5594
44.8512
45.1115
45.341
45.5407
45.7113
45.8539
45.9694
46.0589
46.1233
46.1638
46.1812
46.1767
46.1513
46.1059
46.0414
45.959
45.8593
45.7434
45.6121
45.4662
45.3066
45.1339
44.949
44.7525
44.5451
44.3274
44.1001
43.8637
43.6187
43.3658
43.1053
42.8378
42.5637
42.2834
41.9973
41.7057
41.4091
41.1077
40.8018
40.4917
40.1777
39.8601
39.539
39.2146
38.8873
38.5571
38.2242
37.8888
37.551
37.2109
36.8688
36.5246
36.1785
35.8306
35.4809
35.1296
34.7767
34.4223
34.0664
33.7091
33.3503
32.9903
32.6289
32.2663
31.9024
31.5372
31.1709
30.8034
30.4347
30.0649
29.694
29.3219
28.9488
28.5745
28.1992
27.8229
27.4455
27.0671
26.6878
26.3075
25.9262
25.5441
25.1611
24.7773
24.3927
24.0073
23.6213
23.2346
22.8474
22.4596
22.0714
21.6828
21.294
20.9049
20.5157
20.1265
19.7373
19.3483
18.9596
18.5713
18.1835
17.7964
17.41
17.0245
16.64
16.2567
15.8747
15.4941
15.1151
14.7379
14.3626
13.9894
13.6183
13.2496
12.8834
12.5198
12.1591
11.8014
11.4467
11.0953
10.7473
10.4029
10.0622
9.72522
9.39225
9.06337
8.73869
8.41836
8.1025
7.79123
7.48468
7.18299
6.88629
6.59474
6.30849
6.02773
5.75266
5.48351
5.22056
4.96418
4.71481
4.47309
4.23981
4.01611
3.80356
3.60442
3.42204
3.26177
3.13253
3.05112
3.05304
3.23179
3.95057
8.33174
25.4338
13.161
11.468
11.3526
11.7636
12.4247
13.227
14.1166
15.0626
16.0458
17.0532
18.0759
19.1076
20.1435
21.1801
22.2145
23.2444
24.2676
25.2824
26.2869
27.2793
28.258
29.2213
30.1674
31.0946
32.0013
32.8857
33.7463
34.5816
35.3901
36.1706
36.9217
37.6424
38.3318
38.9891
39.6136
40.2049
40.7626
41.2866
41.7767
42.2331
42.656
43.0458
43.4029
43.7279
44.0215
44.2842
44.5169
44.7202
44.895
45.0422
45.1627
45.2574
45.3273
45.3733
45.3965
45.3977
45.378
45.3383
45.2796
45.2027
45.1086
44.9982
44.8723
44.7317
44.5773
44.4097
44.2298
44.0382
43.8356
43.6226
43.3999
43.168
42.9276
42.6791
42.423
42.1598
41.89
41.6139
41.332
41.0447
40.7523
40.4552
40.1536
39.8478
39.5382
39.2249
38.9082
38.5884
38.2656
37.9401
37.612
37.2814
36.9485
36.6136
36.2766
35.9377
35.597
35.2547
34.9107
34.5653
34.2184
33.8701
33.5205
33.1696
32.8176
32.4643
32.1099
31.7544
31.3979
31.0403
30.6817
30.3221
29.9615
29.5999
29.2374
28.874
28.5097
28.1445
27.7784
27.4115
27.0437
26.6751
26.3056
25.9354
25.5645
25.1928
24.8204
24.4474
24.0737
23.6995
23.3247
22.9494
22.5736
22.1975
21.821
21.4443
21.0674
20.6903
20.3132
19.9362
19.5592
19.1825
18.8061
18.4302
18.0547
17.6799
17.3059
16.9327
16.5605
16.1894
15.8196
15.4512
15.0842
14.719
14.3555
13.9939
13.6344
13.2772
12.9223
12.5699
12.2202
11.8732
11.5292
11.1883
10.8505
10.5162
10.1853
9.85802
9.53453
9.21493
8.89935
8.58793
8.2808
7.9781
7.67996
7.38654
7.09798
6.81445
6.53614
6.26324
5.99598
5.73464
5.47953
5.23102
4.9896
4.75586
4.5306
4.31483
4.10997
3.91794
3.74149
3.58472
3.45408
3.3604
3.32388
3.38757
3.66488
4.5966
9.95763
25.4341
13.1608
11.4678
11.3524
11.7634
12.4244
13.2267
14.1163
15.0624
16.0455
17.0529
18.0757
19.1073
20.1433
21.1799
22.2143
23.2442
24.2674
25.2822
26.2866
27.2791
28.2578
29.2211
30.1672
31.0944
32.0011
32.8855
33.7461
34.5814
35.39
36.1704
36.9215
37.6422
38.3316
38.9889
39.6135
40.2048
40.7625
41.2864
41.7766
42.233
42.6559
43.0457
43.4028
43.7278
44.0214
44.2841
44.5168
44.7201
44.895
45.0422
45.1627
45.2574
45.3272
45.3733
45.3964
45.3976
45.3779
45.3382
45.2795
45.2027
45.1086
44.9982
44.8723
44.7317
44.5773
44.4097
44.2298
44.0381
43.8355
43.6226
43.3999
43.168
42.9276
42.679
42.4229
42.1598
41.8899
41.6139
41.332
41.0447
40.7523
40.4551
40.1535
39.8478
39.5381
39.2249
38.9082
38.5884
38.2656
37.9401
37.6119
37.2814
36.9485
36.6135
36.2766
35.9377
35.597
35.2547
34.9107
34.5653
34.2184
33.8701
33.5205
33.1696
32.8175
32.4643
32.1099
31.7544
31.3979
31.0403
30.6817
30.322
29.9615
29.5999
29.2374
28.874
28.5097
28.1445
27.7784
27.4114
27.0437
26.675
26.3056
25.9354
25.5645
25.1928
24.8204
24.4474
24.0737
23.6995
23.3247
22.9494
22.5736
22.1975
21.821
21.4443
21.0674
20.6903
20.3132
19.9362
19.5592
19.1825
18.8061
18.4302
18.0547
17.6799
17.3059
16.9327
16.5605
16.1894
15.8196
15.4512
15.0842
14.719
14.3555
13.9939
13.6344
13.2772
12.9223
12.5699
12.2202
11.8732
11.5292
11.1883
10.8505
10.5162
10.1853
9.85802
9.53453
9.21493
8.89935
8.58793
8.2808
7.9781
7.67996
7.38654
7.09798
6.81445
6.53614
6.26324
5.99599
5.73465
5.47953
5.23102
4.9896
4.75586
4.5306
4.31484
4.10997
3.91794
3.74149
3.58472
3.45408
3.3604
3.32388
3.38757
3.66489
4.59663
9.95762
29.8636
15.2905
13.1544
12.8691
13.1949
13.807
14.5781
15.4456
16.3735
17.3397
18.3294
19.3323
20.3413
21.3512
22.3581
23.3593
24.3525
25.3357
26.3074
27.2662
28.2107
29.1396
30.0515
30.9452
31.8192
32.6722
33.503
34.3102
35.0925
35.8488
36.5779
37.2788
37.9507
38.5925
39.2038
39.7838
40.3323
40.8488
41.3332
41.7855
42.2057
42.5942
42.9511
43.2769
43.5721
43.8373
44.0732
44.2804
44.4596
44.6117
44.7374
44.8377
44.9134
44.9654
44.9946
45.002
44.9885
44.9549
44.9023
44.8315
44.7434
44.6389
44.5187
44.3838
44.2348
44.0725
43.8978
43.7112
43.5135
43.3052
43.0871
42.8597
42.6236
42.3793
42.1273
41.8681
41.6021
41.3298
41.0517
40.768
40.4791
40.1855
39.8873
39.585
39.2787
38.9688
38.6555
38.339
38.0196
37.6974
37.3726
37.0455
36.7161
36.3846
36.0511
35.7159
35.3789
35.0402
34.7001
34.3585
34.0156
33.6714
33.3259
32.9794
32.6317
32.2829
31.9331
31.5824
31.2306
30.878
30.5245
30.1701
29.8149
29.4588
29.102
28.7443
28.3859
28.0268
27.6668
27.3062
26.9449
26.5828
26.2201
25.8567
25.4928
25.1282
24.763
24.3973
24.031
23.6643
23.2972
22.9296
22.5617
22.1935
21.825
21.4563
21.0875
20.7186
20.3498
19.981
19.6123
19.244
18.8759
18.5082
18.1411
17.7746
17.4088
17.0439
16.6799
16.3169
15.9551
15.5947
15.2356
14.8781
14.5223
14.1683
13.8162
13.4662
13.1184
12.773
12.43
12.0897
11.7521
11.4174
11.0858
10.7573
10.4321
10.1103
9.79212
9.47761
9.16694
8.86023
8.55764
8.25929
7.96534
7.67593
7.39125
7.11145
6.83675
6.56734
6.30348
6.04545
5.79358
5.54825
5.30995
5.07925
4.85689
4.64383
4.44129
4.25094
4.07506
3.91688
3.78122
3.67565
3.61289
3.61658
3.73742
4.109
5.25033
11.5943
29.864
15.2904
13.1542
12.8689
13.1946
13.8067
14.5779
15.4453
16.3733
17.3395
18.3291
19.332
20.341
21.3509
22.3579
23.3591
24.3522
25.3355
26.3072
27.266
28.2105
29.1394
30.0513
30.9449
31.819
32.672
33.5028
34.31
35.0923
35.8486
36.5777
37.2787
37.9505
38.5924
39.2036
39.7837
40.3321
40.8487
41.3331
41.7854
42.2056
42.5941
42.951
43.2768
43.572
43.8373
44.0731
44.2803
44.4596
44.6116
44.7374
44.8376
44.9133
44.9653
44.9945
45.0019
44.9884
44.9549
44.9023
44.8315
44.7434
44.6389
44.5187
44.3837
44.2347
44.0725
43.8977
43.7112
43.5134
43.3052
43.0871
42.8597
42.6236
42.3792
42.1272
41.868
41.6021
41.3298
41.0516
40.768
40.4791
40.1854
39.8873
39.5849
39.2787
38.9688
38.6555
38.339
38.0196
37.6974
37.3726
37.0455
36.7161
36.3846
36.0511
35.7158
35.3788
35.0402
34.7001
34.3585
34.0156
33.6714
33.3259
32.9793
32.6316
32.2829
31.9331
31.5823
31.2306
30.878
30.5245
30.1701
29.8149
29.4588
29.102
28.7443
28.3859
28.0267
27.6668
27.3062
26.9448
26.5828
26.2201
25.8567
25.4928
25.1282
24.763
24.3973
24.031
23.6643
23.2972
22.9296
22.5617
22.1935
21.825
21.4563
21.0875
20.7186
20.3498
19.981
19.6123
19.244
18.8759
18.5082
18.1411
17.7746
17.4088
17.0439
16.6799
16.3169
15.9551
15.5947
15.2356
14.8781
14.5223
14.1683
13.8162
13.4662
13.1184
12.773
12.43
12.0897
11.7521
11.4174
11.0858
10.7573
10.4321
10.1103
9.79212
9.47761
9.16694
8.86024
8.55764
8.25929
7.96534
7.67594
7.39125
7.11146
6.83675
6.56734
6.30349
6.04546
5.79358
5.54825
5.30995
5.07925
4.8569
4.64383
4.4413
4.25094
4.07506
3.91688
3.78122
3.67565
3.61289
3.61658
3.73742
4.109
5.25036
11.5943
34.4456
17.5139
14.9394
14.494
14.7447
15.3173
16.0655
16.9179
17.8339
18.7885
19.7649
20.752
21.7418
22.7288
23.709
24.6795
25.6383
26.5836
27.5143
28.4293
29.3276
30.2083
31.0704
31.9131
32.7353
33.5361
34.3144
35.0694
35.7999
36.5051
37.184
37.8358
38.4597
39.055
39.6211
40.1576
40.6641
41.1402
41.586
42.0013
42.3862
42.7409
43.0658
43.3611
43.6274
43.8652
44.0751
44.2577
44.4137
44.5439
44.6491
44.73
44.7875
44.8224
44.8357
44.8282
44.8007
44.7542
44.6895
44.6074
44.5088
44.3945
44.2653
44.122
43.9653
43.7959
43.6145
43.4219
43.2186
43.0052
42.7825
42.5508
42.3108
42.063
41.8079
41.5459
41.2774
41.0029
40.7228
40.4375
40.1472
39.8523
39.5532
39.2501
38.9433
38.633
38.3195
38.003
37.6838
37.3619
37.0376
36.7111
36.3825
36.0519
35.7195
35.3854
35.0497
34.7126
34.374
34.0341
33.693
33.3507
33.0073
32.6629
32.3175
31.9712
31.6239
31.2758
30.9268
30.577
30.2265
29.8752
29.5232
29.1704
28.817
28.4629
28.1081
27.7527
27.3967
27.04
26.6828
26.325
25.9666
25.6077
25.2483
24.8884
24.528
24.1672
23.806
23.4444
23.0825
22.7203
22.3578
21.9952
21.6323
21.2694
20.9065
20.5436
20.1807
19.8181
19.4557
19.0936
18.7319
18.3707
18.0101
17.6501
17.2909
16.9327
16.5754
16.2192
15.8642
15.5105
15.1582
14.8076
14.4586
14.1114
13.7661
13.4229
13.0819
12.7432
12.4069
12.0732
11.7422
11.414
11.0888
10.7667
10.4479
10.1324
9.82034
9.51196
9.20733
8.90662
8.60996
8.31751
8.02943
7.74588
7.46705
7.19315
6.92439
6.66104
6.40337
6.15171
5.90646
5.66808
5.43713
5.21431
5.00047
4.79671
4.60449
4.42569
4.26296
4.12
4.00236
3.91871
3.88368
3.92449
4.09933
4.56245
5.9121
13.2402
34.446
17.5137
14.9392
14.4937
14.7445
15.317
16.0652
16.9176
17.8337
18.7882
19.7646
20.7517
21.7415
22.7285
23.7087
24.6793
25.638
26.5834
27.5141
28.4291
29.3274
30.2081
31.0702
31.9129
32.7351
33.5359
34.3143
35.0692
35.7998
36.5049
37.1838
37.8356
38.4595
39.0548
39.621
40.1575
40.6639
41.1401
41.5859
42.0012
42.3861
42.7408
43.0657
43.361
43.6273
43.8651
44.075
44.2576
44.4137
44.5439
44.649
44.7299
44.7874
44.8224
44.8357
44.8282
44.8007
44.7542
44.6895
44.6074
44.5088
44.3945
44.2653
44.122
43.9652
43.7959
43.6145
43.4219
43.2186
43.0052
42.7824
42.5508
42.3108
42.063
41.8079
41.5458
41.2774
41.0029
40.7228
40.4374
40.1472
39.8523
39.5532
39.2501
38.9433
38.633
38.3195
38.003
37.6838
37.3619
37.0376
36.7111
36.3825
36.0519
35.7195
35.3854
35.0497
34.7125
34.374
34.0341
33.693
33.3507
33.0073
32.6629
32.3175
31.9711
31.6239
31.2757
30.9268
30.577
30.2265
29.8752
29.5232
29.1704
28.817
28.4629
28.1081
27.7527
27.3967
27.04
26.6828
26.325
25.9666
25.6077
25.2483
24.8884
24.528
24.1672
23.806
23.4444
23.0825
22.7203
22.3578
21.9952
21.6323
21.2694
20.9065
20.5436
20.1807
19.8181
19.4557
19.0936
18.7319
18.3707
18.0101
17.6501
17.2909
16.9327
16.5754
16.2192
15.8642
15.5105
15.1582
14.8076
14.4586
14.1114
13.7661
13.4229
13.0819
12.7432
12.4069
12.0732
11.7422
11.414
11.0888
10.7667
10.4479
10.1324
9.82035
9.51196
9.20734
8.90662
8.60997
8.31751
8.02943
7.74588
7.46705
7.19315
6.9244
6.66104
6.40337
6.15171
5.90646
5.66808
5.43713
5.21431
5.00047
4.79672
4.60449
4.42569
4.26296
4.12
4.00236
3.91871
3.88368
3.92449
4.09934
4.56246
5.91214
13.2401
39.2025
19.8368
16.8243
16.2253
16.4081
16.9473
17.678
18.5197
19.4271
20.3725
21.3375
22.31
23.2814
24.2459
25.1994
26.1392
27.0634
27.9705
28.8599
29.7306
30.5822
31.4142
32.2261
33.0173
33.7873
34.5353
35.2609
35.9632
36.6416
37.2953
37.9236
38.526
39.1016
39.6501
40.1709
40.6636
41.1278
41.5635
41.9704
42.3486
42.6981
43.0191
43.3119
43.5768
43.8142
44.0247
44.2087
44.367
44.5
44.6086
44.6935
44.7554
44.7951
44.8134
44.8111
44.7891
44.7481
44.689
44.6126
44.5197
44.4111
44.2876
44.1498
43.9986
43.8347
43.6586
43.4712
43.273
43.0646
42.8467
42.6197
42.3843
42.1409
41.89
41.6322
41.3678
41.0972
40.8209
40.5392
40.2525
39.9611
39.6654
39.3655
39.0619
38.7548
38.4443
38.1309
37.8145
37.4955
37.1741
36.8504
36.5245
36.1967
35.867
35.5356
35.2027
34.8682
34.5324
34.1952
33.8568
33.5173
33.1768
32.8352
32.4926
32.1492
31.8049
31.4598
31.1139
30.7672
30.4198
30.0718
29.723
29.3737
29.0237