/*--------------------------------*- C++ -*----------------------------------*\
  =========                 |
  \\      /  F ield         | OpenFOAM: The Open Source CFD Toolbox
   \\    /   O peration     | Website:  https://openfoam.org
    \\  /    A nd           | Version:  8
     \\/     M anipulation  |
\*---------------------------------------------------------------------------*/
FoamFile
{
    version     2.0;
    format      ascii;
    class       surfaceScalarField;
    location    "2900";
    object      phi;
}
// * * * * * * * * * * * * * * * * * * * * * * * * * * * * * * * * * * * * * //

dimensions      [1 0 -1 0 0 0 0];

internalField   nonuniform List<scalar> 
119360
(
-3.41342e-07
-4.16675e-12
3.41344e-07
-5.87103e-07
-1.67709e-12
2.45852e-07
-6.92981e-07
-2.12296e-12
1.05896e-07
-6.7503e-07
-1.6333e-12
-1.79343e-08
-5.67726e-07
-1.27914e-12
-1.0729e-07
-4.00409e-07
-1.15291e-12
-1.67304e-07
-1.94346e-07
-9.99474e-13
-2.0605e-07
3.5511e-08
-7.45732e-13
-2.29844e-07
2.78186e-07
-4.5713e-13
-2.42663e-07
5.2593e-07
-2.6026e-13
-2.47734e-07
7.73823e-07
-2.05415e-13
-2.47886e-07
1.01837e-06
-2.4036e-13
-2.4454e-07
1.25711e-06
-3.1036e-13
-2.38739e-07
1.48831e-06
-3.7503e-13
-2.31199e-07
1.71074e-06
-4.135e-13
-2.22429e-07
1.92355e-06
-4.21188e-13
-2.12805e-07
2.12616e-06
-4.0298e-13
-2.0261e-07
2.31822e-06
-3.66898e-13
-1.9206e-07
2.49955e-06
-3.20852e-13
-1.81323e-07
2.67008e-06
-2.71669e-13
-1.7053e-07
2.82987e-06
-2.23319e-13
-1.59788e-07
2.97905e-06
-1.78743e-13
-1.4918e-07
3.11782e-06
-1.39136e-13
-1.38774e-07
3.24644e-06
-1.05163e-13
-1.28623e-07
3.36522e-06
-7.68249e-14
-1.18771e-07
3.47446e-06
-5.36907e-14
-1.0925e-07
3.57455e-06
-3.52193e-14
-1.00086e-07
3.66585e-06
-2.05228e-14
-9.12987e-08
3.74875e-06
-8.97646e-15
-8.29003e-08
3.82365e-06
7.18517e-17
-7.48992e-08
3.89094e-06
7.21891e-15
-6.72992e-08
3.95104e-06
1.30059e-14
-6.01003e-08
4.00434e-06
1.79187e-14
-5.32996e-08
4.05123e-06
2.22347e-14
-4.68911e-08
4.0921e-06
2.61204e-14
-4.08668e-08
4.12731e-06
2.97564e-14
-3.52167e-08
4.15724e-06
3.32675e-14
-2.99293e-08
4.18223e-06
3.67647e-14
-2.49916e-08
4.20261e-06
4.01648e-14
-2.03899e-08
4.21872e-06
4.36203e-14
-1.61099e-08
4.23086e-06
4.70898e-14
-1.21365e-08
4.23931e-06
5.03788e-14
-8.45465e-09
4.24435e-06
5.3765e-14
-5.04931e-09
4.24626e-06
5.70401e-14
-1.90478e-09
4.24526e-06
6.03014e-14
9.94495e-10
4.24159e-06
6.36598e-14
3.66296e-09
4.23547e-06
6.6935e-14
6.11492e-09
4.22711e-06
7.02101e-14
8.36471e-09
4.21668e-06
7.35685e-14
1.04259e-08
4.20436e-06
7.69131e-14
1.23113e-08
4.19032e-06
8.01743e-14
1.4033e-08
4.17472e-06
8.36021e-14
1.56025e-08
4.15768e-06
8.7016e-14
1.70307e-08
4.13935e-06
9.04161e-14
1.83279e-08
4.11984e-06
9.38716e-14
1.95038e-08
4.09927e-06
9.73272e-14
2.05675e-08
4.07774e-06
1.00727e-13
2.15276e-08
4.05534e-06
1.04169e-13
2.23918e-08
4.03216e-06
1.07611e-13
2.31678e-08
4.0083e-06
1.10941e-13
2.38622e-08
3.98381e-06
1.14202e-13
2.44816e-08
3.95877e-06
1.17408e-13
2.50319e-08
3.93325e-06
1.20545e-13
2.55186e-08
3.90729e-06
1.23667e-13
2.59467e-08
3.88097e-06
1.26665e-13
2.63209e-08
3.85431e-06
1.29551e-13
2.66458e-08
3.82738e-06
1.32285e-13
2.69252e-08
3.80021e-06
1.34963e-13
2.7163e-08
3.77284e-06
1.37559e-13
2.73626e-08
3.74531e-06
1.40029e-13
2.75272e-08
3.71764e-06
1.42346e-13
2.76599e-08
3.68987e-06
1.44553e-13
2.77633e-08
3.66202e-06
1.46648e-13
2.78402e-08
3.63412e-06
1.48675e-13
2.78928e-08
3.60618e-06
1.50506e-13
2.79235e-08
3.57824e-06
1.5213e-13
2.79342e-08
3.55031e-06
1.5374e-13
2.79271e-08
3.52239e-06
1.55197e-13
2.79038e-08
3.49452e-06
1.56557e-13
2.78661e-08
3.46669e-06
1.57806e-13
2.78157e-08
3.43893e-06
1.58958e-13
2.77539e-08
3.41124e-06
1.60012e-13
2.76823e-08
3.38363e-06
1.60845e-13
2.76022e-08
3.3561e-06
1.61678e-13
2.75147e-08
3.32867e-06
1.62385e-13
2.74212e-08
3.30134e-06
1.62996e-13
2.73227e-08
3.27411e-06
1.6351e-13
2.72202e-08
3.24698e-06
1.63954e-13
2.71149e-08
3.21996e-06
1.6437e-13
2.70075e-08
3.19305e-06
1.6462e-13
2.6899e-08
3.16625e-06
1.64856e-13
2.67903e-08
3.13956e-06
1.65036e-13
2.66822e-08
3.11297e-06
1.65133e-13
2.65754e-08
3.08649e-06
1.65258e-13
2.64707e-08
3.06011e-06
1.65341e-13
2.63687e-08
3.03383e-06
1.65299e-13
2.62701e-08
3.00764e-06
1.65244e-13
2.61757e-08
2.98154e-06
1.6523e-13
2.60858e-08
2.95553e-06
1.65202e-13
2.60012e-08
2.9296e-06
1.65091e-13
2.59225e-08
2.90373e-06
1.65049e-13
2.585e-08
2.87794e-06
1.65008e-13
2.57844e-08
2.8522e-06
1.64994e-13
2.57262e-08
2.82651e-06
1.64994e-13
2.56758e-08
2.80087e-06
1.64952e-13
2.56337e-08
2.77525e-06
1.65091e-13
2.56003e-08
2.74966e-06
1.65202e-13
2.55762e-08
2.72409e-06
1.65355e-13
2.55616e-08
2.69852e-06
1.65577e-13
2.55571e-08
2.67295e-06
1.6591e-13
2.5563e-08
2.64735e-06
1.66312e-13
2.55798e-08
2.62173e-06
1.66728e-13
2.56078e-08
2.59607e-06
1.67283e-13
2.56473e-08
2.57036e-06
1.67922e-13
2.56989e-08
2.54459e-06
1.68699e-13
2.57627e-08
2.51873e-06
1.69559e-13
2.58393e-08
2.49279e-06
1.70559e-13
2.59289e-08
2.46675e-06
1.71613e-13
2.60319e-08
2.44058e-06
1.72834e-13
2.61485e-08
2.41429e-06
1.74194e-13
2.62793e-08
2.38785e-06
1.75721e-13
2.64244e-08
2.36126e-06
1.77386e-13
2.65841e-08
2.33448e-06
1.79163e-13
2.67588e-08
2.30752e-06
1.81106e-13
2.69488e-08
2.28035e-06
1.83215e-13
2.71543e-08
2.25296e-06
1.85546e-13
2.73756e-08
2.22534e-06
1.88072e-13
2.7613e-08
2.19746e-06
1.90653e-13
2.78667e-08
2.16931e-06
1.93512e-13
2.81369e-08
2.14087e-06
1.96426e-13
2.84238e-08
2.11213e-06
1.99757e-13
2.87275e-08
2.08306e-06
2.03143e-13
2.90484e-08
2.05366e-06
2.06779e-13
2.93865e-08
2.02391e-06
2.10582e-13
2.97418e-08
1.99378e-06
2.14634e-13
3.01146e-08
1.96326e-06
2.18908e-13
3.05048e-08
1.93233e-06
2.23405e-13
3.09124e-08
1.90098e-06
2.2804e-13
3.13375e-08
1.86918e-06
2.32897e-13
3.178e-08
1.83693e-06
2.37976e-13
3.22398e-08
1.80419e-06
2.43389e-13
3.27167e-08
1.77097e-06
2.49051e-13
3.32105e-08
1.73723e-06
2.54769e-13
3.3721e-08
1.70297e-06
2.60819e-13
3.42478e-08
1.66816e-06
2.67259e-13
3.47906e-08
1.63279e-06
2.73892e-13
3.5349e-08
1.59685e-06
2.80692e-13
3.59223e-08
1.56033e-06
2.87798e-13
3.651e-08
1.5232e-06
2.95347e-13
3.71115e-08
1.48545e-06
3.02952e-13
3.77258e-08
1.44708e-06
3.11085e-13
3.83522e-08
1.40808e-06
3.19356e-13
3.89897e-08
1.36842e-06
3.27877e-13
3.9637e-08
1.32811e-06
3.36703e-13
4.02931e-08
1.28713e-06
3.45724e-13
4.09564e-08
1.24549e-06
3.55133e-13
4.16255e-08
1.20317e-06
3.64736e-13
4.22986e-08
1.16017e-06
3.74451e-13
4.29738e-08
1.1165e-06
3.8447e-13
4.36491e-08
1.07216e-06
3.9474e-13
4.43221e-08
1.02715e-06
4.05259e-13
4.49903e-08
9.81474e-07
4.16001e-13
4.56507e-08
9.35151e-07
4.27242e-13
4.63002e-08
8.88193e-07
4.38927e-13
4.69353e-08
8.40617e-07
4.51306e-13
4.75521e-08
7.92446e-07
4.64379e-13
4.81461e-08
7.43709e-07
4.78312e-13
4.87126e-08
6.94438e-07
4.93466e-13
4.92459e-08
6.44672e-07
5.09426e-13
4.97401e-08
5.94457e-07
5.26912e-13
5.01881e-08
5.43847e-07
5.45536e-13
5.05822e-08
4.92906e-07
5.65353e-13
5.09135e-08
4.41705e-07
5.86503e-13
5.11719e-08
3.9033e-07
6.08014e-13
5.13462e-08
3.38876e-07
6.30357e-13
5.1423e-08
2.87457e-07
6.52922e-13
5.13876e-08
2.36203e-07
6.75543e-13
5.12225e-08
1.85262e-07
6.98192e-13
5.09076e-08
1.34808e-07
7.21256e-13
5.04195e-08
8.50432e-08
7.44904e-13
4.97298e-08
3.62028e-08
7.69218e-13
4.88041e-08
-1.14321e-08
7.91478e-13
4.75974e-08
-5.75117e-08
8.06355e-13
4.60411e-08
-1.01638e-07
8.22176e-13
4.40869e-08
-1.43373e-07
8.46101e-13
4.16947e-08
-1.82209e-07
8.71692e-13
3.87947e-08
-2.17538e-07
8.96394e-13
3.52877e-08
-2.48638e-07
9.171e-13
3.10563e-08
-2.74651e-07
9.312e-13
2.59688e-08
-2.94552e-07
9.40359e-13
1.98555e-08
-3.07121e-07
9.51517e-13
1.25211e-08
-3.10907e-07
9.78495e-13
3.73737e-09
-3.04259e-07
1.03012e-12
-6.69841e-09
-2.85374e-07
1.11494e-12
-1.89376e-08
-2.52417e-07
1.21947e-12
-3.30122e-08
-2.03983e-07
1.2873e-12
-4.84951e-08
-1.40326e-07
1.28902e-12
-6.37248e-08
-6.62922e-08
1.3185e-12
-7.41123e-08
-5.02515e-09
1.25899e-12
-6.13577e-08
1.17528e-12
-5.13668e-09
-3.4133e-07
3.41355e-07
-5.87099e-07
2.45856e-07
-6.92973e-07
1.05898e-07
-6.75022e-07
-1.79337e-08
-5.67718e-07
-1.0729e-07
-4.00401e-07
-1.67304e-07
-1.94338e-07
-2.0605e-07
3.5518e-08
-2.29843e-07
2.78192e-07
-2.42663e-07
5.25935e-07
-2.47734e-07
7.73827e-07
-2.47887e-07
1.01837e-06
-2.4454e-07
1.25711e-06
-2.3874e-07
1.48831e-06
-2.31199e-07
1.71074e-06
-2.22429e-07
1.92355e-06
-2.12806e-07
2.12616e-06
-2.02611e-07
2.31822e-06
-1.9206e-07
2.49955e-06
-1.81323e-07
2.67008e-06
-1.7053e-07
2.82986e-06
-1.59788e-07
2.97905e-06
-1.4918e-07
3.11782e-06
-1.38774e-07
3.24644e-06
-1.28623e-07
3.36521e-06
-1.18771e-07
3.47446e-06
-1.0925e-07
3.57455e-06
-1.00086e-07
3.66585e-06
-9.12989e-08
3.74875e-06
-8.29006e-08
3.82364e-06
-7.48995e-08
3.89094e-06
-6.72995e-08
3.95104e-06
-6.01006e-08
4.00434e-06
-5.32999e-08
4.05123e-06
-4.68915e-08
4.09209e-06
-4.08672e-08
4.12731e-06
-3.52171e-08
4.15724e-06
-2.99297e-08
4.18222e-06
-2.4992e-08
4.20261e-06
-2.03904e-08
4.21872e-06
-1.61103e-08
4.23085e-06
-1.2137e-08
4.23931e-06
-8.45517e-09
4.24435e-06
-5.04984e-09
4.24625e-06
-1.90534e-09
4.24526e-06
9.93912e-10
4.24159e-06
3.66235e-09
4.23547e-06
6.11429e-09
4.2271e-06
8.36406e-09
4.21667e-06
1.04253e-08
4.20436e-06
1.23106e-08
4.19032e-06
1.40323e-08
4.17472e-06
1.56018e-08
4.15768e-06
1.703e-08
4.13935e-06
1.83271e-08
4.11984e-06
1.9503e-08
4.09927e-06
2.05667e-08
4.07773e-06
2.15267e-08
4.05534e-06
2.23909e-08
4.03216e-06
2.31668e-08
4.0083e-06
2.38613e-08
3.98381e-06
2.44807e-08
3.95877e-06
2.50309e-08
3.93325e-06
2.55175e-08
3.90729e-06
2.59456e-08
3.88096e-06
2.63199e-08
3.85431e-06
2.66447e-08
3.82738e-06
2.69241e-08
3.80021e-06
2.71619e-08
3.77284e-06
2.73614e-08
3.7453e-06
2.7526e-08
3.71764e-06
2.76587e-08
3.68987e-06
2.77621e-08
3.66202e-06
2.78389e-08
3.63412e-06
2.78915e-08
3.60618e-06
2.79222e-08
3.57824e-06
2.79329e-08
3.55031e-06
2.79257e-08
3.52239e-06
2.79024e-08
3.49452e-06
2.78648e-08
3.46669e-06
2.78143e-08
3.43893e-06
2.77525e-08
3.41124e-06
2.76809e-08
3.38362e-06
2.76007e-08
3.3561e-06
2.75133e-08
3.32867e-06
2.74197e-08
3.30134e-06
2.73212e-08
3.2741e-06
2.72187e-08
3.24698e-06
2.71133e-08
3.21996e-06
2.70059e-08
3.19305e-06
2.68974e-08
3.16625e-06
2.67887e-08
3.13956e-06
2.66806e-08
3.11297e-06
2.65738e-08
3.08649e-06
2.6469e-08
3.06011e-06
2.6367e-08
3.03383e-06
2.62685e-08
3.00764e-06
2.6174e-08
2.98154e-06
2.60841e-08
2.95553e-06
2.59995e-08
2.9296e-06
2.59207e-08
2.90373e-06
2.58483e-08
2.87794e-06
2.57827e-08
2.8522e-06
2.57244e-08
2.82651e-06
2.5674e-08
2.80087e-06
2.56319e-08
2.77525e-06
2.55985e-08
2.74966e-06
2.55744e-08
2.72409e-06
2.55598e-08
2.69852e-06
2.55553e-08
2.67294e-06
2.55612e-08
2.64735e-06
2.5578e-08
2.62173e-06
2.56059e-08
2.59607e-06
2.56455e-08
2.57036e-06
2.5697e-08
2.54458e-06
2.57609e-08
2.51873e-06
2.58374e-08
2.49279e-06
2.5927e-08
2.46675e-06
2.603e-08
2.44058e-06
2.61466e-08
2.41429e-06
2.62773e-08
2.38785e-06
2.64224e-08
2.36126e-06
2.65822e-08
2.33448e-06
2.67569e-08
2.30752e-06
2.69468e-08
2.28035e-06
2.71523e-08
2.25296e-06
2.73737e-08
2.22534e-06
2.7611e-08
2.19746e-06
2.78647e-08
2.16931e-06
2.81348e-08
2.14087e-06
2.84217e-08
2.11213e-06
2.87255e-08
2.08306e-06
2.90463e-08
2.05366e-06
2.93844e-08
2.02391e-06
2.97397e-08
1.99378e-06
3.01124e-08
1.96326e-06
3.05026e-08
1.93233e-06
3.09103e-08
1.90098e-06
3.13353e-08
1.86918e-06
3.17778e-08
1.83693e-06
3.22375e-08
1.80419e-06
3.27144e-08
1.77097e-06
3.32082e-08
1.73723e-06
3.37186e-08
1.70297e-06
3.42454e-08
1.66816e-06
3.47882e-08
1.63279e-06
3.53465e-08
1.59685e-06
3.59198e-08
1.56033e-06
3.65075e-08
1.5232e-06
3.71089e-08
1.48545e-06
3.77233e-08
1.44708e-06
3.83496e-08
1.40808e-06
3.8987e-08
1.36842e-06
3.96343e-08
1.32811e-06
4.02903e-08
1.28713e-06
4.09536e-08
1.24549e-06
4.16226e-08
1.20317e-06
4.22957e-08
1.16017e-06
4.29709e-08
1.1165e-06
4.36461e-08
1.07216e-06
4.43191e-08
1.02715e-06
4.49872e-08
9.81475e-07
4.56475e-08
9.35152e-07
4.6297e-08
8.88193e-07
4.6932e-08
8.40617e-07
4.75487e-08
7.92447e-07
4.81427e-08
7.4371e-07
4.8709e-08
6.94438e-07
4.92423e-08
6.44672e-07
4.97364e-08
5.94458e-07
5.01843e-08
5.43848e-07
5.05783e-08
4.92907e-07
5.09095e-08
4.41706e-07
5.11679e-08
3.9033e-07
5.1342e-08
3.38877e-07
5.14188e-08
2.87458e-07
5.13832e-08
2.36203e-07
5.1218e-08
1.85263e-07
5.0903e-08
1.34809e-07
5.04148e-08
8.5044e-08
4.97249e-08
3.62035e-08
4.87991e-08
-1.14314e-08
4.75922e-08
-5.7511e-08
4.60358e-08
-1.01637e-07
4.40816e-08
-1.43372e-07
4.16893e-08
-1.82208e-07
3.87891e-08
-2.17538e-07
3.5282e-08
-2.48637e-07
3.10505e-08
-2.74651e-07
2.59628e-08
-2.94552e-07
1.98492e-08
-3.0712e-07
1.25146e-08
-3.10906e-07
3.7306e-09
-3.04259e-07
-6.70548e-09
-2.85374e-07
-1.8945e-08
-2.52419e-07
-3.30203e-08
-2.03986e-07
-4.85041e-08
-1.40331e-07
-6.37355e-08
-6.63011e-08
-7.4125e-08
-5.03783e-09
-6.13737e-08
-5.16102e-09
-2.19209e-07
-2.77637e-13
5.60578e-07
-2.62618e-07
1.04842e-13
2.89297e-07
-2.28521e-07
-6.09744e-14
7.18145e-08
-1.44672e-07
-1.00194e-13
-1.01769e-07
-2.09396e-08
-9.57194e-14
-2.31011e-07
1.34278e-07
-5.54465e-14
-3.2251e-07
3.12674e-07
8.66176e-15
-3.84436e-07
5.07107e-07
6.72606e-14
-4.24267e-07
7.11799e-07
9.65565e-14
-4.47347e-07
9.22122e-07
9.35449e-14
-4.58053e-07
1.13426e-06
6.76975e-14
-4.60022e-07
1.34529e-06
3.3343e-14
-4.5557e-07
1.55299e-06
1.76405e-15
-4.46431e-07
1.75564e-06
-2.07943e-14
-4.33853e-07
1.95198e-06
-3.28264e-14
-4.18764e-07
2.14104e-06
-3.57268e-14
-4.01867e-07
2.32213e-06
-3.2188e-14
-3.83702e-07
2.49477e-06
-2.48952e-14
-3.64691e-07
2.65861e-06
-1.60273e-14
-3.45169e-07
2.81348e-06
-7.13166e-15
-3.25401e-07
2.9593e-06
8.72353e-16
-3.05601e-07
3.09606e-06
7.54063e-15
-2.85945e-07
3.22386e-06
1.27344e-14
-2.66571e-07
3.34283e-06
1.64571e-14
-2.47595e-07
3.45317e-06
1.891e-14
-2.29107e-07
3.5551e-06
2.02839e-14
-2.11181e-07
3.64889e-06
2.08148e-14
-1.93874e-07
3.73481e-06
2.07558e-14
-1.77228e-07
3.81319e-06
2.02839e-14
-1.61276e-07
3.88433e-06
1.95484e-14
-1.46038e-07
3.94856e-06
1.87158e-14
-1.31529e-07
4.00621e-06
1.78553e-14
-1.17753e-07
4.05761e-06
1.70331e-14
-1.04708e-07
4.10311e-06
1.62802e-14
-9.23873e-08
4.14302e-06
1.56002e-14
-8.07797e-08
4.17767e-06
1.50034e-14
-6.98691e-08
4.20737e-06
1.44761e-14
-5.96365e-08
4.23244e-06
1.39834e-14
-5.00601e-08
4.25316e-06
1.35393e-14
-4.1116e-08
4.26983e-06
1.31161e-14
-3.27789e-08
4.28271e-06
1.27171e-14
-2.50221e-08
4.29207e-06
1.23042e-14
-1.78183e-08
4.29816e-06
1.18879e-14
-1.11399e-08
4.30121e-06
1.14854e-14
-4.95878e-09
4.30145e-06
1.10656e-14
7.52656e-10
4.29909e-06
1.06145e-14
6.02137e-09
4.29433e-06
1.01843e-14
1.08741e-08
4.28735e-06
9.74369e-15
1.5337e-08
4.27834e-06
9.31694e-15
1.94352e-08
4.26745e-06
8.87283e-15
2.31925e-08
4.25485e-06
8.4669e-15
2.6632e-08
4.24067e-06
8.05055e-15
2.97753e-08
4.22506e-06
7.63767e-15
3.26432e-08
4.20812e-06
7.24214e-15
3.52553e-08
4.18999e-06
6.85008e-15
3.76298e-08
4.17077e-06
6.46148e-15
3.97843e-08
4.15056e-06
6.07983e-15
4.1735e-08
4.12945e-06
5.70164e-15
4.34971e-08
4.10753e-06
5.31305e-15
4.50849e-08
4.08487e-06
4.93486e-15
4.65116e-08
4.06156e-06
4.5532e-15
4.77896e-08
4.03765e-06
4.16808e-15
4.89303e-08
4.01322e-06
3.77254e-15
4.99445e-08
3.98832e-06
3.37007e-15
5.08422e-08
3.963e-06
2.978e-15
5.16324e-08
3.93732e-06
2.56859e-15
5.23237e-08
3.91131e-06
2.15223e-15
5.29241e-08
3.88503e-06
1.73241e-15
5.3441e-08
3.8585e-06
1.31259e-15
5.38811e-08
3.83177e-06
8.99703e-16
5.42508e-08
3.80487e-06
4.59063e-16
5.45561e-08
3.77782e-06
2.8831e-17
5.48024e-08
3.75066e-06
-4.01401e-16
5.49949e-08
3.7234e-06
-8.35102e-16
5.51382e-08
3.69608e-06
-1.29656e-15
5.5237e-08
3.66871e-06
-1.71985e-15
5.52952e-08
3.64131e-06
-2.19172e-15
5.53169e-08
3.6139e-06
-2.64971e-15
5.53056e-08
3.5865e-06
-3.10075e-15
5.52649e-08
3.55911e-06
-3.53793e-15
5.51978e-08
3.53174e-06
-3.99938e-15
5.51074e-08
3.50442e-06
-4.45737e-15
5.49965e-08
3.47715e-06
-4.90148e-15
5.48678e-08
3.44993e-06
-5.35253e-15
5.47239e-08
3.42277e-06
-5.79664e-15
5.4567e-08
3.39569e-06
-6.23381e-15
5.43994e-08
3.36867e-06
-6.66751e-15
5.42233e-08
3.34174e-06
-7.10815e-15
5.40406e-08
3.31488e-06
-7.53144e-15
5.38533e-08
3.28811e-06
-7.92351e-15
5.36631e-08
3.26142e-06
-8.33292e-15
5.34718e-08
3.23481e-06
-8.72499e-15
5.32809e-08
3.20828e-06
-9.11012e-15
5.30921e-08
3.18183e-06
-9.51606e-15
5.29068e-08
3.15546e-06
-9.85956e-15
5.27263e-08
3.12917e-06
-1.02239e-14
5.2552e-08
3.10295e-06
-1.05674e-14
5.23853e-08
3.0768e-06
-1.09074e-14
5.22273e-08
3.05071e-06
-1.1237e-14
5.20791e-08
3.02468e-06
-1.15562e-14
5.1942e-08
2.9987e-06
-1.18477e-14
5.1817e-08
2.97277e-06
-1.21322e-14
5.17051e-08
2.94688e-06
-1.24236e-14
5.16073e-08
2.92102e-06
-1.26804e-14
5.15246e-08
2.89518e-06
-1.29267e-14
5.14579e-08
2.86936e-06
-1.31627e-14
5.14082e-08
2.84355e-06
-1.33674e-14
5.13763e-08
2.81774e-06
-1.35964e-14
5.1363e-08
2.79192e-06
-1.37837e-14
5.13692e-08
2.76607e-06
-1.39572e-14
5.13957e-08
2.7402e-06
-1.41446e-14
5.14433e-08
2.71428e-06
-1.43077e-14
5.15127e-08
2.68831e-06
-1.44499e-14
5.16047e-08
2.66228e-06
-1.45783e-14
5.17201e-08
2.63617e-06
-1.46963e-14
5.18594e-08
2.60997e-06
-1.48247e-14
5.20235e-08
2.58368e-06
-1.49357e-14
5.2213e-08
2.55727e-06
-1.50329e-14
5.24286e-08
2.53074e-06
-1.51127e-14
5.26709e-08
2.50406e-06
-1.52098e-14
5.29405e-08
2.47724e-06
-1.52792e-14
5.32381e-08
2.45024e-06
-1.5359e-14
5.35642e-08
2.42307e-06
-1.54111e-14
5.39195e-08
2.3957e-06
-1.55013e-14
5.43044e-08
2.36812e-06
-1.55534e-14
5.47194e-08
2.34032e-06
-1.56193e-14
5.51652e-08
2.31228e-06
-1.56817e-14
5.5642e-08
2.28398e-06
-1.57407e-14
5.61504e-08
2.25542e-06
-1.57928e-14
5.66907e-08
2.22657e-06
-1.58656e-14
5.72634e-08
2.19741e-06
-1.59316e-14
5.78686e-08
2.16794e-06
-1.60114e-14
5.85067e-08
2.13814e-06
-1.60981e-14
5.91778e-08
2.10798e-06
-1.61987e-14
5.98822e-08
2.07746e-06
-1.62959e-14
6.062e-08
2.04656e-06
-1.64173e-14
6.1391e-08
2.01527e-06
-1.65318e-14
6.21954e-08
1.98356e-06
-1.66775e-14
6.3033e-08
1.95142e-06
-1.68476e-14
6.39036e-08
1.91884e-06
-1.70245e-14
6.48068e-08
1.8858e-06
-1.7191e-14
6.57424e-08
1.85228e-06
-1.73957e-14
6.67098e-08
1.81828e-06
-1.7649e-14
6.77084e-08
1.78378e-06
-1.78884e-14
6.87374e-08
1.74876e-06
-1.81417e-14
6.97961e-08
1.71321e-06
-1.84123e-14
7.08833e-08
1.67712e-06
-1.8735e-14
7.1998e-08
1.64047e-06
-1.9068e-14
7.31389e-08
1.60326e-06
-1.94254e-14
7.43043e-08
1.56548e-06
-1.98383e-14
7.54928e-08
1.52711e-06
-2.02338e-14
7.67023e-08
1.48815e-06
-2.06987e-14
7.79307e-08
1.4486e-06
-2.11844e-14
7.91758e-08
1.40844e-06
-2.1691e-14
8.04348e-08
1.36767e-06
-2.22669e-14
8.1705e-08
1.3263e-06
-2.28636e-14
8.29831e-08
1.28431e-06
-2.35159e-14
8.42656e-08
1.24172e-06
-2.42237e-14
8.55486e-08
1.19852e-06
-2.49522e-14
8.68278e-08
1.15473e-06
-2.57502e-14
8.80984e-08
1.11034e-06
-2.65482e-14
8.93553e-08
1.06538e-06
-2.74225e-14
9.05927e-08
1.01985e-06
-2.83037e-14
9.18042e-08
9.73785e-07
-2.91989e-14
9.29828e-08
9.27195e-07
-3.01148e-14
9.41206e-08
8.8011e-07
-3.0996e-14
9.5209e-08
8.32561e-07
-3.18911e-14
9.62384e-08
7.84586e-07
-3.27377e-14
9.71981e-08
7.36226e-07
-3.36051e-14
9.80761e-08
6.87531e-07
-3.44447e-14
9.8859e-08
6.38557e-07
-3.53467e-14
9.95317e-08
5.89368e-07
-3.63182e-14
1.00077e-07
5.40036e-07
-3.73868e-14
1.00477e-07
4.90647e-07
-3.86288e-14
1.00709e-07
4.41294e-07
-4.01415e-14
1.00749e-07
3.92085e-07
-4.18832e-14
1.00568e-07
3.43143e-07
-4.39163e-14
1.00135e-07
2.94608e-07
-4.62338e-14
9.94129e-08
2.46638e-07
-4.87527e-14
9.83586e-08
1.99415e-07
-5.13339e-14
9.69216e-08
1.53144e-07
-5.39221e-14
9.50421e-08
1.08061e-07
-5.64132e-14
9.26475e-08
6.44245e-08
-5.77038e-14
8.96429e-08
2.25324e-08
-5.76691e-14
8.5944e-08
-1.72688e-08
-5.73777e-14
8.146e-08
-5.45764e-08
-5.73153e-14
7.60655e-08
-8.89467e-08
-5.80785e-14
6.96202e-08
-1.19888e-07
-6.041e-14
6.19588e-08
-1.46848e-07
-6.48231e-14
5.28884e-08
-1.69213e-07
-7.09016e-14
4.21793e-08
-1.86321e-07
-7.71189e-14
2.95864e-08
-1.97484e-07
-8.07132e-14
1.48563e-08
-2.02009e-07
-7.87426e-14
-2.22029e-09
-1.99277e-07
-7.21229e-14
-2.17185e-08
-1.88891e-07
-7.39131e-14
-4.34515e-08
-1.70824e-07
-1.13007e-13
-6.66216e-08
-1.4553e-07
-2.07862e-13
-8.9086e-08
-1.13604e-07
-2.43833e-13
-1.0612e-07
-6.92173e-08
1.55422e-15
-1.05847e-07
-3.08422e-13
-7.4439e-08
-2.19205e-07
5.60577e-07
-2.62616e-07
2.89294e-07
-2.28518e-07
7.18121e-08
-1.44669e-07
-1.01771e-07
-2.09363e-08
-2.31012e-07
1.34281e-07
-3.22511e-07
3.12677e-07
-3.84437e-07
5.0711e-07
-4.24268e-07
7.11801e-07
-4.47348e-07
9.22124e-07
-4.58053e-07
1.13426e-06
-4.60023e-07
1.34529e-06
-4.55571e-07
1.55299e-06
-4.46432e-07
1.75564e-06
-4.33853e-07
1.95198e-06
-4.18764e-07
2.14104e-06
-4.01867e-07
2.32213e-06
-3.83702e-07
2.49476e-06
-3.64691e-07
2.65861e-06
-3.45169e-07
2.81348e-06
-3.25401e-07
2.9593e-06
-3.05601e-07
3.09606e-06
-2.85945e-07
3.22386e-06
-2.66571e-07
3.34283e-06
-2.47595e-07
3.45317e-06
-2.29107e-07
3.5551e-06
-2.11181e-07
3.64888e-06
-1.93874e-07
3.73481e-06
-1.77228e-07
3.81319e-06
-1.61276e-07
3.88432e-06
-1.46039e-07
3.94855e-06
-1.31529e-07
4.0062e-06
-1.17753e-07
4.05761e-06
-1.04708e-07
4.1031e-06
-9.23874e-08
4.14302e-06
-8.07799e-08
4.17767e-06
-6.98693e-08
4.20737e-06
-5.96366e-08
4.23244e-06
-5.00602e-08
4.25316e-06
-4.11162e-08
4.26983e-06
-3.27791e-08
4.28271e-06
-2.50223e-08
4.29207e-06
-1.78185e-08
4.29816e-06
-1.11401e-08
4.30121e-06
-4.95898e-09
4.30145e-06
7.52446e-10
4.29909e-06
6.02115e-09
4.29433e-06
1.08739e-08
4.28735e-06
1.53368e-08
4.27834e-06
1.94349e-08
4.26745e-06
2.31923e-08
4.25485e-06
2.66318e-08
4.24067e-06
2.97751e-08
4.22505e-06
3.2643e-08
4.20812e-06
3.5255e-08
4.18999e-06
3.76296e-08
4.17077e-06
3.97841e-08
4.15056e-06
4.17348e-08
4.12945e-06
4.34969e-08
4.10752e-06
4.50846e-08
4.08487e-06
4.65113e-08
4.06156e-06
4.77893e-08
4.03765e-06
4.89301e-08
4.01322e-06
4.99443e-08
3.98832e-06
5.08419e-08
3.963e-06
5.16321e-08
3.93732e-06
5.23235e-08
3.91131e-06
5.29239e-08
3.88503e-06
5.34407e-08
3.8585e-06
5.38808e-08
3.83177e-06
5.42506e-08
3.80487e-06
5.45559e-08
3.77782e-06
5.48022e-08
3.75066e-06
5.49946e-08
3.7234e-06
5.5138e-08
3.69608e-06
5.52367e-08
3.66871e-06
5.5295e-08
3.64131e-06
5.53167e-08
3.6139e-06
5.53054e-08
3.5865e-06
5.52646e-08
3.55911e-06
5.51975e-08
3.53174e-06
5.51071e-08
3.50442e-06
5.49963e-08
3.47714e-06
5.48676e-08
3.44993e-06
5.47236e-08
3.42277e-06
5.45667e-08
3.39568e-06
5.43992e-08
3.36867e-06
5.42231e-08
3.34174e-06
5.40404e-08
3.31488e-06
5.38531e-08
3.28811e-06
5.36629e-08
3.26141e-06
5.34716e-08
3.23481e-06
5.32807e-08
3.20828e-06
5.30919e-08
3.18183e-06
5.29065e-08
3.15546e-06
5.2726e-08
3.12917e-06
5.25518e-08
3.10295e-06
5.2385e-08
3.0768e-06
5.2227e-08
3.05071e-06
5.20789e-08
3.02468e-06
5.19418e-08
2.9987e-06
5.18167e-08
2.97277e-06
5.17048e-08
2.94688e-06
5.1607e-08
2.92102e-06
5.15243e-08
2.89518e-06
5.14577e-08
2.86936e-06
5.1408e-08
2.84355e-06
5.1376e-08
2.81774e-06
5.13628e-08
2.79192e-06
5.1369e-08
2.76607e-06
5.13955e-08
2.7402e-06
5.1443e-08
2.71428e-06
5.15125e-08
2.68831e-06
5.16045e-08
2.66228e-06
5.17198e-08
2.63617e-06
5.18592e-08
2.60997e-06
5.20233e-08
2.58368e-06
5.22127e-08
2.55727e-06
5.24283e-08
2.53073e-06
5.26706e-08
2.50406e-06
5.29402e-08
2.47724e-06
5.32378e-08
2.45024e-06
5.3564e-08
2.42307e-06
5.39192e-08
2.3957e-06
5.43041e-08
2.36812e-06
5.47191e-08
2.34032e-06
5.51649e-08
2.31228e-06
5.56417e-08
2.28398e-06
5.61501e-08
2.25542e-06
5.66904e-08
2.22657e-06
5.72631e-08
2.19741e-06
5.78683e-08
2.16794e-06
5.85064e-08
2.13814e-06
5.91775e-08
2.10798e-06
5.98819e-08
2.07746e-06
6.06197e-08
2.04656e-06
6.13907e-08
2.01527e-06
6.21951e-08
1.98356e-06
6.30327e-08
1.95142e-06
6.39033e-08
1.91884e-06
6.48065e-08
1.8858e-06
6.57421e-08
1.85228e-06
6.67095e-08
1.81828e-06
6.7708e-08
1.78378e-06
6.87371e-08
1.74876e-06
6.97957e-08
1.71321e-06
7.0883e-08
1.67712e-06
7.19977e-08
1.64047e-06
7.31385e-08
1.60326e-06
7.4304e-08
1.56548e-06
7.54924e-08
1.52711e-06
7.67019e-08
1.48815e-06
7.79304e-08
1.4486e-06
7.91754e-08
1.40844e-06
8.04345e-08
1.36767e-06
8.17047e-08
1.3263e-06
8.29827e-08
1.28431e-06
8.42652e-08
1.24172e-06
8.55482e-08
1.19852e-06
8.68274e-08
1.15473e-06
8.80981e-08
1.11034e-06
8.9355e-08
1.06538e-06
9.05924e-08
1.01985e-06
9.18038e-08
9.73785e-07
9.29824e-08
9.27195e-07
9.41202e-08
8.8011e-07
9.52086e-08
8.32561e-07
9.6238e-08
7.84586e-07
9.71977e-08
7.36227e-07
9.80757e-08
6.87532e-07
9.88586e-08
6.38557e-07
9.95314e-08
5.89368e-07
1.00077e-07
5.40037e-07
1.00477e-07
4.90647e-07
1.00709e-07
4.41294e-07
1.00748e-07
3.92085e-07
1.00568e-07
3.43144e-07
1.00135e-07
2.94609e-07
9.94125e-08
2.46639e-07
9.83582e-08
1.99415e-07
9.69212e-08
1.53145e-07
9.50417e-08
1.08061e-07
9.26471e-08
6.44248e-08
8.96425e-08
2.25327e-08
8.59436e-08
-1.72684e-08
8.14596e-08
-5.4576e-08
7.6065e-08
-8.89463e-08
6.96197e-08
-1.19888e-07
6.19584e-08
-1.46847e-07
5.28879e-08
-1.69213e-07
4.21788e-08
-1.86321e-07
2.95859e-08
-1.97484e-07
1.48558e-08
-2.02009e-07
-2.22089e-09
-1.99277e-07
-2.17191e-08
-1.88892e-07
-4.34523e-08
-1.70825e-07
-6.66226e-08
-1.45532e-07
-8.90871e-08
-1.13607e-07
-1.06122e-07
-6.92277e-08
-1.05851e-07
-7.44466e-08
-6.39782e-08
8.47251e-15
6.24584e-07
-1.46548e-08
9.68192e-14
2.39994e-07
7.91089e-08
-1.87523e-14
-2.19441e-08
1.94779e-07
-2.63864e-14
-2.17436e-07
3.27951e-07
-1.09688e-14
-3.6418e-07
4.76696e-07
1.88786e-14
-4.71253e-07
6.38686e-07
5.31358e-14
-5.46423e-07
8.10951e-07
7.84626e-14
-5.9653e-07
9.9065e-07
8.7896e-14
-6.27045e-07
1.17507e-06
8.23761e-14
-6.42474e-07
1.36155e-06
6.6944e-14
-6.46504e-07
1.54786e-06
4.82957e-14
-6.41872e-07
1.7321e-06
3.1455e-14
-6.30679e-07
1.91278e-06
1.90517e-14
-6.1453e-07
2.08868e-06
1.1634e-14
-5.9466e-07
2.25885e-06
8.46292e-15
-5.72034e-07
2.42256e-06
8.30679e-15
-5.47411e-07
2.57926e-06
9.93049e-15
-5.21397e-07
2.72857e-06
1.23591e-14
-4.94478e-07
2.87022e-06
1.49005e-14
-4.67048e-07
3.00405e-06
1.71417e-14
-4.39429e-07
3.12999e-06
1.88799e-14
-4.11884e-07
3.24804e-06
2.00457e-14
-3.84628e-07
3.35829e-06
2.06511e-14
-3.57837e-07
3.46083e-06
2.0802e-14
-3.31654e-07
3.55584e-06
2.05748e-14
-3.06194e-07
3.64352e-06
2.007e-14
-2.81549e-07
3.72408e-06
1.9409e-14
-2.5779e-07
3.79777e-06
1.86527e-14
-2.34969e-07
3.86486e-06
1.78964e-14
-2.13126e-07
3.92562e-06
1.71712e-14
-1.92285e-07
3.98032e-06
1.65138e-14
-1.72458e-07
4.02927e-06
1.59448e-14
-1.5365e-07
4.07273e-06
1.54712e-14
-1.35855e-07
4.11101e-06
1.50861e-14
-1.1906e-07
4.14439e-06
1.47877e-14
-1.03247e-07
4.17314e-06
1.45535e-14
-8.83914e-08
4.19755e-06
1.438e-14
-7.44653e-08
4.21787e-06
1.42517e-14
-6.14373e-08
4.23436e-06
1.41493e-14
-4.92732e-08
4.24728e-06
1.40869e-14
-3.79372e-08
4.25685e-06
1.40435e-14
-2.73919e-08
4.26331e-06
1.40053e-14
-1.7599e-08
4.26687e-06
1.39723e-14
-8.52019e-09
4.26774e-06
1.39567e-14
-1.16898e-10
4.26611e-06
1.39498e-14
7.64846e-09
4.26217e-06
1.39446e-14
1.48131e-08
4.25609e-06
1.3948e-14
2.14136e-08
4.24804e-06
1.39619e-14
2.74852e-08
4.23817e-06
1.39844e-14
3.30619e-08
4.22663e-06
1.40104e-14
3.81761e-08
4.21354e-06
1.40625e-14
4.28588e-08
4.19905e-06
1.4118e-14
4.71395e-08
4.18325e-06
1.41683e-14
5.10462e-08
4.16628e-06
1.42376e-14
5.46053e-08
4.14822e-06
1.42966e-14
5.78417e-08
4.12918e-06
1.43816e-14
6.07787e-08
4.10923e-06
1.44614e-14
6.34385e-08
4.08847e-06
1.45429e-14
6.58414e-08
4.06698e-06
1.46262e-14
6.80068e-08
4.04481e-06
1.47146e-14
6.99524e-08
4.02205e-06
1.48048e-14
7.16951e-08
3.99874e-06
1.48915e-14
7.32504e-08
3.97495e-06
1.49817e-14
7.46327e-08
3.95072e-06
1.50685e-14
7.58554e-08
3.92612e-06
1.51586e-14
7.69312e-08
3.90117e-06
1.52315e-14
7.78715e-08
3.87592e-06
1.53078e-14
7.86873e-08
3.85041e-06
1.53893e-14
7.93885e-08
3.82468e-06
1.54656e-14
7.99845e-08
3.79875e-06
1.55298e-14
8.0484e-08
3.77265e-06
1.56027e-14
8.08952e-08
3.74642e-06
1.56686e-14
8.12255e-08
3.72007e-06
1.5731e-14
8.14821e-08
3.69364e-06
1.57848e-14
8.16716e-08
3.66713e-06
1.58368e-14
8.18e-08
3.64057e-06
1.58767e-14
8.18732e-08
3.61398e-06
1.59218e-14
8.18967e-08
3.58737e-06
1.59599e-14
8.18753e-08
3.56075e-06
1.59998e-14
8.18141e-08
3.53414e-06
1.6038e-14
8.17173e-08
3.50754e-06
1.6064e-14
8.15892e-08
3.48097e-06
1.60917e-14
8.14339e-08
3.45444e-06
1.61212e-14
8.1255e-08
3.42795e-06
1.61385e-14
8.10561e-08
3.40151e-06
1.61593e-14
8.08405e-08
3.37512e-06
1.61697e-14
8.06114e-08
3.34878e-06
1.61784e-14
8.03718e-08
3.32251e-06
1.61975e-14
8.01245e-08
3.2963e-06
1.62061e-14
7.98722e-08
3.27015e-06
1.62304e-14
7.96175e-08
3.24407e-06
1.62356e-14
7.93627e-08
3.21805e-06
1.62443e-14
7.91102e-08
3.19209e-06
1.62495e-14
7.88623e-08
3.16619e-06
1.62616e-14
7.86209e-08
3.14036e-06
1.62685e-14
7.83881e-08
3.11457e-06
1.62876e-14
7.81657e-08
3.08884e-06
1.63015e-14
7.79557e-08
3.06316e-06
1.63171e-14
7.77598e-08
3.03752e-06
1.63344e-14
7.75796e-08
3.01192e-06
1.63517e-14
7.74168e-08
2.98635e-06
1.6376e-14
7.72729e-08
2.9608e-06
1.63916e-14
7.71493e-08
2.93528e-06
1.64228e-14
7.70477e-08
2.90976e-06
1.64541e-14
7.69692e-08
2.88425e-06
1.64939e-14
7.69154e-08
2.85874e-06
1.65338e-14
7.68874e-08
2.83321e-06
1.65789e-14
7.68867e-08
2.80767e-06
1.66344e-14
7.69142e-08
2.78209e-06
1.66917e-14
7.69714e-08
2.75647e-06
1.67506e-14
7.70593e-08
2.7308e-06
1.68166e-14
7.71791e-08
2.70507e-06
1.68946e-14
7.73319e-08
2.67927e-06
1.69761e-14
7.75187e-08
2.65339e-06
1.70525e-14
7.77406e-08
2.62741e-06
1.71392e-14
7.79987e-08
2.60133e-06
1.72363e-14
7.82938e-08
2.57513e-06
1.73369e-14
7.86271e-08
2.5488e-06
1.74445e-14
7.89993e-08
2.52232e-06
1.75642e-14
7.94115e-08
2.49569e-06
1.76821e-14
7.98644e-08
2.4689e-06
1.78053e-14
8.0359e-08
2.44192e-06
1.79389e-14
8.08961e-08
2.41474e-06
1.80742e-14
8.14763e-08
2.38736e-06
1.82199e-14
8.21005e-08
2.35975e-06
1.83656e-14
8.27692e-08
2.33191e-06
1.85269e-14
8.34833e-08
2.30381e-06
1.869e-14
8.42431e-08
2.27545e-06
1.88565e-14
8.50493e-08
2.24681e-06
1.90334e-14
8.59023e-08
2.21788e-06
1.92121e-14
8.68025e-08
2.18863e-06
1.93873e-14
8.77503e-08
2.15906e-06
1.95729e-14
8.87458e-08
2.12915e-06
1.97742e-14
8.97892e-08
2.09889e-06
1.99719e-14
9.08806e-08
2.06825e-06
2.01697e-14
9.202e-08
2.03724e-06
2.03761e-14
9.32071e-08
2.00583e-06
2.0586e-14
9.44417e-08
1.97401e-06
2.07994e-14
9.57234e-08
1.94176e-06
2.10162e-14
9.70517e-08
1.90907e-06
2.12382e-14
9.84258e-08
1.87593e-06
2.1469e-14
9.9845e-08