/*--------------------------------*- C++ -*----------------------------------*\
  =========                 |
  \\      /  F ield         | OpenFOAM: The Open Source CFD Toolbox
   \\    /   O peration     | Website:  https://openfoam.org
    \\  /    A nd           | Version:  8
     \\/     M anipulation  |
\*---------------------------------------------------------------------------*/
FoamFile
{
    version     2.0;
    format      ascii;
    class       volScalarField;
    location    "300";
    object      k;
}
// * * * * * * * * * * * * * * * * * * * * * * * * * * * * * * * * * * * * * //

dimensions      [0 2 -2 0 0 0 0];

internalField   nonuniform List<scalar> 
48000
(
0.0037631
0.0066496
0.00942792
0.0120311
0.0144615
0.0166956
0.0186221
0.020064
0.0207382
0.0198015
0.0180715
0.0214598
0.0228572
0.021499
0.0229209
0.0242431
0.0248372
0.0227106
0.0226289
0.0235342
0.0245957
0.0256771
0.0267578
0.027836
0.0289126
0.0299881
0.0310626
0.0321361
0.033208
0.0342777
0.0353445
0.0364074
0.0374657
0.0385183
0.0395643
0.0406028
0.0416326
0.042653
0.0436628
0.0446613
0.0456475
0.0466205
0.0475795
0.0485239
0.0494528
0.0503655
0.0512616
0.0521402
0.053001
0.0538435
0.054667
0.0554713
0.0562558
0.0570203
0.0577644
0.0584878
0.0591901
0.0598712
0.0605309
0.0611688
0.0617848
0.0623788
0.0629507
0.0635004
0.0640278
0.0645328
0.0650155
0.0654758
0.0659137
0.0663293
0.0667225
0.0670934
0.0674419
0.0677682
0.0680721
0.0683537
0.0686132
0.0688504
0.0690656
0.0692586
0.0694298
0.069579
0.0697066
0.0698129
0.0699008
0.0699679
0.0700137
0.0700384
0.0700421
0.0700251
0.0699875
0.0699297
0.0698519
0.0697543
0.0696373
0.069501
0.0693458
0.0691721
0.0689801
0.0687702
0.0685427
0.068298
0.0680364
0.0677582
0.0674638
0.0671536
0.0668279
0.066487
0.0661313
0.0657612
0.0653768
0.0649784
0.0645663
0.0641408
0.0637019
0.06325
0.0627852
0.0623076
0.0618172
0.0613143
0.0607989
0.0602713
0.0597313
0.0591791
0.0586149
0.0580385
0.0574501
0.0568499
0.0562377
0.0556138
0.0549781
0.0543309
0.0536721
0.0530019
0.0523205
0.0516278
0.0509242
0.0502097
0.0494846
0.0487489
0.0480029
0.0472468
0.0464808
0.0457051
0.0449201
0.044126
0.043323
0.0425115
0.0416918
0.0408642
0.0400292
0.0391871
0.0383383
0.0374833
0.0366225
0.0357563
0.0348853
0.0340099
0.0331307
0.0322482
0.031363
0.0304757
0.0295869
0.0286971
0.0278069
0.0269169
0.0260275
0.0251387
0.0242493
0.0233547
0.0224603
0.0218594
0.0271682
0.027456
0.0264747
0.0252383
0.0232581
0.02028
0.022016
0.0219078
0.0207539
0.0182172
0.0179186
0.0178513
0.0201587
0.0204835
0.0200213
0.0190689
0.017815
0.0163891
0.0148729
0.0133128
0.0117317
0.0101838
0.00866797
0.00718389
0.00572137
0.0042698
0.00275914
0.00120434
0.00376201
0.00664745
0.00942608
0.0120288
0.0144524
0.0166509
0.01844
0.0194582
0.0189878
0.0196964
0.0207423
0.0222407
0.022893
0.0215167
0.0229352
0.0242517
0.0248229
0.0226859
0.0226296
0.0235357
0.0245963
0.0256772
0.0267576
0.0278356
0.0289121
0.0299875
0.031062
0.0321354
0.0332073
0.034277
0.0353437
0.0364067
0.0374649
0.0385175
0.0395635
0.0406019
0.0416317
0.042652
0.0436618
0.0446602
0.0456463
0.0466193
0.0475783
0.0485226
0.0494515
0.0503642
0.0512602
0.0521389
0.0529996
0.053842
0.0546655
0.0554698
0.0562543
0.0570188
0.0577628
0.0584862
0.0591885
0.0598696
0.0605292
0.0611671
0.0617831
0.0623771
0.062949
0.0634986
0.064026
0.064531
0.0650136
0.0654739
0.0659118
0.0663273
0.0667205
0.0670914
0.0674399
0.067766
0.0680699
0.0683515
0.0686109
0.0688481
0.0690631
0.0692561
0.0694272
0.0695764
0.069704
0.0698103
0.0698982
0.0699653
0.0700111
0.0700357
0.0700395
0.0700224
0.0699849
0.0699272
0.0698494
0.0697518
0.0696348
0.0694985
0.0693434
0.0691696
0.0689776
0.0687677
0.0685402
0.0682954
0.0680338
0.0677556
0.0674612
0.0671509
0.0668252
0.0664844
0.0661288
0.0657587
0.0653743
0.064976
0.0645639
0.0641383
0.0636995
0.0632476
0.0627828
0.0623051
0.0618148
0.0613119
0.0607966
0.0602689
0.059729
0.0591768
0.0586126
0.0580362
0.0574479
0.0568476
0.0562355
0.0556116
0.0549759
0.0543287
0.0536699
0.0529998
0.0523183
0.0516257
0.0509221
0.0502077
0.0494826
0.0487469
0.0480009
0.0472448
0.0464788
0.0457032
0.0449183
0.0441242
0.0433212
0.0425097
0.04169
0.0408625
0.0400275
0.0391854
0.0383367
0.0374817
0.0366209
0.0357547
0.0348837
0.0340084
0.0331292
0.0322468
0.0313616
0.0304743
0.0295855
0.0286957
0.0278055
0.0269156
0.0260262
0.0251375
0.024248
0.0233533
0.0224572
0.0218482
0.0271506
0.0274767
0.0265126
0.025275
0.023294
0.0202869
0.0219924
0.021907
0.0207781
0.0182454
0.0179136
0.017815
0.0201159
0.0204764
0.0200191
0.0190668
0.017813
0.0163874
0.0148715
0.0133116
0.0117306
0.0101828
0.00866713
0.00718318
0.00572077
0.00426931
0.00275871
0.00120397
0.00577419
0.00976026
0.0130056
0.0159674
0.0187518
0.0213589
0.023753
0.025887
0.0277732
0.0297002
0.0310082
0.0336728
0.0359332
0.0372963
0.0393308
0.0415186
0.0436932
0.0465162
0.0488676
0.0511951
0.0535427
0.0559031
0.0582703
0.0606425
0.063019
0.0653989
0.0677815
0.0701653
0.0725488
0.0749301
0.0773071
0.0796777
0.0820397
0.0843907
0.0867285
0.0890508
0.0913553
0.0936396
0.0959017
0.0981393
0.10035
0.102533
0.104685
0.106806
0.108892
0.110943
0.112957
0.114932
0.116868
0.118764
0.120617
0.122427
0.124194
0.125915
0.127591
0.129221
0.130804
0.132339
0.133826
0.135264
0.136654
0.137994
0.139284
0.140525
0.141716
0.142857
0.143947
0.144987
0.145977
0.146917
0.147806
0.148645
0.149434
0.150173
0.150861
0.1515
0.152089
0.152628
0.153118
0.153558
0.153949
0.154292
0.154586
0.154832
0.15503
0.155181
0.155285
0.155341
0.155351
0.155315
0.155233
0.155106
0.154934
0.154718
0.154458
0.154156
0.153812
0.153426
0.152999
0.152533
0.152027
0.151483
0.150902
0.150283
0.149628
0.148938
0.148214
0.147455
0.146664
0.14584
0.144984
0.144098
0.143181
0.142234
0.141257
0.140251
0.139217
0.138154
0.137063
0.135944
0.134797
0.133623
0.132422
0.131194
0.129939
0.128657
0.127349
0.126015
0.124654
0.123268
0.121855
0.120417
0.118953
0.117464
0.115951
0.114413
0.11285
0.111264
0.109654
0.108021
0.106365
0.104686
0.102986
0.101265
0.0995236
0.0977619
0.0959806
0.0941806
0.0923626
0.0905275
0.0886759
0.0868088
0.0849272
0.083032
0.0811242
0.0792049
0.0772751
0.075336
0.0733887
0.0714345
0.0694747
0.0675107
0.065544
0.0635757
0.0616073
0.0596398
0.0576746
0.0557125
0.0537541
0.0518009
0.0498678
0.0480466
0.0467703
0.0451282
0.0432815
0.0413601
0.0393243
0.0368481
0.0358795
0.0344351
0.0328058
0.0307674
0.0294408
0.0283195
0.0276241
0.0266609
0.0254956
0.024136
0.0226198
0.0210005
0.0193234
0.0176202
0.0159116
0.0142127
0.0125211
0.0108391
0.0091365
0.00735555
0.0053641
0.00273292
0.00577304
0.00975854
0.0130042
0.0159661
0.0187478
0.0213387
0.0236757
0.0256922
0.0276828
0.0297156
0.0317432
0.0339089
0.0359876
0.0373157
0.0393313
0.0415079
0.0436647
0.0464916
0.0488574
0.0511904
0.0535393
0.0558997
0.0582668
0.0606388
0.0630151
0.065395
0.0677775
0.0701613
0.0725447
0.0749259
0.0773028
0.0796733
0.0820352
0.0843861
0.0867239
0.0890461
0.0913505
0.0936348
0.0958968
0.0981343
0.100345
0.102528
0.10468
0.1068
0.108886
0.110937
0.112951
0.114927
0.116863
0.118758
0.120611
0.122421
0.124188
0.125909
0.127585
0.129215
0.130798
0.132333
0.13382
0.135258
0.136648
0.137988
0.139278
0.140519
0.14171
0.14285
0.143941
0.144981
0.145971
0.14691
0.147799
0.148638
0.149427
0.150166
0.150855
0.151493
0.152082
0.152621
0.153111
0.153551
0.153942
0.154285
0.154579
0.154825
0.155023
0.155174
0.155277
0.155334
0.155344
0.155308
0.155226
0.155098
0.154927
0.154711
0.154451
0.154149
0.153805
0.153419
0.152992
0.152526
0.15202
0.151476
0.150895
0.150276
0.149621
0.148931
0.148207
0.147448
0.146657
0.145833
0.144978
0.144091
0.143174
0.142227
0.14125
0.140245
0.13921
0.138147
0.137056
0.135937
0.134791
0.133617
0.132416
0.131188
0.129933
0.128651
0.127343
0.126009
0.124648
0.123262
0.121849
0.120411
0.118948
0.117459
0.115945
0.114407
0.112845
0.111259
0.109649
0.108016
0.10636
0.104682
0.102982
0.101261
0.0995189
0.0977572
0.0959761
0.0941762
0.0923583
0.0905231
0.0886716
0.0868046
0.0849231
0.0830279
0.0811203
0.0792011
0.0772714
0.0753323
0.0733851
0.0714309
0.0694712
0.0675074
0.0655407
0.0635725
0.0616041
0.0596367
0.0576716
0.0557095
0.053751
0.0517972
0.049862
0.0480363
0.0467691
0.0451414
0.0433024
0.0413856
0.039351
0.0368486
0.0358683
0.0344397
0.0328223
0.0307671
0.0294206
0.028287
0.0276038
0.0266528
0.0254926
0.024134
0.0226182
0.0209993
0.0193224
0.0176193
0.0159108
0.014212
0.0125205
0.0108387
0.0091362
0.00735542
0.00536418
0.00273341
0.00813062
0.0126871
0.01634
0.0196626
0.0228304
0.0258805
0.0288242
0.0316753
0.0344833
0.0373553
0.0400589
0.0430308
0.045975
0.0487375
0.0516025
0.0545242
0.0574595
0.060524
0.0635266
0.0665268
0.0695442
0.0725786
0.0756269
0.0786865
0.0817553
0.0848313
0.0879126
0.090997
0.0940821
0.0971653
0.100244
0.103315
0.106375
0.109422
0.112453
0.115464
0.118453
0.121416
0.124351
0.127254
0.130124
0.132958
0.135752
0.138505
0.141215
0.143879
0.146496
0.149063
0.151579
0.154042
0.156452
0.158805
0.161102
0.163341
0.165521
0.16764
0.169699
0.171696
0.173631
0.175502
0.177311
0.179055
0.180734
0.18235
0.1839
0.185385
0.186805
0.188159
0.189449
0.190672
0.191831
0.192924
0.193952
0.194915
0.195812
0.196645
0.197413
0.198117
0.198756
0.199331
0.199843
0.200291
0.200676
0.200999
0.20126
0.201459
0.201597
0.201674
0.201691
0.201648
0.201545
0.201384
0.201165
0.200889
0.200557
0.200169
0.199727
0.199231
0.198682
0.198081
0.197429
0.196727
0.195977
0.195178
0.194333
0.193442
0.192505
0.191525
0.190502
0.189437
0.18833
0.187183
0.185997
0.184771
0.183507
0.182205
0.180866
0.17949
0.178078
0.176629
0.175144
0.173625
0.17207
0.17048
0.168855
0.167196
0.165503
0.163776
0.162015
0.16022
0.158392
0.156531
0.154637
0.15271
0.150752
0.148761
0.146739
0.144687
0.142603
0.14049
0.138348
0.136176
0.133976
0.131749
0.129496
0.127216
0.124911
0.122582
0.12023
0.117855
0.115459
0.113043
0.110609
0.108156
0.105687
0.103204
0.100707
0.0981978
0.0956782
0.0931498
0.0906142
0.0880734
0.085529
0.0829829
0.080437
0.0778929
0.0753526
0.0728181
0.0702916
0.0677769
0.0652825
0.0628304
0.0604775
0.0581132
0.0557395
0.0533636
0.0509885
0.0485612
0.0464411
0.0443157
0.0421984
0.040015
0.0380195
0.0361466
0.0344057
0.0326205
0.0308311
0.0290152
0.0271575
0.0252642
0.0233503
0.0214304
0.0195159
0.017613
0.0157205
0.0138278
0.0119028
0.0098709
0.00756241
0.00439867
0.00812911
0.0126852
0.0163384
0.0196616
0.0228297
0.0258771
0.0288093
0.0316455
0.0345203
0.0373738
0.0402133
0.043097
0.0459993
0.048744
0.0515968
0.0545115
0.0574408
0.06051
0.063519
0.0665223
0.0695407
0.0725753
0.0756236
0.0786831
0.0817518
0.0848277
0.087909
0.0909933
0.0940784
0.0971615
0.10024
0.103311
0.106371
0.109418
0.112449
0.11546
0.118449
0.121412
0.124346
0.12725
0.13012
0.132953
0.135747
0.138501
0.14121
0.143874
0.146491
0.149058
0.151574
0.154037
0.156447
0.1588
0.161097
0.163336
0.165515
0.167635
0.169694
0.171691
0.173625
0.175497
0.177305
0.179049
0.180729
0.182344
0.183894
0.185379
0.186799
0.188154
0.189443
0.190667
0.191825
0.192918
0.193946
0.194909
0.195807
0.196639
0.197407
0.198111
0.19875
0.199325
0.199837
0.200285
0.20067
0.200993
0.201254
0.201453
0.201591
0.201668
0.201685
0.201642
0.201539
0.201378
0.201159
0.200884
0.200551
0.200163
0.199721
0.199225
0.198676
0.198075
0.197423
0.196722
0.195971
0.195173
0.194327
0.193436
0.1925
0.191519
0.190496
0.189431
0.188325
0.187178
0.185991
0.184766
0.183502
0.1822
0.180861
0.179485
0.178072
0.176624
0.175139
0.17362
0.172065
0.170475
0.16885
0.167191
0.165498
0.163771
0.16201
0.160215
0.158387
0.156526
0.154632
0.152706
0.150747
0.148757
0.146735
0.144682
0.142599
0.140486
0.138344
0.136172
0.133972
0.131745
0.129492
0.127212
0.124907
0.122579
0.120226
0.117852
0.115456
0.11304
0.110605
0.108153
0.105684
0.103201
0.100704
0.0981948
0.0956753
0.0931469
0.0906115
0.0880707
0.0855264
0.0829804
0.0804345
0.0778905
0.0753503
0.0728157
0.0702893
0.0677745
0.06528
0.0628282
0.0604799
0.0581202
0.0557496
0.0533755
0.0509994
0.0485614
0.0464408
0.0443204
0.042206
0.040015
0.03801
0.0361327
0.034396
0.0326155
0.0308288
0.0290137
0.0271564
0.0252633
0.0233495
0.0214298
0.0195153
0.0176126
0.0157201
0.0138275
0.0119027
0.00987097
0.00756267
0.00439923
0.0105318
0.0155522
0.0196108
0.0233093
0.0268574
0.0303283
0.0337543
0.0371557
0.0405545
0.0439797
0.0473756
0.0508223
0.054278
0.0577048
0.0611451
0.0645963
0.0680481
0.0715214
0.0749959
0.0784811
0.0819831
0.0855025
0.0890379
0.0925872
0.0961483
0.0997189
0.103297
0.106879
0.110462
0.114044
0.117622
0.121192
0.12475
0.128294
0.131819
0.135323
0.138801
0.142251
0.145668
0.14905
0.152393
0.155695
0.158953
0.162163
0.165323
0.16843
0.171483
0.174479
0.177416
0.180292
0.183106
0.185855
0.188538
0.191154
0.193701
0.196179
0.198586
0.200922
0.203184
0.205374
0.20749
0.209531
0.211497
0.213388
0.215203
0.216943
0.218606
0.220193
0.221704
0.223138
0.224497
0.225778
0.226984
0.228114
0.229167
0.230145
0.231047
0.231874
0.232626
0.233303
0.233905
0.234434
0.234889
0.23527
0.23558
0.235817
0.235983
0.236078
0.236103
0.236057
0.235943
0.23576
0.235509
0.235192
0.234809
0.234362
0.23385
0.233276
0.232639
0.231943
0.231186
0.230372
0.2295
0.228572
0.227589
0.226552
0.225463
0.224322
0.223131
0.22189
0.220601
0.219265
0.217882
0.216453
0.214979
0.213461
0.211899
0.210294
0.208647
0.206957
0.205225
0.203452
0.201637
0.199782
0.197887
0.195951
0.193975
0.191959
0.189904
0.187809
0.185676
0.183504
0.181294
0.179046
0.176761
0.174438
0.172079
0.169683
0.167253
0.164787
0.162286
0.159753
0.157186
0.154587
0.151957
0.149297
0.146608
0.14389
0.141145
0.138374
0.135578
0.132759
0.129918
0.127056
0.124176
0.121278
0.118364
0.115437
0.112497
0.109547
0.106589
0.103626
0.100658
0.0976885
0.0947198
0.0917541
0.0887939
0.085842
0.0829017
0.0799774
0.0770756
0.0742046
0.071373
0.0685632
0.0657743
0.0630101
0.0602737
0.0575588
0.0549329
0.0523588
0.0498336
0.0473387
0.0449179
0.0425707
0.0402938
0.0380461
0.0358345
0.0336477
0.0314722
0.0293033
0.0271433
0.024997
0.0228689
0.0207607
0.0186685
0.0165781
0.0144541
0.0122112
0.00962775
0.00604205
0.0105294
0.0155495
0.0196083
0.0233072
0.0268557
0.0303256
0.0337474
0.0371437
0.0405602
0.043981
0.0474018
0.0508368
0.0542839
0.0577049
0.0611409
0.0645896
0.0680398
0.0715147
0.0749912
0.0784776
0.08198
0.0854995
0.0890349
0.0925842
0.0961453
0.0997159
0.103293
0.106875
0.110459
0.114041
0.117619
0.121188
0.124747
0.12829
0.131816
0.135319
0.138798
0.142247
0.145664
0.149046
0.15239
0.155692
0.158949
0.162159
0.165319
0.168427
0.171479
0.174475
0.177412
0.180288
0.183102
0.185851
0.188534
0.19115
0.193697
0.196175
0.198582
0.200917
0.20318
0.20537
0.207485
0.209527
0.211493
0.213384
0.215199
0.216938
0.218602
0.220189
0.2217
0.223134
0.224492
0.225774
0.22698
0.228109
0.229163
0.230141
0.231043
0.23187
0.232621
0.233298
0.233901
0.234429
0.234884
0.235266
0.235576
0.235813
0.235979
0.236074
0.236098
0.236053
0.235938
0.235756
0.235505
0.235188
0.234805
0.234357
0.233846
0.233271
0.232635
0.231938
0.231182
0.230367
0.229496
0.228568
0.227585
0.226548
0.225459
0.224318
0.223126
0.221886
0.220597
0.219261
0.217878
0.216449
0.214975
0.213457
0.211896
0.210291
0.208643
0.206953
0.205221
0.203448
0.201634
0.199779
0.197883
0.195947
0.193971
0.191955
0.1899
0.187806
0.185673
0.183501
0.181291
0.179043
0.176757
0.174435
0.172076
0.16968
0.16725
0.164784
0.162284
0.15975
0.157183
0.154584
0.151954
0.149294
0.146605
0.143887
0.141142
0.138371
0.135576
0.132757
0.129916
0.127054
0.124174
0.121276
0.118362
0.115435
0.112495
0.109545
0.106588
0.103624
0.100656
0.0976868
0.0947181
0.0917524
0.0887923
0.0858404
0.0829001
0.0799759
0.0770741
0.0742033
0.0713728
0.0685643
0.0657768
0.0630133
0.0602768
0.057559
0.0549333
0.0523606
0.0498362
0.0473382
0.0449142
0.0425658
0.0402901
0.038044
0.0358334
0.0336469
0.0314715
0.0293027
0.0271428
0.0249966
0.0228686
0.0207605
0.0186683
0.016578
0.0144542
0.0122115
0.00962823
0.00604286
0.0130667
0.0184705
0.0229315
0.027016
0.0309538
0.0348392
0.0387087
0.042578
0.0464545
0.0503425
0.0542279
0.0581203
0.0620134
0.0658987
0.0697813
0.0736614
0.0775372
0.0814138
0.0852925
0.0891784
0.093076
0.096987
0.100912
0.10485
0.108799
0.112758
0.116725
0.120696
0.12467
0.128642
0.13261
0.13657
0.140518
0.14445
0.148364
0.152254
0.156117
0.15995
0.163747
0.167507
0.171225
0.174897
0.178522
0.182094
0.185612
0.189073
0.192474
0.195813
0.199086
0.202293
0.205431
0.208497
0.211492
0.214411
0.217256
0.220023
0.222712
0.225321
0.227851
0.230299
0.232664
0.234948
0.237148
0.239264
0.241296
0.243244
0.245107
0.246886
0.248579
0.250187
0.25171
0.253149
0.254502
0.25577
0.256953
0.258052
0.259066
0.259996
0.260843
0.261606
0.262285
0.262882
0.263397
0.263831
0.264183
0.264454
0.264646
0.264758
0.264792
0.264748
0.264626
0.264428
0.264155
0.263807
0.263385
0.262891
0.262326
0.26169
0.260986
0.260213
0.259374
0.258469
0.2575
0.256468
0.255375
0.254222
0.253009
0.251739
0.250411
0.249029
0.247592
0.246102
0.24456
0.242966
0.241321
0.239627
0.237883
0.236091
0.234251
0.232363
0.230428
0.228447
0.22642
0.224347
0.222229
0.220065
0.217857
0.215604
0.213307
0.210966
0.208582
0.206154
0.203683
0.20117
0.198616
0.196019
0.193382
0.190704
0.187987
0.18523
0.182435
0.179602
0.176733
0.173828
0.170888
0.167914
0.164907
0.161869
0.1588
0.155702
0.152577
0.149426
0.14625
0.143051
0.139831
0.136592
0.133335
0.130063
0.126778
0.123481
0.120176
0.116864
0.113548
0.110231
0.106915
0.103604
0.100299
0.0970046
0.0937241
0.0904615
0.0872215
0.0840087
0.0808262
0.0776719
0.0745469
0.0714548
0.068399
0.0653813
0.062416
0.0595023
0.0566417
0.0538312
0.0510776
0.048384
0.0457501
0.0431665
0.0406319
0.03814
0.0356832
0.0332565
0.0308584
0.0284892
0.0261492
0.0238371
0.0215462
0.0192591
0.0169349
0.0144764
0.0116236
0.00769197
0.0130622
0.0184662
0.0229277
0.0270128
0.0309511
0.0348364
0.0387044
0.0425716
0.0464511
0.0503389
0.0542291
0.0581211
0.0620131
0.0658972
0.0697787
0.0736581
0.0775334
0.0814102
0.0852893
0.0891756
0.0930732
0.0969843
0.100909
0.104847
0.108797
0.112756
0.116722
0.120694
0.124667
0.128639
0.132607
0.136567
0.140515
0.144447
0.148361
0.152251
0.156114
0.159946
0.163744
0.167504
0.171222
0.174894
0.178518
0.182091
0.185609
0.18907
0.192471
0.195809
0.199083
0.20229
0.205427
0.208494
0.211488
0.214408
0.217252
0.22002
0.222708
0.225318
0.227847
0.230295
0.232661
0.234944
0.237144
0.239261
0.241293
0.243241
0.245104
0.246882
0.248576
0.250184
0.251707
0.253145
0.254498
0.255766
0.25695
0.258048
0.259063
0.259993
0.260839
0.261602
0.262282
0.262879
0.263394
0.263827
0.264179
0.264451
0.264643
0.264755
0.264789
0.264744
0.264623
0.264425
0.264151
0.263803
0.263382
0.262888
0.262323
0.261687
0.260982
0.26021
0.25937
0.258466
0.257497
0.256465
0.255372
0.254219
0.253006
0.251735
0.250408
0.249026
0.247589
0.246099
0.244557
0.242963
0.241318
0.239624
0.23788
0.236088
0.234248
0.23236
0.230426
0.228445
0.226417
0.224344
0.222226
0.220063
0.217854
0.215602
0.213305
0.210964
0.208579
0.206151
0.203681
0.201168
0.198613
0.196017
0.19338
0.190702
0.187985
0.185228
0.182433
0.1796
0.176731
0.173826
0.170886
0.167912
0.164905
0.161867
0.158798
0.155701
0.152575
0.149424
0.146248
0.143049
0.139829
0.13659
0.133334
0.130061
0.126776
0.12348
0.120174
0.116863
0.113547
0.11023
0.106914
0.103603
0.100298
0.0970035
0.0937231
0.0904605
0.0872205
0.0840079
0.0808257
0.0776718
0.0745473
0.0714554
0.0683996
0.0653811
0.0624156
0.0595023
0.0566419
0.0538307
0.0510763
0.0483825
0.0457489
0.0431657
0.0406313
0.0381396
0.0356828
0.0332562
0.0308582
0.028489
0.0261491
0.0238371
0.0215463
0.0192593
0.0169352
0.0144769
0.0116243
0.00769302
0.015753
0.0214778
0.026352
0.0308405
0.0351889
0.0394956
0.0437965
0.0481027
0.0524148
0.0567292
0.0610385
0.0653396
0.0696292
0.0739048
0.0781669
0.0824166
0.0866548
0.0908848
0.0951104
0.0993363
0.103567
0.107804
0.112051
0.116308
0.120574
0.124848
0.129128
0.133413
0.1377
0.141985
0.146265
0.150538
0.154798
0.159043
0.163268
0.167469
0.171643
0.175784
0.179889
0.183954
0.187975
0.191949
0.195872
0.19974
0.203551
0.207301
0.210987
0.214607
0.218158
0.221637
0.225042
0.228372
0.231624
0.234797
0.237888
0.240897
0.243821
0.24666
0.249412
0.252077
0.254654
0.257141
0.259539
0.261846
0.264062
0.266187
0.26822
0.270162
0.272011
0.273768
0.275433
0.277005
0.278485
0.279873
0.281169
0.282373
0.283485
0.284505
0.285435
0.286273
0.287021
0.28768
0.288248
0.288728
0.289119
0.289423
0.289639
0.28977
0.289814
0.289774
0.289649
0.289441
0.289151
0.28878
0.288328
0.287798
0.28719
0.286505
0.285744
0.28491
0.284002
0.283024
0.281975
0.280857
0.279672
0.278421
0.277105
0.275726
0.274285
0.272783
0.271222
0.269602
0.267924
0.26619
0.264401
0.262556
0.260658
0.258707
0.256702
0.254646
0.252538
0.250379
0.24817
0.245911
0.243601
0.241243
0.238835
0.236378
0.233873
0.231321
0.22872
0.226072
0.223378
0.220637
0.21785
0.215018
0.212141
0.209221
0.206256
0.203249
0.2002
0.19711
0.19398
0.190811
0.187603
0.184359
0.181079
0.177764
0.174417
0.171037
0.167628
0.16419
0.160726
0.157237
0.153725
0.150191
0.14664
0.143071
0.139488
0.135894
0.13229
0.128679
0.125065
0.121449
0.117836
0.114227
0.110627
0.107038
0.103465
0.0999111
0.09638
0.0928756
0.0894005
0.0859563
0.0825453
0.0791707
0.0758361
0.0725444
0.0693007
0.0661078
0.0629681
0.0598827
0.0568532
0.0538815
0.0509681
0.0481107
0.0453075
0.042555
0.0398486
0.0371847
0.0345607
0.0319753
0.0294266
0.0269108
0.024419
0.0219301
0.0193973
0.0167124
0.0135962
0.00934485
0.0157435
0.0214695
0.0263453
0.0308357
0.0351855
0.0394929
0.0437937
0.0480993
0.0524118
0.0567264
0.0610366
0.0653379
0.0696275
0.0739029
0.0781648
0.0824142
0.0866523
0.0908822
0.0951078
0.0993337
0.103564
0.107802
0.112049
0.116306
0.120571
0.124845
0.129126
0.133411
0.137697
0.141982
0.146263
0.150535
0.154796
0.159041
0.163266
0.167467
0.17164
0.175781
0.179886
0.183951
0.187973
0.191946
0.195869
0.199737
0.203548
0.207298
0.210984
0.214604
0.218155
0.221634
0.22504
0.228369
0.231621
0.234794
0.237885
0.240894
0.243818
0.246657
0.24941
0.252075
0.254651
0.257139
0.259536
0.261843
0.264059
0.266184
0.268218
0.270159
0.272008
0.273765
0.27543
0.277002
0.278482
0.27987
0.281166
0.28237
0.283482
0.284502
0.285432
0.28627
0.287019
0.287677
0.288245
0.288725
0.289116
0.28942
0.289637
0.289767
0.289811
0.289771
0.289646
0.289438
0.289148
0.288777
0.288326
0.287795
0.287187
0.286502
0.285742
0.284907
0.284
0.283021
0.281972
0.280854
0.279669
0.278418
0.277103
0.275724
0.274283
0.272781
0.271219
0.269599
0.267922
0.266188
0.264398
0.262554
0.260656
0.258704
0.2567
0.254644
0.252536
0.250377
0.248168
0.245909
0.243599
0.241241
0.238833
0.236376
0.233872
0.231319
0.228718
0.22607
0.223376
0.220635
0.217849
0.215017
0.21214
0.209219
0.206255
0.203247
0.200199
0.197109
0.193978
0.190809
0.187602
0.184358
0.181078
0.177763
0.174415
0.171036
0.167627
0.164189
0.160725
0.157236
0.153724
0.15019
0.146639
0.14307
0.139487
0.135893
0.132289
0.128678
0.125064
0.121448
0.117835
0.114226
0.110626
0.107037
0.103464
0.0999104
0.0963794
0.092875
0.0894
0.085956
0.0825451
0.0791706
0.0758359
0.0725441
0.0693003
0.0661074
0.0629679
0.0598823
0.0568527
0.0538809
0.0509676
0.0481103
0.0453072
0.0425547
0.0398484
0.0371845
0.0345606
0.0319752
0.0294266
0.0269109
0.0244191
0.0219303
0.0193977
0.0167131
0.013597
0.00934612
0.0185582
0.0245787
0.0298804
0.0348055
0.0395963
0.0443456
0.0490858
0.0538246
0.0585594
0.0632837
0.0679905
0.0726744
0.0773321
0.0819623
0.0865655
0.0911437
0.0956998
0.100238
0.104762
0.109278
0.11379
0.118302
0.122817
0.127336
0.131861
0.136391
0.140926
0.145463
0.150001
0.154537
0.159068
0.16359
0.168101
0.172596
0.17707
0.181521
0.185943
0.190333
0.194685
0.198997
0.203264
0.207483
0.211648
0.215758
0.219807
0.223794
0.227714
0.231566
0.235345
0.23905
0.242678
0.246226
0.249693
0.253076
0.256374
0.259585
0.262707
0.265739
0.26868
0.271529
0.274284
0.276945
0.279511
0.281981
0.284354
0.286631
0.28881
0.290892
0.292876
0.294762
0.296549
0.298238
0.299829
0.301321
0.302716
0.304012
0.30521
0.306311
0.307314
0.30822
0.30903
0.309743
0.310361
0.310883
0.311311
0.311645
0.311886
0.312034
0.312091
0.312057
0.311932
0.311719
0.311417
0.311028
0.310554
0.309994
0.309352
0.308627
0.307821
0.306935
0.305971
0.304931
0.303815
0.302625
0.301362
0.300029
0.298626
0.297154
0.295616
0.294012
0.292344
0.290612
0.288819
0.286964
0.28505
0.283076
0.281044
0.278954
0.276807
0.274605
0.272346
0.270033
0.267665
0.265242
0.262766
0.260237
0.257655
0.25502
0.252334
0.249595
0.246805
0.243965
0.241074
0.238133
0.235143
0.232104
0.229017
0.225883
0.222702
0.219475
0.216203
0.212887
0.209527
0.206126
0.202684
0.199202
0.195682
0.192125
0.188532
0.184906
0.181247
0.177558
0.17384
0.170096
0.166328
0.162537
0.158726
0.154897
0.151054
0.147198
0.143333
0.139461
0.135585
0.131709
0.127835
0.123967
0.120108
0.116262
0.112433
0.108624
0.104839
0.101081
0.0973537
0.0936589
0.0899999
0.0863798
0.082802
0.0792698
0.0757864
0.0723547
0.068977
0.0656549
0.0623898
0.0591826
0.0560338
0.0529426
0.0499075
0.0469263
0.0439959
0.0411135
0.0382764
0.0354824
0.0327285
0.0300091
0.027313
0.0246159
0.0218658
0.0189454
0.0155632
0.0110163
0.0185379
0.0245616
0.0298679
0.0347976
0.0395916
0.0443426
0.0490834
0.0538223
0.0585572
0.0632815
0.0679884
0.0726724
0.0773301
0.0819602
0.0865633
0.0911414
0.0956974
0.100235
0.10476
0.109275
0.113787
0.118299
0.122814
0.127334
0.131859
0.136389
0.140923
0.14546
0.149998
0.154534
0.159065
0.163588
0.168098
0.172593
0.177068
0.181518
0.18594
0.19033
0.194683
0.198995
0.203262
0.20748
0.211646
0.215755
0.219805
0.223791
0.227712
0.231563
0.235343
0.239047
0.242675
0.246223
0.24969
0.253073
0.256371
0.259582
0.262704
0.265737
0.268678
0.271527
0.274282
0.276943
0.279508
0.281978
0.284352
0.286629
0.288808
0.29089
0.292874
0.294759
0.296547
0.298236
0.299827
0.301319
0.302713
0.30401
0.305208
0.306309
0.307312
0.308218
0.309028
0.309741
0.310359
0.310881
0.311309
0.311643
0.311884
0.312032
0.312089
0.312054
0.31193
0.311716
0.311415
0.311026
0.310552
0.309992
0.30935
0.308625
0.307819
0.306933
0.305969
0.304929
0.303813
0.302623
0.30136
0.300027
0.298624
0.297152
0.295614
0.29401
0.292342
0.29061
0.288817
0.286962
0.285048
0.283074
0.281042
0.278952
0.276806
0.274603
0.272345
0.270031
0.267663
0.265241
0.262765
0.260236
0.257653
0.255019
0.252332
0.249594
0.246804
0.243963
0.241073
0.238132
0.235142
0.232103
0.229016
0.225882
0.222701
0.219474
0.216202
0.212885
0.209526
0.206125
0.202683
0.199201
0.195681
0.192124
0.188531
0.184905
0.181246
0.177557
0.173839
0.170095
0.166327
0.162536
0.158725
0.154897
0.151053
0.147198
0.143333
0.139461
0.135585
0.131708
0.127834
0.123966
0.120108
0.116262
0.112433
0.108624
0.104839
0.101081
0.0973534
0.0936586
0.0899996
0.0863796
0.0828018
0.0792696
0.0757862
0.0723545
0.0689768
0.0656547
0.0623895
0.0591824
0.0560336
0.0529424
0.0499074
0.0469262
0.0439958
0.0411134
0.0382765
0.0354825
0.0327286
0.0300092
0.0273132
0.0246163
0.0218664
0.0189462
0.0155643
0.0110178
0.0214124
0.0277371
0.0334951
0.0389127
0.0441937
0.0494194
0.0546192
0.0597995
0.064957
0.070085
0.0751764
0.080226
0.0852309
0.0901906
0.0951065
0.0999818
0.104821
0.109629
0.114412
0.119176
0.123926
0.128667
0.133404
0.138138
0.142873
0.14761
0.152347
0.157084
0.161821
0.166555
0.171282
0.176001
0.180708
0.185399
0.190069
0.194716
0.199334
0.20392
0.208469
0.212977
0.217439
0.221852
0.226212
0.230515
0.234757
0.238934
0.243045
0.247084
0.251049
0.254938
0.258748
0.262476
0.26612
0.269677
0.273146
0.276525
0.279813
0.283007
0.286106
0.289109
0.292014
0.294822
0.29753
0.300138
0.302646
0.305052
0.307357
0.309559
0.311658
0.313655
0.315549
0.317339
0.319026
0.32061
0.32209
0.323468
0.324742
0.325913
0.326982
0.327949
0.328813
0.329577
0.330239
0.330801
0.331262
0.331625
0.331889
0.332055
0.332125
0.332098
0.331976
0.33176
0.331451
0.33105
0.330557
0.329975
0.329305
0.328547
0.327704
0.326776
0.325766
0.324674
0.323501
0.32225
0.320922
0.319518
0.318041
0.31649
0.314868
0.313177
0.311416
0.309588
0.307694
0.305735
0.303712
0.301625
0.299477
0.297266
0.294995
0.292664
0.290273
0.287824
0.285317
0.282751
0.280129
0.277449
0.274714
0.271922
0.269075
0.266172
0.263215
0.260205
0.25714
0.254023
0.250853
0.247631
0.244358
0.241034
0.237661
0.23424
0.23077
0.227254
0.223692
0.220085
0.216435
0.212743
0.20901
0.205238
0.201428
0.197583
0.193703
0.189792
0.18585
0.181881
0.177886
0.173867
0.169828
0.16577
0.161697
0.157611
0.153515
0.149412
0.145306
0.1412
0.137097
0.133001
0.128915
0.124843
0.120789
0.116757
0.112749
0.10877
0.104822
0.100909
0.0970339
0.0932001
0.0894106
0.0856687
0.0819772
0.0783385
0.0747548
0.0712277
0.0677581
0.0643467
0.0609936
0.057698
0.0544585
0.0512731
0.0481395
0.0450548
0.0420165
0.0390216
0.0360662
0.0331435
0.0302403
0.0273296
0.0243545
0.0211906
0.0175387
0.0127359
0.0213712
0.0277028
0.0334728
0.0389004
0.0441876
0.0494162
0.0546169
0.0597974
0.064955
0.0700829
0.0751743
0.0802239
0.0852287
0.0901883
0.0951042
0.0999794
0.104818
0.109627
0.114409
0.119173
0.123923
0.128664
0.133401
0.138136
0.142871
0.147607
0.152344
0.157082
0.161819
0.166552
0.17128
0.175999
0.180706
0.185396
0.190067
0.194714
0.199332
0.203918
0.208466
0.212974
0.217437
0.22185
0.22621
0.230512
0.234754
0.238932
0.243042
0.247081
0.251047
0.254936
0.258746
0.262473
0.266117
0.269675
0.273144
0.276523
0.27981
0.283004
0.286103
0.289106
0.292012
0.29482
0.297528
0.300136
0.302644
0.30505
0.307354
0.309557
0.311656
0.313653
0.315546
0.317337
0.319024
0.320608
0.322088
0.323465
0.32474
0.325911
0.32698
0.327947
0.328811
0.329575
0.330237
0.330799
0.33126
0.331623
0.331887
0.332053
0.332123
0.332096
0.331975
0.331758
0.331449
0.331048
0.330556
0.329974
0.329303
0.328546
0.327702
0.326775
0.325764
0.324672
0.323499
0.322249
0.32092
0.319517
0.318039
0.316489
0.314867
0.313175
0.311415
0.309587
0.307693
0.305734
0.30371
0.301624
0.299475
0.297265
0.294994
0.292663
0.290272
0.287823
0.285315
0.28275
0.280128
0.277448
0.274712
0.271921
0.269073
0.266171
0.263214
0.260203
0.257139
0.254022
0.250852
0.24763
0.244357
0.241034
0.237661
0.234239
0.230769
0.227253
0.223691
0.220084
0.216434
0.212742
0.209009
0.205237
0.201428
0.197582
0.193703
0.189791