/*--------------------------------*- C++ -*----------------------------------*\
  =========                 |
  \\      /  F ield         | OpenFOAM: The Open Source CFD Toolbox
   \\    /   O peration     | Website:  https://openfoam.org
    \\  /    A nd           | Version:  8
     \\/     M anipulation  |
\*---------------------------------------------------------------------------*/
FoamFile
{
    version     2.0;
    format      ascii;
    class       volScalarField;
    location    "200";
    object      k;
}
// * * * * * * * * * * * * * * * * * * * * * * * * * * * * * * * * * * * * * //

dimensions      [0 2 -2 0 0 0 0];

internalField   nonuniform List<scalar> 
48000
(
0.00107831
0.00260036
0.00412121
0.00561797
0.00712812
0.00863362
0.0101391
0.011658
0.0131785
0.0146748
0.01615
0.0175817
0.0189196
0.0200711
0.020866
0.0209092
0.0187055
0.01865
0.0186835
0.019039
0.0196083
0.0201321
0.0221379
0.0194907
0.0215827
0.0239419
0.025573
0.0264079
0.0222877
0.0220108
0.0225757
0.023325
0.0241121
0.0249017
0.0256855
0.0264625
0.0272326
0.0279956
0.0287515
0.0294998
0.0302401
0.030972
0.0316949
0.0324081
0.0331108
0.0338025
0.0344825
0.0351503
0.0358053
0.0364471
0.0370753
0.0376894
0.0382891
0.038874
0.0394439
0.0399983
0.040537
0.0410597
0.0415663
0.0420566
0.0425303
0.0429873
0.0434276
0.0438509
0.0442573
0.0446468
0.0450192
0.0453746
0.0457129
0.0460341
0.0463383
0.0466254
0.0468954
0.0471484
0.0473842
0.0476028
0.0478044
0.0479889
0.0481582
0.048312
0.0484496
0.0485709
0.0486757
0.0487642
0.0488365
0.0488927
0.0489329
0.0489573
0.048966
0.0489593
0.0489374
0.0489005
0.0488489
0.0487826
0.0487018
0.0486069
0.048498
0.0483756
0.0482397
0.0480908
0.0479291
0.0477549
0.0475685
0.0473701
0.0471602
0.046939
0.0467071
0.0464649
0.0462127
0.0459508
0.0456794
0.0453987
0.0451085
0.044809
0.0445005
0.0441831
0.0438572
0.0435228
0.04318
0.0428287
0.0424688
0.0421005
0.0417239
0.0413391
0.0409463
0.0405451
0.0401353
0.0397168
0.03929
0.0388554
0.038413
0.0379626
0.0375039
0.0370369
0.0365619
0.0360791
0.0355885
0.03509
0.0345835
0.0340694
0.0335479
0.0330195
0.0324839
0.031941
0.0313907
0.0308332
0.0302688
0.029698
0.0291211
0.0285383
0.0279494
0.0273546
0.0267539
0.0261477
0.0255363
0.0249197
0.0242976
0.0236686
0.0230289
0.0223813
0.0219316
0.0257371
0.0247603
0.0240947
0.0211881
0.019406
0.0184864
0.0177944
0.0173943
0.0211173
0.0217958
0.0215479
0.0209991
0.0215905
0.0214412
0.021163
0.020989
0.0192001
0.0183365
0.0194844
0.0195257
0.0189294
0.0179784
0.0168419
0.0156124
0.0143422
0.0130633
0.0117975
0.0105602
0.00936325
0.00821534
0.00712208
0.00608224
0.00509788
0.00420137
0.00337035
0.00259163
0.0018604
0.0011224
0.00039385
0.00107827
0.00260116
0.00412192
0.00561853
0.00712854
0.00863398
0.0101394
0.0116584
0.0131788
0.014675
0.0161503
0.017582
0.0189198
0.0200712
0.0208654
0.0209056
0.0187026
0.0186508
0.0186845
0.0190366
0.0196055
0.0201483
0.0217454
0.0228781
0.023673
0.0247403
0.0257444
0.0264391
0.0222814
0.0220063
0.022574
0.0233243
0.0241115
0.0249012
0.0256849
0.0264617
0.0272316
0.0279945
0.0287504
0.0294987
0.0302391
0.030971
0.0316938
0.0324069
0.0331096
0.0338012
0.0344812
0.0351489
0.0358038
0.0364456
0.0370738
0.0376879
0.0382876
0.0388725
0.0394424
0.0399969
0.0405356
0.0410583
0.0415649
0.0420551
0.0425287
0.0429857
0.0434258
0.0438491
0.0442556
0.044645
0.0450176
0.0453731
0.0457115
0.0460328
0.0463371
0.0466243
0.0468943
0.0471472
0.047383
0.0476016
0.0478031
0.0479877
0.0481571
0.0483111
0.0484488
0.0485701
0.048675
0.0487636
0.0488359
0.0488921
0.0489323
0.0489566
0.0489653
0.0489585
0.0489365
0.0488995
0.0488477
0.0487811
0.0487002
0.048605
0.048496
0.0483734
0.0482375
0.0480886
0.047927
0.0477529
0.0475668
0.0473688
0.0471592
0.0469383
0.0467064
0.046464
0.0462114
0.0459492
0.0456776
0.045397
0.0451072
0.0448082
0.0445001
0.0441829
0.0438568
0.0435219
0.0431785
0.0428266
0.0424664
0.0420981
0.0417218
0.0413376
0.0409451
0.0405441
0.0401343
0.0397158
0.0392891
0.0388544
0.0384119
0.0379613
0.0375025
0.0370354
0.0365604
0.0360776
0.0355869
0.0350885
0.0345823
0.0340685
0.0335473
0.0330188
0.0324829
0.0319396
0.0313892
0.0308318
0.0302678
0.0296973
0.0291204
0.0285373
0.0279482
0.0273533
0.0267527
0.0261468
0.0255355
0.024919
0.0242969
0.023668
0.0230285
0.0223806
0.0219297
0.025732
0.0247549
0.0240954
0.0211939
0.019409
0.018488
0.017795
0.0173946
0.0211179
0.0217934
0.0215433
0.0209936
0.0215873
0.0214377
0.0211586
0.0209863
0.0191986
0.0183312
0.019478
0.019522
0.018927
0.0179768
0.0168408
0.0156117
0.0143418
0.013063
0.0117972
0.0105598
0.00936276
0.00821487
0.00712176
0.00608207
0.00509777
0.00420127
0.00337026
0.00259157
0.00186037
0.00112239
0.000393886
0.00213458
0.00468146
0.00667899
0.0085429
0.0103484
0.0121334
0.0138996
0.0156512
0.0173932
0.0191222
0.0208322
0.0225062
0.0241129
0.0256045
0.0269204
0.0279852
0.0287181
0.0297501
0.030942
0.0322257
0.033573
0.0350144
0.0369448
0.0382489
0.0395523
0.041804
0.0436694
0.0453225
0.0465763
0.048089
0.0497579
0.0514889
0.0532392
0.0549922
0.056741
0.0584824
0.0602142
0.0619345
0.0636416
0.0653339
0.0670097
0.0686674
0.0703053
0.0719218
0.0735153
0.0750842
0.0766272
0.078143
0.0796303
0.081088
0.0825151
0.0839106
0.0852736
0.0866032
0.0878987
0.0891592
0.0903841
0.0915728
0.0927247
0.0938395
0.0949167
0.0959561
0.0969573
0.0979203
0.0988449
0.099731
0.100578
0.101387
0.102157
0.102888
0.10358
0.104234
0.104848
0.105424
0.105961
0.106459
0.106919
0.107341
0.107724
0.10807
0.108379
0.108651
0.108885
0.109084
0.109245
0.109371
0.109461
0.109515
0.109534
0.109519
0.109469
0.109385
0.109268
0.109119
0.108937
0.108723
0.108478
0.108202
0.107896
0.107561
0.107196
0.106804
0.106385
0.105939
0.105467
0.10497
0.10445
0.103906
0.103339
0.10275
0.102139
0.101507
0.100855
0.100181
0.0994881
0.0987752
0.0980428
0.0972913
0.0965206
0.095731
0.0949227
0.0940957
0.0932503
0.0923864
0.0915038
0.0906026
0.0896828
0.0887446
0.0877881
0.0868135
0.0858208
0.08481
0.0837812
0.0827344
0.0816699
0.0805877
0.0794879
0.0783707
0.0772362
0.076085
0.0749173
0.0737334
0.0725332
0.0713169
0.0700846
0.068837
0.0675745
0.0662975
0.0650066
0.063702
0.0623841
0.0610533
0.05971
0.0583547
0.0569877
0.055609
0.0542184
0.052815
0.0513987
0.0499777
0.0486103
0.0474566
0.0453284
0.0437809
0.0426409
0.0411149
0.0396465
0.0382685
0.0370664
0.0362943
0.0352846
0.0341467
0.0329791
0.0318264
0.0308216
0.0298182
0.0288393
0.0278148
0.026736
0.0258986
0.0250676
0.0240179
0.0227912
0.0214549
0.0200599
0.0186403
0.0172196
0.0158146
0.0144378
0.0130986
0.0118038
0.0105579
0.00936319
0.00822066
0.00712937
0.00607312
0.00503954
0.00397406
0.00277865
0.00113852
0.00213527
0.00468234
0.00667953
0.00854322
0.0103486
0.0121336
0.0138998
0.0156513
0.0173933
0.0191224
0.0208323
0.0225063
0.0241129
0.0256047
0.0269217
0.0279875
0.0287212
0.0297521
0.030942
0.0322248
0.0335738
0.035044
0.0370932
0.0387943
0.0403988
0.0420607
0.0437266
0.0453299
0.0465749
0.0480874
0.0497565
0.0514875
0.0532377
0.0549905
0.0567393
0.0584806
0.0602123
0.0619325
0.0636396
0.0653319
0.0670078
0.0686655
0.0703034
0.0719199
0.0735133
0.0750822
0.0766252
0.0781409
0.0796282
0.0810859
0.082513
0.0839085
0.0852715
0.0866011
0.0878966
0.089157
0.0903819
0.0915705
0.0927224
0.0938372
0.0949143
0.0959537
0.0969549
0.0979179
0.0988425
0.0997286
0.100576
0.101385
0.102155
0.102886
0.103578
0.104231
0.104846
0.105422
0.105959
0.106457
0.106917
0.107339
0.107722
0.108068
0.108377
0.108649
0.108884
0.109082
0.109244
0.109369
0.109459
0.109513
0.109532
0.109517
0.109467
0.109383
0.109266
0.109116
0.108934
0.10872
0.108474
0.108199
0.107893
0.107557
0.107193
0.106801
0.106382
0.105936
0.105465
0.104968
0.104447
0.103903
0.103336
0.102747
0.102137
0.101505
0.100853
0.10018
0.0994865
0.0987733
0.0980406
0.0972887
0.0965178
0.0957281
0.0949198
0.094093
0.0932477
0.092384
0.0915017
0.0906007
0.0896809
0.0887427
0.0877861
0.0868115
0.0858187
0.0848079
0.083779
0.0827322
0.0816676
0.0805854
0.0794857
0.0783687
0.0772345
0.0760834
0.0749157
0.0737315
0.0725311
0.0713147
0.0700826
0.0688352
0.0675729
0.066296
0.065005
0.0637002
0.0623823
0.0610515
0.0597083
0.0583531
0.0569862
0.0556075
0.0542171
0.0528141
0.0513981
0.0499769
0.0486093
0.0474557
0.045329
0.0437839
0.0426413
0.0411138
0.0396448
0.0382659
0.0370626
0.03629
0.0352807
0.0341426
0.0329745
0.0318212
0.0308186
0.0298169
0.028839
0.0278128
0.0267323
0.0258942
0.0250642
0.0240156
0.0227897
0.021454
0.0200593
0.0186399
0.0172192
0.0158142
0.0144374
0.0130982
0.0118034
0.0105576
0.00936292
0.00822043
0.00712916
0.00607294
0.00503942
0.00397401
0.00277862
0.00113857
0.0032975
0.00643053
0.00878511
0.0109397
0.0130138
0.0150588
0.0170887
0.0191089
0.0211213
0.0231248
0.0251157
0.0270859
0.0290238
0.0309188
0.0327699
0.0345812
0.036341
0.0381435
0.0400319
0.0419479
0.0438906
0.0458853
0.0479855
0.0500179
0.0520479
0.0542732
0.0564824
0.0586616
0.0607884
0.0629552
0.0651686
0.0674122
0.0696714
0.071937
0.0742025
0.0764631
0.0787149
0.0809546
0.0831793
0.0853862
0.0875728
0.0897367
0.0918755
0.093987
0.096069
0.0981194
0.100137
0.102118
0.104064
0.10597
0.107837
0.109664
0.111447
0.113188
0.114883
0.116534
0.118137
0.119694
0.121203
0.122663
0.124075
0.125437
0.126749
0.128012
0.129224
0.130385
0.131496
0.132557
0.133567
0.134525
0.135433
0.136291
0.137097
0.137853
0.138559
0.139214
0.139819
0.140374
0.140879
0.141335
0.141743
0.142102
0.142413
0.142676
0.142891
0.143059
0.143181
0.143256
0.143285
0.14327
0.143209
0.143104
0.142956
0.142765
0.142532
0.142257
0.141941
0.141585
0.14119
0.140756
0.140285
0.139778
0.139235
0.138657
0.138046
0.137402
0.136725
0.136018
0.135281
0.134515
0.13372
0.132898
0.132049
0.131173
0.130271
0.129342
0.128388
0.127408
0.126404
0.125376
0.124323
0.123246
0.122144
0.121018
0.119868
0.118693
0.117495
0.116273
0.115027
0.113757
0.112463
0.111146
0.109806
0.108442
0.107055
0.105644
0.104211
0.102755
0.101277
0.0997774
0.0982554
0.0967119
0.0951473
0.0935617
0.0919557
0.0903297
0.0886841
0.0870196
0.0853366
0.0836357
0.0819175
0.0801825
0.0784314
0.0766646
0.0748827
0.0730861
0.0712753
0.0694509
0.067615
0.0657738
0.0639419
0.0621136
0.0601392
0.0582554
0.0564823
0.0546405
0.0527974
0.0509858
0.0492332
0.0475541
0.0458709
0.044189
0.0425277
0.0408751
0.0392867
0.0377299
0.0361997
0.0347426
0.0332527
0.031763
0.0303149
0.0288309
0.0272914
0.0257085
0.0241017
0.0224888
0.0208849
0.019302
0.0177497
0.0162355
0.0147651
0.013342
0.0119684
0.0106442
0.00936612
0.0081231
0.00689233
0.00561494
0.00414301
0.00200225
0.00329837
0.0064311
0.00878536
0.0109397
0.0130138
0.0150587
0.0170886
0.0191088
0.0211212
0.0231248
0.0251156
0.0270858
0.0290237
0.0309189
0.0327706
0.0345816
0.0363401
0.0381415
0.040029
0.0419445
0.0438879
0.0458934
0.0480266
0.0501246
0.0522201
0.0543517
0.0565088
0.0586693
0.0607905
0.0629555
0.0651681
0.0674113
0.0696703
0.0719358
0.0742012
0.0764617
0.0787135
0.0809532
0.0831778
0.0853847
0.0875713
0.0897352
0.0918739
0.0939854
0.0960673
0.0981177
0.100135
0.102117
0.104062
0.105968
0.107836
0.109662
0.111445
0.113185
0.114881
0.116531
0.118135
0.119692
0.121201
0.122661
0.124072
0.125434
0.126747
0.128009
0.129221
0.130383
0.131494
0.132554
0.133564
0.134523
0.135431
0.136288
0.137095
0.137851
0.138557
0.139212
0.139817
0.140372
0.140877
0.141333
0.14174
0.142099
0.14241
0.142673
0.142889
0.143057
0.143178
0.143254
0.143283
0.143267
0.143207
0.143102
0.142954
0.142763
0.142529
0.142254
0.141938
0.141583
0.141188
0.140754
0.140283
0.139775
0.139232
0.138654
0.138043
0.137399
0.136723
0.136016
0.135279
0.134513
0.133719
0.132896
0.132047
0.131171
0.130268
0.129339
0.128385
0.127406
0.126402
0.125374
0.124321
0.123243
0.122141
0.121015
0.119865
0.118691
0.117493
0.116271
0.115025
0.113755
0.112461
0.111144
0.109804
0.10844
0.107052
0.105642
0.104209
0.102754
0.101276
0.0997756
0.0982535
0.09671
0.0951453
0.0935599
0.091954
0.0903281
0.0886825
0.0870179
0.0853348
0.0836339
0.0819158
0.080181
0.0784299
0.0766631
0.0748812
0.0730847
0.071274
0.0694499
0.0676142
0.065773
0.0639416
0.0621134
0.0601387
0.058254
0.0564803
0.0546384
0.0527951
0.050983
0.0492302
0.0475513
0.0458686
0.0441871
0.0425264
0.0408747
0.0392863
0.0377293
0.0361986
0.0347413
0.0332511
0.0317614
0.0303133
0.0288295
0.0272904
0.0257079
0.0241012
0.0224884
0.0208845
0.0193016
0.0177493
0.0162352
0.0147647
0.0133417
0.0119681
0.0106439
0.0093659
0.00812295
0.00689224
0.0056149
0.00414298
0.00200225
0.0045191
0.00812814
0.0108196
0.0132395
0.0155738
0.0178786
0.0201715
0.0224577
0.0247383
0.0270128
0.0292795
0.0315366
0.0337823
0.0360182
0.0382516
0.0404879
0.0427233
0.0449748
0.0472617
0.049574
0.0519112
0.0542797
0.0566883
0.0591149
0.0615671
0.0640759
0.0666117
0.0691627
0.0717205
0.0742965
0.0768932
0.0795071
0.082133
0.0847656
0.0873997
0.0900305
0.0926534
0.0952646
0.0978601
0.100437
0.102991
0.105521
0.108022
0.110492
0.112929
0.11533
0.117693
0.120015
0.122295
0.124532
0.126722
0.128865
0.130959
0.133003
0.134995
0.136934
0.138819
0.14065
0.142424
0.144143
0.145804
0.147408
0.148954
0.150442
0.15187
0.15324
0.154551
0.155802
0.156994
0.158127
0.1592
0.160213
0.161168
0.162063
0.162899
0.163676
0.164394
0.165053
0.165654
0.166198
0.166684
0.167113
0.167486
0.167803
0.168064
0.168269
0.16842
0.168517
0.16856
0.168549
0.168487
0.168372
0.168207
0.167991
0.167725
0.16741
0.167048
0.166639
0.166183
0.165682
0.165138
0.16455
0.16392
0.163249
0.162539
0.16179
0.161003
0.16018
0.159321
0.158428
0.157501
0.156541
0.155549
0.154526
0.153471
0.152385
0.151269
0.150124
0.148949
0.147746
0.146513
0.145252
0.143961
0.142643
0.141296
0.13992
0.138517
0.137084
0.135624
0.134136
0.13262
0.131077
0.129506
0.127907
0.12628
0.124627
0.122947
0.12124
0.119507
0.117748
0.115963
0.114153
0.112317
0.110458
0.108574
0.106666
0.104736
0.102783
0.100808
0.0988127
0.0967968
0.0947613
0.092707
0.0906346
0.088545
0.0864392
0.0843182
0.0821835
0.0800375
0.0778846
0.075731
0.0735737
0.0713909
0.069215
0.0670571
0.0648945
0.0627366
0.060595
0.0584793
0.0563912
0.0543209
0.0522713
0.0502493
0.0482519
0.0462891
0.0443558
0.0424509
0.0405904
0.0387462
0.0369132
0.0351035
0.0332977
0.0314854
0.0296677
0.0278515
0.0260461
0.0242604
0.0225025
0.0207795
0.019097
0.0174592
0.0158692
0.0143284
0.0128367
0.0113905
0.00997933
0.00857806
0.00712347
0.00542902
0.00289998
0.00451972
0.00812853
0.0108198
0.0132394
0.0155737
0.0178785
0.0201714
0.0224575
0.0247381
0.0270125
0.0292793
0.0315363
0.033782
0.0360179
0.0382513
0.0404872
0.0427219
0.0449728
0.0472594
0.0495718
0.0519099
0.0542829
0.056701
0.0591401
0.0616032
0.0640981
0.0666223
0.0691673
0.0717224
0.074297
0.076893
0.0795066
0.0821323
0.0847648
0.0873989
0.0900296
0.0926525
0.0952636
0.0978591
0.100436
0.10299
0.105519
0.108021
0.110491
0.112928
0.115329
0.117691
0.120014
0.122294
0.12453
0.126721
0.128863
0.130957
0.133001
0.134993
0.136932
0.138817
0.140648
0.142423
0.144141
0.145802
0.147406
0.148952
0.15044
0.151868
0.153238
0.154549
0.1558
0.156992
0.158125
0.159198
0.160211
0.161166
0.162061
0.162897
0.163674
0.164392
0.165051
0.165652
0.166196
0.166682
0.167111
0.167484
0.167801
0.168062
0.168267
0.168418
0.168515
0.168558
0.168547
0.168485
0.16837
0.168205
0.167989
0.167723
0.167409
0.167046
0.166637
0.166181
0.165681
0.165136
0.164548
0.163918
0.163247
0.162537
0.161788
0.161001
0.160178
0.159319
0.158426
0.157499
0.156539
0.155547
0.154523
0.153468
0.152383
0.151268
0.150122
0.148948
0.147744
0.146511
0.14525
0.14396
0.142641
0.141294
0.139918
0.138515
0.137083
0.135623
0.134135
0.132619
0.131075
0.129504
0.127905
0.126279
0.124626
0.122946
0.121239
0.119506
0.117746
0.115961
0.114151
0.112316
0.110456
0.108572
0.106665
0.104734
0.102781
0.100807
0.0988114
0.0967956
0.0947602
0.0927058
0.0906334
0.0885439
0.0864381
0.0843173
0.0821827
0.0800368
0.077884
0.0757306
0.0735732
0.0713899
0.0692138
0.0670559
0.0648934
0.0627356
0.0605939
0.0584783
0.0563905
0.0543204
0.0522711
0.0502491
0.0482517
0.046289
0.0443555
0.0424506
0.0405903
0.0387461
0.0369128
0.0351028
0.0332971
0.0314849
0.0296673
0.0278512
0.0260457
0.02426
0.0225022
0.0207792
0.0190968
0.017459
0.015869
0.0143282
0.0128365
0.0113904
0.00997926
0.00857804
0.00712347
0.00542899
0.00289991
0.00588723
0.00988744
0.0129187
0.0156277
0.0182346
0.0208065
0.0233647
0.0259152
0.0284587
0.0309946
0.0335226
0.0360434
0.0385587
0.0410729
0.0435919
0.0461206
0.0486596
0.0512141
0.0537918
0.0563941
0.0590226
0.0616797
0.0643675
0.0670844
0.0698316
0.0726132
0.0754244
0.0782601
0.0811151
0.083988
0.086877
0.0897796
0.0926926
0.0956119
0.0985332
0.101452
0.104363
0.107263
0.110148
0.113013
0.115856
0.118672
0.121458
0.124212
0.126929
0.129608
0.132246
0.13484
0.137388
0.139888
0.142338
0.144736
0.14708
0.149369
0.151601
0.153775
0.15589
0.157944
0.159936
0.161867
0.163734
0.165537
0.167276
0.16895
0.170559
0.172103
0.17358
0.174992
0.176337
0.177616
0.178828
0.179975
0.181055
0.182069
0.183017
0.183899
0.184715
0.185466
0.186151
0.186772
0.187328
0.187821
0.188251
0.188617
0.188921
0.189164
0.189345
0.189465
0.189525
0.189525
0.189467
0.18935
0.189176
0.188946
0.18866
0.188319
0.187924
0.187477
0.186978
0.186427
0.185827
0.185179
0.184483
0.183742
0.182955
0.182125
0.181252
0.180339
0.179385
0.178391
0.17736
0.176291
0.175185
0.174044
0.172868
0.171656
0.170411
0.169132
0.167819
0.166474
0.165096
0.163685
0.162242
0.160767
0.159259
0.15772
0.156148
0.154545
0.15291
0.151243
0.149545
0.147816
0.146055
0.144264
0.142441
0.140588
0.138705
0.136792
0.134849
0.132876
0.130875
0.128844
0.126786
0.1247
0.122587
0.120447
0.118281
0.116091
0.113875
0.111636
0.109375
0.107091
0.104787
0.102462
0.100119
0.097758
0.0953812
0.0929902
0.0905873
0.0881753
0.0857578
0.0833353
0.0809051
0.0784719
0.0760402
0.0736101
0.071186
0.0687735
0.0663774
0.064
0.0616418
0.0593055
0.056995
0.0547116
0.052458
0.0502345
0.0480415
0.0458821
0.0437514
0.041646
0.039566
0.0375059
0.0354618
0.0334336
0.0314246
0.0294393
0.0274832
0.0255616
0.0236792
0.0218397
0.0200461
0.0183005
0.0166037
0.0149552
0.0133508
0.0117794
0.010213
0.00858029
0.0066714
0.00381366
0.00588758
0.00988778
0.0129188
0.0156277
0.0182345
0.0208063
0.0233645
0.025915
0.0284584
0.0309943
0.0335223
0.036043
0.0385583
0.0410724
0.0435914
0.0461199
0.0486586
0.051213
0.0537906
0.056393
0.0590219
0.0616803
0.0643706
0.0670901
0.0698392
0.072619
0.0754279
0.0782619
0.081116
0.0839882
0.0868768
0.0897793
0.0926922
0.0956114
0.0985326
0.101451
0.104363
0.107263
0.110147
0.113013
0.115855
0.118671
0.121457
0.124211
0.126928
0.129607
0.132245
0.134839
0.137387
0.139887
0.142337
0.144735
0.147079
0.149368
0.1516
0.153774
0.155888
0.157943
0.159935
0.161865
0.163733
0.165536
0.167275
0.168949
0.170558
0.172101
0.173579
0.17499
0.176335
0.177614
0.178827
0.179973
0.181053
0.182067
0.183015
0.183897
0.184713
0.185464
0.18615
0.18677
0.187327
0.187819
0.188249
0.188616
0.18892
0.189162
0.189343
0.189463
0.189523
0.189524
0.189465
0.189349
0.189175
0.188945
0.188659
0.188318
0.187923
0.187475
0.186976
0.186426
0.185826
0.185178
0.184482
0.18374
0.182954
0.182124
0.181251
0.180337
0.179383
0.17839
0.177358
0.176289
0.175184
0.174043
0.172866
0.171655
0.17041
0.16913
0.167818
0.166473
0.165095
0.163684
0.162241
0.160765
0.159258
0.157718
0.156147
0.154544
0.152909
0.151242
0.149544
0.147815
0.146054
0.144263
0.14244
0.140587
0.138704
0.136791
0.134848
0.132875
0.130874
0.128843
0.126785
0.124699
0.122586
0.120446
0.118281
0.11609
0.113874
0.111636
0.109374
0.10709
0.104786
0.102461
0.100118
0.0977573
0.0953806
0.0929896
0.0905867
0.0881748
0.0857574
0.0833349
0.0809045
0.0784713
0.0760395
0.0736094
0.0711853
0.0687728
0.0663768
0.0639996
0.0616414
0.0593052
0.0569948
0.0547114
0.0524579
0.0502344
0.0480413
0.045882
0.0437513
0.0416457
0.0395656
0.0375055
0.0354615
0.0334334
0.0314243
0.029439
0.027483
0.0255614
0.023679
0.0218396
0.020046
0.0183003
0.0166036
0.0149551
0.0133508
0.0117794
0.010213
0.00858033
0.00667139
0.0038136
0.0074455
0.0118083
0.0151708
0.0181841
0.0210778
0.0239269
0.0267559
0.0295711
0.0323731
0.0351611
0.0379352
0.040697
0.0434495
0.0461976
0.0489471
0.051703
0.0544691
0.0572498
0.0600501
0.0628736
0.0657229
0.0686005
0.071508
0.0744459
0.0774148
0.0804147
0.083444
0.0864998
0.0895784
0.0926766
0.0957915
0.0989201
0.102059
0.105204
0.108352
0.111498
0.114638
0.117766
0.12088
0.123975
0.127047
0.130092
0.133107
0.136088
0.139032
0.141935
0.144796
0.147611
0.150378
0.153094
0.155757
0.158365
0.160916
0.163408
0.16584
0.168209
0.170515
0.172757
0.174932
0.177041
0.179082
0.181054
0.182957
0.18479
0.186553
0.188245
0.189866
0.191416
0.192894
0.1943
0.195634
0.196896
0.198087
0.199206
0.200253
0.201229
0.202133
0.202966
0.203728
0.204419
0.20504
0.205592
0.206075
0.206489
0.206835
0.207114
0.207326
0.207472
0.207551
0.207566
0.207517
0.207405
0.207229
0.206992
0.206695
0.206337
0.20592
0.205446
0.204914
0.204327
0.203686
0.202991
0.202245
0.201448
0.200601
0.199707
0.198766
0.197779
0.196748
0.195674
0.194557
0.193399
0.1922
0.190962
0.189685
0.18837
0.187017
0.185626
0.184199
0.182735
0.181235
0.179699
0.178128
0.17652
0.174877
0.173199
0.171486
0.169738
0.167954
0.166136
0.164284
0.162397
0.160475
0.15852
0.15653
0.154507
0.15245
0.150361
0.148239
0.146084
0.143898
0.141679
0.13943
0.137151
0.134841
0.132503
0.130136
0.127741
0.12532
0.122873
0.120401
0.117904
0.115386
0.112845
0.110284
0.107705
0.105109
0.102497
0.0998725
0.0972373
0.0945938
0.0919437
0.0892879
0.0866285
0.0839683
0.0813103
0.078658
0.0760157
0.0733868
0.0707743
0.0681806
0.0656083
0.0630606
0.0605399
0.0580483
0.0555876
0.0531589
0.0507632
0.0484002
0.0460692
0.0437696
0.0414998
0.0392587
0.0370467
0.0348653
0.0327174
0.0306061
0.0285345
0.0265055
0.0245211
0.022583
0.020692
0.0188482
0.0170501
0.0152928
0.0135634
0.0118308
0.0100163
0.00789347
0.00473255
0.0074459
0.0118088
0.0151709
0.018184
0.0210776
0.0239267
0.0267556
0.0295708
0.0323728
0.0351608
0.0379349
0.0406966
0.0434491
0.0461972
0.0489466
0.0517024
0.0544685
0.0572491
0.0600494
0.0628729
0.0657224
0.0686003
0.0715084
0.074447
0.0774163
0.0804161
0.083445
0.0865003
0.0895785
0.0926765
0.0957913
0.0989198
0.102059
0.105204
0.108352
0.111498
0.114637
0.117766
0.12088
0.123975
0.127047
0.130092
0.133106
0.136087
0.139031
0.141935
0.144795
0.14761
0.150377
0.153093
0.155756
0.158364
0.160915
0.163407
0.165839
0.168208
0.170514
0.172756
0.174931
0.17704
0.179081
0.181053
0.182956
0.184789
0.186552
0.188244
0.189865
0.191415
0.192893
0.194299
0.195633
0.196895
0.198086
0.199205
0.200252
0.201227
0.202132
0.202965
0.203727
0.204418
0.205039
0.205591
0.206074
0.206488
0.206834
0.207113
0.207325
0.20747
0.20755
0.207565
0.207516
0.207404
0.207228
0.206991
0.206693
0.206336
0.205919
0.205444
0.204913
0.204326
0.203685
0.20299
0.202244
0.201447
0.2006
0.199706
0.198764
0.197778
0.196747
0.195672
0.194556
0.193398
0.1922
0.190961
0.189684
0.188369
0.187016
0.185625
0.184198
0.182734
0.181234
0.179698
0.178126
0.176519
0.174876
0.173198
0.171485
0.169737
0.167953
0.166135
0.164283
0.162396
0.160474
0.158519
0.156529
0.154506
0.15245
0.15036
0.148238
0.146083
0.143897
0.141679
0.13943
0.13715
0.134841
0.132502
0.130135
0.127741
0.125319
0.122872
0.1204
0.117904
0.115385
0.112844
0.110284
0.107704
0.105108
0.102497
0.0998721
0.0972369
0.0945935
0.0919434
0.0892875
0.0866281
0.0839679
0.0813099
0.0786576
0.0760153
0.0733864
0.070774
0.0681802
0.065608
0.0630603
0.0605396
0.0580482
0.0555875
0.0531587
0.050763
0.0484
0.046069
0.0437694
0.0414996
0.0392585
0.0370465
0.0348651
0.0327173
0.030606
0.0285344
0.0265054
0.024521
0.0225829
0.0206919
0.0188482
0.0170501
0.0152928
0.0135635
0.0118309
0.0100164
0.0078935
0.00473256
0.00923234
0.0139122
0.0176131
0.0209447
0.0241397
0.0272773
0.0303839
0.0334661
0.0365239
0.0395564
0.0425635
0.0455474
0.048512
0.0514626
0.0544057
0.0573475
0.0602939
0.0632505
0.0662227
0.0692152
0.0722317
0.0752754
0.0783482
0.0814516
0.0845859
0.087751
0.0909457
0.0941678
0.0974145
0.100683
0.103969
0.10727
0.110583
0.113903
0.117227
0.120549
0.123866
0.127174
0.130468
0.133743
0.136996
0.140223
0.143419
0.146582
0.149707
0.152791
0.155832
0.158826
0.161771
0.164663
0.1675
0.170281
0.173003
0.175663
0.17826
0.180793
0.183259
0.185657
0.187987
0.190246
0.192434
0.19455
0.196592
0.198561
0.200456
0.202276
0.204021
0.20569
0.207283
0.208799
0.21024
0.211604
0.212892
0.214104
0.215239
0.216298
0.217281
0.218188
0.21902
0.219776
0.220456
0.221063
0.221596
0.222055
0.222442
0.222757
0.223
0.223172
0.223273
0.223305
0.223269
0.223164
0.222992
0.222754
0.222451
0.222083
0.221652
0.221159
0.220605
0.21999
0.219318
0.218588
0.217802
0.216961
0.216068
0.215122
0.214125
0.21308
0.211986
0.210845
0.209658
0.208426
0.20715
0.205831
0.20447
0.203067
0.201623
0.200139
0.198614
0.19705
0.195447
0.193804
0.192123
0.190403
0.188644
0.186847
0.185012
0.18314
0.181229
0.179281
0.177295
0.175272
0.173212
0.171115
0.168981
0.16681
0.164604
0.162362
0.160085
0.157773
0.155426
0.153045
0.150631
0.148183
0.145704
0.143193
0.140652
0.13808
0.13548
0.132852
0.130197
0.127516
0.124811
0.122083
0.119334
0.116564
0.113777
0.110973
0.108156
0.105326
0.102487
0.0996395
0.0967865
0.0939301
0.0910728
0.088218
0.0853689
0.0825291
0.079702
0.0768908
0.0740981
0.0713271
0.0685805
0.065861
0.0631711
0.060513
0.0578882
0.0552983
0.052744
0.050226
0.0477446
0.0452999
0.042892
0.0405216
0.0381897
0.035898
0.0336481
0.0314415
0.0292794
0.0271625
0.0250909
0.0230643
0.0210815
0.0191398
0.017233
0.0153464
0.0134454
0.0114443
0.00910171
0.0056738
0.00923314
0.0139127
0.0176132
0.0209447
0.0241395
0.027277
0.0303836
0.0334658
0.0365236
0.0395561
0.0425632
0.045547
0.0485115
0.0514621
0.0544052
0.057347
0.0602934
0.0632499
0.0662221
0.0692147
0.0722313
0.0752751
0.0783481
0.0814516
0.0845861
0.0877512
0.0909458
0.0941678
0.0974143
0.100682
0.103969
0.10727
0.110583
0.113903
0.117226
0.120549
0.123866
0.127173
0.130467
0.133742
0.136995
0.140222
0.143419
0.146581
0.149706
0.152791
0.155832
0.158825
0.16177
0.164662
0.1675
0.17028
0.173002
0.175662
0.17826
0.180792
0.183258
0.185657
0.187986
0.190245
0.192433
0.194549
0.196592
0.198561
0.200455
0.202275
0.20402
0.205689
0.207282
0.208799
0.210239
0.211604
0.212891
0.214103
0.215238
0.216297
0.21728
0.218187
0.219019
0.219775
0.220456
0.221062
0.221595
0.222055
0.222441
0.222756
0.222999
0.223171
0.223272
0.223305
0.223268
0.223163
0.222991
0.222753
0.22245
0.222082
0.221651
0.221158
0.220604
0.21999
0.219317
0.218587
0.217801
0.216961
0.216066
0.21512
0.214124
0.213078
0.211985
0.210844
0.209657
0.208425
0.20715
0.205831
0.204469
0.203066
0.201623
0.200138
0.198613
0.197049
0.195446
0.193803
0.192122
0.190402
0.188643
0.186847
0.185012
0.183139
0.181228
0.17928
0.177294
0.175271
0.173211
0.171114
0.16898
0.16681
0.164604
0.162362
0.160085
0.157772
0.155425
0.153045
0.15063
0.148183
0.145703
0.143193
0.140651
0.13808
0.135479
0.132851
0.130196
0.127516
0.124811
0.122083
0.119333
0.116564
0.113777
0.110973
0.108155
0.105326
0.102486
0.0996393
0.0967863
0.0939298
0.0910726
0.0882177
0.0853686
0.0825288
0.0797018
0.0768905
0.0740979
0.0713269
0.0685803
0.0658608
0.063171
0.0605128
0.057888
0.0552981
0.0527438
0.0502258
0.0477444
0.0452998
0.0428919
0.0405215
0.0381896
0.0358979
0.033648
0.0314414
0.0292794
0.0271625
0.0250909
0.0230643
0.0210815
0.0191399
0.0172331
0.0153465
0.0134455
0.0114444
0.0091018
0.0056739
0.0113043
0.0162242
0.020263
0.0239256
0.0274365
0.0308753
0.0342684
0.0376218
0.0409349
0.0442063
0.0474364
0.0506276
0.0537848
0.0569144
0.0600238
0.063121
0.0662135
0.0693088
0.0724136
0.0755339
0.0786748
0.0818402
0.0850332
0.0882557
0.0915088
0.0947926
0.0981062
0.101448
0.104816
0.108207
0.111618
0.115045
0.118486
0.121935
0.125389
0.128844
0.132295
0.135738
0.139168
0.142581
0.145973
0.14934
0.152677
0.155981
0.159249
0.162476
0.165659
0.168795
0.171881
0.174915
0.177893
0.180813
0.183673
0.186471
0.189204
0.19187
0.194468
0.196997
0.199454
0.201838
0.204149
0.206385
0.208546
0.21063
0.212636
0.214565
0.216415
0.218186
0.219878
0.221491
0.223023
0.224476
0.225848
0.227141
0.228354
0.229487
0.230539
0.231513
0.232406
0.23322
0.233955
0.234612
0.235191
0.235693
0.236117
0.236466
0.236739
0.236937
0.237061
0.237112
0.237089
0.236995
0.23683
0.236595
0.23629
0.235918
0.235478
0.234972
0.234402
0.233768
0.233072
0.232315
0.231498
0.230623
0.229691
0.228704
0.227663
0.226569
0.225424
0.224228
0.222983
0.221689
0.220349
0.218962
0.21753
0.216053
0.214532
0.212968
0.211361
0.209711
0.208019
0.206285
0.204509
0.202692
0.200834
0.198935
0.196995
0.195015
0.192994
0.190933
0.188832
0.186691
0.184511
0.182291
0.180032
0.177734
0.175398
0.173024
0.170611
0.168162
0.165676
0.163153
0.160595
0.158002
0.155374
0.152713
0.15002
0.147294
0.144539
0.141753
0.138939
0.136098
0.133231
0.13034
0.127426
0.124491
0.121537
0.118566
0.115581
0.112582
0.109573
0.106555
0.103531
0.100505
0.0974773
0.0944527
0.091434
0.0884248
0.0854283
0.0824478
0.0794863
0.0765469
0.0736324
0.0707459
0.0678898
0.0650667
0.0622787
0.0595276
0.056815
0.0541422
0.0515101
0.0489198
0.0463718
0.0438669
0.0414058
0.0389892
0.0366177
0.0342916
0.0320104
0.0297735
0.0275795
0.0254267
0.0233126
0.021233
0.0191802
0.0171372
0.0150663
0.0128752
0.01031
0.00662073
0.0113055
0.0162249
0.0202632
0.0239255
0.0274362
0.030875
0.0342681
0.0376215
0.0409345
0.0442059
0.047436
0.0506272
0.0537843
0.0569139
0.0600233
0.0631205
0.066213
0.0693083
0.0724131
0.0755335
0.0786744
0.0818398
0.0850329
0.0882554
0.0915085
0.0947923
0.098106
0.101448
0.104816
0.108207
0.111617
0.115045
0.118485
0.121934
0.125389
0.128843
0.132294
0.135737
0.139167
0.142581
0.145973
0.149339
0.152677
0.155981
0.159248
0.162475
0.165658
0.168795
0.171881
0.174915
0.177893
0.180813
0.183673
0.18647
0.189203
0.19187
0.194468
0.196996
0.199453
0.201838
0.204149
0.206385
0.208545
0.210629
0.212636
0.214564
0.216415
0.218186
0.219878
0.22149
0.223023
0.224475
0.225848
0.22714
0.228353
0.229486
0.230539
0.231512
0.232405
0.23322
0.233955
0.234611
0.23519
0.235692
0.236117
0.236465
0.236738
0.236936
0.23706
0.237111
0.237089
0.236994
0.236829
0.236594
0.23629
0.235917
0.235477
0.234972
0.234401
0.233767
0.233071
0.232314
0.231497