/*--------------------------------*- C++ -*----------------------------------*\
  =========                 |
  \\      /  F ield         | OpenFOAM: The Open Source CFD Toolbox
   \\    /   O peration     | Website:  https://openfoam.org
    \\  /    A nd           | Version:  8
     \\/     M anipulation  |
\*---------------------------------------------------------------------------*/
FoamFile
{
    version     2.0;
    format      ascii;
    class       volScalarField;
    location    "200";
    object      nut;
}
// * * * * * * * * * * * * * * * * * * * * * * * * * * * * * * * * * * * * * //

dimensions      [0 2 -1 0 0 0 0];

internalField   nonuniform List<scalar> 
48000
(
8.90877e-06
2.50916e-05
3.9703e-05
5.40664e-05
6.8557e-05
8.29985e-05
9.74354e-05
0.000111976
0.00012656
0.000140883
0.00015499
0.000168685
0.000181562
0.000192939
0.000201386
0.000201209
3.72014e-05
3.50832e-05
3.67508e-05
3.75935e-05
3.84864e-05
4.00972e-05
0.000224193
3.96989e-05
4.34506e-05
0.000270959
0.0003098
0.00032173
5.26297e-05
4.93804e-05
4.95207e-05
5.02337e-05
5.10344e-05
5.18399e-05
5.26347e-05
5.34148e-05
5.41792e-05
5.49274e-05
5.56593e-05
5.63746e-05
5.70734e-05
5.77558e-05
5.84221e-05
5.90722e-05
5.9706e-05
6.03234e-05
6.09243e-05
6.15084e-05
6.20759e-05
6.26269e-05
6.31617e-05
6.36801e-05
6.41822e-05
6.46681e-05
6.5138e-05
6.55919e-05
6.60301e-05
6.64526e-05
6.68596e-05
6.72512e-05
6.76275e-05
6.79886e-05
6.83347e-05
6.86659e-05
6.89825e-05
6.92844e-05
6.95719e-05
6.98451e-05
7.0104e-05
7.03489e-05
7.058e-05
7.07974e-05
7.10012e-05
7.11914e-05
7.13681e-05
7.15314e-05
7.16815e-05
7.18183e-05
7.19427e-05
7.20568e-05
7.21589e-05
7.22487e-05
7.23261e-05
7.23912e-05
7.24441e-05
7.24848e-05
7.25137e-05
7.25308e-05
7.25366e-05
7.25312e-05
7.25147e-05
7.24875e-05
7.24494e-05
7.24003e-05
7.23402e-05
7.22691e-05
7.21873e-05
7.20951e-05
7.19927e-05
7.18807e-05
7.17593e-05
7.16287e-05
7.14891e-05
7.13404e-05
7.11826e-05
7.10158e-05
7.08402e-05
7.0656e-05
7.04635e-05
7.0263e-05
7.00545e-05
6.98382e-05
6.96141e-05
6.93823e-05
6.91431e-05
6.88961e-05
6.86414e-05
6.83788e-05
6.81087e-05
6.78314e-05
6.75466e-05
6.72535e-05
6.69514e-05
6.66406e-05
6.63218e-05
6.59955e-05
6.56612e-05
6.53181e-05
6.49659e-05
6.46047e-05
6.42353e-05
6.38579e-05
6.34717e-05
6.30758e-05
6.26694e-05
6.22529e-05
6.1827e-05
6.13922e-05
6.09485e-05
6.04951e-05
6.00308e-05
5.95554e-05
5.90691e-05
5.85725e-05
5.8066e-05
5.75491e-05
5.70209e-05
5.64807e-05
5.59288e-05
5.5366e-05
5.47925e-05
5.42075e-05
5.36098e-05
5.29984e-05
5.23737e-05
5.17372e-05
5.10889e-05
5.04273e-05
4.97522e-05
4.91303e-05
4.96579e-05
0.000302546
4.99725e-05
4.7114e-05
4.09542e-05
3.52202e-05
3.30969e-05
3.20335e-05
3.20066e-05
0.0002065
0.000226233
0.000224448
0.000222825
0.000226669
0.000224255
0.000219425
0.000207526
0.000195823
0.000181917
0.000183676
0.000184336
0.000179811
0.000171435
0.000160911
0.00014931
0.00013724
0.000125055
0.000112979
0.000101167
8.97337e-05
7.8763e-05
6.83114e-05
5.83794e-05
4.89433e-05
4.03551e-05
3.23895e-05
2.49181e-05
1.78902e-05
1.07911e-05
3.21871e-06
8.90797e-06
2.50994e-05
3.97095e-05
5.40712e-05
6.85606e-05
8.30023e-05
9.74394e-05
0.000111979
0.000126563
0.000140885
0.000154992
0.000168687
0.000181562
0.000192931
0.000201358
0.000201129
3.71956e-05
3.50909e-05
3.67552e-05
3.75862e-05
3.8459e-05
3.97546e-05
0.000243229
0.000272269
0.000285803
0.000302624
0.000316657
0.000322974
5.26253e-05
4.93641e-05
4.95125e-05
5.02304e-05
5.10328e-05
5.18387e-05
5.26334e-05
5.34134e-05
5.41777e-05
5.49258e-05
5.56574e-05
5.63726e-05
5.70712e-05
5.77535e-05
5.842e-05
5.90703e-05
5.97042e-05
6.03215e-05
6.0922e-05
6.1506e-05
6.20735e-05
6.26246e-05
6.31594e-05
6.36779e-05
6.41802e-05
6.46663e-05
6.51365e-05
6.55909e-05
6.60294e-05
6.64522e-05
6.68594e-05
6.72511e-05
6.76274e-05
6.79885e-05
6.83345e-05
6.86657e-05
6.89822e-05
6.92841e-05
6.95716e-05
6.98448e-05
7.01038e-05
7.03489e-05
7.05801e-05
7.07976e-05
7.10014e-05
7.11916e-05
7.13682e-05
7.15314e-05
7.16815e-05
7.18185e-05
7.19434e-05
7.20575e-05
7.21597e-05
7.22494e-05
7.23268e-05
7.23917e-05
7.24444e-05
7.24849e-05
7.25136e-05
7.25306e-05
7.25362e-05
7.25306e-05
7.25141e-05
7.24867e-05
7.24481e-05
7.23984e-05
7.23375e-05
7.22657e-05
7.21835e-05
7.20911e-05
7.1989e-05
7.18774e-05
7.17568e-05
7.16273e-05
7.14888e-05
7.13411e-05
7.1184e-05
7.10172e-05
7.08408e-05
7.06552e-05
7.0461e-05
7.02592e-05
7.00504e-05
6.98349e-05
6.96127e-05
6.93833e-05
6.91458e-05
6.88994e-05
6.86438e-05
6.83794e-05
6.81072e-05
6.78281e-05
6.75422e-05
6.72488e-05
6.69474e-05
6.6638e-05
6.63207e-05
6.59953e-05
6.56614e-05
6.53182e-05
6.49657e-05
6.46043e-05
6.42345e-05
6.38564e-05
6.34697e-05
6.30736e-05
6.26676e-05
6.22515e-05
6.18257e-05
6.13908e-05
6.09469e-05
6.04934e-05
6.00295e-05
5.95546e-05
5.90687e-05
5.85721e-05
5.8065e-05
5.75473e-05
5.7019e-05
5.64794e-05
5.59284e-05
5.53661e-05
5.47921e-05
5.42059e-05
5.3607e-05
5.29956e-05
5.2372e-05
5.17368e-05
5.10893e-05
5.04271e-05
4.97499e-05
4.91234e-05
4.96435e-05
0.000302412
4.99559e-05
4.71428e-05
4.09967e-05
3.52365e-05
3.31028e-05
3.20346e-05
3.2007e-05
0.000206508
0.000226183
0.000224332
0.00022263
0.000226509
0.000224186
0.000219406
0.000207578
0.000195856
0.000181801
0.000183525
0.000184266
0.000179776
0.000171413
0.000160896
0.000149301
0.000137235
0.000125052
0.000112976
0.000101164
8.97287e-05
7.87582e-05
6.83085e-05
5.83786e-05
4.89428e-05
4.03544e-05
3.23884e-05
2.4917e-05
1.78892e-05
1.07905e-05
3.21872e-06
1.53008e-05
8.76529e-05
0.000142543
0.000185124
0.00022074
0.000252734
0.000282282
0.000309997
0.000336299
0.000361319
0.000384968
0.000406857
0.000426046
0.000440335
0.000443443
0.000413367
0.00029662
0.000283438
0.000290696
0.000298946
0.000308337
0.000326732
0.000404866
0.000374278
0.000370205
0.000461232
0.000491611
0.000497517
0.000454536
0.00045498
0.000463277
0.000472189
0.000480548
0.000488391
0.000495867
0.000503075
0.000510067
0.000516873
0.000523508
0.000529982
0.0005363
0.000542465
0.000548479
0.000554344
0.00056006
0.000565629
0.00057105
0.000576325
0.000581454
0.000586438
0.000591277
0.000595973
0.000600527
0.000604937
0.000609205
0.000613332
0.000617319
0.000621166
0.000624874
0.000628445
0.000631879
0.000635178
0.000638342
0.000641373
0.000644272
0.00064704
0.000649678
0.000652188
0.000654569
0.000656823
0.000658951
0.000660953
0.000662832
0.000664586
0.000666217
0.000667726
0.000669111
0.000670368
0.000671481
0.00067247
0.00067334
0.000674093
0.000674732
0.000675258
0.000675672
0.000675976
0.000676171
0.000676258
0.000676238
0.000676112
0.000675882
0.000675549
0.000675115
0.000674581
0.000673947
0.000673216
0.000672388
0.000671464
0.000670447
0.000669338
0.000668139
0.000666853
0.000665483
0.00066403
0.000662495
0.000660881
0.000659189
0.000657419
0.000655573
0.000653649
0.00065165
0.000649575
0.000647424
0.000645198
0.000642898
0.000640524
0.000638076
0.000635552
0.000632952
0.000630273
0.000627514
0.000624673
0.00062175
0.000618746
0.000615662
0.000612497
0.000609249
0.000605914
0.00060249
0.000598977
0.000595376
0.000591687
0.000587909
0.000584039
0.000580076
0.00057602
0.00057187
0.000567625
0.000563283
0.000558843
0.000554301
0.000549658
0.000544915
0.00054007
0.000535124
0.000530073
0.000524914
0.000519643
0.000514262
0.00050877
0.000503169
0.000497456
0.000491627
0.000485677
0.000479603
0.0004734
0.000467059
0.000460561
0.000453938
0.00044779
0.00044665
0.000479194
0.000389072
0.000362811
0.000365593
0.000351672
0.000339791
0.000331273
0.00033076
0.00037833
0.000388815
0.000385551
0.000386228
0.000402729
0.000408393
0.00040638
0.000397935
0.000362207
0.000349296
0.000377318
0.000392869
0.000392306
0.000382337
0.000367835
0.000351245
0.000333698
0.000315737
0.00029765
0.000279608
0.000261716
0.000244046
0.000226635
0.000209486
0.000192461
0.000175125
0.000156532
0.000134764
0.000105223
6.17172e-05
8.11809e-06
1.53065e-05
8.77084e-05
0.000142622
0.000185213
0.000220834
0.000252832
0.000282381
0.000310096
0.000336397
0.000361414
0.000385058
0.000406933
0.000426101
0.000440415
0.000443879
0.000414911
0.000297501
0.000283444
0.000290297
0.000298584
0.00030794
0.00032696
0.000421808
0.000454559
0.000469
0.00048393
0.000494947
0.000498168
0.000455109
0.000455225
0.000463364
0.000472225
0.00048057
0.000488406
0.000495878
0.000503082
0.000510073
0.000516877
0.000523512
0.000529984
0.000536301
0.000542465
0.000548479
0.000554343
0.000560059
0.000565627
0.000571047
0.000576322
0.00058145
0.000586434
0.000591273
0.000595969
0.000600522
0.000604932
0.000609201
0.000613328
0.000617314
0.000621161
0.00062487
0.000628441
0.000631875
0.000635173
0.000638337
0.000641368
0.000644267
0.000647035
0.000649673
0.000652181
0.000654562
0.000656816
0.000658943
0.000660945
0.000662823
0.000664578
0.000666209
0.000667718
0.000669103
0.00067036
0.000671471
0.00067246
0.00067333
0.000674083
0.000674721
0.000675247
0.000675662
0.000675966
0.000676161
0.000676248
0.000676228
0.000676102
0.000675872
0.00067554
0.000675106
0.000674572
0.000673938
0.000673206
0.000672377
0.000671452
0.000670434
0.000669325
0.000668126
0.000666841
0.000665471
0.000664019
0.000662486
0.000660873
0.000659181
0.00065741
0.000655561
0.000653635
0.000651633
0.000649556
0.000647405
0.000645182
0.000642885
0.000640515
0.000638069
0.000635547
0.000632945
0.000630264
0.000627502
0.000624659
0.000621735
0.000618731
0.000615647
0.000612482
0.000609233
0.000605898
0.000602475
0.000598964
0.000595363
0.000591674
0.000587895
0.000584025
0.000580063
0.000576007
0.000571855
0.000567608
0.000563264
0.000558824
0.000554285
0.000549646
0.000544905
0.00054006
0.000535111
0.000530056
0.000524895
0.000519626
0.000514248
0.000508759
0.000503158
0.000497442
0.000491609
0.000485657
0.000479585
0.000473386
0.00046705
0.000460553
0.000453908
0.000447671
0.000446388
0.000479679
0.000389859
0.000362766
0.000365039
0.000351446
0.000339677
0.000331099
0.000330362
0.000377842
0.000388819
0.000385737
0.000386447
0.000402923
0.000408681
0.000406971
0.000398314
0.000362326
0.000349752
0.000377724
0.000392841
0.000392178
0.000382249
0.000367791
0.000351225
0.000333689
0.000315733
0.000297647
0.000279604
0.000261712
0.000244042
0.000226631
0.000209484
0.000192461
0.000175127
0.000156537
0.00013477
0.000105226
6.17147e-05
8.11896e-06
2.3608e-05
0.000130866
0.000223638
0.000294738
0.000352643
0.000402785
0.000447789
0.000489037
0.000527303
0.000562958
0.000596028
0.00062615
0.000652457
0.000673539
0.000687707
0.000692151
0.000670364
0.00066864
0.000677968
0.000690516
0.000704828
0.000721728
0.000752466
0.000763671
0.000775343
0.000806051
0.000827487
0.000844717
0.000853838
0.000868698
0.000885452
0.00090184
0.000917301
0.000931884
0.000945754
0.000959057
0.000971894
0.000984335
0.000996424
0.00100819
0.00101965
0.00103083
0.00104172
0.00105233
0.00106268
0.00107276
0.00108257
0.00109213
0.00110142
0.00111045
0.00111923
0.00112776
0.00113603
0.00114404
0.00115181
0.00115933
0.00116659
0.00117361
0.00118038
0.00118691
0.00119319
0.00119923
0.00120504
0.0012106
0.00121593
0.00122102
0.00122587
0.0012305
0.00123489
0.00123905
0.00124299
0.0012467
0.00125018
0.00125344
0.00125647
0.00125928
0.00126186
0.00126421
0.00126632
0.00126821
0.00126987
0.00127132
0.00127256
0.00127359
0.00127442
0.00127504
0.00127545
0.00127567
0.00127568
0.0012755
0.00127513
0.00127456
0.0012738
0.00127286
0.00127173
0.00127042
0.00126893
0.00126726
0.00126542
0.0012634
0.00126122
0.00125888
0.00125638
0.00125372
0.0012509
0.00124793
0.00124482
0.00124155
0.00123814
0.00123459
0.00123089
0.00122705
0.00122306
0.00121893
0.00121466
0.00121024
0.00120568
0.00120098
0.00119612
0.00119111
0.00118596
0.00118064
0.00117518
0.00116956
0.00116378
0.00115784
0.00115174
0.00114547
0.00113904
0.00113245
0.00112568
0.00111875
0.00111164
0.00110435
0.00109689
0.00108925
0.00108143
0.00107343
0.00106525
0.00105688
0.00104831
0.00103956
0.00103062
0.00102148
0.00101214
0.0010026
0.000992853
0.000982903
0.000972745
0.000962376
0.000951792
0.000940989
0.00092996
0.000918698
0.000907188
0.000895407
0.000883313
0.000870821
0.000857787
0.000844148
0.000830987
0.000824257
0.00079468
0.000770041
0.000752874
0.000733672
0.000715755
0.000699721
0.00068684
0.000684643
0.000677154
0.000666493
0.000658055
0.000654192
0.000648356
0.000641133
0.000629787
0.000610592
0.000600155
0.000604468
0.00060527
0.0005974
0.000582827
0.000564245
0.000543439
0.000521397
0.00049865
0.000475486
0.000452061
0.000428443
0.000404627
0.000380514
0.000355859
0.000330115
0.000302181
0.000270002
0.0002298
0.000175072
9.78088e-05
1.42758e-05
2.3617e-05
0.000130935
0.000223747
0.000294868
0.000352783
0.000402931
0.000447935
0.000489183
0.000527446
0.000563098
0.000596163
0.000626272
0.000652546
0.000673588
0.000687831
0.000692528
0.000669742
0.00066713
0.000676343
0.0006889
0.000702987
0.000719811
0.000754328
0.000776988
0.000794533
0.000811854
0.000828658
0.000845224
0.000854157
0.000868846
0.00088552
0.000901878
0.000917326
0.000931898
0.00094576
0.000959055
0.000971887
0.000984323
0.000996409
0.00100817
0.00101963
0.0010308
0.00104169
0.00105231
0.00106265
0.00107273
0.00108254
0.00109209
0.00110138
0.00111042
0.00111919
0.00112772
0.00113598
0.001144
0.00115177
0.00115928
0.00116655
0.00117356
0.00118033
0.00118686
0.00119314
0.00119918
0.00120498
0.00121055
0.00121587
0.00122096
0.00122582
0.00123044
0.00123483
0.001239
0.00124293
0.00124664
0.00125012
0.00125338
0.00125641
0.00125922
0.0012618
0.00126415
0.00126626
0.00126814
0.00126981
0.00127126
0.0012725
0.00127353
0.00127435
0.00127497
0.00127539
0.0012756
0.00127562
0.00127544
0.00127506
0.00127449
0.00127374
0.00127279
0.00127166
0.00127035
0.00126886
0.00126719
0.00126535
0.00126333
0.00126116
0.00125881
0.00125631
0.00125365
0.00125083
0.00124786
0.00124475
0.00124148
0.00123807
0.00123452
0.00123082
0.00122698
0.00122299
0.00121886
0.00121459
0.00121018
0.00120561
0.00120091
0.00119605
0.00119104
0.00118588
0.00118057
0.00117511
0.00116949
0.00116371
0.00115777
0.00115167
0.0011454
0.00113897
0.00113238
0.00112561
0.00111868
0.00111157
0.00110428
0.00109682
0.00108918
0.00108137
0.00107336
0.00106518
0.00105681
0.00104825
0.00103949
0.00103055
0.00102141
0.00101207
0.00100253
0.000992784
0.000982835
0.000972678
0.000962309
0.000951725
0.000940922
0.000929892
0.00091863
0.00090712
0.000895342
0.00088325
0.00087076
0.000857717
0.000844047
0.000830899
0.000824659
0.00079473
0.000769499
0.000752387
0.00073331
0.000715402
0.000699309
0.000686392
0.000684551
0.000677418
0.000666852
0.000658464
0.000654677
0.00064901
0.000641997
0.000630447
0.000611086
0.000600447
0.000604359
0.000604955
0.00059713
0.000582658
0.000564148
0.000543378
0.000521352
0.00049861
0.000475448
0.000452023
0.000428405
0.00040459
0.000380479
0.000355827
0.000330088
0.000302159
0.000269988
0.000229793
0.000175067
9.77999e-05
1.42761e-05
3.23285e-05
0.000160688
0.000278874
0.000371873
0.000448298
0.00051406
0.000572535
0.000625668
0.000674593
0.000719939
0.000761955
0.000800542
0.000835272
0.000865555
0.000891246
0.000913016
0.000929201
0.00094663
0.000965596
0.000985493
0.00100612
0.00102726
0.00105058
0.00107148
0.00109183
0.00111456
0.00113637
0.00115789
0.0011786
0.00120004
0.00122158
0.00124259
0.0012628
0.00128219
0.00130083
0.0013188
0.00133619
0.00135306
0.00136945
0.00138539
0.00140092
0.00141605
0.00143079
0.00144516
0.00145916
0.0014728
0.00148608
0.00149901
0.00151159
0.00152383
0.00153572
0.00154727
0.00155848
0.00156935
0.00157989
0.00159009
0.00159996
0.0016095
0.0016187
0.00162758
0.00163613
0.00164436
0.00165227
0.00165986
0.00166712
0.00167407
0.00168071
0.00168704
0.00169305
0.00169875
0.00170415
0.00170924
0.00171402
0.0017185
0.00172268
0.00172655
0.00173011
0.00173337
0.00173632
0.00173896
0.00174131
0.00174336
0.00174513
0.00174661
0.00174781
0.00174874
0.00174938
0.00174975
0.00174985
0.00174968
0.00174924
0.00174855
0.00174759
0.00174637
0.0017449
0.00174319
0.00174122
0.00173902
0.00173657
0.0017339
0.00173099
0.00172785
0.0017245
0.00172093
0.00171714
0.00171314
0.00170894
0.00170453
0.00169992
0.00169511
0.0016901
0.00168489
0.00167949
0.00167388
0.00166807
0.00166206
0.00165585
0.00164944
0.00164282
0.001636
0.00162896
0.00162172
0.00161426
0.00160659
0.0015987
0.00159058
0.00158225
0.00157369
0.0015649
0.00155588
0.00154663
0.00153714
0.00152742
0.00151745
0.00150724
0.00149679
0.00148608
0.00147513
0.00146392
0.00145245
0.00144073
0.00142874
0.00141648
0.00140396
0.00139116
0.00137809
0.00136473
0.0013511
0.00133718
0.00132296
0.00130845
0.00129364
0.00127851
0.00126306
0.00124727
0.0012311
0.00121451
0.00119742
0.0011797
0.00116119
0.00114204
0.00112356
0.00110176
0.00107952
0.00105789
0.00103621
0.00101509
0.000994692
0.000975264
0.000958151
0.000941016
0.000923615
0.000906997
0.000891831
0.00087699
0.000862661
0.000847681
0.000830695
0.000815651
0.000804009
0.000791023
0.00077433
0.000754071
0.000731154
0.000706407
0.000680403
0.000653505
0.000625922
0.00059775
0.000568988
0.000539522
0.000509088
0.000477176
0.000442849
0.000404452
0.000359146
0.000302268
0.000226843
0.000125616
2.06738e-05
3.23321e-05
0.000160758
0.00027899
0.000372018
0.000448461
0.000514233
0.000572714
0.000625849
0.000674774
0.000720121
0.000762135
0.000800721
0.000835443
0.000865719
0.000891452
0.000913309
0.000929172
0.000946237
0.000965069
0.000984864
0.00100525
0.0010261
0.00104989
0.00107238
0.00109384
0.00111508
0.00113627
0.00115782
0.00117859
0.00120006
0.00122161
0.00124263
0.00126283
0.00128222
0.00130085
0.00131881
0.00133619
0.00135305
0.00136943
0.00138538
0.0014009
0.00141603
0.00143077
0.00144513
0.00145913
0.00147277
0.00148605
0.00149897
0.00151155
0.00152378
0.00153567
0.00154722
0.00155843
0.0015693
0.00157983
0.00159003
0.0015999
0.00160943
0.00161864
0.00162752
0.00163607
0.0016443
0.0016522
0.00165979
0.00166705
0.001674
0.00168064
0.00168696
0.00169297
0.00169868
0.00170407
0.00170916
0.00171394
0.00171842
0.00172259
0.00172646
0.00173003
0.00173329
0.00173623
0.00173887
0.00174122
0.00174327
0.00174504
0.00174653
0.00174773
0.00174865
0.00174929
0.00174966
0.00174976
0.00174959
0.00174915
0.00174845
0.00174749
0.00174628
0.00174481
0.00174309
0.00174113
0.00173892
0.00173648
0.0017338
0.00173089
0.00172776
0.0017244
0.00172083
0.00171704
0.00171305
0.00170884
0.00170443
0.00169982
0.00169501
0.00169
0.00168479
0.00167939
0.00167378
0.00166797
0.00166196
0.00165575
0.00164934
0.00164272
0.0016359
0.00162886
0.00162162
0.00161416
0.00160649
0.0015986
0.00159048
0.00158215
0.00157359
0.0015648
0.00155578
0.00154653
0.00153704
0.00152732
0.00151735
0.00150714
0.00149669
0.00148598
0.00147503
0.00146382
0.00145236
0.00144063
0.00142864
0.00141639
0.00140386
0.00139106
0.00137799
0.00136464
0.001351
0.00133708
0.00132286
0.00130835
0.00129354
0.00127842
0.00126297
0.00124717
0.00123101
0.00121442
0.00119734
0.00117961
0.0011611
0.00114197
0.00112367
0.00110179
0.00107937
0.00105768
0.00103598
0.00101481
0.000994364
0.000974915
0.000957924
0.00094091
0.000923551
0.000906983
0.000891888
0.000877137
0.000862878
0.000847776
0.000830622
0.00081543
0.00080366
0.000790685
0.000774082
0.000753912
0.000731051
0.000706333
0.000680341
0.000653448
0.000625866
0.000597694
0.000568932
0.000539468
0.000509037
0.000477128
0.000442808
0.00040442
0.000359124
0.000302255
0.000226835
0.000125603
2.0673e-05
4.2086e-05
0.000184098
0.000319504
0.000429037
0.000519924
0.000598185
0.000667626
0.000730577
0.000788466
0.000842155
0.000892123
0.000938562
0.000981456
0.00102072
0.00105651
0.00108947
0.00111997
0.00114919
0.00117757
0.00120535
0.00123272
0.00125975
0.00128668
0.00131298
0.00133879
0.00136449
0.00138984
0.00141505
0.00144011
0.00146513
0.00148991
0.00151421
0.00153786
0.00156081
0.00158307
0.00160467
0.00162565
0.00164605
0.00166589
0.00168521
0.00170404
0.00172238
0.00174026
0.00175768
0.00177466
0.00179119
0.0018073
0.00182298
0.00183824
0.00185309
0.00186751
0.00188153
0.00189513
0.00190833
0.00192113
0.00193352
0.00194551
0.0019571
0.00196829
0.00197909
0.0019895
0.00199951
0.00200914
0.00201838
0.00202724
0.00203572
0.00204381
0.00205153
0.00205887
0.00206584
0.00207244
0.00207866
0.00208452
0.00209
0.00209512
0.00209988
0.00210426
0.00210828
0.00211193
0.00211521
0.00211813
0.00212071
0.00212293
0.00212481
0.00212635
0.00212754
0.00212841
0.00212893
0.00212913
0.002129
0.00212855
0.00212777
0.00212669
0.00212529
0.00212358
0.00212156
0.00211925
0.00211664
0.00211374
0.00211056
0.00210709
0.00210335
0.00209934
0.00209506
0.00209052
0.00208572
0.00208066
0.00207536
0.0020698
0.002064
0.00205795
0.00205166
0.00204513
0.00203835
0.00203132
0.00202405
0.00201653
0.00200877
0.00200075
0.00199248
0.00198395
0.00197517
0.00196612
0.00195682
0.00194725
0.00193741
0.00192729
0.00191691
0.00190624
0.0018953
0.00188407
0.00187256
0.00186075
0.00184865
0.00183626
0.00182357
0.00181057
0.00179727
0.00178366
0.00176974
0.0017555
0.00174094
0.00172605
0.00171084
0.0016953
0.00167942
0.0016632
0.00164663
0.00162972
0.00161246
0.00159484
0.00157685
0.00155848
0.00153972
0.00152055
0.00150094
0.00148086
0.00146025
0.00143905
0.00141718
0.00139464
0.00137173
0.00134808
0.00132406
0.00129989
0.00127569
0.00125164
0.00122785
0.00120439
0.00118152
0.00115897
0.00113664
0.00111465
0.00109318
0.0010721
0.00105148
0.00103103
0.00101019
0.000989482
0.000969045
0.000947669
0.000924486
0.000899338
0.000872444
0.00084411
0.000814601
0.000784106
0.000752724
0.00072047
0.000687251
0.000652841
0.000616814
0.000578434
0.000536454
0.000488798
0.000432101
0.000361154
0.000268727
0.000148636
2.71803e-05
4.2084e-05
0.000184162
0.000319619
0.000429187
0.000520099
0.000598376
0.000667827
0.000730783
0.000788675
0.000842366
0.000892334
0.000938772
0.00098166
0.00102092
0.00105671
0.00108969
0.00112011
0.00114924
0.00117755
0.00120527
0.00123254
0.00125942
0.00128633
0.00131279
0.00133876
0.00136434
0.00138968
0.00141495
0.00144008
0.00146515
0.00148995
0.00151426
0.00153791
0.00156086
0.00158311
0.0016047
0.00162567
0.00164606
0.0016659
0.00168521
0.00170403
0.00172237
0.00174024
0.00175766
0.00177463
0.00179117
0.00180727
0.00182295
0.00183821
0.00185305
0.00186747
0.00188149
0.00189509
0.00190829
0.00192108
0.00193347
0.00194546
0.00195704
0.00196824
0.00197903
0.00198944
0.00199945
0.00200908
0.00201832
0.00202717
0.00203565
0.00204374
0.00205146
0.0020588
0.00206576
0.00207236
0.00207858
0.00208444
0.00208992
0.00209504
0.00209979
0.00210418
0.0021082
0.00211185
0.00211512
0.00211805
0.00212062
0.00212284
0.00212472
0.00212626
0.00212745
0.00212831
0.00212884
0.00212904
0.00212891
0.00212845
0.00212768
0.00212659
0.00212519
0.00212348
0.00212146
0.00211915
0.00211654
0.00211364
0.00211046
0.00210699
0.00210325
0.00209924
0.00209496
0.00209041
0.00208561
0.00208056
0.00207525
0.0020697
0.0020639
0.00205785
0.00205156
0.00204502
0.00203824
0.00203122
0.00202395
0.00201643
0.00200866
0.00200064
0.00199237
0.00198385
0.00197506
0.00196602
0.00195671
0.00194714
0.0019373
0.00192719
0.0019168
0.00190614
0.00189519
0.00188396
0.00187245
0.00186064
0.00184855
0.00183615
0.00182346
0.00181047
0.00179716
0.00178355
0.00176963
0.00175539
0.00174083
0.00172595
0.00171073
0.00169519
0.00167931
0.00166309
0.00164653
0.00162962
0.00161235
0.00159473
0.00157674
0.00155837
0.00153961
0.00152044
0.00150084
0.00148076
0.00146016
0.00143896
0.00141709
0.00139455
0.00137169
0.00134805
0.001324
0.0012998
0.00127558
0.00125151
0.00122769
0.00120421
0.00118136
0.00115884
0.00113651
0.00111452
0.00109308
0.00107202
0.00105143
0.00103095
0.00101003
0.000989263
0.000968801
0.000947453
0.000924321
0.000899219
0.000872355
0.000844036
0.000814534
0.000784041
0.000752661
0.000720408
0.00068719
0.000652781
0.000616757
0.000578383
0.000536409
0.000488763
0.000432077
0.000361139
0.000268716
0.00014862
2.71793e-05
5.31773e-05
0.000205927
0.000353739
0.000475838
0.000578037
0.000666266
0.000744571
0.00081555
0.000880852
0.000941524
0.000998223
0.00105134
0.00110111
0.00114768
0.00119128
0.00123229
0.0012711
0.00130814
0.0013437
0.00137803
0.00141132
0.00144374
0.00147541
0.00150634
0.00153659
0.00156626
0.00159539
0.0016241
0.00165244
0.00168042
0.00170798
0.00173503
0.00176147
0.00178728
0.00181243
0.00183693
0.00186079
0.00188404
0.0019067
0.00192878
0.00195031
0.0019713
0.00199176
0.0020117
0.00203114
0.00205008
0.00206852
0.00208648
0.00210396
0.00212097
0.0021375
0.00215356
0.00216915
0.00218428
0.00219895
0.00221316
0.00222691
0.00224021
0.00225306
0.00226545
0.0022774
0.0022889
0.00229996
0.00231058
0.00232076
0.00233051
0.00233982
0.0023487
0.00235715
0.00236518
0.00237278
0.00237996
0.00238671
0.00239305
0.00239896
0.00240446
0.00240954
0.00241421
0.00241845
0.00242228
0.0024257
0.00242872
0.00243134
0.00243356
0.0024354
0.00243684
0.0024379
0.00243858
0.00243888
0.00243881
0.00243836
0.00243755
0.00243638
0.00243485
0.00243296
0.00243073
0.00242815
0.00242523
0.00242198
0.0024184
0.0024145
0.00241028
0.00240575
0.00240091
0.00239576
0.00239032
0.00238459
0.00237856
0.00237224
0.00236564
0.00235876
0.0023516
0.00234415
0.00233642
0.00232841
0.00232011
0.00231153
0.00230267
0.00229351
0.00228407
0.00227433
0.0022643
0.00225397
0.00224334
0.00223241
0.00222116
0.00220961
0.00219774
0.00218556
0.00217306
0.00216023
0.00214707
0.00213358
0.00211976
0.0021056
0.0020911
0.00207625
0.00206105
0.0020455
0.00202959
0.00201331
0.00199667
0.00197967
0.00196228
0.00194452
0.00192638
0.00190785
0.00188892
0.0018696
0.00184988
0.00182975
0.00180921
0.00178824
0.00176683
0.00174497
0.00172263
0.0016998
0.00167644
0.00165253
0.00162804
0.00160298
0.00157743
0.00155144
0.00152511
0.00149856
0.00147189
0.00144518
0.0014185
0.0013919
0.00136545
0.00133915
0.001313
0.00128701
0.00126122
0.00123562
0.00121022
0.00118493
0.00115952
0.00113391
0.00110796
0.00108125
0.00105343
0.00102436
0.000994038
0.000962545
0.000929966
0.000896356
0.000861714
0.00082596
0.000788908
0.000750218
0.000709319
0.000665281
0.000616604
0.000560888
0.000494378
0.000411476
0.00030481
0.000169155
3.37246e-05
5.31751e-05
0.000205991
0.000353854
0.000475991
0.000578219
0.000666467
0.000744786
0.000815774
0.000881081
0.000941757
0.000998457
0.00105158
0.00110134
0.0011479
0.00119149
0.0012325
0.00127129
0.0013083
0.00134383
0.00137813
0.00141138
0.00144375
0.00147538
0.00150631
0.00153657
0.00156623
0.00159537
0.00162411
0.00165247
0.00168048
0.00170805
0.0017351
0.00176154
0.00178734
0.00181249
0.00183698
0.00186083
0.00188408
0.00190673
0.0019288
0.00195032
0.00197131
0.00199176
0.0020117
0.00203113
0.00205007
0.00206851
0.00208647
0.00210394
0.00212094
0.00213747
0.00215353
0.00216912
0.00218425
0.00219891
0.00221312
0.00222687
0.00224017
0.00225301
0.0022654
0.00227735
0.00228885
0.00229991
0.00231052
0.0023207
0.00233045
0.00233976
0.00234864
0.00235709
0.00236511
0.00237271
0.00237989
0.00238664
0.00239297
0.00239889
0.00240439
0.00240947
0.00241413
0.00241837
0.0024222
0.00242562
0.00242863
0.00243125
0.00243348
0.00243531
0.00243675
0.00243781
0.00243849
0.00243879
0.00243872
0.00243827
0.00243746
0.00243629
0.00243475
0.00243287
0.00243063
0.00242806
0.00242514
0.00242189
0.00241831
0.0024144
0.00241018
0.00240565
0.00240081
0.00239566
0.00239022
0.00238448
0.00237846
0.00237214
0.00236554
0.00235866
0.00235149
0.00234405
0.00233632
0.0023283
0.00232001
0.00231143
0.00230256
0.00229341
0.00228396
0.00227423
0.0022642
0.00225387
0.00224324
0.0022323
0.00222106
0.0022095
0.00219764
0.00218545
0.00217295
0.00216012
0.00214697
0.00213348
0.00211966
0.0021055
0.00209099
0.00207614
0.00206094
0.00204539
0.00202948
0.00201321
0.00199657
0.00197956
0.00196218
0.00194442
0.00192627
0.00190774
0.00188882
0.0018695
0.00184978
0.00182965
0.0018091
0.00178813
0.00176672
0.00174486
0.00172253
0.0016997
0.00167635
0.00165244
0.00162795
0.00160289
0.00157736
0.00155137
0.00152505
0.00149849
0.00147181
0.00144509
0.0014184
0.00139179
0.00136534
0.00133905
0.00131289
0.0012869
0.00126111
0.00123552
0.00121012
0.00118483
0.0011594
0.00113377
0.00110781
0.00108112
0.00105332
0.00102427
0.000993959
0.000962473
0.000929897
0.000896289
0.000861648
0.000825896
0.000788845
0.000750157
0.000709261
0.000665229
0.00061656
0.000560853
0.000494353
0.000411461
0.000304797
0.000169137
3.37246e-05
6.58736e-05
0.000227945
0.000385699
0.000517811
0.000629137
0.0007255
0.000811104
0.00088873
0.000960193
0.00102668
0.00108896
0.00114757
0.00120286
0.00125511
0.00130456
0.00135149
0.00139619
0.00143893
0.00147993
0.00151941
0.00155755
0.00159448
0.00163036
0.00166525
0.00169927
0.00173247
0.00176494
0.00179675
0.00182795
0.00185859
0.00188865
0.00191811
0.00194695
0.00197513
0.00200265
0.00202952
0.00205574
0.00208132
0.00210628
0.00213062
0.00215437
0.00217753
0.00220012
0.00222215
0.00224363
0.00226456
0.00228495
0.0023048
0.00232413
0.00234293
0.00236122
0.00237898
0.00239624
0.00241298
0.00242922
0.00244495
0.00246018
0.0024749
0.00248913
0.00250287
0.00251611
0.00252886
0.00254112
0.0025529
0.0025642
0.00257501
0.00258535
0.00259521
0.0026046
0.00261352
0.00262197
0.00262996
0.00263747
0.00264453
0.00265112
0.00265726
0.00266293
0.00266815
0.00267291
0.00267721
0.00268106
0.00268446
0.00268743
0.00268996
0.00269206
0.00269373
0.00269497
0.0026958
0.0026962
0.00269619
0.00269577
0.00269495
0.00269373
0.0026921
0.00269009
0.00268769
0.00268491
0.00268176
0.00267823
0.00267434
0.00267009
0.00266549
0.00266054
0.00265525
0.00264962
0.00264366
0.00263737
0.00263076
0.00262383
0.00261658
0.00260901
0.00260113
0.00259293
0.00258442
0.0025756
0.00256646
0.00255701
0.00254724
0.00253716
0.00252675
0.00251601
0.00250496
0.00249357
0.00248185
0.00246979
0.0024574
0.00244466
0.00243158
0.00241815
0.00240436
0.00239022
0.00237571
0.00236085
0.00234561
0.00233
0.00231401
0.00229764
0.00228088
0.00226374
0.0022462
0.00222827
0.00220992
0.00219118
0.00217202
0.00215244
0.00213245
0.00211203
0.00209118
0.00206989
0.00204817
0.002026
0.00200338
0.0019803
0.00195675
0.00193272
0.0019082
0.00188317
0.00185762
0.00183154
0.00180494
0.00177782
0.00175023
0.00172222
0.00169387
0.00166525
0.00163642
0.00160744
0.00157836
0.00154921
0.00152004
0.00149086
0.00146171
0.00143258
0.0014035
0.00137445
0.00134542
0.00131636
0.00128716