/*--------------------------------*- C++ -*----------------------------------*\
  =========                 |
  \\      /  F ield         | OpenFOAM: The Open Source CFD Toolbox
   \\    /   O peration     | Website:  https://openfoam.org
    \\  /    A nd           | Version:  8
     \\/     M anipulation  |
\*---------------------------------------------------------------------------*/
FoamFile
{
    version     2.0;
    format      ascii;
    class       volScalarField;
    location    "1000";
    object      alphat;
}
// * * * * * * * * * * * * * * * * * * * * * * * * * * * * * * * * * * * * * //

dimensions      [1 -1 -1 0 0 0 0];

internalField   nonuniform List<scalar> 
48000
(
0.000160274
0.000237438
4.5316e-05
5.21015e-05
5.7403e-05
6.18361e-05
6.57386e-05
6.9286e-05
7.25524e-05
7.55848e-05
7.84338e-05
8.11311e-05
8.37007e-05
8.61609e-05
8.85258e-05
9.08065e-05
9.30116e-05
9.51479e-05
9.72211e-05
9.92357e-05
0.000101195
0.000103103
0.000104961
0.000106771
0.000108537
0.000110257
0.000111936
0.000113572
0.000115168
0.000116724
0.000118241
0.00011972
0.000121162
0.000122566
0.000123935
0.000125267
0.000126564
0.000127826
0.000129054
0.000130248
0.000131409
0.000132537
0.000133632
0.000134694
0.000135725
0.000136725
0.000137693
0.000138631
0.000139538
0.000140416
0.000141263
0.000142082
0.000142871
0.000143632
0.000144365
0.000145069
0.000145746
0.000146396
0.000147019
0.000147615
0.000148185
0.000148728
0.000149246
0.000149739
0.000150206
0.000150649
0.000151067
0.00015146
0.000151831
0.000152179
0.000152504
0.000152806
0.000153086
0.000153343
0.000153578
0.000153791
0.000153983
0.000154154
0.000154303
0.000154432
0.00015454
0.000154628
0.000154696
0.000154744
0.000154773
0.000154782
0.000154773
0.000154745
0.000154698
0.000154633
0.000154549
0.000154448
0.000154329
0.000154193
0.000154039
0.000153869
0.000153681
0.000153477
0.000153256
0.000153019
0.000152766
0.000152496
0.000152211
0.00015191
0.000151594
0.000151262
0.000150915
0.000150552
0.000150174
0.000149782
0.000149374
0.000148952
0.000148515
0.000148063
0.000147596
0.000147115
0.000146619
0.000146108
0.000145583
0.000145044
0.00014449
0.000143921
0.000143337
0.000142739
0.000142127
0.000141499
0.000140857
0.0001402
0.000139527
0.00013884
0.000138138
0.000137421
0.000136688
0.00013594
0.000135176
0.000134397
0.000133602
0.000132792
0.000131965
0.000131122
0.000130263
0.000129388
0.000128497
0.000127588
0.000126664
0.000125722
0.000124763
0.000123788
0.000122795
0.000121784
0.000120757
0.000119711
0.000118648
0.000117567
0.000116468
0.00011535
0.000114214
0.00011306
0.000111887
0.000110695
0.000109484
0.000108254
0.000107004
0.000105735
0.000104445
0.000103136
0.000101807
0.000100456
9.90853e-05
9.7693e-05
9.62791e-05
9.48433e-05
9.3385e-05
9.19037e-05
9.03988e-05
8.88697e-05
8.73155e-05
8.57353e-05
8.41279e-05
8.24919e-05
8.08258e-05
7.91275e-05
7.73948e-05
7.56248e-05
7.38146e-05
7.19628e-05
7.00656e-05
6.81405e-05
6.61508e-05
6.40731e-05
6.18913e-05
5.95767e-05
5.7094e-05
5.44146e-05
5.16468e-05
4.92043e-05
4.48374e-05
0.000227751
0.000186156
0.000130767
0.000160415
0.000237274
4.53014e-05
5.21421e-05
5.74144e-05
6.18395e-05
6.57404e-05
6.92875e-05
7.25538e-05
7.55861e-05
7.84349e-05
8.11321e-05
8.37016e-05
8.61618e-05
8.85266e-05
9.08073e-05
9.30123e-05
9.51487e-05
9.72219e-05
9.92364e-05
0.000101196
0.000103103
0.000104961
0.000106772
0.000108537
0.000110258
0.000111936
0.000113573
0.000115168
0.000116725
0.000118242
0.000119721
0.000121162
0.000122567
0.000123935
0.000125267
0.000126564
0.000127827
0.000129055
0.000130249
0.000131409
0.000132537
0.000133632
0.000134695
0.000135725
0.000136725
0.000137693
0.000138631
0.000139538
0.000140416
0.000141263
0.000142082
0.000142871
0.000143632
0.000144365
0.000145069
0.000145746
0.000146396
0.000147019
0.000147615
0.000148185
0.000148728
0.000149246
0.000149739
0.000150206
0.000150649
0.000151067
0.00015146
0.000151831
0.000152179
0.000152504
0.000152806
0.000153085
0.000153343
0.000153578
0.000153791
0.000153983
0.000154153
0.000154303
0.000154432
0.00015454
0.000154628
0.000154696
0.000154744
0.000154773
0.000154782
0.000154773
0.000154744
0.000154698
0.000154632
0.000154549
0.000154448
0.000154329
0.000154193
0.000154039
0.000153868
0.000153681
0.000153477
0.000153256
0.000153019
0.000152765
0.000152496
0.000152211
0.00015191
0.000151594
0.000151262
0.000150914
0.000150552
0.000150174
0.000149782
0.000149374
0.000148952
0.000148514
0.000148062
0.000147596
0.000147115
0.000146619
0.000146108
0.000145583
0.000145044
0.000144489
0.000143921
0.000143337
0.000142739
0.000142126
0.000141499
0.000140857
0.000140199
0.000139527
0.00013884
0.000138138
0.00013742
0.000136688
0.00013594
0.000135176
0.000134397
0.000133602
0.000132791
0.000131965
0.000131122
0.000130263
0.000129388
0.000128496
0.000127588
0.000126663
0.000125722
0.000124763
0.000123787
0.000122794
0.000121784
0.000120756
0.000119711
0.000118648
0.000117567
0.000116467
0.00011535
0.000114214
0.00011306
0.000111887
0.000110695
0.000109484
0.000108253
0.000107004
0.000105734
0.000104445
0.000103136
0.000101806
0.000100456
9.90851e-05
9.76928e-05
9.6279e-05
9.48431e-05
9.33848e-05
9.19035e-05
9.03987e-05
8.88696e-05
8.73154e-05
8.57352e-05
8.41278e-05
8.24919e-05
8.08257e-05
7.91275e-05
7.73947e-05
7.56247e-05
7.38146e-05
7.19627e-05
7.00656e-05
6.81405e-05
6.61508e-05
6.40731e-05
6.18913e-05
5.95765e-05
5.7093e-05
5.44105e-05
5.16338e-05
4.91804e-05
4.48569e-05
0.000227879
0.000186083
0.00013076
0.000174696
0.000286764
0.000330423
0.000463079
0.000544524
0.000605461
0.000656448
0.000700986
0.000740879
0.000777292
0.000810942
0.000842342
0.00087187
0.000899809
0.000926375
0.000951739
0.000976036
0.000999375
0.00102184
0.00104352
0.00106445
0.00108471
0.00110432
0.00112333
0.00114177
0.00115966
0.00117704
0.00119392
0.00121032
0.00122627
0.00124177
0.00125684
0.00127149
0.00128574
0.0012996
0.00131307
0.00132617
0.0013389
0.00135128
0.0013633
0.00137498
0.00138632
0.00139733
0.00140802
0.00141838
0.00142843
0.00143817
0.00144761
0.00145674
0.00146557
0.00147411
0.00148236
0.00149033
0.00149801
0.00150541
0.00151253
0.00151938
0.00152596
0.00153228
0.00153833
0.00154411
0.00154964
0.00155492
0.00155994
0.00156471
0.00156923
0.0015735
0.00157751
0.00158123
0.00158466
0.00158786
0.00159083
0.00159359
0.00159612
0.00159844
0.00160054
0.00160243
0.0016041
0.00160557
0.00160683
0.00160789
0.00160874
0.00160939
0.00160985
0.00161011
0.00161018
0.00161006
0.00160974
0.00160924
0.00160856
0.00160769
0.00160664
0.00160542
0.00160401
0.00160243
0.00160068
0.00159876
0.00159666
0.0015944
0.00159197
0.00158938
0.00158662
0.0015837
0.00158062
0.00157738
0.00157398
0.00157043
0.00156672
0.00156285
0.00155883
0.00155465
0.00155032
0.00154584
0.00154121
0.00153642
0.00153148
0.00152639
0.00152115
0.00151576
0.00151021
0.00150452
0.00149867
0.00149267
0.00148651
0.00148021
0.00147375
0.00146713
0.00146036
0.00145343
0.00144635
0.00143911
0.00143171
0.00142415
0.00141643
0.00140855
0.00140051
0.0013923
0.00138393
0.0013754
0.00136669
0.00135782
0.00134879
0.00133958
0.0013302
0.00132065
0.00131093
0.00130103
0.00129096
0.00128071
0.00127029
0.00125968
0.00124889
0.00123792
0.00122677
0.00121543
0.00120391
0.0011922
0.0011803
0.00116821
0.00115592
0.00114344
0.00113077
0.00111789
0.00110482
0.00109154
0.00107805
0.00106435
0.00105044
0.00103632
0.00102197
0.0010074
0.000992603
0.000977566
0.000962286
0.000946754
0.000930962
0.000914897
0.000898548
0.000881897
0.000864927
0.000847612
0.000829925
0.000811828
0.000793273
0.000774192
0.000754488
0.000734031
0.00071259
0.000690118
0.000666482
0.000641419
0.000614481
0.000584928
0.000551294
0.000509926
0.000454268
0.000363208
0.000359955
0.000280454
0.000151704
0.000174848
0.000286971
0.000330594
0.000462746
0.000544468
0.000605493
0.000656496
0.000701036
0.000740928
0.00077734
0.000810988
0.000842387
0.000871914
0.000899852
0.000926417
0.00095178
0.000976077
0.000999415
0.00102188
0.00104355
0.00106449
0.00108474
0.00110436
0.00112336
0.0011418
0.0011597
0.00117707
0.00119395
0.00121035
0.0012263
0.0012418
0.00125687
0.00127152
0.00128577
0.00129963
0.0013131
0.0013262
0.00133893
0.0013513
0.00136332
0.001375
0.00138635
0.00139736
0.00140804
0.00141841
0.00142846
0.0014382
0.00144763
0.00145676
0.00146559
0.00147413
0.00148238
0.00149035
0.00149803
0.00150543
0.00151255
0.0015194
0.00152598
0.0015323
0.00153834
0.00154413
0.00154966
0.00155494
0.00155996
0.00156473
0.00156925
0.00157352
0.00157753
0.00158124
0.00158467
0.00158787
0.00159085
0.0015936
0.00159614
0.00159845
0.00160055
0.00160244
0.00160412
0.00160558
0.00160684
0.0016079
0.00160875
0.00160941
0.00160986
0.00161013
0.00161019
0.00161007
0.00160976
0.00160926
0.00160857
0.00160771
0.00160666
0.00160543
0.00160403
0.00160245
0.00160069
0.00159877
0.00159668
0.00159441
0.00159198
0.00158939
0.00158663
0.00158371
0.00158063
0.00157739
0.001574
0.00157044
0.00156673
0.00156286
0.00155884
0.00155466
0.00155033
0.00154585
0.00154122
0.00153643
0.00153149
0.0015264
0.00152116
0.00151577
0.00151022
0.00150453
0.00149868
0.00149268
0.00148652
0.00148022
0.00147376
0.00146714
0.00146037
0.00145344
0.00144636
0.00143912
0.00143172
0.00142416
0.00141644
0.00140856
0.00140051
0.00139231
0.00138394
0.0013754
0.0013667
0.00135783
0.0013488
0.00133959
0.00133021
0.00132066
0.00131094
0.00130104
0.00129097
0.00128072
0.00127029
0.00125969
0.0012489
0.00123793
0.00122678
0.00121544
0.00120392
0.00119221
0.00118031
0.00116821
0.00115593
0.00114345
0.00113077
0.0011179
0.00110482
0.00109154
0.00107806
0.00106436
0.00105045
0.00103633
0.00102198
0.00100741
0.000992611
0.000977574
0.000962294
0.000946762
0.00093097
0.000914906
0.000898556
0.000881906
0.000864935
0.000847621
0.000829934
0.000811837
0.000793282
0.000774201
0.000754497
0.00073404
0.000712599
0.000690127
0.00066649
0.000641427
0.000614489
0.000584935
0.000551308
0.000510005
0.000454551
0.000362893
0.000359093
0.000280354
0.000151701
0.000221241
0.000391048
0.000631405
0.000852392
0.00102826
0.00117161
0.00129323
0.00139946
0.00149422
0.00158008
0.00165884
0.00173176
0.0017998
0.00186368
0.00192395
0.00198106
0.00203536
0.00208715
0.00213666
0.00218409
0.00222962
0.00227338
0.00231551
0.0023561
0.00239526
0.00243307
0.0024696
0.00250492
0.0025391
0.00257217
0.00260421
0.00263524
0.00266531
0.00269446
0.00272273
0.00275013
0.00277672
0.0028025
0.00282752
0.00285178
0.00287531
0.00289813
0.00292025
0.0029417
0.00296249
0.00298263
0.00300214
0.00302102
0.00303929
0.00305696
0.00307404
0.00309054
0.00310647
0.00312183
0.00313663
0.00315088
0.00316459
0.00317776
0.00319039
0.00320251
0.0032141
0.00322519
0.00323576
0.00324583
0.0032554
0.00326447
0.00327305
0.00328113
0.00328868
0.00329571
0.00330222
0.00330827
0.00331388
0.00331905
0.00332377
0.00332807
0.00333193
0.00333537
0.00333838
0.00334099
0.00334318
0.00334496
0.00334634
0.00334732
0.00334791
0.0033481
0.00334791
0.00334734
0.00334639
0.00334507
0.00334338
0.00334132
0.0033389
0.00333613
0.003333
0.00332951
0.00332569
0.00332151
0.003317
0.00331215
0.00330697
0.00330145
0.00329561
0.00328944
0.00328294
0.00327613
0.003269
0.00326154
0.00325378
0.00324569
0.0032373
0.00322859
0.00321958
0.00321025
0.00320062
0.00319067
0.00318042
0.00316985
0.00315898
0.0031478
0.00313631
0.00312451
0.0031124
0.00309998
0.00308725
0.0030742
0.00306083
0.00304715
0.00303315
0.00301884
0.0030042
0.00298923
0.00297395
0.00295833
0.00294239
0.00292612
0.00290951
0.00289257
0.00287529
0.00285767
0.00283971
0.00282141
0.00280276
0.00278376
0.00276441
0.0027447
0.00272464
0.00270421
0.00268343
0.00266227
0.00264075
0.00261885
0.00259658
0.00257393
0.00255089
0.00252746
0.00250364
0.00247942
0.0024548
0.00242976
0.00240431
0.00237844
0.00235214
0.00232541
0.00229822
0.00227058
0.00224247
0.00221388
0.0021848
0.00215521
0.0021251
0.00209443
0.0020632
0.00203138
0.00199894
0.00196583
0.00193203
0.00189749
0.00186214
0.00182593
0.00178877
0.00175057
0.00171121
0.00167053
0.00162834
0.00158439
0.00153836
0.00148984
0.00143838
0.00138339
0.00132391
0.00125859
0.00118543
0.00110138
0.001002
0.000882085
0.000732091
0.000578341
0.000395194
0.000202906
0.000221512
0.000391137
0.000631649
0.000852344
0.00102828
0.0011717
0.00129334
0.00139957
0.00149432
0.00158019
0.00165894
0.00173186
0.0017999
0.00186377
0.00192404
0.00198114
0.00203544
0.00208723
0.00213673
0.00218417
0.00222969
0.00227345
0.00231557
0.00235617
0.00239532
0.00243313
0.00246966
0.00250498
0.00253915
0.00257222
0.00260425
0.00263528
0.00266535
0.0026945
0.00272276
0.00275017
0.00277676
0.00280254
0.00282755
0.00285181
0.00287534
0.00289815
0.00292028
0.00294173
0.00296251
0.00298265
0.00300216
0.00302104
0.00303931
0.00305698
0.00307406
0.00309056
0.00310648
0.00312184
0.00313664
0.00315089
0.0031646
0.00317777
0.0031904
0.00320252
0.00321411
0.00322519
0.00323577
0.00324584
0.00325541
0.00326448
0.00327306
0.00328113
0.00328869
0.00329571
0.00330222
0.00330828
0.00331388
0.00331905
0.00332377
0.00332807
0.00333193
0.00333537
0.00333838
0.00334098
0.00334317
0.00334496
0.00334634
0.00334732
0.0033479
0.0033481
0.00334791
0.00334734
0.00334639
0.00334507
0.00334337
0.00334132
0.0033389
0.00333612
0.00333299
0.00332951
0.00332568
0.00332151
0.00331699
0.00331214
0.00330696
0.00330145
0.0032956
0.00328943
0.00328294
0.00327612
0.00326899
0.00326154
0.00325377
0.00324569
0.00323729
0.00322859
0.00321957
0.00321024
0.00320061
0.00319066
0.00318041
0.00316985
0.00315897
0.00314779
0.0031363
0.00312451
0.00311239
0.00309997
0.00308724
0.00307419
0.00306082
0.00304714
0.00303314
0.00301883
0.00300419
0.00298922
0.00297394
0.00295832
0.00294238
0.0029261
0.0029095
0.00289256
0.00287528
0.00285766
0.0028397
0.0028214
0.00280275
0.00278375
0.0027644
0.00274469
0.00272463
0.0027042
0.00268341
0.00266226
0.00264074
0.00261884
0.00259657
0.00257391
0.00255087
0.00252745
0.00250363
0.00247941
0.00245478
0.00242975
0.0024043
0.00237843
0.00235213
0.00232539
0.00229821
0.00227057
0.00224246
0.00221387
0.00218479
0.0021552
0.00212508
0.00209442
0.00206319
0.00203137
0.00199893
0.00196582
0.00193202
0.00189748
0.00186213
0.00182592
0.00178876
0.00175056
0.0017112
0.00167052
0.00162834
0.00158439
0.00153836
0.00148983
0.00143838
0.00138338
0.00132391
0.00125859
0.00118542
0.00110136
0.00100191
0.000881881
0.000731044
0.000577326
0.000394418
0.00020292
3.17818e-05
0.000387277
0.000802807
0.00113538
0.00140287
0.00162563
0.00181695
0.0019851
0.00213546
0.00227175
0.00239663
0.00251205
0.00261948
0.00272008
0.00281472
0.00290413
0.00298889
0.00306946
0.00314625
0.00321958
0.00328974
0.00335698
0.00342149
0.00348348
0.00354309
0.00360048
0.00365577
0.00370908
0.00376052
0.00381018
0.00385815
0.00390451
0.00394934
0.0039927
0.00403465
0.00407526
0.00411457
0.00415264
0.0041895
0.00422521
0.00425979
0.00429329
0.00432573
0.00435714
0.00438756
0.004417
0.00444549
0.00447306
0.00449971
0.00452548
0.00455037
0.0045744
0.00459759
0.00461995
0.00464149
0.00466223
0.00468217
0.00470133
0.00471972
0.00473734
0.00475421
0.00477033
0.00478571
0.00480036
0.00481429
0.00482749
0.00483998
0.00485175
0.0048628
0.00487313
0.00488273
0.00489163
0.00489987
0.00490747
0.00491443
0.00492076
0.00492646
0.00493155
0.00493602
0.00493989
0.00494316
0.00494584
0.00494793
0.00494944
0.00495038
0.00495076
0.00495057
0.00494983
0.00494853
0.0049467
0.00494433
0.00494143
0.004938
0.00493406
0.0049296
0.00492463
0.00491916
0.00491319
0.00490672
0.00489976
0.00489232
0.0048844
0.00487601
0.00486713
0.00485779
0.00484799
0.00483771
0.00482698
0.00481579
0.00480415
0.00479204
0.00477949
0.00476649
0.00475303
0.00473913
0.00472477
0.00470997
0.00469472
0.00467902
0.00466288
0.00464628
0.00462923
0.00461173
0.00459378
0.00457537
0.00455651
0.00453718
0.0045174
0.00449716
0.00447645
0.00445527
0.00443362
0.00441151
0.00438891
0.00436584
0.00434228
0.00431825
0.00429372
0.0042687
0.00424319
0.00421718
0.00419066
0.00416364
0.0041361
0.00410806
0.00407949
0.00405039
0.00402077
0.00399061
0.00395991
0.00392867
0.00389687
0.00386451
0.00383159
0.00379809
0.00376401
0.00372933
0.00369406
0.00365818
0.00362167
0.00358453
0.00354674
0.00350828
0.00346915
0.00342932
0.00338877
0.00334748
0.00330543
0.00326258
0.00321891
0.00317438
0.00312895
0.00308258
0.00303521
0.00298678
0.00293723
0.00288647
0.00283442
0.00278096
0.00272597
0.00266929
0.00261074
0.00255009
0.00248706
0.0024213
0.00235238
0.00227975
0.00220272
0.00212042
0.0020317
0.00193498
0.00182806
0.00170786
0.0015701
0.0014091
0.00121861
0.000993359
0.000740453
0.000476275
0.000254959
3.17791e-05
0.000387497
0.000803046
0.0011354
0.00140292
0.00162575
0.0018171
0.00198525
0.00213561
0.0022719
0.00239678
0.00251219
0.00261963
0.00272022
0.00281486
0.00290426
0.00298901
0.00306958
0.00314636
0.00321969
0.00328985
0.00335708
0.00342159
0.00348357
0.00354318
0.00360056
0.00365585
0.00370915
0.00376059
0.00381025
0.00385821
0.00390457
0.0039494
0.00399275
0.00403471
0.00407531
0.00411462
0.00415268
0.00418954
0.00422525
0.00425983
0.00429332
0.00432576
0.00435717
0.00438758
0.00441702
0.00444552
0.00447308
0.00449973
0.00452549
0.00455038
0.00457441
0.0045976
0.00461996
0.0046415
0.00466224
0.00468218
0.00470133
0.00471972
0.00473734
0.00475421
0.00477032
0.00478571
0.00480036
0.00481428
0.00482749
0.00483998
0.00485175
0.0048628
0.00487312
0.00488272
0.00489162
0.00489986
0.00490746
0.00491442
0.00492075
0.00492645
0.00493154
0.00493601
0.00493988
0.00494315
0.00494582
0.00494792
0.00494943
0.00495037
0.00495074
0.00495055
0.00494981
0.00494852
0.00494668
0.00494431
0.00494141
0.00493798
0.00493404
0.00492958
0.00492461
0.00491914
0.00491316
0.0049067
0.00489974
0.0048923
0.00488438
0.00487598
0.00486711
0.00485777
0.00484796
0.00483769
0.00482696
0.00481577
0.00480412
0.00479202
0.00477947
0.00476646
0.00475301
0.0047391
0.00472475
0.00470995
0.0046947
0.004679
0.00466285
0.00464625
0.0046292
0.0046117
0.00459375
0.00457534
0.00455648
0.00453715
0.00451737
0.00449713
0.00447642
0.00445524
0.0044336
0.00441148
0.00438888
0.00436581
0.00434226
0.00431822
0.00429369
0.00426867
0.00424316
0.00421714
0.00419063
0.00416361
0.00413607
0.00410803
0.00407946
0.00405036
0.00402074
0.00399058
0.00395988
0.00392864
0.00389684
0.00386448
0.00383156
0.00379806
0.00376398
0.0037293
0.00369403
0.00365815
0.00362164
0.0035845
0.00354671
0.00350825
0.00346912
0.00342929
0.00338874
0.00334745
0.0033054
0.00326255
0.00321888
0.00317435
0.00312893
0.00308255
0.00303518
0.00298675
0.0029372
0.00288645
0.00283439
0.00278094
0.00272595
0.00266927
0.00261071
0.00255006
0.00248703
0.00242128
0.00235236
0.00227973
0.0022027
0.0021204
0.00203168
0.00193496
0.00182804
0.00170785
0.00157008
0.001409
0.00121822
0.000992086
0.00073832
0.000475115
0.000255127
4.73469e-05
0.000475575
0.000952862
0.00135816
0.00169865
0.00198963
0.00224313
0.00246773
0.00266953
0.00285295
0.00302124
0.00317689
0.00332178
0.00345741
0.00358494
0.00370533
0.00381934
0.00392762
0.0040307
0.00412902
0.00422298
0.00431289
0.00439905
0.00448171
0.0045611
0.00463741
0.00471082
0.0047815
0.0048496
0.00491524
0.00497855
0.00503965
0.00509864
0.00515562
0.00521067
0.00526388
0.00531533
0.00536508
0.0054132
0.00545975
0.00550478
0.00554835
0.0055905
0.00563128
0.00567073
0.00570888
0.00574578
0.00578144
0.0058159
0.00584918
0.00588132
0.00591233
0.00594224
0.00597106
0.00599882
0.00602553
0.00605121
0.00607587
0.00609953
0.0061222
0.00614389
0.00616462
0.0061844
0.00620323
0.00622113
0.00623811
0.00625417
0.00626932
0.00628355
0.00629688
0.0063093
0.00632083
0.00633149
0.00634132
0.00635033
0.00635853
0.00636592
0.00637253
0.00637835
0.00638339
0.00638766
0.00639118
0.00639395
0.00639597
0.00639726
0.00639783
0.00639768
0.00639682
0.00639526
0.006393
0.00639006
0.00638644
0.00638216
0.0063772
0.0063716
0.00636534
0.00635844
0.00635091
0.00634274
0.00633395
0.00632454
0.00631452
0.00630389
0.00629266
0.00628083
0.00626841
0.0062554
0.0062418
0.00622761
0.00621284
0.0061975
0.00618158
0.00616508
0.00614802
0.00613038
0.00611216
0.00609338
0.00607403
0.00605411
0.00603361
0.00601254
0.0059909
0.00596868
0.00594589
0.00592252
0.00589856
0.00587403
0.0058489
0.00582319
0.00579689
0.00576999
0.00574249
0.00571439
0.00568569
0.00565637
0.00562644
0.00559589
0.00556472
0.00553291
0.00550048
0.0054674
0.00543369
0.00539932
0.00536429
0.0053286
0.00529225
0.00525521
0.00521749
0.00517908
0.00513997
0.00510015
0.00505961
0.00501835
0.00497634
0.00493358
0.00489005
0.00484574
0.00480064
0.00475473
0.004708
0.00466041
0.00461195
0.0045626
0.00451233
0.00446111
0.00440891
0.0043557
0.00430142
0.00424605
0.00418953
0.0041318
0.0040728
0.00401247
0.00395071
0.00388743
0.00382254
0.0037559
0.00368738
0.0036168
0.00354397
0.00346866
0.00339058
0.00330941
0.00322472
0.00313602
0.00304266
0.00294388
0.00283868
0.00272583
0.00260369
0.00247014
0.00232232
0.00215643
0.00196738
0.00174857
0.00149247
0.00119365
0.000859851
0.000526202
0.00032226
4.73002e-05
0.000475624
0.000952857
0.00135815
0.00169874
0.00198978
0.00224331
0.00246793
0.00266973
0.00285314
0.00302143
0.00317708
0.00332197
0.00345759
0.00358511
0.0037055
0.00381951
0.00392778
0.00403085
0.00412917
0.00422312
0.00431302
0.00439918
0.00448184
0.00456122
0.00463752
0.00471093
0.00478161
0.0048497
0.00491533
0.00497864
0.00503974
0.00509872
0.0051557
0.00521074
0.00526395
0.00531539
0.00536514
0.00541325
0.0054598
0.00550483
0.00554839
0.00559054
0.00563132
0.00567077
0.00570892
0.00574581
0.00578146
0.00581592
0.00584921
0.00588134
0.00591235
0.00594226
0.00597108
0.00599883
0.00602554
0.00605122
0.00607587
0.00609953
0.0061222
0.00614389
0.00616462
0.00618439
0.00620323
0.00622113
0.00623811
0.00625416
0.00626931
0.00628354
0.00629687
0.00630929
0.00632082
0.00633147
0.0063413
0.00635031
0.00635851
0.00636591
0.00637251
0.00637833
0.00638337
0.00638764
0.00639116
0.00639392
0.00639595
0.00639724
0.0063978
0.00639765
0.00639679
0.00639523
0.00639298
0.00639004
0.00638642
0.00638213
0.00637718
0.00637157
0.00636531
0.00635841
0.00635088
0.00634271
0.00633392
0.00632451
0.00631449
0.00630386
0.00629263
0.0062808
0.00626838
0.00625536
0.00624176
0.00622758
0.00621281
0.00619747
0.00618155
0.00616505
0.00614798
0.00613034
0.00611213
0.00609335
0.006074
0.00605407
0.00603358
0.00601251
0.00599086
0.00596865
0.00594585
0.00592248
0.00589853
0.00587399
0.00584887
0.00582316
0.00579685
0.00576995
0.00574246
0.00571436
0.00568565
0.00565633
0.0056264
0.00559585
0.00556468
0.00553288
0.00550044
0.00546737
0.00543365
0.00539928
0.00536425
0.00532856
0.00529221
0.00525517
0.00521745
0.00517904
0.00513993
0.00510011
0.00505957
0.00501831
0.0049763
0.00493354
0.00489001
0.0048457
0.00480061
0.00475469
0.00470796
0.00466037
0.00461191
0.00456256
0.00451229
0.00446107
0.00440887
0.00435566
0.00430139
0.00424601
0.00418949
0.00413177
0.00407277
0.00401243
0.00395067
0.0038874
0.0038225
0.00375587
0.00368734
0.00361676
0.00354394
0.00346863
0.00339055
0.00330938
0.00322469
0.00313599
0.00304263
0.00294385
0.00283866
0.0027258
0.00260367
0.00247012
0.0023223
0.00215642
0.00196736
0.00174848
0.00149205
0.00119224
0.000857117
0.00052576
0.000322311
5.28711e-05
0.000529624
0.00106761
0.00153574
0.00193799
0.00228734
0.00259498
0.00286948
0.00311728
0.00334325
0.00355105
0.00374355
0.00392296
0.00409102
0.00424914
0.00439846
0.0045399
0.00467424
0.00480213
0.0049241
0.00504063
0.00515212
0.00525892
0.00536134
0.00545966
0.00555411
0.00564493
0.0057323
0.00581642
0.00589745
0.00597554
0.00605084
0.00612347
0.00619356
0.00626123
0.00632657
0.00638968
0.00645066
0.00650959
0.00656654
0.00662158
0.00667479
0.00672623
0.00677594
0.006824
0.00687044
0.0069153
0.00695864
0.00700049
0.00704089
0.00707987
0.00711746
0.00715369
0.00718859
0.00722218
0.00725449
0.00728554
0.00731534
0.00734392
0.0073713
0.00739748
0.0074225
0.00744636
0.00746908
0.00749067
0.00751115
0.00753052
0.00754879
0.00756597
0.00758207
0.0075971
0.00761106
0.00762397
0.00763587
0.00764678
0.00765672
0.00766568
0.0076737
0.00768077
0.00768691
0.00769213
0.00769643
0.00769984
0.00770236
0.007704
0.00770477
0.00770468
0.00770374
0.00770196
0.00769936
0.00769593
0.0076917
0.00768667
0.00768084
0.00767423
0.00766684
0.00765869
0.00764978
0.00764012
0.00762972
0.00761858
0.00760671
0.00759411
0.0075808
0.00756677
0.00755204
0.00753661
0.00752047
0.00750364
0.00748612
0.00746792
0.00744903
0.00742945
0.00740919
0.00738826
0.00736664
0.00734435
0.00732137
0.00729772
0.00727339
0.00724838
0.00722269
0.00719631
0.00716925
0.0071415
0.00711306
0.00708393
0.0070541
0.00702357
0.00699234
0.0069604
0.00692774
0.00689437
0.00686028
0.00682545
0.0067899
0.00675361
0.00671657
0.00667878
0.00664024
0.00660093
0.00656085
0.00651999
0.00647834
0.00643589
0.00639264
0.00634858
0.00630369
0.00625796
0.00621138
0.00616395
0.00611564
0.00606644
0.00601634
0.00596532
0.00591336
0.00586044
0.00580654
0.00575164
0.00569571
0.00563873
0.00558066
0.00552147
0.00546112
0.00539958
0.0053368
0.00527273
0.00520731
0.00514048
0.00507217
0.00500231
0.00493081
0.00485757
0.00478248
0.00470541
0.00462622
0.00454473
0.00446077
0.00437409
0.00428445
0.00419152
0.00409493
0.00399424
0.00388891
0.00377828
0.00366153
0.00353768
0.00340547
0.00326333
0.00310926
0.00294069
0.00275432
0.00254585
0.00230975
0.00203903
0.00172564
0.00136376
0.000962419
0.000570459
0.00036762
5.28611e-05
0.000529629
0.00106762
0.0015358
0.00193812
0.00228752
0.00259518
0.0028697
0.00311751
0.00334347
0.00355128
0.00374377
0.00392317
0.00409123
0.00424934
0.00439866
0.00454009
0.00467443
0.00480231
0.00492428
0.0050408
0.00515228
0.00525908
0.00536149
0.0054598
0.00555425
0.00564506
0.00573243
0.00581654
0.00589756
0.00597565
0.00605094
0.00612357
0.00619366
0.00626132
0.00632665
0.00638976
0.00645074
0.00650966
0.0065666
0.00662164
0.00667485
0.00672628
0.00677599
0.00682404
0.00687048
0.00691534
0.00695868
0.00700053
0.00704092
0.0070799
0.00711749
0.00715372
0.00718861
0.0072222
0.00725451
0.00728555
0.00731535
0.00734393
0.0073713
0.00739749
0.0074225
0.00744636
0.00746908
0.00749067
0.00751114
0.00753051
0.00754878
0.00756596
0.00758206
0.00759708
0.00761105
0.00762396
0.00763586
0.00764677
0.0076567
0.00766567
0.00767368
0.00768075
0.00768689
0.00769211
0.00769641
0.00769982
0.00770233
0.00770397
0.00770474
0.00770465
0.00770371
0.00770194
0.00769933
0.00769591
0.00769167
0.00768664
0.00768081
0.0076742
0.00766682
0.00765866
0.00764975
0.00764009
0.00762969
0.00761855
0.00760667
0.00759408
0.00758077
0.00756674
0.00755201
0.00753657
0.00752044
0.00750361
0.00748609
0.00746788
0.00744899
0.00742941
0.00740916
0.00738822
0.0073666
0.00734431
0.00732134
0.00729769
0.00727336
0.00724834
0.00722265
0.00719628
0.00716921
0.00714147
0.00711303
0.00708389
0.00705406
0.00702353
0.0069923
0.00696036
0.0069277
0.00689433
0.00686024
0.00682542
0.00678986
0.00675357
0.00671653
0.00667874
0.0066402
0.00660089
0.00656081
0.00651995
0.0064783
0.00643585
0.0063926
0.00634854
0.00630365
0.00625792
0.00621134
0.00616391
0.0061156
0.0060664
0.0060163
0.00596527
0.00591331
0.0058604
0.0058065
0.0057516
0.00569567
0.00563869
0.00558062
0.00552143
0.00546108
0.00539954
0.00533676
0.00527269
0.00520727
0.00514044
0.00507213
0.00500227
0.00493077
0.00485753
0.00478244
0.00470537
0.00462618
0.0045447
0.00446073
0.00437406
0.00428441
0.00419148
0.00409489
0.00399421
0.00388887
0.00377824
0.0036615
0.00353765
0.00340544
0.0032633
0.00310923
0.00294067
0.0027543
0.00254584
0.00230975
0.00203899
0.00172539
0.00136282
0.000960523
0.000571414
0.000367761
5.63883e-05
0.000568947
0.00115917
0.00168169
0.00213692
0.00253644
0.00289099
0.00320913
0.00349754
0.00376135
0.00400456
0.00423028
0.00444096
0.00463857
0.00482469
0.00500061
0.00516738
0.00532588
0.00547685
0.00562091
0.0057586
0.00589038
0.00601664
0.00613775
0.00625401
0.00636572
0.00647311
0.00657642
0.00667587
0.00677164
0.00686391
0.00695284
0.0070386
0.00712132
0.00720113
0.00727815
0.00735251
0.00742431
0.00749365
0.00756062
0.00762531
0.00768779
0.00774816
0.00780647
0.00786279
0.00791717
0.00796969
0.00802039
0.00806931
0.0081165
0.00816202
0.00820588
0.00824813
0.00828881
0.00832795
0.00836557
0.0084017
0.00843637
0.00846961
0.00850144
0.00853187
0.00856093
0.00858864
0.00861502
0.00864009
0.00866385
0.00868633
0.00870753
0.00872748
0.00874618
0.00876365
0.00877989
0.00879493
0.00880878
0.00882148
0.00883304
0.0088435
0.00885284
0.0088611
0.00886828
0.00887439
0.00887946
0.00888348
0.00888649
0.00888847
0.00888946
0.00888946
0.00888849
0.00888655
0.00888366
0.00887983
0.00887507
0.00886938
0.0088628
0.00885531
0.00884693
0.00883768
0.00882756
0.00881657
0.00880474
0.00879206
0.00877855
0.00876421
0.00874905
0.00873308
0.0087163
0.00869871
0.00868033
0.00866115
0.00864119
0.00862044
0.0085989
0.00857659
0.0085535
0.00852964
0.008505
0.00847959
0.0084534
0.00842644
0.00839871
0.0083702
0.00834091
0.00831084
0.00827999
0.00824836
0.00821594
0.00818273
0.00814873
0.00811392
0.00807832
0.0080419
0.00800467
0.00796662
0.00792775
0.00788804
0.0078475
0.0078061
0.00776386
0.00772076
0.00767678
0.00763193
0.00758619
0.00753955
0.00749201
0.00744355
0.00739415
0.00734381
0.00729252
0.00724026
0.00718701
0.00713276
0.00707749
0.00702118
0.00696381
0.00690537
0.00684582
0.00678514
0.00672331
0.00666028
0.00659604
0.00653054
0.00646375
0.00639561
0.00632609
0.00625513
0.00618268
0.00610866
0.00603301
0.00595565
0.00587648
0.00579542
0.00571236
0.00562715
0.00553968
0.00544976
0.00535723
0.00526188
0.00516345
0.00506168
0.00495623
0.00484671
0.00473267
0.00461356
0.00448873
0.00435737
0.00421851
0.00407097
0.00391325
0.00374353
0.00355949
0.00335827
0.00313619
0.00288868
0.00261
0.00229304
0.00192946
0.00151082
0.00103397
0.000513613
5.02105e-05
5.63881e-05
0.000568978
0.00115924
0.00168181
0.00213709
0.00253664
0.00289121
0.00320937
0.00349778
0.0037616
0.0040048
0.00423052
0.0044412
0.0046388
0.00482492
0.00500083
0.0051676
0.00532609
0.00547706
0.00562111
0.00575879
0.00589056
0.00601682
0.00613792
0.00625418
0.00636587
0.00647326
0.00657657
0.00667601
0.00677177
0.00686403
0.00695296
0.00703871
0.00712143
0.00720123
0.00727825
0.00735261
0.0074244
0.00749373