/*--------------------------------*- C++ -*----------------------------------*\
  =========                 |
  \\      /  F ield         | OpenFOAM: The Open Source CFD Toolbox
   \\    /   O peration     | Website:  https://openfoam.org
    \\  /    A nd           | Version:  8
     \\/     M anipulation  |
\*---------------------------------------------------------------------------*/
FoamFile
{
    version     2.0;
    format      ascii;
    class       volScalarField;
    location    "1000";
    object      nut;
}
// * * * * * * * * * * * * * * * * * * * * * * * * * * * * * * * * * * * * * //

dimensions      [0 2 -1 0 0 0 0];

internalField   nonuniform List<scalar> 
48000
(
0.000159391
0.00023613
4.50663e-05
5.18145e-05
5.70867e-05
6.14954e-05
6.53764e-05
6.89043e-05
7.21527e-05
7.51684e-05
7.80016e-05
8.06841e-05
8.32395e-05
8.56861e-05
8.8038e-05
9.03061e-05
9.2499e-05
9.46236e-05
9.66853e-05
9.86888e-05
0.000100637
0.000102534
0.000104382
0.000106183
0.000107938
0.00010965
0.000111319
0.000112946
0.000114533
0.000116081
0.000117589
0.00011906
0.000120494
0.000121891
0.000123251
0.000124576
0.000125866
0.000127121
0.000128343
0.00012953
0.000130684
0.000131806
0.000132894
0.000133951
0.000134977
0.00013597
0.000136934
0.000137866
0.000138768
0.000139641
0.000140484
0.000141298
0.000142083
0.000142839
0.000143568
0.000144269
0.000144942
0.000145588
0.000146207
0.0001468
0.000147367
0.000147908
0.000148423
0.000148913
0.000149378
0.000149818
0.000150233
0.000150624
0.000150993
0.000151339
0.000151662
0.000151963
0.000152241
0.000152497
0.00015273
0.000152943
0.000153133
0.000153303
0.000153451
0.000153579
0.000153687
0.000153775
0.000153842
0.00015389
0.000153919
0.000153928
0.000153919
0.000153891
0.000153844
0.000153779
0.000153696
0.000153596
0.000153478
0.000153342
0.000153189
0.000153019
0.000152833
0.00015263
0.00015241
0.000152175
0.000151923
0.000151655
0.000151371
0.000151072
0.000150757
0.000150427
0.000150082
0.000149721
0.000149346
0.000148955
0.00014855
0.00014813
0.000147695
0.000147246
0.000146781
0.000146303
0.00014581
0.000145302
0.00014478
0.000144243
0.000143692
0.000143127
0.000142546
0.000141952
0.000141342
0.000140718
0.000140079
0.000139426
0.000138757
0.000138074
0.000137376
0.000136662
0.000135934
0.00013519
0.00013443
0.000133655
0.000132865
0.000132059
0.000131237
0.000130399
0.000129544
0.000128674
0.000127787
0.000126884
0.000125965
0.000125028
0.000124075
0.000123104
0.000122117
0.000121112
0.00012009
0.00011905
0.000117993
0.000116918
0.000115825
0.000114714
0.000113584
0.000112436
0.000111269
0.000110084
0.00010888
0.000107656
0.000106413
0.000105151
0.000103869
0.000102567
0.000101245
9.9902e-05
9.85385e-05
9.71538e-05
9.57478e-05
9.43198e-05
9.28696e-05
9.13965e-05
8.98999e-05
8.83793e-05
8.68337e-05
8.52621e-05
8.36636e-05
8.20367e-05
8.03797e-05
7.86908e-05
7.69677e-05
7.52074e-05
7.34073e-05
7.15656e-05
6.9679e-05
6.77644e-05
6.57857e-05
6.37195e-05
6.15498e-05
5.92479e-05
5.67789e-05
5.41143e-05
5.13618e-05
4.89328e-05
4.459e-05
0.000226494
0.000185129
0.000130045
0.000159531
0.000235967
4.50518e-05
5.18549e-05
5.70981e-05
6.14988e-05
6.53782e-05
6.89058e-05
7.2154e-05
7.51696e-05
7.80028e-05
8.06851e-05
8.32404e-05
8.5687e-05
8.80388e-05
9.03069e-05
9.24997e-05
9.46243e-05
9.66861e-05
9.86895e-05
0.000100638
0.000102535
0.000104383
0.000106184
0.000107939
0.00010965
0.000111319
0.000112946
0.000114534
0.000116081
0.00011759
0.000119061
0.000120494
0.000121891
0.000123251
0.000124576
0.000125866
0.000127122
0.000128343
0.00012953
0.000130684
0.000131806
0.000132895
0.000133951
0.000134977
0.000135971
0.000136934
0.000137866
0.000138768
0.000139641
0.000140484
0.000141298
0.000142083
0.000142839
0.000143568
0.000144269
0.000144942
0.000145588
0.000146207
0.0001468
0.000147367
0.000147908
0.000148423
0.000148913
0.000149378
0.000149818
0.000150233
0.000150624
0.000150993
0.000151339
0.000151662
0.000151963
0.000152241
0.000152496
0.00015273
0.000152942
0.000153133
0.000153303
0.000153451
0.000153579
0.000153687
0.000153774
0.000153842
0.00015389
0.000153919
0.000153928
0.000153919
0.00015389
0.000153844
0.000153779
0.000153696
0.000153596
0.000153477
0.000153342
0.000153189
0.000153019
0.000152833
0.00015263
0.00015241
0.000152174
0.000151922
0.000151655
0.000151371
0.000151072
0.000150757
0.000150427
0.000150081
0.000149721
0.000149345
0.000148955
0.00014855
0.00014813
0.000147695
0.000147245
0.000146781
0.000146303
0.00014581
0.000145302
0.00014478
0.000144243
0.000143692
0.000143126
0.000142546
0.000141951
0.000141342
0.000140718
0.000140079
0.000139426
0.000138757
0.000138074
0.000137376
0.000136662
0.000135933
0.000135189
0.00013443
0.000133655
0.000132865
0.000132058
0.000131236
0.000130398
0.000129544
0.000128674
0.000127787
0.000126884
0.000125964
0.000125028
0.000124074
0.000123104
0.000122117
0.000121112
0.00012009
0.00011905
0.000117993
0.000116918
0.000115825
0.000114713
0.000113584
0.000112436
0.000111269
0.000110084
0.000108879
0.000107656
0.000106413
0.000105151
0.000103869
0.000102567
0.000101245
9.99018e-05
9.85383e-05
9.71537e-05
9.57476e-05
9.43197e-05
9.28694e-05
9.13963e-05
8.98998e-05
8.83792e-05
8.68336e-05
8.52621e-05
8.36635e-05
8.20366e-05
8.03797e-05
7.86908e-05
7.69676e-05
7.52074e-05
7.34072e-05
7.15656e-05
6.96789e-05
6.77644e-05
6.57857e-05
6.37195e-05
6.15497e-05
5.92477e-05
5.6778e-05
5.41102e-05
5.13488e-05
4.8909e-05
4.46093e-05
0.000226621
0.000185056
0.000130038
0.000173733
0.000285184
0.000328602
0.000460527
0.000541524
0.000602125
0.000652831
0.000697124
0.000736797
0.00077301
0.000806473
0.000837701
0.000867066
0.00089485
0.00092127
0.000946494
0.000970657
0.000993867
0.00101621
0.00103777
0.00105859
0.00107873
0.00109823
0.00111714
0.00113547
0.00115327
0.00117055
0.00118734
0.00120365
0.00121951
0.00123492
0.00124991
0.00126448
0.00127865
0.00129243
0.00130583
0.00131885
0.00133152
0.00134382
0.00135578
0.00136739
0.00137867
0.00138962
0.00140025
0.00141056
0.00142055
0.00143024
0.00143962
0.0014487
0.00145749
0.00146598
0.00147418
0.0014821
0.00148974
0.0014971
0.00150418
0.001511
0.00151754
0.00152382
0.00152984
0.00153559
0.00154109
0.00154634
0.00155133
0.00155608
0.00156057
0.00156482
0.00156881
0.0015725
0.00157591
0.00157909
0.00158206
0.00158479
0.00158731
0.00158962
0.00159171
0.00159358
0.00159525
0.00159671
0.00159796
0.00159901
0.00159986
0.00160051
0.00160097
0.00160123
0.00160129
0.00160117
0.00160086
0.00160036
0.00159968
0.00159882
0.00159778
0.00159656
0.00159516
0.00159359
0.00159185
0.00158993
0.00158785
0.0015856
0.00158319
0.00158061
0.00157787
0.00157496
0.0015719
0.00156868
0.0015653
0.00156176
0.00155807
0.00155422
0.00155022
0.00154607
0.00154177
0.00153731
0.0015327
0.00152794
0.00152303
0.00151797
0.00151276
0.00150739
0.00150188
0.00149621
0.0014904
0.00148443
0.00147831
0.00147204
0.00146561
0.00145903
0.0014523
0.00144541
0.00143837
0.00143116
0.00142381
0.00141629
0.00140861
0.00140077
0.00139278
0.00138462
0.00137629
0.0013678
0.00135915
0.00135033
0.00134134
0.00133219
0.00132286
0.00131337
0.0013037
0.00129385
0.00128384
0.00127364
0.00126327
0.00125273
0.001242
0.00123109
0.00122
0.00120873
0.00119727
0.00118562
0.00117378
0.00116176
0.00114954
0.00113713
0.00112453
0.00111172
0.00109872
0.00108551
0.0010721
0.00105848
0.00104465
0.0010306
0.00101633
0.00100184
0.000987125
0.000972171
0.000956975
0.000941529
0.000925824
0.000909848
0.000893589
0.00087703
0.000860153
0.000842934
0.000825345
0.000807348
0.000788895
0.00076992
0.000750324
0.00072998
0.000708657
0.00068631
0.000662803
0.000637879
0.00061109
0.0005817
0.000548251
0.000507111
0.000451761
0.000361204
0.000357968
0.000278906
0.000150866
0.000173884
0.00028539
0.000328773
0.000460196
0.000541469
0.000602157
0.000652879
0.000697173
0.000736846
0.000773057
0.00080652
0.000837745
0.00086711
0.000894893
0.000921312
0.000946535
0.000970697
0.000993907
0.00101625
0.0010378
0.00105862
0.00107876
0.00109827
0.00111717
0.00113551
0.0011533
0.00117058
0.00118737
0.00120368
0.00121954
0.00123495
0.00124994
0.00126451
0.00127868
0.00129246
0.00130586
0.00131888
0.00133154
0.00134385
0.0013558
0.00136742
0.0013787
0.00138965
0.00140027
0.00141058
0.00142058
0.00143026
0.00143964
0.00144872
0.00145751
0.001466
0.0014742
0.00148212
0.00148976
0.00149712
0.0015042
0.00151102
0.00151756
0.00152384
0.00152986
0.00153561
0.00154111
0.00154636
0.00155135
0.00155609
0.00156059
0.00156484
0.00156883
0.00157252
0.00157593
0.00157911
0.00158207
0.00158481
0.00158733
0.00158963
0.00159172
0.0015936
0.00159526
0.00159672
0.00159798
0.00159903
0.00159988
0.00160053
0.00160098
0.00160124
0.00160131
0.00160118
0.00160087
0.00160038
0.0015997
0.00159883
0.00159779
0.00159657
0.00159517
0.0015936
0.00159186
0.00158995
0.00158786
0.00158561
0.0015832
0.00158062
0.00157788
0.00157497
0.00157191
0.00156869
0.00156531
0.00156177
0.00155808
0.00155423
0.00155024
0.00154608
0.00154178
0.00153732
0.00153271
0.00152795
0.00152304
0.00151798
0.00151277
0.0015074
0.00150189
0.00149622
0.00149041
0.00148444
0.00147832
0.00147205
0.00146562
0.00145904
0.00145231
0.00144542
0.00143838
0.00143117
0.00142381
0.0014163
0.00140862
0.00140078
0.00139279
0.00138463
0.0013763
0.00136781
0.00135916
0.00135034
0.00134135
0.0013322
0.00132287
0.00131337
0.0013037
0.00129386
0.00128385
0.00127365
0.00126328
0.00125274
0.00124201
0.0012311
0.00122001
0.00120873
0.00119727
0.00118563
0.00117379
0.00116177
0.00114955
0.00113714
0.00112453
0.00111173
0.00109873
0.00108552
0.00107211
0.00105849
0.00104466
0.00103061
0.00101634
0.00100185
0.000987133
0.000972179
0.000956983
0.000941537
0.000925832
0.000909857
0.000893597
0.000877039
0.000860162
0.000842943
0.000825354
0.000807357
0.000788904
0.000769928
0.000750333
0.000729989
0.000708666
0.000686319
0.000662812
0.000637887
0.000611098
0.000581707
0.000548266
0.00050719
0.000452042
0.000360891
0.000357111
0.000278807
0.000150864
0.000220022
0.000388893
0.000627926
0.000847696
0.00102259
0.00116515
0.00128611
0.00139175
0.00148598
0.00157138
0.0016497
0.00172222
0.00178988
0.00185341
0.00191335
0.00197014
0.00202414
0.00207564
0.00212488
0.00217205
0.00221733
0.00226085
0.00230274
0.00234311
0.00238206
0.00241966
0.00245599
0.00249111
0.0025251
0.00255799
0.00258985
0.00262071
0.00265061
0.0026796
0.00270771
0.00273497
0.0027614
0.00278705
0.00281192
0.00283605
0.00285945
0.00288214
0.00290414
0.00292547
0.00294615
0.00296618
0.00298557
0.00300435
0.00302252
0.0030401
0.00305708
0.00307349
0.00308933
0.0031046
0.00311932
0.00313349
0.00314712
0.00316022
0.00317279
0.00318484
0.00319637
0.00320739
0.0032179
0.00322792
0.00323744
0.00324646
0.00325499
0.00326302
0.00327053
0.00327752
0.00328399
0.00329002
0.00329559
0.00330073
0.00330543
0.0033097
0.00331354
0.00331696
0.00331996
0.00332255
0.00332473
0.0033265
0.00332787
0.00332885
0.00332943
0.00332962
0.00332944
0.00332887
0.00332792
0.00332661
0.00332493
0.00332288
0.00332048
0.00331771
0.0033146
0.00331114
0.00330733
0.00330318
0.00329869
0.00329387
0.00328872
0.00328323
0.00327742
0.00327128
0.00326483
0.00325805
0.00325095
0.00324354
0.00323582
0.00322778
0.00321943
0.00321078
0.00320181
0.00319253
0.00318295
0.00317306
0.00316286
0.00315236
0.00314155
0.00313043
0.00311901
0.00310727
0.00309523
0.00308287
0.00307021
0.00305723
0.00304394
0.00303034
0.00301641
0.00300218
0.00298762
0.00297274
0.00295753
0.00294201
0.00292615
0.00290997
0.00289345
0.00287661
0.00285942
0.0028419
0.00282404
0.00280584
0.00278729
0.0027684
0.00274915
0.00272955
0.0027096
0.00268929
0.00266862
0.00264758
0.00262618
0.0026044
0.00258225
0.00255972
0.00253681
0.00251351
0.00248982
0.00246574
0.00244125
0.00241635
0.00239105
0.00236532
0.00233916
0.00231257
0.00228554
0.00225805
0.00223009
0.00220166
0.00217274
0.00214332
0.00211337
0.00208288
0.00205182
0.00202017
0.0019879
0.00195498
0.00192137
0.00188701
0.00185186
0.00181585
0.0017789
0.00174091
0.00170176
0.00166131
0.00161936
0.00157565
0.00152987
0.00148161
0.00143044
0.00137575
0.0013166
0.00125164
0.00117888
0.00109531
0.000996466
0.000877217
0.000728051
0.000575149
0.000393013
0.000201786
0.000220292
0.000388982
0.000628169
0.000847648
0.00102262
0.00116524
0.00128621
0.00139186
0.00148609
0.00157148
0.0016498
0.00172232
0.00178998
0.0018535
0.00191343
0.00197023
0.00202423
0.00207572
0.00212496
0.00217213
0.0022174
0.00226092
0.00230281
0.00234318
0.00238212
0.00241972
0.00245604
0.00249117
0.00252515
0.00255804
0.00258989
0.00262075
0.00265065
0.00267964
0.00270775
0.00273501
0.00276144
0.00278708
0.00281195
0.00283608
0.00285948
0.00288217
0.00290417
0.0029255
0.00294617
0.0029662
0.0029856
0.00300437
0.00302254
0.00304012
0.0030571
0.00307351
0.00308934
0.00310461
0.00311933
0.0031335
0.00314713
0.00316023
0.0031728
0.00318485
0.00319638
0.0032074
0.00321791
0.00322792
0.00323744
0.00324647
0.00325499
0.00326302
0.00327054
0.00327752
0.003284
0.00329002
0.00329559
0.00330073
0.00330543
0.0033097
0.00331354
0.00331696
0.00331996
0.00332255
0.00332472
0.0033265
0.00332787
0.00332884
0.00332943
0.00332962
0.00332943
0.00332886
0.00332792
0.00332661
0.00332492
0.00332288
0.00332047
0.00331771
0.0033146
0.00331113
0.00330733
0.00330318
0.00329869
0.00329387
0.00328871
0.00328322
0.00327741
0.00327128
0.00326482
0.00325804
0.00325095
0.00324354
0.00323581
0.00322777
0.00321943
0.00321077
0.0032018
0.00319253
0.00318294
0.00317305
0.00316286
0.00315235
0.00314154
0.00313042
0.003119
0.00310726
0.00309522
0.00308286
0.0030702
0.00305722
0.00304393
0.00303033
0.0030164
0.00300216
0.00298761
0.00297273
0.00295752
0.00294199
0.00292614
0.00290996
0.00289344
0.00287659
0.00285941
0.00284189
0.00282403
0.00280583
0.00278728
0.00276838
0.00274914
0.00272954
0.00270959
0.00268928
0.00266861
0.00264757
0.00262616
0.00260439
0.00258224
0.00255971
0.0025368
0.0025135
0.00248981
0.00246572
0.00244124
0.00241634
0.00239103
0.00236531
0.00233915
0.00231256
0.00228552
0.00225804
0.00223008
0.00220165
0.00217273
0.00214331
0.00211336
0.00208286
0.00205181
0.00202016
0.00198789
0.00195497
0.00192136
0.001887
0.00185185
0.00181584
0.00177889
0.0017409
0.00170176
0.0016613
0.00161935
0.00157564
0.00152987
0.00148161
0.00143044
0.00137575
0.0013166
0.00125164
0.00117888
0.00109528
0.000996383
0.000877014
0.00072701
0.00057414
0.000392242
0.0002018
3.16067e-05
0.000385144
0.000798384
0.00112912
0.00139514
0.00161667
0.00180694
0.00197416
0.00212369
0.00225923
0.00238342
0.0024982
0.00260505
0.00270509
0.00279921
0.00288813
0.00297242
0.00305254
0.00312891
0.00320184
0.00327161
0.00333847
0.00340263
0.00346427
0.00352356
0.00358063
0.00363561
0.00368863
0.00373978
0.00378917
0.00383687
0.00388298
0.00392756
0.00397068
0.0040124
0.00405278
0.00409188
0.00412973
0.0041664
0.0042019
0.00423629
0.0042696
0.00430186
0.0043331
0.00436335
0.00439263
0.00442097
0.00444838
0.00447489
0.00450051
0.00452526
0.00454916
0.00457222
0.00459446
0.00461588
0.0046365
0.00465633
0.00467539
0.00469367
0.0047112
0.00472797
0.004744
0.0047593
0.00477387
0.00478772
0.00480085
0.00481327
0.00482498
0.00483597
0.00484624
0.00485578
0.00486463
0.00487283
0.00488039
0.00488731
0.0048936
0.00489928
0.00490433
0.00490878
0.00491263
0.00491588
0.00491854
0.00492062
0.00492213
0.00492306
0.00492343
0.00492325
0.00492251
0.00492122
0.0049194
0.00491704
0.00491416
0.00491075
0.00490683
0.00490239
0.00489745
0.00489201
0.00488607
0.00487964
0.00487272
0.00486532
0.00485745
0.0048491
0.00484027
0.00483098
0.00482123
0.00481102
0.00480034
0.00478921
0.00477763
0.0047656
0.00475311
0.00474018
0.0047268
0.00471297
0.0046987
0.00468398
0.00466881
0.0046532
0.00463714
0.00462064
0.00460368
0.00458628
0.00456842
0.00455012
0.00453136
0.00451214
0.00449247
0.00447234
0.00445174
0.00443068
0.00440916
0.00438716
0.00436469
0.00434174
0.00431832
0.00429441
0.00427002
0.00424514
0.00421977
0.0041939
0.00416753
0.00414066
0.00411328
0.00408538
0.00405697
0.00402804
0.00399858
0.00396859
0.00393806
0.00390699
0.00387536
0.00384318
0.00381044
0.00377713
0.00374323
0.00370875
0.00367367
0.00363799
0.00360168
0.00356475
0.00352716
0.00348892
0.00345
0.00341039
0.00337007
0.00332901
0.00328719
0.00324458
0.00320115
0.00315686
0.00311169
0.00306557
0.00301846
0.0029703
0.00292102
0.00287054
0.00281878
0.00276561
0.00271093
0.00265456
0.00259633
0.00253601
0.00247333
0.00240794
0.0023394
0.00226717
0.00219056
0.00210872
0.00202049
0.0019243
0.00181797
0.00169843
0.00156144
0.00140133
0.00121188
0.000987876
0.000736366
0.000473646
0.000253551
3.1604e-05
0.000385363
0.000798622
0.00112915
0.00139519
0.00161679
0.00180709
0.00197431
0.00212385
0.00225938
0.00238357
0.00249835
0.00260519
0.00270523
0.00279935
0.00288826
0.00297254
0.00305266
0.00312902
0.00320195
0.00327172
0.00333857
0.00340273
0.00346437
0.00352365
0.00358071
0.00363569
0.0036887
0.00373985
0.00378924
0.00383694
0.00388304
0.00392762
0.00397073
0.00401245
0.00405283
0.00409193
0.00412978
0.00416644
0.00420194
0.00423633
0.00426964
0.00430189
0.00433313
0.00436338
0.00439266
0.00442099
0.0044484
0.00447491
0.00450053
0.00452528
0.00454917
0.00457223
0.00459447
0.00461589
0.00463651
0.00465634
0.00467539
0.00469367
0.0047112
0.00472797
0.004744
0.0047593
0.00477387
0.00478771
0.00480085
0.00481327
0.00482497
0.00483596
0.00484623
0.00485578
0.00486462
0.00487282
0.00488038
0.0048873
0.00489359
0.00489926
0.00490432
0.00490877
0.00491261
0.00491587
0.00491853
0.00492061
0.00492211
0.00492305
0.00492342
0.00492323
0.00492249
0.00492121
0.00491938
0.00491702
0.00491414
0.00491073
0.00490681
0.00490237
0.00489743
0.00489199
0.00488605
0.00487962
0.0048727
0.0048653
0.00485742
0.00484907
0.00484025
0.00483096
0.00482121
0.00481099
0.00480032
0.00478919
0.00477761
0.00476557
0.00475309
0.00474016
0.00472677
0.00471295
0.00469867
0.00468395
0.00466879
0.00465317
0.00463712
0.00462061
0.00460365
0.00458625
0.0045684
0.00455009
0.00453133
0.00451212
0.00449244
0.00447231
0.00445171
0.00443065
0.00440913
0.00438713
0.00436466
0.00434172
0.00431829
0.00429438
0.00426999
0.00424511
0.00421974
0.00419387
0.0041675
0.00414063
0.00411325
0.00408535
0.00405694
0.00402801
0.00399855
0.00396856
0.00393803
0.00390696
0.00387533
0.00384315
0.00381041
0.0037771
0.0037432
0.00370872
0.00367364
0.00363796
0.00360165
0.00356471
0.00352713
0.00348889
0.00344997
0.00341036
0.00337004
0.00332898
0.00328716
0.00324455
0.00320112
0.00315684
0.00311166
0.00306554
0.00301843
0.00297027
0.00292099
0.00287052
0.00281875
0.00276559
0.0027109
0.00265454
0.00259631
0.00253599
0.00247331
0.00240792
0.00233938
0.00226715
0.00219054
0.0021087
0.00202047
0.00192428
0.00181796
0.00169842
0.00156141
0.00140122
0.0012115
0.000986611
0.000734246
0.000472493
0.000253719
4.70861e-05
0.000472955
0.000947613
0.00135067
0.0016893
0.00197867
0.00223077
0.00245414
0.00265483
0.00283723
0.0030046
0.00315938
0.00330348
0.00343836
0.00356519
0.00368491
0.0037983
0.00390598
0.00400849
0.00410627
0.0041997
0.00428912
0.0043748
0.00445701
0.00453596
0.00461184
0.00468485
0.00475514
0.00482286
0.00488814
0.0049511
0.00501186
0.00507053
0.00512719
0.00518194
0.00523485
0.00528601
0.00533549
0.00538334
0.00542963
0.00547441
0.00551774
0.00555966
0.00560022
0.00563945
0.00567739
0.00571408
0.00574954
0.00578381
0.00581691
0.00584887
0.00587971
0.00590945
0.00593812
0.00596572
0.00599228
0.00601782
0.00604234
0.00606587
0.00608841
0.00610999
0.0061306
0.00615027
0.006169
0.0061868
0.00620369
0.00621966
0.00623472
0.00624888
0.00626213
0.00627448
0.00628595
0.00629655
0.00630632
0.00631528
0.00632344
0.00633079
0.00633736
0.00634315
0.00634816
0.00635241
0.00635591
0.00635866
0.00636067
0.00636196
0.00636252
0.00636237
0.00636151
0.00635996
0.00635772
0.0063548
0.0063512
0.00634693
0.00634201
0.00633643
0.00633021
0.00632335
0.00631586
0.00630774
0.00629899
0.00628964
0.00627967
0.0062691
0.00625794
0.00624617
0.00623382
0.00622087
0.00620735
0.00619324
0.00617856
0.0061633
0.00614746
0.00613106
0.00611409
0.00609654
0.00607843
0.00605975
0.00604051
0.00602069
0.00600031
0.00597936
0.00595784
0.00593574
0.00591307
0.00588983
0.00586601
0.00584161
0.00581662
0.00579106
0.0057649
0.00573815
0.0057108
0.00568286
0.00565431
0.00562515
0.00559539
0.00556501
0.00553401
0.00550238
0.00547012
0.00543723
0.0054037
0.00536952
0.00533469
0.00529919
0.00526304
0.00522621
0.0051887
0.0051505
0.00511161
0.00507201
0.00503169
0.00499065
0.00494887
0.00490635
0.00486306
0.004819
0.00477415
0.00472849
0.00468201
0.00463469
0.0045865
0.00453742
0.00448743
0.00443649
0.00438458
0.00433166
0.00427769
0.00422262
0.00416641
0.004109
0.00405033
0.00399032
0.0039289
0.00386598
0.00380144
0.00373517
0.00366703
0.00359684
0.00352441
0.00344951
0.00337187
0.00329114
0.00320693
0.00311871
0.00302587
0.00292763
0.00282302
0.00271078
0.00258932
0.0024565
0.0023095
0.00214453
0.00195652
0.00173892
0.00148423
0.00118706
0.000855105
0.000523297
0.000320482
4.70396e-05
0.000473004
0.000947608
0.00135067
0.00168938
0.00197881
0.00223095
0.00245433
0.00265502
0.00283742
0.00300479
0.00315957
0.00330366
0.00343853
0.00356536
0.00368508
0.00379846
0.00390613
0.00400864
0.00410641
0.00419984
0.00428925
0.00437493
0.00445713
0.00453607
0.00461196
0.00468496
0.00475524
0.00482296
0.00488823
0.00495119
0.00501195
0.00507061
0.00512726
0.00518201
0.00523492
0.00528607
0.00533554
0.00538339
0.00542968
0.00547446
0.00551779
0.0055597
0.00560026
0.00563948
0.00567742
0.0057141
0.00574957
0.00578383
0.00581693
0.00584889
0.00587973
0.00590947
0.00593813
0.00596573
0.00599229
0.00601782
0.00604235
0.00606587
0.00608841
0.00610999
0.0061306
0.00615027
0.006169
0.0061868
0.00620368
0.00621965
0.00623471
0.00624887
0.00626212
0.00627447
0.00628593
0.00629653
0.00630631
0.00631527
0.00632342
0.00633078
0.00633734
0.00634313
0.00634814
0.00635239
0.00635589
0.00635864
0.00636065
0.00636193
0.0063625
0.00636235
0.00636149
0.00635994
0.00635769
0.00635477
0.00635117
0.00634691
0.00634198
0.00633641
0.00633018
0.00632332
0.00631583
0.00630771
0.00629897
0.00628961
0.00627964
0.00626907
0.0062579
0.00624614
0.00623378
0.00622084
0.00620732
0.00619321
0.00617852
0.00616327
0.00614743
0.00613103
0.00611405
0.00609651
0.0060784
0.00605972
0.00604047
0.00602066
0.00600028
0.00597933
0.0059578
0.00593571
0.00591304
0.0058898
0.00586597
0.00584157
0.00581659
0.00579102
0.00576486
0.00573811
0.00571076
0.00568282
0.00565427
0.00562512
0.00559535
0.00556497
0.00553397
0.00550234
0.00547008
0.00543719
0.00540366
0.00536948
0.00533465
0.00529916
0.005263
0.00522617
0.00518866
0.00515046
0.00511157
0.00507197
0.00503165
0.00499061
0.00494883
0.00490631
0.00486302
0.00481896
0.00477411
0.00472845
0.00468197
0.00463465
0.00458646
0.00453738
0.00448739
0.00443645
0.00438454
0.00433162
0.00427765
0.00422258
0.00416637
0.00410896
0.00405029
0.00399029
0.00392887
0.00386594
0.00380141
0.00373514
0.00366699
0.0035968
0.00352438
0.00344948
0.00337184
0.00329111
0.0032069
0.00311868
0.00302584
0.00292761
0.00282299
0.00271076
0.0025893
0.00245648
0.00230949
0.00214452
0.0019565
0.00173883
0.00148381
0.00118566
0.000852387
0.000522858
0.000320532
5.25799e-05
0.000526707
0.00106173
0.00152728
0.00192731
0.00227474
0.00258068
0.00285367
0.00310011
0.00332483
0.00353149
0.00372293
0.00390134
0.00406848
0.00422573
0.00437422
0.00451488
0.00464848
0.00477566
0.00489696
0.00501285
0.00512372
0.00522994
0.00533179
0.00542956
0.00552349
0.00561381
0.0057007
0.00578435
0.00586493
0.00594259
0.00601747
0.0060897
0.00615941
0.0062267
0.00629168
0.00635444
0.00641508
0.00647368
0.00653031
0.00658506
0.00663797
0.00668912
0.00673856
0.00678635
0.00683253
0.00687715
0.00692025
0.00696187
0.00700205
0.00704081
0.00707819
0.00711422
0.00714893
0.00718233
0.00721446
0.00724533
0.00727497
0.00730339
0.00733062
0.00735666
0.00738154
0.00740527
0.00742787
0.00744934
0.0074697
0.00748896
0.00750713
0.00752421
0.00754022
0.00755517
0.00756906
0.00758189
0.00759373
0.00760458
0.00761446
0.00762338
0.00763135
0.00763838
0.00764449
0.00764967
0.00765396
0.00765735
0.00765985
0.00766148
0.00766224
0.00766216
0.00766122
0.00765946
0.00765687
0.00765346
0.00764925
0.00764424
0.00763845
0.00763188
0.00762453
0.00761643
0.00760757
0.00759796
0.00758761
0.00757653
0.00756473
0.0075522
0.00753896
0.00752501
0.00751036
0.00749501
0.00747897
0.00746223
0.00744481
0.0074267
0.00740792
0.00738845
0.0073683
0.00734748
0.00732599
0.00730381
0.00728097
0.00725745
0.00723325
0.00720838
0.00718283
0.0071566
0.00712969
0.00710209
0.00707381
0.00704484
0.00701517
0.00698481
0.00695375
0.00692198
0.00688951
0.00685632
0.00682242
0.00678779
0.00675243
0.00671634
0.0066795
0.00664193
0.00660359
0.0065645
0.00652464
0.006484
0.00644259
0.00640038
0.00635736
0.00631354
0.0062689
0.00622342
0.0061771
0.00612993
0.00608189
0.00603296
0.00598314
0.00593239
0.00588072
0.00582809
0.00577449
0.0057199
0.00566428
0.00560761
0.00554986
0.005491
0.00543098
0.00536978
0.00530735
0.00524363
0.00517857
0.00511211
0.00504418
0.00497471
0.0049036
0.00483076
0.00475609
0.00467944
0.00460069
0.00451965
0.00443615
0.00434995
0.0042608
0.00416838
0.00407233
0.00397219
0.00386744
0.00375742
0.00364133
0.00351816
0.00338668
0.00324532
0.0030921
0.00292446
0.00273912
0.0025318
0.00229701
0.00202778
0.00171611
0.00135624
0.000957108
0.000567311
0.000365592
5.25699e-05
0.000526711
0.00106174
0.00152734
0.00192745
0.00227492
0.00258089
0.00285389
0.00310033
0.00332505
0.00353171
0.00372314
0.00390155
0.00406868
0.00422593
0.00437442
0.00451507
0.00464867
0.00477584
0.00489714
0.00501302
0.00512389
0.00523009
0.00533194
0.0054297
0.00552363
0.00561394
0.00570082
0.00578447
0.00586504
0.0059427
0.00601757
0.0060898
0.0061595
0.00622679
0.00629176
0.00635452
0.00641516
0.00647375
0.00653038
0.00658512
0.00663803
0.00668917
0.00673861
0.0067864
0.00683257
0.00687719
0.00692029
0.0069619
0.00700207
0.00704084
0.00707822
0.00711424
0.00714895
0.00718235
0.00721447
0.00724535
0.00727498
0.0073034
0.00733062
0.00735667
0.00738154
0.00740527
0.00742786
0.00744933
0.00746969
0.00748895
0.00750712
0.00752421
0.00754022
0.00755516
0.00756904
0.00758188
0.00759371
0.00760457
0.00761444
0.00762336
0.00763133
0.00763836
0.00764447
0.00764965
0.00765394
0.00765732
0.00765983
0.00766145
0.00766222
0.00766213
0.0076612
0.00765943
0.00765684
0.00765343
0.00764922
0.00764422
0.00763842
0.00763185
0.0076245
0.0076164
0.00760754
0.00759793
0.00758758
0.0075765
0.00756469
0.00755217
0.00753893
0.00752498
0.00751033
0.00749498
0.00747893
0.0074622
0.00744478
0.00742667
0.00740788
0.00738841
0.00736827
0.00734745
0.00732595
0.00730378
0.00728093
0.00725741
0.00723322
0.00720834
0.00718279
0.00715656
0.00712965
0.00710205
0.00707377
0.0070448
0.00701513
0.00698477
0.00695371
0.00692194
0.00688947
0.00685628
0.00682238
0.00678775
0.00675239
0.0067163
0.00667946
0.00664188
0.00660355
0.00656446
0.0065246
0.00648396
0.00644254
0.00640033
0.00635732
0.0063135
0.00626886
0.00622338
0.00617706
0.00612989
0.00608185
0.00603292
0.00598309
0.00593235
0.00588068
0.00582805
0.00577445
0.00571985
0.00566424
0.00560757
0.00554982
0.00549096
0.00543094
0.00536974
0.00530731
0.00524359
0.00517853
0.00511207
0.00504414
0.00497467
0.00490356
0.00483073
0.00475605
0.0046794
0.00460065
0.00451962
0.00443611
0.00434992
0.00426077
0.00416835
0.00407229
0.00397216
0.00386741
0.00375739
0.0036413
0.00351813
0.00338665
0.00324529
0.00309207
0.00292444
0.0027391
0.00253179
0.002297
0.00202774
0.00171587
0.0013553
0.000955222
0.000568261
0.000365731
5.60777e-05
0.000565813
0.00115278
0.00167243
0.00212515
0.00252247
0.00287506
0.00319145
0.00347827
0.00374063
0.0039825
0.00420697
0.00441649
0.00461301
0.00479811
0.00497306
0.00513891
0.00529653
0.00544667
0.00558994
0.00572686
0.00585791
0.00598348
0.00610392
0.00621954
0.00633062
0.00643742
0.00654016
0.00663906
0.0067343
0.00682606
0.0069145
0.00699978
0.00708204
0.00716141
0.00723801
0.00731196
0.00738336
0.00745232
0.00751891
0.00758324
0.00764539
0.00770542
0.0077634
0.00781941
0.0078735
0.00792572
0.00797614
0.00802479
0.00807172
0.00811698
0.0081606
0.00820262
0.00824308
0.00828199
0.00831941
0.00835534
0.00838982
0.00842287
0.00845452
0.00848479
0.00851369
0.00854125
0.00856748
0.0085924
0.00861604
0.00863839
0.00865948
0.00867932
0.00869791
0.00871528
0.00873144
0.00874639
0.00876016
0.00877279
0.0087843
0.00879469
0.00880398
0.0088122
0.00881933
0.00882542
0.00883045
0.00883446
0.00883744
0.00883942
0.0088404
0.00884041
0.00883944
0.00883751
0.00883463
0.00883082
0.00882609
0.00882044
0.00881388
0.00880644
0.00879811
0.00878891
0.00877884
0.00876792
0.00875615
0.00874354
0.00873011
0.00871585
0.00870077
0.00868488
0.00866819
0.0086507
0.00863242
0.00861335
0.0085935
0.00857286
0.00855145
0.00852926
0.0085063
0.00848257
0.00845806
0.00843279
0.00840675
0.00837994
0.00835236
0.008324
0.00829488
0.00826498
0.0082343
0.00820284
0.0081706
0.00813757
0.00810376
0.00806914
0.00803373
0.00799752
0.00796049
0.00792265
0.00788399
0.00784451
0.00780419
0.00776302
0.00772101
0.00767815
0.00763442
0.00758981
0.00754432
0.00749794
0.00745066
0.00740247
0.00735334
0.00730329
0.00725228
0.0072003
0.00714735
0.00709339
0.00703843
0.00698243
0.00692538
0.00686726
0.00680804
0.0067477
0.0066862
0.00662353
0.00655964
0.0064945
0.00642807
0.00636032
0.00629118
0.00622061
0.00614856
0.00607495
0.00599971
0.00592278
0.00584405
0.00576344
0.00568083
0.0055961
0.0055091
0.00541969
0.00532767
0.00523284
0.00513496
0.00503374
0.00492887
0.00481996
0.00470655
0.0045881
0.00446396
0.00433332
0.00419523
0.0040485
0.00389165
0.00372287
0.00353985
0.00333973
0.00311888
0.00287274
0.00259559
0.00228039
0.00191881
0.00150248
0.00102826
0.000510778
4.99334e-05
5.60775e-05
0.000565844
0.00115286
0.00167255
0.00212531
0.00252267
0.00287528
0.00319169
0.00347851
0.00374087
0.00398274
0.00420721
0.00441673
0.00461325
0.00479834
0.00497328
0.00513912
0.00529674
0.00544687
0.00559013
0.00572705
0.0058581
0.00598366
0.00610409
0.0062197
0.00633078
0.00643757
0.00654031
0.0066392
0.00673443
0.00682618
0.00691462
0.0069999
0.00708215
0.00716152
0.00723811
0.00731205
0.00738345
0.0074524
0.00751899
0.00758332