/*--------------------------------*- C++ -*----------------------------------*\
  =========                 |
  \\      /  F ield         | OpenFOAM: The Open Source CFD Toolbox
   \\    /   O peration     | Website:  https://openfoam.org
    \\  /    A nd           | Version:  8
     \\/     M anipulation  |
\*---------------------------------------------------------------------------*/
FoamFile
{
    version     2.0;
    format      ascii;
    class       volScalarField;
    location    "3900";
    object      alphat;
}
// * * * * * * * * * * * * * * * * * * * * * * * * * * * * * * * * * * * * * //

dimensions      [1 -1 -1 0 0 0 0];

internalField   nonuniform List<scalar> 
46000
(
1.5579e-06
6.22297e-06
1.12211e-05
1.58461e-05
2.02068e-05
2.44189e-05
2.85349e-05
3.2567e-05
3.65376e-05
4.0463e-05
4.43562e-05
4.82284e-05
5.20562e-05
5.58556e-05
5.96304e-05
6.33809e-05
6.71065e-05
7.08055e-05
7.44757e-05
7.81145e-05
8.17188e-05
8.52852e-05
8.88101e-05
9.22898e-05
9.57202e-05
9.90975e-05
0.000102417
0.000105676
0.000108869
0.000111992
0.000115041
0.000118012
0.000120902
0.000123706
0.000126421
0.000129043
0.000131568
0.000133995
0.000136319
0.000138538
0.00014065
0.000142652
0.000144541
0.000146317
0.000147977
0.00014952
0.000150945
0.000152251
0.000153438
0.000154504
0.000155451
0.000156278
0.000156985
0.000157574
0.000158045
0.000158399
0.000158638
0.000158763
0.000158776
0.00015868
0.000158477
0.000158171
0.000157767
0.000157263
0.000156661
0.000155965
0.000155177
0.000154301
0.000153339
0.000152295
0.000151173
0.000149976
0.000148708
0.000147372
0.000145972
0.000144512
0.000142995
0.000141426
0.000139807
0.000138143
0.000136438
0.000134694
0.000132916
0.000131107
0.00012927
0.000127408
0.000125526
0.000123626
0.000121711
0.000119785
0.00011785
0.000115909
0.000113964
0.000112019
0.000110076
0.000108137
0.000106204
0.000104279
0.000102365
0.000100463
9.85753e-05
9.67031e-05
9.48481e-05
9.30115e-05
9.11947e-05
8.93989e-05
8.76251e-05
8.58742e-05
8.41471e-05
8.24445e-05
8.07669e-05
7.91151e-05
7.74893e-05
7.58899e-05
7.43173e-05
7.27715e-05
7.12528e-05
6.9761e-05
6.82963e-05
6.68584e-05
6.54473e-05
6.40626e-05
6.27042e-05
6.13717e-05
6.00647e-05
5.87829e-05
5.75258e-05
5.62928e-05
5.50836e-05
5.38976e-05
5.27342e-05
5.15928e-05
5.04729e-05
4.93738e-05
4.8295e-05
4.72358e-05
4.61957e-05
4.51739e-05
4.41699e-05
4.3183e-05
4.22127e-05
4.12583e-05
4.03193e-05
3.93951e-05
3.84851e-05
3.75887e-05
3.67055e-05
3.58349e-05
3.49764e-05
3.41295e-05
3.32938e-05
3.24689e-05
3.16544e-05
3.08498e-05
3.00548e-05
2.9269e-05
2.84922e-05
2.7724e-05
2.69643e-05
2.62126e-05
2.5469e-05
2.47332e-05
2.40047e-05
2.32834e-05
2.25691e-05
2.18623e-05
2.11631e-05
2.04705e-05
1.97843e-05
1.91043e-05
1.84302e-05
1.77617e-05
1.7099e-05
1.6442e-05
1.57904e-05
1.51439e-05
1.45026e-05
1.38661e-05
1.32344e-05
1.26071e-05
1.19841e-05
1.1365e-05
1.07494e-05
1.0137e-05
9.52729e-06
8.91972e-06
8.3136e-06
7.70816e-06
7.10312e-06
6.49818e-06
5.89117e-06
5.28026e-06
4.66336e-06
4.03777e-06
3.4e-06
2.74541e-06
2.06816e-06
1.36333e-06
6.50093e-07
1.26497e-07
1.56127e-06
6.23022e-06
1.12273e-05
1.58489e-05
2.02076e-05
2.4419e-05
2.85349e-05
3.25671e-05
3.65376e-05
4.04631e-05
4.43563e-05
4.82284e-05
5.20562e-05
5.58557e-05
5.96304e-05
6.3381e-05
6.71065e-05
7.08055e-05
7.44757e-05
7.81145e-05
8.17187e-05
8.52851e-05
8.881e-05
9.22897e-05
9.57202e-05
9.90974e-05
0.000102417
0.000105676
0.000108869
0.000111992
0.000115041
0.000118012
0.000120902
0.000123706
0.00012642
0.000129042
0.000131568
0.000133995
0.000136319
0.000138538
0.00014065
0.000142651
0.000144541
0.000146317
0.000147977
0.00014952
0.000150945
0.000152251
0.000153437
0.000154504
0.000155451
0.000156278
0.000156985
0.000157574
0.000158045
0.000158399
0.000158637
0.000158762
0.000158776
0.00015868
0.000158477
0.000158171
0.000157766
0.000157262
0.000156661
0.000155965
0.000155177
0.0001543
0.000153339
0.000152295
0.000151173
0.000149976
0.000148707
0.000147371
0.000145972
0.000144511
0.000142995
0.000141425
0.000139807
0.000138143
0.000136438
0.000134694
0.000132916
0.000131106
0.000129269
0.000127408
0.000125526
0.000123626
0.000121711
0.000119785
0.00011785
0.000115909
0.000113964
0.000112019
0.000110076
0.000108136
0.000106203
0.000104279
0.000102365
0.000100463
9.85751e-05
9.67029e-05
9.48478e-05
9.30113e-05
9.11945e-05
8.93987e-05
8.76249e-05
8.5874e-05
8.41469e-05
8.24442e-05
8.07667e-05
7.91149e-05
7.74891e-05
7.58898e-05
7.43171e-05
7.27714e-05
7.12526e-05
6.97609e-05
6.82961e-05
6.68583e-05
6.54471e-05
6.40625e-05
6.27041e-05
6.13715e-05
6.00646e-05
5.87828e-05
5.75256e-05
5.62927e-05
5.50835e-05
5.38974e-05
5.2734e-05
5.15926e-05
5.04727e-05
4.93737e-05
4.82949e-05
4.72357e-05
4.61955e-05
4.51738e-05
4.41698e-05
4.31829e-05
4.22126e-05
4.12582e-05
4.03192e-05
3.9395e-05
3.8485e-05
3.75886e-05
3.67054e-05
3.58348e-05
3.49763e-05
3.41294e-05
3.32938e-05
3.24689e-05
3.16543e-05
3.08497e-05
3.00547e-05
2.92689e-05
2.84921e-05
2.7724e-05
2.69643e-05
2.62126e-05
2.5469e-05
2.47331e-05
2.40047e-05
2.32834e-05
2.25691e-05
2.18622e-05
2.1163e-05
2.04705e-05
1.97843e-05
1.91042e-05
1.84301e-05
1.77616e-05
1.7099e-05
1.64419e-05
1.57903e-05
1.51439e-05
1.45025e-05
1.38661e-05
1.32344e-05
1.26071e-05
1.19841e-05
1.13649e-05
1.07494e-05
1.0137e-05
9.52727e-06
8.9197e-06
8.31358e-06
7.70814e-06
7.10311e-06
6.49817e-06
5.89116e-06
5.28025e-06
4.66335e-06
4.03776e-06
3.39999e-06
2.74541e-06
2.06816e-06
1.36333e-06
6.50093e-07
1.26497e-07
5.72617e-06
5.40613e-05
9.15931e-05
0.000117613
0.000137791
0.000154541
0.000168966
0.000181882
0.000193729
0.00020477
0.000215172
0.00022506
0.000234533
0.000243648
0.000252445
0.000260958
0.000269214
0.000277231
0.000285025
0.000292609
0.000299991
0.000307179
0.000314177
0.00032099
0.00032762
0.000334068
0.000340336
0.000346424
0.000352331
0.000358058
0.000363603
0.000368965
0.000374143
0.000379135
0.000383941
0.000388558
0.000392986
0.000397222
0.000401266
0.000405117
0.000408773
0.000412233
0.000415498
0.000418566
0.000421436
0.00042411
0.000426586
0.000428866
0.000430949
0.000432837
0.00043453
0.000436029
0.000437337
0.000438454
0.000439382
0.000440124
0.000440682
0.000441058
0.000441255
0.000441275
0.00044112
0.000440794
0.000440299
0.000439639
0.000438821
0.000437847
0.000436723
0.000435453
0.000434042
0.000432493
0.000430811
0.000429002
0.000427069
0.000425018
0.000422853
0.00042058
0.000418203
0.000415727
0.000413158
0.000410499
0.000407757
0.000404935
0.000402039
0.000399074
0.000396044
0.000392955
0.00038981
0.000386614
0.000383372
0.000380089
0.000376768
0.000373413
0.000370029
0.000366621
0.00036319
0.000359743
0.000356281
0.000352809
0.000349329
0.000345846
0.000342361
0.000338879
0.000335401
0.000331931
0.000328471
0.000325023
0.000321589
0.000318172
0.000314773
0.000311395
0.000308038
0.000304704
0.000301395
0.000298111
0.000294855
0.000291626
0.000288425
0.000285253
0.000282111
0.000278999
0.000275917
0.000272866
0.000269845
0.000266854
0.000263893
0.000260963
0.000258062
0.00025519
0.000252347
0.000249531
0.000246743
0.000243982
0.000241246
0.000238536
0.000235849
0.000233185
0.000230543
0.000227923
0.000225322
0.000222739
0.000220175
0.000217627
0.000215094
0.000212575
0.000210069
0.000207575
0.000205092
0.000202617
0.000200151
0.000197692
0.000195239
0.00019279
0.000190344
0.000187901
0.000185458
0.000183016
0.000180573
0.000178127
0.000175679
0.000173225
0.000170766
0.000168299
0.000165823
0.000163337
0.000160838
0.00015832
0.000155786
0.000153235
0.000150668
0.000148083
0.000145477
0.000142849
0.000140198
0.000137519
0.000134811
0.000132071
0.000129294
0.000126478
0.000123618
0.000120708
0.000117744
0.000114717
0.00011162
0.000108444
0.000105176
0.000101803
9.8307e-05
9.46639e-05
9.0837e-05
8.67925e-05
8.24969e-05
7.78908e-05
7.28926e-05
6.73845e-05
6.11877e-05
5.40086e-05
4.53148e-05
3.3993e-05
1.74965e-05
5.90506e-07
5.72122e-06
5.40605e-05
9.15996e-05
0.000117618
0.000137795
0.000154545
0.000168969
0.000181885
0.000193732
0.000204773
0.000215175
0.000225063
0.000234537
0.000243651
0.000252448
0.000260962
0.000269217
0.000277234
0.000285029
0.000292613
0.000299995
0.000307183
0.000314181
0.000320994
0.000327624
0.000334072
0.00034034
0.000346428
0.000352335
0.000358062
0.000363607
0.000368969
0.000374147
0.00037914
0.000383945
0.000388563
0.00039299
0.000397227
0.000401271
0.000405122
0.000408778
0.000412238
0.000415503
0.000418571
0.000421441
0.000424115
0.000426591
0.000428871
0.000430954
0.000432842
0.000434535
0.000436034
0.000437342
0.000438459
0.000439387
0.000440129
0.000440687
0.000441063
0.00044126
0.00044128
0.000441125
0.000440799
0.000440303
0.000439644
0.000438825
0.000437852
0.000436728
0.000435458
0.000434046
0.000432497
0.000430816
0.000429006
0.000427074
0.000425022
0.000422858
0.000420585
0.000418208
0.000415732
0.000413162
0.000410504
0.000407761
0.000404939
0.000402044
0.000399078
0.000396049
0.000392959
0.000389814
0.000386618
0.000383376
0.000380092
0.000376771
0.000373417
0.000370033
0.000366624
0.000363194
0.000359746
0.000356284
0.000352812
0.000349332
0.000345849
0.000342364
0.000338882
0.000335404
0.000331934
0.000328474
0.000325026
0.000321592
0.000318175
0.000314776
0.000311397
0.00030804
0.000304707
0.000301398
0.000298114
0.000294857
0.000291628
0.000288428
0.000285256
0.000282114
0.000279002
0.00027592
0.000272868
0.000269847
0.000266856
0.000263896
0.000260965
0.000258064
0.000255192
0.000252349
0.000249533
0.000246745
0.000243984
0.000241248
0.000238537
0.000235851
0.000233187
0.000230545
0.000227924
0.000225323
0.000222741
0.000220176
0.000217628
0.000215095
0.000212577
0.000210071
0.000207577
0.000205093
0.000202619
0.000200153
0.000197693
0.00019524
0.000192791
0.000190345
0.000187902
0.00018546
0.000183017
0.000180574
0.000178128
0.00017568
0.000173226
0.000170767
0.0001683
0.000165824
0.000163338
0.000160838
0.000158321
0.000155786
0.000153236
0.000150669
0.000148083
0.000145478
0.00014285
0.000140198
0.00013752
0.000134812
0.000132071
0.000129295
0.000126479
0.000123619
0.000120709
0.000117744
0.000114718
0.000111621
0.000108444
0.000105177
0.000101804
9.83075e-05
9.46643e-05
9.08374e-05
8.67928e-05
8.24972e-05
7.78911e-05
7.28929e-05
6.73848e-05
6.11879e-05
5.40088e-05
4.53149e-05
3.39931e-05
1.74964e-05
5.90507e-07
1.05684e-05
8.88878e-05
0.000164177
0.000220567
0.000264371
0.00029986
0.000329704
0.000355602
0.000378624
0.00039948
0.000418654
0.000436481
0.000453207
0.000469006
0.000484006
0.000498305
0.000511981
0.000525096
0.000537697
0.000549825
0.000561512
0.000572784
0.000583662
0.000594164
0.000604304
0.000614095
0.000623548
0.00063267
0.000641469
0.000649951
0.00065812
0.000665982
0.00067354
0.000680796
0.000687755
0.000694417
0.000700786
0.000706862
0.000712649
0.000718148
0.00072336
0.000728287
0.000732931
0.000737293
0.000741376
0.00074518
0.000748709
0.000751964
0.000754948
0.000757662
0.000760109
0.000762292
0.000764214
0.000765878
0.000767286
0.000768442
0.00076935
0.000770011
0.000770431
0.000770611
0.000770554
0.000770264
0.000769743
0.000768998
0.000768036
0.000766864
0.000765488
0.000763912
0.000762143
0.000760186
0.000758047
0.000755731
0.000753245
0.000750593
0.000747781
0.000744817
0.000741704
0.000738449
0.000735059
0.000731539
0.000727894
0.000724131
0.000720256
0.000716275
0.000712192
0.000708015
0.000703748
0.000699398
0.00069497
0.000690469
0.0006859
0.00068127
0.000676583
0.000671845
0.00066706
0.000662233
0.000657368
0.000652472
0.000647547
0.000642598
0.00063763
0.000632646
0.000627651
0.000622647
0.000617638
0.000612628
0.00060762
0.000602616
0.000597621
0.000592635
0.000587662
0.000582704
0.000577762
0.00057284
0.000567938
0.000563058
0.000558201
0.000553369
0.000548562
0.000543782
0.000539029
0.000534303
0.000529605
0.000524936
0.000520294
0.00051568
0.000511093
0.000506534
0.000502001
0.000497494
0.000493012
0.000488555
0.000484121
0.000479709
0.000475317
0.000470946
0.000466593
0.000462256
0.000457935
0.000453628
0.000449333
0.000445048
0.000440772
0.000436503
0.000432239
0.000427979
0.000423721
0.000419462
0.000415201
0.000410936
0.000406665
0.000402387
0.000398099
0.000393799
0.000389485
0.000385156
0.000380809
0.000376443
0.000372055
0.000367641
0.0003632
0.000358728
0.000354223
0.000349681
0.000345097
0.000340466
0.000335783
0.00033105
0.000326266
0.000321425
0.000316525
0.000311559
0.000306524
0.000301411
0.000296215
0.000290928
0.00028554
0.000280039
0.000274415
0.000268653
0.000262737
0.000256648
0.000250363
0.000243855
0.000237092
0.000230033
0.000222629
0.000214816
0.00020651
0.000197603
0.000187986
0.000177489
0.00016588
0.000152825
0.000137825
0.000120099
9.83471e-05
7.03183e-05
3.29706e-05
1.24537e-06
1.05667e-05
8.88878e-05
0.000164182
0.000220573
0.000264378
0.000299866
0.00032971
0.000355608
0.00037863
0.000399486
0.00041866
0.000436487
0.000453213
0.000469012
0.000484011
0.000498311
0.000511987
0.000525101
0.000537703
0.000549831
0.000561518
0.00057279
0.000583668
0.00059417
0.00060431
0.000614102
0.000623554
0.000632676
0.000641475
0.000649957
0.000658127
0.000665988
0.000673546
0.000680803
0.000687761
0.000694423
0.000700792
0.000706869
0.000712656
0.000718154
0.000723366
0.000728294
0.000732937
0.0007373
0.000741382
0.000745187
0.000748716
0.000751971
0.000754954
0.000757668
0.000760115
0.000762299
0.000764221
0.000765884
0.000767292
0.000768449
0.000769356
0.000770017
0.000770437
0.000770617
0.00077056
0.00077027
0.000769748
0.000769003
0.000768042
0.00076687
0.000765494
0.000763918
0.000762149
0.000760192
0.000758053
0.000755737
0.00075325
0.000750598
0.000747787
0.000744822
0.000741709
0.000738454
0.000735064
0.000731543
0.000727899
0.000724136
0.000720261
0.000716279
0.000712197
0.000708019
0.000703753
0.000699402
0.000694974
0.000690473
0.000685904
0.000681274
0.000676587
0.000671849
0.000667063
0.000662236
0.000657372
0.000652475
0.00064755
0.000642602
0.000637634
0.00063265
0.000627654
0.00062265
0.000617641
0.000612631
0.000607623
0.000602619
0.000597623
0.000592637
0.000587664
0.000582706
0.000577765
0.000572842
0.00056794
0.00056306
0.000558203
0.000553371
0.000548564
0.000543784
0.000539031
0.000534305
0.000529607
0.000524937
0.000520295
0.000515681
0.000511095
0.000506535
0.000502002
0.000497495
0.000493014
0.000488556
0.000484122
0.00047971
0.000475319
0.000470947
0.000466594
0.000462257
0.000457936
0.000453629
0.000449333
0.000445049
0.000440773
0.000436504
0.00043224
0.00042798
0.000423721
0.000419462
0.000415202
0.000410937
0.000406666
0.000402387
0.000398099
0.000393799
0.000389485
0.000385156
0.000380809
0.000376443
0.000372055
0.000367642
0.0003632
0.000358729
0.000354223
0.000349681
0.000345097
0.000340466
0.000335783
0.00033105
0.000326266
0.000321425
0.000316525
0.00031156
0.000306524
0.000301412
0.000296216
0.000290928
0.00028554
0.000280039
0.000274415
0.000268653
0.000262737
0.000256648
0.000250363
0.000243855
0.000237092
0.000230033
0.000222629
0.000214816
0.00020651
0.000197603
0.000187986
0.000177489
0.00016588
0.000152825
0.000137825
0.000120099
9.83472e-05
7.03183e-05
3.29705e-05
1.24538e-06
1.51819e-05
0.000113731
0.00021797
0.000302188
0.000370102
0.000426057
0.000473357
0.000514281
0.000550398
0.000582802
0.000612273
0.000639377
0.000664531
0.000688045
0.000710153
0.00073104
0.000750847
0.000769689
0.000787659
0.000804831
0.000821268
0.000837021
0.000852132
0.000866638
0.00088057
0.000893952
0.000906809
0.000919159
0.000931019
0.000942404
0.000953326
0.000963798
0.000973829
0.000983428
0.000992604
0.00100136
0.00100972
0.00101767
0.00102522
0.00103238
0.00103916
0.00104555
0.00105157
0.00105722
0.0010625
0.00106742
0.00107198
0.00107619
0.00108005
0.00108357
0.00108674
0.00108958
0.00109209
0.00109428
0.00109614
0.00109769
0.00109893
0.00109985
0.00110048
0.0011008
0.00110084
0.00110058
0.00110003
0.0010992
0.00109811
0.00109675
0.00109513
0.00109327
0.00109116
0.00108882
0.00108625
0.00108346
0.00108045
0.00107724
0.00107382
0.00107021
0.00106641
0.00106242
0.00105826
0.00105394
0.00104945
0.00104481
0.00104002
0.00103508
0.00103002
0.00102482
0.00101951
0.00101408
0.00100854
0.0010029
0.000997165
0.000991341
0.000985433
0.000979448
0.000973392
0.000967271
0.000961089
0.000954854
0.000948569
0.000942241
0.000935874
0.000929473
0.000923044
0.000916589
0.000910115
0.000903624
0.000897121
0.000890609
0.000884093
0.000877574
0.000871058
0.000864545
0.00085804
0.000851544
0.00084506
0.00083859
0.000832135
0.000825697
0.000819278
0.000812878
0.000806498
0.00080014
0.000793804
0.000787489
0.000781197
0.000774926
0.000768678
0.000762451
0.000756244
0.000750058
0.00074389
0.00073774
0.000731607
0.00072549
0.000719386
0.000713294
0.000707213
0.000701141
0.000695075
0.000689014
0.000682956
0.000676899
0.00067084
0.000664777
0.000658708
0.00065263
0.000646542
0.00064044
0.000634322
0.000628185
0.000622027
0.000615846
0.000609638
0.000603401
0.000597132
0.000590829
0.000584488
0.000578105
0.000571677
0.0005652
0.000558669
0.000552081
0.00054543
0.000538712
0.00053192
0.000525047
0.000518086
0.000511036
0.000503892
0.000496647
0.000489294
0.000481825
0.000474229
0.000466496
0.000458613
0.000450565
0.000442337
0.000433909
0.000425259
0.000416362
0.000407188
0.000397704
0.000387867
0.00037763
0.000366933
0.000355707
0.000343861
0.000331288
0.000317848
0.000303366
0.000287627
0.000270354
0.00025116
0.000229512
0.000204655
0.000175479
0.000140339
9.68866e-05
4.35625e-05
1.90089e-06
1.51824e-05
0.000113734
0.000217976
0.000302195
0.00037011
0.000426066
0.000473366
0.00051429
0.000550407
0.00058281
0.000612282
0.000639386
0.000664539
0.000688053
0.000710162
0.000731048
0.000750855
0.000769697
0.000787667
0.00080484
0.000821276
0.000837029
0.00085214
0.000866646
0.000880578
0.00089396
0.000906817
0.000919167
0.000931027
0.000942412
0.000953334
0.000963806
0.000973837
0.000983436
0.000992612
0.00100137
0.00100972
0.00101767
0.00102523
0.00103239
0.00103916
0.00104556
0.00105158
0.00105723
0.00106251
0.00106743
0.00107199
0.0010762
0.00108006
0.00108357
0.00108675
0.00108959
0.0010921
0.00109429
0.00109615
0.0010977
0.00109893
0.00109986
0.00110049
0.00110081
0.00110084
0.00110058
0.00110003
0.00109921
0.00109811
0.00109675
0.00109514
0.00109328
0.00109117
0.00108883
0.00108626
0.00108347
0.00108046
0.00107724
0.00107383
0.00107021
0.00106641
0.00106243
0.00105827
0.00105394
0.00104945
0.00104481
0.00104002
0.00103509
0.00103002
0.00102483
0.00101951
0.00101408
0.00100854
0.0010029
0.000997169
0.000991344
0.000985437
0.000979452
0.000973396
0.000967274
0.000961093
0.000954857
0.000948572
0.000942244
0.000935877
0.000929476
0.000923046
0.000916592
0.000910117
0.000903626
0.000897123
0.000890611
0.000884095
0.000877576
0.00087106
0.000864547
0.000858042
0.000851546
0.000845062
0.000838591
0.000832136
0.000825698
0.000819279
0.000812879
0.0008065
0.000800141
0.000793805
0.00078749
0.000781198
0.000774927
0.000768679
0.000762451
0.000756245
0.000750058
0.000743891
0.000737741
0.000731608
0.00072549
0.000719386
0.000713294
0.000707213
0.000701141
0.000695075
0.000689014
0.000682956
0.000676899
0.00067084
0.000664777
0.000658708
0.00065263
0.000646541
0.000640439
0.000634321
0.000628185
0.000622027
0.000615846
0.000609638
0.000603401
0.000597132
0.000590828
0.000584487
0.000578104
0.000571676
0.000565199
0.000558668
0.00055208
0.00054543
0.000538712
0.000531919
0.000525046
0.000518085
0.000511035
0.000503891
0.000496647
0.000489294
0.000481824
0.000474229
0.000466495
0.000458612
0.000450564
0.000442336
0.000433908
0.000425258
0.000416361
0.000407188
0.000397703
0.000387866
0.000377629
0.000366933
0.000355706
0.000343861
0.000331288
0.000317848
0.000303365
0.000287627
0.000270353
0.000251159
0.000229512
0.000204655
0.00017548
0.000140339
9.68867e-05
4.35623e-05
1.90089e-06
1.96315e-05
0.000133762
0.000260507
0.000368265
0.000458057
0.000533644
0.000598317
0.000654582
0.000704293
0.000748818
0.000789171
0.000826112
0.000860217
0.000891926
0.00092158
0.000949446
0.000975737
0.00100062
0.00102424
0.00104671
0.00106812
0.00108856
0.00110808
0.00112675
0.0011446
0.0011617
0.00117806
0.00119373
0.00120873
0.00122308
0.0012368
0.00124993
0.00126246
0.00127443
0.00128584
0.0012967
0.00130704
0.00131685
0.00132616
0.00133497
0.00134329
0.00135112
0.00135849
0.00136539
0.00137184
0.00137784
0.0013834
0.00138852
0.00139322
0.0013975
0.00140137
0.00140483
0.00140789
0.00141056
0.00141284
0.00141474
0.00141627
0.00141743
0.00141823
0.00141868
0.00141877
0.00141852
0.00141793
0.00141701
0.00141578
0.00141423
0.00141237
0.00141022
0.00140778
0.00140507
0.00140208
0.00139883
0.00139532
0.00139156
0.00138756
0.00138333
0.00137887
0.00137419
0.0013693
0.00136421
0.00135893
0.00135345
0.0013478
0.00134197
0.00133598
0.00132983
0.00132353
0.00131709
0.00131051
0.0013038
0.00129697
0.00129003
0.00128298
0.00127583
0.00126859
0.00126126
0.00125385
0.00124636
0.00123881
0.00123119
0.00122352
0.00121579
0.00120803
0.00120022
0.00119237
0.0011845
0.00117659
0.00116867
0.00116073
0.00115278
0.00114481
0.00113684
0.00112887
0.0011209
0.00111292
0.00110496
0.001097
0.00108904
0.0010811
0.00107317
0.00106525
0.00105735
0.00104946
0.00104158
0.00103372
0.00102587
0.00101804
0.00101022
0.00100241
0.000994612
0.000986827
0.000979051
0.000971283
0.000963522
0.000955765
0.00094801
0.000940256
0.000932501
0.000924741
0.000916975
0.0009092
0.000901413
0.000893612
0.000885794
0.000877956
0.000870096
0.000862209
0.000854294
0.000846347
0.000838364
0.000830343
0.00082228
0.000814172
0.000806015
0.000797805
0.000789539
0.000781212
0.00077282
0.000764357
0.000755818
0.000747198
0.00073849
0.000729689
0.000720787
0.000711776
0.000702648
0.000693392
0.000684006
0.000674479
0.000664802
0.000654964
0.000644952
0.000634751
0.000624346
0.000613716
0.000602841
0.000591697
0.000580255
0.000568484
0.000556344
0.000543793
0.000530779
0.000517241
0.000503109
0.000488297
0.000472702
0.000456197
0.000438629
0.000419805
0.000399485
0.000377368
0.000353077
0.000326109
0.00029579
0.00026121
0.000221124
0.000173855
0.000117408
5.17951e-05
2.54246e-06
1.96321e-05
0.000133766
0.000260513
0.000368273
0.000458067
0.000533654
0.000598328
0.000654593
0.000704304
0.000748829
0.000789182
0.000826123
0.000860228
0.000891937
0.000921591
0.000949457
0.000975748
0.00100063
0.00102425
0.00104672
0.00106813
0.00108857
0.00110809
0.00112676
0.00114461
0.00116171
0.00117807
0.00119374
0.00120874
0.00122309
0.00123681
0.00124994
0.00126247
0.00127444
0.00128585
0.00129671
0.00130705
0.00131686
0.00132617
0.00133498
0.0013433
0.00135113
0.0013585
0.0013654
0.00137185
0.00137785
0.00138341
0.00138853
0.00139323
0.00139751
0.00140137
0.00140483
0.00140789
0.00141056
0.00141285
0.00141475
0.00141628
0.00141744
0.00141824
0.00141868
0.00141878
0.00141853
0.00141794
0.00141702
0.00141578
0.00141423
0.00141238
0.00141023
0.00140779
0.00140507
0.00140208
0.00139883
0.00139532
0.00139156
0.00138756
0.00138333
0.00137887
0.00137419
0.00136931
0.00136422
0.00135893
0.00135346
0.0013478
0.00134198
0.00133598
0.00132983
0.00132353
0.00131709
0.00131051
0.00130381
0.00129698
0.00129004
0.00128299
0.00127584
0.00126859
0.00126126
0.00125385
0.00124636
0.00123881
0.00123119
0.00122352
0.0012158
0.00120803
0.00120022
0.00119237
0.0011845
0.0011766
0.00116867
0.00116073
0.00115278
0.00114482
0.00113685
0.00112887
0.0011209
0.00111293
0.00110496
0.001097
0.00108905
0.0010811
0.00107317
0.00106525
0.00105735
0.00104946
0.00104158
0.00103372
0.00102587
0.00101804
0.00101022
0.00100241
0.000994612
0.000986827
0.000979051
0.000971284
0.000963522
0.000955765
0.00094801
0.000940256
0.0009325
0.000924741
0.000916974
0.000909199
0.000901413
0.000893612
0.000885794
0.000877956
0.000870095
0.000862209
0.000854294
0.000846346
0.000838364
0.000830343
0.00082228
0.000814171
0.000806014
0.000797804
0.000789538
0.000781212
0.000772819
0.000764356
0.000755817
0.000747197
0.00073849
0.000729688
0.000720786
0.000711775
0.000702647
0.000693391
0.000684005
0.000674478
0.000664801
0.000654963
0.000644951
0.00063475
0.000624345
0.000613715
0.00060284
0.000591696
0.000580254
0.000568483
0.000556343
0.000543792
0.000530778
0.00051724
0.000503108
0.000488296
0.000472701
0.000456196
0.000438628
0.000419804
0.000399485
0.000377367
0.000353077
0.000326109
0.00029579
0.00026121
0.000221124
0.000173855
0.000117408
5.17949e-05
2.54247e-06
2.3997e-05
0.000150894
0.000295818
0.000423525
0.000532726
0.000626347
0.000707426
0.000778492
0.000841533
0.000898085
0.000949329
0.000996176
0.00103933
0.00107935
0.00111667
0.00115163
0.00118452
0.00121555
0.00124491
0.00127276
0.00129922
0.0013244
0.00134839
0.00137126
0.00139309
0.00141393
0.00143383
0.00145283
0.00147098
0.00148831
0.00150484
0.00152062
0.00153565
0.00154997
0.0015636
0.00157655
0.00158885
0.00160051
0.00161154
0.00162197
0.0016318
0.00164105
0.00164972
0.00165784
0.00166542
0.00167246
0.00167897
0.00168497
0.00169046
0.00169546
0.00169998
0.00170402
0.00170759
0.0017107
0.00171336
0.00171559
0.00171737
0.00171874
0.00171968
0.00172022
0.00172035
0.00172009
0.00171944
0.00171841
0.00171702
0.00171526
0.00171316
0.00171072
0.00170795
0.00170486
0.00170145
0.00169775
0.00169374
0.00168946
0.00168489
0.00168006
0.00167496
0.00166962
0.00166403
0.00165821
0.00165216
0.00164589
0.00163941
0.00163273
0.00162586
0.00161881
0.00161157
0.00160417
0.00159661
0.0015889
0.00158104
0.00157305
0.00156493
0.00155668
0.00154832
0.00153986
0.00153129
0.00152264
0.00151389
0.00150507
0.00149618
0.00148721
0.00147819
0.00146912
0.00145999
0.00145082
0.00144161
0.00143237
0.0014231
0.00141381
0.00140449
0.00139516
0.00138581
0.00137646
0.0013671
0.00135773
0.00134836
0.00133899
0.00132962
0.00132025
0.00131089
0.00130154
0.00129219
0.00128284
0.0012735
0.00126417
0.00125485
0.00124553
0.00123621
0.0012269
0.00121758
0.00120827
0.00119896
0.00118964
0.00118031
0.00117098
0.00116164
0.00115228
0.00114291
0.00113352
0.00112411
0.00111467
0.00110521
0.00109571
0.00108618
0.00107661
0.001067
0.00105735
0.00104764
0.00103788
0.00102807
0.00101819
0.00100825
0.000998237
0.00098815
0.000977984
0.000967733
0.00095739
0.00094695
0.000936407
0.000925752
0.000914979
0.000904079
0.000893044
0.000881864
0.000870527
0.000859022
0.000847341
0.000835472
0.000823401
0.000811113
0.00079859
0.000785813
0.000772759
0.000759404
0.000745718
0.00073167
0.000717221
0.000702329
0.000686943
0.000671005
0.000654447
0.000637191
0.000619142
0.000600188
0.000580196
0.000559006
0.000536423
0.000512206
0.00048606
0.000457617
0.000426422
0.00039189
0.000353263
0.000309561
0.00025952
0.000201582
0.00013421
5.86969e-05
3.1744e-06
2.39974e-05
0.000150897
0.000295823
0.000423533
0.000532736
0.000626358
0.000707438
0.000778505
0.000841546
0.000898098
0.000949342
0.000996189
0.00103935
0.00107937
0.00111668
0.00115164
0.00118453
0.00121556
0.00124492
0.00127277
0.00129923
0.00132441
0.0013484
0.00137127
0.0013931
0.00141394
0.00143384
0.00145285
0.00147099
0.00148832
0.00150486
0.00152063
0.00153566
0.00154998
0.00156361
0.00157656
0.00158886
0.00160052
0.00161155
0.00162198
0.00163181
0.00164106
0.00164973
0.00165785
0.00166543
0.00167247
0.00167898
0.00168498
0.00169047
0.00169547
0.00169999
0.00170403
0.0017076
0.00171071
0.00171337
0.00171559
0.00171738
0.00171875
0.00171969
0.00172023
0.00172036
0.0017201
0.00171945
0.00171842
0.00171702
0.00171527
0.00171317
0.00171073
0.00170796
0.00170486
0.00170146
0.00169775
0.00169375
0.00168946
0.0016849
0.00168006
0.00167497
0.00166962
0.00166403
0.00165821
0.00165216
0.00164589
0.00163942
0.00163274
0.00162587
0.00161881
0.00161158
0.00160418
0.00159662
0.0015889
0.00158105
0.00157305
0.00156493
0.00155669
0.00154833
0.00153986
0.0015313
0.00152264
0.0015139
0.00150507
0.00149618
0.00148722
0.00147819
0.00146912
0.00145999
0.00145082
0.00144162
0.00143238
0.0014231
0.00141381
0.00140449
0.00139516
0.00138582
0.00137646
0.0013671
0.00135773
0.00134836
0.00133899
0.00132962
0.00132026
0.00131089
0.00130154
0.00129219
0.00128284
0.00127351
0.00126417
0.00125485
0.00124553
0.00123621
0.0012269
0.00121758
0.00120827
0.00119896
0.00118964
0.00118031
0.00117098
0.00116164
0.00115228
0.00114291
0.00113352
0.00112411
0.00111467
0.00110521
0.00109571
0.00108618
0.00107661
0.001067
0.00105735
0.00104764
0.00103788
0.00102807
0.00101819
0.00100825
0.000998236
0.00098815
0.000977984
0.000967732
0.00095739
0.00094695
0.000936406
0.000925751
0.000914978
0.000904079
0.000893043
0.000881863
0.000870526
0.000859021
0.00084734
0.000835471
0.0008234
0.000811112
0.000798589
0.000785812
0.000772758
0.000759403
0.000745717
0.000731669
0.00071722
0.000702328
0.000686942
0.000671004
0.000654446
0.00063719
0.000619141
0.000600187
0.000580196
0.000559006
0.000536422
0.000512205
0.000486059
0.000457617
0.000426422
0.00039189
0.000353264
0.000309562
0.000259521
0.000201582
0.00013421
5.86966e-05
3.17441e-06
2.82974e-05
0.000166051
0.000326295
0.000471137
0.000597485
0.000707424
0.000803655
0.000888626
0.000964362
0.00103249
0.00109431
0.00115084
0.00120289
0.0012511
0.00129599
0.00133798
0.00137741
0.00141454
0.00144962
0.00148281
0.0015143
0.0015442
0.00157263
0.00159969
0.00162546
0.00165003
0.00167344
0.00169575
0.00171703
0.00173731
0.00175662
0.00177502
0.00179252
0.00180917
0.00182499
0.00184
0.00185422
0.00186769
0.00188041
0.00189242
0.00190372
0.00191434
0.00192429
0.00193359
0.00194226
0.00195029
0.00195772
0.00196456
0.00197081
0.00197649
0.00198162
0.0019862
0.00199024
0.00199376
0.00199677
0.00199928
0.0020013
0.00200283
0.00200389
0.00200449
0.00200464
0.00200434
0.00200361
0.00200245
0.00200089
0.00199891
0.00199655
0.00199381
0.0019907
0.00198723
0.00198341
0.00197925
0.00197476
0.00196995
0.00196483
0.0019594
0.00195369
0.00194769
0.00194142
0.00193489
0.0019281
0.00192107
0.0019138
0.0019063
0.00189858
0.00189066
0.00188254
0.00187422
0.00186572
0.00185705
0.00184821
0.00183922
0.00183008
0.0018208
0.00181138
0.00180184
0.00179219
0.00178242
0.00177256
0.0017626
0.00175255
0.00174242
0.00173222
0.00172196
0.00171163
0.00170124
0.00169081
0.00168033
0.00166981
0.00165926
0.00164868
0.00163807
0.00162744
0.00161679
0.00160612
0.00159544
0.00158475
0.00157406
0.00156335
0.00155264
0.00154193
0.00153122
0.0015205
0.00150979
0.00149907
0.00148834