/*--------------------------------*- C++ -*----------------------------------*\
  =========                 |
  \\      /  F ield         | OpenFOAM: The Open Source CFD Toolbox
   \\    /   O peration     | Website:  https://openfoam.org
    \\  /    A nd           | Version:  8
     \\/     M anipulation  |
\*---------------------------------------------------------------------------*/
FoamFile
{
    version     2.0;
    format      ascii;
    class       volScalarField;
    location    "3900";
    object      epsilon;
}
// * * * * * * * * * * * * * * * * * * * * * * * * * * * * * * * * * * * * * //

dimensions      [0 2 -3 0 0 0 0];

internalField   nonuniform List<scalar> 
46000
(
28.1704
101.75
183.208
258.336
329.047
397.28
463.903
529.122
593.303
656.718
719.578
782.067
843.814
905.078
965.921
1026.35
1086.36
1145.93
1205.01
1263.57
1321.56
1378.93
1435.61
1491.56
1546.71
1600.98
1654.33
1706.68
1757.97
1808.12
1857.09
1904.79
1951.17
1996.18
2039.74
2081.81
2122.33
2161.26
2198.53
2234.12
2267.97
2300.05
2330.34
2358.79
2385.38
2410.09
2432.91
2453.81
2472.8
2489.86
2504.99
2518.2
2529.49
2538.88
2546.37
2551.99
2555.76
2557.7
2557.85
2556.24
2552.92
2547.95
2541.39
2533.24
2523.53
2512.3
2499.59
2485.47
2469.97
2453.17
2435.1
2415.83
2395.42
2373.93
2351.41
2327.92
2303.53
2278.3
2252.27
2225.52
2198.1
2170.07
2141.48
2112.4
2082.87
2052.96
2022.71
1992.17
1961.4
1930.44
1899.34
1868.14
1836.9
1805.64
1774.41
1743.24
1712.18
1681.25
1650.49
1619.93
1589.59
1559.5
1529.68
1500.17
1470.97
1442.11
1413.6
1385.46
1357.7
1330.33
1303.37
1276.81
1250.68
1224.97
1199.69
1174.84
1150.42
1126.44
1102.89
1079.77
1057.08
1034.82
1012.98
991.551
970.534
949.92
929.703
909.874
890.425
871.348
852.634
834.274
816.258
798.577
781.22
764.178
747.441
730.999
714.841
698.959
683.341
667.979
652.863
637.983
623.33
608.896
594.672
580.65
566.821
553.178
539.713
526.421
513.293
500.323
487.506
474.837
462.309
449.919
437.663
425.533
413.533
401.655
389.894
378.246
366.709
355.289
343.99
332.796
321.702
310.704
299.801
288.985
278.259
267.623
257.071
246.6
236.208
225.893
215.651
205.478
195.371
185.324
175.331
165.386
155.482
145.609
135.756
125.91
116.066
106.22
96.3358
86.3835
76.3282
66.1253
55.7167
45.025
33.9515
22.4103
10.7053
2.31373
28.148
101.709
183.175
258.321
329.043
397.281
463.905
529.124
593.305
656.719
719.579
782.069
843.815
905.079
965.922
1026.35
1086.36
1145.93
1205.01
1263.57
1321.56
1378.93
1435.61
1491.56
1546.7
1600.98
1654.33
1706.68
1757.96
1808.12
1857.08
1904.79
1951.17
1996.18
2039.74
2081.81
2122.33
2161.25
2198.53
2234.11
2267.97
2300.05
2330.33
2358.78
2385.38
2410.09
2432.9
2453.81
2472.8
2489.86
2504.99
2518.2
2529.49
2538.87
2546.37
2551.98
2555.75
2557.69
2557.84
2556.24
2552.92
2547.95
2541.39
2533.24
2523.53
2512.29
2499.59
2485.46
2469.97
2453.16
2435.1
2415.83
2395.42
2373.92
2351.4
2327.92
2303.53
2278.29
2252.27
2225.52
2198.1
2170.06
2141.48
2112.39
2082.87
2052.95
2022.7
1992.16
1961.39
1930.43
1899.33
1868.14
1836.89
1805.63
1774.4
1743.24
1712.17
1681.25
1650.49
1619.92
1589.58
1559.49
1529.68
1500.16
1470.97
1442.1
1413.59
1385.45
1357.69
1330.33
1303.36
1276.81
1250.68
1224.97
1199.69
1174.84
1150.42
1126.44
1102.89
1079.77
1057.08
1034.82
1012.98
991.549
970.532
949.918
929.7
909.871
890.423
871.346
852.632
834.272
816.256
798.575
781.218
764.176
747.439
730.997
714.84
698.957
683.339
667.977
652.861
637.981
623.329
608.895
594.671
580.648
566.819
553.176
539.712
526.419
513.291
500.322
487.505
474.835
462.308
449.917
437.662
425.532
413.532
401.654
389.893
378.245
366.708
355.288
343.989
332.796
321.701
310.704
299.8
288.984
278.258
267.622
257.07
246.599
236.207
225.892
215.65
205.478
195.37
185.323
175.331
165.386
155.482
145.609
135.756
125.91
116.066
106.22
96.3357
86.3835
76.3281
66.1253
55.7167
45.0251
33.9516
22.4104
10.7053
2.31373
110.499
93.765
118.314
147.92
178.9
210.559
242.716
275.173
307.891
340.858
373.994
407.324
440.783
474.38
508.109
541.951
575.879
609.859
643.857
677.83
711.736
745.527
779.156
812.572
845.723
878.555
911.014
943.046
974.595
1005.61
1036.03
1065.8
1094.87
1123.2
1150.72
1177.39
1203.16
1227.99
1251.83
1274.65
1296.41
1317.07
1336.59
1354.96
1372.14
1388.12
1402.87
1416.37
1428.62
1439.61
1449.32
1457.76
1464.93
1470.83
1475.46
1478.85
1481
1481.93
1481.66
1480.21
1477.63
1473.94
1469.19
1463.39
1456.55
1448.7
1439.88
1430.13
1419.48
1407.98
1395.66
1382.56
1368.74
1354.22
1339.06
1323.3
1306.98
1290.14
1272.83
1255.09
1236.97
1218.49
1199.71
1180.67
1161.4
1141.93
1122.32
1102.58
1082.76
1062.89
1043
1023.12
1003.28
983.496
963.806
944.231
924.791
905.509
886.404
867.493
848.794
830.32
812.087
794.106
776.389
758.945
741.782
724.908
708.329
692.049
676.074
660.406
645.046
629.997
615.258
600.828
586.707
572.892
559.381
546.171
533.257
520.636
508.303
496.252
484.479
472.977
461.74
450.762
440.037
429.558
419.318
409.31
399.527
389.963
380.609
371.46
362.508
353.746
345.168
336.767
328.536
320.469
312.559
304.801
297.189
289.716
282.377
275.167
268.082
261.115
254.262
247.519
240.882
234.346
227.909
221.565
215.313
209.149
203.072
197.079
191.167
185.335
179.578
173.897
168.288
162.756
157.297
151.908
146.584
141.324
136.126
130.989
125.911
120.893
115.932
111.025
106.175
101.379
96.6361
91.9453
87.3049
82.7135
78.1691
73.6698
69.2133
64.7971
60.4185
56.075
51.767
47.4917
43.2397
39.0035
34.7751
30.5457
26.3066
22.052
17.7926
13.6097
9.95586
11.6199
110.54
93.7603
118.306
147.914
178.895
210.554
242.712
275.168
307.886
340.852
373.988
407.317
440.776
474.373
508.101
541.942
575.87
609.85
643.847
677.819
711.725
745.516
779.144
812.559
845.71
878.541
911
943.031
974.58
1005.59
1036.01
1065.78
1094.86
1123.18
1150.7
1177.37
1203.14
1227.97
1251.81
1274.63
1296.39
1317.04
1336.57
1354.94
1372.12
1388.1
1402.85
1416.35
1428.6
1439.59
1449.3
1457.74
1464.91
1470.8
1475.44
1478.83
1480.97
1481.9
1481.63
1480.19
1477.61
1473.92
1469.17
1463.36
1456.52
1448.68
1439.86
1430.11
1419.46
1407.96
1395.64
1382.54
1368.72
1354.2
1339.04
1323.28
1306.96
1290.12
1272.81
1255.07
1236.95
1218.47
1199.7
1180.65
1161.38
1141.92
1122.3
1102.57
1082.75
1062.88
1042.99
1023.1
1003.26
983.481
963.791
944.216
924.777
905.495
886.39
867.48
848.781
830.308
812.075
794.094
776.377
758.933
741.77
724.897
708.318
692.039
676.064
660.396
645.037
629.987
615.248
600.819
586.698
572.884
559.373
546.163
533.249
520.628
508.295
496.245
484.472
472.97
461.733
450.756
440.031
429.552
419.312
409.304
399.522
389.957
380.604
371.455
362.503
353.742
345.164
336.762
328.532
320.465
312.555
304.797
297.185
289.712
282.373
275.164
268.078
261.111
254.259
247.516
240.879
234.343
227.906
221.563
215.31
209.146
203.069
197.076
191.165
185.332
179.576
173.894
168.286
162.754
157.296
151.906
146.582
141.322
136.125
130.987
125.91
120.891
115.93
111.024
106.173
101.378
96.6349
91.9442
87.3039
82.7125
78.1682
73.6689
69.2125
64.7964
60.4178
56.0743
51.7664
47.4912
43.2392
39.0031
34.7747
30.5454
26.3064
22.0518
17.7925
13.6097
9.95589
11.6199
200.883
124.362
126.895
141.54
160.215
180.866
202.714
225.364
248.599
272.306
296.398
320.822
345.528
370.485
395.663
421.033
446.565
472.225
497.98
523.793
549.626
575.439
601.192
626.842
652.345
677.656
702.732
727.525
751.991
776.082
799.753
822.958
845.653
867.793
889.335
910.238
930.461
949.965
968.713
986.671
1003.8
1020.08
1035.48
1049.97
1063.53
1076.13
1087.76
1098.41
1108.06
1116.71
1124.34
1130.95
1136.54
1141.12
1144.69
1147.26
1148.83
1149.42
1149.05
1147.74
1145.52
1142.39
1138.41
1133.57
1127.91
1121.44
1114.19
1106.2
1097.49
1088.1
1078.05
1067.4
1056.16
1044.38
1032.08
1019.32
1006.12
992.513
978.543
964.242
949.644
934.784
919.694
904.407
888.954
873.367
857.674
841.905
826.086
810.245
794.406
778.593
762.83
747.136
731.533
716.04
700.673
685.45
670.386
655.494
640.787
626.277
611.974
597.888
584.026
570.396
557.003
543.854
530.952
518.3
505.901
493.757
481.868
470.236
458.858
447.735
436.865
426.245
415.873
405.746
395.859
386.211
376.795
367.607
358.644
349.899
341.368
333.044
324.924
317
309.268
301.721
294.354
287.161
280.136
273.273
266.567
260.012
253.603
247.333
241.199
235.193
229.313
223.551
217.904
212.367
206.936
201.606
196.373
191.232
186.182
181.217
176.334
171.531
166.803
162.149
157.565
153.051
148.604
144.222
139.903
135.644
131.445
127.302
123.217
119.187
115.214
111.292
107.422
103.601
99.8287
96.1032
92.4241
88.7907
85.2021
81.6575
78.1565
74.6985
71.2826
67.9091
64.5772
61.2862
58.0355
54.8243
51.6519
48.5178
45.4213
42.3624
39.3415
36.3594
33.4145
30.5071
27.6394
24.8172
22.0545
19.3838
16.8861
14.7995
14.1408
24.1202
200.903
124.361
126.891
141.535
160.211
180.861
202.709
225.36
248.594
272.301
296.393
320.816
345.522
370.479
395.656
421.026
446.558
472.218
497.973
523.785
549.618
575.431
601.183
626.833
652.335
677.647
702.722
727.515
751.98
776.071
799.742
822.947
845.641
867.781
889.323
910.226
930.448
949.952
968.7
986.658
1003.79
1020.07
1035.47
1049.96
1063.51
1076.12
1087.75
1098.4
1108.05
1116.69
1124.32
1130.94
1136.53
1141.11
1144.68
1147.24
1148.82
1149.41
1149.04
1147.73
1145.5
1142.38
1138.39
1133.56
1127.89
1121.42
1114.18
1106.19
1097.48
1088.08
1078.04
1067.38
1056.15
1044.36
1032.07
1019.31
1006.11
992.502
978.532
964.231
949.633
934.773
919.683
904.396
888.944
873.357
857.664
841.895
826.077
810.236
794.397
778.585
762.821
747.128
731.525
716.032
700.665
685.443
670.378
655.487
640.78
626.27
611.968
597.881
584.02
570.39
556.997
543.848
530.946
518.294
505.896
493.752
481.863
470.231
458.854
447.731
436.861
426.241
415.869
405.742
395.856
386.207
376.791
367.604
358.641
349.896
341.365
333.041
324.921
316.997
309.265
301.718
294.351
287.158
280.133
273.271
266.565
260.01
253.601
247.331
241.197
235.191
229.311
223.549
217.902
212.366
206.934
201.604
196.371
191.231
186.18
181.215
176.333
171.529
166.802
162.148
157.564
153.05
148.603
144.221
139.902
135.643
131.444
127.301
123.216
119.186
115.213
111.292
107.421
103.601
99.828
96.1026
92.4235
88.7901
85.2015
81.657
78.156
74.698
71.2821
67.9087
64.5768
61.2858
58.0351
54.8239
51.6516
48.5175
45.4211
42.3621
39.3413
36.3592
33.4143
30.507
27.6393
24.8171
22.0544
19.3837
16.886
14.7995
14.1409
24.1203
286.532
159.275
146.094
151.53
163.263
178.024
194.568
212.296
230.878
250.117
269.88
290.078
310.642
331.518
352.665
374.042
395.613
417.342
439.195
461.135
483.126
505.13
527.111
549.03
570.847
592.522
614.015
635.285
656.292
676.993
697.349
717.318
736.861
755.938
774.51
792.541
809.993
826.833
843.026
858.541
873.348
887.42
900.73
913.254
924.972
935.865
945.915
955.108
963.434
970.882
977.447
983.124
987.912
991.812
994.829
996.968
998.238
998.651
998.221
996.964
994.9
992.05
988.436
984.074
978.986
973.192
966.718
959.59
951.836
943.483
934.563
925.105
915.141
904.702
893.819
882.525
870.85
858.828
846.489
833.864
820.983
807.878
794.577
781.109
767.502
753.783
739.979
726.114
712.212
698.298
684.393
670.518
656.693
642.937
629.267
615.7
602.252
588.937
575.767
562.756
549.913
537.25
524.774
512.494
500.417
488.549
476.895
465.459
454.244
443.255
432.491
421.955
411.647
401.568
391.716
382.09
372.689
363.511
354.553
345.812
337.285
328.968
320.858
312.95
305.24
297.723
290.394
283.25
276.284
269.492
262.868
256.408
250.106
243.958
237.957
232.099
226.378
220.791
215.331
209.994
204.775
199.67
194.674
189.782
184.99
180.295
175.692
171.177
166.747
162.399
158.128
153.932
149.807
145.752
141.762
137.836
133.972
130.169
126.423
122.733
119.098
115.514
111.982
108.5
105.066
101.679
98.3404
95.0466
91.7969
88.59
85.425
82.3012
79.2178
76.1744
73.1704
70.2053
67.2788
64.3907
61.5407
58.7287
55.9544
53.2182
50.5201
47.86
45.2383
42.6554
40.112
37.6094
35.1495
32.735
30.3695
28.0584
25.8112
23.645
21.5914
19.7135
18.1533
17.3041
18.7971
36.463
286.536
159.272
146.09
151.525
163.258
178.02
194.564
212.292
230.874
250.112
269.875
290.073
310.636
331.513
352.659
374.036
395.607
417.336
439.189
461.128
483.119
505.123
527.104
549.023
570.839
592.514
614.007
635.277
656.283
676.985
697.34
717.309
736.852
755.928
774.501
792.531
809.984
826.823
843.016
858.531
873.338
887.41
900.719
913.244
924.962
935.854
945.904
955.098
963.423
970.872
977.436
983.113
987.901
991.802
994.818
996.957
998.228
998.641
998.211
996.954
994.89
992.04
988.426
984.065
978.976
973.183
966.709
959.581
951.827
943.474
934.554
925.097
915.133
904.693
893.811
882.517
870.842
858.82
846.481
833.856
820.976
807.871
794.57
781.102
767.496
753.777
739.972
726.108
712.206
698.292
684.387
670.512
656.687
642.931
629.262
615.695
602.247
588.932
575.763
562.752
549.909
537.246
524.77
512.491
500.414
488.545
476.891
465.455
454.241
443.251
432.488
421.952
411.644
401.565
391.713
382.088
372.687
363.509
354.551
345.81
337.283
328.966
320.856
312.948
305.238
297.721
290.392
283.248
276.282
269.49
262.867
256.407
250.105
243.956
237.955
232.097
226.377
220.79
215.33
209.993
204.774
199.669
194.673
189.781
184.989
180.294
175.691
171.176
166.747
162.398
158.127
153.931
149.807
145.751
141.761
137.835
133.972
130.168
126.422
122.733
119.097
115.514
111.982
108.499
105.065
101.679
98.34
95.0463
91.7966
88.5897
85.4247
82.3009
79.2176
76.1741
73.1701
70.205
67.2786
64.3905
61.5405
58.7285
55.9542
53.218
50.5199
47.8599
45.2382
42.6552
40.1118
37.6093
35.1494
32.735
30.3694
28.0583
25.8111
23.645
21.5914
19.7135
18.1533
17.3042
18.7973
36.4631
368.808
195.369
168.779
167.011
173.656
184.34
197.378
211.964
227.651
244.168
261.339
279.038
297.176
315.68
334.495
353.573
372.868
392.342
411.957
431.675
451.459
471.273
491.081
510.845
530.528
550.093
569.502
588.717
607.7
626.414
644.82
662.881
680.56
697.821
714.628
730.947
746.745
761.989
776.648
790.693
804.097
816.833
828.878
840.209
850.807
860.653
869.733
878.032
885.54
892.248
898.15
903.242
907.521
910.99
913.65
915.509
916.572
916.851
916.358
915.107
913.115
910.401
906.983
902.879
898.108
892.691
886.651
880.011
872.798
865.037
856.757
847.984
838.748
829.077
819
808.547
797.747
786.628
775.221
763.553
751.653
739.549
727.267
714.834
702.276
689.617
676.883
664.095
651.277
638.45
625.634
612.849
600.112
587.442
574.855
562.365
549.986
537.733
525.617
513.649
501.839
490.196
478.729
467.445
456.349
445.449
434.747
424.249
413.957
403.874
394.001
384.339
374.89
365.652
356.626
347.809
339.201
330.8
322.603
314.607
306.809
299.206
291.795
284.57
277.529
270.667
263.98
257.463
251.111
244.92
238.884
233.001
227.263
221.667
216.208
210.881
205.682
200.605
195.646
190.8
186.064
181.433
176.903
172.469
168.127
163.875
159.708
155.622
151.615
147.683
143.822
140.031
136.305
132.643
129.042
125.5
122.016
118.587
115.211
111.887
108.612
105.385
102.206
99.0716
95.9822
92.9364
89.9335
86.9723
84.0516
81.1706
78.3285
75.5246
72.7585
70.0296
67.3377
64.6825
62.0639
59.4818
56.9362
54.4274
51.9554
49.5209
47.1241
44.766
42.4476
40.1703
37.9359
35.7469
33.6067
31.5202
29.4943
27.5392
25.6711
23.9167
22.3234
20.9822
20.0931
20.2016
23.5375
48.4611
368.808
195.365
168.775
167.007
173.652
184.335
197.374
211.96
227.646
244.164
261.334
279.033
297.171
315.675
334.49
353.567
372.863
392.337
411.951
431.669
451.453
471.267
491.074
510.838
530.521
550.086
569.495
588.71
607.693
626.407
644.812
662.873
680.552
697.813
714.621
730.94
746.737
761.981
776.64
790.685
804.089
816.825
828.869
840.201
850.798
860.645
869.724
878.024
885.532
892.24
898.142
903.233
907.513
910.982
913.642
915.501
916.564
916.843
916.35
915.099
913.108
910.393
906.976
902.872
898.101
892.684
886.644
880.004
872.791
865.031
856.75
847.978
838.741
829.07
818.994
808.541
797.741
786.623
775.216
763.548
751.648
739.544
727.262
714.829
702.271
689.612
676.878
664.091
651.273
638.446
625.63
612.845
600.109
587.438
574.851
562.361
549.983
537.73
525.614
513.646
501.836
490.193
478.726
467.442
456.347
445.446
434.745
424.246
413.955
403.871
393.998
384.337
374.888
365.65
356.624
347.807
339.2
330.798
322.601
314.605
306.808
299.205
291.793
284.569
277.528
270.666
263.979
257.461
251.11
244.918
238.883
233
227.262
221.666
216.207
210.88
205.681
200.604
195.645
190.8
186.064
181.432
176.902
172.468
168.127
163.875
159.707
155.622
151.615
147.682
143.822
140.03
136.305
132.643
129.042
125.5
122.016
118.587
115.211
111.886
108.612
105.385
102.205
99.0714
95.9819
92.9362
89.9333
86.9721
84.0514
81.1705
78.3283
75.5245
72.7583
70.0295
67.3376
64.6824
62.0638
59.4817
56.9361
54.4273
51.9553
49.5208
47.124
44.7659
42.4476
40.1703
37.9359
35.7468
33.6066
31.5201
29.4943
27.5392
25.671
23.9167
22.3233
20.9822
20.0931
20.2017
23.5377
48.4612
449.301
232.211
193.255
185.195
187.645
195.129
205.528
217.825
231.462
246.098
261.51
277.541
294.08
311.037
328.343
345.939
363.776
381.808
399.993
418.292
436.666
455.078
473.492
491.871
510.179
528.38
546.437
564.315
581.977
599.388
616.512
633.314
649.759
665.814
681.444
696.618
711.305
725.473
739.096
752.144
764.592
776.416
787.593
798.103
807.926
817.047
825.45
833.123
840.056
846.239
851.668
856.338
860.247
863.396
865.789
867.429
868.324
868.483
867.918
866.641
864.668
862.015
858.7
854.74
850.153
844.959
839.18
832.838
825.958
818.563
810.68
802.335
793.555
784.366
774.796
764.872
754.623
744.074
733.254
722.19
710.907
699.432
687.791
676.008
664.108
652.114
640.05
627.936
615.794
603.644
591.505
579.397
567.335
555.336
543.416
531.589
519.869
508.267
496.795
485.464
474.283
463.261
452.406
441.724
431.222
420.904
410.775
400.839
391.099
381.557
372.214
363.072
354.132
345.392
336.853
328.514
320.372
312.426
304.674
297.114
289.741
282.554
275.548
268.72
262.066
255.582
249.264
243.108
237.109
231.263
225.565
220.011
214.596
209.316
204.166
199.141
194.238
189.451
184.777
180.211
175.749
171.387
167.12
162.946
158.86
154.859
150.938
147.096
143.328
139.632
136.005
132.443
128.944
125.506
122.126
118.804
115.535
112.32
109.156
106.04
102.972
99.9503
96.9731
94.0396
91.1486
88.2992
85.4906
82.7219
79.9922
77.3006
74.6465
72.0294
69.4488
66.9046
64.3963
61.9241
59.4878
57.0876
54.7239
52.3969
50.1073
47.8558
45.6433
43.4713
41.3413
39.2554
37.2167
35.2287
33.2966
31.4273
29.6306
27.9209
26.3205
24.865
23.6166
22.693
22.3503
23.2835
28.3071
60.2302
449.303
232.207
193.251
185.191
187.64
195.124
205.523
217.821
231.458
246.094
261.505
277.537
294.075
311.032
328.338
345.934
363.771
381.803
399.988
418.286
436.66
455.072
473.486
491.865
510.173
528.373
546.431
564.308
581.971
599.381
616.505
633.307
649.752
665.807
681.437
696.611
711.298
725.466
739.088
752.137
764.585
776.409
787.586
798.096
807.919
817.04
825.443
833.116
840.049
846.232
851.661
856.331
860.24
863.389
865.782
867.422
868.317
868.477
867.911
866.635
864.662
862.009
858.694
854.734
850.147
844.953
839.174
832.832
825.952
818.557
810.675
802.33
793.549
784.361
774.791
764.867
754.618
744.069
733.25
722.185
710.903
699.428
687.787
676.004
664.104
652.111
640.046
627.932
615.79
603.641
591.502
579.393
567.332
555.333
543.413
531.586
519.866
508.264
496.792
485.462
474.281
463.259
452.404
441.722
431.219
420.902
410.773
400.837
391.097
381.555
372.212
363.071
354.13
345.391
336.852
328.512
320.371
312.425
304.673
297.112
289.74
282.553
275.547
268.719
262.065
255.581
249.264
243.107
237.108
231.262
225.564
220.01
214.596
209.315
204.165
199.141
194.237
189.451
184.777
180.211
175.748
171.386
167.12
162.945
158.859
154.858
150.938
147.096
143.328
139.632
136.004
132.442
128.944
125.506
122.126
118.803
115.535
112.32
109.155
106.04
102.972
99.9501
96.9729
94.0394
91.1484
88.299
85.4905
82.7218
79.992
77.3004
74.6464
72.0293
69.4487
66.9045
64.3962
61.924
59.4877
57.0875
54.7238
52.3968
50.1072
47.8557
45.6433
43.4713
41.3412
39.2554
37.2166
35.2287
33.2966
31.4273
29.6306
27.9209
26.3204
24.865
23.6166
22.693
22.3503
23.2836
28.3074
60.2304
528.407
269.68
218.926
205.071
203.833
208.621
216.875
227.373
239.442
252.673
266.799
281.633
297.04
312.915
329.176
345.755
362.594
379.642
396.853
414.185
431.597
449.051
466.51
483.937
501.296
518.551
535.667
552.61
569.345
585.836
602.052
617.957
633.519
648.705
663.486
677.829
691.705
705.086
717.945
730.256
741.994
753.137
763.664
773.554
782.791
791.359
799.244
806.434
812.919
818.691
823.746
828.078
831.687
834.574
836.74
838.19
838.932
838.974
838.325
836.999
835.01
832.372
829.102
825.217
820.735
815.675
810.057
803.903
797.236
790.079
782.456
774.393
765.915
757.047
747.815
738.246
728.365
718.199
707.774
697.114
686.246
675.194
663.983
652.636
641.177
629.627
618.01
606.345
594.652
582.952
571.262
559.6
547.982
536.425
524.942
513.548
502.256
491.077
480.022
469.102
458.326
447.702
437.237
426.939
416.812
406.862
397.094
387.511
378.115
368.91
359.896
351.075
342.448
334.014
325.772
317.723
309.864
302.193
294.709
287.409
280.291
273.35
266.585
259.991
253.565
247.303
241.202
235.256
229.462
223.816
218.313
212.949
207.719
202.62
197.646
192.794
188.06
183.438
178.925
174.517
170.21
166
161.883
157.855
153.913
150.053
146.272
142.567
138.934
135.371
131.875
128.443
125.073
121.762
118.509
115.311
112.166
109.073
106.029
103.034
100.085
97.181
94.321
91.5037
88.7281
85.9933
83.2984
80.6428
78.0255
75.446
72.9035
70.3977
67.9283
65.495
63.0978
60.7367
58.4119
56.1237
53.8725
51.6591
49.4842
47.349
45.2549
43.2036
41.1974
39.2393
37.3328
35.4831
33.6966
31.9824
30.3529
28.8265
27.4311
26.2109
25.2422
24.6687
24.8018
26.4854
33.1111
71.875
528.409
269.675
218.922
205.066
203.829
208.616
216.871
227.369
239.437
252.669
266.794
281.629
297.035
312.91
329.171
345.75
362.589
379.637
396.848
414.179
431.592
449.046
466.504
483.931
501.29
518.545
535.662
552.604
569.339
585.83
602.045
617.95
633.512
648.699
663.479
677.822
691.699
705.08
717.939
730.249
741.988
753.131
763.657
773.548
782.785
791.353
799.238
806.427
812.912
818.685
823.739
828.072
831.681
834.567
836.734
838.184
838.926
838.968
838.319
836.994
835.004
832.366
829.097
825.212
820.73
815.67
810.052
803.898
797.231
790.074
782.452
774.389
765.91
757.042
747.811
738.241
728.361
718.195
707.77
697.11
686.242
675.191
663.98
652.633
641.174
629.624
618.007
606.341
594.649
582.949
571.259
559.597
547.979
536.422
524.94
513.546
502.254
491.075
480.02
469.1
458.324
447.7
437.235
426.937
416.81
406.861
397.092
387.509
378.114
368.908
359.895
351.074
342.447
334.012
325.771
317.722
309.862
302.192
294.708
287.408
280.29
273.349
266.584
259.99
253.564
247.303
241.201
235.255
229.461
223.815
218.312
212.948
207.718
202.619
197.646
192.794
188.059
183.437
178.925
174.517
170.21
165.999
161.882
157.854
153.912
150.052
146.272
142.566
138.934
135.371
131.875
128.443
125.073
121.762
118.508
115.31
112.166
109.073
106.029
103.034
100.085
97.1808
94.3208
91.5035
88.7279
85.9931
83.2983
80.6427
78.0254
75.4458
72.9034
70.3976
67.9282
65.4949
63.0977
60.7367
58.4118
56.1236
53.8725
51.659
49.4842
47.349
45.2548
43.2036
41.1974
39.2392
37.3328
35.483
33.6966
31.9824
30.3529
28.8265
27.431
26.2109
25.2422
24.6687
24.8019
26.4855
33.1115
71.8753
606.446
307.706
245.541
226.203
221.598
224.007
230.432
239.442
250.25
262.38
275.52
289.454
304.024
319.11
334.617
350.468
366.597
382.947
399.469
416.116
432.846
449.618
466.394
483.136
499.81
516.378
532.808
549.063
565.111
580.919
596.453
611.682
626.575
641.1
655.228
668.929
682.176
694.943
707.202
718.931
730.105
740.704
750.708
760.098
768.858
776.973
784.431
791.219
797.33
802.755
807.49
811.531
814.878
817.53
819.49
820.763
821.356
821.276
820.533
819.139
817.107
814.451
811.189
807.334
802.906
797.921
792.401
786.366
779.837
772.837
765.389
757.517
749.245
740.599
731.601
722.279
712.656
702.758
692.609
682.234
671.657
660.902
649.992
638.951
627.8
616.561
605.255
593.902
582.521
571.131
559.75
548.395
537.082
525.825
514.64
503.539
492.535
481.639
470.863
460.216
449.707
439.343
429.134
419.084
409.2
399.486
389.948
380.588
371.409
362.415
353.605
344.982
336.547
328.298
320.236
312.361
304.67
297.162
289.835
282.686
275.714
268.916
262.287
255.826
249.528
243.389
237.407
231.576
225.894
220.356
214.957
209.694
204.563
199.559
194.678
189.916
185.269
180.732
176.302
171.975
167.747
163.614
159.572
155.618
151.749
147.96
144.25
140.614
137.05
133.554
130.125
126.759
123.454
120.208
117.019
113.885
110.804
107.774
104.794
101.861
98.9749
96.1335
93.3358
90.5808
87.8673
85.1946
82.5618
79.9683
77.4133
74.8961
72.4163
69.9736
67.5677
65.1984
62.8658
60.57
58.3114
56.0904
53.9077
51.7642
49.661
47.5996
45.5817
43.6096
41.6861
39.8149
38.0006
36.2492
34.5688
32.9701
31.4684
30.0857
28.8552
27.8296
27.099
26.8328
27.3982
29.7877
37.967
83.4762
606.448
307.701
245.536
226.199
221.593
224.002
230.428
239.438
250.245
262.375
275.515
289.449
304.019
319.105
334.612
350.463
366.592
382.942
399.464
416.111
432.841
449.612
466.388
483.131
499.804
516.373
532.802
549.057
565.105
580.913
596.447
611.676
626.569
641.094
655.222
668.923
682.17
694.937
707.196
718.925
730.099
740.698
750.702
760.092
768.852
776.967
784.425
791.213
797.324
802.749
807.484
811.526
814.872
817.524
819.485
820.758
821.351
821.27
820.527
819.134
817.102
814.447
811.184
807.33
802.901
797.917
792.397
786.361
779.832
772.832
765.385
757.513
749.241
740.595
731.598
722.275
712.653
702.754
692.605
682.231
671.654
660.899
649.989
638.948
627.797
616.558
605.252
593.899
582.518
571.129
559.748
548.393
537.08
525.823
514.638
503.537
492.533
481.637
470.861
460.214
449.705
439.342
429.132
419.082
409.198
399.485
389.946
380.586
371.408
362.413
353.604
344.981
336.545
328.297
320.235
312.36
304.669
297.161
289.834
282.685
275.714
268.915
262.286
255.825
249.527
243.388
237.406
231.576
225.893
220.355
214.957
209.694
204.563
199.558
194.677
189.915
185.268
180.732
176.302
171.975
167.746
163.613
159.572
155.618
151.749
147.96
144.249
140.614
137.049
133.554
130.124
126.758
123.453
120.207
117.019
113.885
110.804
107.774
104.794
101.861
98.9747
96.1333
93.3357
90.5806
87.8672
85.1945
82.5617
79.9682
77.4131
74.896
72.4162
69.9735
67.5676
65.1983
62.8657
60.5699
58.3113
56.0903
53.9076
51.7641
49.661
47.5995
45.5816
43.6095
41.6861
39.8149
38.0006
36.2492
34.5687
32.97
31.4684
30.0856
28.8551
27.8295
27.0989
26.8328
27.3982
29.7878
37.9675
83.4765
683.916
346.386
273.008
248.394
240.632
240.877
245.689
253.424
263.182
274.419
286.779
300.016
313.95
328.447
343.398
358.717
374.331
390.177
406.201
422.352
438.586
454.86
471.135
487.371
503.534
519.587
535.497
551.228
566.748
582.026
597.029
611.726
626.087
640.084
653.687
666.869
679.603
691.864
703.629
714.873
725.575
735.716
745.276
754.239
762.589
770.313
777.398
783.834
789.612
794.728
799.174
802.95
806.053
808.485
810.249
811.348
811.79
811.581
810.732
809.255
807.16
804.463
801.179
797.323
792.912
787.963
782.497
776.533
770.091
763.194
755.864
748.123
739.996
731.505
722.674
713.528
704.09
694.384
684.435
674.265
663.899
653.359
642.668
631.847
620.918
609.903
598.82
587.69
576.532
565.363
554.201
543.062
531.961
520.914
509.935
499.035
488.228
477.525
466.936
456.471
446.138
435.946
425.902
416.013
406.283
396.719
387.324
378.101
369.055
360.187
351.499
342.992
334.667
326.524
318.563
310.783
303.183
295.761
288.517
281.446
274.548
267.82
261.258
254.859
248.62
242.538
236.608
230.828
225.193
219.7
214.344
209.121
204.028
199.06
194.213
189.484
184.867
180.36
175.959
171.659
167.456
163.348
159.331
155.401
151.554
147.788
144.099
140.485
136.942
133.467
130.059
126.714
123.43
120.205
117.038
113.926
110.867
107.859
104.901
101.991
99.128
96.3101
93.5363
90.8056
88.1169
85.4695
82.8625
80.2953
77.7672
75.2777
72.8264
70.4129
68.037
65.6987
63.3982
61.1357
58.9116
56.7266
54.5815
52.4775
50.4159
48.3985
46.4275
44.5056
42.6361
40.8235
39.0731
37.3922
35.79
34.2794
32.8781
31.6114
30.5179
29.6587
29.1375
29.15
30.1192
33.1875
42.8948
95.0991
683.917
346.381
273.003
248.39
240.627
240.873
245.685
253.42
263.178
274.414
286.774
300.011
313.946
328.442
343.394
358.712
374.326
390.172
406.196
422.347
438.581
454.855
471.129
487.366
503.529
519.582
535.491
551.222
566.743
582.02
597.023
611.72
626.082
640.078
653.681
666.863
679.597
691.859
703.623
714.867
725.57
735.711
745.271
754.234
762.584
770.307
777.392
783.828
789.607
794.722
799.169
802.945
806.048
808.48
810.244
811.343
811.785
811.577
810.728
809.25
807.156
804.459
801.175
797.319
792.907
787.959
782.493
776.529
770.087
763.19
755.86
748.12
739.992
731.501
722.67
713.524
704.086
694.381
684.432
674.262
663.896
653.356
642.665
631.844
620.916
609.9
598.818
587.688
576.53
565.361
554.199
543.06
531.959
520.912
509.933
499.033
488.226
477.523
466.934
456.469
446.136
435.945
425.901
416.011
406.282
396.717
387.322
378.1
369.054
360.186
351.498
342.991
334.666
326.523
318.562
310.782
303.182
295.76
288.516
281.446
274.547
267.819
261.257
254.858
248.619
242.537
236.608
230.828
225.193
219.699
214.343
209.121
204.027
199.059
194.213
189.483
184.867
180.36
175.958
171.658
167.456
163.348
159.331
155.4
151.554
147.787
144.099
140.484
136.941
133.467
130.058
126.713
123.43
120.205
117.038
113.926
110.867
107.859
104.901
101.991
99.1278
96.3099
93.5361
90.8054
88.1167
85.4693
82.8623
80.2952
77.7671
75.2776
72.8263
70.4127
68.0369
65.6986
63.3981
61.1356
58.9115
56.7265
54.5814
52.4774
50.4159
48.3985
46.4274
44.5055
42.6361
40.8234
39.0731
37.3921
35.79
34.2794
32.878
31.6113
30.5178
29.6586
29.1375
29.15
30.1192
33.1876
42.8953
95.0995
761.225
385.797
301.326
271.563
260.783
259.015
262.367
268.981
277.842
288.336
300.065
312.753
326.199
340.25
354.788
369.716
384.954
400.434
416.095
431.885
447.755
463.662
479.563
495.419
511.194
526.851
542.357
557.677
572.78
587.633
602.206
616.47
630.395
643.953
657.118
669.862
682.161
693.991
705.328
716.153
726.443
736.181
745.349
753.932
761.914
769.284
776.03
782.143
787.615
792.442
796.618
800.141
803.011
805.229
806.798
807.722
808.008
807.664
806.698
805.123
802.949
800.191
796.863
792.981
788.56
783.618
778.174
772.247
765.856
759.024
751.771
744.12
736.092
727.711
719
709.981
700.678
691.113
681.311
671.293
661.083
650.701
640.171
629.513
618.748
607.897
596.978
586.011
575.014
564.004
552.999
542.014
531.064
520.163
509.327
498.566
487.893
477.319
466.854
456.509
446.291
436.208
426.268
416.477
406.841
397.364
388.052
378.907
369.933
361.133
352.507
344.058
335.786
327.692
319.775