/*--------------------------------*- C++ -*----------------------------------*\
  =========                 |
  \\      /  F ield         | OpenFOAM: The Open Source CFD Toolbox
   \\    /   O peration     | Website:  https://openfoam.org
    \\  /    A nd           | Version:  8
     \\/     M anipulation  |
\*---------------------------------------------------------------------------*/
FoamFile
{
    version     2.0;
    format      ascii;
    class       volScalarField;
    location    "3900";
    object      k;
}
// * * * * * * * * * * * * * * * * * * * * * * * * * * * * * * * * * * * * * //

dimensions      [0 2 -2 0 0 0 0];

internalField   nonuniform List<scalar> 
46000
(
0.0224199
0.0850089
0.152987
0.215713
0.27476
0.331736
0.387367
0.441823
0.495412
0.548362
0.600849
0.653026
0.704583
0.755736
0.806539
0.856997
0.907104
0.956837
1.00617
1.05507
1.10349
1.15138
1.19872
1.24543
1.29147
1.3368
1.38134
1.42505
1.46787
1.50975
1.55063
1.59046
1.62919
1.66677
1.70314
1.73827
1.77211
1.8046
1.83573
1.86544
1.89371
1.9205
1.94578
1.96954
1.99174
2.01238
2.03143
2.04888
2.06474
2.07898
2.09162
2.10265
2.11208
2.11991
2.12617
2.13087
2.13401
2.13564
2.13576
2.13442
2.13165
2.12751
2.12203
2.11523
2.10712
2.09774
2.08714
2.07535
2.06241
2.04838
2.0333
2.01721
2.00018
1.98223
1.96343
1.94382
1.92346
1.90239
1.88066
1.85833
1.83544
1.81203
1.78817
1.76389
1.73923
1.71426
1.689
1.66351
1.63781
1.61197
1.586
1.55996
1.53387
1.50777
1.48169
1.45567
1.42974
1.40391
1.37823
1.35271
1.32738
1.30226
1.27736
1.25272
1.22834
1.20424
1.18043
1.15694
1.13376
1.11091
1.08839
1.06622
1.0444
1.02293
1.00182
0.981073
0.960686
0.94066
0.920996
0.901691
0.882745
0.864154
0.845915
0.828022
0.810472
0.793259
0.776376
0.759818
0.743577
0.727647
0.71202
0.696688
0.681643
0.666878
0.652384
0.638153
0.624176
0.610445
0.596952
0.583689
0.570647
0.557819
0.545195
0.532769
0.520533
0.508479
0.496601
0.484891
0.473343
0.46195
0.450706
0.439605
0.428642
0.417812
0.407109
0.396529
0.386067
0.37572
0.365486
0.355357
0.345336
0.335417
0.325596
0.315869
0.306234
0.296698
0.287263
0.277915
0.268651
0.259467
0.250361
0.241329
0.232373
0.223491
0.214679
0.205935
0.197258
0.188644
0.180091
0.171596
0.163156
0.154766
0.146421
0.138116
0.129846
0.121601
0.113372
0.10515
0.0969298
0.0887073
0.080453
0.0721417
0.0637444
0.0552237
0.0465312
0.0376024
0.0283546
0.0187162
0.00894071
0.00183508
0.0224353
0.0850414
0.153016
0.215726
0.274764
0.331738
0.387368
0.441824
0.495414
0.548363
0.60085
0.653027
0.704583
0.755737
0.806539
0.856998
0.907104
0.956837
1.00617
1.05507
1.10348
1.15138
1.19872
1.24543
1.29147
1.33679
1.38134
1.42505
1.46787
1.50975
1.55063
1.59046
1.62919
1.66677
1.70314
1.73827
1.7721
1.8046
1.83573
1.86544
1.8937
1.92049
1.94578
1.96953
1.99174
2.01237
2.03142
2.04888
2.06473
2.07898
2.09162
2.10265
2.11207
2.11991
2.12617
2.13086
2.13401
2.13563
2.13576
2.13442
2.13165
2.1275
2.12203
2.11522
2.10712
2.09774
2.08714
2.07534
2.06241
2.04838
2.0333
2.01721
2.00017
1.98223
1.96343
1.94382
1.92346
1.90239
1.88066
1.85833
1.83543
1.81203
1.78816
1.76388
1.73923
1.71425
1.689
1.6635
1.63781
1.61196
1.586
1.55995
1.53386
1.50776
1.48169
1.45567
1.42973
1.40391
1.37823
1.35271
1.32737
1.30225
1.27736
1.25271
1.22834
1.20424
1.18043
1.15693
1.13376
1.1109
1.08839
1.06622
1.0444
1.02293
1.00182
0.981071
0.960683
0.940657
0.920993
0.901689
0.882743
0.864152
0.845913
0.82802
0.81047
0.793257
0.776374
0.759816
0.743575
0.727645
0.712018
0.696686
0.681641
0.666876
0.652382
0.638151
0.624174
0.610444
0.596951
0.583688
0.570646
0.557817
0.545194
0.532768
0.520532
0.508478
0.4966
0.48489
0.473342
0.461949
0.450705
0.439604
0.428641
0.417811
0.407108
0.396528
0.386066
0.375719
0.365485
0.355356
0.345335
0.335416
0.325595
0.315868
0.306233
0.296697
0.287262
0.277914
0.26865
0.259466
0.250361
0.241329
0.232372
0.22349
0.214679
0.205935
0.197257
0.188643
0.180091
0.171596
0.163155
0.154765
0.146421
0.138116
0.129845
0.1216
0.113372
0.10515
0.0969296
0.0887072
0.0804529
0.0721416
0.0637443
0.0552237
0.0465312
0.0376024
0.0283546
0.0187162
0.00894072
0.00183508
0.0846743
0.239514
0.35002
0.443309
0.527521
0.605918
0.680068
0.751123
0.819836
0.886703
0.951952
1.01589
1.07866
1.1404
1.20122
1.26118
1.32032
1.37866
1.43621
1.49295
1.54888
1.60397
1.65819
1.71151
1.76388
1.81528
1.86564
1.91494
1.96312
2.01014
2.05594
2.10048
2.14372
2.1856
2.22609
2.26514
2.30271
2.33876
2.37326
2.40617
2.43745
2.46709
2.49506
2.52132
2.54587
2.56869
2.58976
2.60907
2.62663
2.64242
2.65644
2.6687
2.67921
2.68798
2.69502
2.70034
2.70397
2.70594
2.70626
2.70497
2.70211
2.69771
2.69182
2.68446
2.67566
2.66547
2.65392
2.64105
2.62692
2.61157
2.59506
2.57742
2.55871
2.53899
2.5183
2.4967
2.47424
2.45097
2.42695
2.40222
2.37685
2.35087
2.32434
2.29732
2.26984
2.24197
2.21374
2.1852
2.15639
2.12737
2.09817
2.06883
2.03939
2.0099
1.98037
1.95086
1.9214
1.89201
1.86272
1.83356
1.80457
1.77576
1.74715
1.71878
1.69065
1.66279
1.63521
1.60793
1.58097
1.55432
1.52802
1.50205
1.47644
1.45118
1.42629
1.40177
1.37762
1.35384
1.33043
1.3074
1.28473
1.26244
1.24052
1.21895
1.19775
1.1769
1.1564
1.13623
1.11641
1.09691
1.07772
1.05885
1.04028
1.02201
1.00402
0.986303
0.968855
0.951662
0.934717
0.91801
0.90153
0.885269
0.869217
0.853365
0.837703
0.822223
0.806915
0.791772
0.776784
0.761943
0.747242
0.732672
0.718227
0.703898
0.689679
0.675565
0.661547
0.64762
0.633783
0.620029
0.606351
0.592743
0.579199
0.565714
0.552284
0.538902
0.525571
0.512283
0.499032
0.485812
0.472619
0.459447
0.446291
0.433146
0.420004
0.406857
0.393701
0.380528
0.36733
0.354095
0.340814
0.327472
0.314055
0.300545
0.286922
0.273161
0.259232
0.2451
0.230719
0.216042
0.20101
0.185536
0.169509
0.152781
0.135142
0.116284
0.0957135
0.0725398
0.0445423
0.00884781
0.0846538
0.239506
0.35002
0.44331
0.527521
0.605918
0.680067
0.751123
0.819836
0.886702
0.951952
1.01589
1.07866
1.1404
1.20122
1.26118
1.32032
1.37866
1.43621
1.49295
1.54888
1.60397
1.65819
1.7115
1.76388
1.81527
1.86564
1.91494
1.96312
2.01013
2.05593
2.10048
2.14371
2.1856
2.22608
2.26513
2.3027
2.33876
2.37325
2.40616
2.43745
2.46709
2.49505
2.52132
2.54587
2.56868
2.58975
2.60907
2.62662
2.64241
2.65643
2.6687
2.67921
2.68797
2.69501
2.70033
2.70397
2.70593
2.70625
2.70496
2.7021
2.6977
2.69181
2.68445
2.67566
2.66546
2.65391
2.64105
2.62692
2.61157
2.59505
2.57741
2.55871
2.53898
2.5183
2.4967
2.47424
2.45097
2.42694
2.40222
2.37684
2.35086
2.32434
2.29731
2.26984
2.24196
2.21373
2.18519
2.15639
2.12736
2.09816
2.06882
2.03939
2.00989
1.98037
1.95086
1.92139
1.892
1.86271
1.83356
1.80456
1.77575
1.74715
1.71877
1.69065
1.66279
1.63521
1.60793
1.58096
1.55432
1.52801
1.50205
1.47643
1.45118
1.42629
1.40176
1.37761
1.35383
1.33043
1.30739
1.28473
1.26244
1.24051
1.21895
1.19775
1.1769
1.15639
1.13623
1.1164
1.0969
1.07772
1.05885
1.04028
1.02201
1.00401
0.9863
0.968851
0.951659
0.934714
0.918006
0.901527
0.885266
0.869214
0.853362
0.8377
0.82222
0.806913
0.791769
0.776781
0.761941
0.747239
0.73267
0.718224
0.703895
0.689677
0.675562
0.661545
0.647618
0.633781
0.620027
0.606349
0.592741
0.579197
0.565712
0.552282
0.5389
0.525569
0.512281
0.49903
0.485811
0.472618
0.459446
0.44629
0.433144
0.420002
0.406855
0.393699
0.380527
0.367328
0.354094
0.340812
0.327471
0.314054
0.300544
0.286921
0.27316
0.259232
0.2451
0.230718
0.216042
0.201009
0.185535
0.169508
0.15278
0.135142
0.116283
0.0957134
0.0725397
0.0445423
0.00884783
0.154737
0.353041
0.484555
0.593029
0.690612
0.781318
0.867198
0.949445
1.02881
1.10585
1.18095
1.25438
1.32634
1.39699
1.46643
1.53475
1.602
1.6682
1.73338
1.79753
1.86065
1.92272
1.98371
2.04359
2.10233
2.15989
2.21622
2.27129
2.32504
2.37743
2.42842
2.47795
2.52599
2.57248
2.61738
2.66065
2.70225
2.74214
2.78028
2.81665
2.8512
2.88391
2.91476
2.94372
2.97077
2.99591
3.01911
3.04036
3.05968
3.07704
3.09245
3.10592
3.11746
3.12708
3.13479
3.14062
3.14458
3.1467
3.14701
3.14554
3.14234
3.13743
3.13086
3.12266
3.11287
3.10154
3.0887
3.07441
3.05872
3.04167
3.02333
3.00374
2.98295
2.96103
2.93804
2.91401
2.88902
2.86312
2.83637
2.80882
2.78053
2.75156
2.72196
2.69178
2.66108
2.62991
2.59833
2.56638
2.53411
2.50158
2.46882
2.43588
2.40281
2.36965
2.33643
2.30321
2.27
2.23686
2.20381
2.17088
2.13811
2.10551
2.07313
2.04098
2.00909
1.97747
1.94615
1.91514
1.88446
1.85413
1.82416
1.79455
1.76532
1.73647
1.70802
1.67997
1.65232
1.62507
1.59824
1.5718
1.54578
1.52016
1.49494
1.47012
1.4457
1.42166
1.39801
1.37473
1.35183
1.32928
1.30709
1.28524
1.26372
1.24253
1.22165
1.20108
1.18081
1.16081
1.14109
1.12164
1.10243
1.08347
1.06473
1.04622
1.02791
1.0098
0.991884
0.974144
0.956571
0.939158
0.921895
0.904772
0.887781
0.870913
0.854161
0.837516
0.820971
0.804523
0.788164
0.771886
0.755682
0.739545
0.723469
0.707446
0.691471
0.675539
0.659645
0.643784
0.627949
0.612134
0.596331
0.580535
0.564738
0.548933
0.533113
0.517268
0.501391
0.485469
0.469492
0.453451
0.437329
0.421112
0.40478
0.388312
0.371683
0.354863
0.337818
0.320504
0.30287
0.284852
0.266381
0.247356
0.22765
0.207089
0.185432
0.162317
0.137132
0.10859
0.0727104
0.0184634
0.154732
0.353039
0.484555
0.593028
0.690611
0.781317
0.867196
0.949443
1.02881
1.10585
1.18095
1.25437
1.32634
1.39698
1.46643
1.53475
1.60199
1.6682
1.73338
1.79753
1.86065
1.92271
1.9837
2.04359
2.10233
2.15988
2.21622
2.27128
2.32503
2.37743
2.42841
2.47795
2.52598
2.57247
2.61738
2.66065
2.70225
2.74213
2.78028
2.81664
2.85119
2.8839
2.91475
2.94371
2.97077
2.9959
3.0191
3.04036
3.05967
3.07703
3.09245
3.10592
3.11746
3.12707
3.13479
3.14061
3.14457
3.14669
3.147
3.14554
3.14233
3.13742
3.13085
3.12265
3.11286
3.10153
3.08869
3.07441
3.05871
3.04167
3.02332
3.00373
2.98295
2.96103
2.93803
2.914
2.88902
2.86312
2.83636
2.80881
2.78053
2.75155
2.72195
2.69177
2.66107
2.62991
2.59832
2.56637
2.53411
2.50157
2.46881
2.43587
2.4028
2.36964
2.33643
2.3032
2.27
2.23685
2.2038
2.17087
2.1381
2.10551
2.07312
2.04097
2.00908
1.97746
1.94614
1.91514
1.88446
1.85413
1.82415
1.79454
1.76531
1.73647
1.70802
1.67997
1.65232
1.62507
1.59823
1.5718
1.54578
1.52016
1.49494
1.47012
1.44569
1.42166
1.39801
1.37473
1.35182
1.32928
1.30708
1.28523
1.26372
1.24253
1.22165
1.20108
1.1808
1.16081
1.14109
1.12163
1.10243
1.08346
1.06473
1.04621
1.02791
1.0098
0.991881
0.974141
0.956568
0.939155
0.921892
0.904769
0.887778
0.87091
0.854158
0.837513
0.820968
0.80452
0.788162
0.771884
0.75568
0.739543
0.723466
0.707444
0.691469
0.675537
0.659643
0.643782
0.627947
0.612132
0.596329
0.580533
0.564736
0.548932
0.533111
0.517267
0.501389
0.485468
0.469491
0.453449
0.437328
0.42111
0.404779
0.388311
0.371682
0.354862
0.337817
0.320503
0.302869
0.284852
0.26638
0.247356
0.227649
0.207089
0.185432
0.162317
0.137132
0.10859
0.0727105
0.0184634
0.221226
0.451433
0.598486
0.717578
0.824186
0.923281
1.01726
1.10743
1.1946
1.27931
1.36193
1.44273
1.52193
1.59966
1.67604
1.75114
1.82501
1.89769
1.96918
2.0395
2.10862
2.17655
2.24324
2.30867
2.3728
2.43559
2.49701
2.55699
2.61551
2.67251
2.72794
2.78175
2.83391
2.88435
2.93305
2.97995
3.02501
3.06819
3.10947
3.14879
3.18614
3.22148
3.25479
3.28604
3.31522
3.34231
3.3673
3.39019
3.41096
3.42962
3.44617
3.46061
3.47296
3.48323
3.49144
3.4976
3.50174
3.5039
3.50409
3.50236
3.49874
3.49327
3.486
3.47696
3.46619
3.45375
3.43968
3.42404
3.40687
3.38822
3.36817
3.34676
3.32405
3.3001
3.27497
3.24873
3.22143
3.19313
3.16389
3.13378
3.10286
3.07118
3.03881
3.0058
2.97221
2.9381
2.90353
2.86854
2.8332
2.79755
2.76164
2.72553
2.68925
2.65287
2.61641
2.57992
2.54345
2.50703
2.4707
2.43449
2.39844
2.36257
2.32692
2.29151
2.25637
2.22152
2.18699
2.15279
2.11894
2.08545
2.05235
2.01965
1.98734
1.95546
1.924
1.89296
1.86236
1.8322
1.80248
1.7732
1.74436
1.71596
1.688
1.66047
1.63336
1.60669
1.58043
1.55457
1.52913
1.50407
1.4794
1.45511
1.43118
1.4076
1.38437
1.36148
1.3389
1.31664
1.29467
1.27299
1.25159
1.23045
1.20956
1.18891
1.16848
1.14828
1.12828
1.10848
1.08885
1.06941
1.05012
1.03099
1.01199
0.993137
0.974404
0.955786
0.937278
0.918872
0.900561
0.882334
0.864185
0.846106
0.828089
0.810127
0.792214
0.774344
0.756509
0.738705
0.720925
0.70316
0.685404
0.667648
0.649886
0.632109
0.614309
0.596476
0.5786
0.56067
0.542674
0.524598
0.506427
0.488144
0.46973
0.451162
0.432414
0.413453
0.394243
0.37474
0.35489
0.334628
0.313875
0.292533
0.270467
0.247498
0.223368
0.197669
0.169665
0.137663
0.0962277
0.0280012
0.221231
0.451435
0.598485
0.717577
0.824184
0.923279
1.01726
1.10743
1.1946
1.2793
1.36192
1.44273
1.52193
1.59966
1.67604
1.75113
1.82501
1.89768
1.96918
2.03949
2.10862
2.17654
2.24323
2.30866
2.37279
2.43559
2.497
2.55699
2.6155
2.6725
2.72793
2.78175
2.8339
2.88435
2.93304
2.97994
3.025
3.06819
3.10946
3.14879
3.18613
3.22147
3.25478
3.28603
3.31521
3.34231
3.3673
3.39018
3.41095
3.42961
3.44616
3.4606
3.47295
3.48322
3.49143
3.49759
3.50174
3.50389
3.50408
3.50235
3.49873
3.49326
3.48599
3.47695
3.46619
3.45375
3.43968
3.42403
3.40686
3.38822
3.36816
3.34675
3.32404
3.30009
3.27497
3.24872
3.22142
3.19312
3.16389
3.13378
3.10285
3.07118
3.0388
3.0058
2.97221
2.9381
2.90352
2.86854
2.83319
2.79754
2.76163
2.72552
2.68925
2.65286
2.6164
2.57992
2.54345
2.50703
2.47069
2.43448
2.39843
2.36256
2.32691
2.2915
2.25636
2.22152
2.18698
2.15278
2.11893
2.08545
2.05235
2.01964
1.98734
1.95545
1.92399
1.89296
1.86236
1.8322
1.80247
1.77319
1.74436
1.71595
1.68799
1.66046
1.63336
1.60668
1.58042
1.55457
1.52912
1.50407
1.4794
1.4551
1.43117
1.4076
1.38437
1.36147
1.3389
1.31663
1.29467
1.27299
1.25158
1.23044
1.20955
1.1889
1.16848
1.14828
1.12828
1.10847
1.08885
1.0694
1.05012
1.03098
1.01199
0.993135
0.974401
0.955783
0.937276
0.91887
0.900559
0.882332
0.864183
0.846104
0.828087
0.810125
0.792212
0.774342
0.756507
0.738704
0.720923
0.703158
0.685402
0.667647
0.649885
0.632108
0.614307
0.596474
0.578598
0.560669
0.542673
0.524597
0.506425
0.488143
0.469729
0.451161
0.432413
0.413452
0.394242
0.374739
0.354889
0.334627
0.313875
0.292532
0.270467
0.247498
0.223367
0.197669
0.169666
0.137664
0.0962279
0.0280012
0.285182
0.54181
0.702751
0.831096
0.945063
1.05086
1.15128
1.24777
1.34118
1.43208
1.52083
1.6077
1.69288
1.77651
1.85868
1.93947
2.01893
2.09707
2.17392
2.24946
2.3237
2.3966
2.46814
2.53828
2.607
2.67424
2.73997
2.80414
2.8667
2.9276
2.98679
3.04423
3.09987
3.15365
3.20554
3.25549
3.30346
3.3494
3.39329
3.43508
3.47475
3.51227
3.54761
3.58074
3.61166
3.64035
3.66679
3.69098
3.71292
3.7326
3.75003
3.76521
3.77816
3.7889
3.79743
3.80379
3.808
3.81009
3.81009
3.80804
3.80397
3.79793
3.78997
3.78012
3.76844
3.75496
3.73975
3.72286
3.70434
3.68425
3.66264
3.6396
3.61516
3.5894
3.56237
3.53415
3.5048
3.47437
3.44294
3.41057
3.37733
3.34327
3.30846
3.27297
3.23685
3.20016
3.16296
3.12532
3.08729
3.04891
3.01026
2.97138
2.93231
2.89312
2.85384
2.81452
2.7752
2.73594
2.69675
2.6577
2.61879
2.58009
2.5416
2.50337
2.46541
2.42777
2.39045
2.35348
2.31689
2.28068
2.24487
2.20949
2.17453
2.14001
2.10595
2.07234
2.03919
2.00651
1.9743
1.94256
1.91129
1.88049
1.85015
1.82028
1.79087
1.76192
1.73341
1.70534
1.6777
1.65048
1.62368
1.59728
1.57127
1.54565
1.52039
1.49549
1.47094
1.44673
1.42283
1.39924
1.37595
1.35295
1.33021
1.30773
1.2855
1.2635
1.24173
1.22016
1.19879
1.17761
1.1566
1.13575
1.11506
1.09452
1.0741
1.05382
1.03365
1.01359
0.993631
0.973763
0.953978
0.934266
0.914622
0.895036
0.875501
0.856011
0.836559
0.817138
0.79774
0.778357
0.758983
0.739608
0.720224
0.700822
0.681395
0.66193
0.642419
0.62285
0.603209
0.583483
0.563655
0.543709
0.523623
0.503375
0.482939
0.462282
0.441367
0.420151
0.39858
0.376588
0.354094
0.330997
0.307161
0.282395
0.256415
0.228754
0.198517
0.163597
0.117302
0.0372936
0.285188
0.541812
0.702751
0.831094
0.945061
1.05086
1.15128
1.24777
1.34118
1.43208
1.52083
1.60769
1.69287
1.7765
1.85868
1.93947
2.01892
2.09707
2.17391
2.24946
2.32369
2.39659
2.46813
2.53828
2.60699
2.67424
2.73997
2.80414
2.8667
2.9276
2.98679
3.04423
3.09986
3.15365
3.20554
3.25548
3.30345
3.3494
3.39328
3.43508
3.47475
3.51226
3.5476
3.58074
3.61166
3.64034
3.66679
3.69098
3.71291
3.73259
3.75002
3.7652
3.77816
3.78889
3.79743
3.80379
3.808
3.81008
3.81008
3.80803
3.80396
3.79793
3.78996
3.78012
3.76843
3.75496
3.73975
3.72285
3.70433
3.68424
3.66264
3.63959
3.61515
3.58939
3.56237
3.53414
3.50479
3.47437
3.44294
3.41057
3.37732
3.34327
3.30846
3.27296
3.23684
3.20015
3.16296
3.12531
3.08728
3.04891
3.01025
2.97137
2.93231
2.89311
2.85383
2.81451
2.7752
2.73593
2.69675
2.65769
2.61879
2.58008
2.54159
2.50336
2.46541
2.42776
2.39045
2.35348
2.31688
2.28067
2.24487
2.20948
2.17452
2.14001
2.10594
2.07233
2.03918
2.0065
1.97429
1.94255
1.91128
1.88048
1.85015
1.82028
1.79087
1.76191
1.7334
1.70533
1.67769
1.65048
1.62368
1.59728
1.57127
1.54564
1.52039
1.49549
1.47094
1.44672
1.42283
1.39924
1.37595
1.35294
1.33021
1.30773
1.2855
1.2635
1.24172
1.22016
1.19879
1.1776
1.1566
1.13575
1.11506
1.09452
1.0741
1.05382
1.03365
1.01359
0.993629
0.973761
0.953976
0.934265
0.91462
0.895034
0.8755
0.85601
0.836557
0.817136
0.797738
0.778356
0.758981
0.739606
0.720222
0.700821
0.681393
0.661929
0.642418
0.622849
0.603208
0.583482
0.563654
0.543708
0.523622
0.503374
0.482938
0.462281
0.441367
0.420151
0.39858
0.376588
0.354093
0.330997
0.307161
0.282395
0.256415
0.228754
0.198517
0.163597
0.117302
0.0372937
0.347814
0.627024
0.80089
0.938053
1.05892
1.17079
1.27688
1.37885
1.47766
1.5739
1.66794
1.76005
1.85041
1.93916
2.02637
2.11212
2.19644
2.27936
2.36087
2.44097
2.51964
2.59687
2.67263
2.74687
2.81955
2.89065
2.9601
3.02786
3.09389
3.15813
3.22054
3.28106
3.33965
3.39626
3.45085
3.50336
3.55376
3.60201
3.64807
3.69191
3.7335
3.7728
3.80979
3.84446
3.87678
3.90674
3.93433
3.95955
3.98238
4.00284
4.02092
4.03665
4.05002
4.06105
4.06977
4.0762
4.08037
4.08231
4.08204
4.07962
4.07508
4.06847
4.05983
4.0492
4.03664
4.0222
4.00593
3.98789
3.96813
3.94672
3.92372
3.8992
3.87321
3.84582
3.81711
3.78712
3.75594
3.72363
3.69026
3.65589
3.6206
3.58444
3.54748
3.50979
3.47144
3.43248
3.39299
3.35301
3.31261
3.27185
3.23078
3.18946
3.14794
3.10628
3.06452
3.02271
2.9809
2.93913
2.89745
2.85588
2.81448
2.77327
2.73229
2.69157
2.65114
2.61103
2.57126
2.53185
2.49283
2.45422
2.41602
2.37827
2.34096
2.30412
2.26775
2.23186
2.19645
2.16154
2.12712
2.0932
2.05977
2.02684
1.9944
1.96245
1.93098
1.9
1.86948
1.83943
1.80984
1.7807
1.75199
1.72371
1.69585
1.66839
1.64132
1.61463
1.58831
1.56235
1.53672
1.51143
1.48645
1.46177
1.43738
1.41326
1.38941
1.3658
1.34243
1.31929
1.29635
1.27361
1.25106
1.22869
1.20648
1.18442
1.16251
1.14074
1.11909
1.09755
1.07613
1.0548
1.03356
1.0124
0.991307
0.970281
0.94931
0.928387
0.907504
0.886655
0.865831
0.845024
0.824226
0.803428
0.782621
0.761797
0.740946
0.720057
0.69912
0.678124
0.657055
0.635898
0.614638
0.593258
0.571736
0.55005
0.528171
0.506071
0.483712
0.46105
0.438031
0.41459
0.390644
0.366087
0.340777
0.314504
0.286951
0.257572
0.225306
0.187654
0.136842
0.0464212
0.347817
0.627025
0.800889
0.938051
1.05892
1.17078
1.27687
1.37885
1.47766
1.57389
1.66793
1.76004
1.85041
1.93915
2.02637
2.11212
2.19644
2.27935
2.36086
2.44096
2.51964
2.59687
2.67262
2.74686
2.81955
2.89064
2.96009
3.02786
3.09389
3.15813
3.22054
3.28106
3.33965
3.39626
3.45084
3.50336
3.55376
3.60201
3.64807
3.69191
3.73349
3.77279
3.80979
3.84445
3.87677
3.90674
3.93433
3.95954
3.98238
4.00283
4.02092
4.03664
4.05001
4.06104
4.06977
4.0762
4.08036
4.0823
4.08204
4.07962
4.07508
4.06847
4.05982
4.0492
4.03664
4.02219
4.00592
3.98788
3.96812
3.94672
3.92372
3.89919
3.8732
3.84582
3.8171
3.78712
3.75594
3.72363
3.69026
3.65589
3.62059
3.58443
3.54748
3.50979
3.47144
3.43248
3.39298
3.353
3.3126
3.27184
3.23077
3.18946
3.14794
3.10628
3.06452
3.02271
2.9809
2.93913
2.89744
2.85588
2.81447
2.77327
2.73229
2.69157
2.65114
2.61102
2.57125
2.53185
2.49283
2.45421
2.41602
2.37826
2.34096
2.30412
2.26775
2.23186
2.19645
2.16154
2.12712
2.09319
2.05977
2.02683
1.99439
1.96244
1.93098
1.89999
1.86948
1.83943
1.80984
1.78069
1.75199
1.72371
1.69584
1.66838
1.64132
1.61463
1.58831
1.56234
1.53672
1.51143
1.48644
1.46177
1.43737
1.41326
1.3894
1.3658
1.34243
1.31928
1.29635
1.27361
1.25106
1.22869
1.20648
1.18442
1.16251
1.14073
1.11908
1.09755
1.07613
1.0548
1.03356
1.01239
0.991305
0.970279
0.949309
0.928386
0.907503
0.886654
0.86583
0.845023
0.824225
0.803427
0.78262
0.761796
0.740945
0.720056
0.699119
0.678123
0.657054
0.635897
0.614638
0.593257
0.571735
0.550049
0.528171
0.50607
0.483711
0.461049
0.438031
0.41459
0.390644
0.366087
0.340777
0.314504
0.286951
0.257572
0.225307
0.187654
0.136843
0.0464214
0.409414
0.708525
0.894865
1.04067
1.16833
1.28605
1.39749
1.50456
1.60831
1.70938
1.80821
1.90504
2.00006
2.0934
2.18515
2.27534
2.36402
2.45119
2.53687
2.62103
2.70366
2.78473
2.86421
2.94206
3.01825
3.09271
3.16542
3.23632
3.30536
3.37249
3.43767
3.50083
3.56195
3.62096
3.67782
3.7325
3.78494
3.83511
3.88297
3.92849
3.97164
4.01239
4.05072
4.08661
4.12004
4.15099
4.17947
4.20546
4.22896
4.24998
4.26853
4.2846
4.29822
4.30941
4.31818
4.32457
4.3286
4.33031
4.32972
4.32689
4.32185
4.31464
4.30533
4.29394
4.28055
4.26519
4.24792
4.22882
4.20792
4.18531
4.16104
4.13517
4.10778
4.07893
4.04869
4.01713
3.98432
3.95033
3.91522
3.87908
3.84196
3.80393
3.76507
3.72544
3.68511
3.64415
3.60261
3.56057
3.51807
3.4752
3.43199
3.38852
3.34483
3.30099
3.25703
3.21302
3.16899
3.125
3.08109
3.0373
2.99367
2.95024
2.90704
2.8641
2.82147
2.77915
2.73719
2.6956
2.65441
2.61364
2.57331
2.53343
2.49401
2.45508
2.41663
2.37869
2.34125
2.30431
2.2679
2.232
2.19662
2.16175
2.1274
2.09355
2.06022
2.02738
1.99504
1.96319
1.93181
1.9009
1.87045
1.84045
1.81088
1.78174
1.75301
1.72467
1.69672
1.66915
1.64193
1.61506
1.58852
1.5623
1.53638
1.51075
1.48539
1.4603
1.43546
1.41085
1.38647
1.36229
1.33832
1.31453
1.29091
1.26746
1.24416
1.22101
1.19799
1.1751
1.15232
1.12964
1.10706
1.08456
1.06214
1.03979
1.0175
0.995259
0.973064
0.950905
0.928774
0.906663
0.884562
0.862464
0.840359
0.818237
0.79609
0.773906
0.751674
0.729384
0.70702
0.68457
0.662018
0.639345
0.616531
0.593554
0.570386
0.546998
0.523351
0.499401
0.475097
0.45037
0.425135
0.399277
0.372644
0.345004
0.315995
0.28499
0.250763
0.210454
0.155351
0.0554614
0.409416
0.708525
0.894863
1.04067
1.16833
1.28605
1.39749
1.50455
1.6083
1.70938
1.8082
1.90503
2.00006
2.0934
2.18514
2.27534
2.36401
2.45119
2.53687
2.62103
2.70366
2.78473
2.86421
2.94206
3.01824
3.09271
3.16542
3.23631
3.30535
3.37249
3.43766
3.50083
3.56194
3.62095
3.67782
3.73249
3.78493
3.8351
3.88297
3.92849
3.97164
4.01239
4.05072
4.0866
4.12003
4.15099
4.17946
4.20545
4.22896
4.24998
4.26852
4.28459
4.29822
4.3094
4.31818
4.32457
4.3286
4.3303
4.32972
4.32688
4.32184
4.31464
4.30532
4.29394
4.28054
4.26518
4.24792
4.22881
4.20792
4.1853
4.16103
4.13517
4.10777
4.07892
4.04869
4.01713
3.98432
3.95032
3.91522
3.87907
3.84195
3.80393
3.76507
3.72544
3.68511
3.64414
3.60261
3.56056
3.51807
3.47519
3.43199
3.38852
3.34483
3.30098
3.25703
3.21301
3.16899
3.125
3.08109
3.0373
2.99367
2.95024
2.90704
2.8641
2.82146
2.77915
2.73719
2.6956
2.65441
2.61364
2.57331
2.53343
2.49401
2.45508
2.41663
2.37868
2.34124
2.30431
2.2679
2.232
2.19661
2.16175
2.12739
2.09355
2.06022
2.02738
1.99504
1.96319
1.93181
1.9009
1.87045
1.84045
1.81088
1.78173
1.753
1.72467
1.69672
1.66915
1.64193
1.61506
1.58852
1.5623
1.53638
1.51075
1.48539
1.4603
1.43546
1.41085
1.38647
1.36229
1.33832
1.31453
1.29091
1.26746
1.24416
1.22101
1.19799
1.1751
1.15232
1.12964
1.10706
1.08456
1.06214
1.03979
1.0175
0.995258
0.973063
0.950904
0.928773
0.906662
0.884561
0.862463
0.840358
0.818237
0.796089
0.773905
0.751674
0.729383
0.70702
0.68457
0.662017
0.639344
0.61653
0.593553
0.570386
0.546997
0.52335
0.499401
0.475097
0.45037
0.425135
0.399277
0.372644
0.345004
0.315995
0.284991
0.250763
0.210455
0.155352
0.0554616
0.470223
0.787447
0.985859
1.14026
1.27474
1.39828
1.51497
1.62695
1.73541
1.84107
1.94436
2.04559
2.14493
2.24252
2.33843
2.4327
2.52537
2.61644
2.7059
2.79375
2.87996
2.96449
3.04733
3.12841
3.20771
3.28517
3.36076
3.43441
3.50609
3.57574
3.64331
3.70876
3.77204
3.8331
3.89189
3.94838
4.00253
4.05429
4.10363
4.15052
4.19494
4.23684
4.27623
4.31306
4.34734
4.37905
4.40818
4.43472
4.45869
4.48008
4.4989
4.51516
4.52889
4.54009
4.5488
4.55504
4.55884
4.56024
4.55927
4.55598
4.55041
4.5426
4.53261
4.52048
4.50627
4.49004
4.47184
4.45173
4.42978
4.40605
4.38061
4.35352
4.32485
4.29468
4.26306
4.23008
4.19581
4.1603
4.12365
4.08591
4.04717
4.00748
3.96692
3.92556
3.88348
3.84072
3.79737
3.75349
3.70914
3.66438
3.61928
3.57389
3.52827
3.48248
3.43656
3.39058
3.34458
3.29861
3.25271
3.20693
3.1613
3.11587
3.07068
3.02575
2.98113
2.93683
2.89289
2.84933
2.80618
2.76346
2.72119
2.67937
2.63804
2.5972
2.55687
2.51704
2.47774
2.43896
2.40071
2.363
2.32582
2.28917
2.25305
2.21746
2.1824
2.14785
2.11382
2.08029
2.04725
2.0147
1.98262
1.95101
1.91985
1.88913
1.85884
1.82896
1.79949
1.7704
1.74169
1.71333
1.68532
1.65764
1.63028
1.60322
1.57645
1.54995
1.52371
1.49772
1.47197
1.44643
1.42111
1.39598
1.37103
1.34626
1.32165
1.29719
1.27288
1.24869
1.22463
1.20068
1.17683
1.15307
1.12939
1.10579
1.08225
1.05877
1.03534
1.01194
0.988583
0.965245
0.941921
0.918601
0.895278
0.87194
0.848578
0.825181
0.801739
0.778239
0.754668
0.731012
0.707255
0.68338
0.659366
0.635191
0.610828
0.586246
0.561408
0.53627
0.510776
0.484855
0.458419
0.431343
0.403459
0.37451
0.344088
0.31148
0.275305
0.232377
0.173144
0.0644751
0.470225
0.787446
0.985857
1.14025
1.27473
1.39827
1.51497
1.62695
1.73541
1.84106
1.94436
2.04559
2.14493
2.24252
2.33842
2.4327
2.52536
2.61643
2.7059
2.79375
2.87995
2.96449
3.04732
3.12841
3.2077
3.28517
3.36075
3.43441
3.50609
3.57574
3.64331
3.70876
3.77204
3.83309
3.89189
3.94838
4.00252
4.05428
4.10363
4.15052
4.19493
4.23684
4.27622
4.31306
4.34734
4.37904
4.40817
4.43472
4.45868
4.48007
4.49889
4.51516
4.52888
4.54009
4.5488
4.55504
4.55884
4.56024
4.55927
4.55598
4.5504
4.5426
4.53261
4.52048
4.50627
4.49004
4.47184
4.45173
4.42978
4.40605
4.38061
4.35352
4.32485
4.29467
4.26306
4.23008
4.1958
4.1603
4.12364
4.08591
4.04716
4.00747
3.96692
3.92556
3.88347
3.84072
3.79737
3.75349
3.70914
3.66438
3.61927
3.57388
3.52827
3.48247
3.43656
3.39058
3.34458
3.2986
3.2527
3.20692
3.1613
3.11587
3.07068
3.02575
2.98112
2.93683
2.89289
2.84933
2.80618
2.76346
2.72118
2.67937
2.63804
2.5972
2.55686
2.51704
2.47773
2.43896
2.40071
2.36299
2.32581
2.28917
2.25305
2.21746
2.1824
2.14785
2.11381
2.08028
2.04725
2.0147
1.98262
1.95101
1.91985
1.88913
1.85884
1.82896
1.79949
1.7704
1.74168
1.71333
1.68532
1.65764
1.63028
1.60322
1.57645
1.54995
1.52371
1.49772
1.47197
1.44643
1.42111
1.39597
1.37103
1.34625
1.32165
1.29719
1.27288
1.24869
1.22463
1.20068
1.17683
1.15307
1.12939
1.10579
1.08225
1.05877
1.03534
1.01194
0.988582
0.965244
0.94192
0.918601
0.895277
0.871939
0.848577
0.82518
0.801738
0.778238
0.754667
0.731011
0.707255
0.683379
0.659366
0.635191
0.610828
0.586246
0.561408
0.53627
0.510775
0.484855
0.458418
0.431343
0.403459
0.37451
0.344088
0.311481
0.275305
0.232378
0.173145
0.0644754
0.530625
0.864609
1.07469
1.23769
1.37906
1.50848
1.63045
1.7473
1.86037
1.97046
2.07806
2.18348
2.28693
2.38852
2.48834
2.58643
2.68282
2.7775
2.87048
2.96173
3.05122
3.13893
3.22481
3.30882
3.39093
3.47108
3.54924
3.62534
3.69935
3.7712
3.84087
3.90829
3.97342
4.03622
4.09665
4.15466
4.21022
4.26328
4.31383
4.36182
4.40723
4.45004
4.49023
4.52777
4.56267
4.59491
4.62448
4.65139
4.67563
4.69722
4.71615
4.73246
4.74615
4.75725
4.76578
4.77178
4.77527
4.77628
4.77488
4.77108
4.76494
4.75651
4.74584
4.73298
4.71798
4.7009
4.68181
4.66076
4.63782
4.61305
4.58653
4.55831
4.52848
4.49709
4.46423
4.42996
4.39436
4.3575
4.31945
4.28029
4.24008
4.19891
4.15684
4.11394
4.07028
4.02593
3.98096
3.93544
3.88943
3.84299
3.7962
3.74909
3.70175
3.65421
3.60655
3.5588
3.51103
3.46328
3.41559
3.36802
3.3206
3.27337
3.22637
3.17965
3.13322
3.08712
3.04139
2.99604
2.9511
2.9066
2.86255
2.81897
2.77588
2.73328
2.69121
2.64965
2.60863
2.56814
2.5282
2.4888
2.44995
2.41164
2.37388
2.33666
2.29998
2.26382
2.2282
2.19309
2.15849
2.12439
2.09078
2.05764
2.02498
1.99276
1.96099
1.92964
1.89871
1.86818
1.83804
1.80826
1.77885
1.74978
1.72103
1.6926
1.66447
1.63662
1.60904
1.58172
1.55465
1.5278
1.50117
1.47475
1.44852
1.42248
1.3966
1.37089
1.34533
1.3199
1.2946
1.26942
1.24435
1.21937
1.19449
1.16968
1.14494
1.12027
1.09564
1.07107
1.04652
1.02201
0.99751
0.97302
0.948529
0.924026
0.899502
0.874945
0.850346
0.825691
0.800967
0.776161
0.751256
0.726236
0.701079
0.675763
0.650262
0.624543
0.598571
0.572297
0.545666
0.518602
0.491008
0.462751
0.433643
0.4034
0.371565
0.337346
0.299214
0.253685
0.190439
0.073512
0.530625
0.864609
1.07469
1.23769
1.37906
1.50848
1.63044
1.74729
1.86037
1.97046
2.07806
2.18348
2.28692
2.38852
2.48834
2.58643
2.68281
2.7775
2.87048
2.96172
3.05122
3.13892
3.2248
3.30882
3.39093
3.47108
3.54923
3.62534
3.69934
3.7712
3.84086
3.90829
3.97342
4.03622
4.09665
4.15466
4.21021
4.26328
4.31382
4.36181
4.40722
4.45003
4.49022
4.52777
4.56267
4.5949
4.62448
4.65138
4.67563
4.69721
4.71615
4.73246
4.74615
4.75725
4.76578
4.77177
4.77526
4.77628
4.77487
4.77107
4.76494
4.75651
4.74584
4.73297
4.71798
4.7009
4.68181
4.66076
4.63781
4.61305
4.58652
4.55831
4.52847
4.49709
4.46423
4.42996
4.39436
4.3575
4.31945
4.28028
4.24008
4.19891
4.15683
4.11393
4.07027
4.02593
3.98096
3.93544
3.88943
3.84299
3.79619
3.74909
3.70174
3.65421
3.60654
3.5588
3.51103
3.46327
3.41559
3.36801
3.32059
3.27337
3.22637
3.17964
3.13322
3.08712
3.04138
2.99604
2.9511
2.90659
2.86254
2.81896
2.77587
2.73328
2.6912
2.64965
2.60863
2.56814
2.5282
2.4888
2.44995
2.41164
2.37388
2.33666
2.29997
2.26382
2.2282
2.19309
2.15849
2.12439
2.09078
2.05764
2.02497
1.99276
1.96099
1.92964
1.89871
1.86818
1.83804
1.80826
1.77885
1.74977
1.72103
1.6926
1.66446
1.63662
1.60904
1.58172
1.55465
1.5278
1.50117
1.47475
1.44852
1.42247
1.3966
1.37089
1.34532
1.3199
1.2946
1.26942
1.24435
1.21937
1.19449
1.16968
1.14494
1.12027
1.09564
1.07107
1.04652
1.02201
0.997509
0.973019
0.948528
0.924025
0.899501
0.874945
0.850345
0.82569
0.800967
0.776161
0.751256
0.726235
0.701078
0.675762
0.650261
0.624543