/*--------------------------------*- C++ -*----------------------------------*\
  =========                 |
  \\      /  F ield         | OpenFOAM: The Open Source CFD Toolbox
   \\    /   O peration     | Website:  https://openfoam.org
    \\  /    A nd           | Version:  8
     \\/     M anipulation  |
\*---------------------------------------------------------------------------*/
FoamFile
{
    version     2.0;
    format      ascii;
    class       volScalarField;
    location    "3900";
    object      nut;
}
// * * * * * * * * * * * * * * * * * * * * * * * * * * * * * * * * * * * * * //

dimensions      [0 2 -1 0 0 0 0];

internalField   nonuniform List<scalar> 
46000
(
1.6059e-06
6.392e-06
1.14976e-05
1.6211e-05
2.06487e-05
2.49306e-05
2.91111e-05
3.32034e-05
3.72305e-05
4.12096e-05
4.51539e-05
4.90748e-05
5.29492e-05
5.67933e-05
6.06109e-05
6.44028e-05
6.81682e-05
7.19055e-05
7.56127e-05
7.92871e-05
8.29257e-05
8.65252e-05
9.0082e-05
9.35924e-05
9.70525e-05
0.000100458
0.000103805
0.00010709
0.000110308
0.000113455
0.000116527
0.000119521
0.000122431
0.000125255
0.000127988
0.000130628
0.00013317
0.000135613
0.000137951
0.000140184
0.000142308
0.000144322
0.000146222
0.000148007
0.000149675
0.000151226
0.000152658
0.00015397
0.000155161
0.000156232
0.000157181
0.00015801
0.000158719
0.000159308
0.000159778
0.000160131
0.000160368
0.00016049
0.0001605
0.000160399
0.000160191
0.00015988
0.000159468
0.000158957
0.000158348
0.000157644
0.000156847
0.000155961
0.000154989
0.000153935
0.000152802
0.000151593
0.000150313
0.000148965
0.000147552
0.000146079
0.000144549
0.000142966
0.000141333
0.000139655
0.000137935
0.000136176
0.000134383
0.000132559
0.000130706
0.000128829
0.000126932
0.000125016
0.000123085
0.000121143
0.000119192
0.000117235
0.000115274
0.000113313
0.000111354
0.000109399
0.00010745
0.000105509
0.000103579
0.000101662
9.9758e-05
9.78701e-05
9.59995e-05
9.41476e-05
9.23155e-05
9.05045e-05
8.87157e-05
8.69499e-05
8.5208e-05
8.34908e-05
8.17988e-05
8.01327e-05
7.84928e-05
7.68795e-05
7.52932e-05
7.37338e-05
7.22016e-05
7.06967e-05
6.92189e-05
6.77681e-05
6.63443e-05
6.49471e-05
6.35764e-05
6.22317e-05
6.09127e-05
5.96191e-05
5.83502e-05
5.71058e-05
5.58852e-05
5.4688e-05
5.35135e-05
5.23612e-05
5.12306e-05
5.01209e-05
4.90315e-05
4.7962e-05
4.69115e-05
4.58796e-05
4.48655e-05
4.38687e-05
4.28885e-05
4.19243e-05
4.09755e-05
4.00416e-05
3.9122e-05
3.82161e-05
3.73233e-05
3.64432e-05
3.55753e-05
3.4719e-05
3.3874e-05
3.30397e-05
3.22157e-05
3.14017e-05
3.05973e-05
2.98021e-05
2.90159e-05
2.82382e-05
2.74691e-05
2.67078e-05
2.59546e-05
2.52092e-05
2.4471e-05
2.374e-05
2.30159e-05
2.22992e-05
2.15901e-05
2.08876e-05
2.01913e-05
1.95011e-05
1.88167e-05
1.81379e-05
1.74648e-05
1.67973e-05
1.6135e-05
1.54779e-05
1.48257e-05
1.41783e-05
1.35355e-05
1.28971e-05
1.22627e-05
1.16322e-05
1.1005e-05
1.03809e-05
9.75925e-06
9.13958e-06
8.52116e-06
7.90319e-06
7.28537e-06
6.66738e-06
6.04699e-06
5.42232e-06
4.79116e-06
4.15075e-06
3.49741e-06
2.82631e-06
2.13123e-06
1.40679e-06
6.72029e-07
1.3099e-07
1.60938e-06
6.39946e-06
1.1504e-05
1.62139e-05
2.06495e-05
2.49307e-05
2.91112e-05
3.32035e-05
3.72306e-05
4.12097e-05
4.51539e-05
4.90749e-05
5.29493e-05
5.67933e-05
6.0611e-05
6.44028e-05
6.81682e-05
7.19055e-05
7.56127e-05
7.9287e-05
8.29256e-05
8.65251e-05
9.0082e-05
9.35924e-05
9.70524e-05
0.000100458
0.000103805
0.00010709
0.000110308
0.000113455
0.000116527
0.00011952
0.000122431
0.000125255
0.000127988
0.000130628
0.00013317
0.000135612
0.000137951
0.000140184
0.000142308
0.000144321
0.000146221
0.000148007
0.000149675
0.000151226
0.000152658
0.00015397
0.000155161
0.000156231
0.000157181
0.00015801
0.000158719
0.000159308
0.000159778
0.000160131
0.000160367
0.00016049
0.000160499
0.000160399
0.000160191
0.000159879
0.000159468
0.000158957
0.000158348
0.000157643
0.000156847
0.000155961
0.000154989
0.000153935
0.000152801
0.000151593
0.000150313
0.000148964
0.000147552
0.000146079
0.000144549
0.000142965
0.000141333
0.000139655
0.000137935
0.000136176
0.000134383
0.000132558
0.000130706
0.000128829
0.000126931
0.000125016
0.000123085
0.000121143
0.000119192
0.000117235
0.000115274
0.000113313
0.000111354
0.000109398
0.000107449
0.000105509
0.000103579
0.000101661
9.97577e-05
9.78699e-05
9.59993e-05
9.41473e-05
9.23153e-05
9.05043e-05
8.87154e-05
8.69497e-05
8.52078e-05
8.34906e-05
8.17986e-05
8.01325e-05
7.84926e-05
7.68794e-05
7.5293e-05
7.37336e-05
7.22015e-05
7.06965e-05
6.92187e-05
6.7768e-05
6.63441e-05
6.4947e-05
6.35762e-05
6.22315e-05
6.09126e-05
5.96189e-05
5.83501e-05
5.71057e-05
5.58851e-05
5.46879e-05
5.35134e-05
5.23611e-05
5.12304e-05
5.01207e-05
4.90314e-05
4.79618e-05
4.69114e-05
4.58794e-05
4.48654e-05
4.38685e-05
4.28883e-05
4.19242e-05
4.09754e-05
4.00415e-05
3.91219e-05
3.8216e-05
3.73232e-05
3.64431e-05
3.55752e-05
3.47189e-05
3.38739e-05
3.30396e-05
3.22156e-05
3.14016e-05
3.05972e-05
2.98021e-05
2.90158e-05
2.82382e-05
2.7469e-05
2.67078e-05
2.59546e-05
2.52091e-05
2.4471e-05
2.374e-05
2.30159e-05
2.22991e-05
2.159e-05
2.08875e-05
2.01912e-05
1.9501e-05
1.88167e-05
1.81379e-05
1.74648e-05
1.67972e-05
1.6135e-05
1.54778e-05
1.48257e-05
1.41783e-05
1.35355e-05
1.28971e-05
1.22627e-05
1.16321e-05
1.1005e-05
1.03808e-05
9.75923e-06
9.13956e-06
8.52115e-06
7.90317e-06
7.28536e-06
6.66737e-06
6.04698e-06
5.42231e-06
4.79116e-06
4.15074e-06
3.49741e-06
2.82631e-06
2.13123e-06
1.40679e-06
6.72029e-07
1.3099e-07
5.83968e-06
5.50635e-05
9.31946e-05
0.000119572
0.000139995
0.000156927
0.000171494
0.000184527
0.000196472
0.000207599
0.000218076
0.000228031
0.000237566
0.000246736
0.000255583
0.000264143
0.000272441
0.000280498
0.000288329
0.000295947
0.000303361
0.000310578
0.000317604
0.000324442
0.000331096
0.000337566
0.000343855
0.000349962
0.000355887
0.00036163
0.000367191
0.000372567
0.000377758
0.000382762
0.000387578
0.000392205
0.000396641
0.000400885
0.000404935
0.000408791
0.000412452
0.000415916
0.000419183
0.000422253
0.000425124
0.000427798
0.000430273
0.000432551
0.000434632
0.000436516
0.000438205
0.0004397
0.000441001
0.000442112
0.000443034
0.000443768
0.000444317
0.000444684
0.000444871
0.00044488
0.000444715
0.000444377
0.000443869
0.000443197
0.000442365
0.000441378
0.00044024
0.000438955
0.000437529
0.000435964
0.000434267
0.000432442
0.000430493
0.000428425
0.000426244
0.000423953
0.000421559
0.000419066
0.000416479
0.000413803
0.000411042
0.000408203
0.000405289
0.000402306
0.000399258
0.00039615
0.000392987
0.000389773
0.000386513
0.000383212
0.000379873
0.0003765
0.000373099
0.000369672
0.000366225
0.000362759
0.00035928
0.000355791
0.000352294
0.000348794
0.000345293
0.000341794
0.0003383
0.000334814
0.000331338
0.000327875
0.000324426
0.000320994
0.00031758
0.000314187
0.000310816
0.000307469
0.000304146
0.000300849
0.000297579
0.000294337
0.000291124
0.00028794
0.000284786
0.000281662
0.000278569
0.000275506
0.000272474
0.000269473
0.000266502
0.000263561
0.00026065
0.000257769
0.000254916
0.000252092
0.000249295
0.000246525
0.000243781
0.000241062
0.000238367
0.000235696
0.000233046
0.000230418
0.00022781
0.00022522
0.000222649
0.000220093
0.000217554
0.000215028
0.000212516
0.000210015
0.000207524
0.000205043
0.00020257
0.000200104
0.000197644
0.000195188
0.000192735
0.000190285
0.000187835
0.000185385
0.000182933
0.00018048
0.000178023
0.000175561
0.000173092
0.000170615
0.000168129
0.000165633
0.000163122
0.000160592
0.000158046
0.000155483
0.000152902
0.000150302
0.000147681
0.000145037
0.000142369
0.000139672
0.000136945
0.000134185
0.000131387
0.000128549
0.000125665
0.000122731
0.00011974
0.000116685
0.000113558
0.00011035
0.000107049
0.000103639
0.000100104
9.64188e-05
9.25459e-05
8.8451e-05
8.40998e-05
7.94318e-05
7.43635e-05
6.87748e-05
6.24826e-05
5.51863e-05
4.63393e-05
3.47973e-05
1.79353e-05
6.06334e-07
5.83464e-06
5.50627e-05
9.32013e-05
0.000119578
0.000139999
0.00015693
0.000171497
0.00018453
0.000196475
0.000207602
0.000218079
0.000228034
0.000237569
0.000246739
0.000255587
0.000264147
0.000272445
0.000280502
0.000288333
0.000295951
0.000303365
0.000310582
0.000317608
0.000324446
0.0003311
0.00033757
0.000343859
0.000349966
0.000355892
0.000361635
0.000367195
0.000372571
0.000377762
0.000382766
0.000387583
0.000392209
0.000396646
0.00040089
0.00040494
0.000408796
0.000412457
0.000415921
0.000419188
0.000422258
0.000425129
0.000427803
0.000430278
0.000432556
0.000434637
0.000436521
0.00043821
0.000439705
0.000441006
0.000442117
0.000443039
0.000443773
0.000444322
0.000444689
0.000444876
0.000444885
0.00044472
0.000444382
0.000443874
0.000443202
0.00044237
0.000441383
0.000440245
0.00043896
0.000437533
0.000435969
0.000434272
0.000432446
0.000430497
0.00042843
0.000426248
0.000423958
0.000421564
0.00041907
0.000416483
0.000413807
0.000411047
0.000408207
0.000405293
0.00040231
0.000399262
0.000396154
0.000392991
0.000389777
0.000386517
0.000383215
0.000379876
0.000376504
0.000373103
0.000369676
0.000366228
0.000362763
0.000359284
0.000355794
0.000352298
0.000348797
0.000345296
0.000341797
0.000338304
0.000334817
0.000331341
0.000327878
0.000324429
0.000320997
0.000317583
0.00031419
0.000310819
0.000307471
0.000304148
0.000300851
0.000297582
0.00029434
0.000291126
0.000287942
0.000284788
0.000281664
0.000278571
0.000275508
0.000272476
0.000269475
0.000266504
0.000263563
0.000260652
0.000257771
0.000254918
0.000252094
0.000249297
0.000246527
0.000243783
0.000241064
0.000238369
0.000235697
0.000233048
0.00023042
0.000227811
0.000225222
0.00022265
0.000220095
0.000217555
0.00021503
0.000212517
0.000210016
0.000207526
0.000205045
0.000202572
0.000200106
0.000197645
0.000195189
0.000192736
0.000190286
0.000187836
0.000185386
0.000182934
0.000180481
0.000178024
0.000175562
0.000173093
0.000170616
0.00016813
0.000165633
0.000163123
0.000160593
0.000158047
0.000155483
0.000152902
0.000150302
0.000147681
0.000145038
0.000142369
0.000139673
0.000136946
0.000134185
0.000131388
0.00012855
0.000125666
0.000122731
0.00011974
0.000116685
0.000113559
0.000110351
0.000107049
0.00010364
0.000100105
9.64192e-05
9.25463e-05
8.84514e-05
8.41002e-05
7.94321e-05
7.43638e-05
6.87751e-05
6.24828e-05
5.51865e-05
4.63395e-05
3.47973e-05
1.79353e-05
6.06335e-07
1.07272e-05
9.01997e-05
0.000166527
0.000223623
0.00026792
0.000303768
0.000333884
0.000359995
0.000383188
0.000404185
0.000423476
0.000441402
0.000458213
0.000474085
0.000489148
0.000503502
0.000517227
0.000530384
0.000543022
0.000555183
0.000566898
0.000578195
0.000589094
0.000599615
0.000609771
0.000619577
0.000629041
0.000638173
0.00064698
0.000655468
0.000663643
0.000671508
0.000679068
0.000686325
0.000693284
0.000699945
0.000706311
0.000712384
0.000718167
0.00072366
0.000728866
0.000733786
0.000738423
0.000742776
0.000746849
0.000750644
0.000754162
0.000757406
0.000760377
0.000763078
0.000765512
0.000767682
0.000769589
0.000771238
0.00077263
0.00077377
0.000774661
0.000775306
0.000775707
0.000775869
0.000775795
0.000775485
0.000774945
0.00077418
0.000773199
0.000772006
0.00077061
0.000769013
0.000767223
0.000765246
0.000763085
0.000760748
0.00075824
0.000755567
0.000752734
0.000749748
0.000746614
0.000743338
0.000739926
0.000736384
0.000732719
0.000728935
0.000725039
0.000721036
0.000716934
0.000712736
0.000708449
0.000704079
0.00069963
0.00069511
0.000690522
0.000685873
0.000681168
0.000676411
0.000671608
0.000666763
0.000661881
0.000656967
0.000652026
0.000647061
0.000642077
0.000637077
0.000632066
0.000627048
0.000622025
0.000617001
0.000611979
0.000606963
0.000601954
0.000596956
0.000591971
0.000587002
0.00058205
0.000577117
0.000572205
0.000567315
0.00056245
0.000557609
0.000552795
0.000548007
0.000543247
0.000538514
0.00053381
0.000529134
0.000524487
0.000519868
0.000515277
0.000510714
0.000506178
0.000501668
0.000497183
0.000492723
0.000488287
0.000483873
0.000479481
0.000475108
0.000470754
0.000466417
0.000462096
0.000457789
0.000453494
0.00044921
0.000444934
0.000440666
0.000436403
0.000432144
0.000427887
0.000423629
0.000419369
0.000415105
0.000410835
0.000406558
0.00040227
0.00039797
0.000393656
0.000389327
0.000384979
0.000380612
0.000376222
0.000371806
0.000367362
0.000362886
0.000358376
0.000353829
0.000349238
0.000344599
0.000339907
0.000335164
0.000330368
0.000325514
0.000320599
0.000315618
0.000310564
0.000305432
0.000300214
0.000294902
0.000289487
0.000283958
0.000278302
0.000272505
0.000266551
0.00026042
0.00025409
0.000247532
0.000240714
0.000233595
0.000226124
0.000218237
0.000209847
0.000200847
0.000191123
0.000180504
0.000168752
0.000155526
0.000140318
0.000122329
0.000100228
7.17093e-05
3.36483e-05
1.27199e-06
1.07255e-05
9.01997e-05
0.000166532
0.000223629
0.000267927
0.000303775
0.00033389
0.000360001
0.000383194
0.000404191
0.000423482
0.000441408
0.000458219
0.000474091
0.000489154
0.000503508
0.000517233
0.00053039
0.000543028
0.000555189
0.000566904
0.000578201
0.0005891
0.000599621
0.000609778
0.000619583
0.000629047
0.000638179
0.000646986
0.000655475
0.000663649
0.000671515
0.000679074
0.000686332
0.00069329
0.000699951
0.000706317
0.000712391
0.000718173
0.000723667
0.000728873
0.000733793
0.000738429
0.000742783
0.000746856
0.000750651
0.000754169
0.000757412
0.000760383
0.000763085
0.000765519
0.000767688
0.000769595
0.000771244
0.000772637
0.000773777
0.000774667
0.000775312
0.000775713
0.000775875
0.000775801
0.000775491
0.00077495
0.000774186
0.000773204
0.000772012
0.000770615
0.000769019
0.000767229
0.000765251
0.000763091
0.000760754
0.000758245
0.000755572
0.000752739
0.000749753
0.000746619
0.000743343
0.000739931
0.000736389
0.000732724
0.00072894
0.000725044
0.000721041
0.000716938
0.00071274
0.000708453
0.000704083
0.000699635
0.000695114
0.000690526
0.000685877
0.000681172
0.000676415
0.000671611
0.000666766
0.000661885
0.000656971
0.000652029
0.000647064
0.00064208
0.000637081
0.00063207
0.000627051
0.000622028
0.000617004
0.000611982
0.000606965
0.000601957
0.000596959
0.000591974
0.000587004
0.000582052
0.000577119
0.000572207
0.000567318
0.000562452
0.000557611
0.000552797
0.000548009
0.000543248
0.000538516
0.000533812
0.000529136
0.000524489
0.00051987
0.000515279
0.000510715
0.000506179
0.000501669
0.000497184
0.000492724
0.000488288
0.000483874
0.000479482
0.000475109
0.000470755
0.000466418
0.000462097
0.00045779
0.000453495
0.00044921
0.000444935
0.000440667
0.000436404
0.000432145
0.000427887
0.00042363
0.00041937
0.000415106
0.000410836
0.000406558
0.00040227
0.000397971
0.000393657
0.000389327
0.00038498
0.000380612
0.000376222
0.000371806
0.000367362
0.000362886
0.000358376
0.000353829
0.000349238
0.000344599
0.000339907
0.000335164
0.000330368
0.000325514
0.000320599
0.000315618
0.000310564
0.000305432
0.000300214
0.000294902
0.000289487
0.000283958
0.000278302
0.000272505
0.000266551
0.00026042
0.00025409
0.000247532
0.000240714
0.000233595
0.000226124
0.000218237
0.000209847
0.000200847
0.000191123
0.000180504
0.000168752
0.000155526
0.000140318
0.000122329
0.000100228
7.17093e-05
3.36481e-05
1.272e-06
1.53724e-05
0.000115155
0.000220657
0.000305832
0.000374461
0.000430955
0.000478669
0.000519919
0.000556296
0.000588911
0.000618556
0.000645803
0.000671077
0.000694691
0.000716884
0.000737842
0.000757709
0.000776602
0.000794614
0.000811821
0.000828287
0.000844063
0.000859194
0.000873714
0.000887656
0.000901047
0.000913908
0.00092626
0.000938119
0.000949501
0.000960419
0.000970885
0.000980908
0.000990498
0.000999664
0.00100841
0.00101675
0.00102469
0.00103222
0.00103937
0.00104613
0.00105251
0.00105851
0.00106413
0.0010694
0.0010743
0.00107884
0.00108302
0.00108686
0.00109036
0.00109351
0.00109633
0.00109881
0.00110097
0.00110281
0.00110434
0.00110555
0.00110645
0.00110705
0.00110735
0.00110735
0.00110707
0.00110649
0.00110564
0.00110452
0.00110313
0.00110149
0.0010996
0.00109747
0.0010951
0.0010925
0.00108968
0.00108665
0.00108341
0.00107996
0.00107632
0.0010725
0.00106849
0.0010643
0.00105995
0.00105544
0.00105077
0.00104596
0.001041
0.00103591
0.0010307
0.00102536
0.00101991
0.00101435
0.00100869
0.00100293
0.000997086
0.000991159
0.000985155
0.000979081
0.000972942
0.000966743
0.000960491
0.000954191
0.000947847
0.000941465
0.00093505
0.000928607
0.000922139
0.000915652
0.00090915
0.000902636
0.000896114
0.000889587
0.00088306
0.000876535
0.000870015
0.000863502
0.000857
0.00085051
0.000844034
0.000837575
0.000831133
0.000824711
0.000818308
0.000811927
0.000805568
0.000799231
0.000792917
0.000786625
0.000780356
0.000774109
0.000767885
0.000761682
0.000755499
0.000749335
0.000743191
0.000737063
0.000730951
0.000724854
0.000718769
0.000712696
0.000706631
0.000700574
0.000694521
0.000688472
0.000682424
0.000676374
0.000670321
0.000664262
0.000658194
0.000652116
0.000646024
0.000639916
0.000633789
0.000627641
0.000621469
0.000615271
0.000609043
0.000602782
0.000596487
0.000590153
0.000583777
0.000577355
0.000570883
0.000564356
0.000557771
0.000551122
0.000544404
0.00053761
0.000530734
0.000523768
0.000516712
0.000509559
0.000502303
0.000494937
0.000487452
0.000479837
0.000472082
0.000464174
0.000456098
0.000447838
0.000439374
0.000430683
0.000421741
0.000412517
0.000402975
0.000393075
0.000382768
0.000371993
0.000360679
0.000348735
0.000336051
0.000322486
0.00030786
0.000291957
0.000274492
0.000255073
0.000233157
0.000207971
0.000178385
0.000142716
9.85667e-05
4.43354e-05
1.93527e-06
1.53728e-05
0.000115158
0.000220662
0.00030584
0.000374469
0.000430963
0.000478678
0.000519928
0.000556305
0.00058892
0.000618564
0.000645812
0.000671085
0.000694699
0.000716893
0.00073785
0.000757717
0.00077661
0.000794622
0.00081183
0.000828295
0.000844072
0.000859202
0.000873722
0.000887664
0.000901055
0.000913916
0.000926268
0.000938127
0.000949509
0.000960427
0.000970893
0.000980916
0.000990506
0.000999672
0.00100842
0.00101676
0.00102469
0.00103223
0.00103938
0.00104614
0.00105251
0.00105851
0.00106414
0.0010694
0.0010743
0.00107884
0.00108303
0.00108687
0.00109036
0.00109352
0.00109633
0.00109882
0.00110098
0.00110282
0.00110434
0.00110555
0.00110646
0.00110705
0.00110735
0.00110736
0.00110707
0.0011065
0.00110565
0.00110452
0.00110314
0.00110149
0.0010996
0.00109747
0.0010951
0.00109251
0.00108969
0.00108665
0.00108341
0.00107997
0.00107633
0.0010725
0.00106849
0.00106431
0.00105996
0.00105544
0.00105078
0.00104596
0.00104101
0.00103592
0.0010307
0.00102536
0.00101991
0.00101435
0.00100869
0.00100293
0.00099709
0.000991163
0.000985159
0.000979084
0.000972945
0.000966746
0.000960494
0.000954194
0.00094785
0.000941468
0.000935053
0.000928609
0.000922142
0.000915655
0.000909152
0.000902638
0.000896116
0.000889589
0.000883062
0.000876537
0.000870017
0.000863504
0.000857002
0.000850512
0.000844036
0.000837577
0.000831135
0.000824712
0.00081831
0.000811929
0.000805569
0.000799232
0.000792918
0.000786626
0.000780357
0.00077411
0.000767886
0.000761682
0.000755499
0.000749336
0.000743191
0.000737064
0.000730952
0.000724854
0.00071877
0.000712696
0.000706631
0.000700574
0.000694521
0.000688472
0.000682424
0.000676374
0.000670321
0.000664262
0.000658194
0.000652115
0.000646023
0.000639915
0.000633789
0.000627641
0.000621469
0.00061527
0.000609042
0.000602782
0.000596486
0.000590152
0.000583776
0.000577354
0.000570882
0.000564355
0.00055777
0.000551121
0.000544403
0.00053761
0.000530734
0.000523768
0.000516711
0.000509558
0.000502303
0.000494937
0.000487451
0.000479837
0.000472082
0.000464174
0.000456098
0.000447837
0.000439373
0.000430683
0.00042174
0.000412516
0.000402975
0.000393075
0.000382767
0.000371993
0.000360678
0.000348735
0.000336051
0.000322485
0.000307859
0.000291956
0.000274492
0.000255073
0.000233157
0.000207971
0.000178385
0.000142716
9.85667e-05
4.43352e-05
1.93528e-06
1.98467e-05
0.000135233
0.000263346
0.000372219
0.000462886
0.000539159
0.000604374
0.000661071
0.000711131
0.000755939
0.000796524
0.000833657
0.000867922
0.000899763
0.000929527
0.000957484
0.00098385
0.0010088
0.00103247
0.00105498
0.00107642
0.00109688
0.00111642
0.0011351
0.00115296
0.00117006
0.00118642
0.00120209
0.00121708
0.00123142
0.00124513
0.00125824
0.00127076
0.0012827
0.00129409
0.00130494
0.00131525
0.00132504
0.00133432
0.0013431
0.00135139
0.0013592
0.00136654
0.00137342
0.00137983
0.0013858
0.00139133
0.00139642
0.00140109
0.00140533
0.00140917
0.00141259
0.00141562
0.00141826
0.00142051
0.00142237
0.00142387
0.001425
0.00142576
0.00142617
0.00142624
0.00142595
0.00142533
0.00142438
0.0014231
0.00142152
0.00141963
0.00141745
0.00141498
0.00141223
0.00140921
0.00140592
0.00140238
0.00139859
0.00139456
0.0013903
0.00138581
0.0013811
0.00137618
0.00137107
0.00136575
0.00136025
0.00135457
0.00134872
0.0013427
0.00133653
0.0013302
0.00132374
0.00131713
0.00131041
0.00130356
0.00129659
0.00128953
0.00128236
0.0012751
0.00126775
0.00126032
0.00125282
0.00124525
0.00123762
0.00122993
0.0012222
0.00121441
0.00120659
0.00119874
0.00119086
0.00118295
0.00117502
0.00116707
0.00115911
0.00115114
0.00114317
0.00113519
0.00112722
0.00111924
0.00111127
0.00110331
0.00109536
0.00108742
0.0010795
0.00107158
0.00106368
0.0010558
0.00104793
0.00104007
0.00103223
0.00102441
0.0010166
0.0010088
0.00100102
0.000993242
0.000985479
0.000977725
0.000969978
0.000962236
0.000954497
0.000946759
0.00093902
0.000931277
0.000923529
0.000915772
0.000908003
0.000900221
0.000892422
0.000884604
0.000876763
0.000868896
0.000861
0.000853073
0.00084511
0.000837108
0.000829064
0.000820974
0.000812835
0.000804643
0.000796394
0.000788083
0.000779706
0.000771257
0.000762731
0.000754122
0.000745424
0.000736632
0.000727736
0.00071873
0.000709603
0.000700348
0.000690958
0.000681426
0.000671741
0.000661891
0.000651863
0.000641643
0.000631214
0.000620557
0.00060965
0.000598468
0.000586983
0.000575161
0.000562965
0.00055035
0.000537264
0.000523645
0.000509422
0.000494507
0.000478796
0.00046216
0.000444443
0.00042545
0.000404937
0.000382596
0.000358046
0.000330774
0.000300092
0.000265075
0.000224454
0.000176518
0.000119236
5.26127e-05
2.58296e-06
1.98474e-05
0.000135236
0.000263352
0.000372227
0.000462896
0.000539169
0.000604384
0.000661082
0.000711142
0.00075595
0.000796535
0.000833669
0.000867933
0.000899774
0.000929538
0.000957495
0.000983861
0.00100881
0.00103248
0.00105499
0.00107643
0.00109689
0.00111643
0.00113511
0.00115298
0.00117007
0.00118643
0.0012021
0.00121709
0.00123143
0.00124514
0.00125825
0.00127077
0.00128271
0.0012941
0.00130494
0.00131526
0.00132505
0.00133433
0.00134311
0.0013514
0.00135921
0.00136655
0.00137342
0.00137984
0.00138581
0.00139134
0.00139643
0.0014011
0.00140534
0.00140917
0.0014126
0.00141563
0.00141826
0.00142051
0.00142238
0.00142388
0.001425
0.00142577
0.00142618
0.00142624
0.00142596
0.00142534
0.00142438
0.00142311
0.00142153
0.00141964
0.00141745
0.00141498
0.00141223
0.00140921
0.00140593
0.00140239
0.0013986
0.00139457
0.0013903
0.00138581
0.00138111
0.00137619
0.00137107
0.00136576
0.00136026
0.00135457
0.00134872
0.0013427
0.00133653
0.00133021
0.00132374
0.00131714
0.00131041
0.00130356
0.0012966
0.00128953
0.00128236
0.0012751
0.00126775
0.00126032
0.00125282
0.00124525
0.00123762
0.00122993
0.0012222
0.00121442
0.0012066
0.00119874
0.00119086
0.00118295
0.00117502
0.00116707
0.00115911
0.00115114
0.00114317
0.00113519
0.00112722
0.00111924
0.00111128
0.00110332
0.00109536
0.00108742
0.0010795
0.00107158
0.00106368
0.0010558
0.00104793
0.00104007
0.00103223
0.00102441
0.0010166
0.0010088
0.00100102
0.000993243
0.00098548
0.000977725
0.000969978
0.000962236
0.000954497
0.000946759
0.00093902
0.000931277
0.000923528
0.000915771
0.000908003
0.000900221
0.000892422
0.000884604
0.000876762
0.000868896
0.000861
0.000853072
0.000845109
0.000837107
0.000829063
0.000820973
0.000812834
0.000804642
0.000796393
0.000788082
0.000779705
0.000771256
0.00076273
0.000754121
0.000745424
0.000736631
0.000727735
0.000718729
0.000709602
0.000700347
0.000690957
0.000681425
0.00067174
0.00066189
0.000651862
0.000641642
0.000631213
0.000620556
0.000609649
0.000598467
0.000586982
0.00057516
0.000562964
0.000550349
0.000537263
0.000523644
0.000509421
0.000494506
0.000478795
0.000462159
0.000444443
0.000425449
0.000404936
0.000382596
0.000358046
0.000330773
0.000300092
0.000265076
0.000224454
0.000176519
0.000119236
5.26125e-05
2.58297e-06
2.42325e-05
0.00015238
0.000298715
0.000427629
0.000537815
0.000632232
0.000713955
0.000785543
0.000849011
0.000905913
0.000957445
0.00100453
0.00104788
0.00108807
0.00112552
0.0011606
0.00119357
0.00122468
0.0012541
0.001282
0.00130849
0.0013337
0.00135771
0.0013806
0.00140243
0.00142327
0.00144316
0.00146216
0.00148029
0.0014976
0.00151411
0.00152986
0.00154487
0.00155917
0.00157277
0.00158569
0.00159795
0.00160958
0.00162058
0.00163097
0.00164076
0.00164997
0.00165861
0.00166669
0.00167422
0.00168122
0.00168769
0.00169365
0.0016991
0.00170406
0.00170854
0.00171253
0.00171606
0.00171913
0.00172175
0.00172393
0.00172568
0.001727
0.0017279
0.0017284
0.00172849
0.00172818
0.00172749
0.00172642
0.00172499
0.00172319
0.00172105
0.00171857
0.00171576
0.00171263
0.00170919
0.00170544
0.0017014
0.00169708
0.00169248
0.00168761
0.00168248
0.0016771
0.00167148
0.00166563
0.00165955
0.00165325
0.00164674
0.00164004
0.00163314
0.00162606
0.0016188
0.00161137
0.00160379
0.00159605
0.00158817
0.00158016
0.00157202
0.00156375
0.00155538
0.00154689
0.00153831
0.00152964
0.00152089
0.00151205
0.00150314
0.00149417
0.00148514
0.00147606
0.00146692
0.00145775
0.00144854
0.00143929
0.00143002
0.00142072
0.00141141
0.00140207
0.00139273
0.00138338
0.00137402
0.00136466
0.00135529
0.00134593
0.00133657
0.00132721
0.00131786
0.00130852
0.00129918
0.00128985
0.00128053
0.00127121
0.0012619
0.0012526
0.0012433
0.001234
0.00122471
0.00121542
0.00120613
0.00119683
0.00118753
0.00117822
0.00116891
0.00115958
0.00115023
0.00114087
0.00113148
0.00112208
0.00111264
0.00110317
0.00109367
0.00108413
0.00107455
0.00106492
0.00105525
0.00104552
0.00103573
0.00102589
0.00101597
0.00100599
0.000995927
0.000985786
0.00097556
0.000965241
0.000954824
0.000944301
0.000933666
0.00092291
0.000912026
0.000901004
0.000889834
0.000878504
0.000867005
0.000855325
0.000843454
0.000831377
0.000819078
0.000806541
0.000793744
0.000780666
0.00076728
0.000753558
0.000739467
0.000724968
0.000710017
0.000694564
0.000678549
0.000661905
0.000644549
0.000626388
0.000607308
0.000587172
0.00056582
0.000543051
0.000518623
0.000492236
0.000463516
0.000431999
0.00039709
0.00035802
0.000313791
0.000263116
0.000204412
0.000136116
5.95373e-05
3.22004e-06
2.4233e-05
0.000152383
0.000298721
0.000427637
0.000537825
0.000632243
0.000713967
0.000785556
0.000849024
0.000905926
0.000957458
0.00100454
0.0010479
0.00108808
0.00112554
0.00116061
0.00119358
0.00122469
0.00125411
0.00128201
0.00130851
0.00133371
0.00135772
0.00138061
0.00140244
0.00142328
0.00144317
0.00146217
0.0014803
0.00149761
0.00151413
0.00152988
0.00154489
0.00155918
0.00157278
0.0015857
0.00159796
0.00160959
0.00162059
0.00163098
0.00164077
0.00164998
0.00165862
0.0016667
0.00167423
0.00168123
0.0016877
0.00169366
0.00169911
0.00170407
0.00170855
0.00171254
0.00171607
0.00171914
0.00172176
0.00172394
0.00172569
0.00172701
0.00172791
0.0017284
0.0017285
0.00172819
0.0017275
0.00172643
0.00172499
0.0017232
0.00172106
0.00171858
0.00171577
0.00171264
0.00170919
0.00170545
0.00170141
0.00169709
0.00169249
0.00168762
0.00168249
0.00167711
0.00167149
0.00166563
0.00165955
0.00165326
0.00164675
0.00164004
0.00163314
0.00162606
0.0016188
0.00161138
0.00160379
0.00159606
0.00158818
0.00158016
0.00157202
0.00156376
0.00155538
0.0015469
0.00153832
0.00152965
0.00152089
0.00151205
0.00150315
0.00149418
0.00148514
0.00147606
0.00146693
0.00145775
0.00144854
0.00143929
0.00143002
0.00142072
0.00141141
0.00140208
0.00139273
0.00138338
0.00137402
0.00136466
0.00135529
0.00134593
0.00133657
0.00132721
0.00131786
0.00130852
0.00129918
0.00128985
0.00128053
0.00127121
0.0012619
0.0012526
0.0012433
0.001234
0.00122471
0.00121542
0.00120613
0.00119683
0.00118753
0.00117822
0.00116891
0.00115958
0.00115023
0.00114087
0.00113148
0.00112208
0.00111264
0.00110317
0.00109367
0.00108413
0.00107455
0.00106492
0.00105525
0.00104552
0.00103573
0.00102588
0.00101597
0.00100599
0.000995926
0.000985786
0.000975559
0.000965241
0.000954823
0.0009443
0.000933665
0.000922909
0.000912025
0.000901003
0.000889833
0.000878504
0.000867004
0.000855324
0.000843453
0.000831376
0.000819077
0.00080654
0.000793743
0.000780665
0.000767279
0.000753557
0.000739466
0.000724967
0.000710016
0.000694563
0.000678548
0.000661904
0.000644548
0.000626387
0.000607307
0.000587172
0.000565819
0.00054305
0.000518623
0.000492236
0.000463515
0.000431998
0.00039709
0.00035802
0.000313791
0.000263117
0.000204413
0.000136116
5.95371e-05
3.22005e-06
2.85496e-05
0.000167534
0.0003292
0.000475296
0.000602699
0.00071351
0.000810462
0.000896027
0.000972253
0.00104079
0.00110294
0.00115975
0.00121203
0.00126044
0.0013055
0.00134762
0.00138715
0.00142437
0.00145952
0.00149277
0.00152429
0.00155422
0.00158268
0.00160975
0.00163553
0.00166009
0.00168349
0.00170579
0.00172705
0.0017473
0.00176659
0.00178496
0.00180243
0.00181904
0.00183482
0.00184979
0.00186397
0.0018774
0.00189008
0.00190204
0.0019133
0.00192387
0.00193377
0.00194302
0.00195163
0.00195962
0.001967
0.00197379
0.00197999
0.00198562
0.0019907
0.00199522
0.00199922
0.00200269
0.00200565
0.0020081
0.00201007
0.00201155
0.00201257
0.00201312
0.00201321
0.00201287
0.00201209
0.00201088
0.00200927
0.00200725
0.00200484
0.00200206
0.0019989
0.00199539
0.00199152
0.00198732
0.00198279
0.00197794
0.00197278
0.00196731
0.00196156
0.00195553
0.00194922
0.00194265
0.00193583
0.00192876
0.00192146
0.00191394
0.00190619
0.00189824
0.00189009
0.00188175
0.00187322
0.00186453
0.00185567
0.00184665
0.00183749
0.00182819
0.00181876
0.0018092
0.00179953
0.00178976
0.00177988
0.00176991
0.00175985
0.00174972
0.00173951
0.00172924
0.00171891
0.00170852
0.00169808
0.0016876
0.00167709
0.00166654
0.00165596
0.00164535
0.00163473
0.00162409
0.00161343
0.00160276
0.00159208
0.0015814
0.00157071
0.00156002
0.00154932
0.00153863
0.00152793
0.00151723
0.00150654
0.00149584
0.00148514
0.00147443
0.00146373