/*--------------------------------*- C++ -*----------------------------------*\
  =========                 |
  \\      /  F ield         | OpenFOAM: The Open Source CFD Toolbox
   \\    /   O peration     | Website:  https://openfoam.org
    \\  /    A nd           | Version:  8
     \\/     M anipulation  |
\*---------------------------------------------------------------------------*/
FoamFile
{
    version     2.0;
    format      ascii;
    class       surfaceScalarField;
    location    "3900";
    object      phi;
}
// * * * * * * * * * * * * * * * * * * * * * * * * * * * * * * * * * * * * * //

dimensions      [1 0 -1 0 0 0 0];

internalField   nonuniform List<scalar> 
114370
(
6.83722e-10
4.29465e-13
-6.8415e-10
1.67076e-09
7.941e-12
-1.03247e-09
2.55524e-09
6.34417e-12
-8.74644e-10
3.08933e-09
3.139e-12
-5.318e-10
3.27514e-09
1.16527e-12
-1.86452e-10
3.15987e-09
3.12472e-13
1.14267e-10
2.79885e-09
3.0217e-14
3.60358e-10
2.24275e-09
-3.62892e-14
5.55732e-10
1.5337e-09
-4.01957e-14
7.08838e-10
7.05329e-10
-3.16182e-14
8.28224e-10
-2.15373e-10
-2.31269e-14
9.20592e-10
-1.20615e-09
-1.64936e-14
9.90687e-10
-2.24929e-09
-1.13928e-14
1.04307e-09
-3.33124e-09
-7.58088e-15
1.08188e-09
-4.44105e-09
-4.94543e-15
1.10975e-09
-5.5698e-09
-3.33488e-15
1.12871e-09
-6.71019e-09
-2.43708e-15
1.14036e-09
-7.85615e-09
-1.90866e-15
1.14594e-09
-9.00262e-09
-1.51695e-15
1.14647e-09
-1.01453e-08
-1.16862e-15
1.14272e-09
-1.12807e-08
-8.43046e-16
1.13536e-09
-1.24056e-08
-5.32111e-16
1.12489e-09
-1.35173e-08
-2.125e-16
1.11176e-09
-1.46136e-08
1.35735e-16
1.09631e-09
-1.56924e-08
5.10859e-16
1.07884e-09
-1.6752e-08
8.85658e-16
1.05958e-09
-1.77907e-08
1.2211e-15
1.03876e-09
-1.88073e-08
1.48683e-15
1.01653e-09
-1.98003e-08
1.66903e-15
9.93054e-10
-2.07688e-08
1.77131e-15
9.68462e-10
-2.17116e-08
1.80557e-15
9.42864e-10
-2.2628e-08
1.78654e-15
9.16362e-10
-2.3517e-08
1.72419e-15
8.89045e-10
-2.4378e-08
1.62357e-15
8.60992e-10
-2.52103e-08
1.48452e-15
8.32279e-10
-2.60133e-08
1.30519e-15
8.0297e-10
-2.67864e-08
1.0846e-15
7.7313e-10
-2.75293e-08
8.2569e-16
7.42815e-10
-2.82413e-08
5.40379e-16
7.12082e-10
-2.89223e-08
2.49973e-16
6.80982e-10
-2.95719e-08
-1.56598e-17
6.49566e-10
-3.01898e-08
-2.21823e-16
6.17883e-10
-3.07758e-08
-3.37402e-16
5.85979e-10
-3.13297e-08
-3.41958e-16
5.53899e-10
-3.18514e-08
-2.33594e-16
5.21689e-10
-3.23408e-08
-2.93324e-17
4.89391e-10
-3.27979e-08
2.37705e-16
4.57048e-10
-3.32226e-08
5.24745e-16
4.24701e-10
-3.36149e-08
7.89397e-16
3.92393e-10
-3.39751e-08
9.97617e-16
3.60163e-10
-3.43032e-08
1.12864e-15
3.28052e-10
-3.45993e-08
1.17678e-15
2.96099e-10
-3.48636e-08
1.14994e-15
2.64342e-10
-3.50965e-08
1.06592e-15
2.32821e-10
-3.52981e-08
9.4676e-16
2.01573e-10
-3.54687e-08
8.13781e-16
1.70635e-10
-3.56088e-08
6.85194e-16
1.40043e-10
-3.57186e-08
5.72815e-16
1.09832e-10
-3.57987e-08
4.82716e-16
8.00356e-11
-3.58494e-08
4.16091e-16
5.06854e-11
-3.58712e-08
3.7012e-16
2.18088e-11
-3.58647e-08
3.40086e-16
-6.56472e-12
-3.58303e-08
3.19593e-16
-3.44022e-11
-3.57687e-08
3.03329e-16
-6.16776e-11
-3.56803e-08
2.87607e-16
-8.83717e-11
-3.55659e-08
2.71397e-16
-1.14462e-10
-3.5426e-08
2.5432e-16
-1.39922e-10
-3.52613e-08
2.39086e-16
-1.64729e-10
-3.50724e-08
2.27213e-16
-1.88858e-10
-3.48602e-08
2.20706e-16
-2.1229e-10
-3.46252e-08
2.21573e-16
-2.35004e-10
-3.43682e-08
2.28348e-16
-2.56985e-10
-3.409e-08
2.41194e-16
-2.78216e-10
-3.37914e-08
2.58269e-16
-2.98685e-10
-3.3473e-08
2.78976e-16
-3.18379e-10
-3.31357e-08
3.00713e-16
-3.37288e-10
-3.27804e-08
3.22884e-16
-3.55403e-10
-3.24077e-08
3.43808e-16
-3.72717e-10
-3.20185e-08
3.62238e-16
-3.89225e-10
-3.16136e-08
3.76874e-16
-4.04922e-10
-3.11938e-08
3.84896e-16
-4.19806e-10
-3.07599e-08
3.85166e-16
-4.33877e-10
-3.03128e-08
3.76545e-16
-4.47134e-10
-2.98533e-08
3.58383e-16
-4.5958e-10
-2.93821e-08
3.31819e-16
-4.71219e-10
-2.89001e-08
2.99455e-16
-4.82054e-10
-2.8408e-08
2.62807e-16
-4.92092e-10
-2.79067e-08
2.26485e-16
-5.01341e-10
-2.73969e-08
1.93253e-16
-5.0981e-10
-2.68794e-08
1.65605e-16
-5.17508e-10
-2.6355e-08
1.46468e-16
-5.24446e-10
-2.58244e-08
1.36329e-16
-5.30637e-10
-2.52883e-08
1.35027e-16
-5.36094e-10
-2.47475e-08
1.42073e-16
-5.40831e-10
-2.42027e-08
1.55733e-16
-5.44863e-10
-2.36545e-08
1.73892e-16
-5.48206e-10
-2.31037e-08
1.95088e-16
-5.50878e-10
-2.25508e-08
2.17421e-16
-5.52895e-10
-2.19965e-08
2.39755e-16
-5.54276e-10
-2.14415e-08
2.60028e-16
-5.55039e-10
-2.08864e-08
2.79055e-16
-5.55204e-10
-2.03316e-08
2.96401e-16
-5.5479e-10
-1.97778e-08
3.11634e-16
-5.53817e-10
-1.92255e-08
3.26269e-16
-5.52306e-10
-1.86753e-08
3.40038e-16
-5.50277e-10
-1.81276e-08
3.54349e-16
-5.4775e-10
-1.75829e-08
3.69202e-16
-5.44746e-10
-1.70416e-08
3.85139e-16
-5.41286e-10
-1.65043e-08
4.0151e-16
-5.3739e-10
-1.59712e-08
4.19615e-16
-5.33078e-10
-1.54429e-08
4.38913e-16
-5.28371e-10
-1.49196e-08
4.60163e-16
-5.23287e-10
-1.44018e-08
4.83148e-16
-5.17847e-10
-1.38898e-08
5.07976e-16
-5.12068e-10
-1.33838e-08
5.34972e-16
-5.0597e-10
-1.28843e-08
5.6457e-16
-4.9957e-10
-1.23915e-08
5.96554e-16
-4.92885e-10
-1.19056e-08
6.30706e-16
-4.85931e-10
-1.14269e-08
6.66809e-16
-4.78724e-10
-1.09557e-08
7.05081e-16
-4.71278e-10
-1.04921e-08
7.44871e-16
-4.63609e-10
-1.00364e-08
7.86504e-16
-4.55728e-10
-9.5888e-09
8.29005e-16
-4.47649e-10
-9.14947e-09
8.72047e-16
-4.39382e-10
-8.71857e-09
9.15849e-16
-4.30939e-10
-8.2963e-09
9.59325e-16
-4.22328e-10
-7.88279e-09
1.00345e-15
-4.13558e-10
-7.4782e-09
1.04779e-15
-4.04638e-10
-7.08268e-09
1.09127e-15
-3.95573e-10
-6.69637e-09
1.13518e-15
-3.86371e-10
-6.31939e-09
1.17844e-15
-3.77035e-10
-5.95187e-09
1.223e-15
-3.67572e-10
-5.59395e-09
1.26842e-15
-3.57983e-10
-5.24574e-09
1.31363e-15
-3.48272e-10
-4.90736e-09
1.36014e-15
-3.38442e-10
-4.57893e-09
1.40687e-15
-3.28494e-10
-4.26057e-09
1.45403e-15
-3.18429e-10
-3.95239e-09
1.50238e-15
-3.0825e-10
-3.6545e-09
1.55139e-15
-2.97955e-10
-3.36703e-09
1.6005e-15
-2.87547e-10
-3.09008e-09
1.65048e-15
-2.77025e-10
-2.82377e-09
1.70045e-15
-2.66391e-10
-2.5682e-09
1.75032e-15
-2.55645e-10
-2.32349e-09
1.80041e-15
-2.44788e-10
-2.08975e-09
1.85092e-15
-2.33823e-10
-1.86709e-09
1.90318e-15
-2.22752e-10
-1.6556e-09
1.95521e-15
-2.11578e-10
-1.45538e-09
2.00724e-15
-2.00306e-10
-1.26653e-09
2.05928e-15
-1.88942e-10
-1.08913e-09
2.11153e-15
-1.77491e-10
-9.23267e-10
2.16421e-15
-1.65964e-10
-7.68997e-10
2.21667e-15
-1.54368e-10
-6.26381e-10
2.26892e-15
-1.42718e-10
-4.95459e-10
2.32095e-15
-1.31026e-10
-3.76256e-10
2.37319e-15
-1.19309e-10
-2.68779e-10
2.42587e-15
-1.07587e-10
-1.7301e-10
2.47984e-15
-9.58797e-11
-8.89114e-11
2.53534e-15
-8.42128e-11
-1.64205e-11
2.5917e-15
-7.26074e-11
4.45389e-11
2.64589e-15
-6.10785e-11
9.4079e-11
2.69943e-15
-4.96619e-11
1.32352e-10
2.75448e-15
-3.83968e-11
1.59545e-10
2.80737e-15
-2.73203e-11
1.75888e-10
2.85743e-15
-1.64727e-11
1.81653e-10
2.90099e-15
-5.89752e-12
1.77156e-10
2.93717e-15
4.36162e-12
1.62759e-10
2.96554e-15
1.42587e-11
1.38877e-10
2.98503e-15
2.37412e-11
1.05981e-10
2.99692e-15
3.2753e-11
6.45993e-11
3.00686e-15
4.12356e-11
1.5324e-11
3.01702e-15
4.91266e-11
-4.11863e-11
3.02522e-15
5.6359e-11
-1.042e-10
3.03082e-15
6.28596e-11
-1.72911e-10
3.03317e-15
6.85554e-11
-2.4644e-10
3.02359e-15
7.33701e-11
-3.23826e-10
2.99471e-15
7.72249e-11
-4.04024e-10
2.93352e-15
8.00353e-11
-4.85895e-10
2.83937e-15
8.17053e-11
-5.68203e-10
2.71204e-15
8.21406e-11
-6.49611e-10
2.55458e-15
8.12394e-11
-7.28672e-10
2.37217e-15
7.88901e-11
-8.03819e-10
2.16462e-15
7.49766e-11
-8.73364e-10
1.92237e-15
6.93737e-11
-9.35484e-10
1.63914e-15
6.1948e-11
-9.88213e-10
1.31276e-15
5.25584e-11
-1.02944e-09
9.51039e-16
4.10569e-11
-1.0569e-09
5.7371e-16
2.72936e-11
-1.06819e-09
1.95956e-16
1.11243e-11
-1.06079e-09
-1.68301e-16
-7.5629e-12
-1.03213e-09
-5.17845e-16
-2.88155e-11
-9.79701e-10
-8.40924e-16
-5.25838e-11
-9.01237e-10
-1.12322e-15
-7.86141e-11
-7.95136e-10
-1.35821e-15
-1.06247e-10
-6.61198e-10
-1.56542e-15
-1.34081e-10
-5.01978e-10
-1.7973e-15
-1.59361e-10
-3.25246e-10
-2.09243e-15
-1.76874e-10
-1.48241e-10
-2.4265e-15
-1.77149e-10
-4.79422e-12
-2.47816e-15
-1.436e-10
5.16919e-11
-8.9561e-16
-5.666e-11
3.82199e-16
5.14893e-11
7.11899e-10
-7.11676e-10
1.6696e-09
-1.05061e-09
2.5471e-09
-8.83127e-10
3.08428e-09
-5.34727e-10
3.27317e-09
-1.87135e-10
3.15947e-09
1.14232e-10
2.79899e-09
3.60419e-10
2.24298e-09
5.55766e-10
1.53389e-09
7.08844e-10
7.0547e-10
8.28219e-10
-2.15279e-10
9.20584e-10
-1.20609e-09
9.9068e-10
-2.24926e-09
1.04306e-09
-3.33122e-09
1.08188e-09
-4.44104e-09
1.10975e-09
-5.56979e-09
1.12871e-09
-6.71018e-09
1.14036e-09
-7.85614e-09
1.14594e-09
-9.00262e-09
1.14647e-09
-1.01453e-08
1.14272e-09
-1.12807e-08
1.13536e-09
-1.24056e-08
1.1249e-09
-1.35173e-08
1.11176e-09
-1.46136e-08
1.09631e-09
-1.56924e-08
1.07884e-09
-1.6752e-08
1.05959e-09
-1.77907e-08
1.03876e-09
-1.88072e-08
1.01653e-09
-1.98003e-08
9.93056e-10
-2.07687e-08
9.68463e-10
-2.17116e-08
9.42865e-10
-2.2628e-08
9.16363e-10
-2.3517e-08
8.89045e-10
-2.4378e-08
8.60992e-10
-2.52103e-08
8.32278e-10
-2.60133e-08
8.02969e-10
-2.67864e-08
7.73128e-10
-2.75292e-08
7.42813e-10
-2.82413e-08
7.1208e-10
-2.89223e-08
6.8098e-10
-2.95719e-08
6.49564e-10
-3.01898e-08
6.17882e-10
-3.07758e-08
5.85978e-10
-3.13297e-08
5.53899e-10
-3.18514e-08
5.21689e-10
-3.23408e-08
4.89391e-10
-3.27978e-08
4.57048e-10
-3.32225e-08
4.24701e-10
-3.36149e-08
3.92392e-10
-3.39751e-08
3.60162e-10
-3.43031e-08
3.2805e-10
-3.45992e-08
2.96097e-10
-3.48636e-08
2.6434e-10
-3.50964e-08
2.32819e-10
-3.5298e-08
2.01571e-10
-3.54687e-08
1.70632e-10
-3.56087e-08
1.4004e-10
-3.57186e-08
1.09829e-10
-3.57986e-08
8.00326e-11
-3.58493e-08
5.06824e-11
-3.58712e-08
2.18057e-11
-3.58646e-08
-6.56783e-12
-3.58303e-08
-3.44054e-11
-3.57686e-08
-6.16808e-11
-3.56803e-08
-8.83749e-11
-3.55658e-08
-1.14465e-10
-3.54259e-08
-1.39926e-10
-3.52612e-08
-1.64732e-10
-3.50724e-08
-1.88862e-10
-3.48601e-08
-2.12293e-10
-3.46251e-08
-2.35007e-10
-3.43682e-08
-2.56988e-10
-3.409e-08
-2.7822e-10
-3.37913e-08
-2.98688e-10
-3.34729e-08
-3.18382e-10
-3.31357e-08
-3.37291e-10
-3.27803e-08
-3.55406e-10
-3.24076e-08
-3.72721e-10
-3.20184e-08
-3.89228e-10
-3.16135e-08
-4.04926e-10
-3.11937e-08
-4.1981e-10
-3.07599e-08
-4.33881e-10
-3.03128e-08
-4.47138e-10
-2.98532e-08
-4.59584e-10
-2.9382e-08
-4.71223e-10
-2.89e-08
-4.82058e-10
-2.84079e-08
-4.92096e-10
-2.79066e-08
-5.01346e-10
-2.73969e-08
-5.09814e-10
-2.68794e-08
-5.17512e-10
-2.6355e-08
-5.2445e-10
-2.58244e-08
-5.30641e-10
-2.52883e-08
-5.36098e-10
-2.47475e-08
-5.40835e-10
-2.42027e-08
-5.44867e-10
-2.36545e-08
-5.4821e-10
-2.31036e-08
-5.50882e-10
-2.25508e-08
-5.52899e-10
-2.19965e-08
-5.5428e-10
-2.14415e-08
-5.55043e-10
-2.08863e-08
-5.55208e-10
-2.03316e-08
-5.54794e-10
-1.97778e-08
-5.53822e-10
-1.92255e-08
-5.52311e-10
-1.86753e-08
-5.50282e-10
-1.81275e-08
-5.47755e-10
-1.75828e-08
-5.44751e-10
-1.70416e-08
-5.41291e-10
-1.65042e-08
-5.37395e-10
-1.59712e-08
-5.33084e-10
-1.54428e-08
-5.28376e-10
-1.49196e-08
-5.23293e-10
-1.44018e-08
-5.17852e-10
-1.38897e-08
-5.12074e-10
-1.33838e-08
-5.05976e-10
-1.28843e-08
-4.99576e-10
-1.23914e-08
-4.92891e-10
-1.19055e-08
-4.85937e-10
-1.14269e-08
-4.7873e-10
-1.09556e-08
-4.71285e-10
-1.04921e-08
-4.63615e-10
-1.00364e-08
-4.55735e-10
-9.58878e-09
-4.47656e-10
-9.14944e-09
-4.39389e-10
-8.71855e-09
-4.30946e-10
-8.29627e-09
-4.22335e-10
-7.88276e-09
-4.13566e-10
-7.47818e-09
-4.04646e-10
-7.08266e-09
-3.95582e-10
-6.69634e-09
-3.86379e-10
-6.31936e-09
-3.77044e-10
-5.95185e-09
-3.6758e-10
-5.59393e-09
-3.57992e-10
-5.24572e-09
-3.48281e-10
-4.90734e-09
-3.38451e-10
-4.57891e-09
-3.28504e-10
-4.26055e-09
-3.1844e-10
-3.95237e-09
-3.0826e-10
-3.65448e-09
-2.97966e-10
-3.36701e-09
-2.87558e-10
-3.09006e-09
-2.77036e-10
-2.82374e-09
-2.66402e-10
-2.56818e-09
-2.55657e-10
-2.32347e-09
-2.448e-10
-2.08973e-09
-2.33836e-10
-1.86706e-09
-2.22765e-10
-1.65557e-09
-2.11591e-10
-1.45536e-09
-2.0032e-10
-1.26651e-09
-1.88955e-10
-1.08911e-09
-1.77505e-10
-9.23244e-10
-1.65978e-10
-7.68975e-10
-1.54383e-10
-6.26358e-10
-1.42733e-10
-4.95436e-10
-1.31041e-10
-3.76234e-10
-1.19324e-10
-2.68756e-10
-1.07602e-10
-1.72988e-10
-9.58958e-11
-8.88888e-11
-8.42292e-11
-1.63981e-11
-7.26241e-11
4.45612e-11
-6.10956e-11
9.41012e-11
-4.96793e-11
1.32374e-10
-3.84146e-11
1.59567e-10
-2.73384e-11
1.75909e-10
-1.64911e-11
1.81674e-10
-5.91629e-12
1.77177e-10
4.3425e-12
1.6278e-10
1.42392e-11
1.38898e-10
2.37214e-11
1.06001e-10
3.27329e-11
6.46186e-11
4.12151e-11
1.53427e-11
4.91058e-11
-4.11682e-11
5.63379e-11
-1.04182e-10
6.28381e-11
-1.72894e-10
6.85336e-11
-2.46424e-10
7.3348e-11
-3.23811e-10
7.72025e-11
-4.0401e-10
8.00125e-11
-4.85882e-10
8.16822e-11
-5.68191e-10
8.21172e-11
-6.496e-10
8.12158e-11
-7.28661e-10
7.88662e-11
-8.0381e-10
7.49526e-11
-8.73356e-10
6.93495e-11
-9.35477e-10
6.19238e-11
-9.88207e-10
5.25341e-11
-1.02943e-09
4.10326e-11
-1.0569e-09
2.72693e-11
-1.06819e-09
1.11001e-11
-1.06079e-09
-7.58701e-12
-1.03213e-09
-2.88395e-11
-9.797e-10
-5.26079e-11
-9.01236e-10
-7.86382e-11
-7.95136e-10
-1.06271e-10
-6.61199e-10
-1.34106e-10
-5.0198e-10
-1.59387e-10
-3.2525e-10
-1.76901e-10
-1.48249e-10
-1.77178e-10
-4.809e-12
-1.43632e-10
5.16699e-11
-5.6697e-11
5.14518e-11
1.04408e-09
-7.77684e-12
-1.68632e-09
1.65609e-09
-8.65944e-13
-1.64617e-09
1.97279e-09
3.47525e-13
-1.19058e-09
2.05671e-09
3.42813e-13
-6.1633e-10
1.9297e-09
1.717e-13
-6.00494e-11
1.61403e-09
5.88393e-14
4.29523e-10
1.13407e-09
8.40568e-15
8.40041e-10
5.14173e-10
-8.29022e-15
1.17543e-09
-2.22399e-10
-1.1276e-14
1.44525e-09
-1.05422e-09
-9.92303e-15
1.65992e-09
-1.96263e-09
-7.7346e-15
1.8289e-09
-2.93217e-09
-5.71448e-15
1.96014e-09
-3.94968e-09
-4.02913e-15
2.06051e-09
-5.00384e-09
-2.71531e-15
2.13599e-09
-6.08514e-09
-1.78692e-15
2.19101e-09
-7.1856e-09
-1.19441e-15
2.22913e-09
-8.29847e-09
-8.23898e-16
2.2532e-09
-9.41803e-09
-5.60284e-16
2.26549e-09
-1.05394e-08
-3.35186e-16
2.26785e-09
-1.16584e-08
-1.28735e-16
2.26176e-09
-1.27715e-08
5.78486e-17
2.24845e-09
-1.38755e-08
2.25784e-16
2.22893e-09
-1.49678e-08
3.81957e-16
2.20402e-09
-1.60459e-08
5.3252e-16
2.17442e-09
-1.71077e-08
6.75005e-16
2.14071e-09
-1.81515e-08
8.01146e-16
2.10337e-09
-1.91755e-08
9.00102e-16
2.06281e-09
-2.01784e-08
9.65122e-16
2.01939e-09
-2.11587e-08
9.94445e-16
1.97342e-09
-2.21154e-08
9.90267e-16
1.92515e-09
-2.30474e-08
9.55324e-16
1.87482e-09
-2.39536e-08
8.91569e-16
1.82263e-09
-2.48334e-08
7.99327e-16
1.76876e-09
-2.56858e-08
6.78814e-16
1.71338e-09
-2.65101e-08
5.31739e-16
1.65663e-09
-2.73058e-08
3.63983e-16
1.59866e-09
-2.80723e-08
1.86821e-16
1.53959e-09
-2.8809e-08
1.75747e-17
1.47954e-09
-2.95156e-08
-1.23998e-16
1.41862e-09
-3.01916e-08
-2.18895e-16
1.35695e-09
-3.08366e-08
-2.5454e-16
1.29461e-09
-3.14504e-08
-2.27248e-16
1.23171e-09
-3.20328e-08
-1.43495e-16
1.16835e-09
-3.25835e-08
-1.91934e-17
1.10461e-09
-3.31024e-08
1.2438e-16
1.04058e-09
-3.35894e-08
2.64268e-16
9.76359e-10
-3.40444e-08
3.80059e-16
9.12023e-10
-3.44673e-08
4.57361e-16
8.47657e-10
-3.48583e-08
4.89397e-16
7.83345e-10
-3.52173e-08
4.77388e-16
7.19169e-10
-3.55445e-08
4.28462e-16
6.5521e-10
-3.58399e-08
3.53976e-16
5.91546e-10
-3.61039e-08
2.66372e-16
5.28256e-10
-3.63365e-08
1.77086e-16
4.65415e-10
-3.6538e-08
9.52008e-17
4.03098e-10
-3.67088e-08
2.6895e-17
3.41378e-10
-3.68491e-08
-2.51206e-17
2.80327e-10
-3.69593e-08
-6.06022e-17
2.20012e-10
-3.70398e-08
-8.1203e-17
1.60502e-10
-3.7091e-08
-9.02299e-17
1.0186e-10
-3.71134e-08
-9.12878e-17
4.41465e-11
-3.71074e-08
-8.80361e-17
-1.25785e-11
-3.70736e-08
-8.3673e-17
-6.82593e-11
-3.70124e-08
-7.97707e-17
-1.22843e-10
-3.69245e-08
-7.72236e-17
-1.76277e-10
-3.68105e-08
-7.58691e-17
-2.28515e-10
-3.66709e-08
-7.49483e-17
-2.79506e-10
-3.65065e-08
-7.316e-17
-3.29205e-10
-3.63178e-08
-6.99082e-17
-3.77567e-10
-3.61056e-08
-6.47318e-17
-4.24554e-10
-3.58705e-08
-5.78749e-17
-4.70128e-10
-3.56132e-08
-4.98254e-17
-5.14256e-10
-3.53346e-08
-4.15048e-17
-5.56907e-10
-3.50352e-08
-3.35095e-17
-5.98054e-10
-3.4716e-08
-2.65442e-17
-6.37673e-10
-3.43775e-08
-2.10967e-17
-6.75744e-10
-3.40207e-08
-1.74924e-17
-7.12249e-10
-3.36463e-08
-1.61107e-17
-7.47173e-10
-3.3255e-08
-1.71684e-17
-7.80507e-10
-3.28477e-08
-2.09095e-17
-8.1224e-10
-3.24252e-08
-2.71443e-17
-8.42368e-10
-3.19882e-08
-3.61438e-17
-8.70889e-10
-3.15376e-08
-4.73388e-17
-8.97804e-10
-3.10741e-08
-6.01059e-17
-9.23116e-10
-3.05985e-08
-7.34422e-17
-9.46831e-10
-3.01116e-08
-8.6128e-17
-9.68959e-10
-2.96142e-08
-9.74585e-17
-9.89512e-10
-2.91071e-08
-1.0597e-16
-1.0085e-09
-2.8591e-08
-1.11256e-16
-1.02595e-09
-2.80667e-08
-1.1272e-16
-1.04187e-09
-2.75349e-08
-1.10525e-16
-1.05629e-09
-2.69963e-08
-1.05241e-16
-1.06923e-09
-2.64517e-08
-9.74619e-17
-1.08071e-09
-2.59018e-08
-8.81926e-17
-1.09076e-09
-2.53473e-08
-7.82998e-17
-1.09942e-09
-2.47888e-08
-6.86509e-17
-1.10671e-09
-2.42271e-08
-5.97067e-17
-1.11266e-09
-2.36627e-08
-5.23618e-17
-1.11731e-09
-2.30963e-08
-4.65076e-17
-1.12069e-09
-2.25285e-08
-4.2361e-17
-1.12285e-09
-2.196e-08
-3.9678e-17
-1.12381e-09
-2.13912e-08
-3.80522e-17
-1.12361e-09
-2.08227e-08
-3.75376e-17
-1.1223e-09
-2.02551e-08
-3.7511e-17
-1.11991e-09
-1.9689e-08
-3.77282e-17
-1.11648e-09
-1.91247e-08
-3.79997e-17
-1.11204e-09
-1.85628e-08
-3.80814e-17
-1.10665e-09
-1.80038e-08
-3.80276e-17
-1.10034e-09
-1.74481e-08
-3.77298e-17
-1.09314e-09
-1.68961e-08
-3.72152e-17
-1.08511e-09
-1.63483e-08
-3.63482e-17
-1.07626e-09
-1.58049e-08
-3.55354e-17
-1.06666e-09
-1.52665e-08
-3.43973e-17
-1.05632e-09
-1.47333e-08
-3.32593e-17
-1.04528e-09
-1.42058e-08
-3.2067e-17
-1.03359e-09
-1.36841e-08
-3.06579e-17
-1.02127e-09
-1.31687e-08
-2.93573e-17
-1.00837e-09
-1.26597e-08
-2.80024e-17
-9.94896e-10
-1.21576e-08
-2.70542e-17
-9.80895e-10
-1.16625e-08
-2.6377e-17
-9.66392e-10
-1.11748e-08
-2.61336e-17
-9.51414e-10
-1.06946e-08
-2.64052e-17
-9.35986e-10
-1.02221e-08
-2.70834e-17
-9.20131e-10
-9.7577e-09
-2.83851e-17
-9.03872e-10
-9.30146e-09
-3.04458e-17
-8.87228e-10
-8.85362e-09
-3.30487e-17
-8.70218e-10
-8.41437e-09
-3.60853e-17
-8.52859e-10
-7.9839e-09
-3.97455e-17
-8.35166e-10
-7.56238e-09
-4.37581e-17
-8.17151e-10
-7.14998e-09
-4.83673e-17
-7.98827e-10
-6.74688e-09
-5.32204e-17
-7.80203e-10
-6.35322e-09
-5.82635e-17
-7.61288e-10
-5.96918e-09
-6.33881e-17
-7.42089e-10
-5.59491e-09
-6.88382e-17
-7.22612e-10
-5.23055e-09
-7.46408e-17
-7.02862e-10
-4.87628e-09
-8.06063e-17
-6.82841e-10
-4.53222e-09
-8.66533e-17
-6.62553e-10
-4.19854e-09
-9.32157e-17
-6.42001e-10
-3.87539e-09
-9.98325e-17
-6.21184e-10
-3.56291e-09
-1.06992e-16
-6.00106e-10
-3.26125e-09
-1.1426e-16
-5.78767e-10
-2.97055e-09
-1.2207e-16
-5.57169e-10
-2.69096e-09
-1.29773e-16
-5.35314e-10
-2.42263e-09
-1.38018e-16
-5.13205e-10
-2.1657e-09
-1.45884e-16
-4.90846e-10
-1.9203e-09
-1.54022e-16
-4.68242e-10
-1.68657e-09
-1.62214e-16
-4.45401e-10
-1.46463e-09
-1.70245e-16
-4.22331e-10
-1.25463e-09
-1.78384e-16
-3.99044e-10
-1.05666e-09
-1.86524e-16
-3.75554e-10
-8.70849e-10
-1.94719e-16
-3.51878e-10
-6.97284e-10
-2.02752e-16
-3.28037e-10
-5.36053e-10
-2.10786e-16
-3.04054e-10
-3.87228e-10
-2.192e-16
-2.79958e-10
-2.50864e-10
-2.27073e-16
-2.55783e-10
-1.26997e-10
-2.34892e-16
-2.31566e-10
-1.5641e-11
-2.42441e-16
-2.0735e-10
8.32022e-11
-2.49991e-16
-1.83173e-10
1.69556e-10
-2.57216e-16
-1.59081e-10
2.43485e-10
-2.64334e-16
-1.35129e-10
3.0508e-10
-2.71508e-16
-1.11382e-10
3.54465e-10
-2.78249e-16
-8.79099e-11
3.91804e-10
-2.8537e-16
-6.4789e-11
4.17298e-10
-2.93686e-16
-4.20995e-11
4.31193e-10
-3.02815e-16
-1.9928e-11
4.33783e-10
-3.13517e-16
1.63399e-12
4.25411e-10
-3.24871e-16
2.24903e-11
4.06473e-10
-3.36389e-16
4.25362e-11
3.77422e-10
-3.47259e-16
6.16585e-11
3.38771e-10
-3.57208e-16
7.9738e-11
2.91099e-10
-3.64827e-16
9.66489e-11
2.35048e-10
-3.69901e-16
1.12257e-10
1.71334e-10
-3.73078e-16
1.26419e-10
1.00744e-10
-3.75552e-16
1.38987e-10
2.41452e-11
-3.79762e-16
1.49809e-10
-5.75116e-11
-3.87876e-16
1.5872e-10
-1.43186e-10
-4.00383e-16
1.65545e-10
-2.31753e-10
-4.16738e-16
1.70106e-10
-3.21997e-10
-4.34397e-16
1.72217e-10
-4.12603e-10
-4.51297e-16
1.71677e-10
-5.02158e-10
-4.65216e-16
1.68275e-10
-5.89142e-10
-4.76317e-16
1.61791e-10
-6.7193e-10
-4.87255e-16
1.51991e-10
-7.48785e-10
-4.98953e-16
1.38634e-10
-8.17862e-10
-5.0962e-16
1.21468e-10
-8.7721e-10
-5.15408e-16
1.00239e-10
-9.2478e-10
-5.1057e-16
7.47005e-11
-9.58445e-10
-4.93479e-16
4.4629e-11
-9.76025e-10
-4.64796e-16
9.86034e-12
-9.75346e-10
-4.25041e-16
-2.9648e-11
-9.54338e-10
-3.714e-16
-7.37419e-11
-9.11173e-10
-3.02679e-16
-1.21926e-10
-8.44486e-10
-2.24401e-16
-1.73078e-10
-7.5372e-10
-1.53363e-16
-2.24991e-10
-6.39629e-10
-1.09605e-16
-2.73599e-10
-5.04963e-10
-1.14995e-16
-3.11692e-10
-3.55371e-10
-1.94733e-16
-3.26907e-10
-2.00518e-10
-2.42073e-16
-2.98643e-10
-6.18816e-11
6.45482e-16
-1.95537e-10
2.09788e-15
-1.05669e-11
1.05395e-09
-1.67809e-09
1.65811e-09
-1.64552e-09
1.97238e-09
-1.19109e-09
2.0562e-09
-6.16626e-10
1.9295e-09
-6.0101e-11
1.61405e-09
4.29559e-10
1.13417e-09
8.40086e-10
5.14271e-10
1.17546e-09
-2.22321e-10
1.44527e-09
-1.05416e-09
1.65993e-09
-1.96259e-09
1.82891e-09
-2.93214e-09
1.96014e-09
-3.94967e-09
2.06051e-09
-5.00383e-09
2.13599e-09
-6.08514e-09
2.19101e-09
-7.18559e-09
2.22913e-09
-8.29846e-09
2.2532e-09
-9.41801e-09
2.26549e-09
-1.05394e-08
2.26785e-09
-1.16584e-08
2.26176e-09
-1.27715e-08
2.24845e-09
-1.38755e-08
2.22893e-09
-1.49677e-08
2.20402e-09
-1.60458e-08
2.17442e-09
-1.71077e-08
2.14071e-09
-1.81515e-08
2.10337e-09
-1.91755e-08
2.06281e-09
-2.01783e-08
2.01939e-09
-2.11587e-08
1.97342e-09
-2.21154e-08
1.92515e-09
-2.30473e-08
1.87482e-09
-2.39536e-08
1.82262e-09
-2.48333e-08
1.76876e-09
-2.56857e-08
1.71337e-09
-2.65101e-08
1.65663e-09
-2.73058e-08
1.59866e-09
-2.80722e-08
1.53959e-09
-2.8809e-08
1.47954e-09
-2.95155e-08
1.41862e-09
-3.01915e-08
1.35694e-09
-3.08366e-08
1.29461e-09
-3.14504e-08
1.23171e-09
-3.20328e-08
1.16835e-09
-3.25835e-08
1.10461e-09
-3.31024e-08
1.04058e-09
-3.35894e-08
9.76359e-10
-3.40443e-08
9.12022e-10
-3.44673e-08
8.47656e-10
-3.48582e-08
7.83344e-10
-3.52173e-08
7.19168e-10
-3.55444e-08
6.55209e-10
-3.58399e-08
5.91545e-10
-3.61038e-08
5.28255e-10
-3.63364e-08
4.65414e-10
-3.6538e-08
4.03097e-10
-3.67087e-08
3.41378e-10
-3.68491e-08
2.80326e-10
-3.69593e-08
2.20012e-10
-3.70398e-08
1.60502e-10
-3.7091e-08
1.0186e-10
-3.71133e-08
4.41461e-11
-3.71073e-08
-1.2579e-11
-3.70735e-08
-6.82597e-11
-3.70124e-08
-1.22843e-10
-3.69245e-08
-1.76278e-10
-3.68105e-08
-2.28515e-10
-3.66709e-08
-2.79506e-10
-3.65064e-08
-3.29205e-10
-3.63178e-08
-3.77568e-10
-3.61055e-08
-4.24555e-10
-3.58704e-08
-4.70129e-10
-3.56132e-08
-5.14256e-10
-3.53345e-08
-5.56907e-10
-3.50352e-08
-5.98054e-10
-3.47159e-08
-6.37673e-10
-3.43775e-08
-6.75744e-10
-3.40207e-08
-7.12249e-10
-3.36462e-08
-7.47174e-10
-3.3255e-08
-7.80507e-10
-3.28477e-08
-8.1224e-10
-3.24252e-08
-8.42368e-10
-3.19882e-08
-8.70889e-10
-3.15375e-08
-8.97804e-10
-3.1074e-08
-9.23116e-10
-3.05985e-08
-9.46831e-10
-3.01116e-08
-9.68959e-10
-2.96142e-08
-9.89512e-10
-2.91071e-08
-1.0085e-09
-2.8591e-08
-1.02595e-09
-2.80666e-08
-1.04187e-09
-2.75348e-08
-1.05629e-09
-2.69963e-08
-1.06923e-09
-2.64517e-08
-1.08071e-09
-2.59018e-08
-1.09076e-09
-2.53473e-08
-1.09942e-09
-2.47888e-08
-1.10671e-09
-2.4227e-08
-1.11266e-09
-2.36627e-08
-1.11731e-09
-2.30963e-08
-1.12069e-09
-2.25285e-08
-1.12285e-09
-2.19599e-08
-1.12381e-09
-2.13911e-08
-1.12361e-09
-2.08227e-08
-1.1223e-09
-2.02551e-08
-1.11991e-09
-1.96889e-08
-1.11648e-09
-1.91247e-08
-1.11205e-09
-1.85628e-08
-1.10665e-09
-1.80038e-08
-1.10034e-09
-1.74481e-08
-1.09315e-09
-1.68961e-08
-1.08511e-09
-1.63482e-08
-1.07627e-09
-1.58049e-08
-1.06666e-09
-1.52665e-08
-1.05632e-09
-1.47333e-08
-1.04528e-09
-1.42057e-08
-1.03359e-09
-1.36841e-08
-1.02127e-09
-1.31686e-08
-1.00837e-09
-1.26597e-08
-9.94896e-10
-1.21576e-08
-9.80896e-10
-1.16625e-08
-9.66393e-10
-1.11748e-08
-9.51415e-10
-1.06945e-08
-9.35987e-10
-1.02221e-08
-9.20132e-10
-9.75767e-09
-9.03873e-10
-9.30144e-09
-8.87229e-10
-8.8536e-09
-8.70219e-10
-8.41435e-09
-8.5286e-10
-7.98388e-09
-8.35167e-10
-7.56236e-09
-8.17152e-10
-7.14996e-09
-7.98828e-10
-6.74686e-09
-7.80204e-10
-6.3532e-09
-7.6129e-10
-5.96916e-09
-7.42091e-10
-5.59488e-09
-7.22614e-10
-5.23053e-09
-7.02863e-10
-4.87625e-09
-6.82843e-10
-4.5322e-09
-6.62555e-10
-4.19852e-09
-6.42002e-10
-3.87537e-09
-6.21186e-10
-3.56289e-09
-6.00108e-10
-3.26123e-09
-5.78769e-10
-2.97053e-09
-5.57171e-10
-2.69094e-09
-5.35316e-10
-2.42261e-09
-5.13207e-10
-2.16568e-09
-4.90848e-10
-1.92028e-09
-4.68244e-10
-1.68654e-09
-4.45403e-10
-1.46461e-09
-4.22333e-10
-1.25461e-09
-3.99046e-10
-1.05664e-09
-3.75556e-10
-8.70829e-10
-3.5188e-10
-6.97263e-10
-3.28039e-10
-5.36032e-10
-3.04056e-10
-3.87207e-10
-2.7996e-10
-2.50843e-10
-2.55785e-10
-1.26976e-10
-2.31568e-10
-1.56206e-11
-2.07352e-10
8.32226e-11
-1.83175e-10
1.69577e-10
-1.59083e-10
2.43505e-10
-1.35131e-10
3.051e-10
-1.11383e-10
3.54485e-10
-8.79117e-11
3.91824e-10
-6.47908e-11
4.17318e-10
-4.21012e-11
4.31213e-10
-1.99297e-11
4.33802e-10
1.6323e-12
4.2543e-10
2.24886e-11
4.06491e-10
4.25346e-11
3.7744e-10
6.16569e-11
3.38789e-10
7.97365e-11
2.91115e-10
9.66474e-11
2.35064e-10
1.12255e-10
1.71349e-10
1.26417e-10
1.00759e-10
1.38986e-10
2.41598e-11
1.49808e-10
-5.74976e-11
1.58718e-10
-1.43173e-10
1.65544e-10
-2.3174e-10
1.70105e-10
-3.21985e-10
1.72216e-10
-4.12592e-10
1.71676e-10
-5.02148e-10
1.68274e-10
-5.89133e-10
1.61789e-10
-6.71921e-10
1.5199e-10
-7.48777e-10
1.38632e-10
-8.17855e-10
1.21466e-10
-8.77203e-10
1.00237e-10
-9.24774e-10
7.46983e-11
-9.5844e-10
4.46265e-11
-9.76021e-10
9.85751e-12
-9.75342e-10
-2.96512e-11
-9.54335e-10
-7.37456e-11
-9.1117e-10
-1.2193e-10
-8.44484e-10
-1.73083e-10
-7.53719e-10
-2.24997e-10
-6.39629e-10
-2.73605e-10
-5.04964e-10
-3.117e-10
-3.55374e-10
-3.26917e-10
-2.00527e-10
-2.98655e-10
-6.19024e-11
-1.95553e-10
-1.05848e-11
8.53097e-10
-4.19219e-12
-2.55332e-09
1.16637e-09
-8.91441e-13
-1.96248e-09
1.18241e-09
-1.59931e-13
-1.20712e-09
1.01867e-09
6.07971e-15
-4.5287e-10
7.13136e-10
2.12686e-14
2.45293e-10
2.82972e-10
9.12658e-15
8.59546e-10
-2.59782e-10
-6.04471e-16
1.38269e-09
-9.0315e-10
-4.60702e-15
1.81872e-09
-1.63455e-09
-5.16112e-15
2.17659e-09
-2.44145e-09
-4.37747e-15
2.46676e-09
-3.31189e-09
-3.3424e-15
2.6993e-09
-4.23504e-09
-2.38866e-15
2.88325e-09
-5.20108e-09
-1.564e-15
3.02651e-09
-6.20104e-09
-9.18609e-16
3.13592e-09
-7.22708e-09
-5.01144e-16
3.21702e-09
-8.27232e-09
-2.85571e-16
3.27436e-09
-9.33079e-09
-1.82605e-16
3.31166e-09
-1.03973e-08
-1.06811e-16
3.33197e-09
-1.14672e-08
-1.9836e-17
3.33781e-09
-1.25367e-08
7.62464e-17
3.33123e-09
-1.36022e-08
1.68087e-16
3.31396e-09
-1.46607e-08
2.50808e-16
3.28741e-09
-1.57094e-08
3.29259e-16
3.25277e-09
-1.67461e-08
4.09066e-16
3.21105e-09
-1.77684e-08
4.89903e-16
3.16309e-09
-1.87747e-08
5.65197e-16
3.1096e-09
-1.9763e-08
6.25706e-16
3.05119e-09
-2.0732e-08
6.63541e-16
2.9884e-09
-2.16803e-08
6.73608e-16
2.92167e-09
-2.26065e-08
6.54239e-16
2.8514e-09
-2.35097e-08
6.05406e-16
2.77795e-09
-2.43887e-08
5.28601e-16
2.70162e-09
-2.52426e-08
4.26237e-16
2.62269e-09
-2.60706e-08
3.02906e-16
2.5414e-09
-2.6872e-08
1.66742e-16
2.458e-09
-2.7646e-08
3.02792e-17
2.37268e-09
-2.83921e-08
-9.03267e-17
2.28565e-09
-2.91096e-08
-1.77756e-16
2.19708e-09
-2.97981e-08
-2.18063e-16
2.10714e-09
-3.04572e-08
-2.05298e-16
2.016e-09
-3.10864e-08
-1.43595e-16
1.92382e-09
-3.16854e-08
-4.61948e-17
1.83074e-09
-3.2254e-08
6.7916e-17
1.7369e-09
-3.27918e-08
1.78734e-16
1.64246e-09
-3.32988e-08
2.69697e-16
1.54753e-09
-3.37747e-08
3.30153e-16
1.45226e-09
-3.42195e-08
3.56363e-16
1.35677e-09
-3.4633e-08
3.50534e-16
1.2612e-09
-3.50153e-08
3.18915e-16
1.16566e-09
-3.53664e-08
2.70016e-16
1.07029e-09
-3.56864e-08
2.12485e-16
9.75199e-10
-3.59754e-08
1.53856e-16
8.80511e-10
-3.62335e-08
9.955e-17
7.86342e-10
-3.64609e-08
5.30098e-17
6.92806e-10
-3.66578e-08
1.59158e-17
6.00017e-10
-3.68245e-08
-1.13391e-17
5.08083e-10
-3.69613e-08
-2.93782e-17
4.17112e-10
-3.70685e-08
-3.94077e-17
3.27206e-10
-3.71465e-08
-4.30946e-17
2.38466e-10
-3.71956e-08
-4.26073e-17
1.50988e-10
-3.72164e-08
-3.97076e-17
6.48654e-11
-3.72091e-08
-3.59541e-17
-1.98128e-11
-3.71745e-08
-3.22277e-17
-1.0296e-10
-3.71128e-08
-2.89213e-17
-1.84494e-10
-3.70248e-08
-2.58725e-17
-2.64336e-10
-3.69109e-08
-2.27287e-17
-3.42411e-10
-3.67717e-08
-1.90835e-17
-4.18646e-10
-3.6608e-08
-1.45709e-17
-4.92973e-10
-3.64202e-08
-9.25869e-18
-5.65329e-10
-3.62091e-08
-3.26884e-18
-6.35652e-10
-3.59754e-08
3.11405e-18
-7.03889e-10
-3.57197e-08
9.40208e-18
-7.69989e-10
-3.54427e-08
1.51887e-17
-8.33906e-10
-3.51451e-08
2.00131e-17
-8.95599e-10
-3.48278e-08
2.34687e-17
-9.55033e-10
-3.44914e-08
2.53386e-17
-1.01218e-09
-3.41366e-08
2.55281e-17
-1.067e-09
-3.37643e-08
2.39828e-17
-1.11948e-09
-3.33752e-08
2.073e-17
-1.16961e-09
-3.29701e-08
1.59999e-17
-1.21737e-09
-3.25497e-08
9.84679e-18
-1.26275e-09
-3.21149e-08
2.89411e-18
-1.30574e-09
-3.16664e-08
-4.49223e-18
-1.34636e-09
-3.12049e-08
-1.19599e-17
-1.38459e-09
-3.07313e-08
-1.88854e-17
-1.42046e-09
-3.02463e-08
-2.46996e-17
-1.45397e-09
-2.97507e-08
-2.91044e-17
-1.48515e-09
-2.92452e-08
-3.15982e-17
-1.514e-09
-2.87306e-08
-3.21134e-17
-1.54056e-09
-2.82076e-08
-3.06092e-17
-1.56485e-09
-2.7677e-08
-2.73838e-17
-1.58691e-09
-2.71395e-08
-2.26541e-17
-1.60677e-09
-2.65957e-08
-1.70841e-17
-1.62446e-09
-2.60465e-08
-1.10262e-17
-1.64002e-09
-2.54924e-08
-4.99542e-18
-1.6535e-09
-2.49342e-08
5.475e-19
-1.66495e-09
-2.43724e-08
5.3857e-18
-1.6744e-09
-2.38078e-08
9.24813e-18
-1.68191e-09
-2.3241e-08
1.20535e-17
-1.68753e-09
-2.26726e-08
1.40186e-17
-1.69131e-09
-2.21031e-08
1.51434e-17
-1.69331e-09
-2.15331e-08
1.57127e-17
-1.69358e-09
-2.09633e-08
1.57805e-17
-1.69217e-09
-2.0394e-08
1.56314e-17
-1.68914e-09
-1.9826e-08
1.55366e-17
-1.68456e-09
-1.92596e-08
1.54012e-17
-1.67847e-09
-1.86953e-08
1.54826e-17
-1.67093e-09
-1.81336e-08
1.56724e-17
-1.66201e-09
-1.7575e-08
1.60791e-17
-1.65176e-09
-1.70199e-08
1.67297e-17
-1.64023e-09
-1.64687e-08
1.75158e-17
-1.62748e-09
-1.59218e-08
1.84511e-17