/*--------------------------------*- C++ -*----------------------------------*\
  =========                 |
  \\      /  F ield         | OpenFOAM: The Open Source CFD Toolbox
   \\    /   O peration     | Website:  https://openfoam.org
    \\  /    A nd           | Version:  8
     \\/     M anipulation  |
\*---------------------------------------------------------------------------*/
FoamFile
{
    version     2.0;
    format      ascii;
    class       volScalarField;
    location    "3900";
    object      T;
}
// * * * * * * * * * * * * * * * * * * * * * * * * * * * * * * * * * * * * * //

dimensions      [0 0 0 1 0 0 0];

internalField   nonuniform List<scalar> 
46000
(
309.962
308.815
308.016
307.502
307.133
306.842
306.598
306.389
306.204
306.039
305.888
305.749
305.622
305.503
305.393
305.289
305.191
305.099
305.012
304.93
304.851
304.777
304.707
304.64
304.576
304.515
304.457
304.402
304.35
304.3
304.252
304.207
304.163
304.122
304.083
304.045
304.01
303.976
303.944
303.913
303.884
303.857
303.831
303.806
303.783
303.761
303.74
303.721
303.703
303.686
303.67
303.655
303.641
303.628
303.617
303.606
303.596
303.587
303.58
303.573
303.567
303.562
303.557
303.554
303.551
303.549
303.548
303.548
303.549
303.551
303.553
303.556
303.56
303.564
303.57
303.576
303.583
303.591
303.599
303.608
303.618
303.628
303.639
303.651
303.664
303.677
303.691
303.706
303.721
303.737
303.753
303.77
303.788
303.807
303.826
303.845
303.865
303.886
303.907
303.929
303.952
303.975
303.998
304.022
304.047
304.072
304.098
304.124
304.15
304.177
304.205
304.233
304.262
304.291
304.32
304.35
304.381
304.412
304.443
304.475
304.507
304.54
304.573
304.606
304.64
304.675
304.71
304.745
304.781
304.818
304.855
304.892
304.93
304.968
305.007
305.047
305.087
305.127
305.168
305.21
305.252
305.295
305.338
305.382
305.427
305.472
305.518
305.565
305.612
305.66
305.708
305.758
305.808
305.859
305.91
305.963
306.016
306.07
306.125
306.18
306.237
306.294
306.352
306.411
306.471
306.531
306.593
306.655
306.718
306.783
306.848
306.914
306.982
307.051
307.121
307.192
307.265
307.34
307.416
307.494
307.575
307.657
307.743
307.831
307.923
308.019
308.119
308.226
308.339
308.459
308.589
308.732
308.892
309.073
309.285
309.54
309.864
310.297
310.88
311.434
309.964
308.816
308.016
307.502
307.133
306.842
306.598
306.389
306.204
306.039
305.888
305.749
305.622
305.503
305.393
305.289
305.191
305.099
305.012
304.93
304.851
304.777
304.707
304.64
304.576
304.515
304.457
304.402
304.35
304.3
304.252
304.207
304.163
304.122
304.083
304.045
304.01
303.976
303.944
303.913
303.884
303.857
303.831
303.806
303.783
303.761
303.74
303.721
303.703
303.686
303.67
303.655
303.641
303.628
303.617
303.606
303.596
303.587
303.58
303.573
303.567
303.562
303.557
303.554
303.551
303.549
303.548
303.548
303.549
303.551
303.553
303.556
303.56
303.564
303.57
303.576
303.583
303.591
303.599
303.608
303.618
303.628
303.639
303.651
303.664
303.677
303.691
303.706
303.721
303.737
303.753
303.77
303.788
303.807
303.826
303.845
303.865
303.886
303.907
303.929
303.952
303.975
303.998
304.022
304.047
304.072
304.098
304.124
304.15
304.177
304.205
304.233
304.262
304.291
304.32
304.35
304.381
304.412
304.443
304.475
304.507
304.54
304.573
304.606
304.64
304.675
304.71
304.745
304.781
304.818
304.855
304.892
304.93
304.968
305.007
305.047
305.087
305.127
305.168
305.21
305.252
305.295
305.338
305.382
305.427
305.472
305.518
305.565
305.612
305.66
305.708
305.758
305.808
305.859
305.91
305.963
306.016
306.07
306.125
306.18
306.237
306.294
306.352
306.411
306.471
306.531
306.593
306.655
306.718
306.783
306.848
306.914
306.982
307.051
307.121
307.192
307.265
307.34
307.416
307.494
307.575
307.657
307.743
307.831
307.923
308.019
308.119
308.226
308.339
308.459
308.59
308.733
308.892
309.073
309.285
309.54
309.864
310.297
310.88
311.434
306.479
306.067
305.728
305.462
305.247
305.067
304.913
304.777
304.654
304.542
304.439
304.344
304.255
304.172
304.093
304.019
303.949
303.883
303.82
303.76
303.703
303.648
303.596
303.547
303.5
303.454
303.411
303.37
303.331
303.293
303.257
303.223
303.19
303.158
303.128
303.099
303.072
303.045
303.02
302.996
302.973
302.951
302.931
302.911
302.892
302.874
302.856
302.84
302.824
302.81
302.796
302.782
302.77
302.758
302.747
302.737
302.727
302.718
302.709
302.702
302.694
302.688
302.681
302.676
302.671
302.667
302.663
302.659
302.657
302.654
302.653
302.652
302.651
302.651
302.651
302.652
302.654
302.656
302.658
302.661
302.664
302.668
302.673
302.677
302.683
302.689
302.695
302.702
302.709
302.716
302.725
302.733
302.742
302.752
302.762
302.772
302.783
302.794
302.806
302.818
302.83
302.843
302.857
302.871
302.885
302.9
302.915
302.93
302.946
302.963
302.98
302.997
303.015
303.033
303.051
303.071
303.09
303.11
303.13
303.151
303.172
303.194
303.216
303.239
303.262
303.286
303.31
303.335
303.36
303.385
303.412
303.438
303.465
303.493
303.521
303.55
303.58
303.61
303.64
303.672
303.703
303.736
303.769
303.802
303.837
303.872
303.907
303.944
303.981
304.018
304.057
304.096
304.135
304.176
304.217
304.259
304.302
304.345
304.389
304.434
304.479
304.525
304.572
304.62
304.668
304.717
304.767
304.818
304.869
304.921
304.974
305.028
305.082
305.138
305.194
305.252
305.31
305.369
305.43
305.492
305.556
305.621
305.688
305.758
305.83
305.905
305.984
306.067
306.155
306.25
306.353
306.467
306.593
306.738
306.908
307.113
307.37
307.704
308.157
308.702
306.48
306.067
305.728
305.462
305.247
305.067
304.913
304.777
304.654
304.542
304.439
304.344
304.255
304.172
304.093
304.019
303.949
303.883
303.82
303.76
303.703
303.648
303.596
303.547
303.5
303.454
303.411
303.37
303.331
303.293
303.257
303.223
303.19
303.158
303.128
303.099
303.072
303.046
303.02
302.996
302.973
302.951
302.931
302.911
302.892
302.874
302.856
302.84
302.824
302.81
302.796
302.782
302.77
302.758
302.747
302.737
302.727
302.718
302.709
302.702
302.694
302.688
302.681
302.676
302.671
302.667
302.663
302.659
302.657
302.654
302.653
302.652
302.651
302.651
302.651
302.652
302.654
302.656
302.658
302.661
302.664
302.668
302.673
302.677
302.683
302.689
302.695
302.702
302.709
302.716
302.725
302.733
302.742
302.752
302.762
302.772
302.783
302.794
302.806
302.818
302.83
302.843
302.857
302.871
302.885
302.9
302.915
302.93
302.946
302.963
302.98
302.997
303.015
303.033
303.052
303.071
303.09
303.11
303.13
303.151
303.172
303.194
303.216
303.239
303.262
303.286
303.31
303.335
303.36
303.385
303.412
303.438
303.465
303.493
303.521
303.55
303.58
303.61
303.64
303.672
303.703
303.736
303.769
303.802
303.837
303.872
303.907
303.944
303.981
304.018
304.057
304.096
304.135
304.176
304.217
304.259
304.302
304.345
304.389
304.434
304.479
304.525
304.572
304.62
304.668
304.717
304.767
304.818
304.869
304.921
304.974
305.028
305.082
305.138
305.194
305.252
305.31
305.369
305.43
305.492
305.556
305.621
305.689
305.758
305.83
305.905
305.984
306.067
306.155
306.25
306.353
306.467
306.593
306.738
306.908
307.113
307.37
307.704
308.157
308.702
304.936
304.848
304.703
304.555
304.416
304.289
304.174
304.068
303.971
303.88
303.796
303.716
303.642
303.571
303.504
303.441
303.381
303.323
303.269
303.217
303.167
303.119
303.074
303.03
302.989
302.949
302.911
302.874
302.839
302.806
302.774
302.743
302.714
302.685
302.658
302.632
302.608
302.584
302.561
302.539
302.518
302.498
302.479
302.461
302.443
302.426
302.41
302.395
302.38
302.366
302.353
302.34
302.328
302.316
302.306
302.295
302.285
302.276
302.267
302.259
302.252
302.244
302.238
302.231
302.226
302.22
302.215
302.211
302.207
302.204
302.201
302.198
302.196
302.194
302.193
302.192
302.192
302.192
302.193
302.193
302.195
302.197
302.199
302.201
302.204
302.208
302.212
302.216
302.221
302.226
302.231
302.237
302.243
302.25
302.257
302.265
302.273
302.281
302.29
302.299
302.308
302.318
302.329
302.34
302.351
302.362
302.374
302.387
302.4
302.413
302.427
302.441
302.455
302.47
302.486
302.502
302.518
302.535
302.552
302.57
302.588
302.606
302.626
302.645
302.665
302.686
302.707
302.728
302.75
302.773
302.796
302.82
302.844
302.869
302.894
302.92
302.947
302.974
303.001
303.03
303.059
303.088
303.118
303.149
303.181
303.213
303.246
303.279
303.313
303.348
303.383
303.42
303.456
303.494
303.532
303.571
303.611
303.651
303.692
303.734
303.776
303.819
303.863
303.907
303.952
303.998
304.044
304.091
304.139
304.187
304.236
304.286
304.336
304.388
304.439
304.492
304.546
304.6
304.655
304.712
304.77
304.829
304.889
304.951
305.016
305.082
305.152
305.225
305.302
305.384
305.472
305.567
305.673
305.79
305.923
306.077
306.256
306.466
306.713
306.976
304.936
304.848
304.703
304.555
304.416
304.289
304.174
304.068
303.971
303.88
303.796
303.716
303.642
303.571
303.504
303.441
303.381
303.323
303.269
303.217
303.167
303.119
303.074
303.03
302.989
302.949
302.911
302.874
302.839
302.806
302.774
302.743
302.714
302.685
302.658
302.632
302.608
302.584
302.561
302.539
302.518
302.498
302.479
302.461
302.443
302.426
302.41
302.395
302.38
302.366
302.353
302.34
302.328
302.316
302.306
302.295
302.285
302.276
302.267
302.259
302.252
302.244
302.238
302.231
302.226
302.22
302.215
302.211
302.207
302.204
302.201
302.198
302.196
302.194
302.193
302.192
302.192
302.192
302.193
302.193
302.195
302.197
302.199
302.201
302.204
302.208
302.212
302.216
302.221
302.226
302.231
302.237
302.243
302.25
302.257
302.265
302.273
302.281
302.29
302.299
302.308
302.318
302.329
302.34
302.351
302.362
302.374
302.387
302.4
302.413
302.427
302.441
302.455
302.47
302.486
302.502
302.518
302.535
302.552
302.57
302.588
302.606
302.626
302.645
302.665
302.686
302.707
302.728
302.75
302.773
302.796
302.82
302.844
302.869
302.894
302.92
302.947
302.974
303.001
303.03
303.059
303.088
303.118
303.149
303.181
303.213
303.246
303.279
303.313
303.348
303.383
303.42
303.456
303.494
303.532
303.571
303.611
303.651
303.692
303.734
303.776
303.819
303.863
303.907
303.952
303.998
304.044
304.091
304.139
304.187
304.236
304.286
304.336
304.388
304.439
304.492
304.546
304.6
304.656
304.712
304.77
304.829
304.889
304.951
305.016
305.082
305.152
305.225
305.302
305.384
305.472
305.567
305.673
305.79
305.923
306.077
306.256
306.466
306.713
306.976
304.13
304.122
304.058
303.972
303.88
303.788
303.699
303.615
303.534
303.458
303.386
303.317
303.251
303.189
303.13
303.073
303.019
302.967
302.918
302.87
302.825
302.781
302.739
302.7
302.661
302.624
302.589
302.555
302.523
302.492
302.462
302.433
302.406
302.379
302.354
302.33
302.306
302.284
302.262
302.241
302.222
302.203
302.184
302.167
302.15
302.134
302.118
302.103
302.089
302.076
302.063
302.05
302.038
302.027
302.016
302.006
301.996
301.987
301.978
301.97
301.962
301.954
301.947
301.94
301.934
301.929
301.923
301.918
301.914
301.91
301.906
301.903
301.9
301.898
301.896
301.894
301.893
301.892
301.891
301.891
301.892
301.892
301.893
301.895
301.897
301.899
301.902
301.905
301.908
301.912
301.916
301.921
301.926
301.931
301.937
301.943
301.949
301.956
301.964
301.971
301.98
301.988
301.997
302.006
302.016
302.026
302.037
302.048
302.059
302.071
302.083
302.095
302.109
302.122
302.136
302.15
302.165
302.18
302.196
302.212
302.229
302.246
302.264
302.282
302.3
302.319
302.339
302.359
302.38
302.401
302.422
302.445
302.467
302.491
302.515
302.539
302.564
302.59
302.616
302.643
302.671
302.699
302.728
302.757
302.787
302.818
302.849
302.881
302.914
302.947
302.981
303.016
303.052
303.088
303.124
303.162
303.2
303.239
303.278
303.318
303.359
303.4
303.442
303.485
303.528
303.572
303.616
303.662
303.707
303.753
303.8
303.848
303.896
303.945
303.994
304.044
304.095
304.146
304.198
304.251
304.306
304.361
304.417
304.475
304.534
304.595
304.659
304.725
304.794
304.866
304.943
305.025
305.114
305.21
305.315
305.429
305.552
305.682
305.811
305.923
304.129
304.122
304.058
303.972
303.88
303.788
303.699
303.615
303.534
303.458
303.386
303.317
303.251
303.189
303.13
303.073
303.019
302.967
302.918
302.87
302.825
302.781
302.739
302.7
302.661
302.624
302.589
302.555
302.523
302.492
302.462
302.433
302.406
302.379
302.354
302.33
302.306
302.284
302.262
302.241
302.222
302.203
302.184
302.167
302.15
302.134
302.118
302.103
302.089
302.076
302.063
302.05
302.038
302.027
302.016
302.006
301.996
301.987
301.978
301.97
301.962
301.954
301.947
301.94
301.934
301.929
301.923
301.918
301.914
301.91
301.906
301.903
301.9
301.898
301.896
301.894
301.893
301.892
301.891
301.891
301.892
301.892
301.893
301.895
301.897
301.899
301.902
301.905
301.908
301.912
301.916
301.921
301.926
301.931
301.937
301.943
301.949
301.956
301.964
301.971
301.98
301.988
301.997
302.006
302.016
302.026
302.037
302.048
302.059
302.071
302.083
302.095
302.109
302.122
302.136
302.15
302.165
302.18
302.196
302.212
302.229
302.246
302.264
302.282
302.3
302.319
302.339
302.359
302.38
302.401
302.422
302.445
302.467
302.491
302.515
302.539
302.564
302.59
302.616
302.643
302.671
302.699
302.728
302.757
302.787
302.818
302.849
302.881
302.914
302.947
302.981
303.016
303.052
303.088
303.124
303.162
303.2
303.239
303.278
303.318
303.359
303.4
303.442
303.485
303.528
303.572
303.616
303.662
303.707
303.753
303.8
303.848
303.896
303.945
303.994
304.044
304.095
304.146
304.198
304.251
304.306
304.361
304.417
304.475
304.534
304.595
304.659
304.725
304.794
304.866
304.943
305.026
305.114
305.21
305.315
305.429
305.552
305.682
305.811
305.923
303.614
303.624
303.593
303.541
303.477
303.41
303.34
303.272
303.205
303.14
303.077
303.017
302.959
302.903
302.85
302.798
302.749
302.701
302.656
302.612
302.57
302.529
302.49
302.453
302.417
302.383
302.349
302.318
302.287
302.258
302.229
302.202
302.176
302.151
302.126
302.103
302.081
302.059
302.039
302.019
302
301.981
301.964
301.947
301.93
301.915
301.9
301.885
301.871
301.858
301.845
301.833
301.821
301.81
301.799
301.789
301.779
301.77
301.761
301.753
301.744
301.737
301.73
301.723
301.716
301.71
301.705
301.699
301.695
301.69
301.686
301.682
301.679
301.676
301.674
301.671
301.67
301.668
301.667
301.666
301.666
301.666
301.667
301.667
301.669
301.67
301.672
301.674
301.677
301.68
301.683
301.687
301.691
301.696
301.701
301.706
301.712
301.718
301.724
301.731
301.738
301.746
301.754
301.762
301.771
301.78
301.79
301.8
301.81
301.821
301.832
301.844
301.856
301.869
301.881
301.895
301.909
301.923
301.938
301.953
301.969
301.985
302.002
302.019
302.036
302.054
302.073
302.092
302.112
302.132
302.153
302.174
302.196
302.219
302.242
302.265
302.289
302.314
302.34
302.366
302.392
302.419
302.447
302.476
302.505
302.535
302.565
302.596
302.628
302.66
302.694
302.727
302.762
302.797
302.833
302.869
302.906
302.944
302.982
303.021
303.061
303.101
303.142
303.183
303.225
303.267
303.31
303.354
303.398
303.443
303.488
303.534
303.58
303.627
303.675
303.723
303.771
303.82
303.87
303.92
303.972
304.024
304.077
304.131
304.186
304.243
304.301
304.361
304.423
304.488
304.555
304.626
304.7
304.779
304.86
304.945
305.03
305.111
305.18
305.227
303.614
303.624
303.593
303.541
303.477
303.41
303.34
303.272
303.205
303.14
303.077
303.017
302.959
302.903
302.85
302.798
302.749
302.701
302.656
302.612
302.57
302.529
302.49
302.453
302.417
302.383
302.349
302.318
302.287
302.258
302.229
302.202
302.176
302.151
302.126
302.103
302.081
302.059
302.039
302.019
302
301.981
301.964
301.947
301.93
301.915
301.9
301.885
301.871
301.858
301.845
301.833
301.821
301.81
301.799
301.789
301.779
301.77
301.761
301.753
301.744
301.737
301.73
301.723
301.716
301.71
301.705
301.699
301.695
301.69
301.686
301.682
301.679
301.676
301.674
301.671
301.67
301.668
301.667
301.666
301.666
301.666
301.667
301.667
301.669
301.67
301.672
301.674
301.677
301.68
301.683
301.687
301.691
301.696
301.701
301.706
301.712
301.718
301.724
301.731
301.738
301.746
301.754
301.762
301.771
301.78
301.79
301.8
301.81
301.821
301.832
301.844
301.856
301.869
301.881
301.895
301.909
301.923
301.938
301.953
301.969
301.985
302.002
302.019
302.036
302.054
302.073
302.092
302.112
302.132
302.153
302.174
302.196
302.219
302.242
302.265
302.289
302.314
302.34
302.366
302.392
302.419
302.447
302.476
302.505
302.535
302.565
302.596
302.628
302.661
302.694
302.727
302.762
302.797
302.833
302.869
302.906
302.944
302.982
303.021
303.061
303.101
303.142
303.183
303.225
303.267
303.31
303.354
303.398
303.443
303.488
303.534
303.58
303.627
303.675
303.723
303.771
303.82
303.87
303.92
303.972
304.024
304.077
304.131
304.186
304.243
304.301
304.361
304.423
304.488
304.555
304.626
304.7
304.779
304.86
304.945
305.03
305.111
305.18
305.227
303.24
303.25
303.233
303.199
303.154
303.103
303.048
302.992
302.936
302.88
302.826
302.772
302.72
302.67
302.621
302.574
302.529
302.485
302.443
302.402
302.363
302.325
302.288
302.253
302.219
302.187
302.155
302.125
302.096
302.068
302.041
302.015
301.99
301.966
301.943
301.92
301.899
301.878
301.858
301.839
301.82
301.802
301.785
301.769
301.753
301.738
301.723
301.709
301.695
301.682
301.669
301.657
301.646
301.635
301.624
301.614
301.604
301.595
301.586
301.577
301.569
301.561
301.554
301.547
301.54
301.534
301.528
301.523
301.518
301.513
301.508
301.504
301.501
301.498
301.495
301.492
301.49
301.488
301.487
301.485
301.485
301.484
301.484
301.484
301.485
301.486
301.488
301.489
301.491
301.494
301.497
301.5
301.503
301.507
301.512
301.516
301.521
301.527
301.533
301.539
301.545
301.552
301.56
301.567
301.576
301.584
301.593
301.602
301.612
301.622
301.633
301.644
301.655
301.667
301.679
301.692
301.705
301.719
301.733
301.748
301.763
301.778
301.794
301.811
301.828
301.845
301.863
301.881
301.9
301.92
301.94
301.961
301.982
302.004
302.026
302.049
302.073
302.097
302.121
302.147
302.173
302.199
302.226
302.254
302.283
302.312
302.341
302.372
302.403
302.434
302.467
302.5
302.533
302.568
302.603
302.638
302.674
302.711
302.749
302.787
302.825
302.865
302.904
302.945
302.986
303.027
303.069
303.111
303.154
303.198
303.242
303.286
303.331
303.376
303.422
303.468
303.515
303.562
303.609
303.657
303.706
303.755
303.805
303.856
303.908
303.96
304.014
304.069
304.125
304.182
304.242
304.303
304.365
304.429
304.493
304.556
304.615
304.667
304.705
304.725
303.24
303.25
303.233
303.199
303.154
303.103
303.048
302.992
302.936
302.88
302.826
302.772
302.72
302.67
302.621
302.574
302.529
302.485
302.443
302.402
302.363
302.325
302.288
302.253
302.219
302.187
302.155
302.125
302.096
302.068
302.041
302.015
301.99
301.966
301.943
301.92
301.899
301.878
301.858
301.839
301.82
301.802
301.785
301.769
301.753
301.738
301.723
301.709
301.695
301.682
301.669
301.657
301.646
301.635
301.624
301.614
301.604
301.595
301.586
301.577
301.569
301.561
301.554
301.547
301.54
301.534
301.528
301.523
301.518
301.513
301.508
301.504
301.501
301.498
301.495
301.492
301.49
301.488
301.487
301.485
301.485
301.484
301.484
301.484
301.485
301.486
301.488
301.489
301.491
301.494
301.497
301.5
301.503
301.507
301.512
301.516
301.521
301.527
301.533
301.539
301.545
301.552
301.56
301.567
301.576
301.584
301.593
301.602
301.612
301.622
301.633
301.644
301.655
301.667
301.679
301.692
301.705
301.719
301.733
301.748
301.763
301.778
301.794
301.811
301.827
301.845
301.863
301.881
301.9
301.92
301.94
301.961
301.982
302.004
302.026
302.049
302.073
302.097
302.121
302.147
302.173
302.199
302.226
302.254
302.283
302.312
302.341
302.372
302.403
302.434
302.467
302.5
302.533
302.568
302.603
302.638
302.674
302.711
302.749
302.787
302.825
302.865
302.904
302.945
302.986
303.027
303.069
303.111
303.154
303.198
303.242
303.286
303.331
303.376
303.422
303.468
303.515
303.562
303.609
303.657
303.706
303.755
303.805
303.856
303.908
303.96
304.014
304.069
304.125
304.182
304.242
304.303
304.365
304.429
304.493
304.556
304.615
304.667
304.705
304.725
302.944
302.952
302.942
302.917
302.884
302.844
302.8
302.753
302.706
302.657
302.61
302.562
302.516
302.47
302.426
302.383
302.341
302.301
302.261
302.223
302.186
302.151
302.116
302.083
302.051
302.02
301.99
301.961
301.933
301.907
301.881
301.856
301.832
301.808
301.786
301.764
301.744
301.724
301.704
301.686
301.668
301.65
301.634
301.617
301.602
301.587
301.573
301.559
301.545
301.532
301.52
301.508
301.497
301.485
301.475
301.465
301.455
301.446
301.437
301.428
301.42
301.412
301.405
301.397
301.391
301.384
301.378
301.373
301.367
301.362
301.358
301.354
301.35
301.346
301.343
301.34
301.338
301.336
301.334
301.332
301.331
301.33
301.33
301.33
301.33
301.331
301.332
301.333
301.335
301.337
301.339
301.342
301.345
301.349
301.352
301.357
301.361
301.366
301.371
301.377
301.383
301.39
301.397
301.404
301.411
301.419
301.428
301.437
301.446
301.455
301.466
301.476
301.487
301.498
301.51
301.522
301.535
301.548
301.561
301.575
301.59
301.605
301.62
301.636
301.653
301.67
301.687
301.705
301.724
301.743
301.762
301.782
301.803
301.824
301.846
301.868
301.891
301.915
301.939
301.964
301.989
302.015
302.042
302.069
302.097
302.125
302.155
302.184
302.215
302.246
302.278
302.31
302.343
302.376
302.411
302.446
302.481
302.517
302.554
302.591
302.629
302.667
302.706
302.745
302.785
302.826
302.867
302.908
302.95
302.992
303.035
303.078
303.122
303.165
303.21
303.254
303.299
303.344
303.39
303.436
303.482
303.529
303.576
303.624
303.672
303.721
303.77
303.82
303.871
303.923
303.975
304.027
304.08
304.132
304.182
304.23
304.273
304.307
304.329
304.336
302.944
302.952
302.942
302.917
302.884
302.844
302.8
302.753
302.706
302.657
302.61
302.562
302.516
302.47
302.426
302.383
302.341
302.301
302.261
302.223
302.186
302.151
302.116
302.083
302.051
302.02
301.99
301.961
301.933
301.907
301.881
301.856
301.832
301.808
301.786
301.764
301.744
301.724
301.704
301.686
301.668
301.65
301.634
301.617
301.602
301.587
301.573
301.559
301.545
301.532
301.52
301.508
301.497
301.485
301.475
301.465
301.455
301.446
301.437
301.428
301.42
301.412
301.405
301.397
301.391
301.384
301.378
301.373
301.367
301.362
301.358
301.354
301.35
301.346
301.343
301.34
301.338
301.336
301.334
301.332
301.331
301.33
301.33
301.33
301.33
301.331
301.332
301.333
301.335
301.337
301.339
301.342
301.345
301.349
301.352
301.357
301.361
301.366
301.371
301.377
301.383
301.39
301.397
301.404
301.411
301.419
301.428
301.437
301.446
301.455
301.466
301.476
301.487
301.498
301.51
301.522
301.535
301.548
301.561
301.575
301.59
301.605
301.62
301.636
301.653
301.67
301.687
301.705
301.724
301.743
301.762
301.782
301.803
301.824
301.846
301.868
301.891
301.915
301.939
301.964
301.989
302.015
302.042
302.069
302.097
302.125
302.155
302.184
302.215
302.246
302.278
302.31
302.343
302.376
302.411
302.446
302.481
302.517
302.554
302.591
302.629
302.667
302.706
302.745
302.785
302.826
302.867
302.908
302.95
302.992
303.035
303.078
303.122
303.165
303.21
303.254
303.299
303.344
303.39
303.436
303.482
303.529
303.576
303.624
303.672
303.721
303.77
303.82
303.871
303.923
303.975
304.027
304.08
304.132
304.182
304.23
304.273
304.307
304.329
304.336
302.699
302.704
302.696
302.677
302.651
302.619
302.583
302.544
302.503
302.461
302.419
302.377
302.335
302.294
302.253
302.214
302.175
302.137
302.101
302.065
302.03
301.997
301.964
301.933
301.902
301.873
301.844
301.817
301.79
301.765
301.74
301.716
301.692
301.67
301.648
301.628
301.607
301.588
301.569
301.551
301.533
301.517
301.5
301.484
301.469
301.455
301.44
301.427
301.414
301.401
301.389
301.377
301.365
301.355
301.344
301.334
301.324
301.315
301.306
301.297
301.289
301.281
301.274
301.266
301.26
301.253
301.247
301.241
301.236
301.231
301.226
301.221
301.217
301.214
301.21
301.207
301.204
301.202
301.2
301.198
301.197
301.196
301.195
301.195
301.195
301.195
301.196
301.197
301.198
301.2
301.202
301.204
301.207
301.21
301.213
301.217
301.221
301.226
301.231
301.236
301.242
301.248
301.254
301.261
301.268
301.276
301.284
301.292
301.301
301.31
301.32
301.33
301.34
301.351
301.363
301.374
301.387
301.399
301.412
301.426
301.44
301.454
301.469
301.485
301.501
301.517
301.534
301.552
301.57
301.589
301.608
301.627
301.648
301.668
301.69
301.712
301.734
301.757
301.781
301.805
301.83
301.856
301.882
301.908
301.936
301.964
301.992
302.022
302.052
302.082
302.113
302.145
302.177
302.21
302.244
302.278
302.313
302.348
302.384
302.421
302.458
302.496
302.534
302.572
302.611
302.651
302.691
302.731
302.772
302.813
302.855
302.897
302.939
302.982
303.024
303.067
303.111
303.154
303.198
303.242
303.286
303.331
303.375
303.42
303.465
303.511
303.556
303.602
303.648
303.694
303.74
303.785
303.83
303.873
303.913
303.95
303.981
304.004
304.018
304.018
302.699
302.704
302.696
302.677
302.651
302.619
302.583
302.544
302.503
302.461
302.419
302.377
302.335
302.294
302.253
302.214
302.175
302.137
302.101
302.065
302.03
301.997
301.964
301.933
301.902
301.873
301.844
301.817
301.79
301.765
301.74
301.716
301.692
301.67
301.648
301.628
301.607
301.588
301.569
301.551
301.533
301.517
301.5
301.484
301.469
301.455
301.44
301.427
301.414
301.401
301.389
301.377
301.365
301.355
301.344
301.334
301.324
301.315
301.306
301.297
301.289
301.281
301.274
301.266
301.26
301.253
301.247
301.241
301.236
301.231
301.226
301.221
301.217
301.214
301.21
301.207
301.204
301.202
301.2
301.198
301.197
301.196
301.195
301.195
301.195
301.195
301.196
301.197
301.198
301.2
301.202
301.204
301.207
301.21
301.213
301.217
301.221
301.226
301.231
301.236
301.242
301.248
301.254
301.261
301.268
301.276
301.284
301.292
301.301
301.31
301.32
301.33
301.34
301.351
301.363
301.374
301.387
301.399
301.412
301.426
301.44
301.454
301.469
301.485
301.501
301.517
301.534
301.552
301.57
301.589
301.608
301.627
301.648
301.668
301.69
301.712
301.734
301.757
301.781
301.805
301.83
301.856
301.882
301.908
301.936
301.964
301.992
302.022
302.052
302.082
302.113
302.145
302.177
302.21
302.244
302.278
302.313
302.348
302.384
302.421
302.458
302.496
302.534
302.572
302.611
302.651
302.691
302.731
302.772
302.813
302.855
302.897
302.939
302.982
303.024
303.067
303.111
303.154
303.198
303.242
303.286
303.331
303.375
303.42
303.465
303.511
303.556
303.602
303.648
303.694
303.74
303.785
303.83
303.873
303.913
303.95
303.981
304.004
304.017
304.018
302.489
302.491
302.484
302.469
302.447
302.421
302.39
302.357
302.321
302.285
302.247
302.21
302.172
302.134
302.097
302.061
302.025
301.99
301.956
301.922
301.89
301.858
301.827
301.797
301.768
301.74
301.713
301.687
301.661
301.636
301.612
301.589
301.567
301.545
301.524
301.504
301.485
301.466
301.447
301.43
301.413
301.396
301.38
301.365
301.35
301.335
301.322
301.308
301.295
301.283
301.27
301.259
301.248
301.237
301.226
301.216
301.207
301.197
301.188
301.18
301.171
301.163
301.156
301.149
301.142
301.135
301.129
301.123
301.118
301.112
301.107
301.103
301.099
301.095
301.091
301.088
301.085
301.082
301.08
301.078
301.076
301.075
301.074
301.073
301.073
301.073
301.073
301.074
301.075
301.077
301.078
301.08
301.083
301.086
301.089
301.092
301.096
301.1
301.105
301.11
301.115
301.121
301.127
301.133
301.14
301.148
301.155
301.163
301.172
301.181
301.19
301.199
301.21
301.22
301.231
301.242
301.254
301.267
301.279
301.292
301.306
301.32
301.335
301.35
301.366
301.382
301.398
301.415
301.433
301.451
301.47
301.489
301.509
301.529
301.55
301.572
301.594
301.617
301.64
301.664
301.688
301.713
301.739
301.765
301.792
301.82
301.848
301.877
301.906
301.936
301.967
301.998
302.03
302.062
302.095
302.129
302.163
302.198
302.233
302.269
302.306
302.342
302.38
302.418
302.456
302.495
302.534
302.573
302.613
302.653
302.694
302.735
302.776
302.817
302.858
302.9
302.942
302.984
303.026
303.068
303.11
303.152
303.195
303.237
303.279
303.321
303.364
303.405
303.447
303.488
303.529
303.568
303.606
303.642
303.675
303.704
303.727
303.744
303.752
303.75
302.489
302.491
302.484
302.469
302.447
302.421
302.39
302.357
302.321
302.285
302.247
302.21
302.172
302.134
302.097
302.061
302.025
301.99
301.956
301.922
301.89
301.858
301.827
301.797
301.768
301.74
301.713
301.687
301.661
301.636
301.612
301.589
301.567
301.545
301.524
301.504
301.485
301.466
301.447
301.43
301.413
301.396
301.38
301.365
301.35
301.335
301.322
301.308
301.295
301.283
301.27
301.259
301.248
301.237
301.226
301.216
301.207
301.197
301.188
301.18
301.171
301.163
301.156
301.149
301.142
301.135
301.129
301.123
301.118
301.112
301.107
301.103
301.099
301.095
301.091
301.088
301.085
301.082
301.08
301.078
301.076
301.075
301.074
301.073
301.073
301.073
301.073
301.074
301.075
301.077
301.078
301.08
301.083
301.086
301.089
301.092
301.096
301.1
301.105
301.11
301.115
301.121
301.127
301.133
301.14
301.148
301.155
301.163
301.172
301.181
301.19
301.199
301.21
301.22
301.231
301.242
301.254
301.267
301.279
301.292
301.306
301.32
301.335
301.35
301.366
301.382
301.398
301.415
301.433
301.451
301.47
301.489
301.509
301.529
301.55
301.572
301.594
301.617
301.64
301.664
301.688
301.713
301.739
301.765
301.792
301.82
301.848
301.877
301.906
301.936
301.967
301.998
302.03
302.062
302.095
302.129
302.163
302.198
302.233
302.269
302.306
302.342
302.38
302.418
302.456
302.495
302.534
302.573
302.613
302.653
302.694
302.735
302.776
302.817
302.858
302.9
302.942
302.984
303.026
303.068
303.11
303.152
303.195
303.237
303.279
303.321
303.364
303.405
303.447
303.488
303.529
303.568
303.606
303.642
303.675
303.704
303.727
303.744
303.752
303.75
302.303
302.304
302.297
302.284
302.265
302.242
302.216
302.187
302.156
302.124
302.09
302.056
302.022
301.988
301.954
301.92
301.887
301.854
301.822
301.791
301.76
301.73
301.701
301.673
301.645
301.618
301.592
301.567
301.542
301.519
301.496
301.473
301.452
301.431
301.41
301.391
301.372
301.353
301.336
301.318
301.302
301.286
301.27
301.255
301.24
301.226
301.213
301.199
301.187
301.174
301.162
301.151
301.14
301.129
301.119
301.109
301.099
301.09
301.081
301.072
301.064
301.056
301.048
301.041
301.034
301.027
301.021
301.015
301.009
301.004
300.999
300.994
300.99
300.986
300.982
300.979
300.976
300.973
300.97
300.968
300.966
300.965
300.964
300.963
300.962
300.962
300.962
300.963
300.963
300.964
300.966
300.968
300.97
300.972
300.975
300.979
300.982
300.986
300.99
300.995
301
301.005
301.011
301.017
301.024
301.031
301.038
301.046
301.054
301.062
301.071
301.081
301.09
301.101
301.111
301.122
301.134
301.146
301.158
301.171
301.184
301.198
301.212
301.227
301.242
301.258
301.275
301.291
301.309