/*--------------------------------*- C++ -*----------------------------------*\
  =========                 |
  \\      /  F ield         | OpenFOAM: The Open Source CFD Toolbox
   \\    /   O peration     | Website:  https://openfoam.org
    \\  /    A nd           | Version:  8
     \\/     M anipulation  |
\*---------------------------------------------------------------------------*/
FoamFile
{
    version     2.0;
    format      ascii;
    class       volVectorField;
    location    "3900";
    object      U;
}
// * * * * * * * * * * * * * * * * * * * * * * * * * * * * * * * * * * * * * //

dimensions      [0 1 -1 0 0 0 0];

internalField   nonuniform List<vector> 
46000
(
(0.0018234 3.65901e-06 -0.00186007)
(0.00926335 7.52757e-05 -0.00541805)
(0.0170222 6.16595e-05 -0.00520581)
(0.0225461 3.0832e-05 -0.00330688)
(0.0252414 1.14472e-05 -0.00128696)
(0.0254038 2.9795e-06 0.00046653)
(0.0234474 1.24069e-07 0.00188086)
(0.0198061 -5.60331e-07 0.0029821)
(0.0148392 -5.89235e-07 0.00382717)
(0.00883954 -4.75362e-07 0.00447306)
(0.00204292 -3.53283e-07 0.00496083)
(-0.00538114 -2.48465e-07 0.00531381)
(-0.0132476 -1.66065e-07 0.00556027)
(-0.0214619 -1.0718e-07 0.00573155)
(-0.0299226 -6.80183e-08 0.0058439)
(-0.0385557 -4.28174e-08 0.00590931)
(-0.0472996 -2.60848e-08 0.00593702)
(-0.0561034 -1.43254e-08 0.0059342)
(-0.0649252 -5.953e-09 0.00590647)
(-0.0737297 -2.56445e-10 0.00585828)
(-0.0824869 3.55271e-09 0.00579318)
(-0.0911715 6.45562e-09 0.00571399)
(-0.0997619 9.35734e-09 0.00562302)
(-0.108239 1.2675e-08 0.00552213)
(-0.116587 1.627e-08 0.00541283)
(-0.124791 1.96438e-08 0.00529639)
(-0.132839 2.22762e-08 0.00517383)
(-0.140719 2.39168e-08 0.00504602)
(-0.148422 2.45829e-08 0.0049137)
(-0.155939 2.45116e-08 0.00477749)
(-0.163262 2.39573e-08 0.00463791)
(-0.170383 2.31467e-08 0.00449542)
(-0.177297 2.21682e-08 0.00435042)
(-0.183997 2.10145e-08 0.00420325)
(-0.190479 1.96146e-08 0.00405423)
(-0.196737 1.7893e-08 0.00390364)
(-0.202768 1.57939e-08 0.00375171)
(-0.208568 1.33299e-08 0.00359868)
(-0.214133 1.06135e-08 0.00344476)
(-0.219461 7.85595e-09 0.00329015)
(-0.224549 5.35363e-09 0.00313502)
(-0.229394 3.44008e-09 0.00297956)
(-0.233996 2.41301e-09 0.00282393)
(-0.238353 2.44524e-09 0.00266828)
(-0.242463 3.52323e-09 0.00251278)
(-0.246326 5.44046e-09 0.00235758)
(-0.249941 7.83992e-09 0.00220281)
(-0.253309 1.02857e-08 0.00204862)
(-0.256429 1.23703e-08 0.00189515)
(-0.259302 1.38026e-08 0.00174254)
(-0.261929 1.44481e-08 0.00159093)
(-0.264311 1.43335e-08 0.00144045)
(-0.266449 1.36036e-08 0.00129124)
(-0.268345 1.24921e-08 0.00114342)
(-0.270001 1.12269e-08 0.000997128)
(-0.271419 9.99922e-09 0.000852493)
(-0.272602 8.93463e-09 0.000709637)
(-0.273552 8.08048e-09 0.000568677)
(-0.274273 7.43092e-09 0.000429708)
(-0.274768 6.94521e-09 0.000292781)
(-0.27504 6.5726e-09 0.000157897)
(-0.275093 6.25655e-09 2.51573e-05)
(-0.274932 5.953e-09 -0.000104991)
(-0.27456 5.63451e-09 -0.000232299)
(-0.273981 5.29276e-09 -0.000356897)
(-0.273201 4.94188e-09 -0.000478782)
(-0.272224 4.59684e-09 -0.000597883)
(-0.271055 4.28756e-09 -0.000714103)
(-0.269699 4.03648e-09 -0.000827353)
(-0.268161 3.85359e-09 -0.000937546)
(-0.266447 3.76298e-09 -0.00104461)
(-0.264562 3.73556e-09 -0.00114846)
(-0.262512 3.77217e-09 -0.00124905)
(-0.260303 3.8462e-09 -0.00134631)
(-0.25794 3.9485e-09 -0.0014402)
(-0.255429 4.0475e-09 -0.00153066)
(-0.252777 4.14152e-09 -0.00161765)
(-0.24999 4.22308e-09 -0.00170114)
(-0.247073 4.28137e-09 -0.00178109)
(-0.244034 4.31639e-09 -0.00185749)
(-0.240877 4.30569e-09 -0.00193031)
(-0.23761 4.24012e-09 -0.00199954)
(-0.234238 4.11135e-09 -0.00206518)
(-0.230767 3.90275e-09 -0.00212721)
(-0.227205 3.62843e-09 -0.00218565)
(-0.223557 3.3067e-09 -0.0022405)
(-0.219828 2.94254e-09 -0.00229178)
(-0.216026 2.58749e-09 -0.0023395)
(-0.212156 2.26237e-09 -0.00238369)
(-0.208224 1.99211e-09 -0.00242439)
(-0.204236 1.80752e-09 -0.00246162)
(-0.200198 1.71193e-09 -0.00249542)
(-0.196115 1.70285e-09 -0.00252584)
(-0.191993 1.77531e-09 -0.00255294)
(-0.187837 1.91518e-09 -0.00257675)
(-0.183652 2.09917e-09 -0.00259735)
(-0.179444 2.31398e-09 -0.00261478)
(-0.175219 2.5413e-09 -0.00262913)
(-0.170979 2.77365e-09 -0.00264044)
(-0.166732 2.98855e-09 -0.00264881)
(-0.162481 3.1985e-09 -0.00265429)
(-0.15823 3.39932e-09 -0.00265697)
(-0.153984 3.58686e-09 -0.00265693)
(-0.149748 3.78026e-09 -0.00265424)
(-0.145525 3.97869e-09 -0.002649)
(-0.141319 4.18549e-09 -0.00264128)
(-0.137133 4.41231e-09 -0.00263117)
(-0.132973 4.65749e-09 -0.00261877)
(-0.12884 4.91271e-09 -0.00260414)
(-0.124738 5.19631e-09 -0.00258739)
(-0.12067 5.49495e-09 -0.00256859)
(-0.116639 5.82031e-09 -0.00254784)
(-0.112649 6.1724e-09 -0.00252521)
(-0.108701 6.53956e-09 -0.00250079)
(-0.104798 6.93512e-09 -0.00247467)
(-0.100943 7.36244e-09 -0.00244691)
(-0.0971371 7.81318e-09 -0.0024176)
(-0.0933834 8.29902e-09 -0.00238682)
(-0.0896836 8.80497e-09 -0.00235463)
(-0.0860396 9.33271e-09 -0.00232111)
(-0.0824532 9.88725e-09 -0.00228632)
(-0.078926 1.04686e-08 -0.00225031)
(-0.0754596 1.10667e-08 -0.00221316)
(-0.0720555 1.1675e-08 -0.00217491)
(-0.0687151 1.23035e-08 -0.00213562)
(-0.0654398 1.29354e-08 -0.00209533)
(-0.0622308 1.35809e-08 -0.00205408)
(-0.0590892 1.42381e-08 -0.00201192)
(-0.0560163 1.48939e-08 -0.00196887)
(-0.0530131 1.55649e-08 -0.00192497)
(-0.0500807 1.6231e-08 -0.00188024)
(-0.0472201 1.69206e-08 -0.00183471)
(-0.0444323 1.76188e-08 -0.0017884)
(-0.0417183 1.83206e-08 -0.00174132)
(-0.039079 1.90408e-08 -0.00169349)
(-0.0365152 1.97613e-08 -0.00164491)
(-0.0340281 2.0492e-08 -0.0015956)
(-0.0316184 2.12329e-08 -0.00154557)
(-0.029287 2.19841e-08 -0.00149481)
(-0.0270349 2.27355e-08 -0.00144334)
(-0.024863 2.34988e-08 -0.00139116)
(-0.0227721 2.42624e-08 -0.00133828)
(-0.0207631 2.50345e-08 -0.00128471)
(-0.018837 2.58186e-08 -0.00123045)
(-0.0169945 2.66113e-08 -0.00117552)
(-0.0152366 2.74344e-08 -0.00111994)
(-0.013564 2.82611e-08 -0.00106373)
(-0.0119776 2.90881e-08 -0.00100691)
(-0.0104782 2.99254e-08 -0.000949515)
(-0.00906638 3.07697e-08 -0.000891591)
(-0.0077429 3.16176e-08 -0.000833184)
(-0.00650834 3.24625e-08 -0.000774352)
(-0.00536321 3.33044e-08 -0.000715163)
(-0.0043079 3.41465e-08 -0.000655697)
(-0.00334273 3.49823e-08 -0.000596045)
(-0.00246785 3.58185e-08 -0.000536316)
(-0.00168326 3.6655e-08 -0.000476632)
(-0.000988764 3.75052e-08 -0.000417164)
(-0.000384104 3.83625e-08 -0.000358002)
(0.000131422 3.91933e-08 -0.000299147)
(0.000558206 4.00145e-08 -0.000240845)
(0.000897412 4.08896e-08 -0.000183364)
(0.00115025 4.17753e-08 -0.000126911)
(0.00131829 4.26714e-08 -7.17e-05)
(0.00140341 4.35477e-08 -1.79589e-05)
(0.00140786 4.43908e-08 3.40894e-05)
(0.00133422 4.51908e-08 8.42046e-05)
(0.00118541 4.59241e-08 0.000132107)
(0.000964824 4.65872e-08 0.000177507)
(0.000676278 4.72104e-08 0.000220097)
(0.000324093 4.78206e-08 0.000259556)
(-8.70073e-05 4.83538e-08 0.00029551)
(-0.000551632 4.88303e-08 0.000327534)
(-0.00106384 4.9277e-08 0.000355252)
(-0.00161719 4.96265e-08 0.000378291)
(-0.00220456 4.98217e-08 0.000396262)
(-0.00281823 4.97212e-08 0.000408754)
(-0.00344975 4.93148e-08 0.000415266)
(-0.00408995 4.85518e-08 0.000415322)
(-0.00472886 4.74555e-08 0.000408421)
(-0.00535572 4.60863e-08 0.000394007)
(-0.00595884 4.44777e-08 0.000371518)
(-0.0065256 4.25689e-08 0.000340345)
(-0.00704236 4.03024e-08 0.000299844)
(-0.0074944 3.76272e-08 0.000249339)
(-0.00786586 3.45601e-08 0.000188128)
(-0.00813968 3.12859e-08 0.000115511)
(-0.00829763 2.80036e-08 3.08238e-05)
(-0.00832038 2.49634e-08 -6.63829e-05)
(-0.00818786 2.22384e-08 -0.000176158)
(-0.00787998 1.99241e-08 -0.000297998)
(-0.00737746 1.8109e-08 -0.000430225)
(-0.00666411 1.69358e-08 -0.000568776)
(-0.005731 1.63785e-08 -0.000705248)
(-0.00458388 1.58431e-08 -0.000823262)
(-0.00325749 1.45584e-08 -0.000891917)
(-0.00183833 1.25366e-08 -0.000855101)
(-0.000510683 1.34013e-08 -0.000615437)
(0.000402984 3.23154e-08 -9.26721e-05)
(0.000316891 2.25622e-08 0.000340802)
(0.00185044 3.66181e-06 -0.00188189)
(0.00929175 7.53603e-05 -0.00542702)
(0.0170075 6.16776e-05 -0.00520802)
(0.0225237 3.08325e-05 -0.00330629)
(0.0252289 1.14469e-05 -0.00128586)
(0.0254002 2.97942e-06 0.000467236)
(0.023448 1.24067e-07 0.00188115)
(0.0198078 -5.60325e-07 0.00298215)
(0.0148409 -5.8923e-07 0.00382711)
(0.00884077 -4.75359e-07 0.00447299)
(0.00204379 -3.53281e-07 0.00496077)
(-0.00538056 -2.48464e-07 0.00531377)
(-0.0132473 -1.66064e-07 0.00556023)
(-0.0214617 -1.07179e-07 0.00573152)
(-0.0299225 -6.8018e-08 0.00584388)
(-0.0385556 -4.28172e-08 0.0059093)
(-0.0472995 -2.60847e-08 0.00593702)
(-0.0561034 -1.43254e-08 0.00593421)
(-0.0649252 -5.95297e-09 0.00590648)
(-0.0737296 -2.56444e-10 0.00585829)
(-0.0824868 3.5527e-09 0.00579318)
(-0.0911714 6.45559e-09 0.005714)
(-0.0997618 9.3573e-09 0.00562303)
(-0.108239 1.2675e-08 0.00552213)
(-0.116587 1.627e-08 0.00541283)
(-0.124791 1.96437e-08 0.00529638)
(-0.132839 2.22761e-08 0.00517382)
(-0.140719 2.39168e-08 0.00504602)
(-0.148422 2.45829e-08 0.00491369)
(-0.155939 2.45115e-08 0.00477748)
(-0.163262 2.39572e-08 0.0046379)
(-0.170383 2.31466e-08 0.00449541)
(-0.177297 2.21682e-08 0.00435041)
(-0.183997 2.10144e-08 0.00420325)
(-0.190479 1.96146e-08 0.00405423)
(-0.196737 1.7893e-08 0.00390363)
(-0.202768 1.57939e-08 0.0037517)
(-0.208568 1.33299e-08 0.00359867)
(-0.214133 1.06134e-08 0.00344475)
(-0.21946 7.85593e-09 0.00329013)
(-0.224548 5.35362e-09 0.00313501)
(-0.229394 3.44007e-09 0.00297955)
(-0.233996 2.413e-09 0.00282392)
(-0.238352 2.44523e-09 0.00266827)
(-0.242462 3.52322e-09 0.00251277)
(-0.246325 5.44044e-09 0.00235756)
(-0.249941 7.83991e-09 0.00220279)
(-0.253308 1.02857e-08 0.0020486)
(-0.256429 1.23703e-08 0.00189513)
(-0.259302 1.38026e-08 0.00174252)
(-0.261929 1.44481e-08 0.00159091)
(-0.26431 1.43335e-08 0.00144043)
(-0.266448 1.36036e-08 0.00129121)
(-0.268344 1.24921e-08 0.0011434)
(-0.27 1.12269e-08 0.000997107)
(-0.271418 9.9992e-09 0.000852471)
(-0.272601 8.93461e-09 0.000709615)
(-0.273552 8.08046e-09 0.000568654)
(-0.274272 7.43091e-09 0.000429684)
(-0.274767 6.94519e-09 0.000292756)
(-0.27504 6.57258e-09 0.000157871)
(-0.275093 6.25654e-09 2.51292e-05)
(-0.274931 5.95299e-09 -0.00010502)
(-0.274559 5.6345e-09 -0.00023233)
(-0.273981 5.29275e-09 -0.000356928)
(-0.273201 4.94187e-09 -0.000478815)
(-0.272224 4.59683e-09 -0.000597916)
(-0.271055 4.28755e-09 -0.000714137)
(-0.269699 4.03648e-09 -0.000827387)
(-0.268161 3.85358e-09 -0.000937582)
(-0.266447 3.76297e-09 -0.00104464)
(-0.264562 3.73555e-09 -0.0011485)
(-0.262512 3.77216e-09 -0.00124909)
(-0.260302 3.84619e-09 -0.00134635)
(-0.257939 3.9485e-09 -0.00144024)
(-0.255429 4.04749e-09 -0.0015307)
(-0.252777 4.14151e-09 -0.00161769)
(-0.24999 4.22307e-09 -0.00170118)
(-0.247073 4.28136e-09 -0.00178113)
(-0.244033 4.31638e-09 -0.00185753)
(-0.240877 4.30568e-09 -0.00193035)
(-0.237609 4.24011e-09 -0.00199958)
(-0.234237 4.11134e-09 -0.00206522)
(-0.230767 3.90274e-09 -0.00212725)
(-0.227205 3.62843e-09 -0.00218569)
(-0.223556 3.3067e-09 -0.00224054)
(-0.219828 2.94253e-09 -0.00229182)
(-0.216026 2.58749e-09 -0.00233954)
(-0.212156 2.26236e-09 -0.00238374)
(-0.208224 1.99211e-09 -0.00242443)
(-0.204236 1.80752e-09 -0.00246166)
(-0.200198 1.71193e-09 -0.00249547)
(-0.196115 1.70285e-09 -0.00252589)
(-0.191992 1.77531e-09 -0.00255299)
(-0.187836 1.91518e-09 -0.0025768)
(-0.183652 2.09917e-09 -0.0025974)
(-0.179444 2.31398e-09 -0.00261483)
(-0.175218 2.5413e-09 -0.00262918)
(-0.170979 2.77364e-09 -0.00264049)
(-0.166732 2.98855e-09 -0.00264886)
(-0.16248 3.19849e-09 -0.00265434)
(-0.15823 3.39932e-09 -0.00265702)
(-0.153984 3.58686e-09 -0.00265698)
(-0.149748 3.78026e-09 -0.00265429)
(-0.145524 3.97869e-09 -0.00264905)
(-0.141318 4.18548e-09 -0.00264133)
(-0.137133 4.4123e-09 -0.00263123)
(-0.132972 4.65748e-09 -0.00261882)
(-0.128839 4.91271e-09 -0.0026042)
(-0.124737 5.1963e-09 -0.00258745)
(-0.12067 5.49494e-09 -0.00256865)
(-0.116639 5.8203e-09 -0.0025479)
(-0.112649 6.17239e-09 -0.00252527)
(-0.108701 6.53955e-09 -0.00250085)
(-0.104798 6.93511e-09 -0.00247473)
(-0.100942 7.36242e-09 -0.00244697)
(-0.0971369 7.81316e-09 -0.00241767)
(-0.0933832 8.29901e-09 -0.00238689)
(-0.0896834 8.80496e-09 -0.0023547)
(-0.0860394 9.3327e-09 -0.00232118)
(-0.082453 9.88723e-09 -0.00228639)
(-0.0789258 1.04686e-08 -0.00225038)
(-0.0754594 1.10667e-08 -0.00221323)
(-0.0720553 1.1675e-08 -0.00217499)
(-0.068715 1.23035e-08 -0.00213569)
(-0.0654396 1.29354e-08 -0.0020954)
(-0.0622306 1.35808e-08 -0.00205416)
(-0.059089 1.42381e-08 -0.002012)
(-0.0560161 1.48939e-08 -0.00196895)
(-0.0530129 1.55648e-08 -0.00192505)
(-0.0500805 1.6231e-08 -0.00188033)
(-0.04722 1.69206e-08 -0.0018348)
(-0.0444322 1.76188e-08 -0.00178849)
(-0.0417181 1.83205e-08 -0.00174141)
(-0.0390788 1.90408e-08 -0.00169358)
(-0.0365151 1.97613e-08 -0.00164501)
(-0.0340279 2.0492e-08 -0.0015957)
(-0.0316182 2.12329e-08 -0.00154567)
(-0.0292868 2.19841e-08 -0.00149491)
(-0.0270347 2.27355e-08 -0.00144345)
(-0.0248628 2.34988e-08 -0.00139127)
(-0.0227719 2.42623e-08 -0.00133839)
(-0.0207629 2.50345e-08 -0.00128482)
(-0.0188368 2.58186e-08 -0.00123057)
(-0.0169943 2.66113e-08 -0.00117564)
(-0.0152364 2.74344e-08 -0.00112006)
(-0.0135638 2.82611e-08 -0.00106385)
(-0.0119775 2.9088e-08 -0.00100703)
(-0.010478 2.99253e-08 -0.000949641)
(-0.0090662 3.07696e-08 -0.00089172)
(-0.00774273 3.16176e-08 -0.000833316)
(-0.00650817 3.24624e-08 -0.000774486)
(-0.00536303 3.33043e-08 -0.0007153)
(-0.00430773 3.41465e-08 -0.000655837)
(-0.00334255 3.49823e-08 -0.000596188)
(-0.00246767 3.58184e-08 -0.000536462)
(-0.00168309 3.66549e-08 -0.000476781)
(-0.000988589 3.75051e-08 -0.000417317)
(-0.00038393 3.83624e-08 -0.000358159)
(0.000131595 3.91933e-08 -0.000299307)
(0.000558378 4.00144e-08 -0.000241008)
(0.000897584 4.08896e-08 -0.00018353)
(0.00115042 4.17752e-08 -0.000127081)
(0.00131846 4.26713e-08 -7.18736e-05)
(0.00140358 4.35477e-08 -1.81361e-05)
(0.00140802 4.43908e-08 3.39084e-05)
(0.00133438 4.51907e-08 8.40196e-05)
(0.00118557 4.5924e-08 0.000131918)
(0.000964979 4.65871e-08 0.000177313)
(0.00067643 4.72103e-08 0.0002199)
(0.000324241 4.78205e-08 0.000259353)
(-8.68643e-05 4.83538e-08 0.000295303)
(-0.000551494 4.88303e-08 0.000327322)
(-0.0010637 4.92769e-08 0.000355035)
(-0.00161706 4.96265e-08 0.000378069)
(-0.00220444 4.98217e-08 0.000396035)
(-0.00281812 4.97212e-08 0.000408522)
(-0.00344964 4.93148e-08 0.000415029)
(-0.00408984 4.85518e-08 0.000415079)
(-0.00472877 4.74555e-08 0.000408172)
(-0.00535564 4.60863e-08 0.000393753)
(-0.00595876 4.44777e-08 0.000371259)
(-0.00652553 4.25688e-08 0.000340079)
(-0.0070423 4.03023e-08 0.000299572)
(-0.00749435 3.76272e-08 0.000249061)
(-0.00786581 3.456e-08 0.000187845)
(-0.00813964 3.12858e-08 0.000115221)
(-0.0082976 2.80035e-08 3.05269e-05)
(-0.00832035 2.49633e-08 -6.66868e-05)
(-0.00818784 2.22383e-08 -0.000176469)
(-0.00787997 1.99241e-08 -0.000298317)
(-0.00737745 1.8109e-08 -0.000430553)
(-0.0066641 1.69357e-08 -0.000569115)
(-0.005731 1.63785e-08 -0.000705598)
(-0.00458388 1.58431e-08 -0.000823627)
(-0.00325751 1.45583e-08 -0.000892299)
(-0.00183837 1.25366e-08 -0.000855503)
(-0.000510768 1.34012e-08 -0.000615861)
(0.000402743 3.23154e-08 -9.31155e-05)
(0.000316704 2.25622e-08 0.000340439)
(0.00519084 -7.35708e-05 -0.0098079)
(0.0111563 -8.23146e-06 -0.0116704)
(0.0144174 3.4986e-06 -0.00925882)
(0.0159638 3.41172e-06 -0.00539552)
(0.0157401 1.66661e-06 -0.00151802)
(0.0139812 5.27688e-07 0.00189106)
(0.0108652 2.03422e-08 0.00471352)
(0.00658308 -1.45371e-07 0.00698259)
(0.00132116 -1.69504e-07 0.00878006)
(-0.00475006 -1.45673e-07 0.0101904)
(-0.0114689 -1.11021e-07 0.0112855)
(-0.0187104 -7.90516e-08 0.0121221)
(-0.0263622 -5.36031e-08 0.0127515)
(-0.0343329 -3.49747e-08 0.0132186)
(-0.0425417 -2.19572e-08 0.0135539)
(-0.0509225 -1.29548e-08 0.0137819)
(-0.0594193 -6.58046e-09 0.0139213)
(-0.0679848 -1.94353e-09 0.0139874)
(-0.0765789 1.44351e-09 0.013992)
(-0.0851673 3.89178e-09 0.0139447)
(-0.0937205 5.70792e-09 0.0138535)
(-0.102213 7.20251e-09 0.0137245)
(-0.110623 8.58776e-09 0.0135631)
(-0.118932 9.91986e-09 0.0133735)
(-0.127122 1.10929e-08 0.0131593)
(-0.135178 1.19635e-08 0.0129235)
(-0.143088 1.24198e-08 0.0126685)
(-0.150839 1.24501e-08 0.0123965)
(-0.158422 1.2115e-08 0.0121094)
(-0.165827 1.15063e-08 0.0118087)
(-0.173045 1.06935e-08 0.0114958)
(-0.180069 9.70937e-09 0.011172)
(-0.186893 8.55236e-09 0.0108382)
(-0.193509 7.20463e-09 0.0104955)
(-0.199913 5.66664e-09 0.0101448)
(-0.2061 3.9795e-09 0.00978692)
(-0.212064 2.24037e-09 0.00942254)
(-0.217802 6.14011e-10 0.0090524)
(-0.223311 -7.12452e-10 0.00867717)
(-0.228587 -1.56066e-09 0.0082975)
(-0.233628 -1.81952e-09 0.00791397)
(-0.238431 -1.46674e-09 0.00752719)
(-0.242994 -5.86683e-10 0.00713771)
(-0.247315 6.43008e-10 0.00674609)
(-0.251394 2.00033e-09 0.00635287)
(-0.255229 3.25007e-09 0.00595857)
(-0.25882 4.20102e-09 0.00556371)
(-0.262166 4.73088e-09 0.00516881)
(-0.265267 4.80239e-09 0.00477436)
(-0.268124 4.46331e-09 0.00438086)
(-0.270737 3.81571e-09 0.00398879)
(-0.273108 2.99108e-09 0.00359865)
(-0.275237 2.11843e-09 0.0032109)
(-0.277125 1.30183e-09 0.002826)
(-0.278776 6.08024e-10 0.00244442)
(-0.280191 7.05951e-11 0.00206659)
(-0.281372 -3.12968e-10 0.00169296)
(-0.282321 -5.63412e-10 0.00132396)
(-0.283042 -7.13505e-10 0.000960006)
(-0.283538 -7.98497e-10 0.000601496)
(-0.283813 -8.49075e-10 0.000248822)
(-0.283869 -8.89286e-10 -9.76551e-05)
(-0.28371 -9.3613e-10 -0.000437681)
(-0.283341 -9.90851e-10 -0.000770989)
(-0.282766 -1.05179e-09 -0.00109724)
(-0.281989 -1.1119e-09 -0.00141612)
(-0.281015 -1.15999e-09 -0.00172732)
(-0.279849 -1.18279e-09 -0.00203054)
(-0.278495 -1.17699e-09 -0.00232551)
(-0.276959 -1.14051e-09 -0.00261199)
(-0.275246 -1.07792e-09 -0.00288975)
(-0.273361 -9.97085e-10 -0.00315858)
(-0.27131 -9.10868e-10 -0.00341831)
(-0.269098 -8.27139e-10 -0.00366876)
(-0.266732 -7.5419e-10 -0.0039098)
(-0.264217 -6.98652e-10 -0.0041413)
(-0.261558 -6.62599e-10 -0.00436316)
(-0.258762 -6.47275e-10 -0.00457528)
(-0.255835 -6.53922e-10 -0.00477762)
(-0.252782 -6.82957e-10 -0.00497011)
(-0.24961 -7.31892e-10 -0.00515273)
(-0.246325 -8.03631e-10 -0.00532548)
(-0.242933 -8.96101e-10 -0.00548835)
(-0.23944 -1.00101e-09 -0.00564138)
(-0.235851 -1.11381e-09 -0.00578461)
(-0.232173 -1.22039e-09 -0.00591809)
(-0.228412 -1.31619e-09 -0.00604192)
(-0.224574 -1.38671e-09 -0.00615616)
(-0.220665 -1.42655e-09 -0.00626094)
(-0.216689 -1.42867e-09 -0.00635638)
(-0.212654 -1.3972e-09 -0.0064426)
(-0.208565 -1.33422e-09 -0.00651976)
(-0.204427 -1.24677e-09 -0.00658802)
(-0.200245 -1.14563e-09 -0.00664755)
(-0.196026 -1.03703e-09 -0.00669853)
(-0.191773 -9.32563e-10 -0.00674116)
(-0.187493 -8.339e-10 -0.00677563)
(-0.183191 -7.5182e-10 -0.00680216)
(-0.178871 -6.83422e-10 -0.00682098)
(-0.174537 -6.31195e-10 -0.00683229)
(-0.170196 -5.92652e-10 -0.00683633)
(-0.16585 -5.63647e-10 -0.00683334)
(-0.161505 -5.45011e-10 -0.00682356)
(-0.157164 -5.29692e-10 -0.00680723)
(-0.152832 -5.15202e-10 -0.00678459)
(-0.148512 -5.01126e-10 -0.00675589)
(-0.144209 -4.85389e-10 -0.00672137)
(-0.139926 -4.68822e-10 -0.00668128)
(-0.135666 -4.48935e-10 -0.00663586)
(-0.131432 -4.28631e-10 -0.00658536)
(-0.127229 -4.0708e-10 -0.00653001)
(-0.123058 -3.87603e-10 -0.00647004)
(-0.118923 -3.66049e-10 -0.00640569)
(-0.114827 -3.46983e-10 -0.00633717)
(-0.110772 -3.29991e-10 -0.00626471)
(-0.106761 -3.11753e-10 -0.00618851)
(-0.102796 -2.97664e-10 -0.00610878)
(-0.0988796 -2.83989e-10 -0.0060257)
(-0.0950138 -2.76125e-10 -0.00593947)
(-0.0912007 -2.71998e-10 -0.00585026)
(-0.0874423 -2.73269e-10 -0.00575823)
(-0.0837405 -2.80769e-10 -0.00566354)
(-0.080097 -2.93255e-10 -0.00556634)
(-0.0765136 -3.13218e-10 -0.00546675)
(-0.0729918 -3.41493e-10 -0.0053649)
(-0.0695332 -3.76419e-10 -0.0052609)
(-0.0661394 -4.17166e-10 -0.00515485)
(-0.0628117 -4.654e-10 -0.00504685)
(-0.0595516 -5.19875e-10 -0.00493696)
(-0.0563602 -5.81008e-10 -0.00482527)
(-0.0532391 -6.4714e-10 -0.00471182)
(-0.0501894 -7.19935e-10 -0.00459667)
(-0.0472124 -7.94824e-10 -0.00447986)
(-0.0443092 -8.7721e-10 -0.00436141)
(-0.0414811 -9.65018e-10 -0.00424136)
(-0.0387292 -1.05908e-09 -0.00411972)
(-0.0360548 -1.15733e-09 -0.0039965)
(-0.0334589 -1.26183e-09 -0.00387172)
(-0.0309428 -1.37176e-09 -0.00374537)
(-0.0285076 -1.48921e-09 -0.00361747)
(-0.0261543 -1.60919e-09 -0.00348801)
(-0.0238843 -1.73585e-09 -0.003357)
(-0.0216985 -1.86005e-09 -0.00322445)
(-0.0195982 -1.99094e-09 -0.00309038)
(-0.0175844 -2.11688e-09 -0.00295479)
(-0.0156582 -2.24618e-09 -0.00281772)
(-0.0138207 -2.37469e-09 -0.00267921)
(-0.0120729 -2.50242e-09 -0.0025393)
(-0.0104158 -2.63018e-09 -0.00239807)
(-0.00885046 -2.75882e-09 -0.00225559)
(-0.00737765 -2.88835e-09 -0.00211197)
(-0.00599824 -3.01708e-09 -0.00196732)
(-0.00471295 -3.14587e-09 -0.0018218)
(-0.00352243 -3.28137e-09 -0.00167557)
(-0.00242718 -3.41192e-09 -0.00152883)
(-0.00142759 -3.54336e-09 -0.00138182)
(-0.000523912 -3.67568e-09 -0.00123483)
(0.000283871 -3.80807e-09 -0.00108806)
(0.000995623 -3.938e-09 -0.000941799)
(0.00161177 -4.06633e-09 -0.000796349)
(0.00213282 -4.18888e-09 -0.00065211)
(0.00255959 -4.29983e-09 -0.000509557)
(0.00289312 -4.41167e-09 -0.000369151)
(0.00313478 -4.52606e-09 -0.000231395)
(0.00328625 -4.64135e-09 -9.68265e-05)
(0.00334953 -4.76837e-09 3.39931e-05)
(0.00332707 -4.8988e-09 0.000160476)
(0.00322165 -5.03349e-09 0.000281969)
(0.00303649 -5.1649e-09 0.000397764)
(0.00277526 -5.29556e-09 0.000507117)
(0.00244213 -5.4121e-09 0.000609239)
(0.00204175 -5.51119e-09 0.000703279)
(0.00157932 -5.59112e-09 0.000788319)
(0.00106058 -5.65525e-09 0.000863432)
(0.000491887 -5.72612e-09 0.000927649)
(-0.000119851 -5.82546e-09 0.000979933)
(-0.000766941 -5.95748e-09 0.00101917)
(-0.00144105 -6.13053e-09 0.00104419)
(-0.00213324 -6.32291e-09 0.00105381)
(-0.00283374 -6.52043e-09 0.00104672)
(-0.00353206 -6.6846e-09 0.00102151)
(-0.0042169 -6.80956e-09 0.000976711)
(-0.00487613 -6.90868e-09 0.000910759)
(-0.00549677 -7.00036e-09 0.000821989)
(-0.00606501 -7.08961e-09 0.000708648)
(-0.00656615 -7.14882e-09 0.00056892)
(-0.0069847 -7.11934e-09 0.000400976)
(-0.00730444 -6.95421e-09 0.00020309)
(-0.00750867 -6.63337e-09 -2.61086e-05)
(-0.0075803 -6.16979e-09 -0.000287199)
(-0.00750265 -5.5718e-09 -0.000579519)
(-0.00726027 -4.82079e-09 -0.000900026)
(-0.00684016 -3.91143e-09 -0.00124104)
(-0.00623399 -2.97428e-09 -0.00158655)
(-0.00544116 -2.31465e-09 -0.00190551)
(-0.00447372 -2.3358e-09 -0.00214039)
(-0.00336025 -3.36454e-09 -0.00218828)
(-0.00215792 -4.12683e-09 -0.00187368)
(-0.000958974 4.4408e-09 -0.000957062)
(-0.000116569 -3.50391e-09 0.000401285)
(0.00519137 -7.35493e-05 -0.00982404)
(0.0111598 -8.23175e-06 -0.0116762)
(0.0144166 3.49861e-06 -0.00926255)
(0.0159619 3.41168e-06 -0.0053959)
(0.0157391 1.66658e-06 -0.00151708)
(0.0139814 5.27678e-07 0.00189195)
(0.010866 2.03419e-08 0.00471407)
(0.00658392 -1.45369e-07 0.00698287)
(0.00132185 -1.69501e-07 0.00878019)
(-0.00474956 -1.45671e-07 0.0101904)
(-0.0114685 -1.1102e-07 0.0112855)
(-0.0187102 -7.90506e-08 0.0121222)
(-0.0263621 -5.36025e-08 0.0127515)
(-0.0343328 -3.49743e-08 0.0132186)
(-0.0425416 -2.1957e-08 0.0135539)
(-0.0509224 -1.29546e-08 0.0137819)
(-0.0594192 -6.58038e-09 0.0139213)
(-0.0679847 -1.94351e-09 0.0139874)
(-0.0765788 1.44349e-09 0.013992)
(-0.0851671 3.89173e-09 0.0139447)
(-0.0937204 5.70786e-09 0.0138535)
(-0.102213 7.20244e-09 0.0137245)
(-0.110623 8.58767e-09 0.0135631)
(-0.118932 9.91975e-09 0.0133735)
(-0.127121 1.10928e-08 0.0131593)
(-0.135178 1.19634e-08 0.0129235)
(-0.143088 1.24196e-08 0.0126685)
(-0.150839 1.245e-08 0.0123965)
(-0.158422 1.21149e-08 0.0121094)
(-0.165827 1.15062e-08 0.0118087)
(-0.173045 1.06934e-08 0.0114958)
(-0.180069 9.70928e-09 0.011172)
(-0.186893 8.55228e-09 0.0108382)
(-0.193509 7.20456e-09 0.0104955)
(-0.199913 5.66658e-09 0.0101448)
(-0.206099 3.97946e-09 0.00978691)
(-0.212064 2.24035e-09 0.00942253)
(-0.217802 6.14005e-10 0.00905239)
(-0.223311 -7.12445e-10 0.00867717)
(-0.228587 -1.56065e-09 0.00829749)
(-0.233628 -1.8195e-09 0.00791396)
(-0.238431 -1.46673e-09 0.00752718)
(-0.242993 -5.86678e-10 0.00713771)
(-0.247315 6.43002e-10 0.00674609)
(-0.251394 2.00031e-09 0.00635286)
(-0.255229 3.25004e-09 0.00595856)
(-0.258819 4.20098e-09 0.00556371)
(-0.262165 4.73084e-09 0.0051688)
(-0.265266 4.80235e-09 0.00477435)
(-0.268123 4.46327e-09 0.00438085)
(-0.270737 3.81567e-09 0.00398878)
(-0.273107 2.99106e-09 0.00359864)
(-0.275236 2.11841e-09 0.00321089)
(-0.277125 1.30181e-09 0.00282599)
(-0.278776 6.08019e-10 0.00244441)
(-0.28019 7.05945e-11 0.00206658)
(-0.281371 -3.12965e-10 0.00169295)
(-0.282321 -5.63407e-10 0.00132395)
(-0.283042 -7.13499e-10 0.000959997)
(-0.283538 -7.9849e-10 0.000601486)
(-0.283812 -8.49067e-10 0.000248811)
(-0.283868 -8.89278e-10 -9.76656e-05)
(-0.28371 -9.36122e-10 -0.000437692)
(-0.283341 -9.90843e-10 -0.000771)
(-0.282766 -1.05178e-09 -0.00109725)
(-0.281989 -1.11189e-09 -0.00141613)
(-0.281015 -1.15998e-09 -0.00172733)
(-0.279848 -1.18278e-09 -0.00203055)
(-0.278494 -1.17698e-09 -0.00232552)
(-0.276958 -1.1405e-09 -0.002612)
(-0.275245 -1.07791e-09 -0.00288976)
(-0.27336 -9.97077e-10 -0.00315859)
(-0.27131 -9.1086e-10 -0.00341832)
(-0.269098 -8.27132e-10 -0.00366877)
(-0.266732 -7.54184e-10 -0.00390981)
(-0.264216 -6.98647e-10 -0.00414131)
(-0.261558 -6.62594e-10 -0.00436317)
(-0.258762 -6.47269e-10 -0.00457529)
(-0.255835 -6.53917e-10 -0.00477763)
(-0.252782 -6.82951e-10 -0.00497012)
(-0.24961 -7.31886e-10 -0.00515274)
(-0.246325 -8.03624e-10 -0.00532549)
(-0.242933 -8.96094e-10 -0.00548836)
(-0.239439 -1.001e-09 -0.00564139)
(-0.235851 -1.1138e-09 -0.00578462)
(-0.232173 -1.22038e-09 -0.00591811)
(-0.228412 -1.31618e-09 -0.00604193)
(-0.224574 -1.3867e-09 -0.00615618)
(-0.220664 -1.42654e-09 -0.00626096)
(-0.216689 -1.42866e-09 -0.00635639)
(-0.212654 -1.39719e-09 -0.00644261)
(-0.208564 -1.33421e-09 -0.00651977)
(-0.204426 -1.24676e-09 -0.00658803)
(-0.200245 -1.14562e-09 -0.00664756)
(-0.196025 -1.03702e-09 -0.00669854)
(-0.191773 -9.32556e-10 -0.00674117)
(-0.187493 -8.33894e-10 -0.00677564)
(-0.183191 -7.51815e-10 -0.00680218)
(-0.17887 -6.83417e-10 -0.00682099)
(-0.174537 -6.3119e-10 -0.0068323)
(-0.170195 -5.92648e-10 -0.00683635)
(-0.16585 -5.63643e-10 -0.00683336)
(-0.161505 -5.45007e-10 -0.00682358)
(-0.157164 -5.29688e-10 -0.00680724)
(-0.152832 -5.15198e-10 -0.0067846)
(-0.148512 -5.01122e-10 -0.0067559)
(-0.144209 -4.85386e-10 -0.00672138)
(-0.139925 -4.68819e-10 -0.00668129)
(-0.135665 -4.48932e-10 -0.00663588)
(-0.131432 -4.28628e-10 -0.00658537)
(-0.127228 -4.07077e-10 -0.00653002)
(-0.123058 -3.876e-10 -0.00647005)
(-0.118923 -3.66046e-10 -0.0064057)
(-0.114827 -3.46981e-10 -0.00633719)
(-0.110772 -3.29989e-10 -0.00626472)
(-0.106761 -3.11751e-10 -0.00618853)
(-0.102796 -2.97662e-10 -0.00610879)
(-0.0988794 -2.83987e-10 -0.00602572)
(-0.0950136 -2.76123e-10 -0.00593949)
(-0.0912005 -2.71996e-10 -0.00585028)
(-0.0874422 -2.73267e-10 -0.00575825)
(-0.0837403 -2.80767e-10 -0.00566356)
(-0.0800968 -2.93253e-10 -0.00556636)
(-0.0765134 -3.13217e-10 -0.00546677)
(-0.0729916 -3.41491e-10 -0.00536492)
(-0.0695331 -3.76416e-10 -0.00526092)
(-0.0661392 -4.17164e-10 -0.00515488)
(-0.0628115 -4.65397e-10 -0.00504687)
(-0.0595514 -5.19872e-10 -0.00493699)
(-0.0563601 -5.81005e-10 -0.00482529)
(-0.0532389 -6.47137e-10 -0.00471185)
(-0.0501892 -7.19931e-10 -0.0045967)
(-0.0472122 -7.9482e-10 -0.00447988)
(-0.044309 -8.77205e-10 -0.00436144)
(-0.0414809 -9.65013e-10 -0.00424139)
(-0.0387291 -1.05908e-09 -0.00411975)
(-0.0360546 -1.15732e-09 -0.00399653)
(-0.0334588 -1.26182e-09 -0.00387175)
(-0.0309426 -1.37176e-09 -0.0037454)
(-0.0285074 -1.48921e-09 -0.0036175)
(-0.0261542 -1.60918e-09 -0.00348804)
(-0.0238841 -1.73584e-09 -0.00335704)
(-0.0216984 -1.86004e-09 -0.00322449)
(-0.019598 -1.99093e-09 -0.00309041)
(-0.0175842 -2.11687e-09 -0.00295483)
(-0.015658 -2.24617e-09 -0.00281776)
(-0.0138205 -2.37468e-09 -0.00267925)
(-0.0120727 -2.50241e-09 -0.00253934)
(-0.0104157 -2.63017e-09 -0.00239811)
(-0.0088503 -2.75881e-09 -0.00225563)
(-0.0073775 -2.88833e-09 -0.00211201)
(-0.00599808 -3.01707e-09 -0.00196736)
(-0.0047128 -3.14585e-09 -0.00182184)
(-0.00352227 -3.28135e-09 -0.00167561)
(-0.00242702 -3.41191e-09 -0.00152887)
(-0.00142743 -3.54334e-09 -0.00138187)
(-0.000523755 -3.67567e-09 -0.00123487)
(0.000284028 -3.80805e-09 -0.0010881)
(0.000995779 -3.93798e-09 -0.000941844)
(0.00161193 -4.06631e-09 -0.000796395)
(0.00213298 -4.18887e-09 -0.000652156)
(0.00255974 -4.29981e-09 -0.000509604)
(0.00289327 -4.41165e-09 -0.000369199)
(0.00313493 -4.52605e-09 -0.000231443)
(0.00328639 -4.64134e-09 -9.68748e-05)
(0.00334968 -4.76835e-09 3.39443e-05)
(0.00332722 -4.89879e-09 0.000160426)
(0.00322179 -5.03347e-09 0.000281919)
(0.00303662 -5.16489e-09 0.000397714)
(0.0027754 -5.29555e-09 0.000507066)
(0.00244226 -5.41209e-09 0.000609187)
(0.00204188 -5.51117e-09 0.000703227)
(0.00157945 -5.59111e-09 0.000788266)
(0.0010607 -5.65523e-09 0.000863378)
(0.000492002 -5.7261e-09 0.000927594)
(-0.000119741 -5.82545e-09 0.000979877)
(-0.000766836 -5.95746e-09 0.00101911)
(-0.00144096 -6.13051e-09 0.00104413)
(-0.00213315 -6.32289e-09 0.00105375)
(-0.00283365 -6.52041e-09 0.00104666)
(-0.00353198 -6.68458e-09 0.00102144)
(-0.00421682 -6.80954e-09 0.000976647)
(-0.00487606 -6.90866e-09 0.000910694)
(-0.00549671 -7.00034e-09 0.000821922)
(-0.00606495 -7.08959e-09 0.000708579)
(-0.0065661 -7.1488e-09 0.000568848)
(-0.00698465 -7.11932e-09 0.000400901)
(-0.00730441 -6.95419e-09 0.000203012)
(-0.00750864 -6.63335e-09 -2.61904e-05)
(-0.00758027 -6.16978e-09 -0.000287285)
(-0.00750263 -5.57179e-09 -0.000579611)
(-0.00726025 -4.82077e-09 -0.000900124)
(-0.00684015 -3.91142e-09 -0.00124115)
(-0.00623397 -2.97427e-09 -0.00158666)
(-0.00544115 -2.31465e-09 -0.00190564)
(-0.00447372 -2.33579e-09 -0.00214053)
(-0.00336026 -3.36453e-09 -0.00218845)
(-0.00215795 -4.12682e-09 -0.00187387)
(-0.000959123 4.4408e-09 -0.000957335)
(-0.000116795 -3.50392e-09 0.00040091)