/*--------------------------------*- C++ -*----------------------------------*\
  =========                 |
  \\      /  F ield         | OpenFOAM: The Open Source CFD Toolbox
   \\    /   O peration     | Website:  https://openfoam.org
    \\  /    A nd           | Version:  8
     \\/     M anipulation  |
\*---------------------------------------------------------------------------*/
FoamFile
{
    version     2.0;
    format      ascii;
    class       volScalarField;
    location    "4300";
    object      alphat;
}
// * * * * * * * * * * * * * * * * * * * * * * * * * * * * * * * * * * * * * //

dimensions      [1 -1 -1 0 0 0 0];

internalField   nonuniform List<scalar> 
46000
(
2.11681e-06
7.97145e-06
1.40748e-05
1.96977e-05
2.49936e-05
3.01064e-05
3.50986e-05
3.99873e-05
4.47996e-05
4.95557e-05
5.42716e-05
5.89588e-05
6.35907e-05
6.81864e-05
7.27505e-05
7.72838e-05
8.17854e-05
8.62537e-05
9.0686e-05
9.50791e-05
9.94295e-05
0.000103733
0.000107986
0.000112184
0.000116321
0.000120394
0.000124397
0.000128326
0.000132175
0.000135941
0.000139617
0.0001432
0.000146685
0.000150067
0.000153343
0.000156508
0.000159558
0.000162489
0.000165299
0.000167984
0.000170541
0.000172967
0.000175261
0.00017742
0.000179441
0.000181324
0.000183068
0.000184671
0.000186133
0.000187453
0.000188632
0.000189669
0.000190565
0.000191321
0.000191939
0.000192418
0.000192762
0.000192971
0.000193049
0.000192997
0.00019282
0.000192522
0.000192105
0.00019157
0.00019092
0.000190158
0.000189286
0.00018831
0.000187232
0.000186056
0.000184786
0.000183427
0.000181982
0.000180456
0.000178853
0.000177176
0.000175431
0.000173622
0.000171752
0.000169827
0.000167849
0.000165824
0.000163756
0.000161648
0.000159504
0.000157328
0.000155125
0.000152897
0.000150649
0.000148384
0.000146104
0.000143815
0.000141518
0.000139216
0.000136913
0.000134612
0.000132314
0.000130023
0.00012774
0.000125469
0.000123211
0.000120968
0.000118742
0.000116534
0.000114347
0.000112182
0.000110039
0.000107921
0.000105828
0.000103761
0.000101721
9.97093e-05
9.77259e-05
9.57715e-05
9.38465e-05
9.19513e-05
9.00861e-05
8.8251e-05
8.64462e-05
8.46717e-05
8.29273e-05
8.1213e-05
7.95285e-05
7.78737e-05
7.62481e-05
7.46514e-05
7.30832e-05
7.15432e-05
7.00306e-05
6.85452e-05
6.70862e-05
6.56532e-05
6.42455e-05
6.28626e-05
6.15037e-05
6.01683e-05
5.88557e-05
5.75653e-05
5.62964e-05
5.50483e-05
5.38204e-05
5.26121e-05
5.14227e-05
5.02516e-05
4.90982e-05
4.79618e-05
4.68419e-05
4.57379e-05
4.46493e-05
4.35754e-05
4.25159e-05
4.14702e-05
4.04378e-05
3.94182e-05
3.84111e-05
3.74159e-05
3.64324e-05
3.54601e-05
3.44986e-05
3.35477e-05
3.2607e-05
3.16761e-05
3.07549e-05
2.9843e-05
2.894e-05
2.80459e-05
2.71603e-05
2.62838e-05
2.54158e-05
2.45556e-05
2.37029e-05
2.28575e-05
2.2019e-05
2.11872e-05
2.03619e-05
1.95427e-05
1.87294e-05
1.79217e-05
1.71191e-05
1.63214e-05
1.55281e-05
1.47388e-05
1.39528e-05
1.31696e-05
1.23893e-05
1.16112e-05
1.08341e-05
1.00567e-05
9.27791e-06
8.49631e-06
7.71017e-06
6.91741e-06
6.11541e-06
5.30085e-06
4.46937e-06
3.61522e-06
2.73087e-06
1.80833e-06
8.72502e-07
1.72113e-07
2.11765e-06
7.97282e-06
1.4076e-05
1.96985e-05
2.4994e-05
3.01067e-05
3.50988e-05
3.99875e-05
4.47997e-05
4.95558e-05
5.42716e-05
5.89588e-05
6.35908e-05
6.81864e-05
7.27505e-05
7.72838e-05
8.17854e-05
8.62537e-05
9.06859e-05
9.50791e-05
9.94295e-05
0.000103733
0.000107986
0.000112184
0.000116321
0.000120394
0.000124397
0.000128326
0.000132175
0.000135941
0.000139617
0.0001432
0.000146685
0.000150067
0.000153343
0.000156507
0.000159557
0.000162489
0.000165299
0.000167984
0.000170541
0.000172967
0.000175261
0.000177419
0.000179441
0.000181324
0.000183068
0.000184671
0.000186133
0.000187453
0.000188631
0.000189669
0.000190565
0.000191321
0.000191938
0.000192418
0.000192761
0.000192971
0.000193048
0.000192997
0.00019282
0.000192521
0.000192104
0.00019157
0.00019092
0.000190157
0.000189286
0.00018831
0.000187231
0.000186056
0.000184786
0.000183427
0.000181982
0.000180456
0.000178852
0.000177176
0.000175431
0.000173622
0.000171752
0.000169826
0.000167849
0.000165824
0.000163755
0.000161647
0.000159503
0.000157328
0.000155125
0.000152897
0.000150649
0.000148383
0.000146104
0.000143814
0.000141517
0.000139216
0.000136913
0.000134611
0.000132314
0.000130023
0.00012774
0.000125469
0.000123211
0.000120968
0.000118742
0.000116534
0.000114347
0.000112181
0.000110039
0.000107921
0.000105827
0.000103761
0.000101721
9.97091e-05
9.77257e-05
9.57713e-05
9.38463e-05
9.19511e-05
9.00859e-05
8.82508e-05
8.6446e-05
8.46715e-05
8.29271e-05
8.12128e-05
7.95283e-05
7.78735e-05
7.62479e-05
7.46512e-05
7.30831e-05
7.1543e-05
7.00305e-05
6.8545e-05
6.70861e-05
6.56531e-05
6.42454e-05
6.28624e-05
6.15036e-05
6.01682e-05
5.88556e-05
5.75652e-05
5.62963e-05
5.50482e-05
5.38203e-05
5.2612e-05
5.14226e-05
5.02515e-05
4.90981e-05
4.79617e-05
4.68418e-05
4.57378e-05
4.46492e-05
4.35753e-05
4.25158e-05
4.14701e-05
4.04377e-05
3.94181e-05
3.8411e-05
3.74158e-05
3.64323e-05
3.546e-05
3.44986e-05
3.35476e-05
3.26069e-05
3.16761e-05
3.07548e-05
2.98429e-05
2.894e-05
2.80458e-05
2.71602e-05
2.62837e-05
2.54157e-05
2.45555e-05
2.37029e-05
2.28574e-05
2.20189e-05
2.11871e-05
2.03618e-05
1.95427e-05
1.87294e-05
1.79216e-05
1.71191e-05
1.63214e-05
1.55281e-05
1.47387e-05
1.39527e-05
1.31695e-05
1.23893e-05
1.16112e-05
1.08341e-05
1.00567e-05
9.2779e-06
8.49629e-06
7.71015e-06
6.9174e-06
6.1154e-06
5.30084e-06
4.46937e-06
3.61522e-06
2.73087e-06
1.80833e-06
8.72503e-07
1.72113e-07
7.35956e-06
6.07926e-05
0.000101706
0.000130222
0.000152415
0.000170889
0.000186849
0.000201173
0.000214336
0.000226627
0.000238224
0.000249265
0.000259858
0.000270062
0.000279924
0.000289478
0.000298753
0.00030777
0.000316545
0.000325091
0.000333417
0.000341531
0.000349437
0.00035714
0.000364641
0.000371942
0.000379045
0.000385948
0.000392651
0.000399154
0.000405454
0.000411551
0.000417444
0.000423129
0.000428606
0.000433872
0.000438927
0.000443768
0.000448394
0.000452803
0.000456995
0.000460968
0.000464722
0.000468255
0.000471568
0.00047466
0.000477531
0.000480182
0.000482613
0.000484825
0.000486819
0.000488597
0.00049016
0.000491509
0.000492648
0.000493578
0.000494302
0.000494822
0.000495142
0.000495264
0.000495191
0.000494927
0.000494475
0.00049384
0.000493027
0.00049204
0.000490885
0.000489566
0.000488087
0.000486455
0.000484673
0.000482747
0.000480683
0.000478485
0.000476158
0.000473709
0.000471143
0.000468464
0.000465679
0.000462792
0.00045981
0.000456737
0.000453578
0.00045034
0.000447027
0.000443645
0.000440198
0.000436691
0.00043313
0.000429519
0.000425863
0.000422167
0.000418434
0.00041467
0.000410879
0.000407064
0.000403231
0.000399381
0.00039552
0.000391651
0.000387776
0.0003839
0.000380026
0.000376156
0.000372293
0.00036844
0.0003646
0.000360774
0.000356964
0.000353173
0.000349403
0.000345655
0.000341931
0.000338232
0.00033456
0.000330915
0.000327298
0.000323711
0.000320154
0.000316627
0.000313131
0.000309667
0.000306234
0.000302832
0.000299462
0.000296124
0.000292816
0.000289539
0.000286293
0.000283076
0.000279889
0.00027673
0.0002736
0.000270496
0.000267419
0.000264367
0.000261339
0.000258335
0.000255353
0.000252393
0.000249453
0.000246532
0.000243629
0.000240742
0.000237872
0.000235016
0.000232173
0.000229342
0.000226522
0.000223711
0.000220909
0.000218114
0.000215325
0.000212541
0.00020976
0.000206981
0.000204203
0.000201424
0.000198644
0.000195861
0.000193073
0.000190279
0.000187478
0.000184668
0.000181847
0.000179014
0.000176165
0.000173295
0.000170408
0.000167502
0.000164574
0.000161622
0.000158644
0.000155637
0.000152597
0.000149521
0.000146404
0.000143242
0.00014003
0.000136762
0.00013343
0.000130026
0.00012654
0.000122959
0.000119262
0.000115439
0.000111473
0.00010734
0.000103009
9.84441e-05
9.35951e-05
8.83966e-05
8.27584e-05
7.65506e-05
6.95759e-05
6.15111e-05
5.17693e-05
3.91169e-05
2.06318e-05
7.9474e-07
7.35845e-06
6.07883e-05
0.000101703
0.000130222
0.000152417
0.000170892
0.000186852
0.000201176
0.000214339
0.00022663
0.000238226
0.000249268
0.000259861
0.000270065
0.000279927
0.000289481
0.000298756
0.000307773
0.000316548
0.000325094
0.00033342
0.000341534
0.00034944
0.000357143
0.000364645
0.000371946
0.000379048
0.000385952
0.000392655
0.000399158
0.000405458
0.000411555
0.000417448
0.000423133
0.00042861
0.000433877
0.000438931
0.000443772
0.000448398
0.000452808
0.000456999
0.000460973
0.000464726
0.000468259
0.000471572
0.000474664
0.000477535
0.000480186
0.000482617
0.000484829
0.000486824
0.000488601
0.000490164
0.000491514
0.000492652
0.000493582
0.000494306
0.000494826
0.000495146
0.000495268
0.000495196
0.000494932
0.000494479
0.000493844
0.000493031
0.000492045
0.000490889
0.00048957
0.000488092
0.000486459
0.000484677
0.000482751
0.000480687
0.000478489
0.000476163
0.000473713
0.000471147
0.000468468
0.000465683
0.000462796
0.000459814
0.00045674
0.000453582
0.000450344
0.000447031
0.000443648
0.000440201
0.000436695
0.000433134
0.000429523
0.000425867
0.00042217
0.000418438
0.000414674
0.000410882
0.000407068
0.000403234
0.000399384
0.000395523
0.000391654
0.000387779
0.000383903
0.000380029
0.000376159
0.000372296
0.000368443
0.000364602
0.000360776
0.000356967
0.000353176
0.000349406
0.000345658
0.000341934
0.000338235
0.000334562
0.000330917
0.000327301
0.000323713
0.000320156
0.000316629
0.000313134
0.000309669
0.000306236
0.000302834
0.000299464
0.000296126
0.000292818
0.000289541
0.000286295
0.000283078
0.000279891
0.000276732
0.000273601
0.000270498
0.00026742
0.000264368
0.000261341
0.000258336
0.000255355
0.000252394
0.000249454
0.000246533
0.00024363
0.000240744
0.000237873
0.000235017
0.000232174
0.000229343
0.000226523
0.000223713
0.00022091
0.000218115
0.000215326
0.000212542
0.000209761
0.000206982
0.000204204
0.000201425
0.000198645
0.000195862
0.000193074
0.00019028
0.000187479
0.000184669
0.000181848
0.000179015
0.000176166
0.000173296
0.000170409
0.000167502
0.000164575
0.000161623
0.000158645
0.000155637
0.000152598
0.000149521
0.000146405
0.000143243
0.000140031
0.000136763
0.00013343
0.000130026
0.00012654
0.000122959
0.000119262
0.00011544
0.000111473
0.00010734
0.00010301
9.84445e-05
9.35954e-05
8.83969e-05
8.27587e-05
7.65509e-05
6.95761e-05
6.15113e-05
5.17695e-05
3.9117e-05
2.06317e-05
7.94741e-07
1.32849e-05
9.87214e-05
0.000179631
0.000240389
0.000287678
0.000326045
0.000358351
0.00038642
0.000411398
0.00043405
0.000454898
0.000474303
0.00049253
0.000509764
0.000526143
0.000541774
0.000556738
0.000571101
0.000584916
0.000598223
0.000611056
0.000623445
0.00063541
0.000646971
0.000658143
0.000668938
0.000679369
0.000689443
0.000699167
0.000708549
0.000717592
0.000726303
0.000734684
0.000742738
0.000750469
0.000757878
0.000764969
0.000771742
0.0007782
0.000784345
0.000790179
0.000795702
0.000800917
0.000805826
0.00081043
0.000814732
0.000818734
0.000822437
0.000825845
0.000828959
0.000831783
0.00083432
0.000836572
0.000838542
0.000840234
0.000841652
0.000842799
0.000843678
0.000844293
0.000844647
0.000844745
0.000844588
0.000844181
0.000843532
0.000842647
0.000841533
0.000840195
0.000838641
0.000836875
0.000834903
0.000832732
0.000830367
0.000827815
0.000825082
0.000822173
0.000819096
0.000815856
0.000812459
0.000808912
0.000805221
0.000801393
0.000797433
0.000793348
0.000789143
0.000784826
0.000780402
0.000775877
0.000771258
0.000766549
0.000761757
0.000756888
0.000751947
0.00074694
0.000741871
0.000736747
0.000731572
0.000726352
0.000721091
0.000715794
0.000710466
0.00070511
0.000699732
0.000694336
0.000688924
0.000683502
0.000678072
0.000672638
0.000667204
0.000661772
0.000656345
0.000650925
0.000645516
0.00064012
0.000634739
0.000629374
0.000624028
0.000618701
0.000613397
0.000608115
0.000602856
0.000597622
0.000592414
0.000587231
0.000582075
0.000576945
0.000571841
0.000566764
0.000561713
0.000556689
0.000551689
0.000546715
0.000541765
0.000536838
0.000531933
0.00052705
0.000522187
0.000517344
0.000512518
0.000507709
0.000502914
0.000498133
0.000493364
0.000488606
0.000483856
0.000479114
0.000474376
0.000469642
0.00046491
0.000460178
0.000455443
0.000450704
0.000445959
0.000441206
0.000436443
0.000431667
0.000426877
0.00042207
0.000417243
0.000412394
0.000407521
0.000402621
0.000397691
0.000392728
0.000387728
0.000382687
0.000377602
0.000372466
0.000367273
0.000362023
0.000356711
0.000351333
0.000345884
0.000340357
0.000334745
0.000329038
0.000323229
0.000317306
0.000311257
0.000305068
0.000298723
0.000292202
0.000285484
0.00027854
0.000271339
0.000263838
0.000255992
0.000247753
0.000239056
0.000229817
0.000219931
0.000209256
0.00019761
0.000184735
0.000170269
0.000153669
0.000134085
0.000110098
7.92405e-05
3.80113e-05
1.65536e-06
1.32843e-05
9.87213e-05
0.000179633
0.000240392
0.000287682
0.00032605
0.000358356
0.000386425
0.000411403
0.000434055
0.000454903
0.000474308
0.000492535
0.000509769
0.000526148
0.000541779
0.000556743
0.000571106
0.000584921
0.000598228
0.000611062
0.00062345
0.000635415
0.000646976
0.000658148
0.000668944
0.000679374
0.000689448
0.000699173
0.000708554
0.000717598
0.000726308
0.000734689
0.000742743
0.000750474
0.000757884
0.000764974
0.000771748
0.000778206
0.000784351
0.000790184
0.000795708
0.000800923
0.000805832
0.000810436
0.000814738
0.000818739
0.000822443
0.00082585
0.000828965
0.000831789
0.000834325
0.000836577
0.000838547
0.00084024
0.000841657
0.000842804
0.000843683
0.000844298
0.000844653
0.00084475
0.000844593
0.000844186
0.000843537
0.000842652
0.000841538
0.0008402
0.000838646
0.000836879
0.000834908
0.000832737
0.000830372
0.00082782
0.000825086
0.000822178
0.0008191
0.00081586
0.000812463
0.000808916
0.000805225
0.000801397
0.000797437
0.000793352
0.000789147
0.00078483
0.000780406
0.000775881
0.000771261
0.000766553
0.000761761
0.000756892
0.00075195
0.000746943
0.000741874
0.00073675
0.000731576
0.000726355
0.000721094
0.000715797
0.000710469
0.000705113
0.000699735
0.000694338
0.000688927
0.000683504
0.000678075
0.000672641
0.000667206
0.000661774
0.000656347
0.000650928
0.000645519
0.000640122
0.000634741
0.000629376
0.00062403
0.000618703
0.000613399
0.000608116
0.000602858
0.000597624
0.000592415
0.000587233
0.000582076
0.000576946
0.000571843
0.000566766
0.000561715
0.00055669
0.000551691
0.000546716
0.000541766
0.000536839
0.000531934
0.000527051
0.000522189
0.000517345
0.000512519
0.000507709
0.000502915
0.000498134
0.000493365
0.000488607
0.000483857
0.000479114
0.000474377
0.000469643
0.000464911
0.000460178
0.000455443
0.000450705
0.00044596
0.000441207
0.000436443
0.000431668
0.000426877
0.00042207
0.000417243
0.000412395
0.000407522
0.000402622
0.000397691
0.000392728
0.000387728
0.000382687
0.000377602
0.000372466
0.000367273
0.000362023
0.000356711
0.000351333
0.000345884
0.000340357
0.000334745
0.000329038
0.000323229
0.000317306
0.000311257
0.000305068
0.000298723
0.000292202
0.000285484
0.00027854
0.000271339
0.000263838
0.000255992
0.000247753
0.000239056
0.000229817
0.00021993
0.000209256
0.00019761
0.000184735
0.000170269
0.000153669
0.000134085
0.000110099
7.92406e-05
3.80111e-05
1.65536e-06
1.89033e-05
0.000125942
0.000237558
0.000327888
0.000400824
0.000460961
0.00051182
0.000555842
0.000594709
0.000629595
0.000661341
0.000690554
0.000717681
0.000743055
0.000766929
0.000789498
0.000810914
0.0008313
0.000850755
0.000869359
0.000887177
0.000904263
0.000920665
0.00093642
0.00095156
0.000966113
0.000980104
0.000993553
0.00100648
0.00101889
0.00103082
0.00104226
0.00105322
0.00106373
0.00107378
0.00108339
0.00109256
0.0011013
0.00110962
0.00111752
0.001125
0.00113208
0.00113876
0.00114504
0.00115092
0.00115642
0.00116154
0.00116628
0.00117064
0.00117464
0.00117827
0.00118155
0.00118447
0.00118705
0.00118927
0.00119117
0.00119272
0.00119395
0.00119485
0.00119543
0.0011957
0.00119565
0.0011953
0.00119466
0.00119372
0.0011925
0.001191
0.00118924
0.00118722
0.00118494
0.00118242
0.00117966
0.00117667
0.00117345
0.00117001
0.00116636
0.0011625
0.00115845
0.0011542
0.00114978
0.00114517
0.0011404
0.00113546
0.00113037
0.00112513
0.00111974
0.00111422
0.00110858
0.00110281
0.00109692
0.00109093
0.00108483
0.00107864
0.00107236
0.001066
0.00105956
0.00105304
0.00104646
0.00103982
0.00103313
0.00102638
0.0010196
0.00101277
0.0010059
0.000999007
0.000992087
0.000985144
0.000978183
0.000971209
0.000964223
0.000957231
0.000950234
0.000943236
0.00093624
0.000929248
0.000922262
0.000915285
0.000908318
0.000901363
0.000894421
0.000887494
0.000880583
0.000873688
0.00086681
0.00085995
0.000853107
0.000846283
0.000839475
0.000832686
0.000825913
0.000819156
0.000812415
0.000805689
0.000798976
0.000792275
0.000785586
0.000778905
0.000772233
0.000765567
0.000758905
0.000752247
0.000745588
0.000738929
0.000732266
0.000725597
0.00071892
0.000712233
0.000705533
0.000698817
0.000692084
0.00068533
0.000678552
0.000671748
0.000664915
0.000658049
0.000651147
0.000644206
0.000637223
0.000630193
0.000623112
0.000615976
0.000608781
0.000601521
0.000594192
0.000586786
0.000579297
0.000571718
0.00056404
0.000556256
0.000548361
0.000540346
0.000532201
0.000523915
0.000515475
0.000506866
0.000498071
0.000489073
0.000479848
0.000470372
0.000460616
0.000450547
0.000440124
0.0004293
0.000418019
0.000406212
0.000393797
0.000380687
0.000366765
0.000351886
0.000335865
0.000318466
0.000299376
0.000278178
0.000254292
0.000226898
0.000194796
0.000156192
0.000108511
4.98436e-05
2.51124e-06
1.89032e-05
0.000125943
0.000237561
0.000327893
0.00040083
0.000460968
0.000511828
0.00055585
0.000594716
0.000629603
0.000661349
0.000690561
0.000717688
0.000743062
0.000766936
0.000789505
0.000810921
0.000831307
0.000850762
0.000869366
0.000887184
0.00090427
0.000920672
0.000936427
0.000951567
0.00096612
0.000980111
0.00099356
0.00100649
0.0010189
0.00103082
0.00104226
0.00105323
0.00106374
0.00107379
0.0010834
0.00109257
0.00110131
0.00110963
0.00111752
0.00112501
0.00113209
0.00113876
0.00114504
0.00115093
0.00115643
0.00116154
0.00116628
0.00117065
0.00117465
0.00117828
0.00118156
0.00118448
0.00118705
0.00118928
0.00119117
0.00119273
0.00119395
0.00119486
0.00119544
0.00119571
0.00119566
0.00119531
0.00119466
0.00119372
0.0011925
0.00119101
0.00118925
0.00118722
0.00118495
0.00118243
0.00117967
0.00117667
0.00117345
0.00117001
0.00116636
0.0011625
0.00115845
0.00115421
0.00114978
0.00114518
0.0011404
0.00113546
0.00113037
0.00112513
0.00111975
0.00111423
0.00110858
0.00110281
0.00109693
0.00109093
0.00108484
0.00107865
0.00107237
0.001066
0.00105956
0.00105305
0.00104647
0.00103983
0.00103313
0.00102639
0.0010196
0.00101277
0.0010059
0.00099901
0.000992089
0.000985146
0.000978185
0.000971211
0.000964225
0.000957233
0.000950236
0.000943238
0.000936242
0.000929249
0.000922264
0.000915286
0.000908319
0.000901364
0.000894422
0.000887495
0.000880584
0.000873689
0.000866811
0.000859951
0.000853108
0.000846283
0.000839476
0.000832686
0.000825914
0.000819157
0.000812416
0.000805689
0.000798976
0.000792276
0.000785586
0.000778906
0.000772233
0.000765567
0.000758906
0.000752247
0.000745588
0.000738929
0.000732266
0.000725597
0.00071892
0.000712233
0.000705532
0.000698817
0.000692084
0.000685329
0.000678552
0.000671748
0.000664914
0.000658049
0.000651147
0.000644206
0.000637222
0.000630192
0.000623111
0.000615976
0.000608781
0.000601521
0.000594191
0.000586786
0.000579297
0.000571718
0.000564039
0.000556255
0.00054836
0.000540345
0.0005322
0.000523914
0.000515474
0.000506865
0.000498071
0.000489072
0.000479847
0.000470371
0.000460616
0.000450546
0.000440123
0.000429299
0.000418018
0.000406211
0.000393797
0.000380687
0.000366764
0.000351885
0.000335864
0.000318465
0.000299376
0.000278178
0.000254292
0.000226898
0.000194796
0.000156192
0.000108511
4.98434e-05
2.51125e-06
2.43042e-05
0.000147977
0.000283481
0.000398849
0.000495087
0.000576139
0.000645503
0.000705855
0.000759182
0.00080695
0.000850249
0.000889896
0.00092651
0.000960561
0.000992416
0.00102236
0.00105062
0.00107739
0.0011028
0.00112698
0.00115004
0.00117205
0.00119308
0.00121321
0.00123247
0.00125092
0.00126858
0.00128551
0.00130172
0.00131725
0.00133211
0.00134632
0.00135992
0.0013729
0.0013853
0.00139712
0.00140837
0.00141908
0.00142924
0.00143888
0.001448
0.00145661
0.00146472
0.00147234
0.00147947
0.00148614
0.00149233
0.00149807
0.00150336
0.0015082
0.00151261
0.00151658
0.00152014
0.00152328
0.00152601
0.00152834
0.00153028
0.00153182
0.00153299
0.00153377
0.00153419
0.00153424
0.00153394
0.00153328
0.00153229
0.00153096
0.00152931
0.00152735
0.00152508
0.00152252
0.00151966
0.00151652
0.00151311
0.00150943
0.00150549
0.0015013
0.00149687
0.0014922
0.0014873
0.00148218
0.00147685
0.00147132
0.00146559
0.00145967
0.00145356
0.00144729
0.00144084
0.00143424
0.00142748
0.00142059
0.00141355
0.00140638
0.00139909
0.00139168
0.00138417
0.00137655
0.00136883
0.00136102
0.00135314
0.00134517
0.00133713
0.00132903
0.00132086
0.00131264
0.00130438
0.00129606
0.00128771
0.00127932
0.00127091
0.00126246
0.00125399
0.00124551
0.00123701
0.00122849
0.00121997
0.00121144
0.0012029
0.00119437
0.00118583
0.00117729
0.00116876
0.00116023
0.00115171
0.00114319
0.00113469
0.00112618
0.00111769
0.0011092
0.00110072
0.00109224
0.00108377
0.0010753
0.00106684
0.00105838
0.00104992
0.00104146
0.001033
0.00102453
0.00101606
0.00100757
0.000999081
0.000990574
0.000982052
0.000973511
0.00096495
0.000956364
0.000947752
0.00093911
0.000930435
0.000921723
0.000912971
0.000904176
0.000895334
0.00088644
0.000877491
0.000868482
0.000859409
0.000850267
0.00084105
0.000831753
0.000822371
0.000812896
0.000803322
0.00079364
0.000783844
0.000773922
0.000763866
0.000753664
0.000743304
0.000732777
0.000722071
0.00071117
0.000700057
0.000688714
0.000677118
0.000665245
0.000653067
0.000640551
0.000627662
0.000614356
0.000600584
0.000586287
0.000571397
0.000555833
0.000539499
0.000522278
0.000504037
0.000484613
0.0004638
0.000441342
0.000416915
0.0003901
0.000360351
0.00032694
0.000288882
0.000244829
0.000192962
0.00013109
5.90231e-05
3.34383e-06
2.43043e-05
0.000147979
0.000283485
0.000398855
0.000495094
0.000576148
0.000645512
0.000705865
0.000759191
0.000806959
0.000850259
0.000889906
0.000926519
0.000960571
0.000992426
0.00102237
0.00105063
0.0010774
0.00110281
0.00112699
0.00115004
0.00117205
0.00119309
0.00121321
0.00123248
0.00125092
0.00126859
0.00128552
0.00130173
0.00131725
0.00133211
0.00134633
0.00135992
0.00137291
0.00138531
0.00139712
0.00140838
0.00141908
0.00142925
0.00143889
0.001448
0.00145661
0.00146472
0.00147234
0.00147948
0.00148614
0.00149234
0.00149808
0.00150336
0.00150821
0.00151261
0.00151659
0.00152015
0.00152329
0.00152602
0.00152835
0.00153028
0.00153183
0.00153299
0.00153378
0.0015342
0.00153425
0.00153394
0.00153329
0.00153229
0.00153097
0.00152932
0.00152736
0.00152509
0.00152252
0.00151967
0.00151653
0.00151311
0.00150943
0.0015055
0.0015013
0.00149687
0.0014922
0.00148731
0.00148219
0.00147686
0.00147132
0.00146559
0.00145967
0.00145357
0.00144729
0.00144085
0.00143424
0.00142749
0.00142059
0.00141355
0.00140638
0.00139909
0.00139169
0.00138417
0.00137655
0.00136883
0.00136103
0.00135314
0.00134517
0.00133713
0.00132903
0.00132087
0.00131265
0.00130438
0.00129607
0.00128771
0.00127933
0.00127091
0.00126246
0.001254
0.00124551
0.00123701
0.00122849
0.00121997
0.00121144
0.0012029
0.00119437
0.00118583
0.00117729
0.00116876
0.00116023
0.00115171
0.0011432
0.00113469
0.00112618
0.00111769
0.0011092
0.00110072
0.00109224
0.00108377
0.0010753
0.00106684
0.00105838
0.00104992
0.00104146
0.001033
0.00102453
0.00101606
0.00100757
0.00099908
0.000990574
0.000982052
0.000973511
0.00096495
0.000956364
0.000947752
0.00093911
0.000930434
0.000921722
0.000912971
0.000904176
0.000895333
0.000886439
0.00087749
0.000868482
0.000859408
0.000850266
0.000841049
0.000831753
0.00082237
0.000812895
0.000803321
0.00079364
0.000783843
0.000773922
0.000763865
0.000753663
0.000743303
0.000732776
0.00072207
0.000711169
0.000700056
0.000688713
0.000677117
0.000665244
0.000653066
0.000640551
0.000627661
0.000614355
0.000600583
0.000586286
0.000571396
0.000555832
0.000539498
0.000522277
0.000504036
0.000484612
0.000463799
0.000441342
0.000416914
0.0003901
0.000360351
0.00032694
0.000288882
0.00024483
0.000192962
0.00013109
5.90229e-05
3.34384e-06
2.95882e-05
0.000166874
0.00032168
0.000458275
0.000575197
0.000675486
0.000762352
0.000838489
0.000906025
0.000966605
0.0010215
0.00107168
0.00111791
0.00116079
0.00120078
0.00123824
0.00127349
0.00130676
0.00133824
0.00136811
0.00139649
0.00142351
0.00144925
0.00147381
0.00149725
0.00151964
0.00154103
0.00156146
0.00158098
0.00159963
0.00161744
0.00163444
0.00165066
0.00166612
0.00168085
0.00169486
0.00170818
0.00172083
0.00173282
0.00174416
0.00175488
0.00176499
0.0017745
0.00178342
0.00179177
0.00179956
0.00180679
0.00181349
0.00181965
0.0018253
0.00183044
0.00183508
0.00183923
0.0018429
0.00184609
0.00184883
0.00185111
0.00185294
0.00185433
0.0018553
0.00185584
0.00185597
0.00185569
0.00185501
0.00185394
0.0018525
0.00185069
0.00184853
0.00184601
0.00184316
0.00183997
0.00183647
0.00183264
0.00182852
0.0018241
0.00181939
0.0018144
0.00180915
0.00180363
0.00179785
0.00179183
0.00178558
0.0017791
0.00177239
0.00176548
0.00175836
0.00175104
0.00174354
0.00173586
0.00172801
0.00171999
0.00171182
0.0017035
0.00169504
0.00168644
0.00167772
0.00166888
0.00165993
0.00165088
0.00164172
0.00163248
0.00162315
0.00161374
0.00160425
0.0015947
0.00158509
0.00157542
0.0015657
0.00155594
0.00154613
0.00153629
0.00152641
0.0015165
0.00150657
0.00149661
0.00148663
0.00147664
0.00146663
0.00145661
0.00144658
0.00143654
0.0014265
0.00141644
0.00140639
0.00139632
0.00138626
0.00137619
0.00136611
0.00135603
0.00134594
0.00133585
0.00132575
0.00131564
0.00130552
0.00129539
0.00128525
0.00127509
0.00126491
0.00125471
0.00124449
0.00123424
0.00122396
0.00121366
0.00120332
0.00119294
0.00118252
0.00117205
0.00116154
0.00115097
0.00114035
0.00112967
0.00111892
0.0011081
0.00109721
0.00108623
0.00107518
0.00106403
0.00105278
0.00104143
0.00102997
0.00101838
0.00100668
0.000994831
0.00098284
0.000970692
0.000958374
0.000945875
0.000933179
0.000920272
0.000907139
0.000893763
0.000880123
0.000866198
0.00085196
0.000837382
0.00082243
0.000807068
0.000791251
0.000774932
0.000758054
0.00074055
0.000722346
0.000703352
0.000683463
0.000662554
0.000640479
0.000617062
0.000592095
0.000565323
0.000536427
0.000505012
0.000470581
0.000432497
0.000389945
0.000341865
0.000286896
0.000223351
0.00014955
6.67089e-05
4.16102e-06
2.95883e-05
0.000166877
0.000321685
0.000458281
0.000575206
0.000675495
0.000762362
0.0008385
0.000906036
0.000966617
0.00102151
0.00107169
0.00111793
0.0011608
0.00120079
0.00123825
0.0012735
0.00130677
0.00133825
0.00136812
0.0013965
0.00142352
0.00144926
0.00147382
0.00149726
0.00151965
0.00154104
0.00156147
0.00158099
0.00159964
0.00161745
0.00163445
0.00165067
0.00166613
0.00168085
0.00169487
0.00170819
0.00172084
0.00173283
0.00174417
0.00175489
0.001765
0.00177451
0.00178343
0.00179178
0.00179957
0.0018068
0.0018135
0.00181966
0.00182531
0.00183045
0.00183509
0.00183924
0.0018429
0.0018461
0.00184883
0.00185111
0.00185295
0.00185434
0.0018553
0.00185585
0.00185597
0.00185569
0.00185501
0.00185395
0.00185251
0.0018507
0.00184853
0.00184602
0.00184316
0.00183998
0.00183647
0.00183265
0.00182852
0.0018241
0.0018194
0.00181441
0.00180915
0.00180363
0.00179786
0.00179184
0.00178558
0.0017791
0.0017724
0.00176548
0.00175836
0.00175105
0.00174355
0.00173586
0.00172801
0.00172
0.00171182
0.0017035
0.00169504
0.00168645
0.00167772
0.00166889
0.00165993
0.00165088
0.00164172
0.00163248
0.00162315
0.00161374
0.00160426
0.00159471
0.00158509
0.00157543
0.00156571
0.00155594
0.00154613
0.00153629
0.00152641
0.0015165
0.00150657
0.00149661
0.00148663
0.00147664
0.00146663
0.00145661
0.00144658
0.00143654
0.0014265
0.00141645
0.00140639
0.00139633
0.00138626
0.00137619
0.00136611
0.00135603
0.00134594
0.00133585
0.00132575
0.00131564
0.00130552
0.00129539
0.00128525
0.00127509
0.00126491
0.00125471
0.00124449
0.00123424
0.00122396
0.00121366
0.00120332
0.00119294
0.00118252
0.00117205
0.00116154
0.00115097
0.00114035
0.00112967
0.00111892
0.0011081
0.00109721
0.00108623
0.00107518
0.00106403
0.00105278
0.00104143
0.00102997
0.00101838
0.00100668
0.00099483
0.000982839
0.000970691
0.000958373
0.000945874
0.000933178
0.000920271
0.000907138
0.000893762
0.000880123
0.000866197
0.00085196
0.000837381
0.00082243
0.000807067
0.00079125
0.000774931
0.000758053
0.00074055
0.000722346
0.000703351
0.000683462
0.000662554
0.000640478
0.000617061
0.000592095
0.000565323
0.000536427
0.000505012
0.00047058
0.000432497
0.000389945
0.000341866
0.000286897
0.000223352
0.00014955
6.67086e-05
4.16104e-06
3.47793e-05
0.000183634
0.000354703
0.000509529
0.000644734
0.00076244
0.000865489
0.000956477
0.00103757
0.00111051
0.00117668
0.00123718
0.00129289
0.00134449
0.00139254
0.00143748
0.00147967
0.00151941
0.00155695
0.00159249
0.00162619
0.0016582
0.00168865
0.00171763
0.00174523
0.00177155
0.00179664
0.00182056
0.00184338
0.00186513
0.00188587
0.00190563
0.00192445
0.00194236
0.00195939
0.00197557
0.00199092
0.00200548
0.00201926
0.00203228
0.00204457
0.00205613
0.002067
0.00207719
0.00208671
0.00209558
0.00210381
0.00211142
0.00211843
0.00212484
0.00213067
0.00213593
0.00214063
0.00214479
0.00214841
0.00215152
0.0021541
0.00215619
0.00215779
0.0021589
0.00215954
0.00215972
0.00215944
0.00215872
0.00215757
0.002156
0.00215402
0.00215164
0.00214887
0.00214572
0.00214221
0.00213833
0.00213411
0.00212954
0.00212465
0.00211943
0.00211391
0.00210808
0.00210196
0.00209555
0.00208887
0.00208192
0.00207472
0.00206726
0.00205957
0.00205165
0.0020435
0.00203515
0.00202658
0.00201783
0.00200888
0.00199976
0.00199046
0.001981
0.00197139
0.00196163
0.00195173
0.0019417
0.00193155
0.00192127
0.00191089
0.00190041
0.00188983
0.00187916
0.00186841
0.00185757
0.00184667
0.0018357
0.00182467
0.00181359
0.00180245
0.00179127
0.00178004
0.00176878
0.00175748
0.00174615
0.00173479
0.0017234
0.00171199
0.00170056
0.00168911
0.00167764
0.00166616
0.00165465
0.00164313
0.0016316
0.00162005
0.00160848
0.0015969
0.0015853
0.00157368
0.00156205
0.00155039
0.00153871
0.001527