/*--------------------------------*- C++ -*----------------------------------*\
  =========                 |
  \\      /  F ield         | OpenFOAM: The Open Source CFD Toolbox
   \\    /   O peration     | Website:  https://openfoam.org
    \\  /    A nd           | Version:  8
     \\/     M anipulation  |
\*---------------------------------------------------------------------------*/
FoamFile
{
    version     2.0;
    format      ascii;
    class       volScalarField;
    location    "4300";
    object      epsilon;
}
// * * * * * * * * * * * * * * * * * * * * * * * * * * * * * * * * * * * * * //

dimensions      [0 2 -3 0 0 0 0];

internalField   nonuniform List<scalar> 
46000
(
38.3429
130.422
229.682
320.95
406.799
489.594
570.364
649.4
727.15
803.949
880.058
955.666
1030.35
1104.42
1177.96
1250.97
1323.45
1395.36
1466.68
1537.35
1607.31
1676.51
1744.87
1812.33
1878.81
1944.23
2008.53
2071.61
2133.42
2193.86
2252.86
2310.36
2366.27
2420.52
2473.06
2523.81
2572.71
2619.71
2664.74
2707.77
2748.74
2787.61
2824.34
2858.91
2891.27
2921.41
2949.31
2974.95
2998.33
3019.43
3038.26
3054.82
3069.11
3081.16
3090.98
3098.59
3104.02
3107.3
3108.46
3107.55
3104.63
3099.76
3093
3084.34
3073.84
3061.53
3047.48
3031.74
3014.37
2995.44
2975.01
2953.13
2929.89
2905.34
2879.56
2852.6
2824.55
2795.47
2765.42
2734.47
2702.69
2670.15
2636.91
2603.04
2568.6
2533.65
2498.26
2462.47
2426.36
2389.97
2353.36
2316.58
2279.68
2242.72
2205.73
2168.76
2131.86
2095.06
2058.4
2021.92
1985.65
1949.63
1913.87
1878.42
1843.28
1808.5
1774.09
1740.06
1706.44
1673.24
1640.48
1608.16
1576.3
1544.9
1513.97
1483.53
1453.56
1424.08
1395.08
1366.57
1338.54
1310.99
1283.92
1257.33
1231.21
1205.55
1180.34
1155.59
1131.28
1107.4
1083.95
1060.91
1038.28
1016.05
994.197
972.724
951.617
930.864
910.456
890.382
870.631
851.192
832.057
813.213
794.653
776.365
758.34
740.569
723.044
705.754
688.693
671.852
655.222
638.798
622.571
606.535
590.683
575.01
559.509
544.175
529.002
513.987
499.122
484.405
469.831
455.395
441.095
426.937
412.914
399.014
385.231
371.562
358.003
344.548
331.194
317.937
304.771
291.691
278.691
265.767
252.909
240.112
227.365
214.66
201.997
189.367
176.746
164.118
151.461
138.754
125.967
113.067
100.009
86.7381
73.1826
59.2457
44.8004
29.7085
14.3615
3.14623
38.3873
130.496
229.746
320.982
406.811
489.598
570.365
649.401
727.151
803.95
880.059
955.667
1030.35
1104.42
1177.96
1250.97
1323.45
1395.36
1466.68
1537.35
1607.31
1676.51
1744.87
1812.33
1878.81
1944.23
2008.52
2071.61
2133.41
2193.86
2252.86
2310.35
2366.26
2420.52
2473.05
2523.8
2572.71
2619.7
2664.74
2707.76
2748.73
2787.6
2824.34
2858.9
2891.27
2921.41
2949.31
2974.95
2998.32
3019.42
3038.25
3054.81
3069.11
3081.16
3090.98
3098.59
3104.01
3107.29
3108.46
3107.55
3104.63
3099.76
3092.99
3084.34
3073.83
3061.53
3047.48
3031.74
3014.37
2995.44
2975
2953.13
2929.88
2905.34
2879.55
2852.6
2824.55
2795.46
2765.41
2734.46
2702.69
2670.15
2636.91
2603.04
2568.6
2533.65
2498.25
2462.47
2426.35
2389.96
2353.35
2316.57
2279.68
2242.71
2205.73
2168.76
2131.86
2095.06
2058.4
2021.92
1985.65
1949.62
1913.87
1878.41
1843.28
1808.5
1774.08
1740.06
1706.44
1673.24
1640.47
1608.15
1576.29
1544.9
1513.97
1483.52
1453.56
1424.07
1395.08
1366.56
1338.53
1310.99
1283.92
1257.33
1231.2
1205.54
1180.34
1155.59
1131.28
1107.4
1083.95
1060.91
1038.28
1016.04
994.195
972.722
951.615
930.862
910.454
890.38
870.629
851.19
832.055
813.212
794.651
776.363
758.338
740.568
723.042
705.753
688.691
671.85
655.221
638.796
622.569
606.533
590.682
575.008
559.507
544.174
529.001
513.985
499.121
484.404
469.83
455.394
441.093
426.936
412.913
399.013
385.23
371.561
358.002
344.547
331.193
317.936
304.77
291.69
278.691
265.766
252.909
240.111
227.365
214.66
201.997
189.367
176.746
164.118
151.461
138.754
125.967
113.066
100.009
86.7381
73.1826
59.2457
44.8004
29.7085
14.3615
3.14623
141.686
119.856
149.791
186.267
224.573
263.793
303.665
343.938
384.554
425.502
466.67
508.079
549.654
591.4
633.31
675.359
717.513
759.732
801.969
844.174
886.292
928.266
970.035
1011.54
1052.71
1093.48
1133.79
1173.57
1212.75
1251.26
1289.04
1326.02
1362.14
1397.33
1431.53
1464.69
1496.75
1527.65
1557.34
1585.77
1612.9
1638.69
1663.09
1686.09
1707.63
1727.71
1746.28
1763.35
1778.88
1792.88
1805.33
1816.23
1825.58
1833.38
1839.66
1844.41
1847.66
1849.43
1849.74
1848.62
1846.12
1842.27
1837.11
1830.66
1822.94
1814
1803.86
1792.58
1780.19
1766.75
1752.31
1736.9
1720.59
1703.42
1685.45
1666.72
1647.28
1627.19
1606.51
1585.27
1563.53
1541.33
1518.74
1495.78
1472.52
1448.99
1425.24
1401.3
1377.23
1353.06
1328.83
1304.57
1280.32
1256.12
1231.98
1207.95
1184.05
1160.31
1136.74
1113.38
1090.25
1067.36
1044.72
1022.37
1000.31
978.551
957.11
935.995
915.215
894.778
874.69
854.955
835.578
816.561
797.905
779.612
761.681
744.11
726.9
710.045
693.544
677.392
661.584
646.117
630.983
616.178
601.694
587.526
573.665
560.106
546.841
533.862
521.161
508.732
496.565
484.654
472.99
461.566
450.374
439.407
428.657
418.116
407.778
397.635
387.681
377.908
368.311
358.884
349.619
340.512
331.556
322.747
314.08
305.549
297.149
288.877
280.729
272.699
264.786
256.984
249.292
241.705
234.221
226.837
219.55
212.359
205.263
198.262
191.352
184.528
177.787
171.127
164.546
158.041
151.612
145.255
138.969
132.751
126.601
120.514
114.49
108.526
102.619
96.7671
90.9722
85.2287
79.5309
73.8735
68.251
62.6574
57.0857
51.5279
45.975
40.4171
34.8444
29.252
23.657
18.1689
13.3844
15.6078
141.615
119.849
149.793
186.268
224.572
263.789
303.661
343.933
384.549
425.497
466.664
508.073
549.646
591.392
633.302
675.35
717.504
759.722
801.959
844.163
886.281
928.254
970.022
1011.52
1052.69
1093.47
1133.77
1173.55
1212.73
1251.24
1289.02
1326
1362.12
1397.31
1431.52
1464.67
1496.73
1527.63
1557.32
1585.75
1612.88
1638.67
1663.07
1686.07
1707.61
1727.68
1746.26
1763.33
1778.86
1792.85
1805.3
1816.2
1825.55
1833.36
1839.64
1844.39
1847.64
1849.4
1849.71
1848.6
1846.09
1842.25
1837.09
1830.64
1822.92
1813.97
1803.84
1792.56
1780.17
1766.73
1752.28
1736.88
1720.57
1703.4
1685.42
1666.69
1647.26
1627.17
1606.49
1585.25
1563.51
1541.31
1518.72
1495.76
1472.5
1448.97
1425.22
1401.29
1377.22
1353.04
1328.81
1304.56
1280.31
1256.1
1231.97
1207.94
1184.04
1160.29
1136.73
1113.37
1090.23
1067.34
1044.71
1022.36
1000.3
978.538
957.098
935.983
915.204
894.767
874.679
854.945
835.568
816.55
797.895
779.602
761.671
744.101
726.891
710.036
693.535
677.384
661.576
646.109
630.975
616.17
601.687
587.518
573.658
560.1
546.834
533.855
521.155
508.726
496.559
484.648
472.985
461.561
450.369
439.402
428.652
418.111
407.773
397.63
387.676
377.904
368.307
358.88
349.615
340.508
331.553
322.744
314.076
305.545
297.146
288.874
280.726
272.696
264.783
256.982
249.289
241.702
234.218
226.834
219.548
212.357
205.261
198.26
191.35
184.526
177.785
171.125
164.544
158.04
151.61
145.253
138.967
132.75
126.599
120.513
114.489
108.525
102.618
96.7661
90.9712
85.2278
79.5301
73.8727
68.2504
62.6568
57.0851
51.5274
45.9746
40.4168
34.8441
29.2518
23.6568
18.1689
13.3844
15.6078
252.422
157.511
160.164
178.124
201.231
226.872
254.052
282.269
311.238
340.816
370.889
401.387
432.246
463.425
494.885
526.591
558.502
590.577
622.773
655.043
687.341
719.616
751.817
783.89
815.782
847.437
878.798
909.808
940.411
970.549
1000.17
1029.21
1057.61
1085.33
1112.31
1138.49
1163.84
1188.3
1211.82
1234.37
1255.9
1276.38
1295.77
1314.04
1331.17
1347.13
1361.89
1375.44
1387.77
1398.86
1408.7
1417.3
1424.65
1430.75
1435.62
1439.25
1441.67
1442.88
1442.92
1441.79
1439.54
1436.2
1431.78
1426.32
1419.83
1412.35
1403.91
1394.54
1384.29
1373.18
1361.27
1348.59
1335.19
1321.1
1306.38
1291.05
1275.17
1258.78
1241.91
1224.62
1206.95
1188.92
1170.59
1152
1133.17
1114.15
1094.98
1075.68
1056.3
1036.86
1017.4
997.942
978.516
959.148
939.864
920.688
901.641
882.743
864.015
845.474
827.136
809.016
791.127
773.482
756.091
738.965
722.112
705.538
689.251
673.255
657.554
642.152
627.05
612.25
597.752
583.556
569.662
556.067
542.769
529.765
517.051
504.625
492.482
480.616
469.023
457.698
446.634
435.827
425.27
414.956
404.88
395.035
385.415
376.012
366.821
357.835
349.048
340.452
332.042
323.811
315.754
307.863
300.133
292.559
285.134
277.853
270.712
263.704
256.824
250.069
243.434
236.913
230.504
224.202
218.003
211.904
205.901
199.992
194.172
188.441
182.794
177.229
171.745
166.338
161.007
155.751
150.568
145.457
140.417
135.443
130.535
125.691
120.909
116.187
111.526
106.922
102.375
97.8844
93.4484
89.0661
84.7363
80.4581
76.2305
72.053
67.9256
63.8473
59.816
55.83
51.8883
47.9899
44.1349
40.3242
36.5616
32.8557
29.2257
25.7157
22.4342
19.6965
18.8355
31.9954
252.393
157.504
160.161
178.12
201.227
226.868
254.048
282.264
311.233
340.811
370.883
401.381
432.24
463.419
494.879
526.584
558.495
590.57
622.765
655.036
687.333
719.608
751.808
783.881
815.773
847.427
878.788
909.798
940.401
970.539
1000.16
1029.19
1057.6
1085.32
1112.3
1138.48
1163.83
1188.28
1211.81
1234.36
1255.89
1276.37
1295.76
1314.03
1331.16
1347.11
1361.87
1375.43
1387.75
1398.84
1408.69
1417.29
1424.64
1430.74
1435.6
1439.24
1441.65
1442.87
1442.9
1441.78
1439.53
1436.18
1431.77
1426.3
1419.81
1412.33
1403.89
1394.53
1384.27
1373.17
1361.26
1348.58
1335.18
1321.09
1306.36
1291.04
1275.16
1258.77
1241.9
1224.61
1206.93
1188.91
1170.58
1151.98
1133.16
1114.14
1094.97
1075.67
1056.29
1036.85
1017.39
997.933
978.507
959.14
939.856
920.68
901.633
882.736
864.008
845.467
827.129
809.009
791.12
773.475
756.085
738.959
722.106
705.532
689.245
673.249
657.549
642.146
627.045
612.245
597.747
583.552
569.657
556.062
542.764
529.76
517.047
504.621
492.478
480.612
469.019
457.694
446.631
435.824
425.266
414.953
404.877
395.032
385.412
376.01
366.819
357.833
349.045
340.45
332.04
323.809
315.751
307.861
300.131
292.557
285.132
277.851
270.71
263.702
256.823
250.068
243.432
236.912
230.502
224.2
218.001
211.902
205.9
199.99
194.171
188.44
182.793
177.228
171.744
166.337
161.006
155.75
150.567
145.456
140.416
135.442
130.535
125.69
120.908
116.187
111.525
106.921
102.375
97.8839
93.4479
89.0656
84.7358
80.4576
76.2301
72.0526
67.9252
63.847
59.8156
55.8297
51.888
47.9897
44.1347
40.3241
36.5615
32.8556
29.2256
25.7156
22.4342
19.6965
18.8356
31.9955
356.653
200.665
183.874
190.37
204.829
223.136
243.714
265.803
288.983
313.002
337.692
362.936
388.647
414.757
441.21
467.958
494.953
522.15
549.506
576.973
604.508
632.063
659.59
687.042
714.37
741.522
768.45
795.101
821.425
847.371
872.888
897.925
922.434
946.365
969.67
992.305
1014.22
1035.38
1055.74
1075.26
1093.91
1111.65
1128.45
1144.27
1159.11
1172.92
1185.7
1197.42
1208.07
1217.65
1226.13
1233.52
1239.82
1245.03
1249.15
1252.19
1254.16
1255.08
1254.96
1253.82
1251.68
1248.58
1244.53
1239.56
1233.69
1226.94
1219.36
1210.96
1201.78
1191.86
1181.23
1169.93
1157.99
1145.46
1132.36
1118.75
1104.66
1090.11
1075.17
1059.85
1044.2
1028.25
1012.04
995.609
978.982
962.196
945.281
928.269
911.19
894.072
876.941
859.825
842.747
825.73
808.798
791.97
775.265
758.702
742.297
726.066
710.022
694.18
678.549
663.141
647.966
633.03
618.342
603.908
589.732
575.819
562.171
548.792
535.683
522.845
510.278
497.981
485.953
474.192
462.697
451.464
440.489
429.77
419.302
409.081
399.102
389.361
379.851
370.569
361.507
352.661
344.026
335.594
327.36
319.319
311.464
303.79
296.29
288.959
281.792
274.782
267.924
261.213
254.643
248.209
241.906
235.73
229.675
223.736
217.911
212.194
206.581
201.068
195.653
190.33
185.098
179.952
174.89
169.909
165.006
160.179
155.426
150.744
146.131
141.586
137.106
132.691
128.339
124.049
119.819
115.648
111.534
107.476
103.472
99.5212
95.6233
91.7771
87.9819
84.2369
80.5416
76.8955
73.2982
69.7494
66.2489
62.7971
59.3942
56.0409
52.7374
49.4843
46.2834
43.1374
40.051
37.0319
34.0931
31.2575
28.5673
26.1063
24.0625
22.9537
24.9104
48.0737
356.654
200.661
183.87
190.366
204.825
223.132
243.709
265.799
288.978
312.997
337.687
362.931
388.642
414.752
441.205
467.952
494.947
522.144
549.499
576.967
604.501
632.056
659.583
687.035
714.362
741.514
768.442
795.093
821.417
847.362
872.879
897.916
922.425
946.356
969.661
992.295
1014.21
1035.37
1055.73
1075.25
1093.9
1111.64
1128.44
1144.26
1159.1
1172.91
1185.69
1197.41
1208.06
1217.64
1226.12
1233.51
1239.81
1245.02
1249.14
1252.18
1254.15
1255.07
1254.95
1253.81
1251.67
1248.57
1244.52
1239.55
1233.68
1226.93
1219.35
1210.95
1201.77
1191.85
1181.22
1169.92
1157.98
1145.45
1132.36
1118.74
1104.65
1090.11
1075.16
1059.84
1044.19
1028.24
1012.04
995.602
978.976
962.189
945.275
928.263
911.184
894.066
876.935
859.819
842.741
825.725
808.793
791.964
775.26
758.697
742.292
726.061
710.018
694.175
678.545
663.137
647.962
633.027
618.339
603.904
589.728
575.815
562.168
548.789
535.68
522.842
510.275
497.978
485.95
474.19
462.694
451.461
440.487
429.768
419.3
409.079
399.1
389.359
379.849
370.567
361.505
352.66
344.024
335.592
327.359
319.317
311.463
303.788
296.289
288.958
281.791
274.781
267.923
261.212
254.642
248.208
241.905
235.729
229.674
223.735
217.91
212.193
206.58
201.067
195.652
190.329
185.097
179.951
174.889
169.908
165.005
160.179
155.425
150.743
146.13
141.585
137.106
132.691
128.339
124.049
119.819
115.648
111.534
107.475
103.471
99.5209
95.623
91.7768
87.9816
84.2366
80.5414
76.8953
73.298
69.7492
66.2488
62.7969
59.3941
56.0408
52.7372
49.4842
46.2833
43.1373
40.0509
37.0318
34.093
31.2575
28.5672
26.1062
24.0625
22.9538
24.9106
48.0738
456.503
245.308
211.97
209.496
217.603
230.813
247.007
265.165
284.721
305.333
326.775
348.89
371.561
394.699
418.231
442.096
466.239
490.609
515.158
539.839
564.606
589.414
614.216
638.966
663.618
688.125
712.439
736.514
760.302
783.756
806.829
829.475
851.648
873.303
894.396
914.885
934.728
953.886
972.321
989.996
1006.88
1022.94
1038.14
1052.47
1065.88
1078.38
1089.92
1100.51
1110.12
1118.74
1126.37
1133
1138.63
1143.27
1146.91
1149.56
1151.23
1151.94
1151.69
1150.51
1148.42
1145.44
1141.58
1136.88
1131.35
1125.02
1117.92
1110.07
1101.52
1092.27
1082.39
1071.88
1060.8
1049.16
1037.02
1024.4
1011.34
997.876
984.039
969.865
955.389
940.643
925.661
910.474
895.115
879.612
863.996
848.295
832.536
816.746
800.949
785.169
769.429
753.75
738.152
722.655
707.276
692.031
676.937
662.006
647.252
632.687
618.322
604.165
590.225
576.511
563.027
549.78
536.775
524.015
511.502
499.24
487.228
475.469
463.962
452.706
441.7
430.942
420.431
410.163
400.135
390.344
380.787
371.458
362.353
353.469
344.799
336.34
328.085
320.03
312.17
304.498
297.01
289.699
282.561
275.59
268.781
262.128
255.625
249.268
243.052
236.971
231.02
225.195
219.491
213.904
208.429
203.062
197.798
192.634
187.567
182.592
177.706
172.907
168.19
163.553
158.993
154.507
150.094
145.75
141.474
137.264
133.117
129.032
125.008
121.043
117.136
113.286
109.491
105.751
102.063
98.4267
94.8415
91.3063
87.8206
84.3837
80.9951
77.6546
74.362
71.1171
67.9202
64.7713
61.6712
58.6207
55.6208
52.6733
49.78
46.9437
44.1684
41.4599
38.8272
36.2836
33.8506
31.5638
29.4859
27.7371
26.5812
26.7341
31.0987
63.6108
456.51
245.305
211.966
209.492
217.598
230.809
247.003
265.16
284.717
305.329
326.771
348.885
371.556
394.694
418.226
442.091
466.234
490.603
515.152
539.833
564.6
589.408
614.21
638.96
663.612
688.118
712.432
736.507
760.295
783.749
806.822
829.468
851.64
873.295
894.388
914.877
934.72
953.878
972.312
989.988
1006.87
1022.93
1038.13
1052.46
1065.88
1078.37
1089.91
1100.5
1110.11
1118.73
1126.36
1132.99
1138.63
1143.26
1146.9
1149.55
1151.22
1151.93
1151.69
1150.51
1148.41
1145.43
1141.57
1136.87
1131.34
1125.01
1117.91
1110.07
1101.51
1092.27
1082.38
1071.87
1060.79
1049.16
1037.02
1024.4
1011.34
997.87
984.033
969.86
955.383
940.638
925.656
910.469
895.11
879.607
863.992
848.291
832.532
816.742
800.945
785.165
769.425
753.746
738.148
722.651
707.272
692.028
676.933
662.003
647.249
632.684
618.319
604.162
590.223
576.508
563.025
549.778
536.773
524.012
511.5
499.237
487.226
475.467
463.96
452.704
441.698
430.941
420.429
410.161
400.134
390.343
380.785
371.456
362.352
353.467
344.798
336.339
328.084
320.029
312.169
304.497
297.009
289.698
282.56
275.589
268.78
262.127
255.624
249.267
243.051
236.97
231.019
225.195
219.491
213.903
208.428
203.061
197.797
192.634
187.567
182.592
177.706
172.906
168.189
163.552
158.992
154.507
150.093
145.75
141.474
137.263
133.117
129.032
125.008
121.043
117.136
113.286
109.491
105.75
102.062
98.4265
94.8413
91.3061
87.8204
84.3835
80.995
77.6545
74.3619
71.117
67.92
64.7712
61.6711
58.6206
55.6207
52.6732
49.7799
46.9436
44.1683
41.4599
38.8271
36.2835
33.8506
31.5638
29.4858
27.7371
26.5812
26.7341
31.099
63.6109
553.949
290.856
242.291
231.989
234.854
244.059
256.943
272.228
289.208
307.453
326.68
346.692
367.346
388.529
410.154
432.147
454.444
476.988
499.726
522.608
545.587
568.617
591.65
614.643
637.55
660.325
682.924
705.301
727.413
749.214
770.66
791.709
812.316
832.44
852.041
871.077
889.511
907.305
924.424
940.835
956.504
971.404
985.506
998.784
1011.22
1022.78
1033.47
1043.25
1052.12
1060.07
1067.09
1073.17
1078.32
1082.53
1085.81
1088.17
1089.6
1090.13
1089.77
1088.53
1086.44
1083.5
1079.74
1075.19
1069.86
1063.78
1056.98
1049.47
1041.3
1032.49
1023.07
1013.07
1002.52
991.463
979.925
967.94
955.541
942.762
929.634
916.19
902.463
888.484
874.283
859.891
845.338
830.651
815.859
800.988
786.064
771.112
756.155
741.216
726.316
711.476
696.713
682.047
667.494
653.07
638.788
624.663
610.706
596.929
583.342
569.953
556.77
543.802
531.053
518.529
506.235
494.173
482.346
470.757
459.407
448.296
437.424
426.791
416.395
406.235
396.309
386.614
377.148
367.906
358.885
350.082
341.492
333.111
324.934
316.956
309.174
301.58
294.172
286.943
279.888
273.003
266.281
259.718
253.308
247.047
240.929
234.95
229.104
223.387
217.795
212.321
206.963
201.716
196.576
191.538
186.599
181.755
177.003
172.339
167.76
163.262
158.844
154.501
150.232
146.034
141.905
137.842
133.844
129.908
126.033
122.218
118.46
114.758
111.112
107.52
103.981
100.494
97.0575
93.6712
90.3341
87.0457
83.8055
80.6131
77.4684
74.3712
71.3219
68.3205
65.3677
62.4643
59.6113
56.8103
54.0632
51.3726
48.7419
46.1755
43.6796
41.263
38.9384
36.7245
34.6505
32.7638
31.1461
29.9528
29.5207
30.7601
37.3262
78.799
553.955
290.853
242.287
231.985
234.85
244.054
256.938
272.223
289.203
307.448
326.675
346.688
367.341
388.524
410.149
432.142
454.439
476.982
499.72
522.602
545.582
568.611
591.645
614.637
637.544
660.319
682.917
705.295
727.406
749.207
770.654
791.702
812.309
832.434
852.034
871.07
889.504
907.298
924.417
940.827
956.497
971.397
985.499
998.777
1011.21
1022.78
1033.46
1043.24
1052.11
1060.06
1067.08
1073.16
1078.31
1082.52
1085.8
1088.16
1089.6
1090.13
1089.77
1088.53
1086.43
1083.49
1079.74
1075.18
1069.86
1063.78
1056.97
1049.47
1041.29
1032.48
1023.06
1013.06
1002.52
991.458
979.92
967.935
955.537
942.757
929.629
916.186
902.459
888.479
874.279
859.887
845.334
830.647
815.855
800.984
786.061
771.109
756.152
741.213
726.313
711.473
696.71
682.044
667.491
653.067
638.786
624.66
610.704
596.927
583.339
569.95
556.768
543.8
531.051
518.527
506.233
494.171
482.344
470.755
459.405
448.294
437.423
426.789
416.394
406.234
396.308
386.613
377.146
367.904
358.884
350.081
341.491
333.11
324.933
316.955
309.173
301.58
294.171
286.942
279.887
273.002
266.28
259.717
253.307
247.046
240.929
234.949
229.104
223.387
217.794
212.321
206.963
201.716
196.575
191.537
186.599
181.755
177.002
172.338
167.759
163.262
158.843
154.501
150.232
146.034
141.905
137.842
133.844
129.908
126.033
122.217
118.46
114.758
111.112
107.52
103.981
100.494
97.0573
93.671
90.334
87.0456
83.8054
80.613
77.4683
74.3712
71.3218
68.3204
65.3676
62.4642
59.6113
56.8103
54.0632
51.3725
48.7418
46.1754
43.6796
41.263
38.9383
36.7244
34.6505
32.7637
31.1461
29.9528
29.5207
30.7602
37.3265
78.7993
649.476
337.117
274.062
256.559
254.819
260.643
270.833
283.852
298.853
315.322
332.92
351.411
370.625
390.43
410.72
431.411
452.43
473.712
495.201
516.841
538.584
560.381
582.185
603.952
625.636
647.193
668.581
689.754
710.671
731.289
751.566
771.461
790.932
809.942
828.45
846.419
863.812
880.596
896.736
912.201
926.96
940.987
954.255
966.739
978.42
989.277
999.293
1008.45
1016.75
1024.17
1030.7
1036.35
1041.11
1044.98
1047.96
1050.06
1051.29
1051.66
1051.18
1049.86
1047.73
1044.79
1041.08
1036.61
1031.39
1025.47
1018.85
1011.57
1003.64
995.114
986.004
976.344
966.164
955.495
944.368
932.815
920.868
908.557
895.914
882.969
869.754
856.298
842.63
828.78
814.775
800.643
786.41
772.102
757.743
743.357
728.965
714.591
700.254
685.974
671.768
657.655
643.649
629.767
616.021
602.425
588.99
575.727
562.646
549.755
537.062
524.574
512.297
500.236
488.395
476.777
465.385
454.221
443.286
432.581
422.106
411.861
401.844
392.053
382.488
373.145
364.021
355.114
346.421
337.936
329.657
321.579
313.698
306.01
298.509
291.191
284.052
277.085
270.287
263.652
257.176
250.853
244.678
238.647
232.755
226.996
221.367
215.863
210.479
205.211
200.054
195.005
190.06
185.214
180.464
175.807
171.238
166.756
162.356
158.035
153.791
149.622
145.524
141.495
137.533
133.636
129.802
126.028
122.315
118.659
115.06
111.516
108.026
104.589
101.204
97.8698
94.586
91.3516
88.1662
85.0291
81.9401
78.8991
75.9062
72.9614
70.0654
67.2186
64.4221
61.6771
58.9852
56.3485
53.7698
51.2527
48.8017
46.4231
44.1249
41.9188
39.8208
37.8549
36.0575
34.487
33.2439
32.5173
32.7164
34.9443
43.5967
93.7872
649.48
337.112
274.058
256.554
254.814
260.639
270.829
283.848
298.849
315.317
332.915
351.407
370.621
390.425
410.715
431.406
452.425
473.707
495.195
516.836
538.578
560.375
582.18
603.946
625.63
647.188
668.575
689.748
710.665
731.283
751.56
771.454
790.926
809.935
828.443
846.412
863.806
880.589
896.729
912.194
926.954
940.981
954.248
966.733
978.413
989.27
999.287
1008.45
1016.74
1024.16
1030.7
1036.34
1041.1
1044.97
1047.95
1050.05
1051.28
1051.65
1051.17
1049.86
1047.72
1044.79
1041.08
1036.6
1031.39
1025.46
1018.84
1011.56
1003.64
995.11
985.999
976.339
966.159
955.49
944.364
932.811
920.864
908.553
895.91
882.966
869.75
856.294
842.627
828.777
814.772
800.64
786.407
772.099
757.74
743.354
728.963
714.588
700.252
685.971
671.766
657.652
643.647
629.764
616.019
602.423
588.988
575.725
562.644
549.753
537.061
524.573
512.296
500.234
488.393
476.775
465.383
454.219
443.285
432.58
422.105
411.86
401.843
392.052
382.487
373.144
364.02
355.113
346.42
337.935
329.656
321.578
313.697
306.009
298.508
291.19
284.051
277.084
270.286
263.651
257.175
250.852
244.677
238.646
232.754
226.996
221.367
215.862
210.478
205.21
200.054
195.005
190.059
185.214
180.464
175.807
171.238
166.755
162.355
158.035
153.791
149.621
145.523
141.494
137.533
133.635
129.801
126.028
122.315
118.659
115.06
111.516
108.026
104.589
101.204
97.8696
94.5859
91.3515
88.166
85.029
81.94
78.899
75.9061
72.9613
70.0653
67.2185
64.422
61.677
58.9851
56.3484
53.7698
51.2526
48.8017
46.423
44.1249
41.9187
39.8208
37.8549
36.0574
34.487
33.2439
32.5173
32.7164
34.9444
43.5971
93.7876
743.494
383.987
306.954
282.645
276.698
279.54
287.428
298.567
311.97
327.036
343.375
360.713
378.85
397.636
416.951
436.696
456.791
477.163
497.75
518.494
539.342
560.244
581.152
602.021
622.805
643.461
663.946
684.218
704.235
723.956
743.342
762.353
780.95
799.095
816.753
833.886
850.462
866.446
881.808
896.518
910.547
923.87
936.461
948.299
959.363
969.636
979.101
987.745
995.557
1002.53
1008.65
1013.92
1018.34
1021.91
1024.62
1026.49
1027.53
1027.74
1027.13
1025.72
1023.53
1020.57
1016.85
1012.41
1007.26
1001.43
994.925
987.786
980.034
971.697
962.803
953.38
943.457
933.064
922.231
910.987
899.363
887.388
875.093
862.508
849.66
836.58
823.296
809.834
796.222
782.487
768.653
754.745
740.786
726.801
712.809
698.832
684.89
671.002
657.184
643.453
629.826
616.316
602.937
589.702
576.621
563.706
550.965
538.407
526.04
513.87
501.903
490.144
478.598
467.267
456.154
445.262
434.592
424.143
413.918
403.914
394.131
384.569
375.224
366.095
357.179
348.473
339.975
331.679
323.584
315.684
307.975
300.454
293.116
285.956
278.97
272.152
265.499
259.005
252.666
246.476
240.432
234.528
228.76
223.123
217.613
212.224
206.954
201.798
196.751
191.81
186.97
182.229
177.582
173.026
168.557
164.173
159.871
155.647
151.499
147.424
143.42
139.484
135.615
131.81
128.067
124.385
120.762
117.197
113.688
110.233
106.833
103.485
100.189
96.944
93.7495
90.6047
87.5092
84.4626
81.4648
78.5158
75.616
72.7658
69.9658
67.2171
64.5209
61.879
59.2935
56.7672
54.3035
51.9069
49.5833
47.3403
45.188
43.1406
41.2176
39.4477
37.8744
36.5669
35.6437
35.3278
36.1007
39.2583
49.9311
108.686
743.497
383.982
306.949
282.64
276.694
279.536
287.424
298.563
311.965
327.032
343.371
360.708
378.846
397.632
416.946
436.692
456.786
477.158
497.745
518.489
539.337
560.239
581.147
602.015
622.799
643.455
663.94
684.212
704.229
723.951
743.337
762.347
780.944
799.09
816.747
833.88
850.456
866.44
881.802
896.512
910.541
923.864
936.455
948.293
959.358
969.63
979.095
987.74
995.551
1002.52
1008.65
1013.92
1018.33
1021.9
1024.62
1026.49
1027.52
1027.73
1027.12
1025.72
1023.52
1020.56
1016.85
1012.41
1007.26
1001.42
994.921
987.781
980.03
971.693
962.799
953.376
943.453
933.06
922.227
910.983
899.359
887.385
875.09
862.504
849.657
836.577
823.292
809.831
796.219
782.484
768.65
754.742
740.784
726.798
712.807
698.83
684.888
670.999
657.181
643.451
629.824
616.314
602.935
589.7
576.619
563.704
550.963
538.405
526.038
513.868
501.901
490.143
478.596
467.266
456.153
445.261
434.59
424.142
413.916
403.913
394.13
384.568
375.223
366.094
357.178
348.472
339.974
331.678
323.583
315.683
307.975
300.454
293.115
285.955
278.969
272.152
265.498
259.004
252.665
246.476
240.431
234.528
228.759
223.122
217.612
212.224
206.954
201.797
196.751
191.809
186.97
182.228
177.581
173.025
168.557
164.173
159.871
155.647
151.499
147.424
143.42
139.484
135.615
131.81
128.067
124.385
120.762
117.197
113.687
110.233
106.832
103.485
100.189
96.9439
93.7494
90.6046
87.509
84.4624
81.4647
78.5157
75.6159
72.7657
69.9657
67.217
64.5209
61.879
59.2935
56.7671
54.3034
51.9069
49.5832
47.3402
45.188
43.1406
41.2176
39.4477
37.8744
36.5668
35.6437
35.3277
36.1007
39.2584
49.9316
108.687
836.588
431.563
340.827
309.981
300.094
300.222
306.075
315.598
327.662
341.583
356.916
373.348
390.656
408.667
427.247
446.287
465.694
485.391
505.309
525.386
545.566
565.797
586.029
606.216
626.312
646.274
666.06
685.628
704.937
723.949
742.624
760.925
778.815
796.258
813.22
829.665
845.563
860.882
875.593
889.667
903.078
915.801
927.814
939.096
949.628
959.392
968.375
976.563
983.947
990.518
996.271
1001.2
1005.31
1008.59
1011.06
1012.71
1013.55
1013.59
1012.85
1011.34
1009.07
1006.05
1002.32
997.875
992.749
986.96
980.53
973.484
965.847
957.644
948.903
939.65
929.914
919.724
909.106
898.092
886.708
874.985
862.951
850.634
838.062
825.264
812.266
799.094
785.776
772.335
758.797
745.186
731.523
717.832
704.133
690.446
676.791
663.185
649.645
636.189
622.83
609.584
596.462
583.478
570.643
557.966
545.456
533.124
520.975
509.016
497.254
485.692
474.336
463.189
452.254
441.532
431.025
420.734
410.659
400.8
391.156
381.726
372.508
363.501
354.701
346.107
337.714
329.521
321.522
313.715
306.096
298.659
291.402
284.32
277.408
270.662
264.077
257.648
251.372
245.243
239.257
233.41
227.696
222.112
216.652
211.314
206.092
200.982
195.981
191.085
186.29
181.591
176.987
172.473
168.047
163.704
159.443
155.259
151.152
147.118
143.154
139.259
135.43
131.666
127.964
124.323
120.742
117.218
113.751
110.339
106.981
103.676
100.424
97.2237
94.0744
90.9756
87.927
84.9285
81.98
79.0818
76.2343
73.4382
70.6945
68.0045
65.3699
62.7927
60.2756
57.822
55.4361
53.1234
50.8907
48.7471
46.7048
44.7802
42.9963
41.3863
40.0006
38.9192
38.2786
38.3357
39.645
43.6962
56.3535
123.584
836.59
431.557
340.822
309.977
300.09
300.218
306.071
315.594
327.658
341.579
356.911
373.344
390.651
408.663
427.243
446.282
465.689
485.386
505.304
525.381
545.561
565.792
586.024
606.211
626.307
646.269
666.054
685.622
704.932
723.943
742.619
760.92
778.81
796.253
813.214
829.66
845.558
860.877
875.588
889.662
903.073
915.796
927.809
939.091
949.622
959.387
968.37
976.558
983.942
990.513
996.266
1001.2
1005.3
1008.59
1011.05
1012.7
1013.54
1013.59
1012.85
1011.33
1009.06
1006.05
1002.31
997.871
992.745
986.955
980.526
973.48
965.843
957.64
948.899
939.647
929.911
919.72
909.103
898.088
886.705
874.982
862.948
850.631
838.059
825.261
812.263
799.091
785.773
772.332
758.795
745.183
731.521
717.83
704.131
690.444
676.789
663.183
649.643
636.187
622.828
609.582
596.461
583.476
570.641
557.964
545.455
533.122
520.973
509.015
497.252
485.691
474.335
463.188
452.252
441.53
431.023
420.732
410.658
400.799
391.155
381.725
372.507
363.5
354.7
346.106
337.714
329.52
321.521
313.714
306.095
298.659
291.402
284.319
277.407
270.661
264.076
257.648
251.372
245.243
239.257
233.409
227.696
222.111
216.652
211.313
206.091
200.982
195.981
191.085
186.289
181.591
176.987
172.473
168.046
163.704
159.442
155.259
151.152
147.117
143.154
139.259
135.43
131.666
127.964
124.323
120.742
117.218
113.75
110.338
106.981
103.676
100.424
97.2236
94.0743
90.9755
87.9269
84.9284
81.9799
79.0817
76.2342
73.4381
70.6945
68.0045
65.3698
62.7926
60.2755
57.822
55.4361
53.1233
50.8906
48.7471
46.7048
44.7801
42.9962
41.3862
40.0005
38.9191
38.2786
38.3357
39.645
43.6963
56.3541
123.584
929.238
479.924
375.666
338.45
324.801
322.401
326.41
334.506
345.419
358.38
372.888
388.595
405.25
422.661
440.679
459.182
478.07
497.258
516.671
536.242
555.914
575.629
595.338
614.993
634.548
653.959
673.184
692.183
710.916
729.345
747.432
765.141
782.437
799.286
815.654
831.511
846.824
861.566
875.708
889.224
902.089
914.281
925.777
936.56
946.611
955.914
964.457
972.227
979.216
985.415
990.821
995.429
999.239
1002.25
1004.47
1005.9
1006.55
1006.43
1005.54
1003.91
1001.54
998.461
994.677
990.21
985.081
979.309
972.917
965.929
958.367
950.258
941.626
932.499
922.902
912.864
902.411
891.572
880.373
868.844
857.011
844.903
832.545
819.964
807.188
794.241
781.149
767.935
754.625
741.24
727.803
714.335
700.856
687.387
673.945
660.549
647.214
633.957
620.793
607.736
594.797
581.99
569.325
556.812
544.46
532.278
520.274
508.453
496.822
485.385
474.147
463.111
452.281
441.658
431.245
421.041