/*--------------------------------*- C++ -*----------------------------------*\
  =========                 |
  \\      /  F ield         | OpenFOAM: The Open Source CFD Toolbox
   \\    /   O peration     | Website:  https://openfoam.org
    \\  /    A nd           | Version:  8
     \\/     M anipulation  |
\*---------------------------------------------------------------------------*/
FoamFile
{
    version     2.0;
    format      ascii;
    class       volScalarField;
    location    "4300";
    object      k;
}
// * * * * * * * * * * * * * * * * * * * * * * * * * * * * * * * * * * * * * //

dimensions      [0 2 -2 0 0 0 0];

internalField   nonuniform List<scalar> 
46000
(
0.0304795
0.108887
0.191774
0.267973
0.339645
0.408768
0.476201
0.542187
0.607099
0.671218
0.734759
0.797883
0.860237
0.922076
0.983468
1.04442
1.10493
1.16498
1.22452
1.28352
1.34193
1.3997
1.45677
1.51309
1.56859
1.62321
1.67689
1.72956
1.78116
1.83162
1.88088
1.92888
1.97556
2.02086
2.06472
2.10709
2.14791
2.18715
2.22475
2.26067
2.29488
2.32733
2.358
2.38685
2.41387
2.43904
2.46233
2.48374
2.50326
2.52088
2.5366
2.55042
2.56236
2.57242
2.58062
2.58697
2.59151
2.59425
2.59522
2.59446
2.59203
2.58796
2.58232
2.57509
2.56633
2.55606
2.54433
2.53119
2.51669
2.50089
2.48383
2.46557
2.44617
2.42568
2.40415
2.38165
2.35824
2.33396
2.30887
2.28304
2.25651
2.22934
2.2016
2.17332
2.14457
2.11539
2.08584
2.05597
2.02582
1.99544
1.96488
1.93418
1.90337
1.87252
1.84164
1.81077
1.77997
1.74924
1.71864
1.68818
1.65791
1.62783
1.59798
1.56838
1.53905
1.51001
1.48128
1.45287
1.4248
1.39708
1.36973
1.34275
1.31614
1.28993
1.26411
1.23869
1.21367
1.18906
1.16485
1.14104
1.11764
1.09464
1.07204
1.04984
1.02802
1.0066
0.985557
0.96489
0.944591
0.924655
0.905074
0.885839
0.866944
0.848379
0.830136
0.812208
0.794584
0.777257
0.760217
0.743455
0.726964
0.710734
0.694756
0.679023
0.663525
0.648256
0.633206
0.618368
0.603734
0.589298
0.575053
0.560991
0.547106
0.533392
0.519843
0.506453
0.493218
0.480131
0.467188
0.454385
0.441716
0.429179
0.416768
0.404479
0.39231
0.380257
0.368316
0.356495
0.344786
0.33318
0.321672
0.310258
0.298936
0.287702
0.276552
0.265482
0.254489
0.243567
0.232713
0.221921
0.211185
0.2005
0.189856
0.179247
0.168674
0.158128
0.14759
0.137045
0.126476
0.115865
0.105188
0.0944158
0.0835121
0.0724308
0.0611114
0.0494736
0.0374112
0.0248086
0.0119932
0.00249563
0.0305031
0.108928
0.191808
0.267992
0.339653
0.408771
0.476203
0.542189
0.6071
0.671219
0.73476
0.797884
0.860237
0.922077
0.983468
1.04442
1.10493
1.16498
1.22452
1.28352
1.34193
1.3997
1.45677
1.51309
1.56859
1.62321
1.67689
1.72956
1.78116
1.83162
1.88088
1.92888
1.97556
2.02085
2.06471
2.10708
2.14791
2.18715
2.22475
2.26067
2.29487
2.32732
2.35799
2.38685
2.41387
2.43904
2.46233
2.48374
2.50325
2.52087
2.53659
2.55042
2.56235
2.57242
2.58061
2.58697
2.5915
2.59424
2.59522
2.59446
2.59202
2.58796
2.58231
2.57509
2.56632
2.55605
2.54432
2.53119
2.51669
2.50088
2.48383
2.46557
2.44616
2.42567
2.40415
2.38165
2.35823
2.33395
2.30887
2.28303
2.2565
2.22934
2.20159
2.17332
2.14457
2.11539
2.08584
2.05597
2.02582
1.99544
1.96488
1.93417
1.90337
1.87251
1.84163
1.81077
1.77996
1.74924
1.71864
1.68818
1.6579
1.62782
1.59797
1.56837
1.53904
1.51
1.48127
1.45287
1.4248
1.39708
1.36972
1.34274
1.31614
1.28993
1.26411
1.23869
1.21367
1.18905
1.16484
1.14104
1.11764
1.09464
1.07204
1.04983
1.02802
1.0066
0.985555
0.964888
0.944589
0.924653
0.905072
0.885837
0.866942
0.848377
0.830135
0.812206
0.794582
0.777255
0.760215
0.743454
0.726962
0.710732
0.694755
0.679021
0.663524
0.648254
0.633204
0.618366
0.603733
0.589297
0.575051
0.560989
0.547104
0.533391
0.519842
0.506452
0.493217
0.48013
0.467187
0.454384
0.441715
0.429178
0.416767
0.404478
0.392309
0.380256
0.368315
0.356494
0.344785
0.333179
0.321671
0.310258
0.298936
0.287702
0.276552
0.265482
0.254488
0.243567
0.232713
0.221921
0.211185
0.200499
0.189856
0.179247
0.168674
0.158128
0.147589
0.137044
0.126476
0.115865
0.105188
0.0944157
0.083512
0.0724307
0.0611114
0.0494736
0.0374112
0.0248087
0.0119932
0.00249563
0.108671
0.287093
0.414923
0.523349
0.621492
0.713042
0.799777
0.883004
0.963572
1.04206
1.1187
1.19385
1.26768
1.34034
1.41195
1.48257
1.55227
1.62104
1.68891
1.75585
1.82185
1.88689
1.95091
2.0139
2.07578
2.13653
2.19608
2.25438
2.31137
2.36701
2.42123
2.47398
2.5252
2.57484
2.62285
2.66919
2.71379
2.75662
2.79764
2.8368
2.87407
2.90942
2.94282
2.97424
3.00366
3.03106
3.05644
3.07977
3.10105
3.12027
3.13745
3.15258
3.16567
3.17674
3.1858
3.19287
3.19797
3.20113
3.20239
3.20178
3.19933
3.19511
3.18915
3.18147
3.17211
3.16113
3.14856
3.13446
3.11888
3.10187
3.08349
3.06379
3.04284
3.02069
2.99739
2.97302
2.94762
2.92126
2.894
2.86589
2.837
2.80738
2.77709
2.74618
2.71472
2.68276
2.65035
2.61754
2.58439
2.55094
2.51724
2.48334
2.44928
2.41512
2.38088
2.34661
2.31235
2.27813
2.24399
2.20997
2.17608
2.14237
2.10885
2.07556
2.04252
2.00975
1.97727
1.94509
1.91325
1.88174
1.85059
1.8198
1.78939
1.75936
1.72973
1.70049
1.67166
1.64324
1.61523
1.58762
1.56043
1.53365
1.50728
1.48131
1.45574
1.43057
1.40579
1.38139
1.35738
1.33374
1.31046
1.28754
1.26497
1.24274
1.22083
1.19925
1.17798
1.15701
1.13634
1.11594
1.09582
1.07596
1.05635
1.03699
1.01785
0.998942
0.980245
0.961752
0.943454
0.925342
0.907407
0.88964
0.872034
0.85458
0.83727
0.820097
0.803053
0.786132
0.769325
0.752627
0.73603
0.719528
0.703116
0.686785
0.670531
0.654346
0.638225
0.622162
0.606155
0.590194
0.574271
0.558379
0.542511
0.526658
0.510812
0.494964
0.479103
0.463218
0.447299
0.43133
0.415296
0.399181
0.382964
0.366622
0.350127
0.333456
0.316572
0.299432
0.281984
0.264165
0.245897
0.227079
0.207583
0.187231
0.16578
0.142867
0.117914
0.0898723
0.0560601
0.0118919
0.108636
0.287075
0.41492
0.52335
0.621493
0.713043
0.799778
0.883004
0.963571
1.04206
1.1187
1.19385
1.26768
1.34034
1.41194
1.48257
1.55226
1.62104
1.6889
1.75585
1.82185
1.88688
1.95091
2.01389
2.07578
2.13652
2.19607
2.25437
2.31137
2.367
2.42122
2.47397
2.52519
2.57484
2.62285
2.66918
2.71378
2.75662
2.79763
2.83679
2.87407
2.90942
2.94281
2.97423
3.00366
3.03106
3.05643
3.07976
3.10104
3.12027
3.13744
3.15257
3.16567
3.17673
3.18579
3.19286
3.19796
3.20113
3.20238
3.20177
3.19933
3.1951
3.18914
3.18146
3.17211
3.16112
3.14855
3.13445
3.11887
3.10186
3.08348
3.06379
3.04283
3.02068
2.99739
2.97301
2.94761
2.92125
2.89399
2.86588
2.83699
2.80737
2.77708
2.74618
2.71472
2.68276
2.65034
2.61753
2.58438
2.55093
2.51723
2.48333
2.44928
2.41511
2.38087
2.3466
2.31234
2.27813
2.24399
2.20996
2.17608
2.14236
2.10885
2.07556
2.04252
2.00974
1.97726
1.94509
1.91324
1.88173
1.85058
1.81979
1.78938
1.75936
1.72972
1.70049
1.67166
1.64324
1.61522
1.58762
1.56043
1.53365
1.50727
1.4813
1.45573
1.43056
1.40578
1.38139
1.35738
1.33374
1.31046
1.28754
1.26497
1.24273
1.22083
1.19925
1.17798
1.15701
1.13633
1.11594
1.09582
1.07596
1.05635
1.03698
1.01785
0.998939
0.980242
0.961749
0.943451
0.925339
0.907404
0.889638
0.872031
0.854577
0.837268
0.820095
0.803051
0.786129
0.769323
0.752625
0.736028
0.719526
0.703113
0.686783
0.670529
0.654344
0.638223
0.62216
0.606153
0.590192
0.574269
0.558378
0.542509
0.526657
0.510811
0.494962
0.479101
0.463217
0.447297
0.431328
0.415295
0.39918
0.382963
0.366621
0.350126
0.333455
0.316571
0.299431
0.281983
0.264164
0.245896
0.227079
0.207582
0.187231
0.16578
0.142866
0.117914
0.0898723
0.0560601
0.0118919
0.194441
0.418652
0.569345
0.694425
0.807269
0.912359
1.01199
1.10753
1.1998
1.28944
1.37688
1.46243
1.54631
1.62871
1.70974
1.78949
1.86802
1.94536
2.02153
2.09653
2.17034
2.24295
2.31431
2.3844
2.45318
2.52059
2.58658
2.65111
2.71413
2.77557
2.83538
2.89351
2.94991
3.00451
3.05728
3.10817
3.15712
3.20409
3.24904
3.29193
3.33274
3.37141
3.40793
3.44228
3.47443
3.50436
3.53206
3.55752
3.58073
3.6017
3.62043
3.63692
3.65118
3.66324
3.67309
3.68078
3.68631
3.68974
3.69107
3.69036
3.68765
3.68297
3.67638
3.66791
3.6576
3.64551
3.63168
3.61617
3.59903
3.58032
3.56011
3.53844
3.51538
3.491
3.46536
3.43851
3.41053
3.38147
3.35141
3.3204
3.2885
3.25579
3.22232
3.18815
3.15335
3.11796
3.08206
3.0457
3.00893
2.9718
2.93438
2.89671
2.85883
2.82081
2.78268
2.74448
2.70627
2.66808
2.62995
2.59191
2.554
2.51626
2.47871
2.44138
2.4043
2.3675
2.33099
2.2948
2.25895
2.22346
2.18833
2.15359
2.11925
2.08532
2.0518
2.01871
1.98605
1.95383
1.92205
1.89071
1.85981
1.82935
1.79933
1.76976
1.74061
1.7119
1.68361
1.65575
1.62829
1.60124
1.57459
1.54833
1.52244
1.49693
1.47177
1.44697
1.4225
1.39837
1.37455
1.35104
1.32782
1.30489
1.28224
1.25984
1.2377
1.2158
1.19412
1.17267
1.15143
1.13038
1.10952
1.08884
1.06833
1.04798
1.02777
1.00771
0.987784
0.96798
0.94829
0.928708
0.909226
0.889835
0.870529
0.851299
0.832138
0.813038
0.793992
0.774992
0.756033
0.737106
0.718202
0.699311
0.680425
0.661532
0.642623
0.623687
0.60471
0.58568
0.566581
0.547397
0.52811
0.508698
0.489137
0.469401
0.449456
0.429268
0.408796
0.387989
0.366785
0.345109
0.322869
0.299948
0.276195
0.251409
0.225306
0.197465
0.167174
0.132933
0.090069
0.0245075
0.194425
0.418642
0.569341
0.694423
0.807268
0.912358
1.01199
1.10753
1.19979
1.28944
1.37687
1.46242
1.54631
1.62871
1.70973
1.78949
1.86802
1.94536
2.02153
2.09653
2.17034
2.24294
2.31431
2.3844
2.45317
2.52058
2.58658
2.65111
2.71412
2.77556
2.83537
2.8935
2.9499
3.00451
3.05728
3.10816
3.15711
3.20408
3.24903
3.29193
3.33273
3.37141
3.40793
3.44227
3.47442
3.50435
3.53205
3.55751
3.58073
3.6017
3.62042
3.63691
3.65118
3.66323
3.67309
3.68077
3.68631
3.68973
3.69106
3.69035
3.68764
3.68296
3.67637
3.6679
3.6576
3.6455
3.63167
3.61616
3.59902
3.58032
3.5601
3.53843
3.51538
3.49099
3.46535
3.4385
3.41052
3.38147
3.3514
3.32039
3.2885
3.25579
3.22231
3.18815
3.15334
3.11796
3.08206
3.04569
3.00892
2.9718
2.93437
2.8967
2.85883
2.8208
2.78267
2.74448
2.70627
2.66807
2.62994
2.5919
2.554
2.51625
2.4787
2.44137
2.4043
2.36749
2.33098
2.2948
2.25895
2.22345
2.18833
2.15359
2.11925
2.08531
2.0518
2.01871
1.98605
1.95383
1.92204
1.8907
1.8598
1.82935
1.79933
1.76975
1.74061
1.7119
1.68361
1.65574
1.62829
1.60124
1.57459
1.54832
1.52244
1.49692
1.47177
1.44696
1.4225
1.39836
1.37455
1.35104
1.32782
1.30489
1.28223
1.25984
1.2377
1.21579
1.19412
1.17267
1.15142
1.13038
1.10952
1.08884
1.06833
1.04797
1.02777
1.00771
0.987782
0.967977
0.948288
0.928706
0.909223
0.889833
0.870526
0.851296
0.832135
0.813036
0.79399
0.77499
0.756031
0.737104
0.7182
0.699309
0.680423
0.66153
0.642622
0.623685
0.604708
0.585678
0.56658
0.547396
0.528109
0.508697
0.489136
0.469399
0.449455
0.429267
0.408795
0.387988
0.366784
0.345108
0.322868
0.299948
0.276195
0.251408
0.225305
0.197464
0.167174
0.132933
0.0900691
0.0245075
0.275377
0.533154
0.700869
0.837722
0.960618
1.07507
1.18375
1.28814
1.38913
1.48734
1.58319
1.67698
1.76895
1.85925
1.94801
2.03532
2.12123
2.20577
2.28896
2.37081
2.45129
2.53039
2.60807
2.6843
2.75904
2.83224
2.90385
2.97381
3.04208
3.1086
3.17332
3.23617
3.2971
3.35608
3.41303
3.46791
3.52068
3.57129
3.6197
3.66586
3.70976
3.75134
3.7906
3.82749
3.862
3.89412
3.92382
3.95111
3.97598
3.99842
4.01845
4.03606
4.05128
4.06411
4.07458
4.08271
4.08852
4.09206
4.09335
4.09243
4.08935
4.08415
4.07688
4.06758
4.0563
4.04309
4.02801
4.01111
3.99246
3.9721
3.95012
3.92656
3.9015
3.875
3.84713
3.81795
3.78754
3.75595
3.72327
3.68956
3.65487
3.61929
3.58288
3.5457
3.50781
3.46929
3.43019
3.39057
3.3505
3.31003
3.26922
3.22813
3.1868
3.14529
3.10365
3.06192
3.02016
2.97841
2.93671
2.89509
2.8536
2.81227
2.77114
2.73024
2.68959
2.64923
2.60918
2.56946
2.5301
2.49111
2.45252
2.41434
2.37657
2.33925
2.30236
2.26594
2.22997
2.19447
2.15945
2.12489
2.09082
2.05722
2.02409
1.99144
1.95926
1.92754
1.89628
1.86548
1.83512
1.8052
1.77571
1.74664
1.71798
1.68973
1.66186
1.63437
1.60726
1.5805
1.55408
1.528
1.50224
1.47679
1.45163
1.42676
1.40216
1.37782
1.35373
1.32988
1.30625
1.28284
1.25963
1.23661
1.21378
1.19111
1.1686
1.14625
1.12403
1.10195
1.07999
1.05814
1.03639
1.01474
0.993181
0.971696
0.950281
0.928928
0.907627
0.886371
0.865152
0.84396
0.822787
0.801621
0.780452
0.759269
0.738061
0.716815
0.695517
0.674153
0.652707
0.631161
0.609494
0.587684
0.565707
0.543532
0.521126
0.49845
0.475462
0.452108
0.428324
0.404031
0.379135
0.353514
0.327011
0.299416
0.270428
0.239574
0.205997
0.16773
0.118449
0.036941
0.275376
0.533152
0.700867
0.83772
0.960617
1.07507
1.18375
1.28814
1.38913
1.48734
1.58318
1.67698
1.76894
1.85925
1.94801
2.03532
2.12122
2.20577
2.28896
2.3708
2.45129
2.53038
2.60807
2.6843
2.75904
2.83224
2.90384
2.97381
3.04208
3.1086
3.17331
3.23616
3.2971
3.35607
3.41302
3.4679
3.52067
3.57128
3.61969
3.66586
3.70975
3.75134
3.79059
3.82748
3.86199
3.89411
3.92382
3.95111
3.97597
3.99842
4.01844
4.03606
4.05127
4.0641
4.07457
4.0827
4.08851
4.09205
4.09334
4.09242
4.08934
4.08414
4.07687
4.06757
4.05629
4.04309
4.028
4.01111
3.99245
3.9721
3.95011
3.92655
3.90149
3.87499
3.84712
3.81794
3.78753
3.75595
3.72327
3.68955
3.65487
3.61929
3.58287
3.54569
3.50781
3.46928
3.43018
3.39057
3.3505
3.31003
3.26922
3.22812
3.18679
3.14528
3.10364
3.06192
3.02016
2.97841
2.9367
2.89508
2.85359
2.81227
2.77114
2.73023
2.68959
2.64923
2.60917
2.56946
2.5301
2.49111
2.45252
2.41433
2.37657
2.33924
2.30236
2.26593
2.22997
2.19447
2.15944
2.12489
2.09081
2.05721
2.02409
1.99144
1.95925
1.92754
1.89628
1.86547
1.83511
1.80519
1.7757
1.74663
1.71798
1.68972
1.66186
1.63437
1.60725
1.58049
1.55408
1.528
1.50223
1.47678
1.45163
1.42676
1.40216
1.37782
1.35373
1.32988
1.30625
1.28284
1.25963
1.23661
1.21377
1.19111
1.1686
1.14624
1.12403
1.10195
1.07998
1.05814
1.03639
1.01474
0.993179
0.971694
0.950279
0.928926
0.907625
0.886369
0.86515
0.843958
0.822785
0.801619
0.78045
0.759267
0.738059
0.716813
0.695516
0.674152
0.652706
0.631159
0.609493
0.587683
0.565705
0.54353
0.521125
0.498449
0.475461
0.452107
0.428323
0.404031
0.379134
0.353513
0.327011
0.299416
0.270428
0.239574
0.205997
0.167731
0.118449
0.0369411
0.352998
0.638515
0.821479
0.968627
1.09976
1.22173
1.33764
1.44913
1.55715
1.66233
1.76508
1.86569
1.96439
2.06133
2.15661
2.25031
2.34249
2.43316
2.52235
2.61005
2.69624
2.7809
2.864
2.94549
3.02534
3.1035
3.17991
3.25453
3.32729
3.39815
3.46704
3.53392
3.59872
3.6614
3.7219
3.78017
3.83617
3.88985
3.94117
3.99009
4.03657
4.08059
4.12212
4.16113
4.19759
4.23151
4.26286
4.29163
4.31783
4.34146
4.36251
4.38099
4.39693
4.41034
4.42124
4.42965
4.43561
4.43914
4.44029
4.43909
4.4356
4.42985
4.4219
4.41179
4.39958
4.38531
4.36906
4.35087
4.33081
4.30894
4.28534
4.26006
4.23318
4.20477
4.17489
4.14362
4.11102
4.07718
4.04215
4.00602
3.96885
3.93072
3.89169
3.85184
3.81122
3.76992
3.72798
3.68549
3.64251
3.59908
3.55529
3.51117
3.4668
3.42223
3.3775
3.33267
3.2878
3.24291
3.19807
3.15332
3.10869
3.06422
3.01995
2.97591
2.93214
2.88867
2.84552
2.80271
2.76028
2.71824
2.67662
2.63542
2.59467
2.55438
2.51457
2.47523
2.43638
2.39802
2.36017
2.32282
2.28597
2.24964
2.2138
2.17848
2.14365
2.10931
2.07547
2.04211
2.00923
1.97682
1.94487
1.91336
1.8823
1.85167
1.82145
1.79164
1.76223
1.7332
1.70454
1.67623
1.64827
1.62064
1.59333
1.56633
1.53961
1.51318
1.48701
1.4611
1.43543
1.40999
1.38476
1.35974
1.33492
1.31028
1.28581
1.2615
1.23734
1.21332
1.18943
1.16566
1.142
1.11844
1.09497
1.07159
1.04828
1.02503
1.00184
0.978694
0.955585
0.932504
0.909439
0.886382
0.863319
0.84024
0.817131
0.793981
0.770775
0.747497
0.724131
0.700659
0.677059
0.653309
0.629383
0.605251
0.580879
0.556228
0.531254
0.505903
0.480111
0.4538
0.426872
0.399204
0.370635
0.340942
0.309794
0.276647
0.24046
0.198789
0.143881
0.0489826
0.353002
0.638514
0.821478
0.968626
1.09976
1.22173
1.33764
1.44913
1.55715
1.66233
1.76507
1.86569
1.96439
2.06132
2.15661
2.25031
2.34248
2.43316
2.52235
2.61005
2.69624
2.7809
2.86399
2.94549
3.02534
3.10349
3.17991
3.25452
3.32729
3.39814
3.46704
3.53391
3.59872
3.6614
3.7219
3.78017
3.83617
3.88985
3.94117
3.99008
4.03657
4.08059
4.12211
4.16112
4.19759
4.2315
4.26285
4.29163
4.31783
4.34145
4.3625
4.38099
4.39693
4.41033
4.42123
4.42964
4.4356
4.43913
4.44028
4.43909
4.43559
4.42985
4.42189
4.41179
4.39957
4.38531
4.36905
4.35086
4.3308
4.30894
4.28533
4.26006
4.23318
4.20476
4.17488
4.14361
4.11102
4.07717
4.04215
4.00602
3.96885
3.93072
3.89169
3.85183
3.81122
3.76991
3.72798
3.68549
3.6425
3.59908
3.55528
3.51117
3.4668
3.42222
3.37749
3.33267
3.28779
3.24291
3.19807
3.15331
3.10868
3.06421
3.01994
2.97591
2.93214
2.88866
2.84551
2.80271
2.76028
2.71824
2.67661
2.63542
2.59467
2.55438
2.51456
2.47522
2.43637
2.39802
2.36017
2.32282
2.28597
2.24963
2.2138
2.17847
2.14364
2.10931
2.07547
2.04211
2.00923
1.97681
1.94486
1.91336
1.8823
1.85166
1.82145
1.79164
1.76223
1.7332
1.70453
1.67623
1.64827
1.62064
1.59333
1.56632
1.53961
1.51318
1.48701
1.4611
1.43543
1.40999
1.38476
1.35974
1.33492
1.31027
1.2858
1.26149
1.23733
1.21332
1.18943
1.16566
1.142
1.11844
1.09497
1.07159
1.04828
1.02503
1.00184
0.978693
0.955584
0.932502
0.909438
0.88638
0.863317
0.840238
0.81713
0.79398
0.770774
0.747496
0.72413
0.700658
0.677058
0.653308
0.629382
0.60525
0.580878
0.556227
0.531253
0.505903
0.480111
0.453799
0.426871
0.399204
0.370635
0.340942
0.309794
0.276647
0.240461
0.198789
0.143882
0.0489827
0.428814
0.73793
0.935086
1.09206
1.23091
1.3597
1.482
1.59967
1.71378
1.82497
1.93369
2.04022
2.14477
2.24747
2.34843
2.44772
2.54536
2.6414
2.73582
2.82863
2.9198
3.0093
3.09711
3.18317
3.26745
3.3499
3.43046
3.50908
3.5857
3.66027
3.73274
3.80305
3.87113
3.93695
4.00045
4.06157
4.12028
4.17653
4.23027
4.28147
4.33009
4.37611
4.4195
4.46022
4.49827
4.53363
4.56629
4.59624
4.62348
4.64801
4.66983
4.68896
4.70542
4.71922
4.73038
4.73893
4.74491
4.74834
4.74927
4.74774
4.74379
4.73748
4.72885
4.71795
4.70485
4.68959
4.67224
4.65286
4.63151
4.60827
4.5832
4.55636
4.52785
4.49771
4.46603
4.43289
4.39835
4.36249
4.32539
4.28711
4.24774
4.20735
4.166
4.12378
4.08076
4.03699
3.99256
3.94754
3.90198
3.85595
3.80952
3.76275
3.71569
3.66841
3.62097
3.5734
3.52578
3.47814
3.43053
3.383
3.3356
3.28835
3.24131
3.19451
3.14798
3.10175
3.05586
3.01032
2.96517
2.92043
2.87612
2.83226
2.78886
2.74594
2.70351
2.66159
2.62017
2.57928
2.53891
2.49907
2.45976
2.42098
2.38273
2.34502
2.30783
2.27116
2.23501
2.19937
2.16423
2.12959
2.09543
2.06175
2.02853
1.99577
1.96345
1.93156
1.90009
1.86902
1.83834
1.80804
1.77811
1.74853
1.71929
1.69037
1.66176
1.63344
1.60541
1.57765
1.55015
1.52289
1.49586
1.46905
1.44245
1.41604
1.38982
1.36376
1.33786
1.31212
1.28651
1.26103
1.23567
1.21041
1.18525
1.16018
1.13519
1.11026
1.0854
1.06058
1.0358
1.01106
0.986325
0.961603
0.936876
0.912132
0.88736
0.862544
0.837672
0.812727
0.787692
0.762549
0.737277
0.711853
0.68625
0.660441
0.63439
0.608058
0.5814
0.554365
0.526887
0.498887
0.470267
0.440898
0.410611
0.379162
0.346177
0.311022
0.272463
0.2276
0.16746
0.0607696
0.428817
0.73793
0.935085
1.09206
1.23091
1.35969
1.482
1.59967
1.71377
1.82497
1.93369
2.04022
2.14476
2.24747
2.34843
2.44771
2.54536
2.64139
2.73582
2.82862
2.91979
3.0093
3.0971
3.18317
3.26745
3.34989
3.43045
3.50907
3.5857
3.66027
3.73274
3.80304
3.87113
3.93695
4.00044
4.06157
4.12028
4.17652
4.23026
4.28146
4.33009
4.37611
4.41949
4.46022
4.49827
4.53363
4.56629
4.59623
4.62347
4.648
4.66983
4.68896
4.70541
4.71921
4.73037
4.73893
4.7449
4.74833
4.74926
4.74773
4.74378
4.73747
4.72884
4.71795
4.70484
4.68958
4.67223
4.65285
4.63151
4.60826
4.58319
4.55636
4.52784
4.49771
4.46603
4.43288
4.39834
4.36249
4.32538
4.28711
4.24774
4.20734
4.166
4.12378
4.08075
4.03699
3.99256
3.94753
3.90197
3.85595
3.80952
3.76274
3.71569
3.66841
3.62096
3.5734
3.52577
3.47813
3.43053
3.383
3.33559
3.28835
3.24131
3.19451
3.14798
3.10175
3.05585
3.01032
2.96517
2.92043
2.87612
2.83225
2.78886
2.74594
2.70351
2.66158
2.62017
2.57927
2.53891
2.49906
2.45975
2.42098
2.38273
2.34501
2.30782
2.27116
2.23501
2.19936
2.16423
2.12958
2.09543
2.06174
2.02853
1.99577
1.96345
1.93156
1.90008
1.86902
1.83834
1.80804
1.77811
1.74853
1.71928
1.69036
1.66175
1.63344
1.60541
1.57765
1.55015
1.52289
1.49586
1.46905
1.44245
1.41604
1.38981
1.36376
1.33786
1.31212
1.28651
1.26103
1.23566
1.21041
1.18525
1.16018
1.13519
1.11026
1.0854
1.06058
1.0358
1.01105
0.986324
0.961602
0.936875
0.912131
0.887359
0.862543
0.837671
0.812726
0.787691
0.762548
0.737276
0.711852
0.68625
0.66044
0.634389
0.608057
0.5814
0.554365
0.526887
0.498887
0.470266
0.440898
0.410611
0.379161
0.346177
0.311023
0.272464
0.2276
0.16746
0.0607698
0.503188
0.833029
1.04386
1.21046
1.35692
1.49228
1.62061
1.74401
1.86368
1.98035
2.09445
2.20631
2.31611
2.42399
2.53004
2.63432
2.73686
2.83768
2.93677
3.03412
3.12971
3.2235
3.31546
3.40555
3.49371
3.57991
3.66408
3.74618
3.82614
3.90391
3.97945
4.05268
4.12356
4.19203
4.25805
4.32157
4.38253
4.44091
4.49665
4.54972
4.60009
4.64772
4.6926
4.7347
4.774
4.81049
4.84416
4.875
4.90301
4.9282
4.95058
4.97015
4.98693
5.00095
5.01223
5.02079
5.02667
5.02991
5.03055
5.02863
5.02419
5.0173
5.00799
4.99633
4.98237
4.96617
4.9478
4.92731
4.90478
4.88028
4.85387
4.82563
4.79563
4.76395
4.73066
4.69584
4.65957
4.62192
4.58296
4.54278
4.50146
4.45906
4.41567
4.37135
4.32619
4.28026
4.23362
4.18635
4.13852
4.09019
4.04143
3.9923
3.94288
3.8932
3.84334
3.79336
3.74329
3.6932
3.64314
3.59315
3.54328
3.49357
3.44407
3.3948
3.3458
3.29712
3.24877
3.2008
3.15321
3.10605
3.05933
3.01307
2.96729
2.922
2.87723
2.83297
2.78924
2.74605
2.70341
2.66131
2.61977
2.57878
2.53834
2.49846
2.45912
2.42032
2.38207
2.34435
2.30715
2.27047
2.23429
2.19862
2.16343
2.12871
2.09446
2.06066
2.02729
1.99435
1.96182
1.92969
1.89794
1.86656
1.83553
1.80485
1.77449
1.74444
1.71469
1.68523
1.65604
1.6271
1.59841
1.56994
1.5417
1.51366
1.48581
1.45815
1.43065
1.40331
1.37612
1.34906
1.32213
1.29531
1.2686
1.24198
1.21544
1.18898
1.16258
1.13623
1.10992
1.08365
1.0574
1.03115
1.00491
0.978647
0.95236
0.926031
0.899645
0.873189
0.846643
0.81999
0.79321
0.766279
0.739171
0.711857
0.684304
0.656473
0.628317
0.599786
0.570813
0.541318
0.511197
0.480317
0.448491
0.41545
0.380768
0.343716
0.302863
0.254898
0.189786
0.0724129
0.50319
0.833029
1.04386
1.21045
1.35692
1.49228
1.6206
1.74401
1.86368
1.98034
2.09445
2.2063
2.3161
2.42399
2.53004
2.63432
2.73686
2.83768
2.93677
3.03412
3.1297
3.2235
3.31546
3.40554
3.49371
3.57991
3.66408
3.74617
3.82614
3.90391
3.97944
4.05267
4.12355
4.19203
4.25805
4.32156
4.38253
4.4409
4.49664
4.54972
4.60008
4.64772
4.6926
4.7347
4.774
4.81048
4.84415
4.87499
4.90301
4.9282
4.95057
4.97014
4.98693
5.00095
5.01222
5.02079
5.02667
5.02991
5.03054
5.02862
5.02419
5.01729
5.00799
4.99633
4.98237
4.96617
4.94779
4.92731
4.90478
4.88027
4.85387
4.82563
4.79563
4.76395
4.73066
4.69584
4.65956
4.62191
4.58296
4.54278
4.50145
4.45906
4.41566
4.37135
4.32619
4.28025
4.23362
4.18635
4.13851
4.09018
4.04143
3.9923
3.94287
3.8932
3.84334
3.79335
3.74329
3.6932
3.64314
3.59315
3.54328
3.49357
3.44406
3.39479
3.3458
3.29711
3.24877
3.20079
3.15321
3.10605
3.05933
3.01307
2.96729
2.922
2.87722
2.83297
2.78924
2.74605
2.70341
2.66131
2.61977
2.57878
2.53834
2.49845
2.45912
2.42032
2.38207
2.34434
2.30715
2.27046
2.23429
2.19861
2.16342
2.12871
2.09446
2.06065
2.02729
1.99435
1.96182
1.92969
1.89794
1.86656
1.83553
1.80485
1.77449
1.74444
1.71469
1.68523
1.65603
1.6271
1.5984
1.56994
1.5417
1.51366
1.48581
1.45815
1.43065
1.40331
1.37612
1.34906
1.32213
1.29531
1.2686
1.24198
1.21544
1.18898
1.16258
1.13623
1.10992
1.08365
1.05739
1.03115
1.00491
0.978647
0.952359
0.92603
0.899645
0.873188
0.846642
0.81999
0.793209
0.766278
0.73917
0.711856
0.684303
0.656472
0.628317
0.599786
0.570813
0.541318
0.511197
0.480317
0.448491
0.41545
0.380769
0.343716
0.302863
0.254898
0.189787
0.0724132
0.576435
0.925076
1.14913
1.32527
1.47937
1.62126
1.75549
1.88442
2.00939
2.1312
2.25035
2.36715
2.4818
2.59445
2.70517
2.81402
2.92103
3.0262
3.12952
3.23098
3.33054
3.42818
3.52386
3.61753
3.70914
3.79864
3.88599
3.97112
4.05399
4.13453
4.21269
4.28843
4.36168
4.4324
4.50054
4.56604
4.62888
4.689
4.74637
4.80095
4.85272
4.90163
4.94768
4.99084
5.03109
5.06842
5.10283
5.13432
5.16287
5.1885
5.21122
5.23104
5.24799
5.26207
5.27333
5.28178
5.28747
5.29043
5.2907
5.28833
5.28338
5.27588
5.2659
5.25349
5.2387
5.22161
5.20227
5.18076
5.15713
5.13147
5.10384
5.07432
5.04299
5.00991
4.97518
4.93886
4.90103
4.86178
4.82118
4.7793
4.73624
4.69207
4.64686
4.60069
4.55364
4.50578
4.45719
4.40793
4.35809
4.30772
4.25689
4.20568
4.15415
4.10235
4.05035
3.99821
3.94597
3.89371
3.84146
3.78927
3.7372
3.68528
3.63356
3.58208
3.53088
3.47998
3.42943
3.37926
3.32948
3.28013
3.23123
3.1828
3.13485
3.08742
3.0405
2.99412
2.94829
2.903
2.85828
2.81411
2.77052
2.7275
2.68504
2.64316
2.60184
2.56108
2.52088
2.48123
2.44212
2.40355
2.3655
2.32797
2.29094
2.2544
2.21835
2.18276
2.14762
2.11293
2.07866
2.04481
2.01136
1.97829
1.94558
1.91324
1.88123
1.84955
1.81819
1.78711
1.75633
1.72581
1.69554
1.66552
1.63573
1.60615
1.57677
1.54759
1.51858
1.48974
1.46106
1.43251
1.4041
1.37581
1.34763
1.31955
1.29156
1.26365
1.2358
1.20801
1.18027
1.15257
1.12488
1.09722
1.06955
1.04187
1.01416
0.986418
0.95862
0.930753
0.9028
0.874743
0.84656
0.818229
0.789725
0.761019
0.732076
0.702859
0.673321
0.643409
0.613055
0.582176
0.550662
0.518369
0.485093
0.45053
0.414203
0.375281
0.332154
0.281132
0.211241
0.0839962
0.576436
0.925076
1.14913
1.32527
1.47936
1.62125
1.75548
1.88442
2.00939
2.1312
2.25035
2.36714
2.4818
2.59444
2.70517
2.81402
2.92103
3.02619
3.12952
3.23097
3.33054
3.42818
3.52386
3.61753
3.70914
3.79864
3.88599
3.97112
4.05398
4.13452
4.21269
4.28842
4.36168
4.4324
4.50053
4.56604
4.62888
4.689
4.74637
4.80095
4.85271
4.90163
4.94768
4.99083
5.03109
5.06842
5.10283
5.13431
5.16286
5.1885
5.21122
5.23104
5.24798
5.26207
5.27332
5.28177
5.28746
5.29042
5.2907
5.28833
5.28337
5.27588
5.2659
5.25348
5.2387
5.22161
5.20227
5.18075
5.15713
5.13147
5.10384
5.07432
5.04298
5.00991
4.97517
4.93885
4.90103
4.86177
4.82117
4.7793
4.73624
4.69206
4.64685
4.60069
4.55364
4.50578
4.45718
4.40793
4.35808
4.30771
4.25689
4.20568
4.15414
4.10235
4.05035
3.9982
3.94597
3.8937
3.84145
3.78927
3.73719
3.68528
3.63356
3.58208
3.53087
3.47998
3.42943
3.37925
3.32947
3.28012
3.23122
3.18279
3.13485
3.08742
3.0405
2.99412
2.94828
2.903
2.85827
2.81411
2.77052
2.7275
2.68504
2.64316
2.60184
2.56108
2.52088
2.48123
2.44212
2.40355
2.3655
2.32797
2.29094
2.2544
2.21834
2.18276
2.14762
2.11293
2.07866
2.04481
2.01135
1.97828
1.94558
1.91324
1.88123
1.84955
1.81818
1.78711
1.75632
1.72581
1.69554
1.66552
1.63573
1.60615
1.57677
1.54759
1.51858
1.48974
1.46105
1.43251
1.4041
1.37581
1.34763
1.31955
1.29156
1.26365
1.2358
1.20801
1.18027
1.15256
1.12488
1.09721
1.06955
1.04187
1.01416
0.986417
0.95862
0.930753
0.9028
0.874742
0.846559
0.818229
0.789725
0.761018
0.732076
0.702859
0.673321
0.643408
0.613055
0.582175
0.550662
0.518369
0.485093
0.450531
0.414204
0.375282
0.332154
0.281133
0.211242
0.0839965
0.649002
1.01498
1.25178
1.43747
1.59926
1.74773
1.88787
2.02227
2.15242
2.27921
2.40318
2.52468
2.64392
2.76105
2.87614
2.98925
3.1004
3.20959
3.3168
3.42202
3.52522
3.62635
3.72539
3.82228
3.91697
4.00941
4.09956
4.18736
4.27276
4.3557
4.43614
4.51401
4.58927
4.66188
4.73178
4.79893
4.86329
4.92483
4.9835
5.03927
5.09212
5.14202
5.18895
5.23289
5.27383
5.31175
5.34666
5.37856
5.40744
5.43331
5.45619
5.47609
5.49304
5.50705
5.51815
5.52638
5.53178
5.53438
5.53423
5.53137
5.52585
5.51774
5.50707
5.49392
5.47833
5.46038
5.44013
5.41765
5.39301
5.36628
5.33753
5.30685
5.2743
5.23997
5.20393
5.16626
5.12705
5.08636
5.04429
5.00092
4.95632
4.91056
4.86374
4.81593
4.76721
4.71765
4.66732
4.61631
4.56468
4.5125
4.45985
4.40679
4.35338
4.2997
4.24579
4.19173
4.13756
4.08335
4.02914
3.97499
3.92094
3.86704
3.81334
3.75987
3.70667
3.65378
3.60124
3.54907
3.4973
3.44596
3.39507
3.34466
3.29475
3.24534
3.19647
3.14814
3.10036
3.05314
3.0065
2.96043
2.91493
2.87002
2.8257
2.78195
2.73879
2.69619
2.65417
2.61272
2.57182
2.53147
2.49166
2.45237
2.41361
2.37535
2.33759
2.30031
2.2635
2.22714
2.19123
2.15574
2.12066
2.08598
2.05168
2.01775
1.98417
1.95093
1.91801
1.8854
1.85309
1.82105
1.78928
1.75777
1.72649
1.69543
1.66459
1.63395
1.60349
1.57321
1.54309
1.51312
1.48329
1.45359
1.424
1.39452
1.36513
1.33583
1.3066
1.27744
1.24832
1.21924
1.19019
1.16116
1.13213
1.1031
1.07404
1.04494
1.0158
0.986588
0.957294
0.927899
0.898382
0.868721
0.83889
0.808861
0.778599
0.748066
0.717214
0.685987
0.654316
0.622113
0.58926
0.5556
0.520906
0.484843
0.446875
0.406077
0.360667
0.306613
0.232086
0.0955861
0.649003
1.01498
1.25177
1.43747
1.59925
1.74773
1.88787
2.02227
2.15242
2.27921
2.40318
2.52467
2.64392
2.76104
2.87614
2.98925
3.1004
3.20958
3.3168
3.42202
3.52521
3.62635
3.72538
3.82227
3.91696
4.00941
4.09956
4.18736
4.27276
4.3557
4.43613
4.51401
4.58927
4.66187
4.73178
4.79893
4.86329
4.92482
4.98349
5.03927
5.09212
5.14202
5.18894
5.23288
5.27382
5.31175
5.34666
5.37855
5.40743
5.43331
5.45619
5.47609
5.49303
5.50704
5.51815
5.52638
5.53178
5.53437
5.53422
5.53136
5.52585
5.51773
5.50707
5.49391
5.47833
5.46038
5.44013
5.41765
5.39301
5.36628
5.33753
5.30684
5.2743
5.23996
5.20392
5.16626
5.12704
5.08636
5.04429
5.00091
4.95631
4.91056
4.86374
4.81593
4.7672
4.71764
4.66732
4.6163
4.56467
4.5125
4.45985
4.40678
4.35338
4.29969
4.24579
4.19172
4.13756
4.08335
4.02914
3.97499
3.92094
3.86704
3.81334
3.75987
3.70667
3.65378
3.60124
3.54906
3.49729
3.44596
3.39507
3.34466
3.29474
3.24534
3.19647
3.14814
3.10036
3.05314
3.00649
2.96042
2.91493
2.87002
2.8257
2.78195
2.73878
2.69619
2.65417
2.61272
2.57182
2.53147
2.49165
2.45237
2.41361
2.37535
2.33759
2.30031
2.2635
2.22714
2.19122
2.15573
2.12066
2.08598
2.05168
2.01775
1.98417
1.95093
1.91801
1.8854
1.85309
1.82105
1.78928
1.75776
1.72648
1.69543
1.66459
1.63395
1.60349
1.57321
1.54309
1.51312
1.48329
1.45359
1.424
1.39452
1.36513
1.33583
1.3066
1.27744
1.24832
1.21924
1.19019
1.16116
1.13213
1.1031
1.07404
1.04494
1.0158
0.986587
0.957294
0.927898
0.898381
0.868721
0.83889
0.80886
0.778599
0.748065
0.717214
0.685987
0.654316
0.622113
0.58926
0.5556
0.520906
0.484843
0.446876
0.406078
0.360668
0.306614
0.232087
0.0955865
0.721259
1.10335
1.35254
1.54777
1.71733
1.87248
2.01858
2.15846