/*--------------------------------*- C++ -*----------------------------------*\
  =========                 |
  \\      /  F ield         | OpenFOAM: The Open Source CFD Toolbox
   \\    /   O peration     | Website:  https://openfoam.org
    \\  /    A nd           | Version:  8
     \\/     M anipulation  |
\*---------------------------------------------------------------------------*/
FoamFile
{
    version     2.0;
    format      ascii;
    class       volScalarField;
    location    "4300";
    object      nut;
}
// * * * * * * * * * * * * * * * * * * * * * * * * * * * * * * * * * * * * * //

dimensions      [0 2 -1 0 0 0 0];

internalField   nonuniform List<scalar> 
46000
(
2.18058e-06
8.1818e-06
1.44109e-05
2.01366e-05
2.55219e-05
3.07157e-05
3.57826e-05
4.07407e-05
4.56182e-05
5.0436e-05
5.52104e-05
5.99535e-05
6.46387e-05
6.92853e-05
7.38982e-05
7.84783e-05
8.3025e-05
8.75366e-05
9.20105e-05
9.64436e-05
0.000100833
0.000105173
0.000109462
0.000113693
0.000117864
0.000121968
0.000126001
0.000129959
0.000133836
0.000137627
0.000141329
0.000144935
0.000148443
0.000151846
0.000155142
0.000158325
0.000161393
0.000164341
0.000167167
0.000169866
0.000172436
0.000174874
0.000177179
0.000179347
0.000181377
0.000183268
0.000185019
0.000186627
0.000188094
0.000189418
0.000190599
0.000191638
0.000192535
0.000193291
0.000193907
0.000194385
0.000194726
0.000194931
0.000195005
0.000194948
0.000194765
0.00019446
0.000194036
0.000193493
0.000192835
0.000192063
0.000191182
0.000190195
0.000189106
0.000187919
0.000186637
0.000185266
0.000183808
0.000182268
0.000180651
0.000178961
0.000177201
0.000175377
0.000173493
0.000171552
0.000169559
0.000167518
0.000165433
0.000163309
0.000161148
0.000158956
0.000156736
0.000154492
0.000152226
0.000149944
0.000147648
0.000145341
0.000143027
0.000140708
0.000138388
0.000136069
0.000133754
0.000131446
0.000129146
0.000126858
0.000124583
0.000122323
0.00012008
0.000117856
0.000115652
0.00011347
0.000111311
0.000109177
0.000107068
0.000104985
0.00010293
0.000100902
9.89035e-05
9.69338e-05
9.49937e-05
9.30835e-05
9.12036e-05
8.93539e-05
8.75347e-05
8.57459e-05
8.39875e-05
8.22592e-05
8.0561e-05
7.88926e-05
7.72536e-05
7.56437e-05
7.40625e-05
7.25094e-05
7.09841e-05
6.9486e-05
6.80146e-05
6.65692e-05
6.51493e-05
6.37542e-05
6.23834e-05
6.10361e-05
5.97118e-05
5.84097e-05
5.71292e-05
5.58697e-05
5.46304e-05
5.34108e-05
5.22101e-05
5.10278e-05
4.98632e-05
4.87157e-05
4.75848e-05
4.64697e-05
4.53701e-05
4.42853e-05
4.32148e-05
4.2158e-05
4.11146e-05
4.00841e-05
3.90659e-05
3.80597e-05
3.70651e-05
3.60817e-05
3.51091e-05
3.41469e-05
3.31949e-05
3.22528e-05
3.13201e-05
3.03967e-05
2.94822e-05
2.85764e-05
2.76791e-05
2.67908e-05
2.59109e-05
2.50387e-05
2.41739e-05
2.33162e-05
2.24654e-05
2.16212e-05
2.07833e-05
1.99514e-05
1.91253e-05
1.83045e-05
1.74888e-05
1.66778e-05
1.58711e-05
1.5068e-05
1.42682e-05
1.34709e-05
1.26764e-05
1.18838e-05
1.10918e-05
1.02994e-05
9.50516e-06
8.70773e-06
7.90531e-06
7.09574e-06
6.2763e-06
5.4435e-06
4.59282e-06
3.7182e-06
2.81166e-06
1.86452e-06
9.01391e-07
1.78161e-07
2.18143e-06
8.18318e-06
1.44121e-05
2.01375e-05
2.55224e-05
3.0716e-05
3.57827e-05
4.07409e-05
4.56183e-05
5.04361e-05
5.52105e-05
5.99536e-05
6.46388e-05
6.92853e-05
7.38982e-05
7.84783e-05
8.3025e-05
8.75366e-05
9.20104e-05
9.64436e-05
0.000100832
0.000105173
0.000109462
0.000113693
0.000117864
0.000121968
0.000126001
0.000129959
0.000133836
0.000137627
0.000141328
0.000144935
0.000148442
0.000151846
0.000155142
0.000158325
0.000161393
0.000164341
0.000167166
0.000169865
0.000172436
0.000174874
0.000177178
0.000179347
0.000181377
0.000183268
0.000185018
0.000186627
0.000188093
0.000189417
0.000190599
0.000191638
0.000192535
0.000193291
0.000193907
0.000194385
0.000194725
0.000194931
0.000195004
0.000194948
0.000194765
0.00019446
0.000194036
0.000193493
0.000192834
0.000192063
0.000191182
0.000190195
0.000189106
0.000187919
0.000186637
0.000185265
0.000183808
0.000182268
0.000180651
0.000178961
0.000177201
0.000175377
0.000173492
0.000171551
0.000169558
0.000167517
0.000165433
0.000163308
0.000161148
0.000158956
0.000156736
0.000154491
0.000152226
0.000149944
0.000147647
0.000145341
0.000143026
0.000140708
0.000138388
0.000136069
0.000133754
0.000131446
0.000129146
0.000126858
0.000124583
0.000122323
0.00012008
0.000117856
0.000115652
0.00011347
0.000111311
0.000109177
0.000107068
0.000104985
0.00010293
0.000100902
9.89033e-05
9.69336e-05
9.49935e-05
9.30833e-05
9.12034e-05
8.93537e-05
8.75345e-05
8.57457e-05
8.39873e-05
8.22591e-05
8.05609e-05
7.88924e-05
7.72534e-05
7.56435e-05
7.40623e-05
7.25093e-05
7.0984e-05
6.94859e-05
6.80144e-05
6.65691e-05
6.51492e-05
6.37541e-05
6.23833e-05
6.1036e-05
5.97117e-05
5.84096e-05
5.71291e-05
5.58695e-05
5.46303e-05
5.34106e-05
5.221e-05
5.10277e-05
4.98631e-05
4.87156e-05
4.75847e-05
4.64696e-05
4.537e-05
4.42852e-05
4.32147e-05
4.21579e-05
4.11145e-05
4.0084e-05
3.90658e-05
3.80596e-05
3.7065e-05
3.60816e-05
3.5109e-05
3.41468e-05
3.31948e-05
3.22527e-05
3.132e-05
3.03966e-05
2.94821e-05
2.85763e-05
2.7679e-05
2.67907e-05
2.59108e-05
2.50386e-05
2.41738e-05
2.33162e-05
2.24653e-05
2.16211e-05
2.07832e-05
1.99513e-05
1.91252e-05
1.83045e-05
1.74888e-05
1.66778e-05
1.5871e-05
1.5068e-05
1.42681e-05
1.34709e-05
1.26764e-05
1.18838e-05
1.10918e-05
1.02994e-05
9.50514e-06
8.70771e-06
7.9053e-06
7.09573e-06
6.27629e-06
5.4435e-06
4.59282e-06
3.7182e-06
2.81166e-06
1.86452e-06
9.01392e-07
1.78161e-07
7.50145e-06
6.18912e-05
0.000103441
0.000132339
0.000154794
0.000173464
0.000189577
0.000204027
0.000217297
0.00022968
0.000241358
0.000252472
0.000263131
0.000273395
0.00028331
0.000292914
0.000302235
0.000311294
0.000320108
0.000328689
0.000337049
0.000345193
0.000353128
0.000360857
0.000368382
0.000375706
0.000382829
0.000389751
0.000396472
0.000402991
0.000409306
0.000415416
0.00042132
0.000427016
0.000432503
0.000437777
0.000442839
0.000447686
0.000452317
0.00045673
0.000460925
0.0004649
0.000468654
0.000472188
0.000475499
0.000478589
0.000481458
0.000484105
0.000486532
0.000488739
0.000490727
0.000492498
0.000494054
0.000495395
0.000496525
0.000497446
0.000498159
0.000498669
0.000498977
0.000499088
0.000499003
0.000498725
0.000498259
0.00049761
0.000496783
0.000495781
0.000494611
0.000493276
0.000491781
0.000490132
0.000488334
0.000486391
0.000484309
0.000482094
0.00047975
0.000477283
0.000474699
0.000472002
0.000469198
0.000466293
0.000463293
0.000460201
0.000457024
0.000453768
0.000450436
0.000447035
0.00044357
0.000440045
0.000436465
0.000432836
0.000429162
0.000425448
0.000421697
0.000417916
0.000414107
0.000410275
0.000406423
0.000402557
0.000398679
0.000394793
0.000390902
0.00038701
0.000383119
0.000379233
0.000375355
0.000371486
0.000367631
0.00036379
0.000359966
0.000356161
0.000352376
0.000348615
0.000344877
0.000341165
0.00033748
0.000333822
0.000330193
0.000326594
0.000323025
0.000319486
0.000315979
0.000312504
0.00030906
0.000305648
0.000302267
0.000298919
0.000295601
0.000292315
0.00028906
0.000285834
0.000282638
0.000279471
0.000276331
0.000273219
0.000270134
0.000267074
0.000264039
0.000261027
0.000258038
0.00025507
0.000252122
0.000249194
0.000246284
0.00024339
0.000240513
0.000237649
0.000234799
0.000231961
0.000229133
0.000226316
0.000223506
0.000220703
0.000217906
0.000215113
0.000212324
0.000209537
0.00020675
0.000203962
0.000201172
0.000198379
0.00019558
0.000192776
0.000189964
0.000187142
0.000184309
0.000181462
0.0001786
0.000175716
0.000172813
0.000169891
0.000166946
0.000163977
0.00016098
0.000157954
0.000154893
0.000151795
0.000148656
0.000145471
0.000142233
0.000138938
0.000135578
0.000132144
0.000128627
0.000125012
0.000121279
0.000117418
0.00011341
0.000109232
0.000104853
0.000100235
9.53281e-05
9.00648e-05
8.43533e-05
7.80611e-05
7.09863e-05
6.27985e-05
5.28954e-05
4.00097e-05
2.11326e-05
8.1546e-07
7.5003e-06
6.18868e-05
0.000103438
0.000132339
0.000154796
0.000173467
0.00018958
0.00020403
0.000217299
0.000229683
0.000241361
0.000252475
0.000263134
0.000273398
0.000283313
0.000292917
0.000302238
0.000311297
0.000320111
0.000328693
0.000337052
0.000345196
0.000353131
0.00036086
0.000368386
0.00037571
0.000382833
0.000389755
0.000396476
0.000402995
0.00040931
0.00041542
0.000421324
0.00042702
0.000432507
0.000437782
0.000442843
0.00044769
0.000452321
0.000456735
0.000460929
0.000464904
0.000468659
0.000472192
0.000475504
0.000478594
0.000481462
0.00048411
0.000486537
0.000488744
0.000490732
0.000492503
0.000494058
0.0004954
0.00049653
0.00049745
0.000498164
0.000498673
0.000498982
0.000499092
0.000499007
0.00049873
0.000498264
0.000497615
0.000496787
0.000495786
0.000494615
0.00049328
0.000491785
0.000490136
0.000488338
0.000486395
0.000484314
0.000482098
0.000479754
0.000477287
0.000474703
0.000472006
0.000469202
0.000466297
0.000463296
0.000460205
0.000457028
0.000453771
0.00045044
0.000447039
0.000443573
0.000440048
0.000436469
0.00043284
0.000429166
0.000425451
0.000421701
0.000417919
0.00041411
0.000410278
0.000406427
0.00040256
0.000398682
0.000394796
0.000390905
0.000387013
0.000383122
0.000379236
0.000375358
0.000371489
0.000367633
0.000363792
0.000359968
0.000356163
0.000352379
0.000348617
0.00034488
0.000341167
0.000337482
0.000333824
0.000330195
0.000326596
0.000323027
0.000319488
0.000315981
0.000312506
0.000309062
0.00030565
0.00030227
0.000298921
0.000295603
0.000292317
0.000289061
0.000285836
0.00028264
0.000279472
0.000276333
0.000273221
0.000270136
0.000267076
0.00026404
0.000261029
0.000258039
0.000255071
0.000252124
0.000249196
0.000246285
0.000243392
0.000240514
0.000237651
0.0002348
0.000231962
0.000229135
0.000226317
0.000223507
0.000220704
0.000217907
0.000215115
0.000212325
0.000209538
0.000206751
0.000203963
0.000201173
0.00019838
0.000195581
0.000192777
0.000189964
0.000187143
0.000184309
0.000181463
0.0001786
0.000175716
0.000172814
0.000169892
0.000166947
0.000163978
0.000160981
0.000157954
0.000154894
0.000151796
0.000148657
0.000145471
0.000142234
0.000138939
0.000135579
0.000132145
0.000128627
0.000125012
0.000121279
0.000117418
0.000113411
0.000109233
0.000104854
0.000100236
9.53285e-05
9.00651e-05
8.43536e-05
7.80613e-05
7.09866e-05
6.27987e-05
5.28955e-05
4.00098e-05
2.11325e-05
8.15461e-07
1.348e-05
0.000100147
0.000182149
0.000243653
0.000291464
0.000330212
0.000362806
0.000391101
0.00041626
0.000439061
0.000460033
0.000479542
0.000497858
0.000515169
0.000531615
0.000547302
0.000562316
0.000576722
0.000590573
0.000603913
0.000616774
0.000629186
0.000641172
0.000652749
0.000663936
0.000674743
0.000685183
0.000695263
0.000704993
0.000714378
0.000723423
0.000732134
0.000740513
0.000748565
0.000756291
0.000763696
0.00077078
0.000777546
0.000783996
0.000790132
0.000795955
0.000801468
0.000806671
0.000811568
0.000816159
0.000820447
0.000824434
0.000828123
0.000831515
0.000834613
0.00083742
0.000839939
0.000842174
0.000844126
0.0008458
0.000847199
0.000848326
0.000849185
0.00084978
0.000850114
0.000850191
0.000850013
0.000849585
0.000848914
0.000848008
0.000846872
0.000845512
0.000843936
0.000842147
0.000840154
0.00083796
0.000835573
0.000832999
0.000830244
0.000827313
0.000824213
0.000820951
0.000817533
0.000813964
0.000810252
0.000806402
0.000802421
0.000798315
0.00079409
0.000789753
0.000785309
0.000780764
0.000776125
0.000771397
0.000766586
0.000761698
0.000756739
0.000751714
0.000746628
0.000741486
0.000736295
0.000731058
0.000725781
0.000720468
0.000715125
0.000709755
0.000704362
0.000698952
0.000693527
0.000688091
0.000682649
0.000677203
0.000671757
0.000666314
0.000660876
0.000655446
0.000650028
0.000644622
0.000639232
0.000633859
0.000628504
0.000623171
0.000617859
0.00061257
0.000607306
0.000602066
0.000596853
0.000591665
0.000586504
0.000581371
0.000576264
0.000571184
0.00056613
0.000561103
0.000556102
0.000551126
0.000546175
0.000541247
0.000536342
0.000531459
0.000526596
0.000521752
0.000516927
0.000512118
0.000507325
0.000502545
0.000497777
0.00049302
0.000488272
0.00048353
0.000478794
0.000474061
0.00046933
0.000464599
0.000459865
0.000455127
0.000450383
0.00044563
0.000440866
0.00043609
0.000431298
0.00042649
0.000421661
0.000416809
0.000411933
0.000407028
0.000402093
0.000397123
0.000392116
0.000387068
0.000381973
0.000376827
0.000371622
0.000366358
0.000361031
0.000355637
0.00035017
0.000344623
0.000338989
0.000333258
0.000327423
0.000321471
0.000315391
0.000309168
0.000302786
0.000296225
0.000289463
0.000282472
0.000275218
0.00026766
0.00025975
0.000251442
0.000242668
0.000233343
0.00022336
0.000212576
0.000200802
0.00018778
0.000173138
0.000156323
0.000136466
0.000112116
8.07454e-05
3.87629e-05
1.68948e-06
1.34793e-05
0.000100147
0.000182151
0.000243656
0.000291468
0.000330217
0.000362811
0.000391106
0.000416266
0.000439067
0.000460038
0.000479548
0.000497863
0.000515174
0.00053162
0.000547307
0.000562321
0.000576727
0.000590579
0.000603918
0.000616779
0.000629191
0.000641177
0.000652755
0.000663941
0.000674748
0.000685188
0.000695269
0.000704999
0.000714383
0.000723429
0.000732139
0.000740519
0.00074857
0.000756297
0.000763701
0.000770786
0.000777552
0.000784002
0.000790138
0.000795961
0.000801474
0.000806677
0.000811573
0.000816165
0.000820453
0.00082444
0.000828128
0.00083152
0.000834619
0.000837426
0.000839945
0.000842179
0.000844132
0.000845805
0.000847204
0.000848331
0.000849191
0.000849786
0.00085012
0.000850196
0.000850018
0.00084959
0.000848919
0.000848013
0.000846877
0.000845517
0.000843941
0.000842152
0.000840158
0.000837965
0.000835578
0.000833004
0.000830248
0.000827318
0.000824218
0.000820956
0.000817537
0.000813969
0.000810256
0.000806407
0.000802425
0.000798319
0.000794094
0.000789757
0.000785313
0.000780768
0.000776129
0.000771401
0.00076659
0.000761702
0.000756742
0.000751717
0.000746631
0.00074149
0.000736298
0.000731061
0.000725784
0.000720472
0.000715128
0.000709758
0.000704365
0.000698954
0.00069353
0.000688094
0.000682652
0.000677206
0.000671759
0.000666316
0.000660878
0.000655449
0.00065003
0.000644624
0.000639234
0.000633861
0.000628506
0.000623173
0.000617861
0.000612572
0.000607307
0.000602068
0.000596854
0.000591667
0.000586506
0.000581372
0.000576265
0.000571185
0.000566132
0.000561105
0.000556103
0.000551127
0.000546176
0.000541248
0.000536343
0.00053146
0.000526597
0.000521753
0.000516928
0.000512119
0.000507326
0.000502546
0.000497778
0.000493021
0.000488272
0.000483531
0.000478795
0.000474062
0.000469331
0.0004646
0.000459866
0.000455128
0.000450383
0.00044563
0.000440867
0.00043609
0.000431299
0.00042649
0.000421661
0.00041681
0.000411933
0.000407029
0.000402093
0.000397124
0.000392117
0.000387068
0.000381973
0.000376827
0.000371622
0.000366358
0.000361032
0.000355638
0.00035017
0.000344623
0.000338989
0.000333259
0.000327423
0.000321471
0.000315391
0.000309168
0.000302786
0.000296225
0.000289463
0.000282472
0.000275219
0.00026766
0.00025975
0.000251442
0.000242668
0.000233343
0.00022336
0.000212576
0.000200802
0.00018778
0.000173138
0.000156323
0.000136466
0.000112116
8.07455e-05
3.87627e-05
1.68948e-06
1.9136e-05
0.00012749
0.000240434
0.000331775
0.000405465
0.000466172
0.00051747
0.000561836
0.000600978
0.000636087
0.000668015
0.000697378
0.00072463
0.000750109
0.00077407
0.000796712
0.000818188
0.000838625
0.000858121
0.000876758
0.000894602
0.00091171
0.000928127
0.000943892
0.000959039
0.000973596
0.000987586
0.00100103
0.00101395
0.00102636
0.00103827
0.0010497
0.00106065
0.00107114
0.00108118
0.00109077
0.00109992
0.00110864
0.00111694
0.00112481
0.00113227
0.00113933
0.00114598
0.00115223
0.00115809
0.00116357
0.00116866
0.00117337
0.00117771
0.00118168
0.00118528
0.00118853
0.00119143
0.00119397
0.00119617
0.00119803
0.00119956
0.00120076
0.00120163
0.00120218
0.00120242
0.00120235
0.00120197
0.00120129
0.00120032
0.00119907
0.00119755
0.00119576
0.00119371
0.0011914
0.00118885
0.00118606
0.00118304
0.0011798
0.00117633
0.00117265
0.00116877
0.00116469
0.00116042
0.00115597
0.00115134
0.00114654
0.00114158
0.00113647
0.0011312
0.0011258
0.00112026
0.00111459
0.0011088
0.0011029
0.00109688
0.00109077
0.00108456
0.00107826
0.00107188
0.00106543
0.0010589
0.0010523
0.00104565
0.00103894
0.00103218
0.00102538
0.00101854
0.00101167
0.00100476
0.000997832
0.000990881
0.000983912
0.00097693
0.000969938
0.00096294
0.000955938
0.000948936
0.000941936
0.00093494
0.000927952
0.000920973
0.000914005
0.00090705
0.000900108
0.000893182
0.000886272
0.00087938
0.000872505
0.000865648
0.000858809
0.000851989
0.000845187
0.000838403
0.000831637
0.000824887
0.000818153
0.000811435
0.00080473
0.000798038
0.000791357
0.000784686
0.000778023
0.000771367
0.000764716
0.000758067
0.00075142
0.000744771
0.000738119
0.000731461
0.000724795
0.000718118
0.000711429
0.000704724
0.000698001
0.000691256
0.000684488
0.000677693
0.000670869
0.000664011
0.000657116
0.000650182
0.000643204
0.000636179
0.000629102
0.000621968
0.000614774
0.000607515
0.000600183
0.000592774
0.000585281
0.000577695
0.000570007
0.000562212
0.000554303
0.000546272
0.000538109
0.000529801
0.000521337
0.0005127
0.000503874
0.00049484
0.000485576
0.000476057
0.000466253
0.000456129
0.000445646
0.000434756
0.000423402
0.000411513
0.000399007
0.000385794
0.000371757
0.000356748
0.000340579
0.00032301
0.000303724
0.000282294
0.00025813
0.000230397
0.000197869
0.000158717
0.000110309
5.06903e-05
2.55478e-06
1.91359e-05
0.000127492
0.000240438
0.00033178
0.000405472
0.000466179
0.000517477
0.000561844
0.000600985
0.000636094
0.000668023
0.000697386
0.000724638
0.000750116
0.000774077
0.000796719
0.000818196
0.000838632
0.000858128
0.000876765
0.00089461
0.000911717
0.000928134
0.000943899
0.000959046
0.000973603
0.000987593
0.00100104
0.00101396
0.00102637
0.00103828
0.0010497
0.00106066
0.00107115
0.00108119
0.00109078
0.00109993
0.00110865
0.00111694
0.00112482
0.00113228
0.00113933
0.00114599
0.00115224
0.0011581
0.00116357
0.00116866
0.00117338
0.00117771
0.00118168
0.00118529
0.00118854
0.00119143
0.00119398
0.00119618
0.00119804
0.00119957
0.00120076
0.00120164
0.00120219
0.00120243
0.00120235
0.00120197
0.00120129
0.00120033
0.00119908
0.00119755
0.00119576
0.00119371
0.00119141
0.00118886
0.00118607
0.00118305
0.0011798
0.00117633
0.00117266
0.00116877
0.0011647
0.00116043
0.00115597
0.00115134
0.00114655
0.00114159
0.00113647
0.00113121
0.0011258
0.00112026
0.00111459
0.0011088
0.0011029
0.00109689
0.00109077
0.00108456
0.00107827
0.00107189
0.00106543
0.0010589
0.00105231
0.00104565
0.00103894
0.00103219
0.00102538
0.00101854
0.00101167
0.00100476
0.000997834
0.000990883
0.000983914
0.000976932
0.00096994
0.000962942
0.00095594
0.000948937
0.000941937
0.000934942
0.000927954
0.000920975
0.000914006
0.000907051
0.00090011
0.000893183
0.000886273
0.000879381
0.000872506
0.000865649
0.00085881
0.00085199
0.000845188
0.000838404
0.000831637
0.000824888
0.000818154
0.000811435
0.00080473
0.000798038
0.000791357
0.000784686
0.000778024
0.000771367
0.000764716
0.000758068
0.00075142
0.000744771
0.000738119
0.000731461
0.000724795
0.000718118
0.000711429
0.000704724
0.000698
0.000691256
0.000684488
0.000677693
0.000670868
0.00066401
0.000657116
0.000650182
0.000643204
0.000636178
0.000629101
0.000621968
0.000614774
0.000607514
0.000600183
0.000592774
0.00058528
0.000577694
0.000570007
0.000562211
0.000554303
0.000546272
0.000538108
0.000529801
0.000521336
0.000512699
0.000503874
0.00049484
0.000485576
0.000476056
0.000466252
0.000456129
0.000445646
0.000434756
0.000423401
0.000411512
0.000399006
0.000385794
0.000371757
0.000356747
0.000340579
0.00032301
0.000303724
0.000282293
0.00025813
0.000230397
0.000197869
0.000158717
0.00011031
5.06901e-05
2.55479e-06
2.45666e-05
0.000149579
0.000286525
0.00040307
0.000500233
0.000582011
0.000651949
0.000712758
0.000766453
0.00081452
0.000858064
0.000897913
0.000934692
0.000968881
0.00100085
0.00103089
0.00105923
0.00108605
0.00111151
0.00113573
0.00115881
0.00118084
0.00120189
0.00122202
0.00124129
0.00125973
0.00127739
0.00129431
0.0013105
0.00132601
0.00134085
0.00135504
0.00136861
0.00138157
0.00139393
0.00140572
0.00141695
0.00142762
0.00143775
0.00144735
0.00145644
0.00146501
0.00147308
0.00148066
0.00148776
0.00149439
0.00150055
0.00150625
0.00151149
0.0015163
0.00152067
0.0015246
0.00152812
0.00153122
0.00153392
0.00153621
0.0015381
0.00153961
0.00154074
0.00154148
0.00154186
0.00154188
0.00154153
0.00154084
0.00153981
0.00153845
0.00153676
0.00153477
0.00153246
0.00152986
0.00152697
0.0015238
0.00152035
0.00151664
0.00151267
0.00150845
0.00150399
0.00149929
0.00149436
0.00148922
0.00148386
0.0014783
0.00147254
0.0014666
0.00146047
0.00145417
0.0014477
0.00144108
0.0014343
0.00142738
0.00142032
0.00141314
0.00140583
0.00139841
0.00139087
0.00138324
0.00137551
0.00136769
0.00135979
0.00135181
0.00134376
0.00133565
0.00132748
0.00131925
0.00131098
0.00130266
0.0012943
0.00128591
0.00127749
0.00126904
0.00126057
0.00125209
0.00124359
0.00123507
0.00122655
0.00121803
0.0012095
0.00120096
0.00119243
0.0011839
0.00117538
0.00116686
0.00115835
0.00114984
0.00114134
0.00113285
0.00112437
0.0011159
0.00110743
0.00109897
0.00109051
0.00108206
0.00107362
0.00106517
0.00105673
0.00104829
0.00103985
0.0010314
0.00102294
0.00101448
0.00100601
0.000997522
0.000989021
0.000980501
0.000971961
0.000963396
0.000954805
0.000946183
0.000937528
0.000928836
0.000920104
0.000911328
0.000902504
0.000893628
0.000884696
0.000875703
0.000866645
0.000857517
0.000848313
0.000839027
0.000829654
0.000820187
0.000810619
0.000800942
0.000791147
0.000781225
0.000771166
0.000760957
0.000750588
0.00074005
0.000729328
0.000718408
0.000707272
0.000695902
0.000684274
0.000672364
0.000660144
0.000647581
0.000634638
0.000621271
0.000607431
0.000593057
0.000578082
0.000562422
0.00054598
0.000528637
0.000510261
0.000490682
0.000469694
0.000447036
0.000422378
0.000395296
0.000365233
0.000331448
0.000292938
0.000248332
0.000195774
0.000133034
5.99114e-05
3.39465e-06
2.45667e-05
0.000149581
0.000286529
0.000403076
0.000500241
0.00058202
0.000651958
0.000712768
0.000766463
0.00081453
0.000858074
0.000897922
0.000934702
0.00096889
0.00100086
0.0010309
0.00105924
0.00108606
0.00111152
0.00113574
0.00115882
0.00118085
0.0012019
0.00122203
0.0012413
0.00125974
0.0012774
0.00129432
0.00131051
0.00132602
0.00134086
0.00135505
0.00136862
0.00138158
0.00139394
0.00140573
0.00141696
0.00142763
0.00143776
0.00144736
0.00145644
0.00146502
0.00147309
0.00148067
0.00148777
0.0014944
0.00150055
0.00150625
0.0015115
0.00151631
0.00152067
0.00152461
0.00152813
0.00153123
0.00153392
0.00153621
0.00153811
0.00153962
0.00154074
0.00154149
0.00154187
0.00154188
0.00154154
0.00154085
0.00153982
0.00153845
0.00153677
0.00153477
0.00153247
0.00152987
0.00152698
0.00152381
0.00152036
0.00151665
0.00151268
0.00150846
0.00150399
0.00149929
0.00149437
0.00148922
0.00148386
0.0014783
0.00147255
0.0014666
0.00146047
0.00145417
0.0014477
0.00144108
0.0014343
0.00142738
0.00142033
0.00141314
0.00140583
0.00139841
0.00139088
0.00138324
0.00137551
0.00136769
0.00135979
0.00135181
0.00134376
0.00133565
0.00132748
0.00131925
0.00131098
0.00130266
0.0012943
0.00128591
0.00127749
0.00126904
0.00126058
0.00125209
0.00124359
0.00123507
0.00122655
0.00121803
0.0012095
0.00120096
0.00119243
0.00118391
0.00117538
0.00116686
0.00115835
0.00114984
0.00114135
0.00113285
0.00112437
0.0011159
0.00110743
0.00109897
0.00109051
0.00108206
0.00107362
0.00106517
0.00105673
0.00104829
0.00103985
0.0010314
0.00102294
0.00101448
0.00100601
0.000997522
0.000989021
0.000980501
0.00097196
0.000963396
0.000954804
0.000946183
0.000937528
0.000928836
0.000920104
0.000911328
0.000902504
0.000893628
0.000884696
0.000875703
0.000866645
0.000857516
0.000848312
0.000839026
0.000829653
0.000820186
0.000810618
0.000800941
0.000791146
0.000781224
0.000771165
0.000760957
0.000750588
0.000740049
0.000729327
0.000718407
0.000707272
0.000695901
0.000684273
0.000672363
0.000660143
0.00064758
0.000634637
0.000621271
0.00060743
0.000593057
0.000578081
0.000562421
0.000545979
0.000528637
0.00051026
0.000490681
0.000469693
0.000447036
0.000422378
0.000395296
0.000365232
0.000331448
0.000292938
0.000248332
0.000195774
0.000133034
5.99112e-05
3.39466e-06
2.98752e-05
0.000168498
0.000324794
0.000462664
0.00058063
0.000681762
0.000769311
0.000846002
0.00091399
0.00097494
0.00103014
0.00108057
0.00112701
0.00117006
0.00121018
0.00124777
0.00128311
0.00131645
0.00134799
0.0013779
0.00140632
0.00143336
0.00145911
0.00148368
0.00150712
0.00152949
0.00155087
0.00157128
0.00159078
0.0016094
0.00162718
0.00164415
0.00166033
0.00167575
0.00169044
0.00170441
0.00171769
0.00173029
0.00174224
0.00175354
0.00176421
0.00177427
0.00178373
0.0017926
0.0018009
0.00180864
0.00181582
0.00182247
0.00182859
0.00183418
0.00183927
0.00184386
0.00184796
0.00185158
0.00185473
0.00185741
0.00185964
0.00186143
0.00186277
0.00186369
0.00186419
0.00186427
0.00186394
0.00186322
0.00186211
0.00186063
0.00185878
0.00185657
0.00185401
0.00185112
0.00184789
0.00184434
0.00184049
0.00183632
0.00183187
0.00182712
0.0018221
0.00181681
0.00181126
0.00180545
0.00179941
0.00179312
0.00178661
0.00177988
0.00177294
0.00176579
0.00175846
0.00175093
0.00174323
0.00173535
0.00172732
0.00171913
0.00171079
0.00170231
0.0016937
0.00168497
0.00167612
0.00166716
0.00165809
0.00164893
0.00163967
0.00163034
0.00162092
0.00161143
0.00160188
0.00159227
0.0015826
0.00157288
0.00156312
0.00155331
0.00154347
0.0015336
0.0015237
0.00151377
0.00150382
0.00149385
0.00148387
0.00147388
0.00146387
0.00145385
0.00144383
0.0014338
0.00142376
0.00141373
0.00140368
0.00139364
0.00138359
0.00137353
0.00136347
0.00135341
0.00134334
0.00133327
0.00132319
0.00131309
0.00130299
0.00129287
0.00128274
0.00127259
0.00126242
0.00125223
0.00124202
0.00123177
0.0012215
0.00121118
0.00120084
0.00119045
0.00118001
0.00116953
0.00115899
0.0011484
0.00113775
0.00112703
0.00111624
0.00110537
0.00109443
0.00108339
0.00107227
0.00106104
0.00104971
0.00103827
0.00102671
0.00101501
0.00100318
0.000991198
0.000979056
0.000966743
0.000954244
0.000941546
0.000928632
0.000915489
0.000902098
0.00088844
0.00087449
0.000860222
0.000845609
0.000830615
0.000815204
0.000799331
0.000782948
0.000765997
0.000748411
0.000730114
0.000711015
0.000691008
0.000669966
0.00064774
0.000624153
0.000598995
0.000572004
0.000542858
0.000511156
0.000476391
0.000437919
0.000394909
0.000346286
0.000290662
0.000226324
0.000151565
6.76161e-05
4.21788e-06
2.98753e-05
0.0001685
0.000324799
0.000462671
0.000580639
0.000681772
0.000769321
0.000846013
0.000914001
0.000974951
0.00103015
0.00108058
0.00112702
0.00117007
0.0012102
0.00124778
0.00128312
0.00131646
0.001348
0.00137791
0.00140633
0.00143337
0.00145913
0.00148369
0.00150713
0.0015295
0.00155088
0.00157129
0.00159079
0.00160941
0.00162719
0.00164416
0.00166034
0.00167576
0.00169045
0.00170442
0.0017177
0.0017303
0.00174224
0.00175355
0.00176422
0.00177428
0.00178374
0.00179261
0.00180091
0.00180865
0.00181583
0.00182248
0.00182859
0.00183419
0.00183928
0.00184387
0.00184797
0.00185159
0.00185473
0.00185742
0.00185965
0.00186143
0.00186278
0.0018637
0.00186419
0.00186428
0.00186395
0.00186323
0.00186212
0.00186063
0.00185878
0.00185657
0.00185402
0.00185112
0.0018479
0.00184435
0.00184049
0.00183633
0.00183187
0.00182713
0.00182211
0.00181681
0.00181126
0.00180546
0.00179941
0.00179313
0.00178661
0.00177988
0.00177294
0.0017658
0.00175846
0.00175093
0.00174323
0.00173536
0.00172732
0.00171913
0.00171079
0.00170232
0.00169371
0.00168497
0.00167612
0.00166716
0.00165809
0.00164893
0.00163968
0.00163034
0.00162092
0.00161144
0.00160188
0.00159227
0.0015826
0.00157288
0.00156312
0.00155331
0.00154347
0.0015336
0.0015237
0.00151377
0.00150382
0.00149386
0.00148387
0.00147388
0.00146387
0.00145385
0.00144383
0.0014338
0.00142377
0.00141373
0.00140368
0.00139364
0.00138359
0.00137353
0.00136347
0.00135341
0.00134334
0.00133327
0.00132319
0.00131309
0.00130299
0.00129287
0.00128274
0.00127259
0.00126242
0.00125223
0.00124202
0.00123177
0.0012215
0.00121118
0.00120084
0.00119045
0.00118001
0.00116953
0.00115899
0.0011484
0.00113775
0.00112703
0.00111624
0.00110537
0.00109443
0.00108339
0.00107227
0.00106104
0.00104971
0.00103827
0.0010267
0.00101501
0.00100318
0.000991197
0.000979056
0.000966742
0.000954244
0.000941545
0.000928631
0.000915488
0.000902098
0.000888439
0.000874489
0.000860221
0.000845608
0.000830614
0.000815203
0.00079933
0.000782947
0.000765996
0.00074841
0.000730113
0.000711014
0.000691007
0.000669965
0.00064774
0.000624153
0.000598994
0.000572003
0.000542858
0.000511156
0.000476391
0.000437919
0.00039491
0.000346286
0.000290662
0.000226325
0.000151565
6.76158e-05
4.2179e-06
3.50865e-05
0.00018526
0.000357833
0.000513989
0.000650313
0.000768947
0.000872761
0.00096438
0.00104599
0.00111936
0.00118589
0.00124669
0.00130264
0.00135444
0.00140266
0.00144773
0.00149004
0.00152987
0.00156748
0.00160306
0.0016368
0.00166884
0.0016993
0.00172828
0.00175588
0.00178218
0.00180725
0.00183115
0.00185394
0.00187566
0.00189636
0.00191608
0.00193485
0.00195271
0.00196969
0.00198582
0.00200112
0.00201562
0.00202935
0.00204231
0.00205454
0.00206604
0.00207685
0.00208698
0.00209644
0.00210525
0.00211342
0.00212097
0.00212792
0.00213427
0.00214004
0.00214524
0.00214988
0.00215398
0.00215755
0.00216059
0.00216312
0.00216515
0.00216669
0.00216775
0.00216834
0.00216846
0.00216813
0.00216736
0.00216616
0.00216453
0.0021625
0.00216007
0.00215726
0.00215406
0.0021505
0.00214658
0.00214232
0.00213771
0.00213278
0.00212752
0.00212196
0.00211609
0.00210993
0.00210349
0.00209678
0.0020898
0.00208256
0.00207508
0.00206736
0.00205941
0.00205124
0.00204286
0.00203428
0.0020255
0.00201653
0.00200739
0.00199808
0.00198861
0.00197898
0.00196921
0.0019593
0.00194926
0.0019391
0.00192882
0.00191843
0.00190794
0.00189736
0.00188669
0.00187594
0.00186511
0.00185421
0.00184325
0.00183222
0.00182115
0.00181002
0.00179885
0.00178763
0.00177638
0.0017651
0.00175378
0.00174244
0.00173107
0.00171968
0.00170827
0.00169685
0.0016854
0.00167394
0.00166246
0.00165097
0.00163946
0.00162794
0.00161641
0.00160486
0.00159329
0.00158171
0.0015701
0.00155848
0.00154684
0.00153517
0.00152347