/*--------------------------------*- C++ -*----------------------------------*\
  =========                 |
  \\      /  F ield         | OpenFOAM: The Open Source CFD Toolbox
   \\    /   O peration     | Website:  https://openfoam.org
    \\  /    A nd           | Version:  8
     \\/     M anipulation  |
\*---------------------------------------------------------------------------*/
FoamFile
{
    version     2.0;
    format      ascii;
    class       surfaceScalarField;
    location    "4300";
    object      phi;
}
// * * * * * * * * * * * * * * * * * * * * * * * * * * * * * * * * * * * * * //

dimensions      [1 0 -1 0 0 0 0];

internalField   nonuniform List<scalar> 
114370
(
7.55534e-10
1.95781e-13
-7.55732e-10
1.88568e-09
-3.98598e-13
-1.14185e-09
2.85377e-09
-8.78575e-13
-9.61739e-10
3.43697e-09
-5.22596e-13
-5.80754e-10
3.63591e-09
-1.32903e-13
-1.98465e-10
3.50212e-09
4.3446e-14
1.33692e-10
3.09674e-09
8.34898e-14
4.05244e-10
2.47582e-09
7.18301e-14
6.20842e-10
1.68596e-09
5.04627e-14
7.89818e-10
7.6436e-10
3.31602e-14
9.21591e-10
-2.5911e-10
2.17661e-14
1.02347e-09
-1.35975e-09
1.46231e-14
1.10065e-09
-2.5179e-09
1.007e-14
1.15815e-09
-3.71843e-09
7.12332e-15
1.20054e-09
-4.94912e-09
5.19905e-15
1.23069e-09
-6.19998e-09
3.93366e-15
1.25086e-09
-7.4628e-09
3.07051e-15
1.26282e-09
-8.73074e-09
2.44556e-15
1.26794e-09
-9.99808e-09
1.98325e-15
1.26735e-09
-1.126e-08
1.67522e-15
1.26194e-09
-1.25125e-08
1.5386e-15
1.25244e-09
-1.37519e-08
1.5754e-15
1.23944e-09
-1.49753e-08
1.75391e-15
1.22343e-09
-1.61802e-08
2.01123e-15
1.20483e-09
-1.73641e-08
2.27176e-15
1.18397e-09
-1.85253e-08
2.468e-15
1.16114e-09
-1.96619e-08
2.55668e-15
1.13658e-09
-2.07724e-08
2.52182e-15
1.11051e-09
-2.18555e-08
2.37344e-15
1.08309e-09
-2.291e-08
2.13605e-15
1.0545e-09
-2.39349e-08
1.83773e-15
1.02487e-09
-2.49293e-08
1.50949e-15
9.94324e-10
-2.58922e-08
1.17712e-15
9.62965e-10
-2.68231e-08
8.65302e-16
9.30894e-10
-2.77214e-08
5.93273e-16
8.982e-10
-2.85863e-08
3.75996e-16
8.64964e-10
-2.94176e-08
2.21766e-16
8.3126e-10
-3.02148e-08
1.40124e-16
7.97156e-10
-3.09775e-08
1.41044e-16
7.62716e-10
-3.17055e-08
2.3282e-16
7.28e-10
-3.23986e-08
4.16102e-16
6.93065e-10
-3.30565e-08
6.75008e-16
6.57963e-10
-3.36793e-08
9.7468e-16
6.22746e-10
-3.42667e-08
1.2666e-15
5.8746e-10
-3.48189e-08
1.50041e-15
5.52153e-10
-3.53357e-08
1.63517e-15
5.16869e-10
-3.58174e-08
1.65051e-15
4.81651e-10
-3.62639e-08
1.54816e-15
4.4654e-10
-3.66755e-08
1.34861e-15
4.11577e-10
-3.70523e-08
1.08504e-15
3.76801e-10
-3.73946e-08
7.94584e-16
3.42249e-10
-3.77026e-08
5.09221e-16
3.07959e-10
-3.79765e-08
2.52536e-16
2.73965e-10
-3.82169e-08
3.73204e-17
2.40305e-10
-3.84239e-08
-1.34906e-16
2.0701e-10
-3.8598e-08
-2.69348e-16
1.74116e-10
-3.87397e-08
-3.76089e-16
1.41653e-10
-3.88493e-08
-4.64669e-16
1.09654e-10
-3.89275e-08
-5.40835e-16
7.81469e-11
-3.89746e-08
-6.06105e-16
4.71582e-11
-3.89913e-08
-6.57605e-16
1.67118e-11
-3.89782e-08
-6.90891e-16
-1.31643e-11
-3.89357e-08
-7.01626e-16
-4.24409e-11
-3.88646e-08
-6.89321e-16
-7.10965e-11
-3.87655e-08
-6.57012e-16
-9.91146e-11
-3.8639e-08
-6.12073e-16
-1.26475e-10
-3.84858e-08
-5.63719e-16
-1.53157e-10
-3.83067e-08
-5.20406e-16
-1.79137e-10
-3.81023e-08
-4.88694e-16
-2.04396e-10
-3.78734e-08
-4.71889e-16
-2.28916e-10
-3.76207e-08
-4.68963e-16
-2.52681e-10
-3.7345e-08
-4.7715e-16
-2.75675e-10
-3.70471e-08
-4.91625e-16
-2.97885e-10
-3.67278e-08
-5.07672e-16
-3.193e-10
-3.63879e-08
-5.21334e-16
-3.39908e-10
-3.60282e-08
-5.3055e-16
-3.59701e-10
-3.56495e-08
-5.34075e-16
-3.7867e-10
-3.52527e-08
-5.31636e-16
-3.9681e-10
-3.48385e-08
-5.2421e-16
-4.14115e-10
-3.4408e-08
-5.13207e-16
-4.30582e-10
-3.39617e-08
-5.00089e-16
-4.46209e-10
-3.35007e-08
-4.86212e-16
-4.60995e-10
-3.30258e-08
-4.73636e-16
-4.7494e-10
-3.25377e-08
-4.63717e-16
-4.88046e-10
-3.20374e-08
-4.57104e-16
-5.00317e-10
-3.15257e-08
-4.53582e-16
-5.11757e-10
-3.10033e-08
-4.53095e-16
-5.22371e-10
-3.04711e-08
-4.53584e-16
-5.32166e-10
-2.993e-08
-4.53802e-16
-5.41151e-10
-2.93806e-08
-4.52502e-16
-5.49335e-10
-2.88239e-08
-4.48166e-16
-5.56727e-10
-2.82606e-08
-4.41174e-16
-5.6334e-10
-2.76914e-08
-4.31092e-16
-5.69186e-10
-2.71171e-08
-4.18841e-16
-5.74278e-10
-2.65385e-08
-4.04748e-16
-5.7863e-10
-2.59562e-08
-3.89787e-16
-5.82257e-10
-2.53711e-08
-3.74284e-16
-5.85176e-10
-2.47837e-08
-3.58238e-16
-5.87403e-10
-2.41947e-08
-3.4138e-16
-5.88955e-10
-2.36049e-08
-3.23546e-16
-5.8985e-10
-2.30148e-08
-3.03869e-16
-5.90106e-10
-2.2425e-08
-2.82131e-16
-5.89743e-10
-2.18363e-08
-2.59093e-16
-5.88779e-10
-2.1249e-08
-2.34103e-16
-5.87234e-10
-2.06639e-08
-2.083e-16
-5.85128e-10
-2.00815e-08
-1.82443e-16
-5.82481e-10
-1.95022e-08
-1.57128e-16
-5.79313e-10
-1.89265e-08
-1.32626e-16
-5.75643e-10
-1.8355e-08
-1.10021e-16
-5.71493e-10
-1.77882e-08
-8.89345e-17
-5.66882e-10
-1.72264e-08
-6.94741e-17
-5.61829e-10
-1.667e-08
-5.15857e-17
-5.56355e-10
-1.61196e-08
-3.45105e-17
-5.50479e-10
-1.55754e-08
-1.814e-17
-5.44219e-10
-1.50378e-08
-2.42009e-18
-5.37595e-10
-1.45072e-08
1.39503e-17
-5.30624e-10
-1.39839e-08
3.07544e-17
-5.23323e-10
-1.34682e-08
4.86427e-17
-5.15711e-10
-1.29604e-08
6.62057e-17
-5.07803e-10
-1.24608e-08
8.43108e-17
-4.99616e-10
-1.19697e-08
1.02849e-16
-4.91164e-10
-1.14873e-08
1.2128e-16
-4.82462e-10
-1.10138e-08
1.39168e-16
-4.73524e-10
-1.05494e-08
1.57381e-16
-4.64364e-10
-1.00945e-08
1.75486e-16
-4.54993e-10
-9.64909e-09
1.92398e-16
-4.45424e-10
-9.21345e-09
2.09418e-16
-4.35668e-10
-8.78775e-09
2.26655e-16
-4.25736e-10
-8.37215e-09
2.43133e-16
-4.15637e-10
-7.9668e-09
2.60478e-16
-4.0538e-10
-7.57186e-09
2.77064e-16
-3.94975e-10
-7.18747e-09
2.94518e-16
-3.84431e-10
-6.81376e-09
3.12079e-16
-3.73753e-10
-6.45084e-09
3.30616e-16
-3.62951e-10
-6.09885e-09
3.4937e-16
-3.52031e-10
-5.75789e-09
3.69208e-16
-3.41001e-10
-5.42807e-09
3.89154e-16
-3.29866e-10
-5.10948e-09
4.10942e-16
-3.18634e-10
-4.80221e-09
4.32839e-16
-3.07311e-10
-4.50635e-09
4.57121e-16
-2.95904e-10
-4.22198e-09
4.82812e-16
-2.84419e-10
-3.94916e-09
5.09369e-16
-2.72866e-10
-3.68796e-09
5.36035e-16
-2.6125e-10
-3.43843e-09
5.65628e-16
-2.4958e-10
-3.20061e-09
5.95003e-16
-2.37865e-10
-2.97455e-09
6.25245e-16
-2.26115e-10
-2.76026e-09
6.5527e-16
-2.14339e-10
-2.55776e-09
6.85186e-16
-2.02551e-10
-2.36705e-09
7.13692e-16
-1.90762e-10
-2.18812e-09
7.40571e-16
-1.78986e-10
-2.02094e-09
7.64522e-16
-1.67237e-10
-1.86546e-09
7.87496e-16
-1.55534e-10
-1.72162e-09
8.06784e-16
-1.43893e-10
-1.58934e-09
8.21842e-16
-1.32335e-10
-1.46852e-09
8.34406e-16
-1.2088e-10
-1.35903e-09
8.4209e-16
-1.09551e-10
-1.26071e-09
8.46413e-16
-9.83746e-11
-1.17339e-09
8.48132e-16
-8.7376e-11
-1.09687e-09
8.46165e-16
-7.65841e-11
-1.0309e-09
8.42244e-16
-6.60297e-11
-9.7521e-10
8.36589e-16
-5.57453e-11
-9.29504e-10
8.30499e-16
-4.57653e-11
-8.93437e-10
8.25492e-16
-3.61264e-11
-8.66629e-10
8.24387e-16
-2.68671e-11
-8.4866e-10
8.28269e-16
-1.80278e-11
-8.39068e-10
8.35402e-16
-9.65101e-12
-8.37346e-10
8.51208e-16
-1.78137e-12
-8.42942e-10
8.73949e-16
5.53643e-12
-8.55257e-10
9.01245e-16
1.2255e-11
-8.7364e-10
9.31143e-16
1.8323e-11
-8.97389e-10
9.6039e-16
2.36889e-11
-9.25749e-10
9.84865e-16
2.82991e-11
-9.5791e-10
9.99799e-16
3.20987e-11
-9.93004e-10
1.00606e-15
3.50309e-11
-1.03011e-09
1.00343e-15
3.70377e-11
-1.06823e-09
9.98193e-16
3.80592e-11
-1.10633e-09
9.9491e-16
3.80344e-11
-1.1433e-09
9.98132e-16
3.69007e-11
-1.17796e-09
1.01285e-15
3.45945e-11
-1.20908e-09
1.03277e-15
3.10511e-11
-1.23536e-09
1.05572e-15
2.62052e-11
-1.25543e-09
1.07564e-15
1.99918e-11
-1.26785e-09
1.09339e-15
1.23473e-11
-1.27114e-09
1.11722e-15
3.21166e-12
-1.26376e-09
1.15516e-15
-7.46405e-12
-1.24413e-09
1.21672e-15
-1.9716e-11
-1.21066e-09
1.30213e-15
-3.35642e-11
-1.16176e-09
1.40642e-15
-4.89926e-11
-1.09594e-09
1.52849e-15
-6.59241e-11
-1.01187e-09
1.67681e-15
-8.41817e-11
-9.0856e-10
1.85679e-15
-1.03422e-10
-7.85657e-10
2.07582e-15
-1.23026e-10
-6.43882e-10
2.32739e-15
-1.41907e-10
-4.85827e-10
2.60155e-15
-1.58198e-10
-3.17262e-10
2.91087e-15
-1.68721e-10
-1.49285e-10
3.25972e-15
-1.68146e-10
-1.59346e-12
3.63293e-15
-1.4788e-10
9.31606e-11
3.98024e-15
-9.49662e-11
9.30784e-11
4.77253e-15
-1.67223e-13
2.75356e-15
9.27829e-11
7.67962e-10
-7.67447e-10
1.88864e-09
-1.15306e-09
2.85201e-09
-9.67226e-10
3.43473e-09
-5.83044e-10
3.63435e-09
-1.99314e-10
3.50122e-09
1.3343e-10
3.09623e-09
4.05184e-10
2.47552e-09
6.20837e-10
1.68578e-09
7.89825e-10
7.64243e-10
9.21599e-10
-2.59188e-10
1.02348e-09
-1.3598e-09
1.10065e-09
-2.51793e-09
1.15815e-09
-3.71846e-09
1.20054e-09
-4.94913e-09
1.23069e-09
-6.19999e-09
1.25086e-09
-7.4628e-09
1.26282e-09
-8.73073e-09
1.26794e-09
-9.99808e-09
1.26735e-09
-1.126e-08
1.26194e-09
-1.25124e-08
1.25244e-09
-1.37519e-08
1.23944e-09
-1.49753e-08
1.22343e-09
-1.61801e-08
1.20483e-09
-1.73641e-08
1.18397e-09
-1.85253e-08
1.16114e-09
-1.96618e-08
1.13658e-09
-2.07724e-08
1.1105e-09
-2.18555e-08
1.08309e-09
-2.291e-08
1.0545e-09
-2.39349e-08
1.02487e-09
-2.49292e-08
9.94322e-10
-2.58922e-08
9.62963e-10
-2.68231e-08
9.30892e-10
-2.77213e-08
8.98198e-10
-2.85863e-08
8.64962e-10
-2.94176e-08
8.31258e-10
-3.02147e-08
7.97155e-10
-3.09774e-08
7.62716e-10
-3.17054e-08
7.28001e-10
-3.23985e-08
6.93066e-10
-3.30565e-08
6.57965e-10
-3.36792e-08
6.22747e-10
-3.42667e-08
5.87461e-10
-3.48188e-08
5.52154e-10
-3.53357e-08
5.16869e-10
-3.58173e-08
4.8165e-10
-3.62639e-08
4.46539e-10
-3.66755e-08
4.11576e-10
-3.70523e-08
3.76799e-10
-3.73945e-08
3.42247e-10
-3.77025e-08
3.07957e-10
-3.79765e-08
2.73964e-10
-3.82168e-08
2.40304e-10
-3.84238e-08
2.0701e-10
-3.8598e-08
1.74115e-10
-3.87396e-08
1.41653e-10
-3.88493e-08
1.09654e-10
-3.89274e-08
7.81473e-11
-3.89746e-08
4.71586e-11
-3.89913e-08
1.67123e-11
-3.89781e-08
-1.31636e-11
-3.89357e-08
-4.24401e-11
-3.88646e-08
-7.10956e-11
-3.87654e-08
-9.91136e-11
-3.8639e-08
-1.26474e-10
-3.84858e-08
-1.53155e-10
-3.83066e-08
-1.79136e-10
-3.81022e-08
-2.04395e-10
-3.78733e-08
-2.28915e-10
-3.76206e-08
-2.5268e-10
-3.73449e-08
-2.75674e-10
-3.7047e-08
-2.97885e-10
-3.67277e-08
-3.19299e-10
-3.63878e-08
-3.39907e-10
-3.60281e-08
-3.597e-10
-3.56494e-08
-3.78669e-10
-3.52526e-08
-3.96809e-10
-3.48385e-08
-4.14115e-10
-3.44079e-08
-4.30582e-10
-3.39617e-08
-4.46209e-10
-3.35007e-08
-4.60995e-10
-3.30258e-08
-4.7494e-10
-3.25377e-08
-4.88046e-10
-3.20374e-08
-5.00317e-10
-3.15256e-08
-5.11757e-10
-3.10033e-08
-5.22371e-10
-3.04711e-08
-5.32166e-10
-2.99299e-08
-5.41151e-10
-2.93806e-08
-5.49335e-10
-2.88239e-08
-5.56728e-10
-2.82605e-08
-5.63341e-10
-2.76914e-08
-5.69186e-10
-2.71171e-08
-5.74278e-10
-2.65385e-08
-5.7863e-10
-2.59562e-08
-5.82258e-10
-2.5371e-08
-5.85177e-10
-2.47836e-08
-5.87404e-10
-2.41947e-08
-5.88956e-10
-2.36048e-08
-5.89851e-10
-2.30147e-08
-5.90108e-10
-2.2425e-08
-5.89744e-10
-2.18362e-08
-5.88781e-10
-2.1249e-08
-5.87236e-10
-2.06639e-08
-5.8513e-10
-2.00814e-08
-5.82483e-10
-1.95021e-08
-5.79315e-10
-1.89265e-08
-5.75645e-10
-1.8355e-08
-5.71495e-10
-1.77882e-08
-5.66884e-10
-1.72263e-08
-5.61832e-10
-1.667e-08
-5.56358e-10
-1.61195e-08
-5.50482e-10
-1.55754e-08
-5.44222e-10
-1.50378e-08
-5.37598e-10
-1.45072e-08
-5.30627e-10
-1.39839e-08
-5.23327e-10
-1.34682e-08
-5.15715e-10
-1.29604e-08
-5.07807e-10
-1.24608e-08
-4.9962e-10
-1.19697e-08
-4.91168e-10
-1.14873e-08
-4.82466e-10
-1.10138e-08
-4.73529e-10
-1.05494e-08
-4.64368e-10
-1.00945e-08
-4.54998e-10
-9.64907e-09
-4.45429e-10
-9.21343e-09
-4.35673e-10
-8.78773e-09
-4.25741e-10
-8.37213e-09
-4.15642e-10
-7.96678e-09
-4.05386e-10
-7.57184e-09
-3.94981e-10
-7.18745e-09
-3.84436e-10
-6.81374e-09
-3.73759e-10
-6.45083e-09
-3.62957e-10
-6.09883e-09
-3.52037e-10
-5.75788e-09
-3.41007e-10
-5.42805e-09
-3.29872e-10
-5.10946e-09
-3.1864e-10
-4.8022e-09
-3.07317e-10
-4.50634e-09
-2.9591e-10
-4.22196e-09
-2.84426e-10
-3.94914e-09
-2.72873e-10
-3.68794e-09
-2.61257e-10
-3.43841e-09
-2.49587e-10
-3.2006e-09
-2.37872e-10
-2.97453e-09
-2.26122e-10
-2.76024e-09
-2.14347e-10
-2.55774e-09
-2.02559e-10
-2.36703e-09
-1.90769e-10
-2.1881e-09
-1.78993e-10
-2.02092e-09
-1.67245e-10
-1.86544e-09
-1.55542e-10
-1.7216e-09
-1.43901e-10
-1.58932e-09
-1.32343e-10
-1.4685e-09
-1.20888e-10
-1.35901e-09
-1.0956e-10
-1.26069e-09
-9.83826e-11
-1.17337e-09
-8.7384e-11
-1.09685e-09
-7.65921e-11
-1.03088e-09
-6.60376e-11
-9.75192e-10
-5.57531e-11
-9.29486e-10
-4.57731e-11
-8.93419e-10
-3.61341e-11
-8.66611e-10
-2.68747e-11
-8.48643e-10
-1.80353e-11
-8.39051e-10
-9.65842e-12
-8.37329e-10
-1.78871e-12
-8.42926e-10
5.52915e-12
-8.55241e-10
1.22477e-11
-8.73624e-10
1.83158e-11
-8.97374e-10
2.36817e-11
-9.25735e-10
2.82919e-11
-9.57896e-10
3.20914e-11
-9.92991e-10
3.50236e-11
-1.03009e-09
3.70303e-11
-1.06822e-09
3.80517e-11
-1.10632e-09
3.80268e-11
-1.14329e-09
3.6893e-11
-1.17795e-09
3.45866e-11
-1.20907e-09
3.10429e-11
-1.23535e-09
2.61967e-11
-1.25542e-09
1.99829e-11
-1.26784e-09
1.2338e-11
-1.27114e-09
3.20179e-12
-1.26376e-09
-7.47455e-12
-1.24413e-09
-1.97272e-11
-1.21066e-09
-3.35762e-11
-1.16176e-09
-4.90057e-11
-1.09594e-09
-6.59383e-11
-1.01187e-09
-8.41972e-11
-9.0856e-10
-1.03439e-10
-7.85658e-10
-1.23045e-10
-6.43884e-10
-1.41928e-10
-4.8583e-10
-1.58221e-10
-3.17266e-10
-1.68746e-10
-1.49291e-10
-1.68175e-10
-1.60204e-12
-1.47912e-10
9.31453e-11
-9.50016e-11
9.30515e-11
-2.08361e-13
9.27373e-11
1.15537e-09
5.0596e-13
-1.89906e-09
1.83402e-09
6.60655e-14
-1.82071e-09
2.18476e-09
-1.04566e-13
-1.31168e-09
2.282e-09
-8.0052e-14
-6.77752e-10
2.14758e-09
-1.47364e-14
-6.39914e-11
1.80493e-09
1.83122e-14
4.76353e-10
1.28034e-09
2.51245e-14
9.29838e-10
6.00457e-10
2.10731e-14
1.30073e-09
-2.091e-10
1.50315e-14
1.59939e-09
-1.12461e-09
1.01037e-14
1.83712e-09
-2.12533e-09
6.732e-15
2.0242e-09
-3.19401e-09
4.53528e-15
2.16935e-09
-4.31597e-09
3.0948e-15
2.28012e-09
-5.47848e-09
2.15351e-15
2.36306e-09
-6.67086e-09
1.54464e-15
2.42307e-09
-7.88409e-09
1.13928e-15
2.4641e-09
-9.11055e-09
8.467e-16
2.48928e-09
-1.03438e-08
6.19661e-16
2.50117e-09
-1.15782e-08
4.46156e-16
2.5018e-09
-1.28092e-08
3.31225e-16
2.49288e-09
-1.40325e-08
2.78826e-16
2.47579e-09
-1.52447e-08
2.81397e-16
2.45166e-09
-1.64428e-08
3.20098e-16
2.42147e-09
-1.76239e-08
3.70727e-16
2.38599e-09
-1.87859e-08
4.113e-16
2.34591e-09
-1.99266e-08
4.26692e-16
2.30181e-09
-2.10442e-08
4.09775e-16
2.25416e-09
-2.21371e-08
3.61634e-16
2.20339e-09
-2.32038e-08
2.88745e-16
2.14986e-09
-2.42433e-08
2.00868e-16
2.0939e-09
-2.52542e-08
1.0738e-16
2.03579e-09
-2.62357e-08
1.48952e-17
1.97576e-09
-2.71868e-08
-7.23312e-17
1.91405e-09
-2.81067e-08
-1.5045e-16
1.85086e-09
-2.89949e-08
-2.12387e-16
1.78636e-09
-2.98507e-08
-2.4852e-16
1.72072e-09
-3.06735e-08
-2.49173e-16
1.6541e-09
-3.1463e-08
-2.08381e-16
1.58663e-09
-3.22187e-08
-1.28261e-16
1.51844e-09
-3.29404e-08
-1.89746e-17
1.44966e-09
-3.36277e-08
1.01939e-16
1.38039e-09
-3.42805e-08
2.14099e-16
1.31076e-09
-3.48986e-08
2.98231e-16
1.24086e-09
-3.54819e-08
3.40392e-16
1.17078e-09
-3.60304e-08
3.34753e-16
1.10063e-09
-3.6544e-08
2.83672e-16
1.0305e-09
-3.70229e-08
1.9665e-16
9.60462e-10
-3.74669e-08
8.73887e-17
8.90617e-10
-3.78764e-08
-2.90964e-17
8.21041e-10
-3.82515e-08
-1.38656e-16
7.51813e-10
-3.85922e-08
-2.30557e-16
6.8301e-10
-3.8899e-08
-2.98171e-16
6.14705e-10
-3.9172e-08
-3.39196e-16
5.46972e-10
-3.94116e-08
-3.5569e-16
4.7988e-10
-3.96181e-08
-3.52316e-16
4.13496e-10
-3.97919e-08
-3.3562e-16
3.47888e-10
-3.99333e-08
-3.11579e-16
2.83118e-10
-4.00429e-08
-2.848e-16
2.19249e-10
-4.01211e-08
-2.57329e-16
1.56339e-10
-4.01684e-08
-2.29087e-16
9.44448e-11
-4.01853e-08
-1.98594e-16
3.36203e-11
-4.01724e-08
-1.64619e-16
-2.60822e-11
-4.01302e-08
-1.2674e-16
-8.46139e-11
-4.00594e-08
-8.61642e-17
-1.41928e-10
-3.99605e-08
-4.5453e-17
-1.9798e-10
-3.98342e-08
-7.53359e-18
-2.52727e-10
-3.96812e-08
2.42872e-17
-3.06127e-10
-3.95022e-08
4.80577e-17
-3.58139e-10
-3.92979e-08
6.31547e-17
-4.08725e-10
-3.90689e-08
6.99711e-17
-4.5785e-10
-3.88161e-08
7.03907e-17
-5.05483e-10
-3.85402e-08
6.64463e-17
-5.51593e-10
-3.82419e-08
6.06453e-17
-5.96153e-10
-3.79221e-08
5.49257e-17
-6.39141e-10
-3.75814e-08
5.06832e-17
-6.80534e-10
-3.72208e-08
4.88125e-17
-7.20315e-10
-3.6841e-08
4.97336e-17
-7.58468e-10
-3.64428e-08
5.33652e-17
-7.94981e-10
-3.60271e-08
5.90974e-17
-8.29843e-10
-3.55946e-08
6.64559e-17
-8.63047e-10
-3.51462e-08
7.4587e-17
-8.94589e-10
-3.46828e-08
8.24741e-17
-9.24466e-10
-3.4205e-08
8.93583e-17
-9.5268e-10
-3.37138e-08
9.46704e-17
-9.79234e-10
-3.321e-08
9.82207e-17
-1.00413e-09
-3.26944e-08
1.00334e-16
-1.02739e-09
-3.21677e-08
1.01201e-16
-1.04901e-09
-3.16309e-08
1.01824e-16
-1.06901e-09
-3.10847e-08
1.02529e-16
-1.0874e-09
-3.05298e-08
1.03992e-16
-1.1042e-09
-2.99671e-08
1.0616e-16
-1.11944e-09
-2.93973e-08
1.09087e-16
-1.13313e-09
-2.88212e-08
1.1261e-16
-1.1453e-09
-2.82395e-08
1.16242e-16
-1.15597e-09
-2.7653e-08
1.19656e-16
-1.16517e-09
-2.70623e-08
1.2261e-16
-1.17294e-09
-2.64682e-08
1.25185e-16
-1.17929e-09
-2.58713e-08
1.27434e-16
-1.18427e-09
-2.52724e-08
1.29494e-16
-1.18791e-09
-2.4672e-08
1.31472e-16
-1.19023e-09
-2.40708e-08
1.33667e-16
-1.19129e-09
-2.34695e-08
1.35916e-16
-1.1911e-09
-2.28685e-08
1.38193e-16
-1.18972e-09
-2.22686e-08
1.40442e-16
-1.18717e-09
-2.16702e-08
1.42529e-16
-1.18351e-09
-2.1074e-08
1.44046e-16
-1.17875e-09
-2.04804e-08
1.44669e-16
-1.17295e-09
-1.98899e-08
1.44587e-16
-1.16614e-09
-1.9303e-08
1.43719e-16
-1.15836e-09
-1.87203e-08
1.42093e-16
-1.14965e-09
-1.81421e-08
1.39815e-16
-1.14005e-09
-1.75689e-08
1.36942e-16
-1.12959e-09
-1.7001e-08
1.33932e-16
-1.11832e-09
-1.6439e-08
1.30679e-16
-1.10626e-09
-1.58832e-08
1.27372e-16
-1.09346e-09
-1.53339e-08
1.24119e-16
-1.07995e-09
-1.47915e-08
1.20838e-16
-1.06576e-09
-1.42563e-08
1.17639e-16
-1.05093e-09
-1.37286e-08
1.14331e-16
-1.03548e-09
-1.32088e-08
1.10834e-16
-1.01946e-09
-1.26971e-08
1.07201e-16
-1.00288e-09
-1.21938e-08
1.03053e-16
-9.85777e-10
-1.16992e-08
9.8634e-17
-9.68177e-10
-1.12135e-08
9.38624e-17
-9.50106e-10
-1.0737e-08
8.86571e-17
-9.31588e-10
-1.02698e-08
8.31535e-17
-9.12646e-10
-9.81217e-09
7.72161e-17
-8.93302e-10
-9.36437e-09
7.10347e-17
-8.73576e-10
-8.92656e-09
6.46091e-17
-8.53488e-10
-8.49892e-09
5.79666e-17
-8.33056e-10
-8.08164e-09
5.11614e-17
-8.12297e-10
-7.67488e-09
4.42475e-17
-7.91227e-10
-7.27882e-09
3.72251e-17
-7.69863e-10
-6.89359e-09
3.01211e-17
-7.48219e-10
-6.51936e-09
2.29086e-17
-7.26309e-10
-6.15626e-09
1.58313e-17
-7.04146e-10
-5.80442e-09
8.80802e-18
-6.81746e-10
-5.46398e-09
1.67607e-18
-6.5912e-10
-5.13506e-09
-5.13088e-18
-6.36282e-10
-4.81776e-09
-1.1911e-17
-6.13247e-10
-4.5122e-09
-1.85559e-17
-5.90028e-10
-4.21848e-09
-2.53366e-17
-5.6664e-10
-3.93668e-09
-3.17111e-17
-5.43099e-10
-3.66689e-09
-3.82757e-17
-5.19421e-10
-3.40918e-09
-4.44612e-17
-4.95625e-10
-3.16362e-09
-5.10266e-17
-4.71731e-10
-2.93025e-09
-5.77279e-17
-4.4776e-10
-2.70912e-09
-6.44567e-17
-4.23735e-10
-2.50025e-09
-7.14571e-17
-3.99681e-10
-2.30367e-09
-7.85122e-17
-3.75628e-10
-2.11936e-09
-8.59472e-17
-3.51606e-10
-1.9473e-09
-9.31117e-17
-3.27648e-10
-1.78746e-09
-1.00494e-16
-3.0379e-10
-1.63978e-09
-1.0793e-16
-2.80073e-10
-1.50418e-09
-1.14988e-16
-2.5654e-10
-1.38055e-09
-1.21775e-16
-2.33238e-10
-1.26877e-09
-1.27696e-16
-2.10216e-10
-1.16868e-09
-1.33292e-16
-1.87529e-10
-1.08008e-09
-1.37751e-16
-1.65234e-10
-1.00278e-09
-1.41396e-16
-1.43395e-10
-9.36508e-10
-1.43634e-16
-1.22076e-10
-8.80985e-10
-1.44083e-16
-1.01348e-10
-8.35887e-10
-1.43014e-16
-8.12836e-11
-8.00852e-10
-1.39724e-16
-6.19618e-11
-7.75475e-10
-1.34104e-16
-4.34642e-11
-7.59309e-10
-1.26479e-16
-2.58765e-11
-7.51862e-10
-1.16957e-16
-9.28831e-12
-7.52594e-10
-1.05592e-16
6.20823e-12
-7.60916e-10
-9.31443e-17
2.0517e-11
-7.76191e-10
-8.09144e-17
3.35369e-11
-7.97727e-10
-6.94442e-17
4.51636e-11
-8.24781e-10
-5.94386e-17
5.52899e-11
-8.56551e-10
-5.19816e-17
6.38057e-11
-8.92182e-10
-4.59891e-17
7.05981e-11
-9.30762e-10
-4.06479e-17
7.55517e-11
-9.71318e-10
-3.40606e-17
7.85488e-11
-1.01282e-09
-2.50346e-17
7.94697e-11
-1.05418e-09
-1.23229e-17
7.81934e-11
-1.09426e-09
3.42399e-18
7.45977e-11
-1.13184e-09
2.0905e-17
6.85608e-11
-1.16567e-09
3.73556e-17
5.9962e-11
-1.19444e-09
5.24505e-17
4.86841e-11
-1.21679e-09
6.6515e-17
3.46163e-11
-1.23132e-09
8.17174e-17
1.76591e-11
-1.23661e-09
9.96273e-17
-2.26668e-12
-1.23121e-09
1.20142e-16
-2.52074e-11
-1.21371e-09
1.41307e-16
-5.1167e-11
-1.18272e-09
1.60252e-16
-8.00809e-11
-1.13699e-09
1.75511e-16
-1.11769e-10
-1.07541e-09
1.90773e-16
-1.45873e-10
-9.97207e-10
2.04088e-16
-1.81753e-10
-9.02046e-10
2.12531e-16
-2.18322e-10
-7.90314e-10
2.10251e-16
-2.53784e-10
-6.63453e-10
2.00402e-16
-2.85218e-10
-5.24427e-10
1.93404e-16
-3.0792e-10
-3.78326e-10
1.92973e-16
-3.1444e-10
-2.3313e-10
2.04154e-16
-2.93296e-10
-1.00864e-10
2.53562e-16
-2.27494e-10
-6.18303e-12
5.44338e-16
-9.51876e-11
-1.2626e-15
8.63558e-11
1.16388e-09
-1.899e-09
1.83786e-09
-1.82371e-09
2.18593e-09
-1.31339e-09
2.28204e-09
-6.78607e-10
2.14731e-09
-6.4413e-11
1.80466e-09
4.76161e-10
1.28014e-09
9.29758e-10
6.00323e-10
1.3007e-09
-2.09186e-10
1.59938e-09
-1.12467e-09
1.83711e-09
-2.12536e-09
2.0242e-09
-3.19404e-09
2.16935e-09
-4.31599e-09
2.28011e-09
-5.47849e-09
2.36306e-09
-6.67086e-09
2.42307e-09
-7.88408e-09
2.4641e-09
-9.11054e-09
2.48928e-09
-1.03438e-08
2.50116e-09
-1.15782e-08
2.5018e-09
-1.28091e-08
2.49288e-09
-1.40325e-08
2.47579e-09
-1.52447e-08
2.45166e-09
-1.64428e-08
2.42147e-09
-1.76239e-08
2.38599e-09
-1.87859e-08
2.34591e-09
-1.99265e-08
2.30181e-09
-2.10441e-08
2.25416e-09
-2.2137e-08
2.20339e-09
-2.32038e-08
2.14986e-09
-2.42432e-08
2.0939e-09
-2.52542e-08
2.03578e-09
-2.62356e-08
1.97576e-09
-2.71867e-08
1.91405e-09
-2.81067e-08
1.85086e-09
-2.89949e-08
1.78636e-09
-2.98506e-08
1.72072e-09
-3.06735e-08
1.6541e-09
-3.1463e-08
1.58663e-09
-3.22187e-08
1.51844e-09
-3.29403e-08
1.44966e-09
-3.36277e-08
1.3804e-09
-3.42805e-08
1.31076e-09
-3.48986e-08
1.24086e-09
-3.54819e-08
1.17078e-09
-3.60304e-08
1.10063e-09
-3.6544e-08
1.0305e-09
-3.70228e-08
9.60462e-10
-3.74669e-08
8.90617e-10
-3.78764e-08
8.21041e-10
-3.82514e-08
7.51813e-10
-3.85922e-08
6.8301e-10
-3.88989e-08
6.14705e-10
-3.9172e-08
5.46972e-10
-3.94116e-08
4.7988e-10
-3.96181e-08
4.13497e-10
-3.97918e-08
3.47888e-10
-3.99333e-08
2.83118e-10
-4.00429e-08
2.19249e-10
-4.01211e-08
1.56339e-10
-4.01684e-08
9.44449e-11
-4.01853e-08
3.36204e-11
-4.01723e-08
-2.60821e-11
-4.01302e-08
-8.46138e-11
-4.00593e-08
-1.41928e-10
-3.99604e-08
-1.9798e-10
-3.98342e-08
-2.52727e-10
-3.96812e-08
-3.06126e-10
-3.95022e-08
-3.58138e-10
-3.92978e-08
-4.08725e-10
-3.90689e-08
-4.5785e-10
-3.88161e-08
-5.05483e-10
-3.85402e-08
-5.51592e-10
-3.82419e-08
-5.96153e-10
-3.7922e-08
-6.39141e-10
-3.75814e-08
-6.80534e-10
-3.72208e-08
-7.20315e-10
-3.6841e-08
-7.58468e-10
-3.64428e-08
-7.94981e-10
-3.60271e-08
-8.29843e-10
-3.55946e-08
-8.63047e-10
-3.51462e-08
-8.94589e-10
-3.46827e-08
-9.24466e-10
-3.4205e-08
-9.5268e-10
-3.37138e-08
-9.79234e-10
-3.321e-08
-1.00413e-09
-3.26943e-08
-1.02739e-09
-3.21677e-08
-1.04901e-09
-3.16309e-08
-1.06901e-09
-3.10846e-08
-1.0874e-09
-3.05298e-08
-1.1042e-09
-2.9967e-08
-1.11944e-09
-2.93973e-08
-1.13313e-09
-2.88211e-08
-1.1453e-09
-2.82395e-08
-1.15597e-09
-2.76529e-08
-1.16517e-09
-2.70622e-08
-1.17294e-09
-2.64681e-08
-1.17929e-09
-2.58713e-08
-1.18427e-09
-2.52723e-08
-1.18791e-09
-2.4672e-08
-1.19023e-09
-2.40708e-08
-1.19129e-09
-2.34694e-08
-1.1911e-09
-2.28685e-08
-1.18972e-09
-2.22686e-08
-1.18718e-09
-2.16702e-08
-1.18351e-09
-2.1074e-08
-1.17875e-09
-2.04803e-08
-1.17295e-09
-1.98899e-08
-1.16614e-09
-1.9303e-08
-1.15836e-09
-1.87203e-08
-1.14965e-09
-1.81421e-08
-1.14005e-09
-1.75688e-08
-1.12959e-09
-1.7001e-08
-1.11832e-09
-1.6439e-08
-1.10626e-09
-1.58832e-08
-1.09346e-09
-1.53339e-08
-1.07995e-09
-1.47914e-08
-1.06576e-09
-1.42563e-08
-1.05093e-09
-1.37286e-08
-1.03548e-09
-1.32088e-08
-1.01946e-09
-1.26971e-08
-1.00288e-09
-1.21938e-08
-9.85778e-10
-1.16992e-08
-9.68178e-10
-1.12135e-08
-9.50107e-10
-1.07369e-08
-9.31589e-10
-1.02698e-08
-9.12647e-10
-9.81215e-09
-8.93303e-10
-9.36435e-09
-8.73577e-10
-8.92654e-09
-8.53489e-10
-8.4989e-09
-8.33057e-10
-8.08162e-09
-8.12298e-10
-7.67487e-09
-7.91229e-10
-7.2788e-09
-7.69864e-10
-6.89357e-09
-7.4822e-10
-6.51934e-09
-7.2631e-10
-6.15624e-09
-7.04148e-10
-5.8044e-09
-6.81747e-10
-5.46396e-09
-6.59121e-10
-5.13504e-09
-6.36284e-10
-4.81774e-09
-6.13249e-10
-4.51218e-09
-5.9003e-10
-4.21846e-09
-5.66641e-10
-3.93666e-09
-5.431e-10
-3.66687e-09
-5.19423e-10
-3.40916e-09
-4.95627e-10
-3.1636e-09
-4.71733e-10
-2.93023e-09
-4.47761e-10
-2.7091e-09
-4.23736e-10
-2.50024e-09
-3.99683e-10
-2.30365e-09
-3.7563e-10
-2.11934e-09
-3.51607e-10
-1.94728e-09
-3.27649e-10
-1.78744e-09
-3.03792e-10
-1.63976e-09
-2.80075e-10
-1.50416e-09
-2.56541e-10
-1.38053e-09
-2.33239e-10
-1.26875e-09
-2.10217e-10
-1.16866e-09
-1.8753e-10
-1.08007e-09
-1.65235e-10
-1.00276e-09
-1.43396e-10
-9.36491e-10
-1.22077e-10
-8.80969e-10
-1.01348e-10
-8.35871e-10
-8.12842e-11
-8.00836e-10
-6.19623e-11
-7.7546e-10
-4.34646e-11
-7.59294e-10
-2.58769e-11
-7.51847e-10
-9.28864e-12
-7.52579e-10
6.20796e-12
-7.60902e-10
2.05168e-11
-7.76177e-10
3.35367e-11
-7.97714e-10
4.51634e-11
-8.24767e-10
5.52898e-11
-8.56538e-10
6.38056e-11
-8.9217e-10
7.0598e-11
-9.3075e-10
7.55517e-11
-9.71306e-10
7.85488e-11
-1.01281e-09
7.94697e-11
-1.05417e-09
7.81933e-11
-1.09425e-09
7.45976e-11
-1.13183e-09
6.85606e-11
-1.16566e-09
5.99618e-11
-1.19443e-09
4.86837e-11
-1.21679e-09
3.46157e-11
-1.23132e-09
1.76584e-11
-1.2366e-09
-2.26758e-12
-1.23121e-09
-2.52085e-11
-1.2137e-09
-5.11684e-11
-1.18272e-09
-8.00826e-11
-1.13698e-09
-1.11771e-10
-1.07541e-09
-1.45876e-10
-9.97207e-10
-1.81756e-10
-9.02046e-10
-2.18326e-10
-7.90316e-10
-2.53789e-10
-6.63454e-10
-2.85223e-10
-5.24429e-10
-3.07926e-10
-3.78329e-10
-3.14448e-10
-2.33135e-10
-2.93305e-10
-1.00874e-10
-2.27505e-10
-6.2068e-12
-9.52012e-11
8.63391e-11
9.37471e-10
9.45796e-13
-2.8428e-09
1.28642e-09
2.73396e-13
-2.17081e-09
1.31125e-09
8.31872e-14
-1.33668e-09
1.13892e-09
2.36544e-14
-5.05439e-10
8.10107e-10
1.51195e-14
2.64813e-10
3.43065e-10
1.45361e-14
9.43391e-10
-2.49195e-10
1.27711e-14
1.5221e-09
-9.53499e-10
9.90296e-15
2.00504e-09
-1.7559e-09
7.09537e-15
2.40179e-09
-2.64243e-09
4.88158e-15
2.72365e-09
-3.59979e-09
3.31826e-15
2.98157e-09
-4.61583e-09
2.25972e-15
3.1854e-09
-5.67954e-09
1.55496e-15
3.34382e-09
-6.78083e-09
1.10125e-15
3.46436e-09
-7.91086e-09
8.11781e-16
3.55311e-09
-9.06187e-09
6.13029e-16
3.61512e-09
-1.02271e-08
4.60911e-16
3.65452e-09
-1.14006e-08
3.41076e-16
3.67472e-09
-1.25774e-08
2.54987e-16
3.67853e-09
-1.37528e-08
2.04405e-16
3.66827e-09
-1.49229e-08
1.85117e-16
3.6459e-09
-1.60842e-08
1.86686e-16
3.61303e-09
-1.72338e-08
1.96523e-16
3.57104e-09
-1.83689e-08
2.03392e-16
3.52107e-09
-1.94871e-08
2.00001e-16
3.46411e-09
-2.05863e-08
1.8295e-16
3.401e-09
-2.16646e-08
1.52048e-16
3.33246e-09
-2.27203e-08
1.096e-16
3.25912e-09
-2.3752e-08
5.99818e-17
3.18153e-09
-2.47583e-08
8.03313e-18
3.10017e-09
-2.57379e-08
-4.23298e-17
3.01545e-09
-2.66899e-08
-8.99957e-17
2.92775e-09
-2.76133e-08
-1.33989e-16
2.83742e-09
-2.85072e-08
-1.70325e-16
2.74476e-09
-2.93709e-08
-1.90194e-16
2.65003e-09
-3.02037e-08
-1.83961e-16
2.5535e-09
-3.1005e-08
-1.47357e-16
2.45539e-09
-3.17743e-08
-8.50713e-17
2.35593e-09
-3.25111e-08
-1.10757e-17
2.2553e-09
-3.32152e-08
5.70517e-17
2.1537e-09
-3.38861e-08
1.04362e-16
2.0513e-09
-3.45236e-08
1.23023e-16
1.94828e-09
-3.51275e-08
1.12478e-16
1.84477e-09
-3.56977e-08
7.79997e-17
1.74095e-09
-3.6234e-08
2.7597e-17
1.63695e-09
-3.67364e-08
-3.049e-17
1.53291e-09
-3.72049e-08
-8.91327e-17
1.42896e-09
-3.76395e-08
-1.42923e-16
1.32524e-09
-3.80404e-08
-1.88366e-16
1.22187e-09
-3.84075e-08
-2.2359e-16
1.11897e-09
-3.87412e-08
-2.48039e-16
1.01665e-09
-3.90415e-08
-2.62094e-16
9.15037e-10
-3.93088e-08
-2.66946e-16
8.1423e-10
-3.95432e-08
-2.63965e-16
7.1434e-10
-3.97452e-08
-2.54533e-16
6.15467e-10
-3.9915e-08
-2.39938e-16
5.17714e-10
-4.00531e-08
-2.21005e-16
4.21175e-10
-4.01598e-08
-1.98319e-16
3.25945e-10
-4.02356e-08
-1.7238e-16
2.32114e-10
-4.02809e-08
-1.43812e-16
1.39766e-10
-4.02962e-08
-1.13617e-16
4.89845e-11
-4.02822e-08
-8.28802e-17
-4.01513e-11
-4.02392e-08
-5.28618e-17
-1.27566e-10
-4.0168e-08
-2.50117e-17
-2.13185e-10
-4.0069e-08
-2.516e-19
-2.96941e-10
-3.99429e-08
2.05918e-17
-3.78767e-10
-3.97905e-08
3.70171e-17
-4.58601e-10
-3.96122e-08
4.88346e-17
-5.36381e-10
-3.94089e-08
5.63017e-17
-6.12052e-10
-3.91812e-08
5.98793e-17
-6.85561e-10
-3.89298e-08
6.03263e-17
-7.5686e-10
-3.86555e-08
5.86048e-17
-8.25904e-10
-3.8359e-08
5.57992e-17
-8.92653e-10
-3.8041e-08
5.30206e-17
-9.57071e-10
-3.77024e-08
5.1123e-17
-1.01913e-09
-3.7344e-08
5.05807e-17
-1.07879e-09
-3.69664e-08
5.19764e-17
-1.13604e-09
-3.65705e-08
5.52016e-17
-1.19086e-09
-3.61571e-08
5.99177e-17
-1.24323e-09
-3.5727e-08
6.55011e-17
-1.29314e-09
-3.5281e-08
7.13149e-17
-1.34058e-09
-3.482e-08
7.66951e-17
-1.38555e-09
-3.43446e-08
8.11944e-17
-1.42805e-09
-3.38557e-08
8.45959e-17
-1.46808e-09
-3.33542e-08
8.69267e-17
-1.50566e-09
-3.28408e-08
8.85935e-17
-1.54079e-09
-3.23163e-08
8.97589e-17
-1.57349e-09
-3.17816e-08
9.0992e-17
-1.60378e-09
-3.12373e-08
9.25233e-17
-1.63168e-09
-3.06843e-08
9.43798e-17
-1.65722e-09
-3.01233e-08
9.65481e-17
-1.68043e-09
-2.95551e-08
9.89332e-17
-1.70134e-09
-2.89804e-08
1.01373e-16
-1.71998e-09
-2.84e-08
1.03541e-16
-1.73639e-09
-2.78145e-08
1.05411e-16
-1.75061e-09
-2.72248e-08
1.06915e-16
-1.76269e-09
-2.66314e-08
1.08162e-16
-1.77267e-09
-2.60351e-08
1.09192e-16
-1.7806e-09
-2.54365e-08
1.10073e-16
-1.78652e-09
-2.48362e-08
1.10967e-16
-1.79048e-09
-2.4235e-08
1.11875e-16
-1.79254e-09
-2.36333e-08
1.12891e-16
-1.79276e-09
-2.30319e-08
1.13799e-16
-1.79117e-09
-2.24312e-08
1.1449e-16
-1.78785e-09
-2.18319e-08
1.151e-16
-1.78284e-09
-2.12344e-08
1.1529e-16
-1.77621e-09
-2.06394e-08
1.151e-16
-1.768e-09
-2.00473e-08
1.14409e-16
-1.75827e-09
-1.94585e-08
1.13379e-16
-1.74709e-09
-1.88737e-08
1.11955e-16
-1.73451e-09
-1.82932e-08
1.10343e-16
-1.72057e-09
-1.77174e-08
1.08554e-16
-1.70535e-09
-1.71469e-08
1.06656e-16