/*--------------------------------*- C++ -*----------------------------------*\
  =========                 |
  \\      /  F ield         | OpenFOAM: The Open Source CFD Toolbox
   \\    /   O peration     | Website:  https://openfoam.org
    \\  /    A nd           | Version:  8
     \\/     M anipulation  |
\*---------------------------------------------------------------------------*/
FoamFile
{
    version     2.0;
    format      ascii;
    class       volScalarField;
    location    "4300";
    object      T;
}
// * * * * * * * * * * * * * * * * * * * * * * * * * * * * * * * * * * * * * //

dimensions      [0 0 0 1 0 0 0];

internalField   nonuniform List<scalar> 
46000
(
309.749
308.57
307.775
307.266
306.901
306.612
306.371
306.164
305.981
305.818
305.668
305.531
305.404
305.287
305.177
305.074
304.977
304.885
304.798
304.716
304.638
304.564
304.493
304.426
304.362
304.301
304.243
304.188
304.135
304.085
304.037
303.991
303.947
303.905
303.865
303.827
303.791
303.757
303.724
303.692
303.663
303.635
303.608
303.582
303.558
303.536
303.514
303.494
303.475
303.457
303.44
303.425
303.41
303.397
303.384
303.373
303.362
303.352
303.344
303.336
303.329
303.323
303.318
303.314
303.31
303.307
303.305
303.304
303.304
303.305
303.306
303.308
303.311
303.315
303.319
303.324
303.33
303.336
303.344
303.352
303.36
303.37
303.38
303.391
303.402
303.414
303.427
303.44
303.454
303.469
303.484
303.5
303.517
303.534
303.552
303.57
303.589
303.609
303.629
303.65
303.671
303.693
303.715
303.738
303.762
303.786
303.81
303.835
303.861
303.887
303.914
303.941
303.969
303.997
304.026
304.055
304.084
304.114
304.145
304.176
304.208
304.24
304.272
304.305
304.339
304.373
304.407
304.442
304.477
304.513
304.55
304.587
304.624
304.662
304.7
304.739
304.779
304.819
304.859
304.9
304.942
304.984
305.027
305.07
305.114
305.159
305.204
305.25
305.296
305.343
305.391
305.439
305.488
305.537
305.588
305.638
305.69
305.742
305.796
305.849
305.904
305.959
306.015
306.072
306.13
306.188
306.248
306.308
306.369
306.431
306.494
306.559
306.624
306.691
306.759
306.828
306.899
306.972
307.046
307.123
307.202
307.284
307.369
307.457
307.549
307.645
307.747
307.854
307.969
308.093
308.228
308.378
308.545
308.736
308.96
309.232
309.578
310.045
310.683
311.315
309.746
308.569
307.774
307.266
306.901
306.612
306.371
306.164
305.981
305.818
305.668
305.531
305.404
305.287
305.177
305.074
304.977
304.885
304.798
304.716
304.638
304.564
304.493
304.426
304.362
304.301
304.243
304.188
304.135
304.085
304.037
303.991
303.947
303.905
303.865
303.827
303.791
303.757
303.724
303.692
303.663
303.635
303.608
303.582
303.558
303.536
303.514
303.494
303.475
303.457
303.44
303.425
303.41
303.397
303.384
303.373
303.362
303.352
303.344
303.336
303.329
303.323
303.318
303.314
303.31
303.307
303.305
303.304
303.304
303.305
303.306
303.308
303.311
303.315
303.319
303.324
303.33
303.336
303.344
303.352
303.36
303.37
303.38
303.391
303.402
303.414
303.427
303.44
303.454
303.469
303.484
303.5
303.517
303.534
303.552
303.57
303.589
303.609
303.629
303.65
303.671
303.693
303.715
303.738
303.762
303.786
303.81
303.835
303.861
303.887
303.914
303.941
303.969
303.997
304.026
304.055
304.084
304.114
304.145
304.176
304.208
304.24
304.272
304.305
304.339
304.373
304.407
304.442
304.477
304.513
304.55
304.587
304.624
304.662
304.7
304.739
304.779
304.819
304.859
304.9
304.942
304.984
305.027
305.07
305.114
305.159
305.204
305.25
305.296
305.343
305.391
305.439
305.488
305.537
305.588
305.639
305.69
305.743
305.796
305.849
305.904
305.959
306.015
306.072
306.13
306.189
306.248
306.308
306.369
306.431
306.494
306.559
306.624
306.691
306.759
306.828
306.899
306.972
307.046
307.123
307.202
307.284
307.369
307.457
307.549
307.645
307.747
307.854
307.969
308.093
308.228
308.378
308.545
308.736
308.96
309.232
309.578
310.045
310.683
311.315
306.305
305.917
305.592
305.334
305.124
304.948
304.797
304.663
304.542
304.431
304.329
304.234
304.146
304.063
303.984
303.91
303.84
303.773
303.71
303.649
303.592
303.536
303.484
303.433
303.385
303.339
303.295
303.253
303.213
303.174
303.137
303.101
303.067
303.035
303.003
302.973
302.945
302.917
302.891
302.866
302.842
302.819
302.797
302.776
302.756
302.737
302.719
302.702
302.685
302.67
302.655
302.641
302.627
302.615
302.603
302.592
302.581
302.571
302.562
302.554
302.546
302.539
302.532
302.526
302.52
302.515
302.511
302.507
302.504
302.501
302.499
302.497
302.496
302.495
302.495
302.496
302.497
302.498
302.5
302.503
302.506
302.509
302.513
302.518
302.523
302.528
302.534
302.54
302.547
302.555
302.562
302.571
302.579
302.588
302.598
302.608
302.619
302.63
302.641
302.653
302.665
302.678
302.691
302.705
302.719
302.733
302.748
302.764
302.779
302.796
302.812
302.83
302.847
302.865
302.884
302.903
302.922
302.942
302.962
302.983
303.004
303.026
303.048
303.07
303.093
303.117
303.141
303.165
303.19
303.216
303.242
303.268
303.295
303.323
303.351
303.379
303.408
303.438
303.468
303.499
303.53
303.561
303.594
303.627
303.66
303.694
303.729
303.764
303.799
303.836
303.873
303.91
303.948
303.987
304.026
304.066
304.106
304.147
304.189
304.231
304.274
304.317
304.361
304.406
304.451
304.497
304.544
304.591
304.639
304.688
304.737
304.787
304.838
304.889
304.942
304.995
305.05
305.106
305.163
305.221
305.282
305.344
305.408
305.475
305.544
305.617
305.694
305.775
305.863
305.957
306.06
306.174
306.302
306.45
306.623
306.833
307.096
307.438
307.9
308.47
306.304
305.916
305.591
305.334
305.124
304.948
304.797
304.663
304.542
304.431
304.329
304.234
304.146
304.063
303.984
303.91
303.84
303.773
303.71
303.649
303.592
303.536
303.484
303.433
303.385
303.339
303.295
303.253
303.213
303.174
303.137
303.101
303.067
303.035
303.003
302.973
302.945
302.917
302.891
302.866
302.842
302.819
302.797
302.776
302.756
302.737
302.719
302.702
302.685
302.67
302.655
302.641
302.627
302.615
302.603
302.592
302.581
302.572
302.562
302.554
302.546
302.539
302.532
302.526
302.52
302.515
302.511
302.507
302.504
302.501
302.499
302.497
302.496
302.495
302.495
302.496
302.497
302.498
302.5
302.503
302.506
302.509
302.513
302.518
302.523
302.528
302.534
302.54
302.547
302.555
302.562
302.571
302.579
302.588
302.598
302.608
302.619
302.63
302.641
302.653
302.665
302.678
302.691
302.705
302.719
302.733
302.748
302.764
302.779
302.796
302.812
302.83
302.847
302.865
302.884
302.903
302.922
302.942
302.962
302.983
303.004
303.026
303.048
303.07
303.093
303.117
303.141
303.165
303.19
303.216
303.242
303.268
303.295
303.323
303.351
303.379
303.408
303.438
303.468
303.499
303.53
303.561
303.594
303.627
303.66
303.694
303.729
303.764
303.799
303.836
303.873
303.91
303.948
303.987
304.026
304.066
304.106
304.147
304.189
304.231
304.274
304.317
304.361
304.406
304.451
304.497
304.544
304.591
304.639
304.688
304.737
304.787
304.838
304.889
304.942
304.995
305.05
305.106
305.163
305.221
305.282
305.344
305.408
305.475
305.544
305.617
305.694
305.775
305.863
305.957
306.06
306.174
306.302
306.45
306.623
306.833
307.096
307.438
307.9
308.47
304.824
304.746
304.608
304.465
304.33
304.207
304.094
303.99
303.894
303.804
303.721
303.642
303.568
303.497
303.431
303.367
303.306
303.249
303.193
303.141
303.09
303.042
302.995
302.951
302.908
302.868
302.828
302.791
302.755
302.72
302.687
302.655
302.624
302.595
302.566
302.539
302.513
302.488
302.464
302.441
302.419
302.398
302.378
302.358
302.34
302.322
302.305
302.288
302.273
302.258
302.244
302.23
302.217
302.205
302.193
302.182
302.172
302.162
302.153
302.144
302.135
302.128
302.12
302.114
302.107
302.101
302.096
302.091
302.087
302.083
302.08
302.077
302.074
302.072
302.071
302.07
302.069
302.069
302.069
302.07
302.071
302.072
302.074
302.077
302.079
302.083
302.086
302.09
302.095
302.1
302.105
302.111
302.117
302.124
302.131
302.138
302.146
302.154
302.163
302.172
302.181
302.191
302.201
302.212
302.223
302.235
302.247
302.259
302.272
302.285
302.299
302.313
302.328
302.343
302.358
302.374
302.391
302.407
302.425
302.442
302.46
302.479
302.498
302.518
302.538
302.558
302.579
302.601
302.623
302.645
302.668
302.691
302.715
302.74
302.765
302.79
302.817
302.843
302.87
302.898
302.926
302.955
302.984
303.014
303.045
303.076
303.107
303.14
303.172
303.206
303.239
303.274
303.309
303.344
303.381
303.417
303.454
303.492
303.531
303.57
303.609
303.649
303.69
303.731
303.772
303.815
303.857
303.901
303.945
303.989
304.034
304.08
304.126
304.173
304.221
304.27
304.319
304.369
304.421
304.473
304.527
304.582
304.639
304.698
304.76
304.824
304.891
304.961
305.037
305.117
305.205
305.3
305.406
305.525
305.66
305.816
305.998
306.213
306.463
306.731
304.824
304.746
304.608
304.465
304.33
304.207
304.094
303.99
303.894
303.804
303.721
303.642
303.568
303.497
303.431
303.367
303.306
303.249
303.193
303.141
303.09
303.042
302.995
302.951
302.908
302.868
302.828
302.791
302.755
302.72
302.687
302.655
302.624
302.595
302.566
302.539
302.513
302.488
302.464
302.441
302.419
302.398
302.378
302.358
302.34
302.322
302.305
302.288
302.273
302.258
302.244
302.23
302.217
302.205
302.193
302.182
302.172
302.162
302.153
302.144
302.135
302.128
302.12
302.114
302.107
302.101
302.096
302.091
302.087
302.083
302.08
302.077
302.074
302.072
302.071
302.07
302.069
302.069
302.069
302.07
302.071
302.072
302.074
302.077
302.079
302.083
302.086
302.09
302.095
302.1
302.105
302.111
302.117
302.124
302.131
302.138
302.146
302.154
302.163
302.172
302.181
302.191
302.201
302.212
302.223
302.235
302.247
302.259
302.272
302.285
302.299
302.313
302.328
302.343
302.358
302.374
302.391
302.407
302.425
302.442
302.46
302.479
302.498
302.518
302.538
302.558
302.579
302.601
302.623
302.645
302.668
302.691
302.715
302.74
302.765
302.79
302.817
302.843
302.87
302.898
302.926
302.955
302.984
303.014
303.045
303.076
303.107
303.14
303.172
303.206
303.239
303.274
303.309
303.344
303.381
303.417
303.454
303.492
303.531
303.57
303.609
303.649
303.69
303.731
303.772
303.815
303.857
303.901
303.945
303.989
304.034
304.08
304.126
304.173
304.221
304.27
304.319
304.369
304.421
304.473
304.527
304.582
304.639
304.698
304.76
304.824
304.891
304.961
305.037
305.117
305.205
305.3
305.406
305.525
305.66
305.816
305.998
306.213
306.463
306.731
304.053
304.048
303.988
303.905
303.816
303.726
303.639
303.556
303.477
303.402
303.33
303.262
303.197
303.135
303.075
303.018
302.964
302.911
302.861
302.813
302.767
302.723
302.68
302.639
302.6
302.562
302.525
302.49
302.457
302.424
302.393
302.363
302.334
302.307
302.28
302.255
302.23
302.206
302.183
302.162
302.141
302.12
302.101
302.082
302.064
302.047
302.031
302.015
302
301.985
301.971
301.958
301.946
301.933
301.922
301.911
301.9
301.89
301.881
301.872
301.863
301.855
301.848
301.841
301.834
301.828
301.822
301.817
301.812
301.807
301.803
301.8
301.797
301.794
301.792
301.79
301.788
301.787
301.786
301.786
301.786
301.787
301.788
301.789
301.791
301.793
301.795
301.798
301.802
301.805
301.81
301.814
301.819
301.824
301.83
301.836
301.843
301.849
301.857
301.864
301.873
301.881
301.89
301.899
301.909
301.919
301.93
301.941
301.952
301.964
301.976
301.989
302.002
302.016
302.03
302.044
302.059
302.074
302.09
302.106
302.123
302.14
302.158
302.176
302.194
302.213
302.233
302.253
302.273
302.294
302.316
302.338
302.36
302.383
302.407
302.431
302.456
302.481
302.507
302.533
302.56
302.587
302.615
302.643
302.672
302.702
302.732
302.763
302.794
302.826
302.858
302.891
302.924
302.958
302.993
303.028
303.064
303.1
303.136
303.174
303.211
303.25
303.288
303.328
303.367
303.408
303.448
303.49
303.531
303.574
303.617
303.66
303.704
303.748
303.793
303.839
303.885
303.933
303.981
304.03
304.08
304.131
304.184
304.238
304.294
304.352
304.413
304.476
304.543
304.614
304.69
304.772
304.86
304.956
305.062
305.178
305.303
305.436
305.568
305.681
304.053
304.048
303.988
303.905
303.816
303.726
303.639
303.556
303.477
303.402
303.33
303.262
303.197
303.135
303.075
303.018
302.964
302.911
302.861
302.813
302.767
302.723
302.68
302.639
302.6
302.562
302.525
302.49
302.457
302.424
302.393
302.363
302.334
302.307
302.28
302.255
302.23
302.206
302.183
302.162
302.141
302.12
302.101
302.082
302.064
302.047
302.031
302.015
302
301.985
301.971
301.958
301.946
301.933
301.922
301.911
301.9
301.89
301.881
301.872
301.863
301.855
301.848
301.841
301.834
301.828
301.822
301.817
301.812
301.807
301.803
301.8
301.797
301.794
301.792
301.79
301.788
301.787
301.786
301.786
301.786
301.787
301.788
301.789
301.791
301.793
301.795
301.798
301.802
301.805
301.81
301.814
301.819
301.824
301.83
301.836
301.843
301.849
301.857
301.864
301.873
301.881
301.89
301.899
301.909
301.919
301.93
301.941
301.952
301.964
301.976
301.989
302.002
302.016
302.03
302.044
302.059
302.074
302.09
302.106
302.123
302.14
302.158
302.176
302.194
302.213
302.233
302.253
302.273
302.294
302.316
302.338
302.36
302.383
302.407
302.431
302.456
302.481
302.507
302.533
302.56
302.587
302.615
302.643
302.672
302.702
302.732
302.763
302.794
302.826
302.858
302.891
302.924
302.958
302.993
303.028
303.064
303.1
303.136
303.174
303.211
303.25
303.288
303.328
303.367
303.408
303.448
303.49
303.531
303.574
303.617
303.66
303.704
303.748
303.793
303.839
303.885
303.933
303.981
304.03
304.08
304.131
304.184
304.238
304.294
304.352
304.413
304.476
304.543
304.614
304.69
304.772
304.86
304.956
305.062
305.178
305.303
305.436
305.568
305.681
303.56
303.57
303.541
303.491
303.429
303.363
303.296
303.228
303.162
303.098
303.036
302.976
302.918
302.862
302.809
302.757
302.707
302.659
302.613
302.568
302.525
302.484
302.444
302.406
302.369
302.333
302.299
302.266
302.234
302.203
302.173
302.145
302.117
302.091
302.066
302.041
302.017
301.995
301.973
301.952
301.931
301.912
301.893
301.875
301.858
301.841
301.825
301.809
301.794
301.78
301.767
301.753
301.741
301.729
301.717
301.706
301.696
301.686
301.676
301.667
301.659
301.65
301.643
301.635
301.629
301.622
301.616
301.61
301.605
301.6
301.596
301.592
301.588
301.585
301.582
301.58
301.578
301.576
301.575
301.574
301.574
301.574
301.574
301.575
301.576
301.577
301.579
301.581
301.584
301.587
301.59
301.594
301.598
301.603
301.607
301.613
301.618
301.624
301.631
301.638
301.645
301.653
301.661
301.669
301.678
301.687
301.697
301.707
301.718
301.729
301.74
301.752
301.764
301.776
301.79
301.803
301.817
301.831
301.846
301.861
301.877
301.893
301.91
301.927
301.945
301.963
301.982
302.001
302.02
302.04
302.061
302.082
302.104
302.126
302.148
302.172
302.195
302.22
302.244
302.27
302.295
302.322
302.349
302.376
302.404
302.433
302.462
302.492
302.522
302.553
302.584
302.616
302.648
302.681
302.715
302.749
302.783
302.818
302.854
302.89
302.926
302.963
303.001
303.039
303.077
303.116
303.155
303.195
303.235
303.276
303.317
303.358
303.4
303.443
303.486
303.53
303.574
303.619
303.664
303.71
303.757
303.805
303.855
303.905
303.957
304.01
304.066
304.123
304.183
304.246
304.312
304.382
304.455
304.534
304.616
304.701
304.788
304.871
304.942
304.991
303.56
303.57
303.541
303.491
303.429
303.363
303.296
303.228
303.162
303.098
303.036
302.976
302.918
302.862
302.809
302.757
302.707
302.659
302.613
302.568
302.525
302.484
302.444
302.406
302.369
302.333
302.299
302.266
302.234
302.203
302.173
302.145
302.117
302.091
302.066
302.041
302.017
301.995
301.973
301.952
301.931
301.912
301.893
301.875
301.858
301.841
301.825
301.809
301.794
301.78
301.767
301.753
301.741
301.729
301.717
301.706
301.696
301.686
301.676
301.667
301.659
301.65
301.643
301.635
301.629
301.622
301.616
301.61
301.605
301.6
301.596
301.592
301.588
301.585
301.582
301.58
301.578
301.576
301.575
301.574
301.574
301.574
301.574
301.575
301.576
301.577
301.579
301.581
301.584
301.587
301.59
301.594
301.598
301.603
301.607
301.613
301.618
301.624
301.631
301.638
301.645
301.653
301.661
301.669
301.678
301.687
301.697
301.707
301.718
301.729
301.74
301.752
301.764
301.776
301.79
301.803
301.817
301.831
301.846
301.861
301.877
301.893
301.91
301.927
301.945
301.963
301.982
302.001
302.02
302.04
302.061
302.082
302.104
302.126
302.148
302.172
302.195
302.22
302.244
302.27
302.295
302.322
302.349
302.376
302.404
302.433
302.462
302.492
302.522
302.553
302.584
302.616
302.648
302.681
302.715
302.749
302.783
302.818
302.854
302.89
302.926
302.963
303.001
303.039
303.077
303.116
303.155
303.195
303.235
303.276
303.317
303.358
303.4
303.443
303.486
303.53
303.574
303.619
303.664
303.71
303.757
303.805
303.855
303.905
303.957
304.01
304.066
304.123
304.183
304.246
304.312
304.382
304.455
304.534
304.616
304.701
304.788
304.871
304.942
304.991
303.202
303.212
303.196
303.163
303.119
303.069
303.015
302.96
302.905
302.85
302.795
302.742
302.691
302.64
302.591
302.544
302.498
302.454
302.411
302.369
302.329
302.29
302.253
302.216
302.181
302.148
302.115
302.083
302.053
302.024
301.995
301.968
301.942
301.916
301.892
301.868
301.845
301.823
301.802
301.781
301.762
301.743
301.724
301.707
301.69
301.673
301.658
301.643
301.628
301.614
301.6
301.587
301.575
301.563
301.552
301.541
301.53
301.52
301.511
301.501
301.493
301.485
301.477
301.469
301.462
301.456
301.449
301.443
301.438
301.433
301.428
301.424
301.42
301.417
301.413
301.411
301.408
301.406
301.405
301.403
301.402
301.402
301.402
301.402
301.403
301.404
301.405
301.407
301.409
301.411
301.414
301.417
301.421
301.425
301.429
301.434
301.439
301.444
301.45
301.456
301.463
301.47
301.478
301.485
301.494
301.502
301.511
301.521
301.531
301.541
301.552
301.563
301.574
301.586
301.599
301.611
301.625
301.638
301.653
301.667
301.682
301.698
301.714
301.73
301.747
301.765
301.783
301.801
301.82
301.839
301.859
301.88
301.901
301.922
301.944
301.967
301.99
302.013
302.037
302.062
302.087
302.113
302.139
302.166
302.193
302.221
302.249
302.278
302.308
302.338
302.368
302.399
302.431
302.463
302.495
302.529
302.562
302.596
302.631
302.666
302.701
302.737
302.774
302.811
302.848
302.886
302.924
302.962
303.001
303.04
303.08
303.12
303.161
303.201
303.243
303.285
303.327
303.369
303.413
303.457
303.501
303.546
303.593
303.64
303.688
303.737
303.787
303.839
303.893
303.949
304.006
304.066
304.127
304.191
304.255
304.318
304.379
304.432
304.472
304.494
303.202
303.212
303.196
303.163
303.119
303.069
303.015
302.96
302.905
302.85
302.795
302.742
302.691
302.64
302.591
302.544
302.498
302.454
302.411
302.369
302.329
302.29
302.253
302.216
302.181
302.148
302.115
302.083
302.053
302.024
301.995
301.968
301.942
301.916
301.892
301.868
301.845
301.823
301.802
301.781
301.762
301.743
301.724
301.707
301.69
301.673
301.658
301.643
301.628
301.614
301.6
301.587
301.575
301.563
301.552
301.541
301.53
301.52
301.511
301.501
301.493
301.485
301.477
301.469
301.462
301.456
301.449
301.443
301.438
301.433
301.428
301.424
301.42
301.417
301.413
301.411
301.408
301.406
301.405
301.403
301.402
301.402
301.402
301.402
301.403
301.404
301.405
301.407
301.409
301.411
301.414
301.417
301.421
301.425
301.429
301.434
301.439
301.444
301.45
301.456
301.463
301.47
301.478
301.485
301.494
301.502
301.511
301.521
301.531
301.541
301.552
301.563
301.574
301.586
301.599
301.611
301.625
301.638
301.653
301.667
301.682
301.698
301.714
301.73
301.747
301.765
301.783
301.801
301.82
301.839
301.859
301.88
301.901
301.922
301.944
301.967
301.99
302.013
302.037
302.062
302.087
302.113
302.139
302.166
302.193
302.221
302.249
302.278
302.308
302.338
302.368
302.399
302.431
302.463
302.495
302.529
302.562
302.596
302.631
302.666
302.701
302.737
302.774
302.811
302.848
302.886
302.924
302.962
303.001
303.04
303.08
303.12
303.161
303.201
303.243
303.285
303.327
303.369
303.413
303.457
303.501
303.546
303.593
303.64
303.688
303.737
303.787
303.839
303.893
303.949
304.006
304.066
304.127
304.191
304.255
304.318
304.379
304.432
304.472
304.494
302.919
302.927
302.916
302.892
302.86
302.821
302.777
302.732
302.684
302.637
302.589
302.542
302.496
302.45
302.405
302.362
302.319
302.278
302.238
302.199
302.161
302.125
302.089
302.055
302.022
301.99
301.959
301.928
301.899
301.871
301.844
301.818
301.792
301.768
301.744
301.721
301.699
301.677
301.657
301.637
301.618
301.599
301.581
301.564
301.547
301.531
301.516
301.501
301.486
301.473
301.459
301.446
301.434
301.422
301.411
301.4
301.39
301.379
301.37
301.361
301.352
301.344
301.336
301.328
301.321
301.314
301.308
301.302
301.296
301.291
301.286
301.282
301.277
301.274
301.27
301.267
301.264
301.262
301.26
301.259
301.257
301.257
301.256
301.256
301.256
301.257
301.258
301.259
301.261
301.263
301.265
301.268
301.271
301.275
301.279
301.283
301.287
301.292
301.298
301.304
301.31
301.316
301.323
301.331
301.338
301.347
301.355
301.364
301.373
301.383
301.393
301.404
301.415
301.427
301.438
301.451
301.464
301.477
301.49
301.504
301.519
301.534
301.55
301.566
301.582
301.599
301.616
301.634
301.652
301.671
301.691
301.711
301.731
301.752
301.773
301.795
301.818
301.841
301.864
301.888
301.913
301.938
301.963
301.99
302.016
302.044
302.071
302.1
302.128
302.158
302.188
302.218
302.249
302.28
302.312
302.345
302.377
302.411
302.444
302.479
302.513
302.548
302.584
302.62
302.656
302.693
302.73
302.767
302.805
302.843
302.882
302.92
302.959
302.999
303.039
303.079
303.119
303.16
303.201
303.243
303.285
303.328
303.371
303.415
303.46
303.505
303.551
303.599
303.647
303.696
303.746
303.797
303.848
303.9
303.95
303.998
304.041
304.076
304.099
304.108
302.919
302.927
302.916
302.892
302.86
302.821
302.777
302.732
302.684
302.637
302.589
302.542
302.496
302.45
302.405
302.362
302.319
302.278
302.238
302.199
302.161
302.125
302.089
302.055
302.022
301.99
301.959
301.928
301.899
301.871
301.844
301.818
301.792
301.768
301.744
301.721
301.699
301.677
301.657
301.637
301.618
301.599
301.581
301.564
301.547
301.531
301.516
301.501
301.486
301.473
301.459
301.446
301.434
301.422
301.411
301.4
301.39
301.379
301.37
301.361
301.352
301.344
301.336
301.328
301.321
301.314
301.308
301.302
301.296
301.291
301.286
301.282
301.277
301.274
301.27
301.267
301.264
301.262
301.26
301.259
301.257
301.257
301.256
301.256
301.256
301.257
301.258
301.259
301.261
301.263
301.265
301.268
301.271
301.275
301.279
301.283
301.287
301.292
301.298
301.304
301.31
301.316
301.323
301.331
301.338
301.347
301.355
301.364
301.373
301.383
301.393
301.404
301.415
301.427
301.438
301.451
301.464
301.477
301.49
301.504
301.519
301.534
301.55
301.566
301.582
301.599
301.616
301.634
301.652
301.671
301.691
301.711
301.731
301.752
301.773
301.795
301.818
301.841
301.864
301.888
301.913
301.938
301.963
301.99
302.016
302.044
302.071
302.1
302.128
302.158
302.188
302.218
302.249
302.28
302.312
302.345
302.377
302.411
302.444
302.479
302.513
302.548
302.584
302.62
302.656
302.693
302.73
302.767
302.805
302.843
302.882
302.92
302.959
302.999
303.039
303.079
303.119
303.16
303.201
303.243
303.285
303.328
303.371
303.415
303.46
303.505
303.551
303.599
303.647
303.696
303.746
303.797
303.848
303.9
303.95
303.998
304.041
304.076
304.099
304.108
302.684
302.689
302.681
302.663
302.637
302.606
302.57
302.531
302.491
302.449
302.407
302.365
302.323
302.282
302.241
302.201
302.162
302.123
302.086
302.049
302.014
301.979
301.946
301.913
301.881
301.85
301.821
301.792
301.764
301.737
301.711
301.685
301.661
301.637
301.614
301.592
301.57
301.549
301.529
301.51
301.491
301.473
301.455
301.438
301.422
301.406
301.391
301.376
301.362
301.348
301.335
301.323
301.31
301.299
301.287
301.276
301.266
301.256
301.246
301.237
301.228
301.22
301.212
301.204
301.197
301.19
301.184
301.178
301.172
301.166
301.161
301.157
301.152
301.148
301.145
301.142
301.139
301.136
301.134
301.132
301.131
301.129
301.129
301.128
301.128
301.128
301.129
301.13
301.131
301.133
301.135
301.138
301.14
301.144
301.147
301.151
301.155
301.16
301.165
301.17
301.176
301.182
301.189
301.196
301.203
301.211
301.219
301.228
301.237
301.246
301.256
301.266
301.277
301.288
301.299
301.311
301.323
301.336
301.349
301.363
301.377
301.392
301.407
301.422
301.438
301.455
301.472
301.489
301.507
301.525
301.544
301.564
301.584
301.604
301.625
301.647
301.669
301.691
301.714
301.738
301.762
301.786
301.811
301.837
301.863
301.89
301.917
301.945
301.973
302.002
302.031
302.061
302.091
302.122
302.153
302.185
302.217
302.25
302.283
302.316
302.35
302.384
302.419
302.454
302.489
302.525
302.561
302.598
302.634
302.671
302.709
302.746
302.784
302.822
302.86
302.899
302.938
302.977
303.016
303.056
303.096
303.136
303.177
303.218
303.26
303.302
303.344
303.387
303.43
303.473
303.517
303.561
303.604
303.646
303.686
303.722
303.754
303.777
303.791
303.794
302.684
302.689
302.681
302.663
302.637
302.606
302.57
302.531
302.491
302.449
302.407
302.365
302.323
302.282
302.241
302.201
302.162
302.123
302.086
302.049
302.014
301.979
301.946
301.913
301.881
301.85
301.821
301.792
301.764
301.737
301.711
301.685
301.661
301.637
301.614
301.592
301.57
301.549
301.529
301.51
301.491
301.473
301.455
301.438
301.422
301.406
301.391
301.376
301.362
301.348
301.335
301.323
301.31
301.299
301.287
301.276
301.266
301.256
301.246
301.237
301.228
301.22
301.212
301.204
301.197
301.19
301.184
301.178
301.172
301.166
301.161
301.157
301.152
301.148
301.145
301.142
301.139
301.136
301.134
301.132
301.131
301.129
301.129
301.128
301.128
301.128
301.129
301.13
301.131
301.133
301.135
301.138
301.14
301.144
301.147
301.151
301.155
301.16
301.165
301.17
301.176
301.182
301.189
301.196
301.203
301.211
301.219
301.228
301.237
301.246
301.256
301.266
301.277
301.288
301.299
301.311
301.323
301.336
301.349
301.363
301.377
301.392
301.407
301.422
301.438
301.455
301.472
301.489
301.507
301.525
301.544
301.564
301.584
301.604
301.625
301.647
301.668
301.691
301.714
301.738
301.762
301.786
301.811
301.837
301.863
301.89
301.917
301.945
301.973
302.002
302.031
302.061
302.091
302.122
302.153
302.185
302.217
302.25
302.283
302.316
302.35
302.384
302.419
302.454
302.489
302.525
302.561
302.598
302.634
302.671
302.709
302.746
302.784
302.822
302.86
302.899
302.938
302.977
303.016
303.056
303.096
303.136
303.177
303.218
303.26
303.302
303.344
303.387
303.43
303.473
303.517
303.561
303.604
303.646
303.686
303.722
303.754
303.777
303.791
303.794
302.483
302.485
302.478
302.463
302.442
302.416
302.386
302.353
302.317
302.281
302.244
302.206
302.168
302.13
302.093
302.055
302.019
301.983
301.948
301.914
301.88
301.847
301.816
301.785
301.754
301.725
301.696
301.669
301.642
301.616
301.59
301.566
301.542
301.519
301.497
301.475
301.454
301.434
301.414
301.395
301.377
301.359
301.342
301.325
301.309
301.294
301.279
301.264
301.25
301.237
301.224
301.211
301.199
301.188
301.176
301.166
301.155
301.145
301.135
301.126
301.117
301.109
301.101
301.093
301.086
301.079
301.072
301.066
301.06
301.055
301.05
301.045
301.04
301.036
301.032
301.029
301.026
301.023
301.021
301.019
301.017
301.015
301.014
301.014
301.013
301.013
301.014
301.015
301.016
301.017
301.019
301.021
301.024
301.026
301.03
301.033
301.037
301.042
301.046
301.051
301.057
301.063
301.069
301.076
301.083
301.09
301.098
301.106
301.115
301.124
301.133
301.143
301.153
301.164
301.175
301.186
301.198
301.211
301.224
301.237
301.251
301.265
301.28
301.295
301.31
301.326
301.343
301.36
301.377
301.395
301.414
301.433
301.453
301.473
301.493
301.514
301.536
301.558
301.58
301.603
301.627
301.651
301.676
301.701
301.727
301.753
301.78
301.807
301.835
301.863
301.892
301.921
301.951
301.981
302.011
302.042
302.074
302.106
302.138
302.171
302.204
302.238
302.272
302.306
302.341
302.376
302.411
302.446
302.482
302.518
302.554
302.59
302.627
302.664
302.701
302.738
302.775
302.813
302.851
302.888
302.926
302.964
303.003
303.041
303.08
303.118
303.157
303.196
303.235
303.274
303.312
303.349
303.386
303.42
303.452
303.48
303.504
303.521
303.529
303.528
302.483
302.485
302.478
302.463
302.442
302.416
302.386
302.353
302.317
302.281
302.244
302.206
302.168
302.13
302.093
302.055
302.019
301.983
301.948
301.914
301.88
301.847
301.816
301.785
301.754
301.725
301.696
301.669
301.642
301.616
301.59
301.566
301.542
301.519
301.497
301.475
301.454
301.434
301.414
301.395
301.377
301.359
301.342
301.325
301.309
301.294
301.279
301.264
301.25
301.237
301.224
301.211
301.199
301.188
301.176
301.166
301.155
301.145
301.135
301.126
301.117
301.109
301.101
301.093
301.086
301.079
301.072
301.066
301.06
301.055
301.05
301.045
301.04
301.036
301.032
301.029
301.026
301.023
301.021
301.019
301.017
301.015
301.014
301.014
301.013
301.013
301.014
301.015
301.016
301.017
301.019
301.021
301.024
301.026
301.03
301.033
301.037
301.042
301.046
301.051
301.057
301.063
301.069
301.076
301.083
301.09
301.098
301.106
301.115
301.124
301.133
301.143
301.153
301.164
301.175
301.186
301.198
301.211
301.224
301.237
301.251
301.265
301.28
301.295
301.31
301.326
301.343
301.36
301.377
301.395
301.414
301.433
301.453
301.473
301.493
301.514
301.536
301.558
301.58
301.603
301.627
301.651
301.676
301.701
301.727
301.753
301.78
301.807
301.835
301.863
301.892
301.921
301.951
301.981
302.011
302.042
302.074
302.106
302.138
302.171
302.204
302.238
302.272
302.306
302.341
302.376
302.411
302.446
302.482
302.518
302.554
302.59
302.627
302.664
302.701
302.738
302.775
302.813
302.851
302.888
302.926
302.964
303.003
303.041
303.08
303.118
303.157
303.196
303.235
303.274
303.312
303.349
303.386
303.42
303.452
303.48
303.504
303.521
303.529
303.528
302.306
302.306
302.299
302.287
302.268
302.246
302.22
302.191
302.16
302.128
302.094
302.06
302.026
301.991
301.956
301.922
301.888
301.855
301.822
301.789
301.758
301.727
301.696
301.667
301.638
301.61
301.582
301.556
301.53
301.505
301.48
301.457
301.434
301.411
301.39
301.368
301.348
301.328
301.309
301.291
301.273
301.255
301.238
301.222
301.206
301.191
301.176
301.162
301.148
301.135
301.122
301.11
301.098
301.086
301.075
301.064
301.054
301.044
301.034
301.025
301.016
301.008
301
300.992
300.984
300.977
300.971
300.964
300.958
300.953
300.947
300.942
300.938
300.934
300.93
300.926
300.923
300.92
300.917
300.915
300.913
300.912
300.91
300.909
300.909
300.909
300.909
300.909
300.91
300.911
300.913
300.915
300.917
300.92
300.923
300.926
300.93
300.934
300.938
300.943
300.948
300.954
300.96
300.966
300.973
300.98
300.987
300.995
301.003
301.012
301.021
301.031
301.041
301.051
301.062
301.073
301.085
301.097