/*--------------------------------*- C++ -*----------------------------------*\
  =========                 |
  \\      /  F ield         | OpenFOAM: The Open Source CFD Toolbox
   \\    /   O peration     | Website:  https://openfoam.org
    \\  /    A nd           | Version:  8
     \\/     M anipulation  |
\*---------------------------------------------------------------------------*/
FoamFile
{
    version     2.0;
    format      ascii;
    class       volVectorField;
    location    "4300";
    object      U;
}
// * * * * * * * * * * * * * * * * * * * * * * * * * * * * * * * * * * * * * //

dimensions      [0 1 -1 0 0 0 0];

internalField   nonuniform List<vector> 
46000
(
(0.00218705 4.09039e-06 -0.00223459)
(0.0104382 1.10589e-05 -0.00617515)
(0.019 -4.97936e-09 -0.00575741)
(0.0251245 -1.46065e-06 -0.00359528)
(0.0280422 3.22241e-07 -0.00134347)
(0.028164 1.25606e-06 0.000599452)
(0.0259497 1.31083e-06 0.00216152)
(0.0218769 1.01932e-06 0.0033751)
(0.0163417 7.01494e-07 0.0043041)
(0.00966709 4.62596e-07 0.00501212)
(0.00211258 3.0678e-07 0.00554466)
(-0.0061317 2.08878e-07 0.00592792)
(-0.0148633 1.46909e-07 0.00619361)
(-0.0239751 1.07311e-07 0.00637591)
(-0.0333547 8.14251e-08 0.00649274)
(-0.0429195 6.39934e-08 0.00655732)
(-0.0526 5.161e-08 0.00657986)
(-0.0623392 4.21412e-08 0.00656829)
(-0.0720898 3.45359e-08 0.00652887)
(-0.0818117 2.86269e-08 0.00646657)
(-0.0914713 2.46913e-08 0.00638537)
(-0.10104 2.2941e-08 0.00628849)
(-0.110493 2.31928e-08 0.00617853)
(-0.11981 2.48393e-08 0.00605763)
(-0.128972 2.7017e-08 0.00592753)
(-0.137963 2.88901e-08 0.00578971)
(-0.146769 2.98338e-08 0.00564538)
(-0.155379 2.95572e-08 0.00549557)
(-0.163781 2.80541e-08 0.00534114)
(-0.171967 2.55234e-08 0.00518284)
(-0.179928 2.22484e-08 0.00502131)
(-0.187656 1.85765e-08 0.0048571)
(-0.195145 1.48018e-08 0.00469068)
(-0.202391 1.12012e-08 0.00452247)
(-0.209387 7.98608e-09 0.00435286)
(-0.216129 5.32922e-09 0.00418216)
(-0.222614 3.33772e-09 0.00401066)
(-0.228838 2.13694e-09 0.00383864)
(-0.2348 1.85971e-09 0.00366633)
(-0.240496 2.61138e-09 0.00349395)
(-0.245924 4.40829e-09 0.00332171)
(-0.251085 7.07056e-09 0.00314978)
(-0.255975 1.01922e-08 0.00297833)
(-0.260596 1.32129e-08 0.00280754)
(-0.264946 1.5553e-08 0.00263754)
(-0.269026 1.67549e-08 0.00246849)
(-0.272836 1.66041e-08 0.00230051)
(-0.276377 1.51426e-08 0.00213374)
(-0.27965 1.26316e-08 0.00196831)
(-0.282656 9.47185e-09 0.00180434)
(-0.285397 6.11381e-09 0.00164193)
(-0.287875 2.93645e-09 0.00148121)
(-0.290091 2.20596e-10 0.00132228)
(-0.29205 -1.90919e-09 0.00116526)
(-0.293752 -3.48708e-09 0.00101024)
(-0.295201 -4.6544e-09 0.000857324)
(-0.296401 -5.60645e-09 0.000706615)
(-0.297354 -6.51858e-09 0.000558196)
(-0.298065 -7.47637e-09 0.000412126)
(-0.298537 -8.47236e-09 0.00026842)
(-0.298774 -9.39687e-09 0.000127059)
(-0.298781 -1.0107e-08 -1.17684e-05)
(-0.298562 -1.04708e-08 -0.000147659)
(-0.298122 -1.04308e-08 -0.000280491)
(-0.297465 -1.00128e-08 -0.000410374)
(-0.296597 -9.3365e-09 -0.000537315)
(-0.295522 -8.56803e-09 -0.000661256)
(-0.294247 -7.88017e-09 -0.000782125)
(-0.292776 -7.40582e-09 -0.000899845)
(-0.291115 -7.21727e-09 -0.00101435)
(-0.289269 -7.30537e-09 -0.00112557)
(-0.287245 -7.60866e-09 -0.00123346)
(-0.285049 -8.02411e-09 -0.00133795)
(-0.282686 -8.44624e-09 -0.001439)
(-0.280162 -8.78698e-09 -0.00153657)
(-0.277484 -8.99649e-09 -0.00163061)
(-0.274659 -9.05482e-09 -0.00172108)
(-0.271691 -8.97027e-09 -0.00180797)
(-0.268588 -8.77607e-09 -0.00189123)
(-0.265357 -8.5071e-09 -0.00197085)
(-0.262002 -8.20324e-09 -0.00204681)
(-0.258532 -7.89273e-09 -0.00211909)
(-0.254952 -7.60632e-09 -0.00218769)
(-0.251268 -7.36062e-09 -0.00225261)
(-0.247488 -7.16644e-09 -0.00231384)
(-0.243616 -7.0188e-09 -0.00237139)
(-0.239661 -6.9177e-09 -0.00242528)
(-0.235627 -6.83738e-09 -0.00247551)
(-0.231522 -6.76122e-09 -0.00252212)
(-0.227351 -6.67427e-09 -0.00256512)
(-0.22312 -6.55241e-09 -0.00260454)
(-0.218836 -6.3998e-09 -0.00264042)
(-0.214504 -6.20894e-09 -0.0026728)
(-0.21013 -5.99314e-09 -0.00270173)
(-0.20572 -5.75239e-09 -0.00272724)
(-0.201279 -5.50663e-09 -0.00274938)
(-0.196813 -5.25503e-09 -0.00276823)
(-0.192327 -5.00009e-09 -0.00278382)
(-0.187826 -4.73432e-09 -0.00279623)
(-0.183316 -4.45854e-09 -0.00280553)
(-0.178801 -4.15445e-09 -0.00281177)
(-0.174286 -3.8179e-09 -0.00281503)
(-0.169777 -3.45968e-09 -0.00281539)
(-0.165276 -3.06565e-09 -0.00281291)
(-0.160789 -2.65577e-09 -0.00280768)
(-0.15632 -2.23917e-09 -0.00279978)
(-0.151873 -1.82751e-09 -0.00278928)
(-0.147452 -1.4266e-09 -0.00277627)
(-0.143061 -1.05143e-09 -0.00276084)
(-0.138703 -6.99511e-10 -0.00274305)
(-0.134381 -3.70835e-10 -0.00272301)
(-0.130099 -6.54121e-11 -0.00270078)
(-0.125861 2.25911e-10 -0.00267645)
(-0.121668 5.03963e-10 -0.00265011)
(-0.117525 7.70409e-10 -0.00262183)
(-0.113433 1.04523e-09 -0.0025917)
(-0.109395 1.31843e-09 -0.00255978)
(-0.105415 1.60168e-09 -0.00252616)
(-0.101493 1.87499e-09 -0.00249092)
(-0.0976324 2.14669e-09 -0.00245411)
(-0.0938354 2.41344e-09 -0.00241582)
(-0.0901036 2.67525e-09 -0.00237611)
(-0.0864391 2.92045e-09 -0.00233505)
(-0.0828436 3.1607e-09 -0.00229269)
(-0.0793186 3.38767e-09 -0.0022491)
(-0.0758659 3.59635e-09 -0.00220434)
(-0.072487 3.79175e-09 -0.00215845)
(-0.0691831 3.98552e-09 -0.0021115)
(-0.0659556 4.16766e-09 -0.00206352)
(-0.0628059 4.34985e-09 -0.00201457)
(-0.059735 4.52375e-09 -0.00196469)
(-0.0567441 4.70269e-09 -0.00191392)
(-0.0538343 4.88001e-09 -0.0018623)
(-0.0510065 5.07072e-09 -0.00180988)
(-0.0482618 5.26148e-09 -0.00175669)
(-0.045601 5.46564e-09 -0.00170276)
(-0.0430249 5.66985e-09 -0.00164814)
(-0.0405344 5.89915e-09 -0.00159286)
(-0.0381301 6.13519e-09 -0.00153696)
(-0.0358129 6.39801e-09 -0.00148047)
(-0.0335833 6.68594e-09 -0.00142343)
(-0.0314419 6.98231e-09 -0.00136589)
(-0.0293892 7.29378e-09 -0.00130789)
(-0.0274258 7.64544e-09 -0.00124947)
(-0.025552 8.00722e-09 -0.00119069)
(-0.0237682 8.38748e-09 -0.0011316)
(-0.0220746 8.78122e-09 -0.00107225)
(-0.0204714 9.18678e-09 -0.00101272)
(-0.0189587 9.59413e-09 -0.000953074)
(-0.0175365 1.00016e-08 -0.000893389)
(-0.0162046 1.03992e-08 -0.00083375)
(-0.0149628 1.08002e-08 -0.000774247)
(-0.0138108 1.11847e-08 -0.000714983)
(-0.012748 1.15358e-08 -0.000656065)
(-0.0117737 1.18837e-08 -0.000597612)
(-0.0108871 1.22032e-08 -0.00053975)
(-0.0100872 1.24995e-08 -0.000482617)
(-0.00937266 1.27958e-08 -0.00042636)
(-0.0087421 1.30789e-08 -0.000371135)
(-0.00819383 1.33655e-08 -0.000317111)
(-0.00772593 1.36688e-08 -0.000264466)
(-0.00733624 1.39958e-08 -0.000213388)
(-0.00702229 1.43631e-08 -0.000164075)
(-0.00678135 1.47976e-08 -0.000116737)
(-0.00661036 1.53093e-08 -7.1594e-05)
(-0.00650596 1.58715e-08 -2.8875e-05)
(-0.00646443 1.65412e-08 1.11758e-05)
(-0.00648172 1.72917e-08 4.83226e-05)
(-0.00655342 1.80961e-08 8.23176e-05)
(-0.00667473 1.89446e-08 0.000112885)
(-0.00684046 1.98034e-08 0.000139748)
(-0.007045 2.06325e-08 0.000162626)
(-0.00728231 2.13982e-08 0.000181228)
(-0.00754594 2.21071e-08 0.000195261)
(-0.00782896 2.27627e-08 0.000204422)
(-0.00812399 2.34355e-08 0.000208402)
(-0.0084232 2.41658e-08 0.000206888)
(-0.00871823 2.49973e-08 0.000199562)
(-0.00900027 2.59706e-08 0.000186101)
(-0.00925997 2.70117e-08 0.00016618)
(-0.00948749 2.80736e-08 0.000139473)
(-0.00967246 2.90791e-08 0.000105659)
(-0.00980401 3.00047e-08 6.4426e-05)
(-0.00987076 3.09446e-08 1.54759e-05)
(-0.00986088 3.19631e-08 -4.14098e-05)
(-0.00976219 3.31507e-08 -0.000106369)
(-0.00956229 3.45081e-08 -0.000179464)
(-0.00924865 3.59681e-08 -0.000260556)
(-0.00880909 3.75378e-08 -0.000349152)
(-0.00823224 3.92448e-08 -0.000444195)
(-0.00750863 4.11368e-08 -0.000543675)
(-0.00663222 4.32888e-08 -0.000643992)
(-0.00560319 4.56483e-08 -0.00073885)
(-0.0044325 4.82236e-08 -0.000817397)
(-0.00314952 5.12947e-08 -0.000861124)
(-0.00181529 5.50827e-08 -0.000838951)
(-0.000541497 5.94746e-08 -0.000701044)
(0.000475594 6.32772e-08 -0.00037505)
(0.000952485 7.16949e-08 0.000147668)
(0.000441593 3.3111e-08 0.000472637)
(0.00233536 4.08728e-06 -0.00239547)
(0.0105326 1.10474e-05 -0.00633198)
(0.0189818 -4.97803e-09 -0.00583843)
(0.0250918 -1.46061e-06 -0.00362745)
(0.0280218 3.22245e-07 -0.00135389)
(0.0281535 1.25607e-06 0.000596914)
(0.0259445 1.31083e-06 0.00216121)
(0.0218741 1.01932e-06 0.00337521)
(0.01634 7.01491e-07 0.0043042)
(0.00966604 4.62594e-07 0.00501218)
(0.00211188 3.06778e-07 0.00554469)
(-0.00613218 2.08877e-07 0.00592792)
(-0.0148636 1.46908e-07 0.0061936)
(-0.0239753 1.07311e-07 0.00637589)
(-0.0333549 8.14248e-08 0.00649272)
(-0.0429195 6.39932e-08 0.0065573)
(-0.0526 5.16099e-08 0.00657983)
(-0.0623392 4.21411e-08 0.00656826)
(-0.0720897 3.45358e-08 0.00652884)
(-0.0818116 2.86268e-08 0.00646654)
(-0.0914712 2.46912e-08 0.00638535)
(-0.10104 2.2941e-08 0.00628848)
(-0.110493 2.31927e-08 0.00617852)
(-0.11981 2.48392e-08 0.00605762)
(-0.128971 2.7017e-08 0.00592753)
(-0.137962 2.889e-08 0.00578972)
(-0.146769 2.98338e-08 0.00564539)
(-0.155379 2.95571e-08 0.00549557)
(-0.163781 2.80541e-08 0.00534115)
(-0.171967 2.55233e-08 0.00518285)
(-0.179927 2.22483e-08 0.00502132)
(-0.187656 1.85765e-08 0.0048571)
(-0.195145 1.48018e-08 0.00469068)
(-0.20239 1.12012e-08 0.00452248)
(-0.209386 7.98607e-09 0.00435286)
(-0.216129 5.32921e-09 0.00418216)
(-0.222614 3.33771e-09 0.00401066)
(-0.228838 2.13694e-09 0.00383865)
(-0.234799 1.85971e-09 0.00366634)
(-0.240495 2.61137e-09 0.00349397)
(-0.245924 4.40828e-09 0.00332173)
(-0.251084 7.07055e-09 0.0031498)
(-0.255975 1.01922e-08 0.00297835)
(-0.260595 1.32128e-08 0.00280756)
(-0.264946 1.5553e-08 0.00263756)
(-0.269025 1.67548e-08 0.0024685)
(-0.272836 1.66041e-08 0.00230052)
(-0.276376 1.51426e-08 0.00213376)
(-0.279649 1.26316e-08 0.00196832)
(-0.282655 9.47184e-09 0.00180435)
(-0.285396 6.1138e-09 0.00164194)
(-0.287874 2.93644e-09 0.00148122)
(-0.290091 2.20595e-10 0.00132229)
(-0.292049 -1.90919e-09 0.00116527)
(-0.293751 -3.48708e-09 0.00101025)
(-0.295201 -4.65439e-09 0.000857333)
(-0.2964 -5.60644e-09 0.000706623)
(-0.297354 -6.51857e-09 0.000558204)
(-0.298064 -7.47636e-09 0.000412134)
(-0.298536 -8.47234e-09 0.000268427)
(-0.298774 -9.39686e-09 0.000127064)
(-0.298781 -1.0107e-08 -1.17639e-05)
(-0.298561 -1.04707e-08 -0.000147656)
(-0.298121 -1.04307e-08 -0.000280488)
(-0.297465 -1.00128e-08 -0.000410371)
(-0.296596 -9.33649e-09 -0.000537312)
(-0.295522 -8.56802e-09 -0.000661254)
(-0.294246 -7.88016e-09 -0.000782122)
(-0.292775 -7.40582e-09 -0.000899843)
(-0.291114 -7.21726e-09 -0.00101435)
(-0.289269 -7.30537e-09 -0.00112557)
(-0.287245 -7.60865e-09 -0.00123346)
(-0.285048 -8.0241e-09 -0.00133795)
(-0.282685 -8.44623e-09 -0.001439)
(-0.280162 -8.78697e-09 -0.00153657)
(-0.277484 -8.99648e-09 -0.00163061)
(-0.274658 -9.05481e-09 -0.00172109)
(-0.271691 -8.97026e-09 -0.00180797)
(-0.268588 -8.77606e-09 -0.00189124)
(-0.265356 -8.50709e-09 -0.00197086)
(-0.262002 -8.20323e-09 -0.00204682)
(-0.258532 -7.89272e-09 -0.0021191)
(-0.254951 -7.60631e-09 -0.0021877)
(-0.251268 -7.36061e-09 -0.00225262)
(-0.247487 -7.16643e-09 -0.00231385)
(-0.243616 -7.01879e-09 -0.00237141)
(-0.239661 -6.91769e-09 -0.00242529)
(-0.235627 -6.83737e-09 -0.00247553)
(-0.231522 -6.76122e-09 -0.00252214)
(-0.227351 -6.67426e-09 -0.00256514)
(-0.22312 -6.55241e-09 -0.00260456)
(-0.218836 -6.39979e-09 -0.00264044)
(-0.214504 -6.20894e-09 -0.00267283)
(-0.21013 -5.99314e-09 -0.00270175)
(-0.205719 -5.75238e-09 -0.00272726)
(-0.201279 -5.50662e-09 -0.00274941)
(-0.196812 -5.25503e-09 -0.00276825)
(-0.192326 -5.00009e-09 -0.00278385)
(-0.187826 -4.73431e-09 -0.00279626)
(-0.183316 -4.45853e-09 -0.00280556)
(-0.178801 -4.15445e-09 -0.0028118)
(-0.174286 -3.8179e-09 -0.00281506)
(-0.169776 -3.45968e-09 -0.00281542)
(-0.165276 -3.06565e-09 -0.00281294)
(-0.160789 -2.65576e-09 -0.00280771)
(-0.15632 -2.23917e-09 -0.00279981)
(-0.151873 -1.82751e-09 -0.00278932)
(-0.147452 -1.4266e-09 -0.00277631)
(-0.143061 -1.05143e-09 -0.00276088)
(-0.138702 -6.9951e-10 -0.00274309)
(-0.134381 -3.70835e-10 -0.00272305)
(-0.130099 -6.5412e-11 -0.00270082)
(-0.12586 2.2591e-10 -0.0026765)
(-0.121668 5.03963e-10 -0.00265016)
(-0.117525 7.70408e-10 -0.00262188)
(-0.113433 1.04523e-09 -0.00259174)
(-0.109395 1.31843e-09 -0.00255983)
(-0.105414 1.60168e-09 -0.00252621)
(-0.101493 1.87499e-09 -0.00249097)
(-0.0976323 2.14668e-09 -0.00245417)
(-0.0938352 2.41344e-09 -0.00241588)
(-0.0901035 2.67524e-09 -0.00237617)
(-0.0864389 2.92044e-09 -0.00233511)
(-0.0828434 3.16069e-09 -0.00229275)
(-0.0793185 3.38766e-09 -0.00224916)
(-0.0758658 3.59635e-09 -0.0022044)
(-0.0724868 3.79174e-09 -0.00215851)
(-0.0691829 3.98551e-09 -0.00211156)
(-0.0659555 4.16766e-09 -0.00206358)
(-0.0628057 4.34985e-09 -0.00201463)
(-0.0597348 4.52374e-09 -0.00196475)
(-0.056744 4.70269e-09 -0.00191398)
(-0.0538342 4.88001e-09 -0.00186237)
(-0.0510064 5.07072e-09 -0.00180995)
(-0.0482617 5.26147e-09 -0.00175676)
(-0.0456008 5.46563e-09 -0.00170283)
(-0.0430248 5.66984e-09 -0.00164821)
(-0.0405342 5.89914e-09 -0.00159293)
(-0.03813 6.13519e-09 -0.00153703)
(-0.0358127 6.398e-09 -0.00148054)
(-0.0335831 6.68594e-09 -0.0014235)
(-0.0314417 6.9823e-09 -0.00136596)
(-0.0293891 7.29378e-09 -0.00130796)
(-0.0274256 7.64543e-09 -0.00124955)
(-0.0255518 8.00721e-09 -0.00119076)
(-0.023768 8.38747e-09 -0.00113167)
(-0.0220744 8.78121e-09 -0.00107233)
(-0.0204712 9.18677e-09 -0.0010128)
(-0.0189585 9.59412e-09 -0.000953153)
(-0.0175363 1.00016e-08 -0.000893468)
(-0.0162045 1.03992e-08 -0.000833828)
(-0.0149627 1.08002e-08 -0.000774327)
(-0.0138107 1.11847e-08 -0.000715062)
(-0.0127479 1.15358e-08 -0.000656145)
(-0.0117736 1.18837e-08 -0.000597691)
(-0.010887 1.22032e-08 -0.00053983)
(-0.0100871 1.24995e-08 -0.000482697)
(-0.00937252 1.27958e-08 -0.000426439)
(-0.00874195 1.30789e-08 -0.000371215)
(-0.00819368 1.33654e-08 -0.000317191)
(-0.00772579 1.36688e-08 -0.000264545)
(-0.0073361 1.39958e-08 -0.000213467)
(-0.00702215 1.43631e-08 -0.000164154)
(-0.00678121 1.47976e-08 -0.000116817)
(-0.00661023 1.53093e-08 -7.16733e-05)
(-0.00650582 1.58715e-08 -2.89547e-05)
(-0.0064643 1.65412e-08 1.10956e-05)
(-0.0064816 1.72917e-08 4.82417e-05)
(-0.0065533 1.80961e-08 8.22358e-05)
(-0.00667461 1.89446e-08 0.000112802)
(-0.00684034 1.98034e-08 0.000139664)
(-0.00704488 2.06325e-08 0.00016254)
(-0.0072822 2.13981e-08 0.000181141)
(-0.00754583 2.21071e-08 0.000195172)
(-0.00782885 2.27627e-08 0.00020433)
(-0.00812389 2.34355e-08 0.000208307)
(-0.0084231 2.41658e-08 0.000206791)
(-0.00871814 2.49973e-08 0.000199461)
(-0.00900018 2.59705e-08 0.000185996)
(-0.00925989 2.70116e-08 0.00016607)
(-0.00948742 2.80736e-08 0.000139357)
(-0.00967239 2.90791e-08 0.000105537)
(-0.00980395 3.00047e-08 6.42962e-05)
(-0.00987071 3.09446e-08 1.53379e-05)
(-0.00986083 3.1963e-08 -4.15566e-05)
(-0.00976215 3.31507e-08 -0.000106526)
(-0.00956225 3.4508e-08 -0.000179631)
(-0.00924863 3.5968e-08 -0.000260734)
(-0.00880907 3.75378e-08 -0.000349343)
(-0.00823224 3.92447e-08 -0.000444399)
(-0.00750863 4.11367e-08 -0.000543894)
(-0.00663223 4.32888e-08 -0.000644226)
(-0.00560321 4.56482e-08 -0.000739102)
(-0.00443253 4.82235e-08 -0.000817667)
(-0.00314956 5.12946e-08 -0.000861414)
(-0.00181533 5.50826e-08 -0.000839262)
(-0.000541552 5.94745e-08 -0.000701378)
(0.000475511 6.32771e-08 -0.000375406)
(0.000952276 7.16948e-08 0.000147292)
(0.000441429 3.31111e-08 0.000472317)
(0.0059236 -8.89784e-06 -0.0110498)
(0.0123639 -6.56564e-07 -0.0129169)
(0.0159408 -7.71458e-07 -0.0101802)
(0.0176893 -4.67582e-07 -0.00590943)
(0.0174827 1.33815e-07 -0.00163479)
(0.0155867 3.89673e-07 0.00211967)
(0.0121906 3.89992e-07 0.0052287)
(0.00750194 2.98766e-07 0.00772994)
(0.00172571 2.04704e-07 0.00971267)
(-0.00495069 1.34406e-07 0.0112691)
(-0.0123472 8.80266e-08 0.0124771)
(-0.0203252 5.86535e-08 0.013399)
(-0.0287589 3.99103e-08 0.0140909)
(-0.0375461 2.7827e-08 0.0146022)
(-0.046596 1.98991e-08 0.0149664)
(-0.0558342 1.44052e-08 0.0152104)
(-0.0651975 1.02416e-08 0.015355)
(-0.0746323 6.83732e-09 0.0154169)
(-0.0840932 4.03704e-09 0.0154096)
(-0.0935411 1.9335e-09 0.0153437)
(-0.102943 6.63866e-10 0.0152282)
(-0.112269 2.5426e-10 0.0150702)
(-0.121496 5.7167e-10 0.0148756)
(-0.1306 1.3602e-09 0.0146494)
(-0.139564 2.32301e-09 0.0143958)
(-0.148371 3.19417e-09 0.0141182)
(-0.157006 3.77727e-09 0.0138196)
(-0.165456 3.97567e-09 0.0135026)
(-0.17371 3.77084e-09 0.0131693)
(-0.181757 3.21398e-09 0.0128217)
(-0.18959 2.387e-09 0.0124615)
(-0.197199 1.38338e-09 0.01209)
(-0.204579 2.91981e-10 0.0117087)
(-0.211723 -7.88817e-10 0.0113187)
(-0.218625 -1.72416e-09 0.0109211)
(-0.22528 -2.35725e-09 0.0105169)
(-0.231685 -2.5384e-09 0.0101069)
(-0.237837 -2.17975e-09 0.00969209)
(-0.243731 -1.31257e-09 0.00927311)
(-0.249365 -7.80025e-11 0.00885073)
(-0.254738 1.29368e-09 0.00842562)
(-0.259847 2.54946e-09 0.00799844)
(-0.264691 3.46582e-09 0.00756978)
(-0.26927 3.89314e-09 0.00714025)
(-0.273583 3.77843e-09 0.00671041)
(-0.277629 3.16119e-09 0.0062808)
(-0.281409 2.15738e-09 0.00585195)
(-0.284923 9.27308e-10 0.00542436)
(-0.288173 -3.54046e-10 0.00499854)
(-0.291158 -1.5192e-09 0.00457495)
(-0.293882 -2.44297e-09 0.00415407)
(-0.296345 -3.05411e-09 0.00373633)
(-0.298549 -3.33836e-09 0.00332218)
(-0.300496 -3.34509e-09 0.00291205)
(-0.30219 -3.15722e-09 0.00250634)
(-0.303633 -2.87798e-09 0.00210547)
(-0.304828 -2.59275e-09 0.00170983)
(-0.305777 -2.35272e-09 0.00131979)
(-0.306486 -2.16285e-09 0.000935744)
(-0.306956 -1.98895e-09 0.000558027)
(-0.307193 -1.77777e-09 0.00018699)
(-0.307201 -1.48372e-09 -0.000177074)
(-0.306983 -1.08671e-09 -0.000533949)
(-0.306544 -5.99373e-10 -0.000883382)
(-0.305889 -6.66821e-11 -0.00122508)
(-0.305022 4.51281e-10 -0.00155877)
(-0.30395 8.85942e-10 -0.00188418)
(-0.302676 1.19338e-09 -0.00220105)
(-0.301206 1.35248e-09 -0.00250915)
(-0.299547 1.37111e-09 -0.00280826)
(-0.297702 1.28428e-09 -0.00309818)
(-0.295678 1.13593e-09 -0.00337873)
(-0.293481 9.77633e-10 -0.00364975)
(-0.291117 8.49174e-10 -0.0039111)
(-0.288591 7.7624e-10 -0.00416266)
(-0.28591 7.68361e-10 -0.0044043)
(-0.28308 8.23465e-10 -0.00463595)
(-0.280106 9.29329e-10 -0.00485752)
(-0.276996 1.0671e-09 -0.00506897)
(-0.273755 1.22062e-09 -0.00527023)
(-0.270389 1.37353e-09 -0.00546131)
(-0.266905 1.50986e-09 -0.00564217)
(-0.26331 1.62093e-09 -0.00581284)
(-0.259608 1.7005e-09 -0.00597334)
(-0.255808 1.74859e-09 -0.00612371)
(-0.251914 1.77057e-09 -0.006264)
(-0.247933 1.77184e-09 -0.00639428)
(-0.243872 1.76524e-09 -0.00651465)
(-0.239735 1.75781e-09 -0.00662519)
(-0.23553 1.75908e-09 -0.00672603)
(-0.231262 1.76906e-09 -0.00681729)
(-0.226938 1.79065e-09 -0.0068991)
(-0.222562 1.8197e-09 -0.00697162)
(-0.21814 1.85083e-09 -0.00703501)
(-0.213679 1.87948e-09 -0.00708944)
(-0.209184 1.90316e-09 -0.0071351)
(-0.20466 1.9202e-09 -0.00717218)
(-0.200112 1.93311e-09 -0.00720087)
(-0.195545 1.94354e-09 -0.00722139)
(-0.190966 1.95355e-09 -0.00723395)
(-0.186377 1.96937e-09 -0.00723877)
(-0.181785 1.98768e-09 -0.00723607)
(-0.177194 2.00848e-09 -0.0072261)
(-0.172608 2.03095e-09 -0.00720908)
(-0.168031 2.053e-09 -0.00718524)
(-0.163469 2.06718e-09 -0.00715484)
(-0.158925 2.07059e-09 -0.0071181)
(-0.154402 2.06321e-09 -0.00707527)
(-0.149905 2.04464e-09 -0.00702658)
(-0.145438 2.01446e-09 -0.00697228)
(-0.141003 1.97598e-09 -0.0069126)
(-0.136605 1.92879e-09 -0.00684777)
(-0.132246 1.8787e-09 -0.00677803)
(-0.12793 1.82611e-09 -0.00670359)
(-0.123659 1.77227e-09 -0.00662468)
(-0.119437 1.71968e-09 -0.00654151)
(-0.115265 1.66542e-09 -0.00645429)
(-0.111148 1.61364e-09 -0.00636322)
(-0.107087 1.55854e-09 -0.00626849)
(-0.103084 1.50053e-09 -0.0061703)
(-0.0991416 1.44003e-09 -0.00606883)
(-0.0952625 1.3737e-09 -0.00596424)
(-0.0914483 1.30322e-09 -0.00585669)
(-0.087701 1.22817e-09 -0.00574636)
(-0.0840225 1.14812e-09 -0.00563337)
(-0.0804146 1.06516e-09 -0.00551787)
(-0.0768789 9.77612e-10 -0.0054)
(-0.073417 8.8881e-10 -0.00527987)
(-0.0700305 7.97503e-10 -0.00515761)
(-0.0667208 7.04936e-10 -0.00503331)
(-0.0634894 6.12353e-10 -0.00490709)
(-0.0603376 5.19753e-10 -0.00477904)
(-0.0572666 4.27968e-10 -0.00464925)
(-0.0542777 3.35749e-10 -0.00451781)
(-0.0513721 2.43513e-10 -0.00438481)
(-0.0485508 1.53335e-10 -0.00425031)
(-0.045815 6.5216e-11 -0.0041144)
(-0.0431656 -2.33381e-11 -0.00397717)
(-0.0406037 -1.07757e-10 -0.00383867)
(-0.0381301 -1.91364e-10 -0.00369901)
(-0.0357456 -2.73745e-10 -0.00355825)
(-0.0334512 -3.57393e-10 -0.00341648)
(-0.0312475 -4.3566e-10 -0.0032738)
(-0.0291352 -5.16858e-10 -0.00313031)
(-0.0271149 -5.93506e-10 -0.0029861)
(-0.0251872 -6.74335e-10 -0.0028413)
(-0.0233526 -7.58515e-10 -0.00269604)
(-0.0216114 -8.41058e-10 -0.00255045)
(-0.0199638 -9.26122e-10 -0.00240468)
(-0.0184102 -1.01538e-09 -0.00225891)
(-0.0169505 -1.10549e-09 -0.00211332)
(-0.0155847 -1.19563e-09 -0.00196812)
(-0.0143125 -1.28831e-09 -0.00182351)
(-0.0131338 -1.38351e-09 -0.00167976)
(-0.0120478 -1.47459e-09 -0.00153711)
(-0.0110541 -1.56403e-09 -0.00139586)
(-0.0101516 -1.64518e-09 -0.00125631)
(-0.00933943 -1.72386e-09 -0.00111879)
(-0.00861618 -1.78925e-09 -0.00098367)
(-0.00798037 -1.84635e-09 -0.000851322)
(-0.00743024 -1.89013e-09 -0.000722154)
(-0.00696375 -1.91228e-09 -0.000596599)
(-0.00657861 -1.92112e-09 -0.000475115)
(-0.00627221 -1.9108e-09 -0.000358186)
(-0.00604164 -1.87966e-09 -0.000246321)
(-0.00588365 -1.83518e-09 -0.000140055)
(-0.00579467 -1.77653e-09 -3.99495e-05)
(-0.00577077 -1.70703e-09 5.34241e-05)
(-0.00580761 -1.63419e-09 0.000139462)
(-0.00590054 -1.57136e-09 0.000217523)
(-0.00604446 -1.51938e-09 0.00028695)
(-0.00623387 -1.48408e-09 0.000347063)
(-0.00646285 -1.47383e-09 0.000397164)
(-0.00672505 -1.47946e-09 0.000436532)
(-0.00701369 -1.48927e-09 0.000464426)
(-0.00732152 -1.4799e-09 0.000480086)
(-0.00764086 -1.44215e-09 0.000482734)
(-0.00796355 -1.3643e-09 0.000471575)
(-0.00828099 -1.25219e-09 0.000445801)
(-0.00858413 -1.12668e-09 0.000404592)
(-0.00886347 -1.01702e-09 0.000347126)
(-0.0091091 -9.29904e-10 0.000272585)
(-0.0093107 -8.64502e-10 0.000180177)
(-0.0094576 -7.9658e-10 6.91607e-05)
(-0.00953889 -7.11954e-10 -6.10846e-05)
(-0.0095434 -6.07183e-10 -0.000210998)
(-0.00946003 -5.05706e-10 -0.000380787)
(-0.00927786 -4.3514e-10 -0.000570229)
(-0.00898651 -4.13916e-10 -0.000778353)
(-0.00857662 -4.09398e-10 -0.00100299)
(-0.0080406 -4.61789e-10 -0.00124002)
(-0.00737365 -6.01278e-10 -0.0014821)
(-0.00657534 -8.81564e-10 -0.00171657)
(-0.00565184 -1.2541e-09 -0.00192204)
(-0.00461896 -1.60309e-09 -0.0020627)
(-0.00350657 -1.89295e-09 -0.00207961)
(-0.0023618 -2.11948e-09 -0.00187885)
(-0.00126175 -2.3914e-09 -0.00132081)
(-0.0003039 -2.42522e-09 -0.00025943)
(0.000105067 -4.51971e-08 0.000974604)
(0.00602258 -8.89971e-06 -0.0111195)
(0.0124196 -6.5652e-07 -0.012979)
(0.015958 -7.71439e-07 -0.0102105)
(0.0176905 -4.67575e-07 -0.00592327)
(0.0174803 1.33813e-07 -0.00164079)
(0.0155841 3.89669e-07 0.00211737)
(0.0121887 3.89988e-07 0.00522793)
(0.0075007 2.98763e-07 0.00772972)
(0.00172491 2.04702e-07 0.00971263)
(-0.0049512 1.34404e-07 0.0112691)
(-0.0123475 8.80257e-08 0.0124771)
(-0.0203254 5.86529e-08 0.013399)
(-0.0287591 3.99099e-08 0.0140909)
(-0.0375462 2.78268e-08 0.0146022)
(-0.046596 1.98989e-08 0.0149664)
(-0.0558342 1.44051e-08 0.0152103)
(-0.0651975 1.02415e-08 0.015355)
(-0.0746323 6.83726e-09 0.0154169)
(-0.0840931 4.03701e-09 0.0154096)
(-0.093541 1.93349e-09 0.0153437)
(-0.102943 6.63861e-10 0.0152282)
(-0.112269 2.54258e-10 0.0150701)
(-0.121496 5.71666e-10 0.0148756)
(-0.1306 1.36019e-09 0.0146494)
(-0.139564 2.32299e-09 0.0143958)
(-0.148371 3.19414e-09 0.0141182)
(-0.157006 3.77724e-09 0.0138196)
(-0.165455 3.97564e-09 0.0135026)
(-0.173709 3.77081e-09 0.0131693)
(-0.181757 3.21395e-09 0.0128217)
(-0.18959 2.38698e-09 0.0124615)
(-0.197199 1.38337e-09 0.01209)
(-0.204579 2.91978e-10 0.0117087)
(-0.211722 -7.88811e-10 0.0113187)
(-0.218624 -1.72415e-09 0.0109211)
(-0.22528 -2.35723e-09 0.0105169)
(-0.231685 -2.53838e-09 0.0101069)
(-0.237836 -2.17974e-09 0.0096921)
(-0.243731 -1.31256e-09 0.00927312)
(-0.249365 -7.8002e-11 0.00885074)
(-0.254738 1.29367e-09 0.00842563)
(-0.259847 2.54944e-09 0.00799844)
(-0.264691 3.46579e-09 0.00756979)
(-0.26927 3.89311e-09 0.00714026)
(-0.273582 3.77841e-09 0.00671041)
(-0.277629 3.16117e-09 0.0062808)
(-0.281409 2.15737e-09 0.00585195)
(-0.284923 9.27301e-10 0.00542437)
(-0.288172 -3.54044e-10 0.00499854)
(-0.291158 -1.51918e-09 0.00457496)
(-0.293881 -2.44295e-09 0.00415407)
(-0.296344 -3.05409e-09 0.00373633)
(-0.298548 -3.33834e-09 0.00332219)
(-0.300496 -3.34506e-09 0.00291205)
(-0.30219 -3.1572e-09 0.00250635)
(-0.303633 -2.87796e-09 0.00210547)
(-0.304827 -2.59273e-09 0.00170983)
(-0.305777 -2.3527e-09 0.0013198)
(-0.306485 -2.16284e-09 0.000935749)
(-0.306956 -1.98894e-09 0.000558032)
(-0.307193 -1.77776e-09 0.000186994)
(-0.3072 -1.48371e-09 -0.00017707)
(-0.306982 -1.0867e-09 -0.000533945)
(-0.306543 -5.99369e-10 -0.000883378)
(-0.305888 -6.66816e-11 -0.00122508)
(-0.305022 4.51278e-10 -0.00155877)
(-0.303949 8.85936e-10 -0.00188418)
(-0.302676 1.19338e-09 -0.00220105)
(-0.301206 1.35247e-09 -0.00250914)
(-0.299546 1.3711e-09 -0.00280825)
(-0.297702 1.28427e-09 -0.00309817)
(-0.295678 1.13592e-09 -0.00337872)
(-0.293481 9.77626e-10 -0.00364975)
(-0.291117 8.49168e-10 -0.0039111)
(-0.288591 7.76235e-10 -0.00416265)
(-0.28591 7.68356e-10 -0.0044043)
(-0.28308 8.23459e-10 -0.00463595)
(-0.280106 9.29323e-10 -0.00485752)
(-0.276996 1.06709e-09 -0.00506896)
(-0.273754 1.22062e-09 -0.00527023)
(-0.270389 1.37352e-09 -0.0054613)
(-0.266905 1.50985e-09 -0.00564217)
(-0.263309 1.62092e-09 -0.00581284)
(-0.259608 1.70049e-09 -0.00597334)
(-0.255808 1.74858e-09 -0.00612371)
(-0.251914 1.77056e-09 -0.006264)
(-0.247933 1.77183e-09 -0.00639428)
(-0.243871 1.76523e-09 -0.00651465)
(-0.239735 1.7578e-09 -0.00662519)
(-0.23553 1.75907e-09 -0.00672603)
(-0.231262 1.76905e-09 -0.00681729)
(-0.226937 1.79064e-09 -0.0068991)
(-0.222561 1.81969e-09 -0.00697162)
(-0.21814 1.85082e-09 -0.00703501)
(-0.213679 1.87947e-09 -0.00708945)
(-0.209184 1.90314e-09 -0.00713511)
(-0.20466 1.92019e-09 -0.00717218)
(-0.200112 1.9331e-09 -0.00720087)
(-0.195545 1.94352e-09 -0.00722139)
(-0.190965 1.95354e-09 -0.00723395)
(-0.186377 1.96936e-09 -0.00723877)
(-0.181785 1.98767e-09 -0.00723608)
(-0.177193 2.00847e-09 -0.00722611)
(-0.172607 2.03093e-09 -0.00720908)
(-0.168031 2.05299e-09 -0.00718525)
(-0.163469 2.06717e-09 -0.00715484)
(-0.158924 2.07057e-09 -0.00711811)
(-0.154402 2.0632e-09 -0.00707527)
(-0.149905 2.04463e-09 -0.00702659)
(-0.145438 2.01445e-09 -0.00697229)
(-0.141003 1.97597e-09 -0.00691261)
(-0.136605 1.92878e-09 -0.00684778)
(-0.132246 1.87869e-09 -0.00677804)
(-0.12793 1.8261e-09 -0.0067036)
(-0.123659 1.77226e-09 -0.00662469)
(-0.119437 1.71967e-09 -0.00654152)
(-0.115265 1.66541e-09 -0.0064543)
(-0.111148 1.61363e-09 -0.00636323)
(-0.107086 1.55853e-09 -0.00626851)
(-0.103084 1.50052e-09 -0.00617032)
(-0.0991415 1.44002e-09 -0.00606884)
(-0.0952623 1.3737e-09 -0.00596425)
(-0.0914482 1.30322e-09 -0.00585671)
(-0.0877009 1.22816e-09 -0.00574637)
(-0.0840224 1.14811e-09 -0.00563339)
(-0.0804144 1.06515e-09 -0.00551789)
(-0.0768787 9.77607e-10 -0.00540002)
(-0.0734169 8.88806e-10 -0.00527989)
(-0.0700303 7.975e-10 -0.00515763)
(-0.0667207 7.04932e-10 -0.00503333)
(-0.0634893 6.1235e-10 -0.00490711)
(-0.0603374 5.19751e-10 -0.00477906)
(-0.0572665 4.27966e-10 -0.00464928)
(-0.0542776 3.35748e-10 -0.00451784)
(-0.051372 2.43512e-10 -0.00438483)
(-0.0485507 1.53335e-10 -0.00425033)
(-0.0458149 6.52157e-11 -0.00411443)
(-0.0431655 -2.3338e-11 -0.00397719)
(-0.0406036 -1.07756e-10 -0.0038387)
(-0.0381299 -1.91363e-10 -0.00369903)
(-0.0357455 -2.73743e-10 -0.00355827)
(-0.0334511 -3.57392e-10 -0.00341651)
(-0.0312473 -4.35658e-10 -0.00327383)
(-0.0291351 -5.16856e-10 -0.00313033)
(-0.0271148 -5.93504e-10 -0.00298613)
(-0.0251871 -6.74332e-10 -0.00284133)
(-0.0233525 -7.58512e-10 -0.00269606)
(-0.0216112 -8.41054e-10 -0.00255047)
(-0.0199637 -9.26119e-10 -0.00240471)
(-0.0184101 -1.01537e-09 -0.00225894)
(-0.0169504 -1.10549e-09 -0.00211335)
(-0.0155845 -1.19563e-09 -0.00196814)
(-0.0143124 -1.2883e-09 -0.00182354)
(-0.0131336 -1.38351e-09 -0.00167978)
(-0.0120477 -1.47458e-09 -0.00153713)
(-0.011054 -1.56402e-09 -0.00139588)
(-0.0101515 -1.64517e-09 -0.00125633)
(-0.0093393 -1.72386e-09 -0.00111881)
(-0.00861605 -1.78925e-09 -0.000983692)
(-0.00798024 -1.84634e-09 -0.000851343)
(-0.00743011 -1.89013e-09 -0.000722175)
(-0.00696363 -1.91228e-09 -0.000596619)
(-0.00657849 -1.92111e-09 -0.000475135)
(-0.00627209 -1.9108e-09 -0.000358205)
(-0.00604152 -1.87965e-09 -0.00024634)
(-0.00588353 -1.83518e-09 -0.000140074)
(-0.00579456 -1.77652e-09 -3.99675e-05)
(-0.00577065 -1.70702e-09 5.34063e-05)
(-0.0058075 -1.63419e-09 0.000139444)
(-0.00590043 -1.57136e-09 0.000217505)
(-0.00604435 -1.51937e-09 0.000286932)
(-0.00623376 -1.48408e-09 0.000347045)
(-0.00646275 -1.47383e-09 0.000397146)
(-0.00672496 -1.47945e-09 0.000436514)
(-0.0070136 -1.48927e-09 0.000464407)
(-0.00732143 -1.4799e-09 0.000480067)
(-0.00764077 -1.44214e-09 0.000482714)
(-0.00796347 -1.3643e-09 0.000471554)
(-0.00828091 -1.25219e-09 0.000445779)
(-0.00858406 -1.12668e-09 0.000404568)
(-0.00886341 -1.01702e-09 0.0003471)
(-0.00910904 -9.29902e-10 0.000272558)
(-0.00931064 -8.64499e-10 0.000180147)
(-0.00945755 -7.96578e-10 6.91282e-05)
(-0.00953885 -7.11952e-10 -6.11202e-05)
(-0.00954336 -6.07182e-10 -0.000211037)
(-0.00946 -5.05705e-10 -0.00038083)
(-0.00927783 -4.35139e-10 -0.000570276)
(-0.00898649 -4.13915e-10 -0.000778406)
(-0.00857662 -4.09397e-10 -0.00100305)
(-0.0080406 -4.61788e-10 -0.00124009)
(-0.00737365 -6.01276e-10 -0.00148217)
(-0.00657534 -8.81562e-10 -0.00171666)
(-0.00565185 -1.2541e-09 -0.00192214)
(-0.00461898 -1.60309e-09 -0.00206281)
(-0.00350659 -1.89295e-09 -0.00207973)
(-0.00236182 -2.11948e-09 -0.001879)
(-0.00126179 -2.3914e-09 -0.00132099)
(-0.000304028 -2.42522e-09 -0.000259664)
(0.000104874 -4.51972e-08 0.000974271)
(0.00521349 5.30567e-06 -0.0199955)
(0.00944156 2.28485e-06 -0.0167003)