/*--------------------------------*- C++ -*----------------------------------*\
  =========                 |
  \\      /  F ield         | OpenFOAM: The Open Source CFD Toolbox
   \\    /   O peration     | Website:  https://openfoam.org
    \\  /    A nd           | Version:  8
     \\/     M anipulation  |
\*---------------------------------------------------------------------------*/
FoamFile
{
    version     2.0;
    format      ascii;
    class       volScalarField;
    location    "3800";
    object      epsilon;
}
// * * * * * * * * * * * * * * * * * * * * * * * * * * * * * * * * * * * * * //

dimensions      [0 2 -3 0 0 0 0];

internalField   nonuniform List<scalar> 
48000
(
1.51555
5.80727
11.0201
16.3972
22.0606
27.7377
33.3903
39.0116
44.7008
50.4329
56.1628
61.8987
67.6315
73.3531
79.0552
84.7289
90.3647
95.953
101.484
106.946
112.331
117.628
122.827
127.92
132.896
137.747
142.466
147.045
151.478
155.759
159.882
163.844
167.64
171.268
174.726
178.013
181.127
184.068
186.838
189.436
191.865
194.126
196.222
198.155
199.964
201.627
203.139
204.502
205.722
206.802
207.749
208.568
209.263
209.84
210.304
210.66
210.913
211.067
211.129
211.102
210.99
210.799
210.533
210.195
209.79
209.321
208.792
208.207
207.569
206.88
206.145
205.365
204.544
203.684
202.786
201.855
200.89
199.896
198.872
197.822
196.746
195.646
194.523
193.378
192.214
191.03
189.827
188.607
187.371
186.118
184.85
183.567
182.27
180.959
179.634
178.297
176.946
175.583
174.207
172.82
171.42
170.008
168.585
167.15
165.703
164.244
162.773
161.291
159.797
158.291
156.773
155.243
153.701
152.147
150.581
149.002
147.412
145.809
144.194
142.566
140.926
139.273
137.608
135.93
134.24
132.538
130.823
129.096
127.357
125.606
123.843
122.069
120.283
118.486
116.678
114.859
113.03
111.191
109.342
107.484
105.617
103.742
101.859
99.9687
98.0716
96.1681
94.2591
92.345
90.4265
88.5042
86.579
84.6514
82.7222
80.7922
78.8621
76.9326
75.0046
73.0789
71.1562
69.2373
67.3231
65.4143
63.5118
61.6163
59.7286
57.8494
55.9796
54.1197
52.2706
50.4329
48.6071
46.794
44.994
43.2076
41.4353
39.6776
37.9346
36.2068
34.4946
32.7987
31.1211
29.4703
27.8404
26.2223
24.6151
23.0177
21.4287
19.8466
18.2693
16.694
15.1176
13.5396
11.9678
10.3839
8.77949
7.14451
5.46568
3.72854
1.95639
0.574581
1.51559
5.80735
11.0202
16.3974
22.0607
27.7379
33.3905
39.0118
44.701
50.4331
56.163
61.8989
67.6317
73.3533
79.0554
84.7291
90.3649
95.9531
101.484
106.947
112.331
117.628
122.828
127.92
132.896
137.747
142.466
147.045
151.478
155.759
159.882
163.844
167.64
171.268
174.726
178.013
181.127
184.068
186.838
189.436
191.865
194.126
196.222
198.155
199.964
201.627
203.139
204.502
205.722
206.802
207.749
208.568
209.263
209.84
210.304
210.66
210.913
211.067
211.129
211.102
210.99
210.799
210.533
210.195
209.79
209.321
208.792
208.207
207.569
206.88
206.145
205.365
204.544
203.684
202.786
201.855
200.89
199.896
198.872
197.822
196.746
195.646
194.523
193.378
192.214
191.03
189.827
188.607
187.371
186.118
184.85
183.567
182.27
180.959
179.634
178.297
176.946
175.583
174.207
172.82
171.42
170.008
168.585
167.15
165.703
164.244
162.773
161.291
159.797
158.291
156.773
155.243
153.701
152.147
150.581
149.002
147.412
145.809
144.193
142.566
140.925
139.273
137.608
135.93
134.24
132.538
130.823
129.096
127.357
125.606
123.843
122.069
120.283
118.486
116.678
114.859
113.03
111.191
109.342
107.484
105.617
103.742
101.859
99.9687
98.0716
96.1681
94.2591
92.345
90.4265
88.5042
86.579
84.6514
82.7222
80.7922
78.8621
76.9326
75.0046
73.0789
71.1562
69.2373
67.3231
65.4143
63.5118
61.6163
59.7286
57.8494
55.9796
54.1197
52.2706
50.4329
48.6071
46.794
44.994
43.2076
41.4353
39.6776
37.9346
36.2068
34.4946
32.7987
31.1212
29.4703
27.8404
26.2223
24.6151
23.0178
21.4288
19.8466
18.2693
16.694
15.1176
13.5396
11.9678
10.3839
8.7795
7.14452
5.46567
3.72854
1.95646
0.574584
6.90531
5.91805
7.57439
9.59414
11.7944
14.0804
16.4129
18.7652
21.1478
23.5586
25.9913
28.4436
30.9124
33.394
35.8845
38.3796
40.8746
43.3645
45.844
48.3075
50.7495
53.1643
55.5463
57.89
60.19
62.441
64.6382
66.7769
68.8529
70.8623
72.8014
74.6673
76.4573
78.169
79.8008
81.3511
82.819
84.2039
85.5056
86.7242
87.8602
88.9146
89.8889
90.7862
91.615
92.3719
93.0556
93.6671
94.2082
94.681
95.088
95.4317
95.7147
95.9396
96.1091
96.2258
96.2923
96.3111
96.2848
96.2158
96.1064
95.959
95.7757
95.5588
95.3102
95.032
94.726
94.394
94.0376
93.6585
93.2583
92.8383
92.3998
91.9442
91.4726
90.9862
90.4859
89.9728
89.4476
88.9114
88.3647
87.8084
87.2431
86.6693
86.0876
85.4986
84.9027
84.3002
83.6916
83.0771
82.4572
81.832
81.2018
80.5668
79.9272
79.2831
78.6347
77.9821
77.3253
76.6644
75.9996
75.3308
74.658
73.9814
73.3008
72.6163
71.9279
71.2356
70.5393
69.839
69.1347
68.4263
67.7138
66.9971
66.2763
65.5513
64.822
64.0884
63.3505
62.6082
61.8615
61.1105
60.355
59.5951
58.8308
58.0622
57.2891
56.5117
55.73
54.944
54.1538
53.3594
52.561
51.7587
50.9525
50.1425
49.329
48.512
47.6916
46.8681
46.0417
45.2125
44.3807
43.5466
42.7104
41.8723
41.0325
40.1915
39.3493
38.5064
37.6629
36.8193
35.9758
35.1327
34.2904
33.4492
32.6094
31.7714
30.9354
30.102
29.2713
28.4437
27.6197
26.7994
25.9832
25.1715
24.3645
23.5625
22.7659
21.9749
21.1898
20.4108
19.6381
18.872
18.1125
17.36
16.6145
15.8761
15.1451
14.4216
13.7063
12.9996
12.3009
11.6082
10.9221
10.2421
9.56759
8.89822
8.23348
7.57295
6.91648
6.26507
5.62035
4.97917
4.34104
3.70746
3.08458
2.49325
2.01591
2.3849
6.90542
5.91803
7.57433
9.59407
11.7943
14.0803
16.4128
18.7651
21.1477
23.5584
25.9912
28.4435
30.9122
33.3938
35.8843
38.3795
40.8745
43.3643
45.8438
48.3073
50.7493
53.1641
55.5461
57.8898
60.1898
62.4408
64.638
66.7767
68.8527
70.862
72.8012
74.6671
76.4571
78.1688
79.8005
81.3508
82.8187
84.2036
85.5053
86.7239
87.86
88.9144
89.8886
90.7859
91.6148
92.3716
93.0553
93.6668
94.2079
94.6807
95.0877
95.4314
95.7144
95.9393
96.1089
96.2256
96.292
96.3109
96.2846
96.2155
96.1061
95.9587
95.7755
95.5585
95.31
95.0317
94.7257
94.3937
94.0374
93.6583
93.258
92.838
92.3996
91.944
91.4724
90.9859
90.4857
89.9725
89.4474
88.9111
88.3645
87.8082
87.2428
86.6691
86.0874
85.4984
84.9024
84.3
83.6914
83.0769
82.457
81.8318
81.2016
80.5666
79.927
79.2829
78.6345
77.9818
77.3251
76.6642
75.9994
75.3306
74.6578
73.9812
73.3006
72.6161
71.9277
71.2354
70.5391
69.8388
69.1345
68.4261
67.7136
66.997
66.2762
65.5511
64.8218
64.0882
63.3503
62.608
61.8614
61.1103
60.3548
59.595
58.8307
58.062
57.289
56.5115
55.7298
54.9438
54.1536
53.3593
52.5609
51.7586
50.9524
50.1424
49.3289
48.5118
47.6915
46.868
46.0416
45.2124
44.3806
43.5465
42.7102
41.8721
41.0324
40.1913
39.3492
38.5063
37.6628
36.8192
35.9757
35.1326
34.2903
33.4491
32.6093
31.7713
30.9354
30.1019
29.2712
28.4437
27.6196
26.7993
25.9831
25.1714
24.3644
23.5625
22.7659
21.9749
21.1898
20.4107
19.6381
18.8719
18.1125
17.3599
16.6144
15.876
15.145
14.4216
13.7062
12.9996
12.3009
11.6082
10.922
10.242
9.56756
8.89819
8.23345
7.57292
6.91646
6.26505
5.62034
4.97915
4.34103
3.70745
3.08455
2.49317
2.01592
2.3848
12.8394
7.93587
8.40193
9.60377
11.0617
12.6505
14.318
16.0377
17.7982
19.592
21.4134
23.2581
25.1222
27.0023
28.8948
30.7961
32.7022
34.6091
36.5125
38.408
40.2909
42.1568
44.0009
45.8186
47.6054
49.3568
51.0687
52.737
54.3579
55.9279
57.4439
58.9031
60.3028
61.6411
62.9161
64.1264
65.2709
66.349
67.3602
68.3045
69.1822
69.994
70.7411
71.4254
72.0496
72.6142
73.1194
73.5664
73.9566
74.2916
74.5735
74.8042
74.9858
75.1206
75.2107
75.2583
75.2655
75.2345
75.1673
75.066
74.9327
74.7691
74.5773
74.3589
74.1158
73.8495
73.5616
73.2536
72.9269
72.5829
72.2228
71.8478
71.4591
71.0576
70.6444
70.2203
69.7863
69.343
68.8914
68.4319
67.9653
67.4921
67.0128
66.528
66.0381
65.5434
65.0444
64.5413
64.0345
63.5242
63.0107
62.4942
61.9748
61.4527
60.9281
60.401
59.8717
59.34
58.8062
58.2703
57.7323
57.1922
56.65
56.1059
55.5597
55.0114
54.4611
53.9087
53.3542
52.7976
52.2388
51.6778
51.1145
50.549
49.9811
49.411
48.8384
48.2634
47.6859
47.106
46.5236
45.9387
45.3512
44.7612
44.1686
43.5736
42.9759
42.3758
41.7731
41.168
40.5605
39.9506
39.3384
38.724
38.1074
37.4887
36.868
36.2454
35.621
34.995
34.3675
33.7386
33.1085
32.4773
31.8452
31.2125
30.5792
29.9455
29.3118
28.6781
28.0448
27.412
26.7799
26.1489
25.5191
24.8908
24.2642
23.6396
23.0172
22.3973
21.7801
21.1659
20.5549
19.9475
19.3437
18.7438
18.1481
17.5568
16.9701
16.3882
15.8113
15.2395
14.6731
14.1122
13.5569
13.0073
12.4637
11.926
11.3946
10.8694
10.3506
9.83843
9.33264
8.83289
8.33913
7.85122
7.36914
6.8932
6.42337
5.95992
5.5034
5.05488
4.61602
4.18821
3.77488
3.3835
3.03108
2.76321
2.75537
4.58656
12.8396
7.93582
8.40184
9.60366
11.0616
12.6504
14.3179
16.0376
17.798
19.5919
21.4133
23.2579
25.122
27.0022
28.8947
30.7959
32.7021
34.6089
36.5123
38.4078
40.2908
42.1566
44.0007
45.8185
47.6052
49.3567
51.0685
52.7368
54.3577
55.9277
57.4438
58.9029
60.3027
61.641
62.916
64.1263
65.2708
66.3488
67.36
68.3043
69.182
69.9939
70.741
71.4253
72.0495
72.614
73.1193
73.5663
73.9564
74.2915
74.5733
74.804
74.9857
75.1205
75.2106
75.2582
75.2654
75.2343
75.1672
75.0659
74.9325
74.769
74.5772
74.3588
74.1157
73.8494
73.5615
73.2535
72.9268
72.5828
72.2227
71.8477
71.459
71.0575
70.6443
70.2202
69.7862
69.3429
68.8913
68.4318
67.9652
67.492
67.0127
66.5279
66.038
65.5433
65.0443
64.5412
64.0344
63.5241
63.0106
62.4941
61.9747
61.4526
60.928
60.401
59.8716
59.3399
58.8061
58.2702
57.7322
57.1921
56.65
56.1058
55.5596
55.0113
54.461
53.9086
53.3541
52.7975
52.2387
51.6777
51.1144
50.5489
49.9811
49.4109
48.8383
48.2633
47.6859
47.106
46.5236
45.9386
45.3512
44.7611
44.1686
43.5735
42.9759
42.3757
41.7731
41.168
40.5605
39.9506
39.3384
38.7239
38.1073
37.4886
36.8679
36.2453
35.621
34.995
34.3675
33.7386
33.1084
32.4773
31.8452
31.2124
30.5791
29.9455
29.3117
28.6781
28.0447
27.4119
26.7799
26.1488
25.519
24.8907
24.2641
23.6395
23.0171
22.3972
21.7801
21.1659
20.5549
19.9474
19.3436
18.7438
18.1481
17.5568
16.9701
16.3882
15.8113
15.2395
14.6731
14.1122
13.5568
13.0073
12.4637
11.926
11.3945
10.8693
10.3506
9.83842
9.33262
8.83288
8.33911
7.85121
7.36912
6.89319
6.42336
5.95991
5.50339
5.05487
4.61601
4.1882
3.77488
3.38349
3.03107
2.76321
2.75543
4.58658
18.6503
10.3311
9.9382
10.6534
11.7457
13.0257
14.4177
15.8837
17.4029
18.9622
20.553
22.1686
23.8041
25.4553
27.1184
28.7895
30.4651
32.1415
33.815
35.4816
37.1373
38.7783
40.4003
41.9995
43.5717
45.1132
46.6201
48.0888
49.5159
50.8983
52.2329
53.5173
54.7489
55.9259
57.0465
58.1092
59.1131
60.0573
60.9414
61.7654
62.5293
63.2338
63.8796
64.4681
65.0008
65.4786
65.9025
66.2735
66.593
66.8627
67.0843
67.2595
67.3904
67.4788
67.5267
67.5362
67.5092
67.4477
67.3536
67.2288
67.0751
66.8944
66.6883
66.4585
66.2066
65.9342
65.6426
65.3333
65.0076
64.6667
64.3118
63.944
63.5643
63.1738
62.7732
62.3635
61.9455
61.5198
61.0872
60.6482
60.2035
59.7535
59.2988
58.8399
58.377
57.9106
57.4409
56.9684
56.4933
56.0157
55.536
55.0543
54.5707
54.0855
53.5987
53.1104
52.6208
52.1298
51.6377
51.1443
50.6497
50.154
49.6572
49.1592
48.6601
48.1598
47.6584
47.1558
46.652
46.1469
45.6406
45.1329
44.6239
44.1136
43.6018
43.0885
42.5738
42.0576
41.5398
41.0204
40.4994
39.9768
39.4526
38.9267
38.3992
37.87
37.3391
36.8066
36.2725
35.7368
35.1995
34.6608
34.1205
33.5788
33.0357
32.4914
31.9459
31.3992
30.8515
30.3029
29.7535
29.2034
28.6528
28.1017
27.5504
26.9989
26.4475
25.8963
25.3455
24.7952
24.2457
23.6971
23.1496
22.6035
22.0589
21.5161
20.9752
20.4364
19.9001
19.3663
18.8353
18.3073
17.7825
17.2612
16.7435
16.2295
15.7196
15.2139
14.7126
14.2158
13.7238
13.2366
12.7545
12.2775
11.8058
11.3396
10.8789
10.424
9.97487
9.5317
9.09462
8.66373
8.23906
7.82063
7.40851
7.00283
6.60383
6.21186
5.82733
5.45116
5.08441
4.72868
4.38649
4.06161
3.76059
3.49609
3.29542
3.23053
3.57984
6.78562
18.6505
10.3311
9.9381
10.6533
11.7456
13.0256
14.4175
15.8835
17.4027
18.9621
20.5528
22.1684
23.804
25.4552
27.1182
28.7893
30.465
32.1414
33.8148
35.4814
37.1372
38.7781
40.4002
41.9993
43.5716
45.1131
46.6199
48.0887
49.5158
50.8981
52.2328
53.5171
54.7488
55.9258
57.0464
58.1091
59.113
60.0572
60.9413
61.7653
62.5292
63.2337
63.8795
64.468
65.0007
65.4785
65.9024
66.2734
66.5929
66.8626
67.0842
67.2594
67.3903
67.4787
67.5267
67.5361
67.5092
67.4476
67.3535
67.2287
67.0751
66.8943
66.6882
66.4584
66.2065
65.9341
65.6425
65.3332
65.0075
64.6666
64.3117
63.9439
63.5643
63.1737
62.7732
62.3635
61.9454
61.5197
61.0871
60.6481
60.2034
59.7535
59.2988
58.8398
58.3769
57.9105
57.4409
56.9684
56.4932
56.0157
55.536
55.0542
54.5707
54.0855
53.5987
53.1104
52.6207
52.1298
51.6376
51.1442
50.6497
50.154
49.6571
49.1592
48.66
48.1598
47.6584
47.1558
46.6519
46.1469
45.6405
45.1329
44.6239
44.1135
43.6018
43.0885
42.5738
42.0575
41.5397
41.0204
40.4994
39.9768
39.4526
38.9267
38.3991
37.8699
37.3391
36.8066
36.2725
35.7368
35.1995
34.6607
34.1205
33.5788
33.0357
32.4914
31.9459
31.3992
30.8515
30.3029
29.7535
29.2034
28.6528
28.1017
27.5504
26.9989
26.4475
25.8963
25.3454
24.7952
24.2457
23.6971
23.1496
22.6035
22.0589
21.516
20.9751
20.4364
19.9
19.3663
18.8353
18.3073
17.7825
17.2612
16.7435
16.2295
15.7196
15.2139
14.7126
14.2158
13.7238
13.2366
12.7545
12.2775
11.8058
11.3396
10.8789
10.424
9.97486
9.53169
9.09462
8.66373
8.23906
7.82062
7.4085
7.00283
6.60383
6.21186
5.82733
5.45116
5.08441
4.72868
4.38649
4.06161
3.76059
3.49609
3.29542
3.23053
3.57986
6.78563
24.4814
12.9278
11.7754
12.1168
12.9631
14.0557
15.2926
16.623
18.018
19.4594
20.9353
22.4368
23.9575
25.4923
27.0368
28.5871
30.1397
31.6911
33.2378
34.7763
36.3033
37.8151
39.3083
40.7793
42.2246
43.6409
45.0247
46.3728
47.6822
48.9501
50.1736
51.3505
52.4786
53.5558
54.5807
55.5519
56.4683
57.3291
58.134
58.8827
59.5754
60.2123
60.7943
61.3222
61.7972
62.2202
62.5924
62.9148
63.1888
63.416
63.5979
63.7363
63.8329
63.8895
63.9081
63.8905
63.8385
63.7541
63.639
63.4951
63.3241
63.1277
62.9076
62.6653
62.4023
62.1202
61.8203
61.504
61.1724
60.8269
60.4685
60.0982
59.7172
59.3262
58.9262
58.5181
58.1024
57.6801
57.2516
56.8176
56.3786
55.9352
55.4878
55.0369
54.5828
54.1258
53.6663
53.2047
52.741
52.2756
51.8086
51.3403
50.8708
50.4002
49.9286
49.4562
48.983
48.509
48.0344
47.5592
47.0834
46.607
46.1301
45.6525
45.1745
44.6958
44.2165
43.7366
43.2561
42.7748
42.2929
41.8102
41.3267
40.8424
40.3573
39.8713
39.3843
38.8964
38.4075
37.9176
37.4266
36.9346
36.4416
35.9474
35.4521
34.9557
34.4583
33.9597
33.4601
32.9594
32.4577
31.955
31.4513
30.9467
30.4413
29.9351
29.4282
28.9207
28.4126
27.9041
27.3952
26.886
26.3767
25.8675
25.3583
24.8494
24.3409
23.8329
23.3257
22.8193
22.3139
21.8098
21.307
20.8058
20.3063
19.8087
19.3132
18.8201
18.3294
17.8413
17.3562
16.8741
16.3952
15.9197
15.4478
14.9797
14.5156
14.0556
13.5999
13.1486
12.7019
12.26
11.823
11.3911
10.9643
10.5429
10.127
9.71667
9.31213
8.91352
8.52099
8.13471
7.75483
7.38154
7.01507
6.65575
6.304
5.96043
5.62584
5.30137
4.98862
4.6899
4.40881
4.1508
3.92531
3.74987
3.6619
3.75985
4.42563
8.96658
24.4816
12.9277
11.7753
12.1167
12.9629
14.0556
15.2925
16.6229
18.0178
19.4593
20.9351
22.4366
23.9574
25.4921
27.0366
28.587
30.1396
31.6909
33.2376
34.7762
36.3031
37.8149
39.3081
40.7791
42.2245
43.6407
45.0245
46.3727
47.6821
48.9499
50.1735
51.3504
52.4784
53.5557
54.5806
55.5518
56.4682
57.329
58.1339
58.8826
59.5753
60.2122
60.7942
61.3221
61.7971
62.2201
62.5923
62.9147
63.1888
63.4159
63.5979
63.7362
63.8328
63.8895
63.908
63.8904
63.8385
63.7541
63.639
63.4951
63.3241
63.1277
62.9075
62.6652
62.4023
62.1202
61.8203
61.5039
61.1724
60.8268
60.4684
60.0982
59.7171
59.3262
58.9262
58.518
58.1024
57.68
57.2515
56.8175
56.3786
55.9352
55.4878
55.0369
54.5827
54.1258
53.6663
53.2046
52.741
52.2756
51.8086
51.3403
50.8708
50.4002
49.9286
49.4562
48.9829
48.509
48.0344
47.5592
47.0834
46.607
46.13
45.6525
45.1744
44.6958
44.2165
43.7366
43.256
42.7748
42.2929
41.8102
41.3267
40.8424
40.3573
39.8713
39.3843
38.8964
38.4075
37.9176
37.4266
36.9346
36.4415
35.9474
35.4521
34.9557
34.4582
33.9597
33.4601
32.9594
32.4576
31.9549
31.4513
30.9467
30.4413
29.9351
29.4282
28.9207
28.4126
27.9041
27.3952
26.886
26.3767
25.8674
25.3583
24.8494
24.3409
23.8329
23.3257
22.8193
22.3139
21.8098
21.307
20.8058
20.3063
19.8087
19.3132
18.82
18.3294
17.8413
17.3562
16.874
16.3952
15.9197
15.4478
14.9797
14.5156
14.0556
13.5999
13.1486
12.7019
12.26
11.823
11.3911
10.9643
10.5429
10.127
9.71667
9.31213
8.91352
8.52099
8.13471
7.75483
7.38154
7.01507
6.65575
6.304
5.96043
5.62584
5.30137
4.98862
4.6899
4.40881
4.1508
3.92531
3.74987
3.6619
3.75985
4.42565
8.96658
30.2921
15.6497
13.796
13.8234
14.4812
15.4424
16.5784
17.8254
19.1471
20.5206
21.9306
23.3663
24.8198
26.2849
27.7567
29.2312
30.7047
32.1739
33.6356
35.0868
36.5244
37.9454
39.3468
40.7255
42.0785
43.4029
44.6957
45.9542
47.1755
48.3573
49.497
50.5925
51.6418
52.6432
53.5951
54.4963
55.3458
56.1429
56.8871
57.5781
58.2161
58.8012
59.3341
59.8155
60.2463
60.6275
60.9601
61.2453
61.4843
61.6786
61.8297
61.9393
62.0089
62.0405
62.0356
61.9961
61.9237
61.8204
61.6877
61.5274
61.3412
61.1307
60.8976
60.6433
60.3693
60.0771
59.7679
59.4432
59.104
58.7516
58.387
58.0114
57.6255
57.2305
56.827
56.4159
55.998
55.5739
55.1442
54.7096
54.2705
53.8275
53.381
52.9314
52.4792
52.0246
51.5679
51.1095
50.6495
50.1882
49.7258
49.2625
48.7984
48.3337
47.8684
47.4026
46.9365
46.4701
46.0034
45.5365
45.0694
44.6021
44.1346
43.667
43.1993
42.7313
42.2631
41.7948
41.3261
40.8572
40.388
39.9184
39.4484
38.978
38.5072
38.0359
37.564
37.0916
36.6186
36.145
35.6708
35.1959
34.7203
34.244
33.767
33.2894
32.811
32.3319
31.8521
31.3717
30.8906
30.4089
29.9266
29.4438
28.9605
28.4767
27.9926
27.5082
27.0236
26.5389
26.0541
25.5694
25.0849
24.6006
24.1168
23.6334
23.1507
22.6689
22.1879
21.708
21.2293
20.7521
20.2763
19.8023
19.3301
18.86
18.3921
17.9266
17.4636
17.0034
16.5461
16.0918
15.6408
15.1932
14.7492
14.3089
13.8726
13.4403
13.0123
12.5886
12.1696
11.7552
11.3457
10.9411
10.5418
10.1477
9.75917
9.37625
8.99915
8.62806
8.26319
7.90478
7.55308
7.2084
6.87112
6.54172
6.22083
5.90929
5.60818
5.31902
5.04389
4.7858
4.54926
4.34132
4.17403
4.06975
4.07587
4.31731
5.27925
11.1361
30.2923
15.6497
13.7959
13.8233
14.4811
15.4423
16.5782
17.8252
19.1469
20.5205
21.9305
23.3662
24.8196
26.2847
27.7566
29.231
30.7045
32.1737
33.6355
35.0866
36.5243
37.9453
39.3467
40.7254
42.0784
43.4028
44.6956
45.954
47.1754
48.3571
49.4968
50.5923
51.6417
52.643
53.595
54.4962
55.3457
56.1428
56.887
57.578
58.216
58.8012
59.3341
59.8154
60.2462
60.6274
60.96
61.2452
61.4842
61.6785
61.8297
61.9392
62.0089
62.0404
62.0355
61.996
61.9237
61.8203
61.6876
61.5273
61.3411
61.1307
60.8975
60.6432
60.3693
60.077
59.7679
59.4431
59.104
58.7516
58.387
58.0113
57.6255
57.2304
56.827
56.4159
55.998
55.5739
55.1442
54.7095
54.2705
53.8275
53.381
52.9314
52.4792
52.0245
51.5679
51.1094
50.6495
50.1882
49.7258
49.2625
48.7984
48.3336
47.8683
47.4026
46.9365
46.47
46.0033
45.5364
45.0693
44.6021
44.1346
43.667
43.1992
42.7313
42.2631
41.7947
41.3261
40.8572
40.3879
39.9184
39.4484
38.978
38.5072
38.0359
37.564
37.0916
36.6186
36.145
35.6708
35.1959
34.7203
34.244
33.767
33.2893
32.811
32.3319
31.8521
31.3717
30.8906
30.4089
29.9266
29.4438
28.9605
28.4767
27.9926
27.5082
27.0236
26.5389
26.0541
25.5694
25.0849
24.6006
24.1168
23.6334
23.1507
22.6688
22.1879
21.708
21.2293
20.7521
20.2763
19.8023
19.3301
18.86
18.3921
17.9266
17.4636
17.0034
16.5461
16.0918
15.6408
15.1932
14.7492
14.3089
13.8726
13.4403
13.0123
12.5886
12.1696
11.7552
11.3457
10.9411
10.5418
10.1477
9.75917
9.37625
8.99915
8.62806
8.2632
7.90478
7.55308
7.2084
6.87112
6.54172
6.22084
5.90929
5.60818
5.31902
5.04389
4.7858
4.54926
4.34132
4.17403
4.06975
4.07587
4.31732
5.27926
11.1361
36.1491
18.458
15.9531
15.705
16.2086
17.07
18.1346
19.3261
20.601
21.9319
23.3006
24.6941
26.1032
27.5209
28.9417
30.3613
31.7761
33.1828
34.5787
35.961
37.3271
38.6744
40.0005
41.3028
42.5787
43.8258
45.0415
46.2236
47.3697
48.4776
49.5451
50.5703
51.5515
52.4871
53.3757
54.2162
55.0076
55.7493
56.4406
57.0815
57.672
58.2121
58.7024
59.1435
59.5362
59.8814
60.18
60.4331
60.6421
60.8082
60.9329
61.0176
61.0641
61.0739
61.0487
60.9902
60.9001
60.7801
60.6319
60.4571
60.2573
60.0341
59.7891
59.5237
59.2394
58.9375
58.6194
58.2862
57.9393
57.5796
57.2084
56.8265
56.435
56.0347
55.6264
55.211
54.7892
54.3615
53.9287
53.4914
53.0499
52.6049
52.1568
51.706
51.2528
50.7975
50.3406
49.8822
49.4227
48.9621
48.5007
48.0388
47.5763
47.1135
46.6505
46.1873
45.7241
45.2608
44.7976
44.3345
43.8715
43.4086
42.9458
42.4832
42.0207
41.5583
41.0961
40.6338
40.1717
39.7095
39.2474
38.7852
38.3229
37.8605
37.398
36.9352
36.4723
36.0091
35.5456
35.0818
34.6176
34.1531
33.6883
33.223
32.7573
32.2912
31.8248
31.3579
30.8906
30.4229
29.9549
29.4865
29.0179
28.549
28.0798
27.6105
27.1412
26.6717
26.2023
25.7331
25.264
24.7952
24.3268
23.8589
23.3915
22.9249
22.4592
21.9943
21.5306
21.0681
20.607
20.1474
19.6894
19.2333
18.7791
18.327
17.8772
17.4299
16.9851
16.5431
16.104
15.668
15.2352
14.8059
14.3801
13.958
13.5398
13.1256
12.7157
12.31
11.9089
11.5125
11.1209
10.7342
10.3527
9.97659
9.60595
9.24101
8.882
8.52914
8.1827
7.84299
7.51035
7.18519
6.86803
6.5595
6.26042
5.97182
5.69509
5.43209
5.18537
4.95862
4.75728
4.58994
4.47109
4.42778
4.5174
4.8914
6.13804
13.2999
36.1493
18.4579
15.9529
15.7048
16.2085
17.0699
18.1345
19.326
20.6009
21.9318
23.3004
24.694
26.103
27.5207
28.9415
30.3611
31.7759
33.1827
34.5786
35.9608
37.3269
38.6743
40.0004
41.3026
42.5785
43.8256
45.0414
46.2235
47.3696
48.4774
49.5449
50.5702
51.5514
52.487
53.3756
54.2161
55.0075
55.7492
56.4405
57.0815
57.6719
58.212
58.7023
59.1434
59.5361
59.8813
60.1799
60.4331
60.642
60.8081
60.9328
61.0176
61.064
61.0738
61.0487
60.9902
60.9001
60.7801
60.6318
60.457
60.2572
60.0341
59.7891
59.5237
59.2394
58.9375
58.6193
58.2862
57.9392
57.5796
57.2083
56.8265
56.4349
56.0346
55.6264
55.211
54.7891
54.3615
53.9287
53.4913
53.0499
52.6049
52.1568
51.7059
51.2527
50.7975
50.3406
49.8822
49.4226
48.9621
48.5007
48.0388
47.5763
47.1135
46.6505
46.1873
45.7241
45.2608
44.7976
44.3345
43.8715
43.4086
42.9458
42.4832
42.0207
41.5583
41.096
40.6338
40.1717
39.7095
39.2474
38.7852
38.3229
37.8605
37.3979
36.9352
36.4723
36.009
35.5456
35.0818
34.6176
34.1531
33.6882
33.223
32.7573
32.2912
31.8247
31.3579
30.8906
30.4229
29.9549
29.4865
29.0179
28.549
28.0798
27.6105
27.1412
26.6717
26.2023
25.7331
25.264
24.7952
24.3268
23.8588
23.3915
22.9249
22.4592
21.9943
21.5306
21.0681
20.607
20.1474
19.6894
19.2333
18.7791
18.327
17.8772
17.4299
16.9851
16.5431
16.104
15.668
15.2352
14.8059
14.3801
13.958
13.5398
13.1256
12.7157
12.31
11.9089
11.5125
11.1209
10.7342
10.3527
9.97659
9.60595
9.24101
8.882
8.52914
8.18271
7.84299
7.51035
7.18519
6.86803
6.5595
6.26042
5.97182
5.69509
5.43209
5.18537
4.95862
4.75728
4.58994
4.47109
4.42778
4.5174
4.8914
6.13807
13.2999
42.2871
21.3771
18.2336
17.7316
18.1023
18.8836
19.8948
21.0471
22.2902
23.5925
24.9327
26.2962
27.6725
29.0537
30.4339
31.8086
33.1742
34.5276
35.8663
37.188
38.4905
39.7718
41.0297
42.2624
43.4677
44.6438
45.7884
46.8998
47.9759
49.0149
50.0151
50.9746
51.8921
52.766
53.5953
54.3788
55.1156
55.8052
56.4471
57.041
57.5868
58.0849
58.5354
58.9389
59.2961
59.6079
59.8751
60.0988
60.2801
60.4202
60.5207
60.5828
60.608
60.598
60.5543
60.4785
60.3723
60.2372
60.0748
59.8868
59.6747
59.4399
59.1841
58.9085
58.6147
58.3039
57.9774
57.6364
57.2821
56.9156
56.5378
56.15
55.7528
55.3472
54.9341
54.5141
54.088
53.6565
53.2201
52.7794
52.3349
51.8872
51.4366
50.9836
50.5284
50.0715
49.6132
49.1536
48.6931
48.2319
47.7701
47.3079
46.8455
46.3829
45.9204
45.458
44.9957
44.5336
44.0719
43.6104
43.1493
42.6885
42.2281
41.7681
41.3084
40.8491
40.3901
39.9314
39.4729
39.0148
38.5569
38.0991
37.6415
37.184
36.7266
36.2693
35.812
35.3546
34.8973
34.4398
33.9822
33.5246
33.0667
32.6088
32.1506
31.6923
31.2338
30.7751
30.3163
29.8573
29.3982
28.9389
28.4796
28.0202
27.5609
27.1015
26.6423
26.1832
25.7244
25.2658
24.8076
24.3499
23.8927
23.4362
22.9804
22.5255
22.0715
21.6186
21.1669
20.7166
20.2677
19.8203
19.3748
18.9311
18.4894
18.0498
17.6126
17.1778
16.7456
16.3162
15.8897
15.4662
15.046
14.6291
14.2157
13.8061
13.4002
12.9984
12.6007
12.2073
11.8184
11.434
11.0545
10.68
10.3106
9.94659
9.58812
9.23544
8.88881
8.5485
8.21484
7.88819
7.56898
7.25775
6.9551
6.66183
6.37891
6.10761
5.84956
5.60697
5.38286
5.18155
5.00945
4.87661
4.80002
4.81132
4.97797
5.47798
7.0027
15.4643
42.2873
21.377
18.2335
17.7314
18.1022
18.8834
19.8946
21.047
22.2901
23.5923
24.9325
26.2961
27.6723
29.0535
30.4337
31.8084
33.174
34.5274
35.8662
37.1879
38.4904
39.7716
41.0296
42.2623
43.4676
44.6436
45.7883
46.8997
47.9758
49.0148
50.0149
50.9745
51.892
52.7659
53.5952
54.3787
55.1155
55.8051
56.447
57.0409
57.5868
58.0848
58.5353
58.9388
59.2961
59.6078
59.875
60.0987
60.28
60.4202
60.5206
60.5827
60.608
60.598
60.5543
60.4785
60.3723
60.2371
60.0748
59.8868
59.6746
59.4399
59.184
58.9085
58.6147
58.3039
57.9773
57.6364
57.2821
56.9155
56.5378
56.1499
55.7528
55.3472
54.9341
54.5141
54.088
53.6564
53.2201
52.7794
52.3349
51.8872
51.4366
50.9835
50.5284
50.0715
49.6132
49.1536
48.6931
48.2319
47.7701
47.3079
46.8455
46.3829
45.9204
45.458
44.9957
44.5336
44.0718
43.6104
43.1493
42.6885
42.2281
41.7681
41.3084
40.849
40.39
39.9313
39.4729
39.0148
38.5568
38.0991
37.6415
37.184
36.7266
36.2693
35.812
35.3546
34.8973
34.4398
33.9822
33.5246
33.0667
32.6088
32.1506
31.6923
31.2338
30.7751
30.3163
29.8573
29.3982
28.9389
28.4796
28.0202
27.5609
27.1015
26.6423
26.1832
25.7244
25.2658
24.8076
24.3499
23.8927
23.4362
22.9804
22.5255
22.0715
21.6186
21.1669
20.7166
20.2677
19.8203
19.3748
18.9311
18.4894
18.0498
17.6126
17.1778
16.7456
16.3162
15.8897
15.4662
15.046
14.6291
14.2157
13.8061
13.4002
12.9984
12.6007
12.2073
11.8184
11.434
11.0545
10.68
10.3106
9.94659
9.58812
9.23544
8.88881
8.5485
8.21484
7.88819
7.56899
7.25775
6.9551
6.66183
6.37891
6.10761
5.84956
5.60697
5.38286
5.18155
5.00945
4.87662
4.80002
4.81132
4.97797
5.47798
7.00272
15.4643
48.6437
24.4101
20.6322
19.8892
20.1407
20.8545
21.8236
22.9468
24.1668
25.4479
26.7665
28.106
29.4548
30.8043
32.1483
33.4822
34.8022
36.1058
37.3906
38.6546
39.8963
41.1141
42.3064
43.4717
44.6086
45.7156
46.791
47.8334
48.8412
49.8129
50.7471
51.6424
52.4973
53.3109
54.0819
54.8095
55.4929
56.1315
56.7248
57.2726
57.7749
58.2317
58.6434
59.0104
59.3332
59.6126
59.8495
60.0447
60.1995
60.3148
60.3921
60.4326
60.4377
60.409
60.3478
60.2558
60.1344
59.9852
59.8097
59.6095
59.3859
59.1405
58.8747
58.5899
58.2874
57.9684
57.6343
57.2862
56.9252
56.5525
56.1689
55.7755
55.3732
54.9629
54.5452
54.121
53.691
53.2558
52.816
52.3721
51.9248
51.4743
51.0213
50.566
50.1088
49.65
49.19
48.729
48.2672
47.8049
47.3423
46.8794
46.4165
45.9536
45.4909
45.0285
44.5665
44.1048
43.6437
43.183
42.7228
42.2632
41.8041
41.3455
40.8875
40.43
39.9731
39.5166
39.0606
38.6051
38.1499
37.6951
37.2407
36.7866
36.3327
35.8791
35.4257
34.9725
34.5194
34.0664
33.6135
33.1607
32.7079
32.2552
31.8024
31.3497
30.897
30.4443
29.9916
29.539
29.0863
28.6338
28.1813
27.7289
27.2767
26.8247
26.373
25.9215
25.4704
25.0198
24.5696
24.1201
23.6712
23.223
22.7758
22.3294
21.8841
21.44
20.9971
20.5557
20.1157
19.6774
19.2408
18.8062
18.3735
17.9431
17.5149
17.0892
16.666
16.2456
15.8281
15.4135
15.0022
14.5941
14.1895
13.7886
13.3914
12.9981
12.6089
12.224
11.8435
11.4676
11.0964
10.7302
10.3691
10.0134
9.66338
9.31919
8.98118
8.64966
8.32502
8.00768
7.69818
7.39711
7.10522
6.82343
6.55288
6.29504
6.0518
5.8257
5.62022
5.44031
5.29332
5.19079
5.15223
5.21388
5.45347
6.07615
7.87847
17.6475
48.644
24.4099
20.6321
19.889
20.1405
20.8543
21.8234
22.9466
24.1666
25.4478
26.7663
28.1059
29.4546
30.8042
32.1482
33.482
34.8021
36.1056
37.3904
38.6545
39.8962
41.1139
42.3062
43.4716
44.6085
45.7155
46.7909
47.8333
48.8411
49.8128
50.747
51.6422
52.4972
53.3108
54.0818
54.8094
55.4928
56.1314
56.7247
57.2726
57.7748
58.2317
58.6433
59.0103
59.3331
59.6126
59.8494
60.0447
60.1994
60.3148
60.392
60.4325
60.4377
60.4089
60.3478
60.2558
60.1344
59.9852
59.8097
59.6094
59.3859
59.1405
58.8747
58.5899
58.2873
57.9684
57.6343
57.2862
56.9252
56.5524
56.1689
55.7755
55.3732
54.9628
54.5452
54.121
53.691
53.2558
52.816
52.3721
51.9248
51.4743
51.0212
50.5659
50.1088
49.65
49.19
48.729
48.2672
47.8049
47.3422
46.8794
46.4165
45.9536
45.4909
45.0285
44.5665
44.1048
43.6436
43.1829
42.7228
42.2631
41.804
41.3455
40.8875
40.43
39.9731
39.5166
39.0606
38.6051
38.1499
37.6951
37.2407
36.7866
36.3327
35.8791
35.4257
34.9724
34.5194
34.0664
33.6135
33.1607
32.7079
32.2551
31.8024
31.3497
30.897
30.4443
29.9916
29.5389
29.0863
28.6338
28.1813
27.7289
27.2767
26.8247
26.373
25.9215
25.4704
25.0198
24.5696
24.1201
23.6712
23.223
22.7758
22.3294
21.8841
21.44
20.9971
20.5557
20.1157
19.6774
19.2408
18.8062
18.3735
17.9431
17.5149
17.0892
16.666
16.2456
15.8281
15.4135
15.0022
14.5941
14.1895
13.7886
13.3914
12.9981
12.6089
12.224
11.8435
11.4676
11.0964
10.7302
10.3691
10.0134
9.66338
9.31919
8.98118
8.64966
8.32502
8.00769
7.69818
7.39711
7.10522
6.82343
6.55288
6.29504
6.0518
5.8257
5.62022
5.44031
5.29332
5.19079
5.15223
5.21388
5.45347
6.07616
7.8785
17.6475
55.2087
27.5588
23.1471
22.1713
22.3127
22.9675
23.9017
25.0016
26.2033
27.4671
28.7669
30.0845
31.4074
32.7264
34.0349
35.3283
36.6032
37.8569
39.0877
40.294
41.4747
42.6287
43.755
44.8527
45.9208
46.9583
47.9642
48.9372
49.8764
50.7805
51.6484
52.479
53.2712
54.0241
54.7366
55.4081
56.0377
56.6251
57.1698
57.6714
58.13
58.5457
58.9185
59.2489
59.5375
59.7848
59.9916
60.1588
60.2874
60.3783
60.4329
60.4523
60.4379
60.391
60.313
60.2054
60.0695
59.9069
59.719
59.5072
59.273
59.0177
58.7427
58.4494
58.1389
57.8127
57.4717
57.1172
56.7503
56.3721
55.9834
55.5852
55.1785
54.764
54.3425
53.9147
53.4813
53.043
52.6004
52.1539
51.704
51.2513
50.7962
50.339
49.8801
49.4198
48.9584
48.4962
48.0334
47.5702
47.1068
46.6433
46.1799
45.7167
45.2539
44.7915
44.3296
43.8682
43.4074
42.9473
42.4878
42.029
41.5709
41.1135
40.6568
40.2007
39.7453
39.2906
38.8365
38.3829
37.9299
37.4775
37.0255
36.574
36.1229
35.6722
35.2218
34.7718
34.3221