/*--------------------------------*- C++ -*----------------------------------*\
  =========                 |
  \\      /  F ield         | OpenFOAM: The Open Source CFD Toolbox
   \\    /   O peration     | Website:  https://openfoam.org
    \\  /    A nd           | Version:  8
     \\/     M anipulation  |
\*---------------------------------------------------------------------------*/
FoamFile
{
    version     2.0;
    format      ascii;
    class       volVectorField;
    location    "3800";
    object      U;
}
// * * * * * * * * * * * * * * * * * * * * * * * * * * * * * * * * * * * * * //

dimensions      [0 1 -1 0 0 0 0];

internalField   nonuniform List<vector> 
48000
(
(-0.016427 3.47748e-07 0.0179765)
(-0.0363742 4.67996e-08 0.0176291)
(-0.0502437 4.16141e-08 0.00915446)
(-0.0548747 1.69045e-08 0.000813656)
(-0.0513236 5.63393e-10 -0.00533529)
(-0.0424232 -1.16049e-08 -0.00951474)
(-0.0297103 -1.9882e-08 -0.0123083)
(-0.0146007 -2.53798e-08 -0.0141387)
(0.00221439 -2.97316e-08 -0.0151976)
(0.0198309 -3.15324e-08 -0.0156093)
(0.0378041 -3.01427e-08 -0.0156311)
(0.0558681 -2.77821e-08 -0.0154276)
(0.0737496 -2.48581e-08 -0.0150699)
(0.0912844 -2.16828e-08 -0.0146053)
(0.108347 -1.84313e-08 -0.0140668)
(0.124846 -1.52712e-08 -0.0134777)
(0.140713 -1.22786e-08 -0.0128549)
(0.1559 -9.52591e-09 -0.0122111)
(0.170374 -7.00545e-09 -0.0115559)
(0.184111 -4.75912e-09 -0.0108965)
(0.197099 -2.75265e-09 -0.0102389)
(0.209333 -9.76526e-10 -0.00958741)
(0.220811 5.80676e-10 -0.00894577)
(0.231541 1.93038e-09 -0.00831687)
(0.241532 3.10875e-09 -0.00770306)
(0.250797 4.10817e-09 -0.00710624)
(0.259353 4.9534e-09 -0.00652794)
(0.267218 5.65205e-09 -0.00596938)
(0.274413 6.22696e-09 -0.0054315)
(0.280961 6.68003e-09 -0.00491503)
(0.286885 7.02269e-09 -0.0044205)
(0.29221 7.27588e-09 -0.00394824)
(0.296963 7.4396e-09 -0.00349845)
(0.301168 7.53288e-09 -0.00307117)
(0.304852 7.56905e-09 -0.00266633)
(0.308043 7.54811e-09 -0.00228372)
(0.310766 7.47958e-09 -0.00192306)
(0.313047 7.37298e-09 -0.00158397)
(0.314914 7.23973e-09 -0.00126599)
(0.31639 7.07411e-09 -0.000968599)
(0.317502 6.89898e-09 -0.000691219)
(0.318274 6.70481e-09 -0.000433245)
(0.318729 6.51254e-09 -0.000194005)
(0.31889 6.30694e-09 2.76333e-05)
(0.318779 6.09564e-09 0.000232213)
(0.318418 5.92051e-09 0.000420033)
(0.317826 5.72824e-09 0.000592084)
(0.317023 5.56072e-09 0.000749279)
(0.316026 5.40081e-09 0.000892437)
(0.314854 5.25995e-09 0.00102233)
(0.313522 5.1286e-09 0.00113973)
(0.312047 5.0258e-09 0.00124539)
(0.310441 4.94394e-09 0.00134005)
(0.30872 4.87732e-09 0.00142443)
(0.306895 4.83163e-09 0.00149925)
(0.304979 4.79927e-09 0.00156518)
(0.302982 4.79737e-09 0.00162288)
(0.300914 4.80689e-09 0.00167299)
(0.298786 4.83163e-09 0.0017161)
(0.296604 4.87351e-09 0.00175279)
(0.294378 4.93062e-09 0.00178361)
(0.292115 5.00677e-09 0.00180907)
(0.28982 5.08672e-09 0.00182965)
(0.287501 5.18381e-09 0.0018458)
(0.285162 5.29231e-09 0.00185797)
(0.282809 5.41415e-09 0.00186653)
(0.280445 5.5474e-09 0.00187186)
(0.278075 5.69017e-09 0.00187431)
(0.275703 5.83294e-09 0.00187419)
(0.27333 5.98333e-09 0.00187179)
(0.270962 6.13372e-09 0.00186739)
(0.268599 6.28791e-09 0.00186124)
(0.266243 6.45162e-09 0.00185355)
(0.263898 6.61723e-09 0.00184454)
(0.261564 6.77333e-09 0.0018344)
(0.259243 6.93133e-09 0.0018233)
(0.256935 7.09884e-09 0.0018114)
(0.254643 7.25494e-09 0.00179884)
(0.252366 7.40532e-09 0.00178575)
(0.250105 7.55761e-09 0.00177225)
(0.247861 7.7118e-09 0.00175845)
(0.245635 7.85267e-09 0.00174444)
(0.243426 7.99163e-09 0.00173031)
(0.241234 8.13439e-09 0.00171615)
(0.23906 8.26764e-09 0.00170201)
(0.236904 8.39899e-09 0.00168798)
(0.234765 8.51511e-09 0.0016741)
(0.232643 8.64074e-09 0.00166043)
(0.230538 8.75305e-09 0.00164702)
(0.228449 8.85394e-09 0.00163392)
(0.226377 8.95673e-09 0.00162116)
(0.224321 9.05381e-09 0.00160879)
(0.22228 9.14518e-09 0.00159684)
(0.220253 9.23655e-09 0.00158534)
(0.218241 9.31079e-09 0.00157432)
(0.216242 9.3736e-09 0.00156382)
(0.214256 9.43832e-09 0.00155385)
(0.212283 9.50114e-09 0.00154445)
(0.21032 9.55444e-09 0.00153563)
(0.208369 9.60773e-09 0.00152743)
(0.206427 9.6477e-09 0.00151986)
(0.204495 9.69148e-09 0.00151294)
(0.202571 9.72194e-09 0.0015067)
(0.200654 9.74287e-09 0.00150115)
(0.198744 9.7619e-09 0.00149631)
(0.19684 9.78284e-09 0.00149221)
(0.19494 9.79235e-09 0.00148885)
(0.193044 9.80758e-09 0.00148627)
(0.191152 9.80948e-09 0.00148447)
(0.189261 9.80947e-09 0.00148347)
(0.187371 9.80756e-09 0.0014833)
(0.18548 9.80375e-09 0.00148396)
(0.183589 9.78852e-09 0.00148548)
(0.181695 9.77329e-09 0.00148787)
(0.179799 9.75234e-09 0.00149114)
(0.177897 9.74092e-09 0.00149531)
(0.17599 9.71617e-09 0.0015004)
(0.174077 9.69142e-09 0.00150642)
(0.172155 9.67047e-09 0.00151338)
(0.170225 9.65715e-09 0.00152129)
(0.168284 9.6343e-09 0.00153018)
(0.166332 9.60384e-09 0.00154005)
(0.164368 9.59051e-09 0.00155092)
(0.16239 9.56766e-09 0.00156278)
(0.160397 9.54862e-09 0.00157567)
(0.158388 9.53529e-09 0.00158957)
(0.156361 9.52197e-09 0.00160451)
(0.154316 9.51435e-09 0.00162048)
(0.152251 9.51815e-09 0.0016375)
(0.150164 9.51434e-09 0.00165556)
(0.148056 9.52576e-09 0.00167468)
(0.145923 9.53718e-09 0.00169484)
(0.143766 9.56383e-09 0.00171606)
(0.141583 9.59809e-09 0.00173833)
(0.139372 9.63997e-09 0.00176165)
(0.137134 9.68946e-09 0.001786)
(0.134865 9.75418e-09 0.00181139)
(0.132565 9.83032e-09 0.0018378)
(0.130234 9.90647e-09 0.00186522)
(0.127869 1.00093e-08 0.00189363)
(0.12547 1.01197e-08 0.00192302)
(0.123036 1.02453e-08 0.00195336)
(0.120566 1.03824e-08 0.00198463)
(0.118058 1.05423e-08 0.0020168)
(0.115512 1.07174e-08 0.00204984)
(0.112926 1.09078e-08 0.00208372)
(0.110301 1.1121e-08 0.00211838)
(0.107635 1.1357e-08 0.0021538)
(0.104927 1.16235e-08 0.00218991)
(0.102178 1.18938e-08 0.00222667)
(0.0993855 1.2206e-08 0.00226401)
(0.0965501 1.25296e-08 0.00230187)
(0.0936711 1.28913e-08 0.00234017)
(0.0907485 1.32568e-08 0.00237883)
(0.0877819 1.36604e-08 0.00241776)
(0.0847714 1.40906e-08 0.00245686)
(0.0817172 1.45322e-08 0.00249603)
(0.0786194 1.50081e-08 0.00253514)
(0.0754785 1.54993e-08 0.00257407)
(0.0722952 1.60132e-08 0.00261267)
(0.0690702 1.6531e-08 0.00265078)
(0.0658045 1.70754e-08 0.00268823)
(0.0624994 1.76275e-08 0.00272481)
(0.0591564 1.81719e-08 0.00276032)
(0.0557773 1.8724e-08 0.00279451)
(0.0523642 1.92684e-08 0.00282711)
(0.0489196 1.98281e-08 0.00285782)
(0.0454462 2.03497e-08 0.00288631)
(0.0419474 2.08446e-08 0.00291219)
(0.0384269 2.13624e-08 0.00293503)
(0.0348889 2.18764e-08 0.00295436)
(0.0313384 2.23865e-08 0.00296962)
(0.0277808 2.29957e-08 0.00298019)
(0.0242225 2.37343e-08 0.00298534)
(0.0206706 2.46785e-08 0.00298428)
(0.0171334 2.59272e-08 0.00297604)
(0.01362 2.76062e-08 0.00295955)
(0.0101412 2.98068e-08 0.00293353)
(0.00670854 3.26546e-08 0.00289642)
(0.00333854 3.61992e-08 0.00284627)
(4.23548e-05 4.01511e-08 0.00277753)
(-0.00315719 4.42172e-08 0.0026844)
(-0.00623304 4.83899e-08 0.00256762)
(-0.00916651 5.21514e-08 0.00242837)
(-0.0119261 5.44434e-08 0.00226336)
(-0.0144796 5.39561e-08 0.00206695)
(-0.0167878 4.93569e-08 0.00183347)
(-0.0188049 3.9816e-08 0.00155621)
(-0.0204771 2.56684e-08 0.0012266)
(-0.0217407 9.579e-09 0.000834461)
(-0.022521 -3.09146e-09 0.000367164)
(-0.0227309 -5.47479e-09 -0.000189261)
(-0.0222658 7.77437e-09 -0.000846999)
(-0.0210205 3.47524e-08 -0.00161778)
(-0.0188783 6.10832e-08 -0.00250638)
(-0.0157391 6.55605e-08 -0.00348615)
(-0.0115693 4.30749e-08 -0.00444606)
(-0.00663483 2.70771e-08 -0.00502546)
(-0.00101605 6.23327e-08 -0.0035321)
(0.000822591 1.30878e-07 0.00118414)
(-0.0164281 3.47743e-07 0.0179755)
(-0.0363745 4.67993e-08 0.0176287)
(-0.0502436 4.16138e-08 0.0091542)
(-0.0548745 1.69044e-08 0.000813423)
(-0.0513234 5.6339e-10 -0.00533551)
(-0.042423 -1.16048e-08 -0.00951496)
(-0.0297101 -1.98819e-08 -0.0123085)
(-0.0146004 -2.53797e-08 -0.0141389)
(0.00221463 -2.97314e-08 -0.0151978)
(0.0198311 -3.15323e-08 -0.0156095)
(0.0378043 -3.01426e-08 -0.0156313)
(0.0558682 -2.7782e-08 -0.0154278)
(0.0737498 -2.4858e-08 -0.01507)
(0.0912846 -2.16827e-08 -0.0146055)
(0.108347 -1.84312e-08 -0.014067)
(0.124846 -1.52712e-08 -0.0134778)
(0.140713 -1.22786e-08 -0.0128551)
(0.1559 -9.52589e-09 -0.0122112)
(0.170374 -7.00543e-09 -0.011556)
(0.184111 -4.75911e-09 -0.0108967)
(0.197099 -2.75264e-09 -0.010239)
(0.209333 -9.76524e-10 -0.00958754)
(0.220811 5.80675e-10 -0.00894589)
(0.231541 1.93037e-09 -0.00831699)
(0.241532 3.10874e-09 -0.00770318)
(0.250797 4.10817e-09 -0.00710636)
(0.259353 4.9534e-09 -0.00652805)
(0.267218 5.65204e-09 -0.00596948)
(0.274413 6.22695e-09 -0.0054316)
(0.280961 6.68003e-09 -0.00491513)
(0.286885 7.02269e-09 -0.0044206)
(0.29221 7.27588e-09 -0.00394834)
(0.296963 7.43959e-09 -0.00349855)
(0.301168 7.53287e-09 -0.00307127)
(0.304852 7.56905e-09 -0.00266642)
(0.308043 7.54811e-09 -0.00228381)
(0.310765 7.47958e-09 -0.00192315)
(0.313047 7.37297e-09 -0.00158406)
(0.314913 7.23972e-09 -0.00126608)
(0.31639 7.0741e-09 -0.000968684)
(0.317502 6.89897e-09 -0.000691303)
(0.318274 6.7048e-09 -0.000433327)
(0.318729 6.51253e-09 -0.000194086)
(0.31889 6.30694e-09 2.75533e-05)
(0.318779 6.09564e-09 0.000232135)
(0.318418 5.9205e-09 0.000419955)
(0.317826 5.72824e-09 0.000592007)
(0.317022 5.56072e-09 0.000749204)
(0.316026 5.40081e-09 0.000892362)
(0.314854 5.25994e-09 0.00102226)
(0.313522 5.12859e-09 0.00113966)
(0.312046 5.0258e-09 0.00124532)
(0.310441 4.94394e-09 0.00133998)
(0.30872 4.87731e-09 0.00142436)
(0.306895 4.83163e-09 0.00149918)
(0.304979 4.79927e-09 0.00156511)
(0.302982 4.79736e-09 0.00162281)
(0.300914 4.80688e-09 0.00167292)
(0.298786 4.83163e-09 0.00171603)
(0.296604 4.87351e-09 0.00175272)
(0.294378 4.93062e-09 0.00178354)
(0.292115 5.00677e-09 0.001809)
(0.28982 5.08672e-09 0.00182958)
(0.287501 5.1838e-09 0.00184574)
(0.285162 5.29231e-09 0.0018579)
(0.282808 5.41414e-09 0.00186646)
(0.280445 5.5474e-09 0.0018718)
(0.278075 5.69017e-09 0.00187425)
(0.275702 5.83294e-09 0.00187413)
(0.27333 5.98333e-09 0.00187173)
(0.270962 6.13371e-09 0.00186733)
(0.268599 6.2879e-09 0.00186117)
(0.266243 6.45161e-09 0.00185349)
(0.263898 6.61723e-09 0.00184448)
(0.261564 6.77332e-09 0.00183433)
(0.259242 6.93132e-09 0.00182323)
(0.256935 7.09884e-09 0.00181133)
(0.254642 7.25493e-09 0.00179877)
(0.252366 7.40532e-09 0.00178569)
(0.250105 7.5576e-09 0.00177219)
(0.247861 7.71179e-09 0.00175839)
(0.245635 7.85266e-09 0.00174438)
(0.243426 7.99162e-09 0.00173025)
(0.241234 8.13439e-09 0.00171608)
(0.23906 8.26764e-09 0.00170195)
(0.236904 8.39899e-09 0.00168791)
(0.234765 8.5151e-09 0.00167403)
(0.232643 8.64074e-09 0.00166036)
(0.230538 8.75305e-09 0.00164695)
(0.228449 8.85394e-09 0.00163385)
(0.226377 8.95673e-09 0.0016211)
(0.224321 9.05381e-09 0.00160872)
(0.22228 9.14518e-09 0.00159677)
(0.220253 9.23655e-09 0.00158527)
(0.218241 9.31078e-09 0.00157426)
(0.216242 9.3736e-09 0.00156375)
(0.214256 9.43832e-09 0.00155378)
(0.212283 9.50113e-09 0.00154438)
(0.21032 9.55443e-09 0.00153557)
(0.208369 9.60773e-09 0.00152736)
(0.206427 9.6477e-09 0.00151979)
(0.204495 9.69148e-09 0.00151287)
(0.202571 9.72193e-09 0.00150663)
(0.200654 9.74287e-09 0.00150108)
(0.198744 9.7619e-09 0.00149624)
(0.19684 9.78283e-09 0.00149213)
(0.19494 9.79235e-09 0.00148878)
(0.193044 9.80757e-09 0.0014862)
(0.191152 9.80947e-09 0.0014844)
(0.189261 9.80947e-09 0.0014834)
(0.187371 9.80756e-09 0.00148323)
(0.18548 9.80375e-09 0.00148389)
(0.183589 9.78851e-09 0.00148541)
(0.181695 9.77328e-09 0.00148779)
(0.179798 9.75234e-09 0.00149106)
(0.177897 9.74091e-09 0.00149524)
(0.17599 9.71616e-09 0.00150032)
(0.174077 9.69141e-09 0.00150634)
(0.172155 9.67047e-09 0.0015133)
(0.170225 9.65714e-09 0.00152122)
(0.168284 9.63429e-09 0.00153011)
(0.166332 9.60383e-09 0.00153997)
(0.164368 9.5905e-09 0.00155084)
(0.16239 9.56766e-09 0.00156271)
(0.160397 9.54862e-09 0.00157559)
(0.158388 9.53529e-09 0.00158949)
(0.156361 9.52196e-09 0.00160443)
(0.154316 9.51434e-09 0.0016204)
(0.152251 9.51815e-09 0.00163742)
(0.150164 9.51434e-09 0.00165548)
(0.148056 9.52575e-09 0.0016746)
(0.145923 9.53717e-09 0.00169476)
(0.143766 9.56382e-09 0.00171598)
(0.141583 9.59808e-09 0.00173825)
(0.139372 9.63996e-09 0.00176157)
(0.137134 9.68945e-09 0.00178592)
(0.134865 9.75417e-09 0.00181131)
(0.132565 9.83032e-09 0.00183772)
(0.130234 9.90646e-09 0.00186514)
(0.127869 1.00093e-08 0.00189355)
(0.12547 1.01197e-08 0.00192293)
(0.123036 1.02453e-08 0.00195327)
(0.120566 1.03824e-08 0.00198454)
(0.118058 1.05423e-08 0.00201672)
(0.115512 1.07174e-08 0.00204975)
(0.112926 1.09077e-08 0.00208363)
(0.110301 1.11209e-08 0.00211829)
(0.107635 1.1357e-08 0.00215371)
(0.104927 1.16235e-08 0.00218982)
(0.102178 1.18938e-08 0.00222658)
(0.0993855 1.2206e-08 0.00226392)
(0.0965501 1.25296e-08 0.00230177)
(0.0936712 1.28913e-08 0.00234007)
(0.0907485 1.32568e-08 0.00237873)
(0.0877819 1.36604e-08 0.00241766)
(0.0847715 1.40906e-08 0.00245676)
(0.0817172 1.45322e-08 0.00249593)
(0.0786194 1.50081e-08 0.00253504)
(0.0754786 1.54992e-08 0.00257397)
(0.0722952 1.60132e-08 0.00261257)
(0.0690702 1.6531e-08 0.00265067)
(0.0658045 1.70754e-08 0.00268812)
(0.0624994 1.76275e-08 0.0027247)
(0.0591564 1.81719e-08 0.00276021)
(0.0557773 1.8724e-08 0.00279439)
(0.0523643 1.92684e-08 0.00282699)
(0.0489196 1.9828e-08 0.0028577)
(0.0454463 2.03496e-08 0.00288618)
(0.0419475 2.08446e-08 0.00291206)
(0.0384269 2.13624e-08 0.0029349)
(0.034889 2.18763e-08 0.00295423)
(0.0313384 2.23865e-08 0.00296949)
(0.0277808 2.29957e-08 0.00298005)
(0.0242225 2.37343e-08 0.0029852)
(0.0206707 2.46784e-08 0.00298413)
(0.0171334 2.59272e-08 0.00297589)
(0.01362 2.76062e-08 0.00295939)
(0.0101412 2.98068e-08 0.00293337)
(0.00670857 3.26546e-08 0.00289625)
(0.00333858 3.61991e-08 0.0028461)
(4.23879e-05 4.0151e-08 0.00277735)
(-0.00315715 4.42171e-08 0.00268422)
(-0.00623301 4.83898e-08 0.00256744)
(-0.00916648 5.21514e-08 0.00242818)
(-0.0119261 5.44433e-08 0.00226316)
(-0.0144796 5.3956e-08 0.00206675)
(-0.0167878 4.93569e-08 0.00183326)
(-0.0188049 3.9816e-08 0.00155599)
(-0.0204771 2.56683e-08 0.00122638)
(-0.0217407 9.57899e-09 0.000834231)
(-0.022521 -3.09146e-09 0.000366928)
(-0.0227309 -5.47478e-09 -0.000189501)
(-0.0222657 7.77436e-09 -0.000847242)
(-0.0210205 3.47524e-08 -0.00161803)
(-0.0188783 6.10831e-08 -0.00250665)
(-0.0157392 6.55605e-08 -0.00348646)
(-0.0115694 4.3075e-08 -0.00444644)
(-0.00663501 2.7077e-08 -0.0050259)
(-0.00101639 6.23312e-08 -0.00353278)
(0.000822197 1.30876e-07 0.001183)
(-0.0144632 3.62224e-08 0.0409948)
(-0.0213255 3.7729e-09 0.0270224)
(-0.0217417 5.37589e-09 0.0121028)
(-0.0184097 4.14937e-10 -0.00117591)
(-0.0116513 -1.4516e-09 -0.011466)
(-0.00220962 -3.02688e-09 -0.0188563)
(0.00939471 -4.27948e-09 -0.0239554)
(0.0225563 -5.18848e-09 -0.0273343)
(0.0368373 -5.81859e-09 -0.0294249)
(0.0518381 -6.06606e-09 -0.0305411)
(0.067254 -6.0118e-09 -0.0309738)
(0.0828337 -5.84046e-09 -0.030924)
(0.0983757 -5.57299e-09 -0.0305205)
(0.113726 -5.25031e-09 -0.0298571)
(0.128765 -4.90051e-09 -0.029001)
(0.143399 -4.54214e-09 -0.0280019)
(0.157556 -4.19376e-09 -0.0268978)
(0.17118 -3.86252e-09 -0.0257179)
(0.184231 -3.54936e-09 -0.0244851)
(0.196678 -3.25905e-09 -0.0232178)
(0.2085 -2.99348e-09 -0.021931)
(0.219683 -2.74981e-09 -0.0206367)
(0.230221 -2.52708e-09 -0.0193451)
(0.240111 -2.32719e-09 -0.0180645)
(0.249356 -2.14681e-09 -0.016802)
(0.257964 -1.98595e-09 -0.0155633)
(0.265943 -1.84365e-09 -0.0143533)
(0.273307 -1.72086e-09 -0.0131762)
(0.280071 -1.61377e-09 -0.0120352)
(0.286251 -1.51954e-09 -0.0109332)
(0.291866 -1.44244e-09 -0.00987217)
(0.296936 -1.38009e-09 -0.00885393)
(0.301481 -1.32774e-09 -0.00787968)
(0.305524 -1.28585e-09 -0.00695025)
(0.309086 -1.25777e-09 -0.00606614)
(0.31219 -1.2335e-09 -0.00522749)
(0.314859 -1.21827e-09 -0.0044342)
(0.317115 -1.21065e-09 -0.00368588)
(0.318982 -1.20684e-09 -0.00298193)
(0.320482 -1.20874e-09 -0.00232154)
(0.321636 -1.21397e-09 -0.00170374)
(0.322467 -1.22206e-09 -0.00112742)
(0.322996 -1.23253e-09 -0.00059132)
(0.323243 -1.24157e-09 -9.40826e-05)
(0.323228 -1.25299e-09 0.000365778)
(0.32297 -1.27012e-09 0.000789853)
(0.322489 -1.28439e-09 0.00117973)
(0.3218 -1.29724e-09 0.00153702)
(0.320923 -1.30913e-09 0.00186334)
(0.319871 -1.31913e-09 0.00216033)
(0.318661 -1.32959e-09 0.00242962)
(0.317307 -1.33673e-09 0.00267281)
(0.315823 -1.34339e-09 0.00289151)
(0.314222 -1.34672e-09 0.00308728)
(0.312514 -1.3491e-09 0.00326164)
(0.310713 -1.351e-09 0.00341609)
(0.308827 -1.35148e-09 0.00355204)
(0.306868 -1.34862e-09 0.00367088)
(0.304843 -1.34529e-09 0.00377393)
(0.302761 -1.341e-09 0.00386244)
(0.30063 -1.33529e-09 0.00393763)
(0.298458 -1.33005e-09 0.00400061)
(0.296249 -1.32387e-09 0.00405247)
(0.294011 -1.3172e-09 0.00409421)
(0.291749 -1.30864e-09 0.00412677)
(0.289467 -1.30007e-09 0.00415105)
(0.287171 -1.29103e-09 0.00416787)
(0.284863 -1.28103e-09 0.004178)
(0.282549 -1.27199e-09 0.00418215)
(0.28023 -1.26342e-09 0.00418098)
(0.277911 -1.25581e-09 0.00417509)
(0.275593 -1.24534e-09 0.00416505)
(0.273279 -1.2363e-09 0.00415138)
(0.27097 -1.22916e-09 0.00413455)
(0.26867 -1.22107e-09 0.00411498)
(0.266378 -1.21203e-09 0.00409308)
(0.264097 -1.20584e-09 0.00406921)
(0.261827 -1.20061e-09 0.0040437)
(0.25957 -1.19537e-09 0.00401684)
(0.257326 -1.18871e-09 0.00398891)
(0.255096 -1.18443e-09 0.00396015)
(0.25288 -1.18157e-09 0.0039308)
(0.250679 -1.17919e-09 0.00390105)
(0.248494 -1.17539e-09 0.0038711)
(0.246323 -1.17253e-09 0.0038411)
(0.244167 -1.17206e-09 0.00381123)
(0.242027 -1.1692e-09 0.0037816)
(0.239902 -1.1692e-09 0.00375236)
(0.237792 -1.16968e-09 0.00372361)
(0.235696 -1.17016e-09 0.00369547)
(0.233615 -1.17111e-09 0.00366804)
(0.231548 -1.17111e-09 0.0036414)
(0.229494 -1.17207e-09 0.00361563)
(0.227453 -1.17445e-09 0.00359081)
(0.225426 -1.17635e-09 0.00356703)
(0.22341 -1.18016e-09 0.00354433)
(0.221405 -1.18207e-09 0.00352278)
(0.219412 -1.18635e-09 0.00350245)
(0.217429 -1.18921e-09 0.00348339)
(0.215455 -1.19159e-09 0.00346565)
(0.21349 -1.19492e-09 0.00344929)
(0.211533 -1.1973e-09 0.00343434)
(0.209584 -1.20206e-09 0.00342086)
(0.207641 -1.20587e-09 0.00340889)
(0.205704 -1.21111e-09 0.00339847)
(0.203771 -1.21349e-09 0.00338964)
(0.201842 -1.2173e-09 0.00338245)
(0.199917 -1.21873e-09 0.00337694)
(0.197993 -1.22254e-09 0.00337313)
(0.196071 -1.22492e-09 0.00337107)
(0.194149 -1.22777e-09 0.00337079)
(0.192226 -1.23063e-09 0.00337233)
(0.190301 -1.23444e-09 0.00337572)
(0.188374 -1.23682e-09 0.00338099)
(0.186443 -1.23682e-09 0.00338817)
(0.184507 -1.2392e-09 0.00339729)
(0.182565 -1.24063e-09 0.00340839)
(0.180616 -1.24254e-09 0.00342148)
(0.178659 -1.24301e-09 0.0034366)
(0.176693 -1.24206e-09 0.00345377)
(0.174716 -1.24016e-09 0.003473)
(0.172729 -1.23921e-09 0.00349433)
(0.170728 -1.23731e-09 0.00351776)
(0.168714 -1.23731e-09 0.00354333)
(0.166685 -1.23493e-09 0.00357103)
(0.16464 -1.23303e-09 0.00360089)
(0.162578 -1.23065e-09 0.0036329)
(0.160498 -1.22685e-09 0.00366709)
(0.158398 -1.22161e-09 0.00370345)
(0.156278 -1.21733e-09 0.00374198)
(0.154136 -1.21352e-09 0.00378267)
(0.15197 -1.20972e-09 0.00382553)
(0.149781 -1.20448e-09 0.00387054)
(0.147567 -1.1983e-09 0.00391768)
(0.145326 -1.19164e-09 0.00396693)
(0.143058 -1.18593e-09 0.00401827)
(0.140762 -1.17784e-09 0.00407167)
(0.138436 -1.17022e-09 0.00412708)
(0.136079 -1.16499e-09 0.00418448)
(0.133691 -1.16023e-09 0.0042438)
(0.131271 -1.15167e-09 0.004305)
(0.128817 -1.145e-09 0.004368)
(0.126329 -1.1412e-09 0.00443275)
(0.123805 -1.13501e-09 0.00449915)
(0.121246 -1.12835e-09 0.00456713)
(0.11865 -1.12264e-09 0.00463658)
(0.116016 -1.1155e-09 0.00470741)
(0.113345 -1.11122e-09 0.00477949)
(0.110635 -1.10551e-09 0.00485269)
(0.107886 -1.10123e-09 0.00492688)
(0.105098 -1.09647e-09 0.00500189)
(0.10227 -1.09552e-09 0.00507757)
(0.0994026 -1.09361e-09 0.00515374)
(0.0964954 -1.09123e-09 0.00523018)
(0.0935483 -1.09409e-09 0.00530669)
(0.0905618 -1.09742e-09 0.00538303)
(0.087536 -1.10409e-09 0.00545895)
(0.0844714 -1.11075e-09 0.00553417)
(0.0813688 -1.1217e-09 0.00560837)
(0.0782289 -1.13645e-09 0.00568124)
(0.0750528 -1.15263e-09 0.0057524)
(0.0718416 -1.17167e-09 0.00582147)
(0.0685969 -1.19641e-09 0.005888)
(0.0653204 -1.22782e-09 0.00595153)
(0.062014 -1.26114e-09 0.00601151)
(0.0586801 -1.30016e-09 0.00606737)
(0.0553212 -1.34204e-09 0.00611848)
(0.0519403 -1.39058e-09 0.00616411)
(0.0485408 -1.44389e-09 0.00620347)
(0.0451266 -1.50004e-09 0.00623569)
(0.0417018 -1.55525e-09 0.00625976)
(0.0382714 -1.61616e-09 0.00627459)
(0.0348407 -1.66756e-09 0.00627891)
(0.0314159 -1.70373e-09 0.00627131)
(0.0280039 -1.72181e-09 0.00625018)
(0.0246123 -1.70944e-09 0.00621371)
(0.0212498 -1.65804e-09 0.00615977)
(0.0179262 -1.57048e-09 0.00608593)
(0.0146524 -1.43437e-09 0.00598922)
(0.011441 -1.25829e-09 0.0058663)
(0.00830575 -1.05079e-09 0.00571207)
(0.0052622 -8.13791e-10 0.00552071)
(0.0023282 -6.15815e-10 0.0052885)
(-0.000477821 -5.88213e-10 0.00501071)
(-0.00313102 -8.8137e-10 0.0046805)
(-0.00560635 -1.69802e-09 0.00428983)
(-0.00787595 -3.23805e-09 0.00382912)
(-0.00990807 -5.58711e-09 0.00328676)
(-0.0116676 -8.53295e-09 0.002649)
(-0.0131158 -1.13398e-08 0.0019004)
(-0.0142107 -1.26876e-08 0.00102354)
(-0.0149088 -1.10257e-08 9.3419e-07)
(-0.015166 -5.69276e-09 -0.00117976)
(-0.0149414 1.21451e-09 -0.0025225)
(-0.0142069 3.70444e-09 -0.00400877)
(-0.0129567 -5.44052e-09 -0.00555982)
(-0.0112243 -2.46365e-08 -0.0069613)
(-0.00905288 -3.01608e-08 -0.0077192)
(-0.00639409 -2.74502e-09 -0.00658259)
(-0.00375641 3.12339e-08 -0.00156495)
(-0.0144636 3.62221e-08 0.0409943)
(-0.0213255 3.77286e-09 0.0270221)
(-0.0217416 5.37582e-09 0.0121027)
(-0.0184096 4.14932e-10 -0.00117605)
(-0.0116511 -1.45159e-09 -0.0114661)
(-0.0022095 -3.02685e-09 -0.0188564)
(0.00939482 -4.27945e-09 -0.0239555)
(0.0225564 -5.18844e-09 -0.0273344)
(0.0368374 -5.81855e-09 -0.029425)
(0.0518382 -6.06602e-09 -0.0305411)
(0.0672541 -6.01176e-09 -0.0309739)
(0.0828338 -5.84043e-09 -0.030924)
(0.0983758 -5.57296e-09 -0.0305205)
(0.113726 -5.25029e-09 -0.0298571)
(0.128765 -4.90049e-09 -0.029001)
(0.143399 -4.54212e-09 -0.028002)
(0.157556 -4.19374e-09 -0.0268979)
(0.17118 -3.8625e-09 -0.0257179)
(0.184231 -3.54935e-09 -0.0244851)
(0.196678 -3.25904e-09 -0.0232179)
(0.2085 -2.99347e-09 -0.021931)
(0.219683 -2.7498e-09 -0.0206368)
(0.230221 -2.52707e-09 -0.0193451)
(0.240111 -2.32718e-09 -0.0180646)
(0.249356 -2.14681e-09 -0.016802)
(0.257964 -1.98595e-09 -0.0155633)
(0.265943 -1.84364e-09 -0.0143533)
(0.273307 -1.72086e-09 -0.0131762)
(0.280071 -1.61377e-09 -0.0120352)
(0.286251 -1.51954e-09 -0.0109332)
(0.291866 -1.44244e-09 -0.00987218)
(0.296935 -1.38009e-09 -0.00885394)
(0.301481 -1.32773e-09 -0.00787969)
(0.305523 -1.28585e-09 -0.00695027)
(0.309086 -1.25777e-09 -0.00606615)
(0.31219 -1.2335e-09 -0.00522751)
(0.314859 -1.21826e-09 -0.00443422)
(0.317115 -1.21065e-09 -0.0036859)
(0.318982 -1.20684e-09 -0.00298195)
(0.320482 -1.20874e-09 -0.00232156)
(0.321636 -1.21397e-09 -0.00170376)
(0.322467 -1.22206e-09 -0.00112744)
(0.322996 -1.23252e-09 -0.000591337)
(0.323243 -1.24156e-09 -9.41005e-05)
(0.323228 -1.25298e-09 0.00036576)
(0.32297 -1.27011e-09 0.000789835)
(0.322489 -1.28439e-09 0.00117971)
(0.3218 -1.29724e-09 0.001537)
(0.320922 -1.30913e-09 0.00186332)
(0.319871 -1.31912e-09 0.00216031)
(0.318661 -1.32959e-09 0.0024296)
(0.317307 -1.33673e-09 0.00267279)
(0.315823 -1.34339e-09 0.00289149)
(0.314222 -1.34672e-09 0.00308726)
(0.312514 -1.3491e-09 0.00326162)
(0.310713 -1.351e-09 0.00341607)
(0.308827 -1.35147e-09 0.00355202)
(0.306868 -1.34862e-09 0.00367086)
(0.304843 -1.34528e-09 0.00377391)
(0.302761 -1.341e-09 0.00386242)
(0.30063 -1.33529e-09 0.00393761)
(0.298457 -1.33005e-09 0.00400059)
(0.296249 -1.32386e-09 0.00405245)
(0.294011 -1.3172e-09 0.00409419)
(0.291749 -1.30863e-09 0.00412675)
(0.289467 -1.30007e-09 0.00415104)
(0.287171 -1.29102e-09 0.00416786)
(0.284863 -1.28103e-09 0.00417798)
(0.282549 -1.27199e-09 0.00418213)
(0.28023 -1.26342e-09 0.00418096)
(0.277911 -1.25581e-09 0.00417507)
(0.275593 -1.24534e-09 0.00416504)
(0.273279 -1.23629e-09 0.00415136)
(0.27097 -1.22916e-09 0.00413453)
(0.26867 -1.22107e-09 0.00411496)
(0.266378 -1.21202e-09 0.00409307)
(0.264097 -1.20584e-09 0.00406919)
(0.261827 -1.2006e-09 0.00404368)
(0.25957 -1.19537e-09 0.00401682)
(0.257326 -1.18871e-09 0.00398889)
(0.255096 -1.18443e-09 0.00396013)
(0.25288 -1.18157e-09 0.00393078)
(0.250679 -1.17919e-09 0.00390104)
(0.248494 -1.17539e-09 0.00387108)
(0.246323 -1.17253e-09 0.00384109)
(0.244167 -1.17206e-09 0.00381121)
(0.242027 -1.1692e-09 0.00378158)
(0.239902 -1.1692e-09 0.00375234)
(0.237792 -1.16968e-09 0.0037236)
(0.235696 -1.17016e-09 0.00369546)
(0.233615 -1.17111e-09 0.00366802)
(0.231548 -1.17111e-09 0.00364138)
(0.229494 -1.17207e-09 0.00361561)
(0.227453 -1.17445e-09 0.0035908)
(0.225426 -1.17635e-09 0.00356701)
(0.22341 -1.18016e-09 0.00354431)
(0.221405 -1.18206e-09 0.00352277)
(0.219412 -1.18635e-09 0.00350244)
(0.217429 -1.18921e-09 0.00348338)
(0.215455 -1.19159e-09 0.00346564)
(0.21349 -1.19492e-09 0.00344927)
(0.211533 -1.1973e-09 0.00343432)
(0.209584 -1.20206e-09 0.00342084)
(0.207641 -1.20587e-09 0.00340887)
(0.205703 -1.21111e-09 0.00339845)
(0.203771 -1.21349e-09 0.00338963)
(0.201842 -1.2173e-09 0.00338244)
(0.199917 -1.21873e-09 0.00337692)
(0.197993 -1.22254e-09 0.00337311)
(0.196071 -1.22492e-09 0.00337105)
(0.194149 -1.22777e-09 0.00337078)
(0.192226 -1.23063e-09 0.00337231)
(0.190301 -1.23444e-09 0.0033757)
(0.188374 -1.23682e-09 0.00338097)
(0.186443 -1.23682e-09 0.00338815)
(0.184507 -1.2392e-09 0.00339728)
(0.182565 -1.24063e-09 0.00340837)
(0.180616 -1.24254e-09 0.00342147)
(0.178659 -1.24301e-09 0.00343658)
(0.176693 -1.24206e-09 0.00345375)
(0.174716 -1.24016e-09 0.00347298)
(0.172729 -1.23921e-09 0.00349431)
(0.170728 -1.23731e-09 0.00351774)
(0.168714 -1.23731e-09 0.00354331)
(0.166685 -1.23493e-09 0.00357101)
(0.16464 -1.23303e-09 0.00360087)
(0.162578 -1.23065e-09 0.00363288)
(0.160498 -1.22684e-09 0.00366707)
(0.158398 -1.22161e-09 0.00370343)
(0.156278 -1.21733e-09 0.00374196)
(0.154136 -1.21352e-09 0.00378265)
(0.15197 -1.20972e-09 0.00382551)
(0.149781 -1.20448e-09 0.00387052)
(0.147567 -1.1983e-09 0.00391766)
(0.145326 -1.19164e-09 0.00396691)
(0.143058 -1.18593e-09 0.00401825)
(0.140762 -1.17784e-09 0.00407165)
(0.138436 -1.17022e-09 0.00412706)
(0.136079 -1.16499e-09 0.00418446)
(0.133691 -1.16023e-09 0.00424378)
(0.131271 -1.15166e-09 0.00430497)
(0.128817 -1.145e-09 0.00436798)
(0.126329 -1.1412e-09 0.00443272)
(0.123805 -1.13501e-09 0.00449913)
(0.121246 -1.12835e-09 0.00456711)
(0.11865 -1.12264e-09 0.00463656)
(0.116016 -1.1155e-09 0.00470739)
(0.113345 -1.11122e-09 0.00477947)
(0.110635 -1.10551e-09 0.00485267)
(0.107886 -1.10123e-09 0.00492685)
(0.105098 -1.09647e-09 0.00500187)
(0.10227 -1.09552e-09 0.00507755)
(0.0994026 -1.09361e-09 0.00515371)
(0.0964954 -1.09123e-09 0.00523016)
(0.0935483 -1.09409e-09 0.00530667)
(0.0905618 -1.09742e-09 0.00538301)
(0.087536 -1.10408e-09 0.00545893)
(0.0844714 -1.11075e-09 0.00553414)
(0.0813688 -1.12169e-09 0.00560835)
(0.0782289 -1.13645e-09 0.00568121)
(0.0750528 -1.15263e-09 0.00575238)
(0.0718416 -1.17166e-09 0.00582145)
(0.0685969 -1.19641e-09 0.00588798)
(0.0653204 -1.22782e-09 0.0059515)
(0.062014 -1.26114e-09 0.00601148)
(0.0586801 -1.30016e-09 0.00606735)
(0.0553212 -1.34204e-09 0.00611845)
(0.0519403 -1.39058e-09 0.00616408)
(0.0485409 -1.44388e-09 0.00620345)
(0.0451266 -1.50004e-09 0.00623566)
(0.0417018 -1.55525e-09 0.00625973)
(0.0382714 -1.61616e-09 0.00627456)
(0.0348407 -1.66756e-09 0.00627888)
(0.0314159 -1.70373e-09 0.00627128)
(0.0280039 -1.72181e-09 0.00625015)
(0.0246123 -1.70944e-09 0.00621367)
(0.0212498 -1.65804e-09 0.00615973)
(0.0179262 -1.57048e-09 0.00608589)
(0.0146524 -1.43437e-09 0.00598919)
(0.011441 -1.25828e-09 0.00586626)
(0.00830577 -1.05079e-09 0.00571203)
(0.00526222 -8.1379e-10 0.00552067)
(0.00232821 -6.15814e-10 0.00528847)
(-0.000477808 -5.88212e-10 0.00501067)
(-0.003131 -8.81368e-10 0.00468046)
(-0.00560634 -1.69802e-09 0.00428979)
(-0.00787594 -3.23804e-09 0.00382908)
(-0.00990806 -5.5871e-09 0.00328672)
(-0.0116676 -8.53294e-09 0.00264896)
(-0.0131158 -1.13398e-08 0.00190035)
(-0.0142107 -1.26876e-08 0.00102349)
(-0.0149088 -1.10257e-08 8.86789e-07)
(-0.015166 -5.69275e-09 -0.00117981)
(-0.0149414 1.21451e-09 -0.00252255)
(-0.0142069 3.70443e-09 -0.00400883)
(-0.0129567 -5.44052e-09 -0.0055599)
(-0.0112244 -2.46366e-08 -0.00696139)
(-0.00905297 -3.01609e-08 -0.00771932)
(-0.0063943 -2.74502e-09 -0.00658286)
(-0.00375691 3.12344e-08 -0.00156545)
(-0.00612947 5.62718e-08 0.05454)
(-0.00652779 3.91949e-09 0.0269511)
(-0.00152482 6.31727e-09 0.00659738)
(0.00541187 4.35271e-09 -0.00939355)
(0.0139079 4.33226e-09 -0.0216699)
(0.0236994 4.19329e-09 -0.0307719)
(0.0346566 3.96676e-09 -0.0372916)
(0.0465823 3.70644e-09 -0.0417765)
(0.0592651 3.37901e-09 -0.0446821)
(0.0724987 3.03492e-09 -0.0463672)
(0.0860925 2.72891e-09 -0.0471286)
(0.0998649 2.4505e-09 -0.0471922)
(0.113659 2.21635e-09 -0.0467251)
(0.127344 2.02123e-09 -0.0458531)
(0.140812 1.86108e-09 -0.0446718)
(0.153975 1.72735e-09 -0.0432546)
(0.166763 1.61647e-09 -0.0416588)
(0.17912 1.52224e-09 -0.0399296)
(0.191001 1.44419e-09 -0.0381037)
(0.202373 1.37566e-09 -0.0362103)
(0.213209 1.31593e-09 -0.0342739)
(0.223493 1.2643e-09 -0.0323145)
(0.233213 1.21718e-09 -0.030349)
(0.242362 1.17411e-09 -0.0283913)
(0.250939 1.13628e-09 -0.0264535)
(0.258946 1.10059e-09 -0.0245455)
(0.266389 1.06656e-09 -0.0226757)
(0.273275 1.03658e-09 -0.0208514)
(0.279618 1.00612e-09 -0.0190783)
(0.285428 9.78996e-10 -0.0173614)
(0.290722 9.52109e-10 -0.0157046)
(0.295515 9.25459e-10 -0.0141111)
(0.299825 8.98809e-10 -0.0125832)
(0.30367 8.743e-10 -0.0111227)
(0.30707 8.49316e-10 -0.00973071)
(0.310044 8.25759e-10 -0.00840787)
(0.312612 8.01489e-10 -0.00715427)
(0.314794 7.77456e-10 -0.00596962)
(0.316611 7.55327e-10 -0.00485322)
(0.318082 7.32722e-10 -0.00380405)
(0.319228 7.10355e-10 -0.00282077)