/*--------------------------------*- C++ -*----------------------------------*\
  =========                 |
  \\      /  F ield         | OpenFOAM: The Open Source CFD Toolbox
   \\    /   O peration     | Website:  https://openfoam.org
    \\  /    A nd           | Version:  8
     \\/     M anipulation  |
\*---------------------------------------------------------------------------*/
FoamFile
{
    version     2.0;
    format      ascii;
    class       volScalarField;
    location    "400";
    object      alphat;
}
// * * * * * * * * * * * * * * * * * * * * * * * * * * * * * * * * * * * * * //

dimensions      [1 -1 -1 0 0 0 0];

internalField   nonuniform List<scalar> 
48000
(
5.64108e-05
9.99945e-05
0.000132601
0.000161018
0.000183024
0.000195917
0.000198403
3.78761e-05
3.67328e-05
3.3692e-05
3.70122e-05
4.41932e-05
5.03428e-05
5.04996e-05
5.18409e-05
5.32845e-05
5.46983e-05
5.60703e-05
5.7403e-05
5.87e-05
5.99645e-05
6.11991e-05
6.2406e-05
6.35869e-05
6.47432e-05
6.58761e-05
6.69866e-05
6.80752e-05
6.91425e-05
7.0189e-05
7.1215e-05
7.22206e-05
7.32061e-05
7.41715e-05
7.51169e-05
7.60424e-05
7.69478e-05
7.78333e-05
7.86988e-05
7.95443e-05
8.03697e-05
8.11752e-05
8.19606e-05
8.27261e-05
8.34716e-05
8.41972e-05
8.4903e-05
8.5589e-05
8.62553e-05
8.69021e-05
8.75294e-05
8.81374e-05
8.87262e-05
8.92959e-05
8.98468e-05
9.03789e-05
9.08924e-05
9.13875e-05
9.18645e-05
9.23233e-05
9.27643e-05
9.31876e-05
9.35933e-05
9.39817e-05
9.4353e-05
9.47073e-05
9.50448e-05
9.53657e-05
9.56702e-05
9.59583e-05
9.62303e-05
9.64863e-05
9.67265e-05
9.69511e-05
9.71601e-05
9.73537e-05
9.75321e-05
9.76954e-05
9.78437e-05
9.79771e-05
9.80957e-05
9.81998e-05
9.82893e-05
9.83644e-05
9.84252e-05
9.84718e-05
9.85043e-05
9.85229e-05
9.85278e-05
9.85205e-05
9.85e-05
9.84658e-05
9.84181e-05
9.8357e-05
9.82826e-05
9.81951e-05
9.80946e-05
9.79812e-05
9.78552e-05
9.77165e-05
9.75654e-05
9.7402e-05
9.72264e-05
9.70387e-05
9.68392e-05
9.66279e-05
9.6405e-05
9.61705e-05
9.59246e-05
9.56673e-05
9.53988e-05
9.51189e-05
9.48279e-05
9.45258e-05
9.42126e-05
9.38885e-05
9.35533e-05
9.3207e-05
9.28496e-05
9.24809e-05
9.21011e-05
9.171e-05
9.13077e-05
9.08942e-05
9.04692e-05
9.00327e-05
8.95845e-05
8.91245e-05
8.86525e-05
8.81686e-05
8.76728e-05
8.71649e-05
8.66448e-05
8.61123e-05
8.55673e-05
8.50096e-05
8.44392e-05
8.3856e-05
8.326e-05
8.2651e-05
8.20289e-05
8.13935e-05
8.07448e-05
8.00826e-05
7.94069e-05
7.87177e-05
7.80148e-05
7.72984e-05
7.65681e-05
7.58241e-05
7.50662e-05
7.42944e-05
7.35086e-05
7.2709e-05
7.18954e-05
7.10679e-05
7.02264e-05
6.93709e-05
6.85013e-05
6.76177e-05
6.67201e-05
6.58086e-05
6.48832e-05
6.3944e-05
6.29909e-05
6.20241e-05
6.10433e-05
6.00488e-05
5.90405e-05
5.80183e-05
5.69823e-05
5.59324e-05
5.48683e-05
5.37898e-05
5.26973e-05
5.15943e-05
5.0507e-05
4.96413e-05
5.08821e-05
4.68344e-05
4.65764e-05
4.58159e-05
4.46153e-05
4.51542e-05
0.000233849
0.000230818
0.000224125
0.000215996
0.000204559
0.00018998
0.000188182
0.000181445
0.000168503
0.000151873
0.000133336
0.000113724
9.33504e-05
7.22205e-05
4.98949e-05
2.28162e-05
5.64157e-05
0.000100001
0.00013261
0.000161035
0.000183066
0.000196012
0.000198295
3.78318e-05
3.67505e-05
3.37227e-05
3.6976e-05
4.41664e-05
5.03806e-05
5.05132e-05
5.18454e-05
5.32862e-05
5.46994e-05
5.60713e-05
5.74039e-05
5.87008e-05
5.99652e-05
6.11998e-05
6.24066e-05
6.35875e-05
6.47438e-05
6.58767e-05
6.69871e-05
6.80757e-05
6.9143e-05
7.01894e-05
7.12153e-05
7.22209e-05
7.32064e-05
7.41718e-05
7.51172e-05
7.60426e-05
7.69481e-05
7.78335e-05
7.8699e-05
7.95445e-05
8.03699e-05
8.11754e-05
8.19608e-05
8.27263e-05
8.34718e-05
8.41974e-05
8.49031e-05
8.55891e-05
8.62554e-05
8.69022e-05
8.75295e-05
8.81375e-05
8.87262e-05
8.9296e-05
8.98468e-05
9.03789e-05
9.08924e-05
9.13876e-05
9.18645e-05
9.23233e-05
9.27643e-05
9.31875e-05
9.35933e-05
9.39817e-05
9.4353e-05
9.47073e-05
9.50448e-05
9.53657e-05
9.56701e-05
9.59582e-05
9.62302e-05
9.64862e-05
9.67265e-05
9.6951e-05
9.716e-05
9.73536e-05
9.7532e-05
9.76952e-05
9.78435e-05
9.79769e-05
9.80955e-05
9.81995e-05
9.8289e-05
9.83641e-05
9.84249e-05
9.84714e-05
9.8504e-05
9.85226e-05
9.85274e-05
9.85202e-05
9.84996e-05
9.84654e-05
9.84177e-05
9.83566e-05
9.82822e-05
9.81947e-05
9.80942e-05
9.79808e-05
9.78548e-05
9.77161e-05
9.7565e-05
9.74015e-05
9.72259e-05
9.70383e-05
9.68387e-05
9.66274e-05
9.64045e-05
9.617e-05
9.59241e-05
9.56668e-05
9.53983e-05
9.51184e-05
9.48274e-05
9.45253e-05
9.42121e-05
9.38879e-05
9.35527e-05
9.32064e-05
9.2849e-05
9.24804e-05
9.21006e-05
9.17096e-05
9.13073e-05
9.08938e-05
9.04688e-05
9.00322e-05
8.95839e-05
8.91238e-05
8.86519e-05
8.81681e-05
8.76723e-05
8.71644e-05
8.66443e-05
8.61118e-05
8.55667e-05
8.5009e-05
8.44387e-05
8.38556e-05
8.32596e-05
8.26506e-05
8.20285e-05
8.13931e-05
8.07444e-05
8.00822e-05
7.94065e-05
7.87172e-05
7.80144e-05
7.7298e-05
7.65677e-05
7.58236e-05
7.50657e-05
7.42939e-05
7.35082e-05
7.27086e-05
7.18951e-05
7.10676e-05
7.02261e-05
6.93705e-05
6.85009e-05
6.76172e-05
6.67196e-05
6.58081e-05
6.48828e-05
6.39435e-05
6.29905e-05
6.20236e-05
6.10428e-05
6.00483e-05
5.90399e-05
5.80178e-05
5.69819e-05
5.5932e-05
5.48679e-05
5.37894e-05
5.26967e-05
5.15934e-05
5.05041e-05
4.96313e-05
5.08499e-05
4.68036e-05
4.65752e-05
4.58226e-05
4.46329e-05
4.52623e-05
0.000235561
0.000234948
0.000222688
3.82215e-05
0.000207565
0.000203897
0.000196298
0.000184636
0.000169516
0.000152161
0.000133411
0.000113741
9.33531e-05
7.22198e-05
4.98933e-05
2.28145e-05
6.77704e-05
0.000191946
0.000283141
0.000348433
0.000392459
0.000408348
0.000380612
0.000312783
0.000320958
0.000362302
0.000385062
0.000392917
0.00047277
0.000503828
0.000523212
0.000539797
0.000555265
0.000570002
0.000584148
0.000597785
0.000610967
0.00062374
0.00063614
0.000648194
0.000659928
0.000671361
0.000682509
0.000693386
0.000704003
0.000714369
0.000724493
0.000734381
0.000744038
0.000753469
0.000762676
0.000771664
0.000780435
0.000788991
0.000797334
0.000805467
0.00081339
0.000821107
0.000828617
0.000835923
0.000843026
0.000849929
0.000856632
0.000863137
0.000869447
0.000875563
0.000881486
0.000887219
0.000892764
0.000898122
0.000903296
0.000908287
0.000913098
0.00091773
0.000922185
0.000926465
0.000930573
0.00093451
0.000938278
0.000941879
0.000945315
0.000948587
0.000951697
0.000954647
0.000957438
0.000960072
0.000962551
0.000964876
0.000967048
0.000969069
0.00097094
0.000972662
0.000974237
0.000975665
0.000976949
0.000978088
0.000979084
0.000979938
0.000980651
0.000981224
0.000981658
0.000981954
0.000982113
0.000982136
0.000982023
0.000981745
0.000981319
0.000980754
0.000980056
0.000979228
0.00097827
0.000977186
0.000975976
0.000974642
0.000973185
0.000971607
0.000969909
0.000968093
0.000966159
0.000964108
0.000961943
0.000959664
0.000957272
0.000954767
0.00095215
0.000949423
0.000946585
0.000943636
0.000940577
0.000937409
0.000934129
0.00093074
0.00092724
0.000923628
0.000919904
0.000916068
0.000912118
0.000908055
0.000903877
0.000899583
0.000895173
0.000890645
0.000885998
0.000881232
0.000876346
0.000871338
0.000866208
0.000860956
0.000855579
0.000850077
0.00084445
0.000838696
0.000832815
0.000826805
0.000820667
0.000814399
0.000808001
0.000801473
0.000794813
0.000788021
0.000781096
0.000774039
0.00076685
0.000759527
0.000752071
0.000744483
0.00073676
0.000728905
0.000720917
0.000712797
0.000704545
0.000696161
0.000687646
0.000679001
0.000670226
0.000661322
0.00065229
0.000643132
0.000633847
0.000624438
0.000614904
0.000605248
0.000595469
0.000585568
0.000575546
0.000565401
0.000555133
0.000544739
0.000534214
0.00052355
0.000512728
0.000501708
0.000490305
0.000477346
0.000454733
0.000387891
0.000362254
0.000348788
0.000340867
0.000346032
0.000417922
0.00042266
0.000421605
0.000427346
0.000402261
0.000391485
0.00041808
0.000421513
0.000406212
0.000380698
0.000349082
0.000312077
0.000267731
0.000211614
0.000134747
3.60686e-05
6.77754e-05
0.000191988
0.0002832
0.000348485
0.000392412
0.000408108
0.000381542
0.000313517
0.000320829
0.00036189
0.000385402
0.00039283
0.000472079
0.000503646
0.000523206
0.000539828
0.000555301
0.000570038
0.000584183
0.000597818
0.000610999
0.000623771
0.00063617
0.000648223
0.000659956
0.000671388
0.000682535
0.000693411
0.000704028
0.000714393
0.000724517
0.000734404
0.00074406
0.00075349
0.000762697
0.000771684
0.000780454
0.00078901
0.000797353
0.000805485
0.000813408
0.000821123
0.000828633
0.000835939
0.000843042
0.000849944
0.000856646
0.000863152
0.000869461
0.000875576
0.000881499
0.000887232
0.000892777
0.000898135
0.000903308
0.000908299
0.000913109
0.000917741
0.000922196
0.000926476
0.000930584
0.000934521
0.000938288
0.000941889
0.000945324
0.000948596
0.000951706
0.000954656
0.000957447
0.000960082
0.00096256
0.000964885
0.000967057
0.000969078
0.000970948
0.000972671
0.000974245
0.000975673
0.000976957
0.000978096
0.000979092
0.000979946
0.000980659
0.000981232
0.000981666
0.000981962
0.00098212
0.000982143
0.000982031
0.000981752
0.000981326
0.000980762
0.000980063
0.000979235
0.000978277
0.000977192
0.000975982
0.000974648
0.000973191
0.000971613
0.000969915
0.000968099
0.000966164
0.000964114
0.000961949
0.000959669
0.000957277
0.000954772
0.000952156
0.000949428
0.00094659
0.000943641
0.000940582
0.000937413
0.000934134
0.000930744
0.000927244
0.000923632
0.000919908
0.000916072
0.000912122
0.000908059
0.00090388
0.000899586
0.000895176
0.000890648
0.000886001
0.000881235
0.000876349
0.000871341
0.000866211
0.000860958
0.000855581
0.00085008
0.000844452
0.000838698
0.000832817
0.000826807
0.000820669
0.000814401
0.000808003
0.000801475
0.000794814
0.000788022
0.000781098
0.000774041
0.000766851
0.000759529
0.000752073
0.000744484
0.000736762
0.000728906
0.000720919
0.000712798
0.000704546
0.000696162
0.000687647
0.000679002
0.000670227
0.000661323
0.000652291
0.000643132
0.000633848
0.000624438
0.000614905
0.000605248
0.000595469
0.000585568
0.000575546
0.000565401
0.000555133
0.000544739
0.000534214
0.000523549
0.000512727
0.00050171
0.000490338
0.000477555
0.000455534
0.000388519
0.000362295
0.000348591
0.000340567
0.000345706
0.000418741
0.000429065
0.000422166
0.000319118
0.000411972
0.000439529
0.000442331
0.000430384
0.000409005
0.000381515
0.000349319
0.000312152
0.00026776
0.000211627
0.000134747
3.60684e-05
9.16294e-05
0.000262868
0.000408895
0.000519375
0.000601572
0.000658119
0.000698137
0.000722157
0.000759642
0.000810749
0.000861544
0.000905954
0.000967181
0.00101418
0.00105369
0.00108945
0.00112283
0.0011544
0.00118448
0.00121325
0.00124087
0.00126745
0.00129308
0.00131783
0.00134179
0.00136499
0.00138748
0.00140932
0.00143053
0.00145114
0.00147117
0.00149066
0.00150962
0.00152806
0.001546
0.00156346
0.00158044
0.00159696
0.00161303
0.00162864
0.00164382
0.00165857
0.00167289
0.0016868
0.00170029
0.00171338
0.00172606
0.00173836
0.00175026
0.00176178
0.00177292
0.00178369
0.00179409
0.00180412
0.0018138
0.00182313
0.00183211
0.00184074
0.00184903
0.00185699
0.00186462
0.00187192
0.0018789
0.00188556
0.00189191
0.00189794
0.00190367
0.00190909
0.00191421
0.00191904
0.00192356
0.0019278
0.00193174
0.0019354
0.00193877
0.00194186
0.00194467
0.0019472
0.00194945
0.00195143
0.00195313
0.00195456
0.00195573
0.00195662
0.00195725
0.00195761
0.00195771
0.00195755
0.00195712
0.00195641
0.00195542
0.00195417
0.00195266
0.00195091
0.0019489
0.00194664
0.00194415
0.00194141
0.00193844
0.00193524
0.0019318
0.00192813
0.00192423
0.00192011
0.00191577
0.0019112
0.00190641
0.00190141
0.00189618
0.00189074
0.00188508
0.0018792
0.00187311
0.00186679
0.00186027
0.00185352
0.00184655
0.00183937
0.00183196
0.00182433
0.00181647
0.00180839
0.00180009
0.00179155
0.00178278
0.00177378
0.00176454
0.00175507
0.00174535
0.0017354
0.00172521
0.00171477
0.00170409
0.00169316
0.00168199
0.00167056
0.00165889
0.00164696
0.00163478
0.00162234
0.00160965
0.0015967
0.0015835
0.00157004
0.00155632
0.00154234
0.00152811
0.00151362
0.00149886
0.00148386
0.00146859
0.00145307
0.00143729
0.00142126
0.00140498
0.00138845
0.00137166
0.00135463
0.00133735
0.00131983
0.00130207
0.00128407
0.00126583
0.00124736
0.00122866
0.00120972
0.00119056
0.00117117
0.00115154
0.00113168
0.00111158
0.00109122
0.00107058
0.00104962
0.00102827
0.00100642
0.000983925
0.000960603
0.000935137
0.000894178
0.000859585
0.000830325
0.000804534
0.000783114
0.000778664
0.000762431
0.00074904
0.000735382
0.000711973
0.000696068
0.000691861
0.000676948
0.000648067
0.000607902
0.00055789
0.000496837
0.000420684
0.000322493
0.000194727
5.41278e-05
9.16328e-05
0.00026291
0.000408968
0.000519488
0.0006017
0.000658121
0.000698599
0.000721789
0.000758552
0.000810025
0.000861161
0.000904826
0.000966543
0.00101403
0.00105371
0.00108951
0.0011229
0.00115447
0.00118454
0.00121331
0.00124093
0.0012675
0.00129312
0.00131788
0.00134183
0.00136503
0.00138752
0.00140936
0.00143056
0.00145117
0.0014712
0.00149069
0.00150964
0.00152808
0.00154602
0.00156348
0.00158046
0.00159698
0.00161304
0.00162866
0.00164383
0.00165858
0.0016729
0.00168681
0.0017003
0.00171338
0.00172607
0.00173836
0.00175026
0.00176178
0.00177292
0.00178368
0.00179408
0.00180412
0.0018138
0.00182312
0.0018321
0.00184073
0.00184902
0.00185698
0.00186461
0.00187191
0.00187889
0.00188555
0.0018919
0.00189793
0.00190366
0.00190908
0.0019142
0.00191902
0.00192355
0.00192778
0.00193173
0.00193538
0.00193875
0.00194184
0.00194465
0.00194718
0.00194943
0.00195141
0.00195311
0.00195454
0.0019557
0.0019566
0.00195723
0.00195759
0.00195769
0.00195753
0.0019571
0.00195638
0.0019554
0.00195415
0.00195264
0.00195088
0.00194887
0.00194662
0.00194412
0.00194139
0.00193842
0.00193521
0.00193177
0.0019281
0.00192421
0.00192009
0.00191574
0.00191117
0.00190639
0.00190138
0.00189615
0.00189071
0.00188505
0.00187917
0.00187308
0.00186677
0.00186024
0.00185349
0.00184652
0.00183934
0.00183193
0.0018243
0.00181645
0.00180836
0.00180006
0.00179152
0.00178275
0.00177375
0.00176451
0.00175504
0.00174532
0.00173537
0.00172518
0.00171474
0.00170406
0.00169313
0.00168196
0.00167053
0.00165885
0.00164693
0.00163474
0.00162231
0.00160962
0.00159667
0.00158347
0.00157001
0.00155629
0.00154231
0.00152808
0.00151358
0.00149883
0.00148382
0.00146856
0.00145304
0.00143726
0.00142123
0.00140495
0.00138841
0.00137163
0.0013546
0.00133732
0.0013198
0.00130204
0.00128404
0.0012658
0.00124733
0.00122863
0.00120969
0.00119053
0.00117113
0.00115151
0.00113165
0.00111154
0.00109118
0.00107055
0.00104959
0.00102823
0.00100638
0.000983864
0.000960537
0.000935104
0.000893322
0.000858116
0.000828672
0.000802949
0.000781874
0.000779703
0.000768323
0.000756243
0.000715574
0.000721846
0.000718888
0.00070649
0.000683438
0.000650449
0.000608685
0.000558132
0.000496911
0.000420708
0.0003225
0.000194719
5.41275e-05
0.000116147
0.000319757
0.000508198
0.000660235
0.000782631
0.000881616
0.000965272
0.00103941
0.00111065
0.00118136
0.00125097
0.00131768
0.00138394
0.00144498
0.00150133
0.00155395
0.00160353
0.00165052
0.00169526
0.00173798
0.00177891
0.00181819
0.00185597
0.00189237
0.00192748
0.00196139
0.00199418
0.00202591
0.00205663
0.00208641
0.00211528
0.00214328
0.00217044
0.0021968
0.00222239
0.00224723
0.00227134
0.00229473
0.00231744
0.00233947
0.00236085
0.00238158
0.00240168
0.00242116
0.00244003
0.00245831
0.00247601
0.00249314
0.0025097
0.00252571
0.00254118
0.00255611
0.00257051
0.00258441
0.00259779
0.00261067
0.00262306
0.00263497
0.0026464
0.00265736
0.00266785
0.00267789
0.00268748
0.00269663
0.00270533
0.0027136
0.00272144
0.00272886
0.00273586
0.00274244
0.00274862
0.00275438
0.00275975
0.00276471
0.00276928
0.00277345
0.00277724
0.00278063
0.00278364
0.00278627
0.00278852
0.00279039
0.00279189
0.00279301
0.00279376
0.00279414
0.00279415
0.0027938
0.00279308
0.00279197
0.0027905
0.00278866
0.00278647
0.00278392
0.00278102
0.00277778
0.0027742
0.00277029
0.00276604
0.00276146
0.00275656
0.00275134
0.00274579
0.00273992
0.00273374
0.00272725
0.00272044
0.00271332
0.0027059
0.00269816
0.00269012
0.00268177
0.00267311
0.00266415
0.00265487
0.00264528
0.00263539
0.00262517
0.00261465
0.0026038
0.00259264
0.00258116
0.00256935
0.00255721
0.00254475
0.00253196
0.00251883
0.00250536
0.00249156
0.00247741
0.00246293
0.00244809
0.00243291
0.00241738
0.0024015
0.00238526
0.00236867
0.00235173
0.00233442
0.00231676
0.00229873
0.00228034
0.00226159
0.00224248
0.00222301
0.00220317
0.00218297
0.0021624
0.00214148
0.00212019
0.00209855
0.00207654
0.00205418
0.00203147
0.0020084
0.00198499
0.00196123
0.00193712
0.00191268
0.0018879
0.00186278
0.00183734
0.00181157
0.00178548
0.00175907
0.00173233
0.00170528
0.00167791
0.00165021
0.00162218
0.00159381
0.00156507
0.00153591
0.00150629
0.00147608
0.00144515
0.00141329
0.00138035
0.00134626
0.00130857
0.0012705
0.0012333
0.00119743
0.00116301
0.00113224
0.00110101
0.00107183
0.00104287
0.00101083
0.000979662
0.00094902
0.000911657
0.000864265
0.000805851
0.000735034
0.000648808
0.000542065
0.000407905
0.000242211
7.17787e-05
0.000116149
0.000319794
0.000508262
0.000660325
0.000782725
0.000881634
0.000965422
0.00103931
0.00111027
0.00118104
0.0012508
0.00131733
0.00138379
0.001445
0.00150141
0.00155405
0.00160363
0.00165061
0.00169534
0.00173807
0.00177898
0.00181826
0.00185604
0.00189243
0.00192754
0.00196145
0.00199423
0.00202596
0.00205668
0.00208645
0.00211532
0.00214331
0.00217047
0.00219683
0.00222242
0.00224725
0.00227136
0.00229475
0.00231746
0.00233949
0.00236086
0.00238159
0.00240169
0.00242116
0.00244004
0.00245832
0.00247601
0.00249313
0.0025097
0.0025257
0.00254117
0.0025561
0.0025705
0.00258439
0.00259778
0.00261066
0.00262305
0.00263495
0.00264638
0.00265734
0.00266783
0.00267787
0.00268746
0.0026966
0.0027053
0.00271357
0.00272142
0.00272883
0.00273583
0.00274241
0.00274859
0.00275435
0.00275971
0.00276468
0.00276924
0.00277342
0.0027772
0.0027806
0.00278361
0.00278624
0.00278848
0.00279035
0.00279185
0.00279297
0.00279372
0.0027941
0.00279411
0.00279376
0.00279303
0.00279193
0.00279046
0.00278862
0.00278642
0.00278388
0.00278098
0.00277774
0.00277416
0.00277024
0.002766
0.00276142
0.00275652
0.00275129
0.00274574
0.00273988
0.0027337
0.0027272
0.00272039
0.00271328
0.00270585
0.00269812
0.00269007
0.00268172
0.00267306
0.0026641
0.00265482
0.00264523
0.00263533
0.00262512
0.0026146
0.00260375
0.00259259
0.0025811
0.0025693
0.00255716
0.0025447
0.0025319
0.00251877
0.00250531
0.0024915
0.00247736
0.00246287
0.00244804
0.00243286
0.00241733
0.00240144
0.00238521
0.00236862
0.00235167
0.00233436
0.0023167
0.00229867
0.00228029
0.00226154
0.00224242
0.00222295
0.00220311
0.00218291
0.00216234
0.00214142
0.00212013
0.00209849
0.00207648
0.00205412
0.00203141
0.00200834
0.00198493
0.00196117
0.00193706
0.00191262
0.00188784
0.00186273
0.00183728
0.00181151
0.00178542
0.00175901
0.00173228
0.00170522
0.00167785
0.00165016
0.00162213
0.00159375
0.00156501
0.00153586
0.00150623
0.00147602
0.00144509
0.00141323
0.0013803
0.00134627
0.00130836
0.00127009
0.00123279
0.00119688
0.00116242
0.00113225
0.00110267
0.00107457
0.0010413
0.00101475
0.000986871
0.000954372
0.000914414
0.000865419
0.000806272
0.000735171
0.000648849
0.000542076
0.000407905
0.000242197
7.17788e-05
0.000140718
0.000368121
0.000588378
0.000774123
0.000930159
0.00106313
0.00117952
0.00128455
0.00138191
0.00147371
0.00156111
0.00164438
0.00172384
0.00179894
0.00186981
0.00193684
0.00200041
0.00206088
0.00211855
0.00217367
0.00222649
0.00227717
0.00232588
0.00237276
0.00241795
0.00246153
0.00250361
0.00254426
0.00258357
0.0026216
0.00265841
0.00269405
0.00272857
0.00276201
0.00279441
0.00282581
0.00285623
0.00288571
0.00291428
0.00294196
0.00296877
0.00299473
0.00301987
0.00304421
0.00306776
0.00309054
0.00311257
0.00313386
0.00315443
0.0031743
0.00319347
0.00321197
0.0032298
0.00324697
0.00326351
0.00327941
0.0032947
0.00330938
0.00332347
0.00333696
0.00334988
0.00336223
0.00337402
0.00338525
0.00339594
0.00340609
0.00341571
0.00342481
0.00343339
0.00344145
0.00344901
0.00345606
0.00346261
0.00346868
0.00347425
0.00347934
0.00348394
0.00348807
0.00349172
0.0034949
0.00349761
0.00349985
0.00350163
0.00350295
0.00350381
0.00350422
0.00350416
0.00350366
0.0035027
0.00350128
0.00349941
0.0034971
0.00349434
0.00349115
0.00348752
0.00348348
0.00347901
0.00347412
0.00346882
0.00346311
0.00345699
0.00345048
0.00344356
0.00343625
0.00342854
0.00342044
0.00341196
0.00340308
0.00339382
0.00338417
0.00337414
0.00336372
0.00335292
0.00334173
0.00333015
0.00331819
0.00330583
0.00329308
0.00327994
0.0032664
0.00325246
0.00323812
0.00322337
0.00320822
0.00319265
0.00317667
0.00316028
0.00314346
0.00312622
0.00310855
0.00309046
0.00307193
0.00305297
0.00303357
0.00301374
0.00299346
0.00297274
0.00295158
0.00292997
0.00290791
0.0028854
0.00286245
0.00283904
0.00281518
0.00279088
0.00276612
0.00274091
0.00271525
0.00268915
0.00266259
0.0026356
0.00260816
0.00258028
0.00255196
0.00252322
0.00249404
0.00246443
0.00243441
0.00240397
0.00237311
0.00234185
0.00231019
0.00227812
0.00224566
0.0022128
0.00217955
0.00214591
0.00211187
0.00207743
0.00204258
0.0020073
0.00197155
0.00193529
0.00189847
0.00186096
0.00182266
0.00178341
0.0017431
0.00170174
0.00165906
0.0016156
0.00157194
0.00152851
0.00148548
0.00144313
0.00140078
0.0013587
0.00131614
0.00127164
0.00122507
0.00117522
0.00111897
0.00105361
0.000976786
0.000885582
0.000775888
0.000642138
0.000478201
0.000282846
8.93396e-05
0.000140716
0.000368143
0.000588434
0.000774222
0.000930274
0.00106322
0.00117963
0.00128462
0.00138192
0.00147371
0.00156114
0.0016444
0.00172391
0.00179905
0.00186994
0.00193697
0.00200053
0.00206099
0.00211866
0.00217378
0.00222658
0.00227726
0.00232597
0.00237285
0.00241803
0.0024616
0.00250368
0.00254433
0.00258364
0.00262166
0.00265847
0.0026941
0.00272862
0.00276205
0.00279445
0.00282584
0.00285627
0.00288574
0.00291431
0.00294198
0.00296879
0.00299475
0.00301989
0.00304422
0.00306777
0.00309055
0.00311258
0.00313387
0.00315444
0.0031743
0.00319347
0.00321196
0.00322979
0.00324697
0.0032635
0.0032794
0.00329469
0.00330937
0.00332345
0.00333695
0.00334986
0.00336221
0.003374
0.00338523
0.00339592
0.00340607
0.00341569
0.00342478
0.00343336
0.00344142
0.00344898
0.00345603
0.00346258
0.00346864
0.00347422
0.0034793
0.00348391
0.00348803
0.00349168
0.00349486
0.00349757
0.00349981
0.00350159
0.00350291
0.00350377
0.00350417
0.00350412
0.00350362
0.00350265
0.00350124
0.00349937
0.00349705
0.00349429
0.0034911
0.00348748
0.00348343
0.00347896
0.00347407
0.00346877
0.00346306
0.00345694
0.00345043
0.00344351
0.0034362
0.00342849
0.00342039
0.0034119
0.00340303
0.00339376
0.00338412
0.00337408
0.00336366
0.00335286
0.00334167
0.00333009
0.00331813
0.00330577
0.00329302
0.00327988
0.00326634
0.0032524
0.00323806
0.00322331
0.00320816
0.00319259
0.00317661
0.00316021
0.00314339
0.00312615
0.00310849
0.00309039
0.00307186
0.0030529
0.00303351
0.00301367
0.00299339
0.00297267
0.00295151
0.0029299
0.00290784
0.00288534
0.00286238
0.00283897
0.00281512
0.00279081
0.00276605
0.00274084
0.00271518
0.00268908
0.00266252
0.00263553
0.00260809
0.00258021
0.00255189
0.00252314
0.00249397
0.00246436
0.00243434
0.0024039
0.00237304
0.00234178
0.00231012
0.00227805
0.00224559
0.00221273
0.00217948
0.00214584
0.0021118
0.00207737
0.00204251
0.00200723
0.00197148
0.00193523
0.0018984
0.0018609
0.0018226
0.00178335
0.00174305
0.00170173
0.00165902
0.00161553
0.00157184
0.00152838
0.0014853
0.00144302
0.00140106
0.00135936
0.00131625
0.00127267
0.00122687
0.00117671
0.00111983
0.00105401
0.000976936
0.000885627
0.000775897
0.000642138
0.000478196
0.000282829
8.93397e-05
0.000164741
0.00040975
0.000652986
0.000865394
0.00104919
0.00120967
0.00135209
0.00148084
0.0015992
0.00170941
0.00181299
0.00191089
0.00200369
0.00209171
0.00217525
0.00225466
0.00233029
0.00240244
0.0024714
0.00253743
0.00260074
0.00266155
0.00272002
0.00277629
0.00283052
0.0028828
0.00293325
0.00298197
0.00302904
0.00307453
0.00311851
0.00316106
0.00320222
0.00324204
0.00328059
0.0033179
0.003354
0.00338895
0.00342277
0.0034555
0.00348717
0.00351781
0.00354744
0.00357609
0.00360379
0.00363055
0.00365641
0.00368138
0.00370549
0.00372874
0.00375117
0.00377279
0.00379362
0.00381366
0.00383295
0.00385149
0.0038693
0.0038864
0.00390279
0.00391848
0.0039335
0.00394785
0.00396154
0.00397459
0.00398699
0.00399877
0.00400993
0.00402047
0.00403041
0.00403975
0.0040485
0.00405667
0.00406426
0.00407127
0.00407771
0.00408359
0.00408891
0.00409367
0.00409789
0.00410155
0.00410467
0.00410725
0.00410928
0.00411079
0.00411176
0.0041122
0.00411211
0.00411149
0.00411035
0.00410868
0.0041065
0.00410379
0.00410058
0.00409686
0.00409264
0.00408792
0.00408272
0.00407703
0.00407086
0.00406421
0.00405708
0.00404949
0.00404143
0.0040329
0.00402392
0.00401447
0.00400458
0.00399422
0.00398342
0.00397216
0.00396045
0.00394829
0.00393567
0.00392261
0.00390909
0.00389511
0.00388068
0.00386579
0.00385043
0.00383461
0.00381833
0.00380157
0.00378434
0.00376663
0.00374843
0.00372976
0.00371059
0.00369094
0.00367079
0.00365014
0.00362899
0.00360734
0.00358518
0.00356251
0.00353933
0.00351564
0.00349143
0.0034667
0.00344145
0.00341567
0.00338938
0.00336256
0.00333521
0.00330735
0.00327895
0.00325004
0.0032206
0.00319064
0.00316016
0.00312916
0.00309764
0.00306562
0.00303308
0.00300004
0.0029665
0.00293247
0.00289794
0.00286293
0.00282744
0.00279147
0.00275503
0.00271813
0.00268077
0.00264295
0.00260467
0.00256595
0.00252677
0.00248712
0.00244702
0.00240643
0.00236534
0.00232371
0.00228151
0.00223867
0.00219511
0.00215074
0.00210545
0.00205919
0.00201194
0.00196372
0.00191468
0.00186502
0.00181493
0.00176447
0.00171359
0.00166198
0.0016094
0.00155529
0.00149871
0.00143867
0.00137374
0.00130175
0.0012202
0.00112622
0.00101618
0.000885418
0.000728232
0.00053925
0.000319688
0.000106782
0.000164731
0.000409711
0.000652989
0.00086548
0.0010493
0.00120979
0.00135221
0.00148096
0.00159931
0.00170952
0.00181311
0.00191101
0.00200383
0.00209185
0.0021754
0.00225481
0.00233043
0.00240257
0.00247153
0.00253755
0.00260086
0.00266167
0.00272013
0.0027764
0.00283062
0.0028829
0.00293335
0.00298206
0.00302912
0.00307461
0.00311859
0.00316113
0.00320228
0.00324211
0.00328065
0.00331795
0.00335406
0.003389
0.00342282
0.00345554
0.00348721
0.00351784
0.00354747
0.00357612
0.00360382
0.00363058
0.00365643
0.0036814
0.0037055
0.00372876
0.00375118
0.0037728
0.00379362
0.00381367
0.00383295
0.00385149
0.0038693
0.00388639
0.00390278
0.00391848
0.00393349
0.00394784
0.00396153
0.00397457
0.00398698
0.00399875
0.00400991
0.00402045
0.00403039
0.00403973
0.00404848
0.00405665
0.00406423
0.00407124
0.00407768
0.00408356
0.00408888
0.00409364
0.00409785
0.00410152
0.00410464
0.00410721
0.00410925
0.00411075
0.00411172
0.00411216
0.00411207
0.00411145
0.00411031
0.00410864
0.00410645
0.00410375
0.00410053
0.00409681
0.00409259
0.00408788
0.00408267
0.00407698
0.00407081
0.00406416
0.00405703
0.00404944
0.00404137
0.00403285
0.00402386
0.00401442
0.00400452
0.00399417
0.00398336
0.0039721
0.00396039
0.00394823
0.00393562
0.00392255
0.00390903
0.00389505
0.00388062
0.00386573
0.00385037
0.00383455
0.00381827
0.00380151
0.00378427
0.00376656
0.00374837
0.00372969
0.00371053
0.00369087
0.00367072
0.00365008
0.00362893
0.00360727
0.00358512
0.00356245
0.00353926
0.00351557
0.00349136
0.00346663
0.00344137
0.0034156
0.00338931
0.00336249
0.00333514
0.00330727
0.00327888
0.00324996
0.00322052
0.00319056
0.00316008
0.00312908
0.00309757
0.00306554
0.00303301
0.00299997
0.00296643
0.00293239
0.00289787
0.00286286
0.00282736
0.0027914
0.00275496
0.00271806
0.00268069
0.00264287
0.0026046
0.00256587
0.00252669
0.00248705
0.00244694
0.00240635
0.00236526
0.00232364
0.00228144
0.0022386
0.00219504
0.00215067
0.00210539
0.00205913
0.00201189
0.00196368
0.00191464
0.00186498
0.00181488
0.0017644
0.00171352
0.001662
0.00160952
0.00155536
0.00149892
0.00143904
0.00137407
0.00130195
0.00122029
0.00112624
0.00101618
0.000885408
0.000728222
0.000539238
0.000319666
0.000106782
0.000187019
0.000444375
0.000703397
0.000937286
0.00114526
0.00132952
0.00149394
0.00164254
0.00177863
0.0019047
0.00202257
0.0021335
0.00223841
0.00233794
0.00243257
0.00252274
0.0026088
0.00269108
0.00276988
0.00284544
0.00291799
0.00298773
0.00305483
0.00311945
0.00318173
0.00324179
0.00329975
0.00335571
0.00340975
0.00346196
0.00351241
0.00356119
0.00360835
0.00365394
0.00369804
0.00374068
0.00378192
0.00382179
0.00386035
0.00389763
0.00393367
0.00396851
0.00400217
0.00403469
0.0040661
0.00409643
0.00412571
0.00415396
0.00418121
0.00420748
0.0042328
0.00425719
0.00428067
0.00430326
0.00432498
0.00434584
0.00436588
0.0043851
0.00440351
0.00442114
0.00443801
0.00445411
0.00446947
0.0044841
0.00449801
0.00451121
0.00452371
0.00453553
0.00454666
0.00455712
0.00456692
0.00457606
0.00458455
0.00459239
0.0045996
0.00460618
0.00461213
0.00461745
0.00462216
0.00462626
0.00462974
0.00463262
0.0046349
0.00463657
0.00463765
0.00463814
0.00463804
0.00463734
0.00463606
0.0046342
0.00463175
0.00462873
0.00462515
0.00462099
0.00461628
0.00461101
0.00460519
0.00459883
0.00459192
0.00458448
0.00457651
0.00456801
0.00455898
0.00454943
0.00453937
0.00452879
0.00451769
0.00450609
0.00449397
0.00448134
0.00446821
0.00445456
0.00444041
0.00442574
0.00441057
0.00439488
0.00437868
0.00436196
0.00434471
0.00432695
0.00430866
0.00428984
0.00427048
0.00425059
0.00423016
0.00420918
0.00418766
0.00416558
0.00414295
0.00411976
0.00409601
0.00407169
0.0040468
0.00402135
0.00399531
0.0039687
0.00394151
0.00391374
0.00388539
0.00385646
0.00382693
0.00379682
0.00376613
0.00373485
0.00370298
0.00367053
0.00363749
0.00360387
0.00356967
0.00353489
0.00349954
0.00346362
0.00342714
0.00339009
0.00335249
0.00331434
0.00327564
0.0032364
0.00319664
0.00315634
0.00311553
0.00307419
0.00303235
0.00299001
0.00294716
0.0029038
0.00285994
0.00281557
0.00277067
0.00272524
0.00267926
0.00263268
0.00258547
0.00253757
0.00248892
0.00243945
0.00238908
0.00233775
0.00228545
0.00223216
0.00217792
0.00212275
0.00206668
0.00200964
0.00195146
0.00189184
0.00183038
0.00176646
0.00169923
0.00162755
0.00154993
0.00146435
0.00136833
0.00125874
0.00113165
0.000982109
0.00080448
0.000594065
0.000354029
0.00012419