/*--------------------------------*- C++ -*----------------------------------*\
  =========                 |
  \\      /  F ield         | OpenFOAM: The Open Source CFD Toolbox
   \\    /   O peration     | Website:  https://openfoam.org
    \\  /    A nd           | Version:  8
     \\/     M anipulation  |
\*---------------------------------------------------------------------------*/
FoamFile
{
    version     2.0;
    format      ascii;
    class       volScalarField;
    location    "400";
    object      k;
}
// * * * * * * * * * * * * * * * * * * * * * * * * * * * * * * * * * * * * * //

dimensions      [0 2 -2 0 0 0 0];

internalField   nonuniform List<scalar> 
48000
(
0.00686811
0.0103975
0.0138007
0.0167807
0.0191078
0.0203697
0.019592
0.0187592
0.019622
0.0184866
0.020398
0.0240521
0.0224799
0.0234263
0.0248342
0.026265
0.0276845
0.0290936
0.0304946
0.0318895
0.0332794
0.0346651
0.036047
0.0374255
0.0388004
0.0401715
0.0415386
0.0429011
0.0442584
0.0456098
0.0469544
0.0482915
0.0496199
0.0509388
0.0522471
0.0535439
0.0548281
0.0560987
0.0573547
0.0585951
0.0598189
0.0610253
0.0622133
0.0633821
0.0645309
0.065659
0.0667656
0.06785
0.0689118
0.0699503
0.0709649
0.0719553
0.072921
0.0738615
0.0747766
0.075666
0.0765292
0.0773662
0.0781767
0.0789605
0.0797174
0.0804474
0.0811503
0.081826
0.0824746
0.0830958
0.0836898
0.0842565
0.0847959
0.085308
0.0857929
0.0862505
0.086681
0.0870844
0.0874607
0.0878101
0.0881325
0.0884281
0.088697
0.0889392
0.0891549
0.0893442
0.0895072
0.089644
0.0897549
0.0898398
0.0898991
0.089933
0.0899419
0.0899288
0.0898911
0.0898284
0.089741
0.0896291
0.0894932
0.0893334
0.0891501
0.0889436
0.0887144
0.0884627
0.0881888
0.0878932
0.0875761
0.087238
0.0868792
0.0865
0.0861008
0.0856819
0.0852436
0.0847864
0.0843104
0.083816
0.0833034
0.082773
0.0822249
0.0816594
0.0810766
0.0804768
0.0798601
0.0792268
0.0785769
0.0779107
0.0772282
0.0765295
0.0758148
0.0750842
0.0743379
0.0735759
0.0727985
0.0720056
0.0711976
0.0703745
0.0695365
0.0686838
0.0678165
0.0669349
0.0660392
0.0651296
0.0642064
0.0632698
0.0623202
0.0613578
0.060383
0.0593961
0.0583975
0.0573876
0.0563667
0.0553354
0.0542941
0.0532433
0.0521834
0.0511151
0.0500388
0.0489551
0.0478646
0.0467679
0.0456658
0.0445587
0.0434475
0.0423327
0.0412152
0.0400955
0.0389745
0.037853
0.0367315
0.035611
0.0344922
0.0333759
0.0322628
0.0311536
0.0300491
0.02895
0.0278568
0.02677
0.0256898
0.0246164
0.0235533
0.0225533
0.0222461
0.0248591
0.0247305
0.0237031
0.0223852
0.0210016
0.0219037
0.0216571
0.0210046
0.0215488
0.0196571
0.0187664
0.0196858
0.0189925
0.017581
0.0158231
0.013885
0.0118399
0.00971618
0.00751392
0.00518697
0.00277504
0.00686862
0.0103981
0.0138014
0.0167818
0.0191097
0.0203728
0.0195884
0.0187528
0.0196229
0.0184916
0.0203943
0.0240518
0.022488
0.0234292
0.0248355
0.0262658
0.0276852
0.0290942
0.0304953
0.0318901
0.03328
0.0346656
0.0360475
0.0374259
0.0388008
0.0401719
0.041539
0.0429015
0.0442588
0.0456101
0.0469547
0.0482917
0.0496201
0.050939
0.0522473
0.0535441
0.0548283
0.0560988
0.0573548
0.0585951
0.0598189
0.0610253
0.0622133
0.063382
0.0645308
0.0656589
0.0667655
0.0678499
0.0689117
0.0699501
0.0709648
0.0719551
0.0729208
0.0738613
0.0747764
0.0756657
0.076529
0.0773659
0.0781764
0.0789602
0.0797171
0.0804471
0.0811499
0.0818257
0.0824742
0.0830954
0.0836894
0.084256
0.0847954
0.0853075
0.0857924
0.0862501
0.0866805
0.0870839
0.0874602
0.0878095
0.0881319
0.0884275
0.0886964
0.0889386
0.0891543
0.0893436
0.0895066
0.0896434
0.0897542
0.0898391
0.0898984
0.0899322
0.0899412
0.089928
0.0898903
0.0898276
0.0897402
0.0896283
0.0894923
0.0893325
0.0891493
0.0889428
0.0887136
0.0884618
0.088188
0.0878923
0.0875752
0.0872371
0.0868783
0.0864991
0.0860999
0.085681
0.0852427
0.0847855
0.0843095
0.0838151
0.0833025
0.0827721
0.082224
0.0816584
0.0810757
0.0804759
0.0798592
0.0792259
0.0785761
0.0779098
0.0772272
0.0765286
0.0758139
0.0750833
0.074337
0.073575
0.0727976
0.0720048
0.0711968
0.0703737
0.0695356
0.0686829
0.0678157
0.0669341
0.0660384
0.0651288
0.0642056
0.063269
0.0623194
0.061357
0.0603822
0.0593954
0.0583968
0.0573869
0.0563661
0.0553348
0.0542935
0.0532427
0.0521828
0.0511145
0.0500382
0.0489545
0.047864
0.0467674
0.0456652
0.0445582
0.0434469
0.0423322
0.0412146
0.040095
0.038974
0.0378524
0.036731
0.0356105
0.0344917
0.0333754
0.0322623
0.0311531
0.0300486
0.0289495
0.0278563
0.0267695
0.0256894
0.0246158
0.0235522
0.0225506
0.0222392
0.0248526
0.0247289
0.0237022
0.0223832
0.0209912
0.0218455
0.0215045
0.0217114
0.0192226
0.0208017
0.0209765
0.0203865
0.0192101
0.0176421
0.0158387
0.0138883
0.0118402
0.00971587
0.00751356
0.00518663
0.00277474
0.00948085
0.0142116
0.0181994
0.0217433
0.0248851
0.0276254
0.0302589
0.0325223
0.035222
0.0384181
0.0416162
0.0443167
0.0478451
0.0509958
0.0540734
0.0571297
0.0601742
0.0632103
0.0662403
0.0692659
0.0722885
0.0753091
0.0783279
0.0813446
0.0843589
0.0873697
0.0903758
0.0933757
0.0963677
0.0993498
0.10232
0.105276
0.108215
0.111136
0.114035
0.116911
0.11976
0.122581
0.125371
0.128128
0.130849
0.133533
0.136177
0.138779
0.141338
0.143852
0.146319
0.148738
0.151107
0.153425
0.15569
0.157902
0.16006
0.162162
0.164208
0.166197
0.168128
0.170001
0.171815
0.173571
0.175266
0.176902
0.178478
0.179993
0.181448
0.182842
0.184176
0.185449
0.186661
0.187812
0.188903
0.189933
0.190903
0.191812
0.192661
0.19345
0.194179
0.194848
0.195458
0.196008
0.1965
0.196932
0.197306
0.197622
0.197881
0.198081
0.198225
0.198312
0.198344
0.19832
0.19824
0.198104
0.197914
0.197669
0.197372
0.197021
0.196618
0.196164
0.195659
0.195105
0.194501
0.193849
0.193149
0.192403
0.191611
0.190774
0.189892
0.188966
0.187998
0.186987
0.185935
0.184842
0.183709
0.182536
0.181324
0.180074
0.178785
0.177459
0.176095
0.174695
0.173258
0.171784
0.170275
0.168731
0.167151
0.165536
0.163886
0.162202
0.160484
0.158732
0.156947
0.155128
0.153277
0.151393
0.149478
0.147531
0.145553
0.143544
0.141506
0.139438
0.137342
0.135218
0.133066
0.130888
0.128685
0.126457
0.124204
0.121929
0.119632
0.117315
0.114977
0.112622
0.110249
0.107859
0.105456
0.103039
0.10061
0.0981707
0.0957226
0.0932673
0.0908062
0.0883411
0.0858735
0.0834052
0.080938
0.0784735
0.0760135
0.0735598
0.0711142
0.0686784
0.0662542
0.0638433
0.0614473
0.0590677
0.0567058
0.054363
0.0520404
0.0497382
0.0474182
0.0448102
0.0427345
0.0406679
0.0386212
0.0367523
0.0355404
0.0338847
0.0321602
0.0304796
0.0289852
0.0273672
0.0259152
0.0243882
0.022593
0.0205925
0.018453
0.0162103
0.0138568
0.0113555
0.00856432
0.00504424
0.00948136
0.0142122
0.0182002
0.0217444
0.0248864
0.027627
0.0302597
0.0325245
0.0352254
0.0384158
0.0416142
0.0443182
0.0478463
0.0509956
0.0540732
0.0571296
0.0601742
0.0632102
0.0662401
0.0692657
0.0722883
0.0753088
0.0783275
0.0813443
0.0843585
0.0873692
0.0903753
0.0933752
0.0963672
0.0993492
0.102319
0.105275
0.108215
0.111135
0.114034
0.11691
0.119759
0.12258
0.12537
0.128127
0.130848
0.133532
0.136176
0.138778
0.141337
0.143851
0.146318
0.148737
0.151106
0.153423
0.155689
0.157901
0.160058
0.16216
0.164206
0.166195
0.168126
0.17
0.171814
0.173569
0.175265
0.176901
0.178476
0.179992
0.181446
0.182841
0.184174
0.185447
0.186659
0.18781
0.188901
0.189931
0.190901
0.19181
0.192659
0.193448
0.194177
0.194846
0.195456
0.196006
0.196498
0.19693
0.197305
0.197621
0.197879
0.198079
0.198223
0.19831
0.198342
0.198318
0.198238
0.198102
0.197912
0.197667
0.19737
0.197019
0.196616
0.196162
0.195657
0.195103
0.194499
0.193847
0.193148
0.192401
0.191609
0.190772
0.18989
0.188964
0.187996
0.186985
0.185933
0.18484
0.183707
0.182534
0.181322
0.180072
0.178783
0.177457
0.176093
0.174693
0.173256
0.171782
0.170273
0.168729
0.167149
0.165534
0.163884
0.1622
0.160482
0.15873
0.156945
0.155126
0.153275
0.151392
0.149476
0.147529
0.145551
0.143543
0.141504
0.139437
0.13734
0.135216
0.133065
0.130887
0.128683
0.126455
0.124203
0.121928
0.119631
0.117313
0.114976
0.11262
0.110247
0.107858
0.105454
0.103037
0.100609
0.0981694
0.0957214
0.0932661
0.090805
0.0883399
0.0858724
0.0834041
0.0809369
0.0784724
0.0760124
0.0735588
0.0711132
0.0686774
0.0662532
0.0638423
0.0614464
0.0590668
0.056705
0.0543622
0.0520399
0.0497386
0.0474195
0.0448119
0.0427368
0.0406697
0.0386225
0.0367546
0.0355265
0.0338178
0.0319571
0.0301149
0.0289569
0.0276183
0.0261575
0.0244947
0.0226297
0.0206031
0.0184554
0.0162104
0.0138565
0.0113552
0.00856409
0.00504411
0.0128298
0.0181727
0.0227143
0.0268748
0.0308348
0.0347055
0.0386204
0.0424409
0.0463327
0.0503351
0.0543003
0.0581317
0.0621168
0.0660517
0.0699637
0.0738674
0.0777661
0.0816603
0.0855511
0.0894393
0.093326
0.0972116
0.101096
0.104979
0.10886
0.112737
0.116608
0.120473
0.124328
0.12817
0.131999
0.135809
0.139599
0.143366
0.147105
0.150815
0.154491
0.158132
0.161733
0.165292
0.168805
0.172271
0.175686
0.179048
0.182354
0.185603
0.188791
0.191918
0.19498
0.197977
0.200907
0.203768
0.206559
0.209278
0.211926
0.214499
0.216999
0.219424
0.221773
0.224045
0.226241
0.228359
0.2304
0.232363
0.234248
0.236055
0.237783
0.239432
0.241004
0.242496
0.243911
0.245247
0.246504
0.247684
0.248786
0.24981
0.250757
0.251626
0.252419
0.253135
0.253774
0.254338
0.254826
0.255239
0.255577
0.255841
0.256031
0.256148
0.256194
0.256166
0.256067
0.255897
0.255656
0.255345
0.254966
0.254518
0.254003
0.253422
0.252775
0.252064
0.251289
0.250452
0.249553
0.248594
0.247576
0.246499
0.245365
0.244174
0.242928
0.241627
0.240273
0.238866
0.237406
0.235896
0.234335
0.232724
0.231063
0.229355
0.227598
0.225793
0.223942
0.222043
0.220099
0.218109
0.216073
0.213992
0.211867
0.209697
0.207484
0.205227
0.202927
0.200584
0.1982
0.195774
0.193306
0.190799
0.188251
0.185664
0.183039
0.180376
0.177677
0.174941
0.17217
0.169366
0.166528
0.163658
0.160758
0.157828
0.15487
0.151886
0.148876
0.145842
0.142786
0.13971
0.136615
0.133502
0.130375
0.127234
0.124082
0.12092
0.117751
0.114578
0.111401
0.108223
0.105047
0.101875
0.0987087
0.0955511
0.0924043
0.0892707
0.0861526
0.0830525
0.0799728
0.0769159
0.0738844
0.0708814
0.0679103
0.0649728
0.0620537
0.0591162
0.0563286
0.0535979
0.0509156
0.0483344
0.045917
0.043464
0.0410303
0.0386297
0.0363881
0.0341197
0.0318534
0.0296343
0.0273662
0.0250219
0.0226021
0.020104
0.0175014
0.0147286
0.0116013
0.00757514
0.0128303
0.0181731
0.0227145
0.0268749
0.0308344
0.0347045
0.0386199
0.0424408
0.0463308
0.0503329
0.0542996
0.0581324
0.0621162
0.0660509
0.0699631
0.0738669
0.0777655
0.0816598
0.0855505
0.0894387
0.0933253
0.0972109
0.101095
0.104978
0.108859
0.112736
0.116607
0.120472
0.124327
0.12817
0.131998
0.135808
0.139598
0.143365
0.147104
0.150814
0.15449
0.15813
0.161732
0.16529
0.168804
0.17227
0.175685
0.179047
0.182353
0.185601
0.18879
0.191916
0.194979
0.197976
0.200905
0.203766
0.206557
0.209277
0.211924
0.214498
0.216997
0.219422
0.221771
0.224043
0.226239
0.228358
0.230398
0.232361
0.234246
0.236053
0.237781
0.23943
0.241002
0.242494
0.243909
0.245245
0.246502
0.247682
0.248784
0.249808
0.250755
0.251624
0.252417
0.253132
0.253772
0.254336
0.254824
0.255237
0.255575
0.255839
0.256029
0.256146
0.256191
0.256164
0.256065
0.255895
0.255654
0.255343
0.254964
0.254516
0.254001
0.253419
0.252773
0.252062
0.251287
0.25045
0.249551
0.248592
0.247574
0.246497
0.245363
0.244172
0.242926
0.241625
0.240271
0.238864
0.237404
0.235894
0.234333
0.232722
0.231061
0.229353
0.227596
0.225791
0.22394
0.222041
0.220097
0.218107
0.216071
0.21399
0.211865
0.209695
0.207482
0.205225
0.202925
0.200583
0.198198
0.195772
0.193305
0.190797
0.188249
0.185663
0.183037
0.180375
0.177675
0.174939
0.172169
0.169364
0.166526
0.163657
0.160756
0.157827
0.154869
0.151884
0.148874
0.145841
0.142785
0.139708
0.136613
0.133501
0.130373
0.127233
0.12408
0.120919
0.11775
0.114576
0.1114
0.108222
0.105046
0.101874
0.0987076
0.09555
0.0924032
0.0892696
0.0861516
0.0830516
0.0799719
0.076915
0.0738835
0.0708806
0.0679098
0.064973
0.062054
0.0591164
0.0563279
0.0535964
0.0509138
0.0483332
0.045914
0.0434443
0.0409551
0.0385422
0.0363264
0.0340938
0.031885
0.02966
0.0273779
0.0250257
0.0226028
0.0201038
0.017501
0.0147284
0.0116011
0.00757501
0.0162718
0.022113
0.027192
0.0319257
0.0365388
0.041124
0.0457293
0.0503253
0.0549272
0.0595401
0.064134
0.0686873
0.0732473
0.0777938
0.0823307
0.0868615
0.0913872
0.095908
0.100425
0.104938
0.109449
0.113957
0.118463
0.122967
0.127467
0.131962
0.13645
0.14093
0.145399
0.149854
0.154293
0.158711
0.163105
0.167473
0.171811
0.176114
0.180379
0.184604
0.188783
0.192914
0.196993
0.201018
0.204984
0.20889
0.212731
0.216506
0.220212
0.223847
0.227407
0.230892
0.2343
0.237628
0.240875
0.24404
0.247121
0.250117
0.253027
0.25585
0.258586
0.261233
0.26379
0.266259
0.268637
0.270924
0.273121
0.275227
0.277242
0.279165
0.280998
0.282739
0.284389
0.285947
0.287415
0.288792
0.290078
0.291274
0.29238
0.293395
0.294322
0.295159
0.295907
0.296567
0.297138
0.297623
0.29802
0.298331
0.298556
0.298696
0.298751
0.298723
0.298611
0.298416
0.298139
0.297781
0.297343
0.296826
0.29623
0.295557
0.294808
0.293984
0.293086
0.292115
0.291073
0.28996
0.288778
0.287528
0.286211
0.284828
0.283381
0.28187
0.280296
0.27866
0.276964
0.275208
0.273393
0.27152
0.26959
0.267602
0.265559
0.263461
0.261307
0.2591
0.256838
0.254523
0.252156
0.249736
0.247264
0.244741
0.242166
0.239542
0.236867
0.234143
0.23137
0.228549
0.22568
0.222764
0.219802
0.216795
0.213743
0.210647
0.207508
0.204328
0.201107
0.197847
0.194548
0.191212
0.187841
0.184436
0.180998
0.177529
0.17403
0.170504
0.166953
0.163377
0.15978
0.156163
0.152528
0.148879
0.145216
0.141542
0.137861
0.134173
0.130483
0.126791
0.123102
0.119418
0.115741
0.112074
0.108421
0.104783
0.101165
0.0975675
0.0939952
0.0904507
0.0869375
0.0834596
0.0800213
0.076627
0.0732757
0.0699642
0.0667161
0.063517
0.0603652
0.0572739
0.054258
0.051291
0.0483752
0.0455095
0.0427255
0.0399801
0.0372654
0.0345923
0.031929
0.0292515
0.0265444
0.0237888
0.0209451
0.01792
0.0144862
0.010049
0.0162722
0.0221133
0.0271921
0.0319256
0.0365385
0.0411235
0.045729
0.0503245
0.0549259
0.0595392
0.0641334
0.0686866
0.0732465
0.0777931
0.0823301
0.0868609
0.0913865
0.0959073
0.100424
0.104937
0.109448
0.113956
0.118462
0.122966
0.127466
0.131961
0.136449
0.140929
0.145398
0.149853
0.154292
0.15871
0.163104
0.167472
0.17181
0.176113
0.180378
0.184602
0.188782
0.192913
0.196992
0.201017
0.204983
0.208888
0.21273
0.216505
0.220211
0.223845
0.227406
0.230891
0.234298
0.237626
0.240874
0.244038
0.247119
0.250115
0.253025
0.255849
0.258584
0.261231
0.263789
0.266257
0.268635
0.270923
0.27312
0.275225
0.27724
0.279164
0.280996
0.282737
0.284387
0.285946
0.287413
0.28879
0.290076
0.291272
0.292378
0.293394
0.29432
0.295157
0.295905
0.296565
0.297137
0.297621
0.298018
0.298329
0.298554
0.298694
0.298749
0.298721
0.298609
0.298414
0.298137
0.297779
0.297341
0.296824
0.296228
0.295555
0.294806
0.293982
0.293084
0.292114
0.291071
0.289959
0.288777
0.287527
0.28621
0.284827
0.283379
0.281868
0.280294
0.278658
0.276962
0.275206
0.273391
0.271518
0.269588
0.267601
0.265557
0.263459
0.261305
0.259098
0.256836
0.254522
0.252154
0.249734
0.247262
0.244739
0.242165
0.23954
0.236866
0.234142
0.231369
0.228547
0.225679
0.222763
0.219801
0.216793
0.213741
0.210646
0.207507
0.204327
0.201106
0.197845
0.194547
0.191211
0.18784
0.184434
0.180996
0.177527
0.174029
0.170503
0.166951
0.163376
0.159779
0.156162
0.152527
0.148878
0.145215
0.141541
0.13786
0.134172
0.130482
0.12679
0.123101
0.119417
0.11574
0.112074
0.10842
0.104783
0.101164
0.0975667
0.0939944
0.09045
0.0869368
0.0834589
0.0800208
0.0766265
0.0732749
0.0699627
0.0667142
0.0635149
0.0603634
0.0572737
0.0542593
0.0512883
0.0483584
0.0454915
0.0427088
0.039965
0.0372659
0.0345963
0.0319313
0.0292522
0.0265443
0.0237884
0.0209448
0.0179198
0.0144861
0.0100489
0.0197176
0.0259942
0.0316143
0.0369079
0.0420972
0.0472557
0.0524213
0.0575921
0.0627631
0.0679284
0.073078
0.0782044
0.0833136
0.0884057
0.0934832
0.0985482
0.103602
0.108646
0.11368
0.118707
0.123727
0.128741
0.133749
0.138752
0.143748
0.148737
0.153717
0.158686
0.163641
0.168581
0.173502
0.178401
0.183273
0.188116
0.192926
0.197698
0.202429
0.207115
0.211752
0.216336
0.220863
0.225331
0.229735
0.234072
0.238339
0.242532
0.24665
0.250689
0.254648
0.258523
0.262312
0.266014
0.269626
0.273147
0.276576
0.279911
0.283151
0.286295
0.289341
0.292289
0.295139
0.297889
0.30054
0.303089
0.305539
0.307887
0.310133
0.312279
0.314323
0.316265
0.318106
0.319846
0.321484
0.323022
0.324458
0.325794
0.327029
0.328164
0.329199
0.330135
0.330972
0.33171
0.332351
0.332894
0.333339
0.333689
0.333943
0.334102
0.334166
0.334137
0.334015
0.333801
0.333495
0.333099
0.332614
0.33204
0.331379
0.330632
0.3298
0.328884
0.327886
0.326807
0.325648
0.32441
0.323095
0.321703
0.320237
0.318697
0.317085
0.315402
0.313649
0.311827
0.309937
0.30798
0.305957
0.30387
0.301718
0.299502
0.297224
0.294885
0.292484
0.290022
0.2875
0.284919
0.282279
0.27958
0.276824
0.27401
0.271139
0.268212
0.26523
0.262192
0.2591
0.255955
0.252756
0.249505
0.246202
0.242849
0.239447
0.235995
0.232496
0.228951
0.225361
0.221726
0.218049
0.214331
0.210573
0.206778
0.202946
0.19908
0.195181
0.191252
0.187294
0.18331
0.179302
0.175272
0.171222
0.167156
0.163075
0.158983
0.154882
0.150775
0.146665
0.142555
0.138447
0.134345
0.130252
0.126171
0.122104
0.118057
0.11403
0.110029
0.106056
0.102114
0.0982081
0.0943414
0.0905179
0.0867415
0.0830135
0.0793343
0.0757067
0.0721284
0.0686001
0.0651261
0.0617114
0.0583552
0.0550575
0.0518167
0.0486379
0.0455126
0.0424354
0.0394033
0.0364022
0.0334164
0.0304281
0.0274113
0.0243162
0.0210328
0.0172893
0.01251
0.0197177
0.025994
0.0316142
0.0369077
0.0420968
0.0472552
0.0524208
0.0575914
0.0627624
0.0679278
0.0730774
0.0782038
0.0833129
0.088405
0.0934826
0.0985476
0.103601
0.108645
0.11368
0.118706
0.123726
0.12874
0.133749
0.138751
0.143747
0.148736
0.153716
0.158685
0.163641
0.16858
0.173501
0.1784
0.183272
0.188115
0.192925
0.197697
0.202428
0.207114
0.211751
0.216335
0.220862
0.22533
0.229734
0.234071
0.238337
0.242531
0.246649
0.250688
0.254646
0.258521
0.262311
0.266012
0.269625
0.273146
0.276575
0.27991
0.28315
0.286293
0.28934
0.292288
0.295138
0.297888
0.300538
0.303088
0.305537
0.307885
0.310132
0.312278
0.314322
0.316264
0.318105
0.319845
0.321483
0.32302
0.324457
0.325792
0.327027
0.328162
0.329198
0.330134
0.330971
0.331709
0.332349
0.332892
0.333338
0.333687
0.333941
0.3341
0.334165
0.334136
0.334013
0.333799
0.333494
0.333097
0.332612
0.332038
0.331377
0.33063
0.329798
0.328883
0.327885
0.326805
0.325646
0.324408
0.323093
0.321702
0.320236
0.318696
0.317084
0.315401
0.313648
0.311826
0.309936
0.307979
0.305956
0.303868
0.301716
0.299501
0.297223
0.294883
0.292482
0.290021
0.287499
0.284918
0.282277
0.279579
0.276822
0.274009
0.271138
0.268211
0.265229
0.262191
0.259099
0.255953
0.252755
0.249504
0.246201
0.242848
0.239445
0.235994
0.232495
0.22895
0.225359
0.221725
0.218048
0.21433
0.210572
0.206777
0.202945
0.199079
0.19518
0.191251
0.187293
0.183309
0.179301
0.175271
0.171221
0.167155
0.163075
0.158983
0.154882
0.150775
0.146665
0.142554
0.138446
0.134344
0.130251
0.12617
0.122104
0.118056
0.11403
0.110028
0.106055
0.102114
0.0982076
0.0943409
0.0905175
0.086741
0.0830129
0.0793334
0.0757056
0.0721273
0.0685991
0.0651258
0.0617118
0.0583548
0.055054
0.051813
0.0486346
0.045509
0.0424345
0.0394034
0.0364024
0.0334162
0.0304278
0.0274111
0.024316
0.0210327
0.0172892
0.01251
0.0230669
0.0297525
0.0359467
0.04184
0.0476067
0.0533238
0.0590286
0.0647302
0.0704266
0.0761118
0.0817788
0.0874221
0.0930401
0.0986324
0.1042
0.109745
0.115269
0.120773
0.12626
0.131731
0.137188
0.142633
0.148066
0.153488
0.158899
0.164298
0.169686
0.175059
0.180416
0.185754
0.191071
0.196362
0.201626
0.206858
0.212053
0.217209
0.222321
0.227384
0.232395
0.23735
0.242245
0.247076
0.251839
0.25653
0.261147
0.265686
0.270143
0.274516
0.278803
0.283
0.287105
0.291116
0.295032
0.298849
0.302567
0.306184
0.309699
0.31311
0.316416
0.319616
0.32271
0.325696
0.328574
0.331344
0.334005
0.336557
0.338999
0.341332
0.343554
0.345666
0.347669
0.349562
0.351344
0.353017
0.354581
0.356035
0.35738
0.358617
0.359745
0.360765
0.361678
0.362484
0.363183
0.363776
0.364263
0.364646
0.364925
0.365101
0.365173
0.365144
0.365014
0.364784
0.364454
0.364026
0.363501
0.36288
0.362164
0.361354
0.360452
0.359459
0.358376
0.357204
0.355946
0.354601
0.353173
0.351661
0.350068
0.348394
0.346642
0.344812
0.342905
0.340924
0.338868
0.336739
0.334538
0.332266
0.329924
0.327513
0.325033
0.322486
0.319872
0.317191
0.314446
0.311635
0.30876
0.305821
0.30282
0.299755
0.296629
0.293442
0.290194
0.286886
0.283519
0.280094
0.27661
0.27307
0.269474
0.265823
0.262118
0.258361
0.254551
0.250691
0.246782
0.242826
0.238823
0.234775
0.230685
0.226554
0.222383
0.218175
0.213932
0.209655
0.205348
0.201013
0.196651
0.192266
0.187861
0.183437
0.178998
0.174547
0.170086
0.16562
0.16115
0.156681
0.152215
0.147755
0.143306
0.13887
0.134451
0.130053
0.125678
0.121331
0.117015
0.112734
0.108491
0.10429
0.100134
0.0960259
0.091968
0.0879611
0.0840057
0.0801021
0.0762513
0.0724553
0.0687163
0.0650357
0.061414
0.0578506
0.0543458
0.0508973
0.0475019
0.0441556
0.0408499
0.0375727
0.0343066
0.0310219
0.027661
0.0241004
0.0200482
0.0149551
0.0230664
0.0297514
0.0359462
0.0418396
0.0476062
0.0533233
0.0590281
0.0647297
0.070426
0.0761112
0.0817783
0.0874216
0.0930395
0.0986318
0.1042
0.109745
0.115268
0.120773
0.126259
0.13173
0.137188
0.142632
0.148065
0.153487
0.158898
0.164298
0.169685
0.175058
0.180415
0.185753
0.19107
0.196362
0.201625
0.206857
0.212052
0.217208
0.22232
0.227383
0.232395
0.23735
0.242244
0.247075
0.251838
0.256529
0.261146
0.265685
0.270142
0.274515
0.278802
0.282999
0.287104
0.291115
0.295031
0.298848
0.302566
0.306183
0.309698
0.313108
0.316414
0.319615
0.322709
0.325695
0.328573
0.331343
0.334004
0.336556
0.338998
0.34133
0.343553
0.345665
0.347668
0.34956
0.351343
0.353016
0.35458
0.356034
0.357379
0.358616
0.359744
0.360764
0.361677
0.362482
0.363181
0.363774
0.364262
0.364645
0.364924
0.365099
0.365172
0.365143
0.365013
0.364783
0.364453
0.364025
0.3635
0.362879
0.362163
0.361353
0.360451
0.359457
0.358374
0.357203
0.355944
0.3546
0.353171
0.35166
0.350067
0.348393
0.346641
0.344811
0.342904
0.340922
0.338867
0.336738
0.334537
0.332265
0.329923
0.327512
0.325032
0.322485
0.319871
0.31719
0.314445
0.311634
0.308759
0.30582
0.302819
0.299754
0.296628
0.293441
0.290193
0.286885
0.283518
0.280093
0.276609
0.273069
0.269473
0.265822
0.262118
0.25836
0.25455
0.25069
0.246782
0.242825
0.238822
0.234775
0.230684
0.226553
0.222382
0.218174
0.213931
0.209655
0.205348
0.201012
0.196651
0.192266
0.18786
0.183436
0.178997
0.174546
0.170086
0.165619
0.16115
0.15668
0.152214
0.147755
0.143305
0.13887
0.134451
0.130053
0.125678
0.121331
0.117015
0.112734
0.108491
0.104289
0.100133
0.0960256
0.0919677
0.0879606
0.0840052
0.0801016
0.0762508
0.0724549
0.0687161
0.0650353
0.061413
0.0578496
0.054345
0.0508964
0.0475015
0.0441554
0.0408497
0.0375726
0.0343065
0.0310218
0.0276609
0.0241004
0.0200482
0.014955
0.0260846
0.0332641
0.0401696
0.0467628
0.0531617
0.0594627
0.0657175
0.0719481
0.0781599
0.0843505
0.0905147
0.0966471
0.102744
0.108804
0.114827
0.120814
0.126766
0.132687
0.138578
0.144443
0.150284
0.156103
0.161903
0.167684
0.173448
0.179195
0.184925
0.190636
0.196328
0.201997
0.207642
0.213259
0.218846
0.224398
0.229912
0.235383
0.240809
0.246183
0.251503
0.256764
0.261962
0.267092
0.272152
0.277137
0.282043
0.286868
0.291607
0.296258
0.300818
0.305283
0.309652
0.313923
0.318092
0.322157
0.326118
0.329972
0.333718
0.337354
0.340879
0.344292
0.347593
0.350779
0.353851
0.356808
0.359649
0.362374
0.364983
0.367474
0.369849
0.372107
0.374248
0.376272
0.378179
0.379968
0.381641
0.383198
0.384638
0.385962
0.387171
0.388264
0.389243
0.390107
0.390857
0.391494
0.392018
0.39243
0.392731
0.392922
0.393003
0.392974
0.392838
0.392594
0.392244
0.391789
0.39123
0.390569
0.389805
0.388942
0.387979
0.386919
0.385763
0.384511
0.383167
0.38173
0.380203
0.378587
0.376884
0.375094
0.373219
0.371261
0.369221
0.3671
0.364899
0.362619
0.360263
0.357829
0.355321
0.352738
0.350081
0.347352
0.344551
0.341678
0.338736
0.335723
0.332641
0.329492
0.326274
0.322989
0.319638
0.316221
0.312739
0.309193
0.305584
0.301911
0.298177
0.294382
0.290528
0.286614
0.282643
0.278615
0.274531
0.270394
0.266205
0.261964
0.257674
0.253337
0.248953
0.244526
0.240057
0.235548
0.231002
0.22642
0.221806
0.217161
0.212489
0.207793
0.203074
0.198337
0.193583
0.188817
0.184042
0.17926
0.174475
0.169692
0.164912
0.16014
0.15538
0.150634
0.145907
0.141202
0.136524
0.131875
0.127259
0.12268
0.118141
0.113646
0.109198
0.104798
0.10045
0.0961531
0.0919095
0.0877194
0.0835837
0.0795035
0.0754797
0.0715134
0.0676047
0.0637535
0.0599591
0.0562202
0.0525347
0.0488989
0.0453062
0.0417462
0.0382012
0.034639
0.0309973
0.0271446
0.0227858
0.0173959
0.0260829
0.0332615
0.0401689
0.0467623
0.0531612
0.0594622
0.065717
0.0719475
0.0781593
0.08435
0.0905142
0.0966466
0.102744
0.108804
0.114826
0.120813
0.126765
0.132686
0.138577
0.144442
0.150283
0.156102
0.161902
0.167683
0.173447
0.179195
0.184924
0.190635
0.196327
0.201996
0.207641
0.213259
0.218845
0.224397
0.229911
0.235383
0.240808
0.246182
0.251502
0.256763
0.261961
0.267091
0.272151
0.277136
0.282042
0.286867
0.291606
0.296257
0.300817
0.305282
0.309651
0.313922
0.318091
0.322156
0.326117
0.329971
0.333717
0.337353
0.340878
0.344291
0.347592
0.350778
0.35385
0.356807
0.359648
0.362373
0.364982
0.367473
0.369848
0.372106
0.374247
0.376271
0.378178
0.379967
0.38164
0.383197
0.384637
0.385961
0.38717
0.388263
0.389242
0.390106
0.390856
0.391493
0.392017
0.392429
0.39273
0.392921
0.393002
0.392973
0.392837
0.392593
0.392243
0.391788
0.391229
0.390568
0.389804
0.388941
0.387978
0.386918
0.385762
0.38451
0.383166
0.381729
0.380202
0.378586
0.376883
0.375093
0.373218
0.37126
0.36922
0.367099
0.364898
0.362619
0.360262
0.357829
0.35532
0.352737
0.35008
0.347351
0.34455
0.341677
0.338735
0.335722
0.332641
0.329491
0.326273
0.322988
0.319637
0.31622
0.312739
0.309192
0.305583
0.301911
0.298177
0.294382
0.290527
0.286613
0.282642
0.278614
0.274531
0.270394
0.266204
0.261963
0.257674
0.253336
0.248953
0.244525
0.240056
0.235547
0.231001
0.22642
0.221805
0.217161
0.212489
0.207792
0.203074
0.198336
0.193583
0.188817
0.184041
0.17926
0.174475
0.169691
0.164912
0.16014
0.155379
0.150634
0.145907
0.141202
0.136523
0.131874
0.127258
0.122679
0.118141
0.113646
0.109197
0.104798
0.100449
0.0961529
0.0919093
0.0877192
0.0835835
0.0795032
0.0754795
0.0715131
0.0676043
0.0637531
0.0599588
0.05622
0.0525346
0.0488988
0.0453062
0.0417462
0.0382012
0.0346391
0.0309973
0.0271446
0.0227856
0.0173957
0.0284356
0.0364102
0.0443137
0.0517468
0.0588457
0.0657634
0.0725864
0.0793547
0.0860833
0.0927747
0.0994254
0.106031
0.112586
0.11909
0.125541
0.13194
0.138288
0.14459
0.150848
0.157065
0.163247
0.169396
0.175514
0.181606
0.187672
0.193714
0.199733
0.205728
0.211698
0.217642
0.223558
0.229444
0.235295
0.24111
0.246885
0.252615
0.258296
0.263925
0.269497
0.275008
0.280454
0.285831
0.291134
0.29636
0.301504
0.306564
0.311536
0.316417
0.321202
0.325891
0.330479
0.334964
0.339345
0.343617
0.347781
0.351833
0.355773
0.359598
0.363308
0.366901
0.370375
0.373731
0.376967
0.380082
0.383076
0.385949
0.388699
0.391327
0.393832
0.396215
0.398474
0.40061
0.402623
0.404514
0.406281
0.407926
0.409448
0.410848
0.412127
0.413283
0.414319
0.415234
0.416029
0.416705
0.417261
0.417699
0.41802
0.418224
0.418312
0.418285
0.418143
0.417889
0.417522
0.417044
0.416456
0.415759
0.414955
0.414045
0.41303
0.411912
0.410692
0.409371
0.407952
0.406435
0.404822
0.403114
0.401314
0.399422
0.39744
0.39537
0.393212
0.390968
0.388639
0.386227
0.383732
0.381157
0.378501
0.375765
0.372952
0.370061
0.367094
0.364051
0.360934
0.357742
0.354476
0.351139
0.347729
0.344248
0.340696
0.337075
0.333385
0.329627
0.325801
0.321909
0.317952
0.31393
0.309844
0.305697
0.301488
0.297219
0.292892
0.288508
0.284068
0.279575
0.275029
0.270433
0.265789
0.261099
0.256364
0.251588
0.246772
0.241919
0.237032
0.232113
0.227165
0.222192
0.217196
0.21218
0.207148
0.202103
0.197048
0.191987
0.186924
0.181863
0.176806
0.171758
0.166723
0.161703
0.156705
0.15173
0.146783
0.141867
0.136986
0.132144
0.127344
0.122588
0.117881
0.113223
0.108616
0.104063
0.0995627
0.0951168
0.0907257
0.0863898
0.0821094
0.0778845
0.073715
0.0696004
0.0655397
0.0615314
0.0575735
0.0536623
0.0497916
0.0459509
0.0421215
0.0382696
0.0343291
0.0301653
0.0254847
0.0198289
0.0284334
0.0364073
0.0443144
0.051747
0.0588454
0.065763
0.0725859
0.0793542
0.0860828
0.0927741
0.0994248
0.10603
0.112586
0.119089
0.12554
0.131939
0.138288
0.144589
0.150847
0.157065
0.163246
0.169395
0.175514
0.181605
0.187672
0.193714
0.199732
0.205727
0.211697
0.217641
0.223557
0.229443
0.235295
0.24111
0.246884
0.252614
0.258295
0.263924
0.269496
0.275007
0.280453
0.28583
0.291133
0.296359
0.301504
0.306564
0.311535
0.316416
0.321202
0.32589
0.330478
0.334963
0.339344
0.343617
0.34778
0.351833
0.355772
0.359598
0.363307
0.3669
0.370374
0.37373
0.376966
0.380081
0.383075
0.385948
0.388698
0.391326
0.393831
0.396214
0.398473
0.400609
0.402623
0.404513
0.40628
0.407925
0.409447
0.410847
0.412126
0.413283
0.414318
0.415233
0.416028
0.416704
0.41726
0.417698
0.418019
0.418223
0.418311
0.418284
0.418142
0.417888
0.417521
0.417043
0.416455
0.415758
0.414954
0.414044
0.413029
0.411911
0.410691
0.40937
0.407951
0.406434
0.404821
0.403114
0.401313
0.399421
0.397439
0.395369
0.393211
0.390967
0.388638
0.386226
0.383732
0.381156
0.3785
0.375765
0.372951
0.370061
0.367093
0.364051
0.360933
0.357741
0.354476
0.351138
0.347728
0.344247
0.340696
0.337075
0.333384
0.329626
0.325801
0.321909
0.317951
0.313929
0.309844
0.305696
0.301487
0.297219
0.292892
0.288507
0.284068
0.279574
0.275029
0.270433
0.265789
0.261098
0.256364
0.251587
0.246771
0.241918
0.237031
0.232112
0.227165
0.222191
0.217195
0.212179
0.207147
0.202102
0.197048
0.191987
0.186924
0.181862
0.176806
0.171758
0.166722
0.161703
0.156704
0.151729
0.146782
0.141867
0.136986
0.132144
0.127343
0.122588
0.11788
0.113223
0.108616
0.104063