/*--------------------------------*- C++ -*----------------------------------*\
  =========                 |
  \\      /  F ield         | OpenFOAM: The Open Source CFD Toolbox
   \\    /   O peration     | Website:  https://openfoam.org
    \\  /    A nd           | Version:  8
     \\/     M anipulation  |
\*---------------------------------------------------------------------------*/
FoamFile
{
    version     2.0;
    format      ascii;
    class       surfaceScalarField;
    location    "400";
    object      phi;
}
// * * * * * * * * * * * * * * * * * * * * * * * * * * * * * * * * * * * * * //

dimensions      [1 0 -1 0 0 0 0];

internalField   nonuniform List<scalar> 
119360
(
-5.69638e-08
4.97105e-13
5.69633e-08
-1.18148e-07
5.51735e-13
6.11858e-08
-1.68634e-07
1.09916e-12
5.04847e-08
-2.02879e-07
1.8183e-12
3.42395e-08
-2.21621e-07
2.03801e-12
1.87319e-08
-2.29175e-07
1.37165e-12
7.5386e-09
-2.24401e-07
1.99721e-12
-4.80292e-09
-2.05669e-07
2.76837e-12
-1.87741e-08
-1.76262e-07
3.42145e-12
-2.94382e-08
-1.40891e-07
3.22301e-12
-3.5417e-08
-9.68249e-08
1.53103e-12
-4.41399e-08
-4.64716e-08
1.53951e-12
-5.04224e-08
9.17755e-09
3.70229e-12
-5.56998e-08
6.89653e-08
3.37434e-12
-5.98779e-08
1.30716e-07
1.59287e-12
-6.18621e-08
1.93068e-07
1.52647e-12
-6.24556e-08
2.55152e-07
1.99576e-12
-6.21828e-08
3.16426e-07
2.3004e-12
-6.13722e-08
3.76544e-07
2.05238e-12
-6.02156e-08
4.35271e-07
1.44364e-12
-5.88249e-08
4.92448e-07
9.03623e-13
-5.7275e-08
5.47972e-07
7.05447e-13
-5.56193e-08
6.01777e-07
8.90019e-13
-5.38983e-08
6.53829e-07
1.28542e-12
-5.21428e-08
7.04119e-07
1.61949e-12
-5.03772e-08
7.52655e-07
1.70803e-12
-4.86206e-08
7.99461e-07
1.54938e-12
-4.68875e-08
8.44571e-07
1.28115e-12
-4.51888e-08
8.88027e-07
1.07337e-12
-4.35325e-08
9.29875e-07
1.02324e-12
-4.19238e-08
9.70167e-07
1.12155e-12
-4.0366e-08
1.00896e-06
1.29696e-12
-3.88612e-08
1.04629e-06
1.47432e-12
-3.74097e-08
1.08223e-06
1.61293e-12
-3.60114e-08
1.11682e-06
1.71685e-12
-3.46653e-08
1.15012e-06
1.81361e-12
-3.33699e-08
1.18217e-06
1.93345e-12
-3.21233e-08
1.21302e-06
2.10154e-12
-3.09233e-08
1.24271e-06
2.31276e-12
-2.97678e-08
1.27129e-06
2.51599e-12
-2.86546e-08
1.2988e-06
2.64977e-12
-2.75814e-08
1.32527e-06
2.69396e-12
-2.65462e-08
1.35074e-06
2.67975e-12
-2.5547e-08
1.37524e-06
2.65671e-12
-2.45817e-08
1.39881e-06
2.66825e-12
-2.36486e-08
1.42148e-06
2.73709e-12
-2.27459e-08
1.44327e-06
2.84811e-12
-2.1872e-08
1.46422e-06
2.95119e-12
-2.10255e-08
1.48434e-06
2.99483e-12
-2.02052e-08
1.50367e-06
2.9648e-12
-1.94099e-08
1.52222e-06
2.88597e-12
-1.86385e-08
1.54003e-06
2.79599e-12
-1.78901e-08
1.55711e-06
2.72715e-12
-1.71635e-08
1.57348e-06
2.69879e-12
-1.64578e-08
1.58916e-06
2.70595e-12
-1.57721e-08
1.60418e-06
2.71261e-12
-1.51056e-08
1.61855e-06
2.67619e-12
-1.44575e-08
1.6323e-06
2.58304e-12
-1.38271e-08
1.64542e-06
2.46242e-12
-1.32137e-08
1.65795e-06
2.36078e-12
-1.26166e-08
1.6699e-06
2.3111e-12
-1.20351e-08
1.68129e-06
2.32292e-12
-1.14685e-08
1.69212e-06
2.38731e-12
-1.09164e-08
1.70241e-06
2.47863e-12
-1.0378e-08
1.71218e-06
2.55235e-12
-9.85308e-09
1.72144e-06
2.5589e-12
-9.3411e-09
1.73019e-06
2.46897e-12
-8.84169e-09
1.73847e-06
2.29289e-12
-8.35445e-09
1.74627e-06
2.07007e-12
-7.87889e-09
1.7536e-06
1.84441e-12
-7.41448e-09
1.76048e-06
1.64657e-12
-6.96063e-09
1.76693e-06
1.49081e-12
-6.51676e-09
1.77293e-06
1.38095e-12
-6.08229e-09
1.77852e-06
1.31184e-12
-5.65665e-09
1.78369e-06
1.26865e-12
-5.23933e-09
1.78845e-06
1.22952e-12
-4.82982e-09
1.79281e-06
1.17278e-12
-4.42764e-09
1.79678e-06
1.08352e-12
-4.0323e-09
1.80036e-06
9.56846e-13
-3.64333e-09
1.80356e-06
7.98084e-13
-3.26024e-09
1.80638e-06
6.21225e-13
-2.88257e-09
1.80884e-06
4.46365e-13
-2.50983e-09
1.81093e-06
2.95763e-13
-2.14158e-09
1.81266e-06
1.86462e-13
-1.77739e-09
1.81403e-06
1.27287e-13
-1.4169e-09
1.81505e-06
1.19849e-13
-1.05978e-09
1.81571e-06
1.5854e-13
-7.05786e-10
1.81603e-06
2.3026e-13
-3.54744e-10
1.816e-06
3.12417e-13
-6.98917e-12
1.81563e-06
3.73979e-13
3.37895e-10
1.81492e-06
3.86746e-13
6.8073e-10
1.81387e-06
3.37896e-13
1.0214e-09
1.81248e-06
2.40696e-13
1.35965e-09
1.81077e-06
1.33393e-13
1.69517e-09
1.80872e-06
6.40044e-14
2.02763e-09
1.80635e-06
6.83342e-14
2.35671e-09
1.80365e-06
1.50324e-13
2.68207e-09
1.80064e-06
2.74947e-13
3.00337e-09
1.79731e-06
3.78253e-13
3.3202e-09
1.79367e-06
3.86968e-13
3.63214e-09
1.78973e-06
2.42528e-13
3.93872e-09
1.78549e-06
-8.01581e-14
4.23951e-09
1.78096e-06
-5.60108e-13
4.5341e-09
1.77614e-06
-1.11977e-12
4.82213e-09
1.77104e-06
-1.62981e-12
5.10338e-09
1.76568e-06
-1.9344e-12
5.37773e-09
1.76005e-06
-1.90409e-12
5.64519e-09
1.75416e-06
-1.49863e-12
5.90591e-09
1.74801e-06
-8.14626e-13
6.16012e-09
1.74162e-06
-8.21565e-14
6.40819e-09
1.735e-06
4.02234e-13
6.65064e-09
1.72813e-06
3.87745e-13
6.88816e-09
1.72104e-06
-2.12552e-13
7.12155e-09
1.71371e-06
-1.25439e-12
7.35168e-09
1.70617e-06
-2.38548e-12
7.57939e-09
1.6984e-06
-3.16502e-12
7.80547e-09
1.6904e-06
-3.23869e-12
8.03067e-09
1.68219e-06
-2.49928e-12
8.25575e-09
1.67375e-06
-1.1563e-12
8.48153e-09
1.66508e-06
3.23464e-13
8.7089e-09
1.65618e-06
1.39028e-12
8.93889e-09
1.64704e-06
1.63419e-12
9.17258e-09
1.63768e-06
9.63452e-13
9.41103e-09
1.62806e-06
-3.40117e-13
9.65503e-09
1.61821e-06
-1.72118e-12
9.90505e-09
1.60809e-06
-2.58038e-12
1.01612e-08
1.59772e-06
-2.54319e-12
1.04236e-08
1.58707e-06
-1.63736e-12
1.06924e-08
1.57615e-06
-2.9482e-13
1.0968e-08
1.56494e-06
8.50597e-13
1.12511e-08
1.55344e-06
1.27343e-12
1.15422e-08
1.54164e-06
8.26172e-13
1.18417e-08
1.52953e-06
-1.7869e-13
1.21493e-08
1.5171e-06
-1.1286e-12
1.24647e-08
1.50435e-06
-1.43247e-12
1.27877e-08
1.49127e-06
-8.34777e-13
1.31182e-08
1.47784e-06
4.51139e-13
1.34565e-08
1.46407e-06
1.86495e-12
1.38026e-08
1.44993e-06
2.8032e-12
1.41565e-08
1.43543e-06
2.9361e-12
1.4518e-08
1.42056e-06
2.36111e-12
1.48864e-08
1.40531e-06
1.52101e-12
1.52615e-08
1.38968e-06
9.39193e-13
1.56431e-08
1.37365e-06
9.25426e-13
1.60312e-08
1.35722e-06
1.40943e-12
1.64263e-08
1.34038e-06
2.01034e-12
1.68285e-08
1.32313e-06
2.29439e-12
1.72381e-08
1.30546e-06
2.05802e-12
1.76553e-08
1.28736e-06
1.45306e-12
1.808e-08
1.26883e-06
8.80129e-13
1.85124e-08
1.24985e-06
7.41907e-13
1.8953e-08
1.23041e-06
1.19799e-12
1.94023e-08
1.21051e-06
2.06107e-12
1.98608e-08
1.19014e-06
2.89302e-12
2.03291e-08
1.16929e-06
3.25356e-12
2.08076e-08
1.14794e-06
2.94142e-12
2.12966e-08
1.1261e-06
2.07745e-12
2.17966e-08
1.10374e-06
1.00731e-12
2.23081e-08
1.08086e-06
1.15574e-13
2.28322e-08
1.05744e-06
-3.71647e-13
2.33699e-08
1.03346e-06
-4.94937e-13
2.39229e-08
1.00892e-06
-4.87943e-13
2.44927e-08
9.83797e-07
-5.90417e-13
2.50808e-08
9.58067e-07
-9.36307e-13
2.56891e-08
9.31713e-07
-1.53871e-12
2.63194e-08
9.04711e-07
-2.26014e-12
2.69738e-08
8.77038e-07
-2.82963e-12
2.76551e-08
8.48663e-07
-3.00371e-12
2.83661e-08
8.19554e-07
-2.71427e-12
2.911e-08
7.89674e-07
-2.06291e-12
2.98899e-08
7.58983e-07
-1.25744e-12
3.07073e-08
7.27443e-07
-5.59441e-13
3.15612e-08
6.95021e-07
-1.83742e-13
3.24452e-08
6.61702e-07
-8.4821e-14
3.33433e-08
6.275e-07
1.80744e-13
3.42267e-08
5.92516e-07
1.1634e-12
3.50089e-08
5.5694e-07
2.92721e-12
3.56016e-08
5.21611e-07
5.04696e-12
3.5357e-08
4.76967e-07
5.86947e-12
4.46772e-08
4.33662e-07
4.11476e-12
4.33178e-08
3.97975e-07
1.32255e-12
3.5687e-08
3.61778e-07
-9.11551e-12
3.62073e-08
3.23491e-07
-2.42216e-11
3.83082e-08
2.83042e-07
-1.38939e-11
4.04548e-08
2.44399e-07
-1.31624e-10
3.87585e-08
2.03955e-07
7.05744e-10
3.97062e-08
1.63486e-07
9.43675e-10
3.95043e-08
1.22954e-07
3.92612e-10
4.01184e-08
8.63738e-08
7.81493e-10
3.57772e-08
4.80321e-08
5.52509e-10
3.77549e-08
1.14529e-08
-3.79677e-10
3.69366e-08
-2.233e-08
-4.4846e-10
3.42185e-08
-5.3204e-08
-2.6116e-10
3.11234e-08
-7.93506e-08
-1.36623e-10
2.62725e-08
-9.83232e-08
-7.2201e-11
1.90372e-08
-1.07116e-07
-4.00986e-11
8.82966e-09
-1.02419e-07
-2.34291e-11
-4.66944e-09
-8.15467e-08
-1.39189e-11
-2.08462e-08
-4.50501e-08
-8.63243e-12
-3.64627e-08
-8.7943e-12
-4.49927e-08
-5.69597e-08
5.69601e-08
-1.18142e-07
6.1184e-08
-1.68628e-07
5.04824e-08
-2.02871e-07
3.42363e-08
-2.21612e-07
1.87279e-08
-2.2916e-07
7.52647e-09
-2.24378e-07
-4.81922e-09
-2.05643e-07
-1.87756e-08
-1.76235e-07
-2.94491e-08
-1.40865e-07
-3.54395e-08
-9.6803e-08
-4.41367e-08
-4.64466e-08
-5.04186e-08
9.19467e-09
-5.57132e-08
6.89777e-08
-5.99014e-08
1.30731e-07
-6.18798e-08
1.93085e-07
-6.24708e-08
2.5517e-07
-6.21967e-08
3.16444e-07
-6.13856e-08
3.76561e-07
-6.02288e-08
4.35286e-07
-5.8838e-08
4.92462e-07
-5.72877e-08
5.47984e-07
-5.56316e-08
6.01789e-07
-5.39099e-08
6.53841e-07
-5.21538e-08
7.04132e-07
-5.03876e-08
7.52669e-07
-4.86305e-08
7.99475e-07
-4.6897e-08
8.44584e-07
-4.51981e-08
8.88039e-07
-4.35416e-08
9.29886e-07
-4.19327e-08
9.70177e-07
-4.03749e-08
1.00896e-06
-3.88699e-08
1.0463e-06
-3.74184e-08
1.08224e-06
-3.602e-08
1.11683e-06
-3.46739e-08
1.15013e-06
-3.33784e-08
1.18218e-06
-3.21318e-08
1.21302e-06
-3.09318e-08
1.24272e-06
-2.97763e-08
1.2713e-06
-2.8663e-08
1.2988e-06
-2.75897e-08
1.32527e-06
-2.65545e-08
1.35074e-06
-2.55553e-08
1.37525e-06
-2.45901e-08
1.39882e-06
-2.3657e-08
1.42148e-06
-2.27543e-08
1.44327e-06
-2.18805e-08
1.46422e-06
-2.1034e-08
1.48434e-06
-2.02138e-08
1.50367e-06
-1.94186e-08
1.52222e-06
-1.86473e-08
1.54003e-06
-1.78989e-08
1.55711e-06
-1.71724e-08
1.57348e-06
-1.64668e-08
1.58917e-06
-1.57812e-08
1.60419e-06
-1.51147e-08
1.61856e-06
-1.44667e-08
1.6323e-06
-1.38363e-08
1.64542e-06
-1.32229e-08
1.65795e-06
-1.26258e-08
1.6699e-06
-1.20443e-08
1.68129e-06
-1.14778e-08
1.69212e-06
-1.09255e-08
1.70241e-06
-1.03871e-08
1.71218e-06
-9.86205e-09
1.72144e-06
-9.34996e-09
1.7302e-06
-8.85045e-09
1.73847e-06
-8.36312e-09
1.74627e-06
-7.88747e-09
1.7536e-06
-7.42296e-09
1.76049e-06
-6.96901e-09
1.76693e-06
-6.52501e-09
1.77294e-06
-6.09038e-09
1.77852e-06
-5.66457e-09
1.78369e-06
-5.24703e-09
1.78845e-06
-4.83727e-09
1.79281e-06
-4.4348e-09
1.79678e-06
-4.03915e-09
1.80036e-06
-3.64985e-09
1.80356e-06
-3.26644e-09
1.80638e-06
-2.88843e-09
1.80884e-06
-2.51537e-09
1.81093e-06
-2.14679e-09
1.81266e-06
-1.78227e-09
1.81403e-06
-1.42143e-09
1.81504e-06
-1.06394e-09
1.81571e-06
-7.09556e-10
1.81602e-06
-3.58114e-10
1.81599e-06
-9.96649e-12
1.81562e-06
3.35285e-10
1.81491e-06
6.78447e-10
1.81387e-06
1.0194e-09
1.81248e-06
1.35789e-09
1.81077e-06
1.69363e-09
1.80872e-06
2.02633e-09
1.80635e-06
2.3557e-09
1.80365e-06
2.68142e-09
1.80064e-06
3.00314e-09
1.79731e-06
3.32046e-09
1.79367e-06
3.63288e-09
1.78973e-06
3.93993e-09
1.78549e-06
4.24112e-09
1.78096e-06
4.536e-09
1.77614e-06
4.82421e-09
1.77104e-06
5.10555e-09
1.76568e-06
5.37994e-09
1.76004e-06
5.64746e-09
1.75415e-06
5.90831e-09
1.74801e-06
6.1628e-09
1.74162e-06
6.41131e-09
1.735e-06
6.65436e-09
1.72813e-06
6.89254e-09
1.72104e-06
7.1265e-09
1.71372e-06
7.35693e-09
1.70617e-06
7.58458e-09
1.69839e-06
7.8103e-09
1.6904e-06
8.03505e-09
1.68218e-06
8.25988e-09
1.67374e-06
8.4858e-09
1.66507e-06
8.71378e-09
1.65618e-06
8.94467e-09
1.64705e-06
9.17927e-09
1.63768e-06
9.41832e-09
1.62807e-06
9.66241e-09
1.61821e-06
9.91201e-09
1.60809e-06
1.01675e-08
1.59771e-06
1.04292e-08
1.58707e-06
1.06977e-08
1.57615e-06
1.09734e-08
1.56494e-06
1.1257e-08
1.55344e-06
1.15486e-08
1.54164e-06
1.1848e-08
1.52953e-06
1.21549e-08
1.5171e-06
1.24693e-08
1.50435e-06
1.27913e-08
1.49127e-06
1.31213e-08
1.47784e-06
1.34597e-08
1.46406e-06
1.38062e-08
1.44993e-06
1.41603e-08
1.43544e-06
1.45215e-08
1.42056e-06
1.48891e-08
1.40531e-06
1.52631e-08
1.38968e-06
1.56437e-08
1.37365e-06
1.60314e-08
1.35722e-06
1.64262e-08
1.34038e-06
1.68282e-08
1.32313e-06
1.72372e-08
1.30546e-06
1.76534e-08
1.28736e-06
1.80769e-08
1.26882e-06
1.85084e-08
1.24984e-06
1.89484e-08
1.23041e-06
1.93975e-08
1.21051e-06
1.9856e-08
1.19014e-06
2.03242e-08
1.16929e-06
2.08025e-08
1.14794e-06
2.12912e-08
1.1261e-06
2.17907e-08
1.10374e-06
2.23019e-08
1.08086e-06
2.28258e-08
1.05743e-06
2.33636e-08
1.03346e-06
2.39169e-08
1.00892e-06
2.44871e-08
9.83791e-07
2.50758e-08
9.58062e-07
2.56847e-08
9.31708e-07
2.63157e-08
9.04708e-07
2.69709e-08
8.77036e-07
2.76531e-08
8.48662e-07
2.83652e-08
8.19554e-07
2.91104e-08
7.89675e-07
2.98915e-08
7.58985e-07
3.071e-08
7.27446e-07
3.15644e-08
6.95024e-07
3.24485e-08
6.61706e-07
3.33463e-08
6.27506e-07
3.42296e-08
5.92526e-07
3.50112e-08
5.56953e-07
3.56009e-08
5.21629e-07
3.53516e-08
4.76992e-07
4.46761e-08
4.33696e-07
4.33245e-08
3.97998e-07
3.57083e-08
3.61732e-07
3.62614e-08
3.23324e-07
3.83853e-08
2.83088e-07
4.02196e-08
2.45786e-07
3.71548e-08
2.03856e-07
4.25929e-08
1.64258e-07
4.0523e-08
1.25912e-07
3.87293e-08
8.90659e-08
3.76169e-08
5.09593e-08
3.86407e-08
1.3889e-08
3.66756e-08
-2.10586e-08
3.44859e-08
-5.25675e-08
3.12361e-08
-7.90187e-08
2.63057e-08
-9.81394e-08
1.90439e-08
-1.07008e-07
8.83024e-09
-1.02354e-07
-4.66778e-09
-8.15047e-08
-2.08407e-08
-4.50231e-08
-3.64508e-08
-4.49699e-08
-6.13191e-08
-3.72463e-13
1.18281e-07
-1.02375e-07
1.07384e-13
1.0224e-07
-1.29013e-07
2.98419e-13
7.71146e-08
-1.43163e-07
4.57945e-13
4.83758e-08
-1.4498e-07
3.93546e-13
2.05284e-08
-1.32553e-07
2.9157e-13
-4.91906e-09
-1.09132e-07
1.10562e-12
-2.82672e-08
-7.85819e-08
1.25458e-12
-4.93655e-08
-4.07611e-08
3.87296e-13
-6.73115e-08
5.67829e-09
1.92842e-13
-8.19409e-08
5.48723e-08
2.95869e-13
-9.34037e-08
1.07151e-07
5.75447e-13
-1.02753e-07
1.62869e-07
-1.81069e-14
-1.11498e-07
2.19643e-07
-7.12332e-13
-1.16752e-07
2.77364e-07
-6.97345e-13
-1.19678e-07
3.35693e-07
-6.47692e-13
-1.20876e-07
3.94141e-07
-5.75973e-13
-1.2072e-07
4.52268e-07
-5.53798e-13
-1.19589e-07
5.09717e-07
-6.27101e-13
-1.17755e-07
5.66215e-07
-7.48616e-13
-1.15412e-07
6.21558e-07
-8.3162e-13
-1.12706e-07
6.75599e-07
-8.22531e-13
-1.09746e-07
7.28234e-07
-7.40001e-13
-1.06616e-07
7.79395e-07
-6.49227e-13
-1.03383e-07
8.2904e-07
-6.00641e-13
-1.00099e-07
8.77148e-07
-6.04556e-13
-9.68037e-08
9.23716e-07
-6.43164e-13
-9.35284e-08
9.68754e-07
-6.86699e-13
-9.02971e-08
1.01228e-06
-7.07016e-13
-8.71275e-08
1.05432e-06
-6.89267e-13
-8.40326e-08
1.09491e-06
-6.38114e-13
-8.10211e-08
1.13408e-06
-5.74762e-13
-7.80986e-08
1.17187e-06
-5.205e-13
-7.52681e-08
1.20832e-06
-4.8253e-13
-7.25306e-08
1.24347e-06
-4.56898e-13
-6.98855e-08
1.27736e-06
-4.35513e-13
-6.73314e-08
1.31004e-06
-4.07424e-13
-6.48656e-08
1.34153e-06
-3.66901e-13
-6.24853e-08
1.37188e-06
-3.24379e-13
-6.01872e-08
1.40112e-06
-3.00288e-13
-5.79677e-08
1.42929e-06
-3.0452e-13
-5.58233e-08
1.45642e-06
-3.30416e-13
-5.37504e-08
1.48255e-06
-3.62252e-13
-5.17456e-08
1.5077e-06
-3.84151e-13
-4.98056e-08
1.53191e-06
-3.83971e-13
-4.79272e-08
1.55519e-06
-3.616e-13
-4.61077e-08
1.57759e-06
-3.32151e-13
-4.43441e-08
1.59912e-06
-3.15387e-13
-4.26341e-08
1.61981e-06
-3.20327e-13
-4.09751e-08
1.63969e-06
-3.42018e-13
-3.9365e-08
1.65878e-06
-3.69302e-13
-3.78016e-08
1.67709e-06
-3.91187e-13
-3.62831e-08
1.69465e-06
-3.98848e-13
-3.48076e-08
1.71149e-06
-3.90285e-13
-3.33733e-08
1.72762e-06
-3.75172e-13
-3.19787e-08
1.74305e-06
-3.69357e-13
-3.06221e-08
1.75782e-06
-3.81986e-13
-2.93021e-08
1.77193e-06
-4.06952e-13
-2.80173e-08
1.7854e-06
-4.29892e-13
-2.67663e-08
1.79825e-06
-4.38774e-13
-2.55479e-08
1.81049e-06
-4.2899e-13
-2.43608e-08
1.82215e-06
-4.01304e-13
-2.3204e-08
1.83323e-06
-3.61197e-13
-2.20763e-08
1.84375e-06
-3.20841e-13
-2.09766e-08
1.85372e-06
-2.96707e-13
-1.99041e-08
1.86316e-06
-3.01426e-13
-1.88576e-08
1.87208e-06
-3.35967e-13
-1.78364e-08
1.88049e-06
-3.89924e-13
-1.68393e-08
1.88841e-06
-4.49169e-13
-1.58653e-08
1.89583e-06
-5.02778e-13
-1.49136e-08
1.90279e-06
-5.44481e-13
-1.3983e-08
1.90927e-06
-5.70974e-13
-1.30726e-08
1.9153e-06
-5.81507e-13
-1.21813e-08
1.92089e-06
-5.78038e-13
-1.1308e-08
1.92604e-06
-5.66186e-13
-1.04519e-08
1.93076e-06
-5.53294e-13
-9.61177e-09
1.93506e-06
-5.46216e-13
-8.78671e-09
1.93894e-06
-5.48644e-13
-7.97566e-09
1.94242e-06
-5.60857e-13
-7.17765e-09
1.9455e-06
-5.7894e-13
-6.39173e-09
1.94819e-06
-5.95579e-13
-5.61698e-09
1.95048e-06
-6.02018e-13
-4.85254e-09
1.95239e-06
-5.90819e-13
-4.09761e-09
1.95392e-06
-5.589e-13
-3.35143e-09
1.95508e-06
-5.07761e-13
-2.61334e-09
1.95587e-06
-4.43243e-13
-1.88274e-09
1.95628e-06
-3.73909e-13
-1.15918e-09
1.95634e-06
-3.10266e-13
-4.42329e-10
1.95603e-06
-2.63525e-13
2.67842e-10
1.95537e-06
-2.42417e-13
9.71772e-10
1.95436e-06
-2.49037e-13
1.67001e-09
1.953e-06
-2.76973e-13
2.36249e-09
1.95129e-06
-3.11237e-13
3.04897e-09
1.94924e-06
-3.32331e-13
3.72902e-09
1.94685e-06
-3.23325e-13
4.40213e-09
1.94413e-06
-2.77472e-13
5.06772e-09
1.94107e-06
-2.02324e-13
5.72519e-09
1.9377e-06
-1.18738e-13
6.37387e-09
1.934e-06
-5.52891e-14
7.01307e-09
1.92999e-06
-4.06758e-14
7.64208e-09
1.92567e-06
-9.6409e-14
8.26021e-09
1.92104e-06
-2.30246e-13
8.86677e-09
1.91612e-06
-4.29101e-13
9.46112e-09
1.91091e-06
-6.53547e-13
1.00427e-08
1.90541e-06
-8.3776e-13
1.06111e-08
1.89964e-06
-9.01695e-13
1.11661e-08
1.89359e-06
-7.79501e-13
1.17077e-08
1.88728e-06
-4.57578e-13
1.22363e-08
1.88071e-06
-4.78783e-15
1.27525e-08
1.87388e-06
4.27366e-13
1.32571e-08
1.8668e-06
6.50854e-13
1.37511e-08
1.85948e-06
5.25691e-13
1.42356e-08
1.85192e-06
4.77535e-14
1.47117e-08
1.84412e-06
-6.12621e-13
1.51808e-08
1.83609e-06
-1.1597e-12
1.56445e-08
1.82783e-06
-1.30403e-12
1.61046e-08
1.81933e-06
-9.16434e-13
1.65631e-08
1.8106e-06
-1.17253e-13
1.70218e-08
1.80164e-06
7.60725e-13
1.74826e-08
1.79244e-06
1.32808e-12
1.7947e-08
1.783e-06
1.33275e-12
1.84164e-08
1.77332e-06
7.8669e-13
1.88925e-08
1.7634e-06
-4.41591e-14
1.93769e-08
1.75323e-06
-7.77337e-13
1.98712e-08
1.7428e-06
-1.10002e-12
2.0377e-08
1.73211e-06
-9.0887e-13
2.08952e-08
1.72115e-06
-3.39451e-13
2.14263e-08
1.70991e-06
3.15956e-13
2.19706e-08
1.69839e-06
7.53869e-13
2.25287e-08
1.68658e-06
7.98667e-13
2.31008e-08
1.67448e-06
4.75203e-13
2.36877e-08
1.66207e-06
-1.41692e-14
2.42898e-08
1.64934e-06
-3.95614e-13
2.49072e-08
1.6363e-06
-4.63282e-13
2.55398e-08
1.62293e-06
-1.83561e-13
2.61875e-08
1.60923e-06
2.92211e-13
2.68499e-08
1.59518e-06
7.16066e-13
2.7527e-08
1.58079e-06
8.82044e-13
2.82186e-08
1.56604e-06
7.36161e-13
2.89247e-08
1.55092e-06
3.92242e-13
2.96452e-08
1.53544e-06
5.18058e-14
3.03801e-08
1.51958e-06
-1.17351e-13
3.11294e-08
1.50333e-06
-7.04991e-14
3.18928e-08
1.48669e-06
1.04194e-13
3.26705e-08
1.46965e-06
2.54269e-13
3.34622e-08
1.4522e-06
2.64525e-13
3.42683e-08
1.43433e-06
1.26427e-13
3.5089e-08
1.41604e-06
-6.70713e-14
3.59249e-08
1.39732e-06
-1.89751e-13
3.67764e-08
1.37816e-06
-1.60219e-13
3.7644e-08
1.35855e-06
1.66256e-14
3.85281e-08
1.33849e-06
2.55199e-13
3.94294e-08
1.31796e-06
4.34874e-13
4.03485e-08
1.29696e-06
4.64184e-13
4.12866e-08
1.27548e-06
3.25587e-13
4.22447e-08
1.25351e-06
7.43433e-14
4.32242e-08
1.23103e-06
-1.96051e-13
4.42266e-08
1.20804e-06
-3.92256e-13
4.52533e-08
1.18452e-06
-4.59813e-13
4.63061e-08
1.16046e-06
-4.17319e-13
4.7387e-08
1.13584e-06
-3.45945e-13
4.84982e-08
1.11065e-06
-3.25323e-13
4.96421e-08
1.08487e-06
-3.78669e-13
5.08216e-08
1.05849e-06
-4.7394e-13
5.20396e-08
1.03148e-06
-5.58206e-13
5.32992e-08
1.00384e-06
-5.92498e-13
5.46039e-08
9.7553e-07
-5.55903e-13
5.59576e-08
9.46533e-07
-4.30322e-13
5.73646e-08
9.16824e-07
-2.33577e-13
5.88294e-08
8.86373e-07
-5.1098e-14
6.03568e-08
8.55148e-07
4.57134e-14
6.19512e-08
8.23115e-07
6.79595e-14
6.3616e-08
7.90231e-07
3.87052e-14
6.53525e-08
7.56439e-07
-1.27676e-14
6.71579e-08
7.21654e-07
5.94802e-14
6.90353e-08
6.85697e-07
3.8497e-13
7.09848e-08
6.48221e-07
8.09325e-13
7.30849e-08
6.08106e-07
1.26682e-12
7.54623e-08
5.73791e-07
2.34421e-12
7.89778e-08
5.38047e-07
3.28843e-12
7.90577e-08
4.9618e-07
4.49729e-12
7.75496e-08
4.5386e-07
5.37287e-12
7.85216e-08
4.11957e-07
4.22551e-12
8.02108e-08
3.70908e-07
-2.58352e-12
8.15102e-08
3.27527e-07
-4.68943e-11
8.21922e-08
2.85227e-07
-3.79701e-10
8.23751e-08
2.42479e-07
-2.35934e-10
8.24743e-08
2.01235e-07
-9.55532e-11
8.14447e-08
1.57821e-07
-2.51381e-10
7.94287e-08
1.17877e-07
-1.30954e-10
7.78081e-08
8.09323e-08
-4.89172e-11
7.3914e-08
4.64443e-08
-1.18466e-10
6.88118e-08
1.53364e-08
-8.70929e-11
6.23085e-08
-1.15295e-08
-4.97342e-11
5.31822e-08
-3.29724e-08
-2.71907e-11
4.05066e-08
-4.77006e-08
-1.53554e-11
2.35795e-08
-5.43626e-08
-9.12648e-12
2.01704e-09
-5.14069e-08
-5.5862e-12
-2.37691e-08
-3.56342e-08
-3.68527e-12
-5.21839e-08
-4.07829e-12
-8.05758e-08
-6.13183e-08
1.18277e-07
-1.02373e-07
1.02236e-07
-1.29009e-07
7.71112e-08
-1.43158e-07
4.83721e-08
-1.44975e-07
2.05243e-08
-1.32552e-07
-4.9256e-09
-1.09134e-07
-2.82746e-08
-7.85772e-08
-4.93679e-08
-4.07585e-08
-6.73158e-08
5.67418e-09
-8.1947e-08
5.48813e-08
-9.34043e-08
1.07169e-07
-1.02753e-07
1.62885e-07
-1.115e-07
2.19654e-07
-1.16757e-07
2.77375e-07
-1.19682e-07
3.35703e-07
-1.20879e-07
3.9415e-07
-1.20723e-07
4.52277e-07
-1.19591e-07
5.09725e-07
-1.17757e-07
5.66223e-07
-1.15414e-07
6.21565e-07
-1.12707e-07
6.75606e-07
-1.09747e-07
7.28241e-07
-1.06617e-07
7.79401e-07
-1.03384e-07
8.29046e-07
-1.001e-07
8.77155e-07
-9.68043e-08
9.23723e-07
-9.35289e-08
9.6876e-07
-9.02975e-08
1.01228e-06
-8.71279e-08
1.05432e-06
-8.4033e-08
1.09491e-06
-8.10215e-08
1.13408e-06
-7.8099e-08
1.17187e-06
-7.52684e-08
1.20832e-06
-7.25309e-08
1.24347e-06
-6.98857e-08
1.27736e-06
-6.73315e-08
1.31004e-06
-6.48656e-08
1.34153e-06
-6.24853e-08
1.37188e-06
-6.01871e-08
1.40112e-06
-5.79676e-08
1.42929e-06
-5.58231e-08
1.45643e-06
-5.375e-08
1.48255e-06
-5.17451e-08
1.5077e-06
-4.9805e-08
1.53191e-06
-4.79267e-08
1.55519e-06
-4.61071e-08
1.57759e-06
-4.43436e-08
1.59912e-06
-4.26335e-08
1.61982e-06
-4.09745e-08
1.63969e-06
-3.93643e-08
1.65878e-06
-3.7801e-08
1.67709e-06
-3.62824e-08
1.69465e-06
-3.4807e-08
1.71149e-06
-3.33727e-08
1.72762e-06
-3.19781e-08
1.74305e-06
-3.06216e-08
1.75782e-06
-2.93016e-08
1.77193e-06
-2.80167e-08
1.7854e-06
-2.67658e-08
1.79825e-06
-2.55474e-08
1.81049e-06
-2.43604e-08
1.82215e-06
-2.32036e-08
1.83323e-06
-2.20759e-08
1.84375e-06
-2.09763e-08
1.85372e-06
-1.99037e-08
1.86316e-06
-1.88573e-08
1.87208e-06
-1.7836e-08
1.88049e-06
-1.6839e-08
1.88841e-06
-1.58651e-08
1.89583e-06
-1.49134e-08
1.90279e-06
-1.39829e-08
1.90927e-06
-1.30726e-08
1.9153e-06
-1.21813e-08
1.92089e-06
-1.13082e-08
1.92604e-06
-1.04521e-08
1.93076e-06
-9.61201e-09
1.93506e-06
-8.78693e-09
1.93894e-06
-7.97584e-09
1.94242e-06
-7.17776e-09
1.9455e-06
-6.39176e-09
1.94819e-06
-5.61693e-09
1.95048e-06
-4.85241e-09
1.95239e-06
-4.09739e-09
1.95392e-06
-3.35113e-09
1.95508e-06
-2.61294e-09
1.95586e-06
-1.88224e-09
1.95628e-06
-1.15858e-09
1.95634e-06
-4.41661e-10
1.95603e-06
2.68542e-10
1.95537e-06
9.72454e-10
1.95436e-06
1.67062e-09
1.953e-06
2.363e-09
1.95129e-06
3.04934e-09
1.94924e-06
3.72926e-09
1.94685e-06
4.4023e-09
1.94413e-06
5.0679e-09
1.94107e-06
5.72547e-09
1.9377e-06
6.37434e-09
1.934e-06
7.01379e-09
1.92999e-06
7.64306e-09
1.92567e-06
8.26138e-09
1.92104e-06
8.86801e-09
1.91612e-06
9.46227e-09
1.91091e-06
1.00436e-08
1.90541e-06
1.06116e-08
1.89964e-06
1.11662e-08
1.89359e-06
1.17076e-08
1.88728e-06
1.22362e-08
1.8807e-06
1.27526e-08
1.87388e-06
1.32576e-08
1.8668e-06
1.3752e-08
1.85948e-06
1.42368e-08
1.85192e-06
1.47131e-08
1.84412e-06
1.51821e-08
1.83609e-06
1.56454e-08
1.82782e-06
1.6105e-08
1.81932e-06
1.65629e-08
1.8106e-06
1.70214e-08
1.80163e-06
1.74822e-08
1.79244e-06
1.7947e-08
1.783e-06
1.84171e-08
1.77332e-06
1.88938e-08
1.7634e-06
1.93786e-08
1.75323e-06
1.98729e-08
1.7428e-06
2.03783e-08
1.73211e-06
2.08959e-08
1.72115e-06
2.14264e-08
1.70991e-06
2.19706e-08
1.69839e-06
2.25288e-08
1.68658e-06
2.31016e-08
1.67448e-06
2.3689e-08
1.66207e-06
2.42912e-08
1.64934e-06
2.49081e-08
1.6363e-06
2.55401e-08
1.62293e-06
2.61872e-08
1.60923e-06
2.68496e-08
1.59518e-06
2.75271e-08
1.58079e-06
2.82193e-08
1.56604e-06
2.89259e-08
1.55092e-06
2.96464e-08
1.53544e-06
3.03809e-08
1.51958e-06
3.11297e-08
1.50333e-06
3.18929e-08
1.48669e-06
3.26706e-08
1.46965e-06
3.34626e-08
1.45219e-06
3.42689e-08
1.43433e-06
3.50895e-08
1.41604e-06
3.59249e-08
1.39732e-06
3.67759e-08
1.37816e-06
3.76432e-08
1.35855e-06
3.85274e-08
1.33849e-06
3.94288e-08
1.31796e-06
4.03483e-08
1.29696e-06
4.12865e-08
1.27548e-06
4.22447e-08
1.25351e-06
4.3224e-08
1.23103e-06
4.42262e-08
1.20804e-06
4.52527e-08
1.18452e-06
4.63054e-08
1.16045e-06
4.73864e-08
1.13583e-06
4.84976e-08
1.11064e-06
4.96417e-08
1.08487e-06
5.08212e-08
1.05849e-06
5.20391e-08
1.03148e-06
5.32986e-08
1.00384e-06
5.46033e-08
9.75529e-07
5.5957e-08
9.46533e-07
5.7364e-08
9.16824e-07
5.88289e-08
8.86373e-07
6.03565e-08
8.55149e-07
6.19512e-08
8.23117e-07
6.36162e-08
7.90232e-07
6.53526e-08
7.56441e-07
6.71579e-08
7.21655e-07
6.90353e-08
6.857e-07
7.09846e-08
6.48226e-07
7.30838e-08
6.08113e-07
7.54602e-08
5.73802e-07
7.89776e-08
5.38064e-07
7.90612e-08
4.96217e-07
7.7555e-08
4.53959e-07
7.85231e-08
4.12151e-07
8.01966e-08
3.70948e-07
8.14157e-08
3.26067e-07
8.19933e-08
2.85001e-07
8.32652e-08
2.42729e-07
8.25461e-08
2.00282e-07
8.10672e-08
1.57866e-07
7.97711e-08
1.18672e-07
7.76921e-08
8.14716e-08
7.3815e-08
4.68464e-08
6.89823e-08
1.55628e-08
6.24246e-08
-1.1413e-08
5.32272e-08
-3.29136e-08
4.05177e-08
-4.76717e-08
2.35801e-08
-5.43495e-08
2.01675e-09
-5.1401e-08
-2.37675e-08
-3.56265e-08
-5.21805e-08
-8.05745e-08
-4.47341e-08
6.33447e-14
1.63015e-07
-6.89323e-08
4.52836e-13
1.2644e-07
-7.81005e-08
4.478e-13
8.628e-08
-7.58235e-08
3.18944e-13
4.60938e-08
-6.3353e-08
1.27978e-13
8.04967e-09
-4.14106e-08
4.62748e-13
-2.68734e-08
-1.14072e-08
9.42335e-13
-5.82838e-08
2.48298e-08
1.55282e-13
-8.56154e-08
6.61906e-08
-2.88517e-13
-1.08688e-07
1.11829e-07
3.75478e-13
-1.27599e-07
1.61014e-07
4.28518e-13
-1.42606e-07
2.12576e-07
-4.2444e-13
-1.54332e-07
2.64782e-07
-7.54428e-13
-1.63722e-07
3.181e-07
-3.52987e-13
-1.70087e-07
3.72322e-07
-1.96183e-13
-1.73917e-07
4.27112e-07
-1.86094e-13
-1.75683e-07
4.82138e-07
-2.01083e-13
-1.75764e-07
5.37056e-07
-2.26557e-13
-1.74525e-07
5.91554e-07
-2.66685e-13
-1.72271e-07
6.45374e-07
-3.05578e-13
-1.6925e-07
6.98307e-07
-3.13656e-13
-1.65658e-07
7.50195e-07
-2.80454e-13
-1.61652e-07
8.00917e-07
-2.29779e-13
-1.57355e-07
8.50385e-07
-1.97861e-13
-1.52869e-07
8.98539e-07
-2.0319e-13
-1.4827e-07
9.4534e-07
-2.36456e-13
-1.43621e-07
9.90768e-07
-2.74745e-13
-1.38972e-07
1.03481e-06
-3.00537e-13
-1.34359e-07
1.07748e-06
-3.06865e-13
-1.29811e-07
1.11878e-06
-2.94708e-13
-1.2535e-07
1.15874e-06
-2.72442e-13
-1.2099e-07
1.19737e-06
-2.50522e-13
-1.16743e-07
1.2347e-06
-2.34986e-13
-1.12615e-07
1.27076e-06
-2.26846e-13
-1.08609e-07
1.30559e-06
-2.24321e-13
-1.04727e-07
1.33921e-06
-2.2185e-13
-1.00966e-07
1.37165e-06
-2.1317e-13
-9.73267e-08
1.40296e-06
-1.98695e-13
-9.38045e-08
1.43315e-06
-1.87732e-13
-9.03962e-08
1.46226e-06
-1.9057e-13
-8.70977e-08
1.49033e-06
-2.09721e-13
-8.39048e-08
1.51737e-06
-2.38878e-13
-8.0813e-08
1.54343e-06
-2.66967e-13
-7.78181e-08
1.56852e-06
-2.8267e-13
-7.4916e-08
1.59268e-06
-2.80373e-13
-7.21026e-08
1.61593e-06
-2.64636e-13
-6.93741e-08
1.63829e-06
-2.47656e-13
-6.67269e-08
1.6598e-06
-2.40474e-13
-6.41574e-08
1.68047e-06
-2.46338e-13
-6.16625e-08
1.70032e-06
-2.61229e-13
-5.92392e-08
1.71939e-06
-2.77854e-13
-5.68844e-08
1.73768e-06
-2.88464e-13
-5.45956e-08
1.75522e-06
-2.87971e-13
-5.23701e-08
1.77204e-06
-2.77819e-13
-5.02056e-08
1.78814e-06
-2.66655e-13
-4.80997e-08
1.80355e-06
-2.63831e-13
-4.60502e-08
1.81828e-06
-2.71588e-13
-4.4055e-08
1.83235e-06
-2.8387e-13
-4.21122e-08
1.84579e-06
-2.91697e-13
-4.02198e-08
1.8586e-06
-2.88949e-13
-3.8376e-08
1.8708e-06
-2.7351e-13
-3.65792e-08
1.8824e-06
-2.4674e-13
-3.48276e-08
1.89342e-06
-2.14245e-13
-3.31196e-08
1.90388e-06
-1.85706e-13
-3.14538e-08
1.91379e-06
-1.71321e-13
-2.98286e-08
1.92315e-06
-1.76387e-13
-2.82425e-08
1.93199e-06
-1.98376e-13
-2.66942e-08
1.94031e-06
-2.2899e-13
-2.51821e-08
1.94814e-06
-2.59195e-13
-2.37048e-08
1.95546e-06
-2.82059e-13
-2.22609e-08
1.96231e-06
-2.93307e-13
-2.08488e-08
1.96869e-06
-2.90781e-13
-1.9467e-08
1.97461e-06
-2.74794e-13
-1.81142e-08
1.98007e-06
-2.48829e-13
-1.67887e-08
1.98509e-06
-2.19366e-13
-1.54892e-08
1.98968e-06
-1.94025e-13
-1.4214e-08
1.99384e-06
-1.78878e-13
-1.29618e-08
1.99758e-06
-1.76387e-13
-1.1731e-08
2.00091e-06
-1.84956e-13
-1.05203e-08
2.00383e-06
-1.9925e-13
-9.32807e-09
2.00635e-06
-2.12178e-13
-8.15318e-09
2.00848e-06
-2.17382e-13
-6.99431e-09
2.01022e-06
-2.1215e-13
-5.85033e-09
2.01158e-06
-1.98903e-13
-4.72014e-09
2.01256e-06
-1.83971e-13
-3.60279e-09
2.01317e-06
-1.75006e-13
-2.49744e-09
2.0134e-06
-1.77997e-13
-1.40339e-09
2.01327e-06
-1.95413e-13
-3.2015e-10
2.01278e-06
-2.25313e-13
7.5267e-10
2.01193e-06
-2.60625e-13
1.81549e-09
2.01072e-06
-2.89144e-13
2.86859e-09
2.00917e-06
-2.96298e-13
3.91194e-09
2.00727e-06
-2.69305e-13
4.94526e-09
2.00502e-06
-2.02664e-13
5.96805e-09
2.00244e-06
-1.01946e-13
6.97967e-09
1.99953e-06
1.49186e-14
7.97934e-09
1.99628e-06
1.20133e-13
8.96621e-09
1.99271e-06
1.82014e-13
9.93934e-09
1.98883e-06
1.73271e-13
1.08978e-08
1.98463e-06
7.9714e-14
1.18405e-08
1.98012e-06
-9.34669e-14
1.27667e-08
1.97531e-06
-3.19141e-13
1.36753e-08
1.97021e-06
-5.4929e-13
1.45657e-08
1.96482e-06
-7.20909e-13
1.54372e-08
1.95914e-06
-7.68358e-13
1.62894e-08
1.95319e-06
-6.44956e-13
1.71222e-08
1.94697e-06
-3.50164e-13
1.79358e-08
1.94048e-06
4.86972e-14
1.87306e-08
1.93373e-06
4.18686e-13
1.95073e-08
1.92672e-06
5.99618e-13
2.0267e-08
1.91947e-06
4.74405e-13
2.10112e-08
1.91197e-06
4.25701e-14
2.17414e-08
1.90423e-06
-5.46396e-13
2.24598e-08
1.89625e-06
-1.03354e-12
2.31684e-08
1.88803e-06
-1.16266e-12
2.38697e-08
1.87958e-06
-8.17256e-13
2.45661e-08
1.87089e-06
-1.05728e-13
2.52602e-08
1.86196e-06
6.65648e-13
2.59546e-08
1.8528e-06
1.13442e-12
2.66517e-08
1.84341e-06
1.07046e-12
2.73542e-08
1.83377e-06
5.05207e-13
2.80645e-08
1.82388e-06
-2.78041e-13
2.8785e-08
1.81375e-06
-8.93764e-13
2.95181e-08
1.80337e-06
-1.05984e-12
3.02659e-08
1.79273e-06
-7.40713e-13
3.10299e-08
1.78183e-06
-1.4877e-13
3.18115e-08
1.77065e-06
3.88536e-13
3.26115e-08
1.7592e-06
6.10935e-13
3.34307e-08
1.74747e-06
4.52811e-13
3.42702e-08
1.73545e-06
5.3374e-14
3.51308e-08
1.72313e-06
-3.39916e-13
3.60134e-08
1.71051e-06
-5.11348e-13
3.69182e-08
1.69759e-06
-3.84075e-13
3.78452e-08