/*--------------------------------*- C++ -*----------------------------------*\
  =========                 |
  \\      /  F ield         | OpenFOAM: The Open Source CFD Toolbox
   \\    /   O peration     | Website:  https://openfoam.org
    \\  /    A nd           | Version:  8
     \\/     M anipulation  |
\*---------------------------------------------------------------------------*/
FoamFile
{
    version     2.0;
    format      ascii;
    class       volScalarField;
    location    "700";
    object      alphat;
}
// * * * * * * * * * * * * * * * * * * * * * * * * * * * * * * * * * * * * * //

dimensions      [1 -1 -1 0 0 0 0];

internalField   nonuniform List<scalar> 
48000
(
0.000109305
0.000152917
3.29579e-05
3.83912e-05
0.000279814
4.89833e-05
5.11229e-05
5.39505e-05
5.65741e-05
5.90016e-05
6.12954e-05
6.34994e-05
6.56048e-05
6.76273e-05
6.95759e-05
7.14586e-05
7.3282e-05
7.50517e-05
7.67719e-05
7.84463e-05
8.00779e-05
8.16692e-05
8.32223e-05
8.47391e-05
8.62212e-05
8.76699e-05
8.90864e-05
9.04718e-05
9.18268e-05
9.31523e-05
9.4449e-05
9.57172e-05
9.69577e-05
9.81707e-05
9.93566e-05
0.000100516
0.000101648
0.000102755
0.000103835
0.000104889
0.000105918
0.000106921
0.000107898
0.000108851
0.000109778
0.00011068
0.000111557
0.00011241
0.000113238
0.000114041
0.00011482
0.000115575
0.000116306
0.000117013
0.000117696
0.000118356
0.000118992
0.000119606
0.000120196
0.000120764
0.000121309
0.000121832
0.000122333
0.000122811
0.000123268
0.000123704
0.000124118
0.000124512
0.000124884
0.000125236
0.000125568
0.000125879
0.00012617
0.000126442
0.000126694
0.000126927
0.000127141
0.000127336
0.000127512
0.000127669
0.000127808
0.000127931
0.000128036
0.000128123
0.000128193
0.000128245
0.000128281
0.000128299
0.000128301
0.000128286
0.000128255
0.000128207
0.000128143
0.000128063
0.000127968
0.000127856
0.000127729
0.000127587
0.000127429
0.000127257
0.000127069
0.000126866
0.000126649
0.000126417
0.000126171
0.00012591
0.000125635
0.000125346
0.000125043
0.000124726
0.000124394
0.000124049
0.00012369
0.000123317
0.000122931
0.00012253
0.000122116
0.000121688
0.000121247
0.000120791
0.000120322
0.00011984
0.000119343
0.000118832
0.000118308
0.000117769
0.000117217
0.00011665
0.00011607
0.000115475
0.000114865
0.000114242
0.000113604
0.000112951
0.000112284
0.000111602
0.000110905
0.000110193
0.000109467
0.000108725
0.000107969
0.000107197
0.00010641
0.000105607
0.00010479
0.000103956
0.000103108
0.000102244
0.000101364
0.000100468
9.95569e-05
9.86299e-05
9.76871e-05
9.67283e-05
9.57537e-05
9.4763e-05
9.37563e-05
9.27335e-05
9.16945e-05
9.06393e-05
8.95677e-05
8.84798e-05
8.73754e-05
8.62545e-05
8.51169e-05
8.39625e-05
8.27913e-05
8.1603e-05
8.03975e-05
7.91745e-05
7.7934e-05
7.66755e-05
7.53989e-05
7.41038e-05
7.27899e-05
7.14567e-05
7.01038e-05
6.87306e-05
6.73364e-05
6.59206e-05
6.4482e-05
6.30194e-05
6.15315e-05
6.00165e-05
5.84723e-05
5.68965e-05
5.52873e-05
5.36396e-05
5.19725e-05
5.03654e-05
5.04421e-05
0.00031801
4.46842e-05
4.28896e-05
4.02577e-05
3.68749e-05
0.000187594
0.00016952
0.000137357
8.7668e-05
0.000109292
0.000152825
3.29423e-05
3.84272e-05
0.000280024
4.89913e-05
5.11246e-05
5.39508e-05
5.65748e-05
5.90024e-05
6.12961e-05
6.35e-05
6.56054e-05
6.76279e-05
6.95764e-05
7.14591e-05
7.32826e-05
7.50523e-05
7.67725e-05
7.84469e-05
8.00784e-05
8.16696e-05
8.32227e-05
8.47395e-05
8.62215e-05
8.76702e-05
8.90867e-05
9.0472e-05
9.1827e-05
9.31525e-05
9.44491e-05
9.57174e-05
9.69578e-05
9.81708e-05
9.93567e-05
0.000100516
0.000101648
0.000102755
0.000103835
0.000104889
0.000105918
0.000106921
0.000107898
0.000108851
0.000109778
0.00011068
0.000111557
0.00011241
0.000113237
0.000114041
0.00011482
0.000115575
0.000116306
0.000117013
0.000117696
0.000118356
0.000118992
0.000119606
0.000120196
0.000120764
0.000121309
0.000121832
0.000122332
0.000122811
0.000123268
0.000123704
0.000124118
0.000124512
0.000124884
0.000125236
0.000125567
0.000125879
0.00012617
0.000126442
0.000126694
0.000126927
0.000127141
0.000127336
0.000127512
0.000127669
0.000127808
0.000127931
0.000128035
0.000128123
0.000128193
0.000128245
0.000128281
0.000128299
0.000128301
0.000128286
0.000128255
0.000128207
0.000128143
0.000128063
0.000127967
0.000127856
0.000127729
0.000127587
0.000127429
0.000127256
0.000127069
0.000126866
0.000126649
0.000126417
0.000126171
0.00012591
0.000125635
0.000125346
0.000125043
0.000124725
0.000124394
0.000124049
0.00012369
0.000123317
0.00012293
0.00012253
0.000122116
0.000121688
0.000121247
0.000120791
0.000120322
0.000119839
0.000119343
0.000118832
0.000118308
0.000117769
0.000117217
0.00011665
0.000116069
0.000115474
0.000114865
0.000114241
0.000113603
0.000112951
0.000112283
0.000111601
0.000110905
0.000110193
0.000109467
0.000108725
0.000107968
0.000107196
0.000106409
0.000105607
0.000104789
0.000103956
0.000103108
0.000102243
0.000101363
0.000100468
9.95567e-05
9.86297e-05
9.76868e-05
9.67281e-05
9.57534e-05
9.47628e-05
9.37561e-05
9.27332e-05
9.16943e-05
9.0639e-05
8.95675e-05
8.84796e-05
8.73752e-05
8.62543e-05
8.51167e-05
8.39623e-05
8.27911e-05
8.16028e-05
8.03973e-05
7.91744e-05
7.79339e-05
7.66754e-05
7.53988e-05
7.41037e-05
7.27897e-05
7.14565e-05
7.01036e-05
6.87304e-05
6.73363e-05
6.59205e-05
6.44819e-05
6.30194e-05
6.15315e-05
6.00165e-05
5.84723e-05
5.68966e-05
5.52874e-05
5.36397e-05
5.1972e-05
5.03596e-05
5.04144e-05
0.00031745
4.47309e-05
4.53926e-05
0.000218047
3.67575e-05
0.000186911
0.000169275
0.000137292
8.7659e-05
0.000122984
0.000229583
0.000241858
0.000311184
0.000455883
0.000468075
0.000503904
0.000539116
0.000571423
0.000601104
0.00062857
0.000654126
0.000678193
0.00070101
0.00072276
0.00074358
0.000763573
0.000782824
0.000801401
0.000819359
0.000836747
0.000853604
0.000869965
0.00088586
0.000901316
0.000916356
0.000930999
0.000945264
0.000959166
0.000972719
0.000985936
0.000998826
0.0010114
0.00102366
0.00103563
0.0010473
0.00105868
0.00106978
0.0010806
0.00109114
0.00110141
0.00111142
0.00112115
0.00113063
0.00113984
0.0011488
0.00115751
0.00116596
0.00117415
0.0011821
0.00118981
0.00119726
0.00120448
0.00121145
0.00121819
0.00122469
0.00123095
0.00123698
0.00124278
0.00124835
0.0012537
0.00125882
0.00126372
0.0012684
0.00127286
0.0012771
0.00128114
0.00128496
0.00128858
0.00129198
0.00129519
0.00129819
0.00130099
0.00130359
0.001306
0.00130822
0.00131024
0.00131207
0.00131372
0.00131517
0.00131642
0.00131744
0.00131828
0.00131895
0.00131944
0.00131975
0.0013199
0.00131988
0.00131969
0.00131934
0.00131882
0.00131814
0.0013173
0.0013163
0.00131514
0.00131383
0.00131236
0.00131074
0.00130897
0.00130704
0.00130497
0.00130275
0.00130038
0.00129787
0.00129521
0.00129241
0.00128946
0.00128637
0.00128314
0.00127977
0.00127626
0.00127261
0.00126882
0.00126488
0.00126081
0.0012566
0.00125225
0.00124776
0.00124313
0.00123836
0.00123344
0.00122839
0.00122319
0.00121786
0.00121238
0.00120675
0.00120098
0.00119507
0.00118901
0.00118281
0.00117646
0.00116996
0.00116332
0.00115652
0.00114958
0.00114249
0.00113524
0.00112785
0.00112031
0.00111261
0.00110476
0.00109676
0.00108861
0.0010803
0.00107184
0.00106323
0.00105446
0.00104554
0.00103647
0.00102723
0.00101785
0.00100831
0.000998612
0.000988761
0.000978754
0.000968591
0.000958273
0.000947797
0.000937165
0.000926376
0.000915429
0.000904324
0.00089306
0.000881636
0.000870051
0.000858305
0.000846395
0.000834321
0.00082208
0.000809671
0.000797091
0.000784337
0.000771406
0.000758294
0.000744997
0.00073151
0.000717825
0.000703937
0.000689835
0.000675508
0.000660943
0.000646121
0.000631021
0.000615613
0.000599856
0.000583691
0.000567023
0.000549708
0.000531532
0.000512958
0.000498586
0.000518815
0.000375886
0.000341345
0.00031954
0.000296499
0.000366455
0.000330633
0.000235503
0.00010218
0.000123098
0.000230443
0.000242086
0.000310277
0.00045514
0.000468415
0.000504074
0.00053919
0.00057147
0.000601146
0.00062861
0.000654165
0.000678231
0.000701047
0.000722797
0.000743615
0.000763608
0.000782858
0.000801434
0.000819392
0.000836779
0.000853635
0.000869996
0.000885891
0.000901346
0.000916385
0.000931028
0.000945292
0.000959193
0.000972746
0.000985962
0.000998852
0.00101142
0.00102369
0.00103565
0.00104732
0.0010587
0.0010698
0.00108062
0.00109116
0.00110143
0.00111144
0.00112117
0.00113065
0.00113987
0.00114882
0.00115753
0.00116597
0.00117417
0.00118212
0.00118982
0.00119728
0.0012045
0.00121147
0.00121821
0.0012247
0.00123097
0.001237
0.0012428
0.00124837
0.00125371
0.00125883
0.00126373
0.00126841
0.00127287
0.00127712
0.00128115
0.00128498
0.00128859
0.001292
0.0012952
0.0012982
0.001301
0.00130361
0.00130602
0.00130823
0.00131025
0.00131209
0.00131373
0.00131518
0.00131643
0.00131745
0.00131829
0.00131896
0.00131945
0.00131977
0.00131991
0.00131989
0.00131971
0.00131935
0.00131883
0.00131815
0.00131731
0.00131631
0.00131515
0.00131384
0.00131237
0.00131075
0.00130898
0.00130705
0.00130498
0.00130276
0.00130039
0.00129788
0.00129522
0.00129242
0.00128947
0.00128638
0.00128315
0.00127978
0.00127627
0.00127262
0.00126883
0.00126489
0.00126082
0.00125661
0.00125226
0.00124777
0.00124314
0.00123837
0.00123345
0.0012284
0.0012232
0.00121787
0.00121239
0.00120676
0.00120099
0.00119508
0.00118902
0.00118282
0.00117647
0.00116997
0.00116332
0.00115653
0.00114959
0.00114249
0.00113525
0.00112786
0.00112031
0.00111262
0.00110477
0.00109677
0.00108862
0.00108031
0.00107185
0.00106324
0.00105447
0.00104555
0.00103647
0.00102724
0.00101786
0.00100831
0.000998619
0.000988768
0.000978761
0.000968598
0.000958279
0.000947804
0.000937172
0.000926383
0.000915436
0.00090433
0.000893066
0.000881642
0.000870058
0.000858311
0.000846402
0.000834328
0.000822087
0.000809678
0.000797097
0.000784344
0.000771413
0.000758301
0.000745004
0.000731517
0.000717833
0.000703944
0.000689842
0.000675516
0.000660951
0.000646129
0.000631029
0.000615621
0.000599864
0.000583699
0.000567029
0.000549705
0.000531487
0.000512784
0.000498315
0.000520979
0.000381211
0.000359737
0.000399195
0.000308025
0.000368896
0.000330754
0.000235463
0.000102179
0.000153469
0.000330345
0.000488703
0.000640449
0.000788193
0.000894983
0.000988733
0.00107208
0.00114693
0.00121507
0.00127779
0.00133604
0.00139057
0.00144195
0.00149062
0.00153691
0.00158109
0.00162336
0.0016639
0.00170286
0.00174035
0.0017765
0.00181139
0.0018451
0.00187771
0.00190928
0.00193987
0.00196953
0.00199832
0.00202626
0.00205341
0.00207978
0.00210542
0.00213035
0.00215459
0.00217817
0.0022011
0.00222341
0.0022451
0.0022662
0.00228671
0.00230664
0.00232602
0.00234484
0.00236311
0.00238085
0.00239805
0.00241473
0.0024309
0.00244655
0.0024617
0.00247635
0.0024905
0.00250417
0.00251735
0.00253006
0.00254229
0.00255405
0.00256535
0.00257619
0.00258658
0.00259652
0.00260601
0.00261507
0.00262369
0.00263188
0.00263965
0.00264699
0.00265393
0.00266045
0.00266656
0.00267227
0.00267759
0.00268251
0.00268704
0.00269119
0.00269495
0.00269834
0.00270135
0.00270398
0.00270623
0.00270808
0.00270955
0.00271067
0.00271144
0.00271186
0.00271195
0.0027117
0.00271112
0.00271021
0.00270898
0.00270742
0.00270554
0.00270335
0.00270085
0.00269804
0.00269492
0.00269149
0.00268777
0.00268374
0.00267943
0.00267481
0.00266991
0.00266471
0.00265923
0.00265346
0.00264741
0.00264107
0.00263445
0.00262755
0.00262036
0.0026129
0.00260516
0.00259713
0.00258883
0.00258025
0.00257138
0.00256224
0.00255282
0.00254311
0.00253312
0.00252285
0.00251229
0.00250145
0.00249032
0.0024789
0.00246719
0.0024552
0.00244291
0.00243033
0.00241746
0.00240429
0.00239083
0.00237707
0.00236301
0.00234865
0.002334
0.00231904
0.00230379
0.00228823
0.00227237
0.00225621
0.00223974
0.00222297
0.0022059
0.00218852
0.00217084
0.00215286
0.00213456
0.00211596
0.00209706
0.00207785
0.00205833
0.00203851
0.00201838
0.00199794
0.00197718
0.00195612
0.00193475
0.00191307
0.00189106
0.00186874
0.0018461
0.00182314
0.00179985
0.00177622
0.00175226
0.00172796
0.0017033
0.00167828
0.00165289
0.00162713
0.00160096
0.00157439
0.00154739
0.00151993
0.001492
0.00146356
0.00143458
0.001405
0.00137479
0.00134386
0.00131214
0.00127952
0.00124585
0.00121093
0.00117447
0.00113601
0.00109479
0.00104988
0.00100179
0.000959765
0.000874977
0.000805718
0.000739387
0.000664776
0.000596586
0.000479923
0.000318599
0.00013599
0.000153628
0.000329771
0.000487895
0.000639191
0.000788199
0.000895303
0.000988938
0.00107221
0.00114703
0.00121516
0.00127787
0.00133612
0.00139064
0.00144203
0.00149069
0.00153698
0.00158115
0.00162342
0.00166396
0.00170292
0.00174041
0.00177656
0.00181144
0.00184515
0.00187776
0.00190933
0.00193992
0.00196958
0.00199836
0.0020263
0.00205344
0.00207982
0.00210545
0.00213038
0.00215462
0.0021782
0.00220113
0.00222343
0.00224513
0.00226622
0.00228673
0.00230667
0.00232604
0.00234486
0.00236313
0.00238086
0.00239807
0.00241475
0.00243091
0.00244656
0.00246171
0.00247636
0.00249051
0.00250418
0.00251736
0.00253007
0.0025423
0.00255406
0.00256536
0.0025762
0.00258658
0.00259652
0.00260602
0.00261507
0.00262369
0.00263188
0.00263965
0.00264699
0.00265392
0.00266044
0.00266656
0.00267227
0.00267758
0.0026825
0.00268704
0.00269118
0.00269495
0.00269833
0.00270134
0.00270398
0.00270623
0.00270808
0.00270954
0.00271066
0.00271143
0.00271186
0.00271194
0.00271169
0.00271111
0.0027102
0.00270897
0.00270741
0.00270553
0.00270334
0.00270084
0.00269802
0.0026949
0.00269148
0.00268776
0.00268373
0.00267941
0.0026748
0.00266989
0.0026647
0.00265922
0.00265345
0.00264739
0.00264105
0.00263443
0.00262753
0.00262035
0.00261288
0.00260514
0.00259712
0.00258881
0.00258023
0.00257137
0.00256223
0.0025528
0.00254309
0.0025331
0.00252283
0.00251227
0.00250143
0.0024903
0.00247888
0.00246718
0.00245518
0.00244289
0.00243031
0.00241744
0.00240427
0.00239081
0.00237705
0.00236299
0.00234864
0.00233398
0.00231903
0.00230377
0.00228821
0.00227235
0.00225619
0.00223972
0.00222296
0.00220588
0.0021885
0.00217082
0.00215284
0.00213454
0.00211594
0.00209704
0.00207783
0.00205831
0.00203849
0.00201836
0.00199792
0.00197716
0.0019561
0.00193473
0.00191305
0.00189104
0.00186872
0.00184608
0.00182312
0.00179983
0.0017762
0.00175224
0.00172794
0.00170328
0.00167826
0.00165288
0.00162711
0.00160095
0.00157437
0.00154737
0.00151991
0.00149198
0.00146354
0.00143456
0.00140499
0.00137477
0.00134385
0.00131213
0.00127951
0.00124584
0.00121092
0.00117446
0.00113599
0.00109476
0.00104978
0.00100164
0.000960501
0.000875309
0.000808631
0.000759101
0.000670389
0.00059752
0.000480013
0.000318608
0.00013601
0.000172388
0.000366536
0.000625402
0.000865937
0.00106987
0.00123984
0.00138691
0.00151689
0.00163355
0.00173964
0.00183717
0.00192764
0.00201218
0.00209168
0.0021668
0.00223808
0.00230593
0.00237069
0.00243265
0.00249204
0.00254905
0.00260388
0.00265666
0.00270752
0.0027566
0.002804
0.00284981
0.00289412
0.002937
0.00297854
0.00301879
0.00305782
0.00309566
0.00313239
0.00316802
0.00320261
0.0032362
0.0032688
0.00330045
0.00333118
0.00336101
0.00338996
0.00341805
0.0034453
0.00347172
0.00349733
0.00352215
0.00354618
0.00356944
0.00359194
0.00361369
0.0036347
0.00365498
0.00367454
0.00369339
0.00371153
0.00372899
0.00374576
0.00376185
0.00377727
0.00379203
0.00380614
0.0038196
0.00383243
0.00384463
0.0038562
0.00386716
0.00387751
0.00388726
0.00389642
0.00390499
0.00391298
0.0039204
0.00392725
0.00393355
0.00393929
0.00394448
0.00394912
0.00395323
0.0039568
0.00395983
0.00396232
0.00396427
0.0039657
0.00396664
0.00396709
0.00396704
0.00396652
0.00396552
0.00396405
0.00396211
0.00395972
0.00395686
0.00395356
0.00394981
0.00394561
0.00394098
0.00393592
0.00393042
0.00392449
0.00391815
0.00391138
0.00390419
0.00389659
0.00388858
0.00388015
0.00387132
0.00386208
0.00385244
0.00384239
0.00383194
0.00382109
0.00380984
0.00379818
0.00378612
0.00377366
0.0037608
0.00374753
0.00373386
0.00371979
0.00370531
0.00369042
0.00367512
0.00365941
0.00364329
0.00362676
0.00360981
0.00359245
0.00357466
0.00355646
0.00353784
0.00351879
0.00349932
0.00347943
0.00345911
0.00343836
0.00341719
0.00339558
0.00337355
0.00335108
0.00332819
0.00330486
0.00328109
0.0032569
0.00323227
0.0032072
0.00318171
0.00315577
0.0031294
0.0031026
0.00307536
0.00304768
0.00301956
0.002991
0.002962
0.00293256
0.00290267
0.00287234
0.00284156
0.00281032
0.00277863
0.00274647
0.00271384
0.00268074
0.00264715
0.00261307
0.00257848
0.00254337
0.00250773
0.00247153
0.00243476
0.00239739
0.00235939
0.00232073
0.00228138
0.00224128
0.00220038
0.00215863
0.00211594
0.00207223
0.00202738
0.00198128
0.00193374
0.00188456
0.00183348
0.00178014
0.00172407
0.00166461
0.00160082
0.00153147
0.00145563
0.00137495
0.00128052
0.00117875
0.00106627
0.000936429
0.00078472
0.000598633
0.000382044
0.000165496
0.000172531
0.000365949
0.000625589
0.000865485
0.00106975
0.00123995
0.00138706
0.00151703
0.00163368
0.00173976
0.00183729
0.00192775
0.00201229
0.00209179
0.0021669
0.00223818
0.00230602
0.00237078
0.00243274
0.00249212
0.00254914
0.00260396
0.00265673
0.0027076
0.00275667
0.00280407
0.00284987
0.00289418
0.00293706
0.0029786
0.00301884
0.00305787
0.00309571
0.00313243
0.00316807
0.00320265
0.00323623
0.00326883
0.00330048
0.00333121
0.00336104
0.00338999
0.00341807
0.00344532
0.00347174
0.00349735
0.00352216
0.00354619
0.00356945
0.00359195
0.0036137
0.00363471
0.00365498
0.00367454
0.00369339
0.00371154
0.00372899
0.00374576
0.00376185
0.00377727
0.00379203
0.00380614
0.0038196
0.00383242
0.00384462
0.00385619
0.00386715
0.0038775
0.00388725
0.0038964
0.00390498
0.00391297
0.00392038
0.00392724
0.00393353
0.00393927
0.00394446
0.00394911
0.00395321
0.00395678
0.00395981
0.0039623
0.00396424
0.00396568
0.00396662
0.00396706
0.00396702
0.00396649
0.00396549
0.00396402
0.00396209
0.00395969
0.00395684
0.00395353
0.00394978
0.00394559
0.00394095
0.00393589
0.00393039
0.00392446
0.00391812
0.00391135
0.00390416
0.00389656
0.00388855
0.00388012
0.00387129
0.00386205
0.00385241
0.00384236
0.00383191
0.00382106
0.0038098
0.00379814
0.00378609
0.00377363
0.00376076
0.0037475
0.00373383
0.00371975
0.00370527
0.00369038
0.00367508
0.00365937
0.00364325
0.00362672
0.00360977
0.00359241
0.00357463
0.00355642
0.0035378
0.00351875
0.00349929
0.00347939
0.00345907
0.00343832
0.00341715
0.00339554
0.00337351
0.00335104
0.00332815
0.00330482
0.00328105
0.00325686
0.00323223
0.00320716
0.00318167
0.00315573
0.00312936
0.00310256
0.00307531
0.00304763
0.00301952
0.00299096
0.00296196
0.00293252
0.00290263
0.0028723
0.00284152
0.00281028
0.00277859
0.00274643
0.0027138
0.0026807
0.00264711
0.00261303
0.00257844
0.00254333
0.00250769
0.00247149
0.00243472
0.00239735
0.00235935
0.0023207
0.00228134
0.00224124
0.00220035
0.00215859
0.0021159
0.00207219
0.00202735
0.00198124
0.0019337
0.00188453
0.00183344
0.0017801
0.00172404
0.00166458
0.00160079
0.00153142
0.00145556
0.00137517
0.00128048
0.00117872
0.00106907
0.00093755
0.00078504
0.000598712
0.000381987
0.000165559
0.00020881
0.000415333
0.000726275
0.00103045
0.00129242
0.00151578
0.00170998
0.00188195
0.00203652
0.00217719
0.00230657
0.0024266
0.00253875
0.00264417
0.00274374
0.00283816
0.00292799
0.00301367
0.00309559
0.00317405
0.00324932
0.00332163
0.00339118
0.00345814
0.00352268
0.00358494
0.00364504
0.00370311
0.00375924
0.00381353
0.00386607
0.00391694
0.00396621
0.00401394
0.00406021
0.00410505
0.00414853
0.00419069
0.00423156
0.00427119
0.00430961
0.00434685
0.00438294
0.00441792
0.00445179
0.00448459
0.00451633
0.00454704
0.00457673
0.00460543
0.00463314
0.00465988
0.00468567
0.00471052
0.00473445
0.00475746
0.00477958
0.00480081
0.00482116
0.00484065
0.00485928
0.00487708
0.00489405
0.0049102
0.00492554
0.00494008
0.00495384
0.00496682
0.00497903
0.00499048
0.00500119
0.00501116
0.0050204
0.00502892
0.00503672
0.00504383
0.00505023
0.00505595
0.00506099
0.00506534
0.00506902
0.00507203
0.00507438
0.00507606
0.00507712
0.00507755
0.00507737
0.00507658
0.00507519
0.0050732
0.00507063
0.00506747
0.00506374
0.00505944
0.00505458
0.00504916
0.00504319
0.00503667
0.0050296
0.005022
0.00501386
0.0050052
0.004996
0.00498629
0.00497605
0.0049653
0.00495403
0.00494225
0.00492995
0.00491715
0.00490384
0.00489003
0.0048757
0.00486087
0.00484553
0.00482968
0.00481333
0.00479646
0.00477909
0.00476121
0.00474281
0.0047239
0.00470447
0.00468452
0.00466406
0.00464307
0.00462156
0.00459953
0.00457697
0.00455388
0.00453026
0.0045061
0.00448142
0.0044562
0.00443044
0.00440415
0.00437731
0.00434994
0.00432202
0.00429357
0.00426457
0.00423503
0.00420494
0.00417431
0.00414313
0.00411141
0.00407914
0.00404633
0.00401296
0.00397905
0.00394458
0.00390957
0.003874
0.00383787
0.00380119
0.00376395
0.00372614
0.00368777
0.00364882
0.00360929
0.00356917
0.00352846
0.00348714
0.0034452
0.00340263
0.00335941
0.00331552
0.00327094
0.00322565
0.00317962
0.0031328
0.00308517
0.00303668
0.00298727
0.00293689
0.00288546
0.0028329
0.00277912
0.00272399
0.00266737
0.00260912
0.00254901
0.0024868
0.00242219
0.00235479
0.0022841
0.00220951
0.0021302
0.00204512
0.00195294
0.00185219
0.00174181
0.00161878
0.0014811
0.00132451
0.00114263
0.000928628
0.000679712
0.000413439
0.000183724
0.000208818
0.000415015
0.000726996
0.0010304
0.00129232
0.00151583
0.00171011
0.0018821
0.00203667
0.00217734
0.00230672
0.00242674
0.00253889
0.0026443
0.00274387
0.00283829
0.00292811
0.00301379
0.00309571
0.00317416
0.00324943
0.00332173
0.00339128
0.00345824
0.00352277
0.00358503
0.00364513
0.00370319
0.00375931
0.0038136
0.00386614
0.003917
0.00396627
0.004014
0.00406027
0.00410511
0.00414858
0.00419073
0.0042316
0.00427123
0.00430965
0.00434689
0.00438298
0.00441795
0.00445182
0.00448461
0.00451636
0.00454706
0.00457675
0.00460544
0.00463315
0.00465989
0.00468568
0.00471053
0.00473446
0.00475747
0.00477958
0.00480081
0.00482116
0.00484065
0.00485928
0.00487708
0.00489405
0.00491019
0.00492553
0.00494007
0.00495383
0.00496681
0.00497902
0.00499047
0.00500118
0.00501114
0.00502038
0.0050289
0.0050367
0.00504381
0.00505021
0.00505593
0.00506096
0.00506532
0.005069
0.00507201
0.00507435
0.00507604
0.00507709
0.00507753
0.00507734
0.00507655
0.00507516
0.00507317
0.0050706
0.00506744
0.00506371
0.00505941
0.00505455
0.00504913
0.00504315
0.00503663
0.00502957
0.00502196
0.00501383
0.00500516
0.00499597
0.00498625
0.00497601
0.00496526
0.00495399
0.00494221
0.00492992
0.00491711
0.0049038
0.00488999
0.00487566
0.00486083
0.00484549
0.00482964
0.00481329
0.00479642
0.00477905
0.00476116
0.00474277
0.00472385
0.00470442
0.00468448
0.00466401
0.00464303
0.00462152
0.00459948
0.00457692
0.00455383
0.00453021
0.00450606
0.00448137
0.00445615
0.00443039
0.0044041
0.00437727
0.00434989
0.00432198
0.00429352
0.00426452
0.00423498
0.00420489
0.00417426
0.00414308
0.00411136
0.00407909
0.00404628
0.00401291
0.003979
0.00394453
0.00390952
0.00387395
0.00383782
0.00380114
0.0037639
0.00372609
0.00368772
0.00364877
0.00360924
0.00356912
0.00352841
0.00348709
0.00344515
0.00340258
0.00335936
0.00331547
0.0032709
0.0032256
0.00317957
0.00313276
0.00308513
0.00303663
0.00298723
0.00293685
0.00288542
0.00283286
0.00277907
0.00272394
0.00266733
0.00260907
0.00254897
0.00248676
0.00242215
0.00235475
0.00228406
0.00220947
0.00213016
0.00204509
0.0019529
0.00185214
0.00174183
0.00161876
0.00148106
0.0013249
0.00114295
0.000928789
0.000679345
0.000412839
0.000183931
0.000241143
0.000446803
0.000805448
0.00116053
0.00147192
0.00174085
0.00197599
0.00218478
0.00237277
0.00254408
0.00270179
0.00284821
0.00298511
0.00311386
0.00323552
0.00335092
0.00346074
0.00356551
0.0036657
0.00376168
0.00385376
0.00394223
0.00402731
0.00410922
0.00418815
0.00426427
0.00433773
0.00440866
0.00447719
0.00454344
0.00460751
0.0046695
0.00472949
0.00478757
0.0048438
0.00489827
0.00495102
0.00500213
0.00505163
0.00509958
0.00514602
0.005191
0.00523455
0.00527671
0.0053175
0.00535697
0.00539513
0.00543201
0.00546765
0.00550205
0.00553525
0.00556726
0.00559811
0.00562781
0.00565639
0.00568385
0.00571021
0.0057355
0.00575973
0.00578292
0.00580507
0.00582621
0.00584635
0.0058655
0.00588367
0.00590089
0.00591716
0.0059325
0.00594692
0.00596043
0.00597305
0.00598479
0.00599565
0.00600565
0.00601481
0.00602312
0.00603061
0.00603728
0.00604313
0.00604819
0.00605245
0.00605592
0.0060586
0.00606051
0.00606167
0.0060621
0.00606179
0.00606077
0.00605903
0.00605659
0.00605345
0.00604963
0.00604512
0.00603995
0.0060341
0.0060276
0.00602045
0.00601265
0.0060042
0.00599513
0.00598542
0.00597508
0.00596413
0.00595255
0.00594037
0.00592757
0.00591416
0.00590015
0.00588554
0.00587032
0.0058545
0.00583809
0.00582107
0.00580346
0.00578525
0.00576643
0.00574702
0.00572701
0.0057064
0.00568518
0.00566336
0.00564093
0.00561789
0.00559424
0.00556998
0.00554511
0.00551962
0.00549351
0.00546678
0.00543942
0.00541144
0.00538284
0.00535361
0.00532374
0.00529325
0.00526212
0.00523036
0.00519796
0.00516493
0.00513126
0.00509695
0.005062
0.00502641
0.00499018
0.00495331
0.00491579
0.00487763
0.00483882
0.00479937
0.00475927
0.00471852
0.00467712
0.00463506
0.00459235
0.00454897
0.00450493
0.00446021
0.00441482
0.00436874
0.00432196
0.00427448
0.00422628
0.00417734
0.00412765
0.00407719
0.00402593
0.00397385
0.00392092
0.0038671
0.00381235
0.00375662
0.00369985
0.00364199
0.00358297
0.00352269
0.00346106
0.00339797
0.00333328
0.00326684
0.00319846
0.00312792
0.00305495
0.00297923
0.00290036
0.00281784
0.00273106
0.00263925
0.00254145
0.00243646
0.00232274
0.00219846
0.00206145
0.0019087
0.00173637
0.001539
0.00130911
0.00103811
0.000724273
0.000400532
0.000188718
0.0002411
0.000447068
0.000806546
0.00116073
0.00147192
0.00174092
0.00197612
0.00218493
0.00237293
0.00254424
0.00270195
0.00284837
0.00298527
0.00311402
0.00323567
0.00335107
0.00346088
0.00356565
0.00366584
0.00376181
0.00385389
0.00394235
0.00402743
0.00410934
0.00418827
0.00426438
0.00433783
0.00440876
0.00447729
0.00454353
0.0046076
0.00466958
0.00472957
0.00478764
0.00484388
0.00489834
0.00495109
0.00500219
0.00505169
0.00509964
0.00514608
0.00519105
0.0052346
0.00527675
0.00531755
0.00535701
0.00539517
0.00543205
0.00546768
0.00550208
0.00553528
0.00556729
0.00559813
0.00562783
0.0056564
0.00568386
0.00571023
0.00573552
0.00575974
0.00578293
0.00580508
0.00582621
0.00584635
0.0058655
0.00588367
0.00590089
0.00591716
0.0059325
0.00594692
0.00596043
0.00597304
0.00598478
0.00599564
0.00600564
0.00601479
0.00602311
0.00603059
0.00603726
0.00604312
0.00604817
0.00605243
0.00605589
0.00605858
0.00606049
0.00606165
0.00606207
0.00606177
0.00606074
0.006059
0.00605656
0.00605342
0.0060496
0.00604509
0.00603992
0.00603407
0.00602757
0.00602041
0.00601261
0.00600417
0.00599509
0.00598538
0.00597505
0.00596409
0.00595252
0.00594033
0.00592753
0.00591412
0.00590011
0.0058855
0.00587028
0.00585446
0.00583805
0.00582103
0.00580342
0.00578521
0.00576639
0.00574698
0.00572697
0.00570636
0.00568514
0.00566332
0.00564089
0.00561785
0.0055942
0.00556994
0.00554506
0.00551957
0.00549346
0.00546673
0.00543938
0.0054114
0.00538279
0.00535356
0.0053237
0.0052932
0.00526208
0.00523031
0.00519792
0.00516488
0.00513121
0.0050969
0.00506195
0.00502636
0.00499013
0.00495326
0.00491574
0.00487758
0.00483877
0.00479932
0.00475922
0.00471847
0.00467707
0.00463501
0.0045923
0.00454892
0.00450488
0.00446016
0.00441477
0.00436869
0.00432191
0.00427443
0.00422623
0.00417729
0.0041276
0.00407714
0.00402588
0.0039738
0.00392087
0.00386705
0.0038123
0.00375657
0.0036998
0.00364195
0.00358292
0.00352264
0.00346101
0.00339792
0.00333323
0.00326679
0.00319842
0.00312788
0.00305491
0.00297919
0.00290031
0.00281779
0.00273102
0.00263921
0.00254142
0.00243643
0.00232271
0.00219843
0.00206143
0.00190869
0.00173638
0.00153913
0.0013093
0.00103795
0.000722872
0.000400432
0.000188859
2.97136e-05
0.000370303
0.000841816
0.00126297
0.00162122
0.00192968
0.00219999
0.00244058
0.00265763
0.00285573
0.00303834
0.00320807
0.00336692
0.00351644
0.00365782
0.00379204
0.00391985
0.00404187
0.00415863
0.00427054
0.00437797
0.00448122
0.00458057
0.00467626
0.00476848
0.00485743
0.00494329
0.00502619
0.00510628
0.0051837
0.00525855
0.00533094
0.00540098
0.00546876
0.00553436
0.00559786
0.00565932
0.00571883
0.00577644
0.00583221
0.00588618
0.00593842
0.00598896
0.00603785
0.00608513
0.00613083
0.00617499
0.00621764
0.00625882
0.00629855
0.00633686
0.00637377
0.00640932
0.00644352
0.0064764
0.00650798
0.00653829
0.00656733
0.00659514
0.00662173
0.00664713
0.00667134
0.00669439
0.0067163
0.00673708
0.00675675
0.00677533
0.00679283
0.00680927
0.00682467
0.00683903
0.00685238
0.00686473
0.00687609
0.00688647
0.00689589
0.00690437
0.00691191
0.00691852
0.00692421
0.006929
0.0069329
0.0069359
0.00693803
0.0069393
0.00693973
0.00693933
0.00693811
0.00693608
0.00693325
0.00692962
0.00692522
0.00692004
0.0069141
0.0069074
0.00689995
0.00689176
0.00688284
0.00687319
0.00686281
0.00685172
0.00683992
0.00682742
0.00681421
0.00680031
0.00678572
0.00677043
0.00675446
0.0067378
0.00672047
0.00670245
0.00668375
0.00666437
0.00664431
0.00662358
0.00660216
0.00658006
0.00655729
0.00653383
0.00650969
0.00648486
0.00645935
0.00643314
0.00640625
0.00637866
0.00635037
0.00632139
0.00629171
0.00626133
0.00623024
0.00619844
0.00616594
0.00613273
0.0060988
0.00606416
0.00602881
0.00599273
0.00595594
0.00591843
0.0058802
0.00584125
0.00580157
0.00576117
0.00572004
0.00567819
0.00563561
0.0055923
0.00554825
0.00550348
0.00545797
0.00541172
0.00536473
0.00531699
0.00526851
0.00521926
0.00516926
0.00511849
0.00506693
0.00501459
0.00496144
0.00490748
0.00485268
0.00479703
0.0047405
0.00468306
0.00462469
0.00456534
0.00450499
0.00444357
0.00438105
0.00431735
0.00425241
0.00418614
0.00411846
0.00404925
0.0039784
0.00390575
0.00383115
0.0037544
0.00367527
0.00359348
0.0035087
0.00342055
0.00332853
0.00323207
0.00313043
0.00302272
0.00290782
0.00278433
0.00265051
0.00250415
0.00234248
0.00216192
0.00195783
0.00172409
0.0014528
0.00113526
0.000772151
0.000411302
0.000204485
2.9715e-05
0.000370613
0.000841985
0.00126275
0.00162112
0.00192974
0.00220012
0.00244074
0.0026578
0.00285591
0.00303852
0.00320825
0.00336709
0.0035166
0.00365799
0.0037922
0.00392001
0.00404203
0.00415878
0.00427069
0.00437811
0.00448136
0.00458071
0.00467639
0.00476861
0.00485756
0.00494341
0.0050263
0.00510639
0.0051838
0.00525865