/*--------------------------------*- C++ -*----------------------------------*\
  =========                 |
  \\      /  F ield         | OpenFOAM: The Open Source CFD Toolbox
   \\    /   O peration     | Website:  https://openfoam.org
    \\  /    A nd           | Version:  8
     \\/     M anipulation  |
\*---------------------------------------------------------------------------*/
FoamFile
{
    version     2.0;
    format      ascii;
    class       volScalarField;
    location    "700";
    object      epsilon;
}
// * * * * * * * * * * * * * * * * * * * * * * * * * * * * * * * * * * * * * //

dimensions      [0 2 -3 0 0 0 0];

internalField   nonuniform List<scalar> 
48000
(
0.154842
0.168268
0.838395
0.891938
0.177554
0.857405
1.03875
1.22369
1.41088
1.60043
1.7945
1.99537
2.20066
2.41068
2.62528
2.84436
3.06786
3.29565
3.52763
3.76364
4.00352
4.24709
4.49417
4.74455
4.99803
5.25438
5.51338
5.77478
6.03834
6.3038
6.5709
6.83937
7.10892
7.37928
7.65015
7.92123
8.19224
8.46287
8.73282
9.00178
9.26945
9.53553
9.79973
10.0618
10.3213
10.5781
10.8319
11.0824
11.3293
11.5724
11.8114
12.0461
12.2763
12.5018
12.7224
12.9378
13.1479
13.3525
13.5514
13.7445
13.9317
14.1128
14.2878
14.4564
14.6186
14.7743
14.9235
15.066
15.2018
15.3309
15.4532
15.5686
15.6772
15.7788
15.8736
15.9615
16.0424
16.1165
16.1836
16.2437
16.297
16.344
16.3844
16.4181
16.4451
16.4655
16.4793
16.4866
16.4873
16.4817
16.4697
16.4515
16.427
16.3964
16.3597
16.3171
16.2687
16.2144
16.1545
16.089
16.018
15.9416
15.8599
15.773
15.681
15.584
15.4821
15.3755
15.2642
15.1482
15.0279
14.9031
14.7741
14.6408
14.5035
14.3622
14.2171
14.0681
13.9155
13.7592
13.5995
13.4364
13.2699
13.1002
12.9274
12.7516
12.5729
12.3914
12.2071
12.0202
11.8308
11.639
11.4449
11.2486
11.0503
10.85
10.6478
10.444
10.2386
10.0317
9.82351
9.61413
9.4037
9.19236
8.98025
8.76751
8.5543
8.34075
8.12703
7.91328
7.69966
7.48631
7.2734
7.06107
6.8495
6.63882
6.42921
6.2208
6.01377
5.80825
5.60441
5.40239
5.20233
5.0044
4.80872
4.61544
4.42469
4.23662
4.05135
3.86901
3.68972
3.5136
3.34077
3.17133
3.00539
2.84305
2.6844
2.52953
2.37851
2.23141
2.08829
1.94921
1.8142
1.68329
1.5565
1.43386
1.31546
1.20131
1.09263
0.987692
0.887668
0.194812
1.11653
0.997085
0.888543
0.880334
0.192124
0.167261
0.134815
0.118173
0.154863
0.168298
0.838677
0.892
0.177536
0.857182
1.03871
1.22374
1.41094
1.60049
1.79456
1.99544
2.20073
2.41075
2.62534
2.84442
3.06792
3.29572
3.52769
3.7637
4.00358
4.24715
4.49423
4.74461
4.99808
5.25443
5.51343
5.77483
6.03838
6.30384
6.57094
6.8394
7.10895
7.37931
7.65018
7.92126
8.19227
8.4629
8.73284
9.0018
9.26947
9.53555
9.79975
10.0618
10.3213
10.5781
10.8319
11.0824
11.3293
11.5723
11.8114
12.0461
12.2763
12.5018
12.7223
12.9377
13.1478
13.3524
13.5514
13.7445
13.9317
14.1128
14.2877
14.4563
14.6186
14.7743
14.9234
15.066
15.2018
15.3308
15.4531
15.5685
15.6771
15.7788
15.8736
15.9614
16.0424
16.1164
16.1835
16.2437
16.2969
16.3439
16.3843
16.418
16.445
16.4654
16.4792
16.4865
16.4873
16.4816
16.4696
16.4514
16.4269
16.3963
16.3597
16.3171
16.2686
16.2143
16.1544
16.0889
16.0179
15.9415
15.8598
15.7729
15.6809
15.5839
15.482
15.3754
15.2641
15.1482
15.0278
14.903
14.774
14.6407
14.5034
14.3622
14.217
14.068
13.9154
13.7592
13.5994
13.4363
13.2698
13.1001
12.9274
12.7515
12.5728
12.3913
12.207
12.0201
11.8307
11.6389
11.4448
11.2485
11.0502
10.8499
10.6478
10.4439
10.2385
10.0316
9.82344
9.61406
9.40363
9.19229
8.98018
8.76744
8.55423
8.34069
8.12697
7.91322
7.6996
7.48625
7.27334
7.06102
6.84944
6.63877
6.42916
6.22075
6.01372
5.8082
5.60436
5.40234
5.20229
5.00436
4.80868
4.6154
4.42466
4.23659
4.05132
3.86897
3.68969
3.51357
3.34074
3.17131
3.00537
2.84303
2.68439
2.52951
2.37849
2.23139
2.08828
1.9492
1.81419
1.68328
1.55649
1.43385
1.31546
1.20131
1.09265
0.98779
0.88777
0.194586
1.10358
0.92253
0.187623
0.865991
0.191998
0.167311
0.134847
0.118193
0.228709
0.216039
0.315139
0.358315
0.350903
0.443549
0.518365
0.593918
0.672169
0.752463
0.835095
0.920322
1.00798
1.09804
1.19051
1.28535
1.38254
1.48206
1.58387
1.6879
1.79411
1.90241
2.01274
2.12499
2.23907
2.35488
2.47231
2.59123
2.71152
2.83305
2.95568
3.07928
3.20369
3.32878
3.45439
3.58037
3.70656
3.83282
3.95898
4.08489
4.2104
4.33535
4.4596
4.58299
4.70537
4.82661
4.94656
5.06509
5.18206
5.29735
5.41084
5.5224
5.63193
5.73931
5.84445
5.94723
6.04758
6.14541
6.24063
6.33317
6.42295
6.50991
6.594
6.67515
6.75331
6.82844
6.9005
6.96945
7.03526
7.0979
7.15735
7.21358
7.26659
7.31635
7.36287
7.40612
7.44612
7.48286
7.51633
7.54657
7.57361
7.59761
7.61847
7.63617
7.65072
7.66213
7.67042
7.67561
7.67773
7.6768
7.67286
7.66593
7.65606
7.64327
7.62761
7.60912
7.58783
7.56379
7.53704
7.50763
7.4756
7.44099
7.40387
7.36427
7.32224
7.27783
7.23109
7.18207
7.13082
7.07739
7.02182
6.96418
6.90449
6.84283
6.77922
6.71372
6.64638
6.57725
6.50636
6.43377
6.35953
6.28367
6.20625
6.12732
6.04691
5.96507
5.88185
5.79731
5.71148
5.62441
5.53615
5.44676
5.35629
5.26478
5.17229
5.07887
4.98459
4.88949
4.79364
4.69709
4.5999
4.50215
4.40389
4.30518
4.2061
4.10671
4.00707
3.90727
3.80737
3.70743
3.60754
3.50777
3.40819
3.30887
3.2099
3.11133
3.01326
2.91575
2.81887
2.72271
2.62734
2.53283
2.43925
2.34667
2.25517
2.16481
2.07567
1.9878
1.90127
1.81616
1.7325
1.65038
1.56983
1.49093
1.41371
1.33822
1.26451
1.19263
1.1226
1.05445
0.988227
0.923937
0.861601
0.801233
0.742843
0.686453
0.632107
0.579901
0.530053
0.482291
0.433638
0.363523
0.410431
0.376301
0.329937
0.287232
0.187741
0.154672
0.143578
0.181817
0.228707
0.215354
0.314816
0.359369
0.351457
0.443219
0.518201
0.59385
0.672124
0.752419
0.835049
0.920273
1.00792
1.09799
1.19045
1.28529
1.38248
1.482
1.5838
1.68783
1.79404
1.90234
2.01266
2.12491
2.23899
2.3548
2.47222
2.59114
2.71143
2.83296
2.95559
3.07918
3.2036
3.32868
3.45429
3.58027
3.70646
3.83271
3.95887
4.08478
4.21029
4.33524
4.45948
4.58287
4.70525
4.82649
4.94644
5.06496
5.18194
5.29723
5.41071
5.52227
5.6318
5.73918
5.84431
5.9471
6.04745
6.14527
6.24049
6.33302
6.42281
6.50977
6.59385
6.675
6.75316
6.82829
6.90035
6.9693
7.03511
7.09775
7.1572
7.21343
7.26644
7.3162
7.36272
7.40597
7.44597
7.4827
7.51618
7.54641
7.57346
7.59746
7.61832
7.63602
7.65057
7.66198
7.67027
7.67546
7.67758
7.67665
7.67271
7.66578
7.65591
7.64312
7.62746
7.60897
7.58768
7.56364
7.53689
7.50748
7.47545
7.44085
7.40372
7.36412
7.32209
7.27769
7.23095
7.18193
7.13068
7.07725
7.02169
6.96404
6.90436
6.8427
6.77909
6.71359
6.64626
6.57712
6.50624
6.43365
6.35941
6.28355
6.20614
6.1272
6.04679
5.96496
5.88174
5.7972
5.71137
5.6243
5.53605
5.44666
5.35618
5.26468
5.17219
5.07877
4.98449
4.88939
4.79354
4.697
4.59981
4.50206
4.4038
4.3051
4.20602
4.10663
4.007
3.90719
3.80729
3.70736
3.60747
3.5077
3.40812
3.30881
3.20983
3.11127
3.01319
2.91568
2.81881
2.72266
2.62729
2.53277
2.4392
2.34662
2.25512
2.16477
2.07562
1.98775
1.90123
1.81611
1.73246
1.65034
1.5698
1.49089
1.41367
1.33819
1.26448
1.19259
1.12257
1.05442
0.988198
0.92391
0.861575
0.801208
0.74282
0.686431
0.632088
0.579892
0.530083
0.482443
0.433898
0.362107
0.405255
0.359772
0.272462
0.276846
0.186374
0.154556
0.143586
0.181821
0.291856
0.256107
0.283358
0.316467
0.35178
0.400066
0.451266
0.505446
0.56243
0.621846
0.68355
0.747487
0.813582
0.881788
0.952067
1.02439
1.09873
1.17505
1.25332
1.3335
1.41554
1.4994
1.58499
1.67227
1.76115
1.85156
1.9434
2.03659
2.13101
2.22658
2.32318
2.42069
2.51899
2.61798
2.71752
2.81749
2.91776
3.01821
3.1187
3.21911
3.31931
3.41918
3.51858
3.61739
3.71549
3.81277
3.9091
4.00438
4.09848
4.19131
4.28277
4.37274
4.46115
4.54789
4.63288
4.71604
4.79729
4.87657
4.95378
5.02889
5.10182
5.17251
5.24093
5.30701
5.37072
5.43201
5.49086
5.54722
5.60107
5.65239
5.70116
5.74734
5.79095
5.83194
5.87033
5.90611
5.93926
5.96979
5.99771
6.02301
6.04574
6.06592
6.08357
6.09867
6.11122
6.12124
6.12874
6.13373
6.13624
6.13629
6.1339
6.1291
6.12191
6.11235
6.10047
6.08629
6.06985
6.05117
6.0303
6.00727
5.98211
5.95486
5.92556
5.89425
5.86098
5.82577
5.78866
5.74971
5.70895
5.66641
5.62215
5.57619
5.52858
5.47936
5.42857
5.37625
5.32244
5.26717
5.21048
5.15242
5.09302
5.03231
4.97034
4.90714
4.84275
4.77722
4.71056
4.64284
4.57407
4.50431
4.43359
4.36196
4.28944
4.2161
4.14196
4.06708
3.99149
3.91525
3.8384
3.76098
3.68305
3.60466
3.52586
3.44671
3.36724
3.28753
3.20762
3.12757
3.04745
2.9673
2.88718
2.80717
2.72731
2.64766
2.5683
2.48927
2.41065
2.33249
2.25486
2.17781
2.10141
2.02572
1.9508
1.87671
1.8035
1.73124
1.65998
1.58978
1.52069
1.45277
1.38607
1.32062
1.2565
1.19373
1.13236
1.07243
1.01398
0.957034
0.901634
0.847804
0.795566
0.744941
0.695948
0.648603
0.602925
0.558943
0.516706
0.476318
0.43798
0.401941
0.367865
0.3317
0.307834
0.279245
0.249279
0.220935
0.190351
0.173648
0.176282
0.243364
0.291772
0.256531
0.283702
0.317038
0.351756
0.399921
0.451175
0.505388
0.56238
0.621798
0.683501
0.747438
0.813532
0.881737
0.952015
1.02434
1.09867
1.17499
1.25327
1.33344
1.41549
1.49934
1.58493
1.67221
1.76109
1.8515
1.94334
2.03652
2.13095
2.22652
2.32311
2.42062
2.51893
2.61792
2.71746
2.81743
2.9177
3.01815
3.11864
3.21905
3.31925
3.41911
3.51851
3.61733
3.71543
3.81271
3.90904
4.00431
4.09842
4.19125
4.2827
4.37268
4.46108
4.54783
4.63282
4.71598
4.79723
4.87651
4.95373
5.02883
5.10176
5.17246
5.24087
5.30695
5.37066
5.43196
5.4908
5.54716
5.60102
5.65234
5.7011
5.74729
5.79089
5.83189
5.87028
5.90606
5.93921
5.96974
5.99766
6.02297
6.04569
6.06588
6.08352
6.09862
6.11117
6.12119
6.12869
6.13369
6.1362
6.13625
6.13386
6.12906
6.12187
6.11232
6.10044
6.08626
6.06981
6.05114
6.03027
6.00723
5.98207
5.95483
5.92553
5.89422
5.86095
5.82574
5.78864
5.74968
5.70892
5.66638
5.62212
5.57616
5.52856
5.47934
5.42855
5.37623
5.32241
5.26714
5.21046
5.1524
5.09299
5.03229
4.97032
4.90712
4.84273
4.7772
4.71055
4.64282
4.57405
4.50429
4.43358
4.36194
4.28943
4.21608
4.14195
4.06706
3.99148
3.91524
3.83838
3.76097
3.68304
3.60465
3.52585
3.4467
3.36723
3.28752
3.20761
3.12757
3.04744
2.96729
2.88718
2.80716
2.7273
2.64766
2.56829
2.48927
2.41065
2.33249
2.25485
2.17781
2.10141
2.02572
1.95079
1.8767
1.8035
1.73124
1.65998
1.58978
1.52069
1.45277
1.38606
1.32062
1.25649
1.19372
1.13235
1.07242
1.01397
0.957031
0.901631
0.8478
0.795562
0.744938
0.695945
0.6486
0.602923
0.55894
0.516704
0.476316
0.437985
0.401974
0.367935
0.331486
0.307899
0.278911
0.244243
0.219404
0.190088
0.173621
0.176296
0.243364
0.291774
0.339661
0.332757
0.344964
0.372948
0.41008
0.452293
0.498264
0.547355
0.599149
0.653386
0.709897
0.768559
0.82928
0.891992
0.956639
1.02317
1.09156
1.16174
1.23369
1.30736
1.38269
1.45963
1.53813
1.61812
1.69952
1.78227
1.86628
1.95147
2.03774
2.12501
2.21316
2.3021
2.39171
2.4819
2.57254
2.66352
2.75472
2.84604
2.93734
3.02852
3.11946
3.21004
3.30015
3.38968
3.47851
3.56653
3.65365
3.73975
3.82475
3.90854
3.99102
4.07212
4.15175
4.22982
4.30625
4.38098
4.45393
4.52504
4.59425
4.6615
4.72673
4.7899
4.85095
4.90986
4.96658
5.02107
5.0733
5.12326
5.1709
5.21621
5.25917
5.29977
5.33799
5.37383
5.40727
5.43831
5.46695
5.49319
5.51704
5.53851
5.55762
5.57437
5.58878
5.60085
5.61059
5.61801
5.62312
5.62594
5.6265
5.6248
5.62088
5.61476
5.60645
5.596
5.58343
5.56876
5.55203
5.53327
5.51251
5.48978
5.46512
5.43857
5.41016
5.37992
5.34789
5.31411
5.27862
5.24145
5.20264
5.16222
5.12024
5.07674
5.03173
4.98528
4.9374
4.88815
4.83754
4.78563
4.73243
4.678
4.62237
4.56556
4.50762
4.44858
4.38847
4.32734
4.26521
4.20212
4.13811
4.07322
4.00748
3.94093
3.87361
3.80555
3.73681
3.66742
3.59743
3.52687
3.45579
3.38424
3.31227
3.23991
3.16722
3.09426
3.02106
2.94768
2.87418
2.80061
2.72701
2.65345
2.57999
2.50667
2.43356
2.36071
2.28817
2.21602
2.1443
2.07307
2.00239
1.93232
1.86292
1.79423
1.72633
1.65925
1.59307
1.52782
1.46357
1.40037
1.33826
1.27728
1.2175
1.15895
1.10168
1.04571
0.991099
0.93787
0.886058
0.83569
0.786793
0.739391
0.693504
0.649154
0.606361
0.565148
0.525545
0.487598
0.451376
0.41699
0.384584
0.354154
0.324839
0.298067
0.272437
0.248368
0.227041
0.209966
0.202481
0.214703
0.299507
0.291678
0.339985
0.33254
0.345126
0.372991
0.410046
0.452243
0.498214
0.547306
0.5991
0.653337
0.709848
0.76851
0.829231
0.891942
0.956588
1.02312
1.09151
1.16169
1.23364
1.3073
1.38263
1.45958
1.53807
1.61806
1.69947
1.78222
1.86623
1.95142
2.03769
2.12495
2.2131
2.30204
2.39166
2.48184
2.57248
2.66346
2.75467
2.84599
2.93729
3.02847
3.11941
3.20999
3.3001
3.38963
3.47846
3.56649
3.6536
3.73971
3.82471
3.9085
3.99098
4.07208
4.15171
4.22978
4.30621
4.38094
4.4539
4.52501
4.59422
4.66146
4.7267
4.78987
4.85092
4.90983
4.96655
5.02104
5.07328
5.12323
5.17087
5.21619
5.25915
5.29975
5.33797
5.37381
5.40725
5.43829
5.46693
5.49317
5.51702
5.5385
5.5576
5.57436
5.58877
5.60084
5.61058
5.618
5.62311
5.62593
5.62649
5.6248
5.62087
5.61475
5.60645
5.596
5.58342
5.56876
5.55203
5.53327
5.51251
5.48978
5.46512
5.43857
5.41016
5.37992
5.34789
5.31412
5.27862
5.24145
5.20264
5.16223
5.12025
5.07674
5.03174
4.98528
4.93741
4.88815
4.83755
4.78563
4.73244
4.67801
4.62238
4.56557
4.50763
4.44859
4.38848
4.32735
4.26522
4.20213
4.13812
4.07323
4.00749
3.94094
3.87362
3.80557
3.73683
3.66744
3.59744
3.52688
3.45581
3.38426
3.31228
3.23992
3.16724
3.09427
3.02107
2.9477
2.87419
2.80062
2.72702
2.65347
2.58
2.50668
2.43357
2.36072
2.28818
2.21603
2.14431
2.07308
2.0024
1.93233
1.86293
1.79424
1.72634
1.65926
1.59308
1.52783
1.46358
1.40038
1.33826
1.27729
1.21751
1.15896
1.10168
1.04572
0.991105
0.937876
0.886063
0.835695
0.786798
0.739396
0.693509
0.649159
0.606365
0.565152
0.525549
0.487601
0.451379
0.416993
0.384596
0.354178
0.324798
0.298106
0.272556
0.247944
0.226853
0.209905
0.20248
0.21479
0.299496
0.325181
0.412408
0.391932
0.391026
0.410465
0.441104
0.478322
0.520141
0.565582
0.614064
0.665209
0.71876
0.774527
0.832373
0.89219
0.953894
1.01742
1.0827
1.14968
1.21833
1.28858
1.36039
1.4337
1.50847
1.58463
1.66212
1.74088
1.82082
1.90189
1.98399
2.06703
2.15094
2.23561
2.32095
2.40686
2.49323
2.57996
2.66694
2.75406
2.84121
2.92828
3.01517
3.10175
3.18793
3.2736
3.35864
3.44296
3.52645
3.60902
3.69057
3.771
3.85023
3.92816
4.00472
4.07983
4.15341
4.22538
4.29568
4.36424
4.43101
4.49593
4.55893
4.61998
4.67903
4.73603
4.79094
4.84374
4.89438
4.94284
4.9891
5.03313
5.07491
5.11443
5.15167
5.18661
5.21926
5.24961
5.27765
5.30338
5.32681
5.34795
5.36679
5.38336
5.39766
5.4097
5.41949
5.42704
5.43236
5.43547
5.43638
5.43512
5.43171
5.42616
5.41851
5.40877
5.39698
5.38316
5.36734
5.34955
5.32982
5.30818
5.28467
5.25931
5.23215
5.20322
5.17255
5.14018
5.10614
5.07047
5.0332
4.99438
4.95403
4.91219
4.8689
4.82419
4.77811
4.73068
4.68193
4.63191
4.58065
4.52818
4.47454
4.41976
4.36388
4.30692
4.24893
4.18994
4.12998
4.06909
4.0073
3.94465
3.88118
3.81692
3.75191
3.68619
3.61981
3.55279
3.48518
3.41703
3.34837
3.27925
3.20972
3.13982
3.0696
2.99911
2.92839
2.8575
2.78649
2.71542
2.64432
2.57326
2.50229
2.43147
2.36085
2.29049
2.22044
2.15077
2.08151
2.01275
1.94452
1.87689
1.80991
1.74364
1.67813
1.61344
1.54962
1.48672
1.42479
1.36389
1.30406
1.24535
1.1878
1.13146
1.07636
1.02254
0.970042
0.918894
0.869127
0.82077
0.773847
0.728383
0.684399
0.64192
0.600968
0.56157
0.523759
0.487578
0.453083
0.420346
0.389459
0.360485
0.333317
0.308168
0.285169
0.264898
0.248605
0.238662
0.239822
0.26055
0.336109
0.32512
0.412478
0.39149
0.391061
0.410509
0.441092
0.478283
0.520095
0.565534
0.614016
0.665161
0.718711
0.774479
0.832324
0.89214
0.953844
1.01737
1.08265
1.14963
1.21828
1.28853
1.36034
1.43365
1.50842
1.58458
1.66207
1.74082
1.82077
1.90184
1.98393
2.06698
2.15089
2.23556
2.3209
2.40681
2.49318
2.57991
2.66689
2.75401
2.84116
2.92824
3.01512
3.10171
3.18789
3.27355
3.3586
3.44292
3.52641
3.60898
3.69053
3.77096
3.85019
3.92813
4.00469
4.0798
4.15337
4.22535
4.29565
4.36422
4.43099
4.4959
4.55891
4.61996
4.679
4.736
4.79092
4.84372
4.89436
4.94283
4.98908
5.03311
5.0749
5.11441
5.15165
5.1866
5.21925
5.2496
5.27764
5.30338
5.32681
5.34794
5.36679
5.38336
5.39766
5.4097
5.41949
5.42704
5.43236
5.43547
5.43639
5.43513
5.43171
5.42617
5.41851
5.40878
5.39699
5.38316
5.36734
5.34955
5.32982
5.30819
5.28468
5.25932
5.23216
5.20323
5.17256
5.14019
5.10615
5.07048
5.03321
4.99439
4.95404
4.9122
4.86891
4.82421
4.77812
4.73069
4.68195
4.63193
4.58067
4.5282
4.47456
4.41978
4.36389
4.30694
4.24895
4.18995
4.12999
4.0691
4.00731
3.94467
3.88119
3.81694
3.75193
3.68621
3.61982
3.5528
3.4852
3.41704
3.34839
3.27927
3.20974
3.13984
3.06962
2.99912
2.92841
2.85752
2.78651
2.71543
2.64434
2.57328
2.50231
2.43149
2.36087
2.29051
2.22046
2.15078
2.08153
2.01276
1.94453
1.8769
1.80992
1.74365
1.67814
1.61345
1.54963
1.48673
1.42481
1.3639
1.30407
1.24536
1.18781
1.13147
1.07637
1.02255
0.97005
0.918902
0.869135
0.820777
0.773854
0.728389
0.684406
0.641926
0.600974
0.561576
0.523765
0.487583
0.453087
0.420351
0.389466
0.360496
0.333316
0.308176
0.285196
0.264855
0.248552
0.238626
0.239979
0.261027
0.336014
0.354924
0.492515
0.456428
0.445415
0.458181
0.484247
0.518309
0.557883
0.601659
0.648856
0.698967
0.75164
0.806621
0.863719
0.922788
0.983713
1.0464
1.11077
1.17676
1.24431
1.31337
1.38387
1.45578
1.52904
1.6036
1.67939
1.75637
1.83446
1.9136
1.99372
2.07474
2.15658
2.23915
2.32237
2.40614
2.49037
2.57496
2.65981
2.74482
2.82988
2.91489
2.99974
3.08433
3.16856
3.25231
3.33549
3.418
3.49974
3.5806
3.66051
3.73936
3.81706
3.89353
3.96869
4.04246
4.11476
4.18552
4.25467
4.32215
4.38789
4.45184
4.51394
4.57414
4.6324
4.68868
4.74292
4.79511
4.84519
4.89315
4.93895
4.98258
5.02401
5.06322
5.1002
5.13494
5.16742
5.19765
5.2256
5.25129
5.27472
5.29588
5.31478
5.33144
5.34586
5.35804
5.36801
5.37576
5.38131
5.38468
5.38588
5.38493
5.38186
5.37667
5.3694
5.36007
5.3487
5.33532
5.31996
5.30265
5.28341
5.26229
5.23931
5.21449
5.18789
5.15952
5.12943
5.09764
5.0642
5.02914
4.99249
4.95429
4.91457
4.87337
4.83073
4.78668
4.74125
4.69448
4.6464
4.59706
4.54647
4.49468
4.44173
4.38764
4.33245
4.27619
4.2189
4.16061
4.10136
4.04117
3.9801
3.91817
3.85542
3.79189
3.72761
3.66262
3.59697
3.53068
3.46382
3.3964
3.32849
3.26012
3.19134
3.12219
3.05273
2.98299
2.91303
2.8429
2.77265
2.70233
2.632
2.5617
2.4915
2.42144
2.35159
2.28199
2.21271
2.1438
2.07531
2.00731
1.93985
1.87299
1.80677
1.74127
1.67653
1.6126
1.54954
1.4874
1.42624
1.36609
1.30701
1.24905
1.19224
1.13663
1.08226
1.02916
0.977363
0.926909
0.877824
0.830135
0.783867
0.739044
0.695691
0.653831
0.613492
0.574704
0.537505
0.501939
0.468066
0.43596
0.405715
0.377443
0.351269
0.327439
0.306391
0.289001
0.277078
0.274609
0.290123
0.333998
0.30685
0.354856
0.492005
0.455768
0.445356
0.458191
0.484226
0.518271
0.557838
0.601612
0.648808
0.698919
0.751591
0.806572
0.863669
0.922738
0.983662
1.04635
1.11072
1.17671
1.24426
1.31331
1.38382
1.45573
1.52899
1.60354
1.67934
1.75632
1.83441
1.91355
1.99367
2.07469
2.15653
2.2391
2.32232
2.40609
2.49032
2.57492
2.65977
2.74477
2.82983
2.91484
2.9997
3.08429
3.16851
3.25227
3.33545
3.41796
3.4997
3.58057
3.66047
3.73932
3.81702
3.8935
3.96866
4.04243
4.11473
4.18549
4.25464
4.32212
4.38786
4.45181
4.51391
4.57412
4.63238
4.68866
4.7429
4.79509
4.84517
4.89313
4.93894
4.98257
5.024
5.06321
5.10019
5.13493
5.16741
5.19764
5.22559
5.25129
5.27471
5.29587
5.31478
5.33144
5.34585
5.35804
5.36801
5.37576
5.38131
5.38468
5.38588
5.38494
5.38186
5.37667
5.3694
5.36007
5.3487
5.33532
5.31997
5.30266
5.28342
5.2623
5.23931
5.2145
5.1879
5.15953
5.12944
5.09766
5.06421
5.02915
4.9925
4.9543
4.91458
4.87339
4.83074
4.78669
4.74126
4.69449
4.64642
4.59707
4.54649
4.4947
4.44174
4.38765
4.33246
4.2762
4.21891
4.16062
4.10137
4.04119
3.98012
3.91819
3.85544
3.7919
3.72762
3.66264
3.59698
3.5307
3.46383
3.39642
3.32851
3.26014
3.19136
3.12221
3.05274
2.98301
2.91305
2.84292
2.77267
2.70235
2.63202
2.56172
2.49152
2.42146
2.3516
2.28201
2.21273
2.14381
2.07533
2.00733
1.93987
1.873
1.80679
1.74128
1.67654
1.61261
1.54955
1.48742
1.42625
1.3661
1.30702
1.24906
1.19225
1.13664
1.08227
1.02916
0.977371
0.926917
0.877832
0.830143
0.783874
0.739051
0.695698
0.653838
0.613499
0.57471
0.53751
0.501944
0.468071
0.435964
0.405719
0.377448
0.351272
0.327441
0.306392
0.288978
0.277032
0.274638
0.29071
0.334248
0.306817
1.77855
0.704858
0.542263
0.508197
0.513509
0.535967
0.568054
0.606577
0.649885
0.696995
0.747269
0.800264
0.855659
0.913213
0.972739
1.03409
1.09715
1.16181
1.228
1.29565
1.3647
1.43509
1.50676
1.57968
1.65379
1.72904
1.80537
1.88274
1.96108
2.04033
2.12041
2.20127
2.28282
2.36498
2.44767
2.5308
2.61428
2.69802
2.78191
2.86587
2.9498
3.03358
3.11713
3.20034
3.28311
3.36534
3.44693
3.52779
3.60782
3.68693
3.76502
3.84201
3.91781
3.99235
4.06553
4.13729
4.20755
4.27625
4.34331
4.40868
4.4723
4.5341
4.59405
4.65209
4.70818
4.76228
4.81434
4.86434
4.91224
4.95801
5.00163
5.04308
5.08234
5.11939
5.15422
5.18681
5.21716
5.24526
5.27111
5.29471
5.31605
5.33515
5.352
5.36662
5.37902
5.3892
5.39717
5.40295
5.40654
5.40798
5.40726
5.40442
5.39947
5.39244
5.38334
5.3722
5.35906
5.34393
5.32684
5.30783
5.28692
5.26415
5.23954
5.21314
5.18496
5.15505
5.12345
5.09017
5.05527
5.01877
4.98071
4.94112
4.90005
4.85751
4.81356
4.76822
4.72153
4.67353
4.62424
4.57371
4.52196
4.46903
4.41496
4.35978
4.30352
4.24622
4.18792
4.12864
4.06843
4.00732
3.94534
3.88253
3.81894
3.75459
3.68954
3.6238
3.55744
3.49048
3.42298
3.35497
3.28651
3.21762
3.14837
3.0788
3.00895
2.93889
2.86865
2.79829
2.72786
2.65742
2.58701
2.5167
2.44653
2.37657
2.30688
2.23749
2.16849
2.09991
2.03182
1.96428
1.89733
1.83105
1.76548
1.70067
1.63669
1.57358
1.51139
1.45019
1.39
1.33089
1.27289
1.21606
1.16042
1.10602
1.05289
1.00106
0.950576
0.901453
0.85372
0.807404
0.762529
0.719119
0.677202
0.636807
0.59797
0.560734
0.525152
0.491295
0.459252
0.429146
0.401141
0.375472
0.352509
0.332871
0.317678
0.309185
0.312482
0.338986
0.398973
0.320428
1.77782
0.704049
0.542141
0.508305
0.513548
0.53595
0.568016
0.606533
0.649838
0.696947
0.74722
0.800215
0.855609
0.913163
0.972688
1.03404
1.09709
1.16176
1.22795
1.2956
1.36464
1.43503
1.50671
1.57963
1.65374
1.72898
1.80532
1.88269
1.96103
2.04027
2.12036
2.20122
2.28277
2.36493
2.44762
2.53075
2.61423
2.69797
2.78187
2.86583
2.94975
3.03354
3.11709
3.2003
3.28307
3.3653
3.44689
3.52775
3.60778
3.68689
3.76498
3.84197
3.91778
3.99231
4.0655
4.13726
4.20752
4.27622
4.34328
4.40865
4.47227
4.53408
4.59403
4.65207
4.70816
4.76225
4.81432
4.86432
4.91222
4.95799
5.00162
5.04307
5.08233
5.11938
5.15421
5.1868
5.21715
5.24525
5.2711
5.2947
5.31604
5.33514
5.352
5.36662
5.37902
5.38919
5.39717
5.40295
5.40654
5.40798
5.40726
5.40442
5.39947
5.39244
5.38334
5.37221
5.35906
5.34393
5.32685
5.30784
5.28693
5.26416
5.23955
5.21314
5.18497
5.15506
5.12346
5.09018
5.05528
5.01878
4.98072
4.94113
4.90006
4.85753
4.81357
4.76823
4.72155
4.67354
4.62425
4.57372
4.52197
4.46904
4.41497
4.35979
4.30354
4.24624
4.18793
4.12866
4.06844
4.00733
3.94535
3.88255
3.81895
3.75461
3.68955
3.62382
3.55746
3.4905
3.423
3.35499
3.28652
3.21764
3.14839
3.07881
3.00897
2.9389
2.86866
2.7983
2.72787
2.65743
2.58702
2.51671
2.44655
2.37659
2.30689
2.23751
2.1685
2.09992
2.03183
1.96429
1.89735
1.83106
1.76549
1.70068
1.6367
1.57359
1.5114
1.4502
1.39001
1.3309
1.2729
1.21607
1.16043
1.10603
1.0529
1.00107
0.950584
0.90146
0.853728
0.807411
0.762535
0.719125
0.677208
0.636813
0.597976
0.560739
0.525157
0.491299
0.459256
0.429149
0.401143
0.375474
0.352509
0.332867
0.317659
0.309138
0.312473
0.33944
0.39844
0.320603
2.0499
0.83125
0.615849
0.572198
0.573814
0.594343
0.625583
0.663999
0.707705
0.755556
0.806799
0.860909
0.917501
0.976285
1.03703
1.09957
1.16374
1.22944
1.29656
1.36503
1.43478
1.50575
1.57788
1.65113
1.72546
1.80081
1.87715
1.95441
2.03256
2.11154
2.19129
2.27175
2.35284
2.43451
2.51666
2.59924
2.68214
2.76528
2.84858
2.93194
3.01527
3.09847
3.18145
3.26411
3.34635
3.42807
3.50919
3.58959
3.6692
3.74792
3.82565
3.90232
3.97783
4.0521
4.12506
4.19663
4.26673
4.3353
4.40226
4.46756
4.53114
4.59293
4.65289
4.71097
4.76712
4.8213
4.87347
4.92359
4.97163
5.01756
5.06136
5.10299
5.14245
5.1797
5.21475
5.24756
5.27814
5.30648
5.33256
5.35639
5.37798
5.39731
5.4144
5.42924
5.44186
5.45225
5.46043
5.46641
5.4702
5.47181
5.47127
5.4686
5.4638
5.45691
5.44794
5.43693
5.42389
5.40885
5.39184
5.37289
5.35203
5.32929
5.3047
5.27829
5.2501
5.22016
5.1885
5.15515
5.12016
5.08356
5.04537
5.00564
4.9644
4.92169
4.87754
4.83198
4.78505
4.73679
4.68723
4.63641
4.58435
4.5311
4.47668
4.42114
4.36451
4.30682
4.24811
4.18841
4.12776
4.0662
4.00376
3.94048
3.8764
3.81156
3.74599
3.67975
3.61286
3.54537
3.47732
3.40876
3.33974
3.27029
3.20047
3.13033
3.05991
2.98926
2.91844
2.8475
2.77649
2.70546
2.63447
2.56357
2.49283
2.42229
2.35202
2.28207
2.21249
2.14336
2.07471
2.00662
1.93914
1.87232
1.80622
1.74089
1.6764
1.61279
1.55011
1.48841
1.42775
1.36816
1.3097
1.2524
1.1963
1.14144
1.08785
1.03557
0.984625
0.935041
0.886846
0.840065
0.794722
0.750844
0.70846
0.667603
0.628314
0.590644
0.554656
0.520435
0.488095
0.457789
0.429734
0.404244
0.3818
0.363175
0.349705
0.343977
0.352067
0.393124
0.55779
1.57999
2.05033
0.829811
0.616005
0.572317
0.573823
0.59431
0.625539
0.663952
0.707657
0.755507
0.806749
0.860858
0.91745
0.976234
1.03698
1.09952
1.16369
1.22939
1.29651
1.36498
1.43473
1.50569
1.57783
1.65108
1.7254
1.80076
1.87709
1.95436
2.03251
2.11149
2.19124
2.27169
2.35279
2.43445
2.51661
2.59918
2.68209
2.76523
2.84853
2.93189
3.01522
3.09843
3.1814
3.26406
3.3463
3.42803
3.50914
3.58955
3.66916
3.74788
3.82561
3.90228
3.97779
4.05207
4.12503
4.1966
4.2667
4.33527
4.40223
4.46753
4.53111
4.59291
4.65287
4.71095
4.7671
4.82128
4.87345
4.92357
4.97161
5.01754
5.06134
5.10298
5.14243
5.17969
5.21473
5.24755
5.27813
5.30646
5.33255
5.35639
5.37797
5.3973
5.41439
5.42924
5.44185
5.45224
5.46042
5.4664
5.47019
5.47181
5.47127
5.4686
5.4638
5.45691
5.44794
5.43693
5.42389
5.40885
5.39184
5.37289
5.35203
5.32929
5.3047
5.2783
5.25011
5.22016
5.1885
5.15516
5.12017
5.08356
5.04538
5.00565
4.96441
4.9217
4.87755
4.83199
4.78506
4.7368
4.68724
4.63642
4.58436
4.53111
4.47669
4.42115
4.36452
4.30683
4.24812
4.18842
4.12777
4.06621
4.00377
3.9405
3.87642
3.81157
3.74601
3.67976
3.61287
3.54538
3.47733
3.40878
3.33975
3.27031
3.20049
3.13034
3.05992
2.98928
2.91846
2.84751
2.7765
2.70547
2.63448
2.56359
2.49284
2.4223
2.35203
2.28208
2.21251
2.14337
2.07472
2.00663
1.93915
1.87233
1.80623
1.7409
1.67641
1.6128
1.55012
1.48842
1.42776
1.36817
1.30971
1.2524
1.19631
1.14145
1.08786
1.03558
0.984632
0.935048
0.886853
0.840071
0.794728
0.75085
0.708466
0.667609
0.62832
0.590648
0.55466
0.520439
0.488098
0.457792
0.429736
0.404246
0.3818
0.363173
0.3497
0.343968
0.352056
0.393121
0.55862
1.5812
2.54078
0.98938
0.694821
0.639606
0.63881
0.65866
0.690014
0.729103
0.773888
0.823106
0.875913
0.931712
0.990059
1.05062
1.11312
1.17735
1.24315
1.31037
1.3789
1.44866
1.51956
1.59154
1.66455
1.73855
1.81349
1.88933
1.96603
2.04356
2.12187
2.20092
2.28065
2.36102
2.44197
2.52343
2.60534
2.68762
2.77021
2.85302
2.93597
3.01898
3.10195
3.1848
3.26743
3.34975
3.43166
3.51308
3.59391
3.67406
3.75343
3.83193
3.90948
3.98599
4.06137
4.13554
4.20842
4.27994
4.35001
4.41858
4.48558
4.55093
4.61458
4.67647
4.73655
4.79476
4.85106
4.90541
4.95776
5.00808
5.05633
5.10248
5.14651
5.18838
5.22808
5.26558
5.30087
5.33394
5.36477
5.39336
5.41969
5.44377
5.46559
5.48515
5.50246
5.51752
5.53033
5.54092
5.54927
5.55542
5.55936
5.56111
5.56069
5.55812
5.55342
5.5466
5.5377
5.52672
5.5137
5.49867
5.48164
5.46266
5.44174
5.41893
5.39424
5.36771
5.33938
5.30927
5.27743
5.24388
5.20866
5.1718
5.13334
5.09331
5.05175
5.00869
4.96417
4.91822
4.87088
4.82218
4.77216
4.72085
4.66829
4.61451
4.55955
4.50345
4.44623
4.38794
4.3286
4.26826
4.20696
4.14472
4.08159
4.0176
3.9528
3.88722
3.82091
3.7539
3.68624
3.61796
3.54913
3.47977
3.40993
3.33967
3.26903
3.19805
3.12679
3.05531
2.98365
2.91186
2.84
2.76812
2.69629
2.62454
2.55296
2.48158
2.41047
2.33968
2.26928
2.19932
2.12986
2.06096
1.99267
1.92506
1.85817
1.79207
1.7268
1.66243
1.599
1.53656
1.47516
1.41484
1.35565
1.29762
1.2408
1.18523
1.13092
1.07792
1.02626
0.975953
0.927033
0.879522
0.833448
0.788836
0.74572
0.704135
0.664129
0.625759
0.589103
0.554261
0.521369
0.490615
0.462261
0.43669
0.414479
0.396545
0.384415
0.380737
0.39
0.418232
0.463156
0.288115
2.54178
0.989527
0.696671
0.640125
0.638872
0.658625
0.689965
0.729053
0.773838
0.823055
0.875862
0.93166
0.990006
1.05056
1.11306
1.1773
1.24309
1.31031
1.37885
1.4486
1.5195
1.59148
1.6645
1.73849
1.81343
1.88927
1.96598
2.04351
2.12182
2.20086
2.2806
2.36097
2.44191
2.52337
2.60528
2.68757
2.77016
2.85297
2.93592
3.01893
3.1019
3.18475
3.26738
3.3497
3.43162
3.51304
3.59387
3.67402
3.75339
3.83189
3.90944
3.98595
4.06133
4.1355
4.20838
4.2799
4.34998
4.41855
4.48554
4.5509
4.61455
4.67644
4.73652
4.79473
4.85104
4.90539
4.95774
5.00806
5.05631
5.10246
5.14649
5.18836
5.22806
5.26556
5.30086
5.33393
5.36476
5.39334
5.41968
5.44376
5.46558
5.48514
5.50245
5.51751
5.53033
5.54091
5.54927
5.55541
5.55935
5.56111
5.56069
5.55812
5.55342
5.5466
5.5377
5.52672
5.5137
5.49867
5.48165
5.46266
5.44175
5.41893
5.39424
5.36772
5.33938
5.30928
5.27744
5.24388
5.20866
5.1718
5.13334
5.09331
5.05175
5.00869
4.96417
4.91822
4.87088
4.82219
4.77217
4.72086
4.6683
4.61452
4.55956
4.50346
4.44624
4.38795
4.32861
4.26827
4.20697
4.14473
4.0816
4.01761
3.95281
3.88723
3.82092
3.75391
3.68625
3.61798
3.54914
3.47978
3.40994
3.33968
3.26904
3.19806
3.12681
3.05532
2.98366
2.91187
2.84001
2.76813
2.6963
2.62456
2.55297
2.48159
2.41048
2.33969
2.26929
2.19933
2.12987
2.06097
1.99268
1.92506
1.85818
1.79208
1.72681
1.66244
1.59901
1.53657
1.47516
1.41485
1.35565
1.29763
1.24081
1.18523
1.13093
1.07793
1.02626
0.975959
0.927038
0.879528
0.833453
0.788842
0.745725
0.70414
0.664133
0.625764
0.589107
0.554264
0.521372
0.490617
0.462263
0.436691
0.414479
0.396546
0.384433
0.380856
0.390522
0.419844
0.464669
0.288179
1.87263
0.92379
0.75146
0.708988
0.70896
0.729047
0.761169
0.801504
0.847889
0.898959
0.953788
1.01171
1.07223
1.13496
1.1996
1.26591
1.33368
1.40277
1.47303
1.54438
1.61673
1.69001
1.76416
1.83915
1.91494
1.9915
2.06878
2.14677
2.22542
2.30471
2.3846
2.46504
2.54598
2.62737
2.70916
2.79128