/*--------------------------------*- C++ -*----------------------------------*\
  =========                 |
  \\      /  F ield         | OpenFOAM: The Open Source CFD Toolbox
   \\    /   O peration     | Website:  https://openfoam.org
    \\  /    A nd           | Version:  8
     \\/     M anipulation  |
\*---------------------------------------------------------------------------*/
FoamFile
{
    version     2.0;
    format      ascii;
    class       volScalarField;
    location    "700";
    object      k;
}
// * * * * * * * * * * * * * * * * * * * * * * * * * * * * * * * * * * * * * //

dimensions      [0 2 -2 0 0 0 0];

internalField   nonuniform List<scalar> 
48000
(
0.0136755
0.0168619
0.0174736
0.0194519
0.0234303
0.0215425
0.0242237
0.0270091
0.0296983
0.0323019
0.0348629
0.0374175
0.0399413
0.0424433
0.0449257
0.0473912
0.0498418
0.0522792
0.0547042
0.0571174
0.0595189
0.0619088
0.0642869
0.0666526
0.0690056
0.071345
0.0736703
0.0759804
0.0782746
0.0805519
0.0828111
0.0850512
0.0872711
0.0894695
0.0916453
0.0937973
0.0959243
0.0980249
0.100098
0.102142
0.104157
0.10614
0.108092
0.110009
0.111893
0.113741
0.115552
0.117326
0.119062
0.120759
0.122415
0.124032
0.125607
0.127139
0.12863
0.130077
0.131481
0.132841
0.134157
0.135429
0.136655
0.137837
0.138973
0.140064
0.141109
0.142109
0.143064
0.143973
0.144837
0.145655
0.146428
0.147156
0.147839
0.148477
0.149071
0.14962
0.150126
0.150587
0.151004
0.151378
0.151709
0.152
0.15225
0.152458
0.152626
0.152751
0.152837
0.152881
0.152886
0.152851
0.152777
0.152663
0.152512
0.152322
0.152095
0.151831
0.15153
0.151193
0.15082
0.150412
0.149969
0.149491
0.14898
0.148435
0.147858
0.147247
0.146605
0.145931
0.145226
0.144489
0.143723
0.142926
0.1421
0.141245
0.14036
0.139447
0.138506
0.137537
0.13654
0.135517
0.134466
0.133388
0.132285
0.131155
0.129999
0.128818
0.127612
0.12638
0.125124
0.123844
0.12254
0.121212
0.119861
0.118487
0.11709
0.115672
0.114231
0.112769
0.111285
0.109782
0.108258
0.106714
0.105152
0.103571
0.101972
0.100355
0.0987222
0.0970728
0.0954079
0.093728
0.092034
0.0903265
0.0886062
0.0868739
0.0851303
0.0833762
0.0816124
0.0798396
0.0780588
0.0762707
0.0744762
0.0726761
0.0708714
0.0690627
0.0672511
0.0654374
0.0636225
0.0618073
0.0599926
0.0581794
0.0563686
0.0545609
0.0527573
0.0509587
0.0491658
0.0473796
0.0456007
0.04383
0.0420682
0.040316
0.0385737
0.036842
0.0351211
0.0334112
0.0317122
0.0300243
0.0283484
0.0266838
0.0250495
0.0234452
0.0222433
0.0261641
0.0234795
0.021738
0.0198811
0.0189394
0.0199562
0.0177005
0.0143045
0.0106993
0.0136756
0.0168583
0.0174724
0.0194617
0.0234379
0.0215414
0.0242236
0.0270098
0.0296991
0.0323028
0.0348637
0.0374183
0.0399421
0.042444
0.0449264
0.0473919
0.0498425
0.0522799
0.0547049
0.057118
0.0595196
0.0619094
0.0642874
0.0666532
0.069006
0.0713455
0.0736707
0.0759808
0.078275
0.0805522
0.0828114
0.0850515
0.0872713
0.0894698
0.0916456
0.0937976
0.0959245
0.0980251
0.100098
0.102143
0.104157
0.10614
0.108092
0.110009
0.111893
0.113741
0.115552
0.117326
0.119062
0.120759
0.122415
0.124032
0.125606
0.127139
0.12863
0.130077
0.131481
0.132841
0.134157
0.135428
0.136655
0.137836
0.138973
0.140064
0.141109
0.142109
0.143064
0.143973
0.144836
0.145655
0.146428
0.147156
0.147839
0.148477
0.149071
0.14962
0.150125
0.150586
0.151004
0.151378
0.151708
0.151999
0.152249
0.152458
0.152625
0.152751
0.152836
0.152881
0.152885
0.15285
0.152776
0.152663
0.152511
0.152322
0.152095
0.15183
0.151529
0.151192
0.150819
0.150411
0.149968
0.149491
0.148979
0.148435
0.147857
0.147247
0.146604
0.14593
0.145225
0.144489
0.143722
0.142926
0.142099
0.141244
0.14036
0.139447
0.138506
0.137536
0.13654
0.135516
0.134465
0.133388
0.132284
0.131154
0.129998
0.128817
0.127611
0.12638
0.125124
0.123844
0.12254
0.121212
0.119861
0.118487
0.11709
0.115671
0.11423
0.112768
0.111285
0.109781
0.108257
0.106714
0.105151
0.10357
0.101971
0.100355
0.0987217
0.0970723
0.0954074
0.0937276
0.0920336
0.090326
0.0886058
0.0868734
0.0851298
0.0833757
0.0816119
0.0798392
0.0780584
0.0762703
0.0744758
0.0726758
0.070871
0.0690624
0.0672508
0.0654371
0.0636222
0.061807
0.0599923
0.0581792
0.0563683
0.0545606
0.0527571
0.0509584
0.0491656
0.0473793
0.0456005
0.0438298
0.042068
0.0403158
0.0385736
0.0368419
0.035121
0.0334111
0.0317121
0.0300242
0.0283484
0.0266838
0.0250497
0.023445
0.0222385
0.0261259
0.0233552
0.021511
0.0212616
0.0187546
0.0199133
0.0176903
0.0143028
0.0106997
0.0176296
0.0234107
0.0290208
0.035101
0.0420434
0.0478968
0.0537242
0.0594816
0.0651472
0.0706961
0.0761593
0.0815602
0.086912
0.0922253
0.0975082
0.102767
0.108005
0.113225
0.11843
0.12362
0.128795
0.133955
0.139098
0.144224
0.149331
0.154417
0.159479
0.164515
0.169524
0.174501
0.179445
0.184351
0.189219
0.194043
0.198822
0.203553
0.208231
0.212855
0.217421
0.221926
0.226367
0.230743
0.235049
0.239283
0.243443
0.247526
0.25153
0.255453
0.259293
0.263048
0.266715
0.270294
0.273782
0.277179
0.280483
0.283692
0.286806
0.289824
0.292744
0.295567
0.298291
0.300916
0.303442
0.305869
0.308195
0.310421
0.312547
0.314573
0.316499
0.318325
0.320051
0.321678
0.323206
0.324635
0.325966
0.327199
0.328335
0.329374
0.330317
0.331163
0.331914
0.332568
0.333131
0.333602
0.333981
0.334271
0.33447
0.334581
0.334603
0.334538
0.334386
0.334149
0.333827
0.333422
0.332934
0.332364
0.331713
0.330983
0.330173
0.329286
0.328322
0.327283
0.326168
0.32498
0.32372
0.322387
0.320984
0.319511
0.317969
0.316359
0.314682
0.312939
0.31113
0.309258
0.307321
0.305322
0.30326
0.301137
0.298954
0.29671
0.294408
0.292047
0.289627
0.287151
0.284618
0.282029
0.279385
0.276686
0.273933
0.271127
0.268268
0.265358
0.262396
0.259384
0.256323
0.253213
0.250055
0.246851
0.2436
0.240305
0.236966
0.233584
0.230161
0.226697
0.223194
0.219653
0.216076
0.212464
0.208817
0.205139
0.20143
0.197692
0.193927
0.190135
0.18632
0.182482
0.178624
0.174747
0.170853
0.166944
0.163023
0.15909
0.155148
0.151199
0.147245
0.143287
0.139329
0.135372
0.131419
0.12747
0.123529
0.119597
0.115677
0.11177
0.107878
0.104004
0.100149
0.0963155
0.0925042
0.0887168
0.0849547
0.0812185
0.077509
0.0738261
0.0701696
0.0665386
0.0629322
0.0593499
0.0557958
0.0522844
0.0488777
0.0456509
0.0412881
0.037674
0.0341315
0.0306764
0.0275719
0.0237715
0.0193294
0.0143277
0.0176378
0.0234173
0.0290196
0.0351013
0.0420423
0.0478964
0.0537247
0.0594822
0.0651478
0.0706965
0.0761596
0.0815605
0.0869122
0.0922255
0.0975083
0.102767
0.108005
0.113225
0.11843
0.12362
0.128795
0.133955
0.139098
0.144224
0.149331
0.154416
0.159479
0.164515
0.169523
0.174501
0.179444
0.184351
0.189218
0.194043
0.198822
0.203552
0.20823
0.212854
0.21742
0.221925
0.226367
0.230742
0.235048
0.239282
0.243442
0.247525
0.251529
0.255452
0.259292
0.263047
0.266714
0.270293
0.273781
0.277178
0.280481
0.283691
0.286805
0.289822
0.292743
0.295566
0.29829
0.300915
0.303441
0.305867
0.308193
0.310419
0.312546
0.314571
0.316497
0.318323
0.32005
0.321677
0.323204
0.324634
0.325965
0.327198
0.328334
0.329373
0.330315
0.331162
0.331912
0.332566
0.333129
0.3336
0.33398
0.334269
0.334469
0.334579
0.334601
0.334536
0.334385
0.334147
0.333826
0.33342
0.332932
0.332362
0.331711
0.330981
0.330171
0.329284
0.32832
0.327281
0.326167
0.324979
0.323718
0.322385
0.320982
0.319509
0.317967
0.316357
0.31468
0.312937
0.311129
0.309256
0.307319
0.30532
0.303258
0.301136
0.298952
0.296709
0.294406
0.292045
0.289626
0.287149
0.284616
0.282027
0.279383
0.276684
0.273931
0.271125
0.268267
0.265356
0.262395
0.259383
0.256322
0.253212
0.250054
0.246849
0.243599
0.240304
0.236964
0.233583
0.230159
0.226695
0.223193
0.219652
0.216075
0.212462
0.208816
0.205138
0.201429
0.197691
0.193925
0.190134
0.186319
0.182481
0.178623
0.174746
0.170852
0.166943
0.163021
0.159089
0.155147
0.151198
0.147243
0.143286
0.139328
0.135371
0.131418
0.127469
0.123528
0.119596
0.115676
0.111769
0.107877
0.104003
0.100149
0.0963147
0.0925034
0.0887161
0.084954
0.0812179
0.0775083
0.0738255
0.070169
0.066538
0.0629316
0.0593493
0.055795
0.0522838
0.0488791
0.0456569
0.0413165
0.0378167
0.0346675
0.0306965
0.0275627
0.0237669
0.0193283
0.0143278
0.0222471
0.0305754
0.0391173
0.0473243
0.0553515
0.0629001
0.0702156
0.0773802
0.0844268
0.0913733
0.098241
0.105048
0.111808
0.118532
0.125226
0.131897
0.138548
0.145182
0.1518
0.158403
0.16499
0.171561
0.178114
0.184646
0.191157
0.197643
0.204101
0.210528
0.216922
0.223277
0.229591
0.235861
0.242081
0.248248
0.254358
0.260408
0.266393
0.272309
0.278152
0.283919
0.289605
0.295208
0.300723
0.306148
0.311478
0.316711
0.321844
0.326873
0.331797
0.336612
0.341316
0.345907
0.350384
0.354743
0.358984
0.363104
0.367103
0.370979
0.374731
0.378357
0.381859
0.385233
0.388481
0.391601
0.394593
0.397457
0.400194
0.402802
0.405282
0.407634
0.409859
0.411956
0.413927
0.415771
0.417489
0.419083
0.420551
0.421896
0.423117
0.424215
0.425191
0.426046
0.426781
0.427398
0.427899
0.428283
0.428552
0.428707
0.428749
0.428678
0.428497
0.428206
0.427807
0.4273
0.426686
0.425968
0.425146
0.424222
0.423197
0.422072
0.420848
0.419527
0.418109
0.416597
0.414992
0.413295
0.411506
0.409628
0.407662
0.405608
0.403468
0.401243
0.398934
0.396542
0.394068
0.391514
0.38888
0.386167
0.383377
0.380509
0.377566
0.374547
0.371454
0.368288
0.365049
0.361738
0.358356
0.354905
0.351384
0.347795
0.344139
0.340417
0.336629
0.332777
0.328861
0.324884
0.320845
0.316746
0.312589
0.308374
0.304103
0.299778
0.295399
0.290969
0.286489
0.28196
0.277385
0.272765
0.268102
0.263397
0.258654
0.253874
0.249059
0.244211
0.239332
0.234425
0.229492
0.224536
0.219558
0.214562
0.209549
0.204523
0.199485
0.19444
0.189388
0.184334
0.179278
0.174226
0.169178
0.164138
0.159108
0.154091
0.14909
0.144107
0.139145
0.134206
0.129293
0.124407
0.119551
0.114726
0.109934
0.105176
0.100451
0.0957613
0.0911049
0.086481
0.0818881
0.0773245
0.0727897
0.0682853
0.063813
0.0593105
0.0545549
0.049861
0.045129
0.0402853
0.0354235
0.0303458
0.0249117
0.0191231
0.0222554
0.0305741
0.0391086
0.0473205
0.0553499
0.0628999
0.0702159
0.0773803
0.0844267
0.0913731
0.0982407
0.105048
0.111808
0.118532
0.125226
0.131897
0.138548
0.145182
0.1518
0.158402
0.16499
0.17156
0.178113
0.184646
0.191156
0.197642
0.2041
0.210528
0.216921
0.223276
0.229591
0.23586
0.24208
0.248247
0.254357
0.260407
0.266391
0.272307
0.278151
0.283917
0.289604
0.295207
0.300722
0.306146
0.311477
0.316709
0.321842
0.326871
0.331795
0.33661
0.341314
0.345906
0.350382
0.354741
0.358982
0.363102
0.367101
0.370977
0.374729
0.378356
0.381857
0.385231
0.388479
0.391599
0.394591
0.397455
0.400192
0.4028
0.40528
0.407632
0.409857
0.411954
0.413925
0.415769
0.417487
0.41908
0.420549
0.421893
0.423114
0.424213
0.425189
0.426044
0.426779
0.427396
0.427896
0.428281
0.42855
0.428705
0.428746
0.428676
0.428495
0.428204
0.427804
0.427297
0.426684
0.425966
0.425144
0.42422
0.423195
0.422069
0.420845
0.419524
0.418107
0.416595
0.41499
0.413293
0.411504
0.409626
0.407659
0.405606
0.403466
0.401241
0.398932
0.39654
0.394066
0.391512
0.388878
0.386165
0.383375
0.380507
0.377564
0.374545
0.371452
0.368286
0.365047
0.361736
0.358354
0.354903
0.351382
0.347794
0.344138
0.340415
0.336627
0.332775
0.32886
0.324882
0.320843
0.316744
0.312587
0.308372
0.304101
0.299776
0.295397
0.290967
0.286487
0.281958
0.277383
0.272763
0.2681
0.263396
0.258653
0.253872
0.249057
0.244209
0.239331
0.234424
0.229491
0.224534
0.219557
0.21456
0.209548
0.204521
0.199484
0.194438
0.189387
0.184332
0.179277
0.174224
0.169177
0.164136
0.159107
0.15409
0.149089
0.144106
0.139144
0.134205
0.129292
0.124406
0.11955
0.114726
0.109933
0.105175
0.100451
0.0957606
0.0911042
0.0864803
0.0818874
0.0773237
0.0727889
0.0682849
0.0638145
0.0593142
0.054571
0.0499212
0.0452625
0.0403146
0.0354267
0.0303462
0.024913
0.0191245
0.0235752
0.0370902
0.0479536
0.0574524
0.0663999
0.0749542
0.0832552
0.0913871
0.0993983
0.107319
0.115169
0.122967
0.130722
0.138445
0.14614
0.153812
0.161464
0.169098
0.176715
0.184314
0.191895
0.199457
0.206998
0.214516
0.222008
0.229472
0.236904
0.2443
0.251658
0.258973
0.26624
0.273457
0.280618
0.28772
0.294756
0.301724
0.308619
0.315435
0.322169
0.328817
0.335373
0.341833
0.348194
0.354452
0.360602
0.366642
0.372567
0.378374
0.38406
0.389622
0.395057
0.400362
0.405536
0.410576
0.41548
0.420246
0.424872
0.429357
0.433699
0.437898
0.441953
0.445861
0.449624
0.453239
0.456708
0.460029
0.463203
0.466229
0.469107
0.471838
0.474422
0.476859
0.479149
0.481294
0.483294
0.485148
0.486859
0.488427
0.489853
0.491136
0.49228
0.493283
0.494147
0.494875
0.495468
0.495926
0.496251
0.496444
0.496506
0.496439
0.496243
0.495919
0.495471
0.494897
0.494201
0.493384
0.492446
0.491389
0.490216
0.488926
0.487523
0.486006
0.484379
0.482641
0.480795
0.478843
0.476784
0.474622
0.472357
0.469991
0.467525
0.46496
0.462298
0.45954
0.456687
0.453741
0.450702
0.447571
0.44435
0.44104
0.437642
0.434157
0.430586
0.42693
0.423189
0.419366
0.41546
0.411474
0.407407
0.403262
0.399038
0.394738
0.390363
0.385912
0.381389
0.376794
0.372128
0.367393
0.36259
0.35772
0.352786
0.347789
0.342731
0.337613
0.332437
0.327205
0.32192
0.316583
0.311196
0.305762
0.300283
0.294761
0.289199
0.2836
0.277965
0.272298
0.266602
0.260878
0.25513
0.249362
0.243574
0.237772
0.231958
0.226134
0.220304
0.214472
0.208639
0.20281
0.196987
0.191174
0.185374
0.17959
0.173824
0.16808
0.162361
0.156669
0.151007
0.145377
0.139782
0.134223
0.128701
0.123218
0.117774
0.112369
0.107003
0.101674
0.0963796
0.0911175
0.0858837
0.0806728
0.0754743
0.0702515
0.0649421
0.0595691
0.054095
0.0484693
0.0426687
0.0365974
0.030106
0.0234031
0.0235811
0.0370782
0.0479451
0.0574509
0.0664001
0.0749544
0.0832552
0.0913869
0.0993979
0.107318
0.115169
0.122966
0.130722
0.138444
0.146139
0.153811
0.161463
0.169097
0.176714
0.184313
0.191894
0.199456
0.206997
0.214515
0.222007
0.229471
0.236903
0.244299
0.251657
0.258972
0.266239
0.273456
0.280617
0.287718
0.294755
0.301723
0.308618
0.315434
0.322168
0.328815
0.335371
0.341832
0.348193
0.354451
0.360601
0.36664
0.372565
0.378372
0.384058
0.38962
0.395055
0.400361
0.405535
0.410575
0.415478
0.420244
0.42487
0.429355
0.433698
0.437897
0.441951
0.445859
0.449622
0.453238
0.456706
0.460027
0.463201
0.466227
0.469105
0.471836
0.47442
0.476857
0.479147
0.481292
0.483292
0.485147
0.486858
0.488425
0.489851
0.491135
0.492278
0.493281
0.494145
0.494873
0.495466
0.495924
0.496249
0.496442
0.496504
0.496437
0.496241
0.495918
0.495469
0.494896
0.494199
0.493382
0.492444
0.491387
0.490214
0.488924
0.487521
0.486004
0.484377
0.482639
0.480793
0.478841
0.476783
0.47462
0.472355
0.469989
0.467523
0.464959
0.462297
0.459538
0.456686
0.453739
0.4507
0.447569
0.444349
0.441039
0.437641
0.434155
0.430584
0.426928
0.423187
0.419364
0.415459
0.411472
0.407406
0.40326
0.399037
0.394737
0.390361
0.385911
0.381388
0.376792
0.372126
0.367391
0.362588
0.357719
0.352785
0.347788
0.342729
0.337611
0.332435
0.327204
0.321918
0.316581
0.311195
0.305761
0.300282
0.29476
0.289198
0.283599
0.277964
0.272297
0.2666
0.260877
0.255129
0.24936
0.243573
0.237771
0.231957
0.226133
0.220303
0.21447
0.208638
0.202809
0.196986
0.191173
0.185373
0.179589
0.173823
0.168079
0.16236
0.156668
0.151006
0.145377
0.139781
0.134222
0.1287
0.123217
0.117773
0.112369
0.107002
0.101673
0.096379
0.091117
0.0858832
0.0806726
0.0754749
0.0702525
0.0649455
0.0595814
0.0541198
0.0484782
0.0426711
0.0365996
0.0301098
0.0234072
0.0273915
0.0435051
0.0560834
0.0667259
0.0765627
0.0859541
0.0950678
0.104002
0.112816
0.121544
0.130209
0.138825
0.147403
0.155949
0.164467
0.17296
0.181431
0.18988
0.198307
0.206713
0.215095
0.223452
0.231783
0.240086
0.248358
0.256596
0.264797
0.272957
0.281073
0.289141
0.297157
0.305116
0.313014
0.320846
0.328607
0.336293
0.343899
0.35142
0.358851
0.366187
0.373424
0.380557
0.387582
0.394494
0.401289
0.407962
0.414511
0.420931
0.427218
0.43337
0.439383
0.445254
0.45098
0.45656
0.46199
0.467269
0.472394
0.477364
0.482178
0.486833
0.491329
0.495665
0.49984
0.503853
0.507704
0.511393
0.514918
0.518281
0.52148
0.524517
0.527391
0.530103
0.532653
0.535042
0.53727
0.539339
0.541248
0.542999
0.544592
0.546028
0.547309
0.548435
0.549408
0.550229
0.5509
0.551421
0.551795
0.552023
0.552105
0.552043
0.551839
0.551494
0.55101
0.550387
0.549628
0.548734
0.547707
0.546548
0.545258
0.54384
0.542295
0.540625
0.538831
0.536915
0.534879
0.532724
0.530451
0.528063
0.52556
0.522945
0.520219
0.517382
0.514438
0.511387
0.50823
0.504969
0.501604
0.498139
0.494572
0.490907
0.487143
0.483283
0.479327
0.475276
0.471132
0.466895
0.462568
0.45815
0.453643
0.449049
0.444368
0.439602
0.434752
0.429819
0.424805
0.419711
0.414539
0.40929
0.403966
0.398568
0.393099
0.38756
0.381952
0.376279
0.370542
0.364743
0.358885
0.352969
0.346999
0.340976
0.334903
0.328784
0.32262
0.316415
0.310171
0.303892
0.29758
0.291238
0.284871
0.27848
0.272069
0.265643
0.259203
0.252753
0.246298
0.239839
0.233382
0.226929
0.220483
0.214049
0.20763
0.201228
0.194848
0.188492
0.182163
0.175865
0.1696
0.16337
0.157177
0.151024
0.144912
0.138841
0.132812
0.126826
0.12088
0.114974
0.109106
0.10327
0.0974631
0.0916754
0.0858941
0.0800952
0.0742445
0.0683157
0.062265
0.0560254
0.0494868
0.0424409
0.0345007
0.0261216
0.0273895
0.0434921
0.0560796
0.0667274
0.0765639
0.0859544
0.0950676
0.104002
0.112815
0.121543
0.130208
0.138825
0.147402
0.155948
0.164466
0.17296
0.18143
0.189879
0.198307
0.206712
0.215094
0.223451
0.231783
0.240085
0.248357
0.256595
0.264796
0.272956
0.281072
0.28914
0.297156
0.305115
0.313013
0.320845
0.328606
0.336292
0.343898
0.351419
0.35885
0.366186
0.373423
0.380556
0.387581
0.394493
0.401287
0.407961
0.41451
0.420929
0.427217
0.433368
0.439381
0.445252
0.450979
0.456559
0.461989
0.467268
0.472393
0.477363
0.482176
0.486832
0.491328
0.495664
0.499839
0.503852
0.507703
0.511391
0.514917
0.518279
0.521479
0.524515
0.52739
0.530101
0.532652
0.535041
0.537269
0.539337
0.541246
0.542997
0.54459
0.546027
0.547308
0.548434
0.549407
0.550227
0.550898
0.55142
0.551794
0.552021
0.552103
0.552042
0.551838
0.551493
0.551008
0.550386
0.549627
0.548733
0.547705
0.546546
0.545257
0.543839
0.542294
0.540624
0.53883
0.536914
0.534877
0.532722
0.53045
0.528061
0.525559
0.522944
0.520217
0.517381
0.514437
0.511385
0.508228
0.504967
0.501603
0.498137
0.494571
0.490906
0.487142
0.483282
0.479325
0.475275
0.47113
0.466894
0.462566
0.458148
0.453642
0.449047
0.444367
0.4396
0.43475
0.429818
0.424804
0.41971
0.414538
0.409289
0.403965
0.398567
0.393098
0.387559
0.381951
0.376278
0.370541
0.364742
0.358884
0.352968
0.346997
0.340975
0.334902
0.328783
0.322619
0.316414
0.31017
0.303891
0.297579
0.291237
0.28487
0.278479
0.272069
0.265642
0.259202
0.252752
0.246297
0.239839
0.233381
0.226928
0.220483
0.214049
0.207629
0.201228
0.194847
0.188491
0.182163
0.175865
0.169599
0.163369
0.157177
0.151024
0.144911
0.13884
0.132812
0.126825
0.12088
0.114974
0.109105
0.10327
0.0974628
0.0916752
0.0858943
0.0800954
0.0742452
0.0683179
0.0622691
0.0560272
0.0494874
0.0424433
0.0345072
0.0261327
0.0307527
0.0493112
0.0637358
0.0755769
0.0863254
0.0965144
0.106381
0.116052
0.125597
0.135057
0.144455
0.153804
0.163115
0.172391
0.181636
0.190851
0.200037
0.209195
0.218324
0.227422
0.23649
0.245526
0.254527
0.263492
0.272419
0.281304
0.290146
0.298941
0.307685
0.316375
0.325007
0.333576
0.342079
0.35051
0.358865
0.367139
0.375328
0.383425
0.391426
0.399327
0.407122
0.414806
0.422374
0.429823
0.437146
0.444341
0.451403
0.458327
0.46511
0.471748
0.478238
0.484577
0.490761
0.496787
0.502654
0.508359
0.513899
0.519273
0.524479
0.529515
0.53438
0.539073
0.543593
0.54794
0.552111
0.556108
0.559929
0.563575
0.567045
0.57034
0.573459
0.576403
0.579173
0.581769
0.584192
0.586442
0.58852
0.590426
0.592163
0.59373
0.59513
0.596362
0.597428
0.598329
0.599068
0.599646
0.600064
0.600323
0.600425
0.600371
0.600162
0.599801
0.599289
0.598627
0.597817
0.596861
0.59576
0.594517
0.593132
0.591607
0.589945
0.588147
0.586214
0.584149
0.581954
0.579629
0.577176
0.574598
0.571896
0.569071
0.566125
0.563061
0.559878
0.556579
0.553165
0.549638
0.545999
0.54225
0.538391
0.534425
0.530351
0.526173
0.52189
0.517505
0.513018
0.50843
0.503744
0.49896
0.494079
0.489103
0.484033
0.478871
0.473618
0.468275
0.462844
0.457326
0.451723
0.446037
0.44027
0.434423
0.428498
0.422498
0.416424
0.410279
0.404064
0.397783
0.391437
0.38503
0.378563
0.37204
0.365464
0.358837
0.352162
0.345442
0.338681
0.331882
0.325047
0.318182
0.311288
0.30437
0.297431
0.290474
0.283504
0.276524
0.269538
0.26255
0.255563
0.24858
0.241607
0.234646
0.227701
0.220776
0.213873
0.206997
0.20015
0.193335
0.186554
0.179811
0.173107
0.166444
0.159823
0.153245
0.146711
0.140219
0.133769
0.12736
0.120988
0.114649
0.108338
0.102044
0.0957552
0.0894506
0.0831019
0.0766718
0.0701044
0.063309
0.056125
0.0481858
0.0384475
0.0252957
0.030747
0.0493003
0.0637331
0.0755783
0.0863263
0.0965144
0.106381
0.116052
0.125597
0.135057
0.144454
0.153804
0.163114
0.17239
0.181635
0.19085
0.200037
0.209194
0.218323
0.227422
0.236489
0.245525
0.254526
0.263491
0.272418
0.281303
0.290145
0.29894
0.307684
0.316374
0.325006
0.333575
0.342078
0.350509
0.358864
0.367138
0.375326
0.383424
0.391425
0.399326
0.40712
0.414804
0.422373
0.429822
0.437145
0.44434
0.451402
0.458326
0.465109
0.471747
0.478237
0.484575
0.490759
0.496786
0.502653
0.508358
0.513898
0.519272
0.524478
0.529514
0.534379
0.539072
0.543592
0.547938
0.55211
0.556106
0.559928
0.563573
0.567044
0.570338
0.573458
0.576402
0.579172
0.581768
0.584191
0.58644
0.588518
0.590425
0.592162
0.593729
0.595128
0.59636
0.597427
0.598328
0.599067
0.599645
0.600062
0.600322
0.600423
0.600369
0.600161
0.5998
0.599288
0.598626
0.597816
0.59686
0.595759
0.594515
0.59313
0.591606
0.589944
0.588146
0.586213
0.584148
0.581952
0.579627
0.577175
0.574597
0.571895
0.56907
0.566124
0.563059
0.559877
0.556578
0.553164
0.549637
0.545998
0.542249
0.53839
0.534423
0.53035
0.526172
0.521889
0.517504
0.513017
0.508429
0.503743
0.498959
0.494078
0.489102
0.484032
0.47887
0.473617
0.468274
0.462843
0.457325
0.451722
0.446036
0.440269
0.434422
0.428497
0.422497
0.416423
0.410278
0.404063
0.397782
0.391437
0.385029
0.378563
0.37204
0.365463
0.358836
0.352161
0.345441
0.33868
0.331881
0.325047
0.318181
0.311287
0.304369
0.29743
0.290474
0.283504
0.276524
0.269538
0.262549
0.255562
0.24858
0.241607
0.234646
0.227701
0.220775
0.213873
0.206996
0.200149
0.193334
0.186554
0.179811
0.173107
0.166444
0.159823
0.153245
0.14671
0.140219
0.133769
0.12736
0.120988
0.114649
0.108338
0.102044
0.0957552
0.0894506
0.083102
0.0766722
0.0701048
0.0633085
0.0561236
0.0481879
0.0384571
0.0253038
0.0241651
0.0537041
0.0710219
0.0842152
0.095912
0.106903
0.117512
0.127899
0.138148
0.148304
0.158393
0.168429
0.178421
0.188372
0.198284
0.208158
0.217994
0.227791
0.237549
0.247265
0.25694
0.266572
0.27616
0.285701
0.295194
0.304638
0.314028
0.323364
0.332642
0.341859
0.351011
0.360094
0.369104
0.378038
0.38689
0.395655
0.40433
0.412908
0.421385
0.429756
0.438016
0.44616
0.454182
0.462079
0.469845
0.477476
0.484966
0.492313
0.499512
0.506558
0.513449
0.520181
0.52675
0.533154
0.53939
0.545454
0.551345
0.557061
0.5626
0.567959
0.573138
0.578135
0.582949
0.587579
0.592024
0.596284
0.600358
0.604247
0.607949
0.611465
0.614795
0.617939
0.620898
0.623673
0.626263
0.62867
0.630894
0.632936
0.634797
0.636478
0.63798
0.639304
0.640452
0.641425
0.642224
0.642851
0.643308
0.643595
0.643715
0.643669
0.643459
0.643085
0.64255
0.641856
0.641003
0.639995
0.638832
0.637516
0.63605
0.634434
0.632672
0.630764
0.628712
0.626519
0.624186
0.621715
0.619108
0.616366
0.613491
0.610485
0.60735
0.604088
0.600699
0.597185
0.593549
0.589791
0.585914
0.581918
0.577805
0.573576
0.569234
0.564778
0.560211
0.555535
0.550749
0.545856
0.540857
0.535754
0.530547
0.525238
0.519829
0.514321
0.508716
0.503015
0.49722
0.491332
0.485354
0.479287
0.473132
0.466893
0.460572
0.454169
0.447688
0.441131
0.4345
0.427798
0.421028
0.414192
0.407293
0.400334
0.393318
0.386248
0.379128
0.37196
0.364749
0.357497
0.350208
0.342886
0.335535
0.328158
0.320759
0.313341
0.30591
0.298469
0.291021
0.283571
0.276123
0.26868
0.261247
0.253827
0.246423
0.23904
0.231681
0.22435
0.217048
0.209779
0.202546
0.19535
0.188194
0.181079
0.174005
0.166975
0.159987
0.153041
0.146136
0.13927
0.13244
0.125641
0.118868
0.11211
0.105355
0.0985834
0.0917661
0.0848598
0.0777948
0.0704512
0.062609
0.0537798
0.0425823
0.0269075
0.0241607
0.0536958
0.0710209
0.0842169
0.0959128
0.106903
0.117512
0.127899
0.138147
0.148303
0.158392
0.168428
0.17842
0.188371
0.198283
0.208157
0.217993
0.22779
0.237548
0.247265
0.25694
0.266571
0.276159
0.2857
0.295193
0.304637
0.314028
0.323363
0.332641
0.341858
0.35101
0.360093
0.369104
0.378037
0.386889
0.395654
0.404329
0.412907
0.421384
0.429755
0.438015
0.446159
0.454181
0.462078
0.469844
0.477475
0.484965
0.492312
0.499511
0.506557
0.513448
0.52018
0.526749
0.533153
0.539389
0.545453
0.551344
0.55706
0.562599
0.567958
0.573137
0.578134
0.582948
0.587578
0.592023
0.596283
0.600357
0.604245
0.607948
0.611464
0.614794
0.617938
0.620897
0.623672
0.626262
0.628669
0.630892
0.632934
0.634795
0.636477
0.637979
0.639303
0.640451
0.641424
0.642223
0.64285
0.643307
0.643594
0.643714
0.643668
0.643458
0.643084
0.642549
0.641855
0.641002
0.639994
0.638831
0.637515
0.636049
0.634433
0.632671
0.630763
0.628711
0.626518
0.624185
0.621714
0.619107
0.616365
0.61349
0.610484
0.607349
0.604087
0.600698
0.597184
0.593548
0.58979
0.585913
0.581917
0.577804
0.573575
0.569233
0.564777
0.560211
0.555534
0.550748
0.545855
0.540856
0.535753
0.530546
0.525237
0.519828
0.51432
0.508715
0.503014
0.497219
0.491331
0.485353
0.479286
0.473132
0.466893
0.460571
0.454168
0.447687
0.44113
0.434499
0.427797
0.421027
0.414191
0.407292
0.400333
0.393317
0.386247
0.379127
0.37196
0.364748
0.357496
0.350208
0.342886
0.335534
0.328157
0.320758
0.313341
0.30591
0.298468
0.291021
0.283571
0.276122
0.26868
0.261246
0.253826
0.246423
0.23904
0.231681
0.224349
0.217047
0.209779
0.202545
0.19535
0.188193
0.181078
0.174005
0.166974
0.159987
0.153041
0.146136
0.13927
0.13244
0.125641
0.118867
0.11211
0.105355
0.0985834
0.0917661
0.0848599
0.0777946
0.0704505
0.0626074
0.0537803
0.0425883
0.0268984
0.0280534
0.0594746
0.0784335
0.0928177
0.105457
0.117265
0.128627
0.139732
0.150677
0.161515
0.172275
0.182973
0.193615
0.204206
0.214746
0.225236
0.235676
0.246063
0.256396
0.266676
0.276899
0.287067
0.297177
0.307229
0.317222
0.327153
0.337022
0.346826
0.356564
0.366232
0.375828
0.385348
0.39479
0.404148
0.413419
0.422599
0.431682
0.440665
0.449541
0.458307
0.466957
0.475487
0.48389
0.492163
0.5003
0.508297
0.516149
0.523852
0.531401
0.538792
0.546021
0.553086
0.559981
0.566704
0.573252
0.579622
0.585812
0.591819
0.597641
0.603276
0.608723
0.613979
0.619045
0.623918
0.628598
0.633084
0.637375
0.641472
0.645374
0.649081
0.652593
0.65591
0.659033
0.661961
0.664697
0.667239
0.66959
0.671749
0.673718
0.675498
0.67709
0.678495
0.679714
0.680749
0.681601
0.682272
0.682763
0.683076
0.683212
0.683173
0.682961
0.682577
0.682023
0.6813
0.680411
0.679357
0.67814
0.676762
0.675225
0.67353
0.67168
0.669677
0.667522
0.665217
0.662764
0.660165
0.657422
0.654536
0.65151
0.648346
0.645044
0.641607
0.638037
0.634335
0.630503
0.626542
0.622455
0.618242
0.613905
0.609445
0.604865
0.600165
0.595348
0.590413
0.585364
0.580201
0.574926
0.56954
0.564045
0.558442
0.552734
0.54692
0.541004
0.534986
0.528869
0.522654
0.516344
0.509939
0.503443
0.496857
0.490184
0.483426
0.476585
0.469664
0.462666
0.455592
0.448446
0.441232
0.433951
0.426607
0.419203
0.411743
0.404229
0.396666
0.389057
0.381406
0.373717
0.365992
0.358237
0.350455
0.342651
0.334827
0.326989
0.319141
0.311286
0.303429
0.295573
0.287724
0.279884
0.272057
0.264248
0.256459
0.248695
0.240957
0.23325
0.225576
0.217936
0.210333
0.202769
0.195245
0.187761
0.180317
0.172914
0.16555
0.158225
0.150934
0.143677
0.136447
0.129239
0.122043
0.114846
0.107627
0.100356
0.0929828
0.0854248
0.0775307
0.0689976
0.0591074
0.0457375
0.0257945
0.0280443
0.0594706
0.0784353
0.0928193
0.105457
0.117264
0.128626
0.139731
0.150676
0.161515
0.172275
0.182972
0.193614
0.204205
0.214745
0.225236
0.235675
0.246062
0.256395
0.266675
0.276899
0.287066
0.297177
0.307229
0.317221
0.327152
0.337021
0.346825
0.356563
0.366231
0.375827
0.385348
0.394789
0.404147
0.413418
0.422598
0.431681
0.440664
0.44954
0.458306
0.466956
0.475486
0.483889
0.492162
0.500299
0.508296
0.516148
0.523851
0.5314
0.538791
0.54602
0.553085
0.55998
0.566703
0.573251
0.579621
0.585811
0.591818
0.59764
0.603275
0.608722
0.613978
0.619044
0.623917
0.628597
0.633083
0.637374
0.641471
0.645373
0.64908
0.652592
0.655909
0.659032
0.66196
0.664696
0.667238
0.669589
0.671748
0.673717
0.675497
0.677089
0.678494
0.679713
0.680748
0.6816
0.682271
0.682762
0.683075
0.683211
0.683172
0.68296
0.682576
0.682022
0.681299
0.68041
0.679356
0.678139
0.676761
0.675224
0.67353
0.67168
0.669676
0.667521
0.665216
0.662763
0.660164
0.657421
0.654535
0.651509
0.648345
0.645043
0.641607
0.638036
0.634334
0.630502
0.626541
0.622454
0.618241
0.613904
0.609444
0.604864
0.600165
0.595347
0.590413
0.585363
0.580201
0.574925
0.56954
0.564045
0.558442
0.552733
0.546919
0.541003
0.534985
0.528868
0.522653
0.516343
0.509939
0.503443
0.496857
0.490184
0.483426
0.476585
0.469664
0.462665
0.455591
0.448446
0.441231
0.43395
0.426606
0.419202
0.411742
0.404229
0.396666
0.389057
0.381406
0.373716
0.365992
0.358237
0.350455
0.34265
0.334827
0.326989
0.31914
0.311285
0.303428
0.295573
0.287723
0.279883
0.272057
0.264247
0.256459
0.248694
0.240957
0.23325
0.225575
0.217936
0.210333
0.202769
0.195245
0.187761
0.180317
0.172914
0.16555
0.158224
0.150934
0.143677
0.136447
0.129239
0.122043
0.114845
0.107627
0.100356
0.0929829
0.0854247
0.0775305
0.0689977
0.059108
0.045733
0.0257972
0.0362016
0.0646189
0.0855694
0.101359
0.11502
0.127685
0.139824
0.151661
0.163309
0.174828
0.18625
0.197594
0.208868
0.220075
0.231216
0.242292
0.2533
0.264239
0.275108
0.285907
0.296634
0.307289
0.317872
0.328381
0.338818
0.349181
0.35947
0.369683
0.379819
0.389877
0.399854
0.409748
0.419556
0.429274
0.4389
0.448428
0.457856
0.467178
0.476389
0.485486
0.494463
0.503315
0.512037