/*--------------------------------*- C++ -*----------------------------------*\
  =========                 |
  \\      /  F ield         | OpenFOAM: The Open Source CFD Toolbox
   \\    /   O peration     | Website:  https://openfoam.org
    \\  /    A nd           | Version:  8
     \\/     M anipulation  |
\*---------------------------------------------------------------------------*/
FoamFile
{
    version     2.0;
    format      ascii;
    class       volScalarField;
    location    "1800";
    object      alphat;
}
// * * * * * * * * * * * * * * * * * * * * * * * * * * * * * * * * * * * * * //

dimensions      [1 -1 -1 0 0 0 0];

internalField   nonuniform List<scalar> 
46000
(
4.93251e-08
2.56901e-07
5.50575e-07
8.50886e-07
1.1456e-06
1.43447e-06
1.71821e-06
1.99734e-06
2.27215e-06
2.5431e-06
2.80941e-06
3.07076e-06
3.32708e-06
3.57831e-06
3.8244e-06
4.06537e-06
4.3025e-06
4.53479e-06
4.76209e-06
4.9844e-06
5.20169e-06
5.41398e-06
5.62127e-06
5.82357e-06
6.0209e-06
6.21325e-06
6.40063e-06
6.58303e-06
6.76041e-06
6.93274e-06
7.09995e-06
7.26195e-06
7.41866e-06
7.56995e-06
7.71569e-06
7.85574e-06
7.98994e-06
8.11811e-06
8.24007e-06
8.35563e-06
8.4646e-06
8.56677e-06
8.66195e-06
8.74996e-06
8.8306e-06
8.90372e-06
8.96915e-06
9.02676e-06
9.07643e-06
9.11806e-06
9.15158e-06
9.17695e-06
9.19414e-06
9.20316e-06
9.20406e-06
9.19691e-06
9.1818e-06
9.15887e-06
9.12826e-06
9.09016e-06
9.04478e-06
8.9925e-06
8.93433e-06
8.87104e-06
8.80166e-06
8.72639e-06
8.64559e-06
8.55962e-06
8.46886e-06
8.3737e-06
8.27454e-06
8.17179e-06
8.06588e-06
7.9572e-06
7.84617e-06
7.73321e-06
7.61871e-06
7.50306e-06
7.38665e-06
7.26987e-06
7.15308e-06
7.03664e-06
6.92087e-06
6.8061e-06
6.69264e-06
6.58079e-06
6.47082e-06
6.36298e-06
6.25751e-06
6.15463e-06
6.05454e-06
5.95742e-06
5.86342e-06
5.77271e-06
5.68541e-06
5.60164e-06
5.5215e-06
5.44507e-06
5.37242e-06
5.30361e-06
5.23868e-06
5.17762e-06
5.12048e-06
5.06727e-06
5.01798e-06
4.9726e-06
4.93108e-06
4.8934e-06
4.85951e-06
4.82937e-06
4.8029e-06
4.78007e-06
4.76079e-06
4.74498e-06
4.73251e-06
4.72335e-06
4.71739e-06
4.71455e-06
4.71474e-06
4.71786e-06
4.72382e-06
4.7325e-06
4.74382e-06
4.75767e-06
4.77394e-06
4.79253e-06
4.81333e-06
4.83624e-06
4.86116e-06
4.88798e-06
4.91657e-06
4.94681e-06
4.97858e-06
5.01176e-06
5.04622e-06
5.08183e-06
5.11845e-06
5.15593e-06
5.19412e-06
5.23286e-06
5.27196e-06
5.31122e-06
5.35045e-06
5.38943e-06
5.42796e-06
5.46579e-06
5.50267e-06
5.53832e-06
5.57244e-06
5.60472e-06
5.63484e-06
5.66246e-06
5.68722e-06
5.70874e-06
5.72661e-06
5.74042e-06
5.74974e-06
5.75414e-06
5.75319e-06
5.74644e-06
5.73348e-06
5.71384e-06
5.68712e-06
5.65287e-06
5.61071e-06
5.5603e-06
5.50176e-06
5.43624e-06
5.36205e-06
5.27872e-06
5.18606e-06
5.08401e-06
4.97255e-06
4.85179e-06
4.72187e-06
4.58303e-06
4.43559e-06
4.27993e-06
4.11653e-06
3.94592e-06
3.76875e-06
3.5857e-06
3.39751e-06
3.20496e-06
3.0089e-06
2.81017e-06
2.60961e-06
2.40807e-06
2.20631e-06
2.00494e-06
1.8035e-06
1.60393e-06
1.40606e-06
1.20835e-06
1.01037e-06
8.11562e-07
6.12489e-07
4.04642e-07
1.93618e-07
3.74088e-08
4.93353e-08
2.5693e-07
5.50622e-07
8.50942e-07
1.14566e-06
1.43452e-06
1.71826e-06
1.99738e-06
2.27219e-06
2.54318e-06
2.80949e-06
3.07083e-06
3.32716e-06
3.5784e-06
3.82449e-06
4.06547e-06
4.30254e-06
4.53482e-06
4.76212e-06
4.98443e-06
5.20173e-06
5.41404e-06
5.62135e-06
5.82367e-06
6.02101e-06
6.21336e-06
6.40074e-06
6.58312e-06
6.76048e-06
6.93279e-06
7.09998e-06
7.26198e-06
7.41869e-06
7.56999e-06
7.71574e-06
7.85581e-06
7.99002e-06
8.1182e-06
8.24017e-06
8.35574e-06
8.46471e-06
8.56687e-06
8.66205e-06
8.75006e-06
8.8307e-06
8.90381e-06
8.96924e-06
9.02685e-06
9.07651e-06
9.11814e-06
9.15166e-06
9.17703e-06
9.19422e-06
9.20324e-06
9.20414e-06
9.19699e-06
9.18189e-06
9.15896e-06
9.12835e-06
9.09024e-06
9.04487e-06
8.99259e-06
8.93441e-06
8.87111e-06
8.80172e-06
8.72645e-06
8.64563e-06
8.55965e-06
8.46889e-06
8.37372e-06
8.27455e-06
8.1718e-06
8.06588e-06
7.95719e-06
7.84616e-06
7.7332e-06
7.61869e-06
7.50304e-06
7.38663e-06
7.26985e-06
7.15306e-06
7.03662e-06
6.92085e-06
6.80608e-06
6.69263e-06
6.58078e-06
6.47081e-06
6.36297e-06
6.25751e-06
6.15464e-06
6.05455e-06
5.95742e-06
5.86343e-06
5.77273e-06
5.68545e-06
5.6017e-06
5.52157e-06
5.44515e-06
5.37251e-06
5.3037e-06
5.23875e-06
5.1777e-06
5.12056e-06
5.06734e-06
5.01804e-06
4.97263e-06
4.93109e-06
4.89338e-06
4.85947e-06
4.82929e-06
4.80279e-06
4.77994e-06
4.76064e-06
4.74481e-06
4.73232e-06
4.72315e-06
4.7172e-06
4.71438e-06
4.71458e-06
4.71771e-06
4.72368e-06
4.73238e-06
4.74372e-06
4.75759e-06
4.77388e-06
4.79248e-06
4.81329e-06
4.83621e-06
4.86113e-06
4.88794e-06
4.91652e-06
4.94675e-06
4.97852e-06
5.0117e-06
5.04616e-06
5.08176e-06
5.11838e-06
5.15586e-06
5.19405e-06
5.23278e-06
5.27186e-06
5.31112e-06
5.35035e-06
5.38934e-06
5.42787e-06
5.4657e-06
5.50258e-06
5.53823e-06
5.57235e-06
5.60463e-06
5.63476e-06
5.66239e-06
5.68715e-06
5.70867e-06
5.72654e-06
5.74035e-06
5.74967e-06
5.75407e-06
5.75312e-06
5.74638e-06
5.73341e-06
5.71378e-06
5.68705e-06
5.6528e-06
5.61065e-06
5.56024e-06
5.50171e-06
5.4362e-06
5.36202e-06
5.27869e-06
5.18603e-06
5.08397e-06
4.97251e-06
4.85174e-06
4.72182e-06
4.58298e-06
4.43554e-06
4.27987e-06
4.11645e-06
3.94584e-06
3.76866e-06
3.58561e-06
3.39742e-06
3.20488e-06
3.00883e-06
2.81011e-06
2.60958e-06
2.40804e-06
2.20629e-06
2.00493e-06
1.8035e-06
1.60393e-06
1.40606e-06
1.20835e-06
1.01037e-06
8.11555e-07
6.1249e-07
4.0464e-07
1.93616e-07
3.74087e-08
2.37475e-07
1.01205e-05
2.13298e-05
2.91815e-05
3.52619e-05
4.03182e-05
4.46993e-05
4.85921e-05
5.21097e-05
5.53086e-05
5.82514e-05
6.09838e-05
6.35356e-05
6.59287e-05
6.81798e-05
7.03001e-05
7.22934e-05
7.41736e-05
7.59522e-05
7.7638e-05
7.92382e-05
8.07594e-05
8.22073e-05
8.35868e-05
8.49026e-05
8.61586e-05
8.73585e-05
8.85054e-05
8.96021e-05
9.0651e-05
9.16541e-05
9.26132e-05
9.35297e-05
9.44048e-05
9.52394e-05
9.60342e-05
9.67899e-05
9.75067e-05
9.81849e-05
9.88246e-05
9.94258e-05
9.99883e-05
0.000100512
0.000100997
0.000101442
0.000101847
0.000102213
0.000102538
0.000102823
0.000103067
0.000103271
0.000103433
0.000103554
0.000103634
0.000103673
0.000103671
0.000103629
0.000103546
0.000103424
0.000103261
0.000103059
0.000102816
0.000102526
0.000102195
0.000101827
0.000101426
0.000100993
0.00010053
0.000100039
9.95214e-05
9.89782e-05
9.84116e-05
9.78234e-05
9.72152e-05
9.65888e-05
9.59462e-05
9.52891e-05
9.46196e-05
9.39395e-05
9.32508e-05
9.25554e-05
9.18553e-05
9.11523e-05
9.04484e-05
8.97453e-05
8.90451e-05
8.83495e-05
8.76602e-05
8.6979e-05
8.63076e-05
8.56474e-05
8.50001e-05
8.4367e-05
8.37497e-05
8.31495e-05
8.25676e-05
8.2005e-05
8.14629e-05
8.09422e-05
8.04439e-05
7.99685e-05
7.95168e-05
7.90894e-05
7.86869e-05
7.83098e-05
7.79581e-05
7.76321e-05
7.73319e-05
7.70575e-05
7.68089e-05
7.65858e-05
7.63878e-05
7.62148e-05
7.60663e-05
7.59417e-05
7.58405e-05
7.57619e-05
7.57055e-05
7.56706e-05
7.56564e-05
7.56622e-05
7.56871e-05
7.57304e-05
7.57913e-05
7.58688e-05
7.5962e-05
7.60701e-05
7.61923e-05
7.63276e-05
7.64751e-05
7.66336e-05
7.68023e-05
7.69802e-05
7.71663e-05
7.73596e-05
7.75591e-05
7.77637e-05
7.79721e-05
7.81833e-05
7.8396e-05
7.86089e-05
7.88206e-05
7.90298e-05
7.92351e-05
7.94351e-05
7.96282e-05
7.98126e-05
7.99865e-05
8.0148e-05
8.02953e-05
8.04263e-05
8.0539e-05
8.06313e-05
8.07007e-05
8.07448e-05
8.07611e-05
8.07472e-05
8.07006e-05
8.06186e-05
8.04987e-05
8.03381e-05
8.01341e-05
7.98838e-05
7.95844e-05
7.9233e-05
7.88255e-05
7.83547e-05
7.78119e-05
7.71997e-05
7.65187e-05
7.57679e-05
7.49459e-05
7.40514e-05
7.3083e-05
7.20395e-05
7.09202e-05
6.97243e-05
6.84511e-05
6.71001e-05
6.56712e-05
6.41641e-05
6.25787e-05
6.09148e-05
5.9172e-05
5.73497e-05
5.54468e-05
5.34613e-05
5.13901e-05
4.92284e-05
4.69693e-05
4.46043e-05
4.21023e-05
3.94196e-05
3.64826e-05
3.31624e-05
2.91532e-05
2.40627e-05
1.73577e-05
7.87446e-06
1.70212e-07
2.37513e-07
1.01221e-05
2.13327e-05
2.91846e-05
3.52651e-05
4.03213e-05
4.47024e-05
4.85951e-05
5.21128e-05
5.53117e-05
5.82545e-05
6.09868e-05
6.35386e-05
6.59319e-05
6.8183e-05
7.03035e-05
7.22967e-05
7.41769e-05
7.59555e-05
7.76413e-05
7.92417e-05
8.0763e-05
8.2211e-05
8.35906e-05
8.49064e-05
8.61625e-05
8.73624e-05
8.85094e-05
8.96061e-05
9.06549e-05
9.16581e-05
9.26172e-05
9.35338e-05
9.4409e-05
9.52437e-05
9.60386e-05
9.67944e-05
9.75113e-05
9.81897e-05
9.88295e-05
9.94307e-05
9.99932e-05
0.000100517
0.000101002
0.000101447
0.000101853
0.000102218
0.000102544
0.000102829
0.000103073
0.000103276
0.000103438
0.000103559
0.000103639
0.000103678
0.000103677
0.000103634
0.000103552
0.000103429
0.000103267
0.000103064
0.000102821
0.000102532
0.0001022
0.000101832
0.000101431
0.000100998
0.000100535
0.000100044
9.95258e-05
9.89826e-05
9.84159e-05
9.78275e-05
9.72191e-05
9.65926e-05
9.59499e-05
9.52928e-05
9.46231e-05
9.3943e-05
9.32542e-05
9.25587e-05
9.18585e-05
9.11555e-05
9.04515e-05
8.97485e-05
8.90482e-05
8.83526e-05
8.76633e-05
8.69821e-05
8.63106e-05
8.56505e-05
8.50031e-05
8.43701e-05
8.37529e-05
8.31528e-05
8.2571e-05
8.20084e-05
8.14662e-05
8.09455e-05
8.0447e-05
7.99715e-05
7.95197e-05
7.90922e-05
7.86896e-05
7.83122e-05
7.79603e-05
7.7634e-05
7.73335e-05
7.70587e-05
7.68099e-05
7.65864e-05
7.63881e-05
7.62147e-05
7.60659e-05
7.59411e-05
7.58397e-05
7.57611e-05
7.57047e-05
7.56699e-05
7.56558e-05
7.56617e-05
7.56868e-05
7.57303e-05
7.57913e-05
7.58689e-05
7.59622e-05
7.60704e-05
7.61926e-05
7.63278e-05
7.64752e-05
7.66336e-05
7.68022e-05
7.698e-05
7.71661e-05
7.73594e-05
7.75589e-05
7.77633e-05
7.79717e-05
7.81827e-05
7.83953e-05
7.8608e-05
7.88197e-05
7.90289e-05
7.92343e-05
7.94343e-05
7.96274e-05
7.98117e-05
7.99856e-05
8.01471e-05
8.02944e-05
8.04254e-05
8.05382e-05
8.06305e-05
8.06998e-05
8.07438e-05
8.07602e-05
8.07463e-05
8.06997e-05
8.06177e-05
8.04979e-05
8.03373e-05
8.01332e-05
7.98829e-05
7.95835e-05
7.9232e-05
7.88246e-05
7.83538e-05
7.7811e-05
7.71989e-05
7.65179e-05
7.57671e-05
7.49451e-05
7.40506e-05
7.30821e-05
7.20386e-05
7.09193e-05
6.97233e-05
6.845e-05
6.70989e-05
6.56699e-05
6.41628e-05
6.25774e-05
6.09135e-05
5.91708e-05
5.73486e-05
5.54458e-05
5.34605e-05
5.13895e-05
4.92279e-05
4.69688e-05
4.46039e-05
4.2102e-05
3.94193e-05
3.64823e-05
3.31621e-05
2.9153e-05
2.40626e-05
1.73576e-05
7.87443e-06
1.70212e-07
5.17806e-07
2.08907e-05
4.77622e-05
6.80321e-05
8.3763e-05
9.66212e-05
0.000107538
0.000117053
0.000125495
0.000133077
0.000139966
0.00014628
0.000152107
0.00015751
0.000162541
0.000167235
0.000171618
0.000175721
0.000179573
0.000183197
0.000186612
0.000189836
0.000192883
0.000195767
0.0001985
0.000201092
0.000203552
0.000205888
0.000208107
0.000210215
0.000212218
0.00021412
0.000215925
0.000217635
0.000219256
0.000220787
0.000222233
0.000223594
0.000224872
0.000226068
0.000227183
0.000228219
0.000229175
0.000230052
0.000230852
0.000231574
0.000232219
0.000232786
0.000233278
0.000233693
0.000234033
0.000234298
0.000234487
0.000234603
0.000234645
0.000234613
0.00023451
0.000234334
0.000234087
0.000233769
0.00023338
0.000232918
0.00023238
0.000231768
0.00023109
0.000230352
0.000229556
0.000228706
0.000227804
0.000226854
0.000225858
0.000224819
0.00022374
0.000222623
0.000221473
0.000220291
0.000219081
0.000217847
0.000216591
0.000215317
0.000214028
0.000212728
0.000211419
0.000210106
0.000208791
0.000207478
0.000206169
0.000204869
0.00020358
0.000202306
0.000201048
0.00019981
0.000198595
0.000197405
0.000196243
0.00019511
0.000194009
0.000192943
0.000191912
0.000190918
0.000189964
0.000189049
0.000188176
0.000187345
0.000186557
0.000185813
0.000185112
0.000184456
0.000183844
0.000183276
0.000182752
0.000182271
0.000181833
0.000181435
0.000181079
0.000180762
0.000180484
0.000180244
0.00018004
0.000179871
0.000179736
0.000179633
0.000179562
0.00017952
0.000179505
0.000179518
0.000179554
0.000179615
0.000179696
0.000179798
0.000179918
0.000180054
0.000180205
0.000180368
0.000180543
0.000180727
0.000180918
0.000181113
0.000181312
0.000181511
0.000181708
0.000181901
0.000182087
0.000182263
0.000182428
0.000182577
0.000182708
0.000182817
0.000182901
0.000182956
0.00018298
0.000182967
0.000182915
0.000182818
0.000182674
0.000182477
0.000182223
0.000181908
0.000181527
0.000181076
0.000180551
0.000179945
0.000179255
0.000178476
0.000177603
0.000176628
0.000175542
0.000174334
0.000173003
0.000171549
0.00016997
0.000168264
0.000166428
0.000164459
0.000162354
0.000160112
0.000157728
0.0001552
0.000152524
0.000149697
0.000146715
0.000143573
0.000140265
0.000136783
0.000133121
0.000129266
0.000125203
0.000120915
0.000116373
0.000111543
0.000106369
0.000100763
9.45866e-05
8.76172e-05
7.94655e-05
6.94736e-05
5.66199e-05
3.94868e-05
1.66873e-05
3.69025e-07
5.17841e-07
2.08927e-05
4.77678e-05
6.80393e-05
8.37708e-05
9.66292e-05
0.000107546
0.000117061
0.000125503
0.000133085
0.000139974
0.000146288
0.000152115
0.000157518
0.000162548
0.000167243
0.000171626
0.000175729
0.000179581
0.000183205
0.00018662
0.000189844
0.000192891
0.000195776
0.000198509
0.000201101
0.000203561
0.000205897
0.000208116
0.000210224
0.000212226
0.000214128
0.000215933
0.000217644
0.000219264
0.000220796
0.000222242
0.000223603
0.000224881
0.000226078
0.000227193
0.000228228
0.000229185
0.000230062
0.000230862
0.000231584
0.000232229
0.000232796
0.000233288
0.000233703
0.000234043
0.000234308
0.000234497
0.000234613
0.000234655
0.000234623
0.00023452
0.000234344
0.000234097
0.000233779
0.00023339
0.000232928
0.000232389
0.000231777
0.0002311
0.000230361
0.000229565
0.000228715
0.000227813
0.000226863
0.000225867
0.000224827
0.000223748
0.000222631
0.00022148
0.000220298
0.000219088
0.000217854
0.000216598
0.000215323
0.000214034
0.000212734
0.000211425
0.000210111
0.000208796
0.000207483
0.000206175
0.000204874
0.000203585
0.00020231
0.000201052
0.000199814
0.000198599
0.000197409
0.000196246
0.000195114
0.000194013
0.000192946
0.000191915
0.000190921
0.000189966
0.000189052
0.000188178
0.000187347
0.000186559
0.000185814
0.000185114
0.000184457
0.000183845
0.000183277
0.000182753
0.000182272
0.000181832
0.000181435
0.000181078
0.000180761
0.000180483
0.000180243
0.000180039
0.00017987
0.000179735
0.000179632
0.000179561
0.000179518
0.000179504
0.000179516
0.000179553
0.000179613
0.000179695
0.000179796
0.000179916
0.000180052
0.000180203
0.000180366
0.000180541
0.000180725
0.000180915
0.000181111
0.000181309
0.000181508
0.000181705
0.000181898
0.000182084
0.000182261
0.000182425
0.000182574
0.000182705
0.000182814
0.000182898
0.000182953
0.000182977
0.000182964
0.000182912
0.000182816
0.000182671
0.000182474
0.00018222
0.000181905
0.000181525
0.000181074
0.000180548
0.000179942
0.000179253
0.000178474
0.0001776
0.000176625
0.000175539
0.000174332
0.000173001
0.000171547
0.000169968
0.000168262
0.000166425
0.000164457
0.000162352
0.00016011
0.000157726
0.000155198
0.000152522
0.000149695
0.000146713
0.000143571
0.000140263
0.000136782
0.000133119
0.000129264
0.000125202
0.000120914
0.000116373
0.000111542
0.000106368
0.000100762
9.45861e-05
8.76168e-05
7.94652e-05
6.94733e-05
5.66197e-05
3.94866e-05
1.66873e-05
3.69027e-07
8.07049e-07
2.84659e-05
6.74126e-05
9.91267e-05
0.000124634
0.000145775
0.00016379
0.000179478
0.000193355
0.000205789
0.000217045
0.000227319
0.000236758
0.000245473
0.000253553
0.000261067
0.000268067
0.000274603
0.000280723
0.000286463
0.000291857
0.000296934
0.000301719
0.000306234
0.0003105
0.000314532
0.000318347
0.000321957
0.000325374
0.000328607
0.000331667
0.00033456
0.000337293
0.000339872
0.000342302
0.000344587
0.000346733
0.000348741
0.000350615
0.000352358
0.000353972
0.00035546
0.000356824
0.000358065
0.000359186
0.000360188
0.000361073
0.000361843
0.000362498
0.000363041
0.000363473
0.000363796
0.00036401
0.000364118
0.00036412
0.000364019
0.000363816
0.000363511
0.000363107
0.000362603
0.000362001
0.000361299
0.000360499
0.000359602
0.000358614
0.000357543
0.000356392
0.000355165
0.000353867
0.000352502
0.000351073
0.000349585
0.000348041
0.000346445
0.000344802
0.000343115
0.000341389
0.000339628
0.000337837
0.00033602
0.000334182
0.000332327
0.000330459
0.000328583
0.000326703
0.000324825
0.000322951
0.000321087
0.000319237
0.000317404
0.000315593
0.000313807
0.000312049
0.000310324
0.000308635
0.000306983
0.000305373
0.000303807
0.000302287
0.000300815
0.000299393
0.000298023
0.000296707
0.000295444
0.000294237
0.000293086
0.000291991
0.000290953
0.000289971
0.000289046
0.000288175
0.000287359
0.000286597
0.000285886
0.000285228
0.000284619
0.000284059
0.000283547
0.00028308
0.000282657
0.000282276
0.000281936
0.000281634
0.000281369
0.00028114
0.000280942
0.000280776
0.000280639
0.000280528
0.000280442
0.000280378
0.000280334
0.000280309
0.000280298
0.000280301
0.000280314
0.000280335
0.00028036
0.000280388
0.000280415
0.000280438
0.000280453
0.000280457
0.000280447
0.000280418
0.000280367
0.000280289
0.000280179
0.000280034
0.000279849
0.000279618
0.000279336
0.000278998
0.000278599
0.000278134
0.000277595
0.000276979
0.000276278
0.000275487
0.0002746
0.000273611
0.000272514
0.000271303
0.000269971
0.000268511
0.000266916
0.000265176
0.00026328
0.000261225
0.000259006
0.000256621
0.000254066
0.000251336
0.000248428
0.000245336
0.000242055
0.000238579
0.000234901
0.000231014
0.000226909
0.000222576
0.000218003
0.000213177
0.00020808
0.000202692
0.000196988
0.000190935
0.000184491
0.0001776
0.000170186
0.000162139
0.000153298
0.000143421
0.00013214
0.000118882
0.000102768
8.24779e-05
5.61713e-05
2.32739e-05
5.83493e-07
8.07062e-07
2.84681e-05
6.74193e-05
9.91363e-05
0.000124645
0.000145787
0.000163802
0.00017949
0.000193368
0.000205802
0.000217058
0.000227332
0.00023677
0.000245485
0.000253565
0.000261079
0.000268079
0.000274616
0.000280735
0.000286475
0.000291869
0.000296946
0.000301731
0.000306247
0.000310512
0.000314545
0.000318359
0.000321969
0.000325386
0.00032862
0.000331679
0.000334572
0.000337305
0.000339885
0.000342315
0.0003446
0.000346746
0.000348754
0.000350628
0.000352371
0.000353986
0.000355474
0.000356837
0.000358079
0.0003592
0.000360202
0.000361087
0.000361856
0.000362512
0.000363055
0.000363487
0.000363809
0.000364024
0.000364131
0.000364134
0.000364033
0.000363829
0.000363524
0.00036312
0.000362616
0.000362013
0.000361312
0.000360511
0.000359614
0.000358626
0.000357554
0.000356403
0.000355176
0.000353878
0.000352513
0.000351084
0.000349595
0.000348051
0.000346455
0.000344811
0.000343124
0.000341398
0.000339637
0.000337846
0.000336029
0.00033419
0.000332334
0.000330466
0.00032859
0.00032671
0.000324831
0.000322957
0.000321093
0.000319242
0.000317409
0.000315598
0.000313811
0.000312054
0.000310328
0.000308638
0.000306987
0.000305377
0.00030381
0.00030229
0.000300818
0.000299395
0.000298025
0.000296708
0.000295445
0.000294238
0.000293087
0.000291992
0.000290953
0.000289972
0.000289046
0.000288175
0.000287359
0.000286596
0.000285885
0.000285226
0.000284618
0.000284058
0.000283545
0.000283078
0.000282654
0.000282274
0.000281933
0.000281632
0.000281367
0.000281137
0.00028094
0.000280773
0.000280636
0.000280525
0.000280439
0.000280375
0.000280331
0.000280305
0.000280295
0.000280297
0.00028031
0.000280331
0.000280356
0.000280384
0.000280411
0.000280433
0.000280449
0.000280453
0.000280442
0.000280414
0.000280362
0.000280284
0.000280175
0.00028003
0.000279844
0.000279613
0.000279331
0.000278994
0.000278595
0.000278129
0.000277591
0.000276974
0.000276273
0.000275482
0.000274595
0.000273606
0.00027251
0.000271298
0.000269966
0.000268507
0.000266912
0.000265172
0.000263276
0.000261221
0.000259002
0.000256617
0.000254062
0.000251333
0.000248425
0.000245333
0.000242053
0.000238576
0.000234899
0.000231011
0.000226906
0.000222574
0.000218001
0.000213175
0.000208078
0.00020269
0.000196986
0.000190933
0.00018449
0.000177599
0.000170185
0.000162138
0.000153297
0.000143421
0.00013214
0.000118882
0.000102768
8.24778e-05
5.61713e-05
2.3274e-05
5.83497e-07
1.09491e-06
3.43772e-05
8.25779e-05
0.000123843
0.000158079
0.000186951
0.000211782
0.000233504
0.000252764
0.000270038
0.000285673
0.000299931
0.000313011
0.000325071
0.000336236
0.000346605
0.000356255
0.00036526
0.00037368
0.00038157
0.000388976
0.000395937
0.000402489
0.000408663
0.000414487
0.000419983
0.000425174
0.000430077
0.000434709
0.000439083
0.000443212
0.000447107
0.000450776
0.000454229
0.000457473
0.000460514
0.000463358
0.000466011
0.000468477
0.00047076
0.000472865
0.000474795
0.000476554
0.000478145
0.000479572
0.000480838
0.000481946
0.000482899
0.000483699
0.000484349
0.000484853
0.000485212
0.00048543
0.00048551
0.000485452
0.000485261
0.000484939
0.000484487
0.000483908
0.000483205
0.000482377
0.000481428
0.000480358
0.000479171
0.000477873
0.00047647
0.000474968
0.000473371
0.000471686
0.000469917
0.000468069
0.000466147
0.000464156
0.0004621
0.000459986
0.000457819
0.000455603
0.000453344
0.000451048
0.00044872
0.000446365
0.00044399
0.000441599
0.000439198
0.000436793
0.000434389
0.00043199
0.000429603
0.000427233
0.000424883
0.00042256
0.000420267
0.000418008
0.000415788
0.000413611
0.00041148
0.000409397
0.000407367
0.000405391
0.000403473
0.000401614
0.000399816
0.00039808
0.000396408
0.000394801
0.000393259
0.000391782
0.000390371
0.000389024
0.000387741
0.000386522
0.000385364
0.000384267
0.00038323
0.000382251
0.000381328
0.000380461
0.000379646
0.000378882
0.000378167
0.0003775
0.000376877
0.000376297
0.000375758
0.000375258
0.000374794
0.000374363
0.000373965
0.000373595
0.000373253
0.000372935
0.000372639
0.000372362
0.000372101
0.000371854
0.000371617
0.000371388
0.000371163
0.000370939
0.000370712
0.000370479
0.000370235
0.000369976
0.000369698
0.000369396
0.000369066
0.000368702
0.000368299
0.000367851
0.000367353
0.000366799
0.000366182
0.000365497
0.000364737
0.000363896
0.000362966
0.00036194
0.000360813
0.000359578
0.000358226
0.000356751
0.000355147
0.000353405
0.000351519
0.00034948
0.000347281
0.000344912
0.000342361
0.000339624
0.000336694
0.000333566
0.000330235
0.000326695
0.000322938
0.000318957
0.000314744
0.000310289
0.000305581
0.000300608
0.000295354
0.000289804
0.000283936
0.000277729
0.000271154
0.000264177
0.000256757
0.000248842
0.000240367
0.000231245
0.00022136
0.000210551
0.000198591
0.000185152
0.000169756
0.0001517
0.000129968
0.000103123
6.93801e-05
2.87078e-05
8.06269e-07
1.09491e-06
3.43797e-05
8.25852e-05
0.000123854
0.000158093
0.000186966
0.000211798
0.00023352
0.000252781
0.000270055
0.00028569
0.000299948
0.000313028
0.000325088
0.000336253
0.000346622
0.000356272
0.000365277
0.000373697
0.000381587
0.000388993
0.000395954
0.000402506
0.00040868
0.000414504
0.00042
0.000425191
0.000430094
0.000434726
0.0004391
0.000443229
0.000447124
0.000450793
0.000454247
0.00045749
0.000460531
0.000463376
0.000466028
0.000468494
0.000470777
0.000472882
0.000474812
0.000476571
0.000478163
0.00047959
0.000480856
0.000481963
0.000482916
0.000483716
0.000484366
0.00048487
0.000485229
0.000485447
0.000485526
0.000485469
0.000485278
0.000484955
0.000484503
0.000483924
0.00048322
0.000482392
0.000481443
0.000480373
0.000479186
0.000477887
0.000476484
0.000474981
0.000473385
0.000471699
0.00046993
0.000468082
0.000466159
0.000464168
0.000462112
0.000459998
0.00045783
0.000455614
0.000453354
0.000451058
0.000448729
0.000446375
0.000443999
0.000441608
0.000439206
0.000436801
0.000434396
0.000431998
0.00042961
0.000427239
0.00042489
0.000422566
0.000420272
0.000418014
0.000415793
0.000413616
0.000411484
0.000409401
0.00040737
0.000405395
0.000403476
0.000401616
0.000399818
0.000398082
0.00039641
0.000394802
0.00039326
0.000391783
0.000390371
0.000389024
0.000387741
0.000386521
0.000385363
0.000384267
0.000383229
0.00038225
0.000381327
0.000380459
0.000379644
0.00037888
0.000378165
0.000377497
0.000376874
0.000376294
0.000375755
0.000375255
0.00037479
0.00037436
0.000373961
0.000373592
0.000373249
0.000372931
0.000372634
0.000372357
0.000372096
0.000371849
0.000371613
0.000371383
0.000371158
0.000370934
0.000370707
0.000370474
0.00037023
0.000369971
0.000369693
0.000369391
0.00036906
0.000368696
0.000368293
0.000367845
0.000367347
0.000366793
0.000366177
0.000365492
0.000364732
0.00036389
0.00036296
0.000361935
0.000360808
0.000359572
0.00035822
0.000356746
0.000355141
0.0003534
0.000351514
0.000349475
0.000347276
0.000344907
0.000342357
0.000339619
0.00033669
0.000333562
0.000330232
0.000326691
0.000322935
0.000318954
0.000314741
0.000310286
0.000305579
0.000300605
0.000295352
0.000289802
0.000283935
0.000277727
0.000271152
0.000264175
0.000256755
0.000248841
0.000240366
0.000231244
0.000221359
0.000210551
0.000198591
0.000185152
0.000169756
0.000151701
0.000129968
0.000103123
6.93804e-05
2.87081e-05
8.06273e-07
1.38435e-06
3.93612e-05
9.49959e-05
0.000144208
0.000186006
0.000221793
0.000252864
0.000280198
0.000304525
0.000326392
0.000346207
0.000364285
0.000380871
0.00039616
0.000410309
0.000423445
0.000435669
0.000447072
0.000457733
0.000467719
0.000477087
0.00048589
0.00049417
0.000501969
0.000509319
0.000516252
0.000522793
0.000528966
0.000534791
0.000540286
0.000545466
0.000550345
0.000554936
0.000559249
0.000563293
0.000567076
0.000570608
0.000573894
0.000576941
0.000579754
0.00058234
0.000584703
0.000586849
0.000588782
0.000590507
0.000592028
0.000593351
0.000594478
0.000595414
0.000596163
0.00059673
0.000597118
0.000597332
0.000597374
0.000597249
0.000596961
0.000596512
0.000595907
0.000595148
0.00059424
0.000593184
0.000591984
0.000590644
0.000589166
0.000587558
0.000585827
0.000583978
0.000582018
0.000579953
0.000577789
0.000575532
0.000573188
0.000570763
0.000568264
0.000565696
0.000563066
0.00056038
0.000557645
0.000554867
0.000552052
0.000549208
0.00054634
0.000543455
0.00054056
0.000537661
0.000534764
0.000531875
0.000529
0.000526145
0.000523316
0.000520518
0.000517757
0.000515036
0.00051236
0.000509735
0.000507163
0.000504648
0.000502194
0.000499803
0.000497477
0.000495219
0.000493031
0.000490914
0.000488869
0.000486897
0.000484998
0.000483172
0.000481418
0.000479736
0.000478124
0.000476581
0.000475106
0.000473697
0.000472353
0.000471071
0.000469849
0.000468686
0.000467579
0.000466526
0.000465524
0.000464572
0.000463667
0.000462806
0.000461988
0.000461209
0.000460467
0.00045976
0.000459085
0.00045844
0.000457822
0.000457228
0.000456656
0.000456102
0.000455564
0.000455039
0.000454523
0.000454013
0.000453506
0.000452997
0.000452482
0.000451959
0.000451421
0.000450865
0.000450285
0.000449676
0.000449033
0.000448351
0.000447622
0.000446842
0.000446003
0.000445099
0.000444124
0.000443069
0.000441929
0.000440695
0.000439361
0.000437918
0.00043636
0.000434678
0.000432865
0.000430913
0.000428815
0.000426562
0.000424146
0.00042156
0.000418793
0.000415838
0.000412682
0.000409318
0.000405739
0.000401938
0.000397907
0.000393637
0.00038912
0.000384345
0.000379299
0.00037397
0.000368341
0.000362394
0.000356109
0.000349462
0.000342424
0.000334962
0.000327036
0.000318601
0.000309599
0.000299959
0.000289593
0.000278388
0.00026619
0.000252796
0.000237924
0.000221179
0.000202
0.000179597
0.000152863
0.000120313
8.02741e-05
3.32149e-05
1.03942e-06
1.38436e-06
3.93641e-05
9.50035e-05
0.00014422
0.000186021
0.000221809
0.000252882
0.000280217
0.000304545
0.000326412
0.000346227
0.000364306
0.000380892
0.000396182
0.000410331
0.000423467
0.00043569
0.000447094
0.000457754
0.00046774
0.000477109
0.000485911
0.000494192
0.000501991
0.000509341
0.000516274
0.000522815
0.000528988
0.000534813
0.000540308
0.000545488
0.000550367
0.000554958
0.00055927
0.000563314
0.000567098
0.00057063
0.000573915
0.000576962
0.000579776
0.000582361
0.000584725
0.00058687
0.000588803
0.000590528
0.000592049
0.000593371
0.000594498
0.000595434
0.000596184
0.00059675
0.000597138
0.000597352
0.000597394
0.000597269
0.00059698
0.000596531
0.000595926
0.000595167
0.000594258
0.000593202
0.000592002
0.000590661
0.000589183
0.000587575
0.000585843
0.000583994
0.000582033
0.000579968
0.000577803
0.000575546
0.000573202
0.000570777
0.000568277
0.000565709
0.000563079
0.000560393
0.000557657
0.000554879
0.000552064
0.000549219
0.000546351
0.000543466
0.00054057
0.00053767
0.000534773
0.000531883
0.000529008
0.000526153
0.000523324
0.000520526
0.000517764
0.000515042
0.000512367
0.000509741
0.000507168
0.000504653
0.000502199
0.000499807
0.000497481
0.000495223
0.000493035
0.000490917
0.000488872
0.0004869
0.000485
0.000483174
0.00048142
0.000479737
0.000478125
0.000476582
0.000475107
0.000473697
0.000472353
0.00047107
0.000469848
0.000468685
0.000467578
0.000466524
0.000465523
0.00046457
0.000463665
0.000462804
0.000461985
0.000461206
0.000460464
0.000459757
0.000459082
0.000458437
0.000457818
0.000457224
0.000456652
0.000456098
0.00045556
0.000455034
0.000454518
0.000454008
0.000453501
0.000452992
0.000452477
0.000451953
0.000451416
0.000450859
0.000450279
0.000449671
0.000449028
0.000448345
0.000447616
0.000446836
0.000445997
0.000445093
0.000444118
0.000443063
0.000441923
0.000440689
0.000439355
0.000437912
0.000436354
0.000434672
0.000432859
0.000430908
0.000428809
0.000426556
0.000424141
0.000421554
0.000418788
0.000415833
0.000412677
0.000409313
0.000405735
0.000401934
0.000397903
0.000393634
0.000389117
0.000384342
0.000379296
0.000373967
0.000368338
0.000362392
0.000356108
0.00034946
0.000342422
0.00033496
0.000327035
0.0003186
0.000309598
0.000299958
0.000289593
0.000278387
0.00026619
0.000252797
0.000237925
0.000221179
0.000202
0.000179597
0.000152863
0.000120314
8.02745e-05
3.32152e-05
1.03942e-06
1.6801e-06
4.37844e-05
0.000105659
0.000161605
0.000209951
0.000251846
0.000288518
0.00032096
0.000349942
0.000376056
0.000399757
0.000421402
0.000441272
0.000459594
0.000476553
0.000492298
0.000506953
0.000520626
0.00053341
0.000545385
0.00055662
0.000567175
0.000577104
0.000586452
0.000595262
0.000603569
0.000611403
0.000618793
0.000625763
0.000632334
0.000638525
0.000644351
0.000649829
0.000654969
0.000659784
0.000664285
0.00066848
0.000672377
0.000675985
0.000679311
0.000682362
0.000685144
0.000687664
0.000689927
0.000691939
0.000693707
0.000695235
0.000696529
0.000697595
0.000698438
0.000699062
0.000699474
0.000699679
0.000699681
0.000699485
0.000699096
0.00069852
0.00069776
0.000696821
0.000695707
0.000694424
0.000692975
0.000691366