/*--------------------------------*- C++ -*----------------------------------*\
  =========                 |
  \\      /  F ield         | OpenFOAM: The Open Source CFD Toolbox
   \\    /   O peration     | Website:  https://openfoam.org
    \\  /    A nd           | Version:  8
     \\/     M anipulation  |
\*---------------------------------------------------------------------------*/
FoamFile
{
    version     2.0;
    format      ascii;
    class       volScalarField;
    location    "1800";
    object      epsilon;
}
// * * * * * * * * * * * * * * * * * * * * * * * * * * * * * * * * * * * * * //

dimensions      [0 2 -3 0 0 0 0];

internalField   nonuniform List<scalar> 
46000
(
0.899112
4.21625
9.0213
13.9236
18.7266
23.4285
28.0429
32.5788
37.042
41.4404
45.7604
49.9983
54.1532
58.2241
62.2104
66.113
69.9516
73.7123
77.3915
80.9893
84.5056
87.9405
91.2943
94.5673
97.7596
100.872
103.903
106.854
109.724
112.512
115.217
117.838
120.372
122.819
125.175
127.44
129.609
131.681
133.653
135.52
137.281
138.931
140.468
141.889
143.191
144.37
145.425
146.353
147.153
147.822
148.361
148.767
149.041
149.184
149.195
149.075
148.828
148.454
147.956
147.336
146.599
145.751
144.809
143.783
142.659
141.44
140.131
138.74
137.271
135.732
134.128
132.466
130.753
128.996
127.201
125.375
123.524
121.655
119.775
117.888
116.002
114.121
112.251
110.398
108.567
106.761
104.986
103.246
101.544
99.8842
98.2698
96.7039
95.1891
93.7272
92.3202
90.9703
89.6794
88.4489
87.2795
86.1721
85.128
84.1477
83.2308
82.3771
81.5863
80.8589
80.1945
79.5925
79.0519
78.5718
78.1513
77.7901
77.4863
77.2386
77.0451
76.9055
76.8183
76.7815
76.7936
76.8531
76.9589
77.109
77.3019
77.5357
77.809
78.1201
78.4672
78.8483
79.2616
79.7056
80.1789
80.6795
81.2051
81.7533
82.322
82.9093
83.513
84.1309
84.7603
85.3987
86.0433
86.6913
87.3391
87.9829
88.6188
89.2429
89.8517
90.441
91.0062
91.5419
92.0424
92.5017
92.9143
93.2744
93.5757
93.8116
93.9751
94.0586
94.0547
93.9562
93.756
93.4473
93.0232
92.477
91.8019
90.9919
90.0468
88.9899
87.7919
86.4443
84.9439
83.2894
81.4812
79.5206
77.4102
75.1531
72.754
70.2193
67.5568
64.7758
61.886
58.8982
55.8243
52.6776
49.4717
46.2199
42.9358
39.6331
36.325
33.0211
29.7122
26.4351
23.1823
19.9302
16.6717
13.3996
10.1201
6.69238
3.20728
0.689119
0.899181
4.21677
9.02219
13.9246
18.7276
23.4295
28.0439
32.5797
37.0428
41.4407
45.761
49.9991
54.1542
58.2251
62.2111
66.1133
69.9521
73.7123
77.3912
80.9888
84.5054
87.941
91.2956
94.5695
97.7627
100.875
103.907
106.858
109.727
112.514
115.218
117.838
120.372
122.819
125.176
127.441
129.611
131.684
133.656
135.523
137.284
138.934
140.471
141.892
143.193
144.372
145.426
146.355
147.154
147.824
148.362
148.768
149.042
149.185
149.196
149.077
148.829
148.455
147.957
147.338
146.601
145.753
144.811
143.786
142.661
141.442
140.134
138.743
137.274
135.735
134.131
132.47
130.757
129
127.205
125.379
123.528
121.66
119.779
117.892
116.005
114.124
112.254
110.401
108.569
106.763
104.988
103.247
101.544
99.8842
98.2695
96.7031
95.1872
93.7242
92.3163
90.9659
89.6749
88.4443
87.275
86.1679
85.1238
84.1434
83.2264
82.3728
81.5826
80.8559
80.1923
79.5909
79.051
78.5718
78.1523
77.792
77.4892
77.2425
77.0498
76.9104
76.8229
76.7856
76.7972
76.8563
76.9612
77.1104
77.3023
77.5354
77.8083
78.1191
78.4659
78.8468
79.2601
79.7044
80.1779
80.6786
81.2041
81.7523
82.321
82.9084
83.5123
84.1305
84.7604
85.3993
86.0444
86.6924
87.3399
87.9831
88.6187
89.2429
89.852
90.4417
91.0068
91.5421
92.042
92.5011
92.9138
93.2742
93.5758
93.8119
93.9751
94.0582
94.0539
93.9552
93.7551
93.4467
93.023
92.477
91.802
90.9918
90.0465
88.9898
87.7918
86.444
84.9433
83.2887
81.4806
79.5203
77.4099
75.1525
72.753
70.218
67.5556
64.7746
61.8845
58.8964
55.8226
52.6763
49.4705
46.2187
42.9348
39.6326
36.3248
33.0211
29.7123
26.4352
23.1825
19.9304
16.6719
13.3998
10.12
6.69253
3.20737
0.689133
4.64392
3.91727
5.49353
7.31743
9.1758
11.0294
12.8702
14.6968
16.509
18.3086
20.0915
21.8548
23.5971
25.3172
27.0145
28.6895
30.3457
31.9801
33.5906
35.1759
36.7352
38.2675
39.7721
41.2483
42.6952
44.1123
45.4985
46.8531
48.1752
49.4637
50.7176
51.9356
53.1165
54.2589
55.3614
56.4225
57.4404
58.4134
59.3398
60.2177
61.0453
61.8209
62.5426
63.2088
63.8178
64.3682
64.8585
65.2877
65.6547
65.9586
66.1988
66.375
66.487
66.535
66.5195
66.4409
66.3002
66.0987
65.8378
65.5193
65.1458
64.7208
64.2503
63.7374
63.1796
62.5781
61.9353
61.2542
60.5377
59.789
59.0112
58.2078
57.382
56.5371
55.6764
54.8032
53.9207
53.0318
52.1396
51.247
50.3569
49.4718
48.5943
47.727
46.872
46.0314
45.2073
44.4016
43.6158
42.8517
42.1104
41.3935
40.7018
40.0364
39.3982
38.788
38.2063
37.6537
37.1306
36.6374
36.1741
35.7411
35.3382
34.9654
34.6226
34.3097
34.0265
33.7726
33.5476
33.3512
33.1827
33.0421
32.9289
32.8422
32.7815
32.7461
32.7355
32.7489
32.7857
32.8452
32.9268
33.0298
33.1534
33.2968
33.4595
33.6405
33.8392
34.0549
34.2866
34.5337
34.7954
35.0707
35.3589
35.659
35.97
36.2909
36.6209
36.9588
37.3035
37.6538
38.0085
38.366
38.725
39.0837
39.4405
39.7937
40.1414
40.4815
40.8118
41.1298
41.4332
41.7191
41.9848
42.2273
42.4437
42.6305
42.7844
42.9019
42.9794
43.0133
43
42.9359
42.8175
42.6413
42.4042
42.1036
41.7395
41.315
40.823
40.2594
39.6218
38.9091
38.1206
37.2566
36.3178
35.3057
34.2224
33.071
31.8549
30.5786
29.2468
27.8649
26.4389
24.9751
23.4803
21.9611
20.4245
18.8772
17.3258
15.7755
14.23
12.6967
11.1764
9.66844
8.19327
6.75582
5.36997
4.03969
2.91022
3.38957
4.64446
3.91717
5.49319
7.31696
9.17523
11.0287
12.8694
14.6959
16.5081
18.3076
20.0904
21.8537
23.5959
25.3159
27.0131
28.688
30.3442
31.9785
33.5889
35.1741
36.7332
38.2654
39.7699
41.246
42.6929
44.1099
45.4961
46.8506
48.1727
49.4611
50.7148
51.9327
53.1135
54.2558
55.3583
56.4192
57.437
58.4099
59.3362
60.214
61.0416
61.8171
62.5387
63.2048
63.8138
64.3641
64.8544
65.2835
65.6504
65.9543
66.1945
66.3706
66.4826
66.5306
66.515
66.4365
66.2958
66.0942
65.8333
65.5149
65.1414
64.7164
64.2461
63.7332
63.1754
62.574
61.9313
61.2502
60.5338
59.7851
59.0075
58.2041
57.3784
56.5336
55.6731
54.8
53.9175
53.0287
52.1366
51.2441
50.354
49.469
48.5916
47.7243
46.8694
46.0289
45.2048
44.3991
43.6134
42.8493
42.1081
41.3911
40.6995
40.0341
39.3959
38.7856
38.204
37.6516
37.1286
36.6354
36.1722
35.7392
35.3363
34.9636
34.621
34.3082
34.025
33.7712
33.5463
33.3501
33.1817
33.0413
32.9282
32.8417
32.781
32.7457
32.7351
32.7485
32.7853
32.8448
32.9264
33.0293
33.1528
33.2962
33.4589
33.64
33.8387
34.0543
34.2861
34.5332
34.7949
35.0703
35.3585
35.6585
35.9696
36.2906
36.6206
36.9586
37.3033
37.6537
38.0084
38.3659
38.7248
39.0835
39.4404
39.7936
40.1413
40.4815
40.8118
41.1298
41.4331
41.719
41.9848
42.2274
42.4438
42.6306
42.7845
42.902
42.9795
43.0134
43.0001
42.9361
42.8178
42.6416
42.4044
42.1039
41.7398
41.3152
40.8232
40.2596
39.6221
38.9093
38.1209
37.2569
36.3181
35.306
34.2228
33.0714
31.8554
30.5791
29.2473
27.8654
26.4393
24.9755
23.4806
21.9613
20.4246
18.8774
17.3259
15.7756
14.2301
12.6968
11.1765
9.66857
8.19337
6.7559
5.37004
4.03976
2.91024
3.38959
9.93271
5.71705
6.04898
7.00104
8.12349
9.31242
10.5317
11.7659
13.0072
14.251
15.493
16.7301
17.96
19.1812
20.3924
21.5931
22.7836
23.9625
25.1284
26.28
27.4162
28.5362
29.639
30.7237
31.7895
32.8355
33.8609
34.8647
35.8461
36.804
37.7375
38.6453
39.5265
40.3798
41.2039
41.9976
42.7594
43.4879
44.1818
44.8394
45.4595
46.0405
46.5811
47.0798
47.5355
47.9468
48.3127
48.6324
48.9048
49.1293
49.3055
49.4331
49.5118
49.5419
49.5235
49.4573
49.3438
49.184
48.9792
48.7308
48.4407
48.1113
47.7454
47.3451
46.9108
46.4437
45.9458
45.419
44.8656
44.2882
43.6891
43.0709
42.4361
41.7872
41.1269
40.4576
39.7816
39.1015
38.4194
37.7377
37.0585
36.3837
35.7155
35.0555
34.4056
33.7674
33.1423
32.5318
31.9372
31.3596
30.8001
30.2596
29.739
29.2391
28.7604
28.3035
27.869
27.4571
27.0682
26.7026
26.3603
26.0415
25.7462
25.4744
25.2261
25.001
24.7991
24.62
24.4636
24.3298
24.218
24.128
24.0595
24.0119
23.9849
23.978
23.9906
24.0225
24.073
24.1417
24.2281
24.3316
24.4519
24.5882
24.7401
24.907
25.0885
25.2838
25.4925
25.7139
25.9475
26.1925
26.4484
26.7145
26.9901
27.2743
27.5665
27.8659
28.1715
28.4824
28.7977
29.1162
29.4369
29.7584
30.0796
30.399
30.715
31.0261
31.3305
31.6264
31.9117
32.1844
32.4421
32.6825
32.9031
33.1013
33.2743
33.4193
33.5334
33.6136
33.6569
33.6604
33.6211
33.5361
33.4029
33.2193
32.9839
32.6964
32.3535
31.9526
31.4918
30.9699
30.3864
29.7411
29.0347
28.268
27.4429
26.5617
25.6271
24.6427
23.6124
22.5405
21.4319
20.2919
19.1258
17.9394
16.7384
15.5288
14.3165
13.107
11.9061
10.7205
9.55667
8.42283
7.33292
6.30282
5.3702
4.6082
4.33735
7.24702
9.93406
5.71679
6.04838
7.00032
8.12271
9.31158
10.5308
11.765
13.0063
14.25
15.4919
16.729
17.9589
19.1799
20.3911
21.5918
22.7823
23.9611
25.1269
26.2785
27.4146
28.5345
29.6372
30.7218
31.7876
32.8335
33.8589
34.8627
35.844
36.8019
37.7353
38.6431
39.5242
40.3774
41.2015
41.9951
42.7568
43.4852
44.179
44.8366
45.4566
46.0376
46.5781
47.0768
47.5324
47.9437
48.3096
48.6292
48.9016
49.1261
49.3023
49.4298
49.5086
49.5386
49.5203
49.454
49.3405
49.1807
48.976
48.7276
48.4375
48.1081
47.7423
47.342
46.9077
46.4407
45.9428
45.4161
44.8628
44.2854
43.6863
43.0682
42.4335
41.7847
41.1244
40.4552
39.7793
39.0992
38.4172
37.7356
37.0564
36.3817
35.7135
35.0537
34.4038
33.7657
33.1407
32.5302
31.9357
31.3582
30.7987
30.2583
29.7378
29.2378
28.7592
28.3024
27.8679
27.4561
27.0672
26.7016
26.3594
26.0406
25.7454
25.4737
25.2253
25.0003
24.7984
24.6194
24.4631
24.3292
24.2175
24.1276
24.0591
24.0116
23.9846
23.9777
23.9904
24.0222
24.0728
24.1415
24.2279
24.3315
24.4517
24.588
24.74
24.9069
25.0884
25.2838
25.4924
25.7139
25.9474
26.1925
26.4484
26.7145
26.9901
27.2744
27.5666
27.866
28.1716
28.4825
28.7978
29.1164
29.437
29.7586
30.0798
30.3992
30.7152
31.0263
31.3308
31.6267
31.912
32.1847
32.4424
32.6828
32.9035
33.1016
33.2747
33.4197
33.5337
33.6139
33.6573
33.6608
33.6215
33.5365
33.4033
33.2197
32.9844
32.6968
32.3539
31.9529
31.4922
30.9703
30.3868
29.7415
29.035
28.2684
27.4433
26.5621
25.6275
24.6431
23.6127
22.5408
21.4323
20.2922
19.126
17.9396
16.7386
15.529
14.3166
13.1071
11.9062
10.7206
9.55675
8.42289
7.33297
6.30287
5.37025
4.60823
4.33735
7.24694
15.2875
7.74313
7.17755
7.62754
8.37465
9.24883
10.1885
11.1658
12.1658
13.1795
14.2008
15.2255
16.2504
17.2732
18.2921
19.3059
20.3138
21.3145
22.3067
23.2892
24.2607
25.2202
26.1667
27.0992
28.0168
28.9185
29.8034
30.6705
31.5188
32.3472
33.1548
33.9404
34.7028
35.441
36.1536
36.8396
37.4975
38.1261
38.7242
39.2904
39.8235
40.3223
40.7854
41.2119
41.6005
41.9503
42.2604
42.53
42.7584
42.945
43.0894
43.1915
43.2511
43.2684
43.2436
43.1773
43.0699
42.9225
42.736
42.5117
42.2512
41.9563
41.6289
41.2707
40.8829
40.4668
40.0239
39.5562
39.0656
38.5543
38.0242
37.4777
36.9169
36.3441
35.7614
35.1711
34.5752
33.9758
33.3749
32.7746
32.1767
31.5829
30.995
30.4146
29.8432
29.2823
28.7331
28.197
27.675
27.1682
26.6775
26.2038
25.7478
25.3101
24.8914
24.4922
24.1128
23.7537
23.415
23.0971
22.8001
22.524
22.269
22.0349
21.8219
21.6298
21.4584
21.3078
21.1776
21.0678
20.9778
20.9076
20.8568
20.825
20.8118
20.817
20.8401
20.8807
20.9384
21.0129
21.1036
21.2102
21.3322
21.4692
21.6207
21.7863
21.9654
22.1576
22.3623
22.5792
22.8075
23.0469
23.2966
23.5562
23.825
24.1023
24.3874
24.6797
24.9782
25.2823
25.5909
25.9032
26.2182
26.5346
26.8514
27.1672
27.4806
27.7902
28.0944
28.3915
28.6797
28.9569
29.2212
29.4703
29.702
29.9138
30.1032
30.2675
30.4042
30.5104
30.5834
30.6204
30.6186
30.5756
30.4887
30.3559
30.1754
29.9458
29.6649
29.3305
28.9413
28.4961
27.9944
27.4359
26.8213
26.1513
25.4276
24.6521
23.8273
22.9564
22.0427
21.0902
20.1033
19.0865
18.0449
16.9837
15.9082
14.8243
13.7379
12.6552
11.5834
10.5304
9.50583
8.52228
7.59751
6.75839
6.05578
5.61484
5.97054
11.3609
15.289
7.74272
7.17682
7.62673
8.37379
9.24794
10.1876
11.1648
12.1648
13.1785
14.1998
15.2245
16.2493
17.272
18.2909
19.3047
20.3126
21.3132
22.3054
23.2878
24.2593
25.2187
26.1652
27.0976
28.0152
28.9169
29.8017
30.6688
31.517
32.3454
33.1529
33.9385
34.7009
35.439
36.1516
36.8375
37.4953
38.1239
38.722
39.2881
39.8212
40.3199
40.7831
41.2095
41.5981
41.9479
42.258
42.5275
42.7559
42.9425
43.0869
43.189
43.2486
43.2659
43.2411
43.1748
43.0674
42.92
42.7335
42.5093
42.2488
41.9539
41.6266
41.2684
40.8807
40.4645
40.0217
39.5541
39.0636
38.5522
38.0222
37.4758
36.9151
36.3423
35.7597
35.1694
34.5735
33.9742
33.3734
32.7731
32.1752
31.5815
30.9936
30.4133
29.842
29.2811
28.732
28.1959
27.674
27.1672
26.6766
26.2029
25.7469
25.3093
24.8907
24.4915
24.1121
23.753
23.4144
23.0965
22.7995
22.5235
22.2685
22.0345
21.8215
21.6294
21.4581
21.3075
21.1773
21.0675
20.9776
20.9074
20.8566
20.8248
20.8117
20.8168
20.8399
20.8806
20.9383
21.0128
21.1035
21.2102
21.3322
21.4692
21.6207
21.7863
21.9654
22.1576
22.3624
22.5792
22.8076
23.047
23.2968
23.5564
23.8252
24.1025
24.3876
24.6799
24.9784
25.2825
25.5912
25.9035
26.2184
26.5349
26.8517
27.1675
27.4809
27.7905
28.0948
28.3919
28.6801
28.9573
29.2216
29.4707
29.7024
29.9142
30.1036
30.268
30.4046
30.5108
30.5838
30.6208
30.6191
30.576
30.4892
30.3564
30.1759
29.9463
29.6653
29.3309
28.9417
28.4965
27.9947
27.4363
26.8216
26.1517
25.4279
24.6524
23.8276
22.9566
22.0429
21.0904
20.1035
19.0867
18.0451
16.9838
15.9084
14.8245
13.738
12.6553
11.5834
10.5304
9.50587
8.52231
7.59753
6.75841
6.05579
5.61484
5.9705
11.3608
20.5599
9.83561
8.50457
8.57394
9.06204
9.7338
10.5034
11.3313
12.196
13.0848
13.9896
14.9043
15.825
16.7485
17.6724
18.595
19.5149
20.4304
21.3404
22.2432
23.1377
24.0225
24.8966
25.7588
26.6082
27.4435
28.2637
29.0677
29.8544
30.6227
31.3714
32.0992
32.8051
33.4878
34.1461
34.7787
35.3845
35.9621
36.5105
37.0284
37.5146
37.9681
38.3879
38.7729
39.1221
39.4349
39.7104
39.9479
40.1471
40.3074
40.4286
40.5106
40.5534
40.5571
40.5222
40.449
40.3382
40.1906
40.0074
39.7895
39.5384
39.2555
38.9426
38.6011
38.2323
37.8376
37.4186
36.9768
36.5142
36.0327
35.5341
35.0204
34.4938
33.9561
33.4095
32.8559
32.2972
31.7354
31.1724
30.6099
30.0497
29.4934
28.9426
28.3989
27.8636
27.3381
26.8236
26.3212
25.8321
25.3572
24.8973
24.4534
24.026
23.6159
23.2235
22.8494
22.494
22.1575
21.8404
21.5428
21.2648
21.0066
20.7683
20.5499
20.3513
20.1727
20.0138
19.8746
19.7549
19.6545
19.5731
19.5105
19.4665
19.4406
19.4327
19.4424
19.4694
19.5132
19.5736
19.6502
19.7426
19.8504
19.9733
20.1108
20.2624
20.4279
20.6067
20.7984
21.0026
21.2187
21.4463
21.6848
21.9338
22.1927
22.4608
22.7375
23.0223
23.3144
23.613
23.9173
24.2266
24.5399
24.8562
25.1744
25.4934
25.8119
26.1287
26.4423
26.7512
27.0536
27.3479
27.6322
27.9045
28.1626
28.4043
28.6274
28.8294
29.0077
29.1599
29.2832
29.375
29.4327
29.4537
29.4355
29.3756
29.272
29.1228
28.9262
28.6805
28.3838
28.0349
27.6327
27.1769
26.6673
26.1044
25.4889
24.8222
24.1062
23.3431
22.5357
21.687
20.8007
19.8805
18.9307
17.9559
16.9609
15.9509
14.9316
13.9091
12.8905
11.8837
10.8984
9.94664
9.04451
8.21477
7.49357
6.95
6.7602
7.66823
15.6102
20.5606
9.83502
8.50376
8.57308
9.06114
9.73287
10.5025
11.3303
12.195
13.0838
13.9885
14.9033
15.8239
16.7473
17.6712
18.5938
19.5136
20.4292
21.3391
22.2419
23.1363
24.0211
24.8952
25.7574
26.6067
27.4419
28.2621
29.0661
29.8528
30.621
31.3697
32.0975
32.8034
33.486
34.1443
34.7769
35.3826
35.9602
36.5085
37.0264
37.5126
37.9661
38.3858
38.7708
39.12
39.4328
39.7083
39.9458
40.145
40.3053
40.4265
40.5085
40.5513
40.555
40.5201
40.4469
40.3361
40.1886
40.0053
39.7875
39.5364
39.2536
38.9407
38.5992
38.2305
37.8358
37.4168
36.9751
36.5126
36.031
35.5325
35.0189
34.4923
33.9547
33.4081
32.8545
32.2959
31.7342
31.1712
30.6087
30.0485
29.4923
28.9416
28.3979
27.8626
27.3371
26.8227
26.3204
25.8313
25.3564
24.8966
24.4527
24.0254
23.6152
23.2229
22.8488
22.4934
22.157
21.8399
21.5423
21.2644
21.0062
20.768
20.5496
20.351
20.1724
20.0135
19.8744
19.7547
19.6543
19.5729
19.5104
19.4663
19.4405
19.4326
19.4423
19.4693
19.5131
19.5736
19.6502
19.7426
19.8504
19.9733
20.1108
20.2625
20.428
20.6068
20.7985
21.0027
21.2188
21.4464
21.685
21.934
22.1928
22.4609
22.7377
23.0225
23.3146
23.6132
23.9176
24.2269
24.5401
24.8564
25.1747
25.4937
25.8122
26.129
26.4426
26.7515
27.054
27.3483
27.6326
27.9048
28.163
28.4047
28.6278
28.8298
29.0081
29.1603
29.2836
29.3754
29.4332
29.4541
29.4359
29.3761
29.2725
29.1232
28.9266
28.6808
28.3841
28.0352
27.6331
27.1773
26.6677
26.1047
25.4892
24.8225
24.1065
23.3434
22.5359
21.6872
20.8008
19.8806
18.9308
17.956
16.961
15.951
14.9317
13.9092
12.8905
11.8837
10.8984
9.94665
9.04451
8.21476
7.49356
6.94998
6.76018
7.66815
15.6103
25.8251
11.9909
9.9582
9.7042
9.98788
10.5099
11.1608
11.8895
12.6686
13.482
14.3191
15.1724
16.0368
16.9084
17.7841
18.6618
19.5393
20.4148
21.2869
22.1539
23.0143
23.8666
24.7096
25.542
26.3625
27.17
27.9631
28.7407
29.5013
30.2437
30.9666
31.6687
32.3488
33.0054
33.6373
34.2433
34.8221
35.3725
35.8934
36.3836
36.8421
37.2679
37.6601
38.0178
38.3403
38.6269
38.8771
39.0904
39.2663
39.4048
39.5056
39.5688
39.5945
39.5829
39.5346
39.45
39.3298
39.1748
38.9861
38.7648
38.5121
38.2294
37.9182
37.5799
37.2159
36.8275
36.4162
35.9836
35.5314
35.0614
34.5754
34.0753
33.5629
33.0402
32.509
31.9713
31.4288
30.8833
30.3367
29.7906
29.2467
28.7065
28.1717
27.6435
27.1234
26.6126
26.1124
25.6238
25.1478
24.6855
24.2377
23.805
23.3884
22.9883
22.6053
22.2399
21.8925
21.5635
21.2531
20.9615
20.6891
20.4358
20.2018
19.9871
19.7919
19.616
19.4595
19.3222
19.204
19.1046
19.0238
18.9615
18.9174
18.8912
18.8826
18.8915
18.9173
18.9599
19.0189
19.094
19.1848
19.291
19.4122
19.5479
19.6979
19.8618
20.039
20.2293
20.4321
20.647
20.8735
21.1112
21.3595
21.6178
21.8857
22.1624
22.4474
22.74
23.0394
23.3449
23.6555
23.9705
24.2888
24.6094
24.9311
25.2527
25.5729
25.8904
26.2035
26.5106
26.8101
27.1
27.3784
27.6432
27.8923
28.1234
28.3341
28.522
28.6846
28.8194
28.9237
28.9951
29.031
29.0291
28.987
28.9027
28.7743
28.6001
28.3783
28.1075
27.7865
27.4145
26.9911
26.5163
25.9903
25.414
24.7887
24.1158
23.3974
22.636
21.8342
20.9951
20.1223
19.2194
18.2906
17.3404
16.3737
15.3962
14.4141
13.435
12.4678
11.5236
10.6166
9.76624
9.00037
8.36461
7.94832
7.98435
9.4315
20.0411
25.8251
11.9902
9.95735
9.70329
9.98694
10.509
11.1598
11.8885
12.6676
13.481
14.318
15.1713
16.0357
16.9072
17.783
18.6606
19.538
20.4136
21.2856
22.1526
23.0129
23.8652
24.7082
25.5405
26.3611
27.1685
27.9616
28.7391
29.4997
30.2421
30.965
31.6671
32.3471
33.0037
33.6356
34.2415
34.8203
35.3707
35.8916
36.3818
36.8402
37.266
37.6582
38.0159
38.3384
38.625
38.8752
39.0885
39.2644
39.4029
39.5037
39.5669
39.5926
39.5811
39.5327
39.4481
39.328
39.173
38.9844
38.7631
38.5104
38.2277
37.9165
37.5783
37.2143
36.826
36.4147
35.9821
35.53
35.06
34.5741
34.074
33.5616
33.039
32.5078
31.9701
31.4276
30.8822
30.3356
29.7896
29.2457
28.7056
28.1708
27.6426
27.1226
26.6118
26.1116
25.6231
25.1472
24.6849
24.237
23.8044
23.3878
22.9877
22.6048
22.2394
21.892
21.563
21.2526
20.9611
20.6887
20.4354
20.2014
19.9868
19.7916
19.6158
19.4593
19.322
19.2037
19.1044
19.0236
18.9613
18.9172
18.8911
18.8825
18.8914
18.9173
18.9599
19.0189
19.094
19.1848
19.291
19.4122
19.548
19.698
19.8618
20.0391
20.2293
20.4322
20.6471
20.8736
21.1113
21.3596
21.618
21.8858
22.1626
22.4476
22.7402
23.0396
23.3451
23.6557
23.9707
24.289
24.6096
24.9313
25.253
25.5732
25.8906
26.2038
26.5109
26.8104
27.1003
27.3787
27.6436
27.8927
28.1238
28.3345
28.5224
28.685
28.8197
28.9241
28.9954
29.0314
29.0294
28.9874
28.9031
28.7747
28.6004
28.3786
28.1078
27.7868
27.4148
26.9914
26.5165
25.9906
25.4143
24.7889
24.116
23.3976
22.6361
21.8343
20.9953
20.1224
19.2195
18.2907
17.3405
16.3738
15.3962
14.4142
13.435
12.4678
11.5236
10.6166
9.76621
9.00034
8.36457
7.94828
7.98429
9.43139
20.0411
31.1796
14.2332
11.5268
10.9794
11.089
11.4914
12.053
12.7118
13.4347
14.2016
14.9999
15.8206
16.6573
17.5054
18.3612
19.2218
20.0847
20.9478
21.8092
22.6672
23.5198
24.3656
25.2031
26.0307
26.8471
27.6507
28.44
29.2137
29.9703
30.7082
31.426
32.1221
32.7953
33.4439
34.0668
34.6624
35.2296
35.7672
36.2739
36.7488
37.1909
37.5993
37.9731
38.3117
38.6145
38.8811
39.1109
39.3037
39.4594
39.5778
39.6591
39.7033
39.7109
39.682
39.6174
39.5176
39.3834
39.2157
39.0155
38.7838
38.5221
38.2314
37.9134
37.5694
37.2007
36.8085
36.3945
35.9602
35.5071
35.037
34.5516
34.0526
33.542
33.0214
32.4927
31.9576
31.418
30.8756
30.332
29.7889
29.2479
28.7105
28.1781
27.6523
27.1342
26.6252
26.1264
25.6388
25.1636
24.7016
24.2536
23.8205
23.403
23.0017
22.617
22.2496
21.8999
21.5681
21.2546
20.9597
20.6835
20.4262
20.1879
19.9689
19.7691
19.5885
19.4271
19.2847
19.1611
19.0563
18.9701
18.9023
18.8526
18.8208
18.8066
18.8098
18.8301
18.8672
18.9208
18.9905
19.0761
19.1772
19.2934
19.4245
19.5699
19.7294
19.9025
20.0888
20.2879
20.4994
20.7228
20.9575
21.2032
21.4592
21.725
22
22.2835
22.5749
22.8734
23.1782
23.4885
23.8035
24.122
24.4431
24.7656
25.0883
25.4099
25.7289
26.0439
26.3532
26.6552
26.9479
27.2295
27.4979
27.751
27.9865
28.2022
28.3956
28.5644
28.7061
28.8183
28.8985
28.9443
28.9535
28.9239
28.8535
28.7404
28.583
28.3799
28.1296
27.8313
27.4841
27.0878
26.6423
26.148
25.6055
25.0159
24.3806
23.7013
22.9801
22.2192
21.4213
20.5893
19.7265
18.8365
17.9234
16.9919
16.0473
15.0962
14.1464
13.2077
12.2924
11.4168
10.6033
9.88505
9.31718
9.00967
9.25169
11.2284
24.5
31.1799
14.2325
11.5259
10.9784
11.088
11.4904
12.052
12.7108
13.4336
14.2006
14.9988
15.8194
16.6562
17.5042
18.36
19.2206
20.0835
20.9465
21.8079
22.6658
23.5184
24.3642
25.2016
26.0292
26.8456
27.6491
28.4385
29.2122
29.9687
30.7066
31.4243
32.1205
32.7936
33.4422
34.065
34.6607
35.2279
35.7654
36.2721
36.747
37.1891
37.5974
37.9713
38.3099
38.6127
38.8792
39.109
39.3019
39.4575
39.576
39.6573
39.7015
39.7091
39.6803
39.6157
39.5159
39.3817
39.214
39.0138
38.7822
38.5205
38.2299
37.9119
37.5679
37.1992
36.8071
36.3931
35.9588
35.5058
35.0357
34.5503
34.0514
33.5408
33.0202
32.4916
31.9566
31.417
30.8746
30.331
29.7879
29.247
28.7096
28.1773
27.6515
27.1335
26.6245
26.1256
25.6381
25.1629
24.7009
24.253
23.82
23.4025
23.0011
22.6165
22.2492
21.8994
21.5677
21.2542
20.9593
20.6831
20.4258
20.1876
19.9686
19.7688
19.5883
19.4268
19.2844
19.1609
19.0561
18.9699
18.9021
18.8524
18.8206
18.8065
18.8097
18.83
18.8671
18.9207
18.9905
19.0761
19.1772
19.2934
19.4244
19.5699
19.7294
19.9025
20.0888
20.288
20.4995
20.7228
20.9576
21.2033
21.4593
21.7251
22.0001
22.2836
22.575
22.8735
23.1784
23.4887
23.8036
24.1222
24.4433
24.7658
25.0885
25.4101
25.7291
26.0442
26.3535
26.6555
26.9482
27.2298
27.4982
27.7513
27.9868
28.2025
28.3959
28.5647
28.7064
28.8186
28.8988
28.9446
28.9538
28.9242
28.8537
28.7407
28.5833
28.3802
28.1299
27.8315
27.4843
27.088
26.6425
26.1481
25.6056
25.016
24.3807
23.7014
22.9802
22.2193
21.4214
20.5894
19.7266
18.8366
17.9235
16.9919
16.0473
15.0962
14.1464
13.2076
12.2923
11.4167
10.6032
9.885
9.31711
9.00961
9.25159
11.2282
24.4995
36.7224
16.5937
13.2178
12.3912
12.3445
12.6462
13.138
13.7467
14.433
15.1735
15.953
16.7611
17.5902
18.4348
19.2906
20.1541
21.0222
21.8926
22.7629
23.6311
24.4953
25.3535
26.204
27.0451
27.8751
28.6924
29.4951
30.2816
31.0501
31.799
32.5266
33.2312
33.9112
34.565
35.1911
35.788
36.3546
36.8894
37.3915
37.8596
38.2931
38.691
39.0527
39.3776
39.6653
39.9154
40.1279
40.3024
40.4392
40.5383
40.6
40.6245
40.6124
40.5642
40.4805
40.3621
40.2099
40.0249
39.808
39.5605
39.2836
38.9787
38.6471
38.2902
37.9093
37.5057
37.0809
36.6364
36.1738
35.6947
35.2008
34.6937
34.1753
33.6472
33.1113
32.5691
32.0225
31.4731
30.9225
30.3724
29.8242
29.2796
28.7399
28.2064
27.6805
27.1635
26.6564
26.1603
25.6763
25.2053
24.7481
24.3055
23.8782
23.4669
23.0722
22.6944
22.3341
21.9916
21.6672
21.3613
21.074
20.8055
20.5561
20.3259
20.115
19.9232
19.7506
19.597
19.4624
19.3466
19.2495
19.1708
19.1104
19.068
19.0435
19.0365
19.0468
19.0741
19.1181
19.1784
19.2549
19.3471
19.4548
19.5775
19.7149
19.8666
20.0323
20.2114
20.4037
20.6087
20.8258
21.0547
21.2948
21.5455
21.8063
22.0767
22.3558
22.6432
22.9379
23.2392
23.5463
23.8583
24.1741
24.4927
24.813
25.1337
25.4535
25.7709
26.0846
26.3928
26.6939
26.986
27.2672
27.5355
27.7889
28.0252
28.2421
28.4373
28.6085
28.7534
28.8696
28.9549
29.0069
29.0236
29.0029
28.9429
28.842
28.6987
28.5115
28.2793
28.0014
27.6771
27.3061
26.8885
26.4245
25.9147
25.36
24.7615
24.1206
23.4389
22.7182
21.9607
21.1688
20.345
19.4926
18.6151
17.7167
16.8028
15.8798
14.9557
14.0411
13.1494
12.2987
11.5145
10.8349
10.3247
10.1147
10.5513
13.0522
28.9525
36.7238
16.593
13.2168
12.3902
12.3435
12.6451
13.1369
13.7456
14.432
15.1724
15.9519
16.7599
17.589
18.4336
19.2894
20.1528
21.0209
21.8912
22.7615
23.6297
24.4938
25.352
26.2025
27.0436
27.8736
28.6908
29.4935
30.28
31.0485
31.7974
32.5249
33.2295
33.9095
34.5632
35.1893
35.7863
36.3528
36.8876
37.3897
37.8578
38.2913
38.6892
39.0508
39.3757
39.6634
39.9136
40.126
40.3007
40.4374
40.5366
40.5982
40.6228
40.6107
40.5625
40.4788
40.3605
40.2083
40.0233
39.8064
39.559
39.2821
38.9772
38.6456
38.2887
37.9079
37.5043
37.0796
36.6351
36.1725
35.6934
35.1996
34.6925
34.1742
33.6461
33.1102
32.5681
32.0215
31.4721
30.9216
30.3715
29.8234
29.2787
28.739
28.2056
27.6798
27.1627
26.6556
26.1596
25.6756
25.2046
24.7475
24.3049
23.8777
23.4664
23.0716
22.6939
22.3336
21.9911
21.6668
21.3609
21.0736
20.8051
20.5558
20.3256
20.1146
19.9229
19.7503
19.5967
19.4621
19.3464
19.2492
19.1706
19.1102
19.0679
19.0433
19.0363
19.0466
19.0739
19.1179
19.1783
19.2548
19.347
19.4547
19.5774
19.7148
19.8666
20.0322
20.2114
20.4037
20.6087
20.8258
21.0547
21.2948
21.5455
21.8064
22.0767
22.3559
22.6432
22.938
23.2393
23.5464
23.8584
24.1743
24.4929
24.8132
25.1338
25.4536
25.7711
26.0848
26.393
26.6941
26.9862
27.2674
27.5358
27.7892
28.0254
28.2423
28.4375
28.6088
28.7536
28.8699
28.9551
29.0072
29.0238
29.0031
28.9432
28.8423
28.6989
28.5117
28.2795
28.0016
27.6773
27.3063
26.8886
26.4246
25.9148
25.3601
24.7616
24.1207
23.4389
22.7183
21.9608
21.1688
20.3451
19.4926
18.6151
17.7167
16.8028
15.8798
14.9557
14.0411
13.1493
12.2986
11.5144
10.8348
10.3246
10.1146
10.5512
13.0519
28.9516
42.5455
19.1065
15.0454
13.9436
13.7507
13.9644
14.4003
14.9735
15.6384
16.3677
17.144
17.9551
18.7925
19.6496
20.5214
21.4037
22.2932
23.1868
24.082
24.9764
25.8677
26.7538
27.6327
28.5023
29.3608
30.2061
31.0362
31.8491
32.6429
33.4156
34.1652
34.8899
35.5878
36.2572
36.8965
37.5042
38.0787
38.6189
39.1236
39.5917
40.0225
40.4152
40.7694
41.0845
41.3603
41.5967
41.7936
41.9512
42.0697
42.1494
42.1909
42.1945
42.1609
42.091
41.9854
41.8451
41.6711
41.4645
41.2263
40.9579
40.6605
40.3355
39.9843
39.6083
39.2087
38.7869
38.3443
37.8824
37.4028
36.9071
36.3968
35.8738
35.3395
34.7958
34.2443
33.6867
33.1247
32.5599
31.9939
31.4282
30.8645
30.3041
29.7485
29.199
28.657
28.1236
27.5999
27.0872
26.5863
26.0983
25.624
25.1641
24.7194
24.2906
23.8782
23.4827
23.1047
22.7444
22.4022
22.0785
21.7733
21.4873
21.2204
20.9728
20.7445
20.5356
20.346
20.1756
20.0244
19.8922
19.7788
19.6842
19.6081
19.5503
19.5106
19.4888
19.4845
19.4975
19.5276
19.5743
19.6375
19.7168
19.8118
19.9223
20.0478
20.1879
20.3424
20.5107
20.6925
20.8873
21.0947
21.3141
21.5451
21.787
22.0394
22.3016
22.5729
22.8527
23.1402
23.4345
23.7349
24.0403
24.3499
24.6624
24.9768
25.2919
25.6062
25.9184
26.227
26.5304
26.8268
27.1145
27.3917
27.6562
27.9062
28.1395
28.354
28.5474
28.7176
28.8622
28.9792
29.0664
29.1217
29.1431
29.1288
29.077
28.9863
28.8552
28.6827
28.4677
28.2096
27.9079
27.5623
27.1729
26.7398
26.2637
25.745
25.1847
24.5837
23.9433
23.2647
22.5494
21.7994
21.0165
20.2033
19.3629
18.499
17.6167
16.7222
15.8238
14.9326
14.0629
13.2346
12.476
11.8304
11.3718
11.2516
11.8718
14.8725
33.356
42.547
19.1056
15.0443
13.9425
13.7496
13.9633
14.3992
14.9724
15.6372
16.3666
17.1428
17.9539
18.7912
19.6483
20.5201
21.4024
22.2918
23.1854
24.0806
24.9749
25.8661
26.7522
27.6311
28.5007
29.3592
30.2044
31.0345
31.8474
32.6412
33.4138
34.1634
34.8881
35.586
36.2554
36.8947
37.5024
38.0769
38.617
39.1217
39.5899
40.0207
40.4134
40.7675
41.0826
41.3585
41.5948
41.7918
41.9494
42.0679
42.1477
42.1891
42.1927
42.1592
42.0892
41.9837
41.8434
41.6695
41.4629
41.2247
40.9564
40.659
40.334
39.9829
39.6068
39.2073
38.7855
38.3429
37.8811
37.4015
36.9058
36.3956
35.8726
35.3384
34.7947
34.2432
33.6857
33.1237
32.5589
31.9929
31.4273
30.8636
30.3032
29.7476
29.1982
28.6562
28.1228
27.5992
27.0865
26.5857
26.0977
25.6233
25.1635
24.7188
24.29
23.8776
23.4822
23.1041
22.7439
22.4017
22.078
21.7729
21.4869
21.22
20.9724
20.7442
20.5353
20.3457
20.1753
20.0241
19.8919
19.7786
19.684
19.6079
19.5501
19.5104
19.4886
19.4843
19.4973
19.5274
19.5742
19.6374
19.7166
19.8117
19.9222
20.0477
20.1878
20.3423
20.5107
20.6925
20.8873
21.0947
21.3141
21.545
21.787
22.0394
22.3016
22.5729
22.8527
23.1402
23.4345
23.7349
24.0404
24.3499
24.6625
24.9769
25.292
25.6063
25.9185
26.2271
26.5305
26.827
27.1147
27.3918
27.6564
27.9064
28.1397
28.3542
28.5476
28.7177
28.8624
28.9794
29.0666
29.1219
29.1433
29.129
29.0772
28.9864
28.8554
28.6828
28.4678
28.2097
27.908
27.5624
27.1729
26.7399
26.2637
25.7451
25.1847
24.5837
23.9433
23.2647
22.5494
21.7994
21.0165
20.2033
19.3628
18.499
17.6166
16.7221
15.8238
14.9325
14.0628
13.2345
12.4759
11.8302
11.3716
11.2515
11.8717
14.8723
33.3559
48.7031
21.796
17.0255
15.6463
15.3125
15.4469
15.8375
16.3869
17.0426
17.7736
18.5599
19.3877
20.247
21.1306
22.0324
22.9478
23.8728
24.8039
25.7382
26.6729
27.6054
28.5334
29.4545
30.3663
31.2664
32.1527
33.0228
33.8744
34.7052
35.513
36.2955
37.0507
37.7764
38.4708
39.132
39.7583
40.3484
40.9007
41.4142
41.888
42.3211
42.713
43.0632
43.3716
43.638
43.8624
44.0451
44.1863
44.2866
44.3464
44.3665
44.3477
44.2906
44.1964
44.0659
43.9003
43.7007
43.4682
43.2042
42.91
42.5869
42.2363
41.8598
41.4586
41.0341
40.5876
40.1206
39.6346
39.131
38.6115
38.0777
37.5312
36.9737
36.4068
35.8321
35.2514
34.6662
34.0782
33.4889
32.9
32.3128
31.7289
31.1496
30.5764
30.0104
29.453
28.9052
28.3682
27.8429
27.3304
26.8316
26.3471
25.8778
25.4243
24.9872
24.5672
24.1645
23.7797
23.4131
23.065
22.7358
22.4258
22.1352
21.8641
21.6126
21.3807
21.1683
20.9754
20.8021
20.648
20.5132