/*--------------------------------*- C++ -*----------------------------------*\
  =========                 |
  \\      /  F ield         | OpenFOAM: The Open Source CFD Toolbox
   \\    /   O peration     | Website:  https://openfoam.org
    \\  /    A nd           | Version:  8
     \\/     M anipulation  |
\*---------------------------------------------------------------------------*/
FoamFile
{
    version     2.0;
    format      ascii;
    class       volScalarField;
    location    "1800";
    object      k;
}
// * * * * * * * * * * * * * * * * * * * * * * * * * * * * * * * * * * * * * //

dimensions      [0 2 -2 0 0 0 0];

internalField   nonuniform List<scalar> 
46000
(
0.000714282
0.00352757
0.00754751
0.0116485
0.0156662
0.0195992
0.0234589
0.0272528
0.0309858
0.0346644
0.0382781
0.0418231
0.0452989
0.0487047
0.05204
0.0553054
0.0585179
0.0616649
0.0647441
0.0677553
0.0706986
0.073574
0.0763818
0.079122
0.0817949
0.0844007
0.0869393
0.0894104
0.0918138
0.0941487
0.0964142
0.0986091
0.100732
0.102782
0.104756
0.106653
0.108471
0.110207
0.111859
0.113424
0.114899
0.116283
0.117571
0.118762
0.119853
0.120842
0.121726
0.122505
0.123176
0.123737
0.124189
0.124531
0.124761
0.124882
0.124892
0.124793
0.124587
0.124274
0.123858
0.12334
0.122724
0.122014
0.121225
0.120367
0.119426
0.118406
0.117311
0.116146
0.114916
0.113627
0.112284
0.110893
0.109459
0.107987
0.106484
0.104955
0.103405
0.10184
0.100265
0.0986844
0.097104
0.0955283
0.093962
0.0924093
0.0908746
0.0893616
0.0878741
0.0864155
0.0849892
0.0835979
0.0822445
0.0809315
0.0796611
0.078435
0.077255
0.0761229
0.07504
0.0740075
0.0730262
0.0720969
0.0712203
0.0703967
0.0696262
0.0689087
0.0682442
0.0676326
0.0670737
0.0665669
0.0661114
0.0657067
0.0653519
0.0650465
0.0647893
0.0645791
0.0644142
0.0642944
0.0642182
0.0641843
0.0641913
0.0642382
0.0643236
0.0644461
0.0646044
0.0647969
0.0650225
0.0652796
0.0655668
0.0658825
0.0662254
0.066594
0.0669869
0.0674024
0.0678388
0.0682943
0.068767
0.0692553
0.0697574
0.0702712
0.0707947
0.0713257
0.0718618
0.0724004
0.0729388
0.0734738
0.0740025
0.0745215
0.0750278
0.0755176
0.0759869
0.0764315
0.0768468
0.077228
0.0775702
0.0778686
0.0781177
0.078312
0.0784456
0.0785124
0.0785064
0.0784217
0.0782523
0.0779923
0.077636
0.0771777
0.0766118
0.0759335
0.0751436
0.0742595
0.0732576
0.0721309
0.070877
0.0694948
0.0679844
0.0663468
0.0645842
0.0626996
0.0606967
0.058581
0.0563589
0.0540379
0.0516262
0.0491331
0.0465684
0.043943
0.0412681
0.0385553
0.0358157
0.0330608
0.0303013
0.0275453
0.0247859
0.0220517
0.0193383
0.0166255
0.0139072
0.0111767
0.00844039
0.00558076
0.00267361
0.000544952
0.000714383
0.00352798
0.00754821
0.0116493
0.015667
0.0196
0.0234596
0.0272534
0.0309864
0.0346651
0.0382789
0.041824
0.0452998
0.0487057
0.0520409
0.0553062
0.0585184
0.0616651
0.0647441
0.0677553
0.0706988
0.0735746
0.0763829
0.0791236
0.0817969
0.0844029
0.0869414
0.0894123
0.0918152
0.0941496
0.0964147
0.0986094
0.100732
0.102782
0.104757
0.106654
0.108473
0.110209
0.111861
0.113426
0.114901
0.116285
0.117573
0.118764
0.119855
0.120843
0.121728
0.122506
0.123177
0.123739
0.12419
0.124532
0.124762
0.124883
0.124893
0.124794
0.124588
0.124275
0.123859
0.123341
0.122725
0.122016
0.121227
0.120369
0.119428
0.118407
0.117312
0.116147
0.114918
0.113629
0.112286
0.110895
0.10946
0.107989
0.106486
0.104957
0.103407
0.101842
0.100266
0.0986858
0.0971053
0.0955296
0.0939632
0.0924104
0.0908755
0.0893623
0.0878746
0.0864159
0.0849893
0.083598
0.0822444
0.0809312
0.0796604
0.0784339
0.0772537
0.0761214
0.0750386
0.0740061
0.0730249
0.0720957
0.0712191
0.0703954
0.0696248
0.0689074
0.068243
0.0676316
0.0670728
0.066566
0.0661107
0.0657062
0.0653516
0.0650465
0.0647895
0.0645796
0.0644149
0.0642951
0.0642188
0.0641848
0.0641917
0.0642385
0.0643236
0.0644459
0.0646039
0.0647963
0.0650218
0.0652788
0.065566
0.0658817
0.0662246
0.0665932
0.0669861
0.0674017
0.067838
0.0682934
0.0687661
0.0692545
0.0697566
0.0702706
0.0707942
0.0713254
0.0718616
0.0724002
0.0729384
0.0734733
0.0740018
0.074521
0.0750273
0.0755172
0.0759866
0.076431
0.0768461
0.0772272
0.0775695
0.077868
0.0781173
0.0783116
0.0784451
0.0785117
0.0785056
0.0784208
0.0782514
0.0779916
0.0776354
0.0771772
0.0766114
0.075933
0.0751432
0.0742592
0.0732573
0.0721306
0.0708766
0.0694943
0.0679839
0.0663464
0.0645838
0.062699
0.0606959
0.0585801
0.0563579
0.0540368
0.051625
0.0491317
0.046567
0.0439418
0.0412672
0.0385544
0.035815
0.0330604
0.0303011
0.0275453
0.024786
0.0220517
0.0193384
0.0166256
0.0139073
0.0111768
0.00844038
0.00558081
0.00267363
0.000544957
0.00354544
0.0212381
0.0364802
0.0492122
0.0605456
0.0709492
0.0806698
0.0898535
0.098595
0.106947
0.114955
0.122655
0.130072
0.137229
0.144141
0.150823
0.157289
0.163546
0.169604
0.17547
0.181151
0.186653
0.191983
0.197145
0.202145
0.206987
0.211674
0.216209
0.220594
0.224832
0.228922
0.232867
0.236665
0.240316
0.243819
0.247173
0.250375
0.253423
0.256314
0.259045
0.261613
0.264015
0.266248
0.268308
0.270192
0.271897
0.27342
0.274759
0.275913
0.276878
0.277654
0.278241
0.278637
0.278844
0.278863
0.278694
0.27834
0.277805
0.27709
0.2762
0.275141
0.273916
0.272533
0.271003
0.269327
0.267513
0.265566
0.263495
0.261308
0.259014
0.25662
0.254137
0.251572
0.248936
0.246237
0.243485
0.240689
0.237857
0.235
0.232125
0.229242
0.226359
0.223484
0.220625
0.21779
0.214987
0.212222
0.209502
0.206834
0.204223
0.201675
0.199196
0.19679
0.194462
0.192216
0.190055
0.187983
0.186004
0.184118
0.18233
0.18064
0.17905
0.177561
0.176175
0.174891
0.17371
0.172632
0.171656
0.170782
0.170009
0.169335
0.16876
0.168283
0.1679
0.16761
0.16741
0.167299
0.167273
0.167331
0.16747
0.167687
0.167979
0.168344
0.168778
0.169279
0.169844
0.170468
0.171151
0.171887
0.172675
0.17351
0.17439
0.17531
0.176268
0.17726
0.178281
0.179329
0.180398
0.181486
0.182587
0.183697
0.184811
0.185923
0.187028
0.188121
0.189194
0.190243
0.191259
0.192236
0.193165
0.194039
0.194848
0.195585
0.196239
0.196801
0.19726
0.197605
0.197826
0.197912
0.19785
0.197631
0.197242
0.196672
0.195909
0.194943
0.193762
0.192358
0.190726
0.188854
0.186731
0.184351
0.181708
0.178797
0.175618
0.172167
0.168446
0.164457
0.160204
0.155692
0.150929
0.145924
0.140685
0.135226
0.129557
0.123691
0.117642
0.111423
0.105043
0.0985129
0.0918373
0.0850145
0.0780335
0.070855
0.0634114
0.055665
0.0474031
0.0384054
0.0283003
0.0161855
0.00256931
0.00354593
0.0212395
0.0364815
0.0492133
0.0605464
0.0709498
0.0806702
0.0898538
0.0985952
0.106947
0.114955
0.122654
0.130072
0.137229
0.144141
0.150822
0.157288
0.163546
0.169603
0.175469
0.18115
0.186652
0.191982
0.197144
0.202144
0.206986
0.211673
0.216208
0.220593
0.22483
0.228921
0.232865
0.236663
0.240315
0.243818
0.247171
0.250373
0.253421
0.256312
0.259043
0.261611
0.264014
0.266246
0.268306
0.27019
0.271895
0.273418
0.274757
0.275911
0.276876
0.277652
0.278239
0.278635
0.278842
0.278861
0.278692
0.278338
0.277802
0.277088
0.276198
0.275139
0.273914
0.272531
0.271001
0.269325
0.26751
0.265564
0.263493
0.261306
0.259011
0.256618
0.254134
0.25157
0.248933
0.246235
0.243482
0.240686
0.237855
0.234997
0.232123
0.22924
0.226357
0.223482
0.220623
0.217788
0.214985
0.21222
0.2095
0.206832
0.204221
0.201673
0.199194
0.196788
0.19446
0.192214
0.190053
0.187982
0.186002
0.184117
0.182328
0.180638
0.179049
0.17756
0.176173
0.174889
0.173709
0.17263
0.171655
0.17078
0.170007
0.169333
0.168759
0.168281
0.167898
0.167608
0.167408
0.167297
0.167272
0.16733
0.167468
0.167685
0.167978
0.168343
0.168777
0.169278
0.169842
0.170467
0.17115
0.171886
0.172674
0.173509
0.174389
0.175309
0.176267
0.177258
0.17828
0.179328
0.180397
0.181485
0.182586
0.183696
0.18481
0.185922
0.187027
0.188119
0.189193
0.190242
0.191258
0.192234
0.193164
0.194038
0.194847
0.195584
0.196238
0.1968
0.197259
0.197604
0.197825
0.197911
0.197849
0.19763
0.197241
0.196671
0.195908
0.194942
0.193761
0.192357
0.190726
0.188853
0.186731
0.184351
0.181707
0.178797
0.175617
0.172167
0.168446
0.164457
0.160204
0.155692
0.150929
0.145924
0.140685
0.135225
0.129557
0.123691
0.117642
0.111422
0.105043
0.0985127
0.0918372
0.0850145
0.0780336
0.0708552
0.0634115
0.0556652
0.0474032
0.0384056
0.0283004
0.0161855
0.00256932
0.00763225
0.0367574
0.0571375
0.0733284
0.0876111
0.100713
0.11296
0.124536
0.135554
0.146085
0.156188
0.165904
0.175266
0.184299
0.193026
0.201463
0.209627
0.217529
0.22518
0.23259
0.239766
0.246717
0.253449
0.259968
0.266281
0.272391
0.278302
0.284018
0.289541
0.294873
0.300014
0.304966
0.309727
0.314297
0.318674
0.322857
0.326844
0.33063
0.334214
0.337592
0.34076
0.343716
0.346455
0.348974
0.35127
0.35334
0.355181
0.356791
0.358167
0.359308
0.360213
0.360882
0.361314
0.361512
0.361475
0.361208
0.360711
0.35999
0.359048
0.357891
0.356525
0.354956
0.353193
0.351243
0.349115
0.346815
0.344352
0.341736
0.338976
0.336083
0.333067
0.329939
0.326711
0.323392
0.319996
0.316533
0.313014
0.309451
0.305855
0.302236
0.298607
0.294976
0.291355
0.287753
0.284181
0.280647
0.277161
0.273731
0.270364
0.26707
0.263854
0.260725
0.257687
0.254747
0.25191
0.249181
0.246565
0.244065
0.241684
0.239427
0.237294
0.235289
0.233413
0.231667
0.230053
0.22857
0.227218
0.225998
0.224908
0.223948
0.223117
0.222412
0.221832
0.221373
0.221035
0.220813
0.220705
0.220708
0.220818
0.221033
0.221349
0.221762
0.222268
0.222865
0.223547
0.224312
0.225155
0.226072
0.227058
0.228111
0.229225
0.230396
0.231621
0.232893
0.234209
0.235563
0.236951
0.238368
0.239807
0.241264
0.242733
0.244206
0.245678
0.247141
0.248589
0.250013
0.251405
0.252757
0.254059
0.255301
0.256473
0.257565
0.258565
0.259461
0.260241
0.260892
0.261401
0.261753
0.261936
0.261934
0.261734
0.261322
0.260682
0.2598
0.258664
0.257259
0.255574
0.253599
0.25132
0.248726
0.245808
0.242558
0.238971
0.235041
0.230767
0.226147
0.221184
0.21588
0.210241
0.204272
0.197983
0.191384
0.184485
0.177298
0.169837
0.162114
0.154141
0.145928
0.137484
0.128813
0.11991
0.110764
0.10134
0.0915822
0.0813931
0.0705684
0.0588153
0.0455077
0.0287069
0.00551919
0.00763302
0.0367584
0.057138
0.0733285
0.0876109
0.100712
0.11296
0.124536
0.135553
0.146084
0.156187
0.165903
0.175265
0.184298
0.193024
0.201462
0.209626
0.217528
0.225178
0.232588
0.239764
0.246714
0.253446
0.259966
0.266278
0.272388
0.278299
0.284015
0.289538
0.29487
0.300011
0.304963
0.309724
0.314294
0.318671
0.322854
0.32684
0.330627
0.33421
0.337588
0.340757
0.343712
0.346451
0.34897
0.351267
0.353336
0.355177
0.356787
0.358163
0.359304
0.360209
0.360878
0.36131
0.361508
0.361471
0.361203
0.360707
0.359986
0.359044
0.357887
0.356521
0.354952
0.353188
0.351239
0.34911
0.346811
0.344348
0.341732
0.338972
0.336079
0.333063
0.329935
0.326706
0.323388
0.319992
0.316529
0.31301
0.309447
0.305851
0.302233
0.298603
0.294972
0.291351
0.28775
0.284178
0.280644
0.277158
0.273727
0.270361
0.267067
0.263851
0.260722
0.257684
0.254744
0.251907
0.249178
0.246562
0.244062
0.241682
0.239424
0.237292
0.235287
0.233411
0.231665
0.230051
0.228568
0.227216
0.225996
0.224906
0.223946
0.223115
0.22241
0.22183
0.221371
0.221033
0.220811
0.220703
0.220706
0.220817
0.221031
0.221347
0.22176
0.222267
0.222863
0.223546
0.224311
0.225153
0.22607
0.227057
0.22811
0.229224
0.230395
0.231619
0.232892
0.234208
0.235562
0.23695
0.238367
0.239806
0.241263
0.242732
0.244205
0.245677
0.24714
0.248588
0.250012
0.251404
0.252756
0.254058
0.2553
0.256473
0.257564
0.258564
0.25946
0.26024
0.260891
0.2614
0.261752
0.261935
0.261934
0.261734
0.261321
0.260681
0.2598
0.258663
0.257259
0.255574
0.253599
0.25132
0.248726
0.245808
0.242558
0.23897
0.235041
0.230767
0.226147
0.221184
0.21588
0.210241
0.204272
0.197983
0.191384
0.184485
0.177299
0.169837
0.162114
0.154141
0.145928
0.137484
0.128813
0.119911
0.110764
0.101341
0.0915824
0.0813932
0.0705686
0.0588155
0.0455077
0.0287069
0.00551918
0.0117961
0.0498422
0.0738222
0.0922528
0.10836
0.123124
0.13695
0.150048
0.162538
0.174504
0.186006
0.197085
0.207777
0.218107
0.228098
0.23777
0.247137
0.256212
0.265007
0.273531
0.281793
0.2898
0.297559
0.305076
0.312356
0.319402
0.326219
0.33281
0.339174
0.345315
0.351232
0.356925
0.362393
0.367634
0.372646
0.377428
0.381975
0.386286
0.390357
0.394184
0.397764
0.401094
0.40417
0.406988
0.409547
0.411842
0.413872
0.415634
0.417127
0.41835
0.419303
0.419986
0.420399
0.420544
0.420424
0.420041
0.419399
0.418503
0.417358
0.41597
0.414346
0.412495
0.410424
0.408143
0.405659
0.402983
0.400124
0.397091
0.393897
0.390553
0.38707
0.383461
0.379738
0.375914
0.372001
0.368013
0.363962
0.359861
0.355723
0.351559
0.347383
0.343206
0.33904
0.334896
0.330786
0.32672
0.322708
0.31876
0.314886
0.311093
0.307392
0.303788
0.300291
0.296905
0.293639
0.290496
0.287483
0.284603
0.281862
0.279262
0.276807
0.274498
0.272339
0.27033
0.268473
0.266768
0.265216
0.263816
0.262569
0.261472
0.260524
0.259722
0.259066
0.258551
0.258175
0.257936
0.257829
0.257851
0.257999
0.258268
0.258655
0.259156
0.259765
0.26048
0.261296
0.262207
0.263209
0.264299
0.26547
0.266718
0.268038
0.269425
0.270874
0.272379
0.273935
0.275537
0.277178
0.278852
0.280554
0.282276
0.284011
0.285753
0.287493
0.289225
0.290938
0.292624
0.294273
0.295876
0.297422
0.2989
0.300298
0.301603
0.302802
0.303883
0.30483
0.30563
0.306267
0.306725
0.306989
0.307044
0.306871
0.306456
0.305782
0.304833
0.303594
0.302051
0.300189
0.297995
0.295457
0.292561
0.289297
0.285657
0.281633
0.27722
0.272416
0.267218
0.261627
0.255645
0.249277
0.242528
0.235407
0.227921
0.220082
0.211899
0.203385
0.19455
0.185406
0.175963
0.166227
0.156204
0.145892
0.135279
0.12434
0.113024
0.101235
0.0887865
0.0753017
0.0598447
0.0397262
0.00867717
0.0117968
0.0498428
0.0738222
0.0922524
0.10836
0.123123
0.136949
0.150047
0.162537
0.174503
0.186004
0.197084
0.207775
0.218105
0.228096
0.237768
0.247135
0.25621
0.265005
0.273529
0.281791
0.289798
0.297557
0.305073
0.312353
0.3194
0.326217
0.332807
0.339172
0.345312
0.351229
0.356922
0.362389
0.36763
0.372643
0.377424
0.381972
0.386283
0.390353
0.39418
0.397761
0.40109
0.404166
0.406984
0.409542
0.411838
0.413867
0.41563
0.417123
0.418346
0.419299
0.419981
0.420394
0.420539
0.420419
0.420036
0.419394
0.418498
0.417353
0.415965
0.414342
0.41249
0.410419
0.408138
0.405655
0.402979
0.400119
0.397087
0.393893
0.390548
0.387065
0.383456
0.379734
0.375909
0.371997
0.368009
0.363958
0.359857
0.355719
0.351555
0.347379
0.343202
0.339036
0.334893
0.330782
0.326716
0.322705
0.318757
0.314883
0.31109
0.307389
0.303786
0.300288
0.296903
0.293636
0.290493
0.28748
0.284601
0.28186
0.27926
0.276804
0.274496
0.272337
0.270328
0.268471
0.266766
0.265214
0.263815
0.262567
0.26147
0.260522
0.259721
0.259064
0.258549
0.258174
0.257934
0.257827
0.257849
0.257997
0.258266
0.258654
0.259154
0.259764
0.260479
0.261294
0.262206
0.263208
0.264298
0.265469
0.266717
0.268037
0.269424
0.270873
0.272378
0.273934
0.275536
0.277177
0.278851
0.280553
0.282275
0.28401
0.285752
0.287493
0.289224
0.290937
0.292623
0.294273
0.295876
0.297422
0.298899
0.300297
0.301602
0.302802
0.303882
0.30483
0.305629
0.306266
0.306725
0.306989
0.307043
0.306871
0.306456
0.305782
0.304833
0.303594
0.302051
0.300189
0.297995
0.295457
0.292561
0.289297
0.285657
0.281633
0.27722
0.272416
0.267218
0.261627
0.255645
0.249277
0.242529
0.235407
0.227922
0.220082
0.2119
0.203385
0.19455
0.185406
0.175963
0.166228
0.156204
0.145892
0.135279
0.12434
0.113024
0.101235
0.0887865
0.0753017
0.0598447
0.0397262
0.00867719
0.0159104
0.0616498
0.0888304
0.109204
0.126816
0.142905
0.157971
0.172261
0.185912
0.199016
0.211634
0.22381
0.235577
0.246963
0.257991
0.268679
0.279042
0.289094
0.298844
0.308303
0.317478
0.326376
0.335002
0.343363
0.351462
0.359303
0.366889
0.37422
0.381298
0.388122
0.394692
0.401007
0.407064
0.412862
0.418398
0.423669
0.428672
0.433402
0.437858
0.442035
0.44593
0.449541
0.452862
0.455893
0.458631
0.461072
0.463217
0.465062
0.466608
0.467855
0.468803
0.469452
0.469806
0.469865
0.469633
0.469115
0.468315
0.467237
0.46589
0.464279
0.462412
0.460298
0.457947
0.455368
0.45257
0.449563
0.446358
0.442966
0.439399
0.43567
0.431791
0.427775
0.423636
0.419388
0.415044
0.410618
0.406124
0.401576
0.396988
0.392372
0.387743
0.383113
0.378496
0.373903
0.369347
0.364839
0.360391
0.356014
0.351717
0.34751
0.343403
0.339404
0.335522
0.331763
0.328135
0.324643
0.321294
0.318093
0.315044
0.312151
0.309418
0.306848
0.304442
0.302204
0.300133
0.298231
0.2965
0.294938
0.293544
0.292318
0.291257
0.290359
0.289622
0.289043
0.288619
0.288347
0.288222
0.288242
0.288402
0.288698
0.289125
0.289679
0.290356
0.291149
0.292056
0.29307
0.294186
0.2954
0.296705
0.298096
0.299569
0.301116
0.302734
0.304414
0.306152
0.307941
0.309774
0.311645
0.313546
0.315471
0.317411
0.319358
0.321305
0.323241
0.325158
0.327045
0.328892
0.330687
0.332419
0.334077
0.335645
0.337112
0.338462
0.339682
0.340755
0.341665
0.342397
0.342934
0.343257
0.343351
0.343197
0.342779
0.342078
0.341078
0.339762
0.338116
0.336123
0.333771
0.331044
0.327931
0.32442
0.320502
0.31617
0.311418
0.306241
0.300638
0.294609
0.288154
0.281276
0.273981
0.266273
0.25816
0.249649
0.24075
0.23147
0.22182
0.211808
0.201442
0.19073
0.179675
0.168278
0.156532
0.144413
0.131877
0.118826
0.105058
0.0901321
0.0729185
0.0499577
0.0119452
0.0159107
0.0616502
0.0888301
0.109203
0.126815
0.142904
0.15797
0.17226
0.185911
0.199015
0.211633
0.223808
0.235575
0.246961
0.257989
0.268677
0.27904
0.289091
0.298842
0.308301
0.317476
0.326373
0.335
0.34336
0.35146
0.359301
0.366886
0.374217
0.381295
0.388119
0.394689
0.401004
0.407061
0.412859
0.418395
0.423666
0.428668
0.433399
0.437854
0.442032
0.445927
0.449537
0.452859
0.455889
0.458627
0.461068
0.463213
0.465058
0.466604
0.467851
0.468799
0.469448
0.469801
0.469861
0.469629
0.469111
0.46831
0.467233
0.465886
0.464274
0.462408
0.460294
0.457943
0.455364
0.452566
0.449559
0.446354
0.442962
0.439395
0.435666
0.431787
0.427772
0.423633
0.419385
0.415041
0.410615
0.406121
0.401573
0.396984
0.392369
0.38774
0.38311
0.378492
0.3739
0.369344
0.364836
0.360388
0.356011
0.351714
0.347508
0.343401
0.339402
0.335519
0.331761
0.328132
0.324641
0.321292
0.318091
0.315042
0.312149
0.309416
0.306846
0.304441
0.302202
0.300131
0.29823
0.296498
0.294936
0.293543
0.292316
0.291255
0.290357
0.289621
0.289042
0.288618
0.288345
0.288221
0.288241
0.288401
0.288696
0.289124
0.289678
0.290354
0.291148
0.292055
0.293069
0.294185
0.295399
0.296704
0.298095
0.299568
0.301116
0.302733
0.304413
0.306151
0.30794
0.309773
0.311644
0.313545
0.31547
0.31741
0.319358
0.321304
0.323241
0.325157
0.327044
0.328891
0.330687
0.332419
0.334076
0.335645
0.337112
0.338462
0.339681
0.340755
0.341665
0.342397
0.342934
0.343257
0.343351
0.343197
0.342778
0.342078
0.341078
0.339762
0.338116
0.336123
0.333771
0.331044
0.327931
0.32442
0.320502
0.31617
0.311418
0.306241
0.300639
0.294609
0.288154
0.281277
0.273981
0.266273
0.25816
0.249649
0.24075
0.23147
0.22182
0.211808
0.201443
0.19073
0.179675
0.168279
0.156532
0.144414
0.131877
0.118826
0.105058
0.0901321
0.0729185
0.0499577
0.0119453
0.0200285
0.0727627
0.102999
0.125257
0.144299
0.161613
0.177802
0.193155
0.207837
0.221949
0.235556
0.248707
0.261434
0.273767
0.285726
0.297332
0.308596
0.319531
0.33015
0.340461
0.350469
0.360181
0.369603
0.378738
0.387589
0.396159
0.404449
0.412459
0.420188
0.427636
0.4348
0.441678
0.448267
0.454564
0.460565
0.466267
0.471666
0.476758
0.481541
0.48601
0.490162
0.493996
0.497507
0.500695
0.503557
0.506092
0.5083
0.510181
0.511733
0.51296
0.513862
0.514441
0.5147
0.514643
0.514274
0.513598
0.51262
0.511347
0.509787
0.507947
0.505835
0.503462
0.500837
0.497971
0.494873
0.491554
0.488026
0.4843
0.48039
0.476308
0.472067
0.467682
0.463167
0.458537
0.453805
0.448986
0.444096
0.439148
0.434157
0.429138
0.424104
0.419071
0.41405
0.409056
0.404101
0.399199
0.39436
0.389596
0.384919
0.380338
0.375865
0.371507
0.367274
0.363173
0.359213
0.3554
0.35174
0.348239
0.344902
0.341733
0.338737
0.335915
0.333271
0.330808
0.328527
0.326429
0.324515
0.322785
0.321236
0.319869
0.318681
0.31767
0.316834
0.316169
0.315673
0.315341
0.315171
0.315157
0.315297
0.315584
0.316015
0.316585
0.317288
0.31812
0.319074
0.320146
0.321331
0.322621
0.324012
0.325498
0.327073
0.32873
0.330464
0.332267
0.334133
0.336055
0.338026
0.340039
0.342085
0.344157
0.346247
0.348345
0.350442
0.352528
0.354594
0.356627
0.358618
0.360553
0.36242
0.364206
0.365897
0.367478
0.368934
0.370249
0.371408
0.372392
0.373185
0.373769
0.374126
0.374239
0.374088
0.373655
0.372924
0.371876
0.370495
0.368764
0.366669
0.364194
0.361326
0.358052
0.354361
0.350244
0.345693
0.340702
0.335266
0.329382
0.323049
0.316267
0.309036
0.30136
0.29324
0.284682
0.275689
0.266268
0.256423
0.24616
0.235485
0.224403
0.21292
0.201039
0.188761
0.17608
0.162975
0.1494
0.135251
0.120303
0.104047
0.0851856
0.0595559
0.0153572
0.0200286
0.0727632
0.102999
0.125256
0.144298
0.161611
0.1778
0.193154
0.207836
0.221947
0.235555
0.248705
0.261432
0.273765
0.285724
0.29733
0.308594
0.319529
0.330148
0.340459
0.350467
0.360179
0.3696
0.378735
0.387586
0.396156
0.404446
0.412456
0.420185
0.427633
0.434797
0.441675
0.448264
0.454561
0.460562
0.466263
0.471662
0.476755
0.481537
0.486006
0.490159
0.493992
0.497504
0.500691
0.503553
0.506089
0.508297
0.510177
0.51173
0.512956
0.513858
0.514437
0.514696
0.514639
0.51427
0.513594
0.512616
0.511344
0.509783
0.507943
0.505832
0.503458
0.500834
0.497967
0.494869
0.491551
0.488023
0.484297
0.480386
0.476304
0.472064
0.467679
0.463164
0.458533
0.453802
0.448983
0.444093
0.439145
0.434154
0.429135
0.424102
0.419068
0.414047
0.409053
0.404099
0.399196
0.394357
0.389594
0.384916
0.380336
0.375862
0.371505
0.367272
0.363171
0.359211
0.355398
0.351739
0.348238
0.344901
0.341732
0.338735
0.335913
0.33327
0.330806
0.328525
0.326428
0.324514
0.322783
0.321235
0.319868
0.31868
0.317669
0.316832
0.316168
0.315671
0.31534
0.31517
0.315156
0.315296
0.315583
0.316014
0.316584
0.317287
0.318119
0.319073
0.320146
0.32133
0.32262
0.324012
0.325498
0.327072
0.32873
0.330463
0.332266
0.334132
0.336054
0.338025
0.340038
0.342085
0.344157
0.346246
0.348344
0.350441
0.352528
0.354593
0.356627
0.358617
0.360553
0.36242
0.364206
0.365897
0.367478
0.368934
0.370249
0.371408
0.372392
0.373185
0.373769
0.374126
0.374239
0.374088
0.373655
0.372924
0.371876
0.370495
0.368764
0.366669
0.364194
0.361326
0.358052
0.354361
0.350244
0.345693
0.340702
0.335266
0.329382
0.32305
0.316267
0.309036
0.30136
0.29324
0.284682
0.27569
0.266268
0.256423
0.24616
0.235485
0.224404
0.21292
0.201039
0.188761
0.17608
0.162975
0.1494
0.135251
0.120303
0.104047
0.0851855
0.0595558
0.0153573
0.0242231
0.0835412
0.116777
0.140936
0.161423
0.179956
0.197244
0.213629
0.229301
0.244375
0.258926
0.273004
0.286645
0.299879
0.312728
0.32521
0.337336
0.349121
0.360573
0.371703
0.382513
0.39301
0.403198
0.41308
0.422657
0.43193
0.440899
0.449562
0.457918
0.465964
0.473696
0.48111
0.488203
0.49497
0.501406
0.507508
0.513272
0.518693
0.523768
0.528494
0.532867
0.536887
0.540551
0.543857
0.546806
0.549398
0.551632
0.553509
0.555033
0.556204
0.557026
0.557503
0.557638
0.557436
0.556904
0.556046
0.554871
0.553384
0.551596
0.549514
0.547147
0.544507
0.541604
0.538449
0.535052
0.531425
0.52758
0.523528
0.519285
0.514862
0.510275
0.505538
0.500664
0.495671
0.490571
0.485382
0.480117
0.474792
0.469423
0.464024
0.45861
0.453196
0.447796
0.442423
0.437092
0.431815
0.426605
0.421475
0.416435
0.411497
0.406672
0.401968
0.397396
0.392964
0.38868
0.384551
0.380585
0.376786
0.37316
0.369713
0.366447
0.363368
0.360477
0.357779
0.355275
0.352966
0.350852
0.348934
0.347209
0.345677
0.344337
0.343186
0.342221
0.34144
0.340839
0.340414
0.340162
0.340078
0.340159
0.340398
0.340791
0.341334
0.34202
0.342844
0.343801
0.344885
0.346089
0.347409
0.348837
0.350367
0.351993
0.353709
0.355507
0.357381
0.359323
0.361326
0.363382
0.365483
0.367621
0.369787
0.371973
0.374168
0.376363
0.378546
0.380708
0.382836
0.384919
0.386943
0.388896
0.390762
0.392527
0.394177
0.395695
0.397064
0.398267
0.399288
0.400108
0.400709
0.401072
0.40118
0.401013
0.400554
0.399784
0.398686
0.397243
0.39544
0.393261
0.39069
0.387716
0.384325
0.380507
0.376253
0.371555
0.366406
0.360802
0.354738
0.34821
0.341218
0.33376
0.325836
0.317445
0.308587
0.299263
0.289474
0.279219
0.268502
0.257322
0.245681
0.233582
0.221026
0.208013
0.194535
0.180571
0.16607
0.150916
0.134858
0.117319
0.0968266
0.0686685
0.0187938
0.0242234
0.0835418
0.116776
0.140935
0.161422
0.179955
0.197243
0.213627
0.229299
0.244374
0.258924
0.273002
0.286644
0.299878
0.312726
0.325208
0.337334
0.349119
0.360571
0.371701
0.382511
0.393008
0.403196
0.413077
0.422654
0.431927
0.440896
0.44956
0.457916
0.465961
0.473693
0.481107
0.4882
0.494967
0.501403
0.507505
0.513269
0.51869
0.523765
0.52849
0.532864
0.536884
0.540547
0.543854
0.546803
0.549394
0.551628
0.553506
0.555029
0.556201
0.557023
0.557499
0.557634
0.557433
0.5569
0.556043
0.554867
0.553381
0.551592
0.54951
0.547144
0.544504
0.541601
0.538446
0.535049
0.531422
0.527576
0.523525
0.519282
0.514859
0.510272
0.505535
0.500662
0.495668
0.490569
0.485379
0.480114
0.47479
0.46942
0.464022
0.458608
0.453193
0.447793
0.442421
0.437089
0.431813
0.426603
0.421473
0.416433
0.411495
0.40667
0.401966
0.397394
0.392962
0.388678
0.38455
0.380583
0.376784
0.373159
0.369711
0.366446
0.363366
0.360476
0.357778
0.355274
0.352965
0.350851
0.348932
0.347208
0.345676
0.344336
0.343185
0.34222
0.341439
0.340838
0.340413
0.340161
0.340078
0.340158
0.340397
0.340791
0.341333
0.342019
0.342843
0.3438
0.344884
0.346088
0.347408
0.348836
0.350367
0.351993
0.353709
0.355507
0.35738
0.359322
0.361325
0.363381
0.365483
0.367621
0.369787
0.371972
0.374168
0.376362
0.378546
0.380708
0.382836
0.384919
0.386943
0.388895
0.390762
0.392527
0.394177
0.395694
0.397064
0.398267
0.399288
0.400108
0.400709
0.401072
0.40118
0.401013
0.400554
0.399784
0.398686
0.397244
0.39544
0.393261
0.39069
0.387716
0.384325
0.380507
0.376253
0.371555
0.366407
0.360802
0.354738
0.34821
0.341218
0.33376
0.325836
0.317445
0.308587
0.299263
0.289474
0.27922
0.268502
0.257322
0.245681
0.233582
0.221027
0.208013
0.194535
0.180571
0.16607
0.150917
0.134858
0.117319
0.0968265
0.0686686
0.0187937
0.028569
0.0942383
0.130462
0.156566
0.178549
0.198345
0.216761
0.234194
0.250864
0.266904
0.282397
0.297398
0.31195
0.326081
0.339814
0.353167
0.366152
0.378783
0.391067
0.403013
0.414624
0.425905
0.436859
0.447487
0.457789
0.467764
0.477411
0.486726
0.495705
0.504344
0.512638
0.520581
0.528169
0.535396
0.542255
0.548744
0.554856
0.560588
0.565936
0.570897
0.57547
0.579652
0.583442
0.586841
0.58985
0.592469
0.5947
0.596546
0.598011
0.599098
0.599812
0.600158
0.600142
0.59977
0.599049
0.597986
0.59659
0.594869
0.592833
0.590492
0.587855
0.584934
0.581741
0.578287
0.574583
0.570641
0.566474
0.562094
0.557516
0.552753
0.54782
0.542732
0.537505
0.532152
0.526691
0.521136
0.515504
0.509809
0.504069
0.498297
0.49251
0.486722
0.480948
0.475203
0.469501
0.463854
0.458278
0.452783
0.447382
0.442087
0.436909
0.431858
0.426943
0.422174
0.41756
0.413107
0.408823
0.404715
0.400787
0.397046
0.393495
0.390139
0.386982
0.384028
0.381277
0.37873
0.376389
0.374254
0.372322
0.370594
0.369068
0.367742
0.366612
0.365677
0.364932
0.364374
0.363999
0.363802
0.36378
0.363927
0.364237
0.364706
0.365328
0.366097
0.367008
0.368054
0.369229
0.370527
0.371941
0.373465
0.375091
0.376813
0.378624
0.380516
0.382481
0.384512
0.3866
0.388736
0.390913
0.39312
0.395349
0.397588
0.399828
0.402057
0.404264
0.406435
0.40856
0.410623
0.412611
0.41451
0.416304
0.417977
0.419512
0.420894
0.422104
0.423124
0.423936
0.424523
0.424865
0.424944
0.424742
0.424241
0.423423
0.42227
0.420767
0.418899
0.41665
0.414006
0.410954
0.407483
0.403584
0.399246
0.394462
0.389225
0.38353
0.37737
0.370742
0.36364
0.356062
0.348003
0.339458
0.330424
0.320895
0.310866
0.300334
0.289292
0.277738
0.265667
0.253079
0.239969
0.226335
0.212166
0.197438
0.182091
0.165998
0.148875
0.13008
0.10799
0.077432
0.0222285
0.0285699
0.0942389
0.130461
0.156565
0.178548
0.198344
0.216759
0.234192
0.250863
0.266902
0.282395
0.297397
0.311948
0.326079
0.339812
0.353165
0.36615
0.37878
0.391065
0.403011
0.414622
0.425903
0.436856
0.447484
0.457786
0.467762
0.477408
0.486723
0.495702
0.504341
0.512635
0.520579
0.528166
0.535393
0.542253
0.548741
0.554853
0.560585
0.565933
0.570894
0.575467
0.579649
0.583439
0.586838
0.589847
0.592465
0.594697
0.596543
0.598008
0.599095
0.599809
0.600155
0.600139
0.599767
0.599046
0.597983
0.596587
0.594866
0.59283
0.590489
0.587852
0.584931
0.581739
0.578284
0.57458
0.570638
0.566471
0.562091
0.557513
0.55275
0.547818
0.54273
0.537502
0.53215
0.526688
0.521134
0.515501
0.509807
0.504066
0.498295
0.492507
0.48672
0.480946
0.475201
0.469499
0.463852
0.458276
0.452781
0.44738
0.442086
0.436907
0.431856
0.426942
0.422173
0.417558
0.413105
0.408822
0.404713
0.400786
0.397044
0.393493
0.390137
0.386981
0.384026
0.381275
0.378729
0.376388
0.374252
0.372321
0.370593
0.369067
0.367741
0.366611
0.365676
0.364931
0.364373
0.363998
0.363802
0.363779
0.363926
0.364236
0.364705
0.365327
0.366096
0.367007
0.368053
0.369228
0.370526
0.37194
0.373464
0.375091
0.376813
0.378623
0.380515
0.38248
0.384511
0.386599
0.388736
0.390913
0.39312
0.395349
0.397588
0.399828
0.402057
0.404263
0.406435
0.408559
0.410623
0.412611
0.41451
0.416304
0.417977
0.419512
0.420894
0.422103
0.423124
0.423936
0.424523
0.424865
0.424944
0.424742
0.424241
0.423423
0.42227
0.420768
0.418899
0.41665
0.414006
0.410954
0.407484
0.403584
0.399246
0.394462
0.389225
0.38353
0.37737
0.370742
0.363641
0.356062
0.348003
0.339458
0.330424
0.320895
0.310866
0.300334
0.289292
0.277738
0.265668
0.253079
0.239969
0.226335
0.212166
0.197438
0.182091
0.165998
0.148875
0.13008
0.10799
0.0774321
0.0222283
0.0331384
0.105024
0.144271
0.172389
0.195939
0.217062
0.23666
0.255188
0.272896
0.289934
0.306397
0.322348
0.337833
0.352883
0.367522
0.381767
0.395632
0.409128
0.422264
0.435046
0.447477
0.459562
0.4713
0.482692
0.493737
0.504431
0.51477
0.52475
0.534364
0.543606
0.552471
0.56095
0.569036
0.576724
0.584007
0.590879
0.597335
0.603371
0.608983
0.614169
0.618927
0.623256
0.627156
0.630629
0.633677
0.636302