/*--------------------------------*- C++ -*----------------------------------*\
  =========                 |
  \\      /  F ield         | OpenFOAM: The Open Source CFD Toolbox
   \\    /   O peration     | Website:  https://openfoam.org
    \\  /    A nd           | Version:  8
     \\/     M anipulation  |
\*---------------------------------------------------------------------------*/
FoamFile
{
    version     2.0;
    format      ascii;
    class       volScalarField;
    location    "1800";
    object      nut;
}
// * * * * * * * * * * * * * * * * * * * * * * * * * * * * * * * * * * * * * //

dimensions      [0 2 -1 0 0 0 0];

internalField   nonuniform List<scalar> 
46000
(
5.10702e-08
2.65624e-07
5.68304e-07
8.77061e-07
1.17954e-06
1.47562e-06
1.76618e-06
2.05177e-06
2.33277e-06
2.60968e-06
2.88173e-06
3.14862e-06
3.41031e-06
3.66676e-06
3.9179e-06
4.16381e-06
4.40577e-06
4.64279e-06
4.87472e-06
5.10155e-06
5.32327e-06
5.53991e-06
5.75146e-06
5.95794e-06
6.15936e-06
6.35573e-06
6.54703e-06
6.73327e-06
6.91441e-06
7.09039e-06
7.26116e-06
7.42663e-06
7.5867e-06
7.74123e-06
7.89011e-06
8.03316e-06
8.17024e-06
8.30116e-06
8.42573e-06
8.54375e-06
8.65503e-06
8.75936e-06
8.85654e-06
8.94638e-06
9.02869e-06
9.10331e-06
9.17007e-06
9.22883e-06
9.27947e-06
9.32191e-06
9.35605e-06
9.38187e-06
9.39934e-06
9.40847e-06
9.4093e-06
9.40192e-06
9.38643e-06
9.36294e-06
9.33163e-06
9.29267e-06
9.2463e-06
9.19288e-06
9.13346e-06
9.0688e-06
8.99794e-06
8.92108e-06
8.83858e-06
8.75082e-06
8.65818e-06
8.56105e-06
8.45985e-06
8.355e-06
8.24692e-06
8.13603e-06
8.02274e-06
7.90749e-06
7.79067e-06
7.67268e-06
7.55392e-06
7.43478e-06
7.31564e-06
7.19684e-06
7.07873e-06
6.96165e-06
6.84591e-06
6.7318e-06
6.61961e-06
6.50959e-06
6.40199e-06
6.29704e-06
6.19493e-06
6.09585e-06
5.99995e-06
5.9074e-06
5.81834e-06
5.73289e-06
5.65113e-06
5.57316e-06
5.49905e-06
5.42886e-06
5.36263e-06
5.30035e-06
5.24207e-06
5.18781e-06
5.13755e-06
5.09129e-06
5.04897e-06
5.01056e-06
4.97604e-06
4.94534e-06
4.91839e-06
4.89516e-06
4.87556e-06
4.85951e-06
4.84687e-06
4.83761e-06
4.83164e-06
4.82884e-06
4.82915e-06
4.83245e-06
4.83865e-06
4.84764e-06
4.85933e-06
4.8736e-06
4.89035e-06
4.90947e-06
4.93086e-06
4.9544e-06
4.98e-06
5.00753e-06
5.03689e-06
5.06793e-06
5.10054e-06
5.13459e-06
5.16995e-06
5.2065e-06
5.24407e-06
5.28253e-06
5.32172e-06
5.36146e-06
5.40159e-06
5.44188e-06
5.48215e-06
5.52217e-06
5.56172e-06
5.60057e-06
5.63846e-06
5.67509e-06
5.71017e-06
5.74338e-06
5.77439e-06
5.80286e-06
5.82841e-06
5.85066e-06
5.86919e-06
5.88359e-06
5.89341e-06
5.89821e-06
5.89756e-06
5.89101e-06
5.8781e-06
5.8584e-06
5.83146e-06
5.79685e-06
5.75416e-06
5.70304e-06
5.64362e-06
5.57707e-06
5.50165e-06
5.41688e-06
5.32257e-06
5.21864e-06
5.10509e-06
4.98199e-06
4.84951e-06
4.70787e-06
4.55739e-06
4.39846e-06
4.23154e-06
4.0572e-06
3.87606e-06
3.68883e-06
3.49624e-06
3.2991e-06
3.09824e-06
2.89455e-06
2.68887e-06
2.48205e-06
2.27488e-06
2.06799e-06
1.86088e-06
1.65556e-06
1.45186e-06
1.24819e-06
1.04411e-06
8.39038e-07
6.33555e-07
4.1884e-07
2.00587e-07
3.87851e-08
5.10808e-08
2.65654e-07
5.68352e-07
8.77118e-07
1.17959e-06
1.47568e-06
1.76622e-06
2.05182e-06
2.33282e-06
2.60976e-06
2.88181e-06
3.1487e-06
3.41039e-06
3.66684e-06
3.918e-06
4.16391e-06
4.40581e-06
4.64282e-06
4.87474e-06
5.10158e-06
5.32332e-06
5.53997e-06
5.75154e-06
5.95804e-06
6.15947e-06
6.35584e-06
6.54714e-06
6.73336e-06
6.91448e-06
7.09044e-06
7.2612e-06
7.42666e-06
7.58673e-06
7.74127e-06
7.89016e-06
8.03323e-06
8.17032e-06
8.30125e-06
8.42583e-06
8.54386e-06
8.65514e-06
8.75946e-06
8.85664e-06
8.94648e-06
9.02879e-06
9.1034e-06
9.17015e-06
9.22891e-06
9.27955e-06
9.32199e-06
9.35613e-06
9.38195e-06
9.39942e-06
9.40855e-06
9.40939e-06
9.40201e-06
9.38651e-06
9.36303e-06
9.33172e-06
9.29276e-06
9.24639e-06
9.19297e-06
9.13353e-06
9.06887e-06
8.998e-06
8.92114e-06
8.83863e-06
8.75085e-06
8.6582e-06
8.56107e-06
8.45987e-06
8.35501e-06
8.24692e-06
8.13602e-06
8.02273e-06
7.90747e-06
7.79065e-06
7.67266e-06
7.5539e-06
7.43476e-06
7.31562e-06
7.19682e-06
7.07871e-06
6.96163e-06
6.84589e-06
6.73178e-06
6.61959e-06
6.50959e-06
6.402e-06
6.29705e-06
6.19494e-06
6.09585e-06
5.99996e-06
5.90743e-06
5.81838e-06
5.73294e-06
5.6512e-06
5.57324e-06
5.49914e-06
5.42895e-06
5.36271e-06
5.30043e-06
5.24215e-06
5.18788e-06
5.13761e-06
5.09132e-06
5.04897e-06
5.01054e-06
4.97599e-06
4.94526e-06
4.91828e-06
4.89503e-06
4.87541e-06
4.85933e-06
4.84667e-06
4.83741e-06
4.83144e-06
4.82866e-06
4.82898e-06
4.8323e-06
4.83851e-06
4.84752e-06
4.85922e-06
4.87352e-06
4.89028e-06
4.90942e-06
4.93081e-06
4.95436e-06
4.97996e-06
5.00749e-06
5.03684e-06
5.06787e-06
5.10048e-06
5.13452e-06
5.16989e-06
5.20643e-06
5.244e-06
5.28246e-06
5.32164e-06
5.36138e-06
5.40149e-06
5.44178e-06
5.48204e-06
5.52207e-06
5.56163e-06
5.60049e-06
5.63837e-06
5.675e-06
5.71008e-06
5.74329e-06
5.77431e-06
5.80278e-06
5.82834e-06
5.85058e-06
5.86912e-06
5.88351e-06
5.89333e-06
5.89814e-06
5.89749e-06
5.89093e-06
5.87803e-06
5.85833e-06
5.83139e-06
5.79678e-06
5.75409e-06
5.70298e-06
5.64358e-06
5.57703e-06
5.50161e-06
5.41685e-06
5.32254e-06
5.21861e-06
5.10505e-06
4.98195e-06
4.84946e-06
4.70782e-06
4.55733e-06
4.39839e-06
4.23146e-06
4.05711e-06
3.87597e-06
3.68873e-06
3.49614e-06
3.29901e-06
3.09817e-06
2.8945e-06
2.68883e-06
2.48202e-06
2.27487e-06
2.06798e-06
1.86088e-06
1.65556e-06
1.45186e-06
1.24819e-06
1.04411e-06
8.39031e-07
6.33557e-07
4.18839e-07
2.00585e-07
3.8785e-08
2.43612e-07
1.03631e-05
2.18024e-05
2.97872e-05
3.59553e-05
4.10758e-05
4.55072e-05
4.94414e-05
5.29945e-05
5.62244e-05
5.9195e-05
6.1953e-05
6.45289e-05
6.69449e-05
6.92179e-05
7.13596e-05
7.33735e-05
7.52738e-05
7.70722e-05
7.87775e-05
8.03971e-05
8.19374e-05
8.34042e-05
8.48026e-05
8.6137e-05
8.74115e-05
8.86297e-05
8.97946e-05
9.09089e-05
9.19751e-05
9.29952e-05
9.39707e-05
9.49032e-05
9.57937e-05
9.66432e-05
9.74522e-05
9.82214e-05
9.8951e-05
9.96414e-05
0.000100292
0.000100904
0.000101476
0.000102009
0.000102502
0.000102954
0.000103366
0.000103738
0.000104068
0.000104357
0.000104604
0.00010481
0.000104974
0.000105096
0.000105176
0.000105214
0.000105211
0.000105167
0.000105082
0.000104956
0.00010479
0.000104584
0.000104336
0.000104041
0.000103704
0.00010333
0.000102922
0.000102482
0.000102012
0.000101513
0.000100987
0.000100436
9.98609e-05
9.9264e-05
9.8647e-05
9.80117e-05
9.736e-05
9.66939e-05
9.60151e-05
9.53258e-05
9.46279e-05
9.39232e-05
9.32139e-05
9.25017e-05
9.17887e-05
9.10767e-05
9.03675e-05
8.96632e-05
8.89653e-05
8.82757e-05
8.7596e-05
8.69279e-05
8.62727e-05
8.56321e-05
8.50075e-05
8.44004e-05
8.38118e-05
8.32428e-05
8.26947e-05
8.21683e-05
8.16646e-05
8.11842e-05
8.07278e-05
8.02962e-05
7.98898e-05
7.95091e-05
7.91544e-05
7.88257e-05
7.85231e-05
7.82468e-05
7.79968e-05
7.77725e-05
7.75739e-05
7.74005e-05
7.7252e-05
7.71279e-05
7.70274e-05
7.695e-05
7.68951e-05
7.68621e-05
7.68501e-05
7.68584e-05
7.68862e-05
7.69326e-05
7.69968e-05
7.7078e-05
7.71752e-05
7.72875e-05
7.74142e-05
7.75541e-05
7.77065e-05
7.78701e-05
7.8044e-05
7.82273e-05
7.84189e-05
7.8618e-05
7.88234e-05
7.90339e-05
7.92484e-05
7.94657e-05
7.96846e-05
7.99038e-05
8.01219e-05
8.03374e-05
8.05491e-05
8.07555e-05
8.0955e-05
8.11458e-05
8.1326e-05
8.14938e-05
8.16473e-05
8.17845e-05
8.19032e-05
8.20014e-05
8.20766e-05
8.21264e-05
8.21482e-05
8.21396e-05
8.2098e-05
8.20209e-05
8.19056e-05
8.17493e-05
8.15493e-05
8.13026e-05
8.10066e-05
8.0658e-05
8.02529e-05
7.97839e-05
7.92421e-05
7.86302e-05
7.79488e-05
7.71967e-05
7.63728e-05
7.54755e-05
7.45033e-05
7.34552e-05
7.23301e-05
7.11273e-05
6.9846e-05
6.84857e-05
6.70459e-05
6.55264e-05
6.39269e-05
6.2247e-05
6.04861e-05
5.86434e-05
5.67175e-05
5.47064e-05
5.26063e-05
5.04122e-05
4.81168e-05
4.57112e-05
4.31633e-05
4.04281e-05
3.743e-05
3.40369e-05
2.99349e-05
2.47204e-05
1.78434e-05
8.10159e-06
1.75279e-07
2.43651e-07
1.03648e-05
2.18053e-05
2.97904e-05
3.59585e-05
4.10789e-05
4.55103e-05
4.94445e-05
5.29976e-05
5.62275e-05
5.91981e-05
6.19561e-05
6.4532e-05
6.69481e-05
6.92212e-05
7.1363e-05
7.33768e-05
7.52771e-05
7.70755e-05
7.87809e-05
8.04006e-05
8.1941e-05
8.3408e-05
8.48064e-05
8.61409e-05
8.74155e-05
8.86336e-05
8.97985e-05
9.09129e-05
9.19791e-05
9.29991e-05
9.39748e-05
9.49073e-05
9.57979e-05
9.66475e-05
9.74566e-05
9.82259e-05
9.89557e-05
9.96462e-05
0.000100297
0.000100909
0.000101481
0.000102014
0.000102507
0.000102959
0.000103371
0.000103743
0.000104073
0.000104362
0.000104609
0.000104815
0.000104979
0.000105101
0.000105181
0.00010522
0.000105217
0.000105173
0.000105087
0.000104962
0.000104796
0.000104589
0.000104341
0.000104047
0.000103709
0.000103335
0.000102927
0.000102487
0.000102017
0.000101518
0.000100992
0.00010044
9.98652e-05
9.92682e-05
9.8651e-05
9.80156e-05
9.73638e-05
9.66975e-05
9.60187e-05
9.53293e-05
9.46313e-05
9.39266e-05
9.32172e-05
9.2505e-05
9.17919e-05
9.10798e-05
9.03707e-05
8.96663e-05
8.89685e-05
8.82788e-05
8.75991e-05
8.69309e-05
8.62758e-05
8.56353e-05
8.50108e-05
8.44038e-05
8.38152e-05
8.32463e-05
8.26981e-05
8.21716e-05
8.16678e-05
8.11873e-05
8.07308e-05
8.02991e-05
7.98926e-05
7.95117e-05
7.91566e-05
7.88276e-05
7.85248e-05
7.82481e-05
7.79977e-05
7.77731e-05
7.75741e-05
7.74004e-05
7.72516e-05
7.71272e-05
7.70266e-05
7.69492e-05
7.68944e-05
7.68614e-05
7.68495e-05
7.68579e-05
7.68859e-05
7.69325e-05
7.69969e-05
7.70782e-05
7.71754e-05
7.72878e-05
7.74144e-05
7.75543e-05
7.77066e-05
7.78701e-05
7.80439e-05
7.82271e-05
7.84188e-05
7.86178e-05
7.88231e-05
7.90335e-05
7.92479e-05
7.94651e-05
7.96839e-05
7.99029e-05
8.01209e-05
8.03365e-05
8.05483e-05
8.07548e-05
8.09542e-05
8.11449e-05
8.13251e-05
8.14929e-05
8.16464e-05
8.17836e-05
8.19025e-05
8.20006e-05
8.20758e-05
8.21255e-05
8.21472e-05
8.21386e-05
8.20971e-05
8.202e-05
8.19047e-05
8.17484e-05
8.15484e-05
8.13017e-05
8.10056e-05
8.0657e-05
8.0252e-05
7.9783e-05
7.92412e-05
7.86294e-05
7.79479e-05
7.7196e-05
7.6372e-05
7.54746e-05
7.45024e-05
7.34543e-05
7.23292e-05
7.11263e-05
6.98449e-05
6.84845e-05
6.70446e-05
6.55251e-05
6.39256e-05
6.22457e-05
6.04848e-05
5.86423e-05
5.67166e-05
5.47056e-05
5.26056e-05
5.04117e-05
4.81164e-05
4.57109e-05
4.3163e-05
4.04278e-05
3.74298e-05
3.40367e-05
2.99347e-05
2.47203e-05
1.78432e-05
8.10155e-06
1.75279e-07
5.27812e-07
2.12696e-05
4.85739e-05
6.91232e-05
8.5039e-05
9.80278e-05
0.000109042
0.000118634
0.000127139
0.000134774
0.00014171
0.000148066
0.000153932
0.000159373
0.000164439
0.000169168
0.000173586
0.000177724
0.000181609
0.000185267
0.000188716
0.000191974
0.000195056
0.000197975
0.000200742
0.000203368
0.000205862
0.000208232
0.000210485
0.000212626
0.000214661
0.000216594
0.00021843
0.00022017
0.000221819
0.000223378
0.000224849
0.000226234
0.000227535
0.000228752
0.000229888
0.000230941
0.000231914
0.000232806
0.000233619
0.000234352
0.000235007
0.000235583
0.000236081
0.000236502
0.000236846
0.000237113
0.000237303
0.000237419
0.000237459
0.000237425
0.000237317
0.000237137
0.000236884
0.00023656
0.000236163
0.000235692
0.000235144
0.000234522
0.000233833
0.000233083
0.000232275
0.000231412
0.000230498
0.000229534
0.000228524
0.000227471
0.000226378
0.000225247
0.000224081
0.000222885
0.00022166
0.000220411
0.00021914
0.000217852
0.000216548
0.000215233
0.00021391
0.000212582
0.000211253
0.000209926
0.000208604
0.000207291
0.000205989
0.000204702
0.000203432
0.000202182
0.000200955
0.000199754
0.000198581
0.000197439
0.000196329
0.000195253
0.000194214
0.000193212
0.00019225
0.000191329
0.000190449
0.000189613
0.00018882
0.000188071
0.000187367
0.000186708
0.000186093
0.000185524
0.000184999
0.000184517
0.000184078
0.000183682
0.000183327
0.000183012
0.000182736
0.000182499
0.000182298
0.000182133
0.000182003
0.000181905
0.000181839
0.000181802
0.000181794
0.000181813
0.000181857
0.000181925
0.000182014
0.000182124
0.000182252
0.000182397
0.000182556
0.000182729
0.000182913
0.000183106
0.000183307
0.000183512
0.000183721
0.00018393
0.000184137
0.000184341
0.000184537
0.000184724
0.000184899
0.000185059
0.0001852
0.000185319
0.000185414
0.00018548
0.000185514
0.000185512
0.00018547
0.000185384
0.00018525
0.000185063
0.000184819
0.000184514
0.000184143
0.000183701
0.000183185
0.000182589
0.000181908
0.000181138
0.000180272
0.000179305
0.000178227
0.000177026
0.000175701
0.000174253
0.000172678
0.000170976
0.000169142
0.000167175
0.000165072
0.000162829
0.000160443
0.000157911
0.00015523
0.000152395
0.000149403
0.000146248
0.000142923
0.000139422
0.000135734
0.000131849
0.000127751
0.000123419
0.000118826
0.000113935
0.000108689
0.000102996
9.67166e-05
8.96204e-05
8.13094e-05
7.11097e-05
5.7974e-05
4.04464e-05
1.70998e-05
3.78298e-07
5.27848e-07
2.12717e-05
4.85796e-05
6.91305e-05
8.50469e-05
9.8036e-05
0.000109051
0.000118642
0.000127147
0.000134783
0.000141718
0.000148074
0.00015394
0.000159381
0.000164447
0.000169176
0.000173594
0.000177731
0.000181617
0.000185275
0.000188724
0.000191982
0.000195064
0.000197983
0.00020075
0.000203377
0.000205871
0.000208241
0.000210493
0.000212635
0.00021467
0.000216603
0.000218438
0.000220179
0.000221828
0.000223387
0.000224858
0.000226244
0.000227545
0.000228762
0.000229897
0.000230951
0.000231924
0.000232816
0.000233629
0.000234362
0.000235017
0.000235593
0.000236092
0.000236512
0.000236856
0.000237123
0.000237314
0.000237429
0.000237469
0.000237435
0.000237327
0.000237147
0.000236894
0.00023657
0.000236173
0.000235702
0.000235154
0.000234532
0.000233843
0.000233092
0.000232284
0.000231421
0.000230507
0.000229543
0.000228533
0.00022748
0.000226386
0.000225255
0.000224089
0.000222892
0.000221668
0.000220418
0.000219147
0.000217858
0.000216554
0.000215239
0.000213916
0.000212588
0.000211259
0.000209932
0.00020861
0.000207296
0.000205994
0.000204706
0.000203436
0.000202186
0.00020096
0.000199758
0.000198585
0.000197442
0.000196332
0.000195256
0.000194217
0.000193215
0.000192253
0.000191331
0.000190452
0.000189615
0.000188822
0.000188073
0.000187368
0.000186709
0.000186094
0.000185525
0.000184999
0.000184517
0.000184078
0.000183681
0.000183326
0.000183011
0.000182735
0.000182498
0.000182297
0.000182132
0.000182002
0.000181904
0.000181837
0.000181801
0.000181793
0.000181812
0.000181856
0.000181923
0.000182012
0.000182122
0.00018225
0.000182395
0.000182554
0.000182727
0.000182911
0.000183104
0.000183305
0.00018351
0.000183718
0.000183927
0.000184135
0.000184338
0.000184534
0.000184721
0.000184896
0.000185056
0.000185197
0.000185317
0.000185411
0.000185477
0.000185511
0.000185509
0.000185467
0.000185381
0.000185247
0.00018506
0.000184816
0.000184511
0.00018414
0.000183699
0.000183182
0.000182586
0.000181905
0.000181135
0.000180269
0.000179303
0.000178225
0.000177023
0.000175699
0.00017425
0.000172676
0.000170973
0.00016914
0.000167173
0.00016507
0.000162826
0.000160441
0.000157909
0.000155228
0.000152393
0.000149401
0.000146246
0.000142921
0.00013942
0.000135733
0.000131847
0.000127749
0.000123418
0.000118825
0.000113934
0.000108688
0.000102996
9.67161e-05
8.962e-05
8.13091e-05
7.11094e-05
5.79737e-05
4.04462e-05
1.70998e-05
3.783e-07
8.19186e-07
2.88749e-05
6.83346e-05
0.000100419
0.000126188
0.000147517
0.000165675
0.000181473
0.00019544
0.000207949
0.000219271
0.000229603
0.000239095
0.000247861
0.00025599
0.000263552
0.000270598
0.000277182
0.000283349
0.000289136
0.000294578
0.000299704
0.000304538
0.000309102
0.000313417
0.000317499
0.000321363
0.000325023
0.000328488
0.00033177
0.000334877
0.000337816
0.000340594
0.000343216
0.000345688
0.000348013
0.000350196
0.00035224
0.000354148
0.000355922
0.000357565
0.000359079
0.000360467
0.00036173
0.000362869
0.000363888
0.000364787
0.000365569
0.000366234
0.000366784
0.000367221
0.000367547
0.000367763
0.00036787
0.00036787
0.000367765
0.000367555
0.000367244
0.000366831
0.000366317
0.000365704
0.000364991
0.000364177
0.000363265
0.000362263
0.000361175
0.000360007
0.000358764
0.000357448
0.000356065
0.000354618
0.000353111
0.000351548
0.000349933
0.00034827
0.000346564
0.000344819
0.000343039
0.000341228
0.000339392
0.000337535
0.000335661
0.000333774
0.00033188
0.000329983
0.000328086
0.000326196
0.000324315
0.000322448
0.0003206
0.000318773
0.000316972
0.000315201
0.000313462
0.000311759
0.000310096
0.000308474
0.000306897
0.000305366
0.000303885
0.000302454
0.000301076
0.000299752
0.000298483
0.00029727
0.000296114
0.000295015
0.000293973
0.000292989
0.000292061
0.00029119
0.000290373
0.000289611
0.000288902
0.000288245
0.000287638
0.000287082
0.000286573
0.00028611
0.000285692
0.000285317
0.000284983
0.000284688
0.000284431
0.000284208
0.000284019
0.000283862
0.000283734
0.000283632
0.000283556
0.000283502
0.000283469
0.000283454
0.000283455
0.000283469
0.000283494
0.000283526
0.000283564
0.000283604
0.000283644
0.000283679
0.000283707
0.000283724
0.000283727
0.000283711
0.000283673
0.000283608
0.000283512
0.00028338
0.000283208
0.00028299
0.000282722
0.000282398
0.000282013
0.000281561
0.000281036
0.000280433
0.000279746
0.000278969
0.000278096
0.000277121
0.000276038
0.000274841
0.000273522
0.000272076
0.000270495
0.000268769
0.000266886
0.000264843
0.000262636
0.000260262
0.000257718
0.000254999
0.0002521
0.000249016
0.000245742
0.000242271
0.000238596
0.00023471
0.000230603
0.000226265
0.000221683
0.000216843
0.000211726
0.000206312
0.000200574
0.000194477
0.000187979
0.000181021
0.000173523
0.000165375
0.000156408
0.000146378
0.000134905
0.000121404
0.000104977
8.42717e-05
5.74059e-05
2.37893e-05
5.96469e-07
8.19198e-07
2.88771e-05
6.83414e-05
0.000100429
0.000126199
0.00014753
0.000165687
0.000181486
0.000195453
0.000207962
0.000219284
0.000229616
0.000239108
0.000247874
0.000256002
0.000263564
0.000270611
0.000277195
0.000283361
0.000289149
0.000294591
0.000299716
0.00030455
0.000309115
0.00031343
0.000317512
0.000321376
0.000325035
0.000328501
0.000331783
0.000334889
0.000337828
0.000340606
0.000343229
0.000345701
0.000348026
0.000350209
0.000352253
0.000354161
0.000355935
0.000357579
0.000359093
0.000360481
0.000361743
0.000362883
0.000363902
0.000364801
0.000365582
0.000366247
0.000366798
0.000367235
0.000367561
0.000367776
0.000367883
0.000367883
0.000367778
0.000367569
0.000367257
0.000366844
0.00036633
0.000365717
0.000365003
0.000364189
0.000363278
0.000362275
0.000361187
0.000360019
0.000358775
0.000357459
0.000356076
0.000354629
0.000353121
0.000351558
0.000349943
0.00034828
0.000346573
0.000344828
0.000343047
0.000341237
0.0003394
0.000337543
0.000335668
0.000333782
0.000331887
0.000329989
0.000328093
0.000326202
0.000324321
0.000322454
0.000320605
0.000318778
0.000316977
0.000315205
0.000313466
0.000311763
0.000310099
0.000308477
0.0003069
0.000305369
0.000303887
0.000302456
0.000301078
0.000299754
0.000298484
0.000297271
0.000296115
0.000295015
0.000293974
0.000292989
0.000292061
0.000291189
0.000290372
0.00028961
0.000288901
0.000288243
0.000287637
0.00028708
0.000286571
0.000286108
0.00028569
0.000285315
0.000284981
0.000284686
0.000284428
0.000284206
0.000284017
0.000283859
0.00028373
0.000283629
0.000283553
0.000283499
0.000283466
0.000283451
0.000283451
0.000283465
0.00028349
0.000283522
0.00028356
0.0002836
0.000283639
0.000283675
0.000283702
0.00028372
0.000283722
0.000283706
0.000283668
0.000283603
0.000283507
0.000283375
0.000283203
0.000282986
0.000282717
0.000282393
0.000282008
0.000281556
0.000281031
0.000280429
0.000279741
0.000278964
0.000278091
0.000277116
0.000276033
0.000274836
0.000273518
0.000272072
0.000270491
0.000268764
0.000266882
0.000264839
0.000262632
0.000260259
0.000257715
0.000254996
0.000252097
0.000249013
0.000245739
0.000242268
0.000238594
0.000234708
0.000230601
0.000226263
0.000221681
0.000216841
0.000211725
0.000206311
0.000200572
0.000194476
0.000187978
0.00018102
0.000173523
0.000165374
0.000156408
0.000146377
0.000134905
0.000121404
0.000104977
8.42716e-05
5.74058e-05
2.37895e-05
5.96472e-07
1.10811e-06
3.4778e-05
8.35052e-05
0.000125181
0.000159722
0.000188822
0.000213829
0.000235688
0.000255061
0.000272428
0.000288144
0.000302473
0.000315619
0.000327742
0.000338966
0.000349393
0.000359102
0.000368164
0.000376644
0.000384593
0.000392058
0.00039908
0.000405694
0.00041193
0.000417816
0.000423376
0.00042863
0.000433596
0.00043829
0.000442726
0.000446916
0.00045087
0.000454597
0.000458106
0.000461404
0.000464496
0.00046739
0.000470088
0.000472598
0.000474921
0.000477063
0.000479028
0.000480818
0.000482437
0.000483889
0.000485177
0.000486303
0.000487271
0.000488083
0.000488743
0.000489254
0.000489617
0.000489837
0.000489916
0.000489855
0.000489659
0.00048933
0.000488869
0.00048828
0.000487564
0.000486723
0.000485758
0.000484672
0.000483468
0.000482151
0.000480728
0.000479206
0.000477589
0.000475882
0.000474091
0.00047222
0.000470275
0.000468261
0.000466183
0.000464046
0.000461855
0.000459616
0.000457335
0.000455016
0.000452665
0.000450288
0.000447891
0.000445478
0.000443056
0.00044063
0.000438205
0.000435787
0.000433381
0.000430992
0.000428624
0.000426283
0.000423973
0.000421699
0.000419464
0.000417272
0.000415126
0.000413031
0.000410988
0.000409002
0.000407073
0.000405204
0.000403397
0.000401653
0.000399974
0.000398361
0.000396813
0.000395332
0.000393917
0.000392568
0.000391283
0.000390063
0.000388905
0.000387809
0.000386773
0.000385797
0.000384877
0.000384013
0.000383202
0.000382444
0.000381735
0.000381074
0.000380458
0.000379886
0.000379355
0.000378863
0.000378408
0.000377988
0.000377599
0.000377241
0.000376909
0.000376603
0.000376318
0.000376053
0.000375805
0.000375571
0.000375347
0.000375131
0.00037492
0.00037471
0.000374497
0.000374277
0.000374048
0.000373803
0.00037354
0.000373253
0.000372938
0.000372589
0.000372201
0.000371769
0.000371287
0.000370748
0.000370148
0.000369479
0.000368735
0.00036791
0.000366997
0.000365989
0.00036488
0.000363661
0.000362328
0.000360871
0.000359285
0.000357562
0.000355695
0.000353676
0.000351495
0.000349146
0.000346615
0.000343897
0.000340986
0.000337877
0.000334565
0.000331042
0.000327303
0.000323338
0.00031914
0.000314698
0.00031
0.000305035
0.000299786
0.000294237
0.000288365
0.000282147
0.000275554
0.000268551
0.000261094
0.000253129
0.00024459
0.000235386
0.000225398
0.000214461
0.000202341
0.000188704
0.00017306
0.000154692
0.000132561
0.0001052
7.07878e-05
2.92923e-05
8.22663e-07
1.10811e-06
3.47805e-05
8.35126e-05
0.000125192
0.000159735
0.000188837
0.000213845
0.000235705
0.000255077
0.000272445
0.000288161
0.00030249
0.000315637
0.000327759
0.000338983
0.000349411
0.000359119
0.000368182
0.000376661
0.00038461
0.000392075
0.000399097
0.000405711
0.000411947
0.000417833
0.000423393
0.000428647
0.000433613
0.000438307
0.000442743
0.000446933
0.000450887
0.000454615
0.000458124
0.000461421
0.000464514
0.000467407
0.000470106
0.000472615
0.000474939
0.000477081
0.000479046
0.000480836
0.000482455
0.000483907
0.000485194
0.00048632
0.000487288
0.0004881
0.00048876
0.000489271
0.000489634
0.000489854
0.000489932
0.000489872
0.000489676
0.000489346
0.000488885
0.000488296
0.00048758
0.000486738
0.000485773
0.000484687
0.000483482
0.000482165
0.000480742
0.00047922
0.000477602
0.000475895
0.000474104
0.000472233
0.000470288
0.000468273
0.000466195
0.000464057
0.000461866
0.000459627
0.000457345
0.000455026
0.000452675
0.000450297
0.0004479
0.000445487
0.000443064
0.000440638
0.000438213
0.000435794
0.000433388
0.000430998
0.00042863
0.000426289
0.000423979
0.000421704
0.000419469
0.000417276
0.000415131
0.000413035
0.000410992
0.000409005
0.000407076
0.000405206
0.000403399
0.000401655
0.000399976
0.000398362
0.000396814
0.000395333
0.000393918
0.000392568
0.000391283
0.000390063
0.000388905
0.000387808
0.000386772
0.000385795
0.000384875
0.000384011
0.0003832
0.000382441
0.000381732
0.000381071
0.000380455
0.000379883
0.000379352
0.00037886
0.000378405
0.000377984
0.000377596
0.000377237
0.000376905
0.000376598
0.000376314
0.000376049
0.0003758
0.000375566
0.000375342
0.000375126
0.000374915
0.000374705
0.000374492
0.000374272
0.000374042
0.000373798
0.000373535
0.000373248
0.000372932
0.000372583
0.000372195
0.000371763
0.000371281
0.000370742
0.000370142
0.000369473
0.00036873
0.000367904
0.000366991
0.000365983
0.000364874
0.000363656
0.000362322
0.000360866
0.00035928
0.000357557
0.00035569
0.00035367
0.000351491
0.000349141
0.00034661
0.000343892
0.000340982
0.000337873
0.000334561
0.000331038
0.000327299
0.000323335
0.000319137
0.000314695
0.000309998
0.000305033
0.000299784
0.000294234
0.000288363
0.000282146
0.000275553
0.000268549
0.000261092
0.000253128
0.000244589
0.000235385
0.000225397
0.000214461
0.000202341
0.000188704
0.00017306
0.000154693
0.000132561
0.0001052
7.07881e-05
2.92925e-05
8.22667e-07
1.39797e-06
3.97383e-05
9.58796e-05
0.000145507
0.000187628
0.000223663
0.000254929
0.000282418
0.000306873
0.000328846
0.000348753
0.000366913
0.000383575
0.000398935
0.000413152
0.000426355
0.000438645
0.000450115
0.000460844
0.000470898
0.000480337
0.00048921
0.000497563
0.000505434
0.000512859
0.000519866
0.000526482
0.000532729
0.000538628
0.000544197
0.000549449
0.0005544
0.000559059
0.000563439
0.000567548
0.000571394
0.000574984
0.000578326
0.000581425
0.000584288
0.000586919
0.000589324
0.000591507
0.000593474
0.000595229
0.000596777
0.000598121
0.000599267
0.000600219
0.000600981
0.000601556
0.00060195
0.000602166
0.000602208
0.00060208
0.000601785
0.000601329
0.000600713
0.000599943
0.00059902
0.000597948
0.000596731
0.000595372
0.000593874
0.000592245
0.000590491
0.000588618
0.000586634
0.000584545
0.000582356
0.000580073
0.000577703
0.000575253
0.000572727
0.000570133
0.000567477
0.000564766
0.000562005
0.000559201
0.000556361
0.000553492
0.0005506
0.000547691
0.000544772
0.00054185
0.00053893
0.00053602
0.000533124
0.000530249
0.0005274
0.000524584
0.000521804
0.000519066
0.000516374
0.000513733
0.000511147
0.000508618
0.000506151
0.000503748
0.000501412
0.000499144
0.000496947
0.000494822
0.00049277
0.000490792
0.000488888
0.000487058
0.000485301
0.000483616
0.000482003
0.00048046
0.000478985
0.000477577
0.000476235
0.000474956
0.000473738
0.000472579
0.000471477
0.00047043
0.000469436
0.000468491
0.000467593
0.000466741
0.000465932
0.000465163
0.000464431
0.000463735
0.000463071
0.000462437
0.000461831
0.00046125
0.00046069
0.00046015
0.000459625
0.000459114
0.000458612
0.000458116
0.000457623
0.000457129
0.00045663
0.000456122
0.0004556
0.00045506
0.000454496
0.000453903
0.000453277
0.000452611
0.0004519
0.000451137
0.000450316
0.00044943
0.000448473
0.000447437
0.000446316
0.000445102
0.000443787
0.000442365
0.000440828
0.000439167
0.000437377
0.000435447
0.000433372
0.000431143
0.000428752
0.00042619
0.000423448
0.000420519
0.000417389
0.000414051
0.000410499
0.000406724
0.000402719
0.000398476
0.000393984
0.000389233
0.00038421
0.000378902
0.000373292
0.000367361
0.000361089
0.000354448
0.000347411
0.000339942
0.000332001
0.00032354
0.000314498
0.000304804
0.000294366
0.000283066
0.000270749
0.000257204
0.000242144
0.000225163
0.000205691
0.00018292
0.000155722
0.000122583
8.17966e-05
3.38463e-05
1.05912e-06
1.39798e-06
3.97412e-05
9.58872e-05
0.000145519
0.000187642
0.00022368
0.000254947
0.000282437
0.000306893
0.000328867
0.000348774
0.000366934
0.000383596
0.000398957
0.000413174
0.000426377
0.000438667
0.000450137
0.000460865
0.00047092
0.000480358
0.000489232
0.000497585
0.000505456
0.000512881
0.000519888
0.000526504
0.000532751
0.00053865
0.000544219
0.000549471
0.000554422
0.000559081
0.000563461
0.00056757
0.000571415
0.000575006
0.000578348
0.000581447
0.000584309
0.00058694
0.000589345
0.000591528
0.000593495
0.00059525
0.000596798
0.000598142
0.000599288
0.00060024
0.000601001
0.000601576
0.00060197
0.000602186
0.000602227
0.000602099
0.000601805
0.000601348
0.000600732
0.000599961
0.000599038
0.000597966
0.000596749
0.000595389
0.000593891
0.000592261
0.000590507
0.000588634
0.00058665
0.00058456
0.00058237
0.000580088
0.000577718
0.000575267
0.000572741
0.000570147
0.00056749
0.000564778
0.000562017
0.000559213
0.000556373
0.000553503
0.00055061
0.000547701
0.000544782
0.000541859
0.00053894
0.000536029
0.000533132
0.000530257
0.000527408
0.000524591
0.000521811
0.000519072
0.00051638
0.000513739
0.000511152
0.000508623
0.000506156
0.000503753
0.000501416
0.000499148
0.000496951
0.000494825
0.000492773
0.000490794
0.00048889
0.00048706
0.000485302
0.000483617
0.000482004
0.00048046
0.000478985
0.000477577
0.000476235
0.000474955
0.000473737
0.000472578
0.000471476
0.000470429
0.000469434
0.000468489
0.000467591
0.000466739
0.000465929
0.00046516
0.000464428
0.000463731
0.000463067
0.000462434
0.000461827
0.000461246
0.000460686
0.000460145
0.000459621
0.000459109
0.000458607
0.000458112
0.000457619
0.000457124
0.000456625
0.000456117
0.000455595
0.000455054
0.00045449
0.000453898
0.000453271
0.000452606
0.000451894
0.000451131
0.00045031
0.000449424
0.000448467
0.000447431
0.00044631
0.000445096
0.000443781
0.000442359
0.000440822
0.000439161
0.000437371
0.000435442
0.000433366
0.000431137
0.000428746
0.000426184
0.000423443
0.000420514
0.000417384
0.000414047
0.000410494
0.00040672
0.000402715
0.000398472
0.000393981
0.00038923
0.000384208
0.0003789
0.00037329
0.000367359
0.000361087
0.000354446
0.000347409
0.000339941
0.000332
0.000323539
0.000314498
0.000304804
0.000294366
0.000283066
0.000270749
0.000257205
0.000242144
0.000225164
0.000205692
0.000182921
0.000155722
0.000122583
8.17971e-05
3.38466e-05
1.05913e-06
1.69368e-06
4.41308e-05
0.000106475
0.000162821
0.000211485
0.000253633
0.000290507
0.000323113
0.00035223
0.000378459
0.000402259
0.000423992
0.000443944
0.000462343
0.000479375
0.000495193
0.000509921
0.000523667
0.000536525
0.000548576
0.000559888
0.000570522
0.000580531
0.000589962
0.000598854
0.000607245
0.000615163
0.000622638
0.000629692
0.000636346
0.000642619
0.000648526
0.000654082
0.000659299
0.000664188
0.00066876
0.000673022
0.000676984
0.000680652
0.000684035
0.000687138
0.000689968
0.000692531
0.000694834
0.000696881
0.00069868
0.000700234
0.000701551
0.000702635
0.000703492
0.000704127
0.000704546
0.000704754
0.000704757
0.000704558
0.000704164
0.000703578
0.000702807
0.000701855
0.000700726
0.000699426
0.000697958
0.000696328
0.00069454
0.000692603