/*--------------------------------*- C++ -*----------------------------------*\
  =========                 |
  \\      /  F ield         | OpenFOAM: The Open Source CFD Toolbox
   \\    /   O peration     | Website:  https://openfoam.org
    \\  /    A nd           | Version:  8
     \\/     M anipulation  |
\*---------------------------------------------------------------------------*/
FoamFile
{
    version     2.0;
    format      ascii;
    class       surfaceScalarField;
    location    "1800";
    object      phi;
}
// * * * * * * * * * * * * * * * * * * * * * * * * * * * * * * * * * * * * * //

dimensions      [1 0 -1 0 0 0 0];

internalField   nonuniform List<scalar> 
114370
(
-1.70324e-11
1.1656e-13
1.69214e-11
-1.19786e-10
-3.66547e-15
9.95122e-11
-2.68623e-10
-3.35501e-14
1.46089e-10
-4.17566e-10
-2.03931e-14
1.46463e-10
-5.4232e-10
-2.4018e-14
1.22218e-10
-6.34377e-10
-4.39756e-14
8.95549e-11
-6.93455e-10
-5.92821e-14
5.67561e-11
-7.2331e-10
-6.68292e-14
2.78389e-11
-7.29455e-10
-7.64556e-14
4.52339e-12
-7.18022e-10
-9.03785e-14
-1.2621e-11
-6.95186e-10
-1.00533e-13
-2.36026e-11
-6.66841e-10
-1.01279e-13
-2.87444e-11
-6.38438e-10
-9.59317e-14
-2.85112e-11
-6.14901e-10
-8.84541e-14
-2.34323e-11
-6.00605e-10
-7.46969e-14
-1.40601e-11
-5.99375e-10
-4.58575e-14
-9.41087e-13
-6.14504e-10
-3.48287e-16
1.54004e-11
-6.48762e-10
5.0319e-14
3.44676e-11
-7.04407e-10
8.86163e-14
5.57781e-11
-7.832e-10
1.02078e-13
7.88592e-11
-8.8643e-10
8.74243e-14
1.03254e-10
-1.01494e-09
4.73993e-14
1.28527e-10
-1.16915e-09
-1.19799e-14
1.54263e-10
-1.3491e-09
-8.03127e-14
1.80062e-10
-1.55447e-09
-1.42027e-13
2.05547e-10
-1.78461e-09
-1.80794e-13
2.30372e-10
-2.03855e-09
-1.87055e-13
2.54225e-10
-2.31507e-09
-1.61929e-13
2.76831e-10
-2.61267e-09
-1.14556e-13
2.97942e-10
-2.92965e-09
-5.68932e-14
3.17342e-10
-3.2641e-09
-9.19701e-16
3.34839e-10
-3.61394e-09
4.15115e-14
3.5027e-10
-3.97693e-09
6.0175e-14
3.63499e-10
-4.35074e-09
5.12524e-14
3.74416e-10
-4.73296e-09
2.12106e-14
3.82943e-10
-5.12117e-09
-1.60888e-14
3.8904e-10
-5.51295e-09
-4.76397e-14
3.927e-10
-5.90592e-09
-6.76655e-14
3.93952e-10
-6.29776e-09
-7.86487e-14
3.92847e-10
-6.6862e-09
-8.71257e-14
3.89456e-10
-7.06906e-09
-9.51028e-14
3.83866e-10
-7.44427e-09
-9.63134e-14
3.76189e-10
-7.80991e-09
-8.49124e-14
3.66561e-10
-8.16418e-09
-6.44525e-14
3.55129e-10
-8.50543e-09
-4.37749e-14
3.42045e-10
-8.83217e-09
-2.89021e-14
3.27467e-10
-9.14305e-09
-2.1174e-14
3.11552e-10
-9.43688e-09
-1.71288e-14
2.94452e-10
-9.71264e-09
-1.0483e-14
2.76326e-10
-9.96946e-09
-2.27231e-16
2.57344e-10
-1.02066e-08
7.53969e-15
2.3766e-10
-1.04236e-08
9.53605e-15
2.17418e-10
-1.06199e-08
8.59486e-15
1.9676e-10
-1.07953e-08
3.9822e-15
1.75819e-10
-1.09496e-08
-7.15662e-15
1.54717e-10
-1.10827e-08
-1.6315e-14
1.33579e-10
-1.11948e-08
-1.27298e-14
1.1253e-10
-1.1286e-08
-5.68447e-15
9.16685e-11
-1.13566e-08
-1.13598e-14
7.10834e-11
-1.1407e-08
-2.59598e-14
5.08629e-11
-1.14376e-08
-3.77396e-14
3.10818e-11
-1.14489e-08
-4.61373e-14
1.18105e-11
-1.14414e-08
-5.08965e-14
-6.88883e-12
-1.14159e-08
-4.83177e-14
-2.50133e-11
-1.13728e-08
-4.48614e-14
-4.25577e-11
-1.13127e-08
-5.08317e-14
-5.9477e-11
-1.12364e-08
-6.42331e-14
-7.57397e-11
-1.11444e-08
-7.62641e-14
-9.13278e-11
-1.10376e-08
-8.23291e-14
-1.06222e-10
-1.09166e-08
-8.09313e-14
-1.204e-10
-1.07821e-08
-7.51539e-14
-1.33852e-10
-1.06348e-08
-7.51003e-14
-1.46586e-10
-1.04756e-08
-8.63443e-14
-1.58612e-10
-1.0305e-08
-1.00897e-13
-1.69941e-10
-1.01237e-08
-1.08654e-13
-1.8059e-10
-9.93245e-09
-1.09802e-13
-1.90575e-10
-9.73187e-09
-1.09503e-13
-1.99901e-10
-9.52263e-09
-1.09567e-13
-2.08577e-10
-9.30535e-09
-1.10366e-13
-2.16622e-10
-9.08066e-09
-1.13095e-13
-2.24055e-10
-8.84913e-09
-1.16589e-13
-2.30895e-10
-8.61135e-09
-1.17118e-13
-2.37163e-10
-8.36785e-09
-1.12645e-13
-2.42882e-10
-8.11917e-09
-1.04277e-13
-2.48071e-10
-7.8658e-09
-9.44418e-14
-2.52751e-10
-7.60824e-09
-8.56855e-14
-2.56948e-10
-7.34692e-09
-7.90079e-14
-2.60692e-10
-7.08228e-09
-7.1885e-14
-2.64007e-10
-6.81473e-09
-6.01927e-14
-2.6691e-10
-6.54466e-09
-4.18622e-14
-2.69424e-10
-6.27246e-09
-1.55286e-14
-2.71575e-10
-5.99849e-09
2.25935e-14
-2.7338e-10
-5.72311e-09
7.36966e-14
-2.74842e-10
-5.44667e-09
1.26956e-13
-2.75974e-10
-5.16944e-09
1.6184e-13
-2.76805e-10
-4.89167e-09
1.64908e-13
-2.77369e-10
-4.61356e-09
1.42391e-13
-2.77689e-10
-4.33534e-09
1.13771e-13
-2.77776e-10
-4.05724e-09
9.55205e-14
-2.77644e-10
-3.77946e-09
9.29204e-14
-2.77311e-10
-3.50221e-09
1.03037e-13
-2.76785e-10
-3.22569e-09
1.19008e-13
-2.76069e-10
-2.95008e-09
1.31513e-13
-2.75175e-10
-2.67552e-09
1.32173e-13
-2.74132e-10
-2.40212e-09
1.19387e-13
-2.72972e-10
-2.12998e-09
9.93643e-14
-2.71707e-10
-1.85921e-09
7.93809e-14
-2.70328e-10
-1.58992e-09
6.05507e-14
-2.68835e-10
-1.32219e-09
3.78988e-14
-2.67256e-10
-1.05616e-09
5.68093e-15
-2.65525e-10
-7.91871e-10
-3.88426e-14
-2.63746e-10
-5.29305e-10
-9.47859e-14
-2.61972e-10
-2.68587e-10
-1.57186e-13
-2.60066e-10
-9.79364e-12
-2.16487e-13
-2.58088e-10
2.4689e-10
-2.60023e-13
-2.55939e-10
5.01272e-10
-2.79572e-13
-2.5362e-10
7.53287e-10
-2.776e-13
-2.51253e-10
1.00287e-09
-2.6087e-13
-2.48828e-10
1.24998e-09
-2.32374e-13
-2.46362e-10
1.49457e-09
-1.90986e-13
-2.43871e-10
1.73663e-09
-1.39339e-13
-2.41363e-10
1.97614e-09
-8.90555e-14
-2.38835e-10
2.21308e-09
-5.47141e-14
-2.36286e-10
2.44746e-09
-4.18985e-14
-2.3372e-10
2.67926e-09
-4.2377e-14
-2.3114e-10
2.90847e-09
-4.18933e-14
-2.2855e-10
3.13507e-09
-3.27943e-14
-2.25955e-10
3.35907e-09
-1.89089e-14
-2.23371e-10
3.58052e-09
-8.73762e-15
-2.20821e-10
3.79947e-09
-5.49628e-15
-2.18332e-10
4.01599e-09
-4.65147e-15
-2.15915e-10
4.23016e-09
-1.69595e-16
-2.13564e-10
4.44201e-09
8.49405e-15
-2.1127e-10
4.65161e-09
1.57382e-14
-2.09029e-10
4.85901e-09
1.46918e-14
-2.06844e-10
5.0643e-09
1.83811e-15
-2.04719e-10
5.26755e-09
-2.17796e-14
-2.02659e-10
5.46882e-09
-5.11876e-14
-2.00667e-10
5.6682e-09
-7.79556e-14
-1.98746e-10
5.86574e-09
-9.17086e-14
-1.96895e-10
6.06146e-09
-8.49737e-14
-1.95095e-10
6.25538e-09
-5.96979e-14
-1.93313e-10
6.44747e-09
-2.9448e-14
-1.91508e-10
6.63766e-09
-1.26204e-14
-1.89646e-10
6.82592e-09
-1.98587e-14
-1.87709e-10
7.01218e-09
-4.53198e-14
-1.85684e-10
7.19631e-09
-6.99899e-14
-1.83549e-10
7.37816e-09
-7.54366e-14
-1.81258e-10
7.55747e-09
-5.75297e-14
-1.78744e-10
7.73393e-09
-2.92839e-14
-1.75934e-10
7.90719e-09
-1.09192e-14
-1.72757e-10
8.07685e-09
-1.51692e-14
-1.69149e-10
8.24243e-09
-3.88123e-14
-1.65043e-10
8.40334e-09
-6.56392e-14
-1.60356e-10
8.55889e-09
-7.75355e-14
-1.54982e-10
8.70825e-09
-6.56428e-14
-1.48799e-10
8.85045e-09
-3.51549e-14
-1.41684e-10
8.98446e-09
-2.00493e-15
-1.33518e-10
9.10914e-09
1.60684e-14
-1.242e-10
9.22329e-09
9.48787e-15
-1.13634e-10
9.32557e-09
-1.73788e-14
-1.01724e-10
9.41454e-09
-4.85811e-14
-8.83618e-11
9.48862e-09
-6.68756e-14
-7.34341e-11
9.54613e-09
-6.56726e-14
-5.68327e-11
9.58528e-09
-5.33177e-14
-3.84753e-11
9.60427e-09
-4.50773e-14
-1.83145e-11
9.6013e-09
-4.82183e-14
3.66956e-12
9.57434e-09
-5.5148e-14
2.76823e-11
9.52113e-09
-5.14712e-14
5.39355e-11
9.43941e-09
-3.23675e-14
8.24358e-11
9.32697e-09
-1.13062e-14
1.13158e-10
9.18166e-09
-7.80351e-15
1.46039e-10
9.00145e-09
-2.5267e-14
1.80989e-10
8.78437e-09
-4.36026e-14
2.17895e-10
8.5286e-09
-3.87221e-14
2.56611e-10
8.23248e-09
-9.94888e-15
2.96941e-10
7.89467e-09
1.75881e-14
3.38606e-10
7.51424e-09
2.22912e-14
3.81242e-10
7.09068e-09
1.30963e-14
4.24397e-10
6.62397e-09
1.76488e-14
4.67547e-10
6.11472e-09
4.41545e-14
5.10073e-10
5.5643e-09
6.87338e-14
5.51239e-10
4.97498e-09
6.9405e-14
5.90162e-10
4.35007e-09
5.90698e-14
6.25793e-10
3.69407e-09
6.53518e-14
6.56906e-10
3.01295e-09
8.44747e-14
6.82055e-10
2.31442e-09
8.30158e-14
6.99501e-10
1.60834e-09
4.92762e-14
7.07115e-10
9.07189e-10
1.07571e-14
7.02249e-10
2.26586e-10
-1.16845e-14
6.81744e-10
-4.12606e-10
-3.1135e-14
6.40362e-10
-9.83962e-10
-5.79353e-14
5.7254e-10
-1.45594e-09
-7.94864e-14
4.73147e-10
-1.79094e-09
-8.72852e-14
3.36139e-10
-1.94569e-09
-8.17083e-14
1.55833e-10
-1.87645e-09
-6.9371e-14
-6.82018e-11
-1.55753e-09
-7.68622e-14
-3.17888e-10
-1.01575e-09
-9.84924e-14
-5.40721e-10
-3.97518e-10
-8.11215e-14
-6.17124e-10
-2.72574e-14
-3.96399e-10
-1.73804e-11
1.6067e-11
-1.19866e-10
9.85259e-11
-2.68737e-10
1.4535e-10
-4.17805e-10
1.45904e-10
-5.4263e-10
1.21766e-10
-6.34697e-10
8.91731e-11
-6.93731e-10
5.64396e-11
-7.23501e-10
2.75865e-11
-7.29547e-10
4.32233e-12
-7.18026e-10
-1.27913e-11
-6.95126e-10
-2.37623e-11
-6.66748e-10
-2.89063e-11
-6.38345e-10
-2.86819e-11
-6.14844e-10
-2.36145e-11
-6.00607e-10
-1.42496e-11
-5.99431e-10
-1.1245e-12
-6.14571e-10
1.52416e-11
-6.48783e-10
3.43465e-11
-7.04332e-10
5.56955e-11
-7.83001e-10
7.88051e-11
-8.86103e-10
1.03214e-10
-1.01451e-09
1.28486e-10
-1.16868e-09
1.54209e-10
-1.34866e-09
1.79989e-10
-1.55413e-09
2.05457e-10
-1.7844e-09
2.30277e-10
-2.03849e-09
2.54142e-10
-2.31511e-09
2.76776e-10
-2.61277e-09
2.97925e-10
-2.92975e-09
3.17363e-10
-3.26414e-09
3.34894e-10
-3.61388e-09
3.5035e-10
-3.97675e-09
3.63591e-10
-4.35047e-09
3.74509e-10
-4.73265e-09
3.83025e-10
-5.12086e-09
3.89103e-10
-5.51267e-09
3.92745e-10
-5.90568e-09
3.93985e-10
-6.29756e-09
3.92874e-10
-6.68604e-09
3.89477e-10
-7.06894e-09
3.83884e-10
-7.44421e-09
3.76206e-10
-7.80987e-09
3.66575e-10
-8.16415e-09
3.55143e-10
-8.50539e-09
3.42066e-10
-8.83212e-09
3.27492e-10
-9.14299e-09
3.11574e-10
-9.43681e-09
2.94468e-10
-9.71257e-09
2.76337e-10
-9.96938e-09
2.5735e-10
-1.02065e-08
2.37666e-10
-1.04235e-08
2.17427e-10
-1.06198e-08
1.9677e-10
-1.07952e-08
1.75824e-10
-1.09494e-08
1.54719e-10
-1.10826e-08
1.33585e-10
-1.11947e-08
1.12537e-10
-1.12859e-08
9.16745e-11
-1.13565e-08
7.10958e-11
-1.14068e-08
5.08787e-11
-1.14374e-08
3.10907e-11
-1.14487e-08
1.18158e-11
-1.14413e-08
-6.8772e-12
-1.14158e-08
-2.49948e-11
-1.13726e-08
-4.25353e-11
-1.13126e-08
-5.94506e-11
-1.12362e-08
-7.57109e-11
-1.11443e-08
-9.12975e-11
-1.10375e-08
-1.06188e-10
-1.09164e-08
-1.20361e-10
-1.07819e-08
-1.3381e-10
-1.06347e-08
-1.46542e-10
-1.04754e-08
-1.58566e-10
-1.03048e-08
-1.69897e-10
-1.01236e-08
-1.80553e-10
-9.93233e-09
-1.90542e-10
-9.73176e-09
-1.99872e-10
-9.52251e-09
-2.08554e-10
-9.30523e-09
-2.16605e-10
-9.08054e-09
-2.24041e-10
-8.84903e-09
-2.30885e-10
-8.61125e-09
-2.37159e-10
-8.36775e-09
-2.42883e-10
-8.11906e-09
-2.4807e-10
-7.86569e-09
-2.52741e-10
-7.60813e-09
-2.5693e-10
-7.34684e-09
-2.60667e-10
-7.08224e-09
-2.63977e-10
-6.81473e-09
-2.66882e-10
-6.54471e-09
-2.69404e-10
-6.27254e-09
-2.71554e-10
-5.99859e-09
-2.73339e-10
-5.72321e-09
-2.74773e-10
-5.44671e-09
-2.7589e-10
-5.1694e-09
-2.76731e-10
-4.89155e-09
-2.77322e-10
-4.6134e-09
-2.77676e-10
-4.3352e-09
-2.778e-10
-4.05714e-09
-2.77702e-10
-3.77941e-09
-2.77387e-10
-3.50219e-09
-2.76863e-10
-3.22568e-09
-2.76142e-10
-2.95005e-09
-2.75248e-10
-2.67544e-09
-2.74207e-10
-2.40198e-09
-2.73037e-10
-2.1298e-09
-2.7174e-10
-1.859e-09
-2.70318e-10
-1.58968e-09
-2.68783e-10
-1.3219e-09
-2.67167e-10
-1.05582e-09
-2.65399e-10
-7.91494e-10
-2.63585e-10
-5.28915e-10
-2.61781e-10
-2.68219e-10
-2.59856e-10
-9.48243e-12
-2.57865e-10
2.47114e-10
-2.55704e-10
5.01393e-10
-2.5338e-10
7.53309e-10
-2.51019e-10
1.00282e-09
-2.48616e-10
1.24988e-09
-2.46178e-10
1.49447e-09
-2.43707e-10
1.73655e-09
-2.41205e-10
1.97611e-09
-2.38679e-10
2.21311e-09
-2.36139e-10
2.44752e-09
-2.33592e-10
2.67931e-09
-2.31037e-10
2.90849e-09
-2.28471e-10
3.13506e-09
-2.25897e-10
3.35906e-09
-2.23331e-10
3.58053e-09
-2.20797e-10
3.7995e-09
-2.18314e-10
4.01604e-09
-2.1589e-10
4.23021e-09
-2.13525e-10
4.44209e-09
-2.11217e-10
4.65172e-09
-2.08965e-10
4.85917e-09
-2.06774e-10
5.06449e-09
-2.04646e-10
5.26773e-09
-2.0259e-10
5.46897e-09
-2.0061e-10
5.66829e-09
-1.98708e-10
5.86576e-09
-1.9687e-10
6.06144e-09
-1.95071e-10
6.25535e-09
-1.93273e-10
6.44746e-09
-1.91446e-10
6.6377e-09
-1.89572e-10
6.826e-09
-1.87641e-10
7.01225e-09
-1.85635e-10
7.19636e-09
-1.83518e-10
7.37816e-09
-1.81231e-10
7.55745e-09
-1.78708e-10
7.73393e-09
-1.75883e-10
7.90723e-09
-1.72698e-10
8.07693e-09
-1.69096e-10
8.2425e-09
-1.65006e-10
8.40337e-09
-1.60335e-10
8.55885e-09
-1.54972e-10
8.70816e-09
-1.48789e-10
8.85037e-09
-1.41662e-10
8.98445e-09
-1.3348e-10
9.10923e-09
-1.24145e-10
9.22345e-09
-1.1357e-10
9.32575e-09
-1.01659e-10
9.41469e-09
-8.83014e-11
9.48872e-09
-7.33797e-11
9.54617e-09
-5.67817e-11
9.58529e-09
-3.8424e-11
9.60427e-09
-1.82613e-11
9.60127e-09
3.72137e-12
9.57427e-09
2.77285e-11
9.52104e-09
5.39772e-11
9.43935e-09
8.24796e-11
9.32696e-09
1.13211e-10
9.1817e-09
1.46103e-10
9.0015e-09
1.81059e-10
8.78438e-09
2.17968e-10
8.52856e-09
2.56696e-10
8.23243e-09
2.97053e-10
7.89464e-09
3.38755e-10
7.51421e-09
3.81424e-10
7.09061e-09
4.24604e-10
6.62386e-09
4.6778e-10
6.1146e-09
5.10343e-10
5.5642e-09
5.51544e-10
4.9749e-09
5.9048e-10
4.35001e-09
6.26098e-10
3.69407e-09
6.57193e-10
3.01304e-09
6.82333e-10
2.3146e-09
6.99762e-10
1.60858e-09
7.07329e-10
9.07453e-10
7.02407e-10
2.26852e-10
6.81871e-10
-4.12365e-10
6.40469e-10
-9.83776e-10
5.72617e-10
-1.45583e-09
4.732e-10
-1.79091e-09
3.36175e-10
-1.94569e-09
1.55844e-10
-1.87646e-09
-6.81773e-11
-1.55757e-09
-3.17858e-10
-1.01576e-09
-5.4076e-10
-3.97488e-10
-6.17117e-10
-3.96361e-10
-1.02357e-10
-8.48381e-14
1.15556e-10
-2.55827e-10
-1.16205e-13
2.48719e-10
-3.948e-10
-8.12282e-14
2.81806e-10
-5.04184e-10
-7.2359e-14
2.52905e-10
-5.8109e-10
-7.55349e-14
1.96406e-10
-6.26539e-10
-7.87679e-14
1.326e-10
-6.44019e-10
-7.70549e-14
7.22377e-11
-6.38387e-10
-7.33634e-14
2.06631e-11
-6.15181e-10
-7.00869e-14
-1.97689e-11
-5.80149e-10
-6.50077e-14
-4.83183e-11
-5.38928e-10
-5.63173e-14
-6.51373e-11
-4.96869e-10
-4.66273e-14
-7.08527e-11
-4.58927e-10
-4.07963e-14
-6.63182e-11
-4.29618e-10
-4.06643e-14
-5.24934e-11
-4.12992e-10
-4.34553e-14
-3.03842e-11
-4.12617e-10
-4.52737e-14
-1.0087e-12
-4.31568e-10
-4.45202e-14
3.46325e-11
-4.72437e-10
-4.16828e-14
7.55715e-11
-5.37347e-10
-3.6805e-14
1.20866e-10
-6.27957e-10
-2.86864e-14
1.69596e-10
-7.45485e-10
-1.68774e-14
2.20867e-10
-8.9071e-10
-3.443e-15
2.73813e-10
-1.064e-09
7.98955e-15
3.27605e-10
-1.26532e-09
1.47555e-14
3.81453e-10
-1.49428e-09
1.64031e-14
4.34611e-10
-1.75012e-09
1.3903e-14
4.86379e-10
-2.03177e-09
8.41546e-15
5.36114e-10
-2.33785e-09
1.2025e-15
5.83232e-10
-2.66672e-09
-5.81363e-15
6.27213e-10
-3.01648e-09
-1.04078e-14
6.67596e-10
-3.38506e-09
-1.15066e-14
7.03985e-10
-3.77019e-09
-1.00899e-14
7.3605e-10
-4.16949e-09
-8.20858e-15
7.63525e-10
-4.58049e-09
-6.80498e-15
7.86213e-10
-5.00067e-09
-4.61133e-15
8.03976e-10
-5.42748e-09
3.22812e-16
8.16736e-10
-5.85834e-09
8.02006e-15
8.2448e-10
-6.29072e-09
1.61067e-14
8.27248e-10
-6.72209e-09
2.16106e-14
8.25139e-10
-7.15004e-09
2.26233e-14
8.18299e-10
-7.57223e-09
1.97471e-14
8.06922e-10
-7.98644e-09
1.64157e-14
7.91234e-10
-8.39057e-09
1.5124e-14
7.7149e-10
-8.78267e-09
1.39655e-14
7.47978e-10
-9.16092e-09
9.98119e-15
7.21004e-10
-9.52368e-09
3.4953e-15
6.90891e-10
-9.86947e-09
-3.56833e-15
6.57966e-10
-1.0197e-08
-9.64044e-15
6.22553e-10
-1.05051e-08
-1.27532e-14
5.84982e-10
-1.07928e-08
-1.25937e-14
5.45584e-10
-1.10593e-08
-1.2193e-14
5.04673e-10
-1.1304e-08
-1.40782e-14
4.62545e-10
-1.15263e-08
-1.65229e-14
4.19503e-10
-1.17258e-08
-1.68147e-14
3.75836e-10
-1.19024e-08
-1.55842e-14
3.3179e-10
-1.2056e-08
-1.36976e-14
2.87603e-10
-1.21865e-08
-9.71165e-15
2.43515e-10
-1.22941e-08
-5.23521e-15
1.99728e-10
-1.23789e-08
-4.34648e-15
1.56427e-10
-1.24414e-08
-5.25298e-15
1.13796e-10
-1.24818e-08
-3.28903e-15
7.1985e-11
-1.25005e-08
5.71957e-16
3.1112e-11
-1.24982e-08
4.00366e-15
-8.70778e-12
-1.24753e-08
8.69348e-15
-4.73846e-11
-1.24325e-08
1.45961e-14
-8.48556e-11
-1.23703e-08
1.80272e-14
-1.21057e-10
-1.22896e-08
1.84355e-14
-1.55929e-10
-1.21909e-08
1.90656e-14
-1.89428e-10
-1.2075e-08
2.16229e-14
-2.21527e-10
-1.19426e-08
2.5684e-14
-2.52207e-10
-1.17945e-08
3.03907e-14
-2.81453e-10
-1.16312e-08
3.38298e-14
-3.0926e-10
-1.14536e-08
3.44062e-14
-3.35638e-10
-1.12624e-08
3.37136e-14
-3.60607e-10
-1.10582e-08
3.48077e-14
-3.84186e-10
-1.08418e-08
3.81471e-14
-4.06396e-10
-1.06139e-08
4.15559e-14
-4.27262e-10
-1.03751e-08
4.27728e-14
-4.46819e-10
-1.01261e-08
4.06827e-14
-4.65101e-10
-9.86747e-09
3.59954e-14
-4.82136e-10
-9.59988e-09
3.14454e-14
-4.97959e-10
-9.3239e-09
2.93403e-14
-5.12612e-10
-9.0401e-09
2.87603e-14
-5.26139e-10
-8.74905e-09
2.67121e-14
-5.38575e-10
-8.45127e-09
2.13547e-14
-5.4996e-10
-8.14729e-09
1.2775e-14
-5.60344e-10
-7.83759e-09
2.31096e-15
-5.69774e-10
-7.52268e-09
-7.0782e-15
-5.78286e-10
-7.20303e-09
-1.1863e-14
-5.85908e-10
-6.87912e-09
-1.17713e-14
-5.92682e-10
-6.55139e-09
-1.09274e-14
-5.98666e-10
-6.22023e-09
-1.28174e-14
-6.03901e-10
-5.88605e-09
-1.59418e-14
-6.0841e-10
-5.54921e-09
-1.74131e-14
-6.1221e-10
-5.2101e-09
-1.92384e-14
-6.15339e-10
-4.86905e-09
-2.68035e-14
-6.17845e-10
-4.52641e-09
-4.08174e-14
-6.19764e-10
-4.18248e-09
-5.46202e-14
-6.2112e-10
-3.83761e-09
-6.12808e-14
-6.21935e-10
-3.4921e-09
-6.07126e-14
-6.22243e-10
-3.14623e-09
-5.75008e-14
-6.22083e-10
-2.80025e-09
-5.37886e-14
-6.21488e-10
-2.4544e-09
-4.76007e-14
-6.20482e-10
-2.10892e-09
-3.77195e-14
-6.19083e-10
-1.76407e-09
-2.67216e-14
-6.1732e-10
-1.42008e-09
-1.75876e-14
-6.15216e-10
-1.07713e-09
-9.40429e-15
-6.12795e-10
-7.35419e-10
1.22668e-15
-6.10071e-10
-3.95128e-10
1.50958e-14
-6.07074e-10
-5.63818e-11
2.88374e-14
-6.03798e-10
2.80506e-10
3.88481e-14
-6.00156e-10
6.15204e-10
4.52412e-14
-5.96179e-10
9.47577e-10
5.05859e-14
-5.91933e-10
1.27746e-09
5.53844e-14
-5.87442e-10
1.60471e-09
5.71381e-14
-5.82643e-10
1.9292e-09
5.42509e-14
-5.77549e-10
2.25081e-09
4.89853e-14
-5.72268e-10
2.56941e-09
4.56579e-14
-5.66817e-10
2.88489e-09
4.65464e-14
-5.6122e-10
3.19715e-09
4.95441e-14
-5.55498e-10
3.5061e-09
4.98002e-14
-5.49667e-10
3.81166e-09
4.36425e-14
-5.43741e-10
4.11377e-09
3.10303e-14
-5.37738e-10
4.41239e-09
1.51143e-14
-5.31676e-10
4.7075e-09
2.96294e-16
-5.25579e-10
4.99908e-09
-9.63636e-15
-5.19467e-10
5.28714e-09
-1.28549e-14
-5.1336e-10
5.57169e-09
-1.01456e-14
-5.07276e-10
5.85275e-09
-4.42803e-15
-5.0124e-10
6.13032e-09
9.66469e-16
-4.95278e-10
6.40443e-09
4.28513e-15
-4.89417e-10
6.67515e-09
6.05196e-15
-4.83674e-10
6.94253e-09
7.7971e-15
-4.78061e-10
7.20667e-09
9.92389e-15
-4.7258e-10
7.46765e-09
1.0835e-14
-4.67236e-10
7.72554e-09
8.45335e-15
-4.62029e-10
7.98043e-09
2.90531e-15
-4.56963e-10
8.23238e-09
-2.31148e-15
-4.52034e-10
8.48146e-09
-2.26974e-15
-4.47235e-10
8.7277e-09
5.54141e-15
-4.42551e-10
8.97112e-09
1.86174e-14
-4.37955e-10
9.21177e-09
3.04837e-14
-4.3341e-10
9.44968e-09
3.48671e-14
-4.28869e-10
9.68484e-09
2.99587e-14
-4.24272e-10
9.91723e-09
1.9605e-14
-4.19553e-10
1.01467e-08
1.05791e-14
-4.14638e-10
1.03732e-08
8.02957e-15
-4.09444e-10
1.05963e-08
1.22895e-14
-4.03873e-10
1.08159e-08
1.91267e-14
-3.97813e-10
1.10316e-08
2.28907e-14
-3.91134e-10
1.12431e-08
2.02224e-14
-3.8369e-10
1.14498e-08
1.19518e-14
-3.75322e-10
1.16511e-08
2.367e-15
-3.65857e-10
1.18464e-08
-3.32193e-15
-3.55107e-10
1.20348e-08
-1.79256e-15
-3.42872e-10
1.22155e-08
6.56977e-15
-3.28934e-10
1.23874e-08
1.7569e-14
-3.13069e-10
1.25494e-08
2.50449e-14
-2.95043e-10
1.27004e-08
2.41924e-14
-2.74617e-10
1.28389e-08
1.47698e-14
-2.51548e-10
1.29633e-08
1.89723e-15
-2.25589e-10
1.30721e-08
-6.90468e-15
-1.96498e-10
1.31634e-08
-6.97245e-15
-1.64041e-10
1.32352e-08
-6.91127e-17
-1.27996e-10
1.32856e-08
7.15166e-15
-8.81643e-11
1.33123e-08
9.09767e-15
-4.43604e-11
1.33131e-08
6.33886e-15
3.5697e-12
1.32857e-08
4.84124e-15
5.58722e-11
1.32276e-08
9.26718e-15
1.1278e-10
1.31364e-08
1.69691e-14
1.74368e-10
1.30097e-08
1.98331e-14
2.40652e-10
1.28449e-08
1.29491e-14
3.1158e-10
1.26397e-08
9.74913e-16
3.87031e-10
1.23917e-08
-6.17704e-15
4.6679e-10
1.20986e-08
-4.91212e-15
5.50547e-10
1.17585e-08
-3.17061e-15
6.37879e-10
1.13698e-08
-1.13302e-14
7.28241e-10
1.0931e-08
-2.87411e-14
8.20945e-10
1.04412e-08
-4.36553e-14
9.1513e-10
9.90003e-09
-4.80803e-14
1.00974e-09
9.30759e-09
-4.75065e-14
1.10352e-09
8.66489e-09
-5.05681e-14
1.19497e-09
7.97379e-09
-5.31235e-14
1.28233e-09
7.2372e-09
-4.25153e-14
1.36349e-09
6.45926e-09
-1.81121e-14
1.43596e-09
5.64565e-09
4.24883e-15
1.49679e-09
4.80379e-09
1.36631e-14
1.54249e-09
3.94321e-09
1.75438e-14
1.56885e-09
3.0759e-09
2.46694e-14
1.57072e-09
2.21697e-09
2.90015e-14
1.54183e-09
1.3846e-09
2.2644e-14
1.47389e-09
6.00842e-10
1.00845e-14
1.35744e-09
-1.07113e-10
-8.9721e-17
1.18222e-09
-7.05786e-10
-7.03285e-16
9.35904e-10
-1.15705e-09
7.32792e-15
6.08166e-10
-1.41816e-09
2.99516e-15
1.93987e-10
-1.44261e-09
-1.71533e-14
-2.92301e-10
-1.18297e-09
-2.1936e-14
-7.99103e-10
-6.15109e-10
-9.50596e-15
-1.1835e-09
3.4894e-14
-1.01054e-09
-1.02728e-10
1.14834e-10
-2.55883e-10
2.48175e-10
-3.94843e-10
2.81514e-10
-5.04258e-10
2.52734e-10
-5.81181e-10
1.96287e-10
-6.26627e-10
1.32508e-10
-6.44087e-10
7.21631e-11
-6.38424e-10
2.06038e-11
-6.15187e-10
-1.98173e-11
-5.80129e-10
-4.83656e-11
-5.38885e-10
-6.51919e-11
-4.968e-10
-7.09164e-11
-4.58834e-10
-6.63872e-11
-4.29513e-10
-5.25629e-11
-4.1289e-10
-3.04505e-11
-4.12526e-10
-1.06641e-12
-4.31488e-10
3.45901e-11
-4.72362e-10
7.55493e-11
-5.37267e-10
1.20862e-10
-6.27865e-10
1.69601e-10
-7.45368e-10
2.20869e-10
-8.9056e-10
2.73799e-10
-1.06381e-09
3.27568e-10
-1.26511e-09
3.81391e-10
-1.49406e-09
4.34525e-10
-1.74991e-09
4.8628e-10
-2.03158e-09
5.36015e-10
-2.33769e-09
5.83147e-10
-2.66658e-09
6.27151e-10
-3.01636e-09
6.6756e-10
-3.38494e-09
7.03973e-10
-3.77005e-09
7.36055e-10
-4.16934e-09
7.63538e-10
-4.58033e-09
7.86223e-10
-5.0005e-09
8.03972e-10
-5.42731e-09
8.16708e-10
-5.85818e-09
8.24425e-10
-6.29055e-09
8.27173e-10
-6.72192e-09
8.2505e-10
-7.14987e-09
8.182e-10
-7.57206e-09
8.0682e-10
-7.98628e-09
7.91137e-10
-8.39042e-09
7.71399e-10
-8.78252e-09
7.47892e-10
-9.16076e-09
7.20932e-10
-9.52351e-09
6.90833e-10
-9.8693e-09
6.5792e-10
-1.01968e-08
6.22516e-10
-1.05049e-08
5.84948e-10
-1.07927e-08
5.45549e-10
-1.10592e-08
5.04641e-10
-1.13038e-08
4.62524e-10
-1.15261e-08
4.19491e-10
-1.17256e-08
3.75815e-10
-1.19022e-08
3.31761e-10
-1.20558e-08
2.87579e-10
-1.21863e-08
2.43491e-10
-1.22939e-08
1.99696e-10
-1.23787e-08
1.56396e-10
-1.24412e-08
1.13765e-10
-1.24816e-08
7.19423e-11
-1.25004e-08
3.10601e-11
-1.2498e-08
-8.75756e-12
-1.24751e-08
-4.74332e-11
-1.24323e-08
-8.49068e-11
-1.23702e-08
-1.21108e-10
-1.22894e-08
-1.5598e-10
-1.21907e-08
-1.89482e-10
-1.20749e-08
-2.21584e-10
-1.19425e-08
-2.52262e-10
-1.17943e-08
-2.81506e-10
-1.16311e-08
-3.09317e-10
-1.14535e-08
-3.35701e-10
-1.12622e-08
-3.60675e-10
-1.1058e-08
-3.84258e-10
-1.08416e-08
-4.06471e-10
-1.06137e-08
-4.27344e-10
-1.03749e-08
-4.46912e-10
-1.01259e-08
-4.65201e-10
-9.8673e-09
-4.82238e-10
-9.59971e-09
-4.9806e-10
-9.32374e-09
-5.12714e-10
-9.03994e-09
-5.26241e-10
-8.74889e-09
-5.38674e-10
-8.4511e-09
-5.50052e-10
-8.14711e-09
-5.60424e-10
-7.83742e-09
-5.69833e-10
-7.52254e-09
-5.78319e-10
-7.20292e-09
-5.8592e-10
-6.87904e-09
-5.92683e-10
-6.55131e-09
-5.9865e-10
-6.22016e-09
-6.03851e-10
-5.88596e-09
-6.08314e-10
-5.5491e-09
-6.12079e-10
-5.20996e-09
-6.15195e-10
-4.86889e-09
-6.17702e-10
-4.52625e-09
-6.19631e-10
-4.18236e-09
-6.21002e-10
-3.83752e-09
-6.21839e-10
-3.49203e-09
-6.22169e-10
-3.14617e-09
-6.22023e-10
-2.80018e-09
-6.21433e-10
-2.45433e-09
-6.2043e-10
-2.10885e-09
-6.19037e-10
-1.764e-09
-6.17279e-10
-1.41999e-09
-6.15176e-10
-1.07703e-09
-6.12756e-10
-7.3531e-10
-6.10039e-10
-3.95004e-10
-6.0706e-10
-5.62369e-11
-6.03809e-10
2.80672e-10
-6.00197e-10
6.15381e-10
-5.96253e-10
9.47749e-10
-5.92038e-10
1.27761e-09
-5.8757e-10
1.60483e-09
-5.8278e-10
1.9293e-09
-5.77687e-10
2.25087e-09
-5.72401e-10
2.56944e-09
-5.66946e-10
2.88491e-09
-5.61341e-10
3.19717e-09
-5.556e-10
3.50615e-09
-5.49741e-10
3.81174e-09
-5.43785e-10
4.11387e-09
-5.37758e-10
4.4125e-09
-5.31684e-10
4.70759e-09
-5.25584e-10
4.99914e-09
-5.19473e-10
5.28718e-09
-5.13371e-10
5.57172e-09
-5.07293e-10
5.85277e-09
-5.01262e-10
6.13035e-09
-4.95299e-10
6.40448e-09
-4.8943e-10
6.6752e-09
-4.83677e-10
6.9426e-09
-4.78054e-10
7.20676e-09
-4.72569e-10
7.46774e-09
-4.67225e-10
7.72564e-09
-4.62024e-10
7.98052e-09
-4.56966e-10
8.23245e-09
-4.5205e-10
8.48149e-09
-4.47265e-10
8.7277e-09
-4.4259e-10
8.97112e-09
-4.37993e-10
9.21178e-09
-4.33438e-10
9.44972e-09
-4.28883e-10
9.68491e-09
-4.24277e-10
9.91731e-09
-4.19561e-10
1.01468e-08
-4.14657e-10
1.03732e-08
-4.09473e-10
1.05963e-08
-4.03905e-10
1.08159e-08
-3.97839e-10
1.10317e-08
-3.9115e-10
1.12431e-08
-3.83701e-10
1.14498e-08
-3.75335e-10
1.16512e-08
-3.65878e-10
1.18464e-08
-3.55138e-10
1.20348e-08
-3.42909e-10
1.22154e-08
-3.28971e-10
1.23874e-08
-3.131e-10
1.25495e-08
-2.95064e-10
1.27005e-08
-2.74628e-10
1.2839e-08
-2.51551e-10
1.29634e-08
-2.25589e-10
1.30722e-08
-1.96501e-10
1.31634e-08
-1.64049e-10
1.32353e-08
-1.28011e-10
1.32856e-08
-8.8181e-11
1.33124e-08
-4.43752e-11
1.33132e-08
3.55671e-12
1.32857e-08
5.58574e-11
1.32276e-08
1.12761e-10
1.31364e-08
1.74348e-10
1.30097e-08
2.40636e-10
1.2845e-08
3.11572e-10
1.26398e-08
3.87027e-10
1.23917e-08
4.66787e-10
1.20987e-08
5.50545e-10
1.17586e-08
6.37886e-10
1.13699e-08
7.28265e-10
1.09311e-08
8.20986e-10
1.04413e-08
9.15183e-10
9.90005e-09
1.00981e-09
9.30757e-09
1.1036e-09
8.66485e-09
1.19508e-09
7.97371e-09
1.28245e-09
7.23709e-09
1.36361e-09
6.45916e-09
1.43607e-09
5.64559e-09
1.49691e-09
4.80379e-09
1.5426e-09
3.94325e-09
1.56894e-09
3.07598e-09
1.57077e-09
2.21708e-09
1.54187e-09
1.38474e-09
1.4739e-09
6.0096e-10
1.35743e-09
-1.07043e-10
1.1822e-09
-7.05756e-10
9.35857e-10
-1.15704e-09
6.08097e-10
-1.41817e-09
1.93922e-10
-1.44263e-09
-2.92394e-10
-1.18303e-09
-7.99218e-10
-6.15091e-10
-1.18364e-09
-1.01064e-09
-1.46881e-10
-1.8583e-13
2.6003e-10
-2.83875e-10
-6.57027e-14
3.84689e-10
-3.75507e-10
-2.44014e-14
3.72723e-10
-4.32871e-10
-3.20341e-14
3.09642e-10
-4.63582e-10
-4.35704e-14
2.26576e-10
-4.72183e-10
-4.83385e-14
1.40762e-10
-4.62442e-10
-4.76857e-14
6.21739e-11
-4.3816e-10
-4.58124e-14
-3.81737e-12
-4.03374e-10
-4.37519e-14
-5.463e-11
-3.62286e-10
-3.96702e-14
-8.93741e-11
-3.1913e-10
-3.27658e-14
-1.08175e-10
-2.78063e-10
-2.51214e-14
-1.1174e-10
-2.43056e-10
-1.951e-14
-1.01102e-10
-2.17819e-10
-1.67889e-14
-7.74803e-11
-2.05752e-10
-1.59048e-14
-4.21899e-11
-2.09904e-10
-1.59712e-14
3.40671e-12
-2.32954e-10
-1.72945e-14
5.79403e-11
-2.77193e-10
-2.01878e-14
1.20058e-10
-3.44514e-10
-2.344e-14
1.88422e-10
-4.36416e-10
-2.47351e-14
2.61719e-10
-5.54004e-10
-2.24881e-14
3.38658e-10
-6.97993e-10
-1.68582e-14
4.17987e-10
-8.68724e-10
-9.20666e-15
4.98501e-10
-1.06617e-09
-1.03438e-15
5.79047e-10
-1.28997e-09
6.41036e-15
6.58534e-10
-1.53942e-09
1.19588e-14
7.35939e-10
-1.81352e-09
1.45887e-14
8.10318e-10
-2.11101e-09
1.40106e-14
8.80807e-10
-2.43034e-09
1.11072e-14
9.46633e-10
-2.76977e-09
7.48547e-15
1.00711e-09
-3.12736e-09
4.38083e-15
1.06166e-09
-3.50099e-09
2.01843e-15
1.10977e-09
-3.88845e-09
2.03784e-16
1.15107e-09
-4.28739e-09
-4.76182e-16
1.18524e-09
-4.69541e-09
1.36935e-15
1.21209e-09
-5.11008e-09
6.23212e-15
1.23151e-09
-5.52895e-09
1.27126e-14
1.24345e-09
-5.94958e-09
1.88397e-14
1.24798e-09
-6.36957e-09
2.30677e-14
1.24525e-09
-6.7866e-09
2.39116e-14
1.23545e-09
-7.19841e-09
2.14797e-14
1.21886e-09
-7.60283e-09
1.88292e-14
1.1958e-09
-7.99784e-09
1.79136e-14
1.16665e-09
-8.38153e-09
1.6234e-14
1.13183e-09
-8.75213e-09
1.14284e-14
1.09176e-09
-9.108e-09
5.24463e-15
1.04694e-09
-9.44769e-09
2.92814e-16
9.97823e-10
-9.76987e-09
-2.47829e-15
9.44906e-10
-1.00734e-08
-3.0748e-15
8.88669e-10
-1.03573e-08
-2.96178e-15
8.29598e-10
-1.06206e-08
-4.1756e-15
7.68168e-10
-1.08627e-08
-5.85794e-15
7.04827e-10
-1.10831e-08
-5.15087e-15
6.40016e-10
-1.12813e-08
-3.13948e-15
5.7416e-10
-1.1457e-08
-3.52255e-15
5.07641e-10
-1.16101e-08
-4.05909e-15
4.40822e-10
-1.17405e-08
-2.59354e-16
3.74052e-10
-1.18483e-08
3.85694e-15
3.0764e-10
-1.19336e-08
3.26276e-15
2.41865e-10
-1.19967e-08
2.54351e-15
1.7699e-10
-1.20378e-08
5.85024e-15
1.13245e-10
-1.20574e-08
9.25307e-15
5.08232e-11
-1.20559e-08
1.07776e-14
-1.01036e-11
-1.20338e-08
1.35123e-14
-6.93895e-11
-1.19916e-08
1.72934e-14
-1.26912e-10
-1.193e-08
1.92892e-14
-1.82564e-10
-1.18495e-08
1.95531e-14
-2.3626e-10
-1.17509e-08
1.91309e-14
-2.87941e-10
-1.16347e-08
1.86525e-14
-3.37559e-10
-1.15017e-08
2.03249e-14
-3.85075e-10
-1.13525e-08
2.47288e-14
-4.30474e-10
-1.11879e-08
2.80506e-14
-4.73755e-10
-1.10085e-08
2.80181e-14
-5.14918e-10
-1.0815e-08
2.77944e-14
-5.53973e-10
-1.06081e-08
3.0106e-14
-5.90953e-10
-1.03885e-08
3.32037e-14
-6.25895e-10
-1.01568e-08
3.48486e-14
-6.5883e-10
-9.91368e-09
3.48147e-14
-6.89795e-10
-9.65981e-09
3.29481e-14
-7.18839e-10
-9.3958e-09
2.96736e-14
-7.46018e-10
-9.12226e-09
2.76117e-14
-7.71376e-10
-8.83978e-09
2.84301e-14
-7.94967e-10
-8.54894e-09
2.95944e-14
-8.1685e-10
-8.25031e-09
2.74154e-14
-8.37085e-10
-7.94441e-09
2.12031e-14
-8.55729e-10
-7.63177e-09
1.24732e-14
-8.7284e-10
-7.31292e-09
3.38493e-15
-8.8848e-10
-6.98835e-09
-2.40852e-15
-9.02704e-10
-6.65854e-09
-1.8783e-15
-9.15563e-10
-6.32395e-09
1.82457e-15
-9.27116e-10
-5.98505e-09
3.58991e-16
-9.37424e-10
-5.64225e-09
-9.73852e-15
-9.46545e-10
-5.29598e-09
-2.15387e-14
-9.54523e-10
-4.94664e-09
-2.60716e-14
-9.61402e-10
-4.59461e-09
-2.32124e-14
-9.6723e-10
-4.24027e-09
-1.99002e-14
-9.72051e-10
-3.884e-09
-1.99106e-14
-9.75908e-10
-3.52615e-09
-2.09242e-14
-9.78848e-10
-3.16703e-09
-2.11353e-14
-9.80929e-10
-2.80694e-09
-2.2648e-14
-9.82205e-10
-2.44618e-09
-2.61623e-14
-9.82711e-10
-2.08507e-09
-2.71098e-14
-9.82473e-10
-1.7239e-09
-2.1227e-14
-9.81524e-10
-1.36295e-09
-1.1661e-14
-9.79914e-10
-1.00246e-09
-6.21854e-15
-9.77699e-10
-6.42657e-10
-7.84985e-15
-9.74905e-10
-2.83767e-10
-1.14451e-14
-9.71558e-10
7.39533e-11
-1.08193e-14
-9.67657e-10
4.30176e-10
-5.68348e-15
-9.63159e-10
7.84623e-10
2.18861e-16
-9.58105e-10
1.13711e-09
5.50088e-15
-9.52499e-10
1.48743e-09
1.22568e-14
-9.46356e-10
1.83538e-09
2.10664e-14
-9.39739e-10
2.18076e-09
2.81026e-14
-9.32682e-10
2.52345e-09
2.92661e-14
-9.25186e-10
2.86333e-09
2.59871e-14
-9.17279e-10
3.20023e-09
2.43507e-14
-9.09024e-10