/*--------------------------------*- C++ -*----------------------------------*\
  =========                 |
  \\      /  F ield         | OpenFOAM: The Open Source CFD Toolbox
   \\    /   O peration     | Website:  https://openfoam.org
    \\  /    A nd           | Version:  8
     \\/     M anipulation  |
\*---------------------------------------------------------------------------*/
FoamFile
{
    version     2.0;
    format      ascii;
    class       volScalarField;
    location    "1800";
    object      T;
}
// * * * * * * * * * * * * * * * * * * * * * * * * * * * * * * * * * * * * * //

dimensions      [0 0 0 1 0 0 0];

internalField   nonuniform List<scalar> 
46000
(
311.39
310.947
310.399
309.948
309.589
309.297
309.052
308.843
308.663
308.504
308.366
308.243
308.135
308.04
307.955
307.88
307.814
307.754
307.701
307.655
307.613
307.577
307.545
307.518
307.493
307.472
307.454
307.438
307.424
307.412
307.401
307.391
307.383
307.375
307.369
307.362
307.356
307.35
307.345
307.339
307.334
307.329
307.324
307.318
307.313
307.308
307.303
307.298
307.294
307.289
307.285
307.281
307.277
307.274
307.271
307.268
307.267
307.265
307.264
307.264
307.265
307.266
307.267
307.269
307.271
307.274
307.278
307.283
307.289
307.295
307.302
307.309
307.318
307.327
307.336
307.347
307.358
307.369
307.381
307.394
307.407
307.42
307.434
307.448
307.463
307.477
307.492
307.508
307.523
307.538
307.554
307.569
307.585
307.6
307.616
307.631
307.646
307.661
307.676
307.69
307.705
307.718
307.732
307.745
307.758
307.771
307.783
307.794
307.806
307.817
307.827
307.837
307.847
307.856
307.865
307.874
307.882
307.89
307.897
307.904
307.911
307.917
307.923
307.929
307.935
307.94
307.945
307.949
307.954
307.958
307.962
307.966
307.97
307.974
307.978
307.981
307.985
307.988
307.992
307.996
308
308.004
308.008
308.012
308.017
308.022
308.028
308.034
308.04
308.048
308.056
308.065
308.075
308.086
308.098
308.111
308.126
308.142
308.16
308.18
308.201
308.225
308.251
308.279
308.31
308.343
308.379
308.417
308.458
308.502
308.549
308.6
308.654
308.712
308.773
308.839
308.909
308.982
309.06
309.142
309.228
309.319
309.413
309.511
309.613
309.718
309.825
309.936
310.048
310.162
310.279
310.396
310.515
310.638
310.77
310.916
311.084
311.3
311.581
311.828
311.39
310.947
310.399
309.948
309.589
309.297
309.052
308.843
308.663
308.504
308.365
308.243
308.135
308.04
307.955
307.88
307.813
307.754
307.701
307.654
307.613
307.577
307.545
307.518
307.493
307.472
307.454
307.438
307.424
307.412
307.401
307.391
307.383
307.375
307.368
307.362
307.356
307.35
307.345
307.339
307.334
307.329
307.324
307.318
307.313
307.308
307.303
307.298
307.294
307.289
307.285
307.281
307.277
307.274
307.271
307.268
307.267
307.265
307.264
307.264
307.265
307.266
307.267
307.269
307.271
307.274
307.278
307.283
307.289
307.295
307.302
307.309
307.318
307.327
307.336
307.347
307.357
307.369
307.381
307.394
307.407
307.42
307.434
307.448
307.463
307.477
307.492
307.508
307.523
307.538
307.554
307.569
307.585
307.601
307.616
307.631
307.646
307.661
307.676
307.69
307.705
307.719
307.732
307.745
307.758
307.771
307.783
307.794
307.806
307.817
307.827
307.837
307.847
307.856
307.865
307.874
307.882
307.89
307.897
307.904
307.911
307.917
307.923
307.929
307.935
307.94
307.945
307.95
307.954
307.958
307.962
307.966
307.97
307.974
307.978
307.981
307.985
307.988
307.992
307.996
308
308.004
308.008
308.012
308.017
308.022
308.028
308.034
308.04
308.048
308.056
308.065
308.075
308.086
308.098
308.111
308.126
308.142
308.16
308.18
308.201
308.225
308.251
308.279
308.31
308.343
308.379
308.417
308.458
308.502
308.549
308.6
308.654
308.712
308.773
308.839
308.909
308.982
309.06
309.142
309.228
309.319
309.413
309.511
309.613
309.718
309.826
309.936
310.048
310.162
310.279
310.396
310.515
310.638
310.77
310.916
311.084
311.3
311.581
311.828
308.398
307.803
307.225
306.778
306.428
306.148
305.918
305.727
305.566
305.429
305.314
305.215
305.131
305.06
305
304.949
304.907
304.872
304.844
304.822
304.805
304.792
304.784
304.779
304.777
304.778
304.781
304.785
304.792
304.799
304.807
304.815
304.824
304.833
304.842
304.85
304.858
304.866
304.872
304.878
304.884
304.888
304.892
304.895
304.897
304.898
304.898
304.898
304.897
304.896
304.894
304.892
304.889
304.886
304.883
304.879
304.876
304.872
304.868
304.865
304.861
304.858
304.854
304.851
304.848
304.845
304.843
304.841
304.84
304.839
304.838
304.837
304.838
304.838
304.839
304.841
304.843
304.845
304.848
304.851
304.854
304.858
304.863
304.867
304.873
304.878
304.884
304.89
304.896
304.903
304.91
304.917
304.925
304.932
304.94
304.948
304.957
304.965
304.974
304.983
304.991
305
305.01
305.019
305.028
305.038
305.047
305.057
305.067
305.076
305.086
305.096
305.106
305.116
305.126
305.137
305.147
305.157
305.167
305.178
305.188
305.198
305.209
305.219
305.23
305.24
305.251
305.261
305.272
305.282
305.293
305.303
305.314
305.325
305.335
305.346
305.357
305.368
305.379
305.391
305.402
305.414
305.426
305.438
305.45
305.463
305.477
305.49
305.505
305.52
305.536
305.552
305.57
305.588
305.608
305.628
305.65
305.674
305.699
305.726
305.754
305.785
305.817
305.852
305.889
305.929
305.971
306.016
306.064
306.115
306.17
306.228
306.289
306.355
306.424
306.498
306.575
306.657
306.744
306.835
306.93
307.03
307.134
307.242
307.354
307.469
307.586
307.706
307.828
307.95
308.072
308.193
308.315
308.438
308.565
308.704
308.868
309.073
309.345
309.636
308.398
307.803
307.225
306.778
306.428
306.148
305.918
305.726
305.565
305.429
305.313
305.215
305.131
305.06
304.999
304.949
304.907
304.872
304.844
304.822
304.805
304.792
304.784
304.779
304.777
304.778
304.781
304.785
304.791
304.799
304.807
304.815
304.824
304.833
304.842
304.85
304.858
304.866
304.872
304.878
304.884
304.888
304.892
304.895
304.897
304.898
304.898
304.898
304.897
304.896
304.894
304.892
304.889
304.886
304.883
304.879
304.876
304.872
304.868
304.865
304.861
304.858
304.854
304.851
304.848
304.846
304.843
304.841
304.84
304.839
304.838
304.838
304.838
304.838
304.839
304.841
304.843
304.845
304.848
304.851
304.854
304.858
304.863
304.867
304.873
304.878
304.884
304.89
304.896
304.903
304.91
304.917
304.925
304.932
304.94
304.948
304.957
304.965
304.974
304.983
304.991
305.001
305.01
305.019
305.028
305.038
305.047
305.057
305.067
305.077
305.086
305.096
305.106
305.116
305.126
305.137
305.147
305.157
305.167
305.178
305.188
305.198
305.209
305.219
305.23
305.24
305.251
305.261
305.272
305.282
305.293
305.303
305.314
305.325
305.335
305.346
305.357
305.368
305.379
305.391
305.402
305.414
305.426
305.438
305.45
305.463
305.477
305.49
305.505
305.52
305.536
305.552
305.57
305.588
305.608
305.628
305.65
305.674
305.699
305.726
305.754
305.785
305.817
305.852
305.889
305.929
305.971
306.016
306.064
306.115
306.17
306.228
306.289
306.355
306.424
306.498
306.575
306.657
306.744
306.835
306.93
307.03
307.134
307.242
307.354
307.469
307.586
307.706
307.828
307.95
308.072
308.193
308.315
308.438
308.565
308.704
308.868
309.073
309.345
309.636
306.319
305.939
305.57
305.261
305.002
304.783
304.599
304.442
304.31
304.197
304.102
304.021
303.953
303.896
303.848
303.81
303.779
303.755
303.737
303.725
303.717
303.713
303.713
303.716
303.722
303.731
303.741
303.753
303.765
303.779
303.794
303.808
303.823
303.837
303.852
303.865
303.878
303.89
303.902
303.912
303.921
303.93
303.937
303.943
303.948
303.952
303.955
303.957
303.958
303.959
303.958
303.957
303.955
303.953
303.95
303.947
303.944
303.94
303.936
303.932
303.927
303.923
303.919
303.914
303.91
303.906
303.902
303.898
303.895
303.892
303.889
303.886
303.884
303.882
303.881
303.879
303.879
303.878
303.878
303.878
303.879
303.88
303.882
303.883
303.886
303.888
303.891
303.894
303.898
303.902
303.906
303.91
303.915
303.92
303.926
303.932
303.938
303.944
303.95
303.957
303.964
303.972
303.979
303.987
303.995
304.003
304.012
304.02
304.029
304.038
304.048
304.057
304.067
304.077
304.087
304.097
304.108
304.118
304.129
304.14
304.151
304.162
304.174
304.185
304.197
304.209
304.221
304.232
304.245
304.257
304.269
304.281
304.294
304.306
304.319
304.332
304.345
304.358
304.371
304.384
304.398
304.412
304.426
304.44
304.455
304.47
304.486
304.502
304.518
304.536
304.554
304.573
304.592
304.613
304.635
304.658
304.682
304.707
304.734
304.763
304.794
304.826
304.861
304.897
304.936
304.978
305.022
305.069
305.118
305.171
305.227
305.287
305.35
305.416
305.487
305.562
305.64
305.723
305.81
305.902
305.997
306.097
306.2
306.307
306.418
306.531
306.647
306.763
306.881
306.998
307.115
307.229
307.341
307.451
307.559
307.669
307.785
307.908
308.041
308.171
306.319
305.939
305.57
305.261
305.002
304.783
304.599
304.442
304.31
304.197
304.102
304.021
303.953
303.896
303.848
303.81
303.779
303.755
303.737
303.725
303.717
303.713
303.713
303.716
303.722
303.731
303.741
303.753
303.765
303.779
303.794
303.808
303.823
303.837
303.852
303.865
303.878
303.89
303.902
303.912
303.921
303.93
303.937
303.943
303.948
303.952
303.955
303.957
303.958
303.959
303.958
303.957
303.955
303.953
303.95
303.947
303.944
303.94
303.936
303.932
303.927
303.923
303.919
303.914
303.91
303.906
303.902
303.898
303.895
303.892
303.889
303.886
303.884
303.882
303.881
303.879
303.879
303.878
303.878
303.878
303.879
303.88
303.882
303.883
303.886
303.888
303.891
303.894
303.898
303.902
303.906
303.911
303.915
303.92
303.926
303.932
303.938
303.944
303.95
303.957
303.964
303.972
303.979
303.987
303.995
304.003
304.012
304.02
304.029
304.038
304.048
304.057
304.067
304.077
304.087
304.097
304.108
304.118
304.129
304.14
304.151
304.162
304.174
304.185
304.197
304.209
304.221
304.232
304.245
304.257
304.269
304.281
304.294
304.306
304.319
304.332
304.345
304.358
304.371
304.384
304.398
304.412
304.426
304.44
304.455
304.47
304.486
304.502
304.518
304.536
304.554
304.573
304.592
304.613
304.635
304.658
304.682
304.707
304.734
304.763
304.794
304.826
304.861
304.897
304.936
304.978
305.022
305.069
305.118
305.171
305.227
305.287
305.35
305.416
305.487
305.562
305.64
305.723
305.81
305.902
305.997
306.097
306.2
306.307
306.418
306.531
306.647
306.763
306.881
306.998
307.115
307.229
307.341
307.451
307.559
307.669
307.785
307.908
308.041
308.171
304.939
304.721
304.498
304.291
304.104
303.937
303.792
303.666
303.556
303.463
303.383
303.316
303.259
303.212
303.173
303.143
303.119
303.101
303.089
303.082
303.08
303.081
303.085
303.093
303.103
303.115
303.129
303.144
303.161
303.178
303.195
303.213
303.23
303.248
303.265
303.281
303.297
303.311
303.325
303.338
303.349
303.36
303.369
303.377
303.384
303.389
303.394
303.397
303.4
303.402
303.402
303.402
303.401
303.4
303.397
303.395
303.392
303.388
303.384
303.38
303.376
303.371
303.366
303.362
303.357
303.352
303.348
303.344
303.339
303.335
303.332
303.328
303.325
303.322
303.319
303.317
303.315
303.314
303.312
303.312
303.311
303.311
303.311
303.312
303.313
303.314
303.315
303.317
303.32
303.322
303.325
303.329
303.332
303.337
303.341
303.345
303.35
303.356
303.361
303.367
303.373
303.38
303.387
303.394
303.401
303.409
303.416
303.425
303.433
303.442
303.451
303.46
303.469
303.479
303.489
303.499
303.509
303.52
303.531
303.542
303.553
303.564
303.576
303.587
303.599
303.611
303.623
303.636
303.648
303.661
303.673
303.686
303.699
303.712
303.726
303.739
303.752
303.766
303.78
303.794
303.808
303.823
303.838
303.853
303.869
303.885
303.901
303.918
303.936
303.954
303.973
303.992
304.013
304.035
304.057
304.081
304.106
304.133
304.161
304.191
304.222
304.255
304.291
304.328
304.368
304.411
304.455
304.503
304.554
304.607
304.664
304.724
304.788
304.855
304.926
305.001
305.079
305.162
305.249
305.34
305.435
305.533
305.636
305.741
305.849
305.96
306.072
306.185
306.299
306.411
306.522
306.629
306.733
306.832
306.926
307.014
307.095
307.168
307.223
307.251
304.938
304.721
304.498
304.291
304.104
303.937
303.792
303.665
303.556
303.463
303.383
303.315
303.259
303.212
303.173
303.143
303.119
303.101
303.089
303.082
303.079
303.081
303.085
303.093
303.103
303.115
303.129
303.144
303.16
303.178
303.195
303.213
303.23
303.248
303.265
303.281
303.297
303.311
303.325
303.338
303.349
303.36
303.369
303.377
303.384
303.389
303.394
303.397
303.4
303.402
303.402
303.402
303.401
303.4
303.397
303.395
303.392
303.388
303.384
303.38
303.376
303.371
303.366
303.362
303.357
303.352
303.348
303.344
303.339
303.335
303.332
303.328
303.325
303.322
303.319
303.317
303.315
303.314
303.312
303.312
303.311
303.311
303.311
303.312
303.313
303.314
303.315
303.317
303.32
303.322
303.325
303.329
303.333
303.337
303.341
303.345
303.35
303.356
303.361
303.367
303.373
303.38
303.387
303.394
303.401
303.409
303.416
303.425
303.433
303.442
303.451
303.46
303.469
303.479
303.489
303.499
303.509
303.52
303.531
303.542
303.553
303.564
303.576
303.587
303.599
303.611
303.623
303.636
303.648
303.661
303.673
303.686
303.699
303.712
303.726
303.739
303.752
303.766
303.78
303.794
303.808
303.823
303.838
303.853
303.869
303.885
303.901
303.918
303.936
303.954
303.973
303.992
304.013
304.035
304.057
304.081
304.106
304.133
304.161
304.191
304.222
304.255
304.291
304.328
304.368
304.411
304.455
304.503
304.554
304.607
304.664
304.724
304.788
304.855
304.926
305.001
305.079
305.162
305.249
305.34
305.435
305.533
305.636
305.741
305.849
305.96
306.072
306.185
306.299
306.411
306.522
306.629
306.733
306.832
306.926
307.014
307.095
307.168
307.223
307.251
303.971
303.841
303.702
303.562
303.428
303.303
303.19
303.089
303.001
302.924
302.858
302.802
302.755
302.716
302.685
302.661
302.643
302.63
302.623
302.62
302.621
302.625
302.633
302.644
302.656
302.671
302.688
302.705
302.724
302.743
302.762
302.782
302.802
302.821
302.84
302.858
302.875
302.891
302.907
302.921
302.934
302.946
302.956
302.966
302.974
302.981
302.986
302.991
302.994
302.997
302.998
302.999
302.999
302.998
302.996
302.994
302.991
302.988
302.984
302.98
302.976
302.972
302.967
302.962
302.957
302.953
302.948
302.943
302.939
302.934
302.93
302.926
302.923
302.919
302.916
302.913
302.911
302.909
302.907
302.905
302.904
302.903
302.903
302.902
302.903
302.903
302.904
302.905
302.907
302.909
302.911
302.914
302.917
302.921
302.924
302.928
302.933
302.937
302.942
302.948
302.953
302.959
302.965
302.972
302.979
302.986
302.994
303.001
303.009
303.018
303.026
303.035
303.044
303.054
303.063
303.073
303.083
303.094
303.104
303.115
303.126
303.137
303.149
303.16
303.172
303.184
303.196
303.209
303.221
303.234
303.246
303.259
303.272
303.285
303.299
303.312
303.326
303.34
303.354
303.368
303.383
303.398
303.413
303.428
303.444
303.461
303.477
303.495
303.513
303.531
303.551
303.571
303.592
303.614
303.637
303.662
303.688
303.715
303.743
303.774
303.806
303.84
303.876
303.914
303.954
303.997
304.042
304.091
304.142
304.196
304.253
304.313
304.377
304.445
304.516
304.591
304.669
304.752
304.838
304.928
305.022
305.119
305.22
305.323
305.429
305.537
305.646
305.755
305.864
305.972
306.077
306.178
306.274
306.365
306.447
306.52
306.582
306.629
306.651
306.643
303.971
303.841
303.702
303.562
303.428
303.303
303.19
303.089
303.001
302.924
302.858
302.802
302.755
302.716
302.685
302.661
302.643
302.63
302.623
302.62
302.621
302.625
302.633
302.644
302.656
302.671
302.687
302.705
302.724
302.743
302.762
302.782
302.802
302.821
302.84
302.858
302.875
302.891
302.907
302.921
302.934
302.946
302.956
302.966
302.974
302.981
302.986
302.991
302.994
302.997
302.998
302.999
302.999
302.998
302.996
302.994
302.991
302.988
302.984
302.98
302.976
302.972
302.967
302.962
302.957
302.953
302.948
302.943
302.939
302.934
302.93
302.926
302.923
302.919
302.916
302.913
302.911
302.909
302.907
302.905
302.904
302.903
302.903
302.902
302.903
302.903
302.904
302.905
302.907
302.909
302.911
302.914
302.917
302.921
302.924
302.928
302.933
302.937
302.942
302.948
302.953
302.959
302.965
302.972
302.979
302.986
302.994
303.001
303.009
303.018
303.026
303.035
303.044
303.054
303.063
303.073
303.083
303.094
303.104
303.115
303.126
303.137
303.149
303.16
303.172
303.184
303.196
303.209
303.221
303.234
303.246
303.259
303.272
303.285
303.299
303.312
303.326
303.34
303.354
303.368
303.383
303.398
303.413
303.428
303.444
303.461
303.477
303.495
303.513
303.531
303.551
303.571
303.592
303.614
303.637
303.662
303.687
303.715
303.743
303.774
303.806
303.84
303.876
303.914
303.954
303.997
304.042
304.091
304.142
304.196
304.253
304.313
304.377
304.445
304.516
304.591
304.669
304.752
304.838
304.928
305.022
305.119
305.22
305.323
305.429
305.537
305.646
305.755
305.864
305.972
306.077
306.178
306.274
306.365
306.447
306.52
306.582
306.629
306.651
306.643
303.247
303.163
303.072
302.977
302.88
302.787
302.7
302.621
302.55
302.488
302.434
302.388
302.35
302.319
302.294
302.275
302.262
302.254
302.25
302.251
302.255
302.262
302.273
302.285
302.3
302.317
302.335
302.355
302.375
302.395
302.417
302.438
302.459
302.479
302.499
302.518
302.537
302.554
302.571
302.586
302.6
302.613
302.625
302.635
302.644
302.652
302.659
302.664
302.669
302.672
302.674
302.675
302.676
302.675
302.674
302.672
302.67
302.667
302.664
302.66
302.656
302.652
302.647
302.642
302.638
302.633
302.628
302.623
302.619
302.614
302.61
302.606
302.602
302.598
302.594
302.591
302.588
302.586
302.583
302.582
302.58
302.579
302.578
302.577
302.577
302.577
302.578
302.579
302.58
302.581
302.583
302.585
302.588
302.591
302.594
302.598
302.602
302.606
302.611
302.616
302.621
302.627
302.632
302.639
302.645
302.652
302.659
302.667
302.674
302.682
302.691
302.699
302.708
302.717
302.727
302.736
302.746
302.756
302.767
302.777
302.788
302.799
302.81
302.822
302.833
302.845
302.857
302.869
302.881
302.894
302.906
302.919
302.932
302.945
302.958
302.972
302.986
302.999
303.014
303.028
303.043
303.057
303.073
303.088
303.104
303.121
303.138
303.155
303.174
303.193
303.212
303.233
303.254
303.277
303.3
303.325
303.351
303.379
303.408
303.438
303.471
303.505
303.542
303.58
303.621
303.665
303.711
303.759
303.811
303.865
303.923
303.983
304.048
304.115
304.186
304.261
304.339
304.421
304.507
304.596
304.689
304.785
304.883
304.985
305.088
305.193
305.299
305.405
305.51
305.613
305.713
305.808
305.899
305.982
306.056
306.12
306.171
306.205
306.218
306.203
303.247
303.163
303.072
302.977
302.88
302.787
302.7
302.621
302.55
302.488
302.434
302.388
302.35
302.319
302.294
302.275
302.262
302.254
302.25
302.251
302.255
302.262
302.273
302.285
302.3
302.317
302.335
302.355
302.375
302.395
302.417
302.438
302.459
302.479
302.499
302.518
302.537
302.554
302.571
302.586
302.6
302.613
302.625
302.635
302.644
302.652
302.659
302.664
302.669
302.672
302.674
302.675
302.676
302.675
302.674
302.672
302.67
302.667
302.664
302.66
302.656
302.652
302.647
302.642
302.638
302.633
302.628
302.623
302.619
302.614
302.61
302.606
302.602
302.598
302.594
302.591
302.588
302.586
302.583
302.582
302.58
302.579
302.578
302.577
302.577
302.577
302.578
302.579
302.58
302.581
302.583
302.585
302.588
302.591
302.594
302.598
302.602
302.606
302.611
302.616
302.621
302.627
302.632
302.639
302.645
302.652
302.659
302.667
302.674
302.682
302.691
302.699
302.708
302.717
302.727
302.736
302.746
302.756
302.767
302.777
302.788
302.799
302.81
302.822
302.833
302.845
302.857
302.869
302.881
302.894
302.906
302.919
302.932
302.945
302.958
302.972
302.986
302.999
303.014
303.028
303.043
303.057
303.073
303.088
303.104
303.121
303.138
303.155
303.174
303.193
303.212
303.233
303.254
303.277
303.3
303.325
303.351
303.379
303.408
303.438
303.471
303.505
303.542
303.58
303.621
303.665
303.711
303.759
303.811
303.865
303.923
303.983
304.048
304.115
304.186
304.261
304.339
304.421
304.507
304.596
304.689
304.785
304.883
304.985
305.088
305.193
305.299
305.405
305.51
305.613
305.713
305.808
305.899
305.982
306.056
306.12
306.171
306.205
306.218
306.203
302.674
302.617
302.555
302.488
302.418
302.349
302.283
302.221
302.166
302.116
302.073
302.036
302.006
301.982
301.963
301.949
301.94
301.936
301.936
301.939
301.946
301.956
301.968
301.983
301.999
302.018
302.037
302.058
302.079
302.101
302.124
302.146
302.168
302.189
302.21
302.23
302.25
302.268
302.286
302.302
302.317
302.33
302.343
302.354
302.364
302.373
302.38
302.386
302.391
302.395
302.398
302.4
302.401
302.401
302.4
302.399
302.397
302.394
302.391
302.388
302.384
302.38
302.375
302.371
302.366
302.361
302.356
302.352
302.347
302.342
302.338
302.333
302.329
302.325
302.322
302.318
302.315
302.313
302.31
302.308
302.306
302.304
302.303
302.302
302.302
302.302
302.302
302.302
302.303
302.305
302.306
302.308
302.31
302.313
302.316
302.319
302.323
302.327
302.331
302.336
302.341
302.346
302.352
302.358
302.364
302.371
302.378
302.385
302.392
302.4
302.408
302.417
302.425
302.434
302.443
302.452
302.462
302.472
302.482
302.492
302.503
302.514
302.525
302.536
302.547
302.559
302.57
302.582
302.594
302.606
302.619
302.631
302.644
302.657
302.67
302.684
302.697
302.711
302.725
302.739
302.754
302.769
302.784
302.8
302.816
302.832
302.85
302.867
302.886
302.905
302.925
302.945
302.967
302.99
303.014
303.039
303.065
303.093
303.122
303.154
303.187
303.221
303.258
303.297
303.339
303.383
303.429
303.478
303.53
303.585
303.642
303.703
303.768
303.835
303.907
303.981
304.059
304.141
304.226
304.314
304.405
304.5
304.597
304.696
304.797
304.899
305.002
305.104
305.206
305.305
305.4
305.491
305.576
305.654
305.723
305.781
305.826
305.856
305.869
305.858
302.674
302.616
302.555
302.488
302.418
302.349
302.283
302.221
302.166
302.116
302.073
302.036
302.006
301.982
301.963
301.949
301.94
301.936
301.936
301.939
301.946
301.956
301.968
301.983
301.999
302.018
302.037
302.058
302.079
302.101
302.124
302.146
302.168
302.189
302.21
302.23
302.25
302.268
302.286
302.302
302.317
302.33
302.343
302.354
302.364
302.372
302.38
302.386
302.391
302.395
302.398
302.4
302.401
302.401
302.4
302.399
302.397
302.394
302.391
302.388
302.384
302.38
302.375
302.371
302.366
302.361
302.356
302.352
302.347
302.342
302.338
302.333
302.329
302.325
302.322
302.318
302.315
302.313
302.31
302.308
302.306
302.304
302.303
302.302
302.302
302.302
302.302
302.302
302.303
302.305
302.306
302.308
302.31
302.313
302.316
302.319
302.323
302.327
302.331
302.336
302.341
302.346
302.352
302.358
302.364
302.371
302.378
302.385
302.392
302.4
302.408
302.417
302.425
302.434
302.443
302.452
302.462
302.472
302.482
302.492
302.503
302.514
302.525
302.536
302.547
302.559
302.57
302.582
302.594
302.606
302.619
302.631
302.644
302.657
302.67
302.684
302.697
302.711
302.725
302.739
302.754
302.769
302.784
302.8
302.816
302.832
302.85
302.867
302.886
302.905
302.925
302.945
302.967
302.99
303.014
303.039
303.065
303.093
303.122
303.154
303.187
303.221
303.258
303.297
303.339
303.383
303.429
303.478
303.53
303.585
303.642
303.703
303.768
303.835
303.907
303.981
304.059
304.141
304.226
304.314
304.405
304.5
304.597
304.696
304.797
304.899
305.002
305.104
305.206
305.305
305.4
305.491
305.576
305.654
305.723
305.781
305.826
305.856
305.869
305.858
302.202
302.161
302.118
302.07
302.02
301.969
301.919
301.871
301.828
301.79
301.756
301.728
301.704
301.686
301.672
301.663
301.658
301.657
301.66
301.666
301.675
301.687
301.701
301.718
301.736
301.756
301.776
301.798
301.82
301.843
301.866
301.889
301.912
301.934
301.956
301.977
301.997
302.016
302.034
302.051
302.066
302.081
302.094
302.106
302.116
302.125
302.133
302.14
302.146
302.15
302.153
302.156
302.157
302.158
302.158
302.157
302.155
302.153
302.15
302.147
302.143
302.139
302.135
302.131
302.126
302.121
302.117
302.112
302.107
302.102
302.098
302.094
302.089
302.085
302.082
302.078
302.075
302.072
302.069
302.067
302.065
302.063
302.062
302.061
302.06
302.06
302.06
302.06
302.061
302.062
302.063
302.065
302.067
302.069
302.072
302.075
302.079
302.083
302.087
302.091
302.096
302.101
302.107
302.112
302.118
302.125
302.131
302.138
302.146
302.153
302.161
302.169
302.177
302.186
302.195
302.204
302.213
302.223
302.233
302.243
302.253
302.263
302.274
302.285
302.296
302.307
302.319
302.331
302.342
302.354
302.367
302.379
302.392
302.404
302.417
302.43
302.444
302.458
302.471
302.486
302.5
302.515
302.53
302.546
302.562
302.579
302.596
302.614
302.632
302.651
302.671
302.692
302.714
302.737
302.761
302.787
302.813
302.842
302.872
302.903
302.936
302.972
303.009
303.049
303.09
303.135
303.181
303.231
303.283
303.338
303.396
303.458
303.522
303.59
303.661
303.735
303.813
303.894
303.978
304.066
304.156
304.249
304.344
304.442
304.54
304.64
304.74
304.839
304.937
305.032
305.124
305.212
305.293
305.367
305.432
305.487
305.53
305.559
305.573
305.57
302.201
302.161
302.118
302.07
302.02
301.969
301.919
301.871
301.828
301.79
301.756
301.728
301.704
301.686
301.672
301.663
301.658
301.657
301.66
301.666
301.675
301.687
301.701
301.718
301.736
301.756
301.776
301.798
301.82
301.843
301.866
301.889
301.912
301.934
301.956
301.977
301.997
302.016
302.034
302.051
302.066
302.081
302.094
302.106
302.116
302.125
302.133
302.14
302.146
302.15
302.153
302.156
302.157
302.158
302.158
302.157
302.155
302.153
302.15
302.147
302.143
302.139
302.135
302.131
302.126
302.121
302.117
302.112
302.107
302.102
302.098
302.094
302.089
302.085
302.082
302.078
302.075
302.072
302.069
302.067
302.065
302.063
302.062
302.061
302.06
302.06
302.06
302.06
302.061
302.062
302.063
302.065
302.067
302.069
302.072
302.075
302.079
302.083
302.087
302.091
302.096
302.101
302.107
302.112
302.118
302.125
302.131
302.138
302.146
302.153
302.161
302.169
302.177
302.186
302.195
302.204
302.213
302.223
302.233
302.243
302.253
302.263
302.274
302.285
302.296
302.307
302.319
302.331
302.342
302.354
302.367
302.379
302.392
302.404
302.417
302.43
302.444
302.458
302.471
302.486
302.5
302.515
302.53
302.546
302.562
302.579
302.596
302.614
302.632
302.651
302.671
302.692
302.714
302.737
302.761
302.787
302.813
302.842
302.872
302.903
302.936
302.972
303.009
303.049
303.09
303.135
303.181
303.231
303.283
303.338
303.396
303.458
303.522
303.59
303.661
303.735
303.813
303.894
303.978
304.066
304.156
304.249
304.344
304.442
304.54
304.64
304.74
304.839
304.937
305.032
305.124
305.212
305.293
305.367
305.432
305.487
305.53
305.559
305.573
305.57
301.801
301.772
301.741
301.707
301.671
301.633
301.596
301.56
301.527
301.498
301.473
301.451
301.434
301.421
301.412
301.407
301.406
301.408
301.413
301.422
301.433
301.447
301.463
301.48
301.5
301.52
301.542
301.564
301.588
301.611
301.635
301.658
301.681
301.704
301.726
301.748
301.768
301.788
301.806
301.824
301.84
301.855
301.868
301.881
301.892
301.901
301.91
301.917
301.923
301.928
301.932
301.935
301.937
301.938
301.938
301.937
301.936
301.934
301.931
301.928
301.925
301.921
301.917
301.913
301.908
301.904
301.899
301.895
301.89
301.885
301.881
301.877
301.872
301.868
301.864
301.861
301.858
301.855
301.852
301.849
301.847
301.845
301.844
301.843
301.842
301.841
301.841
301.841
301.842
301.843
301.844
301.845
301.847
301.85
301.852
301.855
301.859
301.862
301.866
301.871
301.875
301.88
301.885
301.891
301.897
301.903
301.91
301.916
301.923
301.931
301.938
301.946
301.954
301.963
301.971
301.98
301.989
301.999
302.008
302.018
302.028
302.038
302.049
302.06
302.07
302.081
302.093
302.104
302.116
302.127
302.139
302.151
302.164
302.176
302.189
302.202
302.215
302.229
302.243
302.257
302.271
302.286
302.301
302.317
302.333
302.35
302.367
302.385
302.403
302.423
302.443
302.464
302.486
302.509
302.534
302.56
302.587
302.615
302.645
302.677
302.711
302.747
302.785
302.825
302.867
302.912
302.959
303.009
303.061
303.117
303.175
303.237
303.302
303.369
303.44
303.515
303.592
303.673
303.756
303.843
303.932
304.024
304.117
304.213
304.309
304.407
304.504
304.6
304.695
304.788
304.876
304.961
305.039
305.11
305.173
305.226
305.269
305.299
305.317
305.322
301.801
301.772
301.741
301.707
301.671
301.633
301.596
301.56
301.527
301.498
301.473
301.451
301.434
301.421
301.412
301.407
301.406
301.408
301.413
301.422
301.433
301.447
301.462
301.48
301.5
301.52
301.542
301.564
301.588
301.611
301.635
301.658
301.681
301.704
301.726
301.748
301.768
301.788
301.806
301.824
301.84
301.855
301.868
301.881
301.892
301.901
301.91
301.917
301.923
301.928
301.932
301.935
301.937
301.938
301.938
301.937
301.936
301.934
301.931
301.928
301.925
301.921
301.917
301.913
301.908
301.904
301.899
301.895
301.89
301.885
301.881
301.877
301.872
301.868
301.864
301.861
301.858
301.855
301.852
301.849
301.847
301.845
301.844
301.843
301.842
301.841
301.841
301.841
301.842
301.843
301.844
301.845
301.847
301.85
301.852
301.855
301.859
301.862
301.866
301.871
301.875
301.88
301.885
301.891
301.897
301.903
301.91
301.916
301.923
301.931
301.938
301.946
301.954
301.963
301.971
301.98
301.989
301.999
302.008
302.018
302.028
302.038
302.049
302.06
302.07
302.081
302.093
302.104
302.116
302.127
302.139
302.151
302.164
302.176
302.189
302.202
302.215
302.229
302.243
302.257
302.271
302.286
302.301
302.317
302.333
302.35
302.367
302.385
302.403
302.423
302.443
302.464
302.486
302.509
302.534
302.56
302.587
302.615
302.645
302.677
302.711
302.747
302.785
302.825
302.867
302.912
302.959
303.009
303.061
303.117
303.175
303.237
303.302
303.369
303.44
303.515
303.592
303.673
303.756
303.843
303.932
304.024
304.117
304.213
304.309
304.407
304.504
304.6
304.695
304.788
304.876
304.961
305.039
305.11
305.173
305.226
305.269
305.299
305.317
305.322
301.455
301.433
301.412
301.388
301.361
301.334
301.307
301.28
301.256
301.235
301.216
301.201
301.189
301.181
301.176
301.174
301.176
301.181
301.189
301.2
301.213
301.228
301.245
301.264
301.284
301.305
301.328
301.351
301.375
301.399
301.423
301.447
301.47
301.494
301.516
301.538
301.559
301.579
301.597
301.615
301.632
301.647
301.661
301.673
301.685
301.695
301.704
301.711
301.718
301.723
301.727
301.731
301.733
301.734
301.735
301.734
301.733
301.732
301.729
301.727
301.724
301.72
301.716
301.712
301.708
301.703
301.699
301.694
301.69
301.685
301.681
301.676
301.672
301.668
301.664
301.661
301.657
301.654
301.651
301.649
301.647
301.645
301.643
301.642
301.641
301.64
301.64
301.64
301.641
301.641
301.642
301.644
301.646
301.648
301.65
301.653
301.656
301.66
301.664
301.668
301.673
301.677
301.683
301.688
301.694
301.7
301.706
301.713
301.72
301.727
301.734