/*--------------------------------*- C++ -*----------------------------------*\
  =========                 |
  \\      /  F ield         | OpenFOAM: The Open Source CFD Toolbox
   \\    /   O peration     | Website:  https://openfoam.org
    \\  /    A nd           | Version:  8
     \\/     M anipulation  |
\*---------------------------------------------------------------------------*/
FoamFile
{
    version     2.0;
    format      ascii;
    class       volVectorField;
    location    "1800";
    object      U;
}
// * * * * * * * * * * * * * * * * * * * * * * * * * * * * * * * * * * * * * //

dimensions      [0 1 -1 0 0 0 0];

internalField   nonuniform List<vector> 
46000
(
(3.89104e-05 1.42378e-06 -4.11298e-05)
(-0.000430293 1.20694e-06 0.000293262)
(-0.00152113 1.073e-06 0.000608539)
(-0.00274121 8.73039e-07 0.000683505)
(-0.00382673 5.92617e-07 0.00060726)
(-0.00466703 1.67247e-07 0.000470921)
(-0.00524153 -3.12542e-07 0.000321882)
(-0.0055695 -7.34965e-07 0.000184227)
(-0.00568974 -1.03174e-06 6.94535e-05)
(-0.00564929 -1.18136e-06 -1.78146e-05)
(-0.00549819 -1.20192e-06 -7.68423e-05)
(-0.00528457 -1.13393e-06 -0.000108842)
(-0.00505228 -1.02053e-06 -0.000115478)
(-0.00484057 -8.97349e-07 -9.86093e-05)
(-0.00468492 -7.9756e-07 -6.05973e-05)
(-0.00461733 -7.42589e-07 -4.25961e-06)
(-0.00466527 -7.28511e-07 6.76342e-05)
(-0.00485188 -7.3037e-07 0.000152787)
(-0.00519583 -7.17291e-07 0.000249224)
(-0.00571235 -6.66032e-07 0.00035494)
(-0.00641344 -5.65541e-07 0.000467792)
(-0.00730761 -4.16285e-07 0.000585694)
(-0.00839981 -2.32326e-07 0.000706744)
(-0.00969181 -4.18682e-08 0.000829101)
(-0.0111828 1.18224e-07 0.000950787)
(-0.0128696 2.18142e-07 0.00106973)
(-0.0147465 2.47553e-07 0.001184)
(-0.016805 2.16572e-07 0.00129201)
(-0.0190343 1.47999e-07 0.00139249)
(-0.0214216 6.72389e-08 0.00148437)
(-0.0239522 -4.64796e-09 0.00156675)
(-0.0266097 -5.35921e-08 0.00163901)
(-0.0293768 -6.92808e-08 0.00170086)
(-0.0322351 -4.40739e-08 0.00175218)
(-0.0351668 2.01612e-08 0.00179269)
(-0.0381541 1.10146e-07 0.00182188)
(-0.0411794 2.12408e-07 0.0018393)
(-0.0442246 3.09885e-07 0.00184491)
(-0.047271 3.73917e-07 0.00183906)
(-0.0503 3.94649e-07 0.00182231)
(-0.0532946 3.95438e-07 0.00179533)
(-0.0562385 3.82564e-07 0.00175866)
(-0.0591165 3.41494e-07 0.00171259)
(-0.0619138 2.89162e-07 0.00165749)
(-0.0646166 2.43353e-07 0.00159448)
(-0.0672116 1.83805e-07 0.00152491)
(-0.0696872 1.18239e-07 0.00144947)
(-0.0720339 7.60101e-08 0.00136855)
(-0.0742441 4.00426e-08 0.0012829)
(-0.0763108 -4.13355e-09 0.00119344)
(-0.0782276 -3.71815e-08 0.00110084)
(-0.0799887 -5.09458e-08 0.00100571)
(-0.0815903 -7.6509e-08 0.000908951)
(-0.0830308 -1.32886e-07 0.000811648)
(-0.0843092 -1.46949e-07 0.000714254)
(-0.0854244 -9.75199e-08 0.00061658)
(-0.0863769 -9.75702e-08 0.000518935)
(-0.087168 -1.46913e-07 0.000422251)
(-0.0877984 -1.41211e-07 0.000327232)
(-0.0882702 -1.28827e-07 0.000234365)
(-0.0885867 -1.78375e-07 0.000144016)
(-0.0887515 -2.0561e-07 5.59913e-05)
(-0.0887689 -1.79864e-07 -2.98293e-05)
(-0.0886438 -1.82915e-07 -0.000112812)
(-0.0883795 -2.08577e-07 -0.000192413)
(-0.0879803 -2.01788e-07 -0.00026885)
(-0.0874517 -1.93128e-07 -0.000342204)
(-0.0868 -2.01718e-07 -0.000412061)
(-0.0860306 -1.85116e-07 -0.000478512)
(-0.0851489 -1.54529e-07 -0.000542051)
(-0.0841605 -1.58998e-07 -0.00060243)
(-0.0830706 -1.78483e-07 -0.000658975)
(-0.0818833 -1.72187e-07 -0.000711739)
(-0.0806045 -1.60018e-07 -0.000761216)
(-0.0792407 -1.63342e-07 -0.000807418)
(-0.0777979 -1.56802e-07 -0.000850188)
(-0.0762814 -1.30546e-07 -0.000889877)
(-0.0746963 -1.14746e-07 -0.000926931)
(-0.0730476 -1.22169e-07 -0.000961276)
(-0.0713393 -1.34188e-07 -0.000992637)
(-0.0695759 -1.4107e-07 -0.00102107)
(-0.0677617 -1.45036e-07 -0.00104688)
(-0.0659009 -1.37473e-07 -0.00107027)
(-0.0639975 -1.11691e-07 -0.00109135)
(-0.0620551 -8.06554e-08 -0.00111027)
(-0.0600772 -5.78958e-08 -0.00112711)
(-0.058067 -4.25342e-08 -0.00114182)
(-0.056028 -3.72089e-08 -0.00115432)
(-0.0539646 -5.39959e-08 -0.0011646)
(-0.0518804 -8.7861e-08 -0.00117291)
(-0.0497784 -1.1342e-07 -0.00117986)
(-0.0476613 -1.24302e-07 -0.00118593)
(-0.0455321 -1.49277e-07 -0.00119097)
(-0.0433932 -2.12435e-07 -0.00119438)
(-0.0412457 -3.01157e-07 -0.00119596)
(-0.039091 -3.88934e-07 -0.00119624)
(-0.0369316 -4.66811e-07 -0.00119572)
(-0.0347712 -5.33858e-07 -0.00119421)
(-0.0326117 -5.78322e-07 -0.00119136)
(-0.030454 -5.9441e-07 -0.00118757)
(-0.0282994 -6.05857e-07 -0.00118391)
(-0.0261498 -6.46576e-07 -0.00118076)
(-0.024007 -7.18445e-07 -0.00117728)
(-0.0218717 -7.87261e-07 -0.00117238)
(-0.0197441 -8.22668e-07 -0.00116607)
(-0.0176253 -8.25205e-07 -0.00115927)
(-0.0155173 -8.08596e-07 -0.00115269)
(-0.0134215 -7.72593e-07 -0.00114619)
(-0.0113372 -7.07293e-07 -0.00113942)
(-0.00926488 -6.15943e-07 -0.00113177)
(-0.00720439 -5.16411e-07 -0.00112477)
(-0.00515748 -4.19319e-07 -0.00111877)
(-0.00312376 -3.20596e-07 -0.00111196)
(-0.00110708 -2.21104e-07 -0.00110439)
(0.000897671 -1.41337e-07 -0.00109445)
(0.00287952 -1.07702e-07 -0.00108267)
(0.00484382 -1.24502e-07 -0.00107127)
(0.00678926 -1.72707e-07 -0.00105996)
(0.00871703 -2.26069e-07 -0.00104837)
(0.0106271 -2.70723e-07 -0.00103658)
(0.0125183 -3.05051e-07 -0.00102491)
(0.0143894 -3.26426e-07 -0.00101343)
(0.0162402 -3.3102e-07 -0.00100201)
(0.0180709 -3.22447e-07 -0.000990643)
(0.019882 -3.15195e-07 -0.000979572)
(0.0216733 -3.247e-07 -0.000968955)
(0.0234446 -3.52665e-07 -0.000958566)
(0.0251967 -3.84441e-07 -0.000947959)
(0.0269308 -4.02907e-07 -0.000936989)
(0.0286471 -4.03507e-07 -0.000926078)
(0.030345 -3.92788e-07 -0.000915857)
(0.0320232 -3.74433e-07 -0.000906555)
(0.0336812 -3.41918e-07 -0.000897815)
(0.0353202 -2.87184e-07 -0.0008891)
(0.0369419 -2.13814e-07 -0.000880222)
(0.0385477 -1.39248e-07 -0.000871411)
(0.0401384 -8.2895e-08 -0.000862938)
(0.0417142 -5.21032e-08 -0.000854786)
(0.043275 -3.9307e-08 -0.000846747)
(0.0448208 -3.14684e-08 -0.000838803)
(0.0463509 -2.25913e-08 -0.00083128)
(0.0478648 -1.80683e-08 -0.000824535)
(0.0493626 -2.8818e-08 -0.000818487)
(0.0508457 -6.07444e-08 -0.000812483)
(0.0523156 -1.08536e-07 -0.000805691)
(0.0537735 -1.57759e-07 -0.000797671)
(0.0552181 -1.9362e-07 -0.000788609)
(0.0566466 -2.08984e-07 -0.000778994)
(0.0580557 -2.0703e-07 -0.000769037)
(0.0594428 -1.97712e-07 -0.000758331)
(0.0608063 -1.92221e-07 -0.000746001)
(0.0621445 -1.99461e-07 -0.000731168)
(0.0634543 -2.24965e-07 -0.000713354)
(0.0647307 -2.69296e-07 -0.000692538)
(0.0659668 -3.25483e-07 -0.000668889)
(0.0671555 -3.78365e-07 -0.000642412)
(0.0682904 -4.10165e-07 -0.000612721)
(0.0693657 -4.09917e-07 -0.000579015)
(0.0703755 -3.79726e-07 -0.000540236)
(0.0713121 -3.31106e-07 -0.000495345)
(0.0721657 -2.74553e-07 -0.000443601)
(0.0729238 -2.13839e-07 -0.000384715)
(0.0735728 -1.50753e-07 -0.000318741)
(0.0740985 -9.39994e-08 -0.000245749)
(0.0744876 -5.99664e-08 -0.000165539)
(0.0747272 -6.38187e-08 -7.7691e-05)
(0.074802 -1.03458e-07 1.82359e-05)
(0.0747009 -1.68408e-07 0.000123057)
(0.0744023 -2.47309e-07 0.000237237)
(0.0738906 -3.25072e-07 0.000360568)
(0.0731492 -3.90794e-07 0.000493278)
(0.0721628 -4.37009e-07 0.000635954)
(0.0709146 -4.63768e-07 0.000788581)
(0.0693865 -4.81344e-07 0.000949883)
(0.067561 -5.04229e-07 0.00111781)
(0.0654242 -5.39662e-07 0.0012908)
(0.0629664 -5.83722e-07 0.00146826)
(0.0601811 -6.33193e-07 0.00164956)
(0.057062 -6.99319e-07 0.00183253)
(0.0536044 -8.02795e-07 0.00201346)
(0.0498086 -9.43992e-07 0.00218861)
(0.0456825 -1.08546e-06 0.00235527)
(0.041241 -1.1826e-06 0.00251053)
(0.0365045 -1.23604e-06 0.00264921)
(0.0315003 -1.28089e-06 0.00276412)
(0.0262683 -1.30896e-06 0.00284822)
(0.0208632 -1.25636e-06 0.00289505)
(0.0153552 -1.11195e-06 0.00289605)
(0.00982651 -9.63857e-07 0.0028388)
(0.00439939 -8.56413e-07 0.00270756)
(-0.000824196 -7.10621e-07 0.00246933)
(-0.00561303 -5.20663e-07 0.00209966)
(-0.00976277 -4.06253e-07 0.00159002)
(-0.0130051 -3.28638e-07 0.000927987)
(-0.0150117 -2.13835e-07 9.43946e-05)
(-0.0154272 -2.67531e-07 -0.00089014)
(-0.0139285 -3.98929e-07 -0.00188957)
(-0.010442 -2.27983e-07 -0.00256086)
(-0.00550292 -1.87039e-07 -0.00227718)
(-0.00107934 1.37811e-07 -0.00113225)
(3.9562e-05 1.42383e-06 -4.37184e-05)
(-0.000429214 1.20691e-06 0.000288187)
(-0.00152197 1.07294e-06 0.00060435)
(-0.00274338 8.73004e-07 0.000681379)
(-0.00382902 5.92597e-07 0.000606646)
(-0.00466976 1.67241e-07 0.000471064)
(-0.00524452 -3.12533e-07 0.000322555)
(-0.00557189 -7.3495e-07 0.00018548)
(-0.00569087 -1.03173e-06 7.1046e-05)
(-0.00564932 -1.18136e-06 -1.65115e-05)
(-0.00549767 -1.20192e-06 -7.63863e-05)
(-0.00528385 -1.13392e-06 -0.00010925)
(-0.00505144 -1.02052e-06 -0.000116257)
(-0.00483994 -8.97337e-07 -9.91095e-05)
(-0.00468512 -7.9755e-07 -6.02384e-05)
(-0.00461874 -7.42583e-07 -2.53452e-06)
(-0.00466749 -7.28499e-07 7.10931e-05)
(-0.00485389 -7.30365e-07 0.000157915)
(-0.00519657 -7.17295e-07 0.000255252)
(-0.00571121 -6.66041e-07 0.000360497)
(-0.00641029 -5.6555e-07 0.000471392)
(-0.0073027 -4.1629e-07 0.000586272)
(-0.00839374 -2.32327e-07 0.000703949)
(-0.00968559 -4.18678e-08 0.000823315)
(-0.0111777 1.18221e-07 0.000943027)
(-0.0128665 2.18134e-07 0.00106146)
(-0.0147457 2.47541e-07 0.00117681)
(-0.0168063 2.16562e-07 0.0012872)
(-0.0190369 1.47992e-07 0.0013907)
(-0.0214245 6.72367e-08 0.00148548)
(-0.0239546 -4.64786e-09 0.00157009)
(-0.0266108 -5.35915e-08 0.00164366)
(-0.029376 -6.92807e-08 0.00170584)
(-0.0322326 -4.4074e-08 0.00175657)
(-0.0351631 2.01611e-08 0.00179571)
(-0.0381503 1.10145e-07 0.00182301)
(-0.0411761 2.12405e-07 0.00183849)
(-0.044222 3.09878e-07 0.00184258)
(-0.0472689 3.73907e-07 0.00183585)
(-0.0502983 3.94638e-07 0.00181874)
(-0.0532932 3.95426e-07 0.00179177)
(-0.056238 3.82552e-07 0.0017554)
(-0.0591168 3.41483e-07 0.00170979)
(-0.0619144 2.89153e-07 0.00165538)
(-0.064617 2.43347e-07 0.00159334)
(-0.0672117 1.83801e-07 0.00152481)
(-0.0696869 1.18237e-07 0.00145024)
(-0.0720335 7.60086e-08 0.00137)
(-0.0742439 4.00419e-08 0.00128481)
(-0.0763107 -4.13348e-09 0.00119554)
(-0.0782271 -3.71809e-08 0.00110302)
(-0.0799879 -5.09451e-08 0.00100816)
(-0.0815894 -7.6508e-08 0.000911806)
(-0.0830296 -1.32884e-07 0.000814445)
(-0.0843076 -1.46948e-07 0.000716359)
(-0.0854232 -9.75183e-08 0.00061813)
(-0.0863764 -9.75684e-08 0.000520436)
(-0.0871671 -1.46911e-07 0.000423666)
(-0.0877968 -1.4121e-07 0.000328303)
(-0.0882686 -1.28825e-07 0.000235078)
(-0.0885854 -1.78372e-07 0.00014425)
(-0.0887503 -2.05607e-07 5.55781e-05)
(-0.0887679 -1.7986e-07 -3.06908e-05)
(-0.0886431 -1.8291e-07 -0.000113917)
(-0.0883786 -2.08572e-07 -0.000193918)
(-0.0879787 -2.01783e-07 -0.000270862)
(-0.08745 -1.93122e-07 -0.000344634)
(-0.0867986 -2.01712e-07 -0.000414989)
(-0.0860295 -1.85109e-07 -0.000482021)
(-0.0851481 -1.54523e-07 -0.000545848)
(-0.0841599 -1.58993e-07 -0.000606257)
(-0.0830694 -1.78477e-07 -0.000663072)
(-0.0818816 -1.72181e-07 -0.000716405)
(-0.0806029 -1.60012e-07 -0.000766304)
(-0.0792395 -1.63335e-07 -0.000812678)
(-0.0777969 -1.56795e-07 -0.000855704)
(-0.0762805 -1.3054e-07 -0.000895811)
(-0.0746955 -1.1474e-07 -0.000933128)
(-0.0730466 -1.22164e-07 -0.000967378)
(-0.0713383 -1.34182e-07 -0.000998405)
(-0.069575 -1.41064e-07 -0.00102647)
(-0.067761 -1.45029e-07 -0.00105196)
(-0.0659003 -1.37467e-07 -0.00107503)
(-0.0639969 -1.11686e-07 -0.00109569)
(-0.0620545 -8.06525e-08 -0.00111395)
(-0.0600766 -5.7894e-08 -0.00112984)
(-0.0580664 -4.25331e-08 -0.00114338)
(-0.0560278 -3.72082e-08 -0.00115465)
(-0.0539649 -5.39951e-08 -0.00116398)
(-0.0518813 -8.78599e-08 -0.00117182)
(-0.0497799 -1.13419e-07 -0.00117845)
(-0.0476634 -1.24301e-07 -0.00118372)
(-0.0455347 -1.49277e-07 -0.00118723)
(-0.0433955 -2.12439e-07 -0.00118881)
(-0.0412465 -3.01169e-07 -0.00118886)
(-0.0390899 -3.88955e-07 -0.00118799)
(-0.0369296 -4.6684e-07 -0.00118655)
(-0.0347692 -5.33891e-07 -0.00118448)
(-0.0326104 -5.78356e-07 -0.00118178)
(-0.0304536 -5.94441e-07 -0.00117874)
(-0.0282996 -6.05887e-07 -0.0011757)
(-0.0261503 -6.4661e-07 -0.00117259)
(-0.0240072 -7.18486e-07 -0.00116896)
(-0.0218711 -7.87308e-07 -0.00116455)
(-0.0197426 -8.22713e-07 -0.00115956)
(-0.0176233 -8.25242e-07 -0.0011544)
(-0.0155152 -8.08624e-07 -0.00114927)
(-0.0134191 -7.72613e-07 -0.00114416)
(-0.0113342 -7.07306e-07 -0.00113906)
(-0.00926108 -6.15946e-07 -0.00113334)
(-0.00719979 -5.16407e-07 -0.00112819)
(-0.00515236 -4.1931e-07 -0.00112385)
(-0.00311859 -3.20584e-07 -0.00111868)
(-0.00110252 -2.2109e-07 -0.00111279)
(0.000900935 -1.41325e-07 -0.00110412)
(0.00288115 -1.07692e-07 -0.00109267)
(0.00484398 -1.24491e-07 -0.0010807)
(0.0067883 -1.72695e-07 -0.00106852)
(0.00871521 -2.26055e-07 -0.00105622)
(0.0106246 -2.7071e-07 -0.00104374)
(0.0125158 -3.05041e-07 -0.00103091)
(0.0143876 -3.26419e-07 -0.00101767)
(0.0162395 -3.31017e-07 -0.00100426)
(0.0180713 -3.22446e-07 -0.000991237)
(0.0198826 -3.15195e-07 -0.000979024)
(0.0216734 -3.24702e-07 -0.000967629)
(0.0234441 -3.52669e-07 -0.000956685)
(0.0251961 -3.84448e-07 -0.000945848)
(0.0269305 -4.02914e-07 -0.000935134)
(0.0286473 -4.03511e-07 -0.00092486)
(0.0303453 -3.9279e-07 -0.000915269)
(0.0320234 -3.74436e-07 -0.000906261)
(0.0336815 -3.41921e-07 -0.00089749)
(0.0353209 -2.87186e-07 -0.000888689)
(0.0369433 -2.13815e-07 -0.000879865)
(0.0385498 -1.39248e-07 -0.000871222)
(0.0401409 -8.28945e-08 -0.000862955)
(0.0417165 -5.21026e-08 -0.000855154)
(0.0432767 -3.93064e-08 -0.000847852)
(0.0448214 -3.14678e-08 -0.000841076)
(0.0463503 -2.25908e-08 -0.000834764)
(0.0478635 -1.8068e-08 -0.000828652)
(0.0493615 -2.88177e-08 -0.000822296)
(0.0508455 -6.07439e-08 -0.000815294)
(0.0523167 -1.08535e-07 -0.000807525)
(0.053775 -1.57757e-07 -0.000799181)
(0.0552191 -1.93617e-07 -0.00079052)
(0.0566466 -2.08981e-07 -0.000781537)
(0.0580548 -2.07028e-07 -0.000771813)
(0.0594418 -1.97711e-07 -0.000760663)
(0.0608062 -1.92221e-07 -0.000747455)
(0.0621455 -1.99461e-07 -0.00073184)
(0.0634559 -2.24965e-07 -0.000713758)
(0.0647318 -2.69294e-07 -0.000693245)
(0.0659666 -3.2548e-07 -0.000670192)
(0.0671541 -3.78363e-07 -0.00064421)
(0.0682885 -4.10166e-07 -0.000614613)
(0.0693644 -4.0992e-07 -0.000580517)
(0.0703757 -3.79729e-07 -0.000541007)
(0.0713139 -3.31107e-07 -0.000495354)
(0.0721683 -2.74552e-07 -0.000443163)
(0.0729263 -2.13838e-07 -0.000384352)
(0.0735741 -1.50752e-07 -0.000318892)
(0.0740988 -9.3999e-08 -0.000246505)
(0.0744874 -5.99662e-08 -0.000166622)
(0.0747271 -6.38185e-08 -7.87364e-05)
(0.074802 -1.03458e-07 1.73298e-05)
(0.0747005 -1.68408e-07 0.000122071)
(0.0744011 -2.4731e-07 0.000235966)
(0.0738889 -3.25075e-07 0.000359209)
(0.0731483 -3.90798e-07 0.000492397)
(0.0721632 -4.37012e-07 0.000635978)
(0.0709158 -4.63769e-07 0.000789361)
(0.0693871 -4.81344e-07 0.000950947)
(0.0675602 -5.04232e-07 0.00111915)
(0.0654226 -5.39671e-07 0.00129325)
(0.0629655 -5.83733e-07 0.00147291)
(0.0601811 -6.33205e-07 0.00165668)
(0.0570618 -6.99331e-07 0.00184142)
(0.0536029 -8.02814e-07 0.00202337)
(0.0498063 -9.44024e-07 0.00219962)
(0.045681 -1.0855e-06 0.00236761)
(0.0412408 -1.18264e-06 0.00252321)
(0.0365042 -1.23608e-06 0.00266025)
(0.0314995 -1.28092e-06 0.0027724)
(0.0262682 -1.309e-06 0.00285431)
(0.0208653 -1.25639e-06 0.00289961)
(0.0153588 -1.11195e-06 0.00289847)
(0.00982983 -9.6385e-07 0.00283858)
(0.00440224 -8.56407e-07 0.00270589)
(-0.000821024 -7.10625e-07 0.00246775)
(-0.00561009 -5.20668e-07 0.00209838)
(-0.00976096 -4.06253e-07 0.00158905)
(-0.0130044 -3.28636e-07 0.000927194)
(-0.0150121 -2.13832e-07 9.27903e-05)
(-0.0154279 -2.67527e-07 -0.000891388)
(-0.013928 -3.98936e-07 -0.0018889)
(-0.0104418 -2.27978e-07 -0.00256168)
(-0.00550424 -1.87034e-07 -0.00227827)
(-0.00107991 1.3781e-07 -0.00113251)
(-0.000283257 -3.89086e-07 0.000453063)
(-0.00142051 -5.58746e-07 0.00146799)
(-0.00258972 -2.6059e-07 0.00188653)
(-0.0035533 -1.92732e-07 0.00178811)
(-0.00426826 -2.24564e-07 0.0014412)
(-0.0047287 -3.11213e-07 0.00101856)
(-0.00495752 -3.93337e-07 0.000608913)
(-0.00498812 -4.43565e-07 0.00025478)
(-0.00486143 -4.63237e-07 -2.58413e-05)
(-0.00462216 -4.59758e-07 -0.000227636)
(-0.00431506 -4.40538e-07 -0.000351967)
(-0.00398273 -4.08898e-07 -0.000403521)
(-0.00366456 -3.68341e-07 -0.00038826)
(-0.00339666 -3.24783e-07 -0.000312661)
(-0.00321198 -2.83655e-07 -0.00018349)
(-0.00314 -2.47682e-07 -7.60566e-06)
(-0.00320608 -2.17134e-07 0.000208345)
(-0.00343177 -1.93757e-07 0.000458097)
(-0.0038349 -1.80383e-07 0.000735626)
(-0.00442996 -1.75425e-07 0.00103503)
(-0.00522812 -1.71082e-07 0.00135054)
(-0.00623709 -1.57183e-07 0.00167663)
(-0.00746122 -1.27199e-07 0.00200809)
(-0.00890182 -8.08753e-08 0.00234001)
(-0.0105574 -2.30726e-08 0.0026677)
(-0.0124238 3.92374e-08 0.00298679)
(-0.0144941 9.88143e-08 0.00329324)
(-0.0167588 1.48744e-07 0.00358346)
(-0.019206 1.83196e-07 0.00385424)
(-0.0218222 1.9971e-07 0.00410272)
(-0.0245917 2.00647e-07 0.00432643)
(-0.0274975 1.91738e-07 0.00452331)
(-0.0305214 1.80404e-07 0.0046918)
(-0.0336447 1.75364e-07 0.00483068)
(-0.0368482 1.82496e-07 0.00493907)
(-0.0401128 2.00329e-07 0.00501636)
(-0.043419 2.25902e-07 0.00506233)
(-0.0467472 2.57802e-07 0.00507727)
(-0.0500774 2.8498e-07 0.00506199)
(-0.0533905 2.93433e-07 0.00501761)
(-0.0566681 2.8839e-07 0.00494543)
(-0.0598929 2.80809e-07 0.00484681)
(-0.0630484 2.64891e-07 0.00472337)
(-0.0661187 2.38329e-07 0.00457685)
(-0.0690889 2.09875e-07 0.00440911)
(-0.0719454 1.77741e-07 0.00422225)
(-0.0746762 1.44649e-07 0.00401841)
(-0.0772707 1.23033e-07 0.00379947)
(-0.0797196 1.07083e-07 0.0035673)
(-0.082015 8.53489e-08 0.00332394)
(-0.0841499 6.2069e-08 0.0030714)
(-0.0861183 5.52875e-08 0.00281165)
(-0.0879154 6.83215e-08 0.00254676)
(-0.0895385 6.50915e-08 0.00227841)
(-0.090986 4.10857e-08 0.00200789)
(-0.0922567 4.51707e-08 0.00173677)
(-0.0933498 7.35907e-08 0.00146657)
(-0.094266 7.95712e-08 0.00119845)
(-0.0950062 7.27742e-08 0.000933646)
(-0.0955723 7.86114e-08 0.000673395)
(-0.0959673 8.06225e-08 0.000418441)
(-0.0961943 7.71466e-08 0.000169555)
(-0.0962568 8.95588e-08 -7.24231e-05)
(-0.0961583 1.0751e-07 -0.00030736)
(-0.0959038 1.13134e-07 -0.000535053)
(-0.095498 1.19119e-07 -0.000754615)
(-0.0949462 1.29032e-07 -0.000965551)
(-0.0942539 1.24424e-07 -0.00116802)
(-0.0934268 1.15204e-07 -0.00136192)
(-0.0924702 1.31311e-07 -0.00154672)
(-0.0913894 1.61616e-07 -0.00172243)
(-0.0901897 1.68451e-07 -0.00188945)
(-0.0888765 1.54144e-07 -0.00204768)
(-0.0874555 1.54052e-07 -0.00219683)
(-0.0859323 1.76054e-07 -0.0023372)
(-0.0843127 1.95211e-07 -0.00246937)
(-0.0826024 1.97087e-07 -0.00259343)
(-0.0808064 1.88715e-07 -0.00270927)
(-0.0789294 1.77101e-07 -0.00281711)
(-0.0769763 1.65489e-07 -0.00291722)
(-0.0749518 1.62611e-07 -0.00300974)
(-0.0728606 1.73213e-07 -0.0030949)
(-0.0707072 1.85478e-07 -0.00317319)
(-0.0684957 1.82687e-07 -0.00324509)
(-0.0662302 1.62566e-07 -0.00331086)
(-0.0639147 1.37267e-07 -0.00337065)
(-0.0615528 1.2064e-07 -0.00342458)
(-0.0591484 1.18529e-07 -0.00347276)
(-0.0567056 1.2141e-07 -0.00351548)
(-0.0542286 1.05424e-07 -0.0035533)
(-0.0517206 5.38424e-08 -0.00358669)
(-0.0491847 -1.87176e-08 -0.00361562)
(-0.0466239 -7.59853e-08 -0.00363978)
(-0.044041 -9.7839e-08 -0.00365933)
(-0.0414388 -9.64452e-08 -0.00367482)
(-0.0388199 -9.24394e-08 -0.00368655)
(-0.036187 -9.22774e-08 -0.00369453)
(-0.033543 -9.87799e-08 -0.0036991)
(-0.0308908 -1.26033e-07 -0.0037012)
(-0.0282328 -1.82009e-07 -0.00370156)
(-0.0255709 -2.42252e-07 -0.00369989)
(-0.022907 -2.64734e-07 -0.00369523)
(-0.0202428 -2.37677e-07 -0.00368724)
(-0.0175803 -1.96404e-07 -0.00367655)
(-0.0149215 -1.81998e-07 -0.00366401)
(-0.0122684 -1.93606e-07 -0.00364976)
(-0.00962283 -1.94912e-07 -0.00363351)
(-0.00698617 -1.60921e-07 -0.00361537)
(-0.0043594 -1.00957e-07 -0.00359616)
(-0.00174458 -3.42577e-08 -0.00357589)
(0.000859649 3.91694e-08 -0.00355398)
(0.00344675 1.30541e-07 -0.00353035)
(0.00601722 2.33018e-07 -0.00350502)
(0.00856885 3.16089e-07 -0.00347859)
(0.0111008 3.56345e-07 -0.00345013)
(0.0136113 3.60309e-07 -0.00341946)
(0.0161002 3.52816e-07 -0.0033877)
(0.0185665 3.48299e-07 -0.00335489)
(0.0210097 3.38001e-07 -0.00332139)
(0.0234291 3.08631e-07 -0.00328736)
(0.0258236 2.62752e-07 -0.00325273)
(0.0281923 2.14536e-07 -0.00321747)
(0.0305346 1.72454e-07 -0.00318179)
(0.0328501 1.34276e-07 -0.00314597)
(0.0351389 9.79848e-08 -0.00311007)
(0.0374007 7.06484e-08 -0.00307397)
(0.0396356 6.13745e-08 -0.00303773)
(0.041844 6.70009e-08 -0.00300181)
(0.044026 7.04852e-08 -0.00296687)
(0.0461817 5.70646e-08 -0.00293317)
(0.0483108 3.05012e-08 -0.00290036)
(0.0504134 1.01089e-08 -0.00286779)
(0.0524898 1.15855e-08 -0.00283513)
(0.0545406 3.25459e-08 -0.00280263)
(0.0565668 5.74013e-08 -0.00277086)
(0.0585691 7.43943e-08 -0.00274024)
(0.0605484 8.55471e-08 -0.00271085)
(0.0625052 1.00048e-07 -0.0026826)
(0.0644399 1.20421e-07 -0.00265546)
(0.0663525 1.37594e-07 -0.00262938)
(0.068243 1.39741e-07 -0.00260409)
(0.0701113 1.24717e-07 -0.00257898)
(0.0719581 1.02759e-07 -0.00255333)
(0.073784 8.72877e-08 -0.00252671)
(0.0755896 8.37058e-08 -0.00249912)
(0.0773745 8.66334e-08 -0.00247069)
(0.0791374 8.72372e-08 -0.00244125)
(0.0808764 8.19755e-08 -0.00241005)
(0.082589 7.48263e-08 -0.00237592)
(0.084273 7.17325e-08 -0.00233767)
(0.0859262 7.36365e-08 -0.00229439)
(0.0875455 7.48403e-08 -0.00224537)
(0.0891267 6.80666e-08 -0.00218988)
(0.0906644 5.15456e-08 -0.00212692)
(0.0921522 3.165e-08 -0.00205517)
(0.0935832 1.8368e-08 -0.00197318)
(0.0949505 1.74651e-08 -0.00187946)
(0.0962468 2.62463e-08 -0.00177253)
(0.097464 3.69851e-08 -0.00165087)
(0.0985926 4.49489e-08 -0.00151289)
(0.0996209 5.31038e-08 -0.00135706)
(0.100536 6.82282e-08 -0.001182)
(0.101323 9.23317e-08 -0.000986504)
(0.101969 1.18333e-07 -0.000769396)
(0.102457 1.34707e-07 -0.000529512)
(0.102772 1.348e-07 -0.000265723)
(0.102897 1.20552e-07 2.27226e-05)
(0.102813 1.00225e-07 0.000337808)
(0.102502 8.15362e-08 0.000681429)
(0.101945 6.70383e-08 0.00105387)
(0.101125 5.63682e-08 0.00145541)
(0.100022 4.88688e-08 0.00188604)
(0.0986169 4.51029e-08 0.00234506)
(0.0968894 4.67618e-08 0.00283086)
(0.0948208 5.59682e-08 0.00334114)
(0.0923951 7.44211e-08 0.00387327)
(0.0895991 1.01481e-07 0.0044242)
(0.0864212 1.30388e-07 0.00498979)
(0.082851 1.47391e-07 0.0055644)
(0.0788816 1.40896e-07 0.0061411)
(0.0745116 1.1551e-07 0.00671214)
(0.0697456 8.85253e-08 0.00726874)
(0.0645938 6.42954e-08 0.00780007)
(0.0590727 2.42386e-08 0.00829246)
(0.0532079 -3.92164e-08 0.0087297)
(0.0470371 -9.48302e-08 0.00909332)
(0.0406113 -1.12976e-07 0.00936144)
(0.0339952 -1.15497e-07 0.00950667)
(0.0272694 -1.29553e-07 0.0094941)
(0.0205402 -1.1983e-07 0.00928214)
(0.0139336 -5.46808e-08 0.00880914)
(0.00760857 1.44075e-08 0.00800631)
(0.00175308 7.54975e-08 0.00680365)
(-0.00340624 1.72369e-07 0.00511256)
(-0.00756488 1.77651e-07 0.00286419)
(-0.0104322 8.85958e-08 3.6759e-05)
(-0.0116336 2.11514e-07 -0.00320823)
(-0.0107992 1.8416e-07 -0.00635557)
(-0.0076521 2.58543e-07 -0.00810284)
(-0.00212317 8.59001e-07 -0.00576036)
(-0.000284568 -3.89078e-07 0.000449158)
(-0.00142104 -5.58714e-07 0.00146153)
(-0.00258962 -2.6057e-07 0.00188208)
(-0.00355341 -1.92718e-07 0.00178559)
(-0.00426863 -2.2455e-07 0.00143981)
(-0.00472941 -3.11195e-07 0.00101775)
(-0.00495829 -3.93316e-07 0.000608462)
(-0.00498862 -4.43544e-07 0.000254653)
(-0.00486163 -4.63215e-07 -2.57439e-05)
(-0.00462223 -4.59739e-07 -0.000227537)
(-0.00431506 -4.40519e-07 -0.000352074)
(-0.00398249 -4.08881e-07 -0.000403904)
(-0.0036639 -3.68327e-07 -0.000388869)
(-0.00339569 -3.24771e-07 -0.000313413)
(-0.00321097 -2.83645e-07 -0.000184291)
(-0.00313915 -2.47673e-07 -8.29201e-06)
(-0.00320542 -2.17127e-07 0.000207998)
(-0.00343124 -1.93751e-07 0.000458272)
(-0.00383447 -1.80378e-07 0.00073633)
(-0.00442961 -1.7542e-07 0.00103606)
(-0.00522773 -1.71076e-07 0.00135159)
(-0.00623645 -1.57178e-07 0.00167736)
(-0.00746015 -1.27194e-07 0.00200826)
(-0.00890031 -8.08722e-08 0.00233947)
(-0.0105556 -2.30717e-08 0.00266648)
(-0.0124219 3.92357e-08 0.00298507)
(-0.0144922 9.88103e-08 0.00329135)
(-0.016757 1.48738e-07 0.00358176)
(-0.0192046 1.83189e-07 0.003853)
(-0.0218211 1.99703e-07 0.00410207)
(-0.0245908 2.0064e-07 0.00432635)
(-0.0274966 1.91731e-07 0.00452371)
(-0.0305204 1.80398e-07 0.00469249)
(-0.0336435 1.75358e-07 0.00483143)
(-0.0368469 1.8249e-07 0.00493958)
(-0.0401117 2.00321e-07 0.00501641)
(-0.043418 2.25894e-07 0.00506185)
(-0.0467461 2.57792e-07 0.00507633)
(-0.0500762 2.84968e-07 0.00506072)
(-0.0533891 2.93421e-07 0.00501617)
(-0.0566667 2.88378e-07 0.00494397)
(-0.0598916 2.80797e-07 0.00484539)
(-0.0630473 2.6488e-07 0.00472197)
(-0.0661176 2.3832e-07 0.00457561)
(-0.0690876 2.09867e-07 0.00440821)
(-0.0719439 1.77734e-07 0.00422168)
(-0.0746747 1.44644e-07 0.00401806)
(-0.0772692 1.23028e-07 0.00379926)
(-0.0797184 1.07079e-07 0.00356716)
(-0.0820139 8.53456e-08 0.00332386)
(-0.0841487 6.20666e-08 0.00307141)
(-0.0861168 5.52854e-08 0.00281175)
(-0.087914 6.83188e-08 0.00254681)
(-0.0895373 6.5089e-08 0.00227836)
(-0.0909848 4.10841e-08 0.00200788)
(-0.0922554 4.51689e-08 0.00173676)
(-0.0933487 7.35877e-08 0.00146631)
(-0.0942648 7.9568e-08 0.00119802)
(-0.0950048 7.27713e-08 0.000933366)
(-0.0955709 7.86083e-08 0.000673131)
(-0.0959661 8.06193e-08 0.000417909)
(-0.0961932 7.71435e-08 0.000168843)
(-0.0962556 8.95552e-08 -7.31626e-05)
(-0.0961573 1.07505e-07 -0.000308178)
(-0.0959027 1.1313e-07 -0.000535964)
(-0.0954967 1.19115e-07 -0.000755575)
(-0.0949448 1.29027e-07 -0.000966576)
(-0.0942527 1.2442e-07 -0.00116905)
(-0.0934256 1.152e-07 -0.00136286)
(-0.0924691 1.31306e-07 -0.00154774)
(-0.0913883 1.6161e-07 -0.00172369)
(-0.0901886 1.68445e-07 -0.00189077)
(-0.0888752 1.54138e-07 -0.00204887)
(-0.0874541 1.54047e-07 -0.00219808)
(-0.085931 1.76047e-07 -0.00233878)
(-0.0843117 1.95204e-07 -0.00247121)
(-0.0826014 1.9708e-07 -0.00259535)
(-0.0808052 1.88708e-07 -0.00271124)
(-0.0789281 1.77095e-07 -0.00281909)
(-0.0769748 1.65483e-07 -0.00291912)
(-0.0749504 1.62605e-07 -0.00301162)
(-0.0728593 1.73207e-07 -0.00309695)
(-0.0707059 1.85472e-07 -0.0031754)
(-0.0684943 1.82681e-07 -0.00324717)
(-0.0662287 1.62561e-07 -0.0033125)
(-0.0639131 1.37263e-07 -0.00337179)
(-0.0615511 1.20636e-07 -0.0034253)
(-0.0591469 1.18525e-07 -0.00347319)
(-0.0567046 1.21407e-07 -0.0035158)
(-0.054228 1.05421e-07 -0.00355354)
(-0.0517201 5.3841e-08 -0.0035865)
(-0.0491842 -1.87172e-08 -0.00361447)
(-0.0466233 -7.59838e-08 -0.00363762)
(-0.0440403 -9.78372e-08 -0.00365667)
(-0.0414377 -9.64435e-08 -0.00367229)
(-0.0388183 -9.24378e-08 -0.00368446)
(-0.0361852 -9.22758e-08 -0.00369289)
(-0.0335416 -9.8778e-08 -0.00369785)
(-0.03089 -1.26031e-07 -0.00370019)
(-0.0282325 -1.82006e-07 -0.00370041)
(-0.0255707 -2.42248e-07 -0.00369832)
(-0.0229067 -2.6473e-07 -0.00369345)
(-0.0202425 -2.37674e-07 -0.00368583)
(-0.0175801 -1.96401e-07 -0.0036758)
(-0.0149212 -1.81996e-07 -0.00366361)
(-0.012268 -1.93604e-07 -0.00364915)
(-0.00962236 -1.9491e-07 -0.00363253)
(-0.00698568 -1.60919e-07 -0.00361431)
(-0.00435885 -1.00956e-07 -0.00359532)
(-0.0017438 -3.42575e-08 -0.00357534)
(0.000860787 3.91692e-08 -0.00355371)
(0.00344813 1.3054e-07 -0.00353056)
(0.00601861 2.33017e-07 -0.00350598)
(0.00857012 3.16086e-07 -0.00348028)
(0.0111019 3.56343e-07 -0.00345212)
(0.0136124 3.60307e-07 -0.00342134)
(0.016101 3.52813e-07 -0.00338942)
(0.0185669 3.48297e-07 -0.00335671)
(0.0210097 3.38e-07 -0.00332345)
(0.023429 3.08629e-07 -0.00328942)
(0.0258238 2.62752e-07 -0.00325436)
(0.028193 2.14536e-07 -0.00321842)
(0.0305357 1.72453e-07 -0.00318211)
(0.0328514 1.34276e-07 -0.00314587)
(0.03514 9.79848e-08 -0.00310975)
(0.0374015 7.06484e-08 -0.00307361)
(0.039636 6.13745e-08 -0.00303751)
(0.0418441 6.70009e-08 -0.00300192)
(0.044026 7.04853e-08 -0.00296729)
(0.0461817 5.70647e-08 -0.00293368)
(0.048311 3.05012e-08 -0.00290065)
(0.0504138 1.0109e-08 -0.00286773)
(0.0524903 1.15855e-08 -0.00283482)
(0.0545412 3.2546e-08 -0.00280224)
(0.0565675 5.74016e-08 -0.00277046)
(0.0585701 7.43947e-08 -0.0027398)
(0.0605494 8.55476e-08 -0.00271041)
(0.062506 1.00049e-07 -0.00268238)
(0.0644402 1.20422e-07 -0.00265571)
(0.0663523 1.37595e-07 -0.00263016)
(0.0682424 1.39742e-07 -0.0026051)
(0.070111 1.24718e-07 -0.00257974)
(0.0719583 1.0276e-07 -0.00255355)
(0.0737848 8.72884e-08 -0.0025265)
(0.0755906 8.37064e-08 -0.00249888)
(0.0773753 8.6634e-08 -0.00247081)
(0.0791378 8.72378e-08 -0.0024418)
(0.0808763 8.19761e-08 -0.00241078)
(0.0825889 7.4827e-08 -0.0023765)
(0.0842733 7.17331e-08 -0.00233792)
(0.0859269 7.36372e-08 -0.00229437)
(0.0875464 7.48409e-08 -0.00224533)
(0.0891275 6.80671e-08 -0.00219003)
(0.0906648 5.1546e-08 -0.00212734)
(0.092152 3.16502e-08 -0.00205581)
(0.0935827 1.83681e-08 -0.0019739)
(0.0949501 1.74653e-08 -0.0018801)
(0.0962469 2.62466e-08 -0.00177295)
(0.0974648 3.69854e-08 -0.00165098)
(0.0985939 4.49493e-08 -0.00151272)
(0.0996223 5.31042e-08 -0.00135675)
(0.100537 6.82288e-08 -0.00118177)
(0.101324 9.23325e-08 -0.000986504)
(0.101969 1.18334e-07 -0.000769624)
(0.102457 1.34708e-07 -0.000529821)
(0.102773 1.34801e-07 -0.000265971)
(0.102897 1.20553e-07 2.25262e-05)
(0.102813 1.00225e-07 0.000337525)
(0.102502 8.15368e-08 0.000680973)
(0.101945 6.70389e-08 0.00105334)
(0.101125 5.63687e-08 0.00145503)
(0.100023 4.88692e-08 0.00188593)
(0.098618 4.51032e-08 0.0023451)
(0.0968901 4.67622e-08 0.00283085)
(0.0948212 5.59687e-08 0.00334112)
(0.0923958 7.44218e-08 0.00387355)
(0.0896005 1.01482e-07 0.00442502)
(0.0864226 1.30389e-07 0.0049911)
(0.0828519 1.47393e-07 0.00556592)
(0.0788818 1.40898e-07 0.0061428)
(0.0745115 1.15512e-07 0.00671432)
(0.0697455 8.85266e-08 0.00727157)
(0.0645933 6.42964e-08 0.00780315)
(0.0590712 2.4239e-08 0.00829522)
(0.0532059 -3.92171e-08 0.00873208)
(0.0470359 -9.48317e-08 0.00909568)
(0.040611 -1.12978e-07 0.00936377)
(0.0339952 -1.15498e-07 0.00950846)
(0.0272696 -1.29555e-07 0.00949512)
(0.0205411 -1.19831e-07 0.00928271)
(0.0139352 -5.4681e-08 0.00880946)
(0.00761021 1.44075e-08 0.00800628)
(0.0017542 7.54976e-08 0.00680329)