/*--------------------------------*- C++ -*----------------------------------*\
  =========                 |
  \\      /  F ield         | OpenFOAM: The Open Source CFD Toolbox
   \\    /   O peration     | Website:  https://openfoam.org
    \\  /    A nd           | Version:  8
     \\/     M anipulation  |
\*---------------------------------------------------------------------------*/
FoamFile
{
    version     2.0;
    format      ascii;
    class       volScalarField;
    location    "1200";
    object      alphat;
}
// * * * * * * * * * * * * * * * * * * * * * * * * * * * * * * * * * * * * * //

dimensions      [1 -1 -1 0 0 0 0];

internalField   nonuniform List<scalar> 
48000
(
0.000185295
4.75401e-05
5.2903e-05
6.13902e-05
6.75828e-05
7.27875e-05
7.73881e-05
8.15218e-05
8.52905e-05
8.87827e-05
9.2052e-05
9.51373e-05
9.80677e-05
0.000100865
0.000103546
0.000106125
0.00010861
0.000111012
0.000113335
0.000115586
0.000117769
0.000119888
0.000121945
0.000123943
0.000125885
0.000127771
0.000129604
0.000131385
0.000133116
0.000134797
0.000136429
0.000138014
0.000139553
0.000141045
0.000142493
0.000143897
0.000145257
0.000146575
0.000147851
0.000149086
0.000150281
0.000151435
0.000152551
0.000153629
0.000154669
0.000155672
0.000156639
0.00015757
0.000158467
0.000159329
0.000160157
0.000160952
0.000161714
0.000162444
0.000163143
0.000163811
0.000164448
0.000165056
0.000165634
0.000166182
0.000166702
0.000167197
0.000167665
0.000168107
0.000168522
0.000168911
0.000169274
0.000169612
0.000169926
0.000170215
0.00017048
0.000170721
0.000170939
0.000171134
0.000171307
0.000171457
0.000171586
0.000171693
0.000171778
0.000171843
0.000171887
0.000171911
0.000171915
0.000171899
0.000171864
0.00017181
0.000171736
0.000171644
0.000171534
0.000171405
0.000171259
0.000171094
0.000170913
0.000170714
0.000170497
0.000170264
0.000170015
0.000169748
0.000169466
0.000169167
0.000168852
0.000168522
0.000168176
0.000167814
0.000167437
0.000167044
0.000166636
0.000166213
0.000165775
0.000165322
0.000164855
0.000164372
0.000163875
0.000163363
0.000162836
0.000162295
0.000161738
0.000161168
0.000160582
0.000159982
0.000159368
0.000158738
0.000158094
0.000157435
0.000156761
0.000156072
0.000155368
0.000154649
0.000153915
0.000153165
0.0001524
0.000151619
0.000150823
0.000150011
0.000149182
0.000148338
0.000147477
0.0001466
0.000145707
0.000144797
0.000143869
0.000142925
0.000141964
0.000140985
0.000139989
0.000138975
0.000137943
0.000136893
0.000135824
0.000134738
0.000133632
0.000132508
0.000131365
0.000130203
0.000129021
0.00012782
0.000126599
0.000125358
0.000124096
0.000122815
0.000121513
0.00012019
0.000118846
0.00011748
0.000116094
0.000114685
0.000113254
0.0001118
0.000110324
0.000108824
0.000107301
0.000105753
0.000104181
0.000102583
0.000100959
9.93072e-05
9.76275e-05
9.59183e-05
9.41782e-05
9.24055e-05
9.0598e-05
8.87532e-05
8.68683e-05
8.49398e-05
8.29648e-05
8.094e-05
7.8875e-05
7.67567e-05
7.4553e-05
7.22469e-05
6.98157e-05
6.72269e-05
6.44371e-05
6.13907e-05
5.80854e-05
5.44288e-05
5.04277e-05
4.37604e-05
0.000225808
0.000152076
0.000185374
4.75143e-05
5.2964e-05
6.14107e-05
6.75878e-05
7.27894e-05
7.73896e-05
8.15231e-05
8.52918e-05
8.87839e-05
9.2053e-05
9.51383e-05
9.80686e-05
0.000100866
0.000103547
0.000106125
0.000108611
0.000111012
0.000113336
0.000115587
0.00011777
0.000119888
0.000121945
0.000123944
0.000125885
0.000127771
0.000129604
0.000131386
0.000133116
0.000134797
0.000136429
0.000138014
0.000139553
0.000141045
0.000142493
0.000143897
0.000145257
0.000146575
0.000147851
0.000149086
0.000150281
0.000151435
0.000152551
0.000153629
0.000154669
0.000155672
0.000156639
0.00015757
0.000158467
0.000159328
0.000160157
0.000160952
0.000161714
0.000162444
0.000163143
0.000163811
0.000164448
0.000165056
0.000165634
0.000166182
0.000166702
0.000167197
0.000167665
0.000168107
0.000168522
0.000168911
0.000169274
0.000169612
0.000169926
0.000170215
0.00017048
0.000170721
0.000170939
0.000171134
0.000171307
0.000171457
0.000171585
0.000171692
0.000171778
0.000171843
0.000171887
0.000171911
0.000171915
0.000171899
0.000171864
0.000171809
0.000171736
0.000171644
0.000171534
0.000171405
0.000171258
0.000171094
0.000170912
0.000170713
0.000170497
0.000170264
0.000170014
0.000169748
0.000169466
0.000169167
0.000168852
0.000168522
0.000168175
0.000167814
0.000167436
0.000167044
0.000166636
0.000166213
0.000165775
0.000165322
0.000164854
0.000164372
0.000163875
0.000163362
0.000162836
0.000162294
0.000161738
0.000161168
0.000160582
0.000159982
0.000159368
0.000158738
0.000158094
0.000157435
0.000156761
0.000156072
0.000155368
0.000154649
0.000153915
0.000153165
0.0001524
0.000151619
0.000150823
0.00015001
0.000149182
0.000148338
0.000147477
0.0001466
0.000145707
0.000144796
0.000143869
0.000142925
0.000141964
0.000140985
0.000139989
0.000138975
0.000137943
0.000136893
0.000135824
0.000134738
0.000133632
0.000132508
0.000131365
0.000130203
0.000129021
0.00012782
0.000126598
0.000125357
0.000124096
0.000122815
0.000121513
0.00012019
0.000118846
0.00011748
0.000116093
0.000114685
0.000113254
0.0001118
0.000110324
0.000108824
0.000107301
0.000105753
0.000104181
0.000102583
0.000100959
9.93071e-05
9.76274e-05
9.59183e-05
9.41782e-05
9.24055e-05
9.05979e-05
8.87532e-05
8.68683e-05
8.49398e-05
8.29648e-05
8.094e-05
7.8875e-05
7.67567e-05
7.4553e-05
7.22469e-05
6.98157e-05
6.72268e-05
6.44368e-05
6.13896e-05
5.80812e-05
5.44141e-05
5.03932e-05
4.37662e-05
0.000226022
0.000151956
0.000247602
0.000281281
0.000444729
0.000558262
0.00064369
0.000713325
0.000772445
0.00082423
0.000870608
0.000912784
0.000951606
0.000987685
0.00102147
0.00105332
0.00108348
0.00111216
0.00113954
0.00116574
0.00119088
0.00121504
0.00123831
0.00126073
0.00128237
0.00130327
0.00132348
0.00134301
0.00136192
0.00138022
0.00139793
0.00141509
0.0014317
0.00144779
0.00146338
0.00147847
0.00149309
0.00150724
0.00152095
0.00153421
0.00154705
0.00155947
0.00157149
0.00158311
0.00159434
0.0016052
0.00161568
0.0016258
0.00163557
0.00164499
0.00165407
0.00166281
0.00167123
0.00167932
0.0016871
0.00169457
0.00170173
0.00170859
0.00171515
0.00172143
0.00172741
0.0017331
0.00173848
0.00174347
0.00174818
0.00175262
0.00175682
0.00176077
0.00176447
0.00176793
0.00177116
0.00177415
0.0017769
0.00177943
0.00178173
0.00178381
0.00178567
0.00178731
0.00178874
0.00178995
0.00179095
0.00179175
0.00179234
0.00179273
0.00179291
0.0017929
0.00179269
0.00179229
0.0017917
0.00179092
0.00178995
0.00178879
0.00178745
0.00178594
0.00178424
0.00178236
0.00178031
0.00177809
0.00177569
0.00177312
0.00177038
0.00176748
0.00176441
0.00176117
0.00175778
0.00175421
0.00175049
0.00174661
0.00174257
0.00173837
0.00173401
0.0017295
0.00172483
0.00172
0.00171502
0.00170988
0.00170459
0.00169914
0.00169354
0.00168778
0.00168187
0.0016758
0.00166958
0.00166319
0.00165666
0.00164996
0.0016431
0.00163609
0.00162892
0.00162158
0.00161408
0.00160642
0.0015986
0.00159061
0.00158245
0.00157412
0.00156563
0.00155696
0.00154812
0.00153911
0.00152992
0.00152056
0.00151102
0.00150129
0.00149139
0.0014813
0.00147103
0.00146057
0.00144993
0.00143909
0.00142807
0.00141684
0.00140543
0.00139382
0.001382
0.00136999
0.00135777
0.00134535
0.00133273
0.00131989
0.00130684
0.00129358
0.00128011
0.00126641
0.0012525
0.00123836
0.00122399
0.00120939
0.00119455
0.00117948
0.00116417
0.0011486
0.00113278
0.0011167
0.00110035
0.00108371
0.00106679
0.00104957
0.00103203
0.00101416
0.000995932
0.000977325
0.000958308
0.000938844
0.000918885
0.000898369
0.000877209
0.000855282
0.000832382
0.000808391
0.000783227
0.000756695
0.000728467
0.000698036
0.000664601
0.000626645
0.000580967
0.000524608
0.000446377
0.000320424
0.000260267
0.000162619
0.00024736
0.000281789
0.000444778
0.00055838
0.00064378
0.000713394
0.000772507
0.00082429
0.000870666
0.00091284
0.000951661
0.000987739
0.00102153
0.00105337
0.00108353
0.00111221
0.00113959
0.00116579
0.00119093
0.00121509
0.00123835
0.00126077
0.00128241
0.00130331
0.00132351
0.00134305
0.00136196
0.00138025
0.00139797
0.00141512
0.00143173
0.00144782
0.00146341
0.0014785
0.00149312
0.00150727
0.00152097
0.00153424
0.00154708
0.0015595
0.00157152
0.00158313
0.00159437
0.00160522
0.0016157
0.00162582
0.00163559
0.00164501
0.00165409
0.00166283
0.00167125
0.00167934
0.00168712
0.00169459
0.00170175
0.00170861
0.00171517
0.00172145
0.00172743
0.00173312
0.0017385
0.00174349
0.00174819
0.00175264
0.00175684
0.00176078
0.00176449
0.00176795
0.00177117
0.00177416
0.00177692
0.00177945
0.00178175
0.00178383
0.00178569
0.00178733
0.00178875
0.00178997
0.00179097
0.00179176
0.00179235
0.00179274
0.00179293
0.00179291
0.00179271
0.0017923
0.00179171
0.00179093
0.00178996
0.00178881
0.00178747
0.00178595
0.00178425
0.00178237
0.00178032
0.0017781
0.0017757
0.00177313
0.0017704
0.00176749
0.00176442
0.00176119
0.00175779
0.00175423
0.00175051
0.00174662
0.00174258
0.00173838
0.00173402
0.00172951
0.00172484
0.00172001
0.00171503
0.00170989
0.0017046
0.00169915
0.00169355
0.00168779
0.00168188
0.00167581
0.00166959
0.00166321
0.00165667
0.00164997
0.00164312
0.0016361
0.00162893
0.00162159
0.00161409
0.00160643
0.00159861
0.00159062
0.00158246
0.00157413
0.00156564
0.00155697
0.00154813
0.00153912
0.00152993
0.00152057
0.00151103
0.0015013
0.0014914
0.00148131
0.00147104
0.00146058
0.00144994
0.0014391
0.00142807
0.00141685
0.00140544
0.00139382
0.00138201
0.00137
0.00135778
0.00134536
0.00133274
0.0013199
0.00130685
0.00129359
0.00128012
0.00126642
0.0012525
0.00123836
0.001224
0.0012094
0.00119456
0.00117949
0.00116417
0.00114861
0.00113279
0.00111671
0.00110035
0.00108372
0.0010668
0.00104958
0.00103204
0.00101417
0.000995941
0.000977334
0.000958317
0.000938853
0.000918894
0.000898379
0.000877219
0.000855291
0.000832392
0.0008084
0.000783235
0.000756703
0.000728475
0.000698043
0.000664607
0.000626655
0.000581006
0.000524791
0.00044699
0.000320861
0.000260652
0.000162458
4.62019e-05
0.000341121
0.000731039
0.00100387
0.00120881
0.00137596
0.00151819
0.00164247
0.00175316
0.00185317
0.00194454
0.0020288
0.00210706
0.0021802
0.00224891
0.00231372
0.00237509
0.00243336
0.00248885
0.0025418
0.00259241
0.00264088
0.00268736
0.00273198
0.00277486
0.00281611
0.00285581
0.00289405
0.00293091
0.00296645
0.00300074
0.00303383
0.00306577
0.00309661
0.00312639
0.00315516
0.00318296
0.00320981
0.00323576
0.00326083
0.00328505
0.00330845
0.00333106
0.00335289
0.00337397
0.00339432
0.00341396
0.0034329
0.00345117
0.00346877
0.00348573
0.00350205
0.00351775
0.00353284
0.00354733
0.00356124
0.00357456
0.00358732
0.0035995
0.00361112
0.00362215
0.00363257
0.00364237
0.00365163
0.0036604
0.00366867
0.00367646
0.00368376
0.0036906
0.00369696
0.00370286
0.00370831
0.0037133
0.00371785
0.00372196
0.00372563
0.00372886
0.00373167
0.00373406
0.00373602
0.00373758
0.00373872
0.00373946
0.00373979
0.00373973
0.00373928
0.00373844
0.00373721
0.0037356
0.00373362
0.00373126
0.00372853
0.00372543
0.00372197
0.00371816
0.00371399
0.00370946
0.00370459
0.00369936
0.0036938
0.00368789
0.00368165
0.00367507
0.00366815
0.00366091
0.00365333
0.00364543
0.0036372
0.00362864
0.00361976
0.00361056
0.00360104
0.00359119
0.00358102
0.00357054
0.00355973
0.0035486
0.00353715
0.00352537
0.00351328
0.00350086
0.00348812
0.00347505
0.00346165
0.00344792
0.00343387
0.00341948
0.00340475
0.00338969
0.00337429
0.00335855
0.00334247
0.00332603
0.00330925
0.00329212
0.00327463
0.00325678
0.00323857
0.00321999
0.00320105
0.00318173
0.00316204
0.00314197
0.00312151
0.00310067
0.00307944
0.00305781
0.00303578
0.00301335
0.00299051
0.00296725
0.00294358
0.00291949
0.00289496
0.00287001
0.00284461
0.00281877
0.00279247
0.00276572
0.0027385
0.0027108
0.00268262
0.00265395
0.00262477
0.00259508
0.00256487
0.00253411
0.0025028
0.00247091
0.00243844
0.00240535
0.00237162
0.00233723
0.00230214
0.00226632
0.00222972
0.00219229
0.00215398
0.00211472
0.00207443
0.00203301
0.00199034
0.00194628
0.00190064
0.00185319
0.00180363
0.00175157
0.00169661
0.00163825
0.00157574
0.00150803
0.00143361
0.00135033
0.0012548
0.00114172
0.00100416
0.000827845
0.000580728
0.000256996
3.21137e-05
4.61893e-05
0.000341226
0.000730099
0.00100366
0.00120889
0.00137609
0.00151833
0.00164261
0.00175329
0.00185329
0.00194467
0.00202892
0.00210717
0.00218031
0.00224901
0.00231383
0.00237519
0.00243346
0.00248894
0.00254188
0.0025925
0.00264096
0.00268744
0.00273205
0.00277493
0.00281617
0.00285587
0.00289411
0.00293097
0.00296651
0.00300079
0.00303388
0.00306581
0.00309665
0.00312643
0.0031552
0.003183
0.00320985
0.00323579
0.00326086
0.00328508
0.00330848
0.00333109
0.00335292
0.00337399
0.00339434
0.00341398
0.00343292
0.00345118
0.00346879
0.00348574
0.00350206
0.00351776
0.00353285
0.00354735
0.00356125
0.00357457
0.00358733
0.00359951
0.00361112
0.00362216
0.00363257
0.00364237
0.00365164
0.0036604
0.00366867
0.00367646
0.00368377
0.0036906
0.00369696
0.00370287
0.00370831
0.00371331
0.00371785
0.00372196
0.00372563
0.00372886
0.00373167
0.00373406
0.00373602
0.00373758
0.00373872
0.00373946
0.00373979
0.00373973
0.00373928
0.00373844
0.00373721
0.0037356
0.00373361
0.00373125
0.00372852
0.00372543
0.00372197
0.00371815
0.00371398
0.00370946
0.00370458
0.00369936
0.0036938
0.00368789
0.00368164
0.00367506
0.00366815
0.0036609
0.00365333
0.00364542
0.00363719
0.00362864
0.00361976
0.00361056
0.00360103
0.00359119
0.00358102
0.00357053
0.00355972
0.00354859
0.00353714
0.00352537
0.00351327
0.00350085
0.00348811
0.00347504
0.00346164
0.00344792
0.00343386
0.00341947
0.00340475
0.00338969
0.00337429
0.00335854
0.00334246
0.00332603
0.00330924
0.00329211
0.00327462
0.00325677
0.00323856
0.00321998
0.00320104
0.00318172
0.00316203
0.00314196
0.0031215
0.00310066
0.00307943
0.0030578
0.00303577
0.00301334
0.0029905
0.00296724
0.00294357
0.00291948
0.00289495
0.00287
0.0028446
0.00281876
0.00279246
0.00276571
0.00273849
0.00271079
0.00268261
0.00265394
0.00262476
0.00259507
0.00256486
0.0025341
0.00250279
0.00247091
0.00243843
0.00240534
0.00237161
0.00233722
0.00230213
0.00226631
0.00222971
0.00219228
0.00215397
0.00211472
0.00207442
0.002033
0.00199034
0.00194627
0.00190063
0.00185318
0.00180362
0.00175157
0.00169661
0.00163825
0.00157574
0.00150802
0.00143361
0.00135033
0.00125479
0.00114174
0.00100432
0.000828528
0.000581904
0.000256919
3.21352e-05
5.34037e-05
0.000493853
0.000959204
0.00133611
0.00164431
0.00190391
0.00212802
0.00232526
0.00250151
0.00266095
0.0028066
0.00294074
0.00306512
0.00318108
0.00328972
0.0033919
0.00348834
0.00357961
0.00366623
0.00374859
0.00382707
0.00390196
0.00397352
0.004042
0.00410759
0.00417048
0.00423083
0.00428879
0.00434448
0.00439804
0.00444957
0.00449918
0.00454695
0.00459297
0.00463733
0.00468009
0.00472133
0.0047611
0.00479948
0.00483651
0.00487224
0.00490672
0.00494
0.00497211
0.0050031
0.00503299
0.00506183
0.00508965
0.00511646
0.0051423
0.00516719
0.00519116
0.00521422
0.00523639
0.00525769
0.00527815
0.00529776
0.00531654
0.00533451
0.00535166
0.005368
0.00538351
0.00539819
0.00541206
0.00542519
0.0054376
0.00544931
0.00546033
0.00547066
0.0054803
0.00548928
0.00549759
0.00550525
0.00551226
0.00551863
0.00552436
0.00552947
0.00553395
0.00553782
0.00554108
0.00554373
0.00554579
0.00554726
0.00554814
0.00554845
0.00554818
0.00554734
0.00554594
0.00554399
0.00554149
0.00553843
0.00553484
0.00553072
0.00552606
0.00552088
0.00551518
0.00550896
0.00550223
0.005495
0.00548725
0.00547902
0.00547028
0.00546105
0.00545133
0.00544113
0.00543044
0.00541928
0.00540763
0.0053955
0.0053829
0.00536983
0.00535628
0.00534226
0.00532777
0.00531281
0.00529738
0.00528147
0.00526509
0.00524824
0.00523091
0.00521311
0.00519483
0.00517607
0.00515683
0.00513711
0.00511689
0.00509619
0.00507499
0.0050533
0.00503111
0.00500841
0.00498521
0.00496149
0.00493726
0.0049125
0.00488722
0.00486141
0.00483506
0.00480817
0.00478073
0.00475274
0.00472419
0.00469507
0.00466539
0.00463512
0.00460428
0.00457284
0.0045408
0.00450815
0.00447489
0.004441
0.00440648
0.00437132
0.00433551
0.00429903
0.00426189
0.00422405
0.00418552
0.00414628
0.00410631
0.0040656
0.00402413
0.00398189
0.00393884
0.00389497
0.00385026
0.00380467
0.00375818
0.00371075
0.00366234
0.00361291
0.00356241
0.00351079
0.00345797
0.0034039
0.00334849
0.00329163
0.00323323
0.00317315
0.00311123
0.00304729
0.00298111
0.00291242
0.00284089
0.00276611
0.00268757
0.00260464
0.00251656
0.00242232
0.00232063
0.0022097
0.00208711
0.00194952
0.00179224
0.00160875
0.00138994
0.00112252
0.000784452
0.000360266
3.13785e-05
5.34449e-05
0.000493448
0.000958835
0.00133609
0.00164445
0.00190409
0.00212821
0.00232545
0.0025017
0.00266113
0.00280678
0.00294092
0.00306529
0.00318125
0.00328988
0.00339205
0.00348848
0.00357975
0.00366636
0.00374872
0.00382719
0.00390207
0.00397363
0.0040421
0.00410769
0.00417057
0.00423092
0.00428887
0.00434456
0.00439812
0.00444965
0.00449924
0.00454701
0.00459303
0.00463738
0.00468014
0.00472138
0.00476115
0.00479952
0.00483654
0.00487227
0.00490675
0.00494002
0.00497213
0.00500312
0.00503301
0.00506185
0.00508966
0.00511647
0.00514231
0.0051672
0.00519117
0.00521422
0.0052364
0.0052577
0.00527815
0.00529776
0.00531654
0.00533451
0.00535166
0.00536799
0.0053835
0.00539819
0.00541205
0.00542518
0.0054376
0.00544931
0.00546032
0.00547065
0.00548029
0.00548927
0.00549758
0.00550524
0.00551225
0.00551862
0.00552435
0.00552945
0.00553394
0.0055378
0.00554106
0.00554372
0.00554578
0.00554724
0.00554813
0.00554843
0.00554816
0.00554733
0.00554593
0.00554397
0.00554147
0.00553842
0.00553482
0.0055307
0.00552604
0.00552086
0.00551516
0.00550894
0.00550221
0.00549497
0.00548723
0.00547899
0.00547026
0.00546103
0.00545131
0.00544111
0.00543042
0.00541925
0.00540761
0.00539548
0.00538288
0.00536981
0.00535626
0.00534224
0.00532775
0.00531279
0.00529735
0.00528145
0.00526507
0.00524822
0.00523089
0.00521309
0.00519481
0.00517605
0.00515681
0.00513708
0.00511687
0.00509617
0.00507497
0.00505328
0.00503108
0.00500839
0.00498518
0.00496146
0.00493723
0.00491247
0.00488719
0.00486138
0.00483503
0.00480814
0.0047807
0.00475271
0.00472416
0.00469505
0.00466536
0.0046351
0.00460425
0.00457281
0.00454077
0.00450812
0.00447486
0.00444097
0.00440645
0.00437129
0.00433548
0.00429901
0.00426186
0.00422403
0.0041855
0.00414625
0.00410629
0.00406558
0.00402411
0.00398186
0.00393882
0.00389495
0.00385024
0.00380465
0.00375816
0.00371072
0.00366232
0.00361289
0.00356239
0.00351076
0.00345795
0.00340388
0.00334846
0.00329161
0.00323321
0.00317312
0.0031112
0.00304727
0.00298109
0.0029124
0.00284087
0.00276609
0.00268755
0.00260463
0.00251654
0.00242231
0.00232061
0.00220968
0.00208709
0.0019495
0.00179222
0.00160875
0.00139
0.00112269
0.000784471
0.000359805
3.1393e-05
5.78663e-05
0.000566961
0.00111977
0.00158809
0.00198398
0.00232427
0.00262176
0.00288572
0.00312289
0.00333819
0.00353535
0.00371719
0.00388593
0.0040433
0.00419071
0.0043293
0.00446001
0.00458362
0.00470078
0.00481206
0.00491793
0.00501882
0.00511509
0.00520706
0.00529501
0.00537919
0.00545984
0.00553716
0.00561134
0.00568255
0.00575095
0.00581669
0.00587989
0.00594069
0.0059992
0.00605552
0.00610976
0.00616201
0.00621235
0.00626086
0.00630763
0.00635271
0.00639618
0.00643809
0.0064785
0.00651746
0.00655501
0.00659121
0.00662609
0.0066597
0.00669206
0.00672321
0.00675317
0.00678199
0.00680967
0.00683625
0.00686175
0.00688617
0.00690954
0.00693187
0.00695317
0.00697344
0.00699268
0.00701091
0.00702814
0.00704445
0.00705985
0.00707436
0.00708799
0.00710074
0.00711263
0.00712367
0.00713386
0.00714323
0.00715177
0.00715949
0.00716641
0.00717253
0.00717786
0.0071824
0.00718618
0.00718919
0.00719144
0.00719294
0.0071937
0.00719372
0.00719302
0.0071916
0.00718946
0.00718661
0.00718307
0.00717883
0.00717391
0.0071683
0.00716203
0.00715508
0.00714748
0.00713921
0.0071303
0.00712074
0.00711054
0.0070997
0.00708823
0.00707614
0.00706342
0.00705008
0.00703612
0.00702155
0.00700636
0.00699057
0.00697417
0.00695716
0.00693954
0.00692132
0.00690249
0.00688306
0.00686302
0.00684237
0.00682112
0.00679925
0.00677678
0.00675369
0.00672998
0.00670566
0.00668071
0.00665513
0.00662892
0.00660208
0.0065746
0.00654647
0.0065177
0.00648827
0.00645817
0.00642741
0.00639598
0.00636386
0.00633106
0.00629756
0.00626336
0.00622845
0.00619282
0.00615647
0.00611937
0.00608154
0.00604294
0.00600358
0.00596345
0.00592253
0.00588081
0.00583828
0.00579493
0.00575074
0.0057057
0.00565979
0.005613
0.00556531
0.00551669
0.00546715
0.00541664
0.00536514
0.00531264
0.0052591
0.0052045
0.00514879
0.00509196
0.00503394
0.00497471
0.00491421
0.00485239
0.00478919
0.00472454
0.00465836
0.00459057
0.00452107
0.00444975
0.00437648
0.00430111
0.00422347
0.00414337
0.00406056
0.00397478
0.00388569
0.00379289
0.00369589
0.00359412
0.00348683
0.00337314
0.00325191
0.00312174
0.00298078
0.00282666
0.00265625
0.00246544
0.0022488
0.00199924
0.00170744
0.00136155
0.000948102
0.000466461
4.69679e-05
5.78762e-05
0.00056693
0.00111979
0.00158822
0.00198418
0.00232449
0.00262199
0.00288596
0.00312313
0.00333843
0.00353558
0.00371742
0.00388615
0.00404352
0.00419092
0.0043295
0.0044602
0.0045838
0.00470096
0.00481223
0.0049181
0.00501898
0.00511524
0.0052072
0.00529514
0.00537932
0.00545996
0.00553728
0.00561145
0.00568265
0.00575105
0.00581678
0.00587998
0.00594077
0.00599927
0.00605559
0.00610982
0.00616206
0.0062124
0.00626091
0.00630767
0.00635275
0.00639622
0.00643812
0.00647853
0.00651748
0.00655504
0.00659123
0.00662611
0.00665971
0.00669207
0.00672322
0.00675318
0.006782
0.00680968
0.00683626
0.00686175
0.00688617
0.00690954
0.00693187
0.00695316
0.00697343
0.00699267
0.0070109
0.00702813
0.00704444
0.00705984
0.00707435
0.00708797
0.00710073
0.00711261
0.00712365
0.00713385
0.00714321
0.00715175
0.00715947
0.00716639
0.00717251
0.00717784
0.00718238
0.00718616
0.00718917
0.00719142
0.00719292
0.00719368
0.0071937
0.007193
0.00719157
0.00718943
0.00718659
0.00718304
0.00717881
0.00717388
0.00716828
0.007162
0.00715506
0.00714745
0.00713919
0.00713027
0.00712071
0.00711051
0.00709967
0.00708821
0.00707611
0.00706339
0.00705005
0.00703609
0.00702152
0.00700633
0.00699054
0.00697414
0.00695713
0.00693951
0.00692129
0.00690246
0.00688303
0.00686299
0.00684234
0.00682109
0.00679922
0.00677675
0.00675366
0.00672995
0.00670562
0.00668067
0.0066551
0.00662889
0.00660205
0.00657457
0.00654644
0.00651766
0.00648823
0.00645814
0.00642738
0.00639594
0.00636383
0.00633103
0.00629753
0.00626333
0.00622842
0.00619279
0.00615643
0.00611934
0.0060815
0.00604291
0.00600355
0.00596342
0.0059225
0.00588078
0.00583825
0.00579489
0.0057507
0.00570566
0.00565975
0.00561296
0.00556527
0.00551666
0.00546711
0.0054166
0.00536511
0.00531261
0.00525907
0.00520446
0.00514876
0.00509192
0.00503391
0.00497468
0.00491418
0.00485236
0.00478916
0.00472451
0.00465833
0.00459054
0.00452104
0.00444972
0.00437645
0.00430108
0.00422344
0.00414334
0.00406053
0.00397475
0.00388566
0.00379286
0.00369587
0.00359409
0.00348681
0.00337311
0.00325189
0.00312171
0.00298076
0.00282664
0.00265623
0.00246541
0.00224877
0.00199922
0.00170747
0.00136169
0.000948173
0.000466309
4.69214e-05
6.21358e-05
0.000618186
0.0012434
0.00178789
0.00225735
0.00266653
0.00302786
0.00335083
0.00364259
0.00390855
0.00415286
0.00437874
0.00458874
0.00478488
0.00496881
0.00514188
0.00530519
0.00545968
0.00560614
0.00574525
0.00587759
0.00600366
0.0061239
0.00623872
0.00634845
0.00645342
0.00655391
0.00665017
0.00674245
0.00683095
0.00691588
0.00699742
0.00707574
0.00715101
0.00722337
0.00729295
0.0073599
0.00742432
0.00748633
0.00754603
0.00760353
0.00765891
0.00771226
0.00776365
0.00781316
0.00786087
0.00790682
0.00795109
0.00799372
0.00803476
0.00807427
0.00811228
0.00814884
0.00818398
0.00821774
0.00825014
0.00828122
0.00831099
0.00833948
0.00836672
0.0083927
0.00841746
0.008441
0.00846333
0.00848447
0.00850447
0.00852336
0.00854118
0.00855792
0.00857361
0.00858826
0.00860188
0.00861448
0.00862608
0.00863668
0.0086463
0.00865495
0.00866265
0.00866939
0.00867519
0.00868006
0.00868401
0.00868705
0.00868919
0.00869044
0.00869081
0.0086903
0.00868893
0.0086867
0.00868362
0.00867971
0.00867496
0.00866939
0.00866301
0.00865582
0.00864783
0.00863904
0.00862947
0.00861912
0.008608
0.00859611
0.00858346
0.00857005
0.00855589
0.00854099
0.00852534
0.00850895
0.00849182
0.00847397
0.00845538
0.00843606
0.00841602
0.00839526
0.00837376
0.00835155
0.00832861
0.00830494
0.00828055
0.00825542
0.00822957
0.00820299
0.00817567
0.00814761
0.0081188
0.00808926
0.00805895
0.0080279
0.00799608
0.00796349
0.00793012
0.00789598
0.00786104
0.00782531
0.00778878
0.00775144
0.00771327
0.00767427
0.00763444
0.00759375
0.0075522
0.00750979
0.00746649
0.00742229
0.00737719
0.00733117
0.00728421
0.00723631
0.00718745
0.0071376
0.00708676
0.00703491
0.00698202
0.00692808
0.00687307
0.00681696
0.00675973
0.00670136
0.00664181
0.00658106
0.00651907
0.00645581
0.00639123
0.00632531
0.00625798
0.00618921
0.00611894
0.0060471
0.00597362
0.00589844
0.00582147
0.00574261
0.00566177
0.00557881
0.00549362
0.00540603
0.00531588
0.00522296
0.00512704
0.00502786
0.0049251
0.00481839
0.00470729
0.00459129
0.00446974
0.00434187
0.00420676
0.00406325
0.00390992
0.00374497
0.00356615
0.0033706
0.00315469
0.00291378
0.00264203
0.00233211
0.00197502
0.00156014
0.00107693
0.000527448
5.20324e-05
6.2139e-05
0.000618229
0.0012435
0.00178806
0.00225756
0.00266677
0.00302812
0.0033511
0.00364286
0.00390882
0.00415313
0.00437901
0.004589
0.00478514
0.00496906
0.00514212
0.00530542
0.0054599
0.00560636
0.00574546
0.00587778
0.00600384
0.00612408
0.00623889
0.00634862
0.00645358
0.00655406
0.00665031
0.00674258
0.00683107
0.00691599
0.00699753
0.00707585
0.00715111
0.00722346
0.00729304
0.00735997
0.00742439
0.0074864
0.00754609
0.00760359
0.00765896
0.0077123
0.0077637
0.00781321
0.0078609
0.00790686
0.00795112
0.00799374
0.00803479
0.00807429
0.0081123
0.00814886
0.00818399
0.00821775
0.00825015
0.00828122
0.00831099
0.00833948
0.00836671
0.0083927
0.00841745
0.00844099
0.00846332
0.00848446
0.00850446
0.00852335
0.00854116
0.00855791
0.00857359
0.00858824
0.00860186
0.00861446
0.00862606
0.00863666
0.00864628
0.00865493
0.00866262
0.00866936
0.00867517
0.00868004
0.00868399
0.00868703
0.00868917
0.00869041
0.00869078
0.00869027
0.0086889
0.00868667
0.00868359
0.00867968
0.00867493
0.00866936
0.00866298
0.00865579
0.0086478
0.00863901
0.00862944
0.00861909
0.00860797
0.00859608
0.00858343
0.00857002
0.00855586
0.00854095
0.0085253
0.00850892
0.00849179
0.00847393
0.00845535
0.00843603
0.00841599
0.00839522
0.00837373
0.00835151
0.00832857
0.0083049
0.00828051
0.00825539
0.00822954
0.00820295
0.00817563
0.00814757
0.00811877
0.00808922
0.00805892
0.00802786
0.00799604
0.00796345
0.00793009
0.00789594
0.00786101
0.00782528
0.00778874
0.0077514
0.00771323
0.00767424
0.0076344
0.00759371
0.00755217
0.00750975
0.00746645
0.00742225
0.00737715
0.00733113
0.00728418
0.00723627
0.00718741
0.00713756
0.00708672
0.00703487
0.00698198
0.00692805
0.00687303
0.00681693
0.0067597
0.00670132
0.00664177
0.00658102
0.00651903
0.00645577
0.0063912
0.00632527
0.00625795
0.00618918
0.0061189
0.00604706
0.00597359
0.00589841
0.00582143
0.00574258
0.00566173
0.00557878
0.00549358
0.005406
0.00531584
0.00522292
0.00512701
0.00502782
0.00492507
0.00481836
0.00470726
0.00459126
0.00446971
0.00434185
0.00420674
0.00406323
0.00390989
0.00374494
0.00356613
0.00337058
0.00315467
0.00291376
0.00264201
0.00233209
0.00197501
0.00156015
0.00107689
0.000527371
5.2021e-05
6.61068e-05
0.000661338
0.00134586
0.00195334
0.00248444
0.00295221
0.00336859
0.00374307
0.00408303
0.00439415
0.00468086
0.00494667
0.00519434
0.00542612
0.00564382
0.00584894
0.00604274
0.00622625
0.00640037
0.00656586
0.00672337
0.00687349
0.00701672
0.00715351
0.00728426
0.00740932
0.00752903
0.00764369
0.00775357
0.00785893
0.00795999
0.00805697
0.00815009
0.00823951
0.00832543
0.00840801
0.0084874
0.00856375
0.00863718
0.00870784
0.00877584
0.00884128
0.00890429
0.00896494
0.00902333
0.00907955
0.00913368
0.00918578
0.00923593
0.00928419
0.00933061
0.00937526
0.00941818
0.00945942
0.00949902
0.00953702
0.00957346
0.00960837
0.00964177
0.0096737
0.00970418
0.00973322
0.00976086
0.0097871
0.00981197
0.00983549
0.00985772
0.00987868
0.0098984
0.00991689
0.00993416
0.00995024
0.00996514
0.00997887
0.00999145
0.0100029
0.0100132
0.0100224
0.0100305
0.0100375
0.0100435
0.0100483
0.0100522
0.0100549
0.0100567
0.0100574
0.0100572
0.0100559
0.0100536
0.0100504
0.0100462
0.0100411
0.010035
0.0100279
0.01002
0.0100111
0.0100013
0.00999057
0.00997897
0.00996648
0.00995311
0.00993887
0.00992376
0.00990778
0.00989095
0.00987326
0.00985472
0.00983535
0.00981513
0.00979407
0.00977217
0.00974945
0.00972589
0.0097015
0.00967627
0.00965022
0.00962333
0.00959561
0.00956706
0.00953766
0.00950743
0.00947635
0.00944442
0.00941163
0.00937799
0.00934349
0.00930811
0.00927186
0.00923472
0.00919669
0.00915776
0.00911792
0.00907716
0.00903547
0.00899284
0.00894927
0.00890473
0.00885922
0.00881273
0.00876524
0.00871673
0.0086672
0.00861663
0.008565
0.00851229
0.0084585
0.00840359
0.00834755
0.00829036
0.008232
0.00817245
0.00811168
0.00804966
0.00798637
0.00792178
0.00785585
0.00778856
0.00771986
0.00764973
0.0075781
0.00750495
0.00743022
0.00735385
0.00727579
0.00719597
0.00711432
0.00703077
0.00694522
0.00685758
0.00676774
0.00667559
0.006581
0.0064838
0.00638384
0.00628092
0.00617482
0.0060653
0.00595207
0.00583479
0.00571307
0.00558646
0.00545441
0.00531629
0.00517132
0.00501857
0.00485691
0.00468498
0.00450108
0.00430312
0.00408851
0.00385403
0.00359565
0.00330839
0.00298612
0.00262139
0.00220539
0.00172829
0.00118154
0.00057175
5.54789e-05
6.61089e-05
0.000661392
0.00134598
0.00195353
0.00248467
0.00295247
0.00336887
0.00374336
0.00408332
0.00439444
0.00468116
0.00494696
0.00519463
0.0054264
0.00564409
0.00584921
0.00604299
0.0062265
0.00640061
0.00656609
0.0067236
0.00687371
0.00701693
0.00715371
0.00728444
0.0074095
0.0075292
0.00764386
0.00775373
0.00785907
0.00796013
0.0080571
0.00815021
0.00823963
0.00832554
0.00840811
0.00848749
0.00856383
0.00863727
0.00870792
0.00877591
0.00884135
0.00890434
0.00896499