/*--------------------------------*- C++ -*----------------------------------*\
  =========                 |
  \\      /  F ield         | OpenFOAM: The Open Source CFD Toolbox
   \\    /   O peration     | Website:  https://openfoam.org
    \\  /    A nd           | Version:  8
     \\/     M anipulation  |
\*---------------------------------------------------------------------------*/
FoamFile
{
    version     2.0;
    format      ascii;
    class       volScalarField;
    location    "1200";
    object      nut;
}
// * * * * * * * * * * * * * * * * * * * * * * * * * * * * * * * * * * * * * //

dimensions      [0 2 -1 0 0 0 0];

internalField   nonuniform List<scalar> 
48000
(
0.000184275
4.72783e-05
5.26116e-05
6.10522e-05
6.72106e-05
7.23867e-05
7.6962e-05
8.10728e-05
8.48208e-05
8.82938e-05
9.1545e-05
9.46134e-05
9.75276e-05
0.00010031
0.000102976
0.00010554
0.000108012
0.0001104
0.000112711
0.000114949
0.00011712
0.000119227
0.000121273
0.00012326
0.000125191
0.000127067
0.00012889
0.000130661
0.000132382
0.000134054
0.000135677
0.000137254
0.000138783
0.000140268
0.000141708
0.000143104
0.000144456
0.000145767
0.000147036
0.000148264
0.000149452
0.0001506
0.00015171
0.000152782
0.000153816
0.000154814
0.000155775
0.000156701
0.000157593
0.00015845
0.000159273
0.000160064
0.000160822
0.000161548
0.000162243
0.000162907
0.000163541
0.000164145
0.00016472
0.000165266
0.000165782
0.000166275
0.00016674
0.000167179
0.000167592
0.000167979
0.00016834
0.000168676
0.000168988
0.000169275
0.000169539
0.000169779
0.000169996
0.00017019
0.000170361
0.000170511
0.000170639
0.000170745
0.00017083
0.000170895
0.000170939
0.000170962
0.000170966
0.000170951
0.000170916
0.000170861
0.000170789
0.000170697
0.000170587
0.000170459
0.000170314
0.00017015
0.000169969
0.000169771
0.000169556
0.000169325
0.000169076
0.000168812
0.000168531
0.000168234
0.000167921
0.000167592
0.000167248
0.000166888
0.000166513
0.000166122
0.000165717
0.000165296
0.00016486
0.00016441
0.000163945
0.000163465
0.00016297
0.000162461
0.000161937
0.000161399
0.000160846
0.000160278
0.000159696
0.0001591
0.000158488
0.000157862
0.000157222
0.000156566
0.000155896
0.000155211
0.000154511
0.000153796
0.000153066
0.00015232
0.000151559
0.000150783
0.000149991
0.000149183
0.000148359
0.000147519
0.000146664
0.000145791
0.000144903
0.000143998
0.000143076
0.000142137
0.00014118
0.000140207
0.000139216
0.000138208
0.000137181
0.000136137
0.000135075
0.000133994
0.000132895
0.000131777
0.00013064
0.000129484
0.000128309
0.000127114
0.0001259
0.000124666
0.000123412
0.000122137
0.000120842
0.000119527
0.00011819
0.000116832
0.000115453
0.000114052
0.000112629
0.000111183
0.000109715
0.000108224
0.000106709
0.00010517
0.000103606
0.000102017
0.000100401
9.87591e-05
9.70887e-05
9.5389e-05
9.36585e-05
9.18955e-05
9.0098e-05
8.82634e-05
8.63889e-05
8.44711e-05
8.25069e-05
8.04933e-05
7.84397e-05
7.63331e-05
7.41415e-05
7.18482e-05
6.94304e-05
6.68559e-05
6.40815e-05
6.10519e-05
5.77648e-05
5.41285e-05
5.01494e-05
4.35189e-05
0.000224562
0.000151237
0.000184353
4.72527e-05
5.26724e-05
6.10725e-05
6.72156e-05
7.23886e-05
7.69634e-05
8.10742e-05
8.48221e-05
8.82949e-05
9.1546e-05
9.46143e-05
9.75285e-05
0.00010031
0.000102977
0.000105541
0.000108013
0.000110401
0.000112711
0.00011495
0.000117121
0.000119228
0.000121274
0.000123261
0.000125191
0.000127067
0.00012889
0.000130662
0.000132382
0.000134054
0.000135678
0.000137254
0.000138784
0.000140268
0.000141708
0.000143104
0.000144456
0.000145767
0.000147036
0.000148264
0.000149452
0.0001506
0.00015171
0.000152782
0.000153816
0.000154814
0.000155775
0.000156701
0.000157593
0.00015845
0.000159273
0.000160064
0.000160822
0.000161548
0.000162243
0.000162907
0.000163541
0.000164145
0.00016472
0.000165265
0.000165782
0.000166275
0.00016674
0.000167179
0.000167592
0.000167979
0.00016834
0.000168676
0.000168988
0.000169275
0.000169539
0.000169779
0.000169996
0.00017019
0.000170361
0.000170511
0.000170638
0.000170745
0.00017083
0.000170894
0.000170938
0.000170962
0.000170966
0.00017095
0.000170915
0.000170861
0.000170788
0.000170697
0.000170587
0.000170459
0.000170313
0.00017015
0.000169969
0.000169771
0.000169556
0.000169325
0.000169076
0.000168811
0.00016853
0.000168233
0.00016792
0.000167592
0.000167247
0.000166888
0.000166512
0.000166122
0.000165716
0.000165296
0.00016486
0.00016441
0.000163945
0.000163465
0.00016297
0.000162461
0.000161937
0.000161399
0.000160846
0.000160278
0.000159696
0.000159099
0.000158488
0.000157862
0.000157221
0.000156566
0.000155896
0.000155211
0.000154511
0.000153796
0.000153065
0.00015232
0.000151559
0.000150782
0.00014999
0.000149183
0.000148359
0.000147519
0.000146663
0.000145791
0.000144903
0.000143997
0.000143075
0.000142136
0.00014118
0.000140207
0.000139216
0.000138208
0.000137181
0.000136137
0.000135075
0.000133994
0.000132895
0.000131777
0.00013064
0.000129484
0.000128309
0.000127114
0.0001259
0.000124666
0.000123411
0.000122137
0.000120842
0.000119526
0.00011819
0.000116832
0.000115453
0.000114052
0.000112629
0.000111183
0.000109715
0.000108224
0.000106709
0.00010517
0.000103606
0.000102017
0.000100401
9.8759e-05
9.70886e-05
9.53889e-05
9.36585e-05
9.18955e-05
9.00979e-05
8.82634e-05
8.63888e-05
8.44711e-05
8.25069e-05
8.04933e-05
7.84397e-05
7.63331e-05
7.41416e-05
7.18482e-05
6.94304e-05
6.68557e-05
6.40811e-05
6.10508e-05
5.77607e-05
5.41138e-05
5.01151e-05
4.35246e-05
0.000224775
0.000151117
0.000246239
0.000279732
0.00044228
0.000555187
0.000640146
0.000709396
0.000768191
0.000819691
0.000865813
0.000907757
0.000946365
0.000982245
0.00101585
0.00104752
0.00107751
0.00110604
0.00113326
0.00115932
0.00118432
0.00120835
0.00123148
0.00125378
0.0012753
0.00129609
0.00131618
0.00133561
0.00135441
0.00137261
0.00139023
0.00140729
0.00142381
0.00143981
0.00145531
0.00147032
0.00148486
0.00149893
0.00151256
0.00152575
0.00153852
0.00155087
0.00156282
0.00157438
0.00158555
0.00159634
0.00160677
0.00161683
0.00162655
0.00163591
0.00164494
0.00165364
0.00166201
0.00167006
0.00167779
0.00168522
0.00169234
0.00169916
0.00170569
0.00171193
0.00171788
0.00172354
0.00172889
0.00173385
0.00173853
0.00174295
0.00174713
0.00175105
0.00175473
0.00175818
0.00176138
0.00176436
0.0017671
0.00176961
0.0017719
0.00177397
0.00177582
0.00177745
0.00177887
0.00178007
0.00178107
0.00178186
0.00178245
0.00178283
0.00178302
0.00178301
0.0017828
0.0017824
0.00178181
0.00178103
0.00178007
0.00177892
0.00177759
0.00177608
0.00177439
0.00177253
0.00177049
0.00176827
0.00176589
0.00176333
0.00176061
0.00175773
0.00175467
0.00175145
0.00174807
0.00174453
0.00174083
0.00173697
0.00173295
0.00172878
0.00172444
0.00171995
0.00171531
0.00171051
0.00170555
0.00170045
0.00169518
0.00168977
0.00168419
0.00167847
0.00167259
0.00166655
0.00166036
0.00165402
0.00164751
0.00164085
0.00163404
0.00162706
0.00161993
0.00161263
0.00160518
0.00159756
0.00158977
0.00158183
0.00157372
0.00156544
0.00155699
0.00154837
0.00153958
0.00153062
0.00152148
0.00151217
0.00150268
0.00149301
0.00148316
0.00147313
0.00146291
0.00145251
0.00144193
0.00143115
0.00142018
0.00140902
0.00139767
0.00138612
0.00137438
0.00136243
0.00135028
0.00133793
0.00132537
0.00131261
0.00129963
0.00128644
0.00127304
0.00125942
0.00124558
0.00123152
0.00121723
0.00120271
0.00118796
0.00117297
0.00115774
0.00114226
0.00112653
0.00111054
0.00109427
0.00107773
0.00106091
0.00104378
0.00102634
0.00100856
0.000990435
0.000971931
0.000953019
0.000933663
0.000913814
0.000893411
0.000872368
0.000850561
0.000827789
0.000803929
0.000778904
0.000752519
0.000724446
0.000694184
0.000660933
0.000623186
0.00057776
0.000521712
0.000443914
0.000318655
0.000258831
0.000161722
0.000245998
0.000280237
0.000442329
0.000555305
0.000640235
0.000709465
0.000768253
0.000819751
0.000865871
0.000907813
0.000946419
0.000982299
0.0010159
0.00104757
0.00107756
0.00110608
0.00113331
0.00115937
0.00118437
0.00120839
0.00123153
0.00125382
0.00127534
0.00129613
0.00131622
0.00133565
0.00135445
0.00137265
0.00139026
0.00140732
0.00142384
0.00143984
0.00145534
0.00147035
0.00148489
0.00149896
0.00151259
0.00152578
0.00153855
0.0015509
0.00156285
0.0015744
0.00158557
0.00159637
0.00160679
0.00161686
0.00162657
0.00163594
0.00164496
0.00165366
0.00166203
0.00167008
0.00167781
0.00168524
0.00169236
0.00169918
0.00170571
0.00171195
0.0017179
0.00172356
0.00172891
0.00173387
0.00173855
0.00174297
0.00174714
0.00175107
0.00175475
0.00175819
0.0017614
0.00176437
0.00176711
0.00176963
0.00177192
0.00177399
0.00177583
0.00177746
0.00177888
0.00178009
0.00178109
0.00178188
0.00178246
0.00178285
0.00178303
0.00178302
0.00178281
0.00178241
0.00178182
0.00178105
0.00178008
0.00177893
0.0017776
0.00177609
0.0017744
0.00177254
0.0017705
0.00176829
0.0017659
0.00176335
0.00176063
0.00175774
0.00175468
0.00175147
0.00174809
0.00174455
0.00174084
0.00173698
0.00173296
0.00172879
0.00172446
0.00171997
0.00171532
0.00171052
0.00170557
0.00170046
0.00169519
0.00168978
0.0016842
0.00167848
0.0016726
0.00166656
0.00166037
0.00165403
0.00164752
0.00164086
0.00163405
0.00162707
0.00161994
0.00161264
0.00160519
0.00159757
0.00158978
0.00158184
0.00157373
0.00156545
0.001557
0.00154838
0.00153959
0.00153063
0.00152149
0.00151218
0.00150269
0.00149302
0.00148317
0.00147314
0.00146292
0.00145252
0.00144194
0.00143116
0.00142019
0.00140903
0.00139768
0.00138613
0.00137438
0.00136244
0.00135029
0.00133794
0.00132538
0.00131262
0.00129964
0.00128645
0.00127305
0.00125943
0.00124559
0.00123153
0.00121724
0.00120272
0.00118797
0.00117298
0.00115775
0.00114227
0.00112654
0.00111054
0.00109428
0.00107774
0.00106092
0.00104379
0.00102635
0.00100857
0.000990444
0.00097194
0.000953028
0.000933672
0.000913823
0.000893421
0.000872377
0.00085057
0.000827798
0.000803938
0.000778913
0.000752527
0.000724454
0.000694191
0.000660939
0.000623197
0.000577799
0.000521894
0.000444523
0.000319091
0.000259214
0.000161561
4.59474e-05
0.000339243
0.000727013
0.000998341
0.00120215
0.00136839
0.00150983
0.00163343
0.00174351
0.00184296
0.00193384
0.00201762
0.00209546
0.00216819
0.00223652
0.00230098
0.00236201
0.00241996
0.00247514
0.00252779
0.00257813
0.00262633
0.00267255
0.00271693
0.00275957
0.00280059
0.00284007
0.0028781
0.00291476
0.0029501
0.0029842
0.0030171
0.00304887
0.00307954
0.00310916
0.00313777
0.00316541
0.00319212
0.00321792
0.00324285
0.00326694
0.00329021
0.00331269
0.0033344
0.00335536
0.0033756
0.00339513
0.00341397
0.00343213
0.00344964
0.0034665
0.00348273
0.00349834
0.00351335
0.00352776
0.00354159
0.00355484
0.00356752
0.00357964
0.00359119
0.00360216
0.00361252
0.00362227
0.00363148
0.0036402
0.00364843
0.00365617
0.00366343
0.00367023
0.00367656
0.00368243
0.00368785
0.00369281
0.00369733
0.00370142
0.00370507
0.00370828
0.00371108
0.00371345
0.00371541
0.00371695
0.00371809
0.00371882
0.00371916
0.0037191
0.00371864
0.00371781
0.00371659
0.00371499
0.00371301
0.00371066
0.00370795
0.00370487
0.00370143
0.00369764
0.00369349
0.00368899
0.00368414
0.00367895
0.00367341
0.00366754
0.00366133
0.00365479
0.00364791
0.00364071
0.00363317
0.00362531
0.00361713
0.00360862
0.00359979
0.00359064
0.00358116
0.00357137
0.00356126
0.00355083
0.00354008
0.00352901
0.00351763
0.00350592
0.00349389
0.00348154
0.00346887
0.00345587
0.00344254
0.00342889
0.00341492
0.00340061
0.00338596
0.00337099
0.00335567
0.00334002
0.00332402
0.00330768
0.00329099
0.00327395
0.00325656
0.00323881
0.0032207
0.00320222
0.00318338
0.00316417
0.00314459
0.00312463
0.00310429
0.00308356
0.00306244
0.00304093
0.00301903
0.00299672
0.002974
0.00295088
0.00292734
0.00290337
0.00287899
0.00285417
0.00282891
0.00280321
0.00277706
0.00275045
0.00272338
0.00269584
0.00266782
0.0026393
0.00261029
0.00258076
0.00255071
0.00252013
0.00248899
0.00245728
0.00242498
0.00239207
0.00235853
0.00232433
0.00228943
0.00225381
0.00221741
0.00218019
0.00214209
0.00210305
0.00206298
0.00202179
0.00197936
0.00193554
0.00189015
0.00184296
0.00179367
0.00174191
0.00168725
0.00162921
0.00156704
0.0014997
0.0014257
0.00134288
0.00124787
0.00113542
0.000998613
0.000823276
0.000577523
0.000255578
3.19365e-05
4.5935e-05
0.000339347
0.000726078
0.000998138
0.00120223
0.00136851
0.00150997
0.00163356
0.00174364
0.00184309
0.00193396
0.00201774
0.00209557
0.0021683
0.00223663
0.00230108
0.0023621
0.00242005
0.00247523
0.00252788
0.00257821
0.00262641
0.00267263
0.002717
0.00275964
0.00280066
0.00284014
0.00287816
0.00291482
0.00295016
0.00298425
0.00301715
0.00304891
0.00307958
0.0031092
0.00313781
0.00316545
0.00319215
0.00321795
0.00324288
0.00326697
0.00329024
0.00331272
0.00333442
0.00335539
0.00337562
0.00339515
0.00341398
0.00343215
0.00344965
0.00346651
0.00348274
0.00349836
0.00351336
0.00352778
0.0035416
0.00355485
0.00356753
0.00357965
0.0035912
0.00360217
0.00361253
0.00362228
0.00363149
0.0036402
0.00364843
0.00365617
0.00366344
0.00367023
0.00367656
0.00368243
0.00368785
0.00369281
0.00369734
0.00370142
0.00370507
0.00370828
0.00371108
0.00371345
0.00371541
0.00371695
0.00371809
0.00371882
0.00371915
0.00371909
0.00371864
0.0037178
0.00371658
0.00371498
0.00371301
0.00371066
0.00370795
0.00370487
0.00370143
0.00369763
0.00369349
0.00368898
0.00368414
0.00367894
0.00367341
0.00366754
0.00366133
0.00365478
0.00364791
0.0036407
0.00363317
0.00362531
0.00361712
0.00360861
0.00359978
0.00359063
0.00358116
0.00357137
0.00356126
0.00355083
0.00354008
0.00352901
0.00351762
0.00350591
0.00349388
0.00348153
0.00346886
0.00345586
0.00344254
0.00342889
0.00341491
0.0034006
0.00338596
0.00337098
0.00335566
0.00334001
0.00332401
0.00330767
0.00329098
0.00327394
0.00325655
0.0032388
0.00322069
0.00320221
0.00318337
0.00316416
0.00314458
0.00312462
0.00310428
0.00308355
0.00306243
0.00304092
0.00301902
0.00299671
0.00297399
0.00295087
0.00292733
0.00290336
0.00287898
0.00285416
0.0028289
0.0028032
0.00277705
0.00275044
0.00272337
0.00269583
0.00266781
0.00263929
0.00261028
0.00258075
0.0025507
0.00252012
0.00248898
0.00245727
0.00242497
0.00239207
0.00235852
0.00232432
0.00228943
0.0022538
0.0022174
0.00218018
0.00214209
0.00210304
0.00206298
0.00202178
0.00197935
0.00193553
0.00189015
0.00184296
0.00179367
0.0017419
0.00168724
0.00162921
0.00156704
0.0014997
0.00142569
0.00134288
0.00124787
0.00113544
0.000998782
0.000823955
0.000578692
0.000255501
3.19578e-05
5.31096e-05
0.000491133
0.000953922
0.00132875
0.00163525
0.00189342
0.0021163
0.00231245
0.00248773
0.00264629
0.00279114
0.00292455
0.00304824
0.00316356
0.0032716
0.00337322
0.00346912
0.00355989
0.00364603
0.00372794
0.00380598
0.00388046
0.00395163
0.00401973
0.00408496
0.0041475
0.00420751
0.00426515
0.00432054
0.0043738
0.00442505
0.00447438
0.00452188
0.00456765
0.00461176
0.00465429
0.0046953
0.00473485
0.00477302
0.00480984
0.00484537
0.00487966
0.00491275
0.00494469
0.0049755
0.00500523
0.00503391
0.00506157
0.00508824
0.00511393
0.00513869
0.00516252
0.00518545
0.0052075
0.00522869
0.00524903
0.00526853
0.00528721
0.00530508
0.00532213
0.00533838
0.0053538
0.00536841
0.00538219
0.00539525
0.0054076
0.00541924
0.0054302
0.00544047
0.00545006
0.00545899
0.00546726
0.00547487
0.00548184
0.00548818
0.00549388
0.00549895
0.00550341
0.00550726
0.0055105
0.00551314
0.00551519
0.00551665
0.00551753
0.00551783
0.00551756
0.00551673
0.00551534
0.00551339
0.0055109
0.00550787
0.0055043
0.0055002
0.00549556
0.00549041
0.00548474
0.00547856
0.00547187
0.00546467
0.00545697
0.00544878
0.00544009
0.00543091
0.00542125
0.0054111
0.00540047
0.00538937
0.00537778
0.00536573
0.0053532
0.00534019
0.00532672
0.00531278
0.00529837
0.00528349
0.00526814
0.00525232
0.00523603
0.00521928
0.00520205
0.00518434
0.00516616
0.00514751
0.00512837
0.00510875
0.00508865
0.00506806
0.00504699
0.00502541
0.00500334
0.00498077
0.00495769
0.00493411
0.00491001
0.00488539
0.00486025
0.00483458
0.00480837
0.00478163
0.00475434
0.00472651
0.00469812
0.00466916
0.00463964
0.00460954
0.00457887
0.0045476
0.00451574
0.00448327
0.00445019
0.00441649
0.00438216
0.0043472
0.00431158
0.00427531
0.00423837
0.00420074
0.00416242
0.0041234
0.00408365
0.00404317
0.00400193
0.00395991
0.0039171
0.00387348
0.00382901
0.00378368
0.00373744
0.00369027
0.00364213
0.00359297
0.00354275
0.00349141
0.00343889
0.00338512
0.00333001
0.00327347
0.00321539
0.00315563
0.00309406
0.00303047
0.00296465
0.00289634
0.00282521
0.00275084
0.00267274
0.00259027
0.00250267
0.00240895
0.00230782
0.0021975
0.00207559
0.00193876
0.00178235
0.00159987
0.00138227
0.00111633
0.000780123
0.000358277
3.12053e-05
5.31506e-05
0.000490731
0.000953555
0.00132873
0.00163539
0.00189361
0.00211649
0.00231264
0.00248792
0.00264648
0.00279133
0.00292472
0.00304841
0.00316373
0.00327176
0.00337337
0.00346927
0.00356003
0.00364617
0.00372807
0.00380611
0.00388057
0.00395174
0.00401983
0.00408506
0.00414759
0.0042076
0.00426524
0.00432062
0.00437388
0.00442512
0.00447444
0.00452195
0.00456771
0.00461182
0.00465434
0.00469534
0.0047349
0.00477306
0.00480987
0.0048454
0.00487969
0.00491278
0.00494471
0.00497553
0.00500526
0.00503393
0.00506159
0.00508825
0.00511395
0.0051387
0.00516253
0.00518546
0.00520751
0.00522869
0.00524903
0.00526853
0.00528721
0.00530508
0.00532213
0.00533838
0.0053538
0.0053684
0.00538219
0.00539525
0.00540759
0.00541924
0.00543019
0.00544046
0.00545005
0.00545898
0.00546725
0.00547486
0.00548183
0.00548816
0.00549386
0.00549894
0.0055034
0.00550724
0.00551048
0.00551312
0.00551517
0.00551663
0.00551751
0.00551781
0.00551754
0.00551671
0.00551532
0.00551338
0.00551088
0.00550785
0.00550428
0.00550018
0.00549555
0.00549039
0.00548472
0.00547854
0.00547185
0.00546465
0.00545695
0.00544876
0.00544007
0.00543089
0.00542123
0.00541108
0.00540045
0.00538935
0.00537776
0.0053657
0.00535317
0.00534017
0.0053267
0.00531276
0.00529835
0.00528347
0.00526812
0.0052523
0.00523601
0.00521925
0.00520202
0.00518432
0.00516614
0.00514748
0.00512835
0.00510873
0.00508863
0.00506804
0.00504696
0.00502539
0.00500332
0.00498075
0.00495767
0.00493408
0.00490998
0.00488536
0.00486022
0.00483455
0.00480835
0.00478161
0.00475432
0.00472648
0.00469809
0.00466914
0.00463961
0.00460952
0.00457884
0.00454757
0.00451571
0.00448324
0.00445016
0.00441646
0.00438214
0.00434717
0.00431155
0.00427528
0.00423834
0.00420071
0.0041624
0.00412337
0.00408362
0.00404314
0.0040019
0.00395989
0.00391708
0.00387345
0.00382899
0.00378365
0.00373742
0.00369025
0.0036421
0.00359295
0.00354273
0.00349139
0.00343887
0.00338509
0.00332999
0.00327345
0.00321536
0.00315561
0.00309403
0.00303045
0.00296463
0.00289632
0.00282519
0.00275082
0.00267272
0.00259025
0.00250265
0.00240894
0.00230781
0.00219749
0.00207558
0.00193874
0.00178233
0.00159987
0.00138233
0.00111649
0.000780142
0.000357819
3.12198e-05
5.75476e-05
0.00056384
0.0011136
0.00157934
0.00197306
0.00231147
0.00260732
0.00286983
0.00310569
0.00331981
0.00351588
0.00369672
0.00386453
0.00402103
0.00416763
0.00430546
0.00443544
0.00455837
0.00467488
0.00478555
0.00489084
0.00499117
0.00508691
0.00517837
0.00526583
0.00534955
0.00542975
0.00550665
0.00558042
0.00565123
0.00571925
0.00578463
0.00584748
0.00590794
0.00596612
0.00602214
0.00607607
0.00612803
0.00617809
0.00622634
0.00627285
0.00631768
0.00636091
0.00640258
0.00644277
0.00648151
0.00651886
0.00655486
0.00658954
0.00662296
0.00665514
0.00668612
0.00671592
0.00674457
0.0067721
0.00679854
0.00682389
0.00684818
0.00687142
0.00689363
0.0069148
0.00693496
0.00695409
0.00697222
0.00698936
0.00700558
0.0070209
0.00703533
0.00704887
0.00706156
0.00707338
0.00708436
0.0070945
0.00710381
0.0071123
0.00711998
0.00712686
0.00713294
0.00713824
0.00714277
0.00714652
0.00714951
0.00715175
0.00715325
0.007154
0.00715402
0.00715332
0.00715191
0.00714978
0.00714695
0.00714343
0.00713921
0.00713432
0.00712874
0.0071225
0.0071156
0.00710803
0.00709981
0.00709095
0.00708144
0.0070713
0.00706052
0.00704912
0.00703709
0.00702444
0.00701117
0.00699729
0.0069828
0.0069677
0.00695199
0.00693568
0.00691876
0.00690124
0.00688312
0.0068644
0.00684507
0.00682514
0.00680461
0.00678347
0.00676173
0.00673938
0.00671642
0.00669284
0.00666865
0.00664384
0.0066184
0.00659234
0.00656565
0.00653832
0.00651035
0.00648173
0.00645246
0.00642253
0.00639194
0.00636068
0.00632874
0.00629612
0.00626281
0.0062288
0.00619408
0.00615864
0.00612249
0.0060856
0.00604797
0.00600959
0.00597045
0.00593054
0.00588984
0.00584836
0.00580606
0.00576295
0.005719
0.00567421
0.00562855
0.00558202
0.00553459
0.00548625
0.00543697
0.00538674
0.00533553
0.00528332
0.00523008
0.00517578
0.00512038
0.00506385
0.00500616
0.00494726
0.00488709
0.00482561
0.00476276
0.00469847
0.00463265
0.00456524
0.00449612
0.00442519
0.00435232
0.00427737
0.00420016
0.0041205
0.00403815
0.00395284
0.00386424
0.00377195
0.0036755
0.00357428
0.00346759
0.00335452
0.00323396
0.00310451
0.00296433
0.00281106
0.00264159
0.00245183
0.00223639
0.0019882
0.00169802
0.00135404
0.000942869
0.000463887
4.67087e-05
5.75575e-05
0.000563808
0.00111362
0.00157947
0.00197325
0.00231169
0.00260755
0.00287007
0.00310593
0.00332004
0.00351611
0.00369695
0.00386475
0.00402125
0.00416784
0.00430566
0.00443564
0.00455855
0.00467506
0.00478572
0.004891
0.00499133
0.00508706
0.00517851
0.00526596
0.00534968
0.00542987
0.00550676
0.00558052
0.00565133
0.00571935
0.00578471
0.00584756
0.00590802
0.0059662
0.0060222
0.00607614
0.00612809
0.00617815
0.00622639
0.00627289
0.00631772
0.00636094
0.00640262
0.0064428
0.00648154
0.00651888
0.00655488
0.00658956
0.00662298
0.00665516
0.00668613
0.00671593
0.00674458
0.00677211
0.00679854
0.00682389
0.00684818
0.00687142
0.00689362
0.0069148
0.00693495
0.00695409
0.00697221
0.00698935
0.00700557
0.00702088
0.00703531
0.00704886
0.00706154
0.00707336
0.00708434
0.00709448
0.00710379
0.00711228
0.00711996
0.00712684
0.00713292
0.00713822
0.00714275
0.0071465
0.00714949
0.00715173
0.00715322
0.00715398
0.007154
0.0071533
0.00715188
0.00714976
0.00714693
0.0071434
0.00713919
0.00713429
0.00712872
0.00712247
0.00711557
0.007108
0.00709979
0.00709092
0.00708141
0.00707127
0.00706049
0.00704909
0.00703706
0.00702441
0.00701114
0.00699726
0.00698277
0.00696767
0.00695196
0.00693565
0.00691873
0.00690121
0.00688309
0.00686436
0.00684504
0.00682511
0.00680458
0.00678344
0.0067617
0.00673935
0.00671638
0.00669281
0.00666862
0.00664381
0.00661837
0.00659231
0.00656561
0.00653828
0.00651031
0.0064817
0.00645243
0.0064225
0.00639191
0.00636065
0.00632871
0.00629609
0.00626277
0.00622876
0.00619404
0.00615861
0.00612245
0.00608557
0.00604794
0.00600956
0.00597042
0.0059305
0.00588981
0.00584832
0.00580603
0.00576291
0.00571897
0.00567417
0.00562852
0.00558198
0.00553456
0.00548621
0.00543694
0.00538671
0.0053355
0.00528329
0.00523004
0.00517574
0.00512035
0.00506382
0.00500613
0.00494722
0.00488706
0.00482558
0.00476273
0.00469843
0.00463262
0.00456521
0.00449609
0.00442516
0.00435229
0.00427734
0.00420013
0.00412047
0.00403812
0.00395281
0.00386421
0.00377193
0.00367547
0.00357426
0.00346756
0.0033545
0.00323394
0.00310449
0.00296431
0.00281104
0.00264157
0.00245181
0.00223636
0.00198819
0.00169805
0.00135417
0.00094294
0.000463736
4.66625e-05
6.17937e-05
0.000614782
0.00123655
0.00177805
0.00224492
0.00265185
0.00301119
0.00333238
0.00362253
0.00388703
0.00412999
0.00435463
0.00456347
0.00475853
0.00494145
0.00511356
0.00527597
0.00542961
0.00557526
0.0057136
0.00584521
0.00597058
0.00609016
0.00620434
0.00631347
0.00641786
0.00651779
0.00661352
0.00670529
0.0067933
0.00687776
0.00695885
0.00703674
0.00711159
0.00718354
0.00725274
0.00731932
0.00738338
0.00744505
0.00750442
0.0075616
0.00761667
0.00766972
0.00772083
0.00777007
0.00781751
0.00786321
0.00790723
0.00794962
0.00799044
0.00802973
0.00806753
0.00810389
0.00813883
0.0081724
0.00820462
0.00823553
0.00826513
0.00829347
0.00832055
0.0083464
0.00837101
0.00839442
0.00841663
0.00843766
0.00845754
0.00847633
0.00849405
0.0085107
0.0085263
0.00854086
0.00855441
0.00856694
0.00857847
0.00858902
0.00859859
0.00860719
0.00861484
0.00862154
0.00862731
0.00863216
0.00863609
0.00863911
0.00864124
0.00864248
0.00864284
0.00864234
0.00864097
0.00863876
0.0086357
0.0086318
0.00862709
0.00862155
0.0086152
0.00860805
0.0086001
0.00859137
0.00858185
0.00857156
0.00856049
0.00854867
0.00853609
0.00852275
0.00850867
0.00849385
0.00847829
0.00846199
0.00844496
0.0084272
0.00840872
0.00838951
0.00836958
0.00834892
0.00832755
0.00830546
0.00828264
0.00825911
0.00823485
0.00820986
0.00818415
0.00815772
0.00813055
0.00810264
0.008074
0.00804461
0.00801448
0.00798359
0.00795195
0.00791954
0.00788636
0.0078524
0.00781766
0.00778213
0.0077458
0.00770866
0.0076707
0.00763192
0.0075923
0.00755184
0.00751052
0.00746834
0.00742528
0.00738133
0.00733648
0.00729071
0.00724401
0.00719638
0.00714778
0.00709821
0.00704765
0.00699608
0.00694349
0.00688985
0.00683514
0.00677934
0.00672243
0.00666438
0.00660516
0.00654474
0.00648309
0.00642018
0.00635596
0.0062904
0.00622345
0.00615506
0.00608517
0.00601372
0.00594065
0.00586589
0.00578934
0.00571092
0.00563052
0.00554802
0.0054633
0.0053762
0.00528654
0.00519413
0.00509874
0.00500011
0.00489792
0.0047918
0.00468131
0.00456595
0.00444507
0.00431791
0.00418355
0.00404083
0.00388834
0.0037243
0.00354647
0.003352
0.00313728
0.0028977
0.00262745
0.00231924
0.00196412
0.00155153
0.00107099
0.000524537
5.17452e-05
6.17969e-05
0.000614825
0.00123666
0.00177822
0.00224513
0.00265209
0.00301145
0.00333265
0.0036228
0.0038873
0.00413026
0.00435489
0.00456373
0.00475878
0.00494169
0.00511379
0.00527619
0.00542983
0.00557547
0.00571381
0.0058454
0.00597077
0.00609034
0.00620451
0.00631363
0.00641802
0.00651794
0.00661366
0.00670542
0.00679342
0.00687787
0.00695896
0.00703684
0.00711169
0.00718364
0.00725283
0.0073194
0.00738345
0.00744512
0.00750448
0.00756166
0.00761673
0.00766977
0.00772088
0.00777011
0.00781755
0.00786324
0.00790726
0.00794965
0.00799046
0.00802975
0.00806755
0.0081039
0.00813884
0.00817241
0.00820463
0.00823553
0.00826514
0.00829347
0.00832055
0.00834639
0.00837101
0.00839441
0.00841662
0.00843765
0.00845753
0.00847632
0.00849403
0.00851068
0.00852628
0.00854085
0.00855439
0.00856692
0.00857845
0.008589
0.00859857
0.00860717
0.00861482
0.00862152
0.00862729
0.00863213
0.00863606
0.00863909
0.00864121
0.00864245
0.00864282
0.00864231
0.00864095
0.00863873
0.00863567
0.00863178
0.00862706
0.00862152
0.00861517
0.00860802
0.00860007
0.00859134
0.00858182
0.00857153
0.00856046
0.00854864
0.00853606
0.00852272
0.00850864
0.00849382
0.00847825
0.00846196
0.00844493
0.00842717
0.00840868
0.00838948
0.00836954
0.00834889
0.00832752
0.00830542
0.00828261
0.00825907
0.00823481
0.00820983
0.00818412
0.00815768
0.00813051
0.00810261
0.00807396
0.00804458
0.00801444
0.00798356
0.00795191
0.0079195
0.00788632
0.00785237
0.00781762
0.00778209
0.00774576
0.00770862
0.00767066
0.00763188
0.00759227
0.0075518
0.00751049
0.0074683
0.00742524
0.00738129
0.00733644
0.00729067
0.00724398
0.00719634
0.00714774
0.00709817
0.00704761
0.00699605
0.00694345
0.00688981
0.0068351
0.0067793
0.00672239
0.00666434
0.00660512
0.0065447
0.00648305
0.00642014
0.00635592
0.00629036
0.00622341
0.00615502
0.00608513
0.00601369
0.00594062
0.00586585
0.00578931
0.00571089
0.00563049
0.00554799
0.00546327
0.00537616
0.00528651
0.0051941
0.00509871
0.00500008
0.00489788
0.00479177
0.00468128
0.00456592
0.00444504
0.00431788
0.00418352
0.0040408
0.00388831
0.00372428
0.00354645
0.00335198
0.00313726
0.00289768
0.00262743
0.00231922
0.00196411
0.00155154
0.00107095
0.000524461
5.17339e-05
6.57428e-05
0.000657697
0.00133845
0.00194259
0.00247076
0.00293596
0.00335004
0.00372246
0.00406055
0.00436995
0.00465509
0.00491943
0.00516574
0.00539623
0.00561273
0.00581673
0.00600945
0.00619195
0.00636511
0.00652969
0.00668633
0.00683562
0.00697806
0.00711409
0.00724412
0.00736849
0.00748754
0.00760157
0.00771084
0.00781561
0.00791612
0.00801256
0.00810516
0.00819409
0.00827954
0.00836166
0.00844061
0.00851653
0.00858956
0.00865982
0.00872744
0.00879253
0.00885518
0.00891549
0.00897356
0.00902947
0.0090833
0.00913511
0.00918498
0.00923297
0.00927914
0.00932354
0.00936622
0.00940724
0.00944662
0.00948441
0.00952064
0.00955535
0.00958857
0.00962032
0.00965063
0.00967952
0.009707
0.0097331
0.00975783
0.00978122
0.00980332
0.00982417
0.00984378
0.00986216
0.00987934
0.00989533
0.00991015
0.0099238
0.00993631
0.00994769
0.00995795
0.0099671
0.00997515
0.00998213
0.00998804
0.00999289
0.00999669
0.00999946
0.0100012
0.0100019
0.0100017
0.0100004
0.00999816
0.00999495
0.00999078
0.00998565
0.00997958
0.00997258
0.00996466
0.00995582
0.00994608
0.00993543
0.0099239
0.00991148
0.00989818
0.00988402
0.00986899
0.0098531
0.00983636
0.00981877
0.00980034
0.00978107
0.00976096
0.00974002
0.00971824
0.00969564
0.00967221
0.00964796
0.00962287
0.00959696
0.00957022
0.00954266
0.00951426
0.00948503
0.00945496
0.00942405
0.00939229
0.00935969
0.00932624
0.00929192
0.00925674
0.00922069
0.00918375
0.00914593
0.00910722
0.00906759
0.00902706
0.0089856
0.00894321
0.00889988
0.00885559
0.00881033
0.00876409
0.00871686
0.00866863
0.00861937
0.00856908
0.00851773
0.00846531
0.00841181
0.00835721
0.00830148
0.00824461
0.00818657
0.00812735
0.00806691
0.00800524
0.00794229
0.00787806
0.0078125
0.00774558
0.00767726
0.00760751
0.00753628
0.00746353
0.00738921
0.00731327
0.00723564
0.00715626
0.00707506
0.00699197
0.00690689
0.00681973
0.00673039
0.00663875
0.00654468
0.00644802
0.00634861
0.00624626
0.00614075
0.00603183
0.00591922
0.00580259
0.00568154
0.00555563
0.00542431
0.00528695
0.00514278
0.00499087
0.00483011
0.00465912
0.00447624
0.00427937
0.00406595
0.00383276
0.0035758
0.00329013
0.00296964
0.00260692
0.00219322
0.00171875
0.00117502
0.000568594
5.51727e-05
6.5745e-05
0.000657751
0.00133857
0.00194277
0.00247099
0.00293621
0.00335032
0.00372275
0.00406084
0.00437024
0.00465538
0.00491972
0.00516602
0.00539651
0.00561301
0.00581699
0.00600971
0.0061922
0.00636535
0.00652992
0.00668656
0.00683584
0.00697827
0.00711429
0.0072443
0.00736867
0.00748771
0.00760173
0.007711
0.00781576
0.00791625
0.00801269
0.00810528
0.00819421
0.00827964
0.00836176
0.0084407
0.00851662
0.00858964
0.0086599