/*--------------------------------*- C++ -*----------------------------------*\
  =========                 |
  \\      /  F ield         | OpenFOAM: The Open Source CFD Toolbox
   \\    /   O peration     | Website:  https://openfoam.org
    \\  /    A nd           | Version:  8
     \\/     M anipulation  |
\*---------------------------------------------------------------------------*/
FoamFile
{
    version     2.0;
    format      ascii;
    class       surfaceScalarField;
    location    "1200";
    object      phi;
}
// * * * * * * * * * * * * * * * * * * * * * * * * * * * * * * * * * * * * * //

dimensions      [1 0 -1 0 0 0 0];

internalField   nonuniform List<scalar> 
119360
(
-1.22587e-07
-3.14179e-11
1.2262e-07
-2.01656e-07
-1.67249e-11
7.91987e-08
-2.22309e-07
-2.3273e-11
2.07358e-08
-1.88295e-07
-2.35495e-11
-3.39057e-08
-1.1953e-07
-1.92753e-11
-6.86573e-08
-2.93258e-08
-1.69419e-11
-9.0107e-08
7.35598e-08
-1.52362e-11
-1.02795e-07
1.83296e-07
-1.33266e-11
-1.09652e-07
2.96281e-07
-1.17518e-11
-1.12908e-07
4.1027e-07
-1.0925e-11
-1.13918e-07
5.2382e-07
-1.03731e-11
-1.13486e-07
6.36003e-07
-9.78931e-12
-1.12123e-07
7.46212e-07
-9.20456e-12
-1.10154e-07
8.54054e-07
-8.62158e-12
-1.07789e-07
9.59273e-07
-8.03327e-12
-1.05166e-07
1.0617e-06
-7.50903e-12
-1.02375e-07
1.16122e-06
-7.05323e-12
-9.94758e-08
1.25778e-06
-6.54641e-12
-9.6507e-08
1.35132e-06
-5.91941e-12
-9.34949e-08
1.44183e-06
-5.27327e-12
-9.04571e-08
1.52928e-06
-4.75457e-12
-8.74059e-08
1.61367e-06
-4.39075e-12
-8.43499e-08
1.695e-06
-4.10257e-12
-8.12955e-08
1.77329e-06
-3.84175e-12
-7.82477e-08
1.84854e-06
-3.64654e-12
-7.52113e-08
1.92077e-06
-3.5595e-12
-7.21906e-08
1.98999e-06
-3.53522e-12
-6.91899e-08
2.05624e-06
-3.46322e-12
-6.62132e-08
2.11954e-06
-3.26702e-12
-6.32644e-08
2.17992e-06
-2.97214e-12
-6.03478e-08
2.23743e-06
-2.67141e-12
-5.74681e-08
2.29209e-06
-2.43477e-12
-5.46296e-08
2.34396e-06
-2.25494e-12
-5.18368e-08
2.39309e-06
-2.07247e-12
-4.90937e-08
2.43953e-06
-1.84482e-12
-4.64041e-08
2.48333e-06
-1.5938e-12
-4.37716e-08
2.52457e-06
-1.39016e-12
-4.11997e-08
2.56329e-06
-1.29385e-12
-3.86916e-08
2.59956e-06
-1.3047e-12
-3.62499e-08
2.63347e-06
-1.35868e-12
-3.38769e-08
2.66507e-06
-1.37093e-12
-3.1574e-08
2.69444e-06
-1.29124e-12
-2.93425e-08
2.72164e-06
-1.12976e-12
-2.71833e-08
2.74677e-06
-9.41575e-13
-2.50971e-08
2.76987e-06
-7.86977e-13
-2.30842e-08
2.79104e-06
-6.94468e-13
-2.11447e-08
2.81034e-06
-6.50669e-13
-1.92784e-08
2.82784e-06
-6.18057e-13
-1.74846e-08
2.84363e-06
-5.63573e-13
-1.57622e-08
2.85775e-06
-4.81361e-13
-1.41102e-08
2.8703e-06
-3.9321e-13
-1.25271e-08
2.88133e-06
-3.33785e-13
-1.10117e-08
2.8909e-06
-3.27124e-13
-9.56228e-09
2.89909e-06
-3.72699e-13
-8.17724e-09
2.90596e-06
-4.44947e-13
-6.85468e-09
2.91157e-06
-5.07591e-13
-5.59259e-09
2.91597e-06
-5.30684e-13
-4.38884e-09
2.91922e-06
-5.04983e-13
-3.24128e-09
2.92138e-06
-4.45836e-13
-2.14776e-09
2.9225e-06
-3.84135e-13
-1.10608e-09
2.92262e-06
-3.53021e-13
-1.13371e-10
2.9218e-06
-3.73838e-13
8.31554e-10
2.92008e-06
-4.48306e-13
1.72904e-09
2.91751e-06
-5.57886e-13
2.58123e-09
2.91413e-06
-6.73599e-13
3.39058e-09
2.90999e-06
-7.64748e-13
4.15936e-09
2.90511e-06
-8.10795e-13
4.8897e-09
2.89954e-06
-8.07991e-13
5.58355e-09
2.89331e-06
-7.67912e-13
6.24274e-09
2.88646e-06
-7.14067e-13
6.86897e-09
2.87901e-06
-6.72267e-13
7.46381e-09
2.871e-06
-6.64606e-13
8.02878e-09
2.86245e-06
-7.01521e-13
8.56533e-09
2.85339e-06
-7.81208e-13
9.07487e-09
2.84385e-06
-8.90287e-13
9.55884e-09
2.83385e-06
-1.00825e-12
1.00186e-08
2.82342e-06
-1.11269e-12
1.04557e-08
2.81257e-06
-1.18483e-12
1.08713e-08
2.80133e-06
-1.21303e-12
1.12669e-08
2.78971e-06
-1.19443e-12
1.16437e-08
2.77773e-06
-1.1344e-12
1.20028e-08
2.76541e-06
-1.04494e-12
1.23453e-08
2.75277e-06
-9.41163e-13
1.26723e-08
2.73981e-06
-8.37941e-13
1.29845e-08
2.72656e-06
-7.48151e-13
1.3283e-08
2.71301e-06
-6.79817e-13
1.35684e-08
2.6992e-06
-6.36185e-13
1.38416e-08
2.68512e-06
-6.15757e-13
1.41031e-08
2.67079e-06
-6.13731e-13
1.43539e-08
2.65622e-06
-6.22613e-13
1.45944e-08
2.64142e-06
-6.34825e-13
1.48254e-08
2.6264e-06
-6.42958e-13
1.50474e-08
2.61116e-06
-6.41431e-13
1.52611e-08
2.59572e-06
-6.26776e-13
1.5467e-08
2.58008e-06
-5.97633e-13
1.56656e-08
2.56424e-06
-5.55306e-13
1.58574e-08
2.54822e-06
-5.02792e-13
1.60429e-08
2.53202e-06
-4.44367e-13
1.62225e-08
2.51565e-06
-3.85608e-13
1.63966e-08
2.4991e-06
-3.31318e-13
1.65656e-08
2.48239e-06
-2.86715e-13
1.67299e-08
2.46552e-06
-2.55129e-13
1.68898e-08
2.4485e-06
-2.38864e-13
1.70459e-08
2.43132e-06
-2.38753e-13
1.71983e-08
2.41399e-06
-2.54269e-13
1.73476e-08
2.39651e-06
-2.82802e-13
1.74941e-08
2.37889e-06
-3.21437e-13
1.76383e-08
2.36112e-06
-3.66124e-13
1.77806e-08
2.34322e-06
-4.13031e-13
1.79213e-08
2.32517e-06
-4.58994e-13
1.8061e-08
2.30698e-06
-5.01571e-13
1.82001e-08
2.28866e-06
-5.39707e-13
1.8339e-08
2.2702e-06
-5.73375e-13
1.84782e-08
2.2516e-06
-6.02823e-13
1.8618e-08
2.23285e-06
-6.28886e-13
1.87591e-08
2.21397e-06
-6.51479e-13
1.89018e-08
2.19494e-06
-6.6927e-13
1.90467e-08
2.17576e-06
-6.80511e-13
1.91942e-08
2.15643e-06
-6.82399e-13
1.9345e-08
2.13695e-06
-6.71574e-13
1.94995e-08
2.11732e-06
-6.46205e-13
1.96582e-08
2.09751e-06
-6.06654e-13
1.98219e-08
2.07754e-06
-5.56222e-13
1.9991e-08
2.0574e-06
-5.02015e-13
2.01661e-08
2.03707e-06
-4.53026e-13
2.03477e-08
2.01655e-06
-4.19248e-13
2.05362e-08
1.99584e-06
-4.09894e-13
2.07323e-08
1.97493e-06
-4.28879e-13
2.09362e-08
1.9538e-06
-4.74593e-13
2.11486e-08
1.93244e-06
-5.38625e-13
2.13698e-08
1.91086e-06
-6.06792e-13
2.16003e-08
1.88904e-06
-6.62442e-13
2.18406e-08
1.86697e-06
-6.90725e-13
2.20913e-08
1.84464e-06
-6.8201e-13
2.23528e-08
1.82203e-06
-6.36075e-13
2.26256e-08
1.79914e-06
-5.61995e-13
2.29101e-08
1.77595e-06
-4.74926e-13
2.32069e-08
1.75246e-06
-3.93241e-13
2.35161e-08
1.72864e-06
-3.30957e-13
2.38383e-08
1.70448e-06
-2.95375e-13
2.41738e-08
1.67998e-06
-2.84855e-13
2.45229e-08
1.65511e-06
-2.90962e-13
2.4886e-08
1.62987e-06
-3.02952e-13
2.52635e-08
1.60423e-06
-3.1275e-13
2.56559e-08
1.57818e-06
-3.17912e-13
2.60635e-08
1.55171e-06
-3.20188e-13
2.64869e-08
1.5248e-06
-3.23824e-13
2.69265e-08
1.49743e-06
-3.30125e-13
2.73827e-08
1.46959e-06
-3.35343e-13
2.7856e-08
1.44126e-06
-3.33178e-13
2.8347e-08
1.41242e-06
-3.1844e-13
2.88561e-08
1.38305e-06
-2.92433e-13
2.93839e-08
1.35313e-06
-2.63567e-13
2.99308e-08
1.32265e-06
-2.41168e-13
3.04973e-08
1.29158e-06
-2.3051e-13
3.10839e-08
1.2599e-06
-2.25625e-13
3.16908e-08
1.2276e-06
-2.12108e-13
3.23188e-08
1.19464e-06
-1.78246e-13
3.29681e-08
1.16102e-06
-1.24956e-13
3.3639e-08
1.1267e-06
-6.77791e-14
3.43317e-08
1.09166e-06
-2.89213e-14
3.50462e-08
1.05589e-06
-1.60427e-14
3.57823e-08
1.01937e-06
-1.34337e-14
3.65396e-08
9.82058e-07
8.54872e-15
3.73176e-08
9.43952e-07
6.75571e-14
3.81156e-08
9.0503e-07
1.46827e-13
3.8932e-08
8.65274e-07
1.99896e-13
3.97651e-08
8.24669e-07
1.8846e-13
4.06122e-08
7.83205e-07
1.23845e-13
4.14702e-08
7.40876e-07
7.04992e-14
4.23352e-08
6.97679e-07
8.95395e-14
4.32027e-08
6.53618e-07
1.76081e-13
4.40666e-08
6.08703e-07
2.50355e-13
4.49197e-08
5.62954e-07
2.3187e-13
4.57528e-08
5.16402e-07
1.35392e-13
4.6555e-08
4.69091e-07
7.222e-14
4.73138e-08
4.21081e-07
1.29119e-13
4.80139e-08
3.72447e-07
2.52964e-13
4.86369e-08
3.23289e-07
2.93487e-13
4.91606e-08
2.73733e-07
1.91291e-13
4.95582e-08
2.23936e-07
7.57727e-14
4.97981e-08
1.74096e-07
1.0747e-13
4.98425e-08
1.24453e-07
2.37754e-13
4.96451e-08
7.53081e-08
2.54297e-13
4.91469e-08
2.70323e-08
1.01308e-13
4.8277e-08
-1.98945e-08
-1.18794e-14
4.69283e-08
-6.48563e-08
6.42264e-14
4.49641e-08
-1.07129e-07
1.80578e-13
4.22746e-08
-1.45869e-07
2.05391e-13
3.87422e-08
-1.80044e-07
2.05835e-13
3.41788e-08
-2.08363e-07
1.77636e-14
2.83225e-08
-2.29232e-07
-6.27831e-13
2.08734e-08
-2.40722e-07
-1.13609e-12
1.14932e-08
-2.40544e-07
-6.06515e-13
-1.72044e-10
-2.2633e-07
3.72147e-13
-1.4202e-08
-1.95892e-07
7.45959e-13
-3.04249e-08
-1.47196e-07
5.9508e-13
-4.86853e-08
-9.04327e-08
1.59706e-13
-5.67534e-08
-3.74535e-08
-1.20931e-12
-5.29708e-08
-3.72147e-12
-3.74357e-08
-1.22584e-07
1.22608e-07
-2.01646e-07
7.91626e-08
-2.22282e-07
2.07027e-08
-1.88264e-07
-3.39355e-08
-1.19502e-07
-6.86822e-08
-2.93002e-08
-9.01284e-08
7.35839e-08
-1.02814e-07
1.83317e-07
-1.09668e-07
2.96297e-07
-1.12923e-07
4.10283e-07
-1.13932e-07
5.23832e-07
-1.13498e-07
6.36012e-07
-1.12133e-07
7.46219e-07
-1.10163e-07
8.5406e-07
-1.07798e-07
9.59277e-07
-1.05174e-07
1.0617e-06
-1.02382e-07
1.16123e-06
-9.94819e-08
1.25778e-06
-9.65122e-08
1.35132e-06
-9.34992e-08
1.44183e-06
-9.04608e-08
1.52928e-06
-8.74092e-08
1.61367e-06
-8.43528e-08
1.695e-06
-8.12979e-08
1.77329e-06
-7.82498e-08
1.84854e-06
-7.5213e-08
1.92076e-06
-7.21921e-08
1.98999e-06
-6.91911e-08
2.05624e-06
-6.62138e-08
2.11954e-06
-6.32645e-08
2.17992e-06
-6.03476e-08
2.23742e-06
-5.74675e-08
2.29209e-06
-5.46289e-08
2.34396e-06
-5.18359e-08
2.39309e-06
-4.90926e-08
2.43953e-06
-4.64028e-08
2.48333e-06
-4.37702e-08
2.52456e-06
-4.11984e-08
2.56328e-06
-3.86903e-08
2.59956e-06
-3.62487e-08
2.63346e-06
-3.38757e-08
2.66506e-06
-3.15727e-08
2.69443e-06
-2.93411e-08
2.72164e-06
-2.71818e-08
2.74676e-06
-2.50955e-08
2.76987e-06
-2.30827e-08
2.79103e-06
-2.11434e-08
2.81033e-06
-1.92771e-08
2.82784e-06
-1.74833e-08
2.84362e-06
-1.5761e-08
2.85775e-06
-1.41089e-08
2.87029e-06
-1.2526e-08
2.88132e-06
-1.10106e-08
2.8909e-06
-9.56131e-09
2.89909e-06
-8.17637e-09
2.90595e-06
-6.85386e-09
2.91156e-06
-5.59177e-09
2.91596e-06
-4.38799e-09
2.91921e-06
-3.24038e-09
2.92137e-06
-2.14682e-09
2.92249e-06
-1.10513e-09
2.92262e-06
-1.12426e-10
2.92179e-06
8.3249e-10
2.92008e-06
1.72998e-09
2.91751e-06
2.58221e-09
2.91413e-06
3.39164e-09
2.90998e-06
4.16053e-09
2.9051e-06
4.89099e-09
2.89954e-06
5.58495e-09
2.89331e-06
6.24425e-09
2.88645e-06
6.87056e-09
2.87901e-06
7.46546e-09
2.87099e-06
8.03047e-09
2.86245e-06
8.56706e-09
2.85339e-06
9.07667e-09
2.84385e-06
9.56072e-09
2.83385e-06
1.00206e-08
2.82341e-06
1.04578e-08
2.81256e-06
1.08736e-08
2.80132e-06
1.12694e-08
2.7897e-06
1.16463e-08
2.77773e-06
1.20055e-08
2.76541e-06
1.23481e-08
2.75276e-06
1.2675e-08
2.73981e-06
1.29873e-08
2.72655e-06
1.32857e-08
2.71301e-06
1.35711e-08
2.6992e-06
1.38442e-08
2.68512e-06
1.41057e-08
2.67079e-06
1.43564e-08
2.65622e-06
1.45969e-08
2.64142e-06
1.48278e-08
2.6264e-06
1.50498e-08
2.61116e-06
1.52635e-08
2.59572e-06
1.54694e-08
2.58008e-06
1.5668e-08
2.56424e-06
1.58598e-08
2.54822e-06
1.60452e-08
2.53202e-06
1.62248e-08
2.51565e-06
1.63989e-08
2.4991e-06
1.65678e-08
2.48239e-06
1.6732e-08
2.46552e-06
1.68919e-08
2.4485e-06
1.70478e-08
2.43131e-06
1.72002e-08
2.41398e-06
1.73494e-08
2.39651e-06
1.74958e-08
2.37888e-06
1.76399e-08
2.36112e-06
1.77821e-08
2.34321e-06
1.79228e-08
2.32517e-06
1.80625e-08
2.30698e-06
1.82016e-08
2.28866e-06
1.83406e-08
2.2702e-06
1.84798e-08
2.25159e-06
1.86197e-08
2.23285e-06
1.87609e-08
2.21397e-06
1.89037e-08
2.19494e-06
1.90487e-08
2.17576e-06
1.91963e-08
2.15643e-06
1.93471e-08
2.13695e-06
1.95016e-08
2.11731e-06
1.96604e-08
2.09751e-06
1.98241e-08
2.07754e-06
1.99932e-08
2.0574e-06
2.01683e-08
2.03707e-06
2.03498e-08
2.01655e-06
2.05383e-08
1.99584e-06
2.07343e-08
1.97492e-06
2.09383e-08
1.95379e-06
2.11506e-08
1.93244e-06
2.13717e-08
1.91086e-06
2.16023e-08
1.88904e-06
2.18426e-08
1.86697e-06
2.20933e-08
1.84463e-06
2.23549e-08
1.82203e-06
2.26277e-08
1.79914e-06
2.29123e-08
1.77595e-06
2.3209e-08
1.75246e-06
2.35183e-08
1.72864e-06
2.38404e-08
1.70448e-06
2.41758e-08
1.67998e-06
2.45249e-08
1.65511e-06
2.48879e-08
1.62987e-06
2.52654e-08
1.60423e-06
2.56577e-08
1.57818e-06
2.60653e-08
1.55171e-06
2.64886e-08
1.5248e-06
2.69281e-08
1.49743e-06
2.73843e-08
1.46959e-06
2.78576e-08
1.44126e-06
2.83486e-08
1.41242e-06
2.88578e-08
1.38305e-06
2.93856e-08
1.35313e-06
2.99325e-08
1.32265e-06
3.04989e-08
1.29158e-06
3.10854e-08
1.2599e-06
3.16924e-08
1.2276e-06
3.23203e-08
1.19464e-06
3.29696e-08
1.16102e-06
3.36405e-08
1.1267e-06
3.43332e-08
1.09166e-06
3.50476e-08
1.05589e-06
3.57836e-08
1.01937e-06
3.65408e-08
9.82059e-07
3.73189e-08
9.43953e-07
3.81168e-08
9.05031e-07
3.89332e-08
8.65274e-07
3.97662e-08
8.24669e-07
4.06131e-08
7.83206e-07
4.1471e-08
7.40877e-07
4.2336e-08
6.9768e-07
4.32035e-08
6.53619e-07
4.40675e-08
6.08704e-07
4.49205e-08
5.62955e-07
4.57534e-08
5.16403e-07
4.65555e-08
4.69093e-07
4.73144e-08
4.21082e-07
4.80146e-08
3.72449e-07
4.86377e-08
3.2329e-07
4.91611e-08
2.73734e-07
4.95586e-08
2.23938e-07
4.97986e-08
1.74098e-07
4.98433e-08
1.24455e-07
4.96458e-08
7.53093e-08
4.91475e-08
2.70336e-08
4.82776e-08
-1.98928e-08
4.69291e-08
-6.48545e-08
4.4965e-08
-1.07127e-07
4.22753e-08
-1.45867e-07
3.87427e-08
-1.80043e-07
3.41799e-08
-2.08363e-07
2.83248e-08
-2.29232e-07
2.08768e-08
-2.40718e-07
1.14954e-08
-2.4054e-07
-1.72285e-10
-2.26329e-07
-1.42027e-08
-1.95891e-07
-3.04249e-08
-1.47196e-07
-4.8683e-08
-9.04335e-08
-5.67491e-08
-3.74502e-08
-5.29714e-08
-3.74319e-08
-6.05862e-08
-1.49275e-11
1.83324e-07
-5.94822e-08
-7.50971e-12
7.81993e-08
-2.42697e-08
-5.1311e-12
-1.43825e-08
2.77675e-08
-3.5683e-12
-8.58534e-08
9.41117e-08
-2.73984e-12
-1.34924e-07
1.71509e-07
-2.29163e-12
-1.67433e-07
2.56843e-07
-2.01564e-12
-1.88064e-07
3.47589e-07
-1.78401e-12
-2.00338e-07
4.41707e-07
-1.61348e-12
-2.06971e-07
5.37638e-07
-1.49355e-12
-2.09799e-07
6.34236e-07
-1.39637e-12
-2.10038e-07
7.30666e-07
-1.32071e-12
-2.08508e-07
8.26316e-07
-1.24453e-12
-2.0576e-07
9.20738e-07
-1.15316e-12
-2.02169e-07
1.0136e-06
-1.07195e-12
-1.9799e-07
1.10466e-06
-1.01529e-12
-1.93396e-07
1.19374e-06
-9.49189e-13
-1.8851e-07
1.28069e-06
-8.40755e-13
-1.83415e-07
1.3654e-06
-7.09472e-13
-1.7817e-07
1.4478e-06
-6.03328e-13
-1.72815e-07
1.52781e-06
-5.40247e-13
-1.67383e-07
1.60539e-06
-4.9851e-13
-1.61895e-07
1.6805e-06
-4.56106e-13
-1.56369e-07
1.7531e-06
-4.19747e-13
-1.50821e-07
1.82318e-06
-4.07569e-13
-1.45262e-07
1.89073e-06
-4.16555e-13
-1.39706e-07
1.95573e-06
-4.17659e-13
-1.34163e-07
2.01819e-06
-3.82923e-13
-1.28643e-07
2.07812e-06
-3.12917e-13
-1.23157e-07
2.13552e-06
-2.34702e-13
-1.17715e-07
2.19041e-06
-1.75791e-13
-1.12328e-07
2.24281e-06
-1.40965e-13
-1.07004e-07
2.29276e-06
-1.13321e-13
-1.01755e-07
2.34029e-06
-7.45184e-14
-9.65868e-08
2.38542e-06
-2.33721e-14
-9.15097e-08
2.42821e-06
2.27506e-14
-8.65309e-08
2.46869e-06
4.30536e-14
-8.16576e-08
2.50692e-06
3.15556e-14
-7.68961e-08
2.54295e-06
2.32187e-15
-7.22519e-08
2.57682e-06
-2.02158e-14
-6.77297e-08
2.60861e-06
-1.76209e-14
-6.33335e-08
2.63835e-06
1.14529e-14
-5.90666e-08
2.66612e-06
5.26281e-14
-5.49313e-08
2.69198e-06
8.66632e-14
-5.09294e-08
2.71597e-06
1.01616e-13
-4.7062e-08
2.73818e-06
9.83064e-14
-4.33294e-08
2.75865e-06
8.73566e-14
-3.97314e-08
2.77745e-06
8.06743e-14
-3.62672e-08
2.79464e-06
8.35954e-14
-3.29354e-08
2.81028e-06
9.26644e-14
-2.97343e-08
2.82443e-06
9.88191e-14
-2.66617e-08
2.83714e-06
9.37536e-14
-2.37152e-08
2.84848e-06
7.54486e-14
-2.0892e-08
2.85851e-06
4.92334e-14
-1.8189e-08
2.86727e-06
2.48847e-14
-1.56029e-08
2.87482e-06
1.14994e-14
-1.31303e-08
2.88121e-06
1.32687e-14
-1.07676e-08
2.88649e-06
2.74795e-14
-8.51111e-09
2.89071e-06
4.62075e-14
-6.35699e-09
2.89391e-06
6.01407e-14
-4.3013e-09
2.89615e-06
6.23818e-14
-2.33991e-09
2.89746e-06
5.1106e-14
-4.6916e-10
2.89789e-06
3.0206e-14
1.31361e-09
2.89747e-06
7.43943e-15
3.01124e-09
2.89624e-06
-8.83235e-15
4.62749e-09
2.89425e-06
-1.26141e-14
6.16632e-09
2.89152e-06
-2.25441e-15
7.63143e-09
2.88809e-06
1.94296e-14
9.02633e-09
2.88399e-06
4.64288e-14
1.03544e-08
2.87926e-06
7.13532e-14
1.16188e-08
2.87391e-06
8.82424e-14
1.28227e-08
2.86799e-06
9.38004e-14
1.39691e-08
2.86151e-06
8.82215e-14
1.50609e-08
2.8545e-06
7.47878e-14
1.61008e-08
2.84698e-06
5.87034e-14
1.70916e-08
2.83899e-06
4.56791e-14
1.80359e-08
2.83053e-06
4.02875e-14
1.89363e-08
2.82162e-06
4.5228e-14
1.9795e-08
2.8123e-06
6.07711e-14
2.06146e-08
2.80257e-06
8.5078e-14
2.13972e-08
2.79245e-06
1.14527e-13
2.21448e-08
2.78196e-06
1.44988e-13
2.28596e-08
2.77112e-06
1.72369e-13
2.35434e-08
2.75993e-06
1.9372e-13
2.41981e-08
2.74841e-06
2.07258e-13
2.48253e-08
2.73658e-06
2.12774e-13
2.54268e-08
2.72444e-06
2.11262e-13
2.6004e-08
2.71201e-06
2.04593e-13
2.65583e-08
2.69929e-06
1.9517e-13
2.70913e-08
2.6863e-06
1.85144e-13
2.76042e-08
2.67305e-06
1.76644e-13
2.80982e-08
2.65955e-06
1.70905e-13
2.85746e-08
2.6458e-06
1.68664e-13
2.90343e-08
2.63181e-06
1.69774e-13
2.94785e-08
2.61758e-06
1.73597e-13
2.99081e-08
2.60314e-06
1.79079e-13
3.03241e-08
2.58847e-06
1.84831e-13
3.07274e-08
2.5736e-06
1.89342e-13
3.11188e-08
2.55851e-06
1.91444e-13
3.14991e-08
2.54323e-06
1.9023e-13
3.18692e-08
2.52775e-06
1.8506e-13
3.22298e-08
2.51207e-06
1.76054e-13
3.25818e-08
2.49621e-06
1.63439e-13
3.29259e-08
2.48016e-06
1.48173e-13
3.32629e-08
2.46393e-06
1.31284e-13
3.35937e-08
2.44752e-06
1.14131e-13
3.39189e-08
2.43093e-06
9.79841e-14
3.42395e-08
2.41417e-06
8.40162e-14
3.45563e-08
2.39723e-06
7.3018e-14
3.48701e-08
2.38013e-06
6.53228e-14
3.51818e-08
2.36285e-06
6.11178e-14
3.54922e-08
2.3454e-06
5.9841e-14
3.58022e-08
2.32778e-06
6.08888e-14
3.61126e-08
2.30999e-06
6.35395e-14
3.64244e-08
2.29202e-06
6.70644e-14
3.67385e-08
2.27388e-06
7.11792e-14
3.70558e-08
2.25557e-06
7.57727e-14
3.73771e-08
2.23708e-06
8.10602e-14
3.77036e-08
2.2184e-06
8.74509e-14
3.80362e-08
2.19955e-06
9.53959e-14
3.8376e-08
2.1805e-06
1.0484e-13
3.87239e-08
2.16126e-06
1.15338e-13
3.9081e-08
2.14182e-06
1.25795e-13
3.94485e-08
2.12218e-06
1.34587e-13
3.98272e-08
2.10232e-06
1.3993e-13
4.02183e-08
2.08225e-06
1.40207e-13
4.06229e-08
2.06196e-06
1.3467e-13
4.10418e-08
2.04144e-06
1.23755e-13
4.14761e-08
2.02068e-06
1.09461e-13
4.19268e-08
1.99967e-06
9.48686e-14
4.23948e-08
1.97841e-06
8.35304e-14
4.2881e-08
1.95688e-06
7.88258e-14
4.33863e-08
1.93507e-06
8.26145e-14
4.39116e-08
1.91299e-06
9.47575e-14
4.44576e-08
1.89061e-06
1.12854e-13
4.50253e-08
1.86792e-06
1.32748e-13
4.56153e-08
1.84492e-06
1.49769e-13
4.62286e-08
1.82158e-06
1.60157e-13
4.68658e-08
1.79791e-06
1.61891e-13
4.75277e-08
1.77389e-06
1.55632e-13
4.8215e-08
1.7495e-06
1.44003e-13
4.89286e-08
1.72473e-06
1.30777e-13
4.96692e-08
1.69957e-06
1.18849e-13
5.04375e-08
1.67401e-06
1.09884e-13
5.12343e-08
1.64802e-06
1.03563e-13
5.20603e-08
1.62161e-06
9.85947e-14
5.29164e-08
1.59475e-06
9.36959e-14
5.38033e-08
1.56742e-06
8.86444e-14
5.47219e-08
1.53962e-06
8.4821e-14
5.56728e-08
1.51132e-06
8.35443e-14
5.6657e-08
1.48251e-06
8.51264e-14
5.76751e-08
1.45318e-06
8.80476e-14
5.87281e-08
1.42331e-06
8.95672e-14
5.98166e-08
1.39288e-06
8.74439e-14
6.09413e-08
1.36187e-06
8.21843e-14
6.21029e-08
1.33027e-06
7.67025e-14
6.3302e-08
1.29807e-06
7.47596e-14
6.45392e-08
1.26523e-06
7.76948e-14
6.58147e-08
1.23175e-06
8.26145e-14
6.71286e-08
1.19761e-06
8.37941e-14
6.84809e-08
1.1628e-06
7.7216e-14
6.98713e-08
1.12729e-06
6.47885e-14
7.12988e-08
1.09108e-06
5.41234e-14
7.27623e-08
1.05415e-06
5.21458e-14
7.426e-08
1.01648e-06
5.84255e-14
7.57894e-08
9.78072e-07
6.23737e-14
7.73472e-08
9.38915e-07
5.1327e-14
7.89291e-08
8.99003e-07
2.37241e-14
8.05298e-08
8.58336e-07
-6.84869e-15
8.21424e-08
8.16918e-07
-2.02616e-14
8.37586e-08
7.74757e-07
-1.07275e-14
8.53684e-08
7.31869e-07
4.43395e-15
8.69594e-08
6.88275e-07
-6.245e-16
8.85167e-08
6.44009e-07
-3.15858e-14
9.00226e-08
5.9911e-07
-6.30745e-14
9.14561e-08
5.53635e-07
-6.38933e-14
9.27921e-08
5.07651e-07
-3.67206e-14
9.40009e-08
4.61243e-07
-2.17049e-14
9.50473e-08
4.14516e-07
-4.81282e-14
9.58897e-08
3.67597e-07
-9.12881e-14
9.64789e-08
3.2064e-07
-9.91013e-14
9.67568e-08
2.73831e-07
-6.67938e-14
9.66537e-08
2.27391e-07
-5.13062e-14
9.60866e-08
1.81586e-07
-8.71803e-14
9.49539e-08
1.3673e-07
-1.24692e-13
9.31343e-08
9.31923e-08
-1.08649e-13
9.04688e-08
5.13935e-08
-7.74381e-14
8.67654e-08
1.18297e-08
-9.50212e-14
8.18409e-08
-2.48964e-08
-1.19502e-13
7.54714e-08
-5.8088e-08
-6.15202e-14
6.73745e-08
-8.69824e-08
5.0529e-14
5.7222e-08
-1.10736e-07
4.52971e-14
4.4634e-08
-1.28449e-07
-1.86171e-13
2.92134e-08
-1.39209e-07
-3.7384e-13
1.05944e-08
-1.42112e-07
-2.89171e-13
-1.12917e-08
-1.3643e-07
-1.70031e-13
-3.60961e-08
-1.23113e-07
-1.1724e-13
-6.19935e-08
-9.71025e-08
-2.15855e-13
-8.27536e-08
-5.49655e-08
-9.97924e-13
-9.50907e-08
-9.03444e-13
-9.23868e-08
-6.05728e-08
1.83265e-07
-5.94682e-08
7.81318e-08
-2.42505e-08
-1.44434e-08
2.77843e-08
-8.59009e-08
9.41258e-08
-1.34963e-07
1.7152e-07
-1.67466e-07
2.56852e-07
-1.88093e-07
3.47596e-07
-2.00364e-07
4.41712e-07
-2.06995e-07
5.37641e-07
-2.09821e-07
6.34239e-07
-2.10058e-07
7.30667e-07
-2.08526e-07
8.26316e-07
-2.05777e-07
9.20737e-07
-2.02185e-07
1.0136e-06
-1.98004e-07
1.10466e-06
-1.9341e-07
1.19374e-06
-1.88523e-07
1.28069e-06
-1.83427e-07
1.3654e-06
-1.7818e-07
1.44779e-06
-1.72825e-07
1.52781e-06
-1.67392e-07
1.60539e-06
-1.61903e-07
1.68049e-06
-1.56377e-07
1.7531e-06
-1.50828e-07
1.82318e-06
-1.45269e-07
1.89072e-06
-1.39712e-07
1.95573e-06
-1.34168e-07
2.01819e-06
-1.28648e-07
2.07811e-06
-1.23161e-07
2.13551e-06
-1.17719e-07
2.1904e-06
-1.12332e-07
2.24281e-06
-1.07008e-07
2.29276e-06
-1.01758e-07
2.34028e-06
-9.65899e-08
2.38542e-06
-9.15125e-08
2.4282e-06
-8.65335e-08
2.46869e-06
-8.166e-08
2.50692e-06
-7.68982e-08
2.54294e-06
-7.22538e-08
2.57682e-06
-6.77315e-08
2.6086e-06
-6.33352e-08
2.63835e-06
-5.90681e-08
2.66612e-06
-5.49327e-08
2.69197e-06
-5.09307e-08
2.71597e-06
-4.70632e-08
2.73817e-06
-4.33306e-08
2.75864e-06
-3.97325e-08
2.77744e-06
-3.62681e-08
2.79463e-06
-3.29363e-08
2.81027e-06
-2.97351e-08
2.82442e-06
-2.66625e-08
2.83714e-06
-2.3716e-08
2.84848e-06
-2.08927e-08
2.8585e-06
-1.81896e-08
2.86726e-06
-1.56035e-08
2.87481e-06
-1.31309e-08
2.8812e-06
-1.07682e-08
2.88648e-06
-8.51163e-09
2.8907e-06
-6.35749e-09
2.89391e-06
-4.30178e-09
2.89614e-06
-2.34037e-09
2.89745e-06
-4.69605e-10
2.89788e-06
1.31318e-09
2.89746e-06
3.01084e-09
2.89624e-06
4.62711e-09
2.89424e-06
6.16596e-09
2.89151e-06
7.63108e-09
2.88808e-06
9.02599e-09
2.88399e-06
1.03541e-08
2.87925e-06
1.16185e-08
2.87391e-06
1.28224e-08
2.86798e-06
1.39688e-08
2.8615e-06
1.50606e-08
2.8545e-06
1.61005e-08
2.84698e-06
1.70913e-08
2.83898e-06
1.80356e-08
2.83052e-06
1.8936e-08
2.82162e-06
1.97947e-08
2.8123e-06
2.06143e-08
2.80257e-06
2.13968e-08
2.79245e-06
2.21445e-08
2.78196e-06
2.28593e-08
2.77111e-06
2.35431e-08
2.75993e-06
2.41978e-08
2.74841e-06
2.4825e-08
2.73657e-06
2.54264e-08
2.72444e-06
2.60036e-08
2.712e-06
2.6558e-08
2.69929e-06
2.7091e-08
2.6863e-06
2.76039e-08
2.67305e-06
2.80979e-08
2.65955e-06
2.85743e-08
2.64579e-06
2.90341e-08
2.6318e-06
2.94783e-08
2.61758e-06
2.99079e-08
2.60314e-06
3.0324e-08
2.58847e-06
3.07272e-08
2.5736e-06
3.11186e-08
2.55851e-06
3.1499e-08
2.54323e-06
3.18691e-08
2.52774e-06
3.22297e-08
2.51207e-06
3.25817e-08
2.49621e-06
3.29257e-08
2.48016e-06
3.32627e-08
2.46393e-06
3.35934e-08
2.44752e-06
3.39187e-08
2.43093e-06
3.42393e-08
2.41417e-06
3.45561e-08
2.39723e-06
3.48699e-08
2.38012e-06
3.51816e-08
2.36285e-06
3.5492e-08
2.3454e-06
3.5802e-08
2.32778e-06
3.61125e-08
2.30998e-06
3.64243e-08
2.29202e-06
3.67384e-08
2.27388e-06
3.70557e-08
2.25557e-06
3.73771e-08
2.23708e-06
3.77036e-08
2.2184e-06
3.80362e-08
2.19954e-06
3.83759e-08
2.1805e-06
3.87238e-08
2.16126e-06
3.90809e-08
2.14182e-06
3.94483e-08
2.12217e-06
3.9827e-08
2.10232e-06
4.02182e-08
2.08225e-06
4.06227e-08
2.06196e-06
4.10416e-08
2.04144e-06
4.1476e-08
2.02068e-06
4.19267e-08
1.99967e-06
4.23947e-08
1.9784e-06
4.28809e-08
1.95688e-06
4.33862e-08
1.93507e-06
4.39115e-08
1.91299e-06
4.44575e-08
1.8906e-06
4.50252e-08
1.86792e-06
4.56152e-08
1.84491e-06
4.62284e-08
1.82158e-06
4.68656e-08
1.79791e-06
4.75275e-08
1.77389e-06
4.82149e-08
1.7495e-06
4.89285e-08
1.72473e-06
4.9669e-08
1.69957e-06
5.04373e-08
1.67401e-06
5.12341e-08
1.64802e-06
5.20602e-08
1.62161e-06
5.29163e-08
1.59475e-06
5.38032e-08
1.56742e-06
5.47217e-08
1.53962e-06
5.56727e-08
1.51132e-06
5.66569e-08
1.48251e-06
5.7675e-08
1.45318e-06
5.8728e-08
1.42331e-06
5.98165e-08
1.39288e-06
6.09412e-08
1.36187e-06
6.21028e-08
1.33027e-06
6.3302e-08
1.29807e-06
6.45391e-08
1.26523e-06
6.58146e-08
1.23175e-06
6.71286e-08
1.19761e-06
6.84809e-08
1.1628e-06
6.98712e-08
1.12729e-06
7.12987e-08
1.09108e-06
7.27622e-08
1.05415e-06
7.42599e-08
1.01648e-06
7.57893e-08
9.78072e-07
7.73471e-08
9.38915e-07
7.89291e-08
8.99003e-07
8.05297e-08
8.58336e-07
8.21423e-08
8.16918e-07
8.37586e-08
7.74757e-07
8.53684e-08
7.31869e-07
8.69594e-08
6.88276e-07
8.85167e-08
6.44009e-07
9.00227e-08
5.99111e-07
9.14562e-08
5.53635e-07
9.27922e-08
5.07651e-07
9.4001e-08
4.61243e-07
9.50474e-08
4.14516e-07
9.58898e-08
3.67597e-07
9.64791e-08
3.20641e-07
9.67569e-08
2.73832e-07
9.66539e-08
2.27392e-07
9.60867e-08
1.81586e-07
9.49541e-08
1.36731e-07
9.31346e-08
9.31927e-08
9.04691e-08
5.13938e-08
8.67657e-08
1.18301e-08
8.18413e-08
-2.48958e-08
7.54718e-08
-5.80871e-08
6.73747e-08
-8.69818e-08
5.72222e-08
-1.10736e-07
4.46344e-08
-1.28449e-07
2.92143e-08
-1.39208e-07
1.05954e-08
-1.42111e-07
-1.12909e-08
-1.3643e-07
-3.60956e-08
-1.23112e-07
-6.19931e-08
-9.70997e-08
-8.27538e-08
-5.49678e-08
-9.5091e-08
-9.23888e-08
-1.81873e-09
-1.18435e-11
1.85203e-07
4.13066e-08
-5.9496e-12
3.51319e-08
9.84179e-08
-3.43581e-12
-7.14657e-08
1.59548e-07
-2.10494e-12
-1.46964e-07
2.25292e-07
-1.43961e-12
-2.00652e-07
2.95883e-07
-1.1775e-12
-2.3801e-07
3.70921e-07
-1.04265e-12
-2.63088e-07
4.49672e-07
-9.60381e-13
-2.79077e-07
5.31203e-07
-8.92478e-13
-2.88492e-07
6.146e-07
-8.19121e-13
-2.93186e-07
6.99067e-07
-7.53021e-13
-2.94496e-07
7.83942e-07
-7.00703e-13
-2.93374e-07
8.6869e-07
-6.50549e-13
-2.90499e-07
9.52881e-07
-6.02831e-13
-2.86352e-07
1.03618e-06
-5.66714e-13
-2.81275e-07
1.1183e-06
-5.35014e-13
-2.75514e-07
1.19904e-06
-4.89578e-13
-2.69241e-07
1.27822e-06
-4.2691e-13
-2.62585e-07
1.35569e-06
-3.64092e-13
-2.55636e-07
1.43135e-06
-3.18688e-13
-2.48463e-07
1.50509e-06
-2.90797e-13
-2.41117e-07
1.57684e-06
-2.68884e-13
-2.33638e-07
1.64654e-06
-2.47863e-13
-2.26057e-07
1.71413e-06
-2.34405e-13
-2.18403e-07
1.77957e-06
-2.33972e-13
-2.10697e-07
1.84283e-06
-2.3876e-13
-2.02962e-07
1.90389e-06
-2.32477e-13
-1.95216e-07
1.96273e-06
-2.06009e-13
-1.87478e-07
2.01935e-06
-1.66277e-13
-1.79765e-07
2.07374e-06
-1.28994e-13
-1.72095e-07
2.1259e-06
-1.04035e-13
-1.64484e-07
2.17585e-06
-8.85094e-14
-1.56948e-07
2.2236e-06
-7.20783e-14
-1.495e-07
2.26918e-06
-4.84063e-14
-1.42155e-07
2.3126e-06
-2.14419e-14
-1.34927e-07
2.3539e-06
-1.83968e-15
-1.27827e-07
2.39312e-06
2.08761e-15
-1.20867e-07
2.43028e-06
-8.56719e-15
-1.14056e-07
2.46544e-06
-2.38086e-14
-1.07403e-07
2.49863e-06
-3.15247e-14
-1.00915e-07
2.5299e-06
-2.52035e-14
-9.46e-08
2.5593e-06
-7.26313e-15
-8.84618e-08
2.58688e-06
1.34667e-14
-8.25049e-08
2.61269e-06
2.78718e-14
-7.67324e-08
2.63678e-06
3.19517e-14
-7.11463e-08
2.6592e-06
2.81179e-14
-6.57477e-08
2.68001e-06
2.24765e-14
-6.05367e-08
2.69926e-06
2.05161e-14
-5.55127e-08
2.71701e-06
2.3753e-14
-5.06742e-08
2.73329e-06
2.92694e-14
-4.60192e-08
2.74818e-06
3.22392e-14
-4.1545e-08
2.76172e-06
2.90368e-14
-3.72484e-08
2.77395e-06
1.96588e-14
-3.31259e-08
2.78494e-06
7.56423e-15
-2.91733e-08
2.79473e-06
-1.96988e-15
-2.53863e-08
2.80336e-06
-4.93978e-15
-2.17604e-08
2.81089e-06
-2.31803e-16
-1.82905e-08
2.81735e-06
9.79831e-15
-1.49718e-08
2.82279e-06
2.04738e-14
-1.17991e-08
2.82726e-06
2.70795e-14
-8.76706e-09
2.8308e-06
2.67325e-14
-5.87032e-09
2.83343e-06
1.9516e-14
-3.10373e-09
2.83521e-06
8.41725e-15
-4.62438e-10
2.83617e-06
-2.02582e-15
2.05794e-09
2.83633e-06
-7.47289e-15
4.46192e-09
2.83575e-06
-5.23513e-15
6.75467e-09
2.83444e-06
4.72563e-15
8.94134e-09
2.83245e-06
2.02132e-14
1.10268e-08
2.82979e-06
3.73557e-14
1.30159e-08
2.8265e-06
5.20245e-14
1.4913e-08
2.8226e-06
6.10451e-14
1.67227e-08
2.81812e-06
6.29498e-14
1.84492e-08
2.81309e-06
5.82209e-14
2.00966e-08
2.80753e-06
4.89332e-14
2.16689e-08
2.80145e-06
3.81362e-14
2.31699e-08
2.79489e-06
2.897e-14
2.46035e-08
2.78785e-06
2.38872e-14
2.59731e-08
2.78037e-06
2.42446e-14
2.72822e-08
2.77246e-06
3.01079e-14
2.85341e-08
2.76413e-06
4.04087e-14
2.9732e-08
2.7554e-06
5.32734e-14
3.08789e-08
2.74629e-06
6.66377e-14
3.19777e-08
2.73681e-06
7.85969e-14
3.3031e-08
2.72697e-06
8.77597e-14
3.40416e-08
2.71679e-06
9.35016e-14
3.50119e-08
2.70627e-06
9.58678e-14
3.59443e-08
2.69544e-06
9.55416e-14
3.68409e-08
2.6843e-06
9.3571e-14
3.77039e-08
2.67286e-06
9.11216e-14
3.85354e-08
2.66114e-06
8.91752e-14
3.93371e-08
2.64913e-06
8.85403e-14
4.0111e-08
2.63685e-06
8.95117e-14
4.08586e-08
2.62431e-06
9.20167e-14
4.15816e-08
2.61151e-06
9.56527e-14
4.22816e-08
2.59846e-06
9.96876e-14
4.29599e-08
2.58517e-06
1.03209e-13
4.3618e-08
2.57165e-06
1.05384e-13
4.42571e-08
2.55789e-06
1.05471e-13
4.48785e-08
2.54391e-06
1.02932e-13
4.54835e-08
2.52971e-06
9.75747e-14
4.60732e-08
2.5153e-06
8.96783e-14
4.66489e-08
2.50067e-06
7.96793e-14
4.72116e-08
2.48584e-06
6.8421e-14
4.77626e-08
2.4708e-06
5.67671e-14
4.8303e-08
2.45556e-06
4.58002e-14
4.8834e-08
2.44013e-06
3.64292e-14
4.93568e-08
2.4245e-06
2.93342e-14
4.98725e-08
2.40867e-06
2.49731e-14
5.03824e-08
2.39266e-06
2.34222e-14
5.08877e-08
2.37646e-06
2.44249e-14
5.13897e-08
2.36006e-06
2.74225e-14
5.18895e-08
2.34348e-06
3.16275e-14
5.23886e-08
2.32671e-06
3.62176e-14
5.28882e-08
2.30974e-06
4.03948e-14
5.33895e-08
2.29259e-06
4.36144e-14
5.3894e-08
2.27525e-06
4.56059e-14
5.44031e-08
2.25771e-06
4.64524e-14
5.49181e-08
2.23998e-06
4.64975e-14
5.54405e-08
2.22204e-06
4.63692e-14
5.59718e-08
2.20391e-06
4.66016e-14
5.65134e-08
2.18557e-06
4.76078e-14
5.70668e-08
2.16702e-06
4.95229e-14
5.76336e-08
2.14826e-06
5.20244e-14
5.82154e-08
2.12928e-06
5.4564e-14
5.88135e-08
2.11007e-06
5.62536e-14
5.94295e-08
2.09063e-06
5.6271e-14
6.0065e-08
2.07096e-06
5.42517e-14
6.07214e-08
2.05104e-06
5.02619e-14
6.14e-08
2.03086e-06
4.51583e-14
6.21023e-08
2.01043e-06
4.02872e-14
6.28297e-08
1.98973e-06
3.73313e-14
6.35835e-08
1.96876e-06
3.75672e-14
6.43649e-08
1.9475e-06
4.16889e-14
6.51752e-08
1.92594e-06
4.93147e-14
6.60156e-08
1.90409e-06
5.8991e-14
6.68872e-08
1.88191e-06
6.84661e-14
6.77913e-08
1.85942e-06
7.54431e-14
6.87289e-08