/*--------------------------------*- C++ -*----------------------------------*\
  =========                 |
  \\      /  F ield         | OpenFOAM: The Open Source CFD Toolbox
   \\    /   O peration     | Website:  https://openfoam.org
    \\  /    A nd           | Version:  8
     \\/     M anipulation  |
\*---------------------------------------------------------------------------*/
FoamFile
{
    version     2.0;
    format      ascii;
    class       volScalarField;
    location    "2400";
    object      k;
}
// * * * * * * * * * * * * * * * * * * * * * * * * * * * * * * * * * * * * * //

dimensions      [0 2 -2 0 0 0 0];

internalField   nonuniform List<scalar> 
48000
(
0.0261641
0.0487326
0.0746625
0.0977782
0.119246
0.138896
0.157135
0.174574
0.19137
0.207477
0.223058
0.238173
0.252871
0.267187
0.281149
0.294775
0.308079
0.32107
0.333752
0.34613
0.358202
0.369969
0.381428
0.392578
0.403415
0.413936
0.42414
0.434023
0.443582
0.452817
0.461727
0.470309
0.478565
0.486494
0.494099
0.50138
0.50834
0.514981
0.521308
0.527323
0.533032
0.538438
0.543546
0.548363
0.552892
0.557138
0.561117
0.56487
0.568367
0.571607
0.574598
0.577346
0.579859
0.582143
0.584207
0.586057
0.5877
0.589143
0.590394
0.591458
0.592342
0.593053
0.593597
0.59398
0.594207
0.594285
0.594218
0.594013
0.593675
0.593208
0.592618
0.591908
0.591084
0.59015
0.58911
0.587968
0.586728
0.585393
0.583967
0.582453
0.580854
0.579174
0.577415
0.575579
0.57367
0.57169
0.569642
0.567526
0.565346
0.563103
0.560799
0.558436
0.556016
0.553539
0.551007
0.548421
0.545784
0.543094
0.540354
0.537565
0.534727
0.531841
0.528907
0.525926
0.522899
0.519826
0.516708
0.513544
0.510335
0.507081
0.503782
0.500438
0.497049
0.493616
0.490138
0.486615
0.483047
0.479434
0.475776
0.472072
0.468322
0.464527
0.460685
0.456797
0.452862
0.448881
0.444852
0.440776
0.436653
0.432482
0.428263
0.423996
0.41968
0.415317
0.410905
0.406445
0.401936
0.397379
0.392774
0.388121
0.383419
0.378671
0.373874
0.369031
0.364141
0.359205
0.354224
0.349197
0.344126
0.339011
0.333854
0.328654
0.323412
0.318131
0.312809
0.30745
0.302053
0.29662
0.291151
0.285649
0.280113
0.274546
0.268948
0.263321
0.257665
0.251982
0.246273
0.240538
0.234779
0.228996
0.22319
0.217362
0.211511
0.205638
0.199742
0.193823
0.18788
0.181911
0.175915
0.169889
0.163832
0.157741
0.151617
0.145486
0.139337
0.133115
0.126801
0.12038
0.113827
0.107115
0.100206
0.0930499
0.0856067
0.077864
0.069629
0.0607076
0.0507829
0.039277
0.0252074
0.0176587
0.0261644
0.0487338
0.0746641
0.0977799
0.119248
0.138898
0.157137
0.174575
0.191371
0.207479
0.22306
0.238175
0.252872
0.267189
0.28115
0.294776
0.30808
0.321071
0.333754
0.346131
0.358203
0.36997
0.381429
0.392578
0.403415
0.413937
0.424141
0.434023
0.443583
0.452818
0.461727
0.47031
0.478565
0.486495
0.494099
0.50138
0.50834
0.514982
0.521308
0.527323
0.533032
0.538438
0.543547
0.548363
0.552892
0.557138
0.561117
0.56487
0.568367
0.571607
0.574598
0.577346
0.579859
0.582143
0.584207
0.586057
0.5877
0.589143
0.590394
0.591458
0.592342
0.593053
0.593597
0.59398
0.594207
0.594284
0.594218
0.594013
0.593675
0.593208
0.592617
0.591908
0.591084
0.59015
0.58911
0.587968
0.586728
0.585393
0.583967
0.582453
0.580854
0.579174
0.577414
0.575579
0.57367
0.57169
0.569641
0.567526
0.565346
0.563103
0.560799
0.558436
0.556015
0.553538
0.551007
0.548421
0.545783
0.543094
0.540354
0.537565
0.534727
0.531841
0.528907
0.525926
0.522899
0.519826
0.516708
0.513544
0.510334
0.50708
0.503781
0.500438
0.497049
0.493616
0.490138
0.486615
0.483047
0.479434
0.475776
0.472072
0.468322
0.464527
0.460685
0.456797
0.452862
0.448881
0.444852
0.440776
0.436653
0.432482
0.428262
0.423995
0.41968
0.415317
0.410905
0.406444
0.401936
0.397379
0.392774
0.38812
0.383419
0.37867
0.373874
0.369031
0.364141
0.359205
0.354224
0.349197
0.344126
0.339011
0.333853
0.328653
0.323412
0.31813
0.312809
0.30745
0.302053
0.29662
0.291151
0.285648
0.280113
0.274546
0.268948
0.26332
0.257665
0.251982
0.246272
0.240538
0.234779
0.228996
0.22319
0.217362
0.211511
0.205638
0.199742
0.193823
0.18788
0.181911
0.175915
0.169889
0.163832
0.157741
0.151617
0.145486
0.139337
0.133115
0.126801
0.12038
0.113827
0.107115
0.100206
0.0930499
0.0856067
0.077864
0.0696292
0.0607082
0.0507843
0.0392792
0.0252088
0.0176628
0.0493148
0.124022
0.177257
0.224319
0.267561
0.308199
0.346615
0.383357
0.418748
0.452995
0.48626
0.518662
0.550286
0.581196
0.611434
0.641029
0.669999
0.698352
0.726092
0.753214
0.779713
0.805579
0.830803
0.855373
0.879277
0.902505
0.925046
0.946889
0.968028
0.988455
1.00817
1.02716
1.04542
1.06297
1.07979
1.09589
1.11128
1.12596
1.13994
1.15323
1.16583
1.17775
1.18902
1.19963
1.2096
1.21895
1.22768
1.23581
1.24338
1.25038
1.25683
1.26275
1.26815
1.27305
1.27747
1.28142
1.28491
1.28796
1.29059
1.29281
1.29464
1.29609
1.29716
1.29789
1.29828
1.29833
1.29807
1.29751
1.29666
1.29553
1.29412
1.29246
1.29054
1.28839
1.286
1.28339
1.28057
1.27754
1.27432
1.2709
1.2673
1.26352
1.25957
1.25545
1.25118
1.24675
1.24217
1.23745
1.23259
1.2276
1.22247
1.21721
1.21183
1.20633
1.20071
1.19498
1.18913
1.18318
1.17711
1.17094
1.16466
1.15829
1.1518
1.14522
1.13854
1.13177
1.12489
1.11792
1.11085
1.10368
1.09642
1.08907
1.08162
1.07407
1.06643
1.05869
1.05086
1.04293
1.0349
1.02678
1.01856
1.01024
1.00182
0.99331
0.984697
0.975984
0.967172
0.958259
0.949245
0.940131
0.930914
0.921596
0.912177
0.902655
0.89303
0.883304
0.873476
0.863545
0.853513
0.84338
0.833145
0.822811
0.812377
0.801844
0.791214
0.780487
0.769665
0.758748
0.747739
0.736639
0.72545
0.714173
0.702811
0.691365
0.679838
0.668232
0.65655
0.644793
0.632964
0.621067
0.609102
0.597074
0.584984
0.572835
0.56063
0.54837
0.536059
0.523698
0.511289
0.498834
0.486334
0.473789
0.461201
0.44857
0.435894
0.423173
0.410403
0.397583
0.384708
0.371772
0.358769
0.345689
0.332525
0.319263
0.305883
0.292349
0.278643
0.26474
0.25059
0.236145
0.221334
0.206067
0.190221
0.173652
0.156177
0.137504
0.11723
0.0947622
0.0687876
0.0381777
0.049316
0.124024
0.177259
0.224321
0.267563
0.3082
0.346616
0.383358
0.418749
0.452996
0.486261
0.518663
0.550287
0.581197
0.611435
0.64103
0.669999
0.698353
0.726092
0.753214
0.779713
0.80558
0.830803
0.855373
0.879277
0.902505
0.925045
0.946889
0.968028
0.988455
1.00817
1.02715
1.04542
1.06297
1.07979
1.09589
1.11128
1.12596
1.13994
1.15322
1.16583
1.17775
1.18902
1.19963
1.2096
1.21895
1.22768
1.23581
1.24338
1.25038
1.25683
1.26275
1.26815
1.27305
1.27747
1.28142
1.28491
1.28796
1.29059
1.29281
1.29464
1.29608
1.29716
1.29789
1.29827
1.29833
1.29807
1.29751
1.29666
1.29552
1.29412
1.29246
1.29054
1.28839
1.286
1.28339
1.28057
1.27754
1.27432
1.2709
1.2673
1.26352
1.25957
1.25545
1.25118
1.24675
1.24217
1.23745
1.23259
1.22759
1.22247
1.21721
1.21183
1.20633
1.20071
1.19498
1.18913
1.18318
1.17711
1.17094
1.16466
1.15828
1.1518
1.14522
1.13854
1.13176
1.12489
1.11792
1.11085
1.10368
1.09642
1.08907
1.08161
1.07407
1.06642
1.05869
1.05085
1.04292
1.0349
1.02678
1.01856
1.01024
1.00182
0.993308
0.984695
0.975983
0.96717
0.958258
0.949244
0.940129
0.930913
0.921595
0.912175
0.902653
0.893029
0.883303
0.873474
0.863544
0.853512
0.843378
0.833144
0.82281
0.812376
0.801843
0.791213
0.780486
0.769664
0.758747
0.747738
0.736638
0.725449
0.714172
0.70281
0.691364
0.679837
0.668231
0.656549
0.644792
0.632963
0.621066
0.609101
0.597073
0.584983
0.572834
0.560629
0.54837
0.536058
0.523697
0.511288
0.498833
0.486333
0.473789
0.461201
0.448569
0.435893
0.423172
0.410403
0.397583
0.384707
0.371772
0.358768
0.345689
0.332524
0.319262
0.305882
0.292348
0.278642
0.264739
0.25059
0.236145
0.221333
0.206066
0.190221
0.173651
0.156176
0.137504
0.11723
0.0947637
0.0687965
0.0381781
0.0739119
0.176906
0.243836
0.300942
0.353595
0.403418
0.45107
0.496961
0.541367
0.584484
0.626462
0.667414
0.707426
0.746562
0.784866
0.822369
0.85909
0.895036
0.93021
0.964606
0.998216
1.03103
1.06303
1.0942
1.12454
1.15401
1.18262
1.21034
1.23717
1.2631
1.28812
1.31222
1.3354
1.35766
1.37901
1.39943
1.41895
1.43757
1.45529
1.47213
1.4881
1.50321
1.51747
1.5309
1.54352
1.55534
1.56638
1.57667
1.58622
1.59505
1.60318
1.61063
1.61742
1.62358
1.62911
1.63405
1.6384
1.6422
1.64545
1.64818
1.65041
1.65215
1.65343
1.65425
1.65464
1.65461
1.65418
1.65336
1.65217
1.65063
1.64873
1.64651
1.64397
1.64112
1.63798
1.63456
1.63086
1.6269
1.62269
1.61824
1.61355
1.60864
1.60352
1.59818
1.59264
1.58691
1.58099
1.57488
1.5686
1.56215
1.55553
1.54876
1.54182
1.53473
1.5275
1.52012
1.51259
1.50493
1.49713
1.4892
1.48114
1.47295
1.46463
1.45619
1.44762
1.43893
1.43011
1.42118
1.41212
1.40294
1.39365
1.38423
1.3747
1.36505
1.35527
1.34538
1.33537
1.32524
1.31499
1.30462
1.29412
1.28351
1.27277
1.26191
1.25093
1.23982
1.22859
1.21723
1.20575
1.19414
1.18241
1.17055
1.15856
1.14645
1.13421
1.12184
1.10934
1.09672
1.08397
1.0711
1.0581
1.04498
1.03173
1.01836
1.00487
0.99126
0.977532
0.963688
0.949729
0.935658
0.921477
0.907188
0.892793
0.878296
0.863698
0.849004
0.834215
0.819335
0.804368
0.789315
0.774182
0.75897
0.743682
0.728323
0.712896
0.697402
0.681846
0.666229
0.650555
0.634824
0.619039
0.603201
0.587311
0.571368
0.555371
0.539321
0.523212
0.507043
0.490807
0.474499
0.45811
0.441629
0.425045
0.40834
0.391493
0.374474
0.357254
0.339793
0.322039
0.30395
0.285447
0.266434
0.246787
0.226337
0.204889
0.182121
0.157513
0.130015
0.0963843
0.041458
0.0739134
0.176908
0.243837
0.300942
0.353595
0.403419
0.45107
0.496961
0.541367
0.584484
0.626462
0.667414
0.707426
0.746562
0.784866
0.822369
0.859089
0.895035
0.930209
0.964605
0.998216
1.03103
1.06303
1.0942
1.12454
1.15401
1.18262
1.21034
1.23717
1.2631
1.28811
1.31221
1.3354
1.35766
1.379
1.39943
1.41895
1.43757
1.45529
1.47213
1.4881
1.5032
1.51747
1.5309
1.54352
1.55534
1.56638
1.57667
1.58621
1.59504
1.60318
1.61063
1.61742
1.62358
1.62911
1.63405
1.6384
1.6422
1.64545
1.64818
1.65041
1.65215
1.65343
1.65425
1.65464
1.65461
1.65418
1.65336
1.65217
1.65062
1.64873
1.64651
1.64397
1.64112
1.63798
1.63455
1.63086
1.6269
1.62269
1.61824
1.61355
1.60864
1.60351
1.59818
1.59264
1.58691
1.58098
1.57488
1.5686
1.56215
1.55553
1.54875
1.54182
1.53473
1.5275
1.52011
1.51259
1.50493
1.49713
1.4892
1.48114
1.47295
1.46463
1.45618
1.44762
1.43892
1.43011
1.42117
1.41212
1.40294
1.39365
1.38423
1.3747
1.36504
1.35527
1.34538
1.33537
1.32524
1.31499
1.30462
1.29412
1.28351
1.27277
1.26191
1.25093
1.23982
1.22859
1.21723
1.20575
1.19414
1.18241
1.17055
1.15856
1.14645
1.1342
1.12184
1.10934
1.09672
1.08397
1.0711
1.0581
1.04497
1.03173
1.01836
1.00487
0.991258
0.97753
0.963686
0.949728
0.935657
0.921475
0.907186
0.892792
0.878294
0.863697
0.849003
0.834214
0.819334
0.804367
0.789314
0.77418
0.758968
0.743681
0.728322
0.712895
0.697401
0.681845
0.666228
0.650554
0.634823
0.619038
0.6032
0.58731
0.571367
0.555371
0.53932
0.523211
0.507042
0.490806
0.474498
0.458109
0.441629
0.425044
0.408339
0.391492
0.374474
0.357253
0.339792
0.322038
0.30395
0.285446
0.266433
0.246787
0.226337
0.204889
0.18212
0.157511
0.130013
0.0963862
0.0414564
0.0951561
0.221932
0.299844
0.364567
0.423902
0.480098
0.534032
0.586143
0.636696
0.685868
0.733793
0.780572
0.826286
0.870995
0.914743
0.957563
0.999475
1.04049
1.08061
1.11983
1.15815
1.19555
1.23203
1.26755
1.30212
1.33571
1.36831
1.3999
1.43047
1.46002
1.48853
1.516
1.54243
1.56781
1.59214
1.61543
1.63768
1.6589
1.6791
1.6983
1.7165
1.73372
1.74997
1.76528
1.77966
1.79313
1.8057
1.81742
1.82829
1.83833
1.84758
1.85605
1.86377
1.87075
1.87702
1.8826
1.88752
1.8918
1.89546
1.89852
1.90099
1.90292
1.9043
1.90517
1.90553
1.90542
1.90485
1.90383
1.90238
1.90053
1.89828
1.89564
1.89265
1.8893
1.88561
1.8816
1.87727
1.87265
1.86773
1.86254
1.85708
1.85136
1.8454
1.83919
1.83275
1.82609
1.81921
1.81212
1.80483
1.79735
1.78967
1.78182
1.77378
1.76557
1.75718
1.74863
1.73992
1.73106
1.72203
1.71286
1.70353
1.69406
1.68444
1.67468
1.66477
1.65473
1.64455
1.63423
1.62377
1.61318
1.60245
1.59158
1.58058
1.56945
1.55817
1.54677
1.53523
1.52355
1.51173
1.49978
1.4877
1.47547
1.4631
1.4506
1.43796
1.42517
1.41225
1.39918
1.38598
1.37263
1.35914
1.3455
1.33172
1.3178
1.30373
1.28953
1.27517
1.26068
1.24604
1.23126
1.21634
1.20128
1.18609
1.17075
1.15528
1.13967
1.12393
1.10806
1.09206
1.07594
1.05969
1.04332
1.02683
1.01022
0.993508
0.976684
0.959754
0.942722
0.925592
0.908367
0.89105
0.873647
0.85616
0.838592
0.820948
0.80323
0.785443
0.767588
0.749669
0.731687
0.713645
0.695545
0.677386
0.659169
0.640894
0.622558
0.60416
0.585695
0.567159
0.548543
0.529841
0.51104
0.492128
0.473087
0.453895
0.434526
0.414948
0.395123
0.375002
0.354531
0.333632
0.312218
0.290168
0.26731
0.243414
0.218127
0.190785
0.159917
0.120925
0.0533708
0.0951578
0.221934
0.299845
0.364567
0.423902
0.480098
0.534031
0.586143
0.636695
0.685868
0.733792
0.780572
0.826285
0.870994
0.914743
0.957562
0.999474
1.04049
1.08061
1.11983
1.15815
1.19555
1.23202
1.26755
1.30212
1.33571
1.3683
1.3999
1.43047
1.46002
1.48853
1.516
1.54243
1.5678
1.59214
1.61542
1.63768
1.6589
1.6791
1.6983
1.7165
1.73372
1.74997
1.76528
1.77966
1.79312
1.8057
1.81741
1.82828
1.83833
1.84758
1.85605
1.86376
1.87075
1.87702
1.8826
1.88752
1.8918
1.89546
1.89851
1.90099
1.90291
1.9043
1.90516
1.90553
1.90542
1.90485
1.90383
1.90238
1.90053
1.89827
1.89564
1.89264
1.88929
1.88561
1.8816
1.87727
1.87265
1.86773
1.86254
1.85708
1.85136
1.84539
1.83919
1.83275
1.82609
1.81921
1.81212
1.80483
1.79735
1.78967
1.78181
1.77378
1.76556
1.75718
1.74863
1.73992
1.73105
1.72203
1.71285
1.70353
1.69406
1.68444
1.67468
1.66477
1.65473
1.64455
1.63423
1.62377
1.61317
1.60245
1.59158
1.58058
1.56944
1.55817
1.54677
1.53523
1.52355
1.51173
1.49978
1.48769
1.47547
1.4631
1.4506
1.43796
1.42517
1.41225
1.39918
1.38598
1.37263
1.35913
1.3455
1.33172
1.3178
1.30373
1.28952
1.27517
1.26068
1.24604
1.23126
1.21634
1.20128
1.18608
1.17075
1.15528
1.13967
1.12393
1.10806
1.09206
1.07593
1.05969
1.04331
1.02683
1.01022
0.993507
0.976683
0.959753
0.942721
0.925591
0.908366
0.891049
0.873646
0.856159
0.838591
0.820947
0.803229
0.785442
0.767587
0.749668
0.731686
0.713645
0.695544
0.677385
0.659168
0.640893
0.622558
0.604159
0.585695
0.567158
0.548543
0.52984
0.51104
0.492128
0.473086
0.453895
0.434526
0.414948
0.395122
0.375002
0.35453
0.333632
0.312218
0.290168
0.26731
0.243414
0.218126
0.190785
0.159917
0.120927
0.0533707
0.114199
0.262878
0.35127
0.423161
0.488428
0.550038
0.609144
0.666283
0.721746
0.775715
0.828317
0.879648
0.929783
0.978783
1.02669
1.07355
1.11938
1.16419
1.20799
1.2508
1.29259
1.33336
1.37311
1.41182
1.44948
1.48606
1.52157
1.55597
1.58927
1.62146
1.65251
1.68244
1.71123
1.73888
1.76539
1.79077
1.81503
1.83817
1.86019
1.88112
1.90097
1.91975
1.93748
1.95418
1.96986
1.98456
1.99828
2.01106
2.02291
2.03387
2.04396
2.05319
2.0616
2.0692
2.07603
2.08211
2.08745
2.0921
2.09606
2.09936
2.10203
2.10409
2.10556
2.10646
2.10681
2.10664
2.10595
2.10478
2.10314
2.10104
2.09851
2.09556
2.09221
2.08847
2.08436
2.07989
2.07508
2.06994
2.06448
2.05871
2.05264
2.04629
2.03967
2.03278
2.02564
2.01825
2.01062
2.00276
1.99468
1.98638
1.97788
1.96917
1.96026
1.95117
1.94188
1.93241
1.92277
1.91295
1.90295
1.8928
1.88247
1.87199
1.86134
1.85054
1.83958
1.82847
1.8172
1.80579
1.79422
1.78251
1.77064
1.75863
1.74647
1.73416
1.7217
1.70909
1.69634
1.68344
1.67039
1.65719
1.64383
1.63033
1.61668
1.60288
1.58892
1.57481
1.56055
1.54613
1.53156
1.51683
1.50195
1.48691
1.47171
1.45636
1.44086
1.4252
1.40938
1.3934
1.37728
1.36099
1.34456
1.32797
1.31124
1.29435
1.27731
1.26013
1.24281
1.22534
1.20773
1.18999
1.17211
1.1541
1.13597
1.11771
1.09932
1.08082
1.06221
1.04348
1.02465
1.00571
0.986676
0.967547
0.948326
0.929019
0.909628
0.890157
0.87061
0.85099
0.831299
0.811541
0.791717
0.771829
0.751878
0.731864
0.711786
0.691644
0.671435
0.651156
0.6308
0.610362
0.589833
0.569203
0.548457
0.527581
0.506552
0.485346
0.463932
0.442274
0.420325
0.398031
0.375319
0.352096
0.328236
0.303559
0.277802
0.250549
0.220974
0.187201
0.143443
0.0643226
0.114201
0.26288
0.351271
0.423161
0.488428
0.550038
0.609143
0.666282
0.721745
0.775714
0.828316
0.879647
0.929782
0.978782
1.02669
1.07355
1.11938
1.16419
1.20799
1.25079
1.29259
1.33336
1.37311
1.41182
1.44948
1.48606
1.52156
1.55597
1.58927
1.62146
1.65251
1.68244
1.71122
1.73888
1.76539
1.79077
1.81503
1.83817
1.86019
1.88112
1.90097
1.91975
1.93748
1.95418
1.96986
1.98455
1.99828
2.01106
2.02291
2.03387
2.04395
2.05319
2.0616
2.0692
2.07603
2.08211
2.08745
2.0921
2.09606
2.09936
2.10203
2.10409
2.10556
2.10646
2.10681
2.10664
2.10595
2.10478
2.10314
2.10104
2.09851
2.09556
2.09221
2.08847
2.08436
2.07989
2.07508
2.06994
2.06447
2.0587
2.05264
2.04629
2.03967
2.03278
2.02564
2.01825
2.01062
2.00276
1.99468
1.98638
1.97788
1.96917
1.96026
1.95116
1.94188
1.93241
1.92277
1.91294
1.90295
1.89279
1.88247
1.87199
1.86134
1.85054
1.83958
1.82847
1.8172
1.80579
1.79422
1.78251
1.77064
1.75863
1.74647
1.73416
1.7217
1.70909
1.69634
1.68344
1.67039
1.65718
1.64383
1.63033
1.61668
1.60287
1.58892
1.57481
1.56054
1.54613
1.53155
1.51683
1.50195
1.48691
1.47171
1.45636
1.44086
1.42519
1.40938
1.3934
1.37728
1.36099
1.34456
1.32797
1.31123
1.29435
1.27731
1.26013
1.24281
1.22534
1.20773
1.18999
1.17211
1.1541
1.13597
1.11771
1.09932
1.08082
1.0622
1.04348
1.02465
1.00571
0.986676
0.967546
0.948326
0.929018
0.909627
0.890156
0.870609
0.850989
0.831298
0.81154
0.791716
0.771828
0.751877
0.731863
0.711786
0.691644
0.671435
0.651155
0.630799
0.610361
0.589833
0.569202
0.548457
0.52758
0.506551
0.485345
0.463932
0.442273
0.420325
0.398031
0.375318
0.352095
0.328236
0.303559
0.277802
0.250549
0.220974
0.187202
0.143444
0.0643226
0.13178
0.301487
0.400198
0.479177
0.550165
0.616821
0.6806
0.742172
0.801885
0.859944
0.916485
0.971605
1.02538
1.07788
1.12915
1.17924
1.22817
1.27596
1.32264
1.3682
1.41266
1.45602
1.49825
1.53937
1.57935
1.61819
1.65587
1.69239
1.72773
1.76188
1.79485
1.82661
1.85717
1.88653
1.91468
1.94164
1.96741
1.99199
2.0154
2.03765
2.05875
2.07872
2.09758
2.11535
2.13204
2.14768
2.16229
2.17589
2.18852
2.20019
2.21093
2.22076
2.22971
2.23781
2.24509
2.25155
2.25725
2.26219
2.2664
2.26991
2.27274
2.27491
2.27646
2.27739
2.27774
2.27753
2.27676
2.27548
2.27369
2.27141
2.26867
2.26547
2.26185
2.25781
2.25336
2.24853
2.24334
2.23778
2.23188
2.22565
2.2191
2.21225
2.2051
2.19766
2.18995
2.18198
2.17374
2.16526
2.15654
2.14758
2.1384
2.129
2.11939
2.10957
2.09955
2.08933
2.07891
2.06831
2.05753
2.04656
2.03542
2.0241
2.01261
2.00095
1.98912
1.97713
1.96497
1.95265
1.94017
1.92753
1.91472
1.90176
1.88864
1.87536
1.86192
1.84832
1.83456
1.82064
1.80656
1.79232
1.77792
1.76336
1.74864
1.73376
1.71871
1.70349
1.68812
1.67258
1.65687
1.641
1.62496
1.60876
1.59239
1.57585
1.55914
1.54227
1.52524
1.50803
1.49066
1.47313
1.45544
1.43758
1.41956
1.40139
1.38305
1.36456
1.34592
1.32712
1.30818
1.28909
1.26985
1.25048
1.23097
1.21133
1.19155
1.17165
1.15163
1.13149
1.11124
1.09087
1.0704
1.04983
1.02916
1.0084
0.987543
0.966603
0.94558
0.924477
0.903298
0.882045
0.860721
0.839327
0.817865
0.796334
0.774735
0.753067
0.731326
0.709511
0.687616
0.665635
0.64356
0.621381
0.599086
0.576658
0.554079
0.531325
0.508368
0.485171
0.461691
0.437872
0.413642
0.388905
0.363526
0.337309
0.309949
0.280932
0.249275
0.212726
0.164409
0.0743949
0.131782
0.301489
0.400199
0.479177
0.550165
0.61682
0.680599
0.742171
0.801884
0.859944
0.916484
0.971604
1.02538
1.07788
1.12915
1.17924
1.22816
1.27596
1.32264
1.3682
1.41266
1.45601
1.49825
1.53937
1.57935
1.61819
1.65587
1.69239
1.72773
1.76188
1.79485
1.82661
1.85717
1.88653
1.91468
1.94164
1.96741
1.99199
2.0154
2.03765
2.05875
2.07872
2.09758
2.11535
2.13204
2.14768
2.16229
2.17589
2.18852
2.20019
2.21093
2.22076
2.22971
2.23781
2.24508
2.25155
2.25724
2.26218
2.2664
2.26991
2.27274
2.27491
2.27646
2.27739
2.27774
2.27752
2.27676
2.27548
2.27369
2.27141
2.26867
2.26547
2.26185
2.2578
2.25336
2.24853
2.24333
2.23778
2.23188
2.22565
2.2191
2.21225
2.2051
2.19766
2.18995
2.18198
2.17374
2.16526
2.15654
2.14758
2.1384
2.129
2.11939
2.10957
2.09954
2.08932
2.07891
2.06831
2.05753
2.04656
2.03542
2.0241
2.01261
2.00095
1.98912
1.97713
1.96497
1.95265
1.94017
1.92753
1.91472
1.90176
1.88864
1.87536
1.86192
1.84832
1.83456
1.82064
1.80656
1.79232
1.77792
1.76336
1.74864
1.73375
1.71871
1.70349
1.68812
1.67258
1.65687
1.641
1.62496
1.60876
1.59238
1.57585
1.55914
1.54227
1.52523
1.50803
1.49066
1.47313
1.45544
1.43758
1.41956
1.40138
1.38305
1.36456
1.34591
1.32712
1.30818
1.28909
1.26985
1.25048
1.23097
1.21133
1.19155
1.17165
1.15163
1.13149
1.11124
1.09087
1.0704
1.04983
1.02916
1.0084
0.987543
0.966602
0.945579
0.924476
0.903298
0.882045
0.860721
0.839327
0.817864
0.796334
0.774735
0.753066
0.731326
0.709511
0.687615
0.665634
0.643559
0.621381
0.599085
0.576658
0.554079
0.531325
0.508367
0.485171
0.461691
0.437872
0.413642
0.388905
0.363526
0.337309
0.309949
0.280932
0.249276
0.212726
0.16441
0.074395
0.148882
0.338661
0.447634
0.533699
0.610348
0.681894
0.750091
0.815758
0.879319
0.941016
1.00101
1.0594
1.11628
1.17172
1.22579
1.27852
1.32996
1.38015
1.4291
1.47684
1.52338
1.56872
1.61286
1.65581
1.69755
1.73809
1.77741
1.81551
1.85237
1.888
1.92238
1.95552
1.9874
2.01804
2.04742
2.07557
2.10247
2.12814
2.1526
2.17585
2.1979
2.21878
2.23851
2.25709
2.27456
2.29093
2.30623
2.32048
2.33371
2.34594
2.3572
2.36751
2.3769
2.3854
2.39303
2.39982
2.4058
2.41098
2.4154
2.41909
2.42206
2.42435
2.42596
2.42694
2.4273
2.42707
2.42626
2.42489
2.423
2.42059
2.41768
2.4143
2.41047
2.40619
2.40149
2.39638
2.39088
2.385
2.37875
2.37216
2.36522
2.35796
2.35039
2.34251
2.33434
2.32589
2.31716
2.30817
2.29893
2.28943
2.2797
2.26973
2.25953
2.24912
2.23848
2.22764
2.21659
2.20535
2.1939
2.18226
2.17044
2.15843
2.14623
2.13385
2.1213
2.10857
2.09566
2.08258
2.06933
2.05591
2.04231
2.02855
2.01462
2.00052
1.98625
1.97181
1.9572
1.94242
1.92747
1.91236
1.89707
1.88161
1.86598
1.85018
1.83421
1.81806
1.80174
1.78524
1.76857
1.75172
1.7347
1.71751
1.70013
1.68258
1.66486
1.64696
1.62888
1.61063
1.59221
1.57361
1.55484
1.5359
1.51679
1.49751
1.47807
1.45846
1.43869
1.41876
1.39867
1.37843
1.35803
1.33749
1.3168
1.29598
1.27501
1.25391
1.23268
1.21133
1.18985
1.16826
1.14655
1.12473
1.10281
1.08078
1.05866
1.03645
1.01415
0.991756
0.969282
0.946728
0.924096
0.901387
0.878604
0.855745
0.832812
0.809804
0.786718
0.763552
0.740302
0.716961
0.693523
0.669979
0.646316
0.62252
0.598573
0.574453
0.550132
0.525576
0.500741
0.475571
0.44999
0.423896
0.397141
0.369505
0.340636
0.30993
0.276246
0.236962
0.184212
0.0838302
0.148884
0.338663
0.447634
0.533699
0.610348
0.681894
0.750091
0.815758
0.879318
0.941015
1.001
1.0594
1.11628
1.17172
1.22579
1.27852
1.32996
1.38015
1.4291
1.47684
1.52338
1.56872
1.61286
1.65581
1.69755
1.73809
1.77741
1.81551
1.85237
1.888
1.92238
1.95552
1.9874
2.01804
2.04742
2.07556
2.10247
2.12814
2.1526
2.17585
2.1979
2.21878
2.23851
2.25709
2.27456
2.29093
2.30623
2.32048
2.33371
2.34594
2.3572
2.36751
2.3769
2.3854
2.39303
2.39982
2.40579
2.41098
2.4154
2.41909
2.42206
2.42434
2.42596
2.42694
2.4273
2.42707
2.42626
2.42489
2.423
2.42059
2.41768
2.4143
2.41047
2.40619
2.40149
2.39638
2.39088
2.385
2.37875
2.37216
2.36522
2.35796
2.35039
2.34251
2.33434
2.32589
2.31716
2.30817
2.29893
2.28943
2.2797
2.26973
2.25953
2.24911
2.23848
2.22764
2.21659
2.20535
2.1939
2.18226
2.17044
2.15843
2.14623
2.13385
2.1213
2.10857
2.09566
2.08258
2.06933
2.05591
2.04231
2.02855
2.01462
2.00052
1.98625
1.97181
1.9572
1.94242
1.92747
1.91236
1.89707
1.88161
1.86598
1.85018
1.8342
1.81806
1.80174
1.78524
1.76857
1.75172
1.7347
1.71751
1.70013
1.68258
1.66486
1.64696
1.62888
1.61063
1.59221
1.57361
1.55484
1.5359
1.51679
1.49751
1.47807
1.45846
1.43869
1.41875
1.39867
1.37842
1.35803
1.33749
1.3168
1.29598
1.27501
1.25391
1.23268
1.21133
1.18985
1.16826
1.14655
1.12473
1.10281
1.08078
1.05866
1.03645
1.01415
0.991756
0.969282
0.946728
0.924096
0.901387
0.878603
0.855745
0.832812
0.809804
0.786718
0.763552
0.740302
0.716961
0.693523
0.669978
0.646315
0.622519
0.598572
0.574452
0.550132
0.525576
0.500741
0.475571
0.44999
0.423896
0.397141
0.369505
0.340636
0.30993
0.276246
0.236962
0.184212
0.0838302
0.165811
0.375091
0.494195
0.587333
0.669621
0.745976
0.818441
0.887985
0.955118
1.02013
1.08322
1.1445
1.20408
1.26204
1.31846
1.3734
1.4269
1.47902
1.52979
1.57924
1.62739
1.67426
1.71985
1.76417
1.80723
1.84902
1.88955
1.9288
1.96678
2.00348
2.0389
2.07304
2.10588
2.13745
2.16773
2.19674
2.22447
2.25095
2.27618
2.30017
2.32293
2.34449
2.36486
2.38407
2.40212
2.41905
2.43488
2.44963
2.46332
2.47599
2.48766
2.49834
2.50808
2.5169
2.52482
2.53187
2.53808
2.54347
2.54807
2.55191
2.55501
2.55739
2.55908
2.56011
2.56049
2.56026
2.55942
2.55801
2.55605
2.55354
2.55053
2.54701
2.54302
2.53857
2.53367
2.52835
2.52261
2.51648
2.50996
2.50308
2.49584
2.48826
2.48035
2.47212
2.46358
2.45474
2.44562
2.43621
2.42654
2.41661
2.40642
2.39598
2.38531
2.3744
2.36327
2.35191
2.34034
2.32855
2.31656
2.30436
2.29197
2.27937
2.26659
2.25361
2.24044
2.22709
2.21356
2.19984
2.18593
2.17185
2.15759
2.14315
2.12853
2.11373
2.09876
2.08361
2.06828
2.05277
2.03708
2.02121
2.00517
1.98894
1.97254
1.95595
1.93918
1.92224
1.9051
1.88779
1.87029
1.85261
1.83475
1.8167
1.79846
1.78005
1.76144
1.74266
1.72369
1.70453
1.6852
1.66568
1.64598
1.62611
1.60605
1.58582
1.56541
1.54484
1.52409
1.50317
1.48209
1.46085
1.43945
1.41789
1.39618
1.37432
1.35232
1.33017
1.30789
1.28547
1.26293
1.24025
1.21746
1.19455
1.17152
1.14839
1.12515
1.10181
1.07837
1.05484
1.03122
1.0075
0.983706
0.959823
0.935857
0.911809
0.887679
0.863466
0.839169
0.814785
0.79031
0.76574
0.741068
0.716284
0.69138
0.66634
0.641147
0.615782
0.590216
0.564415
0.538335
0.511916
0.485079
0.457712
0.42965
0.400645
0.370299
0.337921
0.3022
0.260188
0.203097
0.0928557
0.165813
0.375093
0.494196
0.587333
0.66962
0.745976
0.81844
0.887984
0.955117
1.02013
1.08321
1.1445
1.20408
1.26204
1.31846
1.3734
1.4269
1.47902
1.52979
1.57924
1.62739
1.67425
1.71985
1.76417
1.80723
1.84902
1.88955
1.9288
1.96678
2.00348
2.0389
2.07303
2.10588
2.13745
2.16773
2.19674
2.22447
2.25095
2.27618
2.30016
2.32293
2.34449
2.36486
2.38407
2.40212
2.41905
2.43488
2.44963
2.46332
2.47599
2.48765
2.49834
2.50808
2.5169
2.52482
2.53187
2.53808
2.54347
2.54807
2.55191
2.55501
2.55739
2.55908
2.56011
2.56049
2.56026
2.55942
2.55801
2.55605
2.55354
2.55053
2.54701
2.54302
2.53857
2.53367
2.52835
2.52261
2.51648
2.50996
2.50308
2.49584
2.48826
2.48035
2.47212
2.46358
2.45474
2.44562
2.43621
2.42654
2.41661
2.40642
2.39598
2.38531
2.3744
2.36327
2.35191
2.34034
2.32855
2.31656
2.30436
2.29197
2.27937
2.26659
2.25361
2.24044
2.22709
2.21356
2.19984
2.18593
2.17185
2.15759
2.14315
2.12853
2.11373
2.09876
2.08361
2.06827
2.05277
2.03708
2.02121
2.00517
1.98894
1.97254
1.95595
1.93918
1.92224
1.9051
1.88779
1.87029
1.85261
1.83475
1.8167
1.79846
1.78004
1.76144
1.74266
1.72369
1.70453
1.6852
1.66568
1.64598
1.6261
1.60605
1.58582
1.56541
1.54484
1.52409
1.50317
1.48209
1.46085
1.43945
1.41789
1.39618
1.37432
1.35232
1.33017
1.30789
1.28547
1.26292
1.24025
1.21746
1.19455
1.17152
1.14839
1.12515
1.10181
1.07837
1.05484
1.03122
1.0075
0.983705
0.959823
0.935857
0.911809
0.887679
0.863466
0.839169
0.814785
0.79031
0.76574
0.741067
0.716284
0.691379
0.666339
0.641147
0.615782
0.590216
0.564415
0.538335
0.511916
0.485079
0.457712
0.42965
0.400645
0.370299
0.337921
0.3022
0.260188
0.203097
0.0928557
0.182482
0.411087
0.540254
0.640461
0.728377
0.809491
0.886117
0.959379
1.02988
1.09796
1.16386
1.22772
1.28967
1.34982
1.40824
1.46502
1.52022
1.5739
1.62611
1.67689
1.72627
1.77428
1.82095
1.86628
1.91029
1.95298
1.99435
2.03442
2.07317
2.11061
2.14674
2.18156
2.21508
2.24728
2.27818
2.30779
2.3361
2.36313
2.3889
2.41341
2.43668
2.45872
2.47956
2.49921
2.51769
2.53503
2.55124
2.56636
2.5804
2.5934
2.60537
2.61635
2.62636
2.63542
2.64357
2.65083
2.65723
2.66279
2.66754
2.67151
2.67472
2.67719
2.67896
2.68004
2.68046
2.68023
2.6794
2.67796
2.67596
2.6734
2.67031
2.6667
2.6626
2.65802
2.65298
2.64749
2.64158
2.63526
2.62854
2.62144
2.61396
2.60613
2.59796
2.58945
2.58062
2.57148
2.56204
2.55231
2.54229
2.532
2.52145
2.51064
2.49957
2.48827
2.47672
2.46494
2.45294
2.44071
2.42826
2.41561
2.40274
2.38966
2.37638
2.36291
2.34923
2.33536
2.32129
2.30704
2.29259
2.27795
2.26313
2.24811
2.23291
2.21753
2.20195
2.1862
2.17025
2.15412
2.1378
2.1213
2.10461
2.08773
2.07066
2.0534
2.03596
2.01832
2.00049
1.98248
1.96427
1.94587
1.92728
1.90849
1.88952
1.87035
1.85099
1.83144
1.81169
1.79176
1.77163
1.75132
1.73082
1.71013
1.68926
1.6682
1.64696
1.62554
1.60394
1.58216
1.56022
1.5381
1.51582
1.49337
1.47076
1.448
1.42508
1.40201
1.3788
1.35544
1.33195
1.30832
1.28456
1.26068
1.23667
1.21255
1.18831
1.16396
1.1395
1.11494
1.09028
1.06553
1.04067
1.01573
0.990686
0.965554
0.940332
0.915018
0.889611
0.864108
0.838508
0.812804
0.786992
0.761063
0.735007
0.708811
0.682459
0.655931
0.629198
0.602226
0.574969
0.547364
0.519323
0.490723
0.461384
0.431026
0.399203
0.365143
0.327373
0.282635
0.221264
0.101493
0.182485
0.411089
0.540254
0.640461
0.728377
0.80949
0.886116
0.959378
1.02988
1.09796
1.16386
1.22772
1.28967
1.34982
1.40824
1.46502
1.52022
1.5739
1.62611
1.67689
1.72627
1.77428
1.82095
1.86628
1.91028
1.95297
1.99435
2.03442
2.07317
2.11061
2.14674
2.18156
2.21507
2.24728
2.27818
2.30778
2.3361
2.36313
2.3889
2.41341
2.43668
2.45872
2.47956
2.4992
2.51769
2.53502
2.55124
2.56636
2.5804
2.5934
2.60537
2.61635
2.62636
2.63542
2.64357
2.65083
2.65723
2.66279
2.66754
2.67151
2.67472
2.67719
2.67896
2.68004
2.68045
2.68023
2.6794
2.67796
2.67596
2.6734
2.67031
2.6667
2.6626
2.65802
2.65298
2.64749
2.64158
2.63526
2.62854
2.62143
2.61396
2.60613
2.59796
2.58945
2.58062
2.57148
2.56204
2.55231
2.54229
2.532
2.52145
2.51064
2.49957
2.48827
2.47672
2.46494
2.45294
2.44071
2.42826
2.4156
2.40274
2.38966
2.37638
2.3629
2.34923
2.33536
2.32129
2.30704
2.29259
2.27795
2.26313
2.24811
2.23291
2.21753
2.20195
2.1862
2.17025
2.15412
2.1378
2.1213
2.1046
2.08773
2.07066
2.0534
2.03595
2.01832
2.00049
1.98248
1.96427
1.94587
1.92728
1.90849
1.88952
1.87035
1.85099
1.83144
1.81169
1.79176
1.77163
1.75132
1.73082
1.71013