/*--------------------------------*- C++ -*----------------------------------*\
  =========                 |
  \\      /  F ield         | OpenFOAM: The Open Source CFD Toolbox
   \\    /   O peration     | Website:  https://openfoam.org
    \\  /    A nd           | Version:  8
     \\/     M anipulation  |
\*---------------------------------------------------------------------------*/
FoamFile
{
    version     2.0;
    format      ascii;
    class       surfaceScalarField;
    location    "2400";
    object      phi;
}
// * * * * * * * * * * * * * * * * * * * * * * * * * * * * * * * * * * * * * //

dimensions      [1 0 -1 0 0 0 0];

internalField   nonuniform List<scalar> 
119360
(
-3.20344e-07
-1.25801e-11
3.20357e-07
-5.35322e-07
-2.04277e-12
2.15096e-07
-6.14964e-07
-1.18214e-12
7.96849e-08
-5.79705e-07
-1.3021e-12
-3.5224e-08
-4.64147e-07
-1.6183e-12
-1.15526e-07
-2.96199e-07
-1.8908e-12
-1.67917e-07
-9.55863e-08
-2.03497e-12
-2.00582e-07
1.23807e-07
-2.00838e-12
-2.19362e-07
3.52086e-07
-1.82875e-12
-2.28249e-07
5.82746e-07
-1.60648e-12
-2.30633e-07
8.11569e-07
-1.41802e-12
-2.28796e-07
1.03566e-06
-1.26576e-12
-2.24065e-07
1.25304e-06
-1.16156e-12
-2.17362e-07
1.46238e-06
-1.11241e-12
-2.09321e-07
1.66279e-06
-1.11277e-12
-2.00391e-07
1.85371e-06
-1.14719e-12
-1.90898e-07
2.03481e-06
-1.19609e-12
-1.81082e-07
2.20595e-06
-1.23845e-12
-1.71126e-07
2.36713e-06
-1.25635e-12
-1.61163e-07
2.51845e-06
-1.23873e-12
-1.51299e-07
2.66008e-06
-1.18191e-12
-1.41612e-07
2.79226e-06
-1.09101e-12
-1.32161e-07
2.91528e-06
-9.78018e-13
-1.22993e-07
3.02943e-06
-8.57503e-13
-1.14138e-07
3.13508e-06
-7.43234e-13
-1.05622e-07
3.23255e-06
-6.46284e-13
-9.74587e-08
3.32223e-06
-5.74869e-13
-8.96583e-08
3.40447e-06
-5.31348e-13
-8.22246e-08
3.47965e-06
-5.12752e-13
-7.51576e-08
3.54812e-06
-5.10587e-13
-6.84536e-08
3.61024e-06
-5.15972e-13
-6.21064e-08
3.66636e-06
-5.21301e-13
-5.61074e-08
3.71683e-06
-5.20219e-13
-5.04464e-08
3.76195e-06
-5.06105e-13
-4.51119e-08
3.80206e-06
-4.74589e-13
-4.00916e-08
3.83745e-06
-4.25725e-13
-3.53723e-08
3.86841e-06
-3.64913e-13
-3.09408e-08
3.8952e-06
-3.0034e-13
-2.67835e-08
3.91811e-06
-2.38653e-13
-2.28869e-08
3.93736e-06
-1.8428e-13
-1.92376e-08
3.95319e-06
-1.38927e-13
-1.58226e-08
3.96583e-06
-1.04191e-13
-1.26291e-08
3.97549e-06
-8.29304e-14
-9.64482e-09
3.98236e-06
-7.75459e-14
-6.85815e-09
3.98662e-06
-8.87731e-14
-4.25786e-09
3.98847e-06
-1.1349e-13
-1.83307e-09
3.98805e-06
-1.45575e-13
4.27131e-10
3.98552e-06
-1.78035e-13
2.53199e-09
3.98104e-06
-2.06707e-13
4.49031e-09
3.97474e-06
-2.30119e-13
6.31148e-09
3.96674e-06
-2.49881e-13
8.0039e-09
3.95717e-06
-2.68963e-13
9.57532e-09
3.94615e-06
-2.89696e-13
1.10329e-08
3.93377e-06
-3.13136e-13
1.23835e-08
3.92014e-06
-3.39129e-13
1.36334e-08
3.90536e-06
-3.66718e-13
1.47886e-08
3.88951e-06
-3.9625e-13
1.58549e-08
3.87268e-06
-4.28627e-13
1.68376e-08
3.85495e-06
-4.65903e-13
1.77418e-08
3.83639e-06
-5.09229e-13
1.85722e-08
3.81706e-06
-5.59106e-13
1.93333e-08
3.79704e-06
-6.13923e-13
2.00294e-08
3.77639e-06
-6.70378e-13
2.06645e-08
3.75516e-06
-7.23863e-13
2.12425e-08
3.7334e-06
-7.70409e-13
2.1767e-08
3.71117e-06
-8.05895e-13
2.22415e-08
3.68852e-06
-8.28432e-13
2.26692e-08
3.66548e-06
-8.37606e-13
2.30532e-08
3.6421e-06
-8.33775e-13
2.33964e-08
3.61842e-06
-8.19065e-13
2.37018e-08
3.59447e-06
-7.95195e-13
2.39718e-08
3.57028e-06
-7.63845e-13
2.4209e-08
3.54588e-06
-7.26375e-13
2.44159e-08
3.52131e-06
-6.83715e-13
2.45945e-08
3.49658e-06
-6.36434e-13
2.47472e-08
3.47172e-06
-5.84697e-13
2.48759e-08
3.44676e-06
-5.29366e-13
2.49826e-08
3.42171e-06
-4.70539e-13
2.50691e-08
3.39659e-06
-4.0931e-13
2.51371e-08
3.37143e-06
-3.47096e-13
2.51884e-08
3.34622e-06
-2.84743e-13
2.52244e-08
3.32099e-06
-2.23875e-13
2.52467e-08
3.29575e-06
-1.65949e-13
2.52567e-08
3.27051e-06
-1.12561e-13
2.52557e-08
3.24528e-06
-6.5016e-14
2.5245e-08
3.22007e-06
-2.43958e-14
2.52258e-08
3.19488e-06
7.95328e-15
2.51992e-08
3.16973e-06
3.13928e-14
2.51663e-08
3.14461e-06
4.56175e-14
2.51281e-08
3.11954e-06
5.01139e-14
2.50857e-08
3.0945e-06
4.54231e-14
2.504e-08
3.06952e-06
3.21698e-14
2.49918e-08
3.04459e-06
1.17e-14
2.49419e-08
3.0197e-06
-1.464e-14
2.48913e-08
2.99487e-06
-4.50602e-14
2.48405e-08
2.97008e-06
-7.77147e-14
2.47905e-08
2.94535e-06
-1.10744e-13
2.47417e-08
2.92066e-06
-1.42246e-13
2.46949e-08
2.89601e-06
-1.70529e-13
2.46508e-08
2.87141e-06
-1.94677e-13
2.46097e-08
2.84684e-06
-2.13356e-13
2.45724e-08
2.82231e-06
-2.26568e-13
2.45394e-08
2.7978e-06
-2.34589e-13
2.45112e-08
2.77332e-06
-2.38087e-13
2.44882e-08
2.74885e-06
-2.38281e-13
2.4471e-08
2.7244e-06
-2.36421e-13
2.446e-08
2.69995e-06
-2.34423e-13
2.44556e-08
2.6755e-06
-2.33896e-13
2.44585e-08
2.65103e-06
-2.36144e-13
2.44689e-08
2.62655e-06
-2.42944e-13
2.44872e-08
2.60205e-06
-2.55129e-13
2.45141e-08
2.5775e-06
-2.73531e-13
2.45497e-08
2.55291e-06
-2.98788e-13
2.45947e-08
2.52827e-06
-3.30457e-13
2.46492e-08
2.50357e-06
-3.68427e-13
2.47139e-08
2.47878e-06
-4.11559e-13
2.4789e-08
2.45392e-06
-4.58244e-13
2.48748e-08
2.42895e-06
-5.06622e-13
2.49719e-08
2.40388e-06
-5.54223e-13
2.50806e-08
2.37869e-06
-5.98576e-13
2.52012e-08
2.35337e-06
-6.3674e-13
2.5334e-08
2.3279e-06
-6.66189e-13
2.54796e-08
2.30227e-06
-6.84813e-13
2.56382e-08
2.27648e-06
-6.91585e-13
2.58102e-08
2.25049e-06
-6.86367e-13
2.59959e-08
2.22431e-06
-6.70575e-13
2.61958e-08
2.19792e-06
-6.46927e-13
2.64101e-08
2.1713e-06
-6.19393e-13
2.66392e-08
2.14443e-06
-5.92637e-13
2.68834e-08
2.1173e-06
-5.71015e-13
2.71429e-08
2.0899e-06
-5.57637e-13
2.74182e-08
2.06221e-06
-5.53002e-13
2.77094e-08
2.03421e-06
-5.55417e-13
2.80168e-08
2.00589e-06
-5.59802e-13
2.83407e-08
1.97723e-06
-5.60191e-13
2.86813e-08
1.94821e-06
-5.50226e-13
2.90389e-08
1.91881e-06
-5.24691e-13
2.94137e-08
1.88902e-06
-4.8278e-13
2.98058e-08
1.85883e-06
-4.27436e-13
3.02154e-08
1.8282e-06
-3.65152e-13
3.06426e-08
1.79713e-06
-3.05061e-13
3.10875e-08
1.7656e-06
-2.54324e-13
3.15499e-08
1.73359e-06
-2.17243e-13
3.20299e-08
1.70108e-06
-1.91763e-13
3.25274e-08
1.66805e-06
-1.70502e-13
3.30422e-08
1.63449e-06
-1.42775e-13
3.35741e-08
1.60039e-06
-9.92261e-14
3.4123e-08
1.56571e-06
-3.66928e-14
3.46886e-08
1.53045e-06
4.12171e-14
3.52704e-08
1.4946e-06
1.22846e-13
3.5868e-08
1.45813e-06
1.95261e-13
3.64808e-08
1.42103e-06
2.48329e-13
3.71079e-08
1.38329e-06
2.8097e-13
3.77488e-08
1.34489e-06
3.01592e-13
3.84023e-08
1.30583e-06
3.22159e-13
3.90675e-08
1.26609e-06
3.52329e-13
3.97432e-08
1.22566e-06
3.91187e-13
4.04281e-08
1.18454e-06
4.2763e-13
4.11205e-08
1.14272e-06
4.45088e-13
4.18187e-08
1.1002e-06
4.35069e-13
4.25206e-08
1.05697e-06
4.02872e-13
4.3224e-08
1.01304e-06
3.68566e-13
4.39265e-08
9.68412e-07
3.5516e-13
4.46252e-08
9.23089e-07
3.71064e-13
4.53171e-08
8.77084e-07
4.03344e-13
4.59986e-08
8.3041e-07
4.23994e-13
4.66657e-08
7.83088e-07
4.10311e-13
4.73137e-08
7.35141e-07
3.64569e-13
4.79376e-08
6.866e-07
3.13943e-13
4.85316e-08
6.375e-07
2.90185e-13
4.90894e-08
5.87887e-07
3.00648e-13
4.96036e-08
5.37811e-07
3.1955e-13
5.00658e-08
4.87334e-07
3.11001e-13
5.04662e-08
4.36529e-07
2.65343e-13
5.07939e-08
3.85481e-07
2.1172e-13
5.10362e-08
3.34291e-07
1.89293e-13
5.11787e-08
2.83076e-07
2.0195e-13
5.12047e-08
2.31971e-07
2.08278e-13
5.10945e-08
1.81135e-07
1.72307e-13
5.0825e-08
1.30754e-07
1.16296e-13
5.0369e-08
8.10502e-08
1.05471e-13
4.96935e-08
3.22811e-08
1.63258e-13
4.87589e-08
-1.52383e-08
2.25597e-13
4.75094e-08
-6.11152e-08
2.2099e-13
4.58667e-08
-1.04899e-07
1.78024e-13
4.37739e-08
-1.46087e-07
1.77969e-13
4.11789e-08
-1.84089e-07
2.00451e-13
3.79932e-08
-2.18189e-07
1.34337e-13
3.40918e-08
-2.47526e-07
-5.27355e-15
2.93284e-08
-2.71068e-07
-2.68674e-14
2.35341e-08
-2.87569e-07
1.08136e-13
1.64938e-08
-2.95537e-07
1.3306e-13
7.96068e-09
-2.93222e-07
-8.18234e-14
-2.32265e-09
-2.78691e-07
-2.87936e-13
-1.45371e-08
-2.49957e-07
-3.98792e-13
-2.87412e-08
-2.05376e-07
-5.79536e-13
-4.45893e-08
-1.44882e-07
-6.35936e-13
-6.05004e-08
-7.30179e-08
-3.28515e-13
-7.18672e-08
-1.02223e-08
7.89257e-13
-6.28037e-08
3.43059e-13
-1.02328e-08
-3.20321e-07
3.2037e-07
-5.35316e-07
2.151e-07
-6.14958e-07
7.96864e-08
-5.79698e-07
-3.52228e-08
-4.64139e-07
-1.15525e-07
-2.96191e-07
-1.67916e-07
-9.55779e-08
-2.00581e-07
1.23815e-07
-2.19361e-07
3.52093e-07
-2.28247e-07
5.82752e-07
-2.30631e-07
8.11574e-07
-2.28795e-07
1.03566e-06
-2.24064e-07
1.25305e-06
-2.17361e-07
1.46239e-06
-2.0932e-07
1.66279e-06
-2.00389e-07
1.85371e-06
-1.90896e-07
2.03481e-06
-1.81081e-07
2.20595e-06
-1.71124e-07
2.36713e-06
-1.61161e-07
2.51845e-06
-1.51297e-07
2.66008e-06
-1.4161e-07
2.79226e-06
-1.32159e-07
2.91527e-06
-1.22991e-07
3.02943e-06
-1.14136e-07
3.13507e-06
-1.0562e-07
3.23255e-06
-9.74568e-08
3.32223e-06
-8.96565e-08
3.40447e-06
-8.22229e-08
3.47964e-06
-7.51559e-08
3.54811e-06
-6.84519e-08
3.61024e-06
-6.21047e-08
3.66636e-06
-5.61057e-08
3.71682e-06
-5.04447e-08
3.76195e-06
-4.51102e-08
3.80206e-06
-4.00899e-08
3.83745e-06
-3.53707e-08
3.8684e-06
-3.09393e-08
3.8952e-06
-2.6782e-08
3.9181e-06
-2.28855e-08
3.93735e-06
-1.92363e-08
3.95319e-06
-1.58214e-08
3.96583e-06
-1.2628e-08
3.97549e-06
-9.64385e-09
3.98236e-06
-6.85727e-09
3.98662e-06
-4.25707e-09
3.98846e-06
-1.83235e-09
3.98804e-06
4.27806e-10
3.98552e-06
2.53263e-09
3.98104e-06
4.49093e-09
3.97473e-06
6.31208e-09
3.96674e-06
8.00449e-09
3.95717e-06
9.57589e-09
3.94614e-06
1.10335e-08
3.93377e-06
1.2384e-08
3.92014e-06
1.36339e-08
3.90536e-06
1.47892e-08
3.88951e-06
1.58555e-08
3.87268e-06
1.68382e-08
3.85495e-06
1.77424e-08
3.83638e-06
1.85729e-08
3.81706e-06
1.9334e-08
3.79704e-06
2.00302e-08
3.77639e-06
2.06655e-08
3.75516e-06
2.12436e-08
3.7334e-06
2.17683e-08
3.71117e-06
2.22429e-08
3.68852e-06
2.26707e-08
3.66548e-06
2.30548e-08
3.6421e-06
2.33982e-08
3.61842e-06
2.37037e-08
3.59446e-06
2.39738e-08
3.57027e-06
2.42111e-08
3.54588e-06
2.44179e-08
3.5213e-06
2.45966e-08
3.49658e-06
2.47493e-08
3.47172e-06
2.4878e-08
3.44676e-06
2.49847e-08
3.42171e-06
2.50711e-08
3.39659e-06
2.51391e-08
3.37142e-06
2.51903e-08
3.34622e-06
2.52263e-08
3.32099e-06
2.52485e-08
3.29575e-06
2.52584e-08
3.27051e-06
2.52573e-08
3.24528e-06
2.52465e-08
3.22007e-06
2.52271e-08
3.19488e-06
2.52004e-08
3.16973e-06
2.51674e-08
3.14461e-06
2.51292e-08
3.11954e-06
2.50867e-08
3.0945e-06
2.50408e-08
3.06952e-06
2.49925e-08
3.04459e-06
2.49426e-08
3.0197e-06
2.48919e-08
2.99487e-06
2.48411e-08
2.97008e-06
2.4791e-08
2.94535e-06
2.47423e-08
2.92066e-06
2.46955e-08
2.89601e-06
2.46513e-08
2.87141e-06
2.46103e-08
2.84684e-06
2.4573e-08
2.82231e-06
2.454e-08
2.7978e-06
2.45118e-08
2.77332e-06
2.44888e-08
2.74885e-06
2.44716e-08
2.7244e-06
2.44606e-08
2.69995e-06
2.44562e-08
2.6755e-06
2.4459e-08
2.65103e-06
2.44694e-08
2.62655e-06
2.44878e-08
2.60205e-06
2.45146e-08
2.5775e-06
2.45503e-08
2.55291e-06
2.45953e-08
2.52827e-06
2.46499e-08
2.50357e-06
2.47145e-08
2.47878e-06
2.47897e-08
2.45392e-06
2.48756e-08
2.42895e-06
2.49728e-08
2.40388e-06
2.50815e-08
2.37869e-06
2.52022e-08
2.35337e-06
2.53352e-08
2.3279e-06
2.54809e-08
2.30227e-06
2.56396e-08
2.27648e-06
2.58117e-08
2.25049e-06
2.59975e-08
2.22431e-06
2.61974e-08
2.19792e-06
2.64118e-08
2.1713e-06
2.6641e-08
2.14443e-06
2.68852e-08
2.1173e-06
2.71448e-08
2.0899e-06
2.742e-08
2.06221e-06
2.77113e-08
2.03421e-06
2.80187e-08
2.00589e-06
2.83426e-08
1.97723e-06
2.86833e-08
1.94821e-06
2.90409e-08
1.91881e-06
2.94157e-08
1.88902e-06
2.98078e-08
1.85883e-06
3.02174e-08
1.8282e-06
3.06446e-08
1.79713e-06
3.10894e-08
1.7656e-06
3.15518e-08
1.73359e-06
3.20318e-08
1.70108e-06
3.25292e-08
1.66805e-06
3.30439e-08
1.63449e-06
3.35758e-08
1.60039e-06
3.41246e-08
1.56571e-06
3.469e-08
1.53045e-06
3.52717e-08
1.4946e-06
3.58691e-08
1.45813e-06
3.64817e-08
1.42103e-06
3.71087e-08
1.38329e-06
3.77494e-08
1.34489e-06
3.84028e-08
1.30583e-06
3.90678e-08
1.26609e-06
3.97434e-08
1.22566e-06
4.04281e-08
1.18454e-06
4.11204e-08
1.14272e-06
4.18184e-08
1.1002e-06
4.25202e-08
1.05697e-06
4.32234e-08
1.01304e-06
4.39258e-08
9.68413e-07
4.46245e-08
9.2309e-07
4.53163e-08
8.77084e-07
4.59977e-08
8.30411e-07
4.66647e-08
7.83088e-07
4.73126e-08
7.35142e-07
4.79364e-08
6.866e-07
4.85304e-08
6.37501e-07
4.90882e-08
5.87888e-07
4.96025e-08
5.37811e-07
5.00646e-08
4.87334e-07
5.04649e-08
4.36529e-07
5.07925e-08
3.85482e-07
5.10348e-08
3.34292e-07
5.11775e-08
2.83077e-07
5.12035e-08
2.31971e-07
5.10932e-08
1.81135e-07
5.08236e-08
1.30755e-07
5.03676e-08
8.10512e-08
4.96924e-08
3.22822e-08
4.87579e-08
-1.52374e-08
4.75083e-08
-6.11145e-08
4.58657e-08
-1.04898e-07
4.37731e-08
-1.46086e-07
4.11782e-08
-1.84088e-07
3.79925e-08
-2.18189e-07
3.40907e-08
-2.47526e-07
2.93273e-08
-2.71067e-07
2.35333e-08
-2.87569e-07
1.64932e-08
-2.95538e-07
7.9601e-09
-2.93223e-07
-2.32239e-09
-2.78692e-07
-1.45361e-08
-2.49958e-07
-2.87406e-08
-2.05376e-07
-4.4589e-08
-1.44882e-07
-6.05009e-08
-7.3022e-08
-7.18692e-08
-1.02229e-08
-6.2806e-08
-1.02337e-08
-1.89064e-07
-2.80343e-12
5.09529e-07
-2.16792e-07
2.34483e-13
2.42901e-07
-1.73647e-07
2.98528e-13
3.65747e-08
-8.53955e-08
2.37683e-13
-1.23445e-07
3.8429e-08
1.70997e-13
-2.39322e-07
1.89631e-07
1.27551e-13
-3.19092e-07
3.60375e-07
1.12764e-13
-3.71299e-07
5.44127e-07
1.1703e-13
-4.03088e-07
7.35664e-07
1.2594e-13
-4.19761e-07
9.30751e-07
1.34529e-13
-4.25698e-07
1.12606e-06
1.38013e-13
-4.24087e-07
1.3191e-06
1.33398e-13
-4.17081e-07
1.50799e-06
1.19506e-13
-4.0624e-07
1.69138e-06
9.73291e-14
-3.92688e-07
1.86825e-06
7.00799e-14
-3.77251e-07
2.03792e-06
4.24005e-14
-3.60547e-07
2.19989e-06
1.88845e-14
-3.43043e-07
2.35388e-06
3.49388e-15
-3.25099e-07
2.49973e-06
-8.15277e-16
-3.0699e-07
2.63738e-06
6.28311e-15
-2.88929e-07
2.76687e-06
2.29364e-14
-2.71084e-07
2.8883e-06
4.54183e-14
-2.53581e-07
3.00185e-06
6.98084e-14
-2.3652e-07
3.1077e-06
9.2554e-14
-2.19974e-07
3.2061e-06
1.10425e-13
-2.03999e-07
3.29729e-06
1.21406e-13
-1.88633e-07
3.38155e-06
1.24875e-13
-1.73903e-07
3.45916e-06
1.22065e-13
-1.59823e-07
3.53042e-06
1.15272e-13
-1.464e-07
3.59561e-06
1.07063e-13
-1.33632e-07
3.65504e-06
9.93225e-14
-1.21512e-07
3.70897e-06
9.36915e-14
-1.1003e-07
3.75771e-06
9.16896e-14
-9.91702e-08
3.80153e-06
9.43575e-14
-8.89138e-08
3.84069e-06
1.0165e-13
-7.92407e-08
3.87546e-06
1.12111e-13
-7.0129e-08
3.90609e-06
1.23442e-13
-6.15558e-08
3.93282e-06
1.33579e-13
-5.34974e-08
3.95587e-06
1.41507e-13
-4.593e-08
3.97548e-06
1.46833e-13
-3.88298e-08
3.99184e-06
1.49643e-13
-3.21732e-08
4.00516e-06
1.49587e-13
-2.59373e-08
4.01562e-06
1.46274e-13
-2.00996e-08
4.02341e-06
1.39696e-13
-1.46385e-08
4.02869e-06
1.30634e-13
-9.53312e-09
4.03163e-06
1.20718e-13
-4.76348e-09
4.03237e-06
1.11479e-13
-3.10337e-10
4.03107e-06
1.04169e-13
3.84388e-09
4.02785e-06
9.93459e-14
7.71624e-09
4.02284e-06
9.65391e-14
1.13236e-08
4.01617e-06
9.47593e-14
1.46815e-08
4.00795e-06
9.3087e-14
1.78045e-08
3.99828e-06
9.11267e-14
2.07065e-08
3.98727e-06
8.88993e-14
2.34003e-08
3.97502e-06
8.66961e-14
2.58981e-08
3.9616e-06
8.45867e-14
2.82115e-08
3.94711e-06
8.23801e-14
3.03514e-08
3.93163e-06
7.97606e-14
3.23279e-08
3.91522e-06
7.6194e-14
3.41509e-08
3.89798e-06
7.14131e-14
3.58295e-08
3.87994e-06
6.57683e-14
3.73724e-08
3.8612e-06
5.98598e-14
3.87878e-08
3.84179e-06
5.46313e-14
4.00835e-08
3.82177e-06
5.10057e-14
4.12668e-08
3.80121e-06
4.97775e-14
4.23448e-08
3.78014e-06
5.13387e-14
4.3324e-08
3.75861e-06
5.56755e-14
4.42109e-08
3.73667e-06
6.23819e-14
4.50113e-08
3.71435e-06
7.09479e-14
4.5731e-08
3.69169e-06
8.07283e-14
4.63754e-08
3.66873e-06
9.11886e-14
4.69496e-08
3.6455e-06
1.01986e-13
4.74584e-08
3.62203e-06
1.12834e-13
4.79067e-08
3.59834e-06
1.23558e-13
4.82986e-08
3.57447e-06
1.3413e-13
4.86386e-08
3.55043e-06
1.44375e-13
4.89305e-08
3.52626e-06
1.54173e-13
4.91783e-08
3.50196e-06
1.63329e-13
4.93854e-08
3.47756e-06
1.71555e-13
4.95554e-08
3.45307e-06
1.78532e-13
4.96915e-08
3.42851e-06
1.8392e-13
4.97967e-08
3.4039e-06
1.87323e-13
4.98742e-08
3.37925e-06
1.88531e-13
4.99266e-08
3.35456e-06
1.87233e-13
4.99565e-08
3.32985e-06
1.83285e-13
4.99667e-08
3.30513e-06
1.76658e-13
4.99593e-08
3.2804e-06
1.67429e-13
4.99368e-08
3.25567e-06
1.55807e-13
4.99012e-08
3.23096e-06
1.42113e-13
4.98546e-08
3.20625e-06
1.26937e-13
4.97991e-08
3.18156e-06
1.10797e-13
4.97363e-08
3.15689e-06
9.44112e-14
4.96682e-08
3.13224e-06
7.85627e-14
4.95963e-08
3.10762e-06
6.3932e-14
4.95223e-08
3.08302e-06
5.11471e-14
4.94476e-08
3.05844e-06
4.07353e-14
4.93738e-08
3.03388e-06
3.30539e-14
4.9302e-08
3.00935e-06
2.81897e-14
4.92337e-08
2.98483e-06
2.61809e-14
4.91701e-08
2.96034e-06
2.67568e-14
4.91122e-08
2.93585e-06
2.95358e-14
4.90613e-08
2.91138e-06
3.39767e-14
4.90183e-08
2.88691e-06
3.94619e-14
4.89843e-08
2.86244e-06
4.53321e-14
4.89603e-08
2.83797e-06
5.09318e-14
4.89473e-08
2.81349e-06
5.57856e-14
4.89461e-08
2.789e-06
5.94007e-14
4.89577e-08
2.76448e-06
6.15032e-14
4.89831e-08
2.73993e-06
6.20479e-14
4.9023e-08
2.71534e-06
6.10313e-14
4.90784e-08
2.69071e-06
5.86235e-14
4.91501e-08
2.66603e-06
5.51644e-14
4.9239e-08
2.64128e-06
5.09941e-14
4.93458e-08
2.61647e-06
4.65636e-14
4.94714e-08
2.59157e-06
4.23552e-14
4.96166e-08
2.56659e-06
3.88025e-14
4.97821e-08
2.5415e-06
3.63149e-14
4.99688e-08
2.5163e-06
3.53157e-14
5.01772e-08
2.49098e-06
3.60581e-14
5.04082e-08
2.46553e-06
3.88649e-14
5.06625e-08
2.43994e-06
4.38401e-14
5.09407e-08
2.41418e-06
5.09628e-14
5.12435e-08
2.38826e-06
6.00597e-14
5.15717e-08
2.36216e-06
7.08636e-14
5.19259e-08
2.33586e-06
8.26944e-14
5.23067e-08
2.30936e-06
9.4945e-14
5.27147e-08
2.28263e-06
1.0662e-13
5.31507e-08
2.25567e-06
1.1682e-13
5.36153e-08
2.22846e-06
1.24741e-13
5.4109e-08
2.20098e-06
1.29768e-13
5.46323e-08
2.17323e-06
1.31915e-13
5.5186e-08
2.14519e-06
1.31596e-13
5.57704e-08
2.11683e-06
1.29872e-13
5.63862e-08
2.08816e-06
1.2803e-13
5.70336e-08
2.05914e-06
1.27603e-13
5.77132e-08
2.02977e-06
1.2956e-13
5.84252e-08
2.00003e-06
1.34393e-13
5.91701e-08
1.96991e-06
1.41498e-13
5.99479e-08
1.93938e-06
1.49537e-13
6.07589e-08
1.90843e-06
1.56548e-13
6.16032e-08
1.87706e-06
1.6076e-13
6.24808e-08
1.84523e-06
1.60962e-13
6.33916e-08
1.81294e-06
1.57284e-13
6.43354e-08
1.78017e-06
1.51087e-13
6.5312e-08
1.7469e-06
1.44822e-13
6.63209e-08
1.71313e-06
1.40679e-13
6.73618e-08
1.67883e-06
1.40117e-13
6.84339e-08
1.64399e-06
1.42664e-13
6.95365e-08
1.6086e-06
1.46189e-13
7.06687e-08
1.57265e-06
1.47632e-13
7.18293e-08
1.53612e-06
1.44246e-13
7.30171e-08
1.49901e-06
1.35267e-13
7.42305e-08
1.46129e-06
1.22145e-13
7.54678e-08
1.42297e-06
1.08122e-13
7.6727e-08
1.38404e-06
9.62355e-14
7.80058e-08
1.34448e-06
8.77354e-14
7.93017e-08
1.3043e-06
8.08659e-14
8.06118e-08
1.26348e-06
7.20327e-14
8.19328e-08
1.22204e-06
5.82104e-14
8.32611e-08
1.17996e-06
3.91839e-14
8.45925e-08
1.13726e-06
1.87628e-14
8.59225e-08
1.09394e-06
2.55352e-15
8.72459e-08
1.05e-06
-5.75928e-15
8.85571e-08
1.00546e-06
-7.56339e-15
8.98496e-08
9.60336e-07
-8.74994e-15
9.11161e-08
9.14645e-07
-1.59664e-14
9.23488e-08
8.68412e-07
-3.09405e-14
9.35387e-08
8.21666e-07
-4.87527e-14
9.46756e-08
7.7444e-07
-6.13051e-14
9.57483e-08
7.26777e-07
-6.42333e-14
9.67441e-08
6.78723e-07
-6.15341e-14
9.76486e-08
6.30334e-07
-6.22349e-14
9.84456e-08
5.81673e-07
-7.15122e-14
9.91167e-08
5.32817e-07
-8.47239e-14
9.9641e-08
4.83849e-07
-9.21346e-14
9.99946e-08
4.34868e-07
-9.00044e-14
1.0015e-07
3.85987e-07
-8.66668e-14
1.00077e-07
3.37335e-07
-9.31616e-14
9.97373e-08
2.8906e-07
-1.0756e-13
9.90903e-08
2.41334e-07
-1.13708e-13
9.80865e-08
1.94351e-07
-1.00711e-13
9.66672e-08
1.48339e-07
-7.99846e-14
9.47629e-08
1.03553e-07
-7.27404e-14
9.22866e-08
6.02828e-08
-7.83054e-14
8.91287e-08
1.88589e-08
-7.56895e-14
8.51902e-08
-2.03267e-08
-6.35811e-14
8.03574e-08
-5.68198e-08
-7.37466e-14
7.44791e-08
-9.01187e-08
-1.1386e-13
6.73834e-08
-1.19663e-07
-1.32741e-13
5.8866e-08
-1.44825e-07
-1.00128e-13
4.86895e-08
-1.64914e-07
-6.80844e-14
3.65763e-08
-1.79199e-07
-5.66491e-14
2.2239e-08
-1.86937e-07
-9.47853e-15
5.40984e-09
-1.87423e-07
5.17642e-15
-1.40556e-08
-1.80123e-07
-8.79852e-14
-3.60462e-08
-1.64827e-07
-1.11522e-13
-5.98913e-08
-1.41736e-07
-1.58845e-13
-8.35976e-08
-1.10794e-07
-3.08004e-13
-1.02817e-07
-6.75835e-08
-3.77754e-13
-1.06026e-07
-2.40052e-12
-7.7828e-08
-1.89054e-07
5.09526e-07
-2.16788e-07
2.42898e-07
-1.73642e-07
3.65718e-08
-8.53911e-08
-1.23447e-07
3.84332e-08
-2.39324e-07
1.89635e-07
-3.19093e-07
3.60379e-07
-3.71301e-07
5.4413e-07
-4.0309e-07
7.35666e-07
-4.19762e-07
9.30753e-07
-4.25699e-07
1.12606e-06
-4.24088e-07
1.3191e-06
-4.17082e-07
1.50799e-06
-4.06241e-07
1.69138e-06
-3.92688e-07
1.86825e-06
-3.77251e-07
2.03792e-06
-3.60547e-07
2.19989e-06
-3.43044e-07
2.35388e-06
-3.25099e-07
2.49973e-06
-3.0699e-07
2.63737e-06
-2.88929e-07
2.76686e-06
-2.71084e-07
2.8883e-06
-2.53581e-07
3.00185e-06
-2.3652e-07
3.1077e-06
-2.19974e-07
3.20609e-06
-2.03999e-07
3.29729e-06
-1.88634e-07
3.38155e-06
-1.73903e-07
3.45916e-06
-1.59823e-07
3.53042e-06
-1.464e-07
3.59561e-06
-1.33632e-07
3.65503e-06
-1.21513e-07
3.70897e-06
-1.1003e-07
3.75771e-06
-9.91703e-08
3.80153e-06
-8.89139e-08
3.84069e-06
-7.92408e-08
3.87546e-06
-7.01291e-08
3.90609e-06
-6.15559e-08
3.93282e-06
-5.34975e-08
3.95587e-06
-4.59301e-08
3.97548e-06
-3.88299e-08
3.99184e-06
-3.21734e-08
4.00515e-06
-2.59375e-08
4.01562e-06
-2.00998e-08
4.02341e-06
-1.46387e-08
4.02869e-06
-9.53332e-09
4.03163e-06
-4.76368e-09
4.03237e-06
-3.10541e-10
4.03107e-06
3.84368e-09
4.02785e-06
7.71603e-09
4.02284e-06
1.13234e-08
4.01617e-06
1.46812e-08
4.00795e-06
1.78043e-08
3.99828e-06
2.07062e-08
3.98727e-06
2.34e-08
3.97501e-06
2.58979e-08
3.9616e-06
2.82113e-08
3.94711e-06
3.03511e-08
3.93162e-06
3.23277e-08
3.91522e-06
3.41507e-08
3.89797e-06
3.58293e-08
3.87994e-06
3.73722e-08
3.86119e-06
3.87876e-08
3.84179e-06
4.00833e-08
3.82177e-06
4.12666e-08
3.80121e-06
4.23446e-08
3.78014e-06
4.33239e-08
3.75861e-06
4.42108e-08
3.73667e-06
4.50112e-08
3.71435e-06
4.57309e-08
3.69169e-06
4.63753e-08
3.66873e-06
4.69495e-08
3.6455e-06
4.74583e-08
3.62203e-06
4.79065e-08
3.59834e-06
4.82985e-08
3.57447e-06
4.86385e-08
3.55043e-06
4.89304e-08
3.52626e-06
4.91782e-08
3.50196e-06
4.93853e-08
3.47756e-06
4.95553e-08
3.45307e-06
4.96914e-08
3.42851e-06
4.97966e-08
3.4039e-06
4.98741e-08
3.37925e-06
4.99265e-08
3.35456e-06
4.99564e-08
3.32985e-06
4.99666e-08
3.30513e-06
4.99592e-08
3.2804e-06
4.99367e-08
3.25567e-06
4.99011e-08
3.23096e-06
4.98545e-08
3.20625e-06
4.9799e-08
3.18156e-06
4.97362e-08
3.15689e-06
4.96681e-08
3.13224e-06
4.95962e-08
3.10762e-06
4.95222e-08
3.08302e-06
4.94476e-08
3.05844e-06
4.93737e-08
3.03388e-06
4.9302e-08
3.00935e-06
4.92337e-08
2.98483e-06
4.91701e-08
2.96034e-06
4.91122e-08
2.93585e-06
4.90612e-08
2.91138e-06
4.90183e-08
2.88691e-06
4.89843e-08
2.86244e-06
4.89603e-08
2.83797e-06
4.89472e-08
2.81349e-06
4.8946e-08
2.78899e-06
4.89576e-08
2.76448e-06
4.8983e-08
2.73993e-06
4.90229e-08
2.71534e-06
4.90783e-08
2.69071e-06
4.915e-08
2.66603e-06
4.92389e-08
2.64128e-06
4.93457e-08
2.61647e-06
4.94713e-08
2.59157e-06
4.96165e-08
2.56658e-06
4.9782e-08
2.5415e-06
4.99687e-08
2.5163e-06
5.01771e-08
2.49098e-06
5.04081e-08
2.46553e-06
5.06624e-08
2.43993e-06
5.09406e-08
2.41418e-06
5.12435e-08
2.38826e-06
5.15716e-08
2.36216e-06
5.19258e-08
2.33586e-06
5.23066e-08
2.30936e-06
5.27147e-08
2.28263e-06
5.31507e-08
2.25567e-06
5.36152e-08
2.22846e-06
5.41089e-08
2.20098e-06
5.46322e-08
2.17323e-06
5.51859e-08
2.14519e-06
5.57703e-08
2.11683e-06
5.63861e-08
2.08816e-06
5.70335e-08
2.05914e-06
5.77131e-08
2.02977e-06
5.84252e-08
2.00003e-06
5.917e-08
1.96991e-06
5.99479e-08
1.93938e-06
6.07589e-08
1.90843e-06
6.16032e-08
1.87706e-06
6.24808e-08
1.84523e-06
6.33915e-08
1.81294e-06
6.43353e-08
1.78017e-06
6.53119e-08
1.7469e-06
6.63209e-08
1.71313e-06
6.73617e-08
1.67883e-06
6.84339e-08
1.64399e-06
6.95365e-08
1.6086e-06
7.06686e-08
1.57265e-06
7.18293e-08
1.53612e-06
7.3017e-08
1.49901e-06
7.42304e-08
1.46129e-06
7.54677e-08
1.42297e-06
7.67269e-08
1.38404e-06
7.80057e-08
1.34448e-06
7.93016e-08
1.3043e-06
8.06117e-08
1.26348e-06
8.19327e-08
1.22204e-06
8.3261e-08
1.17996e-06
8.45924e-08
1.13726e-06
8.59224e-08
1.09394e-06
8.72459e-08
1.05e-06
8.8557e-08
1.00546e-06
8.98495e-08
9.60336e-07
9.11161e-08
9.14645e-07
9.23488e-08
8.68412e-07
9.35386e-08
8.21666e-07
9.46755e-08
7.74441e-07
9.57482e-08
7.26777e-07
9.67441e-08
6.78723e-07
9.76486e-08
6.30334e-07
9.84456e-08
5.81674e-07
9.91166e-08
5.32817e-07
9.96409e-08
4.83849e-07
9.99946e-08
4.34868e-07
1.0015e-07
3.85987e-07
1.00077e-07
3.37335e-07
9.97372e-08
2.8906e-07
9.90903e-08
2.41334e-07
9.80865e-08
1.94352e-07
9.66672e-08
1.48339e-07
9.47629e-08
1.03553e-07
9.22866e-08
6.02831e-08
8.91288e-08
1.88593e-08
8.51903e-08
-2.03264e-08
8.03575e-08
-5.68197e-08
7.44792e-08
-9.01186e-08
6.73835e-08
-1.19663e-07
5.88662e-08
-1.44825e-07
4.86896e-08
-1.64913e-07
3.65764e-08
-1.79198e-07
2.2239e-08
-1.86936e-07
5.40987e-09
-1.87423e-07
-1.40556e-08
-1.80123e-07
-3.6046e-08
-1.64827e-07
-5.98908e-08
-1.41737e-07
-8.35973e-08
-1.10797e-07
-1.02816e-07
-6.75917e-08
-1.06026e-07
-7.78294e-08
-3.97595e-08
-1.88303e-12
5.49331e-07
1.85044e-08
2.30317e-13
1.84681e-07
1.14311e-07
1.73971e-13
-5.92211e-08
2.28198e-07
1.35434e-13
-2.37323e-07
3.56966e-07
1.10424e-13
-3.68084e-07
4.98975e-07
9.6039e-14
-4.61094e-07
6.52004e-07
9.16425e-14
-5.24323e-07
8.1339e-07
9.18953e-14
-5.64469e-07
9.80538e-07
9.44555e-14
-5.86904e-07
1.15087e-06
9.66167e-14
-5.96025e-07
1.32203e-06
9.45036e-14
-5.95242e-07
1.49206e-06
8.74258e-14
-5.87102e-07
1.65935e-06
7.50675e-14
-5.73533e-07
1.82266e-06
5.83238e-14
-5.55993e-07
1.98101e-06
3.94673e-14
-5.35594e-07
2.13366e-06
2.06906e-14
-5.13194e-07
2.28008e-06
4.55757e-15
-4.89459e-07
2.41989e-06
-5.90635e-15
-4.64907e-07
2.55285e-06
-9.50076e-15
-4.39947e-07
2.67883e-06
-7.25956e-15
-4.14902e-07
2.79778e-06
-4.73378e-16
-3.90025e-07
2.90971e-06
9.92797e-15
-3.65515e-07
3.01473e-06
2.21542e-14
-3.41527e-07
3.11294e-06
3.35028e-14
-3.18181e-07
3.20451e-06
4.18433e-14
-2.95568e-07
3.28964e-06
4.65096e-14
-2.73755e-07
3.36853e-06
4.78627e-14
-2.52788e-07
3.4414e-06
4.6624e-14
-2.32697e-07
3.50851e-06
4.35136e-14
-2.135e-07
3.57008e-06
3.96417e-14
-1.95201e-07
3.62637e-06
3.63144e-14
-1.77796e-07
3.67762e-06
3.47844e-14
-1.61275e-07
3.72407e-06
3.59119e-14
-1.4562e-07
3.76597e-06
3.98115e-14
-1.3081e-07
3.80355e-06
4.60305e-14
-1.16819e-07
3.83704e-06
5.37396e-14
-1.03618e-07
3.86667e-06
6.19743e-14
-9.11783e-08
3.89264e-06
6.98742e-14
-7.94678e-08
3.91517e-06
7.68824e-14
-6.84546e-08
3.93445e-06
8.25688e-14
-5.81065e-08
3.95067e-06
8.66228e-14
-4.83914e-08
3.96401e-06
8.88207e-14
-3.92777e-08
3.97465e-06
8.90306e-14
-3.07344e-08
3.98274e-06
8.75109e-14
-2.27315e-08
3.98845e-06
8.47909e-14
-1.524e-08
3.99192e-06
8.16163e-14
-8.23178e-09
3.99329e-06
7.85892e-14
-1.6802e-09
3.9927e-06
7.60461e-14
4.43984e-09
3.99026e-06
7.40684e-14
1.01524e-08
3.98611e-06
7.241e-14
1.5481e-08
3.98034e-06
7.0788e-14
2.04476e-08
3.97307e-06
6.90255e-14
2.50729e-08
3.96441e-06
6.70982e-14
2.93767e-08
3.95443e-06
6.50443e-14
3.33773e-08
3.94324e-06
6.29279e-14
3.70924e-08
3.93091e-06
6.0671e-14
4.05383e-08
3.91753e-06
5.8036e-14
4.37309e-08
3.90318e-06
5.47851e-14
4.66848e-08
3.88792e-06
5.07276e-14
4.9414e-08
3.87182e-06
4.58998e-14
5.19318e-08
3.85494e-06
4.0536e-14
5.42506e-08
3.83735e-06
3.51289e-14
5.63825e-08
3.81909e-06
3.02161e-14
5.83387e-08
3.80023e-06
2.63598e-14
6.01297e-08
3.78081e-06
2.39225e-14
6.17659e-08
3.76089e-06
2.31211e-14
6.32568e-08
3.74049e-06
2.39589e-14
6.46116e-08
3.71966e-06
2.63424e-14
6.58389e-08
3.69845e-06
2.9994e-14
6.69472e-08
3.67689e-06
3.47436e-14
6.79441e-08
3.655e-06
4.03502e-14
6.88373e-08
3.63283e-06
4.66438e-14
6.96339e-08
3.6104e-06
5.34543e-14
7.03406e-08
3.58774e-06
6.06916e-14
7.09639e-08
3.56487e-06
6.81578e-14
7.151e-08
3.54182e-06
7.56587e-14
7.19847e-08
3.51861e-06
8.29515e-14
7.23936e-08
3.49526e-06
8.97325e-14
7.2742e-08
3.47178e-06
9.56687e-14
7.30349e-08
3.4482e-06
1.00401e-13
7.32772e-08
3.42453e-06
1.03607e-13
7.34733e-08
3.40078e-06
1.05005e-13
7.36277e-08
3.37696e-06
1.04398e-13
7.37444e-08
3.35309e-06
1.01664e-13
7.38273e-08
3.32918e-06
9.67841e-14
7.38802e-08
3.30524e-06
8.99163e-14
7.39066e-08
3.28126e-06
8.13398e-14
7.39099e-08
3.25727e-06
7.14172e-14
7.38932e-08
3.23327e-06
6.06445e-14
7.38597e-08
3.20926e-06
4.96082e-14
7.3812e-08
3.18524e-06
3.89067e-14
7.37531e-08
3.16123e-06
2.91263e-14
7.36855e-08
3.13722e-06
2.07788e-14
7.36116e-08
3.1132e-06
1.42649e-14
7.35339e-08
3.0892e-06
9.83613e-15
7.34545e-08
3.0652e-06
7.59312e-15
7.33756e-08
3.0412e-06
7.44219e-15
7.32992e-08
3.01721e-06
9.16649e-15
7.32272e-08
2.99322e-06
1.23514e-14
7.31614e-08
2.96923e-06
1.65633e-14
7.31036e-08
2.94524e-06
2.12766e-14
7.30554e-08
2.92124e-06
2.60019e-14
7.30184e-08
2.89723e-06
3.02763e-14
7.29943e-08
2.87321e-06
3.37128e-14
7.29843e-08
2.84916e-06
3.6039e-14
7.29901e-08
2.8251e-06
3.71076e-14
7.3013e-08
2.801e-06
3.69185e-14
7.30543e-08
2.77687e-06
3.56019e-14
7.31155e-08
2.7527e-06
3.33901e-14
7.31978e-08
2.72847e-06
3.05694e-14
7.33025e-08
2.70419e-06
2.75024e-14
7.34309e-08
2.67985e-06
2.451e-14
7.35842e-08
2.65543e-06
2.19027e-14
7.37635e-08
2.63094e-06
1.99459e-14
7.39702e-08
2.60635e-06
1.88184e-14
7.42053e-08
2.58166e-06
1.86466e-14
7.44701e-08
2.55687e-06
1.9488e-14
7.47655e-08
2.53195e-06
2.13111e-14
7.50926e-08
2.50691e-06
2.40763e-14
7.54527e-08
2.48173e-06
2.76602e-14
7.58466e-08
2.4564e-06
3.19519e-14
7.62754e-08
2.4309e-06
3.68074e-14
7.67401e-08
2.40523e-06
4.20636e-14
7.72418e-08
2.37938e-06
4.74673e-14
7.77813e-08
2.35333e-06
5.2805e-14
7.83595e-08
2.32707e-06
5.77785e-14
7.89776e-08
2.30059e-06
6.20684e-14
7.96362e-08
2.27387e-06
6.53714e-14
8.03364e-08
2.2469e-06
6.74201e-14
8.10788e-08
2.21967e-06
6.8107e-14
8.18644e-08
2.19217e-06
6.7564e-14
8.26939e-08
2.16437e-06
6.60982e-14
8.3568e-08
2.13628e-06
6.42819e-14
8.44873e-08
2.10786e-06
6.27797e-14
8.54524e-08
2.07911e-06
6.22801e-14
8.64639e-08
2.05002e-06
6.31873e-14
8.75221e-08
2.02056e-06
6.56055e-14
8.86275e-08
1.99073e-06
6.91201e-14
8.97802e-08
1.96052e-06
7.29347e-14
9.09804e-08
1.92989e-06
7.60173e-14
9.22281e-08
1.89886e-06
7.74762e-14
9.35233e-08
1.86738e-06