/*--------------------------------*- C++ -*----------------------------------*\
  =========                 |
  \\      /  F ield         | OpenFOAM: The Open Source CFD Toolbox
   \\    /   O peration     | Website:  https://openfoam.org
    \\  /    A nd           | Version:  8
     \\/     M anipulation  |
\*---------------------------------------------------------------------------*/
FoamFile
{
    version     2.0;
    format      ascii;
    class       volScalarField;
    location    "4200";
    object      alphat;
}
// * * * * * * * * * * * * * * * * * * * * * * * * * * * * * * * * * * * * * //

dimensions      [1 -1 -1 0 0 0 0];

internalField   nonuniform List<scalar> 
46000
(
1.97211e-06
7.53262e-06
1.33645e-05
1.87429e-05
2.38098e-05
2.8702e-05
3.34796e-05
3.81585e-05
4.27645e-05
4.73171e-05
5.18314e-05
5.6319e-05
6.0754e-05
6.51546e-05
6.95252e-05
7.38668e-05
7.81783e-05
8.24581e-05
8.67036e-05
9.09119e-05
9.50794e-05
9.92025e-05
0.000103277
0.000107298
0.000111263
0.000115165
0.000119001
0.000122765
0.000126453
0.000130061
0.000133584
0.000137016
0.000140355
0.000143595
0.000146733
0.000149764
0.000152685
0.000155493
0.000158183
0.000160753
0.000163201
0.000165522
0.000167716
0.00016978
0.000171712
0.000173511
0.000175175
0.000176705
0.000178098
0.000179355
0.000180475
0.00018146
0.000182308
0.000183022
0.000183602
0.000184049
0.000184365
0.000184552
0.000184612
0.000184548
0.000184363
0.000184061
0.000183645
0.000183116
0.000182476
0.000181728
0.000180875
0.000179921
0.000178869
0.000177724
0.000176488
0.000175167
0.000173763
0.000172281
0.000170726
0.0001691
0.000167409
0.000165657
0.000163846
0.000161983
0.00016007
0.000158112
0.000156113
0.000154076
0.000152005
0.000149905
0.000147778
0.000145629
0.000143461
0.000141277
0.000139081
0.000136875
0.000134663
0.000132447
0.000130231
0.000128017
0.000125807
0.000123605
0.000121412
0.00011923
0.000117061
0.000114908
0.000112772
0.000110655
0.000108558
0.000106482
0.000104429
0.000102401
0.000100397
9.84189e-05
9.64676e-05
9.45437e-05
9.26478e-05
9.07802e-05
8.89415e-05
8.71319e-05
8.53516e-05
8.36008e-05
8.18795e-05
8.01876e-05
7.85251e-05
7.68919e-05
7.52877e-05
7.37122e-05
7.21651e-05
7.0646e-05
6.91546e-05
6.76903e-05
6.62526e-05
6.48411e-05
6.34552e-05
6.20943e-05
6.07578e-05
5.94452e-05
5.81557e-05
5.68887e-05
5.56436e-05
5.44198e-05
5.32167e-05
5.20334e-05
5.08696e-05
4.97244e-05
4.85972e-05
4.74875e-05
4.63947e-05
4.53181e-05
4.42572e-05
4.32114e-05
4.21802e-05
4.11631e-05
4.01595e-05
3.9169e-05
3.81911e-05
3.72254e-05
3.62714e-05
3.53288e-05
3.43972e-05
3.34762e-05
3.25655e-05
3.16647e-05
3.07736e-05
2.98918e-05
2.90191e-05
2.81553e-05
2.73e-05
2.6453e-05
2.56145e-05
2.47849e-05
2.39631e-05
2.31487e-05
2.23414e-05
2.15411e-05
2.07475e-05
1.99604e-05
1.91794e-05
1.84045e-05
1.76353e-05
1.68715e-05
1.61128e-05
1.53589e-05
1.46094e-05
1.38639e-05
1.31219e-05
1.23827e-05
1.16459e-05
1.09112e-05
1.01784e-05
9.44586e-06
8.71236e-06
7.97656e-06
7.23682e-06
6.49117e-06
5.73715e-06
4.97158e-06
4.19035e-06
3.388e-06
2.55746e-06
1.69159e-06
8.13754e-07
1.59963e-07
1.97438e-06
7.53683e-06
1.33681e-05
1.87448e-05
2.38105e-05
2.87022e-05
3.34797e-05
3.81586e-05
4.27646e-05
4.73172e-05
5.18314e-05
5.6319e-05
6.0754e-05
6.51546e-05
6.95253e-05
7.38668e-05
7.81783e-05
8.2458e-05
8.67036e-05
9.09118e-05
9.50794e-05
9.92024e-05
0.000103277
0.000107298
0.000111263
0.000115165
0.000119
0.000122765
0.000126453
0.000130061
0.000133583
0.000137016
0.000140355
0.000143595
0.000146733
0.000149764
0.000152685
0.000155493
0.000158183
0.000160753
0.0001632
0.000165522
0.000167716
0.00016978
0.000171712
0.000173511
0.000175175
0.000176704
0.000178098
0.000179354
0.000180475
0.000181459
0.000182308
0.000183022
0.000183601
0.000184049
0.000184365
0.000184552
0.000184612
0.000184548
0.000184363
0.000184061
0.000183645
0.000183116
0.000182476
0.000181728
0.000180875
0.000179921
0.000178869
0.000177723
0.000176488
0.000175166
0.000173763
0.000172281
0.000170725
0.0001691
0.000167409
0.000165656
0.000163846
0.000161983
0.00016007
0.000158112
0.000156112
0.000154075
0.000152005
0.000149905
0.000147778
0.000145629
0.000143461
0.000141277
0.00013908
0.000136874
0.000134662
0.000132447
0.000130231
0.000128016
0.000125807
0.000123604
0.000121411
0.000119229
0.000117061
0.000114908
0.000112772
0.000110655
0.000108557
0.000106482
0.000104429
0.0001024
0.000100397
9.84186e-05
9.64674e-05
9.45435e-05
9.26475e-05
9.078e-05
8.89413e-05
8.71317e-05
8.53514e-05
8.36006e-05
8.18793e-05
8.01874e-05
7.8525e-05
7.68917e-05
7.52875e-05
7.3712e-05
7.21649e-05
7.06458e-05
6.91544e-05
6.76901e-05
6.62525e-05
6.4841e-05
6.34551e-05
6.20942e-05
6.07577e-05
5.9445e-05
5.81555e-05
5.68885e-05
5.56435e-05
5.44197e-05
5.32165e-05
5.20333e-05
5.08694e-05
4.97242e-05
4.85971e-05
4.74874e-05
4.63946e-05
4.5318e-05
4.42571e-05
4.32113e-05
4.21801e-05
4.1163e-05
4.01594e-05
3.91689e-05
3.8191e-05
3.72253e-05
3.62713e-05
3.53287e-05
3.43971e-05
3.34761e-05
3.25654e-05
3.16646e-05
3.07735e-05
2.98917e-05
2.90191e-05
2.81552e-05
2.72999e-05
2.6453e-05
2.56145e-05
2.47848e-05
2.3963e-05
2.31486e-05
2.23414e-05
2.15411e-05
2.07475e-05
1.99603e-05
1.91794e-05
1.84044e-05
1.76352e-05
1.68714e-05
1.61128e-05
1.53589e-05
1.46094e-05
1.38639e-05
1.31218e-05
1.23827e-05
1.16459e-05
1.09112e-05
1.01784e-05
9.44584e-06
8.71234e-06
7.97654e-06
7.2368e-06
6.49116e-06
5.73714e-06
4.97157e-06
4.19035e-06
3.388e-06
2.55745e-06
1.69159e-06
8.13753e-07
1.59963e-07
6.94736e-06
5.91808e-05
9.92965e-05
0.000127221
0.000148934
0.000166998
0.000182591
0.000196578
0.000209425
0.000221416
0.000232725
0.000243489
0.000253812
0.000263753
0.000273358
0.000282661
0.00029169
0.000300465
0.000309003
0.000317316
0.000325414
0.000333304
0.00034099
0.000348477
0.000355767
0.000362862
0.000369762
0.000376467
0.000382977
0.000389291
0.000395409
0.000401327
0.000407046
0.000412563
0.000417876
0.000422985
0.000427887
0.00043258
0.000437064
0.000441337
0.000445398
0.000449246
0.00045288
0.000456299
0.000459503
0.000462492
0.000465266
0.000467826
0.000470171
0.000472303
0.000474222
0.000475931
0.00047743
0.000478721
0.000479807
0.000480689
0.00048137
0.000481854
0.000482141
0.000482236
0.000482142
0.00048186
0.000481395
0.000480751
0.000479935
0.000478949
0.000477799
0.000476489
0.000475024
0.000473409
0.000471649
0.000469749
0.000467714
0.000465549
0.000463259
0.00046085
0.000458327
0.000455695
0.000452959
0.000450125
0.000447198
0.000444184
0.000441086
0.000437912
0.000434665
0.000431351
0.000427975
0.000424542
0.000421056
0.000417522
0.000413945
0.000410329
0.000406679
0.000402999
0.000399293
0.000395566
0.00039182
0.00038806
0.00038429
0.000380512
0.00037673
0.000372948
0.000369168
0.000365394
0.000361627
0.000357871
0.000354127
0.000350399
0.000346687
0.000342995
0.000339324
0.000335675
0.00033205
0.000328451
0.000324878
0.000321333
0.000317816
0.000314328
0.00031087
0.000307443
0.000304047
0.000300681
0.000297347
0.000294044
0.000290772
0.000287531
0.000284321
0.000281141
0.000277992
0.000274871
0.00027178
0.000268717
0.000265681
0.000262671
0.000259688
0.000256729
0.000253794
0.000250882
0.000247991
0.000245122
0.000242272
0.00023944
0.000236626
0.000233828
0.000231045
0.000228276
0.000225519
0.000222774
0.000220039
0.000217313
0.000214595
0.000211883
0.000209177
0.000206475
0.000203776
0.000201078
0.000198381
0.000195683
0.000192982
0.000190279
0.00018757
0.000184856
0.000182134
0.000179402
0.00017666
0.000173905
0.000171132
0.00016834
0.000165532
0.000162704
0.000159855
0.000156983
0.000154085
0.000151159
0.000148201
0.000145207
0.000142175
0.000139099
0.000135974
0.000132794
0.000129554
0.000126244
0.000122855
0.000119376
0.000115793
0.000112082
0.000108228
0.000104211
0.000100003
9.55669e-05
9.0855e-05
8.58032e-05
8.03234e-05
7.42887e-05
6.75061e-05
5.966e-05
5.01765e-05
3.78513e-05
1.98527e-05
7.40773e-07
6.94411e-06
5.91771e-05
9.92967e-05
0.000127223
0.000148937
0.000167001
0.000182594
0.000196581
0.000209428
0.000221419
0.000232728
0.000243492
0.000253815
0.000263756
0.000273361
0.000282664
0.000291693
0.000300468
0.000309006
0.00031732
0.000325417
0.000333307
0.000340993
0.000348481
0.000355771
0.000362866
0.000369766
0.000376471
0.000382981
0.000389295
0.000395413
0.000401331
0.00040705
0.000412567
0.00041788
0.000422989
0.000427891
0.000432585
0.000437069
0.000441342
0.000445403
0.00044925
0.000452884
0.000456303
0.000459508
0.000462497
0.000465271
0.00046783
0.000470175
0.000472307
0.000474227
0.000475935
0.000477434
0.000478726
0.000479811
0.000480694
0.000481375
0.000481858
0.000482146
0.000482241
0.000482146
0.000481864
0.000481399
0.000480756
0.000479939
0.000478953
0.000477803
0.000476493
0.000475028
0.000473413
0.000471653
0.000469753
0.000467718
0.000465553
0.000463263
0.000460854
0.000458331
0.000455699
0.000452963
0.000450129
0.000447202
0.000444187
0.00044109
0.000437916
0.000434669
0.000431355
0.000427979
0.000424545
0.000421059
0.000417525
0.000413948
0.000410333
0.000406683
0.000403003
0.000399297
0.000395569
0.000391823
0.000388063
0.000384293
0.000380515
0.000376734
0.000372951
0.000369171
0.000365397
0.00036163
0.000357873
0.00035413
0.000350401
0.00034669
0.000342998
0.000339327
0.000335678
0.000332053
0.000328453
0.00032488
0.000321335
0.000317818
0.00031433
0.000310873
0.000307445
0.000304049
0.000300683
0.000297349
0.000294046
0.000290774
0.000287533
0.000284323
0.000281143
0.000277994
0.000274873
0.000271782
0.000268718
0.000265682
0.000262673
0.000259689
0.00025673
0.000253795
0.000250883
0.000247993
0.000245123
0.000242273
0.000239441
0.000236627
0.000233829
0.000231046
0.000228277
0.00022552
0.000222775
0.00022004
0.000217314
0.000214596
0.000211884
0.000209178
0.000206476
0.000203777
0.000201079
0.000198382
0.000195684
0.000192983
0.00019028
0.000187571
0.000184857
0.000182135
0.000179403
0.000176661
0.000173906
0.000171133
0.000168341
0.000165532
0.000162705
0.000159856
0.000156984
0.000154086
0.00015116
0.000148201
0.000145208
0.000142176
0.000139099
0.000135975
0.000132795
0.000129554
0.000126244
0.000122855
0.000119377
0.000115793
0.000112083
0.000108228
0.000104211
0.000100003
9.55673e-05
9.08553e-05
8.58035e-05
8.03237e-05
7.42889e-05
6.75063e-05
5.96602e-05
5.01767e-05
3.78514e-05
1.98527e-05
7.40775e-07
1.26084e-05
9.63769e-05
0.000175971
0.000235704
0.000282173
0.000319863
0.000351588
0.000379144
0.000403659
0.000425885
0.000446335
0.000465365
0.000483234
0.000500127
0.000516177
0.00053149
0.000546146
0.000560211
0.000573735
0.00058676
0.000599319
0.000611439
0.000623144
0.000634451
0.000645375
0.00065593
0.000666126
0.000675971
0.000685473
0.000694638
0.000703471
0.000711977
0.00072016
0.000728022
0.000735566
0.000742795
0.000749711
0.000756316
0.000762612
0.000768601
0.000774283
0.000779662
0.000784738
0.000789514
0.000793991
0.000798172
0.000802058
0.000805652
0.000808955
0.000811971
0.000814702
0.000817151
0.000819321
0.000821215
0.000822837
0.000824189
0.000825275
0.000826099
0.000826664
0.000826973
0.00082703
0.000826838
0.0008264
0.000825725
0.000824818
0.000823686
0.000822336
0.000820773
0.000819003
0.000817031
0.000814864
0.000812507
0.000809967
0.00080725
0.000804361
0.000801307
0.000798093
0.000794727
0.000791214
0.000787561
0.000783773
0.000779857
0.000775818
0.000771664
0.0007674
0.000763031
0.000758565
0.000754007
0.000749362
0.000744637
0.000739836
0.000734967
0.000730033
0.000725041
0.000719995
0.000714901
0.000709763
0.000704587
0.000699376
0.000694136
0.000688871
0.000683585
0.000678282
0.000672965
0.00066764
0.000662308
0.000656974
0.000651641
0.000646311
0.000640987
0.000635673
0.00063037
0.00062508
0.000619807
0.000614551
0.000609314
0.000604099
0.000598905
0.000593735
0.000588589
0.000583469
0.000578374
0.000573305
0.000568264
0.000563249
0.00055826
0.000553299
0.000548364
0.000543455
0.000538572
0.000533714
0.00052888
0.000524069
0.000519281
0.000514514
0.000509767
0.000505038
0.000500328
0.000495634
0.000490954
0.000486288
0.000481633
0.000476989
0.000472352
0.000467723
0.000463098
0.000458476
0.000453856
0.000449235
0.000444611
0.000439983
0.000435349
0.000430706
0.000426053
0.000421387
0.000416706
0.000412007
0.00040729
0.000402551
0.000397787
0.000392996
0.000388175
0.000383322
0.000378432
0.000373501
0.000368526
0.0003635
0.000358417
0.000353279
0.000348082
0.00034282
0.000337488
0.00033208
0.00032659
0.000321007
0.000315325
0.000309532
0.000303617
0.000297566
0.000291363
0.000284991
0.000278427
0.000271646
0.000264618
0.000257304
0.000249656
0.000241616
0.000233128
0.000224113
0.000214465
0.000204049
0.000192683
0.000180118
0.000165996
0.000149787
0.000130658
0.000107217
7.70499e-05
3.67659e-05
1.54781e-06
1.2607e-05
9.63767e-05
0.000175974
0.000235709
0.000282178
0.000319868
0.000351593
0.000379149
0.000403664
0.00042589
0.00044634
0.00046537
0.00048324
0.000500132
0.000516182
0.000531495
0.000546151
0.000560216
0.00057374
0.000586765
0.000599324
0.000611445
0.000623149
0.000634456
0.000645381
0.000655935
0.000666131
0.000675976
0.000685478
0.000694643
0.000703477
0.000711983
0.000720165
0.000728027
0.000735572
0.000742801
0.000749717
0.000756322
0.000762618
0.000768606
0.000774289
0.000779668
0.000784744
0.00078952
0.000793997
0.000798178
0.000802064
0.000805657
0.000808961
0.000811977
0.000814708
0.000817157
0.000819327
0.000821221
0.000822842
0.000824194
0.00082528
0.000826104
0.000826669
0.000826979
0.000827036
0.000826843
0.000826406
0.00082573
0.000824823
0.000823692
0.000822341
0.000820778
0.000819008
0.000817036
0.000814869
0.000812512
0.000809972
0.000807254
0.000804365
0.000801311
0.000798098
0.000794732
0.000791219
0.000787565
0.000783777
0.000779861
0.000775822
0.000771668
0.000767404
0.000763035
0.000758569
0.000754011
0.000749366
0.00074464
0.00073984
0.00073497
0.000730037
0.000725044
0.000719998
0.000714904
0.000709766
0.00070459
0.000699379
0.000694139
0.000688874
0.000683588
0.000678284
0.000672968
0.000667642
0.000662311
0.000656977
0.000651643
0.000646313
0.00064099
0.000635675
0.000630372
0.000625083
0.000619809
0.000614553
0.000609316
0.000604101
0.000598907
0.000593737
0.000588591
0.00058347
0.000578375
0.000573307
0.000568265
0.00056325
0.000558262
0.000553301
0.000548366
0.000543457
0.000538574
0.000533715
0.000528881
0.00052407
0.000519282
0.000514515
0.000509768
0.000505039
0.000500329
0.000495635
0.000490955
0.000486289
0.000481634
0.000476989
0.000472353
0.000467723
0.000463099
0.000458477
0.000453857
0.000449235
0.000444612
0.000439984
0.000435349
0.000430707
0.000426053
0.000421387
0.000416706
0.000412008
0.00040729
0.000402551
0.000397787
0.000392996
0.000388176
0.000383322
0.000378432
0.000373502
0.000368526
0.0003635
0.000358417
0.000353279
0.000348082
0.00034282
0.000337488
0.000332081
0.00032659
0.000321008
0.000315325
0.000309532
0.000303617
0.000297566
0.000291363
0.000284991
0.000278427
0.000271647
0.000264618
0.000257304
0.000249656
0.000241616
0.000233128
0.000224113
0.000214465
0.000204049
0.000192683
0.000180118
0.000165996
0.000149788
0.000130658
0.000107217
7.705e-05
3.67658e-05
1.54781e-06
1.79804e-05
0.000123033
0.000232927
0.000321827
0.000393588
0.000452745
0.00050277
0.000546064
0.000584284
0.000618587
0.000649798
0.000678513
0.000705174
0.000730109
0.000753566
0.000775736
0.000796772
0.000816792
0.000835895
0.000854159
0.000871649
0.000888419
0.000904514
0.000919971
0.000934824
0.000949099
0.00096282
0.000976007
0.000988678
0.00100085
0.00101253
0.00102374
0.00103448
0.00104477
0.00105462
0.00106402
0.001073
0.00108155
0.00108968
0.0010974
0.00110472
0.00111163
0.00111815
0.00112427
0.00113001
0.00113537
0.00114035
0.00114496
0.0011492
0.00115308
0.00115661
0.00115977
0.0011626
0.00116507
0.00116721
0.00116902
0.00117049
0.00117164
0.00117247
0.00117299
0.0011732
0.0011731
0.00117269
0.001172
0.00117102
0.00116976
0.00116823
0.00116644
0.00116439
0.0011621
0.00115956
0.00115678
0.00115378
0.00115056
0.00114712
0.00114347
0.00113962
0.00113558
0.00113135
0.00112694
0.00112236
0.00111761
0.0011127
0.00110764
0.00110244
0.0010971
0.00109162
0.00108602
0.0010803
0.00107447
0.00106853
0.0010625
0.00105637
0.00105015
0.00104386
0.00103749
0.00103105
0.00102455
0.00101799
0.00101138
0.00100472
0.000998016
0.000991278
0.000984507
0.000977708
0.000970886
0.000964044
0.000957187
0.000950317
0.00094344
0.000936557
0.000929672
0.000922788
0.000915907
0.000909032
0.000902166
0.00089531
0.000888465
0.000881635
0.000874819
0.000868019
0.000861236
0.000854471
0.000847724
0.000840996
0.000834287
0.000827596
0.000820924
0.00081427
0.000807634
0.000801014
0.000794411
0.000787823
0.000781249
0.000774687
0.000768137
0.000761596
0.000755064
0.000748538
0.000742017
0.000735498
0.00072898
0.000722461
0.000715938
0.000709409
0.000702873
0.000696326
0.000689766
0.00068319
0.000676597
0.000669982
0.000663345
0.000656681
0.000649987
0.000643262
0.000636501
0.000629701
0.000622859
0.00061597
0.000609032
0.00060204
0.000594988
0.000587874
0.00058069
0.000573432
0.000566091
0.00055866
0.000551131
0.000543501
0.000535763
0.000527908
0.000519926
0.000511807
0.000503537
0.000495104
0.00048649
0.000477678
0.000468646
0.00045937
0.000449823
0.000439972
0.000429778
0.000419196
0.000408172
0.00039664
0.00038452
0.000371714
0.000358114
0.00034358
0.000327931
0.000310935
0.000292288
0.000271577
0.000248236
0.00022146
0.000190071
0.000152311
0.00010566
4.82932e-05
2.35152e-06
1.79805e-05
0.000123035
0.000232931
0.000321833
0.000393595
0.000452753
0.000502777
0.000546072
0.000584292
0.000618595
0.000649805
0.000678521
0.000705182
0.000730117
0.000753573
0.000775744
0.000796779
0.000816799
0.000835902
0.000854166
0.000871656
0.000888426
0.000904521
0.000919979
0.000934831
0.000949106
0.000962827
0.000976014
0.000988685
0.00100086
0.00101254
0.00102375
0.00103449
0.00104478
0.00105462
0.00106403
0.001073
0.00108155
0.00108969
0.00109741
0.00110472
0.00111164
0.00111815
0.00112428
0.00113002
0.00113538
0.00114036
0.00114497
0.00114921
0.00115309
0.00115661
0.00115978
0.0011626
0.00116508
0.00116722
0.00116902
0.0011705
0.00117165
0.00117248
0.001173
0.0011732
0.0011731
0.0011727
0.001172
0.00117102
0.00116976
0.00116824
0.00116645
0.0011644
0.0011621
0.00115956
0.00115679
0.00115379
0.00115056
0.00114712
0.00114347
0.00113963
0.00113558
0.00113136
0.00112695
0.00112236
0.00111762
0.00111271
0.00110765
0.00110244
0.0010971
0.00109162
0.00108602
0.0010803
0.00107447
0.00106854
0.0010625
0.00105637
0.00105016
0.00104386
0.00103749
0.00103105
0.00102455
0.00101799
0.00101138
0.00100472
0.000998018
0.00099128
0.000984509
0.00097771
0.000970888
0.000964046
0.000957189
0.000950319
0.000943441
0.000936558
0.000929673
0.000922789
0.000915909
0.000909034
0.000902167
0.000895311
0.000888467
0.000881636
0.00087482
0.00086802
0.000861237
0.000854472
0.000847725
0.000840997
0.000834287
0.000827597
0.000820925
0.000814271
0.000807634
0.000801015
0.000794412
0.000787823
0.000781249
0.000774688
0.000768137
0.000761597
0.000755064
0.000748538
0.000742017
0.000735498
0.00072898
0.000722461
0.000715938
0.000709409
0.000702873
0.000696325
0.000689765
0.00068319
0.000676596
0.000669982
0.000663344
0.00065668
0.000649987
0.000643262
0.0006365
0.000629701
0.000622858
0.00061597
0.000609032
0.000602039
0.000594988
0.000587873
0.00058069
0.000573431
0.00056609
0.00055866
0.000551131
0.000543501
0.000535762
0.000527907
0.000519926
0.000511806
0.000503537
0.000495103
0.00048649
0.000477677
0.000468645
0.00045937
0.000449823
0.000439971
0.000429777
0.000419195
0.000408171
0.000396639
0.000384519
0.000371713
0.000358113
0.000343579
0.00032793
0.000310935
0.000292287
0.000271577
0.000248236
0.00022146
0.000190071
0.000152311
0.00010566
4.8293e-05
2.35153e-06
2.31483e-05
0.000144591
0.000278053
0.000391644
0.000486375
0.00056615
0.000634417
0.000693814
0.000746294
0.000793303
0.000835912
0.000874925
0.00091095
0.000944451
0.000975789
0.00100525
0.00103304
0.00105937
0.00108436
0.00110813
0.0011308
0.00115244
0.00117312
0.0011929
0.00121183
0.00122996
0.00124732
0.00126394
0.00127987
0.00129511
0.00130971
0.00132366
0.001337
0.00134975
0.00136191
0.0013735
0.00138454
0.00139503
0.00140499
0.00141443
0.00142336
0.00143178
0.00143971
0.00144716
0.00145413
0.00146063
0.00146667
0.00147226
0.00147741
0.00148211
0.00148639
0.00149024
0.00149367
0.00149669
0.00149932
0.00150154
0.00150337
0.00150482
0.00150589
0.00150659
0.00150693
0.0015069
0.00150652
0.0015058
0.00150474
0.00150335
0.00150165
0.00149964
0.00149732
0.00149471
0.00149182
0.00148864
0.0014852
0.00148149
0.00147753
0.00147332
0.00146888
0.0014642
0.0014593
0.00145418
0.00144885
0.00144332
0.0014376
0.0014317
0.00142561
0.00141936
0.00141294
0.00140637
0.00139965
0.00139279
0.00138579
0.00137867
0.00137143
0.00136408
0.00135662
0.00134906
0.00134141
0.00133367
0.00132586
0.00131797
0.00131001
0.00130199
0.00129391
0.00128579
0.00127761
0.0012694
0.00126115
0.00125286
0.00124455
0.00123622
0.00122787
0.0012195
0.00121111
0.00120272
0.00119433
0.00118592
0.00117752
0.00116912
0.00116072
0.00115232
0.00114393
0.00113554
0.00112717
0.0011188
0.00111044
0.00110209
0.00109374
0.00108541
0.00107708
0.00106876
0.00106045
0.00105214
0.00104384
0.00103554
0.00102725
0.00101895
0.00101065
0.00100235
0.000994041
0.000985724
0.000977398
0.000969058
0.000960704
0.000952331
0.000943938
0.000935521
0.000927078
0.000918605
0.0009101
0.000901558
0.000892977
0.000884353
0.000875682
0.000866961
0.000858184
0.00084935
0.000840451
0.000831485
0.000822445
0.000813327
0.000804124
0.000794831
0.00078544
0.000775944
0.000766335
0.000756604
0.000746739
0.00073673
0.000726571
0.000716249
0.000705751
0.000695064
0.000684171
0.000673053
0.000661691
0.000650058
0.00063813
0.000625874
0.000613255
0.000600231
0.000586755
0.00057277
0.000558209
0.000542995
0.000527034
0.000510212
0.000492393
0.000473413
0.000453078
0.000431136
0.000407269
0.000381067
0.000351994
0.000319334
0.000282122
0.000239035
0.000188286
0.000127736
5.7239e-05
3.13448e-06
2.31486e-05
0.000144594
0.000278058
0.00039165
0.000486383
0.000566159
0.000634427
0.000693823
0.000746304
0.000793312
0.000835922
0.000874934
0.000910959
0.000944461
0.000975799
0.00100526
0.00103305
0.00105938
0.00108436
0.00110814
0.00113081
0.00115245
0.00117313
0.00119291
0.00121184
0.00122996
0.00124733
0.00126395
0.00127988
0.00129512
0.00130971
0.00132367
0.00133701
0.00134976
0.00136192
0.00137351
0.00138455
0.00139504
0.001405
0.00141444
0.00142336
0.00143179
0.00143972
0.00144717
0.00145414
0.00146064
0.00146668
0.00147227
0.00147741
0.00148212
0.00148639
0.00149024
0.00149368
0.0014967
0.00149932
0.00150155
0.00150338
0.00150483
0.0015059
0.0015066
0.00150693
0.00150691
0.00150653
0.0015058
0.00150474
0.00150336
0.00150165
0.00149964
0.00149733
0.00149472
0.00149182
0.00148865
0.0014852
0.0014815
0.00147754
0.00147333
0.00146888
0.0014642
0.0014593
0.00145418
0.00144886
0.00144333
0.00143761
0.0014317
0.00142562
0.00141936
0.00141294
0.00140637
0.00139965
0.00139279
0.00138579
0.00137867
0.00137143
0.00136408
0.00135662
0.00134906
0.00134141
0.00133368
0.00132586
0.00131797
0.00131001
0.00130199
0.00129392
0.00128579
0.00127761
0.0012694
0.00126115
0.00125286
0.00124455
0.00123622
0.00122787
0.0012195
0.00121112
0.00120272
0.00119433
0.00118593
0.00117752
0.00116912
0.00116072
0.00115232
0.00114393
0.00113555
0.00112717
0.0011188
0.00111044
0.00110209
0.00109374
0.00108541
0.00107708
0.00106876
0.00106045
0.00105215
0.00104384
0.00103554
0.00102725
0.00101895
0.00101065
0.00100235
0.00099404
0.000985724
0.000977397
0.000969058
0.000960703
0.000952331
0.000943938
0.000935521
0.000927078
0.000918605
0.000910099
0.000901557
0.000892976
0.000884352
0.000875681
0.00086696
0.000858184
0.000849349
0.00084045
0.000831484
0.000822444
0.000813326
0.000804123
0.00079483
0.000785439
0.000775944
0.000766334
0.000756603
0.000746738
0.00073673
0.00072657
0.000716248
0.00070575
0.000695063
0.00068417
0.000673053
0.00066169
0.000650057
0.000638129
0.000625873
0.000613254
0.00060023
0.000586754
0.000572769
0.000558209
0.000542995
0.000527033
0.000510211
0.000492392
0.000473412
0.000453077
0.000431136
0.000407269
0.000381067
0.000351993
0.000319334
0.000282122
0.000239035
0.000188287
0.000127736
5.72388e-05
3.1345e-06
2.82077e-05
0.000163068
0.000315571
0.000450092
0.000565212
0.000663944
0.000749459
0.000824413
0.0008909
0.00095054
0.00100458
0.00105398
0.0010995
0.00114171
0.00118107
0.00121795
0.00125264
0.00128538
0.00131637
0.00134577
0.0013737
0.00140028
0.00142562
0.00144978
0.00147284
0.00149487
0.0015159
0.001536
0.0015552
0.00157354
0.00159104
0.00160775
0.00162369
0.00163889
0.00165335
0.00166712
0.00168019
0.00169261
0.00170437
0.0017155
0.001726
0.00173591
0.00174522
0.00175395
0.00176211
0.00176972
0.00177678
0.0017833
0.00178931
0.0017948
0.00179978
0.00180427
0.00180828
0.00181181
0.00181488
0.00181748
0.00181964
0.00182135
0.00182263
0.00182349
0.00182393
0.00182395
0.00182358
0.00182281
0.00182166
0.00182013
0.00181825
0.00181601
0.00181342
0.0018105
0.00180725
0.00180369
0.00179982
0.00179564
0.00179118
0.00178643
0.00178141
0.00177612
0.00177057
0.00176478
0.00175874
0.00175247
0.00174598
0.00173927
0.00173236
0.00172525
0.00171794
0.00171045
0.00170279
0.00169496
0.00168697
0.00167883
0.00167055
0.00166213
0.00165358
0.00164491
0.00163613
0.00162724
0.00161825
0.00160916
0.00159999
0.00159074
0.00158141
0.00157202
0.00156256
0.00155305
0.00154348
0.00153387
0.00152421
0.00151452
0.00150479
0.00149503
0.00148525
0.00147545
0.00146562
0.00145579
0.00144593
0.00143607
0.0014262
0.00141632
0.00140643
0.00139655
0.00138665
0.00137676
0.00136686
0.00135696
0.00134706
0.00133716
0.00132725
0.00131735
0.00130743
0.00129751
0.00128759
0.00127765
0.00126771
0.00125775
0.00124778
0.00123779
0.00122778
0.00121775
0.0012077
0.00119762
0.0011875
0.00117736
0.00116718
0.00115695
0.00114669
0.00113637
0.00112601
0.00111559
0.00110511
0.00109456
0.00108395
0.00107326
0.00106249
0.00105164
0.0010407
0.00102967
0.00101853
0.00100729
0.000995922
0.000984435
0.000972814
0.00096105
0.000949132
0.000937049
0.000924787
0.000912333
0.000899674
0.000886796
0.000873681
0.00086031
0.000846661
0.000832708
0.000818424
0.000803778
0.000788732
0.000773246
0.000757271
0.000740754
0.000723629
0.000705825
0.000687252
0.000667811
0.000647378
0.000625811
0.000602935
0.000578543
0.000552386
0.000524154
0.000493459
0.000459813
0.000422591
0.000380992
0.000333977
0.000280206
0.000218026
0.000145789
6.47307e-05
3.9036e-06
2.82079e-05
0.000163071
0.000315576
0.000450099
0.000565221
0.000663954
0.00074947
0.000824425
0.000890912
0.000950551
0.00100459
0.001054
0.00109951
0.00114172
0.00118108
0.00121796
0.00125265
0.0012854
0.00131638
0.00134578
0.00137371
0.0014003
0.00142563
0.00144979
0.00147285
0.00149488
0.00151591
0.00153601
0.00155521
0.00157355
0.00159105
0.00160777
0.0016237
0.0016389
0.00165336
0.00166713
0.0016802
0.00169262
0.00170438
0.00171551
0.00172601
0.00173592
0.00174523
0.00175396
0.00176212
0.00176972
0.00177678
0.00178331
0.00178931
0.0017948
0.00179979
0.00180428
0.00180829
0.00181182
0.00181488
0.00181749
0.00181965
0.00182136
0.00182264
0.0018235
0.00182393
0.00182396
0.00182358
0.00182282
0.00182166
0.00182014
0.00181825
0.00181601
0.00181343
0.00181051
0.00180726
0.0018037
0.00179982
0.00179565
0.00179118
0.00178644
0.00178141
0.00177612
0.00177058
0.00176478
0.00175875
0.00175248
0.00174599
0.00173928
0.00173236
0.00172525
0.00171795
0.00171046
0.00170279
0.00169496
0.00168698
0.00167884
0.00167055
0.00166213
0.00165358
0.00164492
0.00163613
0.00162724
0.00161825
0.00160917
0.00159999
0.00159074
0.00158142
0.00157202
0.00156256
0.00155305
0.00154348
0.00153387
0.00152421
0.00151452
0.00150479
0.00149503
0.00148525
0.00147545
0.00146563
0.00145579
0.00144593
0.00143607
0.0014262
0.00141632
0.00140644
0.00139655
0.00138665
0.00137676
0.00136686
0.00135696
0.00134706
0.00133716
0.00132726
0.00131735
0.00130743
0.00129751
0.00128759
0.00127765
0.00126771
0.00125775
0.00124778
0.00123779
0.00122778
0.00121775
0.0012077
0.00119762
0.0011875
0.00117736
0.00116718
0.00115695
0.00114669
0.00113637
0.00112601
0.00111559
0.0011051
0.00109456
0.00108395
0.00107326
0.00106249
0.00105164
0.0010407
0.00102967
0.00101853
0.00100728
0.000995922
0.000984434
0.000972813
0.000961049
0.000949131
0.000937048
0.000924786
0.000912332
0.000899673
0.000886795
0.00087368
0.000860309
0.00084666
0.000832707
0.000818424
0.000803777
0.000788731
0.000773245
0.00075727
0.000740753
0.000723629
0.000705824
0.000687252
0.00066781
0.000647378
0.00062581
0.000602935
0.000578542
0.000552385
0.000524153
0.000493459
0.000459812
0.000422591
0.000380992
0.000333977
0.000280207
0.000218026
0.000145789
6.47305e-05
3.90361e-06
3.31813e-05
0.000179445
0.000347992
0.000500491
0.000633629
0.000749525
0.000850984
0.00094057
0.00102041
0.00109223
0.00115739
0.00121697
0.00127182
0.00132263
0.00136994
0.00141419
0.00145574
0.00149488
0.00153184
0.00156683
0.00160001
0.00163153
0.0016615
0.00169003
0.00171721
0.00174312
0.00176781
0.00179136
0.00181382
0.00183522
0.00185563
0.00187507
0.00189358
0.00191119
0.00192794
0.00194384
0.00195893
0.00197323
0.00198676
0.00199954
0.00201159
0.00202293
0.00203358
0.00204356
0.00205287
0.00206154
0.00206958
0.002077
0.00208383
0.00209006
0.00209572
0.00210081
0.00210535
0.00210935
0.00211283
0.00211578
0.00211822
0.00212017
0.00212163
0.00212262
0.00212313
0.00212319
0.00212279
0.00212196
0.0021207
0.00211902
0.00211694
0.00211446
0.0021116
0.00210837
0.00210477
0.00210081
0.00209651
0.00209188
0.00208692
0.00208164
0.00207606
0.00207018
0.00206401
0.00205756
0.00205084
0.00204386
0.00203662
0.00202915
0.00202144
0.0020135
0.00200535
0.00199699
0.00198843
0.00197968
0.00197075
0.00196164
0.00195237
0.00194294
0.00193336
0.00192365
0.00191379
0.00190381
0.00189372
0.00188351
0.00187319
0.00186278
0.00185228
0.0018417
0.00183103
0.0018203
0.0018095
0.00179863
0.00178772
0.00177675
0.00176573
0.00175468
0.00174358
0.00173245
0.0017213
0.00171011
0.0016989
0.00168767
0.00167642
0.00166515
0.00165387
0.00164257
0.00163126
0.00161993
0.00160859
0.00159724
0.00158588
0.00157451
0.00156312
0.00155172
0.0015403
0.00152886
0.00151741
0.00150594
0.00149444