/*--------------------------------*- C++ -*----------------------------------*\
  =========                 |
  \\      /  F ield         | OpenFOAM: The Open Source CFD Toolbox
   \\    /   O peration     | Website:  https://openfoam.org
    \\  /    A nd           | Version:  8
     \\/     M anipulation  |
\*---------------------------------------------------------------------------*/
FoamFile
{
    version     2.0;
    format      ascii;
    class       volScalarField;
    location    "4200";
    object      epsilon;
}
// * * * * * * * * * * * * * * * * * * * * * * * * * * * * * * * * * * * * * //

dimensions      [0 2 -3 0 0 0 0];

internalField   nonuniform List<scalar> 
46000
(
35.7031
123.211
218.119
305.436
387.577
466.803
544.108
619.76
694.186
767.707
840.568
912.966
984.482
1055.42
1125.84
1195.77
1265.19
1334.09
1402.41
1470.11
1537.14
1603.43
1668.93
1733.57
1797.27
1859.96
1921.57
1982.03
2041.25
2099.17
2155.71
2210.8
2264.37
2316.36
2366.69
2415.3
2462.14
2507.15
2550.28
2591.47
2630.69
2667.89
2703.03
2736.08
2767.01
2795.81
2822.45
2846.91
2869.19
2889.29
2907.19
2922.91
2936.44
2947.82
2957.04
2964.14
2969.14
2972.06
2972.95
2971.84
2968.79
2963.87
2957.12
2948.56
2938.22
2926.15
2912.39
2897.02
2880.08
2861.63
2841.74
2820.47
2797.89
2774.06
2749.04
2722.9
2695.71
2667.54
2638.44
2608.49
2577.75
2546.28
2514.15
2481.42
2448.16
2414.41
2380.25
2345.72
2310.89
2275.8
2240.51
2205.08
2169.54
2133.95
2098.35
2062.79
2027.3
1991.92
1956.69
1921.64
1886.81
1852.22
1817.91
1783.89
1750.21
1716.86
1683.89
1651.29
1619.1
1587.33
1555.98
1525.07
1494.61
1464.6
1435.06
1405.98
1377.37
1349.24
1321.58
1294.39
1267.67
1241.43
1215.64
1190.32
1165.46
1141.04
1117.07
1093.53
1070.42
1047.72
1025.44
1003.56
982.072
960.964
940.228
919.852
899.828
880.144
860.791
841.757
823.032
804.606
786.47
768.613
751.025
733.696
716.619
699.783
683.179
666.8
650.638
634.683
618.93
603.371
587.999
572.807
557.79
542.941
528.256
513.728
499.353
485.127
471.045
457.101
443.294
429.617
416.075
402.672
389.393
376.23
363.18
350.238
337.402
324.667
312.029
299.484
287.029
274.658
262.367
250.149
237.999
225.91
213.873
201.88
189.92
177.99
166.087
154.184
142.26
130.294
118.259
106.122
93.8421
81.3667
68.6271
55.5322
41.9625
27.7942
13.3958
2.92466
35.7259
123.25
218.155
305.453
387.583
466.805
544.109
619.761
694.187
767.708
840.569
912.966
984.483
1055.42
1125.84
1195.77
1265.19
1334.09
1402.41
1470.11
1537.14
1603.43
1668.93
1733.57
1797.27
1859.96
1921.57
1982.03
2041.25
2099.17
2155.71
2210.8
2264.37
2316.35
2366.68
2415.3
2462.14
2507.15
2550.28
2591.47
2630.69
2667.88
2703.02
2736.07
2767.01
2795.81
2822.44
2846.91
2869.19
2889.28
2907.18
2922.9
2936.44
2947.81
2957.04
2964.13
2969.13
2972.05
2972.94
2971.84
2968.79
2963.87
2957.12
2948.56
2938.22
2926.14
2912.39
2897.01
2880.07
2861.63
2841.74
2820.47
2797.89
2774.05
2749.04
2722.9
2695.71
2667.53
2638.44
2608.49
2577.74
2546.28
2514.15
2481.42
2448.15
2414.41
2380.24
2345.71
2310.88
2275.8
2240.51
2205.08
2169.54
2133.95
2098.35
2062.78
2027.29
1991.91
1956.68
1921.63
1886.8
1852.22
1817.9
1783.89
1750.2
1716.86
1683.88
1651.29
1619.1
1587.32
1555.97
1525.06
1494.6
1464.6
1435.05
1405.98
1377.37
1349.24
1321.58
1294.39
1267.67
1241.42
1215.64
1190.32
1165.45
1141.04
1117.06
1093.52
1070.41
1047.72
1025.44
1003.56
982.07
960.962
940.225
919.85
899.826
880.142
860.788
841.755
823.03
804.605
786.468
768.611
751.023
733.695
716.617
699.781
683.178
666.799
650.636
634.682
618.929
603.369
587.997
572.805
557.788
542.94
528.254
513.727
499.352
485.126
471.043
457.1
443.293
429.616
416.074
402.671
389.392
376.229
363.179
350.237
337.401
324.666
312.028
299.484
287.028
274.657
262.366
250.148
237.998
225.909
213.873
201.879
189.92
177.99
166.087
154.183
142.26
130.294
118.259
106.122
93.842
81.3666
68.6271
55.5322
41.9625
27.7942
13.3958
2.92466
133.85
113.306
141.92
176.7
213.194
250.541
288.502
326.838
365.496
404.466
443.642
483.048
522.61
562.335
602.215
642.228
682.341
722.516
762.709
802.871
842.951
882.894
922.642
962.137
1001.32
1040.12
1078.48
1116.33
1153.62
1190.26
1226.22
1261.41
1295.77
1329.26
1361.8
1393.34
1423.84
1453.22
1481.46
1508.49
1534.28
1558.79
1581.98
1603.81
1624.27
1643.31
1660.93
1677.1
1691.81
1705.04
1716.8
1727.08
1735.87
1743.19
1749.04
1753.44
1756.4
1757.94
1758.08
1756.87
1754.32
1750.5
1745.42
1739.11
1731.59
1722.89
1713.06
1702.14
1690.16
1677.18
1663.24
1648.38
1632.66
1616.13
1598.83
1580.81
1562.13
1542.83
1522.96
1502.57
1481.7
1460.41
1438.74
1416.74
1394.44
1371.9
1349.16
1326.25
1303.22
1280.1
1256.93
1233.74
1210.57
1187.45
1164.41
1141.47
1118.67
1096.02
1073.56
1051.29
1029.25
1007.45
985.902
964.629
943.641
922.951
902.569
882.505
862.767
843.361
824.294
805.57
787.191
769.161
751.48
734.149
717.167
700.534
684.246
668.302
652.697
637.427
622.489
607.876
593.584
579.606
565.936
552.568
539.495
526.709
514.204
501.971
490.004
478.295
466.837
455.621
444.641
433.888
423.355
413.035
402.92
393.004
383.28
373.74
364.378
355.187
346.162
337.296
328.584
320.02
311.598
303.313
295.162
287.138
279.238
271.457
263.792
256.239
248.794
241.453
234.215
227.076
220.033
213.085
206.227
199.46
192.784
186.198
179.696
173.275
166.931
160.664
154.472
148.351
142.301
136.321
130.407
124.559
118.774
113.05
107.386
101.779
96.2266
90.7263
85.2761
79.8763
74.5241
69.2123
63.9351
58.6865
53.4599
48.2476
43.041
37.8303
32.6061
27.3632
22.117
16.9697
12.4796
14.5547
133.817
113.3
141.918
176.698
213.191
250.537
288.498
326.833
365.491
404.46
443.636
483.041
522.602
562.327
602.207
642.219
682.332
722.506
762.698
802.86
842.939
882.882
922.63
962.124
1001.3
1040.1
1078.46
1116.32
1153.6
1190.25
1226.2
1261.39
1295.76
1329.24
1361.78
1393.32
1423.82
1453.2
1481.44
1508.47
1534.26
1558.77
1581.95
1603.79
1624.24
1643.29
1660.91
1677.08
1691.79
1705.02
1716.78
1727.05
1735.85
1743.16
1749.02
1753.41
1756.37
1757.91
1758.06
1756.84
1754.3
1750.47
1745.4
1739.08
1731.56
1722.87
1713.04
1702.11
1690.14
1677.16
1663.21
1648.36
1632.64
1616.11
1598.81
1580.79
1562.11
1542.81
1522.94
1502.55
1481.68
1460.39
1438.72
1416.72
1394.43
1371.89
1349.14
1326.23
1303.2
1280.08
1256.91
1233.73
1210.56
1187.44
1164.39
1141.46
1118.65
1096.01
1073.54
1051.28
1029.24
1007.43
985.889
964.616
943.629
922.939
902.557
882.493
862.755
843.35
824.283
805.559
787.181
769.151
751.47
734.139
717.158
700.525
684.237
668.293
652.688
637.419
622.481
607.868
593.576
579.599
565.929
552.561
539.488
526.702
514.197
501.965
489.998
478.29
466.831
455.616
444.635
433.882
423.35
413.03
402.916
393
383.275
373.735
364.373
355.183
346.158
337.292
328.58
320.016
311.594
303.31
295.158
287.135
279.235
271.454
263.789
256.236
248.791
241.451
234.213
227.074
220.031
213.082
206.225
199.458
192.782
186.196
179.694
173.273
166.93
160.663
154.47
148.35
142.3
136.319
130.406
124.557
118.772
113.049
107.385
101.778
96.2256
90.7253
85.2751
79.8754
74.5233
69.2115
63.9344
58.6859
53.4594
48.2472
43.0406
37.8299
32.6058
27.363
22.1169
16.9696
12.4796
14.5548
239.585
149.221
151.856
168.999
191.009
215.412
241.268
268.102
295.646
323.764
352.349
381.337
410.665
440.295
470.192
500.32
530.643
561.12
591.712
622.374
653.061
683.726
714.32
744.792
775.092
805.165
834.958
864.419
893.49
922.12
950.253
977.836
1004.82
1031.14
1056.76
1081.63
1105.69
1128.91
1151.24
1172.64
1193.07
1212.5
1230.89
1248.21
1264.44
1279.55
1293.53
1306.34
1317.99
1328.47
1337.75
1345.84
1352.74
1358.45
1362.98
1366.34
1368.53
1369.58
1369.5
1368.31
1366.05
1362.75
1358.42
1353.1
1346.8
1339.55
1331.39
1322.35
1312.47
1301.77
1290.31
1278.12
1265.24
1251.71
1237.57
1222.87
1207.64
1191.92
1175.77
1159.2
1142.28
1125.03
1107.49
1089.7
1071.7
1053.53
1035.21
1016.78
998.273
979.72
961.149
942.588
924.065
905.603
887.228
868.961
850.824
832.835
815.014
797.376
779.938
762.713
745.714
728.952
712.439
696.182
680.189
664.468
649.024
633.861
618.984
604.394
590.095
576.086
562.368
548.941
535.803
522.953
510.388
498.105
486.101
474.371
462.912
451.72
440.787
430.111
419.684
409.502
399.559
389.847
380.362
371.096
362.044
353.199
344.555
336.106
327.844
319.764
311.86
304.126
296.555
289.141
281.88
274.765
267.791
260.953
254.246
247.664
241.203
234.858
228.626
222.502
216.481
210.561
204.738
199.007
193.367
187.815
182.346
176.959
171.652
166.421
161.265
156.183
151.171
146.23
141.357
136.553
131.814
127.138
122.523
117.968
113.471
109.031
104.648
100.319
96.0436
91.8213
87.6508
83.5312
79.4614
75.4404
71.4673
67.5413
63.6619
59.8289
56.0422
52.2996
48.5996
44.9415
41.3248
37.7507
34.2224
30.7478
27.3447
24.0542
20.9777
18.4099
17.6012
29.9307
239.575
149.216
151.852
168.995
191.005
215.408
241.263
268.097
295.641
323.759
352.344
381.331
410.659
440.289
470.186
500.313
530.636
561.113
591.704
622.366
653.053
683.718
714.311
744.783
775.082
805.155
834.948
864.408
893.48
922.109
950.242
977.825
1004.8
1031.13
1056.75
1081.62
1105.68
1128.9
1151.23
1172.63
1193.06
1212.48
1230.87
1248.2
1264.42
1279.54
1293.51
1306.33
1317.98
1328.45
1337.73
1345.83
1352.73
1358.44
1362.97
1366.32
1368.51
1369.56
1369.48
1368.3
1366.04
1362.73
1358.41
1353.08
1346.79
1339.54
1331.38
1322.34
1312.45
1301.76
1290.3
1278.11
1265.23
1251.7
1237.56
1222.86
1207.63
1191.91
1175.75
1159.19
1142.27
1125.02
1107.48
1089.69
1071.69
1053.52
1035.2
1016.77
998.264
979.711
961.14
942.579
924.056
905.595
887.22
868.953
850.816
832.828
815.006
797.369
779.931
762.706
745.707
728.946
712.432
696.175
680.183
664.462
649.018
633.855
618.978
604.389
590.089
576.081
562.363
548.936
535.799
522.948
510.383
498.101
486.097
474.367
462.909
451.716
440.784
430.107
419.681
409.499
399.555
389.844
380.359
371.093
362.041
353.197
344.553
336.103
327.841
319.762
311.858
304.123
296.553
289.139
281.878
274.763
267.789
260.951
254.244
247.662
241.201
234.857
228.624
222.5
216.48
210.56
204.736
199.006
193.366
187.813
182.345
176.958
171.651
166.42
161.264
156.182
151.17
146.229
141.356
136.552
131.813
127.137
122.522
117.967
113.47
109.031
104.647
100.318
96.043
91.8207
87.6503
83.5307
79.4609
75.44
71.4669
67.5409
63.6615
59.8285
56.0419
52.2993
48.5994
44.9412
41.3246
37.7505
34.2222
30.7476
27.3446
24.0542
20.9776
18.4099
17.6013
29.9308
339.264
190.337
174.451
180.689
194.474
211.901
231.477
252.482
274.518
297.347
320.81
344.798
369.227
394.032
419.163
444.572
470.215
496.048
522.031
548.12
574.271
600.441
626.584
652.655
678.606
704.391
729.961
755.268
780.264
804.899
829.126
852.896
876.163
898.879
921.001
942.483
963.283
983.36
1002.68
1021.19
1038.88
1055.69
1071.61
1086.61
1100.66
1113.74
1125.83
1136.91
1146.98
1156.01
1164.01
1170.96
1176.87
1181.75
1185.58
1188.38
1190.17
1190.95
1190.74
1189.56
1187.43
1184.38
1180.42
1175.59
1169.9
1163.38
1156.06
1147.96
1139.13
1129.58
1119.37
1108.51
1097.05
1085.03
1072.47
1059.42
1045.92
1031.99
1017.68
1003.03
988.053
972.803
957.308
941.602
925.717
909.685
893.536
877.299
861.003
844.675
828.34
812.024
795.75
779.539
763.414
747.393
731.495
715.737
700.134
684.702
669.453
654.4
639.554
624.924
610.519
596.348
582.416
568.728
555.291
542.107
529.18
516.512
504.103
491.955
480.067
468.439
457.069
445.955
435.096
424.488
414.128
404.012
394.137
384.497
375.089
365.907
356.947
348.202
339.669
331.341
323.212
315.278
307.532
299.968
292.582
285.367
278.317
271.427
264.692
258.105
251.662
245.358
239.186
233.144
227.224
221.423
215.737
210.16
204.69
199.32
194.049
188.872
183.785
178.786
173.87
169.036
164.28
159.6
154.993
150.456
145.989
141.588
137.251
132.978
128.767
124.616
120.524
116.491
112.513
108.591
104.722
100.905
97.1389
93.4232
89.7568
86.1391
82.5694
79.047
75.5716
72.1426
68.7596
65.4225
62.1311
58.8855
55.686
52.5332
49.4283
46.3718
43.3651
40.4109
37.5133
34.6796
31.9219
29.2616
26.738
24.4295
22.5121
21.4709
23.306
45.0374
339.268
190.334
174.447
180.685
194.47
211.897
231.473
252.478
274.514
297.342
320.806
344.793
369.221
394.027
419.158
444.566
470.209
496.042
522.025
548.113
574.264
600.434
626.577
652.647
678.599
704.383
729.953
755.26
780.255
804.89
829.117
852.887
876.154
898.87
920.991
942.473
963.273
983.351
1002.67
1021.18
1038.87
1055.68
1071.6
1086.6
1100.65
1113.73
1125.82
1136.9
1146.97
1156
1164
1170.95
1176.86
1181.74
1185.57
1188.37
1190.16
1190.94
1190.73
1189.55
1187.42
1184.37
1180.41
1175.58
1169.89
1163.37
1156.05
1147.95
1139.12
1129.57
1119.36
1108.5
1097.04
1085.02
1072.46
1059.42
1045.91
1031.99
1017.68
1003.02
988.046
972.796
957.301
941.595
925.711
909.678
893.529
877.293
860.997
844.669
828.334
812.018
795.744
779.534
763.409
747.388
731.49
715.732
700.129
684.697
669.449
654.396
639.55
624.92
610.516
596.344
582.412
568.725
555.288
542.104
529.177
516.508
504.1
491.952
480.064
468.436
457.066
445.953
435.094
424.486
414.126
404.01
394.135
384.495
375.087
365.905
356.945
348.201
339.667
331.339
323.211
315.276
307.53
299.967
292.581
285.365
278.315
271.426
264.69
258.104
251.661
245.357
239.185
233.142
227.223
221.422
215.736
210.16
204.689
199.32
194.048
188.871
183.784
178.785
173.87
169.035
164.279
159.599
154.992
150.456
145.988
141.587
137.251
132.978
128.766
124.615
120.524
116.49
112.513
108.591
104.721
100.904
97.1385
93.4228
89.7565
86.1388
82.5691
79.0468
75.5713
72.1423
68.7594
65.4223
62.1309
58.8853
55.6858
52.5331
49.4281
46.3716
43.365
40.4108
37.5132
34.6795
31.9219
29.2616
26.738
24.4295
22.5121
21.471
23.3062
45.0375
434.813
232.867
201.207
198.914
206.66
219.244
234.654
251.923
270.516
290.108
310.486
331.501
353.042
375.024
397.38
420.051
442.984
466.132
489.449
512.892
536.415
559.975
583.53
607.035
630.445
653.717
676.805
699.665
722.252
744.521
766.426
787.925
808.973
829.528
849.548
868.992
887.822
905.998
923.486
940.251
956.26
971.484
985.894
999.465
1012.17
1024
1034.92
1044.93
1054.01
1062.14
1069.33
1075.57
1080.86
1085.2
1088.58
1091.02
1092.54
1093.13
1092.81
1091.6
1089.52
1086.59
1082.84
1078.27
1072.92
1066.81
1059.96
1052.4
1044.17
1035.29
1025.79
1015.7
1005.07
993.913
982.274
970.184
957.676
944.785
931.543
917.983
904.139
890.042
875.724
861.214
846.544
831.742
816.836
801.854
786.821
771.762
756.701
741.661
726.664
711.73
696.877
682.125
667.49
652.987
638.632
624.437
610.414
596.576
582.931
569.489
556.258
543.244
530.454
517.893
505.564
493.472
481.619
470.006
458.636
447.507
436.621
425.976
415.571
405.404
395.473
385.775
376.307
367.066
358.047
349.247
340.661
332.286
324.115
316.145
308.369
300.784
293.384
286.163
279.116
272.239
265.525
258.969
252.566
246.312
240.199
234.225
228.383
222.669
217.078
211.606
206.248
200.999
195.856
190.814
185.87
181.019
176.258
171.585
166.995
162.485
158.052
153.695
149.409
145.193
141.045
136.961
132.941
128.982
125.082
121.241
117.457
113.728
110.053
106.431
102.862
99.3425
95.8728
92.4516
89.0781
85.7515
82.4712
79.2368
76.0479
72.9042
69.8056
66.7521
63.7437
60.7808
57.8639
54.9936
52.1713
49.3984
46.677
44.01
41.4009
38.8553
36.3815
33.992
31.7069
29.5595
27.6083
25.9662
24.8799
25.0208
29.1164
59.6557
434.818
232.864
201.203
198.91
206.656
219.24
234.649
251.918
270.511
290.104
310.482
331.496
353.037
375.019
397.375
420.045
442.978
466.127
489.444
512.886
536.409
559.969
583.524
607.028
630.439
653.71
676.799
699.658
722.245
744.513
766.419
787.917
808.966
829.52
849.54
868.984
887.814
905.99
923.478
940.243
956.252
971.476
985.886
999.456
1012.16
1023.99
1034.91
1044.92
1054
1062.14
1069.33
1075.57
1080.85
1085.19
1088.57
1091.02
1092.53
1093.12
1092.8
1091.59
1089.51
1086.59
1082.83
1078.27
1072.91
1066.8
1059.95
1052.4
1044.16
1035.28
1025.78
1015.7
1005.06
993.906
982.267
970.177
957.67
944.779
931.537
917.978
904.134
890.037
875.718
861.209
846.539
831.737
816.832
801.849
786.816
771.757
756.697
741.657
726.66
711.726
696.873
682.121
667.486
652.984
638.628
624.434
610.411
596.573
582.928
569.486
556.255
543.241
530.451
517.89
505.562
493.47
481.617
470.004
458.634
447.505
436.619
425.974
415.569
405.402
395.471
385.773
376.305
367.064
358.046
349.246
340.66
332.284
324.114
316.143
308.368
300.783
293.383
286.162
279.115
272.238
265.524
258.968
252.566
246.311
240.199
234.224
228.382
222.669
217.078
211.605
206.247
200.998
195.855
190.813
185.869
181.018
176.258
171.584
166.994
162.484
158.052
153.694
149.409
145.193
141.044
136.961
132.94
128.981
125.082
121.241
117.456
113.727
110.053
106.431
102.861
99.3423
95.8726
92.4514
89.0779
85.7513
82.471
79.2366
76.0477
72.9041
69.8055
66.752
63.7436
60.7807
57.8638
54.9936
52.1712
49.3983
46.6769
44.0099
41.4008
38.8553
36.3814
33.992
31.7069
29.5594
27.6083
25.9662
24.8799
25.0209
29.1167
59.6559
528.115
276.262
230.081
220.34
223.104
231.882
244.148
258.69
274.838
292.183
310.46
329.48
349.107
369.236
389.783
410.679
431.863
453.28
474.882
496.619
518.448
540.325
562.204
584.044
605.801
627.433
648.897
670.149
691.148
711.851
732.216
752.201
771.767
790.872
809.478
827.547
845.042
861.927
878.169
893.735
908.596
922.723
936.089
948.671
960.447
971.397
981.504
990.753
999.133
1006.63
1013.25
1018.97
1023.8
1027.74
1030.79
1032.96
1034.25
1034.68
1034.26
1033
1030.93
1028.05
1024.4
1019.98
1014.83
1008.96
1002.4
995.174
987.312
978.843
969.794
960.197
950.082
939.48
928.423
916.942
905.069
892.837
880.275
867.415
854.288
840.925
827.353
813.604
799.704
785.681
771.561
757.371
743.134
728.874
714.614
700.374
686.177
672.04
657.981
644.019
630.168
616.444
602.86
589.429
576.162
563.07
550.162
537.446
524.931
512.623
500.527
488.649
476.992
465.559
454.353
443.375
432.627
422.109
411.821
401.762
391.931
382.326
372.945
363.785
354.844
346.118
337.603
329.297
321.193
313.289
305.58
298.061
290.727
283.574
276.597
269.79
263.149
256.668
250.343
244.168
238.139
232.251
226.498
220.876
215.38
210.006
204.749
199.605
194.569
189.637
184.806
180.072
175.43
170.878
166.412
162.028
157.724
153.496
149.342
145.259
141.246
137.298
133.415
129.593
125.833
122.13
118.485
114.895
111.359
107.876
104.445
101.064
97.7334
94.4512
91.2166
88.0287
84.8869
81.7908
78.7398
75.7338
72.7725
69.856
66.9844
64.1581
61.3776
58.6436
55.9572
53.3199
50.7334
48.2004
45.724
43.3086
40.9601
38.6866
36.5001
34.4182
32.4681
30.6942
29.1731
28.0503
27.6413
28.8003
34.9633
73.9571
528.118
276.259
230.077
220.336
223.1
231.878
244.144
258.686
274.833
292.179
310.455
329.475
349.102
369.231
389.778
410.674
431.858
453.275
474.876
496.614
518.443
540.319
562.198
584.038
605.795
627.427
648.89
670.143
691.141
711.844
732.209
752.195
771.76
790.866
809.471
827.54
845.035
861.92
878.162
893.728
908.589
922.716
936.082
948.664
960.44
971.39
981.497
990.746
999.126
1006.63
1013.24
1018.96
1023.8
1027.73
1030.79
1032.95
1034.25
1034.68
1034.25
1033
1030.92
1028.04
1024.39
1019.97
1014.82
1008.95
1002.39
995.168
987.307
978.837
969.789
960.192
950.077
939.475
928.418
916.937
905.065
892.832
880.27
867.411
854.284
840.92
827.349
813.6
799.7
785.677
771.558
757.367
743.13
728.87
714.61
700.371
686.174
672.037
657.978
644.016
630.165
616.441
602.857
589.426
576.159
563.067
550.159
537.444
524.929
512.621
500.525
488.647
476.99
465.557
454.351
443.373
432.625
422.108
411.82
401.761
391.93
382.325
372.944
363.784
354.843
346.117
337.602
329.295
321.192
313.288
305.579
298.06
290.726
283.573
276.596
269.789
263.148
256.667
250.342
244.168
238.138
232.25
226.497
220.875
215.379
210.005
204.748
199.604
194.568
189.637
184.806
180.071
175.43
170.878
166.411
162.027
157.723
153.496
149.342
145.259
141.245
137.298
133.414
129.593
125.832
122.13
118.484
114.894
111.359
107.876
104.444
101.064
97.7332
94.451
91.2164
88.0286
84.8868
81.7907
78.7397
75.7336
72.7724
69.8559
66.9843
64.158
61.3775
58.6435
55.9572
53.3198
50.7334
48.2003
45.7239
43.3085
40.96
38.6866
36.5001
34.4181
32.4681
30.6941
29.1731
28.0502
27.6413
28.8004
34.9637
73.9574
619.63
320.351
260.342
243.747
242.134
247.702
257.41
269.802
284.072
299.734
316.466
334.046
352.31
371.134
390.419
410.084
430.059
450.285
470.705
491.269
511.93
532.642
553.361
574.044
594.647
615.129
635.449
655.564
675.435
695.021
714.282
733.178
751.672
769.724
787.298
804.359
820.871
836.801
852.118
866.792
880.793
894.095
906.674
918.506
929.571
939.851
949.329
957.993
965.829
972.83
978.988
984.3
988.764
992.38
995.151
997.083
998.183
998.461
997.93
996.603
994.496
991.627
988.015
983.679
978.64
972.919
966.54
959.529
951.911
943.714
934.965
925.694
915.929
905.699
895.036
883.969
872.527
860.742
848.643
836.26
823.621
810.757
797.693
784.46
771.082
757.586
743.999
730.343
716.642
702.919
689.196
675.492
661.828
648.222
634.691
621.251
607.918
594.707
581.629
568.697
555.923
543.316
530.885
518.639
506.586
494.73
483.078
471.634
460.403
449.387
438.589
428.01
417.652
407.515
397.599
387.903
378.426
369.167
360.123
351.292
342.671
334.258
326.048
318.038
310.225
302.603
295.17
287.92
280.848
273.951
267.224
260.661
254.258
248.01
241.913
235.961
230.15
224.475
218.931
213.514
208.219
203.041
197.978
193.024
188.175
183.427
178.776
174.22
169.753
165.374
161.078
156.862
152.724
148.66
144.668
140.746
136.89
133.1
129.372
125.704
122.096
118.544
115.049
111.607
108.219
104.882
101.596
98.3597
95.1721
92.0323
88.9394
85.8929
82.892
79.9366
77.0263
74.161
71.3407
68.5659
65.8368
63.1542
60.5189
57.9321
55.3955
52.9109
50.4811
48.1094
45.8003
43.5595
41.3948
39.3171
37.3416
35.4906
33.7983
32.3194
31.1479
30.4612
30.6428
32.728
40.8511
88.0789
619.632
320.346
260.338
243.743
242.13
247.697
257.406
269.797
284.068
299.73
316.462
334.041
352.305
371.129
390.414
410.079
430.054
450.279
470.699
491.264
511.925
532.637
553.356
574.038
594.641
615.123
635.443
655.558
675.429
695.015
714.276
733.172
751.665
769.717
787.292
804.352
820.865
836.795
852.112
866.785
880.786
894.089
906.667
918.499
929.565
939.844
949.323
957.986
965.823
972.824
978.982
984.294
988.758
992.374
995.145
997.077
998.177
998.455
997.924
996.597
994.49
991.621
988.01
983.674
978.634
972.914
966.535
959.524
951.907
943.709
934.961
925.689
915.924
905.695
895.032
883.964
872.523
860.738
848.639
836.256
823.618
810.753
797.69
784.456
771.079
757.583
743.995
730.339
716.639
702.916
689.193
675.489
661.825
648.219
634.688
621.249
607.916
594.704
581.626
568.695
555.921
543.314
530.883
518.638
506.584
494.728
483.076
471.633
460.401
449.385
438.587
428.009
417.651
407.514
397.598
387.902
378.425
369.165
360.122
351.291
342.67
334.257
326.047
318.037
310.224
302.603
295.169
287.919
280.848
273.951
267.223
260.66
254.258
248.01
241.912
235.96
230.149
224.474
218.93
213.513
208.218
203.041
197.977
193.023
188.174
183.426
178.776
174.219
169.753
165.373
161.077
156.862
152.723
148.66
144.668
140.746
136.89
133.099
129.371
125.704
122.095
118.544
115.048
111.607
108.219
104.882
101.596
98.3595
95.1719
92.0321
88.9393
85.8927
82.8919
79.9365
77.0262
74.1609
71.3406
68.5658
65.8368
63.1541
60.5188
57.9321
55.3954
52.9109
50.4811
48.1094
45.8002
43.5594
41.3948
39.3171
37.3416
35.4906
33.7982
32.3194
31.1479
30.4612
30.6428
32.7281
40.8516
88.0792
709.748
365.037
291.681
268.607
262.995
265.73
273.254
283.863
296.619
310.953
326.494
342.983
360.23
378.093
396.458
415.231
434.336
453.704
473.276
492.997
512.816
532.687
552.563
572.401
592.158
611.793
631.264
650.532
669.557
688.3
706.722
724.787
742.457
759.696
776.47
792.744
808.486
823.664
838.248
852.209
865.522
878.161
890.102
901.324
911.809
921.538
930.496
938.671
946.053
952.632
958.402
963.36
967.504
970.834
973.354
975.069
975.986
976.114
975.465
974.052
971.89
968.997
965.389
961.086
956.106
950.473
944.208
937.335
929.879
921.866
913.324
904.278
894.758
884.792
874.407
863.633
852.5
841.034
829.266
817.223
804.934
792.426
779.725
766.859
753.854
740.734
727.523
714.246
700.924
687.579
674.233
660.904
647.613
634.375
621.209
608.13
595.153
582.292
569.559
556.966
544.524
532.242
520.131
508.197
496.447
484.889
473.527
462.366
451.41
440.662
430.124
419.798
409.686
399.787
390.103
380.631
371.372
362.324
353.484
344.852
336.423
328.196
320.166
312.331
304.687
297.229
289.954
282.858
275.936
269.184
262.598
256.171
249.901
243.783
237.811
231.981
226.289
220.73
215.3
209.994
204.807
199.736
194.776
189.924
185.175
180.525
175.972
171.51
167.138
162.85
158.646
154.52
150.471
146.496
142.591
138.756
134.986
131.281
127.638
124.055
120.53
117.062
113.65
110.291
106.985
103.731
100.527
97.373
94.2674
91.2096
88.1989
85.2348
82.3169
79.4448
76.6186
73.8383
71.104
68.4164
65.776
63.1838
60.6412
58.1497
55.7113
53.3287
51.0053
48.7452
46.554
44.4389
42.4095
40.479
38.666
36.9972
35.5133
34.2794
33.4064
33.1032
33.8215
36.7779
46.7998
102.124
709.749
365.032
291.676
268.603
262.991
265.726
273.25
283.858
296.614
310.949
326.49
342.978
360.226
378.088
396.453
415.226
434.331
453.699
473.271
492.992
512.811
532.682
552.558
572.396
592.153
611.787
631.258
650.526
669.551
688.294
706.717
724.781
742.451
759.691
776.464
792.738
808.48
823.658
838.242
852.204
865.516
878.155
890.096
901.318
911.803
921.532
930.49
938.666
946.047
952.626
958.396
963.354
967.498
970.829
973.349
975.064
975.981
976.109
975.46
974.047
971.885
968.992
965.384
961.081
956.102
950.468
944.203
937.33
929.875
921.862
913.32
904.274
894.754
884.788
874.403
863.63
852.496
841.031
829.263
817.22
804.931
792.422
779.722
766.856
753.851
740.731
727.52
714.243
700.921
687.577
674.23
660.902
647.61
634.373
621.207
608.128
595.151
582.29
569.557
556.964
544.522
532.241
520.129
508.195
496.446
484.887
473.526
462.365
451.408
440.66
430.123
419.797
409.685
399.786
390.101
380.63
371.371
362.323
353.483
344.851
336.422
328.195
320.165
312.33
304.686
297.228
289.954
282.858
275.936
269.184
262.597
256.171
249.901
243.782
237.81
231.981
226.289
220.73
215.299
209.993
204.807
199.736
194.776
189.923
185.174
180.525
175.971
171.51
167.137
162.85
158.645
154.52
150.471
146.495
142.591
138.755
134.986
131.281
127.637
124.054
120.53
117.062
113.649
110.291
106.985
103.731
100.527
97.3729
94.2673
91.2095
88.1988
85.2347
82.3168
79.4447
76.6185
73.8382
71.1039
68.4163
65.7759
63.1838
60.6411
58.1496
55.7112
53.3287
51.0052
48.7452
46.554
44.4388
42.4094
40.479
38.6659
36.9971
35.5133
34.2794
33.4064
33.1032
33.8215
36.778
46.8004
102.124
799.031
410.418
323.97
294.671
285.312
285.469
291.063
300.14
311.629
324.881
339.472
355.108
371.574
388.708
406.383
424.494
442.954
461.69
480.636
499.733
518.928
538.171
557.415
576.615
595.729
614.715
633.532
652.141
670.504
688.582
706.34
723.74
740.747
757.328
773.449
789.078
804.184
818.737
832.709
846.074
858.805
870.88
882.277
892.976
902.959
912.209
920.713
928.459
935.437
941.639
947.06
951.696
955.546
958.61
960.893
962.398
963.134
963.108
962.333
960.82
958.584
955.641
952.009
947.705
942.749
937.161
930.963
924.178
916.83
908.944
900.546
891.661
882.318
872.542
862.362
851.804
840.897
829.669
818.146
806.356
794.326
782.083
769.652
757.059
744.329
731.486
718.554
705.554
692.51
679.441
666.369
653.312
640.288
627.315
614.41
601.586
588.86
576.244
563.75
551.391
539.177
527.117
515.22
503.495
491.948
480.585
469.412
458.433
447.653
437.073
426.698
416.529
406.567
396.812
387.265
377.926
368.793
359.866
351.142
342.62
334.296
326.17
318.236
310.492
302.935
295.561
288.366
281.346
274.496
267.813
261.293
254.93
248.72
242.659
236.743
230.967
225.326
219.816
214.433
209.173
204.031
199.003
194.085
189.273
184.564
179.953
175.438
171.014
166.678
162.428
158.259
154.17
150.156
146.216
142.348
138.547
134.813
131.144
127.536
123.989
120.5
117.069
113.693
110.372
107.104
103.887
100.722
97.606
94.5395
91.5216
88.5515
85.6288
82.7532
79.9246
77.1429
74.4085
71.7218
69.0834
66.4943
63.9556
61.4691
59.0366
56.6608
54.3449
52.0928
49.9098
47.8022
45.7788
43.8508
42.0338
40.3494
38.8289
37.5194
36.4958
35.8862
35.9312
37.1512
40.945
52.8326
116.175
799.032
410.412
323.965
294.666
285.308
285.465
291.059
300.136
311.625
324.877
339.468
355.103
371.569
388.703
406.378
424.489
442.949
461.685
480.631
499.728
518.923
538.166
557.41
576.61
595.724
614.71
633.527
652.136
670.499
688.577
706.334
723.734
740.742
757.323
773.444
789.072
804.178
818.731
832.704
846.068
858.8
870.875
882.272
892.971
902.953
912.204
920.708
928.454
935.432
941.634
947.055
951.691
955.541
958.605
960.888
962.394
963.129
963.104
962.328
960.815
958.579
955.637
952.005
947.701
942.745
937.157
930.959
924.174
916.826
908.94
900.542
891.658
882.314
872.538
862.358
851.801
840.894
829.666
818.143
806.353
794.323
782.08
769.649
757.056
744.327
731.484
718.551
705.552
692.507
679.439
666.367
653.31
640.286
627.313
614.408
601.584
588.858
576.242
563.748
551.389
539.175
527.115
515.219
503.493
491.946
480.583
469.41
458.432
447.651
437.072
426.697
416.528
406.566
396.811
387.264
377.925
368.792
359.865
351.141
342.619
334.296
326.169
318.235
310.492
302.935
295.561
288.365
281.345
274.496
267.813
261.292
254.929
248.719
242.659
236.742
230.966
225.325
219.816
214.433
209.172
204.03
199.002
194.084
189.273
184.564
179.953
175.438
171.014
166.678
162.428
158.259
154.169
150.156
146.216
142.347
138.547
134.813
131.143
127.536
123.989
120.5
117.069
113.693
110.372
107.104
103.887
100.721
97.6058
94.5394
91.5214
88.5514
85.6287
82.7531
79.9245
77.1428
74.4084
71.7217
69.0833
66.4942
63.9556
61.469
59.0365
56.6608
54.3448
52.0928
49.9097
47.8022
45.7787
43.8507
42.0338
40.3494
38.8289
37.5193
36.4957
35.8861
35.9312
37.1512
40.9451
52.8332
116.175
887.943
456.573
357.198
321.829
308.893
306.65
310.494
318.221
328.622
340.968
354.782
369.736
385.59
402.163
419.313
436.924
454.902
473.164
491.641
510.269
528.992
547.757
566.516
585.222
603.834
622.308
640.604
658.685
676.511
694.047
711.256
728.104
744.558
760.584
776.151
791.229
805.788
819.801
833.241
846.082
858.302
869.878
880.791
891.02
900.551
909.368
917.458
924.81
931.415
937.267
942.36
946.691
950.261
953.069
955.119
956.416
956.968
956.782
955.871
954.245
951.919
948.909
945.23
940.901
935.94
930.367
924.203
917.471
910.193
902.393
894.096
885.328
876.114
866.48
856.453
846.059
835.324
824.277
812.942
801.346
789.515
777.475
765.251
752.867
740.347
727.716
714.994
702.205
689.37
676.509
663.641
650.785
637.959
625.18
612.463
599.824
587.277
574.834
562.509
550.312
538.254
526.344
514.591
503.003
491.588
480.35
469.295
458.429
447.755
437.276
426.995
416.914
407.035
397.358