/*--------------------------------*- C++ -*----------------------------------*\
  =========                 |
  \\      /  F ield         | OpenFOAM: The Open Source CFD Toolbox
   \\    /   O peration     | Website:  https://openfoam.org
    \\  /    A nd           | Version:  8
     \\/     M anipulation  |
\*---------------------------------------------------------------------------*/
FoamFile
{
    version     2.0;
    format      ascii;
    class       volScalarField;
    location    "4200";
    object      k;
}
// * * * * * * * * * * * * * * * * * * * * * * * * * * * * * * * * * * * * * //

dimensions      [0 2 -2 0 0 0 0];

internalField   nonuniform List<scalar> 
46000
(
0.0283907
0.102889
0.182123
0.255023
0.323604
0.389751
0.454293
0.517456
0.579594
0.640977
0.701809
0.762254
0.821963
0.881185
0.939983
0.998367
1.05633
1.11385
1.17089
1.22741
1.28337
1.33872
1.39341
1.44737
1.50056
1.5529
1.60434
1.65481
1.70425
1.75261
1.79982
1.84581
1.89054
1.93394
1.97596
2.01655
2.05566
2.09323
2.12924
2.16363
2.19637
2.22743
2.25677
2.28436
2.31019
2.33424
2.35648
2.3769
2.39551
2.41228
2.42723
2.44035
2.45166
2.46115
2.46886
2.47478
2.47896
2.4814
2.48214
2.48122
2.47868
2.47457
2.46894
2.4618
2.45316
2.44309
2.43161
2.41877
2.40463
2.38923
2.37263
2.35488
2.33602
2.31613
2.29524
2.27343
2.25073
2.22721
2.20292
2.17791
2.15225
2.12598
2.09916
2.07184
2.04406
2.01589
1.98737
1.95854
1.92946
1.90017
1.87072
1.84113
1.81147
1.78175
1.75203
1.72234
1.69271
1.66317
1.63376
1.6045
1.57542
1.54654
1.51789
1.4895
1.46137
1.43353
1.406
1.37879
1.35191
1.32538
1.29921
1.2734
1.24797
1.22292
1.19825
1.17398
1.15009
1.1266
1.10351
1.08081
1.0585
1.03658
1.01506
0.993915
0.973153
0.952766
0.932749
0.913095
0.893798
0.874851
0.856247
0.837977
0.820034
0.802409
0.785095
0.768082
0.751362
0.734926
0.718766
0.702873
0.687238
0.671853
0.65671
0.641799
0.627113
0.612644
0.598385
0.584327
0.570463
0.556787
0.543291
0.529969
0.516815
0.503824
0.490988
0.478303
0.465764
0.453365
0.441103
0.428973
0.41697
0.405091
0.393332
0.38169
0.370161
0.358741
0.347433
0.336242
0.325154
0.314163
0.303266
0.29246
0.281742
0.271108
0.260555
0.250081
0.23968
0.229351
0.219087
0.208885
0.19874
0.188645
0.178594
0.16858
0.158593
0.148632
0.138692
0.128753
0.118796
0.108804
0.0987542
0.0886191
0.0783647
0.067947
0.0573087
0.0463737
0.0350422
0.0232108
0.011187
0.00231977
0.0284161
0.102934
0.182162
0.255043
0.323611
0.389753
0.454295
0.517457
0.579595
0.640978
0.70181
0.762254
0.821963
0.881186
0.939983
0.998367
1.05633
1.11385
1.17089
1.22741
1.28337
1.33872
1.39341
1.44737
1.50056
1.5529
1.60433
1.65481
1.70425
1.75261
1.79981
1.84581
1.89053
1.93394
1.97596
2.01655
2.05565
2.09323
2.12924
2.16363
2.19637
2.22743
2.25677
2.28436
2.31019
2.33423
2.35647
2.3769
2.3955
2.41228
2.42723
2.44035
2.45165
2.46115
2.46885
2.47478
2.47895
2.4814
2.48214
2.48122
2.47868
2.47457
2.46894
2.46179
2.45316
2.44308
2.4316
2.41877
2.40463
2.38923
2.37263
2.35487
2.33602
2.31612
2.29524
2.27342
2.25072
2.2272
2.20291
2.17791
2.15225
2.12598
2.09915
2.07183
2.04406
2.01589
1.98736
1.95854
1.92946
1.90017
1.87071
1.84113
1.81146
1.78175
1.75203
1.72234
1.69271
1.66317
1.63375
1.60449
1.57541
1.54654
1.51789
1.48949
1.46137
1.43353
1.406
1.37879
1.35191
1.32538
1.29921
1.2734
1.24797
1.22292
1.19825
1.17397
1.15009
1.1266
1.1035
1.0808
1.0585
1.03658
1.01505
0.993912
0.97315
0.952764
0.932746
0.913093
0.893796
0.874849
0.856245
0.837975
0.820032
0.802407
0.785093
0.76808
0.75136
0.734925
0.718765
0.702871
0.687237
0.671852
0.656708
0.641797
0.627112
0.612643
0.598383
0.584325
0.570461
0.556785
0.54329
0.529968
0.516814
0.503822
0.490987
0.478302
0.465762
0.453364
0.441102
0.428971
0.416969
0.40509
0.393331
0.381689
0.37016
0.35874
0.347432
0.336241
0.325153
0.314162
0.303265
0.292459
0.281741
0.271107
0.260555
0.25008
0.23968
0.22935
0.219087
0.208885
0.198739
0.188645
0.178594
0.16858
0.158593
0.148631
0.138692
0.128752
0.118796
0.108804
0.098754
0.088619
0.0783645
0.0679469
0.0573087
0.0463737
0.0350422
0.0232108
0.011187
0.00231977
0.102629
0.275427
0.399081
0.503846
0.598614
0.686973
0.770651
0.850919
0.928603
1.00426
1.07813
1.15055
1.22168
1.29168
1.36066
1.42868
1.4958
1.56203
1.62737
1.69182
1.75536
1.81797
1.8796
1.94021
1.99977
2.05823
2.11553
2.17163
2.22647
2.27999
2.33215
2.38289
2.43215
2.47989
2.52606
2.5706
2.61348
2.65464
2.69405
2.73168
2.76748
2.80142
2.83348
2.86363
2.89184
2.91811
2.94242
2.96475
2.9851
3.00347
3.01986
3.03427
3.04671
3.0572
3.06574
3.07236
3.07708
3.07993
3.08094
3.08014
3.07757
3.07328
3.06731
3.05968
3.05044
3.03962
3.02728
3.01345
2.9982
2.98157
2.96362
2.9444
2.92397
2.90238
2.8797
2.85597
2.83127
2.80564
2.77914
2.75183
2.72377
2.69502
2.66563
2.63565
2.60513
2.57415
2.54273
2.51095
2.47883
2.44644
2.41382
2.38102
2.34807
2.31503
2.28192
2.2488
2.2157
2.18264
2.14967
2.11682
2.08412
2.05159
2.01926
1.98716
1.95531
1.92373
1.89244
1.86145
1.83079
1.80046
1.77048
1.74087
1.71163
1.68276
1.65428
1.6262
1.59851
1.57121
1.54432
1.51784
1.49175
1.46606
1.44078
1.41588
1.39138
1.36727
1.34353
1.32018
1.29719
1.27456
1.25229
1.23036
1.20877
1.1875
1.16656
1.14593
1.12559
1.10555
1.08579
1.0663
1.04708
1.0281
1.00937
0.990865
0.972586
0.95452
0.936658
0.91899
0.901508
0.884203
0.867066
0.850089
0.833264
0.816583
0.800038
0.783623
0.767329
0.751151
0.73508
0.719112
0.703239
0.687456
0.671756
0.656134
0.640583
0.625097
0.609671
0.594303
0.578986
0.563712
0.548475
0.533266
0.51808
0.502909
0.487744
0.472578
0.457401
0.442202
0.426971
0.411695
0.396359
0.380948
0.365442
0.34982
0.334057
0.31812
0.301983
0.285606
0.268939
0.25192
0.234475
0.216508
0.197894
0.178463
0.15798
0.136096
0.112256
0.0854474
0.0531053
0.0110879
0.102593
0.275412
0.399079
0.503847
0.598614
0.686973
0.770651
0.850919
0.928603
1.00426
1.07813
1.15055
1.22168
1.29168
1.36065
1.42868
1.4958
1.56202
1.62737
1.69182
1.75536
1.81796
1.87959
1.94021
1.99977
2.05823
2.11553
2.17163
2.22646
2.27999
2.33214
2.38288
2.43215
2.47989
2.52605
2.5706
2.61347
2.65464
2.69405
2.73167
2.76747
2.80141
2.83347
2.86362
2.89184
2.9181
2.94241
2.96474
2.98509
3.00346
3.01985
3.03426
3.04671
3.05719
3.06573
3.07236
3.07708
3.07993
3.08093
3.08013
3.07756
3.07327
3.0673
3.05967
3.05043
3.03961
3.02727
3.01344
2.99819
2.98156
2.96361
2.94439
2.92396
2.90237
2.87969
2.85597
2.83126
2.80563
2.77913
2.75183
2.72377
2.69501
2.66562
2.63564
2.60513
2.57414
2.54273
2.51094
2.47883
2.44644
2.41382
2.38101
2.34807
2.31502
2.28192
2.2488
2.21569
2.18264
2.14967
2.11682
2.08411
2.05159
2.01926
1.98716
1.95531
1.92372
1.89243
1.86145
1.83078
1.80046
1.77048
1.74086
1.71162
1.68276
1.65428
1.62619
1.5985
1.57121
1.54432
1.51783
1.49174
1.46606
1.44077
1.41588
1.39138
1.36726
1.34353
1.32017
1.29718
1.27456
1.25228
1.23035
1.20876
1.1875
1.16656
1.14592
1.12559
1.10555
1.08579
1.0663
1.04707
1.0281
1.00936
0.990862
0.972583
0.954517
0.936655
0.918987
0.901505
0.8842
0.867063
0.850086
0.833261
0.81658
0.800036
0.78362
0.767327
0.751148
0.735078
0.71911
0.703237
0.687454
0.671754
0.656132
0.640581
0.625095
0.609669
0.594301
0.578984
0.56371
0.548473
0.533264
0.518078
0.502907
0.487743
0.472576
0.457399
0.442201
0.42697
0.411694
0.396358
0.380947
0.365441
0.349819
0.334056
0.318119
0.301982
0.285605
0.268938
0.25192
0.234475
0.216508
0.197893
0.178463
0.15798
0.136096
0.112255
0.0854473
0.0531053
0.0110879
0.184553
0.402633
0.548723
0.669801
0.778961
0.880574
0.976879
1.0692
1.15834
1.24493
1.32937
1.41197
1.49296
1.57251
1.65072
1.72769
1.80348
1.87811
1.9516
2.02396
2.09517
2.1652
2.23404
2.30164
2.36797
2.43298
2.49662
2.55884
2.61959
2.67882
2.73648
2.79251
2.84686
2.89948
2.95033
2.99935
3.04649
3.09173
3.13501
3.1763
3.21557
3.25278
3.28791
3.32093
3.35182
3.38056
3.40715
3.43157
3.45382
3.47389
3.49179
3.50753
3.52111
3.53254
3.54186
3.54906
3.55419
3.55727
3.55834
3.55742
3.55456
3.5498
3.54319
3.53476
3.52455
3.51262
3.499
3.48376
3.46695
3.44862
3.42883
3.40764
3.38511
3.3613
3.33627
3.31008
3.2828
3.25449
3.2252
3.19501
3.16396
3.13213
3.09958
3.06636
3.03253
2.99814
2.96327
2.92796
2.89226
2.85623
2.81992
2.78338
2.74665
2.70979
2.67284
2.63583
2.59882
2.56184
2.52493
2.48812
2.45145
2.41494
2.37864
2.34255
2.30673
2.27117
2.23592
2.20098
2.16638
2.13213
2.09825
2.06475
2.03165
1.99895
1.96666
1.93479
1.90334
1.87233
1.84175
1.8116
1.78188
1.7526
1.72375
1.69533
1.66733
1.63976
1.6126
1.58585
1.5595
1.53355
1.50798
1.48279
1.45797
1.43351
1.4094
1.38563
1.36219
1.33906
1.31625
1.29373
1.27149
1.24953
1.22783
1.20639
1.18518
1.16421
1.14346
1.12291
1.10257
1.08241
1.06244
1.04263
1.02298
1.00349
0.984137
0.964917
0.945823
0.926846
0.907978
0.889211
0.870537
0.851951
0.833443
0.815007
0.796635
0.778322
0.760059
0.74184
0.72366
0.705509
0.68738
0.669263
0.65115
0.633031
0.614897
0.596737
0.57854
0.560293
0.541981
0.523591
0.505103
0.486498
0.467754
0.448844
0.429739
0.410403
0.390795
0.370871
0.350571
0.329823
0.308539
0.286606
0.263879
0.240163
0.215186
0.188541
0.159541
0.126741
0.0856375
0.0229226
0.184539
0.402626
0.548721
0.6698
0.77896
0.880573
0.976878
1.06919
1.15833
1.24492
1.32937
1.41197
1.49296
1.5725
1.65072
1.72769
1.80347
1.8781
1.9516
2.02396
2.09516
2.1652
2.23404
2.30164
2.36797
2.43297
2.49661
2.55883
2.61958
2.67882
2.73647
2.7925
2.84685
2.89948
2.95032
2.99934
3.04649
3.09172
3.13501
3.1763
3.21556
3.25277
3.2879
3.32092
3.35181
3.38056
3.40714
3.43156
3.45381
3.47388
3.49178
3.50752
3.5211
3.53254
3.54185
3.54906
3.55419
3.55727
3.55833
3.55741
3.55455
3.54979
3.54318
3.53475
3.52454
3.51261
3.49899
3.48375
3.46694
3.44861
3.42882
3.40763
3.3851
3.36129
3.33626
3.31007
3.28279
3.25448
3.22519
3.195
3.16396
3.13213
3.09957
3.06635
3.03252
2.99814
2.96326
2.92795
2.89225
2.85622
2.81991
2.78337
2.74664
2.70978
2.67283
2.63583
2.59882
2.56183
2.52492
2.48811
2.45144
2.41494
2.37863
2.34255
2.30672
2.27117
2.23591
2.20097
2.16637
2.13212
2.09824
2.06475
2.03164
1.99894
1.96665
1.93478
1.90334
1.87232
1.84174
1.81159
1.78188
1.75259
1.72374
1.69532
1.66733
1.63975
1.61259
1.58584
1.5595
1.53354
1.50798
1.48279
1.45797
1.43351
1.4094
1.38563
1.36219
1.33906
1.31624
1.29372
1.27149
1.24953
1.22783
1.20638
1.18518
1.16421
1.14345
1.12291
1.10256
1.08241
1.06243
1.04263
1.02298
1.00349
0.984134
0.964914
0.94582
0.926843
0.907975
0.889208
0.870535
0.851948
0.83344
0.815004
0.796633
0.778319
0.760057
0.741838
0.723658
0.705507
0.687378
0.669261
0.651148
0.63303
0.614896
0.596736
0.578538
0.560291
0.54198
0.523589
0.505101
0.486496
0.467752
0.448843
0.429738
0.410402
0.390794
0.37087
0.35057
0.329822
0.308538
0.286605
0.263878
0.240162
0.215185
0.18854
0.159541
0.126741
0.0856376
0.0229227
0.261948
0.513235
0.676005
0.808585
0.927555
1.0383
1.14343
1.24438
1.34203
1.43697
1.52961
1.62026
1.70913
1.79638
1.88214
1.96648
2.04947
2.13113
2.21148
2.29052
2.36824
2.44463
2.51964
2.59324
2.6654
2.73606
2.80519
2.87272
2.93862
3.00281
3.06526
3.12591
3.18471
3.2416
3.29653
3.34946
3.40035
3.44914
3.4958
3.5403
3.58259
3.62264
3.66043
3.69594
3.72914
3.76002
3.78856
3.81476
3.83861
3.86012
3.87928
3.8961
3.91059
3.92278
3.93268
3.9403
3.94569
3.94886
3.94986
3.94872
3.94548
3.94019
3.93289
3.92362
3.91244
3.89939
3.88453
3.8679
3.84958
3.82961
3.80806
3.785
3.76048
3.73457
3.70733
3.67884
3.64915
3.61834
3.58646
3.55359
3.51979
3.48513
3.44967
3.41348
3.37661
3.33913
3.3011
3.26259
3.22364
3.18431
3.14467
3.10476
3.06464
3.02435
2.98395
2.94347
2.90298
2.8625
2.82208
2.78176
2.74157
2.70156
2.66174
2.62216
2.58283
2.5438
2.50507
2.46668
2.42865
2.39099
2.35372
2.31686
2.28041
2.2444
2.20883
2.1737
2.13903
2.10483
2.07108
2.03781
2.005
1.97266
1.94078
1.90937
1.87842
1.84793
1.81788
1.78828
1.75911
1.73037
1.70205
1.67414
1.64664
1.61952
1.59278
1.56641
1.5404
1.51473
1.4894
1.46439
1.43969
1.41529
1.39118
1.36733
1.34376
1.32043
1.29734
1.27447
1.25183
1.22938
1.20713
1.18507
1.16317
1.14144
1.11986
1.09843
1.07712
1.05594
1.03488
1.01392
0.993062
0.972292
0.951604
0.93099
0.910442
0.889951
0.86951
0.849111
0.828747
0.808409
0.788087
0.767773
0.747455
0.727124
0.706769
0.686378
0.665939
0.645438
0.62486
0.604187
0.583401
0.562482
0.541403
0.520139
0.498658
0.476921
0.454886
0.432505
0.409715
0.386443
0.362596
0.338058
0.312679
0.286255
0.258496
0.228946
0.196777
0.160092
0.112785
0.0346028
0.26195
0.513235
0.676003
0.808584
0.927553
1.0383
1.14343
1.24438
1.34203
1.43697
1.52961
1.62025
1.70912
1.79638
1.88214
1.96648
2.04947
2.13113
2.21148
2.29052
2.36824
2.44462
2.51963
2.59324
2.66539
2.73606
2.80518
2.87272
2.93861
3.00281
3.06526
3.12591
3.1847
3.24159
3.29653
3.34946
3.40034
3.44914
3.4958
3.54029
3.58258
3.62263
3.66043
3.69593
3.72913
3.76001
3.78855
3.81475
3.83861
3.86011
3.87927
3.89609
3.91059
3.92277
3.93267
3.9403
3.94568
3.94885
3.94985
3.94871
3.94547
3.94018
3.93288
3.92362
3.91243
3.89938
3.88452
3.8679
3.84957
3.8296
3.80806
3.78499
3.76047
3.73456
3.70732
3.67883
3.64914
3.61833
3.58646
3.55359
3.51979
3.48513
3.44967
3.41347
3.3766
3.33912
3.3011
3.26258
3.22363
3.18431
3.14466
3.10475
3.06463
3.02434
2.98394
2.94347
2.90297
2.86249
2.82208
2.78175
2.74157
2.70155
2.66173
2.62215
2.58283
2.54379
2.50507
2.46668
2.42864
2.39098
2.35372
2.31685
2.28041
2.24439
2.20882
2.1737
2.13903
2.10482
2.07108
2.0378
2.00499
1.97265
1.94078
1.90937
1.87842
1.84792
1.81788
1.78827
1.75911
1.73037
1.70205
1.67414
1.64663
1.61952
1.59278
1.56641
1.5404
1.51473
1.4894
1.46439
1.43969
1.41529
1.39117
1.36733
1.34375
1.32042
1.29733
1.27447
1.25182
1.22938
1.20713
1.18507
1.16317
1.14144
1.11986
1.09842
1.07712
1.05594
1.03488
1.01392
0.99306
0.97229
0.951602
0.930988
0.910439
0.889949
0.869508
0.849109
0.828745
0.808407
0.788085
0.767771
0.747453
0.727122
0.706768
0.686377
0.665938
0.645437
0.624858
0.604186
0.5834
0.56248
0.541402
0.520138
0.498657
0.47692
0.454885
0.432504
0.409714
0.386442
0.362595
0.338058
0.312679
0.286255
0.258496
0.228946
0.196777
0.160092
0.112785
0.0346029
0.336224
0.614965
0.792668
0.935299
1.0623
1.18037
1.29254
1.40041
1.5049
1.60662
1.70598
1.80327
1.89869
1.9924
2.08451
2.17508
2.26417
2.35181
2.438
2.52275
2.60603
2.68784
2.76813
2.84687
2.92401
2.99951
3.07333
3.1454
3.21569
3.28412
3.35065
3.41523
3.4778
3.53831
3.59671
3.65295
3.70699
3.75878
3.80828
3.85546
3.90028
3.9427
3.98271
4.02028
4.05538
4.08801
4.11815
4.14579
4.17094
4.19358
4.21373
4.2314
4.24659
4.25932
4.26962
4.27751
4.28301
4.28617
4.28701
4.28558
4.28192
4.27608
4.26809
4.25802
4.2459
4.2318
4.21576
4.19786
4.17814
4.15667
4.13352
4.10875
4.08243
4.05463
4.02541
3.99485
3.96301
3.92996
3.89578
3.86053
3.82428
3.7871
3.74907
3.71024
3.67068
3.63047
3.58966
3.54831
3.5065
3.46428
3.4217
3.37883
3.33572
3.29243
3.249
3.20548
3.16193
3.11839
3.0749
3.03151
2.98825
2.94516
2.90227
2.85963
2.81725
2.77518
2.73343
2.69203
2.651
2.61036
2.57014
2.53034
2.49099
2.45209
2.41365
2.3757
2.33822
2.30124
2.26475
2.22875
2.19326
2.15826
2.12376
2.08975
2.05623
2.0232
1.99065
1.95857
1.92696
1.89581
1.8651
1.83484
1.805
1.77559
1.74658
1.71796
1.68973
1.66187
1.63436
1.60721
1.58038
1.55388
1.52768
1.50178
1.47616
1.45081
1.42571
1.40086
1.37624
1.35184
1.32764
1.30365
1.27983
1.25619
1.23272
1.2094
1.18622
1.16317
1.14024
1.11743
1.09473
1.07212
1.04959
1.02714
1.00477
0.982448
0.960182
0.93796
0.915774
0.893613
0.871467
0.849328
0.827183
0.805023
0.782835
0.760607
0.738327
0.715979
0.693549
0.671018
0.648367
0.625575
0.602617
0.579465
0.556087
0.532445
0.508496
0.484188
0.459462
0.434243
0.408437
0.381926
0.354555
0.326108
0.296267
0.264506
0.229822
0.189854
0.137112
0.0459304
0.336229
0.614966
0.792667
0.935297
1.06229
1.18037
1.29254
1.4004
1.50489
1.60661
1.70597
1.80326
1.89869
1.9924
2.0845
2.17508
2.26417
2.3518
2.438
2.52274
2.60603
2.68783
2.76812
2.84686
2.92401
2.99951
3.07332
3.1454
3.21568
3.28411
3.35065
3.41522
3.47779
3.5383
3.5967
3.65295
3.70698
3.75878
3.80828
3.85545
3.90027
3.9427
3.9827
4.02027
4.05538
4.088
4.11814
4.14579
4.17093
4.19358
4.21373
4.23139
4.24658
4.25931
4.26961
4.2775
4.28301
4.28616
4.28701
4.28558
4.28191
4.27607
4.26808
4.25801
4.24589
4.23179
4.21576
4.19785
4.17813
4.15667
4.13352
4.10875
4.08243
4.05462
4.0254
3.99484
3.963
3.92995
3.89577
3.86052
3.82427
3.7871
3.74906
3.71023
3.67068
3.63046
3.58965
3.54831
3.5065
3.46427
3.4217
3.37882
3.33572
3.29242
3.24899
3.20548
3.16193
3.11839
3.0749
3.0315
2.98824
2.94515
2.90227
2.85962
2.81725
2.77517
2.73342
2.69202
2.65099
2.61036
2.57013
2.53034
2.49098
2.45208
2.41365
2.37569
2.33822
2.30124
2.26475
2.22875
2.19325
2.15826
2.12375
2.08975
2.05623
2.0232
1.99065
1.95857
1.92696
1.89581
1.8651
1.83484
1.805
1.77558
1.74657
1.71796
1.68972
1.66186
1.63436
1.6072
1.58038
1.55388
1.52768
1.50178
1.47616
1.4508
1.42571
1.40086
1.37624
1.35183
1.32764
1.30364
1.27983
1.25619
1.23272
1.20939
1.18621
1.16317
1.14024
1.11743
1.09472
1.07211
1.04959
1.02714
1.00476
0.982446
0.960181
0.937959
0.915772
0.893611
0.871466
0.849326
0.827182
0.805021
0.782833
0.760606
0.738326
0.715978
0.693547
0.671017
0.648366
0.625574
0.602616
0.579464
0.556086
0.532444
0.508495
0.484187
0.459461
0.434242
0.408436
0.381926
0.354554
0.326108
0.296267
0.264506
0.229822
0.189854
0.137112
0.0459306
0.408816
0.710939
0.902538
1.05476
1.18928
1.31399
1.43238
1.54626
1.65667
1.76425
1.86942
1.97246
2.07357
2.1729
2.27053
2.36653
2.46095
2.55381
2.6451
2.73482
2.82296
2.90949
2.99437
3.07756
3.15903
3.23872
3.31658
3.39256
3.46661
3.53867
3.60869
3.67662
3.74239
3.80597
3.8673
3.92632
3.983
4.0373
4.08917
4.13857
4.18547
4.22985
4.27166
4.31091
4.34755
4.38158
4.41299
4.44177
4.46792
4.49144
4.51234
4.53062
4.5463
4.55941
4.56995
4.57796
4.58347
4.58651
4.58713
4.58535
4.58123
4.57481
4.56615
4.55529
4.54228
4.52719
4.51007
4.49098
4.46998
4.44715
4.42255
4.39624
4.3683
4.3388
4.3078
4.27539
4.24163
4.2066
4.17036
4.133
4.09458
4.05518
4.01487
3.97372
3.93179
3.88916
3.8459
3.80206
3.75772
3.71294
3.66778
3.6223
3.57656
3.53062
3.48452
3.43833
3.39209
3.34585
3.29965
3.25355
3.20758
3.16178
3.11619
3.07084
3.02577
2.98101
2.93658
2.89252
2.84884
2.80557
2.76273
2.72033
2.6784
2.63694
2.59597
2.5555
2.51554
2.47609
2.43715
2.39874
2.36085
2.32348
2.28664
2.25032
2.21451
2.17922
2.14443
2.11014
2.07635
2.04304
2.0102
1.97783
1.94591
1.91443
1.88338
1.85276
1.82253
1.79271
1.76326
1.73417
1.70545
1.67706
1.64899
1.62124
1.59379
1.56662
1.53973
1.5131
1.48671
1.46055
1.43462
1.40889
1.38336
1.35802
1.33285
1.30784
1.28299
1.25828
1.23369
1.20923
1.18488
1.16063
1.13648
1.1124
1.0884
1.06447
1.04059
1.01675
0.992959
0.969191
0.945439
0.921694
0.897945
0.87418
0.850387
0.826553
0.802666
0.77871
0.75467
0.730527
0.706264
0.681856
0.657282
0.632511
0.607512
0.582249
0.556676
0.530744
0.504391
0.477543
0.450105
0.421954
0.392925
0.362785
0.331173
0.297478
0.260507
0.217462
0.159665
0.0570275
0.408819
0.71094
0.902537
1.05475
1.18928
1.31399
1.43238
1.54626
1.65667
1.76425
1.86942
1.97246
2.07357
2.17289
2.27053
2.36653
2.46095
2.5538
2.64509
2.73482
2.82296
2.90948
2.99436
3.07756
3.15902
3.23871
3.31657
3.39256
3.46661
3.53867
3.60869
3.67661
3.74239
3.80597
3.86729
3.92632
3.983
4.03729
4.08916
4.13856
4.18547
4.22984
4.27166
4.3109
4.34754
4.38158
4.41299
4.44177
4.46792
4.49144
4.51233
4.53062
4.5463
4.5594
4.56994
4.57796
4.58347
4.58651
4.58712
4.58534
4.58122
4.57481
4.56614
4.55528
4.54228
4.52718
4.51006
4.49097
4.46998
4.44714
4.42254
4.39623
4.36829
4.33879
4.3078
4.27538
4.24162
4.20659
4.17036
4.133
4.09458
4.05518
4.01486
3.97371
3.93178
3.88915
3.84589
3.80206
3.75772
3.71294
3.66778
3.6223
3.57656
3.53062
3.48452
3.43833
3.39209
3.34584
3.29965
3.25355
3.20757
3.16177
3.11618
3.07084
3.02577
2.981
2.93658
2.89251
2.84884
2.80557
2.76273
2.72033
2.6784
2.63694
2.59597
2.5555
2.51553
2.47608
2.43715
2.39874
2.36085
2.32348
2.28664
2.25031
2.21451
2.17921
2.14443
2.11014
2.07634
2.04303
2.0102
1.97782
1.9459
1.91443
1.88338
1.85275
1.82253
1.7927
1.76325
1.73417
1.70544
1.67705
1.64899
1.62124
1.59379
1.56662
1.53973
1.51309
1.4867
1.46055
1.43462
1.40889
1.38336
1.35802
1.33285
1.30784
1.28299
1.25827
1.23369
1.20923
1.18488
1.16063
1.13647
1.1124
1.0884
1.06447
1.04059
1.01675
0.992958
0.969189
0.945438
0.921693
0.897944
0.874178
0.850386
0.826552
0.802665
0.778709
0.754669
0.730526
0.706263
0.681856
0.657281
0.63251
0.607512
0.582248
0.556676
0.530743
0.504391
0.477543
0.450104
0.421953
0.392925
0.362785
0.331173
0.297478
0.260508
0.217462
0.159666
0.0570277
0.480071
0.802742
1.00774
1.16935
1.31129
1.4424
1.56665
1.68611
1.80194
1.91484
2.02525
2.13347
2.23969
2.34406
2.44664
2.54751
2.6467
2.74421
2.84005
2.9342
3.02665
3.11736
3.20629
3.29341
3.37867
3.46202
3.54341
3.62279
3.7001
3.77529
3.8483
3.91909
3.98759
4.05377
4.11756
4.17892
4.23781
4.29419
4.348
4.39923
4.44784
4.49379
4.53707
4.57764
4.6155
4.65063
4.68302
4.71267
4.73957
4.76372
4.78515
4.80385
4.81984
4.83315
4.84379
4.8518
4.8572
4.86004
4.86035
4.85818
4.85357
4.84656
4.83722
4.8256
4.81174
4.79571
4.77757
4.75738
4.73521
4.71113
4.6852
4.6575
4.6281
4.59707
4.56448
4.53042
4.49494
4.45814
4.42008
4.38084
4.3405
4.29913
4.2568
4.21358
4.16956
4.12479
4.07936
4.03332
3.98675
3.93971
3.89226
3.84448
3.79641
3.74812
3.69966
3.65109
3.60247
3.55383
3.50523
3.45672
3.40834
3.36013
3.31213
3.26438
3.2169
3.16974
3.12293
3.07648
3.03043
2.9848
2.93961
2.89489
2.85064
2.80688
2.76362
2.72089
2.67867
2.63699
2.59585
2.55525
2.51519
2.47568
2.43671
2.39828
2.36039
2.32304
2.28621
2.24991
2.21412
2.17883
2.14405
2.10974
2.07591
2.04255
2.00964
1.97716
1.94511
1.91347
1.88223
1.85138
1.82089
1.79076
1.76098
1.73152
1.70238
1.67354
1.64499
1.61671
1.58869
1.56091
1.53337
1.50605
1.47894
1.45202
1.42529
1.39872
1.37232
1.34607
1.31996
1.29398
1.26812
1.24236
1.2167
1.19113
1.16564
1.14023
1.11486
1.08955
1.06428
1.03905
1.01383
0.988614
0.963401
0.938173
0.912919
0.887625
0.862278
0.836864
0.811367
0.785768
0.760048
0.734187
0.708159
0.681937
0.655489
0.628777
0.60176
0.574384
0.546588
0.518297
0.489411
0.459801
0.429288
0.397612
0.364364
0.328838
0.289658
0.243622
0.181022
0.067996
0.480072
0.802741
1.00774
1.16934
1.31129
1.4424
1.56665
1.68611
1.80194
1.91483
2.02525
2.13347
2.23969
2.34405
2.44664
2.54751
2.6467
2.74421
2.84005
2.9342
3.02665
3.11735
3.20629
3.29341
3.37867
3.46202
3.54341
3.62278
3.70009
3.77528
3.8483
3.91908
3.98759
4.05376
4.11755
4.17892
4.23781
4.29418
4.348
4.39923
4.44783
4.49379
4.53706
4.57764
4.6155
4.65063
4.68302
4.71266
4.73956
4.76372
4.78514
4.80384
4.81984
4.83314
4.84379
4.85179
4.8572
4.86004
4.86035
4.85817
4.85356
4.84656
4.83722
4.82559
4.81173
4.7957
4.77756
4.75738
4.73521
4.71113
4.6852
4.6575
4.6281
4.59706
4.56448
4.53041
4.49494
4.45813
4.42008
4.38084
4.3405
4.29912
4.25679
4.21358
4.16955
4.12479
4.07935
4.03331
3.98674
3.9397
3.89226
3.84447
3.79641
3.74812
3.69966
3.65109
3.60246
3.55383
3.50523
3.45672
3.40834
3.36013
3.31213
3.26437
3.2169
3.16974
3.12292
3.07648
3.03043
2.9848
2.93961
2.89488
2.85063
2.80687
2.76362
2.72088
2.67867
2.63699
2.59584
2.55524
2.51519
2.47567
2.4367
2.39828
2.36039
2.32304
2.28621
2.24991
2.21412
2.17883
2.14404
2.10974
2.07591
2.04255
2.00963
1.97716
1.94511
1.91347
1.88223
1.85137
1.82089
1.79076
1.76098
1.73152
1.70238
1.67354
1.64499
1.6167
1.58868
1.56091
1.53337
1.50605
1.47893
1.45202
1.42528
1.39872
1.37232
1.34607
1.31996
1.29398
1.26812
1.24236
1.2167
1.19113
1.16564
1.14022
1.11486
1.08955
1.06428
1.03904
1.01382
0.988613
0.9634
0.938172
0.912918
0.887624
0.862278
0.836864
0.811366
0.785767
0.760048
0.734186
0.708158
0.681936
0.655488
0.628777
0.601759
0.574383
0.546588
0.518297
0.489411
0.459801
0.429288
0.397612
0.364364
0.328839
0.289658
0.243622
0.181023
0.0679963
0.550282
0.891607
1.10956
1.28049
1.42987
1.56734
1.69734
1.82218
1.94317
2.06108
2.17639
2.28942
2.40038
2.50938
2.61652
2.72184
2.82538
2.92713
3.0271
3.12526
3.22159
3.31605
3.40861
3.49923
3.58786
3.67444
3.75894
3.84129
3.92144
3.99933
4.07493
4.14817
4.21899
4.28737
4.35323
4.41655
4.47727
4.53535
4.59076
4.64347
4.69344
4.74065
4.78506
4.82667
4.86546
4.90141
4.93453
4.96479
4.99221
5.0168
5.03855
5.05748
5.07362
5.08698
5.09759
5.10548
5.11068
5.11323
5.11318
5.11055
5.10541
5.09781
5.08779
5.07541
5.06073
5.04381
5.02471
5.0035
4.98024
4.95501
4.92787
4.8989
4.86818
4.83576
4.80175
4.76619
4.72919
4.6908
4.65112
4.61021
4.56815
4.52503
4.48091
4.43587
4.38998
4.34332
4.29596
4.24797
4.19942
4.15038
4.10091
4.05107
4.00094
3.95056
3.90001
3.84933
3.79857
3.7478
3.69706
3.6464
3.59587
3.5455
3.49534
3.44542
3.39579
3.34647
3.29751
3.24891
3.20072
3.15296
3.10565
3.05881
3.01245
2.9666
2.92127
2.87647
2.8322
2.78848
2.74532
2.70271
2.66066
2.61918
2.57825
2.53788
2.49808
2.45882
2.42011
2.38193
2.34429
2.30718
2.27057
2.23447
2.19887
2.16374
2.12908
2.09487
2.06111
2.02778
1.99486
1.96234
1.93021
1.89845
1.86704
1.83598
1.80525
1.77483
1.74471
1.71488
1.68531
1.65601
1.62695
1.59812
1.56952
1.54111
1.5129
1.48487
1.45701
1.42931
1.40176
1.37434
1.34705
1.31987
1.2928
1.26582
1.23893
1.21211
1.18536
1.15866
1.132
1.10538
1.07878
1.0522
1.02561
0.999013
0.972391
0.945733
0.919023
0.892249
0.865392
0.838437
0.811364
0.784152
0.756776
0.729209
0.701419
0.673369
0.645016
0.616307
0.587177
0.557549
0.527318
0.496343
0.46443
0.431286
0.396451
0.359123
0.317749
0.268765
0.201547
0.0789139
0.550283
0.891607
1.10956
1.28049
1.42986
1.56734
1.69734
1.82218
1.94317
2.06108
2.17639
2.28942
2.40037
2.50938
2.61651
2.72184
2.82537
2.92713
3.02709
3.12525
3.22158
3.31605
3.40861
3.49923
3.58786
3.67444
3.75893
3.84128
3.92143
3.99933
4.07492
4.14816
4.21899
4.28736
4.35323
4.41654
4.47726
4.53535
4.59076
4.64347
4.69344
4.74064
4.78506
4.82667
4.86546
4.90141
4.93452
4.96479
4.99221
5.01679
5.03854
5.05748
5.07362
5.08698
5.09759
5.10548
5.11068
5.11323
5.11317
5.11055
5.10541
5.0978
5.08779
5.07541
5.06073
5.04381
5.02471
5.0035
4.98024
4.95501
4.92787
4.8989
4.86817
4.83576
4.80174
4.76619
4.72918
4.6908
4.65111
4.61021
4.56815
4.52502
4.4809
4.43586
4.38998
4.34332
4.29596
4.24797
4.19942
4.15037
4.1009
4.05107
4.00094
3.95056
3.9
3.84932
3.79857
3.7478
3.69706
3.6464
3.59586
3.5455
3.49533
3.44542
3.39579
3.34647
3.2975
3.24891
3.20072
3.15296
3.10565
3.05881
3.01245
2.9666
2.92127
2.87646
2.8322
2.78848
2.74531
2.70271
2.66066
2.61917
2.57825
2.53788
2.49807
2.45882
2.4201
2.38193
2.34429
2.30718
2.27057
2.23447
2.19886
2.16374
2.12908
2.09487
2.06111
2.02778
1.99486
1.96234
1.9302
1.89844
1.86704
1.83598
1.80525
1.77483
1.74471
1.71487
1.68531
1.65601
1.62695
1.59812
1.56951
1.54111
1.5129
1.48487
1.45701
1.42931
1.40176
1.37434
1.34705
1.31987
1.2928
1.26582
1.23893
1.21211
1.18536
1.15866
1.132
1.10538
1.07878
1.0522
1.02561
0.999012
0.972391
0.945732
0.919023
0.892248
0.865392
0.838436
0.811364
0.784151
0.756775
0.729208
0.701418
0.673369
0.645016
0.616306
0.587177
0.557549
0.527318
0.496343
0.46443
0.431286
0.396451
0.359123
0.317749
0.268766
0.201548
0.0789142
0.619883
0.978422
1.20886
1.38912
1.546
1.6899
1.82565
1.95582
2.08185
2.2046
2.32462
2.44223
2.55765
2.67102
2.78242
2.8919
2.99947
3.10515
3.20892
3.31075
3.41063
3.50852
3.60436
3.69813
3.78978
3.87925
3.96649
4.05145
4.13409
4.21434
4.29216
4.3675
4.44031
4.51053
4.57813
4.64306
4.70528
4.76476
4.82145
4.87532
4.92636
4.97453
5.01981
5.06219
5.10164
5.13818
5.17177
5.20244
5.23018
5.25499
5.27689
5.2959
5.31203
5.32531
5.33576
5.34342
5.34832
5.35051
5.35002
5.3469
5.3412
5.33297
5.32227
5.30915
5.29367
5.27589
5.25589
5.23371
5.20944
5.18315
5.1549
5.12477
5.09284
5.05918
5.02386
4.98698
4.9486
4.9088
4.86766
4.82526
4.78168
4.737
4.69129
4.64463
4.59709
4.54875
4.49968
4.44996
4.39966
4.34883
4.29756
4.24591
4.19394
4.14171
4.08928
4.03671
3.98407
3.93139
3.87873
3.82614
3.77367
3.72136
3.66926
3.6174
3.56582
3.51455
3.46363
3.41309
3.36296
3.31326
3.26401
3.21524
3.16696
3.11919
3.07195
3.02525
2.9791
2.9335
2.88847
2.844
2.80011
2.75679
2.71405
2.67187
2.63027
2.58924
2.54876
2.50884
2.46946
2.43062
2.39231
2.35451
2.31722
2.28043
2.24412
2.20828
2.17289
2.13794
2.10343
2.06932
2.03562
2.0023
1.96935
1.93675
1.9045
1.87257
1.84095
1.80963
1.77859
1.74782
1.71731
1.68704
1.65699
1.62716
1.59753
1.56809
1.53883
1.50974
1.4808
1.452
1.42334
1.3948
1.36637
1.33804
1.3098
1.28164
1.25355
1.22552
1.19754
1.16959
1.14167
1.11377
1.08587
1.05796
1.03003
1.00207
0.974059
0.945987
0.917836
0.88959
0.861229
0.832731
0.804073
0.775228
0.746163
0.716841
0.687218
0.657239
0.626837
0.595929
0.564403
0.532107
0.498824
0.464231
0.427812
0.388675
0.3451
0.293191
0.221491
0.0898433
0.619884
0.978421
1.20886
1.38912
1.546
1.68989
1.82565
1.95581
2.08184
2.2046
2.32461
2.44223
2.55765
2.67102
2.78242
2.8919
2.99947
3.10515
3.20891
3.31075
3.41063
3.50851
3.60436
3.69813
3.78977
3.87924
3.96648
4.05145
4.13408
4.21434
4.29216
4.3675
4.4403
4.51053
4.57813
4.64306
4.70528
4.76475
4.82144
4.87532
4.92636
4.97452
5.01981
5.06218
5.10164
5.13817
5.17177
5.20244
5.23017
5.25498
5.27689
5.29589
5.31202
5.3253
5.33575
5.34342
5.34832
5.3505
5.35001
5.3469
5.3412
5.33297
5.32227
5.30915
5.29367
5.27589
5.25588
5.23371
5.20944
5.18314
5.15489
5.12477
5.09283
5.05917
5.02386
4.98697
4.94859
4.90879
4.86766
4.82526
4.78168
4.737
4.69129
4.64462
4.59709
4.54875
4.49968
4.44996
4.39965
4.34883
4.29756
4.24591
4.19393
4.1417
4.08928
4.03671
3.98406
3.93138
3.87873
3.82614
3.77367
3.72136
3.66926
3.6174
3.56581
3.51455
3.46363
3.41309
3.36296
3.31326
3.26401
3.21524
3.16696
3.11919
3.07195
3.02525
2.97909
2.9335
2.88846
2.844
2.80011
2.75679
2.71404
2.67187
2.63027
2.58923
2.54876
2.50883
2.46946
2.43062
2.39231
2.35451
2.31722
2.28043
2.24412
2.20827
2.17289
2.13794
2.10343
2.06932
2.03562
2.0023
1.96935
1.93675
1.9045
1.87257
1.84095
1.80963
1.77859
1.74782
1.71731
1.68703
1.65699
1.62716
1.59753
1.56809
1.53883
1.50974
1.4808
1.452
1.42334
1.3948
1.36637
1.33804
1.3098
1.28164
1.25355
1.22552
1.19753
1.16959
1.14167
1.11377
1.08587
1.05796
1.03003
1.00207
0.974059
0.945987
0.917836
0.88959
0.861228
0.832731
0.804073
0.775227
0.746162
0.716841
0.687217
0.657239
0.626837
0.595929
0.564403
0.532107
0.498824
0.464232
0.427813
0.388675
0.3451
0.293192
0.221492
0.0898437
0.68923
1.06379
1.30638
1.49596
1.66043