/*--------------------------------*- C++ -*----------------------------------*\
  =========                 |
  \\      /  F ield         | OpenFOAM: The Open Source CFD Toolbox
   \\    /   O peration     | Website:  https://openfoam.org
    \\  /    A nd           | Version:  8
     \\/     M anipulation  |
\*---------------------------------------------------------------------------*/
FoamFile
{
    version     2.0;
    format      ascii;
    class       volScalarField;
    location    "4200";
    object      nut;
}
// * * * * * * * * * * * * * * * * * * * * * * * * * * * * * * * * * * * * * //

dimensions      [0 2 -1 0 0 0 0];

internalField   nonuniform List<scalar> 
46000
(
2.03184e-06
7.73276e-06
1.3686e-05
1.91637e-05
2.43171e-05
2.92876e-05
3.41374e-05
3.88835e-05
4.35527e-05
4.8165e-05
5.2736e-05
5.72779e-05
6.17645e-05
6.62145e-05
7.06326e-05
7.50197e-05
7.9375e-05
8.36968e-05
8.79829e-05
9.22301e-05
9.64352e-05
0.000100594
0.000104703
0.000108758
0.000112755
0.000116687
0.000120553
0.000124345
0.00012806
0.000131694
0.000135241
0.000138697
0.000142058
0.000145319
0.000148476
0.000151526
0.000154465
0.000157289
0.000159994
0.000162578
0.000165039
0.000167372
0.000169577
0.00017165
0.000173591
0.000175398
0.000177069
0.000178604
0.000180002
0.000181263
0.000182386
0.000183372
0.000184221
0.000184935
0.000185514
0.00018596
0.000186273
0.000186457
0.000186513
0.000186444
0.000186253
0.000185945
0.000185522
0.000184985
0.000184336
0.000183579
0.000182717
0.000181753
0.00018069
0.000179534
0.000178286
0.000176952
0.000175536
0.000174041
0.000172472
0.000170833
0.000169128
0.00016736
0.000165536
0.000163657
0.000161729
0.000159755
0.00015774
0.000155687
0.0001536
0.000151484
0.000149341
0.000147175
0.00014499
0.000142789
0.000140576
0.000138353
0.000136124
0.000133891
0.000131658
0.000129427
0.000127201
0.000124981
0.000122771
0.000120573
0.000118388
0.000116218
0.000114066
0.000111932
0.000109818
0.000107727
0.000105658
0.000103613
0.000101594
9.96001e-05
9.76334e-05
9.56942e-05
9.37832e-05
9.19007e-05
9.00472e-05
8.82229e-05
8.64282e-05
8.46631e-05
8.29276e-05
8.12219e-05
7.95456e-05
7.78988e-05
7.62811e-05
7.46924e-05
7.31322e-05
7.16002e-05
7.0096e-05
6.86191e-05
6.7169e-05
6.57452e-05
6.43471e-05
6.29742e-05
6.16258e-05
6.03014e-05
5.90002e-05
5.77217e-05
5.64653e-05
5.52302e-05
5.40158e-05
5.28214e-05
5.16465e-05
5.04903e-05
4.93523e-05
4.82317e-05
4.71281e-05
4.60408e-05
4.49692e-05
4.39127e-05
4.28709e-05
4.18431e-05
4.08289e-05
3.98278e-05
3.88393e-05
3.7863e-05
3.68984e-05
3.59451e-05
3.50028e-05
3.40711e-05
3.31496e-05
3.2238e-05
3.1336e-05
3.04433e-05
2.95597e-05
2.86848e-05
2.78183e-05
2.69602e-05
2.61104e-05
2.52694e-05
2.44361e-05
2.36102e-05
2.27913e-05
2.19792e-05
2.11737e-05
2.03746e-05
1.95816e-05
1.87944e-05
1.80128e-05
1.72365e-05
1.64652e-05
1.56986e-05
1.49361e-05
1.41775e-05
1.34222e-05
1.26695e-05
1.1919e-05
1.11704e-05
1.04234e-05
9.67644e-06
8.92818e-06
8.17725e-06
7.42196e-06
6.66026e-06
5.88959e-06
5.10665e-06
4.30713e-06
3.48531e-06
2.63368e-06
1.74448e-06
8.40823e-07
1.65598e-07
2.03417e-06
7.73708e-06
1.36897e-05
1.91657e-05
2.43178e-05
2.92878e-05
3.41375e-05
3.88836e-05
4.35528e-05
4.81651e-05
5.27361e-05
5.7278e-05
6.17646e-05
6.62146e-05
7.06326e-05
7.50197e-05
7.9375e-05
8.36968e-05
8.79829e-05
9.22301e-05
9.64352e-05
0.000100594
0.000104703
0.000108758
0.000112754
0.000116687
0.000120552
0.000124345
0.00012806
0.000131694
0.000135241
0.000138697
0.000142058
0.000145319
0.000148476
0.000151526
0.000154465
0.000157288
0.000159994
0.000162578
0.000165038
0.000167372
0.000169577
0.00017165
0.000173591
0.000175398
0.000177069
0.000178604
0.000180002
0.000181262
0.000182385
0.000183372
0.000184221
0.000184935
0.000185514
0.000185959
0.000186273
0.000186457
0.000186513
0.000186444
0.000186253
0.000185944
0.000185521
0.000184985
0.000184336
0.000183579
0.000182717
0.000181752
0.00018069
0.000179533
0.000178286
0.000176952
0.000175536
0.000174041
0.000172472
0.000170833
0.000169127
0.00016736
0.000165535
0.000163657
0.000161728
0.000159755
0.000157739
0.000155687
0.0001536
0.000151483
0.00014934
0.000147174
0.00014499
0.000142789
0.000140575
0.000138353
0.000136124
0.000133891
0.000131658
0.000129427
0.000127201
0.000124981
0.000122771
0.000120573
0.000118387
0.000116218
0.000114065
0.000111932
0.000109818
0.000107726
0.000105658
0.000103613
0.000101593
9.95999e-05
9.76332e-05
9.5694e-05
9.37829e-05
9.19004e-05
9.00469e-05
8.82227e-05
8.6428e-05
8.46629e-05
8.29274e-05
8.12217e-05
7.95454e-05
7.78986e-05
7.6281e-05
7.46922e-05
7.3132e-05
7.16e-05
7.00958e-05
6.86189e-05
6.71688e-05
6.5745e-05
6.4347e-05
6.2974e-05
6.16257e-05
6.03012e-05
5.90001e-05
5.77216e-05
5.64651e-05
5.523e-05
5.40156e-05
5.28213e-05
5.16463e-05
5.04902e-05
4.93521e-05
4.82316e-05
4.7128e-05
4.60407e-05
4.49691e-05
4.39126e-05
4.28708e-05
4.1843e-05
4.08288e-05
3.98277e-05
3.88392e-05
3.78629e-05
3.68983e-05
3.59451e-05
3.50027e-05
3.4071e-05
3.31495e-05
3.22379e-05
3.13359e-05
3.04433e-05
2.95596e-05
2.86847e-05
2.78183e-05
2.69601e-05
2.61103e-05
2.52693e-05
2.4436e-05
2.36101e-05
2.27912e-05
2.19791e-05
2.11737e-05
2.03745e-05
1.95815e-05
1.87943e-05
1.80128e-05
1.72365e-05
1.64652e-05
1.56985e-05
1.49361e-05
1.41775e-05
1.34221e-05
1.26695e-05
1.1919e-05
1.11704e-05
1.04234e-05
9.67642e-06
8.92816e-06
8.17723e-06
7.42194e-06
6.66025e-06
5.88958e-06
5.10664e-06
4.30713e-06
3.48531e-06
2.63368e-06
1.74448e-06
8.40823e-07
1.65599e-07
7.08217e-06
6.02566e-05
0.000101
0.000129301
0.000151273
0.000169529
0.000185272
0.000199382
0.000212334
0.000224416
0.000235805
0.00024664
0.000257028
0.000267028
0.000276686
0.000286038
0.000295112
0.000303928
0.000312505
0.000320853
0.000328984
0.000336904
0.000344618
0.000352131
0.000359446
0.000366563
0.000373483
0.000380208
0.000386735
0.000393066
0.000399198
0.00040513
0.00041086
0.000416388
0.000421711
0.000426828
0.000431738
0.000436438
0.000440927
0.000445204
0.000449268
0.000453118
0.000456754
0.000460173
0.000463377
0.000466365
0.000469136
0.000471693
0.000474034
0.000476161
0.000478075
0.000479777
0.000481269
0.000482553
0.00048363
0.000484504
0.000485175
0.000485648
0.000485925
0.000486008
0.000485901
0.000485607
0.000485129
0.000484472
0.00048364
0.00048264
0.000481475
0.000480149
0.000478669
0.000477038
0.000475261
0.000473344
0.000471292
0.00046911
0.000466803
0.000464376
0.000461835
0.000459185
0.000456432
0.00045358
0.000450634
0.000447602
0.000444486
0.000441293
0.000438028
0.000434696
0.000431301
0.000427849
0.000424345
0.000420793
0.000417198
0.000413564
0.000409896
0.000406199
0.000402475
0.00039873
0.000394967
0.00039119
0.000387403
0.000383608
0.00037981
0.000376012
0.000372216
0.000368425
0.000364643
0.000360871
0.000357112
0.000353369
0.000349643
0.000345936
0.000342251
0.000338588
0.00033495
0.000331337
0.000327751
0.000324193
0.000320664
0.000317164
0.000313694
0.000310256
0.000306848
0.000303471
0.000300126
0.000296813
0.00029353
0.00029028
0.00028706
0.000283871
0.000280712
0.000277582
0.000274482
0.00027141
0.000268366
0.000265348
0.000262356
0.00025939
0.000256447
0.000253527
0.000250629
0.000247752
0.000244895
0.000242056
0.000239235
0.00023643
0.00023364
0.000230863
0.0002281
0.000225347
0.000222605
0.000219872
0.000217146
0.000214427
0.000211713
0.000209003
0.000206295
0.000203589
0.000200883
0.000198176
0.000195467
0.000192754
0.000190035
0.00018731
0.000184577
0.000181834
0.00017908
0.000176312
0.000173525
0.00017072
0.000167896
0.000165053
0.000162187
0.000159298
0.000156382
0.000153437
0.000150459
0.000147444
0.000144389
0.00014129
0.00013814
0.000134934
0.000131666
0.000128326
0.000124906
0.000121395
0.000117776
0.000114027
0.000110132
0.000106071
0.000101815
9.73265e-05
9.25569e-05
8.7441e-05
8.18886e-05
7.57703e-05
6.88889e-05
6.0921e-05
5.12782e-05
3.87227e-05
2.03385e-05
7.60218e-07
7.07885e-06
6.02529e-05
0.000101
0.000129303
0.000151275
0.000169531
0.000185275
0.000199385
0.000212337
0.000224419
0.000235808
0.000246643
0.000257031
0.000267031
0.000276689
0.000286041
0.000295115
0.000303932
0.000312508
0.000320856
0.000328987
0.000336907
0.000344622
0.000352135
0.000359449
0.000366566
0.000373487
0.000380212
0.000386739
0.00039307
0.000399202
0.000405134
0.000410864
0.000416392
0.000421715
0.000426833
0.000431742
0.000436442
0.000440931
0.000445209
0.000449273
0.000453123
0.000456758
0.000460178
0.000463381
0.000466369
0.000469141
0.000471697
0.000474038
0.000476166
0.00047808
0.000479782
0.000481274
0.000482558
0.000483635
0.000484508
0.00048518
0.000485653
0.000485929
0.000486013
0.000485906
0.000485612
0.000485133
0.000484476
0.000483645
0.000482644
0.000481479
0.000480154
0.000478673
0.000477042
0.000475266
0.000473349
0.000471296
0.000469114
0.000466807
0.00046438
0.000461839
0.000459189
0.000456436
0.000453584
0.000450638
0.000447605
0.00044449
0.000441297
0.000438032
0.000434699
0.000431305
0.000427853
0.000424349
0.000420797
0.000417202
0.000413568
0.0004099
0.000406202
0.000402479
0.000398733
0.00039497
0.000391193
0.000387406
0.000383611
0.000379813
0.000376015
0.000372219
0.000368428
0.000364645
0.000360874
0.000357115
0.000353372
0.000349646
0.000345939
0.000342254
0.000338591
0.000334953
0.00033134
0.000327754
0.000324196
0.000320666
0.000317166
0.000313697
0.000310258
0.00030685
0.000303473
0.000300128
0.000296815
0.000293532
0.000290282
0.000287062
0.000283873
0.000280714
0.000277584
0.000274484
0.000271412
0.000268367
0.00026535
0.000262358
0.000259391
0.000256448
0.000253529
0.000250631
0.000247754
0.000244896
0.000242058
0.000239236
0.000236431
0.000233641
0.000230865
0.000228101
0.000225349
0.000222606
0.000219873
0.000217147
0.000214428
0.000211714
0.000209004
0.000206297
0.00020359
0.000200885
0.000198177
0.000195468
0.000192754
0.000190036
0.000187311
0.000184578
0.000181835
0.000179081
0.000176312
0.000173526
0.00017072
0.000167897
0.000165053
0.000162188
0.000159299
0.000156383
0.000153438
0.000150459
0.000147445
0.00014439
0.00014129
0.000138141
0.000134935
0.000131666
0.000128327
0.000124907
0.000121395
0.000117776
0.000114027
0.000110132
0.000106071
0.000101815
9.73268e-05
9.25573e-05
8.74413e-05
8.18889e-05
7.57706e-05
6.88891e-05
6.09212e-05
5.12783e-05
3.87228e-05
2.03384e-05
7.6022e-07
1.27945e-05
9.77758e-05
0.00017845
0.000238919
0.000285904
0.00032397
0.000355979
0.000383758
0.000408452
0.000430825
0.000451397
0.00047053
0.000488488
0.000505456
0.000521571
0.000536941
0.000551646
0.000565754
0.000579315
0.000592372
0.000604959
0.000617103
0.000628828
0.000640153
0.000651092
0.000661659
0.000671864
0.000681717
0.000691224
0.000700394
0.000709229
0.000717736
0.000725918
0.000733778
0.000741319
0.000748544
0.000755455
0.000762054
0.000768342
0.000774323
0.000779996
0.000785365
0.00079043
0.000795195
0.00079966
0.000803827
0.0008077
0.000811279
0.000814568
0.000817569
0.000820284
0.000822717
0.00082487
0.000826746
0.00082835
0.000829684
0.000830751
0.000831556
0.000832101
0.000832391
0.000832428
0.000832215
0.000831757
0.00083106
0.000830132
0.000828979
0.000827607
0.000826022
0.00082423
0.000822237
0.000820047
0.000817669
0.000815107
0.000812367
0.000809457
0.000806381
0.000803146
0.000799758
0.000796223
0.000792548
0.000788739
0.000784802
0.000780743
0.000776568
0.000772283
0.000767894
0.000763408
0.00075883
0.000754166
0.000749422
0.000744603
0.000739715
0.000734763
0.000729753
0.00072469
0.000719578
0.000714424
0.000709231
0.000704005
0.000698749
0.000693469
0.000688168
0.000682851
0.000677521
0.000672182
0.000666837
0.000661491
0.000656145
0.000650804
0.000645469
0.000640144
0.000634831
0.000629532
0.000624249
0.000618985
0.00061374
0.000608516
0.000603315
0.000598138
0.000592986
0.00058786
0.000582759
0.000577686
0.000572639
0.00056762
0.000562628
0.000557664
0.000552726
0.000547814
0.000542929
0.000538069
0.000533233
0.000528422
0.000523632
0.000518865
0.000514118
0.00050939
0.000504679
0.000499986
0.000495307
0.000490641
0.000485988
0.000481344
0.000476709
0.000472081
0.000467457
0.000462837
0.000458218
0.000453598
0.000448975
0.000444348
0.000439714
0.000435071
0.000430418
0.000425751
0.000421069
0.00041637
0.00041165
0.000406908
0.000402141
0.000397346
0.000392521
0.000387661
0.000382765
0.000377827
0.000372843
0.000367806
0.000362712
0.000357561
0.000352349
0.000347071
0.000341722
0.000336294
0.000330782
0.000325176
0.000319468
0.000313647
0.000307701
0.000301617
0.000295377
0.000288965
0.000282358
0.00027553
0.000268451
0.00026108
0.000253369
0.00024526
0.000236696
0.000227594
0.00021785
0.000207325
0.000195834
0.000183122
0.000168826
0.000152404
0.000133003
0.000109202
7.85277e-05
3.74998e-05
1.57999e-06
1.27932e-05
9.77756e-05
0.000178453
0.000238924
0.000285909
0.000323975
0.000355985
0.000383763
0.000408457
0.00043083
0.000451402
0.000470535
0.000488493
0.000505461
0.000521576
0.000536946
0.000551652
0.000565759
0.00057932
0.000592377
0.000604964
0.000617109
0.000628834
0.000640158
0.000651097
0.000661664
0.000671869
0.000681722
0.00069123
0.000700399
0.000709235
0.000717742
0.000725924
0.000733784
0.000741325
0.00074855
0.000755461
0.00076206
0.000768348
0.000774328
0.000780002
0.000785371
0.000790436
0.000795201
0.000799666
0.000803833
0.000807706
0.000811285
0.000814574
0.000817574
0.00082029
0.000822722
0.000824875
0.000826752
0.000828355
0.000829689
0.000830757
0.000831561
0.000832107
0.000832397
0.000832434
0.000832221
0.000831762
0.000831065
0.000830137
0.000828984
0.000827612
0.000826027
0.000824235
0.000822241
0.000820052
0.000817674
0.000815112
0.000812372
0.000809461
0.000806385
0.00080315
0.000799762
0.000796228
0.000792553
0.000788743
0.000784806
0.000780747
0.000776572
0.000772287
0.000767898
0.000763412
0.000758834
0.00075417
0.000749425
0.000744606
0.000739718
0.000734766
0.000729756
0.000724693
0.000719582
0.000714427
0.000709234
0.000704008
0.000698752
0.000693472
0.000688171
0.000682854
0.000677524
0.000672185
0.00066684
0.000661493
0.000656148
0.000650806
0.000645472
0.000640147
0.000634833
0.000629534
0.000624251
0.000618987
0.000613742
0.000608518
0.000603317
0.00059814
0.000592988
0.000587861
0.000582761
0.000577687
0.000572641
0.000567622
0.00056263
0.000557665
0.000552727
0.000547816
0.00054293
0.00053807
0.000533235
0.000528423
0.000523633
0.000518866
0.000514119
0.00050939
0.00050468
0.000499986
0.000495308
0.000490642
0.000485988
0.000481345
0.00047671
0.000472081
0.000467458
0.000462837
0.000458218
0.000453598
0.000448976
0.000444348
0.000439714
0.000435072
0.000430418
0.000425751
0.00042107
0.00041637
0.00041165
0.000406908
0.000402141
0.000397347
0.000392521
0.000387662
0.000382765
0.000377827
0.000372843
0.000367807
0.000362712
0.000357561
0.000352349
0.000347071
0.000341722
0.000336294
0.000330782
0.000325176
0.000319468
0.000313647
0.000307701
0.000301617
0.000295377
0.000288965
0.000282358
0.00027553
0.000268451
0.00026108
0.000253369
0.00024526
0.000236696
0.000227594
0.00021785
0.000207325
0.000195834
0.000183122
0.000168826
0.000152404
0.000133003
0.000109202
7.85277e-05
3.74996e-05
1.57999e-06
1.82027e-05
0.000124552
0.000235759
0.000325658
0.000398163
0.000457883
0.000508341
0.000551976
0.000590467
0.00062499
0.00065638
0.000685245
0.00071203
0.000737068
0.000760611
0.000782854
0.00080395
0.000824021
0.000843165
0.000861463
0.00087898
0.000895771
0.000911882
0.000927351
0.000942211
0.00095649
0.000970212
0.000983397
0.000996063
0.00100823
0.0010199
0.0010311
0.00104183
0.00105211
0.00106193
0.00107132
0.00108028
0.00108881
0.00109692
0.00110462
0.00111192
0.00111881
0.0011253
0.0011314
0.00113712
0.00114245
0.00114741
0.00115199
0.00115621
0.00116006
0.00116356
0.0011667
0.00116949
0.00117194
0.00117405
0.00117583
0.00117728
0.0011784
0.0011792
0.00117969
0.00117987
0.00117974
0.00117931
0.00117859
0.00117758
0.00117629
0.00117473
0.00117291
0.00117084
0.00116851
0.00116595
0.00116315
0.00116012
0.00115686
0.0011534
0.00114972
0.00114585
0.00114178
0.00113753
0.00113309
0.00112849
0.00112372
0.00111878
0.0011137
0.00110847
0.00110311
0.00109761
0.00109199
0.00108625
0.0010804
0.00107444
0.00106839
0.00106224
0.00105601
0.0010497
0.00104331
0.00103686
0.00103034
0.00102377
0.00101714
0.00101047
0.00100375
0.000997003
0.000990222
0.000983412
0.00097658
0.000969729
0.000962863
0.000955986
0.000949101
0.000942212
0.000935321
0.000928432
0.000921547
0.000914669
0.000907799
0.000900941
0.000894095
0.000887263
0.000880446
0.000873647
0.000866865
0.000860102
0.000853357
0.000846632
0.000839926
0.000833239
0.000826571
0.000819923
0.000813292
0.000806679
0.000800083
0.000793502
0.000786935
0.000780382
0.00077384
0.000767308
0.000760785
0.000754269
0.000747757
0.000741249
0.000734741
0.000728232
0.00072172
0.000715202
0.000708676
0.00070214
0.00069559
0.000689025
0.000682442
0.000675837
0.000669209
0.000662555
0.00065587
0.000649153
0.000642399
0.000635606
0.000628769
0.000621886
0.000614952
0.000607962
0.000600913
0.000593798
0.000586614
0.000579352
0.000572007
0.00056457
0.000557032
0.000549392
0.000541641
0.00053377
0.00052577
0.00051763
0.000509337
0.000500876
0.000492232
0.000483385
0.000474314
0.000464996
0.000455401
0.000445496
0.000435243
0.000424595
0.000413498
0.000401885
0.000389674
0.000376767
0.000363053
0.00034839
0.000332594
0.00031543
0.000296587
0.000275646
0.000252029
0.000224916
0.000193105
0.000154801
0.000107431
4.91222e-05
2.39271e-06
1.82028e-05
0.000124554
0.000235763
0.000325664
0.00039817
0.000457891
0.000508348
0.000551983
0.000590475
0.000624998
0.000656388
0.000685252
0.000712038
0.000737076
0.000760619
0.000782862
0.000803957
0.000824028
0.000843172
0.00086147
0.000878987
0.000895778
0.000911889
0.000927359
0.000942219
0.000956498
0.000970219
0.000983404
0.00099607
0.00100823
0.00101991
0.00103111
0.00104184
0.00105211
0.00106194
0.00107133
0.00108029
0.00108882
0.00109693
0.00110463
0.00111192
0.00111881
0.00112531
0.00113141
0.00113713
0.00114246
0.00114742
0.001152
0.00115622
0.00116007
0.00116357
0.00116671
0.0011695
0.00117195
0.00117406
0.00117584
0.00117728
0.00117841
0.00117921
0.0011797
0.00117988
0.00117975
0.00117932
0.00117859
0.00117758
0.00117629
0.00117474
0.00117292
0.00117084
0.00116852
0.00116595
0.00116315
0.00116012
0.00115687
0.0011534
0.00114973
0.00114585
0.00114179
0.00113753
0.0011331
0.00112849
0.00112372
0.00111879
0.00111371
0.00110848
0.00110311
0.00109762
0.00109199
0.00108625
0.0010804
0.00107445
0.00106839
0.00106225
0.00105601
0.0010497
0.00104331
0.00103686
0.00103034
0.00102377
0.00101714
0.00101047
0.00100376
0.000997006
0.000990224
0.000983415
0.000976582
0.000969731
0.000962865
0.000955988
0.000949103
0.000942214
0.000935323
0.000928434
0.000921549
0.00091467
0.000907801
0.000900942
0.000894096
0.000887264
0.000880448
0.000873648
0.000866866
0.000860102
0.000853358
0.000846632
0.000839926
0.00083324
0.000826572
0.000819923
0.000813293
0.00080668
0.000800083
0.000793502
0.000786935
0.000780382
0.00077384
0.000767309
0.000760785
0.000754269
0.000747757
0.000741249
0.000734741
0.000728232
0.00072172
0.000715202
0.000708676
0.000702139
0.00069559
0.000689025
0.000682441
0.000675837
0.000669209
0.000662554
0.00065587
0.000649152
0.000642399
0.000635605
0.000628769
0.000621886
0.000614951
0.000607962
0.000600912
0.000593798
0.000586613
0.000579352
0.000572006
0.000564569
0.000557032
0.000549391
0.00054164
0.000533769
0.00052577
0.000517629
0.000509336
0.000500875
0.000492231
0.000483384
0.000474314
0.000464995
0.0004554
0.000445495
0.000435242
0.000424595
0.000413498
0.000401885
0.000389674
0.000376767
0.000363053
0.000348389
0.000332594
0.00031543
0.000296586
0.000275645
0.000252029
0.000224916
0.000193105
0.000154802
0.000107431
4.9122e-05
2.39272e-06
2.33991e-05
0.000146162
0.000281049
0.000395802
0.000491447
0.000571939
0.000640773
0.00070062
0.000753465
0.000800769
0.00084362
0.000882832
0.000919021
0.000952659
0.000984109
0.00101366
0.00104153
0.00106792
0.00109295
0.00111677
0.00113947
0.00116113
0.00118182
0.00120161
0.00122054
0.00123867
0.00125602
0.00127264
0.00128855
0.00130378
0.00131835
0.00133229
0.0013456
0.00135832
0.00137046
0.00138202
0.00139303
0.00140349
0.00141342
0.00142282
0.00143172
0.00144011
0.001448
0.00145542
0.00146235
0.00146882
0.00147482
0.00148037
0.00148548
0.00149015
0.00149438
0.0014982
0.00150159
0.00150458
0.00150716
0.00150935
0.00151114
0.00151256
0.00151359
0.00151425
0.00151455
0.00151449
0.00151407
0.00151331
0.00151222
0.00151079
0.00150905
0.00150701
0.00150466
0.00150201
0.00149908
0.00149588
0.0014924
0.00148866
0.00148467
0.00148043
0.00147596
0.00147125
0.00146632
0.00146117
0.00145582
0.00145026
0.00144451
0.00143858
0.00143247
0.0014262
0.00141976
0.00141316
0.00140642
0.00139954
0.00139252
0.00138538
0.00137812
0.00137075
0.00136328
0.00135571
0.00134804
0.00134029
0.00133246
0.00132456
0.00131659
0.00130856
0.00130047
0.00129234
0.00128416
0.00127594
0.00126768
0.00125939
0.00125108
0.00124274
0.00123439
0.00122602
0.00121764
0.00120924
0.00120085
0.00119245
0.00118405
0.00117565
0.00116726
0.00115887
0.00115048
0.0011421
0.00113374
0.00112538
0.00111703
0.00110869
0.00110035
0.00109203
0.00108372
0.00107542
0.00106712
0.00105883
0.00105054
0.00104226
0.00103398
0.0010257
0.00101742
0.00100914
0.00100085
0.000992551
0.000984244
0.000975925
0.00096759
0.000959238
0.000950866
0.00094247
0.000934047
0.000925594
0.000917109
0.000908587
0.000900026
0.000891421
0.000882769
0.000874065
0.000865306
0.000856488
0.000847605
0.000838652
0.000829626
0.000820519
0.000811326
0.000802042
0.000792657
0.000783166
0.00077356
0.000763828
0.000753961
0.000743947
0.000733779
0.000723446
0.000712934
0.000702229
0.000691313
0.000680169
0.000668776
0.000657108
0.000645138
0.000632835
0.000620163
0.00060708
0.000593536
0.000579475
0.00056483
0.000549521
0.000533453
0.000516511
0.000498557
0.000479424
0.000458915
0.000436774
0.000412678
0.000386211
0.000356825
0.000323794
0.000286134
0.000242497
0.000191064
0.000129652
5.81104e-05
3.18267e-06
2.33994e-05
0.000146165
0.000281054
0.000395809
0.000491456
0.000571948
0.000640782
0.00070063
0.000753474
0.000800779
0.00084363
0.000882842
0.000919031
0.000952668
0.000984119
0.00101367
0.00104154
0.00106792
0.00109296
0.00111678
0.00113948
0.00116114
0.00118183
0.00120162
0.00122055
0.00123868
0.00125603
0.00127265
0.00128856
0.00130379
0.00131836
0.00133229
0.00134561
0.00135833
0.00137047
0.00138203
0.00139304
0.0014035
0.00141343
0.00142283
0.00143173
0.00144012
0.00144801
0.00145542
0.00146236
0.00146882
0.00147483
0.00148038
0.00148549
0.00149016
0.00149439
0.00149821
0.0015016
0.00150459
0.00150717
0.00150936
0.00151115
0.00151256
0.0015136
0.00151426
0.00151456
0.00151449
0.00151408
0.00151332
0.00151222
0.0015108
0.00150906
0.00150701
0.00150466
0.00150202
0.00149909
0.00149588
0.00149241
0.00148867
0.00148468
0.00148044
0.00147596
0.00147125
0.00146632
0.00146117
0.00145582
0.00145026
0.00144452
0.00143859
0.00143248
0.0014262
0.00141976
0.00141316
0.00140642
0.00139954
0.00139253
0.00138539
0.00137813
0.00137076
0.00136328
0.00135571
0.00134804
0.00134029
0.00133246
0.00132456
0.00131659
0.00130856
0.00130048
0.00129234
0.00128416
0.00127594
0.00126768
0.00125939
0.00125108
0.00124274
0.00123439
0.00122602
0.00121764
0.00120925
0.00120085
0.00119245
0.00118405
0.00117565
0.00116726
0.00115887
0.00115048
0.00114211
0.00113374
0.00112538
0.00111703
0.00110869
0.00110036
0.00109203
0.00108372
0.00107542
0.00106712
0.00105883
0.00105054
0.00104226
0.00103398
0.0010257
0.00101742
0.00100914
0.00100085
0.00099255
0.000984244
0.000975924
0.00096759
0.000959238
0.000950865
0.000942469
0.000934046
0.000925594
0.000917109
0.000908587
0.000900025
0.00089142
0.000882768
0.000874065
0.000865306
0.000856487
0.000847604
0.000838652
0.000829625
0.000820518
0.000811326
0.000802041
0.000792657
0.000783165
0.000773559
0.000763827
0.00075396
0.000743946
0.000733779
0.000723445
0.000712933
0.000702228
0.000691312
0.000680168
0.000668775
0.000657107
0.000645137
0.000632834
0.000620162
0.000607079
0.000593535
0.000579475
0.00056483
0.000549521
0.000533452
0.00051651
0.000498556
0.000479423
0.000458914
0.000436774
0.000412678
0.00038621
0.000356825
0.000323794
0.000286134
0.000242497
0.000191064
0.000129652
5.81101e-05
3.18268e-06
2.8482e-05
0.000164659
0.000318634
0.000454415
0.000570565
0.00067013
0.000756318
0.000831819
0.000898752
0.000958757
0.0010131
0.00106275
0.00110847
0.00115085
0.00119035
0.00122734
0.00126213
0.00129495
0.00132599
0.00135543
0.0013834
0.00141001
0.00143535
0.00145952
0.00148258
0.0015046
0.00152562
0.0015457
0.00156488
0.00158319
0.00160068
0.00161735
0.00163326
0.00164842
0.00166285
0.00167657
0.00168961
0.00170198
0.0017137
0.00172478
0.00173524
0.0017451
0.00175436
0.00176305
0.00177116
0.00177872
0.00178573
0.00179221
0.00179817
0.00180361
0.00180855
0.00181299
0.00181695
0.00182043
0.00182345
0.00182601
0.00182812
0.00182979
0.00183102
0.00183183
0.00183223
0.00183221
0.00183179
0.00183097
0.00182978
0.00182821
0.00182628
0.001824
0.00182138
0.00181842
0.00181513
0.00181153
0.00180762
0.00180341
0.0017989
0.00179412
0.00178906
0.00178374
0.00177816
0.00177234
0.00176627
0.00175997
0.00175345
0.00174672
0.00173978
0.00173264
0.00172531
0.0017178
0.00171011
0.00170226
0.00169425
0.0016861
0.00167779
0.00166936
0.00166079
0.00165211
0.00164331
0.00163441
0.00162541
0.00161632
0.00160714
0.00159788
0.00158854
0.00157914
0.00156968
0.00156017
0.0015506
0.00154098
0.00153133
0.00152164
0.00151191
0.00150216
0.00149238
0.00148258
0.00147277
0.00146294
0.0014531
0.00144324
0.00143338
0.00142352
0.00141365
0.00140377
0.0013939
0.00138402
0.00137414
0.00136426
0.00135438
0.0013445
0.00133462
0.00132473
0.00131484
0.00130495
0.00129505
0.00128514
0.00127522
0.00126529
0.00125535
0.00124539
0.00123541
0.00122541
0.00121538
0.00120533
0.00119525
0.00118513
0.00117498
0.00116479
0.00115456
0.00114427
0.00113394
0.00112354
0.00111309
0.00110258
0.00109199
0.00108133
0.00107059
0.00105977
0.00104885
0.00103784
0.00102672
0.0010155
0.00100415
0.00099268
0.000981072
0.000969318
0.000957408
0.00094533
0.00093307
0.000920614
0.00090795
0.000895063
0.000881934
0.000868544
0.000854872
0.000840891
0.000826573
0.000811885
0.000796792
0.000781251
0.000765214
0.000748625
0.000731419
0.000713523
0.000694847
0.000675288
0.000654724
0.000633008
0.000609964
0.00058538
0.000559006
0.000530526
0.000499546
0.000465569
0.000427962
0.000385909
0.000338353
0.000283932
0.000220965
0.000147779
6.5622e-05
3.9576e-06
2.84822e-05
0.000164661
0.000318639
0.000454422
0.000570574
0.000670139
0.000756329
0.00083183
0.000898763
0.000958768
0.00101311
0.00106276
0.00110848
0.00115086
0.00119036
0.00122735
0.00126214
0.00129496
0.001326
0.00135544
0.00138341
0.00141002
0.00143536
0.00145953
0.00148259
0.00150461
0.00152563
0.00154571
0.00156489
0.0015832
0.00160069
0.00161736
0.00163327
0.00164843
0.00166286
0.00167658
0.00168962
0.00170199
0.00171371
0.00172479
0.00173525
0.00174511
0.00175437
0.00176306
0.00177117
0.00177873
0.00178574
0.00179222
0.00179818
0.00180362
0.00180856
0.001813
0.00181696
0.00182044
0.00182346
0.00182602
0.00182813
0.0018298
0.00183103
0.00183184
0.00183223
0.00183221
0.00183179
0.00183098
0.00182979
0.00182822
0.00182629
0.00182401
0.00182138
0.00181842
0.00181514
0.00181153
0.00180762
0.00180341
0.00179891
0.00179413
0.00178907
0.00178375
0.00177817
0.00177234
0.00176628
0.00175998
0.00175346
0.00174672
0.00173978
0.00173264
0.00172531
0.0017178
0.00171012
0.00170227
0.00169426
0.0016861
0.0016778
0.00166936
0.0016608
0.00165211
0.00164332
0.00163441
0.00162541
0.00161632
0.00160714
0.00159788
0.00158855
0.00157915
0.00156969
0.00156017
0.0015506
0.00154098
0.00153133
0.00152164
0.00151191
0.00150216
0.00149238
0.00148259
0.00147277
0.00146294
0.0014531
0.00144325
0.00143339
0.00142352
0.00141365
0.00140377
0.0013939
0.00138402
0.00137414
0.00136426
0.00135438
0.0013445
0.00133462
0.00132473
0.00131484
0.00130495
0.00129505
0.00128514
0.00127522
0.00126529
0.00125535
0.00124539
0.00123541
0.00122541
0.00121538
0.00120533
0.00119525
0.00118513
0.00117498
0.00116479
0.00115455
0.00114427
0.00113394
0.00112354
0.00111309
0.00110258
0.00109199
0.00108133
0.00107059
0.00105977
0.00104885
0.00103784
0.00102672
0.0010155
0.00100415
0.000992679
0.000981071
0.000969318
0.000957408
0.000945329
0.000933069
0.000920613
0.000907949
0.000895062
0.000881933
0.000868544
0.000854871
0.00084089
0.000826572
0.000811884
0.000796791
0.00078125
0.000765213
0.000748624
0.000731418
0.000713522
0.000694846
0.000675287
0.000654723
0.000633007
0.000609963
0.00058538
0.000559006
0.000530526
0.000499546
0.000465569
0.000427962
0.000385909
0.000338353
0.000283933
0.000220966
0.000147779
6.56217e-05
3.95761e-06
3.3475e-05
0.000181037
0.00035107
0.000504881
0.000639123
0.000755933
0.000858148
0.000948356
0.00102871
0.00110096
0.00116647
0.00122634
0.00128143
0.00133244
0.00137992
0.00142431
0.00146596
0.00150519
0.00154222
0.00157726
0.00161048
0.00164203
0.00167201
0.00170055
0.00172773
0.00175362
0.0017783
0.00180183
0.00182425
0.00184563
0.001866
0.0018854
0.00190386
0.00192143
0.00193813
0.00195398
0.00196902
0.00198327
0.00199674
0.00200947
0.00202147
0.00203275
0.00204335
0.00205326
0.00206252
0.00207113
0.00207911
0.00208648
0.00209324
0.00209942
0.00210502
0.00211005
0.00211454
0.00211848
0.0021219
0.00212479
0.00212718
0.00212908
0.00213048
0.00213141
0.00213187
0.00213188
0.00213143
0.00213055
0.00212924
0.00212751
0.00212538
0.00212286
0.00211995
0.00211667
0.00211302
0.00210902
0.00210468
0.00210001
0.00209501
0.00208969
0.00208407
0.00207815
0.00207194
0.00206546
0.00205871
0.00205169
0.00204443
0.00203692
0.00202919
0.00202122
0.00201305
0.00200466
0.00199608
0.00198731
0.00197836
0.00196923
0.00195994
0.0019505
0.00194091
0.00193117
0.00192131
0.00191132
0.00190121
0.001891
0.00188068
0.00187026
0.00185976
0.00184917
0.00183851
0.00182777
0.00181697
0.00180611
0.0017952
0.00178424
0.00177323
0.00176219
0.0017511
0.00173999
0.00172884
0.00171767
0.00170648
0.00169526
0.00168403
0.00167278
0.00166152
0.00165024
0.00163896
0.00162766
0.00161635
0.00160502
0.00159369
0.00158234
0.00157099
0.00155962
0.00154823
0.00153683
0.00152541
0.00151397