/*--------------------------------*- C++ -*----------------------------------*\
  =========                 |
  \\      /  F ield         | OpenFOAM: The Open Source CFD Toolbox
   \\    /   O peration     | Website:  https://openfoam.org
    \\  /    A nd           | Version:  8
     \\/     M anipulation  |
\*---------------------------------------------------------------------------*/
FoamFile
{
    version     2.0;
    format      ascii;
    class       surfaceScalarField;
    location    "4200";
    object      phi;
}
// * * * * * * * * * * * * * * * * * * * * * * * * * * * * * * * * * * * * * //

dimensions      [1 0 -1 0 0 0 0];

internalField   nonuniform List<scalar> 
114370
(
7.42541e-10
3.3165e-13
-7.42874e-10
1.83221e-09
3.21415e-12
-1.11838e-09
2.78362e-09
2.09806e-12
-9.42368e-10
3.35648e-09
1.00211e-12
-5.70048e-10
3.55297e-09
4.95417e-13
-1.96453e-10
3.42401e-09
2.70416e-13
1.28373e-10
3.0295e-09
1.56614e-13
3.94032e-10
2.42424e-09
8.96164e-14
6.04956e-10
1.65377e-09
4.72985e-14
7.70258e-10
7.54445e-10
2.18425e-14
8.99159e-10
-2.44526e-10
7.91132e-15
9.98836e-10
-1.31902e-09
7.87205e-16
1.07437e-09
-2.44982e-09
-2.47357e-15
1.13069e-09
-3.62216e-09
-3.34085e-15
1.17225e-09
-4.82413e-09
-2.68612e-15
1.20188e-09
-6.04599e-09
-1.32297e-15
1.22178e-09
-7.27974e-09
8.36518e-17
1.23367e-09
-8.51873e-09
1.17228e-15
1.23891e-09
-9.75739e-09
1.8615e-15
1.23859e-09
-1.0991e-08
2.21309e-15
1.23358e-09
-1.22157e-08
2.32302e-15
1.22458e-09
-1.34279e-08
2.26913e-15
1.21218e-09
-1.46248e-08
2.11224e-15
1.19685e-09
-1.58039e-08
1.90753e-15
1.17899e-09
-1.69628e-08
1.70554e-15
1.15892e-09
-1.80998e-08
1.54859e-15
1.13693e-09
-1.92131e-08
1.46191e-15
1.11325e-09
-2.03012e-08
1.44943e-15
1.08808e-09
-2.13628e-08
1.49453e-15
1.06159e-09
-2.23968e-08
1.57113e-15
1.03395e-09
-2.34021e-08
1.64913e-15
1.00527e-09
-2.43778e-08
1.70794e-15
9.75678e-10
-2.53231e-08
1.73288e-15
9.45277e-10
-2.62373e-08
1.71948e-15
9.1416e-10
-2.71197e-08
1.67205e-15
8.82411e-10
-2.79699e-08
1.60249e-15
8.50109e-10
-2.87873e-08
1.52665e-15
8.17324e-10
-2.95714e-08
1.46095e-15
7.84123e-10
-3.0322e-08
1.41796e-15
7.50567e-10
-3.10388e-08
1.40039e-15
7.16714e-10
-3.17214e-08
1.40266e-15
6.82619e-10
-3.23698e-08
1.41085e-15
6.48334e-10
-3.29837e-08
1.40299e-15
6.13908e-10
-3.35631e-08
1.3536e-15
5.7939e-10
-3.4108e-08
1.24057e-15
5.44824e-10
-3.46183e-08
1.05344e-15
5.10256e-10
-3.5094e-08
7.99893e-16
4.75728e-10
-3.55353e-08
5.1041e-16
4.41282e-10
-3.59423e-08
2.30305e-16
4.06958e-10
-3.63152e-08
1.21623e-17
3.72797e-10
-3.6654e-08
-1.00867e-16
3.38836e-10
-3.69592e-08
-8.73698e-17
3.05112e-10
-3.72308e-08
4.67992e-17
2.71662e-10
-3.74694e-08
2.69493e-16
2.38522e-10
-3.76751e-08
5.32791e-16
2.05726e-10
-3.78484e-08
7.83891e-16
1.73308e-10
-3.79898e-08
9.79588e-16
1.41302e-10
-3.80995e-08
1.09272e-15
1.09739e-10
-3.81782e-08
1.1163e-15
7.86494e-11
-3.82263e-08
1.06133e-15
4.80605e-11
-3.82443e-08
9.49715e-16
1.79971e-11
-3.82328e-08
8.07304e-16
-1.15124e-11
-3.81924e-08
6.58334e-16
-4.04381e-11
-3.81237e-08
5.20639e-16
-6.87573e-11
-3.80273e-08
4.04466e-16
-9.64528e-11
-3.79038e-08
3.14205e-16
-1.23504e-10
-3.77539e-08
2.4926e-16
-1.49888e-10
-3.75784e-08
2.06e-16
-1.75583e-10
-3.73778e-08
1.79653e-16
-2.00568e-10
-3.7153e-08
1.65124e-16
-2.24825e-10
-3.69047e-08
1.58292e-16
-2.48335e-10
-3.66337e-08
1.54225e-16
-2.71084e-10
-3.63406e-08
1.50809e-16
-2.93058e-10
-3.60264e-08
1.46309e-16
-3.14244e-10
-3.56918e-08
1.40345e-16
-3.34632e-10
-3.53376e-08
1.32483e-16
-3.54212e-10
-3.49647e-08
1.23754e-16
-3.72977e-10
-3.45738e-08
1.14971e-16
-3.90919e-10
-3.41658e-08
1.06514e-16
-4.08033e-10
-3.37415e-08
9.92484e-17
-4.24317e-10
-3.33017e-08
9.323e-17
-4.39767e-10
-3.28474e-08
8.98138e-17
-4.54383e-10
-3.23792e-08
8.96501e-17
-4.68164e-10
-3.18982e-08
9.36064e-17
-4.81114e-10
-3.14049e-08
1.0255e-16
-4.93236e-10
-3.09004e-08
1.16156e-16
-5.04533e-10
-3.03855e-08
1.33664e-16
-5.15011e-10
-2.98608e-08
1.52528e-16
-5.24678e-10
-2.93273e-08
1.7123e-16
-5.33542e-10
-2.87857e-08
1.86679e-16
-5.41611e-10
-2.82368e-08
1.96869e-16
-5.48898e-10
-2.76815e-08
2.00554e-16
-5.55413e-10
-2.71203e-08
1.97572e-16
-5.61168e-10
-2.65542e-08
1.87162e-16
-5.66178e-10
-2.59837e-08
1.71874e-16
-5.70457e-10
-2.54097e-08
1.52357e-16
-5.7402e-10
-2.48329e-08
1.3219e-16
-5.76883e-10
-2.42539e-08
1.12565e-16
-5.79063e-10
-2.36733e-08
9.5542e-17
-5.80577e-10
-2.30919e-08
8.15005e-17
-5.81445e-10
-2.25103e-08
7.24464e-17
-5.81683e-10
-2.1929e-08
6.77292e-17
-5.81312e-10
-2.13487e-08
6.66982e-17
-5.8035e-10
-2.07699e-08
7.04377e-17
-5.78818e-10
-2.01932e-08
7.73214e-17
-5.76734e-10
-1.96191e-08
8.72409e-17
-5.74121e-10
-1.90481e-08
9.9112e-17
-5.70996e-10
-1.84808e-08
1.12176e-16
-5.67382e-10
-1.79175e-08
1.26974e-16
-5.63297e-10
-1.73588e-08
1.42044e-16
-5.58763e-10
-1.6805e-08
1.57167e-16
-5.53798e-10
-1.62566e-08
1.72562e-16
-5.48423e-10
-1.5714e-08
1.87849e-16
-5.42656e-10
-1.51775e-08
2.0281e-16
-5.36517e-10
-1.46475e-08
2.17337e-16
-5.30024e-10
-1.41244e-08
2.30997e-16
-5.23194e-10
-1.36083e-08
2.44766e-16
-5.16046e-10
-1.30998e-08
2.58209e-16
-5.08597e-10
-1.2599e-08
2.70242e-16
-5.00862e-10
-1.21061e-08
2.81517e-16
-4.92857e-10
-1.16216e-08
2.9225e-16
-4.84597e-10
-1.11455e-08
3.02223e-16
-4.76096e-10
-1.06782e-08
3.11438e-16
-4.67368e-10
-1.02198e-08
3.20002e-16
-4.58425e-10
-9.77057e-09
3.29325e-16
-4.49279e-10
-9.33067e-09
3.38214e-16
-4.39942e-10
-8.90029e-09
3.48404e-16
-4.30425e-10
-8.47959e-09
3.60328e-16
-4.20736e-10
-8.06875e-09
3.73879e-16
-4.10886e-10
-7.66791e-09
3.90032e-16
-4.00882e-10
-7.27722e-09
4.07919e-16
-3.90733e-10
-6.89681e-09
4.29168e-16
-3.80446e-10
-6.52683e-09
4.53126e-16
-3.70028e-10
-6.16739e-09
4.7947e-16
-3.59485e-10
-5.81861e-09
5.07764e-16
-3.48823e-10
-5.48061e-09
5.38227e-16
-3.38047e-10
-5.15349e-09
5.69232e-16
-3.27164e-10
-4.83736e-09
6.01646e-16
-3.16178e-10
-4.53231e-09
6.3471e-16
-3.05095e-10
-4.23844e-09
6.66473e-16
-2.9392e-10
-3.95583e-09
6.9791e-16
-2.82659e-10
-3.68456e-09
7.26745e-16
-2.71317e-10
-3.42472e-09
7.54386e-16
-2.599e-10
-3.17635e-09
7.81594e-16
-2.48416e-10
-2.93953e-09
8.08042e-16
-2.36871e-10
-2.71431e-09
8.34598e-16
-2.25273e-10
-2.50074e-09
8.60394e-16
-2.13632e-10
-2.29883e-09
8.87166e-16
-2.01957e-10
-2.10863e-09
9.15671e-16
-1.9026e-10
-1.93014e-09
9.48513e-16
-1.78552e-10
-1.76335e-09
9.85149e-16
-1.66847e-10
-1.60825e-09
1.02872e-15
-1.55161e-10
-1.4648e-09
1.07934e-15
-1.43509e-10
-1.33295e-09
1.13766e-15
-1.31911e-10
-1.21263e-09
1.20639e-15
-1.20386e-10
-1.10373e-09
1.28357e-15
-1.08956e-10
-1.00615e-09
1.37029e-15
-9.76457e-11
-9.19739e-10
1.46633e-15
-8.64807e-11
-8.44319e-10
1.56888e-15
-7.54889e-11
-7.79689e-10
1.6736e-15
-6.47005e-11
-7.25614e-10
1.78005e-15
-5.41478e-11
-6.81825e-10
1.88216e-15
-4.38652e-11
-6.48013e-10
1.9782e-15
-3.38892e-11
-6.23835e-10
2.06318e-15
-2.42589e-11
-6.08902e-10
2.13298e-15
-1.50153e-11
-6.02787e-10
2.18651e-15
-6.20185e-12
-6.05012e-10
2.22682e-15
2.13659e-12
-6.15058e-10
2.25411e-15
9.95404e-12
-6.32353e-10
2.27317e-15
1.72006e-11
-6.56274e-10
2.29114e-15
2.38234e-11
-6.86142e-10
2.31084e-15
2.97681e-11
-7.21223e-10
2.33358e-15
3.49786e-11
-7.60725e-10
2.35285e-15
3.93965e-11
-8.03794e-10
2.36279e-15
4.29615e-11
-8.49515e-10
2.34693e-15
4.56109e-11
-8.96908e-10
2.29616e-15
4.72799e-11
-9.44924e-10
2.20028e-15
4.79018e-11
-9.92448e-10
2.05843e-15
4.74073e-11
-1.03829e-09
1.87279e-15
4.57252e-11
-1.08119e-09
1.65808e-15
4.27821e-11
-1.11981e-09
1.42039e-15
3.85027e-11
-1.15274e-09
1.1595e-15
3.28102e-11
-1.17848e-09
8.6955e-16
2.56267e-11
-1.19547e-09
5.44258e-16
1.68753e-11
-1.20206e-09
1.86009e-16
6.48245e-12
-1.19655e-09
-1.93045e-16
-5.61332e-12
-1.1772e-09
-5.60615e-16
-1.94538e-11
-1.14223e-09
-8.85246e-16
-3.50579e-11
-1.08992e-09
-1.15176e-15
-5.23954e-11
-1.01866e-09
-1.35039e-15
-7.13449e-11
-9.27097e-10
-1.4818e-15
-9.1632e-11
-8.14443e-10
-1.53079e-15
-1.1272e-10
-6.80879e-10
-1.47655e-15
-1.33625e-10
-5.28346e-10
-1.31993e-15
-1.5259e-10
-3.61858e-10
-1.0826e-15
-1.66543e-10
-1.91715e-10
-8.0316e-16
-1.70197e-10
-3.69968e-11
-4.65964e-16
-1.54776e-10
6.94386e-11
-1.46357e-17
-1.06499e-10
8.30022e-11
1.04342e-15
-1.36405e-11
1.60848e-15
8.29074e-11
7.64085e-10
-7.63392e-10
1.83368e-09
-1.13343e-09
2.77843e-09
-9.49411e-10
3.35217e-09
-5.72655e-10
3.55055e-09
-1.97227e-10
3.42289e-09
1.28205e-10
3.02904e-09
3.94007e-10
2.42407e-09
6.04944e-10
1.65372e-09
7.7024e-10
7.54453e-10
8.99137e-10
-2.445e-10
9.98813e-10
-1.31899e-09
1.07435e-09
-2.44979e-09
1.13067e-09
-3.62214e-09
1.17223e-09
-4.82411e-09
1.20186e-09
-6.04597e-09
1.22176e-09
-7.27972e-09
1.23366e-09
-8.51871e-09
1.2389e-09
-9.75738e-09
1.23858e-09
-1.0991e-08
1.23357e-09
-1.22157e-08
1.22457e-09
-1.34279e-08
1.21217e-09
-1.46248e-08
1.19684e-09
-1.58039e-08
1.17898e-09
-1.69628e-08
1.15892e-09
-1.80998e-08
1.13692e-09
-1.92131e-08
1.11324e-09
-2.03012e-08
1.08807e-09
-2.13628e-08
1.06159e-09
-2.23968e-08
1.03394e-09
-2.34021e-08
1.00527e-09
-2.43778e-08
9.75674e-10
-2.53231e-08
9.45272e-10
-2.62373e-08
9.14155e-10
-2.71197e-08
8.82407e-10
-2.79698e-08
8.50104e-10
-2.87872e-08
8.1732e-10
-2.95714e-08
7.84119e-10
-3.0322e-08
7.50563e-10
-3.10387e-08
7.1671e-10
-3.17214e-08
6.82616e-10
-3.23697e-08
6.48331e-10
-3.29837e-08
6.13905e-10
-3.35631e-08
5.79386e-10
-3.41079e-08
5.4482e-10
-3.46182e-08
5.10251e-10
-3.5094e-08
4.75723e-10
-3.55353e-08
4.41277e-10
-3.59423e-08
4.06954e-10
-3.63151e-08
3.72793e-10
-3.6654e-08
3.38833e-10
-3.69591e-08
3.05109e-10
-3.72308e-08
2.7166e-10
-3.74693e-08
2.3852e-10
-3.76751e-08
2.05724e-10
-3.78484e-08
1.73306e-10
-3.79897e-08
1.41299e-10
-3.80995e-08
1.09735e-10
-3.81781e-08
7.86458e-11
-3.82262e-08
4.80566e-11
-3.82443e-08
1.79931e-11
-3.82328e-08
-1.15166e-11
-3.81924e-08
-4.04424e-11
-3.81236e-08
-6.87616e-11
-3.80272e-08
-9.6457e-11
-3.79037e-08
-1.23508e-10
-3.77539e-08
-1.49893e-10
-3.75783e-08
-1.75587e-10
-3.73778e-08
-2.00572e-10
-3.7153e-08
-2.24829e-10
-3.69047e-08
-2.48339e-10
-3.66336e-08
-2.71088e-10
-3.63406e-08
-2.93062e-10
-3.60264e-08
-3.14248e-10
-3.56918e-08
-3.34636e-10
-3.53376e-08
-3.54216e-10
-3.49646e-08
-3.72981e-10
-3.45737e-08
-3.90923e-10
-3.41657e-08
-4.08037e-10
-3.37414e-08
-4.24321e-10
-3.33017e-08
-4.39771e-10
-3.28473e-08
-4.54386e-10
-3.23792e-08
-4.68168e-10
-3.18981e-08
-4.81118e-10
-3.14049e-08
-4.9324e-10
-3.09004e-08
-5.04537e-10
-3.03854e-08
-5.15015e-10
-2.98608e-08
-5.24682e-10
-2.93273e-08
-5.33546e-10
-2.87857e-08
-5.41616e-10
-2.82368e-08
-5.48902e-10
-2.76814e-08
-5.55417e-10
-2.71203e-08
-5.61172e-10
-2.65541e-08
-5.66182e-10
-2.59837e-08
-5.70461e-10
-2.54097e-08
-5.74024e-10
-2.48329e-08
-5.76887e-10
-2.42538e-08
-5.79067e-10
-2.36733e-08
-5.80582e-10
-2.30919e-08
-5.81449e-10
-2.25102e-08
-5.81688e-10
-2.19289e-08
-5.81316e-10
-2.13486e-08
-5.80355e-10
-2.07698e-08
-5.78822e-10
-2.01931e-08
-5.76739e-10
-1.9619e-08
-5.74125e-10
-1.90481e-08
-5.71001e-10
-1.84807e-08
-5.67387e-10
-1.79175e-08
-5.63302e-10
-1.73587e-08
-5.58768e-10
-1.6805e-08
-5.53803e-10
-1.62566e-08
-5.48428e-10
-1.5714e-08
-5.42661e-10
-1.51775e-08
-5.36522e-10
-1.46475e-08
-5.30029e-10
-1.41243e-08
-5.232e-10
-1.36083e-08
-5.16052e-10
-1.30998e-08
-5.08602e-10
-1.25989e-08
-5.00867e-10
-1.21061e-08
-4.92862e-10
-1.16216e-08
-4.84602e-10
-1.11455e-08
-4.76102e-10
-1.06782e-08
-4.67374e-10
-1.02198e-08
-4.58431e-10
-9.77055e-09
-4.49285e-10
-9.33065e-09
-4.39949e-10
-8.90027e-09
-4.30431e-10
-8.47957e-09
-4.20743e-10
-8.06873e-09
-4.10892e-10
-7.66789e-09
-4.00889e-10
-7.2772e-09
-3.9074e-10
-6.89679e-09
-3.80453e-10
-6.52681e-09
-3.70035e-10
-6.16737e-09
-3.59492e-10
-5.81859e-09
-3.48829e-10
-5.48059e-09
-3.38054e-10
-5.15347e-09
-3.27171e-10
-4.83734e-09
-3.16185e-10
-4.53229e-09
-3.05102e-10
-4.23842e-09
-2.93927e-10
-3.95581e-09
-2.82666e-10
-3.68455e-09
-2.71324e-10
-3.4247e-09
-2.59908e-10
-3.17633e-09
-2.48424e-10
-2.93951e-09
-2.36879e-10
-2.71429e-09
-2.25282e-10
-2.50072e-09
-2.13641e-10
-2.29881e-09
-2.01966e-10
-2.10861e-09
-1.90268e-10
-1.93012e-09
-1.78561e-10
-1.76333e-09
-1.66856e-10
-1.60823e-09
-1.5517e-10
-1.46478e-09
-1.43518e-10
-1.33293e-09
-1.3192e-10
-1.21261e-09
-1.20395e-10
-1.10371e-09
-1.08966e-10
-1.00613e-09
-9.76554e-11
-9.1972e-10
-8.64906e-11
-8.443e-10
-7.5499e-11
-7.7967e-10
-6.47109e-11
-7.25595e-10
-5.41584e-11
-6.81805e-10
-4.38761e-11
-6.47994e-10
-3.39004e-11
-6.23816e-10
-2.42704e-11
-6.08884e-10
-1.50271e-11
-6.02769e-10
-6.21405e-12
-6.04995e-10
2.12403e-12
-6.15041e-10
9.94115e-12
-6.32337e-10
1.71874e-11
-6.56258e-10
2.38098e-11
-6.86127e-10
2.97542e-11
-7.21208e-10
3.49644e-11
-7.60711e-10
3.93821e-11
-8.03781e-10
4.29468e-11
-8.49502e-10
4.5596e-11
-8.96896e-10
4.72648e-11
-9.44913e-10
4.78865e-11
-9.92437e-10
4.73919e-11
-1.03828e-09
4.57098e-11
-1.08118e-09
4.27668e-11
-1.1198e-09
3.84876e-11
-1.15273e-09
3.27953e-11
-1.17847e-09
2.56122e-11
-1.19546e-09
1.68613e-11
-1.20205e-09
6.46888e-12
-1.19655e-09
-5.62632e-12
-1.17719e-09
-1.94662e-11
-1.14223e-09
-3.50695e-11
-1.08992e-09
-5.24064e-11
-1.01865e-09
-7.13554e-11
-9.27096e-10
-9.16421e-11
-8.14442e-10
-1.1273e-10
-6.80878e-10
-1.33635e-10
-5.28346e-10
-1.526e-10
-3.61858e-10
-1.66554e-10
-1.91716e-10
-1.70209e-10
-3.69988e-11
-1.54789e-10
6.94343e-11
-1.06514e-10
8.29941e-11
-1.36565e-11
8.28922e-11
1.13142e-09
-3.09452e-12
-1.84599e-09
1.79293e-09
-3.05517e-13
-1.7804e-09
2.13606e-09
8.70849e-14
-1.2844e-09
2.23051e-09
1.06583e-13
-6.64532e-10
2.09819e-09
9.07668e-14
-6.4367e-11
1.76224e-09
6.76106e-14
4.64098e-10
1.24851e-09
4.40932e-14
9.07569e-10
5.83097e-10
2.5394e-14
1.2702e-09
-2.08935e-10
1.27289e-14
1.56214e-09
-1.10441e-09
5.12076e-15
1.7945e-09
-2.08307e-09
9.29438e-16
1.97737e-09
-3.1281e-09
-1.23426e-15
2.11928e-09
-4.22516e-09
-2.15902e-15
2.22764e-09
-5.36185e-09
-2.26634e-15
2.30885e-09
-6.52778e-09
-1.88438e-15
2.36771e-09
-7.71416e-09
-1.3199e-15
2.40807e-09
-8.91359e-09
-7.9074e-16
2.43302e-09
-1.01198e-08
-3.92438e-16
2.44501e-09
-1.13273e-08
-1.31938e-16
2.44606e-09
-1.25316e-08
2.01155e-17
2.43782e-09
-1.37287e-08
9.51369e-17
2.42162e-09
-1.49152e-08
1.179e-16
2.39859e-09
-1.60881e-08
1.08707e-16
2.36964e-09
-1.72447e-08
8.72352e-17
2.33555e-09
-1.83828e-08
7.09138e-17
2.29698e-09
-1.95004e-08
7.00426e-17
2.25446e-09
-2.05956e-08
8.73592e-17
2.20849e-09
-2.16671e-08
1.16711e-16
2.15945e-09
-2.27132e-08
1.48041e-16
2.10771e-09
-2.37328e-08
1.70318e-16
2.05356e-09
-2.47249e-08
1.75384e-16
1.99729e-09
-2.56884e-08
1.60365e-16
1.93912e-09
-2.66224e-08
1.27918e-16
1.87926e-09
-2.75262e-08
8.48454e-17
1.81792e-09
-2.83991e-08
4.10413e-17
1.75526e-09
-2.92405e-08
7.32047e-18
1.69144e-09
-3.00498e-08
-6.93886e-18
1.62662e-09
-3.08266e-08
4.30777e-18
1.56091e-09
-3.15705e-08
4.00575e-17
1.49446e-09
-3.22812e-08
9.10945e-17
1.42737e-09
-3.29584e-08
1.4121e-16
1.35976e-09
-3.36018e-08
1.71404e-16
1.29173e-09
-3.42114e-08
1.65954e-16
1.2234e-09
-3.47868e-08
1.17841e-16
1.15484e-09
-3.53282e-08
3.22418e-17
1.08616e-09
-3.58354e-08
-7.50142e-17
1.01744e-09
-3.63085e-08
-1.80793e-16
9.48783e-10
-3.67475e-08
-2.60944e-16
8.8026e-10
-3.71526e-08
-2.96656e-16
8.11957e-10
-3.75237e-08
-2.78537e-16
7.43954e-10
-3.78613e-08
-2.09082e-16
6.76326e-10
-3.81653e-08
-1.0157e-16
6.09149e-10
-3.84362e-08
2.402e-17
5.42495e-10
-3.86741e-08
1.44704e-16
4.76436e-10
-3.88794e-08
2.40262e-16
4.11042e-10
-3.90525e-08
2.96965e-16
3.46379e-10
-3.91938e-08
3.09717e-16
2.82513e-10
-3.93036e-08
2.81907e-16
2.19508e-10
-3.93824e-08
2.23454e-16
1.57426e-10
-3.94307e-08
1.47966e-16
9.63238e-11
-3.9449e-08
6.8913e-17
3.62576e-11
-3.94378e-08
-2.6044e-18
-2.27188e-11
-3.93977e-08
-5.96883e-17
-8.05547e-11
-3.93293e-08
-9.90591e-17
-1.37202e-10
-3.92332e-08
-1.21042e-16
-1.92615e-10
-3.911e-08
-1.28171e-16
-2.46749e-10
-3.89603e-08
-1.2397e-16
-2.99561e-10
-3.87849e-08
-1.12018e-16
-3.51009e-10
-3.85845e-08
-9.58231e-17
-4.01054e-10
-3.83597e-08
-7.84629e-17
-4.49659e-10
-3.81113e-08
-6.17667e-17
-4.9679e-10
-3.78399e-08
-4.72932e-17
-5.42419e-10
-3.75465e-08
-3.56928e-17
-5.86516e-10
-3.72317e-08
-2.68164e-17
-6.29058e-10
-3.68964e-08
-2.0393e-17
-6.70023e-10
-3.65412e-08
-1.55689e-17
-7.09391e-10
-3.61671e-08
-1.17747e-17
-7.47147e-10
-3.57748e-08
-8.52262e-18
-7.83278e-10
-3.5365e-08
-5.37895e-18
-8.17773e-10
-3.49388e-08
-2.09975e-18
-8.50624e-10
-3.44967e-08
1.39629e-18
-8.81828e-10
-3.40398e-08
5.35313e-18
-9.11382e-10
-3.35687e-08
9.98759e-18
-9.39286e-10
-3.30843e-08
1.52997e-17
-9.65545e-10
-3.25874e-08
2.12894e-17
-9.90163e-10
-3.20788e-08
2.76044e-17
-1.01315e-09
-3.15593e-08
3.34315e-17
-1.03452e-09
-3.10297e-08
3.80931e-17
-1.05428e-09
-3.04909e-08
4.10471e-17
-1.07245e-09
-2.99435e-08
4.18326e-17
-1.08905e-09
-2.93883e-08
4.00161e-17
-1.10409e-09
-2.88261e-08
3.58144e-17
-1.1176e-09
-2.82577e-08
2.98508e-17
-1.12961e-09
-2.76838e-08
2.28572e-17
-1.14014e-09
-2.71051e-08
1.56197e-17
-1.14922e-09
-2.65222e-08
8.95142e-18
-1.15688e-09
-2.5936e-08
3.77391e-18
-1.16314e-09
-2.53471e-08
2.22701e-19
-1.16805e-09
-2.47561e-08
-1.1601e-18
-1.17163e-09
-2.41636e-08
-5.64229e-19
-1.17392e-09
-2.35704e-08
1.84768e-18
-1.17496e-09
-2.29769e-08
5.72327e-18
-1.17478e-09
-2.23839e-08
1.04662e-17
-1.17342e-09
-2.17918e-08
1.60494e-17
-1.17092e-09
-2.12013e-08
2.17953e-17
-1.16731e-09
-2.06128e-08
2.74869e-17
-1.16264e-09
-2.00269e-08
3.2528e-17
-1.15695e-09
-1.9444e-08
3.70812e-17
-1.15027e-09
-1.88647e-08
4.09296e-17
-1.14264e-09
-1.82894e-08
4.39107e-17
-1.1341e-09
-1.77186e-08
4.59973e-17
-1.12469e-09
-1.71526e-08
4.73792e-17
-1.11444e-09
-1.65919e-08
4.78666e-17
-1.1034e-09
-1.60369e-08
4.78661e-17
-1.0916e-09
-1.54878e-08
4.71608e-17
-1.07907e-09
-1.49452e-08
4.6076e-17
-1.06586e-09
-1.44093e-08
4.45304e-17
-1.05198e-09
-1.38805e-08
4.2795e-17
-1.03749e-09
-1.3359e-08
4.04361e-17
-1.0224e-09
-1.28451e-08
3.7752e-17
-1.00674e-09
-1.23392e-08
3.47154e-17
-9.90556e-10
-1.18415e-08
3.16517e-17
-9.73862e-10
-1.13522e-08
2.85066e-17
-9.56688e-10
-1.08716e-08
2.53885e-17
-9.39057e-10
-1.04e-08
2.22432e-17
-9.20993e-10
-9.93742e-09
1.93146e-17
-9.02519e-10
-9.48424e-09
1.66299e-17
-8.83653e-10
-9.0406e-09
1.43246e-17
-8.64417e-10
-8.60671e-09
1.22359e-17
-8.44826e-10
-8.18274e-09
1.05537e-17
-8.24899e-10
-7.76887e-09
8.97978e-18
-8.0465e-10
-7.36526e-09
7.70384e-18
-7.84093e-10
-6.9721e-09
6.34641e-18
-7.63243e-10
-6.58951e-09
4.82616e-18
-7.42112e-10
-6.21767e-09
3.14307e-18
-7.20712e-10
-5.85671e-09
8.36334e-19
-6.99054e-10
-5.50678e-09
-1.85011e-18
-6.77149e-10
-5.168e-09
-5.26864e-18
-6.55008e-10
-4.8405e-09
-9.60903e-18
-6.32641e-10
-4.52441e-09
-1.44918e-17
-6.1006e-10
-4.21985e-09
-2.02423e-17
-5.87275e-10
-3.92692e-09
-2.68062e-17
-5.64299e-10
-3.64573e-09
-3.4021e-17
-5.41143e-10
-3.37638e-09
-4.15073e-17
-5.17822e-10
-3.11895e-09
-4.92107e-17
-4.94351e-10
-2.87354e-09
-5.66978e-17
-4.70746e-10
-2.6402e-09
-6.41311e-17
-4.47025e-10
-2.41901e-09
-7.09144e-17
-4.23208e-10
-2.21001e-09
-7.69934e-17
-3.99318e-10
-2.01324e-09
-8.19887e-17
-3.75381e-10
-1.82872e-09
-8.60088e-17
-3.51423e-10
-1.65647e-09
-8.86742e-17
-3.27475e-10
-1.49647e-09
-9.00934e-17
-3.03571e-10
-1.3487e-09
-9.07001e-17
-2.79749e-10
-1.2131e-09
-9.03316e-17
-2.56049e-10
-1.08961e-09
-8.93675e-17
-2.32515e-10
-9.78125e-10
-8.86751e-17
-2.09197e-10
-8.78528e-10
-8.84714e-17
-1.86147e-10
-7.90668e-10
-8.95152e-17
-1.63421e-10
-7.14362e-10
-9.31619e-17
-1.41081e-10
-6.49396e-10
-9.97367e-17
-1.19191e-10
-5.95519e-10
-1.09836e-16
-9.7821e-11
-5.52443e-10
-1.24652e-16
-7.70457e-11
-5.19843e-10
-1.44132e-16
-5.69433e-11
-4.97348e-10
-1.68437e-16
-3.75967e-11
-4.84546e-10
-1.97133e-16
-1.90933e-11
-4.80977e-10
-2.28812e-16
-1.52469e-12
-4.86133e-10
-2.62064e-16
1.50147e-11
-4.99455e-10
-2.9472e-16
3.0425e-11
-5.20332e-10
-3.25372e-16
4.45999e-11
-5.48097e-10
-3.53261e-16
5.74305e-11
-5.82027e-10
-3.78602e-16
6.88035e-11
-6.21339e-10
-4.02806e-16
7.8602e-11
-6.65193e-10
-4.28366e-16
8.67052e-11
-7.12682e-10
-4.58101e-16
9.29886e-11
-7.6284e-10
-4.93908e-16
9.73242e-11
-8.14634e-10
-5.35679e-16
9.95806e-11
-8.66966e-10
-5.80975e-16
9.96234e-11
-9.18672e-10
-6.25784e-16
9.73153e-11
-9.68522e-10
-6.66202e-16
9.25166e-11
-1.01522e-09
-7.00333e-16
8.50866e-11
-1.05741e-09
-7.28338e-16
7.48842e-11
-1.09366e-09
-7.53579e-16
6.17711e-11
-1.12251e-09
-7.77519e-16
4.56148e-11
-1.14242e-09
-7.98587e-16
2.62956e-11
-1.15185e-09
-8.09899e-16
3.7172e-12
-1.14922e-09
-8.05163e-16
-2.21736e-11
-1.13299e-09
-7.78633e-16
-5.13717e-11
-1.10168e-09
-7.33453e-16
-8.37778e-11
-1.05397e-09
-6.72332e-16
-1.19129e-10
-9.88763e-10
-5.95811e-16
-1.569e-10
-9.05405e-10
-5.00419e-16
-1.96139e-10
-8.03879e-10
-3.85716e-16
-2.35208e-10
-6.85173e-10
-2.61236e-16
-2.71351e-10
-5.51753e-10
-1.39324e-16
-3.0002e-10
-4.0818e-10
-2.32088e-17
-3.13832e-10
-2.61909e-10
1.005e-16
-3.01116e-10
-1.2443e-10
2.85942e-16
-2.44061e-10
-1.95558e-11
9.76482e-16
-1.18625e-10
2.24069e-15
6.32675e-11
1.14134e-09
-1.84238e-09
1.79609e-09
-1.78185e-09
2.13638e-09
-1.28558e-09
2.2301e-09
-6.6513e-10
2.09779e-09
-6.46307e-11
1.76201e-09
4.63991e-10
1.24841e-09
9.07527e-10
5.83068e-10
1.27018e-09
-2.08929e-10
1.56213e-09
-1.10439e-09
1.79449e-09
-2.08305e-09
1.97736e-09
-3.12808e-09
2.11928e-09
-4.22514e-09
2.22763e-09
-5.36184e-09
2.30884e-09
-6.52776e-09
2.36771e-09
-7.71415e-09
2.40807e-09
-8.91358e-09
2.43301e-09
-1.01198e-08
2.44501e-09
-1.13273e-08
2.44606e-09
-1.25316e-08
2.43782e-09
-1.37287e-08
2.42162e-09
-1.49152e-08
2.39859e-09
-1.6088e-08
2.36964e-09
-1.72447e-08
2.33555e-09
-1.83828e-08
2.29698e-09
-1.95003e-08
2.25446e-09
-2.05956e-08
2.20849e-09
-2.1667e-08
2.15945e-09
-2.27132e-08
2.10771e-09
-2.37328e-08
2.05356e-09
-2.47249e-08
1.99729e-09
-2.56883e-08
1.93911e-09
-2.66224e-08
1.87926e-09
-2.75262e-08
1.81792e-09
-2.8399e-08
1.75526e-09
-2.92404e-08
1.69144e-09
-3.00497e-08
1.62662e-09
-3.08266e-08
1.56091e-09
-3.15705e-08
1.49446e-09
-3.22812e-08
1.42737e-09
-3.29584e-08
1.35976e-09
-3.36018e-08
1.29173e-09
-3.42113e-08
1.22339e-09
-3.47868e-08
1.15484e-09
-3.53282e-08
1.08616e-09
-3.58354e-08
1.01744e-09
-3.63085e-08
9.48781e-10
-3.67475e-08
8.80259e-10
-3.71525e-08
8.11957e-10
-3.75237e-08
7.43953e-10
-3.78612e-08
6.76326e-10
-3.81653e-08
6.09149e-10
-3.84361e-08
5.42495e-10
-3.86741e-08
4.76436e-10
-3.88794e-08
4.11041e-10
-3.90525e-08
3.46378e-10
-3.91937e-08
2.82512e-10
-3.93035e-08
2.19508e-10
-3.93823e-08
1.57425e-10
-3.94306e-08
9.63232e-11
-3.94489e-08
3.62569e-11
-3.94377e-08
-2.27194e-11
-3.93977e-08
-8.05553e-11
-3.93293e-08
-1.37203e-10
-3.92331e-08
-1.92616e-10
-3.91099e-08
-2.4675e-10
-3.89603e-08
-2.99562e-10
-3.87849e-08
-3.5101e-10
-3.85844e-08
-4.01054e-10
-3.83596e-08
-4.49659e-10
-3.81112e-08
-4.96791e-10
-3.78399e-08
-5.42419e-10
-3.75465e-08
-5.86517e-10
-3.72317e-08
-6.29059e-10
-3.68963e-08
-6.70023e-10
-3.65412e-08
-7.09392e-10
-3.6167e-08
-7.47148e-10
-3.57747e-08
-7.83278e-10
-3.5365e-08
-8.17773e-10
-3.49387e-08
-8.50625e-10
-3.44967e-08
-8.81828e-10
-3.40397e-08
-9.11382e-10
-3.35686e-08
-9.39287e-10
-3.30842e-08
-9.65545e-10
-3.25873e-08
-9.90164e-10
-3.20787e-08
-1.01315e-09
-3.15593e-08
-1.03452e-09
-3.10297e-08
-1.05428e-09
-3.04908e-08
-1.07245e-09
-2.99434e-08
-1.08905e-09
-2.93883e-08
-1.10409e-09
-2.88261e-08
-1.11761e-09
-2.82577e-08
-1.12961e-09
-2.76838e-08
-1.14014e-09
-2.7105e-08
-1.14922e-09
-2.65222e-08
-1.15688e-09
-2.5936e-08
-1.16314e-09
-2.5347e-08
-1.16805e-09
-2.4756e-08
-1.17163e-09
-2.41636e-08
-1.17392e-09
-2.35703e-08
-1.17496e-09
-2.29769e-08
-1.17478e-09
-2.23839e-08
-1.17342e-09
-2.17918e-08
-1.17092e-09
-2.12013e-08
-1.16731e-09
-2.06128e-08
-1.16264e-09
-2.00269e-08
-1.15695e-09
-1.9444e-08
-1.15027e-09
-1.88647e-08
-1.14264e-09
-1.82894e-08
-1.1341e-09
-1.77186e-08
-1.12469e-09
-1.71526e-08
-1.11444e-09
-1.65919e-08
-1.1034e-09
-1.60368e-08
-1.0916e-09
-1.54878e-08
-1.07907e-09
-1.49452e-08
-1.06586e-09
-1.44093e-08
-1.05198e-09
-1.38805e-08
-1.03749e-09
-1.3359e-08
-1.0224e-09
-1.28451e-08
-1.00674e-09
-1.23392e-08
-9.90557e-10
-1.18415e-08
-9.73863e-10
-1.13522e-08
-9.56689e-10
-1.08716e-08
-9.39058e-10
-1.03999e-08
-9.20995e-10
-9.9374e-09
-9.0252e-10
-9.48422e-09
-8.83655e-10
-9.04058e-09
-8.64418e-10
-8.60669e-09
-8.44827e-10
-8.18272e-09
-8.249e-10
-7.76885e-09
-8.04651e-10
-7.36525e-09
-7.84095e-10
-6.97208e-09
-7.63245e-10
-6.5895e-09
-7.42114e-10
-6.21765e-09
-7.20714e-10
-5.8567e-09
-6.99055e-10
-5.50676e-09
-6.7715e-10
-5.16798e-09
-6.55009e-10
-4.84048e-09
-6.32643e-10
-4.52439e-09
-6.10061e-10
-4.21983e-09
-5.87276e-10
-3.9269e-09
-5.643e-10
-3.64571e-09
-5.41145e-10
-3.37636e-09
-5.17824e-10
-3.11893e-09
-4.94352e-10
-2.87352e-09
-4.70747e-10
-2.64018e-09
-4.47026e-10
-2.41899e-09
-4.2321e-10
-2.20999e-09
-3.9932e-10
-2.01322e-09
-3.75382e-10
-1.82871e-09
-3.51424e-10
-1.65645e-09
-3.27476e-10
-1.49645e-09
-3.03572e-10
-1.34868e-09
-2.7975e-10
-1.21308e-09
-2.5605e-10
-1.08959e-09
-2.32517e-10
-9.78107e-10
-2.09199e-10
-8.78511e-10
-1.86148e-10
-7.90651e-10
-1.63422e-10
-7.14345e-10
-1.41082e-10
-6.49378e-10
-1.19192e-10
-5.95501e-10
-9.78222e-11
-5.52426e-10
-7.70469e-11
-5.19826e-10
-5.69444e-11
-4.97332e-10
-3.75977e-11
-4.8453e-10
-1.90943e-11
-4.80961e-10
-1.5257e-12
-4.86117e-10
1.50138e-11
-4.9944e-10
3.0424e-11
-5.20317e-10
4.4599e-11
-5.48082e-10
5.74296e-11
-5.82013e-10
6.88026e-11
-6.21326e-10
7.86012e-11
-6.6518e-10
8.67044e-11
-7.1267e-10
9.29879e-11
-7.62828e-10
9.73236e-11
-8.14622e-10
9.95801e-11
-8.66955e-10
9.9623e-11
-9.18662e-10
9.73149e-11
-9.68513e-10
9.25163e-11
-1.01521e-09
8.50864e-11
-1.0574e-09
7.48841e-11
-1.09365e-09
6.1771e-11
-1.1225e-09
4.56148e-11
-1.14241e-09
2.62956e-11
-1.15184e-09
3.71715e-12
-1.14921e-09
-2.21738e-11
-1.13298e-09
-5.13719e-11
-1.10168e-09
-8.37782e-11
-1.05396e-09
-1.1913e-10
-9.88761e-10
-1.56901e-10
-9.05403e-10
-1.96141e-10
-8.03878e-10
-2.3521e-10
-6.85173e-10
-2.71354e-10
-5.51753e-10
-3.00024e-10
-4.0818e-10
-3.13836e-10
-2.6191e-10
-3.01121e-10
-1.24434e-10
-2.44067e-10
-1.95645e-11
-1.18632e-10
6.32615e-11
9.18808e-10
-1.20309e-12
-2.77505e-09
1.25949e-09
-1.76998e-13
-2.12297e-09
1.28249e-09
6.82281e-15
-1.30766e-09
1.1124e-09
2.97095e-14
-4.94544e-10
7.89263e-10
3.03382e-14
2.58703e-10
3.31122e-10
2.46591e-14
9.2218e-10
-2.4923e-10
1.68919e-14
1.48787e-09
-9.38913e-10
9.99651e-15
1.95984e-09
-1.72431e-09
4.97364e-15
2.3475e-09
-2.5918e-09
1.79193e-15
2.66195e-09
-3.52839e-09
-4.24347e-17
2.91394e-09
-4.52226e-09
-1.0314e-15
3.11313e-09
-5.56267e-09
-1.44297e-15
3.26802e-09
-6.6398e-09
-1.42165e-15
3.38596e-09
-7.74504e-09
-1.1339e-15
3.47293e-09
-8.87085e-09
-7.64787e-16
3.53387e-09
-1.00107e-08
-4.42932e-16
3.57279e-09
-1.11587e-08
-2.13532e-16
3.59303e-09
-1.231e-08
-6.8348e-17
3.59733e-09
-1.34602e-08
1.46306e-17
3.58795e-09
-1.46053e-08
5.2737e-17
3.56679e-09
-1.57422e-08
5.81142e-17
3.53542e-09
-1.68677e-08
4.32848e-17
3.49516e-09
-1.79793e-08
2.18148e-17
3.44714e-09
-1.90747e-08
5.71182e-18
3.3923e-09
-2.01517e-08
1.49449e-18
3.33146e-09
-2.12085e-08
9.27128e-18
3.26531e-09
-2.22436e-08
2.4624e-17
3.19446e-09
-2.32553e-08
4.05868e-17
3.11944e-09
-2.42424e-08
5.07491e-17
3.04069e-09
-2.52038e-08
5.12622e-17
2.95864e-09
-2.61383e-08
4.22885e-17
2.87363e-09
-2.70451e-08
2.76636e-17
2.786e-09
-2.79232e-08
1.36621e-17
2.69603e-09
-2.87719e-08
6.58612e-18
2.60399e-09
-2.95906e-08
1.12873e-17
2.51012e-09
-3.03787e-08
2.91616e-17
2.41465e-09
-3.11355e-08
5.77018e-17
2.31777e-09
-3.18608e-08
8.96032e-17
2.2197e-09
-3.2554e-08
1.13725e-16
2.12059e-09
-3.32149e-08
1.18386e-16
2.02063e-09
-3.38432e-08
9.53865e-17
1.91998e-09
-3.44386e-08
4.41026e-17
1.8188e-09
-3.5001e-08
-2.66155e-17
1.71722e-09
-3.55302e-08
-1.00668e-16
1.6154e-09
-3.60263e-08
-1.59432e-16
1.51347e-09
-3.64891e-08
-1.87758e-16
1.41156e-09
-3.69186e-08
-1.78394e-16
1.30981e-09
-3.7315e-08
-1.33089e-16
1.20833e-09
-3.76783e-08
-6.15593e-17
1.10725e-09
-3.80087e-08
2.2303e-17
1.00669e-09
-3.83063e-08
1.03875e-16
9.06757e-10
-3.85714e-08
1.70878e-16
8.07563e-10
-3.88042e-08
2.15181e-16
7.09217e-10
-3.9005e-08
2.33218e-16
6.11824e-10
-3.91741e-08
2.26048e-16
5.15486e-10
-3.93119e-08
1.9813e-16
4.20302e-10
-3.94188e-08
1.5632e-16
3.26369e-10
-3.94951e-08
1.08018e-16
2.33777e-10
-3.95414e-08
6.01363e-17
1.42617e-10
-3.95582e-08
1.79739e-17
5.2972e-11
-3.95458e-08
-1.50269e-17
-3.50756e-11
-3.95049e-08
-3.76059e-17
-1.21448e-10
-3.94361e-08
-4.97764e-17
-2.06069e-10
-3.93398e-08
-5.28668e-17
-2.88869e-10
-3.92168e-08
-4.86252e-17
-3.69779e-10
-3.90677e-08
-3.91117e-17
-4.48733e-10
-3.8893e-08
-2.65895e-17
-5.25671e-10
-3.86935e-08
-1.29425e-17
-6.00533e-10
-3.847e-08
3.52255e-19
-6.73266e-10
-3.82229e-08
1.20749e-17
-7.43819e-10
-3.79532e-08
2.16969e-17
-8.12148e-10
-3.76615e-08
2.92318e-17
-8.78209e-10
-3.73486e-08
3.48694e-17
-9.41967e-10
-3.70153e-08
3.9084e-17
-1.00339e-09
-3.66622e-08
4.24989e-17
-1.06244e-09
-3.62903e-08
4.55616e-17
-1.11911e-09
-3.59002e-08
4.86513e-17
-1.17336e-09
-3.54928e-08
5.19037e-17
-1.22519e-09
-3.50689e-08
5.54678e-17
-1.27459e-09
-3.46292e-08
5.91945e-17
-1.32153e-09
-3.41745e-08
6.30974e-17
-1.36603e-09
-3.37057e-08
6.70139e-17
-1.40808e-09
-3.32236e-08
7.08898e-17
-1.44768e-09
-3.27289e-08
7.44675e-17
-1.48485e-09
-3.22225e-08
7.75031e-17
-1.5196e-09
-3.17051e-08
7.95358e-17
-1.55194e-09
-3.11775e-08
8.05792e-17
-1.58189e-09
-3.06405e-08
8.02944e-17
-1.60948e-09
-3.00948e-08
7.88035e-17
-1.63473e-09
-2.95412e-08
7.61335e-17
-1.65766e-09
-2.89805e-08
7.26504e-17
-1.67832e-09
-2.84134e-08
6.872e-17
-1.69674e-09
-2.78406e-08
6.46948e-17
-1.71296e-09
-2.72628e-08
6.11575e-17
-1.72702e-09
-2.66807e-08
5.83249e-17
-1.73895e-09
-2.60951e-08
5.66037e-17
-1.74881e-09
-2.55065e-08
5.60615e-17
-1.75664e-09
-2.49156e-08
5.67255e-17
-1.7625e-09
-2.43231e-08
5.84873e-17
-1.76643e-09
-2.37296e-08
6.11435e-17
-1.76849e-09
-2.31357e-08
6.45045e-17
-1.76872e-09
-2.25419e-08
6.82585e-17
-1.76719e-09
-2.19489e-08
7.21886e-17
-1.76395e-09
-2.13572e-08
7.61053e-17
-1.75905e-09
-2.07673e-08
7.96424e-17
-1.75256e-09
-2.01797e-08
8.28137e-17
-1.74452e-09
-1.9595e-08
8.5497e-17
-1.735e-09
-1.90136e-08
8.77873e-17
-1.72406e-09
-1.84359e-08
8.94271e-17
-1.71174e-09
-1.78625e-08
9.05926e-17
-1.6981e-09
-1.72938e-08
9.13243e-17
-1.68321e-09