/*--------------------------------*- C++ -*----------------------------------*\
  =========                 |
  \\      /  F ield         | OpenFOAM: The Open Source CFD Toolbox
   \\    /   O peration     | Website:  https://openfoam.org
    \\  /    A nd           | Version:  8
     \\/     M anipulation  |
\*---------------------------------------------------------------------------*/
FoamFile
{
    version     2.0;
    format      ascii;
    class       volScalarField;
    location    "4200";
    object      T;
}
// * * * * * * * * * * * * * * * * * * * * * * * * * * * * * * * * * * * * * //

dimensions      [0 0 0 1 0 0 0];

internalField   nonuniform List<scalar> 
46000
(
309.8
308.627
307.831
307.32
306.954
306.665
306.423
306.215
306.032
305.868
305.718
305.581
305.454
305.336
305.226
305.123
305.025
304.934
304.847
304.764
304.686
304.612
304.542
304.474
304.411
304.35
304.292
304.236
304.183
304.133
304.085
304.039
303.995
303.954
303.914
303.876
303.84
303.806
303.773
303.742
303.712
303.684
303.658
303.633
303.609
303.586
303.565
303.545
303.526
303.508
303.492
303.476
303.462
303.449
303.436
303.425
303.415
303.405
303.397
303.389
303.383
303.377
303.372
303.368
303.364
303.362
303.36
303.359
303.359
303.36
303.362
303.364
303.367
303.371
303.375
303.381
303.387
303.394
303.401
303.41
303.418
303.428
303.438
303.449
303.461
303.474
303.487
303.5
303.515
303.53
303.545
303.561
303.578
303.596
303.614
303.633
303.652
303.672
303.692
303.713
303.735
303.757
303.78
303.803
303.827
303.851
303.876
303.901
303.927
303.953
303.98
304.008
304.036
304.064
304.093
304.122
304.152
304.182
304.213
304.245
304.276
304.309
304.341
304.374
304.408
304.442
304.477
304.512
304.548
304.584
304.62
304.657
304.695
304.733
304.772
304.811
304.85
304.891
304.931
304.973
305.014
305.057
305.1
305.143
305.187
305.232
305.278
305.324
305.37
305.418
305.465
305.514
305.563
305.613
305.664
305.715
305.767
305.82
305.874
305.928
305.983
306.039
306.095
306.153
306.211
306.27
306.33
306.391
306.453
306.515
306.579
306.644
306.71
306.777
306.845
306.915
306.987
307.06
307.135
307.212
307.291
307.373
307.458
307.546
307.638
307.735
307.836
307.943
308.058
308.181
308.315
308.463
308.628
308.817
309.038
309.306
309.648
310.107
310.731
311.344
309.799
308.627
307.831
307.32
306.954
306.665
306.423
306.215
306.032
305.868
305.718
305.581
305.454
305.336
305.226
305.123
305.025
304.934
304.847
304.764
304.686
304.612
304.542
304.474
304.411
304.35
304.292
304.236
304.183
304.133
304.085
304.039
303.995
303.954
303.914
303.876
303.84
303.806
303.773
303.742
303.712
303.684
303.658
303.633
303.609
303.586
303.565
303.545
303.526
303.508
303.492
303.476
303.462
303.449
303.436
303.425
303.415
303.405
303.397
303.389
303.383
303.377
303.372
303.368
303.364
303.362
303.36
303.359
303.359
303.36
303.362
303.364
303.367
303.371
303.375
303.381
303.387
303.394
303.401
303.41
303.418
303.428
303.438
303.449
303.461
303.474
303.487
303.5
303.515
303.53
303.545
303.561
303.578
303.596
303.614
303.633
303.652
303.672
303.692
303.713
303.735
303.757
303.78
303.803
303.827
303.851
303.876
303.901
303.927
303.953
303.98
304.008
304.036
304.064
304.093
304.122
304.152
304.182
304.213
304.245
304.276
304.309
304.341
304.374
304.408
304.442
304.477
304.512
304.548
304.584
304.62
304.657
304.695
304.733
304.772
304.811
304.85
304.891
304.931
304.973
305.014
305.057
305.1
305.143
305.187
305.232
305.278
305.324
305.37
305.418
305.465
305.514
305.563
305.613
305.664
305.715
305.767
305.82
305.874
305.928
305.983
306.039
306.095
306.153
306.211
306.27
306.33
306.391
306.453
306.515
306.579
306.644
306.71
306.777
306.845
306.915
306.987
307.06
307.135
307.212
307.291
307.373
307.458
307.546
307.638
307.735
307.836
307.943
308.058
308.181
308.315
308.463
308.628
308.817
309.038
309.306
309.648
310.107
310.731
311.344
306.345
305.951
305.623
305.363
305.152
304.976
304.823
304.689
304.567
304.457
304.354
304.259
304.171
304.088
304.009
303.935
303.865
303.798
303.735
303.674
303.617
303.562
303.509
303.459
303.411
303.365
303.321
303.279
303.239
303.201
303.164
303.129
303.095
303.062
303.031
303.002
302.973
302.946
302.92
302.895
302.872
302.849
302.827
302.806
302.787
302.768
302.75
302.733
302.716
302.701
302.686
302.673
302.659
302.647
302.635
302.624
302.614
302.604
302.595
302.587
302.579
302.572
302.566
302.56
302.554
302.549
302.545
302.541
302.538
302.536
302.534
302.532
302.531
302.531
302.531
302.531
302.532
302.534
302.536
302.539
302.542
302.545
302.549
302.554
302.559
302.565
302.571
302.577
302.584
302.591
302.599
302.608
302.616
302.626
302.635
302.645
302.656
302.667
302.679
302.69
302.703
302.716
302.729
302.743
302.757
302.771
302.786
302.802
302.818
302.834
302.851
302.868
302.886
302.904
302.922
302.941
302.961
302.981
303.001
303.022
303.043
303.065
303.087
303.109
303.133
303.156
303.18
303.205
303.23
303.255
303.281
303.308
303.335
303.363
303.391
303.419
303.448
303.478
303.508
303.539
303.571
303.603
303.635
303.668
303.702
303.736
303.771
303.806
303.843
303.879
303.916
303.954
303.993
304.032
304.072
304.112
304.153
304.195
304.237
304.28
304.323
304.367
304.412
304.457
304.504
304.55
304.598
304.646
304.694
304.744
304.794
304.845
304.896
304.949
305.002
305.057
305.112
305.169
305.227
305.286
305.347
305.41
305.475
305.542
305.612
305.685
305.763
305.844
305.932
306.026
306.129
306.243
306.371
306.518
306.691
306.9
307.161
307.502
307.961
308.526
306.345
305.951
305.623
305.363
305.152
304.976
304.823
304.689
304.567
304.457
304.354
304.259
304.171
304.088
304.009
303.935
303.865
303.798
303.735
303.674
303.617
303.562
303.509
303.459
303.411
303.365
303.321
303.279
303.239
303.201
303.164
303.129
303.095
303.062
303.031
303.002
302.973
302.946
302.92
302.895
302.872
302.849
302.827
302.806
302.787
302.768
302.75
302.733
302.716
302.701
302.686
302.673
302.659
302.647
302.635
302.624
302.614
302.604
302.595
302.587
302.579
302.572
302.566
302.56
302.554
302.549
302.545
302.541
302.538
302.536
302.534
302.532
302.531
302.531
302.531
302.531
302.532
302.534
302.536
302.539
302.542
302.545
302.549
302.554
302.559
302.565
302.571
302.577
302.584
302.591
302.599
302.608
302.616
302.626
302.635
302.645
302.656
302.667
302.679
302.69
302.703
302.716
302.729
302.743
302.757
302.771
302.786
302.802
302.818
302.834
302.851
302.868
302.886
302.904
302.922
302.941
302.961
302.981
303.001
303.022
303.043
303.065
303.087
303.109
303.133
303.156
303.18
303.205
303.23
303.255
303.281
303.308
303.335
303.363
303.391
303.419
303.448
303.478
303.508
303.539
303.571
303.603
303.635
303.668
303.702
303.736
303.771
303.806
303.843
303.879
303.916
303.954
303.993
304.032
304.072
304.112
304.153
304.195
304.237
304.28
304.323
304.367
304.412
304.458
304.504
304.55
304.598
304.646
304.694
304.744
304.794
304.845
304.896
304.949
305.002
305.057
305.112
305.169
305.227
305.286
305.347
305.41
305.475
305.542
305.612
305.685
305.763
305.844
305.932
306.026
306.129
306.243
306.371
306.518
306.691
306.9
307.161
307.502
307.961
308.526
304.85
304.769
304.63
304.486
304.35
304.226
304.112
304.008
303.912
303.822
303.738
303.659
303.585
303.514
303.447
303.384
303.323
303.266
303.211
303.158
303.108
303.059
303.013
302.969
302.927
302.886
302.847
302.81
302.774
302.739
302.706
302.675
302.644
302.615
302.587
302.56
302.534
302.51
302.486
302.463
302.441
302.42
302.4
302.381
302.363
302.345
302.328
302.312
302.297
302.282
302.268
302.255
302.242
302.23
302.219
302.208
302.197
302.188
302.178
302.17
302.161
302.154
302.147
302.14
302.134
302.128
302.123
302.118
302.114
302.11
302.107
302.104
302.102
302.1
302.098
302.097
302.097
302.097
302.097
302.098
302.099
302.1
302.102
302.105
302.108
302.111
302.115
302.119
302.123
302.128
302.134
302.139
302.146
302.152
302.159
302.167
302.175
302.183
302.192
302.201
302.21
302.22
302.23
302.241
302.252
302.264
302.276
302.289
302.301
302.315
302.328
302.343
302.357
302.372
302.388
302.404
302.42
302.437
302.454
302.472
302.49
302.508
302.528
302.547
302.567
302.588
302.609
302.63
302.652
302.675
302.698
302.721
302.746
302.77
302.795
302.821
302.847
302.874
302.901
302.929
302.958
302.987
303.016
303.046
303.077
303.108
303.14
303.173
303.206
303.24
303.274
303.309
303.344
303.38
303.417
303.454
303.492
303.531
303.57
303.609
303.649
303.69
303.732
303.773
303.816
303.859
303.903
303.947
303.992
304.037
304.083
304.129
304.177
304.225
304.273
304.323
304.373
304.424
304.477
304.53
304.585
304.641
304.699
304.758
304.82
304.885
304.952
305.024
305.099
305.18
305.268
305.363
305.469
305.587
305.722
305.878
306.06
306.273
306.523
306.79
304.85
304.769
304.63
304.486
304.35
304.226
304.112
304.008
303.912
303.822
303.738
303.659
303.585
303.514
303.447
303.384
303.323
303.266
303.211
303.158
303.108
303.059
303.013
302.969
302.927
302.886
302.847
302.81
302.774
302.739
302.706
302.675
302.644
302.615
302.587
302.56
302.534
302.51
302.486
302.463
302.441
302.42
302.4
302.381
302.363
302.345
302.328
302.312
302.297
302.282
302.268
302.255
302.242
302.23
302.219
302.208
302.197
302.188
302.178
302.17
302.161
302.154
302.147
302.14
302.134
302.128
302.123
302.118
302.114
302.11
302.107
302.104
302.102
302.1
302.098
302.097
302.097
302.097
302.097
302.098
302.099
302.1
302.102
302.105
302.108
302.111
302.115
302.119
302.123
302.128
302.134
302.139
302.146
302.152
302.159
302.167
302.175
302.183
302.192
302.201
302.21
302.22
302.23
302.241
302.252
302.264
302.276
302.289
302.301
302.315
302.328
302.343
302.357
302.372
302.388
302.404
302.42
302.437
302.454
302.472
302.49
302.508
302.528
302.547
302.567
302.588
302.609
302.63
302.652
302.675
302.698
302.721
302.746
302.77
302.795
302.821
302.847
302.874
302.901
302.929
302.958
302.987
303.016
303.046
303.077
303.108
303.14
303.173
303.206
303.24
303.274
303.309
303.344
303.38
303.417
303.454
303.492
303.531
303.57
303.609
303.649
303.69
303.732
303.773
303.816
303.859
303.903
303.947
303.992
304.037
304.083
304.129
304.177
304.225
304.273
304.323
304.373
304.424
304.477
304.53
304.585
304.641
304.699
304.758
304.82
304.885
304.952
305.024
305.099
305.18
305.268
305.363
305.469
305.587
305.722
305.878
306.06
306.273
306.523
306.79
304.071
304.065
304.004
303.921
303.83
303.74
303.653
303.57
303.49
303.415
303.343
303.275
303.209
303.147
303.088
303.031
302.976
302.924
302.874
302.826
302.78
302.736
302.693
302.653
302.614
302.576
302.54
302.505
302.472
302.439
302.409
302.379
302.35
302.323
302.297
302.271
302.247
302.224
302.201
302.179
302.159
302.139
302.12
302.101
302.083
302.067
302.05
302.035
302.02
302.006
301.992
301.979
301.966
301.954
301.943
301.932
301.922
301.912
301.903
301.894
301.885
301.877
301.87
301.863
301.856
301.85
301.845
301.84
301.835
301.83
301.827
301.823
301.82
301.817
301.815
301.813
301.812
301.811
301.81
301.81
301.81
301.811
301.812
301.813
301.815
301.817
301.819
301.822
301.826
301.83
301.834
301.838
301.843
301.848
301.854
301.86
301.867
301.874
301.881
301.889
301.897
301.905
301.914
301.924
301.933
301.944
301.954
301.965
301.977
301.988
302.001
302.013
302.026
302.04
302.054
302.068
302.083
302.099
302.114
302.131
302.147
302.164
302.182
302.2
302.219
302.238
302.257
302.277
302.298
302.319
302.341
302.363
302.385
302.409
302.432
302.457
302.481
302.507
302.533
302.559
302.586
302.614
302.642
302.67
302.7
302.73
302.76
302.791
302.823
302.855
302.888
302.921
302.955
302.99
303.025
303.06
303.097
303.134
303.171
303.209
303.247
303.286
303.326
303.366
303.406
303.448
303.489
303.531
303.574
303.617
303.661
303.705
303.75
303.795
303.841
303.888
303.935
303.984
304.033
304.083
304.133
304.186
304.239
304.294
304.351
304.41
304.471
304.535
304.602
304.674
304.75
304.832
304.92
305.016
305.122
305.237
305.362
305.494
305.626
305.738
304.071
304.065
304.004
303.921
303.83
303.74
303.653
303.57
303.49
303.415
303.343
303.275
303.209
303.147
303.088
303.031
302.976
302.924
302.874
302.826
302.78
302.736
302.693
302.653
302.614
302.576
302.54
302.505
302.472
302.439
302.409
302.379
302.35
302.323
302.297
302.271
302.247
302.224
302.201
302.179
302.159
302.139
302.12
302.101
302.083
302.067
302.05
302.035
302.02
302.006
301.992
301.979
301.966
301.954
301.943
301.932
301.922
301.912
301.903
301.894
301.885
301.877
301.87
301.863
301.856
301.85
301.845
301.84
301.835
301.83
301.827
301.823
301.82
301.817
301.815
301.813
301.812
301.811
301.81
301.81
301.81
301.811
301.812
301.813
301.815
301.817
301.819
301.822
301.826
301.83
301.834
301.838
301.843
301.848
301.854
301.86
301.867
301.874
301.881
301.889
301.897
301.905
301.914
301.924
301.933
301.944
301.954
301.965
301.977
301.988
302.001
302.013
302.026
302.04
302.054
302.068
302.083
302.099
302.114
302.131
302.147
302.164
302.182
302.2
302.219
302.238
302.257
302.277
302.298
302.319
302.341
302.363
302.385
302.409
302.432
302.457
302.481
302.507
302.533
302.559
302.586
302.614
302.642
302.671
302.7
302.73
302.76
302.791
302.823
302.855
302.888
302.921
302.955
302.99
303.025
303.06
303.097
303.134
303.171
303.209
303.247
303.286
303.326
303.366
303.406
303.448
303.489
303.531
303.574
303.617
303.661
303.705
303.75
303.795
303.841
303.888
303.935
303.984
304.033
304.083
304.133
304.186
304.239
304.294
304.351
304.41
304.471
304.535
304.602
304.674
304.75
304.832
304.92
305.016
305.122
305.237
305.362
305.494
305.626
305.738
303.573
303.582
303.553
303.502
303.44
303.374
303.306
303.238
303.172
303.108
303.046
302.985
302.928
302.872
302.818
302.766
302.717
302.669
302.623
302.578
302.535
302.494
302.455
302.416
302.38
302.344
302.31
302.277
302.246
302.215
302.186
302.158
302.13
302.104
302.079
302.055
302.032
302.009
301.987
301.967
301.947
301.927
301.909
301.891
301.874
301.857
301.841
301.826
301.812
301.798
301.784
301.771
301.759
301.747
301.736
301.725
301.714
301.705
301.695
301.686
301.678
301.67
301.662
301.655
301.648
301.642
301.636
301.63
301.625
301.621
301.616
301.612
301.609
301.606
301.603
301.601
301.599
301.597
301.596
301.595
301.595
301.595
301.595
301.596
301.597
301.598
301.6
301.602
301.605
301.608
301.611
301.615
301.619
301.624
301.629
301.634
301.64
301.646
301.652
301.659
301.666
301.674
301.682
301.69
301.699
301.709
301.718
301.728
301.739
301.75
301.761
301.773
301.785
301.798
301.811
301.824
301.838
301.852
301.867
301.883
301.898
301.915
301.931
301.949
301.966
301.984
302.003
302.022
302.042
302.062
302.083
302.104
302.125
302.148
302.17
302.194
302.218
302.242
302.267
302.293
302.319
302.345
302.372
302.4
302.429
302.458
302.487
302.517
302.548
302.579
302.611
302.643
302.676
302.709
302.743
302.778
302.813
302.849
302.885
302.922
302.959
302.997
303.035
303.074
303.113
303.153
303.193
303.234
303.275
303.316
303.358
303.401
303.444
303.487
303.531
303.576
303.621
303.667
303.713
303.76
303.808
303.857
303.907
303.959
304.011
304.065
304.121
304.179
304.24
304.303
304.369
304.439
304.513
304.591
304.674
304.759
304.845
304.928
304.998
305.047
303.573
303.582
303.553
303.502
303.44
303.374
303.306
303.238
303.172
303.108
303.046
302.985
302.928
302.872
302.818
302.766
302.717
302.669
302.623
302.578
302.535
302.494
302.455
302.416
302.38
302.344
302.31
302.277
302.246
302.215
302.186
302.158
302.13
302.104
302.079
302.055
302.032
302.009
301.987
301.967
301.947
301.927
301.909
301.891
301.874
301.857
301.841
301.826
301.812
301.798
301.784
301.771
301.759
301.747
301.736
301.725
301.714
301.705
301.695
301.686
301.678
301.67
301.662
301.655
301.648
301.642
301.636
301.63
301.625
301.621
301.616
301.612
301.609
301.606
301.603
301.601
301.599
301.597
301.596
301.595
301.595
301.595
301.595
301.596
301.597
301.598
301.6
301.602
301.605
301.608
301.611
301.615
301.619
301.624
301.629
301.634
301.64
301.646
301.652
301.659
301.666
301.674
301.682
301.69
301.699
301.709
301.718
301.728
301.739
301.75
301.761
301.773
301.785
301.798
301.811
301.824
301.838
301.852
301.867
301.883
301.898
301.915
301.931
301.949
301.966
301.984
302.003
302.022
302.042
302.062
302.083
302.104
302.125
302.148
302.17
302.194
302.218
302.242
302.267
302.293
302.319
302.345
302.372
302.4
302.429
302.458
302.487
302.517
302.548
302.579
302.611
302.643
302.676
302.709
302.743
302.778
302.813
302.849
302.885
302.922
302.959
302.997
303.035
303.074
303.113
303.153
303.193
303.234
303.275
303.316
303.358
303.401
303.444
303.487
303.531
303.576
303.621
303.667
303.713
303.76
303.808
303.857
303.907
303.959
304.011
304.065
304.121
304.179
304.24
304.303
304.369
304.439
304.513
304.591
304.674
304.759
304.845
304.928
304.998
305.047
303.21
303.221
303.205
303.171
303.127
303.077
303.023
302.968
302.912
302.857
302.802
302.749
302.698
302.647
302.598
302.551
302.505
302.461
302.418
302.377
302.337
302.298
302.261
302.225
302.19
302.156
302.124
302.093
302.063
302.034
302.006
301.978
301.952
301.927
301.903
301.88
301.857
301.835
301.814
301.794
301.775
301.756
301.738
301.721
301.704
301.688
301.672
301.657
301.643
301.629
301.616
301.603
301.591
301.579
301.568
301.557
301.547
301.537
301.527
301.518
301.51
301.502
301.494
301.487
301.48
301.473
301.467
301.461
301.456
301.451
301.446
301.442
301.438
301.435
301.432
301.429
301.427
301.425
301.423
301.422
301.421
301.42
301.42
301.421
301.421
301.422
301.424
301.425
301.427
301.43
301.433
301.436
301.439
301.443
301.448
301.452
301.458
301.463
301.469
301.475
301.482
301.489
301.496
301.504
301.512
301.521
301.53
301.539
301.549
301.559
301.57
301.581
301.593
301.605
301.617
301.63
301.643
301.657
301.671
301.686
301.701
301.716
301.733
301.749
301.766
301.783
301.801
301.82
301.839
301.858
301.878
301.899
301.92
301.941
301.964
301.986
302.009
302.033
302.057
302.082
302.108
302.133
302.16
302.187
302.215
302.243
302.272
302.301
302.331
302.361
302.392
302.424
302.456
302.488
302.522
302.555
302.59
302.624
302.66
302.695
302.732
302.768
302.806
302.843
302.881
302.92
302.959
302.998
303.038
303.079
303.119
303.16
303.202
303.244
303.286
303.329
303.372
303.416
303.46
303.505
303.55
303.596
303.643
303.691
303.74
303.79
303.841
303.894
303.948
304.004
304.062
304.122
304.183
304.247
304.311
304.374
304.435
304.487
304.527
304.548
303.21
303.221
303.205
303.171
303.127
303.077
303.023
302.968
302.912
302.857
302.802
302.749
302.698
302.647
302.598
302.551
302.505
302.461
302.418
302.377
302.337
302.298
302.261
302.225
302.19
302.156
302.124
302.093
302.063
302.034
302.006
301.978
301.952
301.927
301.903
301.88
301.857
301.835
301.814
301.794
301.775
301.756
301.738
301.721
301.704
301.688
301.672
301.657
301.643
301.629
301.616
301.603
301.591
301.579
301.568
301.557
301.547
301.537
301.527
301.518
301.51
301.502
301.494
301.487
301.48
301.473
301.467
301.461
301.456
301.451
301.446
301.442
301.438
301.435
301.432
301.429
301.427
301.425
301.423
301.422
301.421
301.42
301.42
301.421
301.421
301.422
301.424
301.425
301.427
301.43
301.433
301.436
301.439
301.443
301.448
301.452
301.458
301.463
301.469
301.475
301.482
301.489
301.496
301.504
301.512
301.521
301.53
301.539
301.549
301.559
301.57
301.581
301.593
301.605
301.617
301.63
301.643
301.657
301.671
301.686
301.701
301.716
301.733
301.749
301.766
301.783
301.801
301.82
301.839
301.858
301.878
301.899
301.92
301.941
301.964
301.986
302.009
302.033
302.057
302.082
302.108
302.133
302.16
302.187
302.215
302.243
302.272
302.301
302.331
302.361
302.392
302.424
302.456
302.488
302.522
302.555
302.59
302.624
302.66
302.695
302.732
302.768
302.806
302.843
302.881
302.92
302.959
302.998
303.038
303.079
303.119
303.16
303.202
303.244
303.286
303.329
303.372
303.416
303.46
303.505
303.55
303.596
303.643
303.691
303.74
303.79
303.841
303.894
303.948
304.004
304.062
304.122
304.183
304.247
304.311
304.374
304.435
304.487
304.527
304.548
302.925
302.933
302.922
302.898
302.865
302.826
302.783
302.737
302.689
302.642
302.594
302.547
302.5
302.455
302.41
302.367
302.325
302.283
302.243
302.205
302.167
302.131
302.096
302.061
302.028
301.996
301.966
301.936
301.907
301.879
301.852
301.826
301.801
301.777
301.753
301.731
301.709
301.688
301.667
301.648
301.629
301.61
301.593
301.576
301.559
301.543
301.528
301.514
301.499
301.486
301.473
301.46
301.448
301.436
301.425
301.414
301.404
301.394
301.385
301.376
301.367
301.359
301.351
301.344
301.336
301.33
301.324
301.318
301.312
301.307
301.302
301.298
301.294
301.29
301.287
301.284
301.281
301.279
301.277
301.275
301.274
301.273
301.273
301.273
301.273
301.273
301.274
301.276
301.277
301.279
301.282
301.285
301.288
301.291
301.295
301.299
301.304
301.309
301.315
301.32
301.326
301.333
301.34
301.347
301.355
301.363
301.372
301.381
301.39
301.4
301.41
301.421
301.432
301.443
301.455
301.467
301.48
301.493
301.507
301.521
301.535
301.551
301.566
301.582
301.598
301.615
301.633
301.651
301.669
301.688
301.708
301.728
301.748
301.769
301.791
301.813
301.835
301.858
301.882
301.906
301.931
301.957
301.982
302.009
302.036
302.063
302.092
302.12
302.15
302.179
302.21
302.241
302.272
302.304
302.336
302.369
302.403
302.437
302.471
302.506
302.542
302.578
302.614
302.651
302.688
302.725
302.763
302.802
302.84
302.879
302.919
302.958
302.999
303.039
303.08
303.121
303.162
303.204
303.246
303.289
303.332
303.376
303.42
303.465
303.51
303.556
303.603
303.651
303.7
303.749
303.8
303.851
303.903
303.954
304.005
304.053
304.095
304.13
304.154
304.162
302.925
302.933
302.922
302.898
302.865
302.826
302.783
302.737
302.689
302.642
302.594
302.547
302.5
302.455
302.41
302.367
302.325
302.283
302.243
302.205
302.167
302.131
302.096
302.061
302.028
301.996
301.966
301.936
301.907
301.879
301.852
301.826
301.801
301.777
301.753
301.731
301.709
301.688
301.667
301.648
301.629
301.61
301.593
301.576
301.559
301.543
301.528
301.514
301.499
301.486
301.473
301.46
301.448
301.436
301.425
301.414
301.404
301.394
301.385
301.376
301.367
301.359
301.351
301.344
301.336
301.33
301.324
301.318
301.312
301.307
301.302
301.298
301.294
301.29
301.287
301.284
301.281
301.279
301.277
301.275
301.274
301.273
301.273
301.273
301.273
301.273
301.274
301.276
301.277
301.279
301.282
301.285
301.288
301.291
301.295
301.299
301.304
301.309
301.315
301.32
301.326
301.333
301.34
301.347
301.355
301.363
301.372
301.381
301.39
301.4
301.41
301.421
301.432
301.443
301.455
301.467
301.48
301.493
301.507
301.521
301.535
301.551
301.566
301.582
301.598
301.615
301.633
301.651
301.669
301.688
301.708
301.728
301.748
301.769
301.791
301.813
301.835
301.858
301.882
301.906
301.931
301.957
301.982
302.009
302.036
302.063
302.092
302.12
302.15
302.179
302.21
302.241
302.272
302.304
302.336
302.369
302.403
302.437
302.471
302.506
302.542
302.578
302.614
302.651
302.688
302.725
302.763
302.802
302.84
302.879
302.919
302.958
302.999
303.039
303.08
303.121
303.162
303.204
303.246
303.289
303.332
303.376
303.42
303.465
303.51
303.556
303.603
303.651
303.7
303.749
303.8
303.851
303.903
303.954
304.005
304.053
304.095
304.13
304.154
304.162
302.688
302.693
302.685
302.666
302.641
302.609
302.573
302.534
302.494
302.452
302.41
302.368
302.326
302.285
302.244
302.204
302.165
302.127
302.089
302.053
302.018
301.983
301.95
301.917
301.886
301.856
301.826
301.797
301.77
301.743
301.717
301.692
301.668
301.644
301.621
301.6
301.578
301.558
301.538
301.519
301.5
301.482
301.465
301.448
301.432
301.417
301.402
301.387
301.373
301.36
301.347
301.335
301.323
301.311
301.3
301.289
301.279
301.269
301.26
301.25
301.242
301.234
301.226
301.218
301.211
301.204
301.198
301.192
301.186
301.181
301.176
301.171
301.167
301.163
301.159
301.156
301.153
301.151
301.149
301.147
301.145
301.144
301.144
301.143
301.143
301.143
301.144
301.145
301.146
301.148
301.15
301.153
301.155
301.159
301.162
301.166
301.17
301.175
301.18
301.185
301.191
301.197
301.204
301.211
301.218
301.226
301.234
301.242
301.251
301.261
301.27
301.281
301.291
301.302
301.314
301.326
301.338
301.351
301.364
301.378
301.392
301.406
301.421
301.437
301.453
301.469
301.486
301.504
301.522
301.54
301.559
301.579
301.599
301.619
301.641
301.662
301.684
301.707
301.73
301.754
301.778
301.803
301.828
301.854
301.881
301.908
301.936
301.964
301.992
302.022
302.051
302.082
302.112
302.144
302.176
302.208
302.241
302.274
302.308
302.342
302.377
302.412
302.447
302.483
302.519
302.556
302.593
302.63
302.668
302.706
302.744
302.783
302.822
302.861
302.9
302.94
302.979
303.02
303.06
303.101
303.141
303.183
303.224
303.266
303.308
303.351
303.394
303.438
303.481
303.525
303.57
303.614
303.657
303.699
303.739
303.776
303.807
303.831
303.845
303.847
302.688
302.693
302.685
302.666
302.641
302.609
302.573
302.534
302.494
302.452
302.41
302.368
302.326
302.285
302.244
302.204
302.165
302.127
302.089
302.053
302.018
301.983
301.95
301.917
301.886
301.856
301.826
301.797
301.77
301.743
301.717
301.692
301.668
301.644
301.621
301.6
301.578
301.558
301.538
301.519
301.5
301.482
301.465
301.448
301.432
301.417
301.402
301.387
301.373
301.36
301.347
301.335
301.323
301.311
301.3
301.289
301.279
301.269
301.26
301.25
301.242
301.234
301.226
301.218
301.211
301.204
301.198
301.192
301.186
301.181
301.176
301.171
301.167
301.163
301.159
301.156
301.153
301.151
301.149
301.147
301.145
301.144
301.144
301.143
301.143
301.143
301.144
301.145
301.146
301.148
301.15
301.153
301.155
301.159
301.162
301.166
301.17
301.175
301.18
301.185
301.191
301.197
301.204
301.211
301.218
301.226
301.234
301.242
301.251
301.261
301.27
301.281
301.291
301.302
301.314
301.326
301.338
301.351
301.364
301.378
301.392
301.406
301.421
301.437
301.453
301.469
301.486
301.504
301.522
301.54
301.559
301.579
301.599
301.619
301.641
301.662
301.684
301.707
301.73
301.754
301.778
301.803
301.828
301.854
301.881
301.908
301.936
301.964
301.992
302.022
302.051
302.082
302.112
302.144
302.176
302.208
302.241
302.274
302.308
302.342
302.377
302.412
302.447
302.483
302.519
302.556
302.593
302.63
302.668
302.706
302.744
302.783
302.822
302.861
302.9
302.94
302.979
303.02
303.06
303.101
303.141
303.183
303.224
303.266
303.308
303.351
303.394
303.438
303.481
303.525
303.57
303.614
303.657
303.699
303.739
303.776
303.807
303.831
303.845
303.847
302.485
302.487
302.48
302.465
302.444
302.417
302.387
302.354
302.319
302.282
302.245
302.207
302.169
302.131
302.094
302.057
302.02
301.985
301.95
301.916
301.882
301.85
301.818
301.787
301.757
301.728
301.7
301.673
301.646
301.62
301.595
301.571
301.548
301.525
301.503
301.481
301.461
301.441
301.422
301.403
301.385
301.367
301.35
301.334
301.318
301.303
301.288
301.274
301.26
301.247
301.234
301.222
301.21
301.198
301.187
301.177
301.166
301.157
301.147
301.138
301.129
301.121
301.113
301.106
301.098
301.091
301.085
301.079
301.073
301.068
301.062
301.058
301.053
301.049
301.045
301.042
301.039
301.036
301.034
301.032
301.03
301.029
301.028
301.027
301.027
301.027
301.027
301.028
301.029
301.031
301.032
301.034
301.037
301.04
301.043
301.047
301.051
301.055
301.06
301.065
301.07
301.076
301.082
301.089
301.096
301.103
301.111
301.119
301.128
301.137
301.146
301.156
301.166
301.177
301.188
301.199
301.211
301.224
301.236
301.25
301.264
301.278
301.292
301.308
301.323
301.339
301.356
301.373
301.391
301.409
301.427
301.446
301.466
301.486
301.507
301.528
301.55
301.572
301.595
301.618
301.642
301.666
301.691
301.717
301.743
301.769
301.796
301.824
301.852
301.881
301.91
301.94
301.97
302.001
302.032
302.064
302.096
302.129
302.162
302.195
302.229
302.264
302.298
302.334
302.369
302.405
302.441
302.477
302.514
302.551
302.588
302.625
302.663
302.701
302.739
302.777
302.815
302.854
302.892
302.931
302.97
303.009
303.048
303.088
303.127
303.167
303.206
303.246
303.285
303.324
303.363
303.401
303.437
303.472
303.504
303.533
303.556
303.573
303.581
303.58
302.485
302.487
302.48
302.465
302.444
302.417
302.387
302.354
302.319
302.282
302.245
302.207
302.169
302.131
302.094
302.057
302.02
301.985
301.95
301.916
301.882
301.85
301.818
301.787
301.757
301.728
301.7
301.673
301.646
301.62
301.595
301.571
301.548
301.525
301.503
301.481
301.461
301.441
301.422
301.403
301.385
301.367
301.35
301.334
301.318
301.303
301.288
301.274
301.26
301.247
301.234
301.222
301.21
301.198
301.187
301.177
301.166
301.157
301.147
301.138
301.129
301.121
301.113
301.106
301.098
301.091
301.085
301.079
301.073
301.068
301.062
301.058
301.053
301.049
301.045
301.042
301.039
301.036
301.034
301.032
301.03
301.029
301.028
301.027
301.027
301.027
301.027
301.028
301.029
301.031
301.032
301.034
301.037
301.04
301.043
301.047
301.051
301.055
301.06
301.065
301.07
301.076
301.082
301.089
301.096
301.103
301.111
301.119
301.128
301.137
301.146
301.156
301.166
301.177
301.188
301.199
301.211
301.224
301.236
301.25
301.264
301.278
301.292
301.308
301.323
301.339
301.356
301.373
301.391
301.409
301.427
301.446
301.466
301.486
301.507
301.528
301.55
301.572
301.595
301.618
301.642
301.666
301.691
301.717
301.743
301.769
301.796
301.824
301.852
301.881
301.91
301.94
301.97
302.001
302.032
302.064
302.096
302.129
302.162
302.195
302.229
302.264
302.298
302.334
302.369
302.405
302.441
302.477
302.514
302.551
302.588
302.625
302.663
302.701
302.739
302.777
302.815
302.854
302.892
302.931
302.97
303.009
303.048
303.088
303.127
303.167
303.206
303.246
303.285
303.324
303.363
303.401
303.437
303.472
303.504
303.533
303.556
303.573
303.581
303.58
302.306
302.306
302.299
302.286
302.268
302.245
302.219
302.19
302.159
302.127
302.094
302.059
302.025
301.99
301.956
301.922
301.888
301.855
301.822
301.79
301.758
301.727
301.697
301.668
301.639
301.612
301.585
301.558
301.533
301.508
301.484
301.46
301.437
301.415
301.394
301.373
301.353
301.334
301.315
301.297
301.279
301.262
301.245
301.229
301.214
301.199
301.184
301.17
301.157
301.144
301.131
301.119
301.107
301.095
301.084
301.074
301.064
301.054
301.044
301.035
301.027
301.018
301.01
301.003
300.995
300.988
300.982
300.976
300.97
300.964
300.959
300.954
300.949
300.945
300.941
300.938
300.935
300.932
300.929
300.927
300.925
300.923
300.922
300.921
300.921
300.921
300.921
300.921
300.922
300.923
300.925
300.927
300.929
300.932
300.935
300.938
300.942
300.946
300.95
300.955
300.96
300.965
300.971
300.978
300.984
300.991
300.999
301.007
301.015
301.024
301.033
301.042
301.052
301.062
301.073
301.084
301.096