/*--------------------------------*- C++ -*----------------------------------*\
  =========                 |
  \\      /  F ield         | OpenFOAM: The Open Source CFD Toolbox
   \\    /   O peration     | Website:  https://openfoam.org
    \\  /    A nd           | Version:  8
     \\/     M anipulation  |
\*---------------------------------------------------------------------------*/
FoamFile
{
    version     2.0;
    format      ascii;
    class       volVectorField;
    location    "4200";
    object      U;
}
// * * * * * * * * * * * * * * * * * * * * * * * * * * * * * * * * * * * * * //

dimensions      [0 1 -1 0 0 0 0];

internalField   nonuniform List<vector> 
46000
(
(0.00209765 4.83794e-06 -0.00214126)
(0.0101724 4.9418e-05 -0.00599764)
(0.0185313 3.36097e-05 -0.00563443)
(0.0245195 1.62622e-05 -0.0035336)
(0.027398 7.73103e-06 -0.00133569)
(0.0275335 3.93052e-06 0.000563432)
(0.0253833 2.10401e-06 0.00209151)
(0.0214153 1.114e-06 0.0032793)
(0.016017 5.38134e-07 0.00418901)
(0.00950406 2.12581e-07 0.00488278)
(0.00213071 4.53443e-08 0.00540512)
(-0.00591819 -2.95542e-08 0.00578152)
(-0.0144438 -5.39749e-08 0.00604287)
(-0.0233421 -5.16623e-08 0.00622273)
(-0.0325033 -3.57238e-08 0.00633864)
(-0.0418467 -1.52203e-08 0.00640353)
(-0.0513048 3.73878e-09 0.00642738)
(-0.060822 1.80219e-08 0.00641794)
(-0.070352 2.69726e-08 0.00638132)
(-0.0798562 3.1348e-08 0.00632239)
(-0.0893016 3.2485e-08 0.00624501)
(-0.0986604 3.16885e-08 0.00615232)
(-0.107909 3.00214e-08 0.00604683)
(-0.117026 2.82427e-08 0.00593064)
(-0.125994 2.67943e-08 0.00580544)
(-0.134798 2.587e-08 0.00567265)
(-0.143424 2.54604e-08 0.00553345)
(-0.15186 2.54319e-08 0.00538882)
(-0.160096 2.5571e-08 0.00523961)
(-0.168122 2.56853e-08 0.00508652)
(-0.175931 2.55982e-08 0.00493017)
(-0.183514 2.52507e-08 0.00477108)
(-0.190866 2.46196e-08 0.00460972)
(-0.197981 2.37591e-08 0.00444649)
(-0.204854 2.27825e-08 0.00428175)
(-0.211481 2.18444e-08 0.00411581)
(-0.217857 2.11048e-08 0.00394895)
(-0.22398 2.06957e-08 0.00378144)
(-0.229847 2.06712e-08 0.00361349)
(-0.235454 2.09645e-08 0.00344534)
(-0.240802 2.14134e-08 0.00327717)
(-0.245886 2.17675e-08 0.00310917)
(-0.250708 2.17291e-08 0.0029415)
(-0.255265 2.1009e-08 0.00277432)
(-0.259558 1.94384e-08 0.0026078)
(-0.263586 1.70433e-08 0.00244206)
(-0.267349 1.40675e-08 0.00227726)
(-0.270849 1.09507e-08 0.00211352)
(-0.274085 8.19602e-09 0.00195098)
(-0.27706 6.2679e-09 0.00178975)
(-0.279773 5.44634e-09 0.00162997)
(-0.282228 5.7644e-09 0.00147174)
(-0.284426 7.01582e-09 0.00131518)
(-0.28637 8.81734e-09 0.0011604)
(-0.288061 1.07293e-08 0.00100751)
(-0.289504 1.23461e-08 0.000856617)
(-0.2907 1.33936e-08 0.000707831)
(-0.291653 1.37497e-08 0.00056124)
(-0.292367 1.34477e-08 0.000416912)
(-0.292845 1.26355e-08 0.000274871)
(-0.293091 1.15085e-08 0.0001351)
(-0.29311 1.02628e-08 -2.23198e-06)
(-0.292906 9.04863e-09 -0.000136712)
(-0.292483 7.96253e-09 -0.000268188)
(-0.291846 7.04015e-09 -0.000396773)
(-0.291 6.28648e-09 -0.000522474)
(-0.28995 5.68405e-09 -0.00064523)
(-0.288701 5.20627e-09 -0.000764962)
(-0.287258 4.82987e-09 -0.000881592)
(-0.285628 4.52576e-09 -0.000995046)
(-0.283815 4.28315e-09 -0.00110526)
(-0.281825 4.06631e-09 -0.00121217)
(-0.279665 3.87273e-09 -0.00131572)
(-0.27734 3.69329e-09 -0.00141586)
(-0.274856 3.52964e-09 -0.00151254)
(-0.272219 3.37513e-09 -0.00160572)
(-0.269437 3.23724e-09 -0.00169536)
(-0.266513 3.11514e-09 -0.00178144)
(-0.263456 3.00717e-09 -0.00186392)
(-0.260272 2.91332e-09 -0.00194277)
(-0.256966 2.82364e-09 -0.00201799)
(-0.253545 2.75306e-09 -0.00208956)
(-0.250016 2.70742e-09 -0.00215746)
(-0.246385 2.6967e-09 -0.00222171)
(-0.242657 2.73667e-09 -0.00228229)
(-0.238841 2.82735e-09 -0.00233921)
(-0.234941 2.9621e-09 -0.00239249)
(-0.230964 3.12346e-09 -0.00244215)
(-0.226916 3.29316e-09 -0.0024882)
(-0.222803 3.44127e-09 -0.00253067)
(-0.218631 3.54699e-09 -0.0025696)
(-0.214407 3.59371e-09 -0.00260501)
(-0.210135 3.58307e-09 -0.00263695)
(-0.205822 3.50425e-09 -0.00266546)
(-0.201474 3.38386e-09 -0.00269059)
(-0.197095 3.22604e-09 -0.0027124)
(-0.192692 3.06737e-09 -0.00273094)
(-0.188269 2.91701e-09 -0.00274626)
(-0.183832 2.7999e-09 -0.00275845)
(-0.179385 2.71024e-09 -0.00276755)
(-0.174934 2.66964e-09 -0.00277364)
(-0.170483 2.6698e-09 -0.0027768)
(-0.166037 2.69743e-09 -0.00277709)
(-0.1616 2.76666e-09 -0.0027746)
(-0.157177 2.86086e-09 -0.00276941)
(-0.152772 2.97922e-09 -0.00276159)
(-0.148388 3.10925e-09 -0.00275122)
(-0.14403 3.24846e-09 -0.0027384)
(-0.1397 3.40268e-09 -0.0027232)
(-0.135404 3.55942e-09 -0.0027057)
(-0.131143 3.71869e-09 -0.00268599)
(-0.126922 3.88216e-09 -0.00266416)
(-0.122743 4.05232e-09 -0.00264028)
(-0.118609 4.22085e-09 -0.00261444)
(-0.114523 4.39608e-09 -0.00258672)
(-0.110488 4.56468e-09 -0.00255719)
(-0.106506 4.74498e-09 -0.00252594)
(-0.10258 4.93199e-09 -0.00249304)
(-0.0987111 5.1057e-09 -0.00245857)
(-0.0949024 5.27946e-09 -0.00242258)
(-0.0911556 5.45326e-09 -0.00238517)
(-0.0874726 5.6271e-09 -0.00234638)
(-0.0838553 5.79264e-09 -0.00230628)
(-0.0803054 5.95489e-09 -0.00226494)
(-0.0768243 6.12219e-09 -0.00222241)
(-0.0734138 6.28286e-09 -0.00217874)
(-0.0700752 6.45357e-09 -0.00213398)
(-0.0668098 6.63767e-09 -0.00208819)
(-0.063619 6.83182e-09 -0.00204141)
(-0.060504 7.04603e-09 -0.00199367)
(-0.0574659 7.27198e-09 -0.00194503)
(-0.0545059 7.52468e-09 -0.00189552)
(-0.0516249 7.80248e-09 -0.00184517)
(-0.048824 8.09369e-09 -0.00179402)
(-0.0461042 8.40335e-09 -0.0017421)
(-0.0434663 8.73478e-09 -0.00168944)
(-0.0409113 9.06964e-09 -0.00163607)
(-0.0384399 9.42128e-09 -0.00158202)
(-0.0360529 9.78304e-09 -0.00152732)
(-0.0337512 1.01366e-08 -0.00147199)
(-0.0315353 1.04969e-08 -0.00141608)
(-0.029406 1.08339e-08 -0.00135961)
(-0.0273638 1.1166e-08 -0.00130262)
(-0.0254095 1.15065e-08 -0.00124515)
(-0.0235434 1.18489e-08 -0.00118724)
(-0.021766 1.21997e-08 -0.00112893)
(-0.0200778 1.25539e-08 -0.00107028)
(-0.0184791 1.29233e-08 -0.00101134)
(-0.0169701 1.33196e-08 -0.000952178)
(-0.0155509 1.37678e-08 -0.000892856)
(-0.0142217 1.42513e-08 -0.000833455)
(-0.0129824 1.48136e-08 -0.000774057)
(-0.0118329 1.54447e-08 -0.000714757)
(-0.0107727 1.61479e-08 -0.000655656)
(-0.00980152 1.69635e-08 -0.000596866)
(-0.0089187 1.7853e-08 -0.00053851)
(-0.00812346 1.88365e-08 -0.000480718)
(-0.0074148 1.99041e-08 -0.000423634)
(-0.00679154 2.10357e-08 -0.000367413)
(-0.00625227 2.21845e-08 -0.000312218)
(-0.00579534 2.33471e-08 -0.000258228)
(-0.00541884 2.44666e-08 -0.00020563)
(-0.00512058 2.55228e-08 -0.000154623)
(-0.00489808 2.64755e-08 -0.000105419)
(-0.00474856 2.72844e-08 -5.82411e-05)
(-0.00466889 2.79328e-08 -1.33248e-05)
(-0.00465564 2.84573e-08 2.90878e-05)
(-0.00470495 2.88613e-08 6.87558e-05)
(-0.00481269 2.91851e-08 0.000105414)
(-0.00497425 2.94889e-08 0.000138776)
(-0.00518463 2.9803e-08 0.000168556)
(-0.00543841 3.01408e-08 0.000194457)
(-0.0057297 3.04116e-08 0.000216174)
(-0.00605216 3.05819e-08 0.000233392)
(-0.00639898 3.04333e-08 0.000245787)
(-0.00676283 2.98951e-08 0.000253025)
(-0.00713587 2.88426e-08 0.000254766)
(-0.00750975 2.7252e-08 0.000250658)
(-0.00787553 2.51733e-08 0.000240342)
(-0.00822374 2.27307e-08 0.000223449)
(-0.00854429 2.00213e-08 0.000199606)
(-0.00882653 1.70247e-08 0.000168434)
(-0.00905914 1.36836e-08 0.000129551)
(-0.00923024 9.93349e-09 8.25869e-05)
(-0.00932733 5.80097e-09 2.71845e-05)
(-0.00933732 1.46425e-09 -3.69325e-05)
(-0.0092467 -2.70674e-09 -0.000109913)
(-0.00904175 -6.31083e-09 -0.000191783)
(-0.00870864 -9.15547e-09 -0.000282304)
(-0.00823404 -1.11625e-08 -0.000380704)
(-0.007606 -1.23346e-08 -0.000485335)
(-0.00681545 -1.24817e-08 -0.000593039)
(-0.0058588 -1.13663e-08 -0.000698057)
(-0.00474241 -9.02663e-09 -0.000790141)
(-0.00349016 -5.79158e-09 -0.000851334)
(-0.00215687 -2.18611e-09 -0.000850682)
(-0.000848299 2.00274e-09 -0.000736988)
(0.000242668 7.51352e-09 -0.000432035)
(0.000823234 2.1593e-08 9.06882e-05)
(0.000412676 2.4011e-08 0.000443009)
(0.00222374 4.83593e-06 -0.00227147)
(0.0102646 4.93903e-05 -0.00611435)
(0.0185083 3.36048e-05 -0.00569343)
(0.0244765 1.62619e-05 -0.00355595)
(0.0273707 7.73107e-06 -0.00134226)
(0.0275204 3.93053e-06 0.000562009)
(0.0253779 2.104e-06 0.00209126)
(0.0214133 1.114e-06 0.00327914)
(0.0160165 5.38131e-07 0.0041888)
(0.00950409 2.1258e-07 0.00488253)
(0.00213094 4.53441e-08 0.00540488)
(-0.00591792 -2.95541e-08 0.00578131)
(-0.0144435 -5.39746e-08 0.00604268)
(-0.0233418 -5.1662e-08 0.00622257)
(-0.0325031 -3.57236e-08 0.0063385)
(-0.0418465 -1.52203e-08 0.0064034)
(-0.0513046 3.73877e-09 0.00642726)
(-0.0608218 1.80218e-08 0.00641784)
(-0.0703519 2.69725e-08 0.00638124)
(-0.0798561 3.13479e-08 0.00632232)
(-0.0893015 3.24849e-08 0.00624495)
(-0.0986603 3.16884e-08 0.00615226)
(-0.107909 3.00213e-08 0.00604678)
(-0.117026 2.82426e-08 0.0059306)
(-0.125994 2.67942e-08 0.0058054)
(-0.134798 2.58699e-08 0.00567262)
(-0.143424 2.54603e-08 0.00553342)
(-0.15186 2.54318e-08 0.00538879)
(-0.160096 2.55709e-08 0.00523957)
(-0.168122 2.56852e-08 0.00508648)
(-0.17593 2.55982e-08 0.00493013)
(-0.183514 2.52507e-08 0.00477105)
(-0.190866 2.46196e-08 0.00460969)
(-0.197981 2.37591e-08 0.00444646)
(-0.204854 2.27824e-08 0.00428172)
(-0.211481 2.18444e-08 0.00411578)
(-0.217857 2.11048e-08 0.00394893)
(-0.22398 2.06957e-08 0.00378141)
(-0.229846 2.06711e-08 0.00361348)
(-0.235454 2.09644e-08 0.00344532)
(-0.240801 2.14134e-08 0.00327715)
(-0.245886 2.17675e-08 0.00310915)
(-0.250708 2.17291e-08 0.00294147)
(-0.255265 2.10089e-08 0.00277429)
(-0.259558 1.94384e-08 0.00260776)
(-0.263586 1.70433e-08 0.00244203)
(-0.267349 1.40675e-08 0.00227722)
(-0.270849 1.09507e-08 0.00211349)
(-0.274085 8.19601e-09 0.00195094)
(-0.277059 6.26789e-09 0.00178972)
(-0.279773 5.44633e-09 0.00162994)
(-0.282228 5.76439e-09 0.00147171)
(-0.284426 7.01581e-09 0.00131514)
(-0.28637 8.81732e-09 0.00116036)
(-0.288061 1.07293e-08 0.00100747)
(-0.289503 1.23461e-08 0.000856582)
(-0.290699 1.33936e-08 0.000707795)
(-0.291653 1.37497e-08 0.000561204)
(-0.292366 1.34477e-08 0.000416877)
(-0.292844 1.26355e-08 0.000274835)
(-0.293091 1.15085e-08 0.000135064)
(-0.29311 1.02627e-08 -2.26811e-06)
(-0.292905 9.04862e-09 -0.000136749)
(-0.292482 7.96252e-09 -0.000268225)
(-0.291845 7.04014e-09 -0.000396812)
(-0.290999 6.28647e-09 -0.000522513)
(-0.289949 5.68404e-09 -0.00064527)
(-0.2887 5.20626e-09 -0.000765003)
(-0.287258 4.82986e-09 -0.000881633)
(-0.285627 4.52576e-09 -0.000995089)
(-0.283814 4.28315e-09 -0.0011053)
(-0.281825 4.0663e-09 -0.00121221)
(-0.279665 3.87273e-09 -0.00131576)
(-0.277339 3.69329e-09 -0.0014159)
(-0.274856 3.52963e-09 -0.00151258)
(-0.272219 3.37512e-09 -0.00160576)
(-0.269436 3.23723e-09 -0.00169541)
(-0.266513 3.11513e-09 -0.00178148)
(-0.263456 3.00716e-09 -0.00186396)
(-0.260271 2.91332e-09 -0.00194282)
(-0.256966 2.82363e-09 -0.00201804)
(-0.253545 2.75306e-09 -0.0020896)
(-0.250016 2.70742e-09 -0.00215751)
(-0.246384 2.69669e-09 -0.00222175)
(-0.242657 2.73667e-09 -0.00228234)
(-0.23884 2.82735e-09 -0.00233926)
(-0.23494 2.9621e-09 -0.00239255)
(-0.230963 3.12346e-09 -0.0024422)
(-0.226915 3.29316e-09 -0.00248825)
(-0.222803 3.44126e-09 -0.00253072)
(-0.218631 3.54699e-09 -0.00256965)
(-0.214406 3.5937e-09 -0.00260506)
(-0.210135 3.58306e-09 -0.002637)
(-0.205822 3.50425e-09 -0.00266551)
(-0.201474 3.38385e-09 -0.00269065)
(-0.197095 3.22603e-09 -0.00271245)
(-0.192692 3.06737e-09 -0.00273099)
(-0.188269 2.91701e-09 -0.00274632)
(-0.183831 2.7999e-09 -0.0027585)
(-0.179385 2.71023e-09 -0.00276761)
(-0.174934 2.66964e-09 -0.0027737)
(-0.170483 2.6698e-09 -0.00277686)
(-0.166037 2.69742e-09 -0.00277715)
(-0.1616 2.76665e-09 -0.00277466)
(-0.157177 2.86086e-09 -0.00276947)
(-0.152772 2.97922e-09 -0.00276165)
(-0.148388 3.10925e-09 -0.00275129)
(-0.144029 3.24845e-09 -0.00273846)
(-0.1397 3.40267e-09 -0.00272326)
(-0.135404 3.55942e-09 -0.00270576)
(-0.131143 3.71869e-09 -0.00268606)
(-0.126922 3.88216e-09 -0.00266422)
(-0.122743 4.05232e-09 -0.00264035)
(-0.118609 4.22085e-09 -0.00261451)
(-0.114523 4.39608e-09 -0.00258678)
(-0.110488 4.56468e-09 -0.00255726)
(-0.106506 4.74498e-09 -0.00252601)
(-0.10258 4.93198e-09 -0.00249311)
(-0.0987109 5.1057e-09 -0.00245863)
(-0.0949022 5.27946e-09 -0.00242265)
(-0.0911554 5.45325e-09 -0.00238524)
(-0.0874725 5.62709e-09 -0.00234645)
(-0.0838552 5.79263e-09 -0.00230635)
(-0.0803052 5.95489e-09 -0.00226501)
(-0.0768242 6.12218e-09 -0.00222248)
(-0.0734136 6.28285e-09 -0.00217881)
(-0.070075 6.45356e-09 -0.00213405)
(-0.0668097 6.63766e-09 -0.00208826)
(-0.0636189 6.83181e-09 -0.00204148)
(-0.0605038 7.04603e-09 -0.00199375)
(-0.0574657 7.27197e-09 -0.00194511)
(-0.0545057 7.52468e-09 -0.0018956)
(-0.0516248 7.80247e-09 -0.00184525)
(-0.0488239 8.09369e-09 -0.0017941)
(-0.0461041 8.40334e-09 -0.00174218)
(-0.0434662 8.73477e-09 -0.00168952)
(-0.0409111 9.06963e-09 -0.00163615)
(-0.0384397 9.42127e-09 -0.0015821)
(-0.0360528 9.78303e-09 -0.0015274)
(-0.033751 1.01365e-08 -0.00147207)
(-0.0315351 1.04968e-08 -0.00141616)
(-0.0294058 1.08339e-08 -0.00135969)
(-0.0273637 1.1166e-08 -0.00130271)
(-0.0254093 1.15065e-08 -0.00124524)
(-0.0235432 1.18488e-08 -0.00118732)
(-0.0217659 1.21996e-08 -0.00112902)
(-0.0200777 1.25539e-08 -0.00107037)
(-0.0184789 1.29233e-08 -0.00101143)
(-0.0169699 1.33196e-08 -0.000952265)
(-0.0155508 1.37678e-08 -0.000892944)
(-0.0142216 1.42513e-08 -0.000833543)
(-0.0129823 1.48136e-08 -0.000774146)
(-0.0118327 1.54447e-08 -0.000714847)
(-0.0107726 1.61479e-08 -0.000655747)
(-0.00980137 1.69635e-08 -0.000596958)
(-0.00891855 1.7853e-08 -0.000538602)
(-0.0081233 1.88365e-08 -0.000480812)
(-0.00741465 1.99041e-08 -0.000423729)
(-0.00679139 2.10357e-08 -0.000367509)
(-0.00625212 2.21845e-08 -0.000312316)
(-0.0057952 2.33471e-08 -0.000258327)
(-0.00541869 2.44665e-08 -0.00020573)
(-0.00512043 2.55227e-08 -0.000154725)
(-0.00489793 2.64755e-08 -0.000105523)
(-0.00474841 2.72844e-08 -5.83459e-05)
(-0.00466875 2.79328e-08 -1.34314e-05)
(-0.0046555 2.84573e-08 2.89793e-05)
(-0.00470482 2.88613e-08 6.86453e-05)
(-0.00481256 2.91851e-08 0.000105301)
(-0.00497412 2.94889e-08 0.000138662)
(-0.00518451 2.98029e-08 0.00016844)
(-0.00543829 3.01407e-08 0.000194339)
(-0.00572958 3.04116e-08 0.000216054)
(-0.00605205 3.05819e-08 0.00023327)
(-0.00639887 3.04333e-08 0.000245663)
(-0.00676273 2.98951e-08 0.0002529)
(-0.00713578 2.88426e-08 0.00025464)
(-0.00750966 2.72519e-08 0.000250531)
(-0.00787545 2.51733e-08 0.000240214)
(-0.00822367 2.27306e-08 0.000223321)
(-0.00854423 2.00213e-08 0.000199478)
(-0.00882647 1.70247e-08 0.000168306)
(-0.00905909 1.36836e-08 0.000129425)
(-0.0092302 9.93348e-09 8.24624e-05)
(-0.00932729 5.80097e-09 2.70617e-05)
(-0.00933728 1.46425e-09 -3.70535e-05)
(-0.00924668 -2.70674e-09 -0.000110032)
(-0.00904173 -6.31082e-09 -0.0001919)
(-0.00870862 -9.15546e-09 -0.00028242)
(-0.00823403 -1.11625e-08 -0.00038082)
(-0.00760599 -1.23345e-08 -0.000485451)
(-0.00681545 -1.24817e-08 -0.000593158)
(-0.0058588 -1.13662e-08 -0.00069818)
(-0.00474241 -9.02662e-09 -0.00079027)
(-0.00349016 -5.79157e-09 -0.000851472)
(-0.00215687 -2.18611e-09 -0.000850831)
(-0.000848313 2.00274e-09 -0.000737149)
(0.000242646 7.51351e-09 -0.000432209)
(0.000823158 2.1593e-08 9.05093e-05)
(0.000412607 2.4011e-08 0.000442865)
(0.00575152 -4.7427e-05 -0.010769)
(0.0120913 -4.74083e-06 -0.0126376)
(0.0155918 1.52033e-06 -0.00997529)
(0.0172926 1.75241e-06 -0.00579847)
(0.0170865 1.36441e-06 -0.00161745)
(0.0152253 9.39004e-07 0.00205669)
(0.0118978 5.69291e-07 0.0050994)
(0.00730756 3.01032e-07 0.00754694)
(0.00165516 1.30723e-07 0.00948681)
(-0.00487615 3.42441e-08 0.0110094)
(-0.0121105 -1.42167e-08 0.0121914)
(-0.0199126 -3.48932e-08 0.0130936)
(-0.0281599 -4.01689e-08 0.0137711)
(-0.0367524 -3.6948e-08 0.0142723)
(-0.0456019 -2.94808e-08 0.0146299)
(-0.054636 -2.08914e-08 0.0148703)
(-0.063793 -1.32454e-08 0.0150138)
(-0.073021 -7.50382e-09 0.0150769)
(-0.0822756 -3.75886e-09 0.0150724)
(-0.091519 -1.62212e-09 0.015011)
(-0.100719 -5.56319e-10 0.0149013)
(-0.109847 -6.99428e-11 0.0147501)
(-0.118879 1.90179e-10 0.0145634)
(-0.127794 4.42745e-10 0.0143458)
(-0.136574 7.87901e-10 0.0141015)
(-0.145201 1.22104e-09 0.0138337)
(-0.153663 1.68731e-09 0.0135454)
(-0.161947 2.09407e-09 0.013239)
(-0.17004 2.35789e-09 0.0129166)
(-0.177935 2.4211e-09 0.01258)
(-0.18562 2.26011e-09 0.012231)
(-0.19309 1.89989e-09 0.0118707)
(-0.200337 1.39946e-09 0.0115007)
(-0.207354 8.46832e-10 0.0111219)
(-0.214137 3.60723e-10 0.0107354)
(-0.22068 6.76753e-11 0.0103421)
(-0.22698 6.92975e-11 0.00994293)
(-0.233032 4.08665e-10 0.00953868)
(-0.238834 1.02056e-09 0.00913009)
(-0.244382 1.73359e-09 0.00871786)
(-0.249675 2.30963e-09 0.00830264)
(-0.254711 2.52058e-09 0.00788507)
(-0.259487 2.22673e-09 0.00746576)
(-0.264004 1.42612e-09 0.00704528)
(-0.268261 2.67706e-10 0.0066242)
(-0.272256 -1.00337e-09 0.00620305)
(-0.275991 -2.10864e-09 0.00578237)
(-0.279464 -2.81594e-09 0.00536265)
(-0.282678 -2.99494e-09 0.0049444)
(-0.285633 -2.63493e-09 0.00452808)
(-0.28833 -1.84068e-09 0.00411417)
(-0.290771 -7.98174e-10 0.00370312)
(-0.292957 2.86949e-10 0.00329537)
(-0.294891 1.21695e-09 0.00289136)
(-0.296575 1.85216e-09 0.00249151)
(-0.298011 2.12463e-09 0.00209625)
(-0.299203 2.04123e-09 0.00170596)
(-0.300153 1.67102e-09 0.00132105)
(-0.300865 1.11702e-09 0.000941905)
(-0.301342 4.94653e-10 0.000568876)
(-0.301589 -9.65932e-11 0.000202323)
(-0.301608 -5.88967e-10 -0.000157446)
(-0.301405 -9.51808e-10 -0.000510207)
(-0.300984 -1.17787e-09 -0.000855703)
(-0.300349 -1.28416e-09 -0.00119363)
(-0.299505 -1.29825e-09 -0.00152371)
(-0.298457 -1.24602e-09 -0.00184565)
(-0.29721 -1.15091e-09 -0.0021592)
(-0.295769 -1.03384e-09 -0.0024641)
(-0.29414 -9.12419e-10 -0.00276014)
(-0.292328 -7.96183e-10 -0.00304711)
(-0.290339 -6.93417e-10 -0.00332482)
(-0.288178 -6.07436e-10 -0.00359311)
(-0.285852 -5.34717e-10 -0.00385183)
(-0.283365 -4.74638e-10 -0.00410084)
(-0.280725 -4.19118e-10 -0.00434005)
(-0.277937 -3.68156e-10 -0.00456934)
(-0.275007 -3.19681e-10 -0.00478865)
(-0.271942 -2.73692e-10 -0.00499791)
(-0.268747 -2.29775e-10 -0.00519708)
(-0.265429 -1.88344e-10 -0.00538614)
(-0.261994 -1.46083e-10 -0.00556507)
(-0.258449 -1.00092e-10 -0.00573389)
(-0.254798 -4.78833e-11 -0.00589262)
(-0.25105 1.22011e-11 -0.00604129)
(-0.247209 7.80896e-11 -0.00617998)
(-0.243282 1.42323e-10 -0.00630874)
(-0.239275 1.98684e-10 -0.00642767)
(-0.235194 2.39298e-10 -0.00653686)
(-0.231045 2.60849e-10 -0.00663643)
(-0.226834 2.56289e-10 -0.00672651)
(-0.222567 2.27688e-10 -0.00680724)
(-0.218249 1.81262e-10 -0.00687877)
(-0.213887 1.25301e-10 -0.00694127)
(-0.209485 6.56056e-11 -0.00699492)
(-0.205048 1.12959e-11 -0.00703989)
(-0.200584 -2.76786e-11 -0.00707638)
(-0.196096 -5.21459e-11 -0.00710459)
(-0.191589 -5.54711e-11 -0.00712474)
(-0.18707 -4.05544e-11 -0.00713704)
(-0.182541 -9.05204e-12 -0.00714172)
(-0.178009 3.40623e-11 -0.007139)
(-0.173477 8.25704e-11 -0.00712911)
(-0.168951 1.37303e-10 -0.0071123)
(-0.164434 1.9121e-10 -0.0070888)
(-0.159931 2.43049e-10 -0.00705885)
(-0.155445 2.86599e-10 -0.00702269)
(-0.15098 3.24761e-10 -0.00698057)
(-0.146541 3.55876e-10 -0.00693272)
(-0.14213 3.78699e-10 -0.00687938)
(-0.137752 3.94474e-10 -0.00682079)
(-0.133408 4.03198e-10 -0.00675718)
(-0.129104 4.03626e-10 -0.00668878)
(-0.124841 4.01566e-10 -0.00661581)
(-0.120622 3.92038e-10 -0.0065385)
(-0.116451 3.80434e-10 -0.00645706)
(-0.11233 3.64264e-10 -0.00637168)
(-0.108261 3.46433e-10 -0.00628258)
(-0.104247 3.21959e-10 -0.00618994)
(-0.100289 2.93332e-10 -0.00609395)
(-0.0963917 2.5972e-10 -0.00599478)
(-0.0925553 2.24858e-10 -0.0058926)
(-0.0887822 1.87085e-10 -0.00578757)
(-0.0850744 1.46816e-10 -0.00567984)
(-0.0814336 1.04464e-10 -0.00556955)
(-0.0778616 6.12739e-11 -0.00545683)
(-0.07436 1.84915e-11 -0.0053418)
(-0.0709304 -2.47141e-11 -0.00522458)
(-0.0675743 -6.70976e-11 -0.00510528)
(-0.0642931 -1.06998e-10 -0.004984)
(-0.0610883 -1.49399e-10 -0.00486082)
(-0.057961 -1.88072e-10 -0.00473583)
(-0.0549127 -2.29661e-10 -0.00460911)
(-0.0519445 -2.72091e-10 -0.00448074)
(-0.0490577 -3.14948e-10 -0.00435078)
(-0.0462533 -3.63218e-10 -0.0042193)
(-0.0435324 -4.13994e-10 -0.00408636)
(-0.0408962 -4.68523e-10 -0.00395202)
(-0.0383456 -5.30134e-10 -0.00381634)
(-0.0358815 -5.94255e-10 -0.00367939)
(-0.033505 -6.65045e-10 -0.00354123)
(-0.031217 -7.42507e-10 -0.00340192)
(-0.0290182 -8.22901e-10 -0.00326155)
(-0.0269094 -9.05398e-10 -0.00312018)
(-0.0248914 -9.87087e-10 -0.00297791)
(-0.0229649 -1.06714e-09 -0.00283482)
(-0.0211305 -1.14472e-09 -0.00269104)
(-0.0193887 -1.2165e-09 -0.00254667)
(-0.0177399 -1.28082e-09 -0.00240186)
(-0.0161846 -1.33518e-09 -0.00225675)
(-0.014723 -1.38456e-09 -0.0021115)
(-0.0133552 -1.41982e-09 -0.00196631)
(-0.0120812 -1.44595e-09 -0.00182138)
(-0.0109011 -1.46709e-09 -0.00167693)
(-0.00981434 -1.47993e-09 -0.00153321)
(-0.00882068 -1.49028e-09 -0.0013905)
(-0.00791946 -1.50648e-09 -0.00124908)
(-0.00710988 -1.52936e-09 -0.0011093)
(-0.00639092 -1.56559e-09 -0.000971479)
(-0.00576134 -1.63018e-09 -0.00083601)
(-0.00521964 -1.72479e-09 -0.000703291)
(-0.00476409 -1.85279e-09 -0.000573753)
(-0.00439264 -2.03084e-09 -0.000447855)
(-0.00410298 -2.25148e-09 -0.000326085)
(-0.00389245 -2.51806e-09 -0.000208959)
(-0.00375809 -2.82975e-09 -9.70214e-05)
(-0.00369659 -3.16823e-09 9.15732e-06)
(-0.00370424 -3.52019e-09 0.00010899)
(-0.00377698 -3.86727e-09 0.000201849)
(-0.00391035 -4.19445e-09 0.000287064)
(-0.00409945 -4.49671e-09 0.000363949)
(-0.00433898 -4.77489e-09 0.000431788)
(-0.00462315 -5.04317e-09 0.00048984)
(-0.00494575 -5.32993e-09 0.000537335)
(-0.00530007 -5.6644e-09 0.000573479)
(-0.00567892 -6.06332e-09 0.000597446)
(-0.00607463 -6.52673e-09 0.000608388)
(-0.00647899 -7.02709e-09 0.000605425)
(-0.0068833 -7.52014e-09 0.000587656)
(-0.00727834 -7.96243e-09 0.000554149)
(-0.00765438 -8.3297e-09 0.000503957)
(-0.00800118 -8.62276e-09 0.00043611)
(-0.00830799 -8.8817e-09 0.000349641)
(-0.00856362 -9.12493e-09 0.000243593)
(-0.00875647 -9.32819e-09 0.000117069)
(-0.00887462 -9.40866e-09 -3.0698e-05)
(-0.00890588 -9.29088e-09 -0.000200216)
(-0.00883816 -8.90693e-09 -0.000391671)
(-0.00865963 -8.30351e-09 -0.000604655)
(-0.00835922 -7.51729e-09 -0.000837664)
(-0.00792727 -6.56314e-09 -0.00108738)
(-0.00735659 -5.38886e-09 -0.00134745)
(-0.00664388 -4.00413e-09 -0.00160638)
(-0.00579203 -2.54938e-09 -0.00184402)
(-0.00481314 -1.18858e-09 -0.00202572)
(-0.00373302 3.6848e-11 -0.00209294)
(-0.00259464 1.27925e-09 -0.00194982)
(-0.00147042 3.20308e-09 -0.00144841)
(-0.000456833 1.15986e-08 -0.000420471)
(5.22636e-05 2.22075e-08 0.000842791)
(0.00582172 -4.74338e-05 -0.0108351)
(0.0121327 -4.74067e-06 -0.0126854)
(0.0156021 1.52029e-06 -0.0099985)
(0.0172901 1.75238e-06 -0.00580797)
(0.0170827 1.36438e-06 -0.00162087)
(0.0152228 9.38991e-07 0.0020556)
(0.0118966 5.69283e-07 0.00509906)
(0.00730718 3.01028e-07 0.0075468)
(0.00165516 1.30722e-07 0.00948671)
(-0.00487601 3.42437e-08 0.0110093)
(-0.0121104 -1.42165e-08 0.0121913)
(-0.0199125 -3.48929e-08 0.0130935)
(-0.0281597 -4.01685e-08 0.0137711)
(-0.0367522 -3.69476e-08 0.0142722)
(-0.0456018 -2.94806e-08 0.0146298)
(-0.0546359 -2.08912e-08 0.0148702)
(-0.0637929 -1.32453e-08 0.0150138)
(-0.0730209 -7.50375e-09 0.0150768)
(-0.0822755 -3.75882e-09 0.0150724)
(-0.0915189 -1.6221e-09 0.015011)
(-0.100719 -5.56314e-10 0.0149012)
(-0.109847 -6.99422e-11 0.0147501)
(-0.118879 1.90177e-10 0.0145633)
(-0.127794 4.42741e-10 0.0143458)
(-0.136573 7.87894e-10 0.0141014)
(-0.145201 1.22103e-09 0.0138337)
(-0.153663 1.68729e-09 0.0135454)
(-0.161946 2.09405e-09 0.013239)
(-0.17004 2.35787e-09 0.0129166)
(-0.177934 2.42108e-09 0.01258)
(-0.18562 2.26009e-09 0.0122309)
(-0.19309 1.89988e-09 0.0118707)
(-0.200336 1.39944e-09 0.0115006)
(-0.207354 8.46825e-10 0.0111218)
(-0.214137 3.6072e-10 0.0107353)
(-0.22068 6.76747e-11 0.0103421)
(-0.226979 6.9297e-11 0.00994292)
(-0.233032 4.08661e-10 0.00953867)
(-0.238833 1.02055e-09 0.00913008)
(-0.244382 1.73358e-09 0.00871785)
(-0.249675 2.30961e-09 0.00830263)
(-0.25471 2.52056e-09 0.00788506)
(-0.259487 2.22672e-09 0.00746574)
(-0.264004 1.42611e-09 0.00704526)
(-0.26826 2.67704e-10 0.00662418)
(-0.272256 -1.00336e-09 0.00620303)
(-0.27599 -2.10862e-09 0.00578235)
(-0.279464 -2.81592e-09 0.00536264)
(-0.282678 -2.99492e-09 0.00494438)
(-0.285633 -2.63491e-09 0.00452807)
(-0.28833 -1.84067e-09 0.00411416)
(-0.29077 -7.98168e-10 0.00370311)
(-0.292957 2.86947e-10 0.00329536)
(-0.294891 1.21694e-09 0.00289135)
(-0.296574 1.85214e-09 0.0024915)
(-0.298011 2.12461e-09 0.00209623)
(-0.299202 2.04122e-09 0.00170595)
(-0.300152 1.67101e-09 0.00132104)
(-0.300864 1.11701e-09 0.000941891)
(-0.301342 4.9465e-10 0.000568862)
(-0.301588 -9.65925e-11 0.000202309)
(-0.301608 -5.88963e-10 -0.00015746)
(-0.301405 -9.51801e-10 -0.000510221)
(-0.300984 -1.17787e-09 -0.000855717)
(-0.300349 -1.28416e-09 -0.00119365)
(-0.299505 -1.29824e-09 -0.00152372)
(-0.298457 -1.24601e-09 -0.00184567)
(-0.29721 -1.1509e-09 -0.00215921)
(-0.295769 -1.03383e-09 -0.00246412)
(-0.29414 -9.12413e-10 -0.00276015)
(-0.292328 -7.96177e-10 -0.00304712)
(-0.290339 -6.93412e-10 -0.00332483)
(-0.288178 -6.07432e-10 -0.00359312)
(-0.285851 -5.34713e-10 -0.00385184)
(-0.283365 -4.74634e-10 -0.00410086)
(-0.280725 -4.19115e-10 -0.00434006)
(-0.277937 -3.68153e-10 -0.00456935)
(-0.275007 -3.19679e-10 -0.00478866)
(-0.271942 -2.7369e-10 -0.00499792)
(-0.268747 -2.29773e-10 -0.00519709)
(-0.265429 -1.88342e-10 -0.00538615)
(-0.261994 -1.46082e-10 -0.00556508)
(-0.258448 -1.00091e-10 -0.0057339)
(-0.254798 -4.7883e-11 -0.00589263)
(-0.251049 1.2201e-11 -0.00604131)
(-0.247209 7.80891e-11 -0.00617999)
(-0.243282 1.42322e-10 -0.00630875)
(-0.239275 1.98683e-10 -0.00642768)
(-0.235194 2.39297e-10 -0.00653687)
(-0.231045 2.60847e-10 -0.00663645)
(-0.226834 2.56287e-10 -0.00672653)
(-0.222567 2.27686e-10 -0.00680726)
(-0.218249 1.81261e-10 -0.00687879)
(-0.213886 1.253e-10 -0.00694129)
(-0.209484 6.56052e-11 -0.00699493)
(-0.205048 1.12958e-11 -0.0070399)
(-0.200584 -2.76785e-11 -0.00707639)
(-0.196096 -5.21455e-11 -0.00710461)
(-0.191589 -5.54707e-11 -0.00712476)
(-0.187069 -4.05541e-11 -0.00713706)
(-0.182541 -9.05198e-12 -0.00714173)
(-0.178009 3.40621e-11 -0.00713901)
(-0.173477 8.25699e-11 -0.00712913)
(-0.168951 1.37302e-10 -0.00711232)
(-0.164434 1.91209e-10 -0.00708881)
(-0.15993 2.43048e-10 -0.00705886)
(-0.155445 2.86597e-10 -0.00702271)
(-0.15098 3.24759e-10 -0.00698058)
(-0.146541 3.55874e-10 -0.00693273)
(-0.14213 3.78697e-10 -0.0068794)
(-0.137751 3.94471e-10 -0.00682081)
(-0.133408 4.03196e-10 -0.0067572)
(-0.129104 4.03624e-10 -0.0066888)
(-0.124841 4.01564e-10 -0.00661583)
(-0.120622 3.92035e-10 -0.00653852)
(-0.116451 3.80432e-10 -0.00645708)
(-0.11233 3.64262e-10 -0.0063717)
(-0.108261 3.46431e-10 -0.0062826)
(-0.104246 3.21957e-10 -0.00618996)
(-0.100289 2.9333e-10 -0.00609397)
(-0.0963915 2.59719e-10 -0.0059948)
(-0.0925551 2.24857e-10 -0.00589262)
(-0.088782 1.87084e-10 -0.00578759)
(-0.0850742 1.46815e-10 -0.00567986)
(-0.0814335 1.04463e-10 -0.00556957)
(-0.0778615 6.12736e-11 -0.00545685)
(-0.0743599 1.84914e-11 -0.00534182)
(-0.0709303 -2.4714e-11 -0.00522461)
(-0.0675742 -6.70973e-11 -0.0051053)
(-0.064293 -1.06998e-10 -0.00498402)
(-0.0610881 -1.49398e-10 -0.00486084)
(-0.0579609 -1.88071e-10 -0.00473585)
(-0.0549126 -2.2966e-10 -0.00460914)
(-0.0519444 -2.7209e-10 -0.00448076)
(-0.0490575 -3.14947e-10 -0.0043508)
(-0.0462531 -3.63216e-10 -0.00421932)
(-0.0435323 -4.13992e-10 -0.00408638)
(-0.040896 -4.68521e-10 -0.00395204)
(-0.0383454 -5.30131e-10 -0.00381637)
(-0.0358814 -5.94252e-10 -0.00367942)
(-0.0335049 -6.65042e-10 -0.00354125)
(-0.0312168 -7.42504e-10 -0.00340195)
(-0.029018 -8.22898e-10 -0.00326157)
(-0.0269093 -9.05394e-10 -0.00312021)
(-0.0248913 -9.87083e-10 -0.00297793)
(-0.0229648 -1.06713e-09 -0.00283485)
(-0.0211304 -1.14471e-09 -0.00269107)
(-0.0193886 -1.2165e-09 -0.0025467)
(-0.0177398 -1.28082e-09 -0.00240189)
(-0.0161845 -1.33517e-09 -0.00225677)
(-0.0147228 -1.38456e-09 -0.00211153)
(-0.0133551 -1.41982e-09 -0.00196634)
(-0.0120811 -1.44594e-09 -0.0018214)
(-0.0109009 -1.46708e-09 -0.00167695)
(-0.0098142 -1.47992e-09 -0.00153324)
(-0.00882054 -1.49027e-09 -0.00139052)
(-0.00791932 -1.50647e-09 -0.00124911)
(-0.00710974 -1.52936e-09 -0.00110932)
(-0.00639078 -1.56559e-09 -0.000971506)
(-0.0057612 -1.63017e-09 -0.000836037)
(-0.00521951 -1.72479e-09 -0.000703319)
(-0.00476396 -1.85278e-09 -0.000573781)
(-0.00439251 -2.03084e-09 -0.000447883)
(-0.00410285 -2.25148e-09 -0.000326113)
(-0.00389232 -2.51805e-09 -0.000208987)
(-0.00375797 -2.82974e-09 -9.705e-05)
(-0.00369647 -3.16822e-09 9.12856e-06)
(-0.00370412 -3.52018e-09 0.000108961)
(-0.00377686 -3.86726e-09 0.00020182)
(-0.00391023 -4.19443e-09 0.000287035)
(-0.00409934 -4.4967e-09 0.000363919)
(-0.00433887 -4.77488e-09 0.000431758)
(-0.00462304 -5.04315e-09 0.00048981)
(-0.00494565 -5.32991e-09 0.000537306)
(-0.00529997 -5.66438e-09 0.000573449)
(-0.00567883 -6.0633e-09 0.000597417)
(-0.00607454 -6.52671e-09 0.000608358)
(-0.0064789 -7.02707e-09 0.000605396)
(-0.00688322 -7.52012e-09 0.000587627)
(-0.00727827 -7.96241e-09 0.000554121)
(-0.00765431 -8.32968e-09 0.000503929)
(-0.00800111 -8.62273e-09 0.000436084)
(-0.00830793 -8.88168e-09 0.000349614)
(-0.00856357 -9.1249e-09 0.000243568)
(-0.00875642 -9.32816e-09 0.000117043)
(-0.00887458 -9.40863e-09 -3.07229e-05)
(-0.00890585 -9.29086e-09 -0.000200241)
(-0.00883813 -8.90691e-09 -0.000391696)
(-0.0086596 -8.30349e-09 -0.000604681)
(-0.0083592 -7.51727e-09 -0.000837692)
(-0.00792726 -6.56312e-09 -0.00108741)
(-0.00735657 -5.38885e-09 -0.00134749)
(-0.00664387 -4.00412e-09 -0.00160641)
(-0.00579203 -2.54938e-09 -0.00184406)
(-0.00481314 -1.18858e-09 -0.00202577)
(-0.00373302 3.68479e-11 -0.00209301)
(-0.00259465 1.27925e-09 -0.00194989)
(-0.00147043 3.20308e-09 -0.0014485)
(-0.00045689 1.15986e-08 -0.000420577)
(5.21736e-05 2.22075e-08 0.000842661)
(0.00510292 -2.02188e-05 -0.0195005)
(0.00924913 -3.31577e-06 -0.0163364)