/*--------------------------------*- C++ -*----------------------------------*\
  =========                 |
  \\      /  F ield         | OpenFOAM: The Open Source CFD Toolbox
   \\    /   O peration     | Website:  https://openfoam.org
    \\  /    A nd           | Version:  8
     \\/     M anipulation  |
\*---------------------------------------------------------------------------*/
FoamFile
{
    version     2.0;
    format      ascii;
    class       volScalarField;
    location    "1500";
    object      alphat;
}
// * * * * * * * * * * * * * * * * * * * * * * * * * * * * * * * * * * * * * //

dimensions      [1 -1 -1 0 0 0 0];

internalField   nonuniform List<scalar> 
48000
(
0.000157345
5.61297e-05
6.65015e-05
7.57346e-05
8.34018e-05
8.98366e-05
9.55032e-05
0.000100594
0.000105212
0.000109477
0.000113454
0.000117192
0.000120729
0.000124091
0.000127301
0.000130374
0.000133323
0.00013616
0.000138892
0.000141526
0.000144068
0.000146522
0.000148893
0.000151183
0.000153395
0.000155532
0.000157595
0.000159587
0.00016151
0.000163365
0.000165153
0.000166876
0.000168536
0.000170134
0.000171671
0.000173148
0.000174567
0.000175929
0.000177235
0.000178487
0.000179685
0.000180832
0.000181928
0.000182975
0.000183974
0.000184925
0.000185831
0.000186692
0.00018751
0.000188286
0.00018902
0.000189714
0.000190369
0.000190985
0.000191566
0.000192115
0.000192629
0.00019311
0.000193558
0.000193974
0.000194358
0.000194712
0.000195036
0.000195331
0.000195598
0.000195838
0.000196051
0.000196239
0.000196401
0.000196538
0.000196652
0.000196742
0.000196809
0.000196854
0.000196877
0.000196879
0.00019686
0.00019682
0.000196761
0.000196681
0.000196583
0.000196466
0.00019633
0.000196177
0.000196005
0.000195816
0.00019561
0.000195387
0.000195147
0.000194891
0.000194618
0.00019433
0.000194026
0.000193706
0.000193371
0.000193021
0.000192656
0.000192275
0.00019188
0.000191471
0.000191047
0.000190608
0.000190156
0.000189689
0.000189207
0.000188712
0.000188203
0.000187679
0.000187142
0.000186591
0.000186026
0.000185446
0.000184853
0.000184246
0.000183625
0.00018299
0.00018234
0.000181677
0.000180999
0.000180307
0.0001796
0.000178879
0.000178144
0.000177393
0.000176628
0.000175847
0.000175052
0.000174241
0.000173415
0.000172573
0.000171715
0.000170841
0.000169951
0.000169045
0.000168122
0.000167182
0.000166225
0.000165252
0.000164261
0.000163252
0.000162225
0.000161181
0.000160118
0.000159037
0.000157937
0.000156818
0.00015568
0.000154523
0.000153346
0.00015215
0.000150933
0.000149696
0.000148439
0.000147161
0.000145862
0.000144542
0.0001432
0.000141837
0.000140452
0.000139045
0.000137615
0.000136162
0.000134687
0.000133188
0.000131666
0.00013012
0.000128549
0.000126953
0.000125332
0.000123685
0.000122012
0.000120312
0.000118584
0.000116827
0.00011504
0.000113222
0.000111371
0.000109487
0.000107566
0.000105608
0.000103608
0.000101564
9.9472e-05
9.73289e-05
9.51317e-05
9.28841e-05
9.05841e-05
8.81973e-05
8.57064e-05
8.30921e-05
8.03264e-05
7.7373e-05
7.41801e-05
7.06968e-05
6.68461e-05
6.23925e-05
5.69757e-05
5.06932e-05
0.000224042
0.000131846
0.000157651
5.6135e-05
6.65159e-05
7.57395e-05
8.34036e-05
8.9838e-05
9.55044e-05
0.000100595
0.000105213
0.000109478
0.000113455
0.000117193
0.00012073
0.000124092
0.000127301
0.000130374
0.000133324
0.00013616
0.000138892
0.000141526
0.000144068
0.000146523
0.000148893
0.000151183
0.000153395
0.000155532
0.000157595
0.000159588
0.00016151
0.000163365
0.000165153
0.000166877
0.000168536
0.000170134
0.000171671
0.000173148
0.000174567
0.000175929
0.000177235
0.000178487
0.000179685
0.000180832
0.000181928
0.000182975
0.000183974
0.000184925
0.000185831
0.000186692
0.00018751
0.000188286
0.00018902
0.000189714
0.000190369
0.000190985
0.000191566
0.000192115
0.000192629
0.00019311
0.000193558
0.000193973
0.000194358
0.000194711
0.000195036
0.000195331
0.000195598
0.000195838
0.000196051
0.000196239
0.000196401
0.000196538
0.000196652
0.000196742
0.000196809
0.000196854
0.000196877
0.000196879
0.000196859
0.00019682
0.00019676
0.000196681
0.000196583
0.000196466
0.00019633
0.000196176
0.000196005
0.000195816
0.00019561
0.000195387
0.000195147
0.000194891
0.000194618
0.00019433
0.000194026
0.000193706
0.000193371
0.000193021
0.000192655
0.000192275
0.00019188
0.000191471
0.000191047
0.000190608
0.000190155
0.000189688
0.000189207
0.000188712
0.000188203
0.000187679
0.000187142
0.000186591
0.000186025
0.000185446
0.000184853
0.000184246
0.000183625
0.00018299
0.00018234
0.000181677
0.000180999
0.000180307
0.0001796
0.000178879
0.000178143
0.000177393
0.000176628
0.000175847
0.000175052
0.000174241
0.000173414
0.000172572
0.000171715
0.000170841
0.000169951
0.000169044
0.000168122
0.000167182
0.000166225
0.000165252
0.00016426
0.000163252
0.000162225
0.000161181
0.000160118
0.000159037
0.000157937
0.000156818
0.00015568
0.000154523
0.000153346
0.00015215
0.000150933
0.000149696
0.000148439
0.000147161
0.000145862
0.000144542
0.0001432
0.000141837
0.000140452
0.000139045
0.000137615
0.000136162
0.000134687
0.000133188
0.000131666
0.000130119
0.000128549
0.000126953
0.000125332
0.000123685
0.000122012
0.000120312
0.000118584
0.000116826
0.00011504
0.000113222
0.000111371
0.000109487
0.000107566
0.000105607
0.000103608
0.000101564
9.9472e-05
9.7329e-05
9.51317e-05
9.28841e-05
9.05841e-05
8.81973e-05
8.57064e-05
8.30921e-05
8.03264e-05
7.73731e-05
7.41808e-05
7.06998e-05
6.6859e-05
6.24486e-05
5.7167e-05
5.03622e-05
3.37337e-05
0.000148355
0.000380511
0.000390994
0.000555128
0.000686842
0.00079064
0.000876135
0.000948899
0.00101257
0.0010695
0.00112113
0.00116848
0.00121233
0.00125323
0.0012916
0.0013278
0.00136207
0.00139463
0.00142565
0.00145528
0.00148362
0.00151077
0.00153681
0.00156181
0.00158583
0.00160892
0.00163112
0.00165248
0.00167302
0.00169278
0.00171179
0.00173007
0.00174764
0.00176454
0.00178078
0.00179639
0.00181137
0.00182576
0.00183957
0.00185281
0.0018655
0.00187766
0.00188931
0.00190045
0.00191111
0.00192129
0.00193102
0.00194029
0.00194914
0.00195756
0.00196557
0.00197318
0.0019804
0.00198724
0.00199367
0.00199965
0.00200518
0.00201039
0.00201527
0.00201985
0.00202412
0.00202811
0.00203181
0.00203524
0.0020384
0.0020413
0.00204394
0.00204634
0.00204848
0.00205039
0.00205207
0.00205351
0.00205473
0.00205573
0.00205652
0.00205709
0.00205745
0.00205761
0.00205756
0.00205732
0.00205688
0.00205625
0.00205544
0.00205443
0.00205324
0.00205188
0.00205033
0.0020486
0.00204671
0.00204464
0.0020424
0.00203999
0.00203741
0.00203467
0.00203177
0.00202871
0.00202548
0.0020221
0.00201855
0.00201486
0.002011
0.00200699
0.00200283
0.00199851
0.00199404
0.00198942
0.00198464
0.00197971
0.00197464
0.00196941
0.00196403
0.00195849
0.00195281
0.00194698
0.00194099
0.00193485
0.00192855
0.0019221
0.0019155
0.00190874
0.00190183
0.00189475
0.00188752
0.00188013
0.00187257
0.00186486
0.00185698
0.00184893
0.00184072
0.00183233
0.00182378
0.00181505
0.00180615
0.00179708
0.00178782
0.00177839
0.00176877
0.00175897
0.00174899
0.00173881
0.00172845
0.00171789
0.00170714
0.00169619
0.00168504
0.00167369
0.00166214
0.00165038
0.00163842
0.00162624
0.00161386
0.00160125
0.00158843
0.00157539
0.00156213
0.00154865
0.00153494
0.001521
0.00150682
0.00149241
0.00147777
0.00146288
0.00144775
0.00143237
0.00141674
0.00140085
0.00138471
0.00136829
0.00135161
0.00133465
0.0013174
0.00129986
0.00128202
0.00126387
0.00124539
0.00122657
0.00120739
0.00118784
0.00116789
0.00114751
0.00112667
0.00110533
0.00108345
0.00106095
0.00103776
0.00101375
0.000988732
0.000962561
0.000935175
0.000906413
0.000876004
0.000843542
0.000808442
0.000769695
0.000725354
0.000673236
0.000610634
0.00053218
0.000430724
0.000309619
0.000184782
0.000380628
0.00039098
0.000555523
0.000687029
0.000790732
0.0008762
0.000948958
0.00101262
0.00106955
0.00112118
0.00116854
0.00121238
0.00125328
0.00129165
0.00132784
0.00136211
0.00139468
0.0014257
0.00145532
0.00148366
0.00151081
0.00153685
0.00156185
0.00158587
0.00160896
0.00163116
0.00165251
0.00167305
0.00169281
0.00171182
0.0017301
0.00174767
0.00176457
0.00178081
0.00179642
0.0018114
0.00182579
0.00183959
0.00185283
0.00186553
0.00187769
0.00188933
0.00190047
0.00191113
0.00192131
0.00193104
0.00194031
0.00194916
0.00195758
0.00196559
0.0019732
0.00198042
0.00198725
0.00199369
0.00199966
0.0020052
0.00201041
0.00201529
0.00201986
0.00202414
0.00202812
0.00203183
0.00203526
0.00203842
0.00204132
0.00204396
0.00204635
0.0020485
0.00205041
0.00205208
0.00205353
0.00205475
0.00205575
0.00205653
0.0020571
0.00205746
0.00205762
0.00205758
0.00205733
0.0020569
0.00205627
0.00205545
0.00205445
0.00205326
0.00205189
0.00205034
0.00204862
0.00204672
0.00204465
0.00204241
0.00204
0.00203743
0.00203469
0.00203178
0.00202872
0.00202549
0.00202211
0.00201857
0.00201487
0.00201101
0.002007
0.00200284
0.00199852
0.00199405
0.00198943
0.00198465
0.00197973
0.00197465
0.00196942
0.00196404
0.00195851
0.00195282
0.00194699
0.001941
0.00193486
0.00192856
0.00192211
0.00191551
0.00190875
0.00190184
0.00189476
0.00188753
0.00188014
0.00187258
0.00186487
0.00185699
0.00184894
0.00184073
0.00183234
0.00182379
0.00181506
0.00180616
0.00179709
0.00178783
0.0017784
0.00176878
0.00175898
0.001749
0.00173882
0.00172846
0.0017179
0.00170715
0.0016962
0.00168505
0.0016737
0.00166215
0.00165039
0.00163843
0.00162625
0.00161386
0.00160126
0.00158844
0.0015754
0.00156214
0.00154866
0.00153495
0.001521
0.00150683
0.00149242
0.00147778
0.00146289
0.00144776
0.00143238
0.00141675
0.00140086
0.00138472
0.0013683
0.00135162
0.00133466
0.00131741
0.00129987
0.00128203
0.00126388
0.0012454
0.00122658
0.0012074
0.00118785
0.0011679
0.00114752
0.00112668
0.00110534
0.00108346
0.00106096
0.00103777
0.00101376
0.000988741
0.000962569
0.000935183
0.000906421
0.000876012
0.00084355
0.00080845
0.000769705
0.000725371
0.00067326
0.000610553
0.000531019
0.000423082
0.000275423
0.000202581
5.95703e-05
0.00052525
0.000927964
0.0012328
0.00147613
0.00167838
0.00185151
0.00200308
0.00213807
0.00225989
0.00237097
0.00247311
0.00256769
0.00265576
0.00273819
0.00281564
0.00288868
0.00295775
0.00302324
0.00308546
0.00314469
0.00320114
0.00325502
0.00330649
0.00335571
0.00340282
0.00344791
0.0034911
0.00353249
0.00357215
0.00361017
0.00364662
0.00368156
0.00371506
0.00374717
0.00377795
0.00380745
0.00383572
0.00386281
0.00388875
0.00391359
0.00393738
0.00396013
0.0039819
0.00400271
0.0040226
0.00404159
0.00405973
0.00407702
0.0040935
0.00410919
0.00412411
0.00413827
0.00415166
0.00416427
0.00417607
0.0041872
0.00419769
0.00420756
0.00421684
0.00422556
0.00423371
0.00424132
0.00424841
0.00425498
0.00426104
0.00426661
0.00427169
0.00427631
0.00428046
0.00428415
0.0042874
0.0042902
0.00429258
0.00429453
0.00429606
0.00429718
0.0042979
0.00429821
0.00429813
0.00429766
0.00429681
0.00429558
0.00429398
0.00429201
0.00428967
0.00428696
0.00428391
0.00428049
0.00427673
0.00427262
0.00426816
0.00426336
0.00425822
0.00425275
0.00424694
0.0042408
0.00423433
0.00422753
0.00422041
0.00421296
0.00420519
0.00419709
0.00418867
0.00417993
0.00417088
0.0041615
0.0041518
0.00414178
0.00413144
0.00412078
0.0041098
0.00409849
0.00408687
0.00407492
0.00406264
0.00405003
0.0040371
0.00402383
0.00401024
0.0039963
0.00398203
0.00396741
0.00395246
0.00393715
0.0039215
0.00390549
0.00388912
0.0038724
0.00385531
0.00383785
0.00382002
0.00380181
0.00378322
0.00376425
0.00374489
0.00372514
0.00370498
0.00368443
0.00366346
0.00364208
0.00362029
0.00359807
0.00357542
0.00355234
0.00352882
0.00350486
0.00348044
0.00345557
0.00343024
0.00340444
0.00337817
0.00335141
0.00332417
0.00329643
0.00326819
0.00323944
0.00321017
0.00318038
0.00315005
0.00311917
0.00308773
0.00305572
0.00302313
0.00298995
0.00295615
0.00292172
0.00288664
0.00285089
0.00281444
0.00277727
0.00273935
0.00270064
0.0026611
0.00262068
0.00257933
0.00253699
0.00249358
0.00244902
0.00240322
0.00235604
0.00230734
0.00225694
0.00220461
0.00215005
0.00209292
0.0020328
0.00196927
0.00190169
0.00182917
0.00175049
0.001664
0.00156716
0.00145624
0.00132582
0.00116923
0.000976076
0.000736604
0.000464527
0.000333644
5.95706e-05
0.000525538
0.000928332
0.00123304
0.00147629
0.00167851
0.00185164
0.0020032
0.0021382
0.00226002
0.00237109
0.00247323
0.0025678
0.00265587
0.00273829
0.00281575
0.00288878
0.00295785
0.00302333
0.00308555
0.00314477
0.00320122
0.00325509
0.00330656
0.00335578
0.00340288
0.00344797
0.00349116
0.00353254
0.0035722
0.00361022
0.00364666
0.0036816
0.0037151
0.00374721
0.00377799
0.00380749
0.00383576
0.00386284
0.00388878
0.00391362
0.0039374
0.00396016
0.00398192
0.00400273
0.00402262
0.00404161
0.00405974
0.00407704
0.00409352
0.0041092
0.00412412
0.00413828
0.00415167
0.00416428
0.00417608
0.00418721
0.00419769
0.00420757
0.00421685
0.00422556
0.00423372
0.00424133
0.00424841
0.00425498
0.00426104
0.00426661
0.0042717
0.00427631
0.00428046
0.00428415
0.0042874
0.0042902
0.00429258
0.00429453
0.00429606
0.00429718
0.0042979
0.00429821
0.00429813
0.00429766
0.00429681
0.00429558
0.00429398
0.004292
0.00428966
0.00428696
0.0042839
0.00428049
0.00427673
0.00427261
0.00426816
0.00426336
0.00425822
0.00425275
0.00424694
0.0042408
0.00423433
0.00422753
0.00422041
0.00421296
0.00420518
0.00419709
0.00418867
0.00417993
0.00417087
0.00416149
0.00415179
0.00414178
0.00413144
0.00412078
0.00410979
0.00409849
0.00408686
0.00407491
0.00406263
0.00405003
0.00403709
0.00402383
0.00401023
0.0039963
0.00398202
0.00396741
0.00395245
0.00393715
0.00392149
0.00390548
0.00388912
0.00387239
0.0038553
0.00383784
0.00382001
0.00380181
0.00378322
0.00376425
0.00374489
0.00372513
0.00370498
0.00368442
0.00366345
0.00364208
0.00362028
0.00359806
0.00357541
0.00355233
0.00352881
0.00350485
0.00348044
0.00345557
0.00343023
0.00340443
0.00337816
0.0033514
0.00332416
0.00329642
0.00326818
0.00323943
0.00321017
0.00318037
0.00315004
0.00311916
0.00308772
0.00305572
0.00302313
0.00298994
0.00295614
0.00292171
0.00288664
0.00285088
0.00281444
0.00277727
0.00273935
0.00270063
0.00266109
0.00262067
0.00257932
0.00253698
0.00249358
0.00244902
0.00240321
0.00235604
0.00230734
0.00225694
0.0022046
0.00215005
0.00209291
0.0020328
0.00196927
0.00190168
0.00182916
0.00175049
0.001664
0.00156716
0.00145624
0.00132577
0.00116861
0.000971023
0.000704677
0.000332217
4.3948e-05
6.46523e-05
0.000620439
0.00117768
0.00162679
0.00199654
0.00230952
0.00258056
0.00281956
0.00303332
0.00322669
0.0034032
0.00356553
0.00371574
0.00385547
0.00398601
0.00410842
0.00422358
0.00433221
0.00443493
0.00453224
0.0046246
0.00471238
0.00479592
0.0048755
0.00495138
0.0050238
0.00509294
0.00515899
0.00522213
0.00528249
0.00534022
0.00539545
0.00544829
0.00549886
0.00554725
0.00559356
0.00563789
0.00568031
0.00572091
0.00575976
0.00579693
0.00583249
0.00586651
0.00589904
0.00593014
0.00595986
0.00598825
0.00601537
0.00604125
0.00606593
0.00608945
0.00611185
0.00613315
0.00615335
0.00617248
0.00619054
0.00620756
0.00622367
0.00623889
0.00625325
0.00626678
0.0062795
0.00629144
0.00630261
0.00631303
0.00632272
0.0063317
0.00633997
0.00634757
0.00635449
0.00636075
0.00636636
0.00637134
0.00637569
0.00637942
0.00638255
0.00638508
0.00638702
0.00638838
0.00638916
0.00638938
0.00638904
0.00638814
0.0063867
0.00638471
0.00638219
0.00637914
0.00637556
0.00637146
0.00636685
0.00636173
0.00635609
0.00634995
0.00634332
0.00633618
0.00632855
0.00632043
0.00631182
0.00630272
0.00629314
0.00628308
0.00627253
0.00626151
0.00625001
0.00623803
0.00622557
0.00621263
0.00619922
0.00618533
0.00617096
0.00615611
0.00614078
0.00612497
0.00610868
0.0060919
0.00607463
0.00605687
0.00603862
0.00601987
0.00600062
0.00598087
0.00596061
0.00593983
0.00591854
0.00589673
0.00587439
0.00585152
0.00582811
0.00580416
0.00577966
0.0057546
0.00572899
0.0057028
0.00567604
0.0056487
0.00562077
0.00559224
0.00556311
0.00553336
0.005503
0.00547201
0.00544038
0.00540811
0.00537518
0.0053416
0.00530734
0.0052724
0.00523676
0.00520043
0.00516338
0.00512561
0.00508711
0.00504786
0.00500785
0.00496706
0.00492549
0.00488311
0.00483992
0.00479589
0.004751
0.00470524
0.00465858
0.00461101
0.00456248
0.00451298
0.00446248
0.00441093
0.00435831
0.00430456
0.00424964
0.0041935
0.00413608
0.0040773
0.00401709
0.00395535
0.003892
0.0038269
0.00375993
0.00369091
0.00361967
0.00354597
0.00346955
0.00339007
0.00330714
0.00322028
0.00312887
0.00303222
0.00292942
0.00281933
0.00270042
0.00257066
0.0024273
0.00226655
0.00208323
0.00187023
0.00161812
0.001314
0.000941968
0.000493217
5.1772e-05
6.46557e-05
0.000620561
0.00117787
0.00162698
0.00199672
0.0023097
0.00258075
0.00281975
0.00303351
0.00322687
0.00340338
0.0035657
0.00371591
0.00385563
0.00398617
0.00410857
0.00422373
0.00433236
0.00443506
0.00453237
0.00462473
0.0047125
0.00479603
0.00487561
0.00495149
0.00502389
0.00509303
0.00515908
0.00522221
0.00528257
0.00534029
0.00539552
0.00544836
0.00549892
0.0055473
0.00559361
0.00563794
0.00568035
0.00572095
0.0057598
0.00579697
0.00583253
0.00586654
0.00589906
0.00593016
0.00595988
0.00598827
0.00601538
0.00604126
0.00606594
0.00608946
0.00611186
0.00613315
0.00615336
0.00617249
0.00619054
0.00620756
0.00622367
0.00623889
0.00625325
0.00626678
0.0062795
0.00629143
0.0063026
0.00631302
0.00632271
0.00633169
0.00633997
0.00634756
0.00635448
0.00636074
0.00636635
0.00637133
0.00637568
0.00637941
0.00638254
0.00638507
0.00638701
0.00638837
0.00638915
0.00638937
0.00638902
0.00638813
0.00638668
0.0063847
0.00638218
0.00637912
0.00637555
0.00637145
0.00636684
0.00636171
0.00635608
0.00634994
0.0063433
0.00633616
0.00632853
0.00632041
0.0063118
0.00630271
0.00629313
0.00628306
0.00627252
0.00626149
0.00624999
0.00623801
0.00622555
0.00621262
0.0061992
0.00618531
0.00617094
0.0061561
0.00614077
0.00612496
0.00610866
0.00609188
0.00607461
0.00605686
0.0060386
0.00601985
0.0060006
0.00598085
0.00596059
0.00593981
0.00591852
0.00589671
0.00587437
0.0058515
0.00582809
0.00580414
0.00577964
0.00575458
0.00572897
0.00570278
0.00567602
0.00564868
0.00562075
0.00559222
0.00556309
0.00553334
0.00550298
0.00547199
0.00544036
0.00540809
0.00537516
0.00534158
0.00530732
0.00527238
0.00523674
0.00520041
0.00516336
0.00512559
0.00508709
0.00504784
0.00500782
0.00496704
0.00492547
0.00488309
0.0048399
0.00479587
0.00475098
0.00470522
0.00465856
0.00461099
0.00456246
0.00451296
0.00446246
0.00441091
0.00435829
0.00430454
0.00424963
0.00419348
0.00413606
0.00407728
0.00401707
0.00395534
0.00389198
0.00382688
0.00375991
0.00369089
0.00361965
0.00354595
0.00346953
0.00339006
0.00330713
0.00322026
0.00312886
0.0030322
0.00292941
0.00281932
0.00270041
0.00257065
0.00242729
0.00226655
0.00208323
0.00187025
0.00161824
0.00131418
0.000939757
0.000475941
5.08564e-05
7.06342e-05
0.000692808
0.00136041
0.00192282
0.0023979
0.00280673
0.00316481
0.00348312
0.00376951
0.00402973
0.00426809
0.00448787
0.00469164
0.00488146
0.00505896
0.0052255
0.00538221
0.00553001
0.00566971
0.00580199
0.00592743
0.00604654
0.00615977
0.00626752
0.00637014
0.00646792
0.00656117
0.00665014
0.00673505
0.00681613
0.00689356
0.00696754
0.00703823
0.00710579
0.00717036
0.00723209
0.00729111
0.00734753
0.00740148
0.00745306
0.00750237
0.00754951
0.00759458
0.00763765
0.00767882
0.00771815
0.00775572
0.0077916
0.00782584
0.00785852
0.00788967
0.00791934
0.00794759
0.00797444
0.00799992
0.00802405
0.00804688
0.0080685
0.00808898
0.00810834
0.00812662
0.00814385
0.00816007
0.0081753
0.00818957
0.00820289
0.00821529
0.0082268
0.00823742
0.00824718
0.00825609
0.00826418
0.00827144
0.0082779
0.00828357
0.00828846
0.00829259
0.00829596
0.00829858
0.00830046
0.00830162
0.00830205
0.00830178
0.0083008
0.00829913
0.00829676
0.00829372
0.00829
0.0082856
0.00828054
0.00827483
0.00826845
0.00826143
0.00825376
0.00824545
0.00823649
0.00822691
0.00821669
0.00820584
0.00819437
0.00818227
0.00816954
0.0081562
0.00814223
0.00812765
0.00811244
0.00809662
0.00808017
0.00806311
0.00804542
0.00802711
0.00800817
0.00798861
0.00796841
0.00794759
0.00792613
0.00790402
0.00788128
0.00785788
0.00783384
0.00780913
0.00778376
0.00775772
0.00773101
0.00770361
0.00767552
0.00764674
0.00761725
0.00758705
0.00755612
0.00752447
0.00749208
0.00745895
0.00742506
0.0073904
0.00735496
0.00731874
0.00728172
0.00724389
0.00720525
0.00716577
0.00712544
0.00708426
0.00704221
0.00699928
0.00695545
0.00691072
0.00686505
0.00681845
0.00677089
0.00672235
0.00667282
0.00662229
0.00657072
0.0065181
0.00646441
0.00640962
0.00635371
0.00629665
0.00623841
0.00617896
0.00611826
0.00605628
0.00599298
0.00592831
0.00586223
0.00579467
0.00572557
0.00565488
0.00558252
0.00550839
0.00543242
0.00535448
0.00527447
0.00519224
0.00510764
0.00502049
0.00493058
0.00483767
0.00474146
0.00464163
0.00453778
0.00442942
0.00431598
0.00419675
0.00407088
0.00393733
0.00379481
0.00364166
0.00347579
0.00329448
0.00309417
0.00287023
0.00261655
0.00232515
0.00198563
0.00158546
0.00111026
0.000555539
5.5663e-05
7.06364e-05
0.000692873
0.00136054
0.00192299
0.00239809
0.00280694
0.00316503
0.00348335
0.00376974
0.00402996
0.00426832
0.00448809
0.00469187
0.00488167
0.00505917
0.00522571
0.0053824
0.0055302
0.00566989
0.00580216
0.00592759
0.0060467
0.00615993
0.00626767
0.00637027
0.00646805
0.0065613
0.00665026
0.00673516
0.00681623
0.00689366
0.00696763
0.00703832
0.00710587
0.00717044
0.00723216
0.00729117
0.00734759
0.00740153
0.00745311
0.00750242
0.00754955
0.00759462
0.00763769
0.00767885
0.00771818
0.00775575
0.00779162
0.00782586
0.00785853
0.00788968
0.00791936
0.0079476
0.00797444
0.00799992
0.00802406
0.00804688
0.0080685
0.00808898
0.00810833
0.00812661
0.00814385
0.00816006
0.00817529
0.00818956
0.00820288
0.00821528
0.00822679
0.00823741
0.00824717
0.00825608
0.00826416
0.00827143
0.00827789
0.00828356
0.00828845
0.00829257
0.00829594
0.00829856
0.00830044
0.0083016
0.00830204
0.00830176
0.00830078
0.00829911
0.00829675
0.0082937
0.00828998
0.00828558
0.00828052
0.0082748
0.00826843
0.00826141
0.00825374
0.00824542
0.00823647
0.00822689
0.00821667
0.00820582
0.00819435
0.00818225
0.00816952
0.00815618
0.00814221
0.00812763
0.00811242
0.00809659
0.00808015
0.00806308
0.0080454
0.00802708
0.00800815
0.00798858
0.00796839
0.00794756
0.0079261
0.007904
0.00788125
0.00785786
0.00783381
0.00780911
0.00778374
0.0077577
0.00773098
0.00770358
0.00767549
0.00764671
0.00761722
0.00758702
0.0075561
0.00752445
0.00749206
0.00745892
0.00742503
0.00739037
0.00735494
0.00731871
0.00728169
0.00724387
0.00720522
0.00716574
0.00712542
0.00708424
0.00704219
0.00699925
0.00695543
0.00691069
0.00686503
0.00681842
0.00677086
0.00672232
0.0066728
0.00662226
0.00657069
0.00651807
0.00646438
0.00640959
0.00635368
0.00629662
0.00623838
0.00617893
0.00611823
0.00605626
0.00599296
0.00592829
0.0058622
0.00579464
0.00572555
0.00565486
0.00558249
0.00550837
0.00543239
0.00535446
0.00527445
0.00519222
0.00510762
0.00502047
0.00493056
0.00483764
0.00474144
0.00464161
0.00453776
0.0044294
0.00431596
0.00419673
0.00407086
0.00393731
0.00379479
0.00364164
0.00347578
0.00329447
0.00309416
0.00287022
0.00261654
0.00232514
0.00198564
0.00158556
0.00111032
0.000553638
5.56708e-05
7.59653e-05
0.000751928
0.00150447
0.00215677
0.00271834
0.00320805
0.00364117
0.00402906
0.00438013
0.00470067
0.00499546
0.00526822
0.00552186
0.0057587
0.00598064
0.00618924
0.00638579
0.00657139
0.00674697
0.00691333
0.00707115
0.00722105
0.00736356
0.00749916
0.00762826
0.00775126
0.0078685
0.0079803
0.00808694
0.0081887
0.00828582
0.00837854
0.00846707
0.00855161
0.00863236
0.00870949
0.00878318
0.00885357
0.00892082
0.00898508
0.00904647
0.00910512
0.00916116
0.0092147
0.00926583
0.00931467
0.00936131
0.00940583
0.00944832
0.00948886
0.00952751
0.00956435
0.00959942
0.00963279
0.0096645
0.00969459
0.00972312
0.00975014
0.00977576
0.00980002
0.00982297
0.00984463
0.00986506
0.00988428
0.00990233
0.00991923
0.00993502
0.00994972
0.00996335
0.00997594
0.0099875
0.00999806
0.0100076
0.0100162
0.0100239
0.0100306
0.0100364
0.0100413
0.0100452
0.0100483
0.0100505
0.0100519
0.0100524
0.010052
0.0100508
0.0100488
0.010046
0.0100423
0.0100378
0.0100326
0.0100265
0.0100197
0.010012
0.0100036
0.00999446
0.00998451
0.00997379
0.00996231
0.00995008
0.00993709
0.00992334
0.00990884
0.00989359
0.0098776
0.00986085
0.00984336
0.00982511
0.00980612
0.00978638
0.00976588
0.00974463
0.00972263
0.00969987
0.00967634
0.00965205
0.00962698
0.00960114
0.00957452
0.00954712
0.00951892
0.00948992
0.00946011
0.00942949
0.00939805
0.00936578
0.00933267
0.00929871
0.00926389
0.0092282
0.00919164
0.00915418
0.00911582
0.00907655
0.00903635
0.00899522
0.00895313
0.00891007
0.00886604
0.00882101
0.00877497
0.00872791
0.00867981
0.00863064
0.00858041
0.00852908
0.00847664
0.00842306
0.00836834
0.00831244
0.00825535
0.00819704
0.00813749
0.00807667
0.00801455
0.00795111
0.00788631
0.00782013
0.00775252
0.00768344
0.00761287
0.00754075
0.00746703
0.00739166
0.00731459
0.00723576
0.00715508
0.0070725
0.00698793
0.00690127
0.00681242
0.00672126
0.00662768
0.00653152
0.00643262
0.0063308
0.00622583
0.00611749
0.00600549
0.0058895
0.00576914
0.00564397
0.00551345
0.00537697
0.00523375
0.00508291
0.00492332
0.00475366
0.00457227
0.00437709
0.00416553
0.00393434
0.00367938
0.00339544
0.00307587
0.00271238
0.00229469
0.0018109
0.00124926
0.000611826
5.98729e-05
7.59673e-05
0.000751982
0.00150459
0.00215694
0.00271855
0.00320829
0.00364142
0.00402932
0.00438039
0.00470093
0.00499573
0.00526849
0.00552212
0.00575895
0.00598089
0.00618948
0.00638603
0.00657162
0.00674719
0.00691353
0.00707135
0.00722124
0.00736375
0.00749933
0.00762843
0.00775142
0.00786865
0.00798044
0.00808708
0.00818883
0.00828594
0.00837865
0.00846718
0.00855171
0.00863246
0.00870958
0.00878326
0.00885364
0.00892089
0.00898514
0.00904653
0.00910518
0.00916121
0.00921474
0.00926587
0.00931471
0.00936134
0.00940586
0.00944835
0.00948888
0.00952753
0.00956436
0.00959944
0.0096328
0.00966451
0.0096946
0.00972313
0.00975015
0.00977576
0.00980002
0.00982296
0.00984463
0.00986505
0.00988427
0.00990232
0.00991922
0.00993501
0.00994971
0.00996334
0.00997592
0.00998748
0.00999804
0.0100076
0.0100162
0.0100239
0.0100306
0.0100364
0.0100412
0.0100452
0.0100483
0.0100505
0.0100519
0.0100524
0.010052
0.0100508
0.0100488
0.0100459
0.0100423
0.0100378
0.0100326
0.0100265
0.0100197
0.010012
0.0100036
0.00999443
0.00998448
0.00997377
0.00996229
0.00995006
0.00993706
0.00992332
0.00990882
0.00989357
0.00987757
0.00986083
0.00984333
0.00982509
0.0098061
0.00978635
0.00976586
0.00974461
0.00972261
0.00969984
0.00967631
0.00965202
0.00962696
0.00960112
0.0095745
0.00954709
0.00951889
0.00948989
0.00946009
0.00942947
0.00939802
0.00936575
0.00933264
0.00929868
0.00926386
0.00922818
0.00919161
0.00915415
0.00911579
0.00907652
0.00903632
0.00899519
0.0089531
0.00891004
0.00886601
0.00882098
0.00877494
0.00872788
0.00867978
0.00863062
0.00858038
0.00852905
0.00847661
0.00842303
0.00836831
0.00831241
0.00825532
0.00819701
0.00813746
0.00807664
0.00801452
0.00795108
0.00788628
0.0078201
0.00775249
0.00768342
0.00761284
0.00754072
0.007467
0.00739163
0.00731456
0.00723573
0.00715506
0.00707247
0.0069879
0.00690124
0.00681239
0.00672124
0.00662765
0.00653149
0.00643259
0.00633077
0.00622581
0.00611747
0.00600546
0.00588947
0.00576912
0.00564394
0.00551343
0.00537694
0.00523373
0.00508288
0.0049233
0.00475364
0.00457225
0.00437707
0.00416551
0.00393432
0.00367937
0.00339543
0.00307587
0.00271237
0.00229467
0.0018109
0.00124929
0.000611623
5.98772e-05
8.08362e-05
0.000802906
0.00162442
0.00234973
0.00298271
0.00354038
0.00403756
0.00448569
0.00489348
0.00526752
0.00561292
0.00593363
0.00623281
0.00651298
0.00677619
0.00702413
0.00725822
0.00747966
0.00768946
0.0078885
0.00807755
0.00825727
0.00842826
0.00859105
0.00874613
0.00889391
0.00903481
0.00916917
0.00929735
0.00941964
0.00953634
0.00964772
0.00975404
0.00985554
0.00995244
0.010045
0.0101333
0.0102177
0.0102982
0.0103751
0.0104486
0.0105188
0.0105858
0.0106497
0.0107108
0.0107691
0.0108248
0.0108779
0.0109286
0.0109769
0.011023
0.0110669
0.0111087
0.0111486
0.0111864
0.0112224
0.0112565
0.0112889
0.0113196
0.0113486
0.0113762
0.0114022
0.0114267
0.0114499
0.0114717
0.0114921
0.0115112
0.011529
0.0115456
0.011561
0.0115752
0.0115882
0.0116001
0.0116108
0.0116204
0.011629
0.0116364
0.0116428
0.0116482
0.0116525
0.0116559
0.0116582
0.0116595
0.0116599
0.0116593
0.0116577
0.0116552
0.0116517
0.0116473
0.011642
0.0116358
0.0116286
0.0116206
0.0116116
0.0116018
0.011591
0.0115794
0.0115669
0.0115536
0.0115393
0.0115242
0.0115082
0.0114914
0.0114736
0.011455
0.0114356
0.0114153
0.0113941
0.0113721
0.0113491
0.0113253
0.0113007
0.0112751
0.0112487
0.0112214
0.0111932
0.011164
0.011134
0.0111031
0.0110712
0.0110384
0.0110047
0.0109701
0.0109344
0.0108979
0.0108603
0.0108217
0.0107822
0.0107416
0.0107
0.0106574
0.0106137
0.0105689
0.0105231
0.0104761
0.0104281
0.0103789
0.0103285
0.010277
0.0102243
0.0101704
0.0101152
0.0100588
0.0100012
0.0099422
0.00988192
0.00982029
0.0097573
0.00969291
0.00962709
0.00955982
0.00949106
0.00942078
0.00934894
0.00927551
0.00920045
0.00912371
0.00904525
0.00896502
0.00888297
0.00879903
0.00871316
0.00862527
0.0085353
0.00844317
0.00834878
0.00825205
0.00815287
0.00805112
0.00794667
0.00783938
0.00772908
0.00761559
0.0074987
0.00737818
0.00725377
0.00712516
0.006992
0.00685388
0.00671034
0.00656082
0.00640467
0.00624111
0.00606924
0.00588796
0.00569593
0.00549155
0.00527287
0.00503748
0.00478241
0.00450399
0.00419768
0.00385785
0.00347759
0.00304852
0.00256071
0.00200321
0.00136692
0.000660303
6.36452e-05
8.08382e-05
0.000802958
0.00162454
0.0023499
0.00298292
0.00354063
0.00403782
0.00448597
0.00489376
0.00526781
0.00561321
0.00593392
0.0062331
0.00651326
0.00677646
0.0070244
0.00725849
0.00747991
0.00768971
0.00788874
0.00807777
0.00825749
0.00842847
0.00859125
0.00874632
0.00889409
0.00903498
0.00916934
0.0092975
0.00941978
0.00953648
0.00964785
0.00975416
0.00985565
0.00995255
0.0100451
0.0101334
0.0102178
0.0102983
0.0103752
0.0104487
0.0105188
0.0105858
0.0106498
0.0107108
0.0107691
0.0108248
0.0108779
0.0109286
0.0109769
0.011023
0.0110669
0.0111088
0.0111486
0.0111864
0.0112224
0.0112565
0.0112889
0.0113196
0.0113486
0.0113762