/*--------------------------------*- C++ -*----------------------------------*\
  =========                 |
  \\      /  F ield         | OpenFOAM: The Open Source CFD Toolbox
   \\    /   O peration     | Website:  https://openfoam.org
    \\  /    A nd           | Version:  8
     \\/     M anipulation  |
\*---------------------------------------------------------------------------*/
FoamFile
{
    version     2.0;
    format      ascii;
    class       volScalarField;
    location    "1500";
    object      nut;
}
// * * * * * * * * * * * * * * * * * * * * * * * * * * * * * * * * * * * * * //

dimensions      [0 2 -1 0 0 0 0];

internalField   nonuniform List<scalar> 
48000
(
0.000156479
5.58208e-05
6.61355e-05
7.53178e-05
8.29428e-05
8.93422e-05
9.49776e-05
0.00010004
0.000104633
0.000108874
0.000112829
0.000116547
0.000120065
0.000123408
0.0001266
0.000129656
0.000132589
0.00013541
0.000138127
0.000140747
0.000143275
0.000145715
0.000148073
0.00015035
0.00015255
0.000154675
0.000156727
0.000158708
0.000160621
0.000162465
0.000164243
0.000165957
0.000167608
0.000169197
0.000170725
0.000172194
0.000173605
0.000174959
0.000176258
0.000177503
0.000178695
0.000179836
0.000180926
0.000181967
0.00018296
0.000183906
0.000184807
0.000185663
0.000186476
0.000187248
0.000187978
0.000188668
0.000189319
0.000189932
0.00019051
0.000191055
0.000191567
0.000192045
0.00019249
0.000192904
0.000193286
0.000193638
0.00019396
0.000194253
0.000194519
0.000194758
0.00019497
0.000195156
0.000195317
0.000195454
0.000195567
0.000195656
0.000195723
0.000195768
0.000195791
0.000195792
0.000195773
0.000195734
0.000195675
0.000195596
0.000195498
0.000195382
0.000195247
0.000195094
0.000194924
0.000194736
0.00019453
0.000194309
0.00019407
0.000193815
0.000193544
0.000193258
0.000192955
0.000192637
0.000192304
0.000191956
0.000191592
0.000191214
0.000190822
0.000190414
0.000189993
0.000189557
0.000189106
0.000188642
0.000188163
0.000187671
0.000187164
0.000186644
0.000186109
0.000185561
0.000184999
0.000184423
0.000183833
0.000183229
0.000182612
0.00018198
0.000181334
0.000180674
0.00018
0.000179312
0.000178609
0.000177892
0.00017716
0.000176414
0.000175653
0.000174877
0.000174086
0.000173279
0.000172457
0.00017162
0.000170767
0.000169898
0.000169013
0.000168112
0.000167194
0.000166259
0.000165308
0.00016434
0.000163354
0.000162351
0.00016133
0.000160291
0.000159234
0.000158159
0.000157065
0.000155953
0.000154821
0.00015367
0.0001525
0.00015131
0.0001501
0.00014887
0.00014762
0.000146349
0.000145057
0.000143744
0.00014241
0.000141054
0.000139677
0.000138277
0.000136855
0.000135411
0.000133944
0.000132453
0.000130939
0.000129401
0.000127839
0.000126252
0.00012464
0.000123003
0.000121339
0.000119648
0.000117929
0.000116182
0.000114405
0.000112597
0.000110757
0.000108883
0.000106973
0.000105025
0.000103036
0.000101003
9.8923e-05
9.67918e-05
9.46067e-05
9.23715e-05
9.00842e-05
8.77106e-05
8.52334e-05
8.26335e-05
7.98831e-05
7.69459e-05
7.37708e-05
7.03066e-05
6.64771e-05
6.20482e-05
5.66613e-05
5.04134e-05
0.000222805
0.000131118
0.000156783
5.58261e-05
6.61499e-05
7.53227e-05
8.29446e-05
8.93435e-05
9.49788e-05
0.000100041
0.000104634
0.000108875
0.00011283
0.000116548
0.000120065
0.000123409
0.000126601
0.000129657
0.00013259
0.000135411
0.000138128
0.000140747
0.000143275
0.000145716
0.000148073
0.000150351
0.00015255
0.000154675
0.000156728
0.000158709
0.000160621
0.000162465
0.000164244
0.000165957
0.000167608
0.000169197
0.000170725
0.000172194
0.000173605
0.000174959
0.000176258
0.000177503
0.000178695
0.000179836
0.000180926
0.000181966
0.000182959
0.000183906
0.000184807
0.000185663
0.000186476
0.000187248
0.000187978
0.000188668
0.000189319
0.000189931
0.00019051
0.000191055
0.000191567
0.000192045
0.00019249
0.000192904
0.000193286
0.000193637
0.00019396
0.000194253
0.000194519
0.000194758
0.00019497
0.000195156
0.000195317
0.000195454
0.000195567
0.000195656
0.000195723
0.000195768
0.000195791
0.000195792
0.000195773
0.000195734
0.000195675
0.000195596
0.000195498
0.000195382
0.000195247
0.000195094
0.000194923
0.000194735
0.00019453
0.000194308
0.00019407
0.000193815
0.000193544
0.000193257
0.000192955
0.000192637
0.000192304
0.000191955
0.000191592
0.000191214
0.000190821
0.000190414
0.000189992
0.000189556
0.000189106
0.000188642
0.000188163
0.000187671
0.000187164
0.000186644
0.000186109
0.000185561
0.000184999
0.000184423
0.000183833
0.000183229
0.000182611
0.00018198
0.000181334
0.000180674
0.00018
0.000179312
0.000178609
0.000177892
0.00017716
0.000176414
0.000175653
0.000174877
0.000174086
0.000173279
0.000172457
0.00017162
0.000170767
0.000169898
0.000169013
0.000168111
0.000167194
0.000166259
0.000165308
0.00016434
0.000163354
0.000162351
0.00016133
0.000160291
0.000159234
0.000158159
0.000157065
0.000155953
0.000154821
0.00015367
0.0001525
0.00015131
0.0001501
0.00014887
0.00014762
0.000146349
0.000145057
0.000143744
0.00014241
0.000141054
0.000139677
0.000138277
0.000136855
0.000135411
0.000133944
0.000132453
0.000130939
0.000129401
0.000127839
0.000126252
0.00012464
0.000123003
0.000121339
0.000119648
0.000117929
0.000116182
0.000114405
0.000112597
0.000110757
0.000108883
0.000106973
0.000105025
0.000103036
0.000101003
9.89231e-05
9.67918e-05
9.46067e-05
9.23715e-05
9.00842e-05
8.77106e-05
8.52334e-05
8.26335e-05
7.98831e-05
7.69461e-05
7.37714e-05
7.03096e-05
6.649e-05
6.2104e-05
5.68515e-05
5.00842e-05
3.35475e-05
0.000147537
0.000378417
0.000388842
0.000552073
0.000683062
0.000786289
0.000871313
0.000943677
0.001007
0.00106361
0.00111495
0.00116205
0.00120566
0.00124633
0.00128449
0.00132049
0.00135457
0.00138695
0.00141781
0.00144727
0.00147545
0.00150245
0.00152835
0.00155321
0.0015771
0.00160006
0.00162214
0.00164338
0.0016638
0.00168345
0.00170236
0.00172054
0.00173802
0.00175482
0.00177097
0.00178649
0.00180139
0.0018157
0.00182943
0.0018426
0.00185522
0.00186731
0.00187889
0.00188998
0.00190057
0.0019107
0.00192037
0.0019296
0.00193839
0.00194677
0.00195473
0.0019623
0.00196948
0.00197628
0.00198268
0.00198862
0.00199413
0.0019993
0.00200416
0.00200871
0.00201296
0.00201692
0.0020206
0.00202401
0.00202716
0.00203004
0.00203267
0.00203505
0.00203718
0.00203908
0.00204075
0.00204218
0.0020434
0.00204439
0.00204517
0.00204574
0.0020461
0.00204625
0.00204621
0.00204597
0.00204553
0.00204491
0.00204409
0.0020431
0.00204191
0.00204055
0.00203901
0.0020373
0.00203541
0.00203335
0.00203113
0.00202873
0.00202617
0.00202344
0.00202056
0.00201751
0.0020143
0.00201094
0.00200741
0.00200374
0.0019999
0.00199591
0.00199177
0.00198748
0.00198303
0.00197844
0.00197369
0.00196879
0.00196374
0.00195854
0.00195319
0.00194769
0.00194203
0.00193623
0.00193028
0.00192417
0.00191791
0.0019115
0.00190493
0.00189821
0.00189133
0.0018843
0.0018771
0.00186975
0.00186224
0.00185457
0.00184673
0.00183873
0.00183056
0.00182222
0.00181371
0.00180504
0.00179619
0.00178716
0.00177796
0.00176857
0.00175901
0.00174926
0.00173933
0.00172922
0.00171891
0.00170841
0.00169772
0.00168683
0.00167574
0.00166446
0.00165297
0.00164128
0.00162938
0.00161727
0.00160495
0.00159242
0.00157967
0.0015667
0.00155351
0.0015401
0.00152647
0.0015126
0.00149851
0.00148418
0.00146961
0.00145481
0.00143976
0.00142447
0.00140892
0.00139312
0.00137707
0.00136074
0.00134415
0.00132728
0.00131013
0.00129269
0.00127495
0.00125689
0.00123851
0.0012198
0.00120073
0.00118128
0.00116144
0.00114118
0.00112045
0.00109923
0.00107747
0.0010551
0.00103203
0.00100815
0.000983276
0.000957248
0.000930014
0.000901411
0.00087117
0.000838887
0.00080398
0.000765447
0.000721351
0.000669521
0.000607264
0.000529243
0.000428347
0.00030791
0.000183762
0.000378533
0.000388828
0.000552466
0.000683248
0.00078638
0.000871378
0.000943735
0.00100705
0.00106367
0.00111501
0.0011621
0.00120571
0.00124638
0.00128454
0.00132053
0.00135462
0.001387
0.00141785
0.00144731
0.00147549
0.00150249
0.00152839
0.00155325
0.00157714
0.0016001
0.00162218
0.00164341
0.00166384
0.00168349
0.00170239
0.00172057
0.00173805
0.00175485
0.001771
0.00178652
0.00180142
0.00181573
0.00182946
0.00184262
0.00185524
0.00186734
0.00187892
0.00189
0.0019006
0.00191072
0.00192039
0.00192962
0.00193841
0.00194679
0.00195475
0.00196232
0.0019695
0.0019763
0.0019827
0.00198864
0.00199414
0.00199932
0.00200417
0.00200872
0.00201297
0.00201694
0.00202062
0.00202403
0.00202717
0.00203005
0.00203268
0.00203506
0.0020372
0.0020391
0.00204076
0.0020422
0.00204341
0.0020444
0.00204518
0.00204575
0.00204611
0.00204627
0.00204622
0.00204598
0.00204555
0.00204492
0.00204411
0.00204311
0.00204193
0.00204057
0.00203903
0.00203731
0.00203542
0.00203337
0.00203114
0.00202874
0.00202618
0.00202346
0.00202057
0.00201752
0.00201431
0.00201095
0.00200743
0.00200375
0.00199991
0.00199593
0.00199179
0.00198749
0.00198305
0.00197845
0.0019737
0.0019688
0.00196375
0.00195855
0.0019532
0.0019477
0.00194204
0.00193624
0.00193029
0.00192418
0.00191792
0.00191151
0.00190494
0.00189822
0.00189134
0.00188431
0.00187711
0.00186976
0.00186225
0.00185458
0.00184674
0.00183874
0.00183057
0.00182223
0.00181372
0.00180505
0.0017962
0.00178717
0.00177797
0.00176858
0.00175902
0.00174927
0.00173934
0.00172922
0.00171892
0.00170842
0.00169773
0.00168684
0.00167575
0.00166447
0.00165298
0.00164128
0.00162939
0.00161728
0.00160496
0.00159242
0.00157968
0.00156671
0.00155352
0.00154011
0.00152647
0.00151261
0.00149852
0.00148419
0.00146962
0.00145482
0.00143977
0.00142448
0.00140893
0.00139313
0.00137707
0.00136075
0.00134416
0.00132729
0.00131014
0.0012927
0.00127496
0.0012569
0.00123852
0.00121981
0.00120074
0.00118129
0.00116145
0.00114118
0.00112046
0.00109924
0.00107748
0.00105511
0.00103204
0.00100816
0.000983284
0.000957257
0.000930022
0.000901419
0.000871177
0.000838894
0.000803988
0.000765457
0.000721368
0.000669544
0.000607183
0.000528089
0.000420747
0.000273903
0.000201463
5.92425e-05
0.000522359
0.000922857
0.00122602
0.00146801
0.00166914
0.00184132
0.00199205
0.00212631
0.00224746
0.00235792
0.0024595
0.00255355
0.00264115
0.00272312
0.00280014
0.00287278
0.00294147
0.0030066
0.00306847
0.00312737
0.00318351
0.00323709
0.00328828
0.00333723
0.00338407
0.00342892
0.00347187
0.00351303
0.00355247
0.00359028
0.00362653
0.00366128
0.00369459
0.00372652
0.00375713
0.00378647
0.00381459
0.00384152
0.00386732
0.00389203
0.00391567
0.0039383
0.00395995
0.00398065
0.00400042
0.00401931
0.00403734
0.00405454
0.00407093
0.00408653
0.00410137
0.00411545
0.00412877
0.00414131
0.00415304
0.00416411
0.00417453
0.00418435
0.00419358
0.00420225
0.00421036
0.00421793
0.00422497
0.0042315
0.00423753
0.00424307
0.00424813
0.00425272
0.00425684
0.00426051
0.00426374
0.00426653
0.00426889
0.00427083
0.00427235
0.00427347
0.00427418
0.00427449
0.00427441
0.00427395
0.0042731
0.00427188
0.00427028
0.00426832
0.00426599
0.00426331
0.00426026
0.00425687
0.00425313
0.00424904
0.0042446
0.00423983
0.00423472
0.00422928
0.0042235
0.0042174
0.00421096
0.0042042
0.00419712
0.00418971
0.00418198
0.00417393
0.00416556
0.00415687
0.00414786
0.00413853
0.00412888
0.00411892
0.00410864
0.00409804
0.00408712
0.00407587
0.00406431
0.00405243
0.00404022
0.00402768
0.00401482
0.00400163
0.0039881
0.00397425
0.00396005
0.00394552
0.00393064
0.00391542
0.00389985
0.00388393
0.00386766
0.00385103
0.00383403
0.00381667
0.00379894
0.00378083
0.00376235
0.00374348
0.00372422
0.00370458
0.00368453
0.00366409
0.00364324
0.00362198
0.00360031
0.00357821
0.00355569
0.00353274
0.00350935
0.00348551
0.00346123
0.0034365
0.00341131
0.00338565
0.00335952
0.00333291
0.00330582
0.00327824
0.00325015
0.00322156
0.00319246
0.00316283
0.00313266
0.00310195
0.00307069
0.00303886
0.00300645
0.00297345
0.00293983
0.0029056
0.00287071
0.00283516
0.00279891
0.00276195
0.00272423
0.00268573
0.00264641
0.00260621
0.00256509
0.00252298
0.00247982
0.00243551
0.00238996
0.00234304
0.00229461
0.00224448
0.00219244
0.00213819
0.00208137
0.00202158
0.0019584
0.00189119
0.00181907
0.00174083
0.00165481
0.00155851
0.0014482
0.0013185
0.00116278
0.00097069
0.000732539
0.000461963
0.000331803
5.92427e-05
0.000522646
0.000923224
0.00122625
0.00146817
0.00166927
0.00184145
0.00199218
0.00212643
0.00224758
0.00235804
0.00245962
0.00255367
0.00264125
0.00272322
0.00280024
0.00287287
0.00294156
0.00300669
0.00306856
0.00312745
0.00318359
0.00323717
0.00328836
0.0033373
0.00338414
0.00342898
0.00347193
0.00351309
0.00355253
0.00359033
0.00362658
0.00366132
0.00369463
0.00372656
0.00375717
0.00378651
0.00381462
0.00384155
0.00386735
0.00389205
0.0039157
0.00393833
0.00395997
0.00398067
0.00400044
0.00401933
0.00403736
0.00405456
0.00407094
0.00408655
0.00410138
0.00411546
0.00412878
0.00414132
0.00415305
0.00416411
0.00417454
0.00418436
0.00419359
0.00420225
0.00421036
0.00421793
0.00422498
0.00423151
0.00423753
0.00424307
0.00424813
0.00425272
0.00425684
0.00426051
0.00426374
0.00426653
0.00426889
0.00427083
0.00427236
0.00427347
0.00427418
0.00427449
0.00427441
0.00427395
0.0042731
0.00427188
0.00427028
0.00426832
0.00426599
0.00426331
0.00426026
0.00425687
0.00425312
0.00424903
0.0042446
0.00423983
0.00423472
0.00422928
0.0042235
0.0042174
0.00421096
0.0042042
0.00419712
0.00418971
0.00418198
0.00417393
0.00416555
0.00415686
0.00414785
0.00413853
0.00412888
0.00411892
0.00410864
0.00409803
0.00408711
0.00407587
0.00406431
0.00405242
0.00404021
0.00402768
0.00401482
0.00400162
0.0039881
0.00397424
0.00396005
0.00394551
0.00393064
0.00391542
0.00389985
0.00388393
0.00386765
0.00385102
0.00383402
0.00381666
0.00379893
0.00378082
0.00376234
0.00374347
0.00372422
0.00370457
0.00368453
0.00366409
0.00364324
0.00362198
0.0036003
0.0035782
0.00355568
0.00353273
0.00350934
0.00348551
0.00346123
0.0034365
0.0034113
0.00338565
0.00335952
0.00333291
0.00330582
0.00327823
0.00325015
0.00322156
0.00319245
0.00316282
0.00313265
0.00310195
0.00307068
0.00303885
0.00300644
0.00297344
0.00293983
0.00290559
0.0028707
0.00283515
0.00279891
0.00276194
0.00272423
0.00268573
0.0026464
0.00260621
0.00256509
0.00252298
0.00247981
0.0024355
0.00238995
0.00234303
0.0022946
0.00224448
0.00219244
0.00213818
0.00208136
0.00202158
0.0019584
0.00189119
0.00181907
0.00174083
0.00165481
0.00155851
0.0014482
0.00131845
0.00116216
0.000965664
0.000700788
0.000330384
4.37054e-05
6.42965e-05
0.000617025
0.0011712
0.00161784
0.00198555
0.00229681
0.00256636
0.00280404
0.00301663
0.00320893
0.00338447
0.0035459
0.00369529
0.00383424
0.00396406
0.0040858
0.00420033
0.00430836
0.00441051
0.00450729
0.00459914
0.00468643
0.00476951
0.00484865
0.00492412
0.00499613
0.00506489
0.00513058
0.00519336
0.00525339
0.0053108
0.00536573
0.00541828
0.00546856
0.00551668
0.00556274
0.00560682
0.00564901
0.00568938
0.00572802
0.00576498
0.00580035
0.00583417
0.00586652
0.00589745
0.005927
0.00595524
0.0059822
0.00600794
0.00603248
0.00605588
0.00607815
0.00609932
0.00611942
0.00613844
0.0061564
0.00617332
0.00618934
0.00620448
0.00621876
0.00623221
0.00624486
0.00625673
0.00626784
0.0062782
0.00628784
0.00629677
0.006305
0.00631255
0.00631943
0.00632565
0.00633124
0.00633618
0.00634051
0.00634422
0.00634733
0.00634985
0.00635178
0.00635313
0.00635391
0.00635412
0.00635378
0.00635289
0.00635145
0.00634948
0.00634697
0.00634394
0.00634038
0.0063363
0.00633172
0.00632662
0.00632101
0.00631491
0.00630831
0.00630121
0.00629363
0.00628555
0.00627699
0.00626794
0.00625841
0.0062484
0.00623792
0.00622695
0.00621552
0.0062036
0.00619121
0.00617835
0.00616501
0.00615119
0.0061369
0.00612214
0.00610689
0.00609117
0.00607497
0.00605828
0.00604111
0.00602345
0.0060053
0.00598665
0.00596751
0.00594786
0.00592771
0.00590705
0.00588588
0.00586419
0.00584197
0.00581923
0.00579595
0.00577213
0.00574776
0.00572284
0.00569737
0.00567133
0.00564471
0.00561752
0.00558975
0.00556137
0.0055324
0.00550282
0.00547263
0.00544181
0.00541036
0.00537826
0.00534552
0.00531212
0.00527805
0.0052433
0.00520786
0.00517173
0.00513489
0.00509733
0.00505903
0.00502
0.00498021
0.00493965
0.0048983
0.00485616
0.00481321
0.00476942
0.00472478
0.00467927
0.00463287
0.00458556
0.0045373
0.00448808
0.00443785
0.00438659
0.00433426
0.00428081
0.00422619
0.00417036
0.00411325
0.0040548
0.00399492
0.00393352
0.00387052
0.00380578
0.00373918
0.00367054
0.00359969
0.0035264
0.0034504
0.00337136
0.00328889
0.0032025
0.00311161
0.00301548
0.00291325
0.00280377
0.00268551
0.00255647
0.0024139
0.00225404
0.00207173
0.0018599
0.00160919
0.00130675
0.00093677
0.000490495
5.14863e-05
6.42999e-05
0.000617146
0.00117139
0.00161803
0.00198573
0.00229699
0.00256654
0.00280423
0.00301681
0.00320911
0.00338465
0.00354608
0.00369546
0.00383441
0.00396422
0.00408596
0.00420048
0.0043085
0.00441065
0.00450742
0.00459926
0.00468655
0.00476962
0.00484876
0.00492422
0.00499622
0.00506498
0.00513066
0.00519344
0.00525347
0.00531088
0.00536579
0.00541834
0.00546862
0.00551674
0.00556279
0.00560687
0.00564905
0.00568942
0.00572805
0.00576502
0.00580038
0.0058342
0.00586655
0.00589747
0.00592702
0.00595526
0.00598222
0.00600795
0.0060325
0.00605589
0.00607816
0.00609933
0.00611942
0.00613844
0.0061564
0.00617333
0.00618934
0.00620448
0.00621876
0.00623221
0.00624486
0.00625673
0.00626783
0.0062782
0.00628783
0.00629676
0.00630499
0.00631254
0.00631942
0.00632564
0.00633123
0.00633617
0.0063405
0.00634421
0.00634732
0.00634984
0.00635176
0.00635311
0.00635389
0.00635411
0.00635377
0.00635288
0.00635144
0.00634946
0.00634696
0.00634392
0.00634036
0.00633629
0.0063317
0.0063266
0.006321
0.0063149
0.00630829
0.0063012
0.00629361
0.00628553
0.00627697
0.00626792
0.0062584
0.00624839
0.0062379
0.00622694
0.0062155
0.00620358
0.00619119
0.00617833
0.00616499
0.00615118
0.00613689
0.00612212
0.00610688
0.00609115
0.00607495
0.00605826
0.00604109
0.00602343
0.00600528
0.00598663
0.00596749
0.00594784
0.00592769
0.00590703
0.00588586
0.00586417
0.00584195
0.00581921
0.00579593
0.00577211
0.00574774
0.00572283
0.00569735
0.00567131
0.00564469
0.0056175
0.00558973
0.00556136
0.00553238
0.0055028
0.00547261
0.00544179
0.00541034
0.00537824
0.0053455
0.0053121
0.00527803
0.00524328
0.00520784
0.00517171
0.00513487
0.00509731
0.00505901
0.00501998
0.00498019
0.00493963
0.00489828
0.00485614
0.00481319
0.0047694
0.00472476
0.00467925
0.00463285
0.00458554
0.00453728
0.00448806
0.00443783
0.00438657
0.00433424
0.00428079
0.00422617
0.00417034
0.00411323
0.00405478
0.0039949
0.00393351
0.0038705
0.00380576
0.00373916
0.00367052
0.00359967
0.00352638
0.00345038
0.00337135
0.00328888
0.00320249
0.00311159
0.00301547
0.00291324
0.00280376
0.0026855
0.00255647
0.0024139
0.00225404
0.00207173
0.00185993
0.00160931
0.00130693
0.000934571
0.000473314
5.05758e-05
7.02455e-05
0.000688995
0.00135292
0.00191224
0.0023847
0.00279128
0.00314739
0.00346395
0.00374876
0.00400755
0.0042446
0.00446317
0.00466582
0.00485459
0.00503111
0.00519674
0.00535258
0.00549957
0.00563849
0.00577004
0.00589479
0.00601325
0.00612586
0.00623301
0.00633505
0.0064323
0.00652504
0.00661351
0.00669795
0.00677858
0.00685559
0.00692916
0.00699946
0.00706664
0.00713086
0.00719224
0.00725093
0.00730704
0.00736069
0.00741198
0.00746102
0.0075079
0.00755272
0.00759555
0.00763649
0.0076756
0.00771296
0.00774864
0.0077827
0.00781518
0.00784616
0.00787567
0.00790376
0.00793046
0.0079558
0.0079798
0.0080025
0.008024
0.00804436
0.00806361
0.00808179
0.00809893
0.00811506
0.0081302
0.00814439
0.00815764
0.00816997
0.00818141
0.00819197
0.00820168
0.00821054
0.00821858
0.0082258
0.00823223
0.00823787
0.00824273
0.00824683
0.00825018
0.00825279
0.00825466
0.00825581
0.00825624
0.00825597
0.008255
0.00825333
0.00825098
0.00824795
0.00824425
0.00823988
0.00823485
0.00822916
0.00822282
0.00821584
0.00820821
0.00819994
0.00819104
0.00818151
0.00817134
0.00816056
0.00814914
0.00813711
0.00812446
0.00811119
0.0080973
0.00808279
0.00806767
0.00805193
0.00803558
0.00801861
0.00800102
0.00798281
0.00796398
0.00794452
0.00792444
0.00790373
0.00788238
0.0078604
0.00783778
0.00781452
0.0077906
0.00776603
0.0077408
0.00771491
0.00768834
0.00766109
0.00763316
0.00760453
0.00757521
0.00754517
0.00751442
0.00748295
0.00745074
0.00741778
0.00738408
0.00734961
0.00731437
0.00727835
0.00724153
0.00720392
0.00716548
0.00712622
0.00708612
0.00704517
0.00700335
0.00696065
0.00691707
0.00687258
0.00682717
0.00678082
0.00673352
0.00668525
0.006636
0.00658574
0.00653446
0.00648213
0.00642873
0.00637425
0.00631864
0.0062619
0.00620398
0.00614486
0.0060845
0.00602286
0.00595991
0.0058956
0.00582987
0.00576269
0.00569398
0.00562367
0.00555171
0.00547799
0.00540244
0.00532493
0.00524536
0.00516359
0.00507946
0.00499279
0.00490337
0.00481097
0.00471529
0.00461602
0.00451274
0.00440497
0.00429216
0.00417359
0.00404841
0.0039156
0.00377386
0.00362156
0.00345661
0.0032763
0.0030771
0.00285439
0.00260211
0.00231231
0.00197467
0.00157671
0.00110413
0.000552473
5.53558e-05
7.02477e-05
0.00068906
0.00135305
0.00191241
0.0023849
0.00279149
0.00314762
0.00346418
0.00374899
0.00400778
0.00424482
0.00446339
0.00466604
0.0048548
0.00503132
0.00519694
0.00535277
0.00549975
0.00563867
0.00577021
0.00589496
0.0060134
0.00612601
0.00623315
0.00633519
0.00643243
0.00652516
0.00661363
0.00669806
0.00677869
0.00685569
0.00692925
0.00699954
0.00706672
0.00713093
0.00719231
0.007251
0.0073071
0.00736074
0.00741203
0.00746106
0.00750794
0.00755275
0.00759559
0.00763652
0.00767563
0.00771299
0.00774866
0.00778271
0.0078152
0.00784618
0.00787568
0.00790377
0.00793047
0.0079558
0.0079798
0.0080025
0.008024
0.00804436
0.00806361
0.00808179
0.00809892
0.00811505
0.00813019
0.00814438
0.00815763
0.00816996
0.0081814
0.00819196
0.00820167
0.00821053
0.00821856
0.00822579
0.00823221
0.00823785
0.00824271
0.00824681
0.00825016
0.00825277
0.00825464
0.00825579
0.00825622
0.00825595
0.00825498
0.00825331
0.00825096
0.00824793
0.00824423
0.00823986
0.00823483
0.00822914
0.0082228
0.00821582
0.00820819
0.00819992
0.00819102
0.00818149
0.00817132
0.00816054
0.00814912
0.00813709
0.00812444
0.00811117
0.00809728
0.00808277
0.00806765
0.00805191
0.00803556
0.00801858
0.00800099
0.00798278
0.00796395
0.0079445
0.00792441
0.0079037
0.00788236
0.00786038
0.00783776
0.00781449
0.00779058
0.00776601
0.00774078
0.00771488
0.00768831
0.00766107
0.00763314
0.00760451
0.00757518
0.00754515
0.0075144
0.00748292
0.00745071
0.00741776
0.00738405
0.00734959
0.00731435
0.00727832
0.00724151
0.00720389
0.00716545
0.00712619
0.00708609
0.00704514
0.00700332
0.00696063
0.00691704
0.00687255
0.00682714
0.00678079
0.00673349
0.00668522
0.00663597
0.00658571
0.00653443
0.0064821
0.0064287
0.00637422
0.00631862
0.00626187
0.00620395
0.00614483
0.00608447
0.00602283
0.00595988
0.00589557
0.00582985
0.00576266
0.00569395
0.00562365
0.00555168
0.00547797
0.00540241
0.00532491
0.00524534
0.00516356
0.00507943
0.00499276
0.00490335
0.00481094
0.00471527
0.00461599
0.00451271
0.00440495
0.00429214
0.00417357
0.0040484
0.00391558
0.00377385
0.00362155
0.00345659
0.00327629
0.00307709
0.00285438
0.0026021
0.0023123
0.00197468
0.00157681
0.00110419
0.000550583
5.53636e-05
7.55473e-05
0.000747791
0.00149619
0.0021449
0.00270338
0.0031904
0.00362113
0.00400689
0.00435602
0.0046748
0.00496797
0.00523923
0.00549147
0.005727
0.00594772
0.00615517
0.00635064
0.00653522
0.00670983
0.00687526
0.00703222
0.00718129
0.00732301
0.00745786
0.00758626
0.00770857
0.00782517
0.00793634
0.0080424
0.00814359
0.00824018
0.00833238
0.00842042
0.0085045
0.0085848
0.0086615
0.00873478
0.00880478
0.00887166
0.00893556
0.00899661
0.00905494
0.00911066
0.0091639
0.00921475
0.00926332
0.0093097
0.00935397
0.00939623
0.00943654
0.00947498
0.0095116
0.00954648
0.00957966
0.0096112
0.00964112
0.00966949
0.00969637
0.00972184
0.00974597
0.00976878
0.00979033
0.00981064
0.00982975
0.0098477
0.00986451
0.00988021
0.00989482
0.00990838
0.00992089
0.00993239
0.00994289
0.00995241
0.00996096
0.00996857
0.00997524
0.009981
0.00998584
0.0099898
0.00999287
0.00999507
0.00999641
0.0099969
0.00999655
0.00999536
0.00999335
0.00999052
0.00998689
0.00998245
0.00997721
0.00997119
0.00996438
0.00995679
0.00994843
0.0099393
0.00992941
0.00991875
0.00990734
0.00989517
0.00988225
0.00986858
0.00985416
0.00983899
0.00982308
0.00980643
0.00978903
0.00977089
0.009752
0.00973237
0.00971199
0.00969086
0.00966897
0.00964633
0.00962294
0.00959878
0.00957385
0.00954816
0.00952168
0.00949443
0.00946638
0.00943754
0.0094079
0.00937745
0.00934618
0.00931409
0.00928116
0.00924739
0.00921276
0.00917727
0.00914091
0.00910366
0.00906551
0.00902646
0.00898648
0.00894557
0.00890372
0.0088609
0.00881711
0.00877233
0.00872654
0.00867974
0.0086319
0.00858301
0.00853305
0.00848201
0.00842986
0.00837658
0.00832216
0.00826657
0.00820979
0.0081518
0.00809258
0.0080321
0.00797032
0.00790723
0.00784279
0.00777697
0.00770973
0.00764104
0.00757086
0.00749913
0.00742582
0.00735087
0.00727422
0.00719582
0.0071156
0.00703347
0.00694936
0.00686318
0.00677482
0.00668417
0.0065911
0.00649547
0.00639712
0.00629586
0.00619147
0.00608373
0.00597234
0.00585699
0.0057373
0.00561282
0.00548303
0.00534729
0.00520487
0.00505485
0.00489615
0.00472743
0.00454704
0.00435293
0.00414254
0.00391262
0.00365908
0.0033767
0.0030589
0.00269741
0.00228202
0.00180091
0.00124236
0.00060845
5.95424e-05
7.55493e-05
0.000747844
0.00149631
0.00214507
0.00270359
0.00319063
0.00362138
0.00400714
0.00435628
0.00467506
0.00496824
0.00523949
0.00549172
0.00572725
0.00594797
0.00615541
0.00635087
0.00653544
0.00671004
0.00687547
0.00703242
0.00718148
0.0073232
0.00745804
0.00758642
0.00770873
0.00782532
0.00793648
0.00804253
0.00814372
0.0082403
0.00833249
0.00842053
0.0085046
0.00858489
0.00866159
0.00873486
0.00880485
0.00887173
0.00893562
0.00899667
0.00905499
0.00911071
0.00916394
0.00921479
0.00926336
0.00930973
0.009354
0.00939625
0.00943656
0.009475
0.00951162
0.0095465
0.00957968
0.00961121
0.00964113
0.0096695
0.00969637
0.00972184
0.00974597
0.00976878
0.00979032
0.00981063
0.00982975
0.00984769
0.0098645
0.0098802
0.00989481
0.00990837
0.00992088
0.00993238
0.00994288
0.00995239
0.00996095
0.00996855
0.00997523
0.00998098
0.00998583
0.00998978
0.00999285
0.00999505
0.00999639
0.00999688
0.00999653
0.00999534
0.00999333
0.0099905
0.00998687
0.00998243
0.00997719
0.00997117
0.00996436
0.00995677
0.00994841
0.00993928
0.00992938
0.00991873
0.00990731
0.00989514
0.00988222
0.00986855
0.00985413
0.00983897
0.00982306
0.00980641
0.00978901
0.00977087
0.00975198
0.00973234
0.00971196
0.00969083
0.00966895
0.00964631
0.00962291
0.00959875
0.00957383
0.00954813
0.00952166
0.0094944
0.00946636
0.00943752
0.00940788
0.00937743
0.00934616
0.00931406
0.00928114
0.00924736
0.00921274
0.00917725
0.00914088
0.00910363
0.00906549
0.00902643
0.00898645
0.00894554
0.00890369
0.00886087
0.00881708
0.0087723
0.00872652
0.00867971
0.00863187
0.00858298
0.00853302
0.00848198
0.00842983
0.00837655
0.00832213
0.00826654
0.00820976
0.00815177
0.00809255
0.00803207
0.00797029
0.0079072
0.00784276
0.00777694
0.0077097
0.00764101
0.00757083
0.0074991
0.00742579
0.00735084
0.0072742
0.00719579
0.00711557
0.00703344
0.00694933
0.00686315
0.00677479
0.00668414
0.00659108
0.00649545
0.00639709
0.00629583
0.00619145
0.0060837
0.00597232
0.00585697
0.00573728
0.0056128
0.005483
0.00534727
0.00520485
0.00505483
0.00489613
0.00472741
0.00454702
0.00435291
0.00414252
0.00391261
0.00365907
0.00337669
0.00305889
0.0026974
0.00228201
0.00180091
0.0012424
0.000608248
5.95467e-05
8.03914e-05
0.000798488
0.00161548
0.0023368
0.0029663
0.0035209
0.00401534
0.00446101
0.00486655
0.00523853
0.00558203
0.00590098
0.00619851
0.00647713
0.00673889
0.00698547
0.00721827
0.00743848
0.00764713
0.00784507
0.00803307
0.0082118
0.00838185
0.00854374
0.00869796
0.00884493
0.00898505
0.00911867
0.00924613
0.00936775
0.00948381
0.00959457
0.0097003
0.00980124
0.0098976
0.00998961
0.0100775
0.0101614
0.0102415
0.010318
0.010391
0.0104608
0.0105274
0.010591
0.0106517
0.0107097
0.0107651
0.0108179
0.0108683
0.0109164
0.0109622
0.0110059
0.0110475
0.0110871
0.0111247
0.0111605
0.0111944
0.0112266
0.0112571
0.011286
0.0113134
0.0113393
0.0113637
0.0113867
0.0114084
0.0114287
0.0114477
0.0114654
0.0114819
0.0114972
0.0115113
0.0115243
0.0115361
0.0115467
0.0115563
0.0115648
0.0115722
0.0115786
0.0115839
0.0115882
0.0115915
0.0115939
0.0115952
0.0115955
0.0115949
0.0115934
0.0115908
0.0115874
0.011583
0.0115777
0.0115715
0.0115644
0.0115564
0.0115475
0.0115377
0.0115271
0.0115155
0.0115031
0.0114898
0.0114756
0.0114606
0.0114447
0.0114279
0.0114103
0.0113918
0.0113725
0.0113523
0.0113312
0.0113093
0.0112865
0.0112628
0.0112383
0.0112129
0.0111866
0.0111594
0.0111314
0.0111024
0.0110726
0.0110418
0.0110101
0.0109775
0.010944
0.0109095
0.0108741
0.0108377
0.0108003
0.010762
0.0107227
0.0106823
0.010641
0.0105985
0.0105551
0.0105106
0.010465
0.0104183
0.0103705
0.0103216
0.0102715
0.0102203
0.0101679
0.0101142
0.0100594
0.0100033
0.00994597
0.00988733
0.00982738
0.0097661
0.00970345
0.00963941
0.00957396
0.00950706
0.00943868
0.00936879
0.00929735
0.00922432
0.00914968
0.00907336
0.00899533
0.00891555
0.00883394
0.00875047
0.00866507
0.00857767
0.00848819
0.00839657
0.00830271
0.00820651
0.00810788
0.00800669
0.00790282
0.00779612
0.00768642
0.00757356
0.00745731
0.00733746
0.00721374
0.00708584
0.00695341
0.00681606
0.00667331
0.00652461
0.00636932
0.00620667
0.00603575
0.00585546
0.00566449
0.00546125
0.00524377
0.00500968
0.00475602
0.00447913
0.00417451
0.00383656
0.0034584
0.0030317
0.00254658
0.00199216
0.00135938
0.000656659
6.3294e-05
8.03934e-05
0.00079854
0.0016156
0.00233697
0.00296651
0.00352114
0.0040156
0.00446129
0.00486683
0.00523882
0.00558232
0.00590127
0.00619879
0.00647741
0.00673916
0.00698573
0.00721853
0.00743874
0.00764737
0.0078453
0.0080333
0.00821202
0.00838206
0.00854394
0.00869815
0.00884511
0.00898522
0.00911883
0.00924629
0.0093679
0.00948394
0.0095947
0.00970042
0.00980135
0.00989771
0.00998971
0.0100776
0.0101614
0.0102415
0.010318
0.0103911
0.0104608
0.0105275
0.0105911
0.0106518
0.0107098
0.0107651
0.0108179
0.0108683
0.0109164
0.0109622
0.0110059
0.0110475
0.0110871
0.0111247
0.0111605
0.0111944
0.0112266
0.0112571
0.011286
0.0113134
0.0113393
0.0113637