/*--------------------------------*- C++ -*----------------------------------*\
  =========                 |
  \\      /  F ield         | OpenFOAM: The Open Source CFD Toolbox
   \\    /   O peration     | Website:  https://openfoam.org
    \\  /    A nd           | Version:  8
     \\/     M anipulation  |
\*---------------------------------------------------------------------------*/
FoamFile
{
    version     2.0;
    format      ascii;
    class       surfaceScalarField;
    location    "1500";
    object      phi;
}
// * * * * * * * * * * * * * * * * * * * * * * * * * * * * * * * * * * * * * //

dimensions      [1 0 -1 0 0 0 0];

internalField   nonuniform List<scalar> 
119360
(
-2.02491e-07
-6.05469e-12
2.025e-07
-3.26419e-07
4.0181e-12
1.23969e-07
-3.49104e-07
4.01086e-12
2.27159e-08
-2.94334e-07
1.3362e-12
-5.4744e-08
-1.90208e-07
-9.37596e-13
-1.04101e-07
-5.60938e-08
-2.4535e-12
-1.34089e-07
9.48893e-08
-3.11991e-12
-1.50956e-07
2.53947e-07
-3.32048e-12
-1.59031e-07
4.1564e-07
-3.13952e-12
-1.61665e-07
5.76631e-07
-2.82122e-12
-1.60965e-07
7.34813e-07
-2.59662e-12
-1.58156e-07
8.88871e-07
-2.43648e-12
-1.54033e-07
1.038e-06
-2.29737e-12
-1.49107e-07
1.18174e-06
-2.18307e-12
-1.43716e-07
1.31984e-06
-1.99961e-12
-1.3808e-07
1.45222e-06
-1.68755e-12
-1.32348e-07
1.57885e-06
-1.3697e-12
-1.26615e-07
1.69982e-06
-1.19517e-12
-1.20947e-07
1.81522e-06
-1.14502e-12
-1.15382e-07
1.92519e-06
-1.1025e-12
-1.09946e-07
2.02986e-06
-1.03278e-12
-1.04651e-07
2.12938e-06
-9.93418e-13
-9.95066e-08
2.22391e-06
-1.01288e-12
-9.45132e-08
2.3136e-06
-1.03394e-12
-8.96703e-08
2.39859e-06
-9.92198e-13
-8.49753e-08
2.47904e-06
-9.00272e-13
-8.04244e-08
2.55507e-06
-8.26665e-13
-7.60139e-08
2.62682e-06
-8.04155e-13
-7.17398e-08
2.69444e-06
-7.93886e-13
-6.75983e-08
2.75804e-06
-7.36737e-13
-6.35857e-08
2.81776e-06
-6.26548e-13
-5.96989e-08
2.87371e-06
-5.22631e-13
-5.59352e-08
2.92602e-06
-4.90296e-13
-5.22924e-08
2.97481e-06
-5.39007e-13
-4.87686e-08
3.02019e-06
-6.16196e-13
-4.53619e-08
3.06228e-06
-6.56858e-13
-4.20706e-08
3.10119e-06
-6.38373e-13
-3.88931e-08
3.13703e-06
-5.89912e-13
-3.5828e-08
3.16992e-06
-5.5902e-13
-3.28741e-08
3.19997e-06
-5.66209e-13
-3.00303e-08
3.22729e-06
-5.89412e-13
-2.72952e-08
3.25197e-06
-5.86054e-13
-2.46672e-08
3.27413e-06
-5.29017e-13
-2.21448e-08
3.29388e-06
-4.28153e-13
-1.97264e-08
3.31131e-06
-3.2543e-13
-1.74103e-08
3.32652e-06
-2.66838e-13
-1.51948e-08
3.33961e-06
-2.73832e-13
-1.30783e-08
3.35069e-06
-3.33979e-13
-1.10585e-08
3.35984e-06
-4.10862e-13
-9.13323e-09
3.36715e-06
-4.67789e-13
-7.30003e-09
3.37272e-06
-4.85552e-13
-5.55629e-09
3.37664e-06
-4.68899e-13
-3.89935e-09
3.37898e-06
-4.37813e-13
-2.32644e-09
3.37983e-06
-4.12472e-13
-8.34284e-10
3.37926e-06
-4.01009e-13
5.79823e-10
3.37736e-06
-3.97845e-13
1.91661e-09
3.37419e-06
-3.89769e-13
3.17817e-09
3.36984e-06
-3.66537e-13
4.36844e-09
3.36436e-06
-3.28679e-13
5.49072e-09
3.35783e-06
-2.89044e-13
6.548e-09
3.3503e-06
-2.65702e-13
7.54313e-09
3.34183e-06
-2.73612e-13
8.47884e-09
3.33248e-06
-3.16134e-13
9.35783e-09
3.32231e-06
-3.81887e-13
1.01828e-08
3.31137e-06
-4.49555e-13
1.09564e-08
3.2997e-06
-4.95046e-13
1.16812e-08
3.28735e-06
-5.01958e-13
1.236e-08
3.27437e-06
-4.66903e-13
1.29952e-08
3.26079e-06
-4.01372e-13
1.35892e-08
3.24666e-06
-3.27292e-13
1.41442e-08
3.23201e-06
-2.69949e-13
1.46625e-08
3.21688e-06
-2.49715e-13
1.51459e-08
3.20129e-06
-2.75889e-13
1.55966e-08
3.18529e-06
-3.45528e-13
1.60162e-08
3.16889e-06
-4.44366e-13
1.64068e-08
3.15213e-06
-5.51835e-13
1.67701e-08
3.13504e-06
-6.46815e-13
1.71079e-08
3.11763e-06
-7.14205e-13
1.7422e-08
3.09993e-06
-7.46541e-13
1.77139e-08
3.08196e-06
-7.46347e-13
1.79853e-08
3.06374e-06
-7.23504e-13
1.82375e-08
3.04528e-06
-6.92445e-13
1.8472e-08
3.02661e-06
-6.67715e-13
1.86899e-08
3.00773e-06
-6.60499e-13
1.88924e-08
2.98867e-06
-6.7668e-13
1.90806e-08
2.96943e-06
-7.15621e-13
1.92555e-08
2.95003e-06
-7.70938e-13
1.94181e-08
2.93048e-06
-8.32472e-13
1.95695e-08
2.91079e-06
-8.88844e-13
1.97104e-08
2.89097e-06
-9.29451e-13
1.98419e-08
2.87102e-06
-9.46048e-13
1.99647e-08
2.85097e-06
-9.33975e-13
2.00798e-08
2.8308e-06
-8.93174e-13
2.0188e-08
2.81054e-06
-8.26894e-13
2.02898e-08
2.79017e-06
-7.41407e-13
2.0386e-08
2.76972e-06
-6.45622e-13
2.04773e-08
2.74918e-06
-5.48367e-13
2.05642e-08
2.72856e-06
-4.58411e-13
2.06472e-08
2.70785e-06
-3.82971e-13
2.07268e-08
2.68707e-06
-3.27405e-13
2.08036e-08
2.66622e-06
-2.94709e-13
2.08779e-08
2.64528e-06
-2.84994e-13
2.09503e-08
2.62428e-06
-2.96568e-13
2.10212e-08
2.60321e-06
-3.25434e-13
2.1091e-08
2.58207e-06
-3.65846e-13
2.11602e-08
2.56085e-06
-4.11171e-13
2.12293e-08
2.53957e-06
-4.54442e-13
2.12987e-08
2.51822e-06
-4.89025e-13
2.1369e-08
2.49679e-06
-5.09925e-13
2.14405e-08
2.47529e-06
-5.13423e-13
2.15139e-08
2.45372e-06
-4.99073e-13
2.15894e-08
2.43207e-06
-4.68625e-13
2.16677e-08
2.41033e-06
-4.26437e-13
2.17491e-08
2.38852e-06
-3.78447e-13
2.1834e-08
2.36661e-06
-3.31346e-13
2.1923e-08
2.34461e-06
-2.91073e-13
2.20164e-08
2.32251e-06
-2.61596e-13
2.21147e-08
2.3003e-06
-2.44776e-13
2.22184e-08
2.27799e-06
-2.39198e-13
2.23278e-08
2.25556e-06
-2.41085e-13
2.24435e-08
2.233e-06
-2.45165e-13
2.25659e-08
2.21032e-06
-2.46747e-13
2.26957e-08
2.1875e-06
-2.42167e-13
2.28333e-08
2.16453e-06
-2.3076e-13
2.29791e-08
2.14141e-06
-2.15022e-13
2.31338e-08
2.11812e-06
-1.99868e-13
2.32977e-08
2.09466e-06
-1.9118e-13
2.34713e-08
2.07101e-06
-1.93373e-13
2.36551e-08
2.04717e-06
-2.07667e-13
2.38494e-08
2.02313e-06
-2.31537e-13
2.40548e-08
1.99886e-06
-2.58071e-13
2.42716e-08
1.97437e-06
-2.78749e-13
2.45004e-08
1.94964e-06
-2.84966e-13
2.47415e-08
1.92465e-06
-2.73198e-13
2.49955e-08
1.8994e-06
-2.44305e-13
2.52628e-08
1.87386e-06
-2.05697e-13
2.55439e-08
1.84803e-06
-1.67782e-13
2.58391e-08
1.82189e-06
-1.41664e-13
2.6149e-08
1.79543e-06
-1.3467e-13
2.64738e-08
1.76862e-06
-1.48159e-13
2.68139e-08
1.74146e-06
-1.77969e-13
2.71697e-08
1.71393e-06
-2.16105e-13
2.75417e-08
1.686e-06
-2.55546e-13
2.79302e-08
1.65767e-06
-2.92738e-13
2.83356e-08
1.62892e-06
-3.27266e-13
2.87584e-08
1.59973e-06
-3.61738e-13
2.91987e-08
1.57008e-06
-3.96988e-13
2.96571e-08
1.53996e-06
-4.29379e-13
3.01337e-08
1.50934e-06
-4.51528e-13
3.06291e-08
1.4782e-06
-4.56329e-13
3.11434e-08
1.44654e-06
-4.41674e-13
3.16769e-08
1.41432e-06
-4.13003e-13
3.22298e-08
1.38152e-06
-3.82805e-13
3.28024e-08
1.34814e-06
-3.63959e-13
3.33945e-08
1.31415e-06
-3.60739e-13
3.40064e-08
1.27952e-06
-3.68067e-13
3.46377e-08
1.24424e-06
-3.74006e-13
3.52885e-08
1.2083e-06
-3.6901e-13
3.59584e-08
1.17166e-06
-3.54133e-13
3.66469e-08
1.13432e-06
-3.39784e-13
3.73535e-08
1.09625e-06
-3.36592e-13
3.80771e-08
1.05745e-06
-3.43531e-13
3.88168e-08
1.01789e-06
-3.46279e-13
3.95711e-08
9.77561e-07
-3.27488e-13
4.03383e-08
9.36456e-07
-2.84467e-13
4.11164e-08
8.94565e-07
-2.33147e-13
4.19027e-08
8.51883e-07
-1.97897e-13
4.26941e-08
8.08407e-07
-1.84852e-13
4.34867e-08
7.64141e-07
-1.72196e-13
4.42762e-08
7.19094e-07
-1.26954e-13
4.50575e-08
6.7328e-07
-4.26881e-14
4.58244e-08
6.2672e-07
4.63518e-14
4.65697e-08
5.79444e-07
9.66449e-14
4.72847e-08
5.31492e-07
1.04972e-13
4.79594e-08
4.82916e-07
1.19849e-13
4.85822e-08
4.33783e-07
1.8513e-13
4.91396e-08
3.84172e-07
2.70395e-13
4.96156e-08
3.34185e-07
2.92155e-13
4.99911e-08
2.83943e-07
2.11942e-13
5.02435e-08
2.33597e-07
1.14242e-13
5.03468e-08
1.83327e-07
1.20737e-13
5.02697e-08
1.33351e-07
2.37421e-13
4.99746e-08
8.39332e-08
3.49443e-13
4.94148e-08
3.5396e-08
4.26714e-13
4.85324e-08
-1.18599e-08
6.27054e-13
4.725e-08
-5.73172e-08
1.06909e-12
4.54512e-08
-1.00369e-07
1.62198e-12
4.30452e-08
-1.40325e-07
2.15455e-12
3.99468e-08
-1.76349e-07
2.85966e-12
3.60138e-08
-2.07409e-07
3.9857e-12
3.10491e-08
-2.32235e-07
5.40423e-12
2.48148e-08
-2.49286e-07
7.14828e-12
1.70363e-08
-2.56684e-07
1.01689e-11
7.38237e-09
-2.52271e-07
1.58374e-11
-4.43136e-09
-2.33786e-07
2.42785e-11
-1.85124e-08
-1.99225e-07
3.08138e-11
-3.4597e-08
-1.47692e-07
2.10313e-11
-5.15529e-08
-8.39017e-08
-9.14994e-11
-6.36994e-08
-2.64109e-08
-6.3247e-10
-5.68646e-08
-1.38911e-09
-2.50207e-08
-2.02466e-07
2.02491e-07
-3.26427e-07
1.23948e-07
-3.49111e-07
2.2704e-08
-2.94335e-07
-5.47508e-08
-1.90204e-07
-1.04104e-07
-5.60865e-08
-1.3409e-07
9.48972e-08
-1.50957e-07
2.53955e-07
-1.59032e-07
4.15646e-07
-1.61666e-07
5.76636e-07
-1.60966e-07
7.34816e-07
-1.58156e-07
8.88872e-07
-1.54033e-07
1.038e-06
-1.49107e-07
1.18174e-06
-1.43715e-07
1.31984e-06
-1.3808e-07
1.45221e-06
-1.32347e-07
1.57885e-06
-1.26614e-07
1.69982e-06
-1.20946e-07
1.81522e-06
-1.15381e-07
1.92518e-06
-1.09945e-07
2.02985e-06
-1.0465e-07
2.12938e-06
-9.95056e-08
2.22391e-06
-9.45122e-08
2.31359e-06
-8.96693e-08
2.39859e-06
-8.4974e-08
2.47903e-06
-8.04231e-08
2.55506e-06
-7.60125e-08
2.62682e-06
-7.17384e-08
2.69443e-06
-6.75968e-08
2.75804e-06
-6.35841e-08
2.81775e-06
-5.96971e-08
2.87371e-06
-5.59334e-08
2.92602e-06
-5.22908e-08
2.9748e-06
-4.8767e-08
3.02018e-06
-4.53603e-08
3.06227e-06
-4.20689e-08
3.10118e-06
-3.88913e-08
3.13703e-06
-3.58262e-08
3.16992e-06
-3.28724e-08
3.19997e-06
-3.00286e-08
3.22728e-06
-2.72935e-08
3.25196e-06
-2.46655e-08
3.27413e-06
-2.2143e-08
3.29387e-06
-1.97246e-08
3.3113e-06
-1.74085e-08
3.32651e-06
-1.51932e-08
3.33961e-06
-1.30767e-08
3.35068e-06
-1.10571e-08
3.35983e-06
-9.13185e-09
3.36714e-06
-7.29866e-09
3.37272e-06
-5.55491e-09
3.37663e-06
-3.89797e-09
3.37897e-06
-2.32508e-09
3.37982e-06
-8.32964e-10
3.37925e-06
5.81111e-10
3.37735e-06
1.91788e-09
3.37419e-06
3.17943e-09
3.36983e-06
4.36971e-09
3.36436e-06
5.49198e-09
3.35782e-06
6.54923e-09
3.35029e-06
7.5443e-09
3.34182e-06
8.47995e-09
3.33248e-06
9.35889e-09
3.32231e-06
1.01838e-08
3.31136e-06
1.09574e-08
3.29969e-06
1.16824e-08
3.28734e-06
1.23612e-08
3.27436e-06
1.29965e-08
3.26079e-06
1.35905e-08
3.24665e-06
1.41456e-08
3.23201e-06
1.46638e-08
3.21687e-06
1.51472e-08
3.20129e-06
1.55978e-08
3.18528e-06
1.60174e-08
3.16889e-06
1.64079e-08
3.15213e-06
1.67712e-08
3.13503e-06
1.71091e-08
3.11763e-06
1.74233e-08
3.09993e-06
1.77153e-08
3.08196e-06
1.79868e-08
3.06373e-06
1.82391e-08
3.04528e-06
1.84736e-08
3.02661e-06
1.86916e-08
3.00773e-06
1.88941e-08
2.98867e-06
1.90823e-08
2.96943e-06
1.92573e-08
2.95003e-06
1.942e-08
2.93048e-06
1.95714e-08
2.91079e-06
1.97124e-08
2.89097e-06
1.9844e-08
2.87102e-06
1.9967e-08
2.85096e-06
2.00822e-08
2.8308e-06
2.01904e-08
2.81053e-06
2.02922e-08
2.79017e-06
2.03885e-08
2.76972e-06
2.04798e-08
2.74918e-06
2.05666e-08
2.72856e-06
2.06495e-08
2.70785e-06
2.07291e-08
2.68707e-06
2.08057e-08
2.66621e-06
2.08799e-08
2.64528e-06
2.09522e-08
2.62428e-06
2.10229e-08
2.60321e-06
2.10926e-08
2.58206e-06
2.11618e-08
2.56085e-06
2.12308e-08
2.53957e-06
2.13002e-08
2.51821e-06
2.13705e-08
2.49679e-06
2.1442e-08
2.47529e-06
2.15154e-08
2.45372e-06
2.15909e-08
2.43207e-06
2.16692e-08
2.41033e-06
2.17506e-08
2.38851e-06
2.18356e-08
2.36661e-06
2.19246e-08
2.3446e-06
2.2018e-08
2.3225e-06
2.21162e-08
2.3003e-06
2.22198e-08
2.27799e-06
2.23291e-08
2.25556e-06
2.24447e-08
2.233e-06
2.25671e-08
2.21032e-06
2.26968e-08
2.1875e-06
2.28343e-08
2.16453e-06
2.29801e-08
2.14141e-06
2.31347e-08
2.11812e-06
2.32986e-08
2.09466e-06
2.34722e-08
2.07101e-06
2.36559e-08
2.04717e-06
2.38503e-08
2.02313e-06
2.40557e-08
1.99886e-06
2.42725e-08
1.97437e-06
2.45013e-08
1.94964e-06
2.47424e-08
1.92465e-06
2.49964e-08
1.8994e-06
2.52637e-08
1.87386e-06
2.55448e-08
1.84803e-06
2.584e-08
1.82189e-06
2.61498e-08
1.79543e-06
2.64745e-08
1.76862e-06
2.68146e-08
1.74146e-06
2.71704e-08
1.71393e-06
2.75424e-08
1.686e-06
2.79309e-08
1.65767e-06
2.83363e-08
1.62892e-06
2.8759e-08
1.59973e-06
2.91994e-08
1.57008e-06
2.96578e-08
1.53996e-06
3.01346e-08
1.50934e-06
3.063e-08
1.4782e-06
3.11443e-08
1.44654e-06
3.16779e-08
1.41432e-06
3.22309e-08
1.38152e-06
3.28035e-08
1.34814e-06
3.33957e-08
1.31415e-06
3.40075e-08
1.27952e-06
3.46389e-08
1.24424e-06
3.52896e-08
1.2083e-06
3.59595e-08
1.17166e-06
3.66481e-08
1.13432e-06
3.73546e-08
1.09625e-06
3.80783e-08
1.05745e-06
3.88179e-08
1.01789e-06
3.95723e-08
9.77562e-07
4.03395e-08
9.36457e-07
4.11176e-08
8.94566e-07
4.19039e-08
8.51883e-07
4.26952e-08
8.08407e-07
4.34877e-08
7.64142e-07
4.42772e-08
7.19095e-07
4.50585e-08
6.73281e-07
4.58255e-08
6.26721e-07
4.65706e-08
5.79444e-07
4.72855e-08
5.31492e-07
4.79601e-08
4.82917e-07
4.85828e-08
4.33783e-07
4.91402e-08
3.84172e-07
4.9616e-08
3.34184e-07
4.99911e-08
2.83942e-07
5.02433e-08
2.33596e-07
5.03465e-08
1.83327e-07
5.02694e-08
1.3335e-07
4.99744e-08
8.3932e-08
4.94143e-08
3.53948e-08
4.85318e-08
-1.18602e-08
4.72497e-08
-5.73166e-08
4.5451e-08
-1.00368e-07
4.30447e-08
-1.40321e-07
3.99462e-08
-1.76339e-07
3.60143e-08
-2.07392e-07
3.1051e-08
-2.32211e-07
2.48175e-08
-2.49251e-07
1.70402e-08
-2.56637e-07
7.38952e-09
-2.52212e-07
-4.416e-09
-2.33723e-07
-1.84709e-08
-1.99225e-07
-3.44694e-08
-1.47999e-07
-5.12045e-08
-8.51406e-08
-6.2946e-08
-2.84171e-08
-5.73546e-08
-2.9803e-08
-9.9708e-08
-5.18071e-12
3.02299e-07
-9.1687e-08
-8.09224e-13
1.15973e-07
-4.22986e-08
1.46116e-13
-2.66499e-08
3.42587e-08
1.2569e-13
-1.31279e-07
1.32009e-07
6.27622e-14
-2.01829e-07
2.45285e-07
4.24276e-14
-2.47341e-07
3.69067e-07
-6.73481e-14
-2.74715e-07
4.99367e-07
-1.27899e-13
-2.89308e-07
6.32999e-07
-9.58006e-14
-2.95275e-07
7.67547e-07
-5.36201e-14
-2.95493e-07
9.01274e-07
-2.88977e-14
-2.91863e-07
1.03295e-06
-2.26881e-14
-2.85688e-07
1.16172e-06
-3.37146e-14
-2.77855e-07
1.28699e-06
-2.59852e-14
-2.6897e-07
1.40838e-06
3.06357e-14
-2.59453e-07
1.52565e-06
1.04077e-13
-2.49593e-07
1.63864e-06
1.38764e-13
-2.39589e-07
1.74729e-06
1.28862e-13
-2.29578e-07
1.85158e-06
1.12527e-13
-2.19653e-07
1.95152e-06
1.11764e-13
-2.09873e-07
2.04716e-06
1.11999e-13
-2.00279e-07
2.13857e-06
9.75593e-14
-1.90896e-07
2.22581e-06
8.03021e-14
-1.81737e-07
2.30896e-06
8.24947e-14
-1.72809e-07
2.38812e-06
1.0524e-13
-1.64116e-07
2.46337e-06
1.26966e-13
-1.55657e-07
2.5348e-06
1.30803e-13
-1.47429e-07
2.6025e-06
1.23787e-13
-1.3943e-07
2.66658e-06
1.26334e-13
-1.31656e-07
2.72711e-06
1.47268e-13
-1.24105e-07
2.7842e-06
1.73338e-13
-1.16773e-07
2.83794e-06
1.83045e-13
-1.09657e-07
2.88842e-06
1.6805e-13
-1.02755e-07
2.93573e-06
1.40447e-13
-9.60649e-08
2.97997e-06
1.20796e-13
-8.95846e-08
3.02123e-06
1.20435e-13
-8.33123e-08
3.0596e-06
1.33619e-13
-7.72465e-08
3.09517e-06
1.45075e-13
-7.13857e-08
3.12804e-06
1.44395e-13
-6.57283e-08
3.1583e-06
1.33848e-13
-6.02728e-08
3.18604e-06
1.25223e-13
-5.50173e-08
3.21135e-06
1.29323e-13
-4.99598e-08
3.23432e-06
1.47177e-13
-4.50981e-08
3.25504e-06
1.69145e-13
-4.04299e-08
3.2736e-06
1.8192e-13
-3.59524e-08
3.29008e-06
1.77083e-13
-3.16627e-08
3.30457e-06
1.56093e-13
-2.75575e-08
3.31716e-06
1.28428e-13
-2.36333e-08
3.32793e-06
1.05668e-13
-1.98861e-08
3.33695e-06
9.48433e-14
-1.63118e-08
3.34432e-06
9.59118e-14
-1.29061e-08
3.35009e-06
1.03177e-13
-9.66426e-09
3.35436e-06
1.09762e-13
-6.58143e-09
3.35719e-06
1.11642e-13
-3.65244e-09
3.35866e-06
1.09186e-13
-8.72269e-10
3.35882e-06
1.05945e-13
1.76255e-09
3.35776e-06
1.05959e-13
4.25584e-09
3.35553e-06
1.10691e-13
6.61335e-09
3.35219e-06
1.17914e-13
8.84089e-09
3.3478e-06
1.23174e-13
1.0944e-08
3.34243e-06
1.22098e-13
1.29279e-08
3.33612e-06
1.12974e-13
1.47979e-08
3.32893e-06
9.76802e-14
1.65593e-08
3.32091e-06
8.12211e-14
1.82169e-08
3.3121e-06
6.97927e-14
1.97758e-08
3.30255e-06
6.79816e-14
2.12407e-08
3.2923e-06
7.71061e-14
2.26165e-08
3.2814e-06
9.46337e-14
2.39077e-08
3.26989e-06
1.15027e-13
2.51186e-08
3.25779e-06
1.31798e-13
2.62537e-08
3.24515e-06
1.39528e-13
2.7317e-08
3.23199e-06
1.35691e-13
2.83126e-08
3.21835e-06
1.21085e-13
2.92443e-08
3.20427e-06
9.94629e-14
3.01158e-08
3.18975e-06
7.62453e-14
3.09307e-08
3.17484e-06
5.6962e-14
3.16925e-08
3.15956e-06
4.57696e-14
3.24045e-08
3.14392e-06
4.43748e-14
3.30697e-08
3.12796e-06
5.21047e-14
3.36913e-08
3.11169e-06
6.63016e-14
3.42721e-08
3.09512e-06
8.30799e-14
3.48148e-08
3.07829e-06
9.86438e-14
3.5322e-08
3.0612e-06
1.09968e-13
3.57962e-08
3.04387e-06
1.15644e-13
3.62396e-08
3.02631e-06
1.15866e-13
3.66545e-08
3.00854e-06
1.12133e-13
3.7043e-08
2.99057e-06
1.06818e-13
3.74071e-08
2.9724e-06
1.0255e-13
3.77487e-08
2.95406e-06
1.01558e-13
3.80695e-08
2.93555e-06
1.05312e-13
3.83712e-08
2.91688e-06
1.14346e-13
3.86554e-08
2.89806e-06
1.28203e-13
3.89236e-08
2.87909e-06
1.45661e-13
3.91773e-08
2.85999e-06
1.64882e-13
3.94178e-08
2.84075e-06
1.83846e-13
3.96464e-08
2.82138e-06
2.0052e-13
3.98644e-08
2.80189e-06
2.13212e-13
4.0073e-08
2.78229e-06
2.20775e-13
4.02732e-08
2.76257e-06
2.2253e-13
4.04662e-08
2.74274e-06
2.18631e-13
4.06529e-08
2.7228e-06
2.09562e-13
4.08345e-08
2.70275e-06
1.96392e-13
4.10119e-08
2.68261e-06
1.80453e-13
4.11861e-08
2.66235e-06
1.63335e-13
4.1358e-08
2.642e-06
1.46751e-13
4.15285e-08
2.62154e-06
1.32165e-13
4.16986e-08
2.60099e-06
1.21007e-13
4.18692e-08
2.58033e-06
1.14193e-13
4.20411e-08
2.55957e-06
1.12063e-13
4.22152e-08
2.5387e-06
1.14415e-13
4.23925e-08
2.51773e-06
1.2032e-13
4.25737e-08
2.49666e-06
1.28515e-13
4.27598e-08
2.47547e-06
1.37217e-13
4.29517e-08
2.45417e-06
1.4469e-13
4.31501e-08
2.43275e-06
1.49429e-13
4.33561e-08
2.4112e-06
1.50484e-13
4.35705e-08
2.38954e-06
1.47542e-13
4.37942e-08
2.36774e-06
1.41089e-13
4.40281e-08
2.34581e-06
1.32283e-13
4.42731e-08
2.32373e-06
1.227e-13
4.45303e-08
2.30151e-06
1.13853e-13
4.48006e-08
2.27913e-06
1.06921e-13
4.50849e-08
2.25659e-06
1.02446e-13
4.53842e-08
2.23388e-06
1.00191e-13
4.56995e-08
2.21099e-06
9.9136e-14
4.60317e-08
2.18791e-06
9.79356e-14
4.63818e-08
2.16464e-06
9.53265e-14
4.67506e-08
2.14117e-06
9.06081e-14
4.71391e-08
2.11747e-06
8.40578e-14
4.75482e-08
2.09356e-06
7.67511e-14
4.79787e-08
2.06941e-06
7.04853e-14
4.84314e-08
2.04501e-06
6.69256e-14
4.89072e-08
2.02035e-06
6.70505e-14
4.94069e-08
1.99542e-06
7.08531e-14
4.99314e-08
1.97021e-06
7.68483e-14
5.04815e-08
1.9447e-06
8.2559e-14
5.10579e-08
1.91889e-06
8.56329e-14
5.16616e-08
1.89275e-06
8.43978e-14
5.22931e-08
1.86628e-06
7.8576e-14
5.29535e-08
1.83946e-06
6.94236e-14
5.36433e-08
1.81227e-06
5.92443e-14
5.43633e-08
1.7847e-06
5.02237e-14
5.51143e-08
1.75674e-06
4.36456e-14
5.58969e-08
1.72837e-06
3.95378e-14
5.67118e-08
1.69958e-06
3.69219e-14
5.75595e-08
1.67034e-06
3.4861e-14
5.84408e-08
1.64065e-06
3.3154e-14
5.93561e-08
1.61049e-06
3.29875e-14
6.03058e-08
1.57984e-06
3.60614e-14
6.12905e-08
1.54868e-06
4.33195e-14
6.23105e-08
1.517e-06
5.3707e-14
6.33661e-08
1.48478e-06
6.45803e-14
6.44574e-08
1.45201e-06
7.24906e-14
6.55846e-08
1.41866e-06
7.54397e-14
6.67476e-08
1.38473e-06
7.42531e-14
6.79461e-08
1.3502e-06
7.1998e-14
6.91797e-08
1.31505e-06
7.20743e-14
7.04477e-08
1.27927e-06
7.52662e-14
7.17493e-08
1.24285e-06
7.94434e-14
7.30832e-08
1.20576e-06
8.10949e-14
7.44476e-08
1.16801e-06
7.8812e-14
7.58406e-08
1.12958e-06
7.51413e-14
7.72595e-08
1.09046e-06
7.50788e-14
7.87011e-08
1.05064e-06
8.08659e-14
8.01616e-08
1.01013e-06
8.95603e-14
8.16363e-08
9.68927e-07
9.43134e-14
8.31197e-08
9.27025e-07
9.10244e-14
8.46051e-08
8.84436e-07
8.32945e-14
8.60849e-08
8.41172e-07
8.01997e-14
8.75499e-08
7.97248e-07
8.68403e-14
8.89896e-08
7.52689e-07
9.70404e-14
9.03916e-08
7.07524e-07
9.84282e-14
9.17413e-08
6.61793e-07
8.58827e-14
9.30221e-08
6.15544e-07
6.98261e-14
9.42146e-08
5.68835e-07
6.53019e-14
9.52961e-08
5.21738e-07
7.08392e-14
9.62405e-08
4.74339e-07
6.42958e-14
9.70173e-08
4.2674e-07
2.83107e-14
9.75909e-08
3.79064e-07
-2.20518e-14
9.792e-08
3.31454e-07
-5.0869e-14
9.7956e-08
2.8408e-07
-4.63657e-14
9.76417e-08
2.37143e-07
-3.7359e-14
9.69093e-08
1.90876e-07
-4.55608e-14
9.5677e-08
1.45558e-07
-3.93019e-14
9.38463e-08
1.01509e-07
2.1011e-14
9.12946e-08
5.90927e-08
1.05055e-13
8.78619e-08
1.87339e-08
1.58512e-13
8.33979e-08
-1.90585e-08
2.31176e-13
7.77326e-08
-5.3689e-08
4.32016e-13
7.06383e-08
-8.44992e-08
7.27918e-13
6.18535e-08
-1.10759e-07
9.70002e-13
5.10679e-08
-1.31666e-07
1.19231e-12
3.79378e-08
-1.46382e-07
1.71647e-12
2.20932e-08
-1.54063e-07
3.19743e-12
3.24308e-09
-1.53934e-07
7.34722e-12
-1.86512e-08
-1.45467e-07
1.97364e-11
-4.30842e-08
-1.28521e-07
5.68488e-11
-6.85558e-08
-1.01878e-07
1.41282e-10
-9.04801e-08
-5.9822e-08
1.20975e-10
-9.90348e-08
1.34328e-09
-8.6185e-08
-9.96965e-08
3.02315e-07
-9.16816e-08
1.15964e-07
-4.22936e-08
-2.66592e-08
3.42635e-08
-1.31287e-07
1.32013e-07
-2.01835e-07
2.45287e-07
-2.47345e-07
3.69068e-07
-2.74719e-07
4.99368e-07
-2.89312e-07
6.32998e-07
-2.95278e-07
7.67545e-07
-2.95495e-07
9.01272e-07
-2.91865e-07
1.03295e-06
-2.8569e-07
1.16171e-06
-2.77857e-07
1.28699e-06
-2.68972e-07
1.40838e-06
-2.59454e-07
1.52564e-06
-2.49594e-07
1.63863e-06
-2.3959e-07
1.74728e-06
-2.2958e-07
1.85157e-06
-2.19654e-07
1.95151e-06
-2.09874e-07
2.04716e-06
-2.0028e-07
2.13856e-06
-1.90897e-07
2.2258e-06
-1.81738e-07
2.30895e-06
-1.7281e-07
2.38811e-06
-1.64117e-07
2.46336e-06
-1.55657e-07
2.53479e-06
-1.47429e-07
2.60249e-06
-1.3943e-07
2.66657e-06
-1.31657e-07
2.72711e-06
-1.24105e-07
2.7842e-06
-1.16773e-07
2.83793e-06
-1.09657e-07
2.88841e-06
-1.02755e-07
2.93572e-06
-9.60653e-08
2.97996e-06
-8.95849e-08
3.02122e-06
-8.33126e-08
3.05959e-06
-7.72468e-08
3.09516e-06
-7.1386e-08
3.12803e-06
-6.57286e-08
3.15829e-06
-6.02731e-08
3.18603e-06
-5.50175e-08
3.21134e-06
-4.996e-08
3.23431e-06
-4.50984e-08
3.25503e-06
-4.04301e-08
3.27359e-06
-3.59527e-08
3.29007e-06
-3.1663e-08
3.30457e-06
-2.75578e-08
3.31715e-06
-2.36335e-08
3.32792e-06
-1.98864e-08
3.33695e-06
-1.63121e-08
3.34431e-06
-1.29064e-08
3.35009e-06
-9.66454e-09
3.35436e-06
-6.58171e-09
3.35719e-06
-3.65272e-09
3.35865e-06
-8.72549e-10
3.35882e-06
1.76227e-09
3.35776e-06
4.25558e-09
3.35552e-06
6.6131e-09
3.35218e-06
8.84065e-09
3.3478e-06
1.09437e-08
3.34243e-06
1.29277e-08
3.33612e-06
1.47977e-08
3.32893e-06
1.6559e-08
3.3209e-06
1.82167e-08
3.31209e-06
1.97755e-08
3.30255e-06
2.12405e-08
3.2923e-06
2.26163e-08
3.2814e-06
2.39075e-08
3.26988e-06
2.51184e-08
3.25779e-06
2.62535e-08
3.24514e-06
2.73168e-08
3.23199e-06
2.83124e-08
3.21835e-06
2.92441e-08
3.20426e-06
3.01156e-08
3.18975e-06
3.09305e-08
3.17484e-06
3.16923e-08
3.15955e-06
3.24042e-08
3.14392e-06
3.30695e-08
3.12796e-06
3.36911e-08
3.11168e-06
3.42719e-08
3.09512e-06
3.48145e-08
3.07829e-06
3.53218e-08
3.0612e-06
3.57959e-08
3.04386e-06
3.62394e-08
3.02631e-06
3.66543e-08
3.00854e-06
3.70428e-08
2.99056e-06
3.74069e-08
2.9724e-06
3.77485e-08
2.95406e-06
3.80693e-08
2.93555e-06
3.8371e-08
2.91688e-06
3.86552e-08
2.89806e-06
3.89234e-08
2.87909e-06
3.91771e-08
2.85998e-06
3.94176e-08
2.84075e-06
3.96463e-08
2.82138e-06
3.98642e-08
2.80189e-06
4.00728e-08
2.78229e-06
4.0273e-08
2.76257e-06
4.04659e-08
2.74274e-06
4.06527e-08
2.7228e-06
4.08343e-08
2.70275e-06
4.10117e-08
2.6826e-06
4.11859e-08
2.66235e-06
4.13578e-08
2.642e-06
4.15283e-08
2.62154e-06
4.16984e-08
2.60099e-06
4.1869e-08
2.58033e-06
4.20409e-08
2.55957e-06
4.2215e-08
2.5387e-06
4.23923e-08
2.51773e-06
4.25735e-08
2.49665e-06
4.27597e-08
2.47547e-06
4.29515e-08
2.45416e-06
4.315e-08
2.43274e-06
4.3356e-08
2.4112e-06
4.35704e-08
2.38954e-06
4.3794e-08
2.36774e-06
4.40279e-08
2.34581e-06
4.4273e-08
2.32373e-06
4.45301e-08
2.30151e-06
4.48004e-08
2.27913e-06
4.50847e-08
2.25659e-06
4.5384e-08
2.23388e-06
4.56993e-08
2.21099e-06
4.60315e-08
2.18791e-06
4.63816e-08
2.16464e-06
4.67504e-08
2.14116e-06
4.7139e-08
2.11747e-06
4.75481e-08
2.09356e-06
4.79785e-08
2.06941e-06
4.84313e-08
2.04501e-06
4.89071e-08
2.02035e-06
4.94068e-08
1.99542e-06
4.99313e-08
1.97021e-06
5.04814e-08
1.9447e-06
5.10578e-08
1.91889e-06
5.16614e-08
1.89275e-06
5.2293e-08
1.86628e-06
5.29533e-08
1.83946e-06
5.36431e-08
1.81227e-06
5.43631e-08
1.7847e-06
5.51141e-08
1.75674e-06
5.58967e-08
1.72837e-06
5.67116e-08
1.69958e-06
5.75594e-08
1.67034e-06
5.84406e-08
1.64065e-06
5.93559e-08
1.61049e-06
6.03057e-08
1.57984e-06
6.12904e-08
1.54868e-06
6.23104e-08
1.517e-06
6.3366e-08
1.48478e-06
6.44573e-08
1.45201e-06
6.55845e-08
1.41866e-06
6.67474e-08
1.38473e-06
6.79459e-08
1.3502e-06
6.91795e-08
1.31505e-06
7.04476e-08
1.27927e-06
7.17492e-08
1.24285e-06
7.3083e-08
1.20576e-06
7.44474e-08
1.16801e-06
7.58404e-08
1.12958e-06
7.72593e-08
1.09046e-06
7.87009e-08
1.05064e-06
8.01614e-08
1.01013e-06
8.16361e-08
9.68927e-07
8.31195e-08
9.27025e-07
8.4605e-08
8.84436e-07
8.60848e-08
8.41172e-07
8.75498e-08
7.97248e-07
8.89895e-08
7.52689e-07
9.03915e-08
7.07525e-07
9.17412e-08
6.61793e-07
9.3022e-08
6.15544e-07
9.42145e-08
5.68835e-07
9.5296e-08
5.21738e-07
9.62404e-08
4.74338e-07
9.70172e-08
4.2674e-07
9.75908e-08
3.79063e-07
9.79199e-08
3.31453e-07
9.7956e-08
2.84079e-07
9.76417e-08
2.37142e-07
9.69093e-08
1.90875e-07
9.56771e-08
1.45556e-07
9.38465e-08
1.01507e-07
9.12948e-08
5.90907e-08
8.78622e-08
1.87319e-08
8.33983e-08
-1.90597e-08
7.77335e-08
-5.36891e-08
7.06396e-08
-8.44982e-08
6.18554e-08
-1.10756e-07
5.10709e-08
-1.31659e-07
3.79424e-08
-1.46369e-07
2.20996e-08
-1.54034e-07
3.25179e-09
-1.53858e-07
-1.86397e-08
-1.45235e-07
-4.30742e-08
-1.27795e-07
-6.85902e-08
-9.99546e-08
-9.06431e-08
-5.78512e-08
-9.93359e-08
-8.63083e-08
2.97821e-09
2.67968e-13
2.99332e-07
6.65411e-08
-1.73932e-13
5.23907e-08
1.47157e-07
-4.24356e-14
-1.07266e-07
2.34857e-07
-3.27535e-14
-2.18978e-07
3.29837e-07
2.3488e-14
-2.96808e-07
4.31643e-07
7.20157e-14
-3.49144e-07
5.39214e-07
9.69245e-14
-3.82285e-07
6.51159e-07
1.22625e-13
-4.01251e-07
7.65897e-07
1.42705e-13
-4.10011e-07
8.81934e-07
1.51954e-13
-4.11527e-07
9.98017e-07
1.51291e-13
-4.07944e-07
1.11314e-06
1.4015e-13
-4.00813e-07
1.22654e-06
1.30886e-13
-3.91247e-07
1.33762e-06
1.41749e-13
-3.80044e-07
1.44594e-06
1.69445e-13
-3.67778e-07
1.55121e-06
1.8861e-13
-3.54858e-07
1.6532e-06
1.83527e-13
-3.41577e-07
1.75177e-06
1.65375e-13
-3.28144e-07
1.84683e-06
1.5191e-13
-3.14705e-07
1.93832e-06
1.44353e-13
-3.01363e-07
2.02623e-06
1.33185e-13
-2.88189e-07
2.11057e-06
1.17617e-13
-2.7523e-07
2.19135e-06
1.07823e-13
-2.62518e-07
2.26862e-06
1.10137e-13
-2.50073e-07
2.34241e-06
1.17943e-13
-2.37908e-07
2.41279e-06
1.19855e-13
-2.26029e-07
2.4798e-06
1.13245e-13
-2.1444e-07
2.54352e-06
1.0607e-13
-2.03143e-07
2.604e-06
1.06934e-13
-1.92136e-07
2.66132e-06
1.15244e-13
-1.8142e-07
2.71554e-06
1.21586e-13
-1.70994e-07
2.76675e-06
1.17235e-13
-1.60856e-07
2.815e-06
1.02361e-13
-1.51006e-07
2.86038e-06
8.54789e-14
-1.41442e-07
2.90296e-06
7.59726e-14
-1.32164e-07
2.94283e-06
7.64236e-14
-1.2317e-07
2.98004e-06
8.15479e-14
-1.14461e-07
3.01469e-06
8.36017e-14
-1.06034e-07
3.04686e-06
7.90949e-14
-9.78889e-08
3.07661e-06
7.11047e-14
-9.00243e-08
3.10404e-06
6.62821e-14
-8.24384e-08
3.12921e-06
6.90749e-14
-7.51292e-08
3.15221e-06
7.82724e-14
-6.80942e-08
3.17312e-06
8.77508e-14
-6.13307e-08
3.192e-06
9.08941e-14
-5.48354e-08
3.20895e-06
8.46491e-14
-4.86045e-08
3.22403e-06
7.14061e-14
-4.2634e-08
3.23732e-06
5.69142e-14
-3.69192e-08
3.24889e-06
4.68909e-14
-3.1455e-08
3.25882e-06
4.39592e-14
-2.6236e-08
3.26717e-06
4.67971e-14
-2.12564e-08
3.27402e-06
5.18486e-14
-1.65099e-08
3.27943e-06
5.56129e-14
-1.19901e-08
3.28347e-06
5.6612e-14
-7.69012e-09
3.28621e-06
5.57793e-14
-3.60335e-09
3.28769e-06
5.53525e-14
2.76578e-10
3.288e-06
5.72121e-14
3.95537e-09
3.28717e-06
6.14933e-14
7.43981e-09
3.28528e-06
6.6635e-14
1.07378e-08
3.28237e-06
7.00558e-14
1.3857e-08
3.2785e-06
6.96846e-14
1.68048e-08
3.27371e-06
6.50632e-14
1.95885e-08
3.26805e-06
5.76525e-14
2.22153e-08
3.26158e-06
5.02764e-14
2.46924e-08
3.25433e-06
4.59707e-14
2.70267e-08
3.24635e-06
4.66334e-14
2.92251e-08
3.23768e-06
5.23302e-14
3.12941e-08
3.22834e-06
6.13021e-14
3.32403e-08
3.2184e-06
7.04927e-14
3.50701e-08
3.20786e-06
7.67203e-14
3.67894e-08
3.19678e-06
7.7657e-14
3.84042e-08
3.18517e-06
7.26124e-14
3.99202e-08
3.17308e-06
6.24885e-14
4.1343e-08
3.16052e-06
4.96516e-14
4.26779e-08
3.14752e-06
3.69881e-14
4.39299e-08
3.13411e-06
2.72909e-14
4.51041e-08
3.12031e-06
2.23747e-14
4.62052e-08
3.10615e-06
2.28292e-14
4.72377e-08
3.09164e-06
2.80507e-14
4.82058e-08
3.0768e-06
3.64328e-14
4.91138e-08
3.06165e-06
4.59877e-14
4.99655e-08
3.04621e-06
5.4755e-14
5.07647e-08
3.03049e-06
6.13365e-14
5.1515e-08
3.01452e-06
6.50557e-14
5.22197e-08
2.99829e-06
6.60445e-14
5.2882e-08
2.98184e-06
6.50522e-14
5.35051e-08
2.96516e-06
6.31961e-14
5.40917e-08
2.94826e-06
6.16764e-14
5.46447e-08
2.93117e-06
6.14891e-14
5.51665e-08
2.91389e-06
6.32863e-14
5.56598e-08
2.89642e-06
6.72588e-14
5.61268e-08
2.87878e-06
7.3195e-14
5.65697e-08
2.86097e-06
8.05294e-14
5.69907e-08
2.843e-06
8.84501e-14
5.73918e-08
2.82487e-06
9.60239e-14
5.77748e-08
2.8066e-06
1.02363e-13
5.81416e-08
2.78819e-06
1.06734e-13
5.84939e-08
2.76963e-06
1.08632e-13
5.88335e-08
2.75094e-06
1.07799e-13
5.91619e-08
2.73211e-06
1.04361e-13
5.94806e-08
2.71316e-06
9.86364e-14
5.97913e-08
2.69408e-06
9.12395e-14
6.00953e-08
2.67488e-06
8.29406e-14
6.03941e-08
2.65555e-06
7.46348e-14
6.0689e-08
2.6361e-06
6.72622e-14
6.09816e-08
2.61653e-06
6.15931e-14
6.1273e-08
2.59684e-06
5.82728e-14
6.15646e-08
2.57702e-06
5.75928e-14
6.18578e-08
2.55709e-06
5.94733e-14
6.21539e-08
2.53703e-06
6.35325e-14
6.24542e-08
2.51685e-06
6.88581e-14
6.276e-08
2.49654e-06
7.44717e-14
6.30725e-08
2.4761e-06
7.92526e-14
6.33932e-08
2.45553e-06
8.2212e-14
6.37232e-08
2.43482e-06
8.26145e-14
6.4064e-08
2.41398e-06
8.02553e-14
6.44168e-08
2.39299e-06
7.5339e-14
6.47831e-08
2.37186e-06
6.85702e-14
6.5164e-08
2.35057e-06
6.0979e-14
6.55612e-08
2.32913e-06
5.37938e-14
6.59758e-08
2.30752e-06
4.80449e-14
6.64094e-08
2.28575e-06
4.4454e-14
6.68633e-08
2.26379e-06
4.32605e-14
6.7339e-08
2.24166e-06
4.4173e-14
6.78377e-08
2.21933e-06
4.63726e-14
6.8361e-08
2.1968e-06
4.88672e-14
6.89101e-08
2.17407e-06
5.06227e-14
6.94863e-08
2.15112e-06
5.10148e-14
7.00911e-08
2.12794e-06
4.99149e-14
7.07256e-08
2.10453e-06
4.77327e-14
7.13911e-08
2.08088e-06
4.51861e-14
7.20889e-08
2.05697e-06
4.31391e-14
7.28201e-08
2.03279e-06
4.21468e-14
7.3586e-08
2.00833e-06
4.22093e-14
7.43877e-08
1.98359e-06
4.2872e-14
7.52264e-08
1.95855e-06
4.31738e-14
7.61033e-08
1.93319e-06
4.22822e-14
7.70194e-08
1.90751e-06
3.97078e-14
7.79758e-08
1.88149e-06
3.56694e-14
7.89737e-08
1.85512e-06
3.09613e-14
8.0014e-08
1.82839e-06
2.6687e-14