/*--------------------------------*- C++ -*----------------------------------*\
  =========                 |
  \\      /  F ield         | OpenFOAM: The Open Source CFD Toolbox
   \\    /   O peration     | Website:  https://openfoam.org
    \\  /    A nd           | Version:  8
     \\/     M anipulation  |
\*---------------------------------------------------------------------------*/
FoamFile
{
    version     2.0;
    format      ascii;
    class       volVectorField;
    location    "1500";
    object      U;
}
// * * * * * * * * * * * * * * * * * * * * * * * * * * * * * * * * * * * * * //

dimensions      [0 1 -1 0 0 0 0];

internalField   nonuniform List<vector> 
48000
(
(-0.0106992 -8.5676e-07 0.0122358)
(-0.0190049 2.74218e-07 0.00868534)
(-0.025166 3.67594e-07 0.00185973)
(-0.0227346 1e-07 -0.00315971)
(-0.0170908 -1.5448e-07 -0.00628802)
(-0.00872506 -3.27351e-07 -0.00816803)
(0.00123817 -4.06347e-07 -0.00918851)
(0.0119664 -4.21424e-07 -0.00958442)
(0.0230021 -3.9775e-07 -0.00962598)
(0.0341076 -3.58938e-07 -0.0094799)
(0.0450762 -3.24633e-07 -0.00922324)
(0.0557989 -2.99078e-07 -0.00890316)
(0.0662053 -2.79448e-07 -0.008549)
(0.076254 -2.62931e-07 -0.00817922)
(0.0859217 -2.41115e-07 -0.00780544)
(0.0951976 -2.0945e-07 -0.00743493)
(0.104079 -1.76943e-07 -0.00707211)
(0.112569 -1.54895e-07 -0.0067196)
(0.120673 -1.42712e-07 -0.00637876)
(0.128399 -1.32238e-07 -0.0060502)
(0.135758 -1.20648e-07 -0.00573402)
(0.142758 -1.11583e-07 -0.00543)
(0.14941 -1.07022e-07 -0.00513776)
(0.155725 -1.0326e-07 -0.00485679)
(0.161713 -9.61025e-08 -0.00458656)
(0.167384 -8.65272e-08 -0.00432654)
(0.172747 -7.91829e-08 -0.00407621)
(0.177813 -7.60267e-08 -0.0038351)
(0.18259 -7.39708e-08 -0.00360277)
(0.187088 -6.85949e-08 -0.00337883)
(0.191314 -5.9366e-08 -0.00316294)
(0.195279 -5.04989e-08 -0.00295478)
(0.198989 -4.65812e-08 -0.0027541)
(0.202454 -4.81422e-08 -0.00256068)
(0.205681 -5.1405e-08 -0.0023743)
(0.208679 -5.1999e-08 -0.00219479)
(0.211454 -4.88351e-08 -0.002022)
(0.214016 -4.44187e-08 -0.00185577)
(0.216371 -4.20658e-08 -0.00169599)
(0.218527 -4.27359e-08 -0.00154252)
(0.220492 -4.43121e-08 -0.00139525)
(0.222273 -4.36306e-08 -0.00125405)
(0.223878 -3.90961e-08 -0.0011188)
(0.225313 -3.18509e-08 -0.000989375)
(0.226585 -2.50588e-08 -0.00086566)
(0.227703 -2.16703e-08 -0.000747531)
(0.228672 -2.26564e-08 -0.000634857)
(0.229499 -2.67112e-08 -0.000527502)
(0.230191 -3.12418e-08 -0.000425326)
(0.230753 -3.40858e-08 -0.000328181)
(0.231194 -3.43866e-08 -0.000235921)
(0.231518 -3.28256e-08 -0.000148396)
(0.23173 -3.08268e-08 -6.54491e-05)
(0.231838 -2.95095e-08 1.31657e-05)
(0.231847 -2.91136e-08 8.76605e-05)
(0.231761 -2.90565e-08 0.000157963)
(0.231585 -2.84626e-08 0.000224116)
(0.231326 -2.68978e-08 0.000286396)
(0.230988 -2.46439e-08 0.000345012)
(0.230575 -2.27517e-08 0.000400139)
(0.230091 -2.23824e-08 0.00045194)
(0.229542 -2.42632e-08 0.000500569)
(0.22893 -2.8238e-08 0.000546177)
(0.22826 -3.31608e-08 0.000588914)
(0.227535 -3.73906e-08 0.000628924)
(0.226759 -3.93133e-08 0.000666349)
(0.225934 -3.81026e-08 0.000701328)
(0.225065 -3.39489e-08 0.000733992)
(0.224153 -2.8101e-08 0.000764468)
(0.223202 -2.24016e-08 0.000792877)
(0.222215 -1.87428e-08 0.000819336)
(0.221193 -1.84421e-08 0.000843956)
(0.220139 -2.18534e-08 0.000866844)
(0.219055 -2.83942e-08 0.000888106)
(0.217943 -3.66749e-08 0.000907841)
(0.216806 -4.49481e-08 0.000926149)
(0.215644 -5.15803e-08 0.000943123)
(0.21446 -5.5555e-08 0.000958852)
(0.213255 -5.65145e-08 0.000973424)
(0.212032 -5.49307e-08 0.000986916)
(0.21079 -5.18202e-08 0.000999406)
(0.209531 -4.84812e-08 0.00101096)
(0.208257 -4.61512e-08 0.00102165)
(0.206968 -4.57058e-08 0.00103154)
(0.205666 -4.75332e-08 0.00104068)
(0.204352 -5.14356e-08 0.00104913)
(0.203026 -5.67772e-08 0.00105694)
(0.201689 -6.25947e-08 0.00106417)
(0.200342 -6.78905e-08 0.00107087)
(0.198986 -7.17549e-08 0.00107708)
(0.197621 -7.35062e-08 0.00108284)
(0.196248 -7.27828e-08 0.00108821)
(0.194867 -6.96304e-08 0.00109323)
(0.193479 -6.43612e-08 0.00109792)
(0.192084 -5.7531e-08 0.00110232)
(0.190683 -4.99014e-08 0.00110648)
(0.189276 -4.22031e-08 0.00111041)
(0.187863 -3.51636e-08 0.00111415)
(0.186445 -2.93423e-08 0.00111773)
(0.185021 -2.51544e-08 0.00112116)
(0.183592 -2.28091e-08 0.00112448)
(0.182158 -2.22532e-08 0.00112771)
(0.180719 -2.33573e-08 0.00113088)
(0.179275 -2.57749e-08 0.00113401)
(0.177826 -2.90492e-08 0.00113712)
(0.176373 -3.26889e-08 0.00114025)
(0.174915 -3.61535e-08 0.00114341)
(0.173452 -3.89784e-08 0.00114662)
(0.171985 -4.07983e-08 0.00114992)
(0.170512 -4.13237e-08 0.00115333)
(0.169034 -4.05698e-08 0.00115687)
(0.167551 -3.86396e-08 0.00116056)
(0.166063 -3.58413e-08 0.00116444)
(0.164569 -3.25861e-08 0.00116853)
(0.163069 -2.93309e-08 0.00117284)
(0.161563 -2.64755e-08 0.00117742)
(0.16005 -2.42597e-08 0.00118228)
(0.15853 -2.28129e-08 0.00118744)
(0.157003 -2.20134e-08 0.00119293)
(0.155469 -2.1587e-08 0.00119879)
(0.153926 -2.1191e-08 0.00120502)
(0.152374 -2.05248e-08 0.00121167)
(0.150813 -1.93636e-08 0.00121876)
(0.149243 -1.77569e-08 0.0012263)
(0.147662 -1.59371e-08 0.00123434)
(0.14607 -1.43114e-08 0.0012429)
(0.144467 -1.33596e-08 0.00125201)
(0.142852 -1.34167e-08 0.00126169)
(0.141223 -1.45512e-08 0.00127196)
(0.139581 -1.65386e-08 0.00128287)
(0.137924 -1.88229e-08 0.00129443)
(0.136252 -2.0738e-08 0.00130667)
(0.134564 -2.15908e-08 0.00131962)
(0.132859 -2.10883e-08 0.00133331)
(0.131136 -1.92646e-08 0.00134776)
(0.129394 -1.663e-08 0.001363)
(0.127633 -1.39078e-08 0.00137905)
(0.12585 -1.18862e-08 0.00139595)
(0.124046 -1.1079e-08 0.00141371)
(0.122219 -1.15778e-08 0.00143236)
(0.120369 -1.31654e-08 0.00145194)
(0.118493 -1.53546e-08 0.00147245)
(0.116591 -1.77836e-08 0.00149394)
(0.114662 -2.03268e-08 0.00151642)
(0.112705 -2.30261e-08 0.00153993)
(0.110718 -2.60643e-08 0.00156448)
(0.1087 -2.93614e-08 0.00159011)
(0.10665 -3.24947e-08 0.00161684)
(0.104566 -3.48095e-08 0.00164471)
(0.102448 -3.57156e-08 0.00167373)
(0.100295 -3.51674e-08 0.00170393)
(0.0981035 -3.36788e-08 0.00173533)
(0.0958738 -3.22511e-08 0.00176796)
(0.0936042 -3.17599e-08 0.00180182)
(0.0912933 -3.23044e-08 0.00183695)
(0.0889398 -3.32676e-08 0.00187334)
(0.0865423 -3.36597e-08 0.00191101)
(0.0840996 -3.29364e-08 0.00194996)
(0.0816102 -3.15163e-08 0.00199017)
(0.079073 -3.05112e-08 0.00203164)
(0.0764868 -3.07891e-08 0.00207434)
(0.0738503 -3.20112e-08 0.00211823)
(0.0711627 -3.26622e-08 0.00216325)
(0.0684228 -3.12421e-08 0.00220935)
(0.0656299 -2.77128e-08 0.00225642)
(0.0627833 -2.38257e-08 0.00230435)
(0.0598825 -2.17926e-08 0.002353)
(0.0569274 -2.19982e-08 0.00240218)
(0.053918 -2.21886e-08 0.00245167)
(0.0508546 -1.93179e-08 0.00250123)
(0.047738 -1.2838e-08 0.00255053)
(0.0445695 -5.98497e-09 0.00259919)
(0.0413507 -2.68791e-09 0.00264675)
(0.0380841 -3.23615e-09 0.00269266)
(0.0347728 -3.25138e-09 0.00273629)
(0.0314208 1.17263e-09 0.00277686)
(0.0280331 7.35558e-09 0.00281347)
(0.0246159 7.91905e-09 0.00284501)
(0.0211768 -6.62458e-10 0.00287016)
(0.017725 -1.11704e-08 0.00288735)
(0.0142717 -1.26705e-08 0.0028947)
(0.0108305 -3.60926e-09 0.0028899)
(0.00741769 7.39365e-09 0.00287005)
(0.00405426 1.85336e-08 0.00283142)
(0.000764682 4.44152e-08 0.00276647)
(-0.00243002 9.73434e-08 0.00266176)
(-0.00546955 1.69239e-07 0.00251481)
(-0.0083288 2.52267e-07 0.00232689)
(-0.0109483 3.65418e-07 0.0020898)
(-0.0132661 5.33751e-07 0.00179031)
(-0.0152039 7.47054e-07 0.00141264)
(-0.0166655 9.94943e-07 0.000938317)
(-0.0175353 1.33335e-06 0.00034381)
(-0.0176728 1.84281e-06 -0.00039212)
(-0.0169204 2.38361e-06 -0.00128031)
(-0.0151093 2.39865e-06 -0.00230966)
(-0.0123251 1.65435e-06 -0.00339629)
(-0.00822815 -7.46932e-06 -0.00414)
(-0.00311047 -5.79813e-05 -0.00323971)
(-0.00122682 -0.000138622 -0.00107899)
(-0.0106986 -8.57e-07 0.0122341)
(-0.0190056 2.74208e-07 0.0086842)
(-0.0251662 3.67595e-07 0.00185914)
(-0.0227346 1.00003e-07 -0.00316016)
(-0.0170905 -1.54477e-07 -0.00628828)
(-0.00872462 -3.2734e-07 -0.00816817)
(0.00123874 -4.06332e-07 -0.00918864)
(0.0119669 -4.21409e-07 -0.0095846)
(0.0230026 -3.97737e-07 -0.00962619)
(0.034108 -3.58927e-07 -0.00948009)
(0.0450765 -3.24625e-07 -0.00922341)
(0.055799 -2.99071e-07 -0.00890332)
(0.0662054 -2.79442e-07 -0.00854915)
(0.0762539 -2.62926e-07 -0.00817936)
(0.0859215 -2.41111e-07 -0.00780556)
(0.0951975 -2.09446e-07 -0.00743503)
(0.104079 -1.7694e-07 -0.0070722)
(0.112569 -1.54893e-07 -0.00671966)
(0.120673 -1.4271e-07 -0.00637881)
(0.128399 -1.32236e-07 -0.00605024)
(0.135757 -1.20647e-07 -0.00573406)
(0.142757 -1.11582e-07 -0.00543004)
(0.14941 -1.07021e-07 -0.00513779)
(0.155725 -1.03259e-07 -0.00485682)
(0.161712 -9.61016e-08 -0.00458658)
(0.167383 -8.65264e-08 -0.00432656)
(0.172747 -7.91823e-08 -0.00407623)
(0.177812 -7.60261e-08 -0.00383511)
(0.18259 -7.39702e-08 -0.00360277)
(0.187087 -6.85944e-08 -0.00337882)
(0.191314 -5.93656e-08 -0.00316292)
(0.195278 -5.04985e-08 -0.00295476)
(0.198989 -4.65809e-08 -0.00275408)
(0.202454 -4.81419e-08 -0.00256065)
(0.205681 -5.14047e-08 -0.00237427)
(0.208678 -5.19987e-08 -0.00219476)
(0.211454 -4.88348e-08 -0.00202196)
(0.214015 -4.44184e-08 -0.00185574)
(0.21637 -4.20656e-08 -0.00169596)
(0.218527 -4.27357e-08 -0.00154249)
(0.220492 -4.43119e-08 -0.00139521)
(0.222273 -4.36304e-08 -0.00125401)
(0.223877 -3.9096e-08 -0.00111875)
(0.225312 -3.18508e-08 -0.000989323)
(0.226585 -2.50587e-08 -0.000865609)
(0.227702 -2.16702e-08 -0.000747481)
(0.228671 -2.26563e-08 -0.00063481)
(0.229498 -2.67111e-08 -0.000527457)
(0.23019 -3.12417e-08 -0.000425283)
(0.230753 -3.40857e-08 -0.00032814)
(0.231193 -3.43865e-08 -0.000235883)
(0.231517 -3.28255e-08 -0.000148361)
(0.23173 -3.08267e-08 -6.54165e-05)
(0.231838 -2.95095e-08 1.31963e-05)
(0.231846 -2.91135e-08 8.76904e-05)
(0.23176 -2.90564e-08 0.000157994)
(0.231585 -2.84625e-08 0.000224147)
(0.231326 -2.68977e-08 0.000286427)
(0.230988 -2.46439e-08 0.000345042)
(0.230574 -2.27517e-08 0.000400168)
(0.230091 -2.23824e-08 0.000451966)
(0.229541 -2.42632e-08 0.000500592)
(0.22893 -2.82379e-08 0.000546198)
(0.22826 -3.31607e-08 0.000588933)
(0.227535 -3.73905e-08 0.000628943)
(0.226758 -3.93132e-08 0.00066637)
(0.225934 -3.81025e-08 0.000701351)
(0.225065 -3.39488e-08 0.000734018)
(0.224153 -2.81009e-08 0.000764496)
(0.223202 -2.24015e-08 0.000792907)
(0.222214 -1.87428e-08 0.000819366)
(0.221192 -1.8442e-08 0.000843984)
(0.220138 -2.18533e-08 0.000866871)
(0.219054 -2.83941e-08 0.000888131)
(0.217943 -3.66749e-08 0.000907865)
(0.216805 -4.4948e-08 0.000926172)
(0.215644 -5.15802e-08 0.000943146)
(0.21446 -5.55549e-08 0.000958877)
(0.213255 -5.65143e-08 0.000973449)
(0.212031 -5.49305e-08 0.000986944)
(0.210789 -5.182e-08 0.000999434)
(0.209531 -4.84811e-08 0.00101099)
(0.208257 -4.61511e-08 0.00102168)
(0.206968 -4.57056e-08 0.00103157)
(0.205666 -4.75331e-08 0.0010407)
(0.204352 -5.14355e-08 0.00104915)
(0.203025 -5.67771e-08 0.00105697)
(0.201689 -6.25945e-08 0.0010642)
(0.200342 -6.78904e-08 0.0010709)
(0.198985 -7.17547e-08 0.00107711)
(0.197621 -7.3506e-08 0.00108288)
(0.196247 -7.27827e-08 0.00108826)
(0.194867 -6.96303e-08 0.00109328)
(0.193479 -6.43611e-08 0.00109797)
(0.192084 -5.75309e-08 0.00110238)
(0.190683 -4.99012e-08 0.00110654)
(0.189276 -4.2203e-08 0.00111047)
(0.187863 -3.51635e-08 0.00111421)
(0.186445 -2.93422e-08 0.00111778)
(0.185021 -2.51543e-08 0.00112121)
(0.183592 -2.28091e-08 0.00112453)
(0.182158 -2.22532e-08 0.00112776)
(0.180719 -2.33573e-08 0.00113092)
(0.179275 -2.57749e-08 0.00113405)
(0.177826 -2.90491e-08 0.00113716)
(0.176373 -3.26888e-08 0.00114028)
(0.174915 -3.61534e-08 0.00114344)
(0.173452 -3.89783e-08 0.00114665)
(0.171985 -4.07982e-08 0.00114995)
(0.170512 -4.13236e-08 0.00115335)
(0.169034 -4.05698e-08 0.00115689)
(0.167551 -3.86395e-08 0.00116059)
(0.166063 -3.58412e-08 0.00116447)
(0.164569 -3.2586e-08 0.00116856)
(0.163069 -2.93308e-08 0.00117288)
(0.161563 -2.64754e-08 0.00117746)
(0.16005 -2.42596e-08 0.00118231)
(0.15853 -2.28129e-08 0.00118748)
(0.157003 -2.20134e-08 0.00119297)
(0.155468 -2.1587e-08 0.00119882)
(0.153926 -2.1191e-08 0.00120506)
(0.152374 -2.05247e-08 0.0012117)
(0.150813 -1.93635e-08 0.00121878)
(0.149243 -1.77569e-08 0.00122633)
(0.147662 -1.5937e-08 0.00123436)
(0.14607 -1.43113e-08 0.00124292)
(0.144467 -1.33595e-08 0.00125202)
(0.142852 -1.34167e-08 0.0012617)
(0.141223 -1.45512e-08 0.00127198)
(0.139581 -1.65386e-08 0.00128288)
(0.137924 -1.88229e-08 0.00129445)
(0.136252 -2.07379e-08 0.00130669)
(0.134564 -2.15908e-08 0.00131964)
(0.132859 -2.10882e-08 0.00133333)
(0.131136 -1.92645e-08 0.00134778)
(0.129394 -1.66299e-08 0.00136302)
(0.127633 -1.39078e-08 0.00137907)
(0.12585 -1.18861e-08 0.00139597)
(0.124046 -1.1079e-08 0.00141373)
(0.122219 -1.15778e-08 0.00143238)
(0.120369 -1.31654e-08 0.00145195)
(0.118493 -1.53545e-08 0.00147247)
(0.116591 -1.77835e-08 0.00149395)
(0.114662 -2.03268e-08 0.00151643)
(0.112705 -2.30261e-08 0.00153993)
(0.110718 -2.60642e-08 0.00156449)
(0.1087 -2.93613e-08 0.00159012)
(0.10665 -3.24946e-08 0.00161686)
(0.104566 -3.48094e-08 0.00164472)
(0.102448 -3.57156e-08 0.00167375)
(0.100295 -3.51673e-08 0.00170395)
(0.0981035 -3.36787e-08 0.00173535)
(0.0958738 -3.2251e-08 0.00176798)
(0.0936042 -3.17598e-08 0.00180185)
(0.0912933 -3.23043e-08 0.00183698)
(0.0889398 -3.32675e-08 0.00187337)
(0.0865423 -3.36597e-08 0.00191104)
(0.0840996 -3.29363e-08 0.00194999)
(0.0816102 -3.15162e-08 0.00199021)
(0.079073 -3.05111e-08 0.00203168)
(0.0764868 -3.0789e-08 0.00207437)
(0.0738504 -3.20111e-08 0.00211826)
(0.0711627 -3.26622e-08 0.00216329)
(0.0684228 -3.12421e-08 0.00220939)
(0.0656299 -2.77128e-08 0.00225646)
(0.0627833 -2.38256e-08 0.0023044)
(0.0598826 -2.17925e-08 0.00235304)
(0.0569274 -2.19981e-08 0.00240222)
(0.053918 -2.21885e-08 0.00245172)
(0.0508546 -1.93178e-08 0.00250128)
(0.047738 -1.28379e-08 0.00255058)
(0.0445695 -5.98495e-09 0.00259924)
(0.0413507 -2.6879e-09 0.0026468)
(0.0380841 -3.23614e-09 0.00269271)
(0.0347728 -3.25137e-09 0.00273634)
(0.0314209 1.17262e-09 0.00277692)
(0.0280332 7.35555e-09 0.00281353)
(0.0246159 7.91902e-09 0.00284506)
(0.0211768 -6.62456e-10 0.0028702)
(0.0177249 -1.11704e-08 0.00288739)
(0.0142716 -1.26704e-08 0.00289474)
(0.0108305 -3.60924e-09 0.00288994)
(0.00741763 7.39362e-09 0.00287009)
(0.00405418 1.85335e-08 0.00283145)
(0.000764614 4.4415e-08 0.00276651)
(-0.00243003 9.73429e-08 0.0026618)
(-0.00546947 1.69238e-07 0.00251485)
(-0.00832857 2.52266e-07 0.00232692)
(-0.0109477 3.65417e-07 0.00208989)
(-0.0132651 5.3375e-07 0.00179048)
(-0.0152024 7.47054e-07 0.00141289)
(-0.0166635 9.94943e-07 0.00093873)
(-0.0175327 1.33335e-06 0.000344557)
(-0.0176702 1.84277e-06 -0.000390795)
(-0.016918 2.38316e-06 -0.00127776)
(-0.0151064 2.39589e-06 -0.00230439)
(-0.0123314 1.64347e-06 -0.00338824)
(-0.00826004 -7.21119e-06 -0.00414526)
(-0.00317959 -5.00422e-05 -0.00343902)
(-0.00111426 -0.000103938 -0.00148811)
(-0.00652599 -6.53571e-07 0.0208524)
(-0.00735729 -1.28603e-07 0.0109287)
(-0.00517896 -7.56018e-09 0.000884744)
(-0.000634397 -4.2435e-09 -0.00699604)
(0.00541474 -1.0298e-08 -0.0122527)
(0.0127418 -1.18558e-08 -0.0155733)
(0.0209452 -2.15821e-08 -0.0175115)
(0.029716 -2.85136e-08 -0.0184964)
(0.0388109 -2.62902e-08 -0.0188653)
(0.0480411 -2.12703e-08 -0.0188422)
(0.0572648 -1.77334e-08 -0.0185652)
(0.0663831 -1.66026e-08 -0.0181263)
(0.0753261 -1.70634e-08 -0.0175857)
(0.0840458 -1.58308e-08 -0.0169836)
(0.0925098 -1.05977e-08 -0.016347)
(0.100697 -3.78829e-09 -0.015694)
(0.108595 3.58807e-10 -0.0150368)
(0.116196 1.1288e-09 -0.0143836)
(0.123499 1.13447e-09 -0.0137395)
(0.130502 2.06818e-09 -0.0131081)
(0.137208 3.05234e-09 -0.0124912)
(0.143622 2.99235e-09 -0.0118901)
(0.149746 2.65537e-09 -0.0113053)
(0.155588 3.53579e-09 -0.0107369)
(0.161153 5.6393e-09 -0.0101848)
(0.166446 7.43537e-09 -0.00964887)
(0.171475 7.80466e-09 -0.00912865)
(0.176245 7.38012e-09 -0.00862385)
(0.180762 7.69611e-09 -0.0081341)
(0.185034 9.38462e-09 -0.00765908)
(0.189066 1.14653e-08 -0.00719849)
(0.192865 1.24123e-08 -0.00675207)
(0.196437 1.17042e-08 -0.00631959)
(0.199789 1.02412e-08 -0.00590085)
(0.202927 9.42736e-09 -0.00549566)
(0.205857 9.89564e-09 -0.00510388)
(0.208586 1.10806e-08 -0.00472537)
(0.21112 1.18763e-08 -0.00435998)
(0.213465 1.16812e-08 -0.0040076)
(0.215629 1.08274e-08 -0.00366808)
(0.217616 1.02363e-08 -0.0033413)
(0.219433 1.06037e-08 -0.0030271)
(0.221087 1.18629e-08 -0.00272532)
(0.222584 1.32545e-08 -0.00243579)
(0.223929 1.38874e-08 -0.00215833)
(0.225129 1.33211e-08 -0.00189273)
(0.22619 1.18067e-08 -0.00163876)
(0.227117 1.00401e-08 -0.0013962)
(0.227917 8.74849e-09 -0.00116478)
(0.228594 8.25924e-09 -0.000944224)
(0.229155 8.43912e-09 -0.000734257)
(0.229604 8.85219e-09 -0.000534572)
(0.229947 9.08347e-09 -0.000344848)
(0.230189 8.95781e-09 -0.000164745)
(0.230335 8.58564e-09 6.04201e-06)
(0.23039 8.2306e-09 0.000167698)
(0.230358 8.12398e-09 0.000320479)
(0.230244 8.30005e-09 0.000464782)
(0.230052 8.54942e-09 0.000600979)
(0.229786 8.5751e-09 0.000729421)
(0.22945 8.13726e-09 0.000850451)
(0.229048 7.2197e-09 0.000964401)
(0.228585 6.04896e-09 0.0010716)
(0.228062 5.02004e-09 0.00117236)
(0.227484 4.54603e-09 0.001267)
(0.226854 4.86868e-09 0.00135583)
(0.226174 5.95945e-09 0.00143913)
(0.225448 7.52231e-09 0.0015172)
(0.224679 9.08993e-09 0.00159031)
(0.223868 1.01817e-08 0.00165873)
(0.223019 1.04539e-08 0.00172272)
(0.222134 9.81519e-09 0.00178254)
(0.221215 8.4303e-09 0.00183841)
(0.220263 6.66468e-09 0.00189058)
(0.219282 4.95998e-09 0.00193927)
(0.218272 3.73499e-09 0.00198469)
(0.217237 3.24766e-09 0.00202705)
(0.216176 3.55319e-09 0.00206655)
(0.215092 4.51451e-09 0.00210336)
(0.213986 5.85751e-09 0.00213768)
(0.212859 7.23667e-09 0.00216965)
(0.211714 8.34648e-09 0.00219946)
(0.21055 8.96705e-09 0.00222724)
(0.209369 9.03177e-09 0.00225314)
(0.208172 8.60916e-09 0.0022773)
(0.20696 7.8696e-09 0.00229985)
(0.205734 7.05009e-09 0.00232091)
(0.204495 6.38953e-09 0.0023406)
(0.203242 6.07924e-09 0.00235903)
(0.201978 6.23819e-09 0.00237631)
(0.200703 6.89398e-09 0.00239253)
(0.199417 7.99522e-09 0.00240778)
(0.19812 9.42293e-09 0.00242216)
(0.196814 1.10086e-08 0.00243574)
(0.195499 1.25763e-08 0.00244861)
(0.194175 1.39554e-08 0.00246085)
(0.192842 1.50091e-08 0.00247252)
(0.191501 1.56468e-08 0.00248369)
(0.190152 1.5821e-08 0.00249443)
(0.188796 1.55583e-08 0.0025048)
(0.187431 1.49025e-08 0.00251487)
(0.18606 1.39469e-08 0.00252469)
(0.184681 1.27942e-08 0.00253432)
(0.183296 1.15692e-08 0.00254382)
(0.181903 1.03928e-08 0.00255325)
(0.180503 9.36771e-09 0.00256265)
(0.179097 8.59389e-09 0.0025721)
(0.177683 8.1275e-09 0.00258163)
(0.176263 7.99044e-09 0.00259132)
(0.174835 8.16652e-09 0.0026012)
(0.173401 8.58722e-09 0.00261134)
(0.171959 9.16973e-09 0.00262178)
(0.170509 9.79507e-09 0.00263259)
(0.169052 1.03471e-08 0.00264383)
(0.167587 1.07288e-08 0.00265553)
(0.166113 1.08801e-08 0.00266776)
(0.164632 1.0783e-08 0.00268058)
(0.163141 1.04651e-08 0.00269404)
(0.161642 1.00054e-08 0.0027082)
(0.160132 9.50381e-09 0.0027231)
(0.158613 9.04599e-09 0.00273882)
(0.157084 8.69953e-09 0.00275541)
(0.155543 8.48633e-09 0.00277292)
(0.153992 8.37211e-09 0.00279142)
(0.152428 8.27217e-09 0.00281096)
(0.150852 8.09037e-09 0.0028316)
(0.149263 7.73916e-09 0.0028534)
(0.14766 7.18711e-09 0.00287642)
(0.146042 6.47706e-09 0.00290072)
(0.14441 5.7099e-09 0.00292634)
(0.142762 5.03983e-09 0.00295335)
(0.141097 4.60009e-09 0.0029818)
(0.139415 4.47445e-09 0.00301173)
(0.137714 4.66291e-09 0.00304321)
(0.135995 5.05315e-09 0.00307628)
(0.134256 5.45672e-09 0.003111)
(0.132496 5.70324e-09 0.00314741)
(0.130715 5.66707e-09 0.00318556)
(0.128911 5.32442e-09 0.0032255)
(0.127084 4.75714e-09 0.00326728)
(0.125232 4.11562e-09 0.00331095)
(0.123354 3.52835e-09 0.00335654)
(0.12145 3.05531e-09 0.00340411)
(0.119519 2.6841e-09 0.0034537)
(0.117559 2.33764e-09 0.00350535)
(0.115569 1.97595e-09 0.0035591)
(0.113548 1.62759e-09 0.00361499)
(0.111496 1.42676e-09 0.00367306)
(0.109411 1.5248e-09 0.00373335)
(0.107291 1.98262e-09 0.00379587)
(0.105136 2.69076e-09 0.00386065)
(0.102945 3.41794e-09 0.00392772)
(0.100717 3.90908e-09 0.00399708)
(0.0984496 4.04328e-09 0.00406875)
(0.0961428 3.94525e-09 0.00414271)
(0.0937952 3.88338e-09 0.00421895)
(0.0914058 4.09849e-09 0.00429744)
(0.0889736 4.56868e-09 0.00437814)
(0.0864976 5.03983e-09 0.00446098)
(0.0839768 5.19497e-09 0.00454586)
(0.0814105 4.96083e-09 0.00463269)
(0.078798 4.63531e-09 0.0047213)
(0.0761385 4.6848e-09 0.00481153)
(0.0734317 5.27302e-09 0.00490315)
(0.0706772 6.07159e-09 0.00499589)
(0.0678748 6.43327e-09 0.00508942)
(0.0650246 6.03066e-09 0.00518336)
(0.062127 5.24351e-09 0.00527724)
(0.0591825 4.93608e-09 0.00537052)
(0.0561922 5.55571e-09 0.00546256)
(0.0531574 6.52179e-09 0.0055526)
(0.05008 6.7093e-09 0.00563976)
(0.0469622 5.66421e-09 0.005723)
(0.043807 4.30884e-09 0.00580112)
(0.0406181 3.96524e-09 0.00587272)
(0.0373999 4.4992e-09 0.00593614)
(0.0341579 3.95857e-09 0.00598948)
(0.0308983 7.75725e-10 0.00603046)
(0.0276289 -3.81771e-09 0.00605646)
(0.0243588 -6.70645e-09 0.00606435)
(0.0210985 -6.69693e-09 0.00605043)
(0.0178608 -5.96784e-09 0.00601026)
(0.0146604 -6.23245e-09 0.00593841)
(0.0115149 -4.80664e-09 0.00582819)
(0.00844475 1.85222e-09 0.00567085)
(0.00547264 1.17034e-08 0.00545374)
(0.00262705 2.06638e-08 0.00516702)
(-6.26598e-05 3.3399e-08 0.00480046)
(-0.00255681 6.02096e-08 0.00433778)
(-0.00481219 9.99001e-08 0.0037598)
(-0.00678226 1.39417e-07 0.00304294)
(-0.00841359 1.78343e-07 0.00215967)
(-0.00964936 2.40733e-07 0.00107941)
(-0.0104319 3.76482e-07 -0.000222535)
(-0.0107034 7.06066e-07 -0.00174913)
(-0.0104125 1.70209e-06 -0.00345461)
(-0.00954964 4.98585e-06 -0.00519756)
(-0.00812464 1.27484e-05 -0.00647488)
(-0.00561556 9.79537e-06 -0.00624717)
(-0.00311567 0.000173976 -0.00363935)
(-0.00652498 -6.53536e-07 0.0208537)
(-0.00735715 -1.28582e-07 0.0109279)
(-0.00517858 -7.55939e-09 0.000883983)
(-0.000634029 -4.24327e-09 -0.00699663)
(0.00541504 -1.02975e-08 -0.0122532)
(0.012742 -1.18551e-08 -0.0155737)
(0.0209453 -2.15809e-08 -0.0175118)
(0.0297161 -2.85122e-08 -0.0184967)
(0.0388109 -2.6289e-08 -0.0188656)
(0.048041 -2.12694e-08 -0.0188424)
(0.0572646 -1.77326e-08 -0.0185654)
(0.0663828 -1.6602e-08 -0.0181265)
(0.0753258 -1.70628e-08 -0.0175858)
(0.0840455 -1.58303e-08 -0.0169837)
(0.0925095 -1.05973e-08 -0.0163471)
(0.100697 -3.78817e-09 -0.0156941)
(0.108595 3.58797e-10 -0.0150369)
(0.116196 1.12877e-09 -0.0143837)
(0.123498 1.13444e-09 -0.0137396)
(0.130501 2.06813e-09 -0.0131081)
(0.137208 3.05227e-09 -0.0124913)
(0.143621 2.99228e-09 -0.0118902)
(0.149746 2.65532e-09 -0.0113053)
(0.155588 3.53572e-09 -0.010737)
(0.161152 5.63919e-09 -0.0101849)
(0.166446 7.43524e-09 -0.00964891)
(0.171474 7.80452e-09 -0.00912869)
(0.176244 7.38e-09 -0.00862388)
(0.180762 7.69599e-09 -0.00813412)
(0.185033 9.38448e-09 -0.0076591)
(0.189065 1.14651e-08 -0.00719851)
(0.192864 1.24122e-08 -0.00675208)
(0.196436 1.1704e-08 -0.0063196)
(0.199788 1.02411e-08 -0.00590086)
(0.202926 9.42724e-09 -0.00549567)
(0.205856 9.89552e-09 -0.00510389)
(0.208585 1.10805e-08 -0.00472537)
(0.21112 1.18762e-08 -0.00435999)
(0.213465 1.16811e-08 -0.0040076)
(0.215628 1.08273e-08 -0.00366809)
(0.217615 1.02362e-08 -0.0033413)
(0.219433 1.06036e-08 -0.0030271)
(0.221087 1.18628e-08 -0.00272532)
(0.222584 1.32543e-08 -0.00243579)
(0.223929 1.38873e-08 -0.00215833)
(0.225129 1.33209e-08 -0.00189273)
(0.22619 1.18066e-08 -0.00163877)
(0.227117 1.004e-08 -0.0013962)
(0.227916 8.74842e-09 -0.00116478)
(0.228594 8.25918e-09 -0.000944229)
(0.229154 8.43906e-09 -0.000734263)
(0.229603 8.85213e-09 -0.000534579)
(0.229947 9.0834e-09 -0.000344856)
(0.230189 8.95775e-09 -0.000164754)
(0.230335 8.58558e-09 6.03309e-06)
(0.23039 8.23055e-09 0.000167689)
(0.230358 8.12393e-09 0.00032047)
(0.230243 8.30001e-09 0.000464773)
(0.230051 8.54937e-09 0.00060097)
(0.229785 8.57505e-09 0.000729413)
(0.22945 8.13721e-09 0.000850442)
(0.229048 7.21966e-09 0.000964392)
(0.228584 6.04893e-09 0.00107159)
(0.228062 5.02001e-09 0.00117235)
(0.227484 4.546e-09 0.00126699)
(0.226853 4.86866e-09 0.00135582)
(0.226174 5.95942e-09 0.00143912)
(0.225448 7.52227e-09 0.00151719)
(0.224679 9.08989e-09 0.0015903)
(0.223868 1.01816e-08 0.00165873)
(0.223019 1.04538e-08 0.00172272)
(0.222134 9.81514e-09 0.00178253)
(0.221214 8.43026e-09 0.0018384)
(0.220263 6.66465e-09 0.00189057)
(0.219282 4.95996e-09 0.00193926)
(0.218272 3.73498e-09 0.00198469)
(0.217236 3.24765e-09 0.00202705)
(0.216176 3.55317e-09 0.00206654)
(0.215092 4.51449e-09 0.00210336)
(0.213986 5.85748e-09 0.00213767)
(0.212859 7.23664e-09 0.00216965)
(0.211714 8.34644e-09 0.00219945)
(0.21055 8.96701e-09 0.00222723)
(0.209369 9.03173e-09 0.00225313)
(0.208172 8.60913e-09 0.0022773)
(0.20696 7.86957e-09 0.00229985)
(0.205734 7.05006e-09 0.00232091)
(0.204494 6.38951e-09 0.0023406)
(0.203242 6.07922e-09 0.00235903)
(0.201978 6.23816e-09 0.00237631)
(0.200703 6.89396e-09 0.00239252)
(0.199417 7.99519e-09 0.00240778)
(0.19812 9.4229e-09 0.00242216)
(0.196814 1.10086e-08 0.00243574)
(0.195499 1.25762e-08 0.00244861)
(0.194175 1.39554e-08 0.00246085)
(0.192842 1.5009e-08 0.00247252)
(0.191501 1.56467e-08 0.00248369)
(0.190152 1.58209e-08 0.00249443)
(0.188795 1.55582e-08 0.0025048)
(0.187431 1.49024e-08 0.00251487)
(0.18606 1.39468e-08 0.00252468)
(0.184681 1.27942e-08 0.00253432)
(0.183296 1.15692e-08 0.00254382)
(0.181903 1.03928e-08 0.00255324)
(0.180503 9.36767e-09 0.00256265)
(0.179097 8.59386e-09 0.00257209)
(0.177683 8.12747e-09 0.00258163)
(0.176263 7.99041e-09 0.00259131)
(0.174835 8.16649e-09 0.00260119)
(0.173401 8.58719e-09 0.00261133)
(0.171959 9.1697e-09 0.00262178)
(0.170509 9.79503e-09 0.00263259)
(0.169052 1.03471e-08 0.00264382)
(0.167587 1.07288e-08 0.00265553)
(0.166113 1.08801e-08 0.00266777)
(0.164632 1.0783e-08 0.00268058)
(0.163141 1.04651e-08 0.00269404)
(0.161641 1.00054e-08 0.0027082)
(0.160132 9.50378e-09 0.0027231)
(0.158613 9.04596e-09 0.00273882)
(0.157084 8.6995e-09 0.0027554)
(0.155543 8.4863e-09 0.00277291)
(0.153992 8.37208e-09 0.00279141)
(0.152428 8.27214e-09 0.00281095)
(0.150852 8.09035e-09 0.00283159)
(0.149263 7.73913e-09 0.0028534)
(0.14766 7.18708e-09 0.00287642)
(0.146042 6.47704e-09 0.00290071)
(0.14441 5.70988e-09 0.00292634)
(0.142762 5.03981e-09 0.00295335)
(0.141097 4.60008e-09 0.00298179)
(0.139415 4.47444e-09 0.00301173)
(0.137714 4.66289e-09 0.00304321)
(0.135995 5.05313e-09 0.00307628)
(0.134256 5.4567e-09 0.003111)
(0.132496 5.70322e-09 0.00314741)
(0.130715 5.66705e-09 0.00318556)
(0.128911 5.3244e-09 0.0032255)
(0.127084 4.75712e-09 0.00326728)
(0.125232 4.11561e-09 0.00331094)
(0.123354 3.52834e-09 0.00335653)
(0.12145 3.0553e-09 0.0034041)
(0.119519 2.68409e-09 0.00345369)
(0.117559 2.33763e-09 0.00350534)
(0.115569 1.97595e-09 0.00355909)
(0.113548 1.62759e-09 0.00361499)
(0.111496 1.42676e-09 0.00367306)
(0.109411 1.52479e-09 0.00373334)
(0.107291 1.98261e-09 0.00379586)
(0.105136 2.69075e-09 0.00386065)
(0.102945 3.41793e-09 0.00392771)
(0.100717 3.90906e-09 0.00399708)
(0.0984496 4.04327e-09 0.00406874)
(0.0961428 3.94523e-09 0.00414271)
(0.0937952 3.88336e-09 0.00421895)
(0.0914058 4.09847e-09 0.00429744)
(0.0889736 4.56866e-09 0.00437814)
(0.0864976 5.03981e-09 0.00446097)
(0.0839768 5.19495e-09 0.00454586)
(0.0814105 4.96081e-09 0.00463268)
(0.078798 4.63529e-09 0.0047213)
(0.0761385 4.68478e-09 0.00481153)
(0.0734317 5.273e-09 0.00490315)
(0.0706772 6.07156e-09 0.00499588)
(0.0678748 6.43325e-09 0.00508942)
(0.0650246 6.03064e-09 0.00518336)
(0.062127 5.24349e-09 0.00527724)
(0.0591826 4.93606e-09 0.00537052)
(0.0561922 5.55568e-09 0.00546256)
(0.0531574 6.52177e-09 0.0055526)
(0.05008 6.70927e-09 0.00563976)
(0.0469622 5.66419e-09 0.005723)
(0.043807 4.30882e-09 0.00580112)
(0.0406181 3.96522e-09 0.00587272)
(0.0373999 4.49918e-09 0.00593614)
(0.0341579 3.95856e-09 0.00598948)
(0.0308983 7.75721e-10 0.00603046)
(0.0276289 -3.81769e-09 0.00605646)
(0.0243587 -6.70641e-09 0.00606435)
(0.0210985 -6.69689e-09 0.00605043)
(0.0178607 -5.96781e-09 0.00601026)
(0.0146604 -6.23241e-09 0.00593842)
(0.0115148 -4.80661e-09 0.0058282)
(0.00844464 1.85221e-09 0.00567087)
(0.00547252 1.17034e-08 0.00545376)
(0.00262691 2.06637e-08 0.00516705)
(-6.27724e-05 3.33988e-08 0.00480051)
(-0.00255687 6.02092e-08 0.00433787)
(-0.00481216 9.98994e-08 0.00375995)
(-0.00678211 1.39416e-07 0.00304318)
(-0.00841325 1.78341e-07 0.00216006)
(-0.00964872 2.40729e-07 0.00108004)
(-0.0104308 3.76454e-07 -0.000221551)
(-0.010701 7.05783e-07 -0.00174757)
(-0.010406 1.69815e-06 -0.00345217)
(-0.00953085 4.92023e-06 -0.00519687)
(-0.008068 1.19186e-05 -0.00647725)
(-0.00539886 7.16721e-06 -0.00627972)
(-0.00301497 7.49328e-05 -0.00431396)
(-0.000711486 -2.23462e-07 0.0261246)
(0.00198126 -7.04663e-08 0.0074561)
(0.0071472 -2.89245e-08 -0.00498928)
(0.0129684 -2.26238e-08 -0.0137701)
(0.0192425 -1.198e-08 -0.0198072)
(0.0260104 -2.68655e-09 -0.0237971)
(0.0332136 1.94301e-09 -0.0262713)
(0.0407676 5.13343e-09 -0.0276496)
(0.0485675 7.75658e-09 -0.0282587)
(0.0565045 9.30132e-09 -0.0283362)
(0.0644833 9.45304e-09 -0.0280484)
(0.0724269 8.36787e-09 -0.0275124)
(0.0802748 7.50068e-09 -0.0268103)
(0.087981 8.42771e-09 -0.0259997)
(0.0955112 1.08092e-08 -0.0251209)
(0.10284 1.26276e-08 -0.0242025)
(0.109951 1.25809e-08 -0.0232644)
(0.11683 1.14515e-08 -0.0223205)
(0.123472 1.06339e-08 -0.0213804)
(0.129869 1.02764e-08 -0.0204505)
(0.136022 9.66152e-09 -0.0195354)
(0.141928 8.74535e-09 -0.0186379)
(0.14759 8.30511e-09 -0.0177597)
(0.15301 8.7258e-09 -0.0169018)
(0.158189 9.39063e-09 -0.016065)
(0.163132 9.44867e-09 -0.0152492)
(0.167843 8.82711e-09 -0.0144547)
(0.172325 8.20746e-09 -0.0136812)
(0.176582 8.20554e-09 -0.0129287)
(0.180621 8.72903e-09 -0.0121968)
(0.184445 9.11069e-09 -0.0114856)
(0.188059 8.80086e-09 -0.0107946)
(0.191468 7.87663e-09 -0.0101239)
(0.194678 6.9167e-09 -0.00947328)
(0.197693 6.49551e-09 -0.00884258)
(0.200519 6.69681e-09 -0.0082317)
(0.203161 7.10322e-09 -0.00764055)