/*--------------------------------*- C++ -*----------------------------------*\
  =========                 |
  \\      /  F ield         | OpenFOAM: The Open Source CFD Toolbox
   \\    /   O peration     | Website:  https://openfoam.org
    \\  /    A nd           | Version:  8
     \\/     M anipulation  |
\*---------------------------------------------------------------------------*/
FoamFile
{
    version     2.0;
    format      ascii;
    class       volScalarField;
    location    "3000";
    object      alphat;
}
// * * * * * * * * * * * * * * * * * * * * * * * * * * * * * * * * * * * * * //

dimensions      [1 -1 -1 0 0 0 0];

internalField   nonuniform List<scalar> 
46000
(
5.85958e-07
2.69624e-06
5.18006e-06
7.51953e-06
9.73677e-06
1.18867e-05
1.39912e-05
1.60558e-05
1.80925e-05
2.01078e-05
2.21113e-05
2.41016e-05
2.60747e-05
2.80366e-05
2.99882e-05
3.19297e-05
3.38603e-05
3.57792e-05
3.76852e-05
3.95766e-05
4.1452e-05
4.33094e-05
4.51469e-05
4.69624e-05
4.87537e-05
5.05186e-05
5.22549e-05
5.39602e-05
5.56321e-05
5.72684e-05
5.88667e-05
6.04247e-05
6.19402e-05
6.34108e-05
6.48344e-05
6.62089e-05
6.75323e-05
6.88026e-05
7.00181e-05
7.11768e-05
7.22774e-05
7.33181e-05
7.42978e-05
7.5215e-05
7.60688e-05
7.68581e-05
7.75822e-05
7.82404e-05
7.88323e-05
7.93574e-05
7.98156e-05
8.02069e-05
8.05313e-05
8.07893e-05
8.09812e-05
8.11076e-05
8.11693e-05
8.11672e-05
8.11023e-05
8.09759e-05
8.07897e-05
8.05457e-05
8.02475e-05
7.98954e-05
7.94895e-05
7.90312e-05
7.85224e-05
7.79651e-05
7.73612e-05
7.67129e-05
7.60224e-05
7.52918e-05
7.45235e-05
7.37197e-05
7.28826e-05
7.20147e-05
7.11183e-05
7.01956e-05
6.92489e-05
6.82805e-05
6.72927e-05
6.62876e-05
6.52675e-05
6.42344e-05
6.31905e-05
6.21378e-05
6.10781e-05
6.00136e-05
5.89459e-05
5.78768e-05
5.6808e-05
5.57411e-05
5.46778e-05
5.36193e-05
5.25671e-05
5.15225e-05
5.04867e-05
4.94608e-05
4.84459e-05
4.7443e-05
4.64528e-05
4.54763e-05
4.45142e-05
4.35671e-05
4.26356e-05
4.17203e-05
4.08215e-05
3.99396e-05
3.90749e-05
3.82277e-05
3.73981e-05
3.65863e-05
3.57923e-05
3.50161e-05
3.42577e-05
3.35171e-05
3.2794e-05
3.20883e-05
3.13999e-05
3.07283e-05
3.00735e-05
2.94349e-05
2.88124e-05
2.82056e-05
2.76139e-05
2.70372e-05
2.64748e-05
2.59263e-05
2.53914e-05
2.48695e-05
2.43601e-05
2.38627e-05
2.33769e-05
2.29021e-05
2.24378e-05
2.19835e-05
2.15387e-05
2.11029e-05
2.06756e-05
2.02562e-05
1.98444e-05
1.94392e-05
1.90415e-05
1.86502e-05
1.82646e-05
1.78844e-05
1.75089e-05
1.71379e-05
1.6771e-05
1.64077e-05
1.60477e-05
1.56907e-05
1.53364e-05
1.49844e-05
1.46345e-05
1.42865e-05
1.39401e-05
1.35951e-05
1.32513e-05
1.29086e-05
1.25668e-05
1.22259e-05
1.18856e-05
1.15461e-05
1.12089e-05
1.08727e-05
1.05373e-05
1.02027e-05
9.86871e-06
9.5355e-06
9.20311e-06
8.87162e-06
8.54114e-06
8.21175e-06
7.88358e-06
7.55674e-06
7.23134e-06
6.9075e-06
6.58533e-06
6.26493e-06
5.94639e-06
5.62978e-06
5.31515e-06
5.00248e-06
4.69147e-06
4.38204e-06
4.07495e-06
3.7693e-06
3.46489e-06
3.16142e-06
2.85817e-06
2.55428e-06
2.24866e-06
1.94249e-06
1.63246e-06
1.31494e-06
9.86239e-07
6.44073e-07
3.02148e-07
5.76894e-08
5.85997e-07
2.69637e-06
5.18022e-06
7.51971e-06
9.73695e-06
1.18869e-05
1.39914e-05
1.6056e-05
1.80927e-05
2.01079e-05
2.21115e-05
2.41018e-05
2.60749e-05
2.80367e-05
2.99884e-05
3.19298e-05
3.38604e-05
3.57793e-05
3.76853e-05
3.95767e-05
4.14521e-05
4.33095e-05
4.51469e-05
4.69624e-05
4.87537e-05
5.05187e-05
5.22549e-05
5.39602e-05
5.56322e-05
5.72685e-05
5.88668e-05
6.04247e-05
6.19402e-05
6.34108e-05
6.48344e-05
6.62089e-05
6.75323e-05
6.88026e-05
7.0018e-05
7.11768e-05
7.22773e-05
7.33181e-05
7.42977e-05
7.52149e-05
7.60687e-05
7.6858e-05
7.75821e-05
7.82404e-05
7.88322e-05
7.93573e-05
7.98155e-05
8.02068e-05
8.05312e-05
8.07892e-05
8.09811e-05
8.11075e-05
8.11692e-05
8.1167e-05
8.11022e-05
8.09758e-05
8.07896e-05
8.05456e-05
8.02474e-05
7.98952e-05
7.94893e-05
7.90311e-05
7.85223e-05
7.79649e-05
7.73611e-05
7.67128e-05
7.60222e-05
7.52917e-05
7.45233e-05
7.37195e-05
7.28825e-05
7.20146e-05
7.11182e-05
7.01954e-05
6.92487e-05
6.82804e-05
6.72925e-05
6.62875e-05
6.52673e-05
6.42343e-05
6.31904e-05
6.21376e-05
6.1078e-05
6.00134e-05
5.89457e-05
5.78766e-05
5.68079e-05
5.5741e-05
5.46776e-05
5.36192e-05
5.2567e-05
5.15224e-05
5.04866e-05
4.94607e-05
4.84458e-05
4.74428e-05
4.64527e-05
4.54762e-05
4.45141e-05
4.3567e-05
4.26355e-05
4.17202e-05
4.08214e-05
3.99395e-05
3.90748e-05
3.82276e-05
3.7398e-05
3.65862e-05
3.57922e-05
3.5016e-05
3.42576e-05
3.3517e-05
3.27939e-05
3.20882e-05
3.13998e-05
3.07282e-05
3.00734e-05
2.94349e-05
2.88123e-05
2.82055e-05
2.76139e-05
2.70371e-05
2.64747e-05
2.59263e-05
2.53913e-05
2.48694e-05
2.436e-05
2.38627e-05
2.33768e-05
2.2902e-05
2.24377e-05
2.19835e-05
2.15387e-05
2.11029e-05
2.06755e-05
2.02562e-05
1.98443e-05
1.94391e-05
1.90415e-05
1.86502e-05
1.82646e-05
1.78843e-05
1.75089e-05
1.71379e-05
1.67709e-05
1.64077e-05
1.60477e-05
1.56907e-05
1.53364e-05
1.49844e-05
1.46345e-05
1.42865e-05
1.394e-05
1.3595e-05
1.32513e-05
1.29086e-05
1.25668e-05
1.22258e-05
1.18856e-05
1.15461e-05
1.12088e-05
1.08727e-05
1.05373e-05
1.02026e-05
9.86867e-06
9.53546e-06
9.20308e-06
8.87159e-06
8.54111e-06
8.21173e-06
7.88356e-06
7.55671e-06
7.23131e-06
6.90747e-06
6.58531e-06
6.26491e-06
5.94637e-06
5.62976e-06
5.31513e-06
5.00247e-06
4.69146e-06
4.38203e-06
4.07494e-06
3.76929e-06
3.46488e-06
3.16141e-06
2.85816e-06
2.55428e-06
2.24866e-06
1.94249e-06
1.63246e-06
1.31494e-06
9.86243e-07
6.44076e-07
3.02151e-07
5.76901e-08
2.46882e-06
3.62111e-05
6.41307e-05
8.32365e-05
9.79162e-05
0.000110004
0.000120351
0.000129564
0.000137974
0.000145772
0.000153085
0.00016001
0.000166615
0.000172943
0.000179026
0.00018489
0.000190556
0.00019604
0.000201354
0.000206508
0.00021151
0.000216366
0.000221082
0.000225661
0.000230106
0.000234419
0.000238603
0.000242657
0.000246582
0.00025038
0.00025405
0.000257591
0.000261004
0.000264288
0.000267443
0.000270467
0.000273361
0.000276123
0.000278753
0.00028125
0.000283614
0.000285844
0.00028794
0.000289901
0.000291727
0.000293418
0.000294974
0.000296396
0.000297682
0.000298835
0.000299853
0.000300739
0.000301493
0.000302115
0.000302608
0.000302972
0.000303209
0.000303321
0.000303308
0.000303173
0.000302917
0.00030254
0.000302042
0.000301429
0.000300705
0.000299873
0.000298937
0.0002979
0.000296766
0.000295538
0.000294219
0.000292812
0.000291322
0.000289751
0.000288103
0.000286382
0.000284591
0.000282735
0.000280816
0.000278839
0.000276806
0.000274723
0.000272592
0.000270417
0.000268202
0.000265949
0.000263664
0.000261349
0.000259007
0.000256642
0.000254257
0.000251855
0.00024944
0.000247014
0.00024458
0.000242142
0.000239701
0.000237261
0.000234823
0.000232391
0.000229966
0.000227551
0.000225148
0.000222759
0.000220385
0.000218029
0.000215691
0.000213374
0.000211079
0.000208807
0.000206558
0.000204335
0.000202138
0.000199967
0.000197824
0.000195708
0.000193621
0.000191562
0.000189532
0.000187531
0.000185559
0.000183615
0.0001817
0.000179812
0.000177953
0.00017612
0.000174315
0.000172535
0.00017078
0.00016905
0.000167342
0.000165658
0.000163995
0.000162351
0.000160728
0.000159122
0.000157532
0.000155959
0.000154399
0.000152853
0.000151319
0.000149797
0.000148282
0.000146775
0.000145273
0.000143776
0.000142282
0.000140789
0.000139297
0.000137803
0.000136307
0.000134806
0.0001333
0.000131788
0.000130267
0.000128737
0.000127197
0.000125645
0.00012408
0.0001225
0.000120906
0.000119294
0.000117664
0.000116012
0.000114326
0.00011262
0.000110891
0.000109139
0.000107364
0.000105564
0.000103739
0.000101887
0.000100007
9.80991e-05
9.6161e-05
9.41914e-05
9.21886e-05
9.01508e-05
8.80757e-05
8.59606e-05
8.38024e-05
8.15975e-05
7.93413e-05
7.70289e-05
7.46542e-05
7.22088e-05
6.96792e-05
6.7052e-05
6.431e-05
6.14298e-05
5.83784e-05
5.51097e-05
5.15478e-05
4.75469e-05
4.3031e-05
3.7775e-05
3.13718e-05
2.29929e-05
1.09804e-05
2.71198e-07
2.46893e-06
3.62132e-05
6.41339e-05
8.324e-05
9.79199e-05
0.000110008
0.000120354
0.000129568
0.000137978
0.000145776
0.000153089
0.000160014
0.000166619
0.000172947
0.00017903
0.000184895
0.000190561
0.000196044
0.000201358
0.000206512
0.000211514
0.000216371
0.000221087
0.000225666
0.000230111
0.000234424
0.000238608
0.000242662
0.000246588
0.000250385
0.000254055
0.000257597
0.00026101
0.000264294
0.000267448
0.000270473
0.000273367
0.000276129
0.000278759
0.000281256
0.00028362
0.00028585
0.000287946
0.000289907
0.000291733
0.000293424
0.00029498
0.000296402
0.000297688
0.000298841
0.000299859
0.000300745
0.000301499
0.000302121
0.000302614
0.000302978
0.000303215
0.000303327
0.000303314
0.000303179
0.000302922
0.000302546
0.000302048
0.000301435
0.00030071
0.000299878
0.000298943
0.000297906
0.000296772
0.000295543
0.000294224
0.000292818
0.000291327
0.000289756
0.000288108
0.000286387
0.000284596
0.00028274
0.000280821
0.000278844
0.000276811
0.000274728
0.000272597
0.000270422
0.000268206
0.000265954
0.000263669
0.000261353
0.000259011
0.000256646
0.000254261
0.00025186
0.000249444
0.000247018
0.000244584
0.000242146
0.000239705
0.000237264
0.000234827
0.000232394
0.00022997
0.000227555
0.000225152
0.000222762
0.000220389
0.000218032
0.000215695
0.000213377
0.000211082
0.00020881
0.000206561
0.000204338
0.00020214
0.00019997
0.000197826
0.000195711
0.000193623
0.000191565
0.000189535
0.000187533
0.000185561
0.000183617
0.000181702
0.000179815
0.000177955
0.000176123
0.000174317
0.000172537
0.000170782
0.000169051
0.000167344
0.00016566
0.000163996
0.000162353
0.000160729
0.000159123
0.000157534
0.00015596
0.0001544
0.000152854
0.00015132
0.000149798
0.000148283
0.000146776
0.000145274
0.000143777
0.000142283
0.00014079
0.000139298
0.000137804
0.000136308
0.000134807
0.000133301
0.000131789
0.000130268
0.000128738
0.000127197
0.000125645
0.00012408
0.000122501
0.000120906
0.000119295
0.000117665
0.000116012
0.000114327
0.00011262
0.000110892
0.00010914
0.000107364
0.000105564
0.000103739
0.000101887
0.000100008
9.80995e-05
9.61613e-05
9.41917e-05
9.2189e-05
9.01511e-05
8.8076e-05
8.59609e-05
8.38027e-05
8.15978e-05
7.93416e-05
7.70292e-05
7.46545e-05
7.22091e-05
6.96795e-05
6.70523e-05
6.43103e-05
6.14301e-05
5.83787e-05
5.511e-05
5.15481e-05
4.7547e-05
4.30311e-05
3.77751e-05
3.13719e-05
2.29929e-05
1.09803e-05
2.71198e-07
4.84568e-06
6.22627e-05
0.00012087
0.000164496
0.000198215
0.000225427
0.000248273
0.000268055
0.000285607
0.000301477
0.000316031
0.000329527
0.000342153
0.000354043
0.000365297
0.000375994
0.000386196
0.000395951
0.000405298
0.00041427
0.000422893
0.000431187
0.000439172
0.000446862
0.000454268
0.000461403
0.000468274
0.000474889
0.000481255
0.000487376
0.000493258
0.000498904
0.000504318
0.000509503
0.000514461
0.000519195
0.000523707
0.000527999
0.000532072
0.000535928
0.000539569
0.000542996
0.00054621
0.000549213
0.000552006
0.000554592
0.00055697
0.000559144
0.000561114
0.000562883
0.000564452
0.000565823
0.000566998
0.000567979
0.000568769
0.00056937
0.000569784
0.000570014
0.000570061
0.000569928
0.000569616
0.000569126
0.00056846
0.00056762
0.000566616
0.000565453
0.000564136
0.000562669
0.000561058
0.000559306
0.000557418
0.000555399
0.000553252
0.000550984
0.000548598
0.000546099
0.000543492
0.000540782
0.000537973
0.000535071
0.000532079
0.000529004
0.00052585
0.000522621
0.000519324
0.000515961
0.000512539
0.000509061
0.000505533
0.000501959
0.000498344
0.000494692
0.000491007
0.000487294
0.000483557
0.0004798
0.000476027
0.000472243
0.000468449
0.000464652
0.000460852
0.000457055
0.000453264
0.00044948
0.000445708
0.00044195
0.000438209
0.000434486
0.000430785
0.000427107
0.000423455
0.00041983
0.000416233
0.000412666
0.000409131
0.000405628
0.000402158
0.000398722
0.000395321
0.000391954
0.000388622
0.000385325
0.000382063
0.000378835
0.000375642
0.000372482
0.000369354
0.000366258
0.000363193
0.000360157
0.000357149
0.000354168
0.000351211
0.000348279
0.000345368
0.000342477
0.000339604
0.000336747
0.000333905
0.000331076
0.000328258
0.000325447
0.00032264
0.000319835
0.00031703
0.000314222
0.00031141
0.000308591
0.000305762
0.000302922
0.000300067
0.000297197
0.000294307
0.000291397
0.000288464
0.000285505
0.000282518
0.000279502
0.000276454
0.000273372
0.000270252
0.000267093
0.00026389
0.000260638
0.000257326
0.000253961
0.000250544
0.000247073
0.000243547
0.000239963
0.000236319
0.000232612
0.000228839
0.000224996
0.00022108
0.000217084
0.000213004
0.000208834
0.000204566
0.000200192
0.000195701
0.000191082
0.00018632
0.000181399
0.000176297
0.000170988
0.000165438
0.000159604
0.00015343
0.000146838
0.00013973
0.000131968
0.000123348
0.00011357
0.000102234
8.87582e-05
7.21088e-05
5.05478e-05
2.21613e-05
5.83827e-07
4.84582e-06
6.22657e-05
0.000120876
0.000164503
0.000198223
0.000225436
0.000248282
0.000268063
0.000285615
0.000301485
0.000316039
0.000329535
0.000342161
0.000354051
0.000365305
0.000376002
0.000386204
0.000395959
0.000405306
0.000414278
0.000422901
0.000431195
0.00043918
0.00044687
0.000454276
0.000461411
0.000468282
0.000474897
0.000481263
0.000487384
0.000493266
0.000498912
0.000504326
0.000509511
0.00051447
0.000519204
0.000523716
0.000528007
0.000532081
0.000535937
0.000539577
0.000543004
0.000546218
0.000549221
0.000552015
0.0005546
0.000556979
0.000559152
0.000561123
0.000562891
0.00056446
0.000565831
0.000567006
0.000567988
0.000568778
0.000569378
0.000569792
0.000570022
0.000570069
0.000569936
0.000569624
0.000569134
0.000568467
0.000567628
0.000566624
0.000565461
0.000564144
0.000562677
0.000561065
0.000559313
0.000557425
0.000555406
0.000553259
0.000550991
0.000548605
0.000546106
0.000543499
0.000540788
0.000537979
0.000535077
0.000532086
0.00052901
0.000525856
0.000522627
0.000519329
0.000515967
0.000512544
0.000509066
0.000505538
0.000501964
0.000498349
0.000494697
0.000491012
0.000487299
0.000483562
0.000479805
0.000476032
0.000472247
0.000468454
0.000464656
0.000460856
0.000457059
0.000453267
0.000449484
0.000445712
0.000441954
0.000438212
0.00043449
0.000430788
0.000427111
0.000423458
0.000419833
0.000416236
0.000412669
0.000409134
0.000405631
0.000402161
0.000398725
0.000395323
0.000391956
0.000388624
0.000385327
0.000382065
0.000378837
0.000375644
0.000372483
0.000369356
0.00036626
0.000363194
0.000360158
0.00035715
0.000354169
0.000351213
0.00034828
0.000345369
0.000342477
0.000339604
0.000336748
0.000333905
0.000331076
0.000328258
0.000325447
0.000322641
0.000319836
0.00031703
0.000314223
0.00031141
0.000308591
0.000305762
0.000302922
0.000300068
0.000297197
0.000294307
0.000291397
0.000288463
0.000285505
0.000282518
0.000279502
0.000276454
0.000273371
0.000270252
0.000267093
0.00026389
0.000260637
0.000257325
0.000253961
0.000250544
0.000247073
0.000243546
0.000239962
0.000236319
0.000232612
0.000228839
0.000224996
0.000221079
0.000217084
0.000213004
0.000208834
0.000204566
0.000200192
0.000195701
0.000191082
0.00018632
0.000181398
0.000176297
0.000170988
0.000165438
0.000159604
0.000153429
0.000146838
0.00013973
0.000131968
0.000123348
0.00011357
0.000102234
8.87583e-05
7.21088e-05
5.05478e-05
2.21611e-05
5.83828e-07
7.16535e-06
8.05496e-05
0.000162626
0.000228678
0.000281741
0.000325389
0.000362267
0.000394166
0.000422309
0.000447546
0.000470481
0.000491549
0.000511074
0.000529298
0.000546403
0.000562535
0.000577805
0.000592305
0.000606108
0.000619275
0.000631854
0.000643887
0.000655408
0.000666446
0.000677027
0.000687171
0.000696896
0.000706218
0.000715151
0.000723706
0.000731895
0.000739727
0.000747209
0.00075435
0.000761156
0.000767633
0.000773787
0.000779623
0.000785147
0.000790362
0.000795272
0.000799883
0.000804198
0.000808221
0.000811955
0.000815404
0.000818572
0.000821463
0.000824079
0.000826425
0.000828504
0.000830319
0.000831875
0.000833175
0.000834222
0.00083502
0.000835572
0.000835883
0.000835955
0.000835792
0.000835396
0.00083477
0.000833916
0.00083284
0.000831548
0.00083005
0.00082835
0.000826455
0.000824372
0.000822105
0.00081966
0.000817043
0.00081426
0.000811317
0.000808218
0.00080497
0.00080158
0.000798052
0.000794392
0.000790607
0.000786703
0.000782685
0.000778559
0.000774332
0.000770009
0.000765596
0.000761099
0.000756524
0.000751877
0.000747163
0.000742389
0.000737559
0.00073268
0.000727756
0.000722793
0.000717796
0.000712771
0.000707721
0.000702653
0.00069757
0.000692477
0.000687379
0.000682279
0.000677182
0.000672091
0.000667009
0.000661942
0.00065689
0.000651858
0.000646849
0.000641864
0.000636906
0.000631978
0.000627081
0.000622216
0.000617386
0.000612591
0.000607833
0.000603111
0.000598427
0.000593781
0.000589172
0.000584602
0.000580068
0.000575571
0.00057111
0.000566684
0.000562291
0.00055793
0.0005536
0.000549299
0.000545024
0.000540774
0.000536547
0.00053234
0.000528151
0.000523977
0.000519817
0.000515668
0.000511527
0.00050739
0.000503254
0.000499114
0.000494968
0.000490813
0.000486645
0.000482462
0.00047826
0.000474036
0.000469788
0.000465512
0.000461205
0.000456864
0.000452485
0.000448067
0.000443605
0.000439097
0.00043454
0.00042993
0.000425265
0.000420539
0.00041575
0.000410892
0.000405959
0.000400943
0.000395845
0.000390663
0.000385396
0.00038004
0.000374591
0.000369044
0.000363395
0.000357637
0.000351764
0.000345766
0.000339636
0.000333363
0.000326934
0.000320336
0.000313552
0.000306563
0.000299346
0.000291873
0.000284113
0.000276024
0.000267556
0.000258649
0.000249221
0.000239173
0.00022837
0.000216637
0.000203737
0.000189342
0.000173007
0.000154095
0.000131744
0.000104637
7.09609e-05
3.00207e-05
9.05936e-07
7.1655e-06
8.05529e-05
0.000162633
0.000228688
0.000281753
0.000325401
0.000362279
0.000394179
0.000422321
0.000447558
0.000470493
0.000491561
0.000511086
0.000529309
0.000546415
0.000562546
0.000577817
0.000592317
0.00060612
0.000619286
0.000631865
0.000643898
0.000655419
0.000666458
0.000677038
0.000687182
0.000696907
0.000706229
0.000715162
0.000723718
0.000731906
0.000739738
0.00074722
0.000754361
0.000761167
0.000767644
0.000773798
0.000779634
0.000785157
0.000790372
0.000795283
0.000799894
0.000804209
0.000808231
0.000811965
0.000815415
0.000818583
0.000821473
0.000824089
0.000826435
0.000828514
0.000830329
0.000831885
0.000833184
0.000834231
0.000835029
0.000835582
0.000835893
0.000835965
0.000835801
0.000835405
0.000834779
0.000833925
0.000832848
0.000831557
0.000830058
0.000828358
0.000826464
0.00082438
0.000822113
0.000819668
0.000817051
0.000814268
0.000811324
0.000808225
0.000804978
0.000801587
0.000798059
0.000794399
0.000790614
0.000786709
0.000782691
0.000778565
0.000774338
0.000770015
0.000765602
0.000761105
0.00075653
0.000751882
0.000747169
0.000742394
0.000737564
0.000732685
0.000727761
0.000722798
0.000717801
0.000712775
0.000707726
0.000702657
0.000697574
0.000692481
0.000687382
0.000682282
0.000677185
0.000672094
0.000667013
0.000661945
0.000656893
0.000651861
0.000646852
0.000641867
0.000636909
0.00063198
0.000627083
0.000622219
0.000617388
0.000612593
0.000607834
0.000603113
0.000598429
0.000593782
0.000589174
0.000584603
0.000580069
0.000575572
0.000571111
0.000566685
0.000562292
0.000557931
0.000553601
0.000549299
0.000545025
0.000540775
0.000536547
0.00053234
0.000528151
0.000523977
0.000519817
0.000515668
0.000511527
0.00050739
0.000503254
0.000499114
0.000494968
0.000490812
0.000486644
0.000482461
0.000478259
0.000474036
0.000469787
0.000465511
0.000461204
0.000456863
0.000452484
0.000448066
0.000443604
0.000439096
0.000434539
0.000429929
0.000425263
0.000420538
0.000415749
0.000410891
0.000405958
0.000400941
0.000395843
0.000390662
0.000385395
0.000380039
0.000374589
0.000369043
0.000363394
0.000357636
0.000351762
0.000345765
0.000339635
0.000333362
0.000326933
0.000320335
0.000313551
0.000306562
0.000299345
0.000291872
0.000284112
0.000276023
0.000267556
0.000258648
0.000249221
0.000239172
0.000228369
0.000216637
0.000203737
0.000189342
0.000173007
0.000154095
0.000131744
0.000104637
7.0961e-05
3.00205e-05
9.05938e-07
9.42744e-06
9.51293e-05
0.000195391
0.00028036
0.000350925
0.00041025
0.000460997
0.000505156
0.000544182
0.000579145
0.000610831
0.000639833
0.000666595
0.000691462
0.0007147
0.000736517
0.00075708
0.000776526
0.000794963
0.000812481
0.000829155
0.000845049
0.000860213
0.000874694
0.000888529
0.000901751
0.000914388
0.000926466
0.000938006
0.000949028
0.000959547
0.000969581
0.000979142
0.000988242
0.000996894
0.00100511
0.00101289
0.00102026
0.00102721
0.00103376
0.00103991
0.00104568
0.00105106
0.00105607
0.00106071
0.00106498
0.0010689
0.00107247
0.00107569
0.00107857
0.00108111
0.00108333
0.00108523
0.0010868
0.00108807
0.00108902
0.00108968
0.00109003
0.0010901
0.00108987
0.00108937
0.00108858
0.00108752
0.00108619
0.0010846
0.00108275
0.00108066
0.00107834
0.00107578
0.00107301
0.00107001
0.00106681
0.0010634
0.0010598
0.00105601
0.00105204
0.00104789
0.00104357
0.0010391
0.00103447
0.00102969
0.00102477
0.00101972
0.00101455
0.00100925
0.00100385
0.000998337
0.000992728
0.000987027
0.000981242
0.000975378
0.000969444
0.000963445
0.000957388
0.000951278
0.000945123
0.000938927
0.000932698
0.00092644
0.00092016
0.000913862
0.000907551
0.000901234
0.000894914
0.000888595
0.000882283
0.000875981
0.000869693
0.000863422
0.000857173
0.000850947
0.000844748
0.000838578
0.00083244
0.000826335
0.000820265
0.000814231
0.000808234
0.000802276
0.000796357
0.000790476
0.000784634
0.000778831
0.000773066
0.000767338
0.000761647
0.00075599
0.000750366
0.000744774
0.000739211
0.000733675
0.000728164
0.000722675
0.000717205
0.000711753
0.000706313
0.000700885
0.000695464
0.000690049
0.000684633
0.000679214
0.000673787
0.000668347
0.000662891
0.000657415
0.000651915
0.000646388
0.000640829
0.000635235
0.000629602
0.000623926
0.000618203
0.000612431
0.000606604
0.000600719
0.000594772
0.00058876
0.000582678
0.000576523
0.00057029
0.000563975
0.000557572
0.000551075
0.000544477
0.000537772
0.000530957
0.000524028
0.000516981
0.00050981
0.00050251
0.000495073
0.000487492
0.000479756
0.000471856
0.000463778
0.00045551
0.000447034
0.000438332
0.000429383
0.000420161
0.000410637
0.000400775
0.000390534
0.000379864
0.000368705
0.000356981
0.000344602
0.000331451
0.000317382
0.00030221
0.00028569
0.000267506
0.000247235
0.000224315
0.000197981
0.000167219
0.000130692
8.68507e-05
3.62136e-05
1.22654e-06
9.42759e-06
9.51327e-05
0.000195399
0.000280371
0.000350938
0.000410265
0.000461012
0.000505171
0.000544198
0.00057916
0.000610847
0.000639848
0.000666611
0.000691478
0.000714715
0.000736532
0.000757096
0.000776541
0.000794978
0.000812496
0.00082917
0.000845063
0.000860228
0.000874708
0.000888543
0.000901765
0.000914403
0.00092648
0.00093802
0.000949042
0.000959561
0.000969595
0.000979155
0.000988256
0.000996907
0.00100512
0.00101291
0.00102027
0.00102722
0.00103377
0.00103993
0.00104569
0.00105107
0.00105608
0.00106072
0.00106499
0.00106891
0.00107248
0.0010757
0.00107858
0.00108113
0.00108334
0.00108524
0.00108681
0.00108808
0.00108903
0.00108969
0.00109004
0.00109011
0.00108988
0.00108938
0.00108859
0.00108753
0.0010862
0.00108461
0.00108276
0.00108067
0.00107835
0.00107579
0.00107301
0.00107002
0.00106682
0.00106341
0.00105981
0.00105602
0.00105204
0.0010479
0.00104358
0.00103911
0.00103448
0.0010297
0.00102478
0.00101973
0.00101456
0.00100926
0.00100385
0.000998343
0.000992734
0.000987033
0.000981247
0.000975384
0.000969449
0.00096345
0.000957392
0.000951283
0.000945127
0.000938932
0.000932702
0.000926444
0.000920164
0.000913866
0.000907555
0.000901237
0.000894917
0.000888598
0.000882286
0.000875984
0.000869696
0.000863425
0.000857176
0.00085095
0.000844751
0.000838581
0.000832442
0.000826337
0.000820267
0.000814233
0.000808236
0.000802278
0.000796358
0.000790477
0.000784636
0.000778832
0.000773067
0.000767339
0.000761648
0.000755991
0.000750367
0.000744774
0.000739211
0.000733675
0.000728164
0.000722675
0.000717205
0.000711752
0.000706313
0.000700885
0.000695464
0.000690048
0.000684633
0.000679214
0.000673786
0.000668347
0.000662891
0.000657414
0.000651914
0.000646387
0.000640828
0.000635234
0.000629601
0.000623925
0.000618202
0.000612429
0.000606602
0.000600717
0.000594771
0.000588758
0.000582677
0.000576522
0.000570289
0.000563973
0.00055757
0.000551073
0.000544476
0.00053777
0.000530955
0.000524026
0.000516979
0.000509809
0.000502508
0.000495072
0.00048749
0.000479754
0.000471854
0.000463776
0.000455508
0.000447032
0.000438331
0.000429382
0.00042016
0.000410635
0.000400774
0.000390533
0.000379863
0.000368704
0.00035698
0.000344601
0.00033145
0.000317382
0.000302209
0.000285689
0.000267505
0.000247235
0.000224315
0.000197981
0.000167219
0.000130693
8.68508e-05
3.62135e-05
1.22654e-06
1.16677e-05
0.000107469
0.000222433
0.000323404
0.000409457
0.00048312
0.00054689
0.000602796
0.00065241
0.000696938
0.000737302
0.000774211
0.000808216
0.000839747
0.000869143
0.000896675
0.00092256
0.000946977
0.000970069
0.000991957
0.00101274
0.00103251
0.00105132
0.00106925
0.00108634
0.00110263
0.00111818
0.001133
0.00114714
0.00116061
0.00117344
0.00118566
0.00119728
0.00120832
0.00121879
0.00122872
0.0012381
0.00124697
0.00125532
0.00126317
0.00127054
0.00127742
0.00128384
0.0012898
0.0012953
0.00130037
0.001305
0.0013092
0.00131299
0.00131637
0.00131935
0.00132193
0.00132413
0.00132595
0.0013274
0.00132848
0.00132921
0.00132958
0.00132961
0.0013293
0.00132866
0.00132769
0.0013264
0.0013248
0.0013229
0.0013207
0.00131822
0.00131546
0.00131243
0.00130914
0.0013056
0.00130182
0.0012978
0.00129355
0.00128908
0.00128441
0.00127952
0.00127445
0.00126918
0.00126374
0.00125812
0.00125234
0.00124641
0.00124033
0.0012341
0.00122775
0.00122128
0.00121468
0.00120798
0.00120118
0.00119429
0.00118731
0.00118026
0.00117314
0.00116595
0.0011587
0.00115141
0.00114408
0.0011367
0.0011293
0.00112188
0.00111444
0.00110698
0.00109952
0.00109206
0.0010846
0.00107715
0.00106971
0.00106229
0.00105488
0.0010475
0.00104015
0.00103283
0.00102554
0.00101828
0.00101105
0.00100387
0.000996722
0.000989613
0.000982544
0.000975515
0.000968525
0.000961575
0.000954662
0.000947786
0.000940946
0.00093414
0.000927366
0.000920622
0.000913905
0.000907213
0.000900542
0.00089389
0.000887254
0.000880629
0.000874013
0.000867402
0.000860793
0.00085418
0.000847561
0.000840928
0.000834278
0.000827606
0.000820907
0.000814177
0.000807412
0.000800606
0.000793755
0.000786856
0.000779903
0.000772892
0.000765819
0.000758679
0.000751468
0.00074418
0.000736813
0.000729361
0.000721818
0.000714182
0.000706445
0.000698603
0.00069065
0.000682578
0.00067438
0.000666049
0.000657579
0.000648966
0.000640201
0.000631277
0.000622186
0.000612919
0.000603463
0.000593806
0.000583933
0.000573827
0.00056347
0.000552839
0.000541908
0.000530649
0.000519026
0.000507
0.000494524
0.000481541
0.000467984
0.000453773
0.00043881
0.000422976
0.00040612
0.000388058
0.000368556
0.000347318
0.000323963
0.000298002
0.000268799
0.00023553
0.00019714
0.000152351
9.996e-05
4.14499e-05
1.54591e-06
1.16679e-05
0.000107473
0.000222441
0.000323415
0.000409471
0.000483136
0.000546908
0.000602814
0.000652429
0.000696957
0.000737321
0.00077423
0.000808235
0.000839766
0.000869162
0.000896693
0.000922579
0.000946995
0.000970087
0.000991976
0.00101276
0.00103252
0.00105134
0.00106926
0.00108635
0.00110265
0.00111819
0.00113302
0.00114715
0.00116063
0.00117346
0.00118568
0.0011973
0.00120833
0.00121881
0.00122873
0.00123812
0.00124698
0.00125534
0.00126319
0.00127055
0.00127744
0.00128385
0.00128981
0.00129532
0.00130038
0.00130501
0.00130922
0.001313
0.00131638
0.00131936
0.00132195
0.00132414
0.00132596
0.00132741
0.00132849
0.00132922
0.00132959
0.00132962
0.00132931
0.00132867
0.0013277
0.00132641
0.00132481
0.00132291
0.00132071
0.00131823
0.00131547
0.00131244
0.00130915
0.00130561
0.00130183
0.00129781
0.00129356
0.00128909
0.00128441
0.00127953
0.00127446
0.00126919
0.00126375
0.00125813
0.00125235
0.00124641
0.00124033
0.00123411
0.00122776
0.00122128
0.00121469
0.00120799
0.00120119
0.0011943
0.00118732
0.00118027
0.00117314
0.00116595
0.00115871
0.00115142
0.00114408
0.00113671
0.00112931
0.00112188
0.00111444
0.00110699
0.00109953
0.00109206
0.0010846
0.00107715
0.00106971
0.00106229
0.00105489
0.00104751
0.00104015
0.00103283
0.00102554
0.00101828
0.00101106
0.00100387
0.000996724
0.000989615
0.000982546
0.000975517
0.000968527
0.000961576
0.000954663
0.000947788
0.000940947
0.000934141
0.000927367
0.000920623
0.000913906
0.000907213
0.000900543
0.000893891
0.000887254
0.00088063
0.000874014
0.000867402
0.000860793
0.00085418
0.00084756
0.000840928
0.000834278
0.000827605
0.000820907
0.000814177
0.000807411
0.000800605
0.000793755
0.000786855
0.000779902
0.000772891
0.000765818
0.000758678
0.000751466
0.000744179
0.000736812
0.000729359
0.000721817
0.00071418
0.000706444
0.000698602
0.000690648
0.000682576
0.000674378
0.000666047
0.000657578
0.000648964
0.000640199
0.000631275
0.000622185
0.000612917
0.000603461
0.000593804
0.000583931
0.000573826
0.000563468
0.000552837
0.000541907
0.000530647
0.000519025
0.000506999
0.000494522
0.000481539
0.000467983
0.000453772
0.000438809
0.000422975
0.000406119
0.000388057
0.000368556
0.000347318
0.000323963
0.000298002
0.000268799
0.000235531
0.00019714
0.000152351
9.99602e-05
4.14497e-05
1.54592e-06
1.38938e-05
0.00011834
0.000245693
0.000360395
0.000460095
0.000546685
0.000622427
0.000689305
0.000748935
0.000802604
0.000851323
0.000895892
0.000936943
0.000974979
0.0010104
0.00104354
0.00107464
0.00110394
0.00113161
0.0011578
0.00118263
0.0012062
0.0012286
0.00124992
0.00127021
0.00128953
0.00130793
0.00132546
0.00134214
0.00135803
0.00137313
0.00138749
0.00140113
0.00141406
0.00142632
0.00143792
0.00144887
0.0014592
0.00146892
0.00147804
0.00148658
0.00149455
0.00150196
0.00150883
0.00151517
0.00152099
0.00152631
0.00153112
0.00153544
0.00153929
0.00154267
0.00154559
0.00154806
0.0015501
0.0015517
0.00155289
0.00155366
0.00155403
0.001554
0.00155358
0.00155279
0.00155163
0.0015501
0.00154822
0.00154599
0.00154343
0.00154055
0.00153735
0.00153385
0.00153005
0.00152597
0.00152161
0.00151698
0.0015121
0.00150697
0.0015016
0.001496
0.00149018
0.00148415
0.00147791
0.00147148
0.00146487
0.00145808
0.00145112
0.00144401
0.00143675
0.00142935
0.00142182
0.00141416
0.0014064
0.00139852
0.00139055
0.0013825
0.00137436
0.00136615