/*--------------------------------*- C++ -*----------------------------------*\
  =========                 |
  \\      /  F ield         | OpenFOAM: The Open Source CFD Toolbox
   \\    /   O peration     | Website:  https://openfoam.org
    \\  /    A nd           | Version:  8
     \\/     M anipulation  |
\*---------------------------------------------------------------------------*/
FoamFile
{
    version     2.0;
    format      ascii;
    class       volScalarField;
    location    "3000";
    object      epsilon;
}
// * * * * * * * * * * * * * * * * * * * * * * * * * * * * * * * * * * * * * //

dimensions      [0 2 -3 0 0 0 0];

internalField   nonuniform List<scalar> 
46000
(
10.6421
44.1754
84.6845
122.746
158.764
193.649
227.765
261.209
294.179
326.781
359.177
391.343
423.218
454.898
486.403
517.733
548.878
579.826
610.556
641.046
671.269
701.197
730.797
760.039
788.886
817.304
845.255
872.704
899.613
925.944
951.661
976.726
1001.1
1024.76
1047.65
1069.75
1091.03
1111.45
1130.99
1149.61
1167.3
1184.02
1199.76
1214.49
1228.2
1240.87
1252.49
1263.06
1272.55
1280.97
1288.31
1294.58
1299.77
1303.89
1306.95
1308.95
1309.92
1309.86
1308.78
1306.72
1303.7
1299.75
1294.93
1289.24
1282.68
1275.28
1267.07
1258.08
1248.35
1237.9
1226.77
1214.99
1202.61
1189.66
1176.18
1162.2
1147.76
1132.89
1117.65
1102.05
1086.15
1069.96
1053.53
1036.9
1020.09
1003.14
986.079
968.938
951.747
934.534
917.325
900.148
883.026
865.984
849.042
832.223
815.544
799.026
782.684
766.533
750.589
734.865
719.371
704.12
689.119
674.377
659.901
645.698
631.772
618.126
604.764
591.688
578.899
566.397
554.181
542.25
530.601
519.233
508.142
497.324
486.773
476.486
466.457
456.679
447.147
437.853
428.792
419.955
411.336
402.926
394.717
386.703
378.874
371.222
363.74
356.419
349.251
342.227
335.339
328.579
321.941
315.41
309
302.691
296.474
290.343
284.289
278.306
272.388
266.528
260.721
254.961
249.243
243.563
237.915
232.296
226.703
221.131
215.578
210.041
204.518
199.006
193.505
188.015
182.559
177.12
171.692
166.273
160.865
155.467
150.08
144.707
139.348
134.005
128.679
123.374
118.089
112.829
107.593
102.384
97.2035
92.0521
86.9308
81.8394
76.7728
71.7299
66.7229
61.7371
56.7693
51.8145
46.8611
41.8949
36.8976
31.8884
26.8132
21.6117
16.2223
10.6052
4.98179
1.05692
10.6427
44.1774
84.6871
122.749
158.767
193.652
227.768
261.211
294.181
326.783
359.18
391.345
423.22
454.9
486.405
517.734
548.88
579.827
610.557
641.047
671.27
701.198
730.798
760.039
788.887
817.304
845.256
872.705
899.613
925.944
951.661
976.726
1001.1
1024.76
1047.65
1069.75
1091.03
1111.45
1130.99
1149.61
1167.3
1184.02
1199.75
1214.49
1228.2
1240.87
1252.49
1263.05
1272.55
1280.97
1288.31
1294.58
1299.77
1303.89
1306.95
1308.95
1309.92
1309.85
1308.78
1306.72
1303.7
1299.75
1294.92
1289.23
1282.68
1275.28
1267.07
1258.08
1248.34
1237.89
1226.76
1214.99
1202.61
1189.66
1176.17
1162.19
1147.75
1132.89
1117.65
1102.05
1086.14
1069.96
1053.53
1036.9
1020.09
1003.14
986.077
968.936
951.745
934.532
917.324
900.146
883.025
865.982
849.04
832.221
815.543
799.024
782.682
766.532
750.588
734.863
719.37
704.118
689.117
674.375
659.9
645.697
631.77
618.125
604.763
591.687
578.897
566.395
554.179
542.248
530.6
519.232
508.141
497.322
486.772
476.485
466.455
456.678
447.146
437.852
428.791
419.954
411.335
402.925
394.716
386.702
378.873
371.221
363.739
356.418
349.25
342.226
335.338
328.578
321.94
315.409
308.999
302.69
296.473
290.342
284.288
278.305
272.387
266.527
260.72
254.96
249.242
243.562
237.914
232.296
226.702
221.13
215.577
210.04
204.517
199.006
193.505
188.014
182.558
177.119
171.691
166.273
160.864
155.466
150.08
144.706
139.347
134.004
128.679
123.373
118.089
112.828
107.593
102.384
97.2032
92.0519
86.9306
81.8392
76.7726
71.7297
66.7227
61.737
56.7692
51.8145
46.861
41.8948
36.8975
31.8884
26.8132
21.6117
16.2224
10.6052
4.98182
1.05693
47.7997
40.927
53.2217
67.6743
82.6574
97.8926
113.307
128.821
144.442
160.131
175.898
191.74
207.643
223.612
239.643
255.728
271.853
288.005
304.168
320.322
336.447
352.523
368.527
384.435
400.223
415.865
431.334
446.606
461.653
476.447
490.962
505.171
519.047
532.564
545.695
558.415
570.7
582.526
593.87
604.71
615.026
624.799
634.01
642.645
650.687
658.123
664.944
671.137
676.697
681.617
685.892
689.521
692.502
694.838
696.532
697.588
698.015
697.82
697.015
695.614
693.633
691.094
688.026
684.435
680.33
675.724
670.635
665.083
659.09
652.678
645.87
638.689
631.16
623.307
615.153
606.723
598.041
589.132
580.018
570.724
561.271
551.684
541.984
532.192
522.33
512.416
502.471
492.513
482.559
472.627
462.732
452.889
443.113
433.417
423.814
414.314
404.928
395.666
386.537
377.549
368.709
360.022
351.496
343.134
334.94
326.919
319.071
311.401
303.908
296.594
289.458
282.502
275.723
269.121
262.694
256.44
250.357
244.442
238.692
233.104
227.674
222.399
217.274
212.296
207.46
202.762
198.197
193.761
189.449
185.256
181.179
177.21
173.347
169.585
165.917
162.341
158.85
155.441
152.108
148.846
145.654
142.528
139.466
136.461
133.51
130.607
127.75
124.934
122.157
119.414
116.702
114.02
111.364
108.731
106.119
103.527
100.951
98.3908
95.8443
93.3101
90.7872
88.2747
85.7722
83.2812
80.8079
78.346
75.8935
73.4495
71.014
68.5869
66.1688
63.76
61.3614
58.9736
56.5975
54.2341
51.8842
49.549
47.2292
44.9259
42.6399
40.372
38.1227
35.8922
33.6803
31.4872
29.3136
27.1564
25.0171
22.8965
20.7911
18.6988
16.6184
14.5563
12.4986
10.437
8.37169
6.33908
4.5705
5.36259
47.8017
40.9262
53.22
67.6721
82.6548
97.8897
113.303
128.818
144.438
160.126
175.893
191.735
207.638
223.606
239.637
255.721
271.846
287.997
304.159
320.313
336.438
352.514
368.517
384.425
400.212
415.853
431.323
446.594
461.64
476.434
490.949
505.157
519.033
532.549
545.68
558.4
570.685
582.51
593.854
604.694
615.009
624.782
633.993
642.627
650.669
658.106
664.926
671.119
676.679
681.598
685.873
689.502
692.483
694.819
696.513
697.569
697.996
697.801
696.996
695.595
693.614
691.075
688.007
684.417
680.312
675.706
670.617
665.065
659.072
652.66
645.853
638.672
631.144
623.29
615.137
606.707
598.026
589.116
580.003
570.708
561.257
551.67
541.97
532.178
522.316
512.402
502.458
492.5
482.546
472.614
462.72
452.877
443.102
433.406
423.803
414.303
404.918
395.656
386.527
377.539
368.699
360.013
351.487
343.125
334.932
326.91
319.063
311.393
303.9
296.586
289.451
282.495
275.716
269.114
262.688
256.434
250.351
244.436
238.687
233.099
227.669
222.394
217.269
212.291
207.455
202.757
198.193
193.757
189.445
185.252
181.175
177.207
173.344
169.581
165.914
162.338
158.847
155.438
152.105
148.844
145.651
142.525
139.463
136.459
133.507
130.605
127.748
124.932
122.155
119.412
116.7
114.018
111.362
108.729
106.118
103.525
100.95
98.3894
95.843
93.3089
90.786
88.2735
85.7711
83.2801
80.8069
78.3449
75.8925
73.4486
71.0131
68.5861
66.168
63.7592
61.3606
58.9729
56.5968
54.2334
51.8836
49.5484
47.2287
44.9254
42.6394
40.3715
38.1222
35.8918
33.6799
31.4868
29.3132
27.1561
25.0168
22.8962
20.7908
18.6985
16.6182
14.5562
12.4985
10.4369
8.37164
6.33905
4.5705
5.36259
92.3567
55.8596
57.6082
64.8631
73.8891
83.7662
94.1535
104.868
115.831
126.988
138.308
149.77
161.355
173.051
184.844
196.722
208.673
220.68
232.73
244.805
256.889
268.964
281.011
293.012
304.944
316.79
328.526
340.132
351.586
362.866
373.95
384.817
395.443
405.808
415.89
425.668
435.122
444.232
452.979
461.345
469.313
476.866
483.99
490.671
496.895
502.652
507.931
512.724
517.025
520.826
524.125
526.919
529.206
530.988
532.267
533.045
533.329
533.126
532.443
531.292
529.685
527.637
525.165
522.279
518.988
515.305
511.244
506.821
502.053
496.957
491.553
485.859
479.894
473.677
467.229
460.567
453.713
446.684
439.501
432.181
424.743
417.206
409.587
401.902
394.169
386.403
378.619
370.832
363.057
355.306
347.591
339.925
332.319
324.782
317.325
309.956
302.683
295.515
288.456
281.514
274.694
268
261.436
255.007
248.714
242.561
236.548
230.677
224.95
219.365
213.924
208.625
203.469
198.453
193.576
188.836
184.232
179.761
175.42
171.206
167.118
163.151
159.303
155.569
151.947
148.433
145.024
141.716
138.504
135.386
132.357
129.415
126.554
123.771
121.063
118.425
115.855
113.347
110.899
108.508
106.171
103.887
101.65
99.459
97.3089
95.1971
93.1205
91.0763
89.0619
87.0746
85.112
83.1719
81.2521
79.3506
77.4656
75.5953
73.7382
71.8929
70.058
68.2327
66.4159
64.6071
62.806
61.0131
59.2296
57.4541
55.6854
53.923
52.1665
50.4161
48.672
46.9346
45.2044
43.4819
41.7679
40.0631
38.3683
36.6845
35.0123
33.3528
31.7067
30.0748
28.458
26.8568
25.2718
23.7036
22.153
20.6202
19.106
17.6112
16.1368
14.6855
13.2597
11.8649
10.5072
9.19963
7.97955
6.96053
6.64117
11.3709
92.3594
55.8579
57.6055
64.8601
73.8858
83.7627
94.1499
104.865
115.827
126.983
138.304
149.766
161.35
173.046
184.839
196.717
208.667
220.674
232.723
244.799
256.882
268.957
281.004
293.004
304.937
316.781
328.518
340.123
351.577
362.857
373.941
384.807
395.433
405.798
415.88
425.658
435.111
444.221
452.968
461.334
469.302
476.855
483.979
490.659
496.883
502.64
507.919
512.712
517.013
520.814
524.113
526.907
529.194
530.976
532.255
533.033
533.317
533.114
532.431
531.281
529.674
527.626
525.154
522.268
518.977
515.294
511.233
506.81
502.042
496.946
491.543
485.849
479.884
473.667
467.219
460.558
453.703
446.675
439.491
432.172
424.735
417.197
409.578
401.894
394.161
386.395
378.611
370.825
363.05
355.299
347.584
339.919
332.312
324.776
317.319
309.95
302.678
295.509
288.451
281.509
274.689
267.995
261.432
255.002
248.71
242.556
236.544
230.673
224.946
219.361
213.92
208.622
203.465
198.449
193.573
188.833
184.229
179.758
175.417
171.204
167.115
163.148
159.3
155.567
151.945
148.431
145.022
141.714
138.502
135.384
132.356
129.413
126.552
123.77
121.061
118.424
115.853
113.346
110.898
108.507
106.17
103.886
101.649
99.4579
97.3079
95.1961
93.1196
91.0755
89.061
87.0738
85.1112
83.1712
81.2514
79.35
77.465
75.5947
73.7377
71.8923
70.0575
68.2322
66.4154
64.6067
62.8056
61.0127
59.2293
57.4538
55.6851
53.9227
52.1662
50.4159
48.6718
46.9344
45.2041
43.4816
41.7676
40.0629
38.3681
36.6843
35.0121
33.3526
31.7065
30.0746
28.4578
26.8566
25.2716
23.7035
22.1529
20.62
19.1058
17.6111
16.1367
14.6854
13.2597
11.8649
10.5071
9.1996
7.97953
6.96053
6.64122
11.3709
135.413
72.7116
66.9066
69.8108
75.5623
82.6598
90.5429
98.9419
107.713
116.768
126.052
135.526
145.161
154.934
164.828
174.824
184.906
195.059
205.268
215.515
225.784
236.06
246.323
256.558
266.746
276.868
286.905
296.839
306.65
316.318
325.825
335.151
344.276
353.181
361.847
370.256
378.389
386.23
393.761
400.965
407.828
414.336
420.473
426.229
431.591
436.55
441.096
445.221
448.919
452.185
455.015
457.406
459.357
460.869
461.942
462.581
462.789
462.573
461.939
460.896
459.455
457.627
455.425
452.86
449.94
446.678
443.087
439.18
434.973
430.48
425.719
420.705
415.455
409.987
404.317
398.462
392.44
386.267
379.96
373.536
367.011
360.4
353.72
346.984
340.208
333.406
326.591
319.775
312.971
306.191
299.445
292.744
286.098
279.515
273.004
266.572
260.227
253.975
247.822
241.773
235.832
230.004
224.293
218.7
213.228
207.881
202.658
197.56
192.59
187.746
183.029
178.438
173.973
169.631
165.413
161.316
157.338
153.477
149.731
146.097
142.574
139.157
135.845
132.634
129.521
126.503
123.577
120.739
117.987
115.317
112.726
110.21
107.766
105.391
103.081
100.833
98.6437
96.5102
94.429
92.3989
90.417
88.4801
86.5855
84.7301
82.911
81.1256
79.3712
77.6453
75.9456
74.2698
72.6158
70.9816
69.3653
67.7651
66.1793
64.6066
63.0453
61.4944
59.9527
58.4193
56.8934
55.3744
53.862
52.3561
50.857
49.3642
47.877
46.395
44.918
43.4461
41.9795
40.5185
39.0635
37.6151
36.1738
34.7405
33.3157
31.9003
30.4952
29.1013
27.7193
26.3503
24.9951
23.6546
22.3299
21.022
19.7321
18.4614
17.2117
15.9851
14.7843
13.6136
12.4786
11.3898
10.3624
9.42668
8.65081
8.22559
8.95655
17.4763
135.416
72.7093
66.9036
69.8075
75.5588
82.6562
90.5392
98.938
107.709
116.764
126.048
135.521
145.156
154.93
164.823
174.819
184.901
195.054
205.262
215.509
225.779
236.054
246.317
256.552
266.739
276.861
286.898
296.832
306.643
316.311
325.818
335.143
344.268
353.173
361.839
370.248
378.381
386.222
393.752
400.957
407.82
414.327
420.465
426.22
431.583
436.541
441.087
445.212
448.911
452.177
455.006
457.397
459.348
460.86
461.934
462.572
462.781
462.564
461.93
460.888
459.447
457.619
455.417
452.852
449.932
446.67
443.079
439.172
434.965
430.473
425.712
420.698
415.448
409.98
404.31
398.456
392.433
386.261
379.954
373.53
367.005
360.394
353.714
346.979
340.203
333.401
326.585
319.77
312.966
306.186
299.441
292.74
286.094
279.511
273
266.569
260.224
253.972
247.819
241.77
235.829
230.001
224.29
218.697
213.226
207.878
202.655
197.558
192.588
187.744
183.027
178.436
173.971
169.629
165.411
161.314
157.336
153.475
149.729
146.096
142.572
139.156
135.843
132.632
129.519
126.502
123.576
120.738
117.986
115.316
112.725
110.209
107.765
105.39
103.08
100.832
98.643
96.5095
94.4283
92.3983
90.4163
88.4795
86.5849
84.7295
82.9105
81.1251
79.3707
77.6449
75.9452
74.2695
72.6155
70.9813
69.365
67.7648
66.1791
64.6063
63.0451
61.4942
59.9525
58.4191
56.8932
55.3742
53.8618
52.356
50.8569
49.3641
47.8769
46.3949
44.9179
43.446
41.9794
40.5184
39.0634
37.615
36.1738
34.7404
33.3156
31.9003
30.4952
29.1012
27.7193
26.3502
24.995
23.6546
22.3299
21.022
19.7321
18.4614
17.2117
15.9851
14.7843
13.6136
12.4786
11.3897
10.3623
9.42667
8.6508
8.2256
8.95664
17.4764
177.199
90.1104
77.8203
77.3286
80.6992
85.899
92.1555
99.1017
106.537
114.341
122.435
130.765
139.29
147.98
156.809
165.757
174.804
183.932
193.123
202.361
211.629
220.911
230.189
239.446
248.666
257.83
266.921
275.921
284.812
293.576
302.195
310.651
318.925
327.001
334.861
342.487
349.863
356.974
363.802
370.334
376.555
382.453
388.013
393.226
398.08
402.566
406.675
410.401
413.736
416.677
419.22
421.362
423.102
424.44
425.378
425.919
426.065
425.824
425.2
424.201
422.838
421.118
419.054
416.655
413.931
410.894
407.554
403.926
400.022
395.858
391.446
386.804
381.945
376.886
371.642
366.229
360.663
354.959
349.132
343.197
337.171
331.066
324.897
318.679
312.424
306.145
299.855
293.565
287.287
281.031
274.807
268.626
262.495
256.424
250.419
244.488
238.638
232.874
227.201
221.626
216.151
210.78
205.517
200.364
195.324
190.399
185.589
180.896
176.32
171.862
167.521
163.298
159.19
155.197
151.318
147.552
143.896
140.348
136.907
133.571
130.336
127.2
124.161
121.216
118.362
115.596
112.915
110.316
107.796
105.353
102.982
100.681
98.4475
96.2773
94.1679
92.116
90.1188
88.1731
86.2772
84.4286
82.6245
80.8622
79.139
77.4523
75.7993
74.1776
72.5849
71.0189
69.4773
67.9581
66.4593
64.9791
63.5157
62.0675
60.6329
59.2106
57.7993
56.3978
55.0052
53.6204
52.2429
50.872
49.5073
48.1487
46.796
45.4489
44.1071
42.7702
41.4382
40.1111
38.789
37.4723
36.1613
34.8566
33.5586
32.2681
30.9858
29.7124
28.4488
27.1958
25.9544
24.7257
23.5107
22.3105
21.1265
19.96
18.8129
17.687
16.585
15.5101
14.4666
13.4607
12.5013
11.6025
10.7877
10.1016
9.64172
9.6751
11.3121
23.5108
177.202
90.1076
77.8169
77.3251
80.6956
85.8953
92.1518
99.0979
106.533
114.337
122.431
130.761
139.286
147.976
156.805
165.753
174.799
183.927
193.118
202.356
211.624
220.906
230.183
239.441
248.66
257.824
266.915
275.915
284.806
293.57
302.189
310.644
318.919
326.994
334.854
342.48
349.857
356.967
363.795
370.327
376.549
382.446
388.006
393.219
398.073
402.559
406.668
410.393
413.729
416.67
419.213
421.355
423.095
424.433
425.371
425.912
426.059
425.817
425.193
424.195
422.831
421.112
419.048
416.649
413.925
410.888
407.548
403.92
400.017
395.852
391.441
386.798
381.94
376.881
371.637
366.224
360.658
354.954
349.127
343.193
337.166
331.061
324.893
318.675
312.42
306.141
299.851
293.561
287.283
281.027
274.804
268.623
262.492
256.421
250.416
244.485
238.635
232.871
227.199
221.623
216.148
210.778
205.515
200.362
195.322
190.397
185.587
180.894
176.319
171.861
167.52
163.296
159.188
155.196
151.317
147.55
143.894
140.347
136.906
133.57
130.335
127.199
124.16
121.215
118.361
115.595
112.914
110.315
107.796
105.352
102.981
100.681
98.4469
96.2768
94.1673
92.1155
90.1183
88.1726
86.2767
84.4281
82.6241
80.8619
79.1387
77.4519
75.799
74.1773
72.5847
71.0186
69.477
67.9578
66.4591
64.9789
63.5155
62.0673
60.6328
59.2105
57.7992
56.3977
55.0051
53.6203
52.2428
50.8719
49.5073
48.1487
46.7959
45.4489
44.1071
42.7702
41.4382
40.1111
38.789
37.4723
36.1613
34.8566
33.5586
32.2681
30.9858
29.7124
28.4488
27.1958
25.9544
24.7257
23.5107
22.3105
21.1265
19.96
18.8129
17.687
16.585
15.51
14.4666
13.4606
12.5012
11.6025
10.7876
10.1016
9.64172
9.67513
11.3122
23.5108
218.447
107.916
89.6023
86.1409
87.56
91.283
96.3289
102.233
108.739
115.696
123.002
130.587
138.403
146.408
154.573
162.871
171.279
179.778
188.347
196.968
205.625
214.299
222.974
231.632
240.256
248.83
257.335
265.756
274.073
282.271
290.332
298.239
305.975
313.522
320.866
327.989
334.876
341.512
347.882
353.973
359.77
365.263
370.438
375.286
379.796
383.96
387.77
391.218
394.301
397.012
399.349
401.309
402.892
404.098
404.927
405.383
405.469
405.19
404.551
403.561
402.227
400.557
398.562
396.252
393.635
390.723
387.528
384.06
380.334
376.362
372.158
367.736
363.111
358.297
353.309
348.162
342.87
337.448
331.91
326.271
320.544
314.744
308.884
302.976
297.034
291.069
285.093
279.117
273.152
267.209
261.295
255.422
249.596
243.826
238.119
232.482
226.921
221.442
216.049
210.748
205.543
200.436
195.431
190.531
185.738
181.053
176.478
172.014
167.662
163.421
159.291
155.273
151.364
147.566
143.875
140.292
136.813
133.438
130.165
126.99
123.913
120.93
118.039
115.237
112.522
109.892
107.342
104.871
102.475
100.152
97.8991
95.7125
93.5898
91.528
89.5241
87.5754
85.679
83.8324
82.0337
80.2803
78.5694
76.8986
75.2651
73.6665
72.1004
70.5645
69.0565
67.5741
66.1155
64.6786
63.2616
61.8626
60.4801
59.1126
57.7585
56.4166
55.0856
53.7646
52.4524
51.1484
49.8517
48.5619
47.2784
46.0011
44.7296
43.4639
42.2036
40.9485
39.6985
38.4536
37.2141
35.9802
34.7522
33.5306
32.3159
31.1088
29.9099
28.72
27.5399
26.3706
25.213
24.0683
22.9376
21.8225
20.7243
19.6449
18.5865
17.5518
16.544
15.5675
14.6281
13.7338
12.8965
12.1344
11.4782
10.9854
10.7818
11.2102
13.6823
29.4972
218.45
107.913
89.5987
86.1373
87.5563
91.2793
96.3252
102.229
108.736
115.692
122.998
130.583
138.398
146.404
154.569
162.867
171.275
179.773
188.342
196.964
205.62
214.294
222.969
231.627
240.251
248.824
257.33
265.75
274.068
282.266
290.327
298.233
305.969
313.516
320.86
327.983
334.87
341.506
347.876
353.966
359.764
365.257
370.432
375.28
379.79
383.954
387.763
391.212
394.295
397.006
399.343
401.303
402.886
404.092
404.921
405.377
405.463
405.184
404.546
403.555
402.221
400.552
398.557
396.247
393.63
390.718
387.523
384.055
380.329
376.357
372.153
367.732
363.107
358.293
353.305
348.158
342.866
337.444
331.906
326.267
320.541
314.741
308.88
302.973
297.031
291.066
285.09
279.114
273.15
267.206
261.293
255.419
249.593
243.823
238.117
232.48
226.919
221.44
216.047
210.746
205.541
200.434
195.429
190.529
185.736
181.052
176.477
172.013
167.66
163.419
159.29
155.271
151.363
147.565
143.874
140.291
136.812
133.437
130.164
126.989
123.912
120.929
118.038
115.236
112.522
109.891
107.342
104.87
102.475
100.152
97.8985
95.712
93.5893
91.5275
89.5237
87.575
85.6786
83.832
82.0334
80.28
78.5691
76.8983
75.2648
73.6663
72.1002
70.5643
69.0562
67.5739
66.1153
64.6784
63.2614
61.8625
60.48
59.1125
57.7584
56.4165
55.0856
53.7645
52.4524
51.1483
49.8516
48.5618
47.2784
46.001
44.7296
43.4639
42.2036
40.9485
39.6985
38.4536
37.2141
35.9802
34.7522
33.5306
32.3159
31.1088
29.9099
28.72
27.5399
26.3706
25.213
24.0683
22.9377
21.8225
20.7243
19.6449
18.5865
17.5518
16.544
15.5675
14.6281
13.7338
12.8965
12.1344
11.4782
10.9854
10.7818
11.2102
13.6824
29.4973
259.318
126.102
102.014
95.811
95.5182
98.0042
102.077
107.172
112.983
119.321
126.068
133.138
140.47
148.018
155.745
163.619
171.615
179.708
187.879
196.106
204.371
212.657
220.944
229.217
237.457
245.647
253.771
261.81
269.75
277.571
285.259
292.796
300.166
307.353
314.341
321.116
327.662
333.964
340.01
345.786
351.279
356.478
361.372
365.951
370.206
374.128
377.71
380.947
383.832
386.363
388.535
390.347
391.798
392.888
393.619
393.994
394.015
393.687
393.017
392.01
390.674
389.018
387.051
384.782
382.22
379.376
376.261
372.886
369.264
365.408
361.329
357.043
352.562
347.9
343.072
338.091
332.971
327.727
322.372
316.919
311.382
305.774
300.108
294.396
288.65
282.882
277.103
271.324
265.554
259.804
254.083
248.4
242.761
237.176
231.651
226.193
220.807
215.5
210.275
205.138
200.093
195.142
190.289
185.537
180.887
176.342
171.902
167.569
163.343
159.225
155.214
151.31
147.512
143.82
140.233
136.749
133.366
130.084
126.899
123.81
120.816
117.912
115.098
112.371
109.728
107.166
104.683
102.276
99.9418
97.6786
95.483
93.3524
91.2838
89.2744
87.3216
85.4224
83.5742
81.7752
80.0229
78.3147
76.648
75.0202
73.4291
71.872
70.3469
68.8513
67.3832
65.9406
64.5213
63.1236
61.7457
60.3859
59.0426
57.7144
56.4
55.0979
53.8072
52.5268
51.2558
49.9933
48.7388
47.4916
46.2514
45.0177
43.7904
42.5693
41.3542
40.1448
38.9412
37.7433
36.5513
35.3655
34.1861
33.0136
31.8486
30.6915
29.543
28.4039
27.2751
26.1574
25.052
23.9599
22.8827
21.8217
20.7789
19.7564
18.7568
17.7833
16.8401
15.9324
15.0674
14.255
13.5097
12.8539
12.3254
11.9947
12.0141
12.8024
16.0722
35.4703
259.321
126.098
102.011
95.8072
95.5144
98.0004
102.073
107.169
112.979
119.318
126.064
133.134
140.466
148.014
155.741
163.615
171.61
179.704
187.874
196.101
204.367
212.652
220.94
229.212
237.452
245.642
253.765
261.805
269.744
277.566
285.254
292.79
300.16
307.348
314.336
321.11
327.656
333.959
340.005
345.78
351.274
356.473
361.367
365.945
370.2
374.122
377.705
380.941
383.827
386.357
388.529
390.341
391.792
392.883
393.614
393.989
394.01
393.682
393.012
392.005
390.67
389.014
387.046
384.777
382.216
379.372
376.257
372.882
369.26
365.403
361.325
357.039
352.558
347.897
343.068
338.088
332.968
327.724
322.368
316.915
311.379
305.771
300.105
294.393
288.647
282.879
277.1
271.321
265.552
259.802
254.081
248.397
242.759
237.174
231.649
226.191
220.806
215.498
210.274
205.137
200.091
195.14
190.288
185.535
180.886
176.34
171.901
167.568
163.342
159.223
155.212
151.309
147.511
143.819
140.232
136.748
133.365
130.083
126.898
123.81
120.815
117.912
115.098
112.37
109.727
107.165
104.682
102.275
99.9413
97.6781
95.4825
93.3519
91.2833
89.274
87.3212
85.422
83.5738
81.7749
80.0226
78.3144
76.6477
75.02
73.4288
71.8718
70.3467
68.8511
67.383
65.9404
64.5211
63.1234
61.7455
60.3857
59.0425
57.7143
56.3998
55.0978
53.8071
52.5267
51.2557
49.9933
48.7387
47.4916
46.2513
45.0177
43.7904
42.5693
41.3541
40.1448
38.9411
37.7433
36.5513
35.3654
34.1861
33.0136
31.8486
30.6915
29.543
28.4039
27.2751
26.1574
25.052
23.9599
22.8827
21.8217
20.7789
19.7564
18.7568
17.7833
16.8401
15.9324
15.0674
14.255
13.5096
12.8539
12.3254
11.9946
12.0141
12.8025
16.0724
35.4704
300.004
144.674
114.956
106.159
104.305
105.706
108.958
113.396
118.659
124.529
130.863
137.564
144.559
151.795
159.228
166.823
174.549
182.382
190.296
198.27
206.285
214.32
222.358
230.38
238.368
246.306
254.175
261.959
269.642
277.206
284.636
291.914
299.027
305.957
312.69
319.211
325.506
331.561
337.363
342.901
348.161
353.134
357.808
362.175
366.225
369.953
373.349
376.41
379.13
381.506
383.535
385.216
386.547
387.53
388.166
388.457
388.407
388.021
387.304
386.263
384.904
383.236
381.267
379.007
376.465
373.651
370.575
367.248
363.684
359.892
355.888
351.682
347.288
342.72
337.991
333.114
328.102
322.97
317.73
312.395
306.979
301.493
295.95
290.363
284.741
279.098
273.443
267.787
262.14
256.511
250.909
245.342
239.819
234.346
228.931
223.58
218.298
213.092
207.966
202.924
197.97
193.108
188.34
183.67
179.099
174.629
170.262
165.998
161.838
157.783
153.832
149.985
146.242
142.601
139.063
135.625
132.286
129.045
125.899
122.848
119.888
117.017
114.234
111.536
108.92
106.383
103.925
101.54
99.228
96.9849
94.8083
92.6955
90.6437
88.6503
86.7124
84.8275
82.9933
81.2078
79.4682
77.7722
76.1172
74.5008
72.9206
71.3742
69.8596
68.3744
66.9167
65.4844
64.0757
62.6888
61.3218
59.9734
58.6418
57.3258
56.024
54.7352
53.4584
52.1925
50.9368
49.6904
48.4527
47.2231
46.0013
44.7869
43.5796
42.3794
41.1859
39.999
38.8188
37.6451
36.4782
35.3183
34.1656
33.0205
31.8835
30.7552
29.6362
28.5272
27.4291
26.3428
25.2694
24.2103
23.1668
22.1406
21.134
20.1493
19.1895
18.2585
17.361
16.5033
15.6938
14.9442
14.2717
13.7028
13.2823
13.0933
13.3163
14.4461
18.496
41.4792
300.007
144.67
114.952
106.155
104.301
105.703
108.954
113.393
118.656
124.525
130.859
137.56
144.555
151.791
159.224
166.819
174.545
182.377
190.291
198.266
206.28
214.316
222.353
230.375
238.363
246.301
254.17
261.954
269.637
277.201
284.631
291.909
299.021
305.951
312.684
319.205
325.5
331.556
337.358
342.896
348.156
353.128
357.803
362.17
366.22
369.947
373.344
376.405
379.125
381.501
383.53
385.211
386.542
387.525
388.161
388.452
388.403
388.017
387.3
386.258
384.9
383.232
381.263
379.003
376.461
373.647
370.571
367.245
363.68
359.889
355.884
351.678
347.285
342.717
337.988
333.111
328.099
322.967
317.727
312.393
306.976
301.49
295.948
290.36
284.739
279.096
273.441
267.785
262.138
256.509
250.907
245.34
239.817
234.344
228.929
223.578
218.297
213.09
207.964
202.922
197.968
193.106
188.339
183.669
179.098
174.628
170.261
165.997
161.837
157.781
153.831
149.984
146.241
142.6
139.062
135.624
132.285
129.044
125.898
122.847
119.887
117.016
114.233
111.535
108.919
106.383
103.924
101.54
99.2274
96.9844
94.8078
92.695
90.6433
88.6498
86.712
84.8271
82.993
81.2074
79.4679
77.7719
76.1169
74.5005
72.9203
71.374
69.8593
68.3742
66.9165
65.4842
64.0755
62.6886
61.3217
59.9732
58.6417
57.3256
56.0238
54.7351
53.4583
52.1924
50.9367
49.6903
48.4526
47.223
46.0012
44.7868
43.5796
42.3793
41.1858
39.999
38.8187
37.6451
36.4782
35.3182
34.1655
33.0205
31.8835
30.7552
29.6362
28.5272
27.4291
26.3428
25.2694
24.2103
23.1667
22.1406
21.134
20.1492
19.1895
18.2584
17.361
16.5033
15.6938
14.9442
14.2717
13.7028
13.2823
13.0933
13.3163
14.4461
18.4962
41.4794
340.815
163.732
128.428
117.12
113.801
114.22
116.755
120.641
125.462
130.966
136.992
143.426
150.186
157.212
164.453
171.869
179.427
187.098
194.855
202.675
210.536
218.417
226.299
234.164
241.992
249.766
257.468
265.082
272.591
279.978
287.228
294.323
301.25
307.992
314.536
320.866
326.97
332.835
338.447
343.796
348.87
353.658
358.152
362.343
366.222
369.782
373.019
375.926
378.499
380.736
382.633
384.19
385.407
386.285
386.824
387.028
386.901
386.446
385.67
384.579
383.18
381.48
379.488
377.214
374.665
371.852
368.786
365.476
361.936
358.175
354.207
350.044
345.698
341.183
336.511
331.695
326.748
321.683
316.513
311.25
305.907
300.496
295.029
289.517
283.971
278.403
272.823
267.241
261.667
256.109
250.576
245.077
239.62
234.211
228.857
223.564
218.339
213.186
208.111
203.117
198.208
193.389
188.661
184.028
179.492
175.054
170.716
166.478
162.343
158.309
154.378
150.548
146.82
143.192
139.665
136.236
132.905
129.669
126.527
123.478
120.519
117.648
114.864
112.162
109.542
107.001
104.537
102.146
99.8257
97.5743
95.3887
93.2663
91.2045
89.2005
87.2518
85.3556
83.5104
81.7134
79.9623
78.2545
76.5876
74.9593
73.3672
71.809
70.2826
68.786
67.3171
65.8739
64.4547
63.0577
61.6812
60.3238
58.9839
57.6603
56.3516
55.0567
53.7747
52.5045
51.2454
49.9966
48.7575
47.5276
46.3065
45.0938
43.8894
42.693
41.5044
40.3235
39.1503
37.9848
36.8271
35.6773
34.5358
33.4028
32.2789
31.1645
30.0603
28.9669
27.8851
26.8161
25.7608
24.7207
23.6973
22.6925
21.7086
20.7484
19.8153
18.9136
18.0487
17.2279
16.4607
15.7608
15.1477
14.6522
14.326
14.2654
14.6795
16.139
20.9636
47.5334
340.818
163.728
128.423
117.116
113.797
114.216
116.752
120.638
125.458
130.962
136.988
143.422
150.182
157.208
164.449
171.865
179.423
187.094
194.851
202.67
210.531
218.413
226.295
234.159
241.987
249.761
257.464
265.078
272.586
279.974
287.223
294.318
301.245
307.987
314.531
320.861
326.965
332.83
338.442
343.791
348.865
353.653
358.147
362.338
366.217
369.778
373.014
375.921
378.494
380.731
382.628
384.186
385.403
386.28
386.82
387.024
386.896
386.442
385.666
384.575
383.176
381.476
379.485
377.21
374.661
371.849
368.782
365.473
361.932
358.172
354.204
350.041
345.695
341.18
336.508
331.692
326.745
321.68
316.51
311.248
305.905
300.493
295.026
289.514
283.969
278.401
272.821
267.239
261.665
256.107
250.575
245.076
239.618
234.209
228.855
223.563
218.337
213.185
208.109
203.115
198.207
193.388
188.66
184.027
179.491
175.053
170.714
166.477
162.342
158.308
154.377
150.547
146.819
143.192
139.664
136.235
132.904
129.668
126.527
123.477
120.519
117.648
114.863
112.162
109.542
107.001
104.536
102.145
99.8251
97.5738
95.3882
93.2659
91.2041
89.2001
87.2514
85.3553
83.51
81.7131
79.962
78.2542
76.5873
74.959
73.3669
71.8087
70.2824
68.7857
67.3168
65.8737
64.4545
63.0575
61.681
60.3236
58.9837
57.6601
56.3514
55.0566
53.7746
52.5044
51.2453
49.9965
48.7574
47.5275
46.3064
45.0938
43.8893
42.6929
41.5043
40.3235
39.1503
37.9848
36.827
35.6773
34.5358
33.4028
32.2789
31.1645
30.0602
28.9668
27.8851
26.8161
25.7608
24.7207
23.6973
22.6925
21.7086
20.7484
19.8153
18.9136
18.0487
17.2279
16.4607
15.7607
15.1477
14.6522
14.326
14.2654
14.6795
16.139
20.9639
47.5336
381.968
183.303
142.449
128.679
123.958
123.465
125.36
128.77
133.226
138.443
144.238
150.482
157.086
163.977
171.102
178.416
185.881
193.464
201.138
208.876
216.656
224.454
232.251
240.026
247.761
255.437
263.037
270.543
277.938
285.206
292.331
299.297
306.09
312.694
319.095
325.279
331.234
336.947
342.406
347.6
352.519
357.152
361.492
365.53
369.258
372.671
375.762
378.528
380.966
383.071
384.843
386.28
387.384
388.155
388.594
388.706
388.493
387.961
387.115
385.961
384.507
382.759
380.727
378.419
375.844
373.011
369.931
366.614
363.072
359.315
355.356
351.208
346.881
342.388
337.742
332.955
328.041
323.011
317.877
312.652
307.349
301.977
296.551
291.079
285.575
280.047
274.506
268.962
263.424
257.902
252.403
246.937
241.509
236.128
230.8
225.531
220.327
215.193
210.133
205.153
200.257
195.446
190.725
186.096
181.562
177.123
172.783
168.541
164.398
160.356
156.414
152.572
148.829
145.186
141.641
138.194
134.842