/*--------------------------------*- C++ -*----------------------------------*\
  =========                 |
  \\      /  F ield         | OpenFOAM: The Open Source CFD Toolbox
   \\    /   O peration     | Website:  https://openfoam.org
    \\  /    A nd           | Version:  8
     \\/     M anipulation  |
\*---------------------------------------------------------------------------*/
FoamFile
{
    version     2.0;
    format      ascii;
    class       volScalarField;
    location    "3000";
    object      k;
}
// * * * * * * * * * * * * * * * * * * * * * * * * * * * * * * * * * * * * * //

dimensions      [0 2 -2 0 0 0 0];

internalField   nonuniform List<scalar> 
46000
(
0.00845831
0.0369113
0.0707528
0.102548
0.132637
0.161779
0.190278
0.218216
0.245758
0.272992
0.300055
0.326925
0.353552
0.380016
0.406334
0.432505
0.458523
0.484375
0.510045
0.535515
0.560762
0.585762
0.610489
0.634916
0.659013
0.682751
0.706101
0.72903
0.751508
0.773504
0.794986
0.815923
0.836286
0.856044
0.875169
0.893631
0.911405
0.928464
0.944784
0.960341
0.975114
0.989082
1.00223
1.01453
1.02599
1.03657
1.04628
1.05511
1.06304
1.07007
1.07621
1.08144
1.08578
1.08922
1.09178
1.09345
1.09426
1.09421
1.09331
1.09159
1.08907
1.08577
1.08174
1.07699
1.07152
1.06534
1.05848
1.05098
1.04284
1.03412
1.02482
1.01499
1.00465
0.99383
0.982568
0.970891
0.958831
0.946418
0.933684
0.920658
0.907372
0.893854
0.880133
0.866239
0.8522
0.838041
0.823791
0.809473
0.795114
0.780736
0.766362
0.752014
0.737712
0.723476
0.709324
0.695274
0.681343
0.667544
0.653892
0.640401
0.627082
0.613947
0.601004
0.588263
0.575731
0.563416
0.551323
0.539457
0.527823
0.516423
0.50526
0.494335
0.48365
0.473205
0.462999
0.453031
0.443299
0.433801
0.424534
0.415495
0.40668
0.398084
0.389704
0.381534
0.373569
0.365804
0.358232
0.350848
0.343646
0.336618
0.329759
0.323062
0.31652
0.310126
0.303873
0.297755
0.291765
0.285895
0.28014
0.274491
0.268943
0.263485
0.258128
0.252856
0.247661
0.242537
0.237478
0.232479
0.227533
0.222636
0.217784
0.212971
0.208193
0.203446
0.198727
0.194033
0.189359
0.184703
0.180064
0.175437
0.170823
0.166219
0.161623
0.157036
0.152478
0.147934
0.1434
0.138873
0.134355
0.129846
0.125347
0.120859
0.116382
0.11192
0.107472
0.10304
0.0986268
0.0942329
0.0898601
0.0855097
0.0811829
0.0768806
0.0726034
0.0683512
0.0641197
0.0599081
0.0557264
0.0515624
0.0474135
0.0432754
0.0391384
0.0349907
0.030817
0.0266334
0.0223945
0.0180502
0.0135489
0.00885748
0.00416082
0.000837913
0.00845884
0.0369131
0.070755
0.102551
0.132639
0.161781
0.19028
0.218218
0.24576
0.272994
0.300057
0.326927
0.353554
0.380018
0.406336
0.432507
0.458524
0.484376
0.510047
0.535516
0.560763
0.585763
0.61049
0.634916
0.659014
0.682752
0.706101
0.72903
0.751508
0.773504
0.794986
0.815923
0.836286
0.856044
0.875168
0.893631
0.911405
0.928464
0.944783
0.96034
0.975113
0.989081
1.00223
1.01453
1.02599
1.03657
1.04628
1.0551
1.06304
1.07007
1.0762
1.08144
1.08578
1.08922
1.09177
1.09345
1.09426
1.09421
1.09331
1.09159
1.08907
1.08577
1.08174
1.07699
1.07151
1.06534
1.05848
1.05097
1.04284
1.03411
1.02482
1.01498
1.00464
0.993828
0.982566
0.970889
0.958829
0.946417
0.933682
0.920657
0.90737
0.893852
0.880132
0.866238
0.852198
0.83804
0.823789
0.809472
0.795112
0.780734
0.76636
0.752012
0.73771
0.723474
0.709323
0.695273
0.681341
0.667542
0.653891
0.6404
0.627081
0.613945
0.601002
0.588261
0.57573
0.563415
0.551322
0.539456
0.527821
0.516422
0.505259
0.494334
0.483649
0.473204
0.462998
0.45303
0.443298
0.4338
0.424533
0.415494
0.406678
0.398083
0.389703
0.381533
0.373568
0.365803
0.358231
0.350847
0.343645
0.336617
0.329758
0.323061
0.316519
0.310125
0.303873
0.297755
0.291764
0.285895
0.280139
0.27449
0.268942
0.263485
0.258128
0.252855
0.24766
0.242536
0.237477
0.232478
0.227532
0.222636
0.217783
0.21297
0.208192
0.203446
0.198727
0.194032
0.189358
0.184703
0.180063
0.175437
0.170822
0.166218
0.161622
0.157035
0.152477
0.147934
0.143399
0.138873
0.134355
0.129846
0.125347
0.120858
0.116382
0.111919
0.107471
0.10304
0.0986265
0.0942326
0.0898599
0.0855095
0.0811826
0.0768804
0.0726032
0.068351
0.0641196
0.0599079
0.0557263
0.0515623
0.0474134
0.0432753
0.0391383
0.0349906
0.0308169
0.0266334
0.0223945
0.0180502
0.013549
0.00885753
0.00416085
0.000837922
0.0365998
0.129605
0.196569
0.252411
0.302449
0.348767
0.392371
0.433996
0.474145
0.513055
0.550955
0.58801
0.624328
0.659996
0.695076
0.729609
0.763622
0.797132
0.830147
0.862667
0.894687
0.926197
0.957184
0.987631
1.01752
1.04682
1.07553
1.1036
1.13102
1.15776
1.18379
1.20908
1.23362
1.25736
1.28029
1.30239
1.32361
1.34395
1.36338
1.38188
1.39942
1.41599
1.43157
1.44615
1.45972
1.47225
1.48375
1.4942
1.5036
1.51195
1.51924
1.52548
1.53066
1.5348
1.5379
1.53998
1.54103
1.54108
1.54015
1.53824
1.53539
1.53161
1.52694
1.52139
1.51499
1.50775
1.49971
1.4909
1.48133
1.47105
1.46009
1.44848
1.43624
1.42343
1.41006
1.39618
1.38182
1.36702
1.3518
1.3362
1.32026
1.30401
1.28748
1.27071
1.25373
1.23656
1.21924
1.2018
1.18427
1.16667
1.14903
1.13138
1.11374
1.09613
1.07858
1.06111
1.04374
1.02649
1.00937
0.992407
0.975609
0.958992
0.942571
0.926356
0.91036
0.894591
0.879059
0.863771
0.848734
0.833953
0.819433
0.805178
0.791191
0.777474
0.764027
0.750852
0.737946
0.725311
0.712942
0.700839
0.688997
0.677413
0.666082
0.655
0.644161
0.633559
0.623188
0.613042
0.603113
0.593394
0.583877
0.574555
0.56542
0.556463
0.547675
0.539049
0.530575
0.522244
0.514048
0.505976
0.498025
0.49019
0.482461
0.474828
0.46728
0.459808
0.452405
0.445063
0.437773
0.430527
0.423319
0.416141
0.408987
0.401849
0.394722
0.3876
0.380478
0.373349
0.36621
0.359056
0.351883
0.344686
0.337463
0.33021
0.322925
0.315613
0.308267
0.300885
0.293465
0.286006
0.278506
0.270965
0.263383
0.255758
0.248091
0.240381
0.232628
0.224831
0.216988
0.209098
0.201159
0.193167
0.185118
0.177006
0.168823
0.160559
0.152201
0.143725
0.135117
0.126355
0.117395
0.108188
0.0986597
0.0886987
0.0782088
0.0669804
0.0546876
0.0407591
0.0239318
0.00407678
0.0366014
0.129607
0.196571
0.252412
0.30245
0.348767
0.392372
0.433997
0.474145
0.513055
0.550954
0.58801
0.624328
0.659995
0.695075
0.729607
0.76362
0.79713
0.830145
0.862665
0.894684
0.926194
0.957181
0.987628
1.01752
1.04682
1.07552
1.1036
1.13101
1.15775
1.18378
1.20908
1.23361
1.25736
1.28029
1.30238
1.32361
1.34395
1.36338
1.38187
1.39941
1.41599
1.43157
1.44615
1.45971
1.47225
1.48374
1.49419
1.5036
1.51194
1.51923
1.52547
1.53066
1.5348
1.5379
1.53997
1.54103
1.54108
1.54014
1.53823
1.53538
1.5316
1.52693
1.52138
1.51498
1.50775
1.49971
1.49089
1.48133
1.47105
1.46008
1.44847
1.43624
1.42342
1.41006
1.39618
1.38182
1.36701
1.35179
1.3362
1.32026
1.30401
1.28748
1.27071
1.25372
1.23655
1.21923
1.20179
1.18426
1.16666
1.14902
1.13137
1.11373
1.09613
1.07858
1.06111
1.04374
1.02649
1.00937
0.992402
0.975604
0.958987
0.942566
0.926352
0.910355
0.894587
0.879055
0.863766
0.848729
0.833949
0.819429
0.805174
0.791187
0.77747
0.764023
0.750848
0.737943
0.725307
0.712939
0.700835
0.688993
0.677409
0.666079
0.654996
0.644157
0.633556
0.623185
0.613039
0.60311
0.593391
0.583874
0.574552
0.565417
0.55646
0.547672
0.539046
0.530572
0.522241
0.514045
0.505973
0.498022
0.490188
0.482459
0.474825
0.467277
0.459806
0.452403
0.445061
0.437771
0.430525
0.423317
0.416139
0.408985
0.401847
0.39472
0.387599
0.380476
0.373348
0.366209
0.359054
0.351881
0.344684
0.337461
0.330208
0.322924
0.315612
0.308266
0.300884
0.293464
0.286005
0.278505
0.270964
0.263381
0.255757
0.24809
0.24038
0.232627
0.22483
0.216987
0.209098
0.201158
0.193166
0.185117
0.177005
0.168822
0.160558
0.1522
0.143724
0.135117
0.126354
0.117395
0.108188
0.0986594
0.0886985
0.0782086
0.0669803
0.0546875
0.040759
0.0239318
0.00407677
0.0710856
0.198126
0.280262
0.346837
0.406261
0.461203
0.513045
0.562512
0.610136
0.65626
0.701132
0.744932
0.787791
0.829808
0.871057
0.911587
0.951436
0.990626
1.02917
1.06707
1.10434
1.14095
1.1769
1.21217
1.24674
1.2806
1.31372
1.34607
1.37763
1.40837
1.43826
1.46728
1.4954
1.52258
1.54881
1.57406
1.5983
1.6215
1.64364
1.66471
1.68468
1.70352
1.72124
1.73779
1.75319
1.7674
1.78043
1.79227
1.80291
1.81234
1.82058
1.82761
1.83345
1.8381
1.84156
1.84386
1.845
1.845
1.84387
1.84165
1.83834
1.83398
1.82859
1.8222
1.81483
1.80651
1.79727
1.78714
1.77615
1.76435
1.75176
1.73842
1.72437
1.70965
1.69429
1.67833
1.66181
1.64478
1.62726
1.60929
1.59092
1.57219
1.55312
1.53376
1.51414
1.49429
1.47426
1.45407
1.43377
1.41337
1.39291
1.37242
1.35192
1.33146
1.31104
1.2907
1.27046
1.25034
1.23036
1.21055
1.19091
1.17147
1.15225
1.13325
1.11449
1.09598
1.07774
1.05977
1.04209
1.02469
1.00758
0.990779
0.974277
0.958082
0.942195
0.926617
0.911349
0.896389
0.881735
0.867386
0.853338
0.839587
0.826128
0.812956
0.800066
0.78745
0.775102
0.763015
0.751179
0.739588
0.728233
0.717103
0.706191
0.695486
0.684979
0.67466
0.664517
0.654542
0.644722
0.635051
0.625524
0.616129
0.606854
0.597689
0.588622
0.579644
0.570744
0.561912
0.553139
0.544416
0.535733
0.527083
0.518455
0.509844
0.501241
0.492638
0.484029
0.475408
0.466768
0.458104
0.449411
0.440683
0.431917
0.423109
0.414255
0.405356
0.396407
0.387406
0.378348
0.369233
0.360058
0.350822
0.341524
0.332162
0.322735
0.313243
0.303683
0.294054
0.284354
0.274579
0.264727
0.254792
0.244769
0.234649
0.224422
0.214076
0.203594
0.192953
0.182129
0.171085
0.159776
0.14815
0.136121
0.123575
0.110354
0.096235
0.0808044
0.0632049
0.040893
0.00868815
0.0710878
0.198128
0.280263
0.346837
0.40626
0.461202
0.513044
0.562511
0.610135
0.656258
0.70113
0.744929
0.787788
0.829806
0.871053
0.911584
0.951433
0.990623
1.02917
1.06707
1.10433
1.14094
1.17689
1.21216
1.24674
1.2806
1.31371
1.34606
1.37762
1.40836
1.43825
1.46727
1.49539
1.52258
1.54881
1.57405
1.59829
1.62149
1.64364
1.6647
1.68467
1.70352
1.72123
1.73779
1.75318
1.7674
1.78043
1.79226
1.8029
1.81234
1.82057
1.8276
1.83344
1.83809
1.84155
1.84385
1.84499
1.84499
1.84387
1.84164
1.83833
1.83397
1.82858
1.82219
1.81482
1.8065
1.79726
1.78713
1.77614
1.76434
1.75175
1.73841
1.72436
1.70964
1.69428
1.67832
1.66181
1.64477
1.62725
1.60929
1.59092
1.57218
1.55311
1.53375
1.51413
1.49429
1.47425
1.45407
1.43376
1.41336
1.3929
1.37241
1.35192
1.33145
1.31103
1.29069
1.27045
1.25033
1.23036
1.21054
1.1909
1.17147
1.15224
1.13324
1.11448
1.09598
1.07774
1.05977
1.04208
1.02468
1.00758
0.990773
0.974272
0.958077
0.94219
0.926612
0.911344
0.896384
0.881731
0.867382
0.853334
0.839583
0.826124
0.812952
0.800062
0.787446
0.775098
0.763011
0.751176
0.739585
0.728229
0.7171
0.706188
0.695483
0.684976
0.674656
0.664514
0.654539
0.644719
0.635048
0.625521
0.616126
0.606851
0.597686
0.58862
0.579641
0.570741
0.56191
0.553137
0.544414
0.535731
0.52708
0.518453
0.509842
0.501238
0.492636
0.484027
0.475406
0.466766
0.458102
0.449409
0.440681
0.431915
0.423107
0.414254
0.405355
0.396406
0.387404
0.378347
0.369232
0.360057
0.350821
0.341523
0.332161
0.322734
0.313242
0.303682
0.294053
0.284353
0.274578
0.264726
0.254791
0.244768
0.234648
0.224421
0.214075
0.203593
0.192953
0.182128
0.171084
0.159776
0.14815
0.136121
0.123575
0.110354
0.0962348
0.0808043
0.0632049
0.040893
0.00868815
0.10452
0.256782
0.349951
0.423823
0.48935
0.54995
0.60723
0.662036
0.714899
0.766169
0.816095
0.864857
0.912585
0.95938
1.00531
1.05043
1.09478
1.13837
1.18123
1.22335
1.26473
1.30537
1.34525
1.38436
1.42267
1.46016
1.49681
1.53258
1.56746
1.60142
1.63442
1.66643
1.69743
1.72738
1.75627
1.78405
1.8107
1.83621
1.86053
1.88366
1.90556
1.92622
1.94562
1.96374
1.98058
1.99612
2.01034
2.02325
2.03483
2.04509
2.05403
2.06165
2.06794
2.07293
2.07662
2.07903
2.08016
2.08003
2.07868
2.07611
2.07235
2.06743
2.06137
2.05421
2.04598
2.03669
2.0264
2.01512
2.00291
1.98979
1.9758
1.96098
1.94538
1.92903
1.91198
1.89427
1.87593
1.85702
1.83757
1.81762
1.79722
1.77641
1.75523
1.73371
1.71191
1.68985
1.66758
1.64513
1.62253
1.59983
1.57706
1.55424
1.53142
1.50861
1.48586
1.46318
1.44061
1.41816
1.39587
1.37374
1.35182
1.3301
1.30862
1.28738
1.2664
1.2457
1.22529
1.20518
1.18537
1.16589
1.14672
1.12789
1.10939
1.09123
1.07341
1.05593
1.03879
1.02199
1.00554
0.98942
0.973636
0.958182
0.943053
0.928243
0.913746
0.899556
0.885663
0.872061
0.85874
0.845692
0.832906
0.820373
0.808083
0.796024
0.784186
0.772558
0.761128
0.749884
0.738817
0.72792
0.717182
0.70659
0.696133
0.685797
0.675572
0.665446
0.655407
0.645445
0.635548
0.625707
0.615911
0.606151
0.596417
0.5867
0.576991
0.567283
0.557568
0.547838
0.538086
0.528307
0.518493
0.508641
0.498744
0.488799
0.478803
0.468752
0.458643
0.448472
0.438236
0.427933
0.41756
0.407114
0.396595
0.386001
0.375329
0.364578
0.353747
0.342832
0.331831
0.320741
0.309557
0.298273
0.286884
0.27538
0.263751
0.251983
0.240059
0.227957
0.215649
0.203099
0.190262
0.177077
0.163459
0.149297
0.134416
0.118562
0.101238
0.08131
0.055196
0.0133957
0.104522
0.256783
0.34995
0.423822
0.489349
0.549949
0.607228
0.662034
0.714896
0.766166
0.816092
0.864854
0.912582
0.959376
1.00531
1.05043
1.09477
1.13837
1.18122
1.22335
1.26473
1.30537
1.34525
1.38435
1.42266
1.46015
1.4968
1.53258
1.56746
1.60141
1.63441
1.66642
1.69742
1.72738
1.75626
1.78404
1.8107
1.8362
1.86052
1.88365
1.90555
1.92621
1.94561
1.96374
1.98057
1.99611
2.01033
2.02324
2.03483
2.04509
2.05402
2.06164
2.06794
2.07293
2.07662
2.07902
2.08015
2.08003
2.07867
2.0761
2.07234
2.06742
2.06136
2.05421
2.04597
2.03669
2.02639
2.01512
2.0029
1.98978
1.97579
1.96097
1.94537
1.92902
1.91197
1.89426
1.87592
1.85701
1.83756
1.81761
1.79721
1.7764
1.75522
1.73371
1.7119
1.68984
1.66757
1.64512
1.62253
1.59982
1.57705
1.55424
1.53141
1.50861
1.48585
1.46318
1.4406
1.41815
1.39586
1.37374
1.35181
1.33009
1.30861
1.28737
1.2664
1.2457
1.22529
1.20517
1.18537
1.16588
1.14672
1.12788
1.10938
1.09122
1.0734
1.05592
1.03878
1.02199
1.00553
0.989416
0.973632
0.958178
0.943049
0.928239
0.913743
0.899552
0.88566
0.872057
0.858737
0.845688
0.832903
0.82037
0.808079
0.796021
0.784183
0.772555
0.761125
0.749882
0.738814
0.727917
0.717179
0.706587
0.69613
0.685795
0.67557
0.665444
0.655405
0.645443
0.635546
0.625705
0.615909
0.606149
0.596415
0.586698
0.57699
0.567282
0.557566
0.547836
0.538085
0.528305
0.518492
0.508639
0.498743
0.488798
0.478801
0.468751
0.458642
0.448471
0.438235
0.427932
0.417559
0.407113
0.396594
0.386
0.375328
0.364577
0.353746
0.342831
0.33183
0.32074
0.309556
0.298273
0.286883
0.27538
0.263751
0.251983
0.240058
0.227956
0.215648
0.203099
0.190262
0.177077
0.163458
0.149297
0.134416
0.118562
0.101238
0.0813101
0.0551961
0.0133958
0.137019
0.310383
0.413358
0.493531
0.564002
0.629083
0.690638
0.749628
0.80662
0.86198
0.915955
0.968721
1.02041
1.07111
1.12088
1.16979
1.21786
1.26511
1.31155
1.35719
1.40201
1.44601
1.48918
1.53148
1.57291
1.61344
1.65303
1.69167
1.72931
1.76594
1.80152
1.83602
1.8694
1.90165
1.93272
1.96259
1.99123
2.01861
2.04471
2.06951
2.09298
2.1151
2.13585
2.15523
2.1732
2.18977
2.20493
2.21866
2.23097
2.24185
2.2513
2.25932
2.26593
2.27113
2.27493
2.27735
2.2784
2.2781
2.27647
2.27354
2.26933
2.26387
2.25719
2.24933
2.2403
2.23015
2.21891
2.20662
2.19331
2.17903
2.16382
2.14772
2.13077
2.11301
2.0945
2.07527
2.05537
2.03485
2.01374
1.9921
1.96996
1.94738
1.9244
1.90105
1.87739
1.85345
1.82927
1.8049
1.78036
1.75571
1.73098
1.70619
1.68139
1.65661
1.63188
1.60723
1.58268
1.55827
1.53402
1.50995
1.48608
1.46244
1.43905
1.41592
1.39307
1.37052
1.34828
1.32635
1.30476
1.28351
1.2626
1.24206
1.22187
1.20204
1.18259
1.1635
1.14478
1.12644
1.10846
1.09084
1.07359
1.05669
1.04015
1.02395
1.00809
0.992568
0.977366
0.962479
0.947898
0.933612
0.919612
0.905887
0.892426
0.879217
0.866248
0.853507
0.840982
0.82866
0.816535
0.804595
0.792826
0.781217
0.769754
0.758424
0.747215
0.736113
0.725107
0.714186
0.703337
0.692548
0.681811
0.671112
0.660444
0.649795
0.639156
0.628519
0.617875
0.607217
0.596536
0.585827
0.575082
0.564296
0.553463
0.54258
0.53164
0.520643
0.509583
0.498456
0.48726
0.47599
0.464644
0.453219
0.441714
0.430126
0.418453
0.406693
0.394843
0.382901
0.370863
0.358725
0.346483
0.33413
0.321661
0.309065
0.296333
0.28345
0.2704
0.25716
0.243705
0.229998
0.215994
0.201633
0.186829
0.171462
0.155343
0.138168
0.11935
0.0974725
0.0680632
0.0180594
0.137021
0.310384
0.413357
0.493529
0.564
0.629081
0.690635
0.749625
0.806617
0.861977
0.915951
0.968718
1.0204
1.0711
1.12088
1.16979
1.21786
1.26511
1.31155
1.35718
1.40201
1.44601
1.48917
1.53148
1.57291
1.61343
1.65303
1.69166
1.72931
1.76594
1.80152
1.83601
1.8694
1.90164
1.93271
1.96258
1.99122
2.0186
2.0447
2.0695
2.09297
2.11509
2.13584
2.15522
2.1732
2.18977
2.20492
2.21866
2.23096
2.24184
2.25129
2.25932
2.26592
2.27112
2.27492
2.27734
2.27839
2.27809
2.27646
2.27353
2.26932
2.26386
2.25719
2.24932
2.2403
2.23015
2.21891
2.20661
2.19331
2.17903
2.16382
2.14771
2.13076
2.11301
2.09449
2.07526
2.05536
2.03484
2.01373
1.99209
1.96996
1.94738
1.92439
1.90104
1.87738
1.85344
1.82926
1.80489
1.78036
1.75571
1.73097
1.70619
1.68139
1.65661
1.63188
1.60722
1.58268
1.55826
1.53401
1.50994
1.48608
1.46244
1.43905
1.41592
1.39307
1.37052
1.34827
1.32635
1.30476
1.2835
1.2626
1.24205
1.22186
1.20204
1.18258
1.1635
1.14478
1.12643
1.10845
1.09084
1.07359
1.05669
1.04015
1.02395
1.00809
0.992565
0.977363
0.962476
0.947895
0.933609
0.91961
0.905885
0.892423
0.879214
0.866245
0.853504
0.84098
0.828658
0.816532
0.804592
0.792824
0.781215
0.769752
0.758422
0.747212
0.736111
0.725106
0.714184
0.703335
0.692547
0.681809
0.671111
0.660442
0.649793
0.639154
0.628518
0.617874
0.607215
0.596535
0.585825
0.575081
0.564295
0.553462
0.542578
0.531639
0.520642
0.509582
0.498455
0.487259
0.475989
0.464643
0.453218
0.441713
0.430126
0.418453
0.406692
0.394843
0.3829
0.370862
0.358724
0.346482
0.33413
0.32166
0.309065
0.296333
0.28345
0.270399
0.25716
0.243704
0.229997
0.215994
0.201632
0.186829
0.171462
0.155343
0.138168
0.11935
0.0974727
0.0680634
0.0180595
0.169134
0.360791
0.47295
0.559121
0.634238
0.703365
0.768684
0.831305
0.891858
0.950737
1.0082
1.06442
1.11953
1.17361
1.22673
1.27893
1.33024
1.38068
1.43025
1.47894
1.52676
1.57369
1.61971
1.6648
1.70894
1.75209
1.79423
1.83533
1.87536
1.91428
1.95206
1.98868
2.02409
2.05828
2.09119
2.12281
2.15311
2.18206
2.20964
2.23581
2.26056
2.28387
2.30572
2.32609
2.34498
2.36236
2.37824
2.3926
2.40544
2.41677
2.42658
2.43487
2.44167
2.44696
2.45078
2.45313
2.45403
2.4535
2.45157
2.44825
2.44359
2.4376
2.43032
2.42178
2.41202
2.40107
2.38896
2.37574
2.36145
2.34613
2.32982
2.31256
2.29441
2.27541
2.2556
2.23504
2.21376
2.19182
2.16926
2.14613
2.12248
2.09835
2.07379
2.04885
2.02356
1.99798
1.97215
1.9461
1.91988
1.89353
1.86709
1.8406
1.81408
1.78758
1.76113
1.73475
1.70849
1.68236
1.6564
1.63064
1.60508
1.57977
1.55471
1.52993
1.50545
1.48127
1.45742
1.43391
1.41075
1.38795
1.36552
1.34347
1.3218
1.30051
1.27962
1.25911
1.239
1.21928
1.19995
1.18101
1.16246
1.14428
1.12648
1.10905
1.09198
1.07527
1.0589
1.04286
1.02715
1.01176
0.996673
0.981878
0.967365
0.953122
0.939135
0.925392
0.911879
0.898587
0.885506
0.872622
0.859922
0.847392
0.835018
0.822787
0.810686
0.798701
0.786819
0.775028
0.763315
0.751669
0.740079
0.728532
0.717019
0.705529
0.694052
0.682578
0.6711
0.659609
0.648097
0.636556
0.62498
0.613364
0.6017
0.589985
0.578213
0.566382
0.554486
0.542522
0.530485
0.518372
0.50618
0.493906
0.481548
0.469102
0.456566
0.443938
0.431214
0.418391
0.405466
0.392433
0.379289
0.366027
0.35264
0.339118
0.325451
0.311626
0.297626
0.28343
0.269012
0.254336
0.239358
0.224016
0.208221
0.191842
0.174672
0.156351
0.136179
0.112484
0.080026
0.0226923
0.169137
0.360792
0.472948
0.559119
0.634236
0.703362
0.768681
0.831302
0.891855
0.950734
1.0082
1.06442
1.11953
1.17361
1.22673
1.27893
1.33024
1.38068
1.43024
1.47894
1.52676
1.57369
1.61971
1.6648
1.70893
1.75208
1.79422
1.83532
1.87535
1.91427
1.95206
1.98868
2.02409
2.05827
2.09119
2.12281
2.15311
2.18206
2.20963
2.2358
2.26056
2.28387
2.30571
2.32609
2.34497
2.36236
2.37823
2.39259
2.40544
2.41676
2.42657
2.43487
2.44166
2.44696
2.45077
2.45312
2.45402
2.45349
2.45156
2.44825
2.44358
2.43759
2.43032
2.42178
2.41201
2.40106
2.38895
2.37573
2.36144
2.34612
2.32981
2.31256
2.29441
2.2754
2.2556
2.23503
2.21375
2.19181
2.16925
2.14613
2.12247
2.09835
2.07379
2.04884
2.02356
1.99798
1.97214
1.9461
1.91988
1.89353
1.86709
1.84059
1.81407
1.78757
1.76112
1.73475
1.70848
1.68236
1.6564
1.63063
1.60508
1.57976
1.55471
1.52993
1.50544
1.48127
1.45742
1.43391
1.41075
1.38795
1.36552
1.34347
1.32179
1.30051
1.27961
1.25911
1.239
1.21928
1.19995
1.18101
1.16246
1.14428
1.12648
1.10905
1.09198
1.07526
1.05889
1.04286
1.02715
1.01176
0.996671
0.981876
0.967363
0.953119
0.939132
0.925389
0.911877
0.898585
0.885504
0.87262
0.85992
0.84739
0.835017
0.822786
0.810684
0.798699
0.786817
0.775026
0.763314
0.751668
0.740077
0.728531
0.717018
0.705527
0.69405
0.682577
0.671099
0.659608
0.648095
0.636555
0.624979
0.613363
0.601699
0.589984
0.578212
0.566381
0.554485
0.542521
0.530484
0.518371
0.506179
0.493905
0.481547
0.469101
0.456566
0.443937
0.431213
0.418391
0.405465
0.392433
0.379289
0.366027
0.352639
0.339118
0.325451
0.311626
0.297626
0.28343
0.269011
0.254336
0.239358
0.224016
0.20822
0.191842
0.174673
0.156351
0.136179
0.112484
0.0800263
0.0226924
0.200986
0.409044
0.530104
0.622175
0.701871
0.774913
0.8438
0.909801
0.973632
1.03573
1.09636
1.15572
1.21393
1.27107
1.32722
1.3824
1.43663
1.48995
1.54233
1.59379
1.6443
1.69386
1.74244
1.79001
1.83656
1.88205
1.92645
1.96973
2.01185
2.05279
2.0925
2.13096
2.16813
2.20399
2.23849
2.2716
2.30331
2.33358
2.36239
2.38971
2.41552
2.43979
2.46253
2.4837
2.5033
2.52131
2.53773
2.55256
2.56579
2.57742
2.58745
2.5959
2.60276
2.60806
2.61181
2.61401
2.6147
2.6139
2.61162
2.60789
2.60276
2.59624
2.58836
2.57918
2.5687
2.55699
2.54407
2.52999
2.51478
2.4985
2.48118
2.46288
2.44365
2.42352
2.40254
2.38077
2.35826
2.33505
2.3112
2.28674
2.26174
2.23623
2.21028
2.18391
2.15719
2.13015
2.10285
2.07532
2.04761
2.01975
1.9918
1.96378
1.93574
1.90771
1.87973
1.85183
1.82404
1.7964
1.76892
1.74164
1.71458
1.68777
1.66123
1.63497
1.60902
1.5834
1.55811
1.53318
1.50861
1.48442
1.46062
1.4372
1.41419
1.39158
1.36938
1.34759
1.32622
1.30525
1.28469
1.26455
1.2448
1.22546
1.20651
1.18794
1.16976
1.15195
1.1345
1.11741
1.10065
1.08424
1.06814
1.05235
1.03686
1.02165
1.00671
0.992029
0.977593
0.963392
0.949413
0.935643
0.922066
0.908668
0.895436
0.882355
0.869411
0.856591
0.843881
0.831268
0.81874
0.806284
0.793888
0.78154
0.769231
0.756947
0.744681
0.732421
0.72016
0.707888
0.695597
0.683281
0.670931
0.658542
0.646108
0.633623
0.621083
0.608483
0.59582
0.583088
0.570283
0.557403
0.544442
0.531398
0.518268
0.505048
0.491736
0.478328
0.46482
0.451209
0.437491
0.42366
0.409712
0.395639
0.381435
0.36709
0.352594
0.337933
0.323092
0.308048
0.292777
0.277243
0.261399
0.245181
0.228494
0.211195
0.193051
0.173649
0.152176
0.126726
0.0913775
0.0273195
0.200988
0.409044
0.530102
0.622172
0.701869
0.77491
0.843797
0.909798
0.973629
1.03572
1.09636
1.15571
1.21392
1.27107
1.32721
1.38239
1.43663
1.48994
1.54233
1.59378
1.6443
1.69386
1.74243
1.79001
1.83656
1.88204
1.92644
1.96972
2.01184
2.05278
2.0925
2.13096
2.16813
2.20398
2.23848
2.2716
2.30331
2.33358
2.36238
2.3897
2.41551
2.43979
2.46252
2.48369
2.50329
2.52131
2.53773
2.55255
2.56578
2.57741
2.58744
2.59589
2.60276
2.60806
2.6118
2.61401
2.6147
2.61389
2.61161
2.60789
2.60275
2.59623
2.58836
2.57917
2.5687
2.55698
2.54406
2.52998
2.51478
2.49849
2.48118
2.46288
2.44364
2.42351
2.40254
2.38077
2.35826
2.33505
2.31119
2.28674
2.26173
2.23623
2.21027
2.18391
2.15718
2.13015
2.10284
2.07531
2.0476
2.01975
1.99179
1.96378
1.93574
1.90771
1.87973
1.85183
1.82404
1.79639
1.76892
1.74164
1.71458
1.68777
1.66123
1.63497
1.60902
1.5834
1.55811
1.53318
1.50861
1.48442
1.46061
1.4372
1.41419
1.39158
1.36938
1.34759
1.32621
1.30525
1.28469
1.26454
1.2448
1.22545
1.2065
1.18794
1.16976
1.15195
1.1345
1.1174
1.10065
1.08423
1.06814
1.05235
1.03685
1.02165
1.00671
0.992028
0.977591
0.96339
0.949412
0.935641
0.922064
0.908666
0.895434
0.882353
0.869409
0.856589
0.843879
0.831267
0.818739
0.806283
0.793887
0.781539
0.769229
0.756946
0.74468
0.73242
0.720159
0.707887
0.695596
0.68328
0.67093
0.658541
0.646107
0.633622
0.621082
0.608482
0.595819
0.583087
0.570283
0.557402
0.544441
0.531398
0.518267
0.505048
0.491735
0.478327
0.464819
0.451208
0.43749
0.423659
0.409711
0.395639
0.381435
0.36709
0.352594
0.337933
0.323091
0.308048
0.292777
0.277242
0.261399
0.245181
0.228494
0.211195
0.193051
0.17365
0.152176
0.126727
0.0913778
0.0273196
0.232718
0.455898
0.5856
0.683601
0.767922
0.844886
0.917301
0.986599
1.05359
1.11875
1.18238
1.2447
1.30582
1.36583
1.4248
1.48275
1.53971
1.59569
1.65069
1.7047
1.75769
1.80967
1.86059
1.91044
1.95919
2.0068
2.05324
2.09848
2.14249
2.18522
2.22665
2.26674
2.30546
2.34277
2.37865
2.41306
2.44598
2.47737
2.50721
2.53548
2.56216
2.58723
2.61068
2.63248
2.65263
2.67111
2.68793
2.70308
2.71656
2.72837
2.73852
2.74701
2.75385
2.75906
2.76265
2.76465
2.76506
2.76393
2.76127
2.7571
2.75147
2.74441
2.73594
2.72611
2.71495
2.7025
2.6888
2.6739
2.65784
2.64066
2.62241
2.60314
2.58289
2.56173
2.53969
2.51682
2.49318
2.46882
2.44379
2.41814
2.39191
2.36516
2.33795
2.3103
2.28229
2.25394
2.22531
2.19645
2.16739
2.13819
2.10887
2.07949
2.05008
2.02068
1.99133
1.96205
1.93288
1.90386
1.87502
1.84637
1.81795
1.78978
1.76189
1.73429
1.70701
1.68007
1.65347
1.62724
1.60138
1.57592
1.55085
1.52619
1.50194
1.47812
1.45471
1.43174
1.40918
1.38706
1.36536
1.34409
1.32323
1.30279
1.28277
1.26314
1.24391
1.22506
1.2066
1.1885
1.17076
1.15337
1.13631
1.11957
1.10314
1.08701
1.07116
1.05558
1.04026
1.02518
1.01034
0.995712
0.981287
0.96705
0.952986
0.93908
0.925319
0.911688
0.898174
0.884763
0.871441
0.858198
0.845019
0.831894
0.81881
0.805758
0.792726
0.779706
0.766687
0.753661
0.74062
0.727557
0.714464
0.701335
0.688164
0.674945
0.661674
0.648345
0.634955
0.621499
0.607972
0.594369
0.580688
0.566925
0.553075
0.539135
0.525102
0.51097
0.496737
0.482399
0.467949
0.453382
0.438694
0.423876
0.408922
0.393821
0.378563
0.363134
0.347519
0.331695
0.315637
0.299308
0.28266
0.265623
0.248094
0.229914
0.210822
0.190353
0.167589
0.140407
0.102293
0.031978
0.23272
0.455898
0.585598
0.683599
0.767919
0.844883
0.917298
0.986595
1.05358
1.11874
1.18238
1.24469
1.30581
1.36583
1.42479
1.48275
1.53971
1.59569
1.65069
1.70469
1.75769
1.80966
1.86059
1.91044
1.95918
2.00679
2.05324
2.09848
2.14248
2.18522
2.22665
2.26674
2.30546
2.34277
2.37865
2.41306
2.44597
2.47736
2.50721
2.53548
2.56216
2.58723
2.61067
2.63247
2.65262
2.67111
2.68793
2.70308
2.71656
2.72837
2.73851
2.747
2.75384
2.75905
2.76265
2.76464
2.76506
2.76392
2.76126
2.7571
2.75147
2.7444
2.73594
2.7261
2.71494
2.7025
2.6888
2.6739
2.65783
2.64065
2.6224
2.60313
2.58289
2.56172
2.53968
2.51682
2.49318
2.46882
2.44379
2.41813
2.39191
2.36516
2.33794
2.3103
2.28228
2.25394
2.22531
2.19645
2.16739
2.13818
2.10887
2.07949
2.05008
2.02068
1.99132
1.96205
1.93288
1.90386
1.87501
1.84637
1.81795
1.78978
1.76189
1.73429
1.70701
1.68006
1.65347
1.62724
1.60138
1.57592
1.55085
1.52619
1.50194
1.47811
1.45471
1.43173
1.40918
1.38706
1.36536
1.34409
1.32323
1.30279
1.28276
1.26314
1.24391
1.22506
1.2066
1.1885
1.17076
1.15337
1.13631
1.11957
1.10314
1.08701
1.07116
1.05558
1.04026
1.02518
1.01034
0.995711
0.981286
0.967049
0.952984
0.939079
0.925318
0.911687
0.898173
0.884761
0.87144
0.858197
0.845018
0.831893
0.818809
0.805757
0.792725
0.779705
0.766686
0.75366
0.74062
0.727556
0.714463
0.701334
0.688163
0.674944
0.661673
0.648345
0.634955
0.621498
0.607971
0.594369
0.580688
0.566924
0.553074
0.539135
0.525101
0.51097
0.496737
0.482398
0.467948
0.453382
0.438694
0.423876
0.408922
0.393821
0.378563
0.363134
0.347518
0.331695
0.315637
0.299308
0.28266
0.265623
0.248094
0.229914
0.210822
0.190353
0.16759
0.140407
0.102294
0.0319781
0.264569
0.501947
0.640075
0.744043
0.83307
0.91403
0.990013
1.06261
1.13273
1.20091
1.26748
1.33265
1.39658
1.45935
1.52102
1.58162
1.64117
1.69969
1.75715
1.81357
1.8689
1.92314
1.97626
2.02823
2.07901
2.12858
2.17691
2.22394
2.26966
2.31403
2.35701
2.39856
2.43866
2.47726
2.51435
2.54988
2.58384
2.61619
2.64691
2.67597
2.70337
2.72908
2.75308
2.77537
2.79593
2.81475
2.83184
2.84719
2.86081
2.87269
2.88284
2.89127
2.898
2.90304
2.90641
2.90813
2.90822
2.9067
2.90361
2.89898
2.89283
2.8852
2.87614
2.86566
2.85382
2.84065
2.8262
2.81051
2.79362
2.77559
2.75646
2.73628
2.7151
2.69296
2.66993
2.64605
2.62138
2.59596
2.56985
2.54309
2.51575
2.48787
2.4595
2.4307
2.4015
2.37196
2.34213
2.31206
2.28178
2.25135
2.2208
2.19017
2.15952
2.12886
2.09825
2.06772
2.0373
2.00703
1.97693
1.94703
1.91736
1.88795
1.85882
1.82999
1.80148
1.77332
1.74551
1.71807
1.69102
1.66437
1.63813
1.61231
1.58691
1.56194
1.53741
1.51332
1.48966
1.46645
1.44367
1.42133
1.39942
1.37794
1.35688
1.33624
1.31601
1.29617
1.27673
1.25767
1.23897
1.22064
1.20265
1.18499
1.16765
1.15062
1.13388
1.11742
1.10123
1.08529
1.0696
1.05413
1.03887
1.0238
1.00892
0.994195
0.979625
0.965191
0.950879
0.936677
0.92257
0.908545
0.89459
0.880694
0.866845
0.853031
0.839243
0.82547
0.811704
0.797936
0.784157
0.77036
0.756538
0.742685
0.728794
0.714859
0.700877
0.686841
0.672748
0.658592
0.644368
0.630073
0.615701
0.601249
0.586713
0.572087
0.557368
0.54255
0.527631
0.512603
0.497462
0.482201
0.466815
0.451294
0.435632
0.419818
0.403842
0.387688
0.37134
0.354778
0.337972
0.320884
0.303464
0.285634
0.267282
0.248232
0.228194
0.206654
0.182599
0.153689
0.112871
0.0366752
0.264571
0.501946
0.640072
0.74404
0.833067
0.914027
0.99001
1.06261
1.13273
1.20091
1.26747
1.33265
1.39658
1.45935
1.52101
1.58162
1.64117
1.69968
1.75715
1.81356
1.8689
1.92314
1.97626
2.02822
2.07901
2.12858
2.1769
2.22394
2.26966
2.31403
2.357
2.39856
2.43865
2.47726
2.51434
2.54988
2.58383
2.61618
2.6469
2.67597
2.70337
2.72907
2.75307
2.77536
2.79592
2.81475
2.83184
2.84719
2.8608
2.87268
2.88283
2.89127
2.898
2.90304
2.90641
2.90813
2.90821
2.9067
2.90361
2.89897
2.89283
2.8852
2.87613
2.86566
2.85381
2.84065
2.8262
2.8105
2.79362
2.77559
2.75646
2.73627
2.71509
2.69296
2.66993
2.64605
2.62137
2.59595
2.56984
2.54309
2.51575
2.48787
2.4595
2.43069
2.4015