/*--------------------------------*- C++ -*----------------------------------*\
  =========                 |
  \\      /  F ield         | OpenFOAM: The Open Source CFD Toolbox
   \\    /   O peration     | Website:  https://openfoam.org
    \\  /    A nd           | Version:  8
     \\/     M anipulation  |
\*---------------------------------------------------------------------------*/
FoamFile
{
    version     2.0;
    format      ascii;
    class       volScalarField;
    location    "3000";
    object      nut;
}
// * * * * * * * * * * * * * * * * * * * * * * * * * * * * * * * * * * * * * //

dimensions      [0 2 -1 0 0 0 0];

internalField   nonuniform List<scalar> 
46000
(
6.05039e-07
2.77576e-06
5.32017e-06
7.7107e-06
9.97284e-06
1.21638e-05
1.43065e-05
1.64069e-05
1.84776e-05
2.05252e-05
2.25598e-05
2.458e-05
2.65818e-05
2.85715e-05
3.05501e-05
3.25177e-05
3.44737e-05
3.64174e-05
3.83473e-05
4.02622e-05
4.21602e-05
4.40398e-05
4.58988e-05
4.77352e-05
4.95469e-05
5.13316e-05
5.3087e-05
5.48108e-05
5.65007e-05
5.81544e-05
5.97694e-05
6.13435e-05
6.28744e-05
6.43598e-05
6.57976e-05
6.71856e-05
6.85218e-05
6.98043e-05
7.10313e-05
7.22008e-05
7.33115e-05
7.43616e-05
7.53499e-05
7.62752e-05
7.71362e-05
7.79321e-05
7.86621e-05
7.93254e-05
7.99217e-05
8.04505e-05
8.09118e-05
8.13054e-05
8.16315e-05
8.18904e-05
8.20826e-05
8.22087e-05
8.22694e-05
8.22657e-05
8.21986e-05
8.20694e-05
8.18797e-05
8.16318e-05
8.13291e-05
8.09719e-05
8.05605e-05
8.00962e-05
7.95809e-05
7.90166e-05
7.84054e-05
7.77493e-05
7.70505e-05
7.63114e-05
7.55342e-05
7.47211e-05
7.38746e-05
7.29969e-05
7.20903e-05
7.11573e-05
7.02e-05
6.92209e-05
6.82221e-05
6.72059e-05
6.61745e-05
6.51301e-05
6.40747e-05
6.30103e-05
6.19391e-05
6.08628e-05
5.97833e-05
5.87024e-05
5.76218e-05
5.65431e-05
5.5468e-05
5.43977e-05
5.33338e-05
5.22776e-05
5.12302e-05
5.01928e-05
4.91665e-05
4.81522e-05
4.71508e-05
4.61632e-05
4.51901e-05
4.42322e-05
4.329e-05
4.23641e-05
4.14549e-05
4.05627e-05
3.96879e-05
3.88308e-05
3.79915e-05
3.717e-05
3.63666e-05
3.55812e-05
3.48138e-05
3.40642e-05
3.33325e-05
3.26182e-05
3.19214e-05
3.12417e-05
3.05788e-05
2.99324e-05
2.93023e-05
2.86879e-05
2.80889e-05
2.7505e-05
2.69355e-05
2.63802e-05
2.58386e-05
2.53101e-05
2.47942e-05
2.42905e-05
2.37985e-05
2.33176e-05
2.28474e-05
2.23873e-05
2.19367e-05
2.14953e-05
2.10624e-05
2.06375e-05
2.02203e-05
1.98098e-05
1.94069e-05
1.90104e-05
1.86197e-05
1.82343e-05
1.78538e-05
1.74778e-05
1.71058e-05
1.67376e-05
1.63726e-05
1.60106e-05
1.56513e-05
1.52944e-05
1.49395e-05
1.45864e-05
1.4235e-05
1.38849e-05
1.3536e-05
1.31882e-05
1.28412e-05
1.2495e-05
1.21494e-05
1.18045e-05
1.14618e-05
1.11202e-05
1.07793e-05
1.0439e-05
1.00993e-05
9.76035e-06
9.42211e-06
9.08468e-06
8.74818e-06
8.41269e-06
8.07833e-06
7.74522e-06
7.41346e-06
7.08318e-06
6.75448e-06
6.42748e-06
6.10224e-06
5.77886e-06
5.45736e-06
5.13774e-06
4.81969e-06
4.50311e-06
4.1888e-06
3.87581e-06
3.56396e-06
3.25291e-06
2.94195e-06
2.63018e-06
2.31646e-06
2.00199e-06
1.68336e-06
1.3568e-06
1.01845e-06
6.65803e-07
3.12763e-07
5.97859e-08
6.0508e-07
2.77589e-06
5.32034e-06
7.71088e-06
9.97302e-06
1.2164e-05
1.43067e-05
1.64071e-05
1.84778e-05
2.05253e-05
2.25599e-05
2.45801e-05
2.6582e-05
2.85716e-05
3.05502e-05
3.25178e-05
3.44739e-05
3.64175e-05
3.83474e-05
4.02622e-05
4.21603e-05
4.40399e-05
4.58989e-05
4.77353e-05
4.95469e-05
5.13316e-05
5.3087e-05
5.48108e-05
5.65007e-05
5.81544e-05
5.97694e-05
6.13435e-05
6.28744e-05
6.43598e-05
6.57975e-05
6.71856e-05
6.85218e-05
6.98043e-05
7.10312e-05
7.22008e-05
7.33114e-05
7.43616e-05
7.53499e-05
7.62751e-05
7.71361e-05
7.7932e-05
7.8662e-05
7.93253e-05
7.99216e-05
8.04504e-05
8.09117e-05
8.13053e-05
8.16314e-05
8.18903e-05
8.20825e-05
8.22086e-05
8.22693e-05
8.22656e-05
8.21985e-05
8.20693e-05
8.18796e-05
8.16316e-05
8.1329e-05
8.09718e-05
8.05603e-05
8.00961e-05
7.95808e-05
7.90165e-05
7.84052e-05
7.77491e-05
7.70504e-05
7.63113e-05
7.55341e-05
7.4721e-05
7.38745e-05
7.29967e-05
7.20902e-05
7.11571e-05
7.01999e-05
6.92207e-05
6.8222e-05
6.72058e-05
6.61744e-05
6.513e-05
6.40745e-05
6.30102e-05
6.19389e-05
6.08626e-05
5.97831e-05
5.87023e-05
5.76217e-05
5.6543e-05
5.54678e-05
5.43976e-05
5.33337e-05
5.22775e-05
5.12301e-05
5.01927e-05
4.91663e-05
4.81521e-05
4.71507e-05
4.61631e-05
4.519e-05
4.42321e-05
4.32899e-05
4.2364e-05
4.14548e-05
4.05626e-05
3.96878e-05
3.88307e-05
3.79914e-05
3.71699e-05
3.63665e-05
3.55811e-05
3.48137e-05
3.40642e-05
3.33324e-05
3.26182e-05
3.19213e-05
3.12416e-05
3.05787e-05
2.99324e-05
2.93022e-05
2.86878e-05
2.80888e-05
2.75049e-05
2.69355e-05
2.63802e-05
2.58385e-05
2.531e-05
2.47941e-05
2.42905e-05
2.37984e-05
2.33176e-05
2.28473e-05
2.23872e-05
2.19367e-05
2.14952e-05
2.10623e-05
2.06375e-05
2.02202e-05
1.98097e-05
1.94068e-05
1.90103e-05
1.86196e-05
1.82342e-05
1.78537e-05
1.74777e-05
1.71058e-05
1.67375e-05
1.63726e-05
1.60106e-05
1.56513e-05
1.52943e-05
1.49395e-05
1.45864e-05
1.42349e-05
1.38849e-05
1.3536e-05
1.31881e-05
1.28411e-05
1.24949e-05
1.21494e-05
1.18045e-05
1.14618e-05
1.11202e-05
1.07793e-05
1.0439e-05
1.00993e-05
9.76032e-06
9.42207e-06
9.08465e-06
8.74815e-06
8.41266e-06
8.07831e-06
7.74519e-06
7.41344e-06
7.08316e-06
6.75446e-06
6.42746e-06
6.10222e-06
5.77884e-06
5.45734e-06
5.13773e-06
4.81967e-06
4.5031e-06
4.18879e-06
3.8758e-06
3.56395e-06
3.25291e-06
2.94195e-06
2.63018e-06
2.31646e-06
2.00199e-06
1.68336e-06
1.3568e-06
1.01845e-06
6.65807e-07
3.12766e-07
5.97866e-08
2.52217e-06
3.69381e-05
6.53406e-05
8.47299e-05
9.96013e-05
0.000111831
0.000122287
0.000131591
0.000140078
0.000147943
0.000155315
0.000162293
0.000168947
0.000175319
0.000181444
0.000187346
0.000193048
0.000198565
0.00020391
0.000209094
0.000214125
0.000219009
0.00022375
0.000228354
0.000232822
0.000237158
0.000241363
0.000245437
0.000249383
0.000253199
0.000256886
0.000260445
0.000263874
0.000267173
0.000270341
0.000273379
0.000276285
0.000279059
0.000281699
0.000284206
0.000286579
0.000288817
0.00029092
0.000292887
0.000294719
0.000296414
0.000297974
0.000299398
0.000300686
0.000301839
0.000302858
0.000303743
0.000304495
0.000305115
0.000305605
0.000305965
0.000306197
0.000306303
0.000306284
0.000306141
0.000305877
0.000305493
0.000304986
0.000304363
0.000303628
0.000302785
0.000301837
0.000300789
0.000299642
0.000298401
0.000297068
0.000295648
0.000294143
0.000292558
0.000290895
0.000289159
0.000287353
0.000285481
0.000283547
0.000281553
0.000279505
0.000277405
0.000275257
0.000273066
0.000270834
0.000268565
0.000266263
0.00026393
0.000261572
0.00025919
0.000256788
0.00025437
0.000251937
0.000249495
0.000247044
0.000244589
0.000242132
0.000239675
0.000237222
0.000234773
0.000232333
0.000229902
0.000227484
0.000225079
0.00022269
0.000220319
0.000217967
0.000215635
0.000213326
0.00021104
0.000208777
0.000206541
0.00020433
0.000202147
0.000199991
0.000197863
0.000195764
0.000193693
0.000191652
0.00018964
0.000187656
0.000185702
0.000183776
0.000181879
0.00018001
0.000178168
0.000176353
0.000174565
0.000172801
0.000171063
0.000169348
0.000167655
0.000165984
0.000164334
0.000162703
0.000161091
0.000159495
0.000157915
0.00015635
0.000154797
0.000153258
0.00015173
0.000150211
0.000148698
0.000147192
0.00014569
0.000144191
0.000142693
0.000141196
0.000139698
0.000138197
0.000136692
0.000135182
0.000133665
0.000132139
0.000130605
0.00012906
0.000127503
0.000125932
0.000124348
0.000122748
0.000121131
0.000119494
0.000117835
0.000116143
0.000114429
0.000112692
0.000110932
0.000109147
0.000107337
0.000105501
0.000103638
0.000101747
9.9826e-05
9.78741e-05
9.58898e-05
9.38712e-05
9.18164e-05
8.97231e-05
8.75885e-05
8.54094e-05
8.31819e-05
8.09016e-05
7.85631e-05
7.61604e-05
7.36848e-05
7.11224e-05
6.84596e-05
6.56789e-05
6.27561e-05
5.96577e-05
5.63366e-05
5.27149e-05
4.86436e-05
4.40446e-05
3.86869e-05
3.21519e-05
2.35866e-05
1.1278e-05
2.78934e-07
2.52228e-06
3.69402e-05
6.53438e-05
8.47334e-05
9.9605e-05
0.000111835
0.000122291
0.000131595
0.000140082
0.000147947
0.000155319
0.000162297
0.000168951
0.000175324
0.000181448
0.000187351
0.000193052
0.00019857
0.000203915
0.000209099
0.00021413
0.000219013
0.000223755
0.000228359
0.000232827
0.000237163
0.000241368
0.000245443
0.000249388
0.000253204
0.000256892
0.00026045
0.000263879
0.000267178
0.000270347
0.000273385
0.000276291
0.000279065
0.000281705
0.000284212
0.000286585
0.000288823
0.000290926
0.000292893
0.000294725
0.00029642
0.00029798
0.000299404
0.000300692
0.000301845
0.000302864
0.000303749
0.000304501
0.000305121
0.000305611
0.000305971
0.000306203
0.000306309
0.00030629
0.000306147
0.000305883
0.000305498
0.000304992
0.000304368
0.000303633
0.000302791
0.000301843
0.000300795
0.000299648
0.000298407
0.000297074
0.000295654
0.000294149
0.000292563
0.000290901
0.000289165
0.000287359
0.000285486
0.000283552
0.000281558
0.00027951
0.00027741
0.000275262
0.000273071
0.000270839
0.00026857
0.000266267
0.000263935
0.000261576
0.000259194
0.000256792
0.000254374
0.000251942
0.000249499
0.000247049
0.000244593
0.000242136
0.000239679
0.000237225
0.000234777
0.000232336
0.000229906
0.000227487
0.000225082
0.000222694
0.000220322
0.00021797
0.000215639
0.000213329
0.000211043
0.00020878
0.000206544
0.000204333
0.00020215
0.000199994
0.000197866
0.000195766
0.000193696
0.000191654
0.000189642
0.000187659
0.000185704
0.000183779
0.000181881
0.000180012
0.00017817
0.000176355
0.000174567
0.000172803
0.000171065
0.000169349
0.000167657
0.000165986
0.000164336
0.000162705
0.000161092
0.000159497
0.000157916
0.000156351
0.000154799
0.000153259
0.000151731
0.000150212
0.000148699
0.000147193
0.000145691
0.000144192
0.000142694
0.000141197
0.000139699
0.000138198
0.000136693
0.000135182
0.000133665
0.00013214
0.000130605
0.00012906
0.000127503
0.000125933
0.000124348
0.000122748
0.000121131
0.000119495
0.000117836
0.000116143
0.000114429
0.000112693
0.000110932
0.000109148
0.000107338
0.000105502
0.000103639
0.000101747
9.98264e-05
9.78745e-05
9.58901e-05
9.38716e-05
9.18168e-05
8.97234e-05
8.75888e-05
8.54097e-05
8.31822e-05
8.09019e-05
7.85634e-05
7.61607e-05
7.36851e-05
7.11227e-05
6.84599e-05
6.56792e-05
6.27564e-05
5.9658e-05
5.63368e-05
5.27152e-05
4.86438e-05
4.40447e-05
3.8687e-05
3.2152e-05
2.35866e-05
1.12779e-05
2.78934e-07
4.92423e-06
6.32455e-05
0.000122712
0.000166916
0.000201035
0.000228538
0.000251604
0.000271558
0.000289249
0.000305235
0.000319885
0.000333465
0.000346163
0.000358117
0.000369428
0.000380176
0.000390424
0.00040022
0.000409605
0.000418612
0.000427267
0.000435592
0.000443604
0.000451319
0.00045875
0.000465908
0.0004728
0.000479435
0.000485819
0.000491958
0.000497856
0.000503517
0.000508945
0.000514143
0.000519113
0.000523858
0.000528379
0.000532679
0.00053676
0.000540623
0.000544269
0.0005477
0.000550917
0.000553923
0.000556717
0.000559303
0.00056168
0.000563852
0.00056582
0.000567584
0.000569148
0.000570514
0.000571682
0.000572656
0.000573438
0.000574029
0.000574433
0.000574651
0.000574687
0.000574541
0.000574216
0.000573713
0.000573031
0.000572176
0.000571156
0.000569976
0.000568642
0.000567157
0.000565528
0.000563757
0.00056185
0.000559812
0.000557646
0.000555358
0.000552951
0.000550432
0.000547805
0.000545074
0.000542244
0.000539321
0.000536309
0.000533212
0.000530037
0.000526787
0.000523468
0.000520085
0.000516641
0.000513143
0.000509594
0.000505999
0.000502363
0.000498691
0.000494986
0.000491253
0.000487496
0.00048372
0.000479927
0.000476123
0.000472311
0.000468495
0.000464677
0.000460862
0.000457053
0.000453252
0.000449463
0.000445688
0.00044193
0.000438192
0.000434475
0.000430783
0.000427115
0.000423476
0.000419865
0.000416285
0.000412737
0.000409221
0.000405739
0.000402291
0.000398878
0.000395501
0.000392159
0.000388852
0.00038558
0.000382344
0.000379141
0.000375973
0.000372838
0.000369735
0.000366663
0.000363621
0.000360607
0.000357621
0.00035466
0.000351723
0.000348808
0.000345913
0.000343037
0.000340177
0.000337333
0.000334502
0.000331683
0.000328871
0.000326063
0.000323258
0.000320452
0.000317645
0.000314833
0.000312014
0.000309186
0.000306347
0.000303493
0.000300624
0.000297736
0.000294827
0.000291895
0.000288937
0.000285952
0.000282937
0.00027989
0.000276808
0.000273689
0.00027053
0.000267327
0.000264073
0.000260759
0.000257392
0.000253971
0.000250496
0.000246964
0.000243374
0.000239722
0.000236006
0.000232222
0.000228367
0.000224437
0.000220425
0.000216327
0.000212136
0.000207845
0.000203445
0.000198925
0.000194273
0.000189474
0.000184512
0.000179365
0.000174005
0.000168398
0.000162501
0.000156254
0.000149582
0.000142381
0.000134511
0.000125765
0.000115835
0.000104312
9.0602e-05
7.36435e-05
5.16538e-05
2.26619e-05
5.97452e-07
4.92437e-06
6.32486e-05
0.000122718
0.000166923
0.000201043
0.000228547
0.000251612
0.000271566
0.000289258
0.000305243
0.000319893
0.000333473
0.000346171
0.000358125
0.000369436
0.000380184
0.000390432
0.000400228
0.000409613
0.00041862
0.000427275
0.0004356
0.000443612
0.000451328
0.000458759
0.000465916
0.000472808
0.000479443
0.000485827
0.000491966
0.000497864
0.000503525
0.000508953
0.000514151
0.000519121
0.000523866
0.000528388
0.000532688
0.000536769
0.000540631
0.000544277
0.000547708
0.000550926
0.000553931
0.000556726
0.000559311
0.000561689
0.000563861
0.000565828
0.000567593
0.000569157
0.000570522
0.000571691
0.000572664
0.000573446
0.000574037
0.000574441
0.00057466
0.000574695
0.000574549
0.000574224
0.00057372
0.000573039
0.000572184
0.000571164
0.000569984
0.000568649
0.000567165
0.000565535
0.000563764
0.000561857
0.000559819
0.000557653
0.000555364
0.000552958
0.000550439
0.000547811
0.00054508
0.000542251
0.000539327
0.000536315
0.000533218
0.000530043
0.000526793
0.000523474
0.00052009
0.000516647
0.000513148
0.000509599
0.000506004
0.000502368
0.000498696
0.000494991
0.000491258
0.000487501
0.000483724
0.000479932
0.000476128
0.000472316
0.000468499
0.000464681
0.000460866
0.000457057
0.000453256
0.000449467
0.000445692
0.000441934
0.000438195
0.000434479
0.000430786
0.000427118
0.000423479
0.000419868
0.000416288
0.000412739
0.000409223
0.000405741
0.000402294
0.000398881
0.000395503
0.000392161
0.000388854
0.000385582
0.000382345
0.000379143
0.000375975
0.00037284
0.000369736
0.000366664
0.000363622
0.000360608
0.000357622
0.000354661
0.000351724
0.000348809
0.000345914
0.000343038
0.000340178
0.000337334
0.000334503
0.000331683
0.000328871
0.000326064
0.000323258
0.000320453
0.000317645
0.000314833
0.000312014
0.000309186
0.000306347
0.000303493
0.000300624
0.000297736
0.000294827
0.000291894
0.000288937
0.000285952
0.000282937
0.000279889
0.000276808
0.000273689
0.00027053
0.000267326
0.000264072
0.000260759
0.000257392
0.000253971
0.000250496
0.000246964
0.000243373
0.000239722
0.000236006
0.000232222
0.000228367
0.000224436
0.000220425
0.000216327
0.000212136
0.000207845
0.000203444
0.000198924
0.000194272
0.000189474
0.000184512
0.000179365
0.000174005
0.000168398
0.0001625
0.000156254
0.000149582
0.000142381
0.000134511
0.000125765
0.000115835
0.000104312
9.06021e-05
7.36435e-05
5.16538e-05
2.26617e-05
5.97452e-07
7.2607e-06
8.16146e-05
0.000164735
0.000231574
0.000285218
0.000329303
0.000366518
0.000398682
0.000427037
0.000452448
0.000475527
0.000496717
0.000516346
0.000534658
0.000551841
0.00056804
0.00058337
0.000597922
0.000611773
0.000624981
0.000637599
0.000649666
0.000661218
0.000672285
0.000682892
0.000693059
0.000702806
0.000712148
0.000721099
0.000729671
0.000737875
0.00074572
0.000753214
0.000760366
0.000767181
0.000773666
0.000779827
0.000785669
0.000791196
0.000796414
0.000801327
0.000805938
0.000810252
0.000814272
0.000818003
0.000821448
0.000824611
0.000827494
0.000830103
0.00083244
0.000834509
0.000836313
0.000837857
0.000839143
0.000840176
0.000840959
0.000841496
0.00084179
0.000841844
0.000841663
0.000841248
0.000840601
0.000839727
0.000838629
0.000837316
0.000835794
0.000834072
0.000832154
0.000830046
0.000827755
0.000825286
0.000822644
0.000819836
0.000816867
0.000813743
0.000810471
0.000807054
0.000803501
0.000799816
0.000796005
0.000792075
0.000788032
0.000783881
0.000779628
0.00077528
0.000770842
0.000766321
0.000761722
0.00075705
0.000752313
0.000747515
0.000742662
0.000737759
0.000732813
0.000727828
0.000722809
0.000717762
0.000712691
0.000707602
0.000702499
0.000697387
0.000692269
0.00068715
0.000682034
0.000676926
0.000671827
0.000666742
0.000661675
0.000656627
0.000651603
0.000646603
0.000641632
0.00063669
0.00063178
0.000626903
0.000622061
0.000617255
0.000612486
0.000607755
0.000603061
0.000598407
0.00059379
0.000589212
0.000584672
0.000580169
0.000575703
0.000571272
0.000566875
0.000562511
0.000558178
0.000553874
0.000549598
0.000545347
0.000541119
0.000536913
0.000532725
0.000528553
0.000524394
0.000520248
0.00051611
0.000511978
0.000507846
0.000503711
0.00049957
0.00049542
0.000491259
0.000487082
0.000482887
0.000478671
0.00047443
0.000470162
0.000465863
0.00046153
0.00045716
0.00045275
0.000448297
0.000443798
0.000439249
0.000434648
0.00042999
0.000425272
0.00042049
0.000415639
0.000410711
0.000405699
0.000400605
0.000395426
0.00039016
0.000384804
0.000379353
0.000373803
0.000368148
0.000362382
0.000356498
0.000350487
0.000344341
0.000338048
0.000331596
0.000324971
0.000318155
0.000311129
0.000303869
0.000296348
0.000288531
0.000280378
0.000271839
0.000262848
0.000253327
0.00024317
0.000232243
0.000220367
0.000207298
0.000192705
0.00017613
0.000156924
0.000134206
0.000106629
7.23375e-05
3.06138e-05
9.24114e-07
7.26086e-06
8.16179e-05
0.000164743
0.000231583
0.00028523
0.000329315
0.00036653
0.000398694
0.00042705
0.000452461
0.000475539
0.000496729
0.000516358
0.00053467
0.000551853
0.000568051
0.000583381
0.000597934
0.000611784
0.000624993
0.00063761
0.000649677
0.00066123
0.000672297
0.000682903
0.000693071
0.000702818
0.00071216
0.000721111
0.000729683
0.000737886
0.000745731
0.000753226
0.000760377
0.000767192
0.000773677
0.000779838
0.00078568
0.000791207
0.000796425
0.000801337
0.000805948
0.000810262
0.000814283
0.000818014
0.000821459
0.000824621
0.000827505
0.000830113
0.00083245
0.000834519
0.000836323
0.000837867
0.000839153
0.000840186
0.000840969
0.000841505
0.000841799
0.000841854
0.000841672
0.000841257
0.00084061
0.000839736
0.000838638
0.000837324
0.000835803
0.00083408
0.000832162
0.000830054
0.000827763
0.000825294
0.000822652
0.000819844
0.000816875
0.000813751
0.000810478
0.000807061
0.000803508
0.000799822
0.000796012
0.000792082
0.000788038
0.000783887
0.000779634
0.000775286
0.000770848
0.000766327
0.000761727
0.000757056
0.000752318
0.00074752
0.000742667
0.000737764
0.000732818
0.000727832
0.000722813
0.000717766
0.000712696
0.000707606
0.000702503
0.00069739
0.000692273
0.000687154
0.000682038
0.000676929
0.00067183
0.000666746
0.000661678
0.00065663
0.000651605
0.000646606
0.000641634
0.000636692
0.000631782
0.000626905
0.000622063
0.000617257
0.000612488
0.000607756
0.000603063
0.000598408
0.000593792
0.000589214
0.000584673
0.00058017
0.000575704
0.000571273
0.000566876
0.000562511
0.000558178
0.000553874
0.000549598
0.000545347
0.00054112
0.000536913
0.000532725
0.000528553
0.000524394
0.000520248
0.00051611
0.000511977
0.000507845
0.00050371
0.00049957
0.00049542
0.000491258
0.000487081
0.000482886
0.00047867
0.000474429
0.000470161
0.000465862
0.000461529
0.000457159
0.000452749
0.000448296
0.000443797
0.000439248
0.000434646
0.000429989
0.000425271
0.000420489
0.000415637
0.00041071
0.000405698
0.000400604
0.000395425
0.000390159
0.000384802
0.000379351
0.000373801
0.000368146
0.000362381
0.000356497
0.000350486
0.00034434
0.000338047
0.000331595
0.00032497
0.000318154
0.000311128
0.000303868
0.000296346
0.00028853
0.000280377
0.000271838
0.000262847
0.000253326
0.00024317
0.000232243
0.000220366
0.000207298
0.000192704
0.000176129
0.000156924
0.000134206
0.000106629
7.23375e-05
3.06136e-05
9.24116e-07
9.53547e-06
9.62195e-05
0.000197607
0.000283486
0.00035476
0.00041464
0.000465824
0.000510332
0.000549641
0.000584835
0.000616714
0.000645876
0.000672775
0.000697758
0.000721094
0.000742997
0.000763636
0.000783147
0.000801641
0.00081921
0.000835929
0.000851862
0.000867062
0.000881574
0.000895438
0.000908685
0.000921345
0.000933444
0.000945002
0.000956039
0.000966573
0.000976618
0.000986189
0.000995299
0.00100396
0.00101218
0.00101997
0.00102733
0.00103429
0.00104084
0.00104699
0.00105275
0.00105813
0.00106313
0.00106776
0.00107202
0.00107593
0.00107949
0.00108269
0.00108556
0.00108809
0.00109029
0.00109217
0.00109373
0.00109497
0.00109591
0.00109654
0.00109688
0.00109692
0.00109667
0.00109613
0.00109532
0.00109423
0.00109288
0.00109126
0.00108939
0.00108727
0.00108492
0.00108233
0.00107952
0.0010765
0.00107326
0.00106983
0.0010662
0.00106238
0.00105837
0.0010542
0.00104985
0.00104534
0.00104069
0.00103588
0.00103093
0.00102585
0.00102065
0.00101533
0.00100989
0.00100435
0.000998717
0.000992989
0.000987177
0.000981288
0.000975328
0.000969304
0.000963222
0.000957089
0.00095091
0.000944692
0.00093844
0.000932161
0.000925859
0.000919541
0.000913211
0.000906874
0.000900535
0.000894199
0.000887869
0.000881551
0.000875247
0.000868962
0.000862698
0.000856459
0.000850247
0.000844065
0.000837915
0.0008318
0.00082572
0.000819677
0.000813672
0.000807706
0.00080178
0.000795894
0.000790047
0.00078424
0.000778471
0.000772741
0.000767047
0.000761389
0.000755765
0.000750174
0.000744612
0.000739078
0.00073357
0.000728085
0.00072262
0.000717173
0.00071174
0.000706318
0.000700906
0.000695498
0.000690093
0.000684683
0.000679267
0.000673838
0.000668394
0.000662931
0.000657444
0.00065193
0.000646385
0.000640805
0.000635187
0.000629527
0.00062382
0.000618063
0.000612253
0.000606384
0.000600454
0.000594458
0.000588393
0.000582254
0.000576037
0.000569737
0.000563349
0.000556866
0.000550281
0.000543588
0.000536783
0.000529864
0.000522824
0.000515659
0.000508362
0.000500926
0.000493343
0.000485602
0.000477694
0.000469605
0.00046132
0.000452824
0.000444097
0.000435116
0.000425857
0.000416288
0.000406374
0.000396072
0.000385331
0.00037409
0.000362272
0.000349784
0.000336508
0.000322296
0.000306956
0.000290242
0.000271831
0.000251291
0.00022805
0.000201326
0.000170086
0.000132964
8.83795e-05
3.68575e-05
1.24848e-06
9.53562e-06
9.6223e-05
0.000197615
0.000283497
0.000354773
0.000414654
0.000465839
0.000510348
0.000549657
0.000584851
0.00061673
0.000645892
0.000672791
0.000697773
0.00072111
0.000743013
0.000763651
0.000783162
0.000801656
0.000819225
0.000835944
0.000851877
0.000867077
0.000881589
0.000895452
0.0009087
0.00092136
0.000933458
0.000945016
0.000956053
0.000966587
0.000976632
0.000986203
0.000995312
0.00100397
0.00101219
0.00101998
0.00102735
0.0010343
0.00104085
0.001047
0.00105276
0.00105814
0.00106314
0.00106777
0.00107204
0.00107594
0.0010795
0.00108271
0.00108557
0.0010881
0.00109031
0.00109218
0.00109374
0.00109498
0.00109592
0.00109655
0.00109689
0.00109693
0.00109668
0.00109615
0.00109533
0.00109424
0.00109289
0.00109127
0.0010894
0.00108728
0.00108492
0.00108234
0.00107953
0.00107651
0.00107327
0.00106984
0.0010662
0.00106238
0.00105838
0.0010542
0.00104986
0.00104535
0.00104069
0.00103589
0.00103094
0.00102586
0.00102066
0.00101533
0.0010099
0.00100436
0.000998723
0.000992995
0.000987183
0.000981294
0.000975334
0.000969309
0.000963227
0.000957094
0.000950915
0.000944696
0.000938444
0.000932165
0.000925863
0.000919545
0.000913214
0.000906878
0.000900539
0.000894202
0.000887873
0.000881554
0.00087525
0.000868965
0.000862701
0.000856461
0.000850249
0.000844067
0.000837918
0.000831802
0.000825722
0.000819679
0.000813674
0.000807708
0.000801782
0.000795895
0.000790048
0.000784241
0.000778472
0.000772742
0.000767048
0.00076139
0.000755766
0.000750174
0.000744613
0.000739079
0.000733571
0.000728085
0.00072262
0.000717173
0.00071174
0.000706318
0.000700905
0.000695498
0.000690092
0.000684683
0.000679266
0.000673837
0.000668393
0.00066293
0.000657443
0.000651929
0.000646384
0.000640804
0.000635186
0.000629526
0.000623819
0.000618062
0.000612251
0.000606383
0.000600453
0.000594457
0.000588392
0.000582253
0.000576036
0.000569735
0.000563347
0.000556864
0.000550279
0.000543586
0.000536782
0.000529862
0.000522822
0.000515657
0.00050836
0.000500924
0.000493341
0.000485601
0.000477692
0.000469603
0.000461319
0.000452822
0.000444095
0.000435115
0.000425855
0.000416286
0.000406372
0.00039607
0.00038533
0.000374088
0.000362271
0.000349783
0.000336507
0.000322295
0.000306955
0.000290242
0.00027183
0.000251291
0.00022805
0.000201326
0.000170086
0.000132964
8.83796e-05
3.68573e-05
1.24849e-06
1.17858e-05
0.000108559
0.000224674
0.000326622
0.000413468
0.000487769
0.000552054
0.000608378
0.000658335
0.000703146
0.000743745
0.000780852
0.000815023
0.000846695
0.000876212
0.000903848
0.000929823
0.000954317
0.000977477
0.000999424
0.00102026
0.00104007
0.00105892
0.00107689
0.00109401
0.00111033
0.0011259
0.00114074
0.0011549
0.00116839
0.00118123
0.00119346
0.00120509
0.00121613
0.00122661
0.00123654
0.00124593
0.00125479
0.00126314
0.00127099
0.00127835
0.00128523
0.00129164
0.00129758
0.00130308
0.00130813
0.00131274
0.00131693
0.0013207
0.00132406
0.00132702
0.00132958
0.00133176
0.00133356
0.00133498
0.00133603
0.00133673
0.00133708
0.00133708
0.00133674
0.00133607
0.00133507
0.00133375
0.00133212
0.00133018
0.00132795
0.00132543
0.00132264
0.00131958
0.00131625
0.00131268
0.00130886
0.00130481
0.00130052
0.00129602
0.00129131
0.00128639
0.00128128
0.00127598
0.00127051
0.00126486
0.00125904
0.00125308
0.00124696
0.00124071
0.00123433
0.00122782
0.0012212
0.00121447
0.00120764
0.00120072
0.00119372
0.00118664
0.00117949
0.00117227
0.00116501
0.00115769
0.00115033
0.00114294
0.00113552
0.00112807
0.00112061
0.00111314
0.00110566
0.00109818
0.0010907
0.00108323
0.00107578
0.00106834
0.00106093
0.00105354
0.00104617
0.00103884
0.00103154
0.00102427
0.00101704
0.00100985
0.0010027
0.000995585
0.000988513
0.000981481
0.00097449
0.000967538
0.000960626
0.000953752
0.000946914
0.000940111
0.000933342
0.000926603
0.000919892
0.000913207
0.000906544
0.000899902
0.000893275
0.000886662
0.000880058
0.00087346
0.000866864
0.000860267
0.000853662
0.000847046
0.000840414
0.00083376
0.00082708
0.00082037
0.000813625
0.00080684
0.000800012
0.000793135
0.000786205
0.000779217
0.000772168
0.000765052
0.000757865
0.000750603
0.00074326
0.000735832
0.000728315
0.000720703
0.000712991
0.000705172
0.000697241
0.000689191
0.000681015
0.000672703
0.000664251
0.000655654
0.000646903
0.000637991
0.000628909
0.000619648
0.000610194
0.000600536
0.000590658
0.000580542
0.00057017
0.000559518
0.000548559
0.000537265
0.0005256
0.000513522
0.000500984
0.000487928
0.000474286
0.000459976
0.000444899
0.000428931
0.000411921
0.000393681
0.000373973
0.000352494
0.000328857
0.000302565
0.000272969
0.000239231
0.000200274
0.000154799
0.00010158
4.21256e-05
1.57116e-06
1.1786e-05
0.000108563
0.000224682
0.000326633
0.000413482
0.000487785
0.000552072
0.000608397
0.000658354
0.000703165
0.000743764
0.000780871
0.000815042
0.000846714
0.000876231
0.000903867
0.000929842
0.000954336
0.000977496
0.000999443
0.00102028
0.00104009
0.00105894
0.0010769
0.00109402
0.00111035
0.00112592
0.00114076
0.00115491
0.0011684
0.00118125
0.00119348
0.0012051
0.00121615
0.00122663
0.00123655
0.00124594
0.00125481
0.00126316
0.00127101
0.00127837
0.00128524
0.00129165
0.0012976
0.00130309
0.00130814
0.00131276
0.00131695
0.00132072
0.00132408
0.00132703
0.0013296
0.00133177
0.00133357
0.00133499
0.00133605
0.00133674
0.00133709
0.00133709
0.00133675
0.00133608
0.00133508
0.00133376
0.00133213
0.00133019
0.00132796
0.00132544
0.00132265
0.00131959
0.00131626
0.00131269
0.00130887
0.00130481
0.00130053
0.00129603
0.00129132
0.0012864
0.00128129
0.00127599
0.00127051
0.00126486
0.00125905
0.00125308
0.00124697
0.00124072
0.00123433
0.00122783
0.00122121
0.00121448
0.00120765
0.00120073
0.00119372
0.00118664
0.00117949
0.00117228
0.00116501
0.00115769
0.00115034
0.00114294
0.00113552
0.00112808
0.00112061
0.00111314
0.00110566
0.00109818
0.00109071
0.00108324
0.00107578
0.00106835
0.00106093
0.00105354
0.00104618
0.00103884
0.00103154
0.00102428
0.00101705
0.00100985
0.0010027
0.000995587
0.000988515
0.000981483
0.000974492
0.00096754
0.000960628
0.000953753
0.000946915
0.000940113
0.000933343
0.000926604
0.000919893
0.000913208
0.000906545
0.000899902
0.000893276
0.000886662
0.000880058
0.00087346
0.000866864
0.000860267
0.000853662
0.000847046
0.000840414
0.00083376
0.00082708
0.000820369
0.000813624
0.000806839
0.000800011
0.000793134
0.000786204
0.000779216
0.000772167
0.000765051
0.000757864
0.000750601
0.000743259
0.000735831
0.000728314
0.000720701
0.000712989
0.000705171
0.00069724
0.00068919
0.000681013
0.000672701
0.00066425
0.000655652
0.000646901
0.000637989
0.000628908
0.000619646
0.000610193
0.000600534
0.000590656
0.000580541
0.000570168
0.000559516
0.000548558
0.000537264
0.000525598
0.000513521
0.000500983
0.000487927
0.000474285
0.000459975
0.000444897
0.00042893
0.00041192
0.00039368
0.000373972
0.000352493
0.000328857
0.000302565
0.000272969
0.000239231
0.000200275
0.0001548
0.000101581
4.21254e-05
1.57116e-06
1.40198e-05
0.000119416
0.000247915
0.000363623
0.000464164
0.000551447
0.00062776
0.000695108
0.000755129
0.000809121
0.000858112
0.00090291
0.000944154
0.000982354
0.00101792
0.00105117
0.00108238
0.00111177
0.00113952
0.00116577
0.00119066
0.00121428
0.00123673
0.00125808
0.00127841
0.00129776
0.00131618
0.00133373
0.00135043
0.00136633
0.00138145
0.00139582
0.00140946
0.0014224
0.00143466
0.00144626
0.00145721
0.00146754
0.00147725
0.00148636
0.00149489
0.00150285
0.00151025
0.00151711
0.00152344
0.00152924
0.00153453
0.00153932
0.00154363
0.00154745
0.0015508
0.0015537
0.00155614
0.00155815
0.00155972
0.00156088
0.00156162
0.00156195
0.00156189
0.00156144
0.00156061
0.00155941
0.00155785
0.00155593
0.00155367
0.00155107
0.00154814
0.00154491
0.00154137
0.00153753
0.00153341
0.00152901
0.00152435
0.00151942
0.00151426
0.00150885
0.00150321
0.00149735
0.00149128
0.00148501
0.00147854
0.00147189
0.00146507
0.00145808
0.00145093
0.00144364
0.00143621
0.00142864
0.00142096
0.00141316
0.00140526
0.00139726
0.00138918
0.00138101