/*--------------------------------*- C++ -*----------------------------------*\
  =========                 |
  \\      /  F ield         | OpenFOAM: The Open Source CFD Toolbox
   \\    /   O peration     | Website:  https://openfoam.org
    \\  /    A nd           | Version:  8
     \\/     M anipulation  |
\*---------------------------------------------------------------------------*/
FoamFile
{
    version     2.0;
    format      ascii;
    class       surfaceScalarField;
    location    "3000";
    object      phi;
}
// * * * * * * * * * * * * * * * * * * * * * * * * * * * * * * * * * * * * * //

dimensions      [1 0 -1 0 0 0 0];

internalField   nonuniform List<scalar> 
114370
(
4.27215e-10
5.69316e-14
-4.27272e-10
1.08868e-09
1.29248e-14
-6.62468e-10
1.65942e-09
2.64474e-15
-5.71355e-10
2.003e-09
3.65855e-15
-3.44047e-10
2.11373e-09
5.69109e-15
-1.11141e-10
2.0217e-09
6.78336e-15
9.16531e-11
1.76429e-09
7.11923e-15
2.57064e-10
1.37612e-09
7.10283e-15
3.87848e-10
8.8562e-10
7.0117e-15
4.90193e-10
3.15389e-10
6.918e-15
5.69945e-10
-3.16539e-10
6.82261e-15
6.31659e-10
-9.95687e-10
6.68755e-15
6.78896e-10
-1.71086e-09
6.52021e-15
7.14939e-10
-2.45349e-09
6.33099e-15
7.42406e-10
-3.21676e-09
6.13442e-15
7.63062e-10
-3.99522e-09
5.95152e-15
7.78269e-10
-4.78447e-09
5.79682e-15
7.89065e-10
-5.58089e-09
5.67075e-15
7.96248e-10
-6.38149e-09
5.56627e-15
8.00436e-10
-7.18375e-09
5.47382e-15
8.02105e-10
-7.98553e-09
5.38009e-15
8.01623e-10
-8.78494e-09
5.27193e-15
7.99277e-10
-9.58036e-09
5.14232e-15
7.95286e-10
-1.03703e-08
4.99211e-15
7.89823e-10
-1.11535e-08
4.82575e-15
7.83018e-10
-1.19285e-08
4.64985e-15
7.74973e-10
-1.26944e-08
4.47168e-15
7.65769e-10
-1.345e-08
4.29687e-15
7.55465e-10
-1.41942e-08
4.12759e-15
7.44112e-10
-1.49261e-08
3.96634e-15
7.31747e-10
-1.56446e-08
3.80845e-15
7.18404e-10
-1.63488e-08
3.65501e-15
7.04111e-10
-1.70377e-08
3.50363e-15
6.88893e-10
-1.77106e-08
3.35388e-15
6.72775e-10
-1.83665e-08
3.20424e-15
6.55781e-10
-1.90045e-08
3.05656e-15
6.37937e-10
-1.96238e-08
2.90952e-15
6.19268e-10
-2.02237e-08
2.764e-15
5.99805e-10
-2.08034e-08
2.62152e-15
5.79578e-10
-2.13621e-08
2.48186e-15
5.58622e-10
-2.18991e-08
2.34622e-15
5.36972e-10
-2.24139e-08
2.21502e-15
5.14668e-10
-2.29057e-08
2.08891e-15
4.91752e-10
-2.3374e-08
1.96856e-15
4.68267e-10
-2.38183e-08
1.85286e-15
4.44261e-10
-2.42382e-08
1.7427e-15
4.19782e-10
-2.46331e-08
1.63687e-15
3.9488e-10
-2.50028e-08
1.53528e-15
3.69608e-10
-2.53469e-08
1.43683e-15
3.44019e-10
-2.56651e-08
1.33957e-15
3.18166e-10
-2.59573e-08
1.24458e-15
2.92106e-10
-2.62232e-08
1.15036e-15
2.65892e-10
-2.64628e-08
1.05722e-15
2.39581e-10
-2.66761e-08
9.64629e-16
2.13228e-10
-2.68631e-08
8.73552e-16
1.86888e-10
-2.70237e-08
7.82584e-16
1.60615e-10
-2.71582e-08
6.93567e-16
1.34463e-10
-2.72668e-08
6.05419e-16
1.08485e-10
-2.73495e-08
5.19655e-16
8.27328e-11
-2.74068e-08
4.35735e-16
5.72552e-11
-2.7439e-08
3.55177e-16
3.20973e-11
-2.74463e-08
2.7657e-16
7.30204e-12
-2.74293e-08
2.02409e-16
-1.709e-11
-2.73883e-08
1.33452e-16
-4.10447e-11
-2.73238e-08
6.8289e-17
-6.45311e-11
-2.72363e-08
7.89697e-18
-8.75163e-11
-2.71264e-08
-4.73992e-17
-1.09965e-10
-2.69946e-08
-9.70574e-17
-1.31844e-10
-2.68415e-08
-1.40427e-16
-1.53121e-10
-2.66678e-08
-1.78809e-16
-1.7377e-10
-2.64741e-08
-2.09819e-16
-1.93767e-10
-2.62611e-08
-2.36492e-16
-2.13091e-10
-2.60294e-08
-2.57744e-16
-2.31723e-10
-2.57798e-08
-2.73575e-16
-2.49647e-10
-2.5513e-08
-2.85177e-16
-2.6685e-10
-2.52297e-08
-2.92551e-16
-2.8332e-10
-2.49307e-08
-2.96022e-16
-2.99049e-10
-2.46167e-08
-2.95589e-16
-3.14031e-10
-2.42885e-08
-2.91254e-16
-3.28259e-10
-2.39469e-08
-2.82147e-16
-3.41733e-10
-2.35925e-08
-2.69247e-16
-3.54451e-10
-2.32261e-08
-2.52443e-16
-3.66414e-10
-2.28485e-08
-2.31952e-16
-3.77625e-10
-2.24605e-08
-2.07776e-16
-3.88088e-10
-2.20628e-08
-1.79804e-16
-3.97811e-10
-2.1656e-08
-1.48038e-16
-4.068e-10
-2.1241e-08
-1.13561e-16
-4.15065e-10
-2.08185e-08
-7.6699e-17
-4.22616e-10
-2.03891e-08
-3.71263e-17
-4.29465e-10
-1.99535e-08
4.61489e-18
-4.35625e-10
-1.95125e-08
4.85245e-17
-4.41109e-10
-1.90667e-08
9.51448e-17
-4.45932e-10
-1.86166e-08
1.43825e-16
-4.50111e-10
-1.81631e-08
1.9424e-16
-4.53663e-10
-1.77065e-08
2.47691e-16
-4.56604e-10
-1.72477e-08
3.03094e-16
-4.58952e-10
-1.67871e-08
3.60991e-16
-4.60728e-10
-1.63252e-08
4.20405e-16
-4.6195e-10
-1.58627e-08
4.8253e-16
-4.62639e-10
-1.54e-08
5.46391e-16
-4.62814e-10
-1.49376e-08
6.1166e-16
-4.62496e-10
-1.4476e-08
6.79098e-16
-4.61707e-10
-1.40156e-08
7.45886e-16
-4.60468e-10
-1.3557e-08
8.14843e-16
-4.588e-10
-1.31004e-08
8.83041e-16
-4.56724e-10
-1.26462e-08
9.52214e-16
-4.54262e-10
-1.21949e-08
1.02106e-15
-4.51436e-10
-1.17468e-08
1.08915e-15
-4.48267e-10
-1.13022e-08
1.15627e-15
-4.44775e-10
-1.08614e-08
1.22251e-15
-4.40983e-10
-1.04246e-08
1.28768e-15
-4.3691e-10
-9.99218e-09
1.35176e-15
-4.32576e-10
-9.56434e-09
1.4141e-15
-4.28002e-10
-9.1413e-09
1.47493e-15
-4.23206e-10
-8.72326e-09
1.5325e-15
-4.18207e-10
-8.31041e-09
1.58932e-15
-4.13023e-10
-7.90292e-09
1.64267e-15
-4.07671e-10
-7.50094e-09
1.69493e-15
-4.02166e-10
-7.10461e-09
1.74307e-15
-3.96525e-10
-6.71404e-09
1.78775e-15
-3.90762e-10
-6.32934e-09
1.83112e-15
-3.8489e-10
-5.95063e-09
1.87102e-15
-3.78921e-10
-5.57797e-09
1.90702e-15
-3.72866e-10
-5.21144e-09
1.94086e-15
-3.66734e-10
-4.85112e-09
1.97209e-15
-3.60535e-10
-4.49706e-09
1.99963e-15
-3.54275e-10
-4.14932e-09
2.02262e-15
-3.4796e-10
-3.80796e-09
2.04214e-15
-3.41593e-10
-3.47301e-09
2.05733e-15
-3.35177e-10
-3.14453e-09
2.06861e-15
-3.28713e-10
-2.82256e-09
2.07729e-15
-3.222e-10
-2.50717e-09
2.0825e-15
-3.15635e-10
-2.19839e-09
2.08381e-15
-3.09015e-10
-1.89631e-09
2.08186e-15
-3.02333e-10
-1.60097e-09
2.07601e-15
-2.95583e-10
-1.31246e-09
2.06843e-15
-2.88756e-10
-1.03088e-09
2.05586e-15
-2.81842e-10
-7.56297e-10
2.04177e-15
-2.74833e-10
-4.88825e-10
2.02399e-15
-2.67729e-10
-2.2853e-10
2.00253e-15
-2.60554e-10
2.44971e-11
1.97066e-15
-2.53288e-10
2.7002e-10
1.92274e-15
-2.45785e-10
5.07773e-10
1.87439e-15
-2.38016e-10
7.37551e-10
1.83233e-15
-2.3004e-10
9.59127e-10
1.79179e-15
-2.21838e-10
1.17226e-09
1.75254e-15
-2.13393e-10
1.37668e-09
1.71546e-15
-2.04683e-10
1.5721e-09
1.6786e-15
-1.95686e-10
1.75822e-09
1.64369e-15
-1.86382e-10
1.93471e-09
1.60921e-15
-1.76748e-10
2.10121e-09
1.57842e-15
-1.66765e-10
2.25737e-09
1.55001e-15
-1.56415e-10
2.40279e-09
1.52485e-15
-1.4568e-10
2.53708e-09
1.49991e-15
-1.34548e-10
2.65983e-09
1.47865e-15
-1.23005e-10
2.77062e-09
1.45913e-15
-1.11044e-10
2.86902e-09
1.44307e-15
-9.86588e-11
2.95461e-09
1.43244e-15
-8.58487e-11
3.02697e-09
1.42895e-15
-7.2617e-11
3.08569e-09
1.43175e-15
-5.89728e-11
3.13037e-09
1.44301e-15
-4.49308e-11
3.16063e-09
1.46121e-15
-3.05138e-11
3.17613e-09
1.48699e-15
-1.57524e-11
3.17657e-09
1.50994e-15
-6.88889e-13
3.16165e-09
1.54867e-15
1.46631e-11
3.13112e-09
1.60328e-15
3.02786e-11
3.08478e-09
1.65181e-15
4.60912e-11
3.02248e-09
1.70317e-15
6.20373e-11
2.94419e-09
1.75907e-15
7.80434e-11
2.8499e-09
1.82191e-15
9.40272e-11
2.73975e-09
1.89385e-15
1.09896e-10
2.61394e-09
1.98183e-15
1.25547e-10
2.47281e-09
2.08651e-15
1.40866e-10
2.31682e-09
2.21742e-15
1.55726e-10
2.14657e-09
2.37608e-15
1.69987e-10
1.9628e-09
2.56857e-15
1.83494e-10
1.76645e-09
2.79097e-15
1.96076e-10
1.55863e-09
3.03506e-15
2.07544e-10
1.34065e-09
3.29086e-15
2.17689e-10
1.11409e-09
3.54101e-15
2.26276e-10
8.8074e-10
3.77772e-15
2.33048e-10
6.42726e-10
3.99404e-15
2.3771e-10
4.02481e-10
4.20733e-15
2.39932e-10
1.62821e-10
4.44361e-15
2.39338e-10
-7.29708e-11
4.71676e-15
2.35462e-10
-3.0101e-10
5.02504e-15
2.277e-10
-5.16852e-10
5.39017e-15
2.15494e-10
-7.15488e-10
5.79911e-15
1.98279e-10
-8.91168e-10
6.19549e-15
1.75312e-10
-1.03722e-09
6.54289e-15
1.45668e-10
-1.14598e-09
6.83481e-15
1.08373e-10
-1.20889e-09
7.10205e-15
6.25003e-11
-1.21664e-09
7.39971e-15
7.31745e-12
-1.16011e-09
7.73672e-15
-5.69718e-11
-1.03206e-09
8.1499e-15
-1.28528e-10
-8.30567e-10
8.69502e-15
-2.01991e-10
-5.66894e-10
9.41333e-15
-2.6421e-10
-2.81678e-10
1.0092e-14
-2.85803e-10
-6.32261e-11
1.1368e-14
-2.19117e-10
5.8618e-15
-6.39705e-11
4.27026e-10
-4.27428e-10
1.0886e-09
-6.62577e-10
1.65939e-09
-5.71419e-10
2.00297e-09
-3.44099e-10
2.1137e-09
-1.11188e-10
2.02167e-09
9.16095e-11
1.76426e-09
2.57023e-10
1.37609e-09
3.8781e-10
8.85597e-10
4.90157e-10
3.15371e-10
5.6991e-10
-3.16554e-10
6.31626e-10
-9.95698e-10
6.78865e-10
-1.71087e-09
7.1491e-10
-2.45349e-09
7.42378e-10
-3.21676e-09
7.63036e-10
-3.99522e-09
7.78244e-10
-4.78446e-09
7.89042e-10
-5.58088e-09
7.96226e-10
-6.38148e-09
8.00416e-10
-7.18374e-09
8.02085e-10
-7.9855e-09
8.01605e-10
-8.78492e-09
7.99259e-10
-9.58034e-09
7.9527e-10
-1.03703e-08
7.89807e-10
-1.11534e-08
7.83003e-10
-1.19285e-08
7.74959e-10
-1.26944e-08
7.65755e-10
-1.345e-08
7.55452e-10
-1.41942e-08
7.44099e-10
-1.4926e-08
7.31735e-10
-1.56445e-08
7.18393e-10
-1.63487e-08
7.041e-10
-1.70377e-08
6.88882e-10
-1.77106e-08
6.72764e-10
-1.83664e-08
6.55771e-10
-1.90044e-08
6.37926e-10
-1.96238e-08
6.19258e-10
-2.02237e-08
5.99795e-10
-2.08033e-08
5.79569e-10
-2.1362e-08
5.58612e-10
-2.18991e-08
5.36963e-10
-2.24138e-08
5.14659e-10
-2.29056e-08
4.91743e-10
-2.33739e-08
4.68259e-10
-2.38183e-08
4.44253e-10
-2.42381e-08
4.19774e-10
-2.46331e-08
3.94872e-10
-2.50027e-08
3.696e-10
-2.53468e-08
3.44011e-10
-2.5665e-08
3.18159e-10
-2.59572e-08
2.92098e-10
-2.62231e-08
2.65885e-10
-2.64628e-08
2.39574e-10
-2.6676e-08
2.13221e-10
-2.6863e-08
1.86881e-10
-2.70236e-08
1.60608e-10
-2.71582e-08
1.34456e-10
-2.72667e-08
1.08478e-10
-2.73495e-08
8.27253e-11
-2.74068e-08
5.72476e-11
-2.74389e-08
3.20897e-11
-2.74463e-08
7.29437e-12
-2.74292e-08
-1.70977e-11
-2.73882e-08
-4.10525e-11
-2.73237e-08
-6.4539e-11
-2.72363e-08
-8.75244e-11
-2.71264e-08
-1.09973e-10
-2.69946e-08
-1.31852e-10
-2.68415e-08
-1.5313e-10
-2.66678e-08
-1.73779e-10
-2.6474e-08
-1.93776e-10
-2.6261e-08
-2.131e-10
-2.60293e-08
-2.31732e-10
-2.57797e-08
-2.49656e-10
-2.55129e-08
-2.66859e-10
-2.52296e-08
-2.8333e-10
-2.49307e-08
-2.99059e-10
-2.46167e-08
-3.14041e-10
-2.42885e-08
-3.2827e-10
-2.39468e-08
-3.41744e-10
-2.35924e-08
-3.54462e-10
-2.3226e-08
-3.66425e-10
-2.28485e-08
-3.77636e-10
-2.24605e-08
-3.881e-10
-2.20627e-08
-3.97823e-10
-2.1656e-08
-4.06813e-10
-2.1241e-08
-4.15078e-10
-2.08184e-08
-4.2263e-10
-2.0389e-08
-4.29479e-10
-1.99535e-08
-4.35639e-10
-1.95125e-08
-4.41124e-10
-1.90666e-08
-4.45948e-10
-1.86166e-08
-4.50127e-10
-1.8163e-08
-4.53679e-10
-1.77065e-08
-4.5662e-10
-1.72476e-08
-4.5897e-10
-1.6787e-08
-4.60746e-10
-1.63252e-08
-4.61969e-10
-1.58626e-08
-4.62658e-10
-1.53999e-08
-4.62833e-10
-1.49375e-08
-4.62516e-10
-1.44759e-08
-4.61728e-10
-1.40156e-08
-4.60489e-10
-1.35569e-08
-4.58821e-10
-1.31003e-08
-4.56746e-10
-1.26462e-08
-4.54285e-10
-1.21949e-08
-4.51459e-10
-1.17468e-08
-4.48291e-10
-1.13021e-08
-4.448e-10
-1.08613e-08
-4.41008e-10
-1.04246e-08
-4.36936e-10
-9.99213e-09
-4.32603e-10
-9.5643e-09
-4.28029e-10
-9.14126e-09
-4.23234e-10
-8.72322e-09
-4.18236e-10
-8.31037e-09
-4.13052e-10
-7.90288e-09
-4.077e-10
-7.5009e-09
-4.02197e-10
-7.10457e-09
-3.96556e-10
-6.714e-09
-3.90794e-10
-6.32931e-09
-3.84922e-10
-5.95059e-09
-3.78954e-10
-5.57793e-09
-3.72899e-10
-5.21141e-09
-3.66769e-10
-4.85108e-09
-3.6057e-10
-4.49703e-09
-3.54311e-10
-4.14929e-09
-3.47996e-10
-3.80792e-09
-3.41629e-10
-3.47297e-09
-3.35214e-10
-3.14449e-09
-3.2875e-10
-2.82253e-09
-3.22238e-10
-2.50713e-09
-3.15674e-10
-2.19836e-09
-3.09054e-10
-1.89627e-09
-3.02373e-10
-1.60094e-09
-2.95623e-10
-1.31243e-09
-2.88796e-10
-1.03084e-09
-2.81883e-10
-7.56263e-10
-2.74874e-10
-4.88791e-10
-2.67771e-10
-2.28496e-10
-2.60596e-10
2.45303e-11
-2.5333e-10
2.70053e-10
-2.45827e-10
5.07807e-10
-2.38059e-10
7.37585e-10
-2.30083e-10
9.59161e-10
-2.21881e-10
1.17229e-09
-2.13435e-10
1.37671e-09
-2.04725e-10
1.57214e-09
-1.95729e-10
1.75826e-09
-1.86424e-10
1.93474e-09
-1.7679e-10
2.10125e-09
-1.66807e-10
2.2574e-09
-1.56457e-10
2.40283e-09
-1.45723e-10
2.53712e-09
-1.3459e-10
2.65986e-09
-1.23048e-10
2.77065e-09
-1.11086e-10
2.86905e-09
-9.87011e-11
2.95465e-09
-8.5891e-11
3.02701e-09
-7.26593e-11
3.08573e-09
-5.9015e-11
3.1304e-09
-4.4973e-11
3.16067e-09
-3.05559e-11
3.17616e-09
-1.57944e-11
3.1766e-09
-7.3087e-13
3.16168e-09
1.46211e-11
3.13115e-09
3.02365e-11
3.08481e-09
4.6049e-11
3.02252e-09
6.1995e-11
2.94422e-09
7.80011e-11
2.84993e-09
9.39847e-11
2.73978e-09
1.09854e-10
2.61397e-09
1.25504e-10
2.47284e-09
1.40823e-10
2.31685e-09
1.55683e-10
2.14659e-09
1.69943e-10
1.96283e-09
1.8345e-10
1.76647e-09
1.96031e-10
1.55865e-09
2.07499e-10
1.34067e-09
2.17642e-10
1.11411e-09
2.26229e-10
8.8076e-10
2.33e-10
6.42743e-10
2.37661e-10
4.02497e-10
2.39882e-10
1.62835e-10
2.39287e-10
-7.29584e-11
2.35409e-10
-3.00999e-10
2.27647e-10
-5.16842e-10
2.15439e-10
-7.1548e-10
1.98224e-10
-8.91162e-10
1.75255e-10
-1.03721e-09
1.45608e-10
-1.14598e-09
1.0831e-10
-1.20889e-09
6.24344e-11
-1.21664e-09
7.24792e-12
-1.16012e-09
-5.70455e-11
-1.03207e-09
-1.28606e-10
-8.3058e-10
-2.02075e-10
-5.66914e-10
-2.64302e-10
-2.81712e-10
-2.85902e-10
-6.3287e-11
-2.19223e-10
-6.40715e-11
6.65458e-10
2.81182e-14
-1.09382e-09
1.09072e-09
-4.85935e-16
-1.08881e-09
1.28931e-09
-2.22821e-15
-7.70492e-10
1.31738e-09
-2.61185e-15
-3.72556e-10
1.19643e-09
-2.43028e-15
9.41316e-12
9.45389e-10
-2.22459e-15
3.42329e-10
5.82995e-10
-2.09822e-15
6.19126e-10
1.2692e-10
-2.02468e-15
8.43614e-10
-4.0645e-10
-1.95686e-15
1.02327e-09
-1.0026e-09
-1.88605e-15
1.16582e-09
-1.64936e-09
-1.79874e-15
1.27817e-09
-2.33669e-09
-1.6925e-15
1.366e-09
-3.05619e-09
-1.58365e-15
1.43421e-09
-3.80078e-09
-1.48081e-15
1.48679e-09
-4.56464e-09
-1.37732e-15
1.52672e-09
-5.34294e-09
-1.26948e-15
1.55638e-09
-6.13166e-09
-1.15606e-15
1.57761e-09
-6.92741e-09
-1.04176e-15
1.59184e-09
-7.72734e-09
-9.30938e-16
1.60021e-09
-8.529e-09
-8.28566e-16
1.60361e-09
-9.33025e-09
-7.38336e-16
1.60273e-09
-1.01292e-08
-6.61656e-16
1.59813e-09
-1.09243e-08
-5.98418e-16
1.59024e-09
-1.1714e-08
-5.4716e-16
1.57938e-09
-1.24969e-08
-5.04628e-16
1.56582e-09
-1.32718e-08
-4.67922e-16
1.54977e-09
-1.40376e-08
-4.35145e-16
1.53138e-09
-1.4793e-08
-4.05295e-16
1.51079e-09
-1.55371e-08
-3.7772e-16
1.4881e-09
-1.62688e-08
-3.52827e-16
1.46338e-09
-1.69872e-08
-3.31512e-16
1.43671e-09
-1.76914e-08
-3.14044e-16
1.40814e-09
-1.83803e-08
-3.00478e-16
1.37773e-09
-1.90531e-08
-2.91086e-16
1.34553e-09
-1.9709e-08
-2.84973e-16
1.31159e-09
-2.03471e-08
-2.8165e-16
1.27596e-09
-2.09667e-08
-2.80713e-16
1.2387e-09
-2.15668e-08
-2.80804e-16
1.19985e-09
-2.21468e-08
-2.81356e-16
1.1595e-09
-2.27059e-08
-2.81554e-16
1.11769e-09
-2.32435e-08
-2.81048e-16
1.07451e-09
-2.3759e-08
-2.79212e-16
1.03002e-09
-2.42516e-08
-2.75587e-16
9.84319e-10
-2.47209e-08
-2.70688e-16
9.37484e-10
-2.51663e-08
-2.64514e-16
8.89609e-10
-2.55874e-08
-2.57228e-16
8.40787e-10
-2.59837e-08
-2.49292e-16
7.91119e-10
-2.63548e-08
-2.4065e-16
7.40705e-10
-2.67005e-08
-2.32144e-16
6.89651e-10
-2.70205e-08
-2.23773e-16
6.38062e-10
-2.73145e-08
-2.15482e-16
5.86046e-10
-2.75824e-08
-2.07625e-16
5.33712e-10
-2.7824e-08
-2.00148e-16
4.81168e-10
-2.80394e-08
-1.92914e-16
4.28524e-10
-2.82284e-08
-1.85842e-16
3.75886e-10
-2.83912e-08
-1.78798e-16
3.23361e-10
-2.85279e-08
-1.71807e-16
2.71054e-10
-2.86385e-08
-1.64437e-16
2.19067e-10
-2.87233e-08
-1.56876e-16
1.67499e-10
-2.87826e-08
-1.48828e-16
1.16447e-10
-2.88165e-08
-1.40238e-16
6.60003e-11
-2.88255e-08
-1.30726e-16
1.62473e-11
-2.88099e-08
-1.2097e-16
-3.27327e-11
-2.87701e-08
-1.10482e-16
-8.08663e-11
-2.87066e-08
-9.87738e-17
-1.28082e-10
-2.86199e-08
-8.61444e-17
-1.74309e-10
-2.85104e-08
-7.24849e-17
-2.19481e-10
-2.83788e-08
-5.79038e-17
-2.63536e-10
-2.82256e-08
-4.24011e-17
-3.06416e-10
-2.80513e-08
-2.61395e-17
-3.48068e-10
-2.78567e-08
-9.06463e-18
-3.88446e-10
-2.76423e-08
8.28124e-18
-4.27507e-10
-2.74089e-08
2.57897e-17
-4.65215e-10
-2.7157e-08
4.33525e-17
-5.01537e-10
-2.68875e-08
6.05899e-17
-5.36448e-10
-2.6601e-08
7.76918e-17
-5.69923e-10
-2.62981e-08
9.43871e-17
-6.01946e-10
-2.59797e-08
1.10649e-16
-6.32502e-10
-2.56464e-08
1.26504e-16
-6.6158e-10
-2.52991e-08
1.42169e-16
-6.89176e-10
-2.49383e-08
1.57536e-16
-7.15287e-10
-2.45649e-08
1.72361e-16
-7.39915e-10
-2.41795e-08
1.86969e-16
-7.63064e-10
-2.37829e-08
2.01144e-16
-7.84743e-10
-2.33758e-08
2.14776e-16
-8.04963e-10
-2.2959e-08
2.28192e-16
-8.23738e-10
-2.2533e-08
2.4074e-16
-8.41085e-10
-2.20987e-08
2.52827e-16
-8.57024e-10
-2.16567e-08
2.64047e-16
-8.71577e-10
-2.12076e-08
2.74969e-16
-8.84767e-10
-2.07522e-08
2.8486e-16
-8.96622e-10
-2.0291e-08
2.94292e-16
-9.07169e-10
-1.98248e-08
3.03099e-16
-9.16439e-10
-1.93541e-08
3.11039e-16
-9.24463e-10
-1.88795e-08
3.18465e-16
-9.31275e-10
-1.84017e-08
3.25484e-16
-9.36909e-10
-1.79211e-08
3.31743e-16
-9.41402e-10
-1.74384e-08
3.37e-16
-9.44789e-10
-1.6954e-08
3.41526e-16
-9.4711e-10
-1.64686e-08
3.45536e-16
-9.48402e-10
-1.59825e-08
3.48462e-16
-9.48704e-10
-1.54963e-08
3.50711e-16
-9.48058e-10
-1.50103e-08
3.5174e-16
-9.46503e-10
-1.45252e-08
3.51901e-16
-9.4408e-10
-1.40412e-08
3.50708e-16
-9.40829e-10
-1.35589e-08
3.48918e-16
-9.36792e-10
-1.30784e-08
3.45936e-16
-9.32009e-10
-1.26003e-08
3.41924e-16
-9.26521e-10
-1.21249e-08
3.37045e-16
-9.20368e-10
-1.16524e-08
3.3081e-16
-9.1359e-10
-1.11833e-08
3.23926e-16
-9.06225e-10
-1.07177e-08
3.16011e-16
-8.98313e-10
-1.0256e-08
3.07121e-16
-8.89891e-10
-9.79841e-09
2.97363e-16
-8.80995e-10
-9.34514e-09
2.86847e-16
-8.71661e-10
-8.89643e-09
2.75409e-16
-8.61923e-10
-8.45247e-09
2.63267e-16
-8.51814e-10
-8.01347e-09
2.50366e-16
-8.41364e-10
-7.57959e-09
2.36869e-16
-8.30604e-10
-7.151e-09
2.22613e-16
-8.1956e-10
-6.72784e-09
2.0787e-16
-8.08258e-10
-6.31025e-09
1.92693e-16
-7.96722e-10
-5.89836e-09
1.77353e-16
-7.84972e-10
-5.49229e-09
1.61689e-16
-7.73028e-10
-5.09214e-09
1.45482e-16
-7.60905e-10
-4.69803e-09
1.28788e-16
-7.48617e-10
-4.31005e-09
1.11985e-16
-7.36175e-10
-3.92829e-09
9.45324e-17
-7.23585e-10
-3.55285e-09
7.6917e-17
-7.10854e-10
-3.18382e-09
5.93018e-17
-6.97981e-10
-2.8213e-09
4.17408e-17
-6.84966e-10
-2.46537e-09
2.41799e-17
-6.71805e-10
-2.11615e-09
6.61911e-18
-6.58488e-10
-1.77373e-09
-1.10501e-17
-6.45005e-10
-1.43822e-09
-2.86651e-17
-6.31343e-10
-1.10975e-09
-4.61175e-17
-6.17485e-10
-7.88433e-10
-6.35158e-17
-6.03416e-10
-4.74405e-10
-8.0101e-17
-5.89121e-10
-1.67794e-10
-9.73368e-17
-5.74603e-10
1.31212e-10
-1.14681e-16
-5.59823e-10
4.22343e-10
-1.32621e-16
-5.44683e-10
7.05379e-10
-1.47634e-16
-5.29086e-10
9.80112e-10
-1.59124e-16
-5.13015e-10
1.24629e-09
-1.70235e-16
-4.96479e-10
1.50362e-09
-1.79612e-16
-4.7944e-10
1.75183e-09
-1.8758e-16
-4.61862e-10
1.99058e-09
-1.93977e-16
-4.437e-10
2.21954e-09
-1.99615e-16
-4.24912e-10
2.43835e-09
-2.04278e-16
-4.05454e-10
2.64662e-09
-2.07803e-16
-3.85282e-10
2.84395e-09
-2.10842e-16
-3.64358e-10
3.02992e-09
-2.12526e-16
-3.42641e-10
3.20407e-09
-2.13398e-16
-3.20099e-10
3.36597e-09
-2.14217e-16
-2.96701e-10
3.51512e-09
-2.14062e-16
-2.72421e-10
3.65106e-09
-2.13312e-16
-2.4724e-10
3.77329e-09
-2.11425e-16
-2.21147e-10
3.88132e-09
-2.08509e-16
-1.94136e-10
3.97466e-09
-2.03915e-16
-1.66213e-10
4.05282e-09
-1.98239e-16
-1.37392e-10
4.11533e-09
-1.91263e-16
-1.077e-10
4.16174e-09
-1.82989e-16
-7.71738e-11
4.19159e-09
-1.73632e-16
-4.58665e-11
4.20449e-09
-1.63029e-16
-1.38438e-11
4.20007e-09
-1.53178e-16
1.88321e-11
4.178e-09
-1.43989e-16
5.20852e-11
4.13803e-09
-1.33992e-16
8.58049e-11
4.07995e-09
-1.24486e-16
1.19865e-10
4.00361e-09
-1.14659e-16
1.54121e-10
3.90897e-09
-1.04889e-16
1.88407e-10
3.79606e-09
-9.39847e-17
2.22537e-10
3.66504e-09
-8.17831e-17
2.56303e-10
3.51616e-09
-6.76338e-17
2.89474e-10
3.34983e-09
-5.03444e-17
3.21791e-10
3.16657e-09
-3.04569e-17
3.5297e-10
2.96709e-09
-7.75458e-18
3.82695e-10
2.75226e-09
1.49437e-17
4.10619e-10
2.52316e-09
3.51443e-17
4.36356e-10
2.28107e-09
4.90527e-17
4.59483e-10
2.02752e-09
5.25493e-17
4.79527e-10
1.76429e-09
4.41166e-17
4.95965e-10
1.49347e-09
2.53814e-17
5.0821e-10
1.21747e-09
2.84976e-18
5.15604e-10
9.39075e-10
-1.42621e-17
5.17399e-10
6.61461e-10
-1.76052e-17
5.12729e-10
3.88232e-10
-1.75721e-18
5.00574e-10
1.23489e-10
2.62383e-17
4.7987e-10
-1.28026e-10
4.47007e-17
4.49416e-10
-3.60909e-10
3.92179e-17
4.07802e-10
-5.69183e-10
4.80904e-18
3.53533e-10
-7.46256e-10
-5.25612e-17
2.85018e-10
-8.84896e-10
-1.19657e-16
2.00693e-10
-9.7739e-10
-1.89537e-16
9.93387e-11
-1.01574e-09
-2.5455e-16
-1.91263e-11
-9.92368e-10
-2.99454e-16
-1.52432e-10
-9.01192e-10
-2.78907e-16
-2.9375e-10
-7.38844e-10
-1.11021e-16
-4.27207e-10
-5.06291e-10
1.96578e-16
-5.19111e-10
-2.21345e-10
1.04698e-15
-5.05009e-10
-3.87444e-15
-2.85978e-10
6.65333e-10
-1.0939e-09
1.09067e-09
-1.08884e-09
1.28927e-09
-7.705e-10
1.31734e-09
-3.72558e-10
1.1964e-09
9.41127e-12
9.45366e-10
3.42327e-10
5.82976e-10
6.19124e-10
1.26905e-10
8.43612e-10
-4.0646e-10
1.02327e-09
-1.0026e-09
1.16582e-09
-1.64936e-09
1.27817e-09
-2.33669e-09
1.36599e-09
-3.05618e-09
1.43421e-09
-3.80077e-09
1.48678e-09
-4.56463e-09
1.52672e-09
-5.34292e-09
1.55638e-09
-6.13164e-09
1.5776e-09
-6.92739e-09
1.59183e-09
-7.72732e-09
1.60021e-09
-8.52897e-09
1.6036e-09
-9.33022e-09
1.60273e-09
-1.01292e-08
1.59813e-09
-1.09243e-08
1.59023e-09
-1.1714e-08
1.57938e-09
-1.24969e-08
1.56582e-09
-1.32718e-08
1.54977e-09
-1.40375e-08
1.53138e-09
-1.4793e-08
1.51079e-09
-1.5537e-08
1.4881e-09
-1.62688e-08
1.46338e-09
-1.69872e-08
1.43671e-09
-1.76913e-08
1.40814e-09
-1.83802e-08
1.37773e-09
-1.90531e-08
1.34553e-09
-1.9709e-08
1.31159e-09
-2.03471e-08
1.27596e-09
-2.09666e-08
1.2387e-09
-2.15667e-08
1.19985e-09
-2.21467e-08
1.1595e-09
-2.27059e-08
1.11769e-09
-2.32435e-08
1.07451e-09
-2.37589e-08
1.03002e-09
-2.42515e-08
9.84318e-10
-2.47208e-08
9.37483e-10
-2.51662e-08
8.89608e-10
-2.55873e-08
8.40786e-10
-2.59836e-08
7.91118e-10
-2.63548e-08
7.40704e-10
-2.67005e-08
6.8965e-10
-2.70204e-08
6.38061e-10
-2.73144e-08
5.86045e-10
-2.75823e-08
5.33711e-10
-2.78239e-08
4.81167e-10
-2.80393e-08
4.28522e-10
-2.82283e-08
3.75884e-10
-2.83911e-08
3.23359e-10
-2.85278e-08
2.71052e-10
-2.86384e-08
2.19065e-10
-2.87232e-08
1.67497e-10
-2.87825e-08
1.16445e-10
-2.88164e-08
6.59984e-11
-2.88254e-08
1.62453e-11
-2.88098e-08
-3.27347e-11
-2.87701e-08
-8.08684e-11
-2.87066e-08
-1.28084e-10
-2.86198e-08
-1.74311e-10
-2.85104e-08
-2.19484e-10
-2.83787e-08
-2.63539e-10
-2.82255e-08
-3.06418e-10
-2.80512e-08
-3.48071e-10
-2.78566e-08
-3.88448e-10
-2.76422e-08
-4.27509e-10
-2.74088e-08
-4.65217e-10
-2.7157e-08
-5.0154e-10
-2.68874e-08
-5.36451e-10
-2.66009e-08
-5.69926e-10
-2.6298e-08
-6.01949e-10
-2.59796e-08
-6.32505e-10
-2.56464e-08
-6.61584e-10
-2.5299e-08
-6.8918e-10
-2.49382e-08
-7.15291e-10
-2.45648e-08
-7.39919e-10
-2.41794e-08
-7.63068e-10
-2.37828e-08
-7.84747e-10
-2.33758e-08
-8.04967e-10
-2.29589e-08
-8.23742e-10
-2.2533e-08
-8.41089e-10
-2.20986e-08
-8.57028e-10
-2.16566e-08
-8.7158e-10
-2.12075e-08
-8.84771e-10
-2.07521e-08
-8.96626e-10
-2.0291e-08
-9.07173e-10
-1.98247e-08
-9.16443e-10
-1.9354e-08
-9.24467e-10
-1.88795e-08
-9.3128e-10
-1.84016e-08
-9.36914e-10
-1.79211e-08
-9.41406e-10
-1.74383e-08
-9.44794e-10
-1.6954e-08
-9.47114e-10
-1.64685e-08
-9.48406e-10
-1.59824e-08
-9.48709e-10
-1.54962e-08
-9.48063e-10
-1.50103e-08
-9.46508e-10
-1.45252e-08
-9.44085e-10
-1.40412e-08
-9.40834e-10
-1.35588e-08
-9.36797e-10
-1.30784e-08
-9.32014e-10
-1.26003e-08
-9.26526e-10
-1.21248e-08
-9.20373e-10
-1.16524e-08
-9.13595e-10
-1.11833e-08
-9.06231e-10
-1.07177e-08
-8.98319e-10
-1.0256e-08
-8.89897e-10
-9.79837e-09
-8.81001e-10
-9.3451e-09
-8.71668e-10
-8.89638e-09
-8.6193e-10
-8.45243e-09
-8.5182e-10
-8.01343e-09
-8.41371e-10
-7.57956e-09
-8.3061e-10
-7.15096e-09
-8.19566e-10
-6.7278e-09
-8.08265e-10
-6.31022e-09
-7.96728e-10
-5.89833e-09
-7.84979e-10
-5.49225e-09
-7.73035e-10
-5.09211e-09
-7.60912e-10
-4.69799e-09
-7.48624e-10
-4.31001e-09
-7.36182e-10
-3.92825e-09
-7.23593e-10
-3.55281e-09
-7.10861e-10
-3.18379e-09
-6.97989e-10
-2.82126e-09
-6.84974e-10
-2.46534e-09
-6.71812e-10
-2.11612e-09
-6.58495e-10
-1.7737e-09
-6.45013e-10
-1.43819e-09
-6.3135e-10
-1.10972e-09
-6.17493e-10
-7.88401e-10
-6.03424e-10
-4.74373e-10
-5.89129e-10
-1.67762e-10
-5.74611e-10
1.31244e-10
-5.59831e-10
4.22375e-10
-5.44691e-10
7.0541e-10
-5.29094e-10
9.80144e-10
-5.13023e-10
1.24632e-09
-4.96487e-10
1.50365e-09
-4.79449e-10
1.75186e-09
-4.6187e-10
1.99061e-09
-4.43708e-10
2.21957e-09
-4.2492e-10
2.43838e-09
-4.05462e-10
2.64665e-09
-3.85291e-10
2.84398e-09
-3.64366e-10
3.02995e-09
-3.4265e-10
3.20411e-09
-3.20108e-10
3.366e-09
-2.96709e-10
3.51515e-09
-2.72429e-10
3.65109e-09
-2.47249e-10
3.77332e-09
-2.21155e-10
3.88135e-09
-1.94145e-10
3.97469e-09
-1.66222e-10
4.05285e-09
-1.37401e-10
4.11536e-09
-1.07708e-10
4.16177e-09
-7.7182e-11
4.19163e-09
-4.58747e-11
4.20452e-09
-1.38519e-11
4.2001e-09
1.88241e-11
4.17803e-09
5.20772e-11
4.13806e-09
8.5797e-11
4.07998e-09
1.19857e-10
4.00364e-09
1.54113e-10
3.909e-09
1.88399e-10
3.79609e-09
2.22529e-10
3.66507e-09
2.56296e-10
3.51619e-09
2.89467e-10
3.34985e-09
3.21784e-10
3.16659e-09
3.52963e-10
2.96711e-09
3.82688e-10
2.75228e-09
4.10612e-10
2.52318e-09
4.36349e-10
2.28109e-09
4.59476e-10
2.02754e-09
4.7952e-10
1.76431e-09
4.95957e-10
1.49349e-09
5.08203e-10
1.21749e-09
5.15596e-10
9.39089e-10
5.17392e-10
6.61474e-10
5.12722e-10
3.88243e-10
5.00566e-10
1.23499e-10
4.79862e-10
-1.28018e-10
4.49407e-10
-3.60902e-10
4.07793e-10
-5.69178e-10
3.53523e-10
-7.46252e-10
2.85006e-10
-8.84894e-10
2.0068e-10
-9.77389e-10
9.93237e-11
-1.01574e-09
-1.91437e-11
-9.92373e-10
-1.52452e-10
-9.01199e-10
-2.93775e-10
-7.38857e-10
-4.27236e-10
-5.0632e-10
-5.19146e-10
-2.21412e-10
-5.05049e-10
-2.86016e-10
5.54253e-10
1.01379e-14
-1.64864e-09
7.49031e-10
-1.63572e-15
-1.28407e-09
7.31553e-10
-8.98418e-16
-7.53175e-10
5.86479e-10
-1.12182e-15
-2.27601e-10
3.42775e-10
-1.19505e-15
2.53018e-10
1.38503e-11
-1.20745e-15
6.71165e-10
-3.91054e-10
-1.20139e-15
1.02395e-09
-8.63208e-10
-1.17571e-15
1.31569e-09
-1.3939e-09
-1.13852e-15
1.5539e-09
-1.9747e-09
-1.10398e-15
1.74656e-09
-2.59777e-09
-1.0609e-15
1.90118e-09
-3.25612e-09
-1.00762e-15
2.02429e-09
-3.94347e-09
-9.53303e-16
2.12151e-09
-4.65425e-09
-8.98526e-16
2.19752e-09
-5.38363e-09
-8.36915e-16
2.25606e-09
-6.12745e-09
-7.66385e-16
2.30016e-09
-6.88212e-09
-6.9092e-16
2.33223e-09
-7.64452e-09
-6.1689e-16
2.3542e-09
-8.41196e-09
-5.49093e-16
2.36761e-09
-9.18208e-09
-4.8986e-16
2.37368e-09
-9.95279e-09
-4.3957e-16
2.3734e-09
-1.07222e-08
-3.98062e-16
2.36755e-09
-1.14888e-08
-3.64223e-16
2.35672e-09
-1.22509e-08
-3.36753e-16
2.34143e-09
-1.30071e-08
-3.14135e-16
2.32205e-09
-1.37563e-08
-2.95039e-16
2.29889e-09
-1.44971e-08
-2.78192e-16
2.27219e-09
-1.52285e-08
-2.63025e-16
2.24215e-09
-1.59493e-08
-2.4924e-16
2.20892e-09
-1.66586e-08
-2.37053e-16
2.17263e-09
-1.73553e-08
-2.26492e-16
2.1334e-09
-1.80385e-08
-2.17896e-16
2.09131e-09
-1.87073e-08
-2.11318e-16
2.04646e-09
-1.93607e-08
-2.06719e-16
1.99891e-09
-1.99979e-08
-2.03759e-16
1.94875e-09
-2.0618e-08
-2.02059e-16
1.89606e-09
-2.12203e-08
-2.01388e-16
1.84092e-09
-2.18038e-08
-2.00866e-16
1.78342e-09
-2.2368e-08
-2.00127e-16
1.72366e-09
-2.29121e-08
-1.98818e-16
1.66172e-09
-2.34353e-08
-1.96452e-16
1.59773e-09
-2.39371e-08
-1.93028e-16
1.53179e-09
-2.44168e-08
-1.88357e-16
1.46402e-09
-2.48739e-08
-1.82561e-16
1.39455e-09
-2.53079e-08
-1.75829e-16
1.32352e-09
-2.57182e-08
-1.6846e-16
1.25107e-09
-2.61044e-08
-1.60603e-16
1.17734e-09
-2.64662e-08
-1.52461e-16
1.10248e-09
-2.68032e-08
-1.4421e-16
1.02665e-09
-2.71152e-08
-1.35878e-16
9.49998e-10
-2.74018e-08
-1.27356e-16
8.72688e-10
-2.7663e-08
-1.18766e-16
7.9488e-10
-2.78986e-08
-1.09932e-16
7.16733e-10
-2.81085e-08
-1.0084e-16
6.38408e-10
-2.82927e-08
-9.14364e-17
5.60063e-10
-2.84512e-08
-8.17344e-17
4.81855e-10
-2.85841e-08
-7.16392e-17
4.03938e-10
-2.86915e-08
-6.10967e-17
3.26463e-10
-2.87736e-08
-5.02152e-17
2.49576e-10
-2.88306e-08
-3.90084e-17
1.73418e-10
-2.88628e-08
-2.7422e-17
9.81248e-11
-2.88704e-08
-1.54697e-17
2.38244e-11
-2.88537e-08
-2.90736e-18
-4.93611e-11
-2.88133e-08
1.00751e-17
-1.21316e-10
-2.87495e-08
2.3654e-17
-1.91929e-10
-2.86627e-08
3.78293e-17
-2.61096e-10
-2.85535e-08
5.23569e-17
-3.2872e-10
-2.84223e-08
6.74944e-17
-3.94708e-10
-2.82698e-08
8.30657e-17
-4.58974e-10
-2.80964e-08
9.88673e-17
-5.21442e-10
-2.79028e-08
1.1494e-16
-5.82042e-10
-2.76897e-08
1.30877e-16
-6.4071e-10
-2.74575e-08
1.46828e-16
-6.97392e-10
-2.7207e-08
1.62643e-16
-7.52039e-10
-2.69389e-08
1.78093e-16
-8.04609e-10
-2.66537e-08
1.93271e-16
-8.55068e-10
-2.63523e-08
2.08206e-16
-9.03388e-10
-2.60353e-08
2.22842e-16
-9.49547e-10
-2.57034e-08
2.37112e-16
-9.93528e-10
-2.53572e-08
2.51139e-16
-1.03532e-09
-2.49976e-08
2.6488e-16
-1.07493e-09
-2.46252e-08
2.7831e-16
-1.11234e-09
-2.42407e-08
2.91524e-16
-1.14757e-09
-2.38449e-08
3.04344e-16
-1.18062e-09
-2.34384e-08
3.16934e-16
-1.21151e-09
-2.30218e-08
3.29266e-16
-1.24027e-09
-2.2596e-08
3.4107e-16
-1.26691e-09
-2.21616e-08
3.52603e-16
-1.29147e-09
-2.17193e-08
3.63824e-16
-1.31397e-09
-2.12696e-08
3.7476e-16
-1.33444e-09
-2.08133e-08
3.85317e-16
-1.35294e-09
-2.0351e-08
3.95604e-16
-1.36949e-09
-1.98834e-08
4.05524e-16
-1.38413e-09
-1.94109e-08
4.15064e-16
-1.39693e-09
-1.89343e-08
4.24429e-16
-1.40792e-09
-1.84541e-08
4.33333e-16
-1.41715e-09
-1.79709e-08
4.41938e-16
-1.42467e-09
-1.74851e-08
4.50151e-16
-1.43055e-09
-1.69975e-08
4.57903e-16
-1.43482e-09
-1.65083e-08
4.6533e-16
-1.43756e-09
-1.60183e-08
4.72323e-16
-1.43881e-09
-1.55277e-08
4.78883e-16
-1.43863e-09
-1.50372e-08
4.85063e-16
-1.43708e-09
-1.45471e-08
4.90728e-16
-1.43423e-09
-1.40578e-08
4.95851e-16
-1.43012e-09
-1.35698e-08
5.00703e-16
-1.42482e-09
-1.30835e-08
5.04987e-16
-1.41839e-09
-1.25992e-08
5.0889e-16
-1.41088e-09
-1.21172e-08
5.12496e-16
-1.40236e-09
-1.1638e-08
5.15587e-16
-1.39288e-09
-1.11618e-08
5.18298e-16
-1.3825e-09
-1.06888e-08
5.20684e-16
-1.37128e-09
-1.02195e-08
5.22664e-16
-1.35926e-09
-9.75405e-09
5.24373e-16
-1.34651e-09
-9.29269e-09
5.25757e-16
-1.33307e-09
-8.83567e-09
5.26761e-16
-1.31899e-09
-8.38322e-09
5.2763e-16
-1.30432e-09
-7.93552e-09