/*--------------------------------*- C++ -*----------------------------------*\
  =========                 |
  \\      /  F ield         | OpenFOAM: The Open Source CFD Toolbox
   \\    /   O peration     | Website:  https://openfoam.org
    \\  /    A nd           | Version:  8
     \\/     M anipulation  |
\*---------------------------------------------------------------------------*/
FoamFile
{
    version     2.0;
    format      ascii;
    class       volScalarField;
    location    "3000";
    object      T;
}
// * * * * * * * * * * * * * * * * * * * * * * * * * * * * * * * * * * * * * //

dimensions      [0 0 0 1 0 0 0];

internalField   nonuniform List<scalar> 
46000
(
310.512
309.549
308.779
308.264
307.89
307.594
307.346
307.134
306.946
306.779
306.626
306.487
306.359
306.241
306.131
306.028
305.931
305.841
305.756
305.675
305.6
305.528
305.461
305.397
305.336
305.279
305.225
305.173
305.124
305.078
305.034
304.992
304.953
304.915
304.88
304.846
304.814
304.783
304.755
304.728
304.702
304.678
304.655
304.633
304.613
304.594
304.576
304.559
304.544
304.529
304.516
304.504
304.492
304.482
304.473
304.465
304.457
304.451
304.446
304.441
304.438
304.435
304.433
304.432
304.432
304.432
304.434
304.436
304.439
304.443
304.448
304.454
304.46
304.468
304.476
304.485
304.495
304.505
304.516
304.528
304.541
304.555
304.569
304.584
304.6
304.616
304.633
304.651
304.669
304.688
304.708
304.728
304.749
304.77
304.792
304.815
304.838
304.861
304.885
304.91
304.935
304.96
304.986
305.012
305.039
305.066
305.093
305.121
305.149
305.177
305.206
305.235
305.265
305.294
305.324
305.354
305.385
305.415
305.446
305.477
305.509
305.54
305.572
305.604
305.637
305.669
305.702
305.735
305.769
305.802
305.836
305.871
305.905
305.94
305.976
306.011
306.048
306.084
306.121
306.159
306.197
306.236
306.275
306.315
306.356
306.397
306.439
306.481
306.525
306.569
306.614
306.66
306.707
306.755
306.804
306.854
306.906
306.958
307.011
307.066
307.122
307.179
307.237
307.297
307.357
307.419
307.482
307.546
307.612
307.679
307.748
307.818
307.889
307.962
308.036
308.112
308.189
308.268
308.348
308.43
308.514
308.599
308.686
308.776
308.868
308.962
309.06
309.16
309.266
309.376
309.493
309.619
309.756
309.907
310.08
310.285
310.542
310.879
311.313
311.689
310.512
309.549
308.779
308.264
307.89
307.594
307.346
307.134
306.946
306.779
306.626
306.487
306.359
306.241
306.13
306.028
305.931
305.841
305.756
305.675
305.6
305.528
305.461
305.397
305.336
305.279
305.225
305.173
305.124
305.078
305.034
304.992
304.953
304.915
304.88
304.846
304.814
304.783
304.755
304.728
304.702
304.678
304.655
304.633
304.613
304.594
304.576
304.559
304.544
304.529
304.516
304.504
304.492
304.482
304.473
304.465
304.457
304.451
304.446
304.441
304.438
304.435
304.433
304.432
304.432
304.432
304.434
304.436
304.439
304.443
304.448
304.454
304.46
304.468
304.476
304.485
304.495
304.505
304.516
304.528
304.541
304.555
304.569
304.584
304.6
304.616
304.633
304.651
304.669
304.688
304.708
304.728
304.749
304.77
304.792
304.815
304.838
304.861
304.885
304.91
304.935
304.96
304.986
305.012
305.039
305.066
305.093
305.121
305.149
305.177
305.206
305.235
305.265
305.294
305.324
305.354
305.385
305.415
305.446
305.477
305.509
305.54
305.572
305.604
305.637
305.669
305.702
305.735
305.769
305.802
305.836
305.871
305.905
305.94
305.976
306.011
306.048
306.084
306.121
306.159
306.197
306.236
306.275
306.315
306.356
306.397
306.439
306.481
306.525
306.569
306.614
306.66
306.707
306.755
306.804
306.854
306.906
306.958
307.011
307.066
307.122
307.179
307.237
307.297
307.357
307.419
307.482
307.546
307.612
307.679
307.748
307.818
307.889
307.962
308.036
308.112
308.189
308.268
308.348
308.43
308.514
308.599
308.686
308.776
308.868
308.962
309.06
309.16
309.266
309.376
309.493
309.619
309.756
309.907
310.08
310.285
310.542
310.879
311.313
311.689
307.05
306.561
306.172
305.875
305.639
305.445
305.28
305.136
305.007
304.892
304.787
304.69
304.601
304.518
304.441
304.369
304.302
304.239
304.18
304.124
304.071
304.022
303.975
303.931
303.889
303.849
303.812
303.777
303.743
303.711
303.681
303.652
303.625
303.599
303.574
303.55
303.528
303.507
303.486
303.467
303.449
303.431
303.414
303.398
303.383
303.369
303.355
303.342
303.33
303.318
303.307
303.296
303.286
303.277
303.268
303.26
303.252
303.245
303.238
303.232
303.227
303.222
303.217
303.213
303.209
303.206
303.203
303.201
303.199
303.198
303.198
303.197
303.198
303.199
303.2
303.202
303.204
303.207
303.21
303.214
303.218
303.223
303.228
303.234
303.24
303.246
303.253
303.261
303.268
303.277
303.286
303.295
303.304
303.314
303.325
303.335
303.347
303.358
303.37
303.383
303.396
303.409
303.422
303.436
303.45
303.465
303.48
303.495
303.511
303.527
303.543
303.56
303.577
303.594
303.612
303.63
303.649
303.668
303.687
303.706
303.726
303.746
303.767
303.788
303.809
303.831
303.853
303.876
303.899
303.923
303.947
303.971
303.996
304.022
304.048
304.075
304.102
304.13
304.158
304.187
304.217
304.248
304.279
304.311
304.344
304.378
304.412
304.448
304.484
304.521
304.559
304.599
304.639
304.68
304.723
304.766
304.811
304.857
304.904
304.952
305.002
305.053
305.105
305.159
305.213
305.27
305.327
305.386
305.446
305.507
305.57
305.634
305.699
305.766
305.834
305.904
305.975
306.047
306.121
306.195
306.272
306.349
306.429
306.509
306.592
306.677
306.764
306.854
306.947
307.045
307.148
307.259
307.38
307.515
307.671
307.857
308.088
308.39
308.797
309.245
307.05
306.561
306.172
305.875
305.639
305.445
305.279
305.135
305.007
304.892
304.787
304.69
304.601
304.518
304.441
304.369
304.302
304.239
304.18
304.124
304.071
304.022
303.975
303.931
303.889
303.849
303.812
303.777
303.743
303.711
303.681
303.652
303.625
303.599
303.574
303.55
303.528
303.507
303.486
303.467
303.449
303.431
303.414
303.399
303.383
303.369
303.355
303.342
303.33
303.318
303.307
303.296
303.286
303.277
303.268
303.26
303.252
303.245
303.238
303.232
303.227
303.222
303.217
303.213
303.209
303.206
303.203
303.201
303.199
303.198
303.198
303.197
303.198
303.199
303.2
303.202
303.204
303.207
303.21
303.214
303.218
303.223
303.228
303.234
303.24
303.246
303.253
303.261
303.268
303.277
303.286
303.295
303.304
303.314
303.325
303.336
303.347
303.358
303.37
303.383
303.396
303.409
303.422
303.436
303.45
303.465
303.48
303.495
303.511
303.527
303.543
303.56
303.577
303.595
303.612
303.63
303.649
303.668
303.687
303.706
303.726
303.746
303.767
303.788
303.809
303.831
303.853
303.876
303.899
303.923
303.947
303.971
303.996
304.022
304.048
304.075
304.102
304.13
304.158
304.187
304.217
304.248
304.279
304.311
304.344
304.378
304.412
304.448
304.484
304.521
304.559
304.599
304.639
304.68
304.723
304.766
304.811
304.857
304.904
304.952
305.002
305.053
305.105
305.159
305.213
305.27
305.327
305.386
305.446
305.507
305.57
305.634
305.7
305.766
305.835
305.904
305.975
306.047
306.121
306.195
306.272
306.349
306.429
306.509
306.592
306.677
306.764
306.854
306.947
307.045
307.148
307.259
307.38
307.515
307.671
307.857
308.088
308.39
308.797
309.245
305.317
305.18
305.003
304.832
304.677
304.537
304.413
304.3
304.197
304.103
304.017
303.936
303.862
303.792
303.727
303.666
303.609
303.556
303.505
303.458
303.413
303.37
303.33
303.293
303.257
303.223
303.191
303.161
303.132
303.105
303.079
303.054
303.031
303.008
302.987
302.967
302.947
302.929
302.911
302.894
302.878
302.863
302.848
302.834
302.821
302.808
302.795
302.783
302.772
302.761
302.751
302.741
302.731
302.722
302.714
302.705
302.698
302.69
302.683
302.677
302.67
302.665
302.659
302.654
302.649
302.645
302.641
302.638
302.635
302.632
302.63
302.628
302.626
302.625
302.624
302.624
302.624
302.625
302.626
302.627
302.629
302.631
302.633
302.636
302.639
302.643
302.647
302.651
302.656
302.662
302.667
302.673
302.679
302.686
302.693
302.701
302.709
302.717
302.725
302.734
302.744
302.753
302.763
302.774
302.785
302.796
302.807
302.819
302.831
302.844
302.857
302.87
302.884
302.898
302.912
302.927
302.942
302.957
302.973
302.989
303.006
303.023
303.041
303.058
303.077
303.096
303.115
303.135
303.155
303.176
303.197
303.219
303.241
303.264
303.287
303.311
303.336
303.362
303.388
303.414
303.442
303.47
303.499
303.529
303.56
303.591
303.624
303.657
303.691
303.726
303.763
303.8
303.838
303.878
303.918
303.96
304.002
304.046
304.092
304.138
304.186
304.235
304.285
304.336
304.389
304.443
304.498
304.555
304.612
304.672
304.732
304.793
304.856
304.92
304.986
305.052
305.12
305.188
305.258
305.329
305.401
305.475
305.549
305.625
305.701
305.78
305.86
305.942
306.026
306.114
306.205
306.302
306.405
306.517
306.642
306.784
306.947
307.137
307.363
307.602
305.317
305.18
305.003
304.832
304.676
304.537
304.413
304.3
304.197
304.103
304.017
303.936
303.862
303.792
303.727
303.666
303.609
303.556
303.505
303.457
303.413
303.37
303.33
303.293
303.257
303.223
303.191
303.161
303.132
303.105
303.079
303.054
303.031
303.008
302.987
302.967
302.947
302.929
302.911
302.894
302.878
302.863
302.848
302.834
302.821
302.808
302.795
302.783
302.772
302.761
302.751
302.741
302.731
302.722
302.714
302.705
302.698
302.69
302.683
302.677
302.67
302.665
302.659
302.654
302.649
302.645
302.641
302.638
302.635
302.632
302.63
302.628
302.626
302.625
302.624
302.624
302.624
302.625
302.626
302.627
302.629
302.631
302.633
302.636
302.639
302.643
302.647
302.651
302.656
302.662
302.667
302.673
302.679
302.686
302.693
302.701
302.709
302.717
302.725
302.734
302.744
302.753
302.763
302.774
302.785
302.796
302.807
302.819
302.831
302.844
302.857
302.87
302.884
302.898
302.912
302.927
302.942
302.957
302.973
302.989
303.006
303.023
303.041
303.058
303.077
303.096
303.115
303.135
303.155
303.176
303.197
303.219
303.241
303.264
303.287
303.311
303.336
303.362
303.388
303.414
303.442
303.47
303.499
303.529
303.56
303.591
303.624
303.657
303.691
303.726
303.763
303.8
303.838
303.878
303.918
303.96
304.003
304.046
304.092
304.138
304.186
304.235
304.285
304.336
304.389
304.443
304.498
304.555
304.612
304.672
304.732
304.793
304.856
304.92
304.986
305.052
305.12
305.188
305.258
305.329
305.401
305.475
305.549
305.625
305.701
305.78
305.86
305.942
306.026
306.114
306.205
306.302
306.405
306.517
306.642
306.784
306.947
307.137
307.363
307.602
304.378
304.35
304.268
304.168
304.063
303.962
303.866
303.775
303.691
303.611
303.537
303.468
303.403
303.342
303.284
303.23
303.18
303.132
303.086
303.044
303.003
302.965
302.929
302.895
302.863
302.832
302.803
302.776
302.75
302.725
302.701
302.679
302.658
302.637
302.618
302.599
302.582
302.565
302.549
302.533
302.518
302.504
302.49
302.477
302.465
302.453
302.441
302.43
302.419
302.408
302.398
302.389
302.38
302.371
302.362
302.354
302.346
302.339
302.332
302.325
302.319
302.312
302.307
302.301
302.296
302.291
302.287
302.283
302.279
302.275
302.272
302.269
302.267
302.265
302.263
302.262
302.261
302.261
302.26
302.26
302.261
302.262
302.263
302.265
302.266
302.269
302.271
302.274
302.278
302.282
302.286
302.29
302.295
302.3
302.306
302.312
302.318
302.325
302.332
302.339
302.347
302.355
302.363
302.372
302.381
302.39
302.4
302.41
302.421
302.432
302.443
302.455
302.467
302.479
302.492
302.505
302.519
302.532
302.547
302.562
302.577
302.592
302.608
302.625
302.642
302.659
302.677
302.695
302.714
302.734
302.753
302.774
302.795
302.817
302.839
302.862
302.885
302.91
302.935
302.96
302.987
303.014
303.042
303.07
303.1
303.13
303.162
303.194
303.227
303.262
303.297
303.333
303.37
303.409
303.448
303.489
303.531
303.574
303.618
303.663
303.71
303.757
303.806
303.857
303.908
303.961
304.015
304.07
304.127
304.184
304.243
304.303
304.364
304.427
304.49
304.554
304.62
304.686
304.754
304.822
304.891
304.961
305.032
305.104
305.177
305.251
305.326
305.402
305.48
305.56
305.642
305.727
305.816
305.91
306.009
306.115
306.227
306.343
306.458
306.557
304.378
304.35
304.268
304.168
304.063
303.962
303.866
303.775
303.691
303.611
303.537
303.468
303.403
303.342
303.284
303.23
303.18
303.132
303.086
303.044
303.003
302.965
302.929
302.895
302.863
302.832
302.803
302.776
302.75
302.725
302.701
302.679
302.658
302.637
302.618
302.599
302.582
302.565
302.549
302.533
302.518
302.504
302.49
302.477
302.465
302.453
302.441
302.43
302.419
302.408
302.398
302.389
302.38
302.371
302.362
302.354
302.346
302.339
302.332
302.325
302.319
302.312
302.307
302.301
302.296
302.291
302.287
302.283
302.279
302.275
302.272
302.269
302.267
302.265
302.263
302.262
302.261
302.261
302.26
302.26
302.261
302.262
302.263
302.265
302.266
302.269
302.271
302.274
302.278
302.282
302.286
302.29
302.295
302.3
302.306
302.312
302.318
302.325
302.332
302.339
302.347
302.355
302.363
302.372
302.381
302.39
302.4
302.41
302.421
302.432
302.443
302.455
302.467
302.479
302.492
302.505
302.519
302.533
302.547
302.562
302.577
302.592
302.608
302.625
302.642
302.659
302.677
302.695
302.714
302.734
302.753
302.774
302.795
302.817
302.839
302.862
302.885
302.91
302.935
302.96
302.987
303.014
303.042
303.07
303.1
303.13
303.162
303.194
303.227
303.262
303.297
303.333
303.37
303.409
303.448
303.489
303.531
303.574
303.618
303.663
303.71
303.757
303.806
303.857
303.908
303.961
304.015
304.07
304.127
304.184
304.243
304.303
304.364
304.427
304.49
304.554
304.62
304.686
304.754
304.822
304.891
304.961
305.032
305.104
305.177
305.251
305.326
305.402
305.48
305.56
305.642
305.727
305.816
305.91
306.009
306.115
306.227
306.343
306.458
306.557
303.777
303.777
303.737
303.675
303.604
303.529
303.454
303.381
303.311
303.243
303.18
303.119
303.062
303.007
302.956
302.907
302.861
302.818
302.777
302.738
302.701
302.666
302.633
302.602
302.572
302.544
302.517
302.492
302.468
302.445
302.423
302.402
302.382
302.363
302.345
302.328
302.311
302.296
302.28
302.266
302.252
302.239
302.226
302.213
302.201
302.19
302.178
302.168
302.157
302.147
302.138
302.128
302.119
302.111
302.102
302.094
302.086
302.079
302.072
302.065
302.058
302.052
302.046
302.04
302.035
302.03
302.025
302.02
302.016
302.012
302.009
302.005
302.003
302
301.998
301.996
301.994
301.993
301.992
301.991
301.991
301.991
301.992
301.992
301.994
301.995
301.997
301.999
302.001
302.004
302.007
302.011
302.015
302.019
302.024
302.029
302.034
302.04
302.046
302.052
302.059
302.066
302.073
302.081
302.089
302.097
302.106
302.115
302.125
302.135
302.145
302.156
302.167
302.178
302.19
302.202
302.215
302.228
302.241
302.255
302.269
302.284
302.299
302.314
302.33
302.347
302.364
302.381
302.399
302.418
302.437
302.457
302.477
302.498
302.519
302.541
302.564
302.588
302.612
302.637
302.663
302.689
302.716
302.744
302.773
302.803
302.834
302.865
302.898
302.931
302.966
303.001
303.038
303.076
303.114
303.154
303.195
303.238
303.281
303.325
303.371
303.418
303.466
303.516
303.566
303.618
303.671
303.725
303.781
303.837
303.895
303.953
304.013
304.074
304.136
304.199
304.262
304.327
304.392
304.458
304.525
304.592
304.66
304.729
304.798
304.868
304.938
305.01
305.082
305.154
305.228
305.304
305.38
305.458
305.538
305.617
305.695
305.766
305.823
305.859
303.777
303.777
303.737
303.675
303.604
303.529
303.454
303.381
303.311
303.243
303.18
303.119
303.062
303.007
302.956
302.907
302.861
302.818
302.777
302.738
302.701
302.666
302.633
302.602
302.572
302.544
302.517
302.492
302.468
302.445
302.423
302.402
302.382
302.363
302.345
302.328
302.311
302.296
302.28
302.266
302.252
302.239
302.226
302.213
302.201
302.19
302.178
302.168
302.157
302.147
302.138
302.128
302.119
302.111
302.102
302.094
302.086
302.079
302.072
302.065
302.058
302.052
302.046
302.04
302.035
302.03
302.025
302.02
302.016
302.012
302.009
302.005
302.003
302
301.998
301.996
301.994
301.993
301.992
301.991
301.991
301.991
301.992
301.992
301.994
301.995
301.997
301.999
302.001
302.004
302.007
302.011
302.015
302.019
302.024
302.029
302.034
302.04
302.046
302.052
302.059
302.066
302.073
302.081
302.089
302.097
302.106
302.115
302.125
302.135
302.145
302.156
302.167
302.178
302.19
302.202
302.215
302.228
302.241
302.255
302.269
302.284
302.299
302.314
302.33
302.347
302.364
302.381
302.399
302.418
302.437
302.457
302.477
302.498
302.519
302.541
302.564
302.588
302.612
302.637
302.663
302.689
302.716
302.744
302.773
302.803
302.834
302.865
302.898
302.931
302.966
303.001
303.038
303.076
303.114
303.154
303.195
303.238
303.281
303.325
303.371
303.418
303.466
303.516
303.566
303.618
303.671
303.725
303.781
303.837
303.895
303.953
304.013
304.074
304.136
304.199
304.262
304.327
304.392
304.458
304.525
304.592
304.66
304.729
304.798
304.868
304.938
305.01
305.082
305.154
305.228
305.304
305.38
305.458
305.538
305.617
305.695
305.766
305.823
305.859
303.34
303.347
303.324
303.284
303.233
303.177
303.118
303.059
303
302.943
302.888
302.835
302.784
302.735
302.689
302.645
302.604
302.564
302.526
302.49
302.456
302.424
302.394
302.365
302.337
302.311
302.286
302.262
302.24
302.218
302.198
302.178
302.16
302.142
302.125
302.109
302.093
302.078
302.064
302.05
302.037
302.024
302.012
302
301.989
301.978
301.967
301.956
301.946
301.937
301.927
301.918
301.909
301.901
301.893
301.885
301.877
301.869
301.862
301.855
301.849
301.842
301.836
301.83
301.825
301.819
301.814
301.809
301.805
301.801
301.797
301.793
301.79
301.787
301.784
301.782
301.78
301.778
301.777
301.776
301.775
301.774
301.774
301.775
301.775
301.776
301.777
301.779
301.781
301.783
301.785
301.788
301.791
301.795
301.799
301.803
301.808
301.813
301.818
301.824
301.83
301.836
301.843
301.85
301.857
301.865
301.873
301.881
301.89
301.899
301.909
301.919
301.929
301.94
301.951
301.963
301.974
301.987
301.999
302.013
302.026
302.04
302.055
302.07
302.085
302.101
302.117
302.134
302.151
302.169
302.188
302.207
302.227
302.247
302.268
302.289
302.312
302.335
302.358
302.383
302.408
302.434
302.46
302.488
302.516
302.545
302.576
302.607
302.639
302.672
302.706
302.741
302.777
302.814
302.852
302.891
302.932
302.973
303.016
303.06
303.105
303.151
303.199
303.247
303.297
303.348
303.4
303.453
303.508
303.563
303.62
303.677
303.736
303.795
303.856
303.917
303.979
304.042
304.105
304.169
304.233
304.298
304.364
304.429
304.495
304.561
304.628
304.694
304.761
304.828
304.894
304.961
305.027
305.093
305.156
305.217
305.272
305.317
305.346
305.356
303.34
303.347
303.324
303.284
303.233
303.177
303.118
303.059
303
302.943
302.888
302.835
302.784
302.735
302.689
302.645
302.604
302.564
302.526
302.49
302.456
302.424
302.394
302.365
302.337
302.311
302.286
302.262
302.24
302.218
302.198
302.178
302.16
302.142
302.125
302.109
302.093
302.078
302.064
302.05
302.037
302.024
302.012
302
301.989
301.978
301.967
301.956
301.946
301.937
301.927
301.918
301.909
301.901
301.893
301.885
301.877
301.869
301.862
301.855
301.849
301.842
301.836
301.83
301.825
301.819
301.814
301.809
301.805
301.801
301.797
301.793
301.79
301.787
301.784
301.782
301.78
301.778
301.777
301.776
301.775
301.774
301.774
301.775
301.775
301.776
301.777
301.779
301.781
301.783
301.785
301.788
301.791
301.795
301.799
301.803
301.808
301.813
301.818
301.824
301.83
301.836
301.843
301.85
301.857
301.865
301.873
301.881
301.89
301.899
301.909
301.919
301.929
301.94
301.951
301.963
301.974
301.987
301.999
302.013
302.026
302.04
302.055
302.07
302.085
302.101
302.117
302.134
302.151
302.169
302.188
302.207
302.227
302.247
302.268
302.289
302.312
302.335
302.358
302.383
302.408
302.434
302.46
302.488
302.516
302.545
302.576
302.607
302.639
302.672
302.706
302.741
302.777
302.814
302.852
302.891
302.932
302.973
303.016
303.06
303.105
303.151
303.199
303.247
303.297
303.348
303.4
303.453
303.508
303.563
303.62
303.677
303.736
303.795
303.856
303.917
303.979
304.042
304.105
304.169
304.233
304.298
304.364
304.429
304.495
304.561
304.628
304.694
304.761
304.828
304.894
304.961
305.027
305.093
305.156
305.217
305.272
305.317
305.346
305.356
302.996
303.002
302.988
302.96
302.922
302.879
302.832
302.783
302.734
302.685
302.637
302.591
302.546
302.502
302.461
302.421
302.383
302.347
302.312
302.279
302.248
302.218
302.19
302.163
302.137
302.112
302.089
302.067
302.046
302.026
302.007
301.988
301.971
301.954
301.938
301.923
301.908
301.894
301.88
301.867
301.854
301.842
301.83
301.819
301.808
301.797
301.787
301.777
301.767
301.758
301.748
301.739
301.731
301.722
301.714
301.706
301.699
301.691
301.684
301.677
301.671
301.664
301.658
301.652
301.646
301.641
301.636
301.631
301.626
301.622
301.617
301.614
301.61
301.607
301.604
301.601
301.599
301.596
301.595
301.593
301.592
301.591
301.591
301.59
301.591
301.591
301.592
301.593
301.594
301.596
301.598
301.6
301.603
301.606
301.61
301.613
301.617
301.622
301.626
301.632
301.637
301.643
301.649
301.655
301.662
301.67
301.677
301.685
301.693
301.702
301.711
301.72
301.73
301.74
301.751
301.762
301.773
301.785
301.797
301.81
301.823
301.836
301.85
301.865
301.88
301.895
301.911
301.927
301.944
301.962
301.98
301.998
302.018
302.038
302.058
302.079
302.101
302.123
302.147
302.171
302.195
302.221
302.247
302.274
302.302
302.331
302.36
302.391
302.423
302.455
302.489
302.523
302.559
302.596
302.633
302.672
302.712
302.753
302.795
302.838
302.883
302.929
302.975
303.023
303.072
303.122
303.174
303.226
303.28
303.334
303.389
303.446
303.503
303.561
303.62
303.68
303.741
303.802
303.863
303.925
303.987
304.05
304.113
304.176
304.239
304.301
304.364
304.426
304.488
304.549
304.609
304.669
304.726
304.782
304.834
304.882
304.922
304.952
304.968
304.967
302.996
303.002
302.988
302.96
302.922
302.879
302.832
302.783
302.734
302.685
302.637
302.591
302.546
302.502
302.461
302.421
302.383
302.347
302.312
302.279
302.248
302.218
302.19
302.163
302.137
302.112
302.089
302.067
302.046
302.026
302.007
301.988
301.971
301.954
301.938
301.923
301.908
301.894
301.88
301.867
301.854
301.842
301.83
301.819
301.808
301.797
301.787
301.777
301.767
301.758
301.748
301.739
301.731
301.722
301.714
301.706
301.699
301.691
301.684
301.677
301.671
301.664
301.658
301.652
301.646
301.641
301.636
301.631
301.626
301.622
301.617
301.614
301.61
301.607
301.604
301.601
301.599
301.596
301.595
301.593
301.592
301.591
301.591
301.59
301.591
301.591
301.592
301.593
301.594
301.596
301.598
301.6
301.603
301.606
301.61
301.613
301.617
301.622
301.626
301.632
301.637
301.643
301.649
301.655
301.662
301.67
301.677
301.685
301.693
301.702
301.711
301.72
301.73
301.74
301.751
301.762
301.773
301.785
301.797
301.81
301.823
301.836
301.85
301.865
301.88
301.895
301.911
301.927
301.944
301.962
301.98
301.998
302.018
302.037
302.058
302.079
302.101
302.123
302.147
302.171
302.195
302.221
302.247
302.274
302.302
302.331
302.36
302.391
302.423
302.455
302.489
302.523
302.559
302.596
302.633
302.672
302.712
302.753
302.795
302.838
302.883
302.929
302.975
303.023
303.072
303.122
303.174
303.226
303.28
303.334
303.389
303.446
303.503
303.561
303.62
303.68
303.741
303.802
303.863
303.925
303.987
304.05
304.113
304.176
304.239
304.301
304.364
304.426
304.488
304.549
304.609
304.669
304.726
304.782
304.834
304.882
304.922
304.952
304.968
304.967
302.711
302.714
302.704
302.683
302.654
302.619
302.581
302.541
302.499
302.457
302.416
302.375
302.335
302.296
302.258
302.222
302.188
302.154
302.123
302.092
302.063
302.036
302.009
301.984
301.96
301.937
301.915
301.895
301.875
301.856
301.838
301.82
301.804
301.788
301.773
301.758
301.744
301.731
301.718
301.705
301.693
301.681
301.67
301.659
301.649
301.638
301.628
301.619
301.609
301.6
301.591
301.582
301.574
301.566
301.558
301.55
301.542
301.535
301.528
301.521
301.514
301.508
301.501
301.495
301.489
301.484
301.479
301.473
301.469
301.464
301.46
301.456
301.452
301.448
301.445
301.442
301.44
301.437
301.435
301.433
301.432
301.431
301.43
301.429
301.429
301.429
301.429
301.43
301.431
301.432
301.434
301.436
301.438
301.441
301.444
301.447
301.451
301.455
301.459
301.464
301.469
301.474
301.48
301.486
301.492
301.499
301.506
301.514
301.522
301.53
301.538
301.547
301.557
301.567
301.577
301.587
301.598
301.609
301.621
301.633
301.646
301.659
301.673
301.687
301.701
301.716
301.732
301.748
301.764
301.781
301.799
301.817
301.836
301.856
301.876
301.896
301.918
301.94
301.963
301.986
302.011
302.036
302.062
302.088
302.116
302.145
302.174
302.204
302.235
302.267
302.301
302.335
302.37
302.406
302.443
302.482
302.521
302.562
302.603
302.646
302.69
302.735
302.781
302.829
302.877
302.926
302.977
303.028
303.081
303.134
303.189
303.244
303.301
303.357
303.415
303.474
303.532
303.592
303.652
303.712
303.772
303.833
303.893
303.953
304.013
304.073
304.132
304.19
304.248
304.304
304.359
304.412
304.463
304.51
304.554
304.592
304.623
304.645
304.655
304.651
302.711
302.714
302.704
302.683
302.654
302.619
302.581
302.541
302.499
302.457
302.416
302.375
302.335
302.296
302.258
302.222
302.188
302.154
302.123
302.092
302.063
302.036
302.009
301.984
301.96
301.937
301.915
301.895
301.875
301.856
301.838
301.82
301.804
301.788
301.773
301.758
301.744
301.731
301.718
301.705
301.693
301.681
301.67
301.659
301.649
301.638
301.628
301.619
301.609
301.6
301.591
301.582
301.574
301.566
301.558
301.55
301.542
301.535
301.528
301.521
301.514
301.508
301.501
301.495
301.489
301.484
301.479
301.473
301.469
301.464
301.46
301.456
301.452
301.448
301.445
301.442
301.44
301.437
301.435
301.433
301.432
301.431
301.43
301.429
301.429
301.429
301.429
301.43
301.431
301.432
301.434
301.436
301.438
301.441
301.444
301.447
301.451
301.455
301.459
301.464
301.469
301.474
301.48
301.486
301.492
301.499
301.506
301.514
301.522
301.53
301.538
301.547
301.557
301.567
301.577
301.587
301.598
301.609
301.621
301.633
301.646
301.659
301.673
301.687
301.701
301.716
301.732
301.748
301.764
301.781
301.799
301.817
301.836
301.856
301.876
301.896
301.918
301.94
301.963
301.986
302.011
302.036
302.062
302.088
302.116
302.145
302.174
302.204
302.235
302.267
302.301
302.335
302.37
302.406
302.443
302.482
302.521
302.562
302.603
302.646
302.69
302.735
302.781
302.829
302.877
302.926
302.977
303.028
303.081
303.134
303.189
303.244
303.301
303.357
303.415
303.474
303.532
303.592
303.652
303.712
303.772
303.833
303.893
303.953
304.013
304.073
304.132
304.19
304.248
304.304
304.359
304.412
304.463
304.51
304.554
304.592
304.623
304.645
304.655
304.651
302.465
302.466
302.457
302.441
302.417
302.389
302.357
302.323
302.288
302.252
302.215
302.179
302.144
302.109
302.075
302.042
302.011
301.98
301.951
301.923
301.896
301.87
301.846
301.822
301.8
301.779
301.758
301.739
301.72
301.702
301.685
301.669
301.653
301.638
301.624
301.61
301.596
301.584
301.571
301.559
301.548
301.536
301.526
301.515
301.505
301.495
301.485
301.476
301.467
301.458
301.449
301.44
301.432
301.424
301.416
301.408
301.401
301.394
301.386
301.38
301.373
301.366
301.36
301.354
301.348
301.343
301.337
301.332
301.327
301.322
301.318
301.314
301.31
301.306
301.303
301.299
301.296
301.294
301.292
301.289
301.288
301.286
301.285
301.284
301.284
301.283
301.284
301.284
301.285
301.286
301.287
301.289
301.291
301.293
301.295
301.298
301.302
301.305
301.309
301.314
301.318
301.323
301.329
301.334
301.34
301.347
301.353
301.361
301.368
301.376
301.384
301.393
301.402
301.411
301.421
301.431
301.442
301.453
301.464
301.476
301.488
301.501
301.514
301.528
301.542
301.557
301.572
301.587
301.604
301.62
301.638
301.656
301.674
301.693
301.713
301.734
301.755
301.776
301.799
301.822
301.846
301.871
301.897
301.923
301.95
301.978
302.007
302.037
302.068
302.1
302.133
302.167
302.201
302.237
302.274
302.312
302.351
302.391
302.432
302.475
302.518
302.563
302.608
302.655
302.702
302.751
302.801
302.852
302.903
302.956
303.01
303.064
303.119
303.175
303.231
303.288
303.346
303.404
303.462
303.52
303.579
303.637
303.695
303.753
303.81
303.867
303.923
303.978
304.031
304.083
304.134
304.181
304.227
304.268
304.305
304.337
304.363
304.38
304.387
304.382
302.465
302.466
302.457
302.44
302.417
302.389
302.357
302.323
302.288
302.252
302.215
302.179
302.144
302.109
302.075
302.042
302.011
301.98
301.951
301.923
301.896
301.87
301.846
301.822
301.8
301.779
301.758
301.739
301.72
301.702
301.685
301.669
301.653
301.638
301.624
301.61
301.596
301.584
301.571
301.559
301.548
301.536
301.526
301.515
301.505
301.495
301.485
301.476
301.467
301.458
301.449
301.44
301.432
301.424
301.416
301.408
301.401
301.394
301.386
301.38
301.373
301.366
301.36
301.354
301.348
301.343
301.337
301.332
301.327
301.322
301.318
301.314
301.31
301.306
301.303
301.299
301.296
301.294
301.292
301.289
301.288
301.286
301.285
301.284
301.284
301.283
301.284
301.284
301.285
301.286
301.287
301.289
301.291
301.293
301.295
301.298
301.302
301.305
301.309
301.314
301.318
301.323
301.329
301.334
301.34
301.347
301.353
301.361
301.368
301.376
301.384
301.393
301.402
301.411
301.421
301.431
301.442
301.453
301.464
301.476
301.488
301.501
301.514
301.528
301.542
301.557
301.572
301.587
301.604
301.62
301.638
301.656
301.674
301.693
301.713
301.734
301.755
301.776
301.799
301.822
301.846
301.871
301.897
301.923
301.95
301.978
302.007
302.037
302.068
302.1
302.133
302.167
302.201
302.237
302.274
302.312
302.351
302.391
302.432
302.475
302.518
302.563
302.608
302.655
302.702
302.751
302.801
302.852
302.903
302.956
303.01
303.064
303.119
303.175
303.231
303.288
303.346
303.404
303.462
303.52
303.579
303.637
303.695
303.753
303.81
303.867
303.923
303.978
304.031
304.083
304.134
304.181
304.227
304.268
304.305
304.337
304.363
304.38
304.387
304.382
302.248
302.247
302.239
302.225
302.205
302.182
302.155
302.126
302.095
302.064
302.032
302
301.968
301.937
301.906
301.876
301.848
301.82
301.793
301.767
301.742
301.718
301.695
301.674
301.653
301.633
301.613
301.595
301.577
301.561
301.545
301.529
301.514
301.5
301.486
301.473
301.46
301.448
301.436
301.425
301.414
301.403
301.393
301.382
301.373
301.363
301.354
301.344
301.335
301.327
301.318
301.31
301.302
301.294
301.286
301.279
301.271
301.264
301.257
301.25
301.243
301.237
301.231
301.224
301.219
301.213
301.207
301.202
301.197
301.192
301.188
301.183
301.179
301.175
301.172
301.168
301.165
301.163
301.16
301.158
301.156
301.154
301.153
301.152
301.151
301.15
301.15
301.15
301.151
301.151
301.152
301.154
301.155
301.157
301.16
301.162
301.165
301.169
301.172
301.176
301.181
301.185
301.19
301.196
301.201
301.207
301.214
301.221
301.228
301.235
301.243
301.252
301.26