/*--------------------------------*- C++ -*----------------------------------*\
  =========                 |
  \\      /  F ield         | OpenFOAM: The Open Source CFD Toolbox
   \\    /   O peration     | Website:  https://openfoam.org
    \\  /    A nd           | Version:  8
     \\/     M anipulation  |
\*---------------------------------------------------------------------------*/
FoamFile
{
    version     2.0;
    format      ascii;
    class       volVectorField;
    location    "3000";
    object      U;
}
// * * * * * * * * * * * * * * * * * * * * * * * * * * * * * * * * * * * * * //

dimensions      [0 1 -1 0 0 0 0];

internalField   nonuniform List<vector> 
46000
(
(0.00116671 7.37066e-07 -0.00120517)
(0.00593368 2.12229e-07 -0.00332036)
(0.0110765 7.4476e-08 -0.00333422)
(0.0146823 7.22033e-08 -0.00216131)
(0.0163845 9.012e-08 -0.000854679)
(0.0163783 1.0089e-07 0.000296435)
(0.0149448 1.04533e-07 0.00123239)
(0.0123787 1.04174e-07 0.00196523)
(0.00892263 1.03226e-07 0.00253266)
(0.00477842 1.02306e-07 0.00297078)
(9.40308e-05 1.0093e-07 0.00330383)
(-0.00500297 9.86188e-08 0.00354926)
(-0.0104075 9.57806e-08 0.00372853)
(-0.016053 9.279e-08 0.00386014)
(-0.0218776 8.98377e-08 0.00395465)
(-0.0278353 8.70938e-08 0.00401993)
(-0.0338887 8.46316e-08 0.00406196)
(-0.0400073 8.23733e-08 0.00408529)
(-0.0461661 8.02466e-08 0.00409341)
(-0.0523444 7.82177e-08 0.00408901)
(-0.0585243 7.62679e-08 0.00407413)
(-0.0646908 7.43418e-08 0.00405036)
(-0.0708306 7.24024e-08 0.00401891)
(-0.0769319 7.04396e-08 0.0039807)
(-0.0829842 6.84382e-08 0.00393646)
(-0.0889776 6.63947e-08 0.00388672)
(-0.0949032 6.43125e-08 0.0038319)
(-0.100752 6.22116e-08 0.00377233)
(-0.106517 6.00767e-08 0.00370825)
(-0.112189 5.79312e-08 0.00363986)
(-0.117762 5.57234e-08 0.00356731)
(-0.123227 5.34964e-08 0.00349074)
(-0.128578 5.1242e-08 0.00341027)
(-0.133808 4.89735e-08 0.003326)
(-0.138911 4.66908e-08 0.00323805)
(-0.143878 4.44355e-08 0.00314652)
(-0.148705 4.21893e-08 0.00305154)
(-0.153385 3.99804e-08 0.00295322)
(-0.157912 3.7819e-08 0.00285171)
(-0.16228 3.57114e-08 0.00274715)
(-0.166484 3.36661e-08 0.0026397)
(-0.170519 3.16847e-08 0.00252953)
(-0.174381 2.97822e-08 0.00241683)
(-0.178064 2.79567e-08 0.00230179)
(-0.181564 2.62084e-08 0.00218461)
(-0.184878 2.45471e-08 0.0020655)
(-0.188002 2.29578e-08 0.0019447)
(-0.190934 2.14488e-08 0.00182242)
(-0.19367 2.00051e-08 0.00169889)
(-0.196209 1.85983e-08 0.00157437)
(-0.198548 1.72417e-08 0.00144908)
(-0.200687 1.59069e-08 0.00132327)
(-0.202624 1.45974e-08 0.00119718)
(-0.204359 1.32996e-08 0.00107105)
(-0.205892 1.20236e-08 0.000945129)
(-0.207223 1.07494e-08 0.000819646)
(-0.208353 9.4953e-09 0.000694839)
(-0.209283 8.26129e-09 0.00057094)
(-0.210015 7.05904e-09 0.000448167)
(-0.21055 5.89185e-09 0.000326705)
(-0.210891 4.78306e-09 0.000206676)
(-0.21104 3.71432e-09 8.81262e-05)
(-0.211001 2.72231e-09 -2.85637e-05)
(-0.210776 1.81366e-09 -0.000142958)
(-0.210369 9.63378e-10 -0.000255029)
(-0.209785 1.84783e-10 -0.000364774)
(-0.209026 -5.18792e-10 -0.000472071)
(-0.208097 -1.14568e-09 -0.000576772)
(-0.207002 -1.68756e-09 -0.000678737)
(-0.205747 -2.15943e-09 -0.000777843)
(-0.204336 -2.53128e-09 -0.000873981)
(-0.202775 -2.84146e-09 -0.000967057)
(-0.201068 -3.07497e-09 -0.00105699)
(-0.199221 -3.23012e-09 -0.0011437)
(-0.197239 -3.31859e-09 -0.00122713)
(-0.195128 -3.34538e-09 -0.00130723)
(-0.192893 -3.30882e-09 -0.00138395)
(-0.190541 -3.21223e-09 -0.00145726)
(-0.188077 -3.0556e-09 -0.00152713)
(-0.185506 -2.82893e-09 -0.00159355)
(-0.182835 -2.54221e-09 -0.0016565)
(-0.18007 -2.19543e-09 -0.00171599)
(-0.177215 -1.78525e-09 -0.00177201)
(-0.174277 -1.31499e-09 -0.00182459)
(-0.171262 -7.82967e-10 -0.00187374)
(-0.168174 -1.87508e-10 -0.00191948)
(-0.165021 4.5639e-10 -0.00196185)
(-0.161807 1.1454e-09 -0.00200089)
(-0.158537 1.88788e-09 -0.00203663)
(-0.155217 2.67049e-09 -0.00206913)
(-0.151852 3.48991e-09 -0.00209844)
(-0.148448 4.35281e-09 -0.00212462)
(-0.145009 5.25422e-09 -0.00214773)
(-0.14154 6.1858e-09 -0.00216784)
(-0.138046 7.15589e-09 -0.00218502)
(-0.134531 8.15785e-09 -0.00219935)
(-0.131 9.19668e-09 -0.00221089)
(-0.127458 1.02574e-08 -0.00221974)
(-0.123908 1.13533e-08 -0.00222598)
(-0.120354 1.24761e-08 -0.00222969)
(-0.116801 1.36142e-08 -0.00223097)
(-0.113251 1.47841e-08 -0.00222991)
(-0.109709 1.59443e-08 -0.0022266)
(-0.106178 1.71364e-08 -0.00222113)
(-0.102661 1.83153e-08 -0.0022136)
(-0.0991606 1.95078e-08 -0.00220412)
(-0.0956805 2.06972e-08 -0.00219277)
(-0.0922231 2.18751e-08 -0.00217966)
(-0.088791 2.30366e-08 -0.00216488)
(-0.0853865 2.41916e-08 -0.00214853)
(-0.0820119 2.53267e-08 -0.00213071)
(-0.0786692 2.64454e-08 -0.00211152)
(-0.0753604 2.75393e-08 -0.00209105)
(-0.0720873 2.86082e-08 -0.00206939)
(-0.0688515 2.9634e-08 -0.00204663)
(-0.0656544 3.06466e-08 -0.00202286)
(-0.0624975 3.16125e-08 -0.00199817)
(-0.059382 3.25553e-08 -0.00197263)
(-0.056309 3.34414e-08 -0.00194633)
(-0.0532795 3.42776e-08 -0.00191933)
(-0.0502944 3.50905e-08 -0.0018917)
(-0.0473545 3.58434e-08 -0.00186351)
(-0.0444605 3.65429e-08 -0.00183482)
(-0.041613 3.72024e-08 -0.00180566)
(-0.0388126 3.78186e-08 -0.00177609)
(-0.0360599 3.83747e-08 -0.00174615)
(-0.0333551 3.88607e-08 -0.00171586)
(-0.0306988 3.92965e-08 -0.00168525)
(-0.0280914 3.96622e-08 -0.00165433)
(-0.0255333 3.99711e-08 -0.00162311)
(-0.0230247 4.02231e-08 -0.00159159)
(-0.0205662 4.04217e-08 -0.00155975)
(-0.0181581 4.056e-08 -0.00152758)
(-0.0158009 4.06348e-08 -0.00149506)
(-0.0134951 4.06493e-08 -0.00146213)
(-0.0112412 4.06237e-08 -0.00142877)
(-0.00903997 4.05244e-08 -0.00139492)
(-0.00689204 4.03816e-08 -0.00136051)
(-0.00479826 4.01751e-08 -0.00132558)
(-0.00275911 3.99015e-08 -0.00129046)
(-0.000775853 3.94503e-08 -0.001255)
(0.00115284 3.86873e-08 -0.00121737)
(0.00302078 3.78873e-08 -0.00117754)
(0.00482928 3.71777e-08 -0.00113668)
(0.00657554 3.64747e-08 -0.00109478)
(0.00825794 3.5785e-08 -0.00105175)
(0.00987447 3.51086e-08 -0.00100751)
(0.011423 3.44321e-08 -0.000961928)
(0.0129012 3.37823e-08 -0.000914918)
(0.0143066 3.3119e-08 -0.000866379)
(0.0156365 3.24992e-08 -0.000816219)
(0.0168883 3.19028e-08 -0.000764354)
(0.0180588 3.135e-08 -0.00071071)
(0.0191451 3.07937e-08 -0.000655227)
(0.020144 3.02844e-08 -0.000597856)
(0.0210523 2.98186e-08 -0.000538566)
(0.0218667 2.93931e-08 -0.000477341)
(0.0225838 2.90347e-08 -0.000414191)
(0.0232003 2.87704e-08 -0.000349145)
(0.0237129 2.85934e-08 -0.000282264)
(0.0241185 2.85274e-08 -0.00021364)
(0.0244139 2.85624e-08 -0.000143408)
(0.0245964 2.87084e-08 -7.17478e-05)
(0.0246631 2.88175e-08 1.14811e-06)
(0.0246122 2.9205e-08 7.52165e-05)
(0.0244411 2.98863e-08 0.000150294)
(0.0241479 3.05108e-08 0.00022604)
(0.0237313 3.12029e-08 0.000302131)
(0.0231904 3.19863e-08 0.00037819)
(0.0225251 3.28879e-08 0.000453794)
(0.0217357 3.38877e-08 0.000528474)
(0.0208234 3.50565e-08 0.000601708)
(0.0197903 3.63539e-08 0.000672923)
(0.0186392 3.78778e-08 0.000741484)
(0.0173742 3.96183e-08 0.000806695)
(0.0160005 4.16497e-08 0.000867791)
(0.0145243 4.39655e-08 0.00092393)
(0.0129536 4.65525e-08 0.000974188)
(0.0112976 4.94041e-08 0.00101754)
(0.00956744 5.23856e-08 0.00105287)
(0.00777614 5.54567e-08 0.00107892)
(0.00593883 5.85432e-08 0.00109428)
(0.00407299 6.1706e-08 0.0010974)
(0.00219934 6.50737e-08 0.00108648)
(0.000341064 6.85993e-08 0.00105881)
(-0.00147566 7.21074e-08 0.00101057)
(-0.00321424 7.60516e-08 0.000939739)
(-0.00484183 8.0554e-08 0.000845075)
(-0.00631498 8.50741e-08 0.000723594)
(-0.0075856 8.91658e-08 0.000570854)
(-0.00859779 9.25107e-08 0.00038257)
(-0.00928771 9.52379e-08 0.000155196)
(-0.0095849 9.79854e-08 -0.000113436)
(-0.00941399 1.01063e-07 -0.000419376)
(-0.00870737 1.05193e-07 -0.00074918)
(-0.00742039 1.10997e-07 -0.00106804)
(-0.00556876 1.18942e-07 -0.00129381)
(-0.00331721 1.27255e-07 -0.00124733)
(-0.00113623 1.5116e-07 -0.000697285)
(-1.50051e-05 7.94863e-08 -1.37032e-05)
(0.00116595 7.37061e-07 -0.00120624)
(0.00593287 2.12225e-07 -0.00332141)
(0.0110761 7.44746e-08 -0.00333487)
(0.0146821 7.22021e-08 -0.00216177)
(0.0163842 9.01185e-08 -0.000855043)
(0.016378 1.00888e-07 0.000296123)
(0.0149446 1.04532e-07 0.00123211)
(0.0123784 1.04173e-07 0.00196497)
(0.00892244 1.03225e-07 0.00253243)
(0.00477826 1.02305e-07 0.00297056)
(9.38992e-05 1.00928e-07 0.00330363)
(-0.00500307 9.86177e-08 0.00354908)
(-0.0104076 9.57796e-08 0.00372836)
(-0.0160531 9.27891e-08 0.00385998)
(-0.0218776 8.98368e-08 0.0039545)
(-0.0278353 8.7093e-08 0.00401979)
(-0.0338886 8.46308e-08 0.00406183)
(-0.0400072 8.23726e-08 0.00408517)
(-0.046166 8.02459e-08 0.0040933)
(-0.0523442 7.82171e-08 0.0040889)
(-0.0585241 7.62673e-08 0.00407403)
(-0.0646906 7.43412e-08 0.00405026)
(-0.0708304 7.24019e-08 0.00401882)
(-0.0769317 7.04391e-08 0.00398062)
(-0.0829839 6.84377e-08 0.00393638)
(-0.0889774 6.63943e-08 0.00388664)
(-0.0949029 6.43121e-08 0.00383183)
(-0.100752 6.22111e-08 0.00377226)
(-0.106517 6.00763e-08 0.00370818)
(-0.112189 5.79308e-08 0.00363979)
(-0.117762 5.5723e-08 0.00356724)
(-0.123227 5.34961e-08 0.00349067)
(-0.128578 5.12417e-08 0.0034102)
(-0.133808 4.89732e-08 0.00332593)
(-0.13891 4.66905e-08 0.00323798)
(-0.143878 4.44352e-08 0.00314646)
(-0.148704 4.2189e-08 0.00305147)
(-0.153384 3.99802e-08 0.00295316)
(-0.157911 3.78187e-08 0.00285165)
(-0.162279 3.57112e-08 0.00274709)
(-0.166484 3.36659e-08 0.00263964)
(-0.170519 3.16846e-08 0.00252947)
(-0.17438 2.9782e-08 0.00241677)
(-0.178063 2.79566e-08 0.00230173)
(-0.181564 2.62082e-08 0.00218455)
(-0.184878 2.45469e-08 0.00206544)
(-0.188002 2.29577e-08 0.00194464)
(-0.190933 2.14487e-08 0.00182236)
(-0.19367 2.0005e-08 0.00169883)
(-0.196208 1.85982e-08 0.00157431)
(-0.198548 1.72416e-08 0.00144902)
(-0.200687 1.59069e-08 0.00132321)
(-0.202624 1.45973e-08 0.00119712)
(-0.204359 1.32995e-08 0.00107099)
(-0.205892 1.20235e-08 0.000945063)
(-0.207223 1.07493e-08 0.000819578)
(-0.208353 9.49525e-09 0.00069477)
(-0.209283 8.26125e-09 0.000570869)
(-0.210014 7.059e-09 0.000448093)
(-0.210549 5.89182e-09 0.00032663)
(-0.21089 4.78304e-09 0.000206598)
(-0.211039 3.71431e-09 8.80463e-05)
(-0.211 2.7223e-09 -2.8646e-05)
(-0.210775 1.81366e-09 -0.000143043)
(-0.210369 9.63374e-10 -0.000255117)
(-0.209784 1.84783e-10 -0.000364865)
(-0.209025 -5.18789e-10 -0.000472165)
(-0.208096 -1.14568e-09 -0.000576869)
(-0.207002 -1.68755e-09 -0.000678837)
(-0.205747 -2.15942e-09 -0.000777946)
(-0.204336 -2.53127e-09 -0.000874087)
(-0.202774 -2.84145e-09 -0.000967166)
(-0.201067 -3.07495e-09 -0.0010571)
(-0.19922 -3.23011e-09 -0.00114381)
(-0.197238 -3.31858e-09 -0.00122725)
(-0.195127 -3.34537e-09 -0.00130735)
(-0.192893 -3.3088e-09 -0.00138407)
(-0.19054 -3.21221e-09 -0.00145739)
(-0.188076 -3.05559e-09 -0.00152726)
(-0.185506 -2.82892e-09 -0.00159369)
(-0.182835 -2.5422e-09 -0.00165664)
(-0.180069 -2.19542e-09 -0.00171613)
(-0.177214 -1.78524e-09 -0.00177216)
(-0.174277 -1.31498e-09 -0.00182475)
(-0.171261 -7.82963e-10 -0.0018739)
(-0.168174 -1.87507e-10 -0.00191965)
(-0.16502 4.56388e-10 -0.00196202)
(-0.161806 1.1454e-09 -0.00200106)
(-0.158536 1.88787e-09 -0.00203681)
(-0.155217 2.67048e-09 -0.00206932)
(-0.151852 3.48989e-09 -0.00209864)
(-0.148448 4.3528e-09 -0.00212482)
(-0.145009 5.2542e-09 -0.00214794)
(-0.14154 6.18577e-09 -0.00216805)
(-0.138045 7.15586e-09 -0.00218524)
(-0.134531 8.15781e-09 -0.00219957)
(-0.131 9.19664e-09 -0.00221112)
(-0.127457 1.02573e-08 -0.00221998)
(-0.123907 1.13533e-08 -0.00222622)
(-0.120354 1.24761e-08 -0.00222994)
(-0.1168 1.36141e-08 -0.00223123)
(-0.113251 1.47841e-08 -0.00223017)
(-0.109709 1.59442e-08 -0.00222686)
(-0.106177 1.71363e-08 -0.0022214)
(-0.10266 1.83152e-08 -0.00221388)
(-0.0991602 1.95077e-08 -0.0022044)
(-0.0956802 2.06971e-08 -0.00219306)
(-0.0922228 2.1875e-08 -0.00217996)
(-0.0887907 2.30365e-08 -0.00216519)
(-0.0853862 2.41915e-08 -0.00214885)
(-0.0820116 2.53266e-08 -0.00213104)
(-0.0786689 2.64453e-08 -0.00211185)
(-0.0753601 2.75391e-08 -0.00209139)
(-0.072087 2.86081e-08 -0.00206973)
(-0.0688512 2.96339e-08 -0.00204698)
(-0.0656541 3.06464e-08 -0.00202322)
(-0.0624972 3.16124e-08 -0.00199854)
(-0.0593817 3.25552e-08 -0.00197301)
(-0.0563087 3.34413e-08 -0.00194671)
(-0.0532792 3.42775e-08 -0.00191972)
(-0.0502941 3.50904e-08 -0.0018921)
(-0.0473542 3.58433e-08 -0.00186391)
(-0.0444602 3.65428e-08 -0.00183522)
(-0.0416127 3.72023e-08 -0.00180607)
(-0.0388124 3.78185e-08 -0.00177651)
(-0.0360596 3.83746e-08 -0.00174657)
(-0.0333548 3.88605e-08 -0.00171629)
(-0.0306986 3.92964e-08 -0.00168568)
(-0.0280912 3.96621e-08 -0.00165477)
(-0.025533 3.99709e-08 -0.00162356)
(-0.0230245 4.0223e-08 -0.00159204)
(-0.0205659 4.04215e-08 -0.00156021)
(-0.0181578 4.05599e-08 -0.00152805)
(-0.0158006 4.06346e-08 -0.00149552)
(-0.0134948 4.06492e-08 -0.0014626)
(-0.011241 4.06236e-08 -0.00142925)
(-0.00903971 4.05243e-08 -0.0013954)
(-0.00689178 4.03814e-08 -0.001361)
(-0.004798 4.0175e-08 -0.00132606)
(-0.00275885 3.99014e-08 -0.00129095)
(-0.000775595 3.94502e-08 -0.00125549)
(0.0011531 3.86872e-08 -0.00121786)
(0.00302103 3.78872e-08 -0.00117803)
(0.00482954 3.71776e-08 -0.00113717)
(0.0065758 3.64746e-08 -0.00109527)
(0.0082582 3.57849e-08 -0.00105225)
(0.00987473 3.51085e-08 -0.001008)
(0.0114233 3.4432e-08 -0.000962425)
(0.0129015 3.37822e-08 -0.000915416)
(0.0143069 3.31189e-08 -0.000866876)
(0.0156368 3.24991e-08 -0.000816716)
(0.0168885 3.19028e-08 -0.00076485)
(0.0180591 3.13499e-08 -0.000711207)
(0.0191454 3.07937e-08 -0.000655723)
(0.0201443 3.02843e-08 -0.000598352)
(0.0210526 2.98186e-08 -0.00053906)
(0.0218669 2.9393e-08 -0.000477836)
(0.022584 2.90347e-08 -0.000414685)
(0.0232005 2.87703e-08 -0.000349639)
(0.0237132 2.85934e-08 -0.000282757)
(0.0241187 2.85274e-08 -0.000214133)
(0.0244142 2.85623e-08 -0.0001439)
(0.0245967 2.87083e-08 -7.22393e-05)
(0.0246633 2.88174e-08 6.57146e-07)
(0.0246125 2.92049e-08 7.47254e-05)
(0.0244413 2.98862e-08 0.000149802)
(0.0241481 3.05107e-08 0.000225547)
(0.0237315 3.12029e-08 0.000301637)
(0.0231907 3.19862e-08 0.000377694)
(0.0225254 3.28879e-08 0.000453297)
(0.021736 3.38877e-08 0.000527974)
(0.0208237 3.50564e-08 0.000601206)
(0.0197905 3.63539e-08 0.000672417)
(0.0186394 3.78778e-08 0.000740975)
(0.0173744 3.96182e-08 0.000806182)
(0.0160007 4.16496e-08 0.000867274)
(0.0145245 4.39654e-08 0.000923409)
(0.0129537 4.65524e-08 0.000973662)
(0.0112977 4.9404e-08 0.00101701)
(0.00956761 5.23856e-08 0.00105234)
(0.0077763 5.54566e-08 0.00107837)
(0.00593897 5.85431e-08 0.00109373)
(0.00407312 6.17059e-08 0.00109684)
(0.00219946 6.50736e-08 0.00108591)
(0.000341165 6.85992e-08 0.00105823)
(-0.00147557 7.21074e-08 0.00100999)
(-0.00321416 7.60515e-08 0.000939149)
(-0.00484176 8.05539e-08 0.000844475)
(-0.00631493 8.5074e-08 0.000722983)
(-0.00758557 8.91656e-08 0.000570227)
(-0.00859777 9.25106e-08 0.000381926)
(-0.00928771 9.52378e-08 0.00015453)
(-0.00958491 9.79852e-08 -0.000114126)
(-0.00941403 1.01063e-07 -0.000420093)
(-0.00870743 1.05193e-07 -0.000749929)
(-0.00742048 1.10997e-07 -0.00106883)
(-0.00556889 1.18942e-07 -0.00129464)
(-0.00331738 1.27254e-07 -0.0012482)
(-0.00113665 1.51159e-07 -0.000698134)
(-1.53513e-05 7.9486e-08 -1.43565e-05)
(0.00314934 3.22331e-07 -0.00626221)
(0.00735182 -1.06556e-08 -0.00773491)
(0.00950634 -2.38279e-08 -0.00608669)
(0.0103686 -2.7851e-08 -0.00342347)
(0.00996247 -2.53115e-08 -0.000758994)
(0.00848552 -2.29013e-08 0.001568)
(0.00608236 -2.1474e-08 0.00348173)
(0.0028953 -2.06729e-08 0.0050113)
(-0.00094628 -1.98623e-08 0.006218)
(-0.00531864 -1.90704e-08 0.00716229)
(-0.0101206 -1.82502e-08 0.00789609)
(-0.0152676 -1.73131e-08 0.00846066)
(-0.0206887 -1.63511e-08 0.00889278)
(-0.0263253 -1.54181e-08 0.00922181)
(-0.032128 -1.44407e-08 0.00946856)
(-0.0380566 -1.34097e-08 0.00964927)
(-0.0440773 -1.23352e-08 0.00977635)
(-0.0501622 -1.12761e-08 0.00985942)
(-0.0562876 -1.02601e-08 0.00990592)
(-0.0624335 -9.30694e-09 0.00992166)
(-0.0685824 -8.42826e-09 0.00991112)
(-0.0747195 -7.624e-09 0.00987779)
(-0.0808313 -6.89993e-09 0.0098244)
(-0.0869061 -6.25932e-09 0.00975304)
(-0.092933 -5.69588e-09 0.00966533)
(-0.0989022 -5.20125e-09 0.00956255)
(-0.104805 -4.77498e-09 0.00944566)
(-0.110631 -4.41619e-09 0.00931544)
(-0.116375 -4.12071e-09 0.00917248)
(-0.122026 -3.8881e-09 0.00901728)
(-0.127579 -3.7229e-09 0.00885023)
(-0.133025 -3.61843e-09 0.00867168)
(-0.138358 -3.5643e-09 0.00848195)
(-0.14357 -3.55591e-09 0.00828133)
(-0.148656 -3.57703e-09 0.00807014)
(-0.153608 -3.61686e-09 0.00784866)
(-0.15842 -3.66832e-09 0.00761724)
(-0.163087 -3.71396e-09 0.00737621)
(-0.167602 -3.74671e-09 0.00712596)
(-0.17196 -3.75785e-09 0.00686689)
(-0.176155 -3.74654e-09 0.00659945)
(-0.180183 -3.70823e-09 0.00632411)
(-0.184038 -3.63918e-09 0.00604137)
(-0.187716 -3.54811e-09 0.00575177)
(-0.191214 -3.43545e-09 0.00545586)
(-0.194527 -3.30452e-09 0.00515425)
(-0.197651 -3.16156e-09 0.00484752)
(-0.200585 -3.00489e-09 0.00453633)
(-0.203324 -2.84575e-09 0.0042213)
(-0.205868 -2.68704e-09 0.00390309)
(-0.208213 -2.53082e-09 0.00358238)
(-0.210359 -2.3821e-09 0.00325983)
(-0.212305 -2.24294e-09 0.0029361)
(-0.21405 -2.11167e-09 0.00261188)
(-0.215593 -1.98956e-09 0.00228782)
(-0.216935 -1.87201e-09 0.00196458)
(-0.218077 -1.75946e-09 0.00164281)
(-0.219019 -1.64483e-09 0.00132315)
(-0.219763 -1.52938e-09 0.00100621)
(-0.22031 -1.40812e-09 0.000692606)
(-0.220663 -1.2794e-09 0.000382909)
(-0.220823 -1.13821e-09 7.76886e-05)
(-0.220794 -9.95375e-10 -0.000222634)
(-0.220578 -8.45065e-10 -0.000517723)
(-0.22018 -6.78149e-10 -0.000807135)
(-0.219601 -5.01271e-10 -0.00109041)
(-0.218847 -3.136e-10 -0.00136713)
(-0.217921 -1.13474e-10 -0.00163689)
(-0.216828 9.62003e-11 -0.00189932)
(-0.215571 3.14178e-10 -0.0021541)
(-0.214157 5.40875e-10 -0.00240095)
(-0.212589 7.70063e-10 -0.0026396)
(-0.210873 1.00133e-09 -0.00286984)
(-0.209014 1.23301e-09 -0.00309148)
(-0.207017 1.45972e-09 -0.00330434)
(-0.204887 1.6831e-09 -0.00350829)
(-0.202629 1.90068e-09 -0.00370323)
(-0.20025 2.11079e-09 -0.00388907)
(-0.197755 2.31509e-09 -0.00406576)
(-0.195149 2.51484e-09 -0.00423326)
(-0.192438 2.70919e-09 -0.00439157)
(-0.189627 2.89566e-09 -0.00454069)
(-0.186722 3.07757e-09 -0.00468068)
(-0.183729 3.25492e-09 -0.00481156)
(-0.180653 3.42398e-09 -0.00493344)
(-0.177499 3.59015e-09 -0.00504638)
(-0.174273 3.74344e-09 -0.00515051)
(-0.17098 3.89136e-09 -0.00524595)
(-0.167626 4.02558e-09 -0.00533284)
(-0.164215 4.15482e-09 -0.00541133)
(-0.160753 4.26788e-09 -0.0054816)
(-0.157245 4.37057e-09 -0.00554381)
(-0.153696 4.46247e-09 -0.00559816)
(-0.15011 4.54109e-09 -0.00564486)
(-0.146492 4.60892e-09 -0.00568411)
(-0.142846 4.66679e-09 -0.00571612)
(-0.139178 4.71304e-09 -0.00574113)
(-0.135491 4.7431e-09 -0.00575937)
(-0.131789 4.76111e-09 -0.00577108)
(-0.128076 4.76958e-09 -0.00577649)
(-0.124357 4.76269e-09 -0.00577587)
(-0.120635 4.74582e-09 -0.00576945)
(-0.116914 4.71027e-09 -0.00575749)
(-0.113196 4.66349e-09 -0.00574025)
(-0.109486 4.59969e-09 -0.00571799)
(-0.105786 4.52508e-09 -0.00569095)
(-0.1021 4.43551e-09 -0.0056594)
(-0.0984293 4.33097e-09 -0.00562358)
(-0.094778 4.21562e-09 -0.00558376)
(-0.0911482 4.08199e-09 -0.00554018)
(-0.0875422 3.94003e-09 -0.00549309)
(-0.0839624 3.7831e-09 -0.00544272)
(-0.0804108 3.61369e-09 -0.00538931)
(-0.0768895 3.43428e-09 -0.00533309)
(-0.0734003 3.24406e-09 -0.00527428)
(-0.0699449 3.04218e-09 -0.00521309)
(-0.066525 2.83114e-09 -0.00514973)
(-0.0631421 2.61176e-09 -0.00508439)
(-0.0597975 2.38404e-09 -0.00501725)
(-0.0564925 2.14882e-09 -0.00494848)
(-0.0532284 1.90525e-09 -0.00487826)
(-0.0500061 1.65751e-09 -0.0048067)
(-0.0468268 1.40724e-09 -0.00473396)
(-0.0436913 1.15195e-09 -0.00466014)
(-0.0406005 8.91641e-10 -0.00458535)
(-0.0375553 6.27141e-10 -0.00450966)
(-0.0345563 3.5928e-10 -0.00443314)
(-0.0316045 8.80571e-11 -0.00435584)
(-0.0287004 -1.82369e-10 -0.00427779)
(-0.0258449 -4.56161e-10 -0.00419898)
(-0.0230385 -7.27495e-10 -0.00411942)
(-0.020282 -9.97203e-10 -0.00403906)
(-0.0175762 -1.26279e-09 -0.00395785)
(-0.0149219 -1.52925e-09 -0.00387573)
(-0.0123198 -1.79409e-09 -0.00379261)
(-0.00977089 -2.05648e-09 -0.00370837)
(-0.00727604 -2.31392e-09 -0.00362292)
(-0.00483626 -2.55975e-09 -0.00353617)
(-0.00245265 -2.81063e-09 -0.00344819)
(-0.000125917 -3.06488e-09 -0.00335889)
(0.00214171 -3.32668e-09 -0.00326764)
(0.00434824 -3.53856e-09 -0.00317329)
(0.00649223 -3.6905e-09 -0.00307574)
(0.00857198 -3.83082e-09 -0.00297543)
(0.0105853 -3.94701e-09 -0.00287211)
(0.01253 -4.04408e-09 -0.00276557)
(0.0144038 -4.11868e-09 -0.00265553)
(0.0162041 -4.17999e-09 -0.00254171)
(0.0179282 -4.22465e-09 -0.00242385)
(0.0195732 -4.25017e-09 -0.00230166)
(0.0211361 -4.26738e-09 -0.0021749)
(0.0226137 -4.26461e-09 -0.00204332)
(0.0240025 -4.24769e-09 -0.00190671)
(0.0252993 -4.22496e-09 -0.00176487)
(0.0265002 -4.18724e-09 -0.00161765)
(0.0276018 -4.13536e-09 -0.00146491)
(0.0286 -4.06849e-09 -0.00130659)
(0.0294913 -3.98828e-09 -0.00114265)
(0.0302717 -3.88722e-09 -0.000973113)
(0.0309374 -3.76947e-09 -0.000798073)
(0.0314847 -3.6342e-09 -0.000617691)
(0.03191 -3.4814e-09 -0.000432216)
(0.0322096 -3.31272e-09 -0.000241984)
(0.0323804 -3.12062e-09 -4.74585e-05)
(0.0324191 -2.93504e-09 0.000151081)
(0.0323231 -2.75461e-09 0.000353259)
(0.0320901 -2.56082e-09 0.000558333)
(0.0317182 -2.36704e-09 0.000765515)
(0.0312059 -2.17241e-09 0.000973904)
(0.0305523 -1.98613e-09 0.00118247)
(0.0297574 -1.79985e-09 0.00139007)
(0.0288217 -1.61357e-09 0.00159541)
(0.0277467 -1.43063e-09 0.00179704)
(0.0265349 -1.24098e-09 0.00199336)
(0.0251896 -1.04797e-09 0.00218259)
(0.0237155 -8.4323e-10 0.00236276)
(0.0221186 -6.43491e-10 0.00253169)
(0.0204063 -4.58808e-10 0.00268696)
(0.0185875 -3.00915e-10 0.00282588)
(0.016673 -2.05024e-10 0.00294546)
(0.0146755 -1.89611e-10 0.00304236)
(0.0126097 -2.58077e-10 0.00311282)
(0.0104929 -3.78603e-10 0.00315257)
(0.00834511 -4.95854e-10 0.00315674)
(0.00618929 -5.47726e-10 0.00311947)
(0.00405137 -4.26718e-10 0.00303347)
(0.00196155 -1.67897e-10 0.00289169)
(-4.70857e-05 2.56825e-11 0.00268634)
(-0.00193444 -4.67735e-13 0.00240766)
(-0.00365617 -3.55672e-10 0.00204508)
(-0.00516418 -1.09401e-09 0.00158698)
(-0.00640429 -2.1031e-09 0.00102159)
(-0.00731807 -3.22347e-09 0.0003396)
(-0.00784436 -4.27098e-09 -0.000458953)
(-0.00791946 -5.16233e-09 -0.00135496)
(-0.00748928 -5.52999e-09 -0.00229133)
(-0.00650959 -4.33613e-09 -0.003129)
(-0.0049677 -1.26036e-09 -0.0035642)
(-0.00291759 1.343e-08 -0.00305531)
(-0.000666241 -5.17177e-08 -0.00121218)
(0.00314866 3.22326e-07 -0.00626319)
(0.00735132 -1.06552e-08 -0.0077354)
(0.00950605 -2.3827e-08 -0.00608689)
(0.0103683 -2.785e-08 -0.00342359)
(0.00996224 -2.53107e-08 -0.000759078)
(0.00848532 -2.29007e-08 0.00156793)
(0.0060822 -2.14734e-08 0.00348166)
(0.00289518 -2.06724e-08 0.00501124)
(-0.00094637 -1.98618e-08 0.00621794)
(-0.0053187 -1.90699e-08 0.00716223)
(-0.0101207 -1.82498e-08 0.00789604)
(-0.0152676 -1.73128e-08 0.00846061)
(-0.0206887 -1.63507e-08 0.00889273)
(-0.0263253 -1.54177e-08 0.00922176)
(-0.0321279 -1.44404e-08 0.00946852)
(-0.0380564 -1.34095e-08 0.00964923)
(-0.0440772 -1.23349e-08 0.00977631)
(-0.050162 -1.12759e-08 0.00985938)
(-0.0562874 -1.02599e-08 0.00990588)
(-0.0624333 -9.30676e-09 0.00992162)
(-0.0685822 -8.4281e-09 0.00991108)
(-0.0747192 -7.62386e-09 0.00987776)
(-0.080831 -6.8998e-09 0.00982437)
(-0.0869058 -6.25921e-09 0.00975301)
(-0.0929327 -5.69578e-09 0.0096653)
(-0.0989019 -5.20116e-09 0.00956252)
(-0.104804 -4.77489e-09 0.00944563)
(-0.110631 -4.41612e-09 0.00931541)
(-0.116374 -4.12064e-09 0.00917245)
(-0.122026 -3.88803e-09 0.00901725)
(-0.127578 -3.72283e-09 0.0088502)
(-0.133024 -3.61837e-09 0.00867165)
(-0.138357 -3.56424e-09 0.00848192)
(-0.14357 -3.55585e-09 0.00828131)
(-0.148655 -3.57697e-09 0.00807011)
(-0.153607 -3.6168e-09 0.00784864)
(-0.15842 -3.66826e-09 0.00761721)
(-0.163087 -3.7139e-09 0.00737619)
(-0.167602 -3.74665e-09 0.00712594)
(-0.171959 -3.75778e-09 0.00686687)
(-0.176155 -3.74648e-09 0.00659943)
(-0.180182 -3.70817e-09 0.00632409)
(-0.184038 -3.63912e-09 0.00604135)
(-0.187716 -3.54806e-09 0.00575175)
(-0.191213 -3.4354e-09 0.00545584)
(-0.194526 -3.30447e-09 0.00515423)
(-0.197651 -3.16151e-09 0.0048475)
(-0.200584 -3.00485e-09 0.00453631)
(-0.203324 -2.84571e-09 0.00422128)
(-0.205867 -2.68699e-09 0.00390307)
(-0.208213 -2.53078e-09 0.00358236)
(-0.210359 -2.38206e-09 0.00325981)
(-0.212305 -2.2429e-09 0.00293608)
(-0.214049 -2.11164e-09 0.00261186)
(-0.215593 -1.98953e-09 0.0022878)
(-0.216935 -1.87198e-09 0.00196456)
(-0.218077 -1.75943e-09 0.00164279)
(-0.219019 -1.64481e-09 0.00132312)
(-0.219763 -1.52936e-09 0.00100619)
(-0.22031 -1.4081e-09 0.000692581)
(-0.220662 -1.27938e-09 0.000382883)
(-0.220823 -1.1382e-09 7.76627e-05)
(-0.220794 -9.9536e-10 -0.00022266)
(-0.220578 -8.45053e-10 -0.000517751)
(-0.220179 -6.78139e-10 -0.000807164)
(-0.219601 -5.01264e-10 -0.00109044)
(-0.218846 -3.13595e-10 -0.00136716)
(-0.21792 -1.13472e-10 -0.00163692)
(-0.216827 9.61989e-11 -0.00189935)
(-0.215571 3.14173e-10 -0.00215413)
(-0.214157 5.40867e-10 -0.00240098)
(-0.212589 7.70052e-10 -0.00263964)
(-0.210873 1.00132e-09 -0.00286988)
(-0.209013 1.233e-09 -0.00309151)
(-0.207016 1.4597e-09 -0.00330437)
(-0.204886 1.68308e-09 -0.00350833)
(-0.202629 1.90065e-09 -0.00370327)
(-0.20025 2.11076e-09 -0.00388911)
(-0.197755 2.31506e-09 -0.0040658)
(-0.195149 2.5148e-09 -0.0042333)
(-0.192437 2.70915e-09 -0.00439161)
(-0.189627 2.89562e-09 -0.00454074)
(-0.186722 3.07753e-09 -0.00468072)
(-0.183728 3.25488e-09 -0.00481161)
(-0.180652 3.42394e-09 -0.00493349)
(-0.177498 3.5901e-09 -0.00504643)
(-0.174272 3.7434e-09 -0.00515057)
(-0.17098 3.89131e-09 -0.00524601)
(-0.167625 4.02552e-09 -0.0053329)
(-0.164215 4.15477e-09 -0.00541139)
(-0.160753 4.26783e-09 -0.00548166)
(-0.157245 4.37051e-09 -0.00554387)
(-0.153695 4.46241e-09 -0.00559823)
(-0.150109 4.54103e-09 -0.00564492)
(-0.146491 4.60886e-09 -0.00568417)
(-0.142846 4.66673e-09 -0.00571619)
(-0.139177 4.71298e-09 -0.0057412)
(-0.13549 4.74304e-09 -0.00575944)
(-0.131788 4.76106e-09 -0.00577115)
(-0.128076 4.76952e-09 -0.00577657)
(-0.124357 4.76263e-09 -0.00577594)
(-0.120635 4.74577e-09 -0.00576953)
(-0.116913 4.71021e-09 -0.00575757)
(-0.113196 4.66344e-09 -0.00574033)
(-0.109486 4.59964e-09 -0.00571807)
(-0.105786 4.52503e-09 -0.00569103)
(-0.102099 4.43546e-09 -0.00565948)
(-0.098429 4.33092e-09 -0.00562367)
(-0.0947777 4.21558e-09 -0.00558385)
(-0.0911478 4.08194e-09 -0.00554027)
(-0.0875419 3.93999e-09 -0.00549318)
(-0.083962 3.78306e-09 -0.00544281)
(-0.0804105 3.61365e-09 -0.00538941)
(-0.0768891 3.43425e-09 -0.00533319)
(-0.0733999 3.24403e-09 -0.00527438)
(-0.0699446 3.04215e-09 -0.00521319)
(-0.0665247 2.83111e-09 -0.00514983)
(-0.0631418 2.61173e-09 -0.00508449)
(-0.0597972 2.38402e-09 -0.00501736)
(-0.0564922 2.1488e-09 -0.0049486)
(-0.0532281 1.90524e-09 -0.00487837)
(-0.0500058 1.65749e-09 -0.00480682)
(-0.0468265 1.40723e-09 -0.00473408)
(-0.043691 1.15194e-09 -0.00466026)
(-0.0406002 8.91633e-10 -0.00458547)
(-0.037555 6.27135e-10 -0.00450979)
(-0.0345561 3.59277e-10 -0.00443327)
(-0.0316042 8.80564e-11 -0.00435597)
(-0.0287002 -1.82368e-10 -0.00427792)
(-0.0258446 -4.56158e-10 -0.00419911)
(-0.0230382 -7.27489e-10 -0.00411955)
(-0.0202818 -9.97196e-10 -0.00403919)
(-0.017576 -1.26278e-09 -0.00395799)
(-0.0149216 -1.52924e-09 -0.00387587)
(-0.0123196 -1.79408e-09 -0.00379274)
(-0.00977064 -2.05647e-09 -0.00370851)
(-0.0072758 -2.31391e-09 -0.00362306)
(-0.00483601 -2.55974e-09 -0.00353631)
(-0.0024524 -2.81061e-09 -0.00344833)
(-0.000125673 -3.06487e-09 -0.00335904)
(0.00214195 -3.32666e-09 -0.00326778)
(0.00434848 -3.53854e-09 -0.00317343)
(0.00649247 -3.69048e-09 -0.00307588)
(0.00857222 -3.8308e-09 -0.00297558)
(0.0105855 -3.94699e-09 -0.00287226)
(0.0125303 -4.04406e-09 -0.00276572)
(0.0144041 -4.11867e-09 -0.00265567)
(0.0162044 -4.17997e-09 -0.00254186)
(0.0179284 -4.22463e-09 -0.00242399)
(0.0195735 -4.25015e-09 -0.00230181)
(0.0211363 -4.26737e-09 -0.00217504)
(0.0226139 -4.2646e-09 -0.00204347)
(0.0240028 -4.24768e-09 -0.00190685)
(0.0252995 -4.22495e-09 -0.00176502)
(0.0265005 -4.18723e-09 -0.00161779)
(0.027602 -4.13535e-09 -0.00146506)
(0.0286003 -4.06847e-09 -0.00130674)
(0.0294915 -3.98826e-09 -0.00114279)
(0.0302719 -3.88721e-09 -0.000973259)
(0.0309377 -3.76946e-09 -0.000798219)
(0.031485 -3.6342e-09 -0.000617836)
(0.0319102 -3.48139e-09 -0.00043236)
(0.0322099 -3.31272e-09 -0.000242128)
(0.0323806 -3.12062e-09 -4.76019e-05)
(0.0324193 -2.93504e-09 0.000150938)
(0.0323234 -2.7546e-09 0.000353115)
(0.0320904 -2.56082e-09 0.000558189)
(0.0317184 -2.36703e-09 0.000765372)
(0.0312061 -2.1724e-09 0.000973761)
(0.0305525 -1.98613e-09 0.00118233)
(0.0297576 -1.79985e-09 0.00138993)
(0.0288219 -1.61357e-09 0.00159527)
(0.027747 -1.43062e-09 0.00179689)
(0.0265351 -1.24098e-09 0.00199321)
(0.0251898 -1.04797e-09 0.00218244)
(0.0237157 -8.43229e-10 0.00236261)
(0.0221188 -6.4349e-10 0.00253154)
(0.0204065 -4.58807e-10 0.00268681)
(0.0185877 -3.00915e-10 0.00282573)
(0.0166732 -2.05023e-10 0.00294531)
(0.0146756 -1.8961e-10 0.00304221)
(0.0126098 -2.58076e-10 0.00311267)
(0.010493 -3.78603e-10 0.00315241)
(0.00834523 -4.95853e-10 0.00315658)
(0.00618939 -5.47725e-10 0.00311931)
(0.00405146 -4.26717e-10 0.0030333)
(0.00196163 -1.67897e-10 0.00289152)
(-4.70135e-05 2.56824e-11 0.00268616)
(-0.00193438 -4.67734e-13 0.00240748)
(-0.00365612 -3.55671e-10 0.00204488)
(-0.00516414 -1.09401e-09 0.00158677)
(-0.00640427 -2.1031e-09 0.00102136)
(-0.00731806 -3.22346e-09 0.00033935)
(-0.00784436 -4.27097e-09 -0.000459231)
(-0.00791948 -5.16232e-09 -0.00135527)
(-0.00748933 -5.52998e-09 -0.00229169)
(-0.00650966 -4.33613e-09 -0.00312942)
(-0.00496782 -1.26036e-09 -0.00356469)
(-0.00291796 1.343e-08 -0.00305591)
(-0.000666739 -5.17177e-08 -0.00121283)
(0.00300841 1.35328e-07 -0.0115879)
(0.00559665 -1.80265e-08 -0.00998677)
(0.00594113 -7.16545e-09 -0.00644642)
(0.0052835 -1.0683e-08 -0.00263802)
(0.00374773 -1.19859e-08 0.00091636)
(0.00152549 -1.24966e-08 0.00401237)