/*--------------------------------*- C++ -*----------------------------------*\
  =========                 |
  \\      /  F ield         | OpenFOAM: The Open Source CFD Toolbox
   \\    /   O peration     | Website:  https://openfoam.org
    \\  /    A nd           | Version:  8
     \\/     M anipulation  |
\*---------------------------------------------------------------------------*/
FoamFile
{
    version     2.0;
    format      ascii;
    class       volScalarField;
    location    "800";
    object      alphat;
}
// * * * * * * * * * * * * * * * * * * * * * * * * * * * * * * * * * * * * * //

dimensions      [1 -1 -1 0 0 0 0];

internalField   nonuniform List<scalar> 
46000
(
1.22609e-07
5.61626e-07
1.17738e-06
1.86216e-06
2.60161e-06
3.33242e-06
4.04781e-06
4.73694e-06
5.38261e-06
5.99315e-06
6.56795e-06
7.10571e-06
7.60513e-06
8.06506e-06
8.4845e-06
8.86268e-06
9.19909e-06
9.4935e-06
9.74601e-06
9.95703e-06
1.01273e-05
1.02579e-05
1.03502e-05
1.04057e-05
1.04266e-05
1.04229e-05
1.03975e-05
1.03468e-05
1.02717e-05
1.01743e-05
1.00576e-05
9.92466e-06
9.77865e-06
9.6226e-06
9.45942e-06
9.29178e-06
9.12214e-06
8.95268e-06
8.7853e-06
8.62162e-06
8.46302e-06
8.31058e-06
8.16517e-06
8.02743e-06
7.8978e-06
7.77656e-06
7.66386e-06
7.5597e-06
7.46401e-06
7.37661e-06
7.29731e-06
7.22583e-06
7.16187e-06
7.10513e-06
7.05527e-06
7.01197e-06
6.97489e-06
6.94369e-06
6.91805e-06
6.89798e-06
6.88423e-06
6.87536e-06
6.87086e-06
6.87044e-06
6.87386e-06
6.88094e-06
6.89149e-06
6.90534e-06
6.92231e-06
6.94225e-06
6.96499e-06
6.99038e-06
7.01828e-06
7.04855e-06
7.08107e-06
7.1157e-06
7.15235e-06
7.1909e-06
7.23127e-06
7.27336e-06
7.31712e-06
7.36247e-06
7.40936e-06
7.45776e-06
7.50763e-06
7.55893e-06
7.61166e-06
7.6658e-06
7.72133e-06
7.77826e-06
7.83658e-06
7.89629e-06
7.95738e-06
8.01985e-06
8.08368e-06
8.14886e-06
8.21535e-06
8.28313e-06
8.35215e-06
8.42236e-06
8.49371e-06
8.56612e-06
8.63953e-06
8.71384e-06
8.78898e-06
8.86484e-06
8.94133e-06
9.01835e-06
9.09578e-06
9.17354e-06
9.25153e-06
9.32965e-06
9.40783e-06
9.48599e-06
9.56406e-06
9.64198e-06
9.71971e-06
9.79722e-06
9.87448e-06
9.95147e-06
1.00282e-05
1.01047e-05
1.01809e-05
1.0257e-05
1.03329e-05
1.04087e-05
1.04844e-05
1.05602e-05
1.0636e-05
1.0712e-05
1.07883e-05
1.08649e-05
1.09419e-05
1.10195e-05
1.10977e-05
1.11767e-05
1.12566e-05
1.13376e-05
1.14197e-05
1.15031e-05
1.15881e-05
1.16748e-05
1.17633e-05
1.18539e-05
1.19468e-05
1.20422e-05
1.21404e-05
1.22416e-05
1.2346e-05
1.24538e-05
1.25653e-05
1.26806e-05
1.28e-05
1.29235e-05
1.30513e-05
1.31833e-05
1.33196e-05
1.34598e-05
1.36037e-05
1.3751e-05
1.39009e-05
1.40526e-05
1.42053e-05
1.43575e-05
1.45078e-05
1.46543e-05
1.47948e-05
1.49269e-05
1.50476e-05
1.51538e-05
1.5242e-05
1.53085e-05
1.53498e-05
1.5366e-05
1.53508e-05
1.5298e-05
1.52022e-05
1.5059e-05
1.48643e-05
1.46143e-05
1.43058e-05
1.39364e-05
1.35045e-05
1.30095e-05
1.2452e-05
1.18338e-05
1.11581e-05
1.04294e-05
9.65373e-06
8.83843e-06
7.9921e-06
7.12436e-06
6.24521e-06
5.3626e-06
4.46446e-06
3.596e-06
2.72812e-06
1.86231e-06
1.00216e-06
2.35085e-07
1.2261e-07
5.61635e-07
1.17742e-06
1.86222e-06
2.60168e-06
3.33249e-06
4.04788e-06
4.73701e-06
5.38268e-06
5.99323e-06
6.56804e-06
7.10581e-06
7.60524e-06
8.06517e-06
8.48461e-06
8.8628e-06
9.19921e-06
9.49363e-06
9.74615e-06
9.95717e-06
1.01275e-05
1.02581e-05
1.03503e-05
1.04058e-05
1.04267e-05
1.04231e-05
1.03976e-05
1.0347e-05
1.02718e-05
1.01744e-05
1.00577e-05
9.92478e-06
9.77876e-06
9.62272e-06
9.45953e-06
9.29189e-06
9.12225e-06
8.95279e-06
8.78541e-06
8.62173e-06
8.46313e-06
8.31069e-06
8.16528e-06
8.02754e-06
7.89791e-06
7.77668e-06
7.66398e-06
7.55982e-06
7.46413e-06
7.37674e-06
7.29744e-06
7.22595e-06
7.162e-06
7.10526e-06
7.0554e-06
7.0121e-06
6.97502e-06
6.94382e-06
6.91818e-06
6.89812e-06
6.88436e-06
6.8755e-06
6.871e-06
6.87057e-06
6.874e-06
6.88108e-06
6.89163e-06
6.90548e-06
6.92245e-06
6.94239e-06
6.96513e-06
6.99052e-06
7.01842e-06
7.04869e-06
7.08121e-06
7.11584e-06
7.15249e-06
7.19104e-06
7.23141e-06
7.27351e-06
7.31726e-06
7.36261e-06
7.40951e-06
7.45791e-06
7.50777e-06
7.55907e-06
7.6118e-06
7.66594e-06
7.72147e-06
7.7784e-06
7.83672e-06
7.89643e-06
7.95752e-06
8.01999e-06
8.08382e-06
8.14899e-06
8.21548e-06
8.28326e-06
8.35227e-06
8.42248e-06
8.49383e-06
8.56624e-06
8.63965e-06
8.71397e-06
8.78911e-06
8.86497e-06
8.94146e-06
9.01847e-06
9.09591e-06
9.17367e-06
9.25165e-06
9.32978e-06
9.40795e-06
9.48611e-06
9.56418e-06
9.6421e-06
9.71983e-06
9.79734e-06
9.8746e-06
9.9516e-06
1.00283e-05
1.01048e-05
1.01811e-05
1.02571e-05
1.0333e-05
1.04088e-05
1.04845e-05
1.05603e-05
1.06361e-05
1.07121e-05
1.07884e-05
1.0865e-05
1.0942e-05
1.10196e-05
1.10978e-05
1.11768e-05
1.12568e-05
1.13377e-05
1.14198e-05
1.15033e-05
1.15882e-05
1.16749e-05
1.17634e-05
1.1854e-05
1.19469e-05
1.20424e-05
1.21405e-05
1.22417e-05
1.23461e-05
1.24539e-05
1.25654e-05
1.26807e-05
1.28001e-05
1.29236e-05
1.30514e-05
1.31834e-05
1.33196e-05
1.34599e-05
1.36038e-05
1.3751e-05
1.3901e-05
1.40527e-05
1.42054e-05
1.43576e-05
1.45079e-05
1.46544e-05
1.47949e-05
1.4927e-05
1.50477e-05
1.51539e-05
1.52421e-05
1.53086e-05
1.53499e-05
1.53661e-05
1.5351e-05
1.52981e-05
1.52023e-05
1.50591e-05
1.48644e-05
1.46144e-05
1.43059e-05
1.39365e-05
1.35046e-05
1.30097e-05
1.24522e-05
1.18339e-05
1.11582e-05
1.04295e-05
9.65382e-06
8.83851e-06
7.99217e-06
7.12442e-06
6.24527e-06
5.36264e-06
4.4645e-06
3.59601e-06
2.72812e-06
1.86229e-06
1.00216e-06
2.35084e-07
5.14167e-07
1.45923e-05
2.91309e-05
4.01903e-05
4.87416e-05
5.59056e-05
6.21028e-05
6.75613e-05
7.24192e-05
7.67307e-05
8.05437e-05
8.39e-05
8.68359e-05
8.93835e-05
9.15718e-05
9.34276e-05
9.4976e-05
9.62407e-05
9.72443e-05
9.80083e-05
9.85529e-05
9.88974e-05
9.9059e-05
9.90515e-05
9.88774e-05
9.84997e-05
9.79999e-05
9.74049e-05
9.67363e-05
9.60122e-05
9.52477e-05
9.44562e-05
9.3649e-05
9.28365e-05
9.20274e-05
9.12294e-05
9.04491e-05
8.96918e-05
8.89621e-05
8.82636e-05
8.75991e-05
8.69704e-05
8.63791e-05
8.58258e-05
8.53108e-05
8.4834e-05
8.43949e-05
8.39928e-05
8.36266e-05
8.32953e-05
8.29977e-05
8.27324e-05
8.24981e-05
8.22935e-05
8.21172e-05
8.19679e-05
8.18442e-05
8.17447e-05
8.16671e-05
8.16062e-05
8.15611e-05
8.1535e-05
8.15284e-05
8.15409e-05
8.1572e-05
8.16209e-05
8.16867e-05
8.17688e-05
8.18661e-05
8.19781e-05
8.21037e-05
8.22424e-05
8.23934e-05
8.25559e-05
8.27293e-05
8.2913e-05
8.31064e-05
8.33089e-05
8.35201e-05
8.37395e-05
8.39668e-05
8.42015e-05
8.44434e-05
8.46923e-05
8.49478e-05
8.52099e-05
8.54783e-05
8.5753e-05
8.60338e-05
8.63206e-05
8.66133e-05
8.69118e-05
8.72158e-05
8.75253e-05
8.784e-05
8.81598e-05
8.84843e-05
8.88133e-05
8.91465e-05
8.94836e-05
8.9824e-05
9.01675e-05
9.05135e-05
9.08616e-05
9.12113e-05
9.15622e-05
9.19137e-05
9.22653e-05
9.26166e-05
9.29673e-05
9.33168e-05
9.36648e-05
9.40111e-05
9.43553e-05
9.46973e-05
9.50368e-05
9.53739e-05
9.57083e-05
9.60402e-05
9.63695e-05
9.66965e-05
9.70211e-05
9.73437e-05
9.76644e-05
9.79836e-05
9.83014e-05
9.86182e-05
9.89344e-05
9.92503e-05
9.95663e-05
9.98828e-05
0.0001002
0.000100519
0.00010084
0.000101163
0.000101489
0.000101818
0.000102151
0.000102489
0.000102833
0.000103182
0.000103538
0.000103902
0.000104274
0.000104656
0.000105047
0.00010545
0.000105865
0.000106292
0.000106733
0.000107187
0.000107657
0.000108142
0.000108642
0.000109157
0.000109688
0.000110232
0.000110789
0.000111358
0.000111936
0.00011252
0.000113106
0.00011369
0.000114266
0.000114828
0.000115369
0.00011588
0.000116352
0.000116773
0.000117132
0.000117417
0.000117612
0.000117704
0.000117661
0.000117456
0.000117079
0.000116515
0.000115749
0.000114765
0.000113547
0.00011208
0.000110352
0.000108352
0.00010607
0.0001035
0.00010064
9.74896e-05
9.40512e-05
9.03307e-05
8.6336e-05
8.20762e-05
7.75586e-05
7.27843e-05
6.77383e-05
6.23727e-05
5.63437e-05
4.88566e-05
3.78672e-05
2.01021e-05
9.37451e-07
5.14172e-07
1.45927e-05
2.91312e-05
4.01906e-05
4.8742e-05
5.59058e-05
6.21028e-05
6.75611e-05
7.2419e-05
7.67303e-05
8.05432e-05
8.38995e-05
8.68354e-05
8.9383e-05
9.15714e-05
9.34272e-05
9.49757e-05
9.62405e-05
9.72442e-05
9.80082e-05
9.85529e-05
9.88975e-05
9.90592e-05
9.90517e-05
9.88777e-05
9.85e-05
9.80002e-05
9.74051e-05
9.67365e-05
9.60124e-05
9.52479e-05
9.44564e-05
9.36493e-05
9.28367e-05
9.20277e-05
9.12297e-05
9.04493e-05
8.96921e-05
8.89624e-05
8.82639e-05
8.75994e-05
8.69707e-05
8.63794e-05
8.58261e-05
8.53111e-05
8.48343e-05
8.43953e-05
8.39931e-05
8.3627e-05
8.32957e-05
8.29981e-05
8.27328e-05
8.24985e-05
8.22938e-05
8.21176e-05
8.19683e-05
8.18446e-05
8.17451e-05
8.16675e-05
8.16065e-05
8.15614e-05
8.15354e-05
8.15288e-05
8.15413e-05
8.15724e-05
8.16212e-05
8.16871e-05
8.17691e-05
8.18665e-05
8.19784e-05
8.21041e-05
8.22427e-05
8.23937e-05
8.25562e-05
8.27296e-05
8.29133e-05
8.31067e-05
8.33092e-05
8.35204e-05
8.37398e-05
8.39671e-05
8.42018e-05
8.44437e-05
8.46925e-05
8.49481e-05
8.52102e-05
8.54786e-05
8.57533e-05
8.60341e-05
8.6321e-05
8.66136e-05
8.69121e-05
8.72161e-05
8.75256e-05
8.78403e-05
8.816e-05
8.84846e-05
8.88136e-05
8.91468e-05
8.94838e-05
8.98243e-05
9.01678e-05
9.05138e-05
9.08619e-05
9.12116e-05
9.15624e-05
9.19139e-05
9.22655e-05
9.26169e-05
9.29675e-05
9.3317e-05
9.36651e-05
9.40113e-05
9.43556e-05
9.46975e-05
9.50371e-05
9.53741e-05
9.57086e-05
9.60405e-05
9.63698e-05
9.66968e-05
9.70214e-05
9.7344e-05
9.76647e-05
9.79838e-05
9.83017e-05
9.86185e-05
9.89347e-05
9.92506e-05
9.95665e-05
9.9883e-05
0.0001002
0.000100519
0.00010084
0.000101163
0.000101489
0.000101818
0.000102151
0.000102489
0.000102833
0.000103182
0.000103538
0.000103902
0.000104274
0.000104656
0.000105047
0.00010545
0.000105865
0.000106292
0.000106733
0.000107187
0.000107657
0.000108142
0.000108642
0.000109157
0.000109687
0.000110232
0.000110789
0.000111358
0.000111936
0.00011252
0.000113106
0.00011369
0.000114266
0.000114828
0.000115369
0.00011588
0.000116352
0.000116773
0.000117132
0.000117417
0.000117612
0.000117704
0.000117661
0.000117456
0.000117079
0.000116515
0.000115749
0.000114765
0.000113547
0.000112081
0.000110353
0.000108352
0.00010607
0.000103501
0.000100641
9.74899e-05
9.40514e-05
9.03309e-05
8.63362e-05
8.20764e-05
7.75588e-05
7.27845e-05
6.77384e-05
6.23727e-05
5.63437e-05
4.88565e-05
3.78668e-05
2.0102e-05
9.37447e-07
1.00348e-06
2.83095e-05
5.98238e-05
8.32618e-05
0.000101721
0.000117036
0.000130086
0.000141351
0.000151125
0.000159595
0.0001669
0.000173155
0.000178458
0.000182899
0.000186559
0.000189514
0.000191836
0.000193591
0.000194842
0.000195647
0.000196059
0.000196128
0.000195896
0.000195397
0.000194656
0.000193676
0.0001925
0.000191205
0.000189825
0.00018839
0.000186925
0.000185452
0.00018399
0.000182553
0.000181155
0.000179804
0.00017851
0.000177279
0.000176115
0.000175022
0.000174
0.000173051
0.000172174
0.000171368
0.000170631
0.000169961
0.000169355
0.00016881
0.000168323
0.000167891
0.000167511
0.000167179
0.000166893
0.00016665
0.000166447
0.000166283
0.000166153
0.000166056
0.000165989
0.000165947
0.000165925
0.000165928
0.000165957
0.000166012
0.000166091
0.000166195
0.000166322
0.000166471
0.000166642
0.000166834
0.000167045
0.000167276
0.000167524
0.00016779
0.000168072
0.000168369
0.000168682
0.000169009
0.000169349
0.000169702
0.000170068
0.000170447
0.000170837
0.000171238
0.000171651
0.000172075
0.000172509
0.000172954
0.00017341
0.000173875
0.00017435
0.000174834
0.000175328
0.00017583
0.00017634
0.000176859
0.000177384
0.000177916
0.000178454
0.000178997
0.000179544
0.000180095
0.000180649
0.000181204
0.000181761
0.000182317
0.000182874
0.000183428
0.000183981
0.000184531
0.000185078
0.000185621
0.00018616
0.000186695
0.000187225
0.00018775
0.000188271
0.000188787
0.000189298
0.000189806
0.000190309
0.000190809
0.000191306
0.000191801
0.000192294
0.000192785
0.000193275
0.000193766
0.000194256
0.000194748
0.000195242
0.000195739
0.000196239
0.000196743
0.000197253
0.000197768
0.00019829
0.000198821
0.00019936
0.00019991
0.000200471
0.000201046
0.000201634
0.000202238
0.000202859
0.000203499
0.000204159
0.00020484
0.000205544
0.000206273
0.000207026
0.000207806
0.000208613
0.000209446
0.000210306
0.000211192
0.000212102
0.000213035
0.000213986
0.000214953
0.000215929
0.000216909
0.000217884
0.000218846
0.000219783
0.000220684
0.000221533
0.000222316
0.000223015
0.000223611
0.000224082
0.000224406
0.000224558
0.00022449
0.000224176
0.00022359
0.000222708
0.000221505
0.000219956
0.000218035
0.000215719
0.000212984
0.00020981
0.000206175
0.000202063
0.000197457
0.00019234
0.000186698
0.000180512
0.00017376
0.000166409
0.000158407
0.000149656
0.00013997
0.000128968
0.000115804
9.87653e-05
7.44851e-05
3.77086e-05
1.94941e-06
1.00349e-06
2.83099e-05
5.98238e-05
8.32616e-05
0.000101721
0.000117035
0.000130086
0.000141351
0.000151124
0.000159594
0.000166899
0.000173154
0.000178458
0.000182898
0.000186559
0.000189514
0.000191836
0.000193591
0.000194842
0.000195647
0.000196059
0.000196128
0.000195896
0.000195398
0.000194657
0.000193676
0.000192501
0.000191206
0.000189826
0.00018839
0.000186926
0.000185453
0.000183991
0.000182554
0.000181155
0.000179805
0.000178511
0.00017728
0.000176116
0.000175022
0.000174001
0.000173052
0.000172175
0.000171369
0.000170632
0.000169962
0.000169356
0.000168811
0.000168324
0.000167892
0.000167511
0.00016718
0.000166894
0.000166651
0.000166448
0.000166283
0.000166154
0.000166057
0.00016599
0.000165947
0.000165925
0.000165929
0.000165958
0.000166012
0.000166092
0.000166195
0.000166322
0.000166471
0.000166642
0.000166834
0.000167046
0.000167276
0.000167525
0.00016779
0.000168072
0.00016837
0.000168682
0.000169009
0.000169349
0.000169703
0.000170069
0.000170447
0.000170837
0.000171239
0.000171652
0.000172075
0.00017251
0.000172955
0.00017341
0.000173875
0.00017435
0.000174835
0.000175328
0.00017583
0.000176341
0.000176859
0.000177384
0.000177916
0.000178454
0.000178997
0.000179544
0.000180095
0.000180649
0.000181205
0.000181761
0.000182318
0.000182874
0.000183429
0.000183981
0.000184531
0.000185078
0.000185621
0.00018616
0.000186695
0.000187225
0.00018775
0.000188271
0.000188787
0.000189299
0.000189806
0.00019031
0.00019081
0.000191307
0.000191801
0.000192294
0.000192785
0.000193276
0.000193766
0.000194257
0.000194749
0.000195243
0.000195739
0.000196239
0.000196744
0.000197253
0.000197768
0.000198291
0.000198821
0.000199361
0.00019991
0.000200472
0.000201046
0.000201634
0.000202238
0.000202859
0.000203499
0.000204159
0.00020484
0.000205544
0.000206273
0.000207026
0.000207806
0.000208613
0.000209446
0.000210306
0.000211192
0.000212102
0.000213035
0.000213986
0.000214953
0.000215929
0.000216909
0.000217884
0.000218846
0.000219783
0.000220684
0.000221533
0.000222317
0.000223015
0.000223611
0.000224082
0.000224406
0.000224558
0.000224491
0.000224176
0.00022359
0.000222708
0.000221505
0.000219956
0.000218036
0.000215719
0.000212985
0.00020981
0.000206176
0.000202064
0.000197457
0.000192341
0.000186698
0.000180512
0.00017376
0.00016641
0.000158407
0.000149656
0.00013997
0.000128969
0.000115804
9.87654e-05
7.44852e-05
3.77086e-05
1.94939e-06
1.49097e-06
3.7269e-05
8.01979e-05
0.000113796
0.000140855
0.000163416
0.00018262
0.000199136
0.000213389
0.000225667
0.000236187
0.000245124
0.000252629
0.000258838
0.000263877
0.000267864
0.000270912
0.000273127
0.000274608
0.000275449
0.000275735
0.000275544
0.000274945
0.000273998
0.000272749
0.000271236
0.000269493
0.000267612
0.000265638
0.000263608
0.000261558
0.000259515
0.000257503
0.000255541
0.000253645
0.000251828
0.0002501
0.000248466
0.000246933
0.000245503
0.000244177
0.000242956
0.000241836
0.000240816
0.000239892
0.000239059
0.000238315
0.000237652
0.000237068
0.000236555
0.000236111
0.000235729
0.000235406
0.000235137
0.000234918
0.000234745
0.000234616
0.000234526
0.000234471
0.000234448
0.000234453
0.000234487
0.00023455
0.000234643
0.000234764
0.000234913
0.000235088
0.00023529
0.000235518
0.00023577
0.000236045
0.000236343
0.000236663
0.000237004
0.000237366
0.000237746
0.000238146
0.000238563
0.000238998
0.00023945
0.000239918
0.000240402
0.000240902
0.000241416
0.000241946
0.00024249
0.000243049
0.000243621
0.000244207
0.000244806
0.000245418
0.000246043
0.000246679
0.000247326
0.000247984
0.000248652
0.000249328
0.000250013
0.000250704
0.000251402
0.000252104
0.00025281
0.000253519
0.000254229
0.000254939
0.000255649
0.000256356
0.000257062
0.000257763
0.00025846
0.000259153
0.000259839
0.00026052
0.000261195
0.000261863
0.000262525
0.000263181
0.000263831
0.000264475
0.000265113
0.000265747
0.000266377
0.000267004
0.000267628
0.00026825
0.00026887
0.000269491
0.000270112
0.000270734
0.000271359
0.000271988
0.000272621
0.00027326
0.000273905
0.000274558
0.00027522
0.000275893
0.000276577
0.000277275
0.000277988
0.000278718
0.000279465
0.000280234
0.000281024
0.000281839
0.00028268
0.00028355
0.00028445
0.000285382
0.000286348
0.000287349
0.000288388
0.000289463
0.000290576
0.000291727
0.000292914
0.000294135
0.000295388
0.000296668
0.000297971
0.000299288
0.000300612
0.000301932
0.000303237
0.000304513
0.000305743
0.00030691
0.000307992
0.000308968
0.000309813
0.000310499
0.000310997
0.000311275
0.000311285
0.000310993
0.000310367
0.000309373
0.000307978
0.000306149
0.000303854
0.000301058
0.000297729
0.000293834
0.000289339
0.000284212
0.000278415
0.00027191
0.000264651
0.000256585
0.000247642
0.000237725
0.000226693
0.000214319
0.000200218
0.000183701
0.000163501
0.000137337
0.000101305
5.0544e-05
3.09606e-06
1.491e-06
3.7269e-05
8.01975e-05
0.000113795
0.000140854
0.000163415
0.000182619
0.000199135
0.000213388
0.000225666
0.000236186
0.000245124
0.000252629
0.000258838
0.000263877
0.000267864
0.000270913
0.000273127
0.000274609
0.00027545
0.000275736
0.000275545
0.000274946
0.000273999
0.00027275
0.000271237
0.000269494
0.000267613
0.000265639
0.00026361
0.00026156
0.000259517
0.000257504
0.000255543
0.000253647
0.00025183
0.000250101
0.000248468
0.000246935
0.000245505
0.000244179
0.000242957
0.000241837
0.000240817
0.000239893
0.000239061
0.000238316
0.000237654
0.000237069
0.000236557
0.000236112
0.00023573
0.000235407
0.000235138
0.000234919
0.000234747
0.000234617
0.000234527
0.000234473
0.00023445
0.000234454
0.000234488
0.000234552
0.000234644
0.000234765
0.000234914
0.00023509
0.000235292
0.000235519
0.000235771
0.000236046
0.000236344
0.000236665
0.000237006
0.000237367
0.000237748
0.000238147
0.000238564
0.000238999
0.000239451
0.000239919
0.000240403
0.000240903
0.000241418
0.000241947
0.000242491
0.00024305
0.000243622
0.000244208
0.000244808
0.00024542
0.000246044
0.00024668
0.000247328
0.000247985
0.000248653
0.000249329
0.000250014
0.000250705
0.000251403
0.000252105
0.000252811
0.00025352
0.00025423
0.00025494
0.00025565
0.000256357
0.000257063
0.000257764
0.000258461
0.000259154
0.00025984
0.000260521
0.000261196
0.000261864
0.000262526
0.000263182
0.000263831
0.000264475
0.000265114
0.000265748
0.000266378
0.000267005
0.000267629
0.00026825
0.000268871
0.000269492
0.000270113
0.000270735
0.00027136
0.000271989
0.000272622
0.000273261
0.000273906
0.000274559
0.000275221
0.000275894
0.000276578
0.000277276
0.000277989
0.000278718
0.000279466
0.000280235
0.000281025
0.00028184
0.000282681
0.000283551
0.00028445
0.000285382
0.000286349
0.00028735
0.000288388
0.000289464
0.000290577
0.000291728
0.000292915
0.000294136
0.000295389
0.000296669
0.000297971
0.000299288
0.000300612
0.000301933
0.000303238
0.000304514
0.000305744
0.00030691
0.000307993
0.000308969
0.000309813
0.000310499
0.000310997
0.000311276
0.000311286
0.000310994
0.000310367
0.000309373
0.000307979
0.00030615
0.000303855
0.000301059
0.00029773
0.000293835
0.000289341
0.000284213
0.000278416
0.000271911
0.000264653
0.000256586
0.000247643
0.000237726
0.000226694
0.00021432
0.000200219
0.000183701
0.000163502
0.000137337
0.000101306
5.0544e-05
3.09602e-06
1.98865e-06
4.3356e-05
9.44082e-05
0.000135911
0.000169873
0.000198371
0.000222691
0.00024363
0.000261704
0.000277274
0.00029061
0.000301931
0.000311423
0.000319257
0.00032559
0.000330573
0.000334348
0.000337053
0.000338818
0.000339765
0.000340009
0.000339653
0.000338792
0.000337506
0.000335865
0.000333928
0.000331742
0.000329399
0.000326952
0.000324448
0.000321929
0.000319426
0.000316968
0.000314578
0.000312273
0.000310069
0.000307976
0.000306002
0.000304153
0.000302431
0.000300838
0.000299372
0.000298032
0.000296814
0.000295713
0.000294725
0.000293844
0.000293063
0.000292377
0.000291778
0.000291261
0.00029082
0.000290449
0.000290142
0.000289896
0.000289703
0.000289561
0.000289466
0.000289411
0.000289395
0.000289412
0.000289463
0.000289548
0.000289665
0.000289813
0.000289993
0.000290203
0.000290441
0.000290709
0.000291003
0.000291325
0.000291672
0.000292044
0.000292441
0.00029286
0.000293303
0.000293767
0.000294252
0.000294758
0.000295285
0.00029583
0.000296395
0.000296978
0.00029758
0.000298199
0.000298836
0.000299491
0.000300161
0.000300848
0.000301551
0.000302269
0.000303002
0.000303748
0.000304507
0.000305279
0.000306062
0.000306854
0.000307656
0.000308465
0.000309281
0.000310102
0.000310927
0.000311754
0.000312582
0.00031341
0.000314236
0.000315059
0.000315879
0.000316694
0.000317504
0.000318307
0.000319104
0.000319893
0.000320675
0.000321449
0.000322216
0.000322976
0.000323728
0.000324474
0.000325214
0.000325949
0.00032668
0.000327407
0.000328131
0.000328854
0.000329575
0.000330298
0.000331021
0.000331747
0.000332477
0.000333211
0.000333952
0.0003347
0.000335457
0.000336225
0.000337004
0.000337797
0.000338605
0.00033943
0.000340274
0.000341139
0.000342028
0.000342943
0.000343885
0.000344859
0.000345866
0.000346908
0.000347989
0.00034911
0.000350274
0.000351482
0.000352737
0.000354038
0.000355388
0.000356785
0.000358227
0.000359714
0.000361242
0.000362805
0.000364398
0.000366013
0.00036764
0.000369266
0.00037088
0.000372463
0.000373998
0.000375463
0.000376835
0.000378088
0.000379194
0.00038012
0.000380834
0.000381298
0.000381464
0.000381295
0.000380752
0.000379797
0.000378389
0.000376489
0.000374057
0.000371049
0.000367423
0.000363133
0.000358132
0.000352366
0.000345778
0.000338301
0.000329856
0.000320346
0.00030965
0.000297603
0.000283973
0.00026841
0.000250356
0.00022889
0.000202448
0.0001684
0.000122586
6.06877e-05
4.26756e-06
1.98869e-06
4.3356e-05
9.44075e-05
0.000135911
0.000169872
0.000198369
0.00022269
0.000243628
0.000261703
0.000277273
0.000290609
0.00030193
0.000311422
0.000319256
0.00032559
0.000330573
0.000334348
0.000337053
0.000338818
0.000339766
0.00034001
0.000339655
0.000338793
0.000337507
0.000335867
0.000333929
0.000331744
0.000329401
0.000326954
0.000324451
0.000321931
0.000319428
0.00031697
0.00031458
0.000312275
0.000310071
0.000307978
0.000306004
0.000304155
0.000302433
0.00030084
0.000299374
0.000298034
0.000296816
0.000295716
0.000294728
0.000293846
0.000293065
0.000292379
0.00029178
0.000291263
0.000290822
0.000290451
0.000290144
0.000289897
0.000289705
0.000289563
0.000289467
0.000289413
0.000289397
0.000289414
0.000289465
0.00028955
0.000289667
0.000289815
0.000289995
0.000290204
0.000290443
0.00029071
0.000291005
0.000291327
0.000291674
0.000292046
0.000292442
0.000292862
0.000293304
0.000293769
0.000294254
0.00029476
0.000295286
0.000295832
0.000296397
0.00029698
0.000297582
0.000298201
0.000298838
0.000299492
0.000300163
0.00030085
0.000301553
0.000302271
0.000303003
0.00030375
0.000304509
0.000305281
0.000306063
0.000306856
0.000307658
0.000308467
0.000309283
0.000310104
0.000310928
0.000311755
0.000312583
0.000313411
0.000314237
0.000315061
0.000315881
0.000316696
0.000317505
0.000318309
0.000319105
0.000319895
0.000320676
0.000321451
0.000322217
0.000322977
0.00032373
0.000324476
0.000325216
0.000325951
0.000326681
0.000327408
0.000328133
0.000328855
0.000329577
0.000330299
0.000331022
0.000331748
0.000332478
0.000333213
0.000333953
0.000334702
0.000335459
0.000336226
0.000337005
0.000337798
0.000338606
0.000339431
0.000340275
0.00034114
0.000342029
0.000342944
0.000343887
0.00034486
0.000345867
0.000346909
0.00034799
0.000349111
0.000350275
0.000351483
0.000352738
0.00035404
0.000355389
0.000356786
0.000358228
0.000359715
0.000361243
0.000362806
0.000364399
0.000366014
0.00036764
0.000369267
0.000370881
0.000372464
0.000373999
0.000375464
0.000376836
0.000378089
0.000379195
0.000380121
0.000380835
0.000381299
0.000381465
0.000381296
0.000380753
0.000379798
0.00037839
0.000376491
0.000374058
0.00037105
0.000367424
0.000363135
0.000358133
0.000352368
0.00034578
0.000338303
0.000329857
0.000320348
0.000309652
0.000297605
0.000283975
0.000268411
0.000250358
0.000228891
0.000202449
0.000168401
0.000122586
6.06877e-05
4.26751e-06
2.48229e-06
4.82263e-05
0.00010536
0.000152965
0.000192392
0.000225667
0.000254152
0.000278725
0.00029997
0.000318298
0.000334018
0.000347378
0.000358591
0.000367851
0.000375338
0.000381224
0.000385675
0.000388852
0.000390909
0.000391993
0.000392242
0.000391783
0.000390729
0.000389185
0.000387238
0.000384965
0.000382429
0.000379714
0.000376889
0.000374005
0.000371109
0.000368238
0.000365421
0.000362685
0.00036005
0.000357529
0.000355137
0.00035288
0.000350765
0.000348794
0.000346969
0.000345289
0.000343752
0.000342353
0.000341088
0.000339951
0.000338935
0.000338035
0.000337243
0.000336551
0.000335953
0.000335442
0.000335011
0.000334655
0.000334366
0.00033414
0.000333971
0.000333855
0.000333787
0.000333762
0.000333777
0.00033383
0.000333921
0.000334047
0.000334209
0.000334404
0.000334633
0.000334894
0.000335186
0.000335508
0.00033586
0.000336241
0.00033665
0.000337085
0.000337547
0.000338034
0.000338546
0.000339082
0.000339641
0.000340223
0.000340828
0.000341454
0.000342102
0.00034277
0.000343459
0.000344168
0.000344896
0.000345644
0.00034641
0.000347193
0.000347993
0.00034881
0.000349642
0.000350489
0.000351348
0.00035222
0.000353103
0.000353995
0.000354896
0.000355803
0.000356715
0.00035763
0.000358548
0.000359467
0.000360385
0.0003613
0.000362212
0.00036312
0.000364022
0.000364918
0.000365806
0.000366687
0.00036756
0.000368424
0.00036928
0.000370128
0.000370968
0.000371801
0.000372626
0.000373446
0.00037426
0.000375069
0.000375875
0.000376678
0.00037748
0.000378282
0.000379085
0.00037989
0.000380698
0.000381511
0.00038233
0.000383157
0.000383993
0.00038484
0.0003857
0.000386574
0.000387464
0.000388372
0.000389301
0.000390252
0.000391229
0.000392234
0.00039327
0.000394339
0.000395444
0.000396589
0.000397776
0.000399008
0.000400289
0.00040162
0.000403004
0.000404443
0.000405938
0.000407489
0.000409098
0.000410762
0.00041248
0.000414247
0.000416059
0.00041791
0.000419789
0.000421688
0.000423593
0.000425489
0.000427358
0.00042918
0.000430933
0.000432591
0.000434125
0.000435504
0.000436695
0.000437662
0.00043836
0.000438748
0.000438783
0.000438423
0.000437624
0.000436342
0.000434531
0.000432142
0.000429126
0.000425428
0.000420989
0.000415744
0.000409623
0.00040254
0.000394401
0.000385092
0.000374471
0.000362365
0.000348542
0.000332686
0.00031434
0.000292807
0.000266988
0.000235108
0.00019431
0.000140302
6.92402e-05
5.42352e-06
2.48234e-06
4.82262e-05
0.00010536
0.000152964
0.000192391
0.000225665
0.00025415
0.000278723
0.000299968
0.000318296
0.000334016
0.000347376
0.00035859
0.000367851
0.000375338
0.000381224
0.000385675
0.000388852
0.00039091
0.000391994
0.000392243
0.000391784
0.000390731
0.000389187
0.00038724
0.000384967
0.000382431
0.000379717
0.000376891
0.000374008
0.000371112
0.00036824
0.000365424
0.000362688
0.000360052
0.000357532
0.000355139
0.000352883
0.000350767
0.000348797
0.000346972
0.000345292
0.000343754
0.000342355
0.00034109
0.000339953
0.000338938
0.000338037
0.000337245
0.000336553
0.000335955
0.000335444
0.000335014
0.000334657
0.000334368
0.000334142
0.000333974
0.000333858
0.000333789
0.000333764
0.000333779
0.000333832
0.000333923
0.000334049
0.000334211
0.000334407
0.000334635
0.000334896
0.000335188
0.000335511
0.000335863
0.000336243
0.000336652
0.000337087
0.000337549
0.000338036
0.000338548
0.000339084
0.000339643
0.000340225
0.00034083
0.000341456
0.000342104
0.000342772
0.000343461
0.00034417
0.000344898
0.000345646
0.000346412
0.000347195
0.000347995
0.000348812
0.000349644
0.000350491
0.00035135
0.000352222
0.000353105
0.000353997
0.000354897
0.000355804
0.000356716
0.000357632
0.00035855
0.000359469
0.000360386
0.000361302
0.000362214
0.000363122
0.000364024
0.00036492
0.000365808
0.000366689
0.000367562
0.000368426
0.000369282
0.00037013
0.00037097
0.000371803
0.000372628
0.000373448
0.000374261
0.000375071
0.000375877
0.00037668
0.000377482
0.000378284
0.000379086
0.000379891
0.000380699
0.000381512
0.000382332
0.000383159
0.000383995
0.000384842
0.000385701
0.000386575
0.000387465
0.000388373
0.000389302
0.000390254
0.000391231
0.000392236
0.000393271
0.00039434
0.000395445
0.00039659
0.000397777
0.00039901
0.00040029
0.000401621
0.000403005
0.000404444
0.000405939
0.000407491
0.000409099
0.000410763
0.000412481
0.000414248
0.00041606
0.000417911
0.00041979
0.000421689
0.000423594
0.00042549
0.000427359
0.000429182
0.000430934
0.000432592
0.000434126
0.000435505
0.000436696
0.000437663
0.000438362
0.000438749
0.000438784
0.000438424
0.000437625
0.000436343
0.000434532
0.000432144
0.000429128
0.000425429
0.00042099
0.000415746
0.000409624
0.000402542
0.000394403
0.000385093
0.000374473
0.000362366
0.000348544
0.000332688
0.000314341
0.000292808
0.000266989
0.000235109
0.00019431
0.000140303
6.92402e-05
5.42344e-06
2.98294e-06
5.24987e-05
0.000114485
0.000166899
0.000210676
0.000247786
0.000279636
0.000307159
0.00033099
0.000351577
0.000369259
0.000384308
0.000396956
0.000407412
0.000415874
0.000422528
0.000427559
0.000431145
0.000433459
0.000434666
0.000434925
0.00043438
0.000433168
0.000431406
0.000429202
0.000426647
0.00042382
0.000420793
0.000417652
0.000414456
0.000411252
0.00040808
0.000404973
0.000401957
0.000399053
0.000396276
0.000393639
0.00039115
0.000388814
0.000386634
0.000384613
0.000382748
0.000381037
0.000379476
0.000378061
0.000376785
0.000375642
0.000374625
0.000373726
0.000372938
0.000372253
0.000371665
0.000371166
0.000370749
0.000370407
0.000370135
0.000369927
0.000369778
0.000369683
0.000369636
0.000369634
0.000369676
0.000369758
0.00036988
0.000370041
0.000370239
0.000370473
0.000370742