/*--------------------------------*- C++ -*----------------------------------*\
  =========                 |
  \\      /  F ield         | OpenFOAM: The Open Source CFD Toolbox
   \\    /   O peration     | Website:  https://openfoam.org
    \\  /    A nd           | Version:  8
     \\/     M anipulation  |
\*---------------------------------------------------------------------------*/
FoamFile
{
    version     2.0;
    format      ascii;
    class       volScalarField;
    location    "800";
    object      epsilon;
}
// * * * * * * * * * * * * * * * * * * * * * * * * * * * * * * * * * * * * * //

dimensions      [0 2 -3 0 0 0 0];

internalField   nonuniform List<scalar> 
46000
(
2.2551
9.30353
19.4405
30.6766
42.7715
54.7
66.3657
77.5892
88.1024
98.042
107.4
116.156
124.29
131.783
138.621
144.79
150.282
155.095
159.228
162.689
165.489
167.645
169.179
170.116
170.49
170.465
170.083
169.29
168.097
166.54
164.668
162.53
160.177
157.659
155.023
152.313
149.568
146.824
144.113
141.46
138.889
136.416
134.057
131.822
129.719
127.751
125.921
124.23
122.677
121.258
119.97
118.81
117.771
116.85
116.042
115.339
114.738
114.233
113.818
113.496
113.275
113.133
113.063
113.059
113.117
113.235
113.41
113.638
113.917
114.245
114.618
115.034
115.491
115.987
116.519
117.086
117.685
118.315
118.975
119.663
120.377
121.118
121.884
122.674
123.488
124.326
125.186
126.069
126.975
127.904
128.855
129.828
130.824
131.843
132.883
133.946
135.03
136.135
137.26
138.404
139.567
140.747
141.944
143.155
144.379
145.615
146.862
148.117
149.378
150.645
151.915
153.188
154.461
155.733
157.004
158.273
159.538
160.8
162.058
163.311
164.56
165.805
167.046
168.284
169.519
170.752
171.984
173.217
174.451
175.687
176.927
178.173
179.426
180.688
181.96
183.245
184.544
185.86
187.195
188.551
189.932
191.341
192.779
194.252
195.762
197.312
198.908
200.551
202.247
203.999
205.81
207.684
209.624
211.631
213.707
215.852
218.065
220.344
222.684
225.077
227.515
229.983
232.466
234.944
237.391
239.777
242.067
244.221
246.193
247.93
249.375
250.469
251.156
251.435
251.207
250.366
248.829
246.521
243.375
239.33
234.333
228.342
221.333
213.292
204.229
194.172
183.17
171.296
158.646
145.338
131.508
117.313
102.912
88.4346
73.6838
59.3864
45.0861
30.7976
16.5931
4.31924
2.25494
9.30452
19.4417
30.6776
42.7727
54.7019
66.3689
77.5934
88.1075
98.0477
107.406
116.162
124.296
131.789
138.627
144.796
150.288
155.1
159.233
162.693
165.493
167.649
169.183
170.119
170.493
170.467
170.085
169.292
168.098
166.542
164.669
162.531
160.178
157.66
155.024
152.314
149.569
146.825
144.114
141.461
138.89
136.418
134.059
131.824
129.72
127.753
125.923
124.232
122.679
121.26
119.972
118.812
117.773
116.853
116.044
115.341
114.741
114.235
113.821
113.498
113.277
113.136
113.065
113.061
113.119
113.237
113.412
113.64
113.919
114.247
114.62
115.036
115.494
115.989
116.521
117.088
117.687
118.318
118.977
119.665
120.38
121.121
121.886
122.677
123.49
124.328
125.188
126.071
126.977
127.906
128.856
129.83
130.826
131.845
132.885
133.948
135.032
136.137
137.262
138.406
139.569
140.749
141.946
143.157
144.381
145.618
146.864
148.119
149.381
150.647
151.917
153.19
154.463
155.735
157.006
158.275
159.54
160.802
162.059
163.313
164.562
165.806
167.047
168.285
169.52
170.753
171.986
173.218
174.452
175.688
176.929
178.174
179.427
180.689
181.961
183.246
184.545
185.861
187.196
188.553
189.934
191.343
192.782
194.255
195.764
197.315
198.911
200.554
202.25
204.002
205.813
207.687
209.627
211.634
213.71
215.855
218.068
220.347
222.686
225.08
227.517
229.986
232.469
234.947
237.393
239.78
242.07
244.224
246.196
247.933
249.379
250.473
251.159
251.438
251.209
250.368
248.831
246.524
243.378
239.333
234.335
228.345
221.335
213.295
204.232
194.174
183.172
171.298
158.647
145.339
131.509
117.314
102.913
88.4357
73.6852
59.3879
45.0878
30.7999
16.5956
4.3201
10.0822
8.67711
12.4968
17.0545
22.0271
27.0837
32.1319
37.1309
42.032
46.8274
51.5029
56.0401
60.418
64.6139
68.6038
72.3632
75.8678
79.0941
82.0207
84.6285
86.9019
88.8291
90.4033
91.6233
92.5001
93.0803
93.3705
93.3649
93.0713
92.5079
91.6997
90.6761
89.4684
88.1092
86.6304
85.0629
83.4359
81.7761
80.1075
78.4513
76.8257
75.246
73.7246
72.2714
70.8937
69.5969
68.3844
67.2579
66.2179
65.2639
64.3942
63.6069
62.8991
62.2679
61.71
61.222
60.8003
60.4416
60.1429
59.9033
59.7227
59.5941
59.5128
59.4752
59.4785
59.5201
59.5978
59.7096
59.8535
60.0275
60.23
60.4593
60.7138
60.9919
61.2924
61.6138
61.9549
62.3146
62.692
63.086
63.4959
63.9209
64.3605
64.8141
65.2812
65.7617
66.2551
66.7614
67.2804
67.812
68.3563
68.9132
69.4829
70.0653
70.6603
71.268
71.8883
72.521
73.1659
73.8227
74.491
75.1705
75.8606
76.5607
77.2702
77.9882
78.714
79.4467
80.1854
80.9292
81.6772
82.4285
83.1823
83.9377
84.694
85.4505
86.2066
86.9619
87.7158
88.4682
89.2186
89.9672
90.7138
91.4586
92.2018
92.9437
93.6847
94.4253
95.1661
95.9077
96.6509
97.3964
98.1451
98.8979
99.656
100.42
101.192
101.972
102.762
103.564
104.379
105.208
106.054
106.918
107.802
108.708
109.639
110.596
111.582
112.598
113.648
114.733
115.854
117.013
118.211
119.449
120.726
122.041
123.392
124.776
126.187
127.619
129.063
130.509
131.942
133.346
134.703
135.989
137.18
138.246
139.156
139.877
140.376
140.635
140.609
140.246
139.498
138.323
136.681
134.535
131.858
128.625
124.822
120.445
115.498
109.998
103.974
97.4656
90.5229
83.2067
75.5861
67.7368
59.7386
51.6688
43.5933
35.6955
28.0776
21.1948
15.9315
18.5079
10.0812
8.67737
12.4974
17.0552
22.0279
27.0847
32.133
37.1322
42.0334
46.8289
51.5045
56.0418
60.4197
64.6156
68.6056
72.365
75.8695
79.0959
82.0224
84.6302
86.9035
88.8306
90.4047
91.6246
92.5013
93.0815
93.3716
93.3659
93.0723
92.5089
91.7007
90.677
89.4694
88.1101
86.6313
85.0638
83.4368
81.777
80.1084
78.4522
76.8266
75.2469
73.7255
72.2723
70.8947
69.5979
68.3853
67.2588
66.2189
65.2648
64.3952
63.6079
62.9001
62.2689
61.711
61.223
60.8013
60.4426
60.1439
59.9043
59.7237
59.5952
59.5139
59.4763
59.4795
59.5211
59.5989
59.7107
59.8545
60.0286
60.2311
60.4604
60.7148
60.993
61.2934
61.6148
61.9559
62.3157
62.693
63.0871
63.4969
63.922
64.3615
64.8151
65.2822
65.7627
66.2561
66.7624
67.2813
67.813
68.3573
68.9142
69.4839
70.0663
70.6613
71.269
71.8893
72.522
73.1669
73.8237
74.492
75.1715
75.8616
76.5617
77.2712
77.9892
78.715
79.4477
80.1864
80.9302
81.6782
82.4295
83.1832
83.9386
84.6949
85.4514
86.2076
86.9628
87.7168
88.4691
89.2196
89.9681
90.7147
91.4595
92.2027
92.9446
93.6856
94.4262
95.167
95.9086
96.6517
97.3972
98.1459
98.8988
99.6568
100.421
101.193
101.973
102.763
103.565
104.38
105.209
106.055
106.919
107.803
108.709
109.64
110.597
111.582
112.599
113.649
114.733
115.855
117.014
118.212
119.45
120.727
122.042
123.393
124.777
126.188
127.62
129.064
130.509
131.943
133.347
134.704
135.99
137.181
138.247
139.157
139.878
140.377
140.636
140.61
140.247
139.499
138.324
136.682
134.536
131.859
128.626
124.823
120.446
115.499
109.999
103.975
97.4663
90.5236
83.2073
75.5866
67.7373
59.7391
51.6693
43.5939
35.6961
28.0781
21.1953
15.932
18.5085
19.2389
12.0519
13.9865
17.1346
20.7133
24.4924
28.3687
32.2841
36.198
40.0852
43.9255
47.7003
51.3907
54.977
58.4384
61.753
64.8979
67.8501
70.5866
73.0857
75.3274
77.2947
78.9739
80.3564
81.4409
82.2366
82.7525
82.9887
82.9531
82.6597
82.1277
81.3808
80.445
79.3482
78.1189
76.7853
75.3747
73.9127
72.423
70.9267
69.4428
67.9874
66.5739
65.2136
63.9151
62.6851
61.5284
60.4479
59.4455
58.5215
57.6754
56.9059
56.2111
55.5887
55.0358
54.5495
54.1269
53.7649
53.4606
53.2118
53.0166
52.871
52.7713
52.7145
52.6976
52.7182
52.774
52.8628
52.9826
53.1316
53.3079
53.51
53.7361
53.9848
54.2546
54.5443
54.8527
55.1785
55.5208
55.8787
56.2512
56.6377
57.0375
57.45
57.8748
58.3116
58.7601
59.22
59.6913
60.1738
60.6674
61.1723
61.6884
62.2158
62.7544
63.3043
63.8655
64.4378
65.0212
65.6155
66.2203
66.8355
67.4606
68.0952
68.7387
69.3904
70.0498
70.7161
71.3886
72.0665
72.7489
73.4351
74.1243
74.8157
75.5086
76.2024
76.8964
77.5901
78.283
78.9748
79.6652
80.3541
81.0412
81.7267
82.4106
83.0932
83.7747
84.4555
85.1361
85.8169
86.4985
87.1817
87.8671
88.5557
89.2481
89.9454
90.6486
91.3588
92.0771
92.8048
93.5432
94.2938
95.0581
95.8377
96.6343
97.4496
98.2856
99.144
100.027
100.936
101.873
102.84
103.838
104.869
105.934
107.032
108.163
109.328
110.523
111.746
112.992
114.256
115.531
116.806
118.07
119.309
120.506
121.642
122.696
123.641
124.451
125.096
125.549
125.782
125.757
125.435
124.78
123.753
122.324
120.462
118.143
115.35
112.073
108.307
104.061
99.3485
94.1948
88.633
82.7046
76.4591
69.9534
63.2529
56.4339
49.5892
42.8421
36.3833
30.4877
25.6986
23.5988
38.0272
19.2384
12.0522
13.9872
17.1354
20.7142
24.4934
28.3698
32.2852
36.1992
40.0864
43.9268
47.7015
51.3919
54.9782
58.4396
61.7542
64.8991
67.8512
70.5876
73.0867
75.3284
77.2956
78.9747
80.3571
81.4416
82.2372
82.7531
82.9893
82.9536
82.6602
82.1282
81.3813
80.4454
79.3487
78.1194
76.7858
75.3752
73.9132
72.4234
70.9272
69.4433
67.9879
66.5744
65.2141
63.9156
62.6856
61.5289
60.4485
59.4461
58.5221
57.676
56.9065
56.2118
55.5893
55.0364
54.5502
54.1276
53.7655
53.4613
53.2125
53.0172
52.8717
52.772
52.7151
52.6983
52.7189
52.7746
52.8634
52.9833
53.1323
53.3086
53.5106
53.7367
53.9854
54.2553
54.545
54.8533
55.1792
55.5215
55.8793
56.2519
56.6383
57.0381
57.4506
57.8755
58.3123
58.7607
59.2207
59.6919
60.1744
60.6681
61.173
61.6891
62.2164
62.755
63.3049
63.8661
64.4384
65.0218
65.6161
66.221
66.8362
67.4613
68.0958
68.7393
69.391
70.0504
70.7167
71.3892
72.0671
72.7495
73.4357
74.1249
74.8163
75.5092
76.203
76.8969
77.5906
78.2836
78.9754
79.6658
80.3546
81.0418
81.7273
82.4112
83.0938
83.7753
84.4561
85.1366
85.8174
86.499
87.1822
87.8677
88.5562
89.2486
89.9459
90.6491
91.3593
92.0776
92.8053
93.5438
94.2943
95.0586
95.8382
96.6348
97.4501
98.2861
99.1445
100.027
100.936
101.874
102.841
103.839
104.87
105.934
107.032
108.164
109.328
110.523
111.746
112.993
114.257
115.531
116.806
118.07
119.309
120.507
121.643
122.696
123.641
124.451
125.097
125.55
125.782
125.757
125.436
124.78
123.754
122.324
120.462
118.144
115.351
112.073
108.308
104.061
99.3489
94.1951
88.6333
82.7049
76.4594
69.9537
63.2532
56.4342
49.5894
42.8422
36.3834
30.4878
25.6987
23.5988
38.0271
28.1218
16.1634
16.8732
19.3217
22.3642
25.6949
29.1777
32.7346
36.3146
39.8833
43.4157
46.8922
50.2957
53.6101
56.8194
59.9067
62.8542
65.6433
68.2546
70.6688
72.8672
74.8321
76.5485
78.0045
79.1927
80.111
80.7611
81.1442
81.2661
81.1373
80.7732
80.1931
79.4194
78.4766
77.3904
76.187
74.8923
73.5312
72.1272
70.7018
69.2746
67.8625
66.4804
65.1406
63.8531
62.6261
61.4654
60.3755
59.3591
58.4176
57.5515
56.7603
56.0427
55.3969
54.8206
54.3113
53.8663
53.4827
53.1577
52.8887
52.6732
52.5081
52.3901
52.3163
52.284
52.2906
52.3338
52.4112
52.5209
52.6608
52.829
53.0239
53.2436
53.4867
53.7517
54.0371
54.3417
54.6643
55.0038
55.3591
55.7294
56.1139
56.5119
56.9228
57.3461
57.7813
58.2282
58.6865
59.156
59.6366
60.1282
60.6307
61.1443
61.6689
62.2044
62.751
63.3086
63.8771
64.4564
65.0464
65.6468
66.2574
66.8778
67.5075
68.1461
68.7931
69.4477
70.1094
70.7775
71.4511
72.1295
72.812
73.4978
74.1861
74.8763
75.5676
76.2595
76.9514
77.6428
78.3334
79.0228
79.7109
80.3974
81.0824
81.7659
82.448
83.129
83.8092
84.489
85.1688
85.8493
86.5309
87.2145
87.9008
88.5905
89.2846
89.9841
90.69
91.4034
92.1255
92.8577
93.6013
94.3578
95.1287
95.9157
96.7205
97.5449
98.3906
99.2595
100.153
101.074
102.023
103.002
104.012
105.054
106.127
107.233
108.369
109.535
110.727
111.94
113.17
114.409
115.647
116.874
118.076
119.236
120.337
121.356
122.271
123.056
123.682
124.121
124.343
124.314
124.001
123.369
122.386
121.024
119.257
117.065
114.432
111.349
107.817
103.841
99.435
94.6197
89.4234
83.8812
78.0353
71.9364
65.6467
59.2461
52.8424
46.5903
40.7239
35.6215
32.0585
32.6687
60.0129
28.1221
16.164
16.874
19.3226
22.3651
25.6959
29.1788
32.7357
36.3157
39.8844
43.4168
46.8932
50.2967
53.6111
56.8203
59.9075
62.855
65.644
68.2553
70.6694
72.8676
74.8325
76.5489
78.0048
79.1929
80.1112
80.7612
81.1443
81.2661
81.1373
80.7732
80.1931
79.4194
78.4766
77.3903
76.1869
74.8922
73.5312
72.1272
70.7019
69.2746
67.8626
66.4805
65.1407
63.8533
62.6262
61.4656
60.3757
59.3592
58.4178
57.5517
56.7605
56.0429
55.3971
54.8208
54.3115
53.8665
53.4829
53.158
52.889
52.6735
52.5083
52.3904
52.3166
52.2843
52.2909
52.334
52.4115
52.5212
52.661
52.8293
53.0241
53.2439
53.487
53.752
54.0374
54.342
54.6646
55.004
55.3594
55.7297
56.1142
56.5122
56.9231
57.3463
57.7816
58.2285
58.6867
59.1562
59.6368
60.1284
60.631
61.1445
61.6691
62.2047
62.7512
63.3088
63.8773
64.4566
65.0466
65.647
66.2576
66.878
67.5077
68.1463
68.7933
69.4479
70.1096
70.7777
71.4513
72.1297
72.8122
73.498
74.1863
74.8765
75.5678
76.2597
76.9516
77.643
78.3336
79.023
79.7111
80.3976
81.0825
81.766
82.4482
83.1292
83.8093
84.4891
85.169
85.8494
86.5311
87.2147
87.9009
88.5906
89.2847
89.9842
90.6901
91.4035
92.1257
92.8578
93.6014
94.3579
95.1288
95.9158
96.7206
97.545
98.3907
99.2597
100.154
101.074
102.023
103.002
104.012
105.054
106.127
107.233
108.37
109.535
110.727
111.941
113.17
114.409
115.648
116.874
118.076
119.236
120.337
121.357
122.272
123.056
123.682
124.121
124.343
124.314
124.001
123.369
122.387
121.025
119.258
117.065
114.432
111.349
107.817
103.841
99.435
94.6197
89.4234
83.8812
78.0353
71.9364
65.6467
59.246
52.8423
46.5902
40.7237
35.6213
32.0583
32.6682
60.0121
37.0317
20.6816
20.3185
22.2865
25.0277
28.1327
31.4243
34.8027
38.2042
41.5864
44.9204
48.1857
51.3675
54.4539
57.4342
60.298
63.034
65.6301
68.0726
70.347
72.438
74.3306
76.0103
77.4645
78.6828
79.6584
80.3874
80.8684
81.1041
81.1016
80.8724
80.4314
79.7971
78.9904
78.0339
76.9512
75.7665
74.5032
73.1841
71.8305
70.4622
69.0966
67.7493
66.4337
65.161
63.9403
62.7789
61.6821
60.6539
59.6968
58.812
57.9999
57.26
56.591
55.9912
55.4586
54.9907
54.585
54.2389
53.9495
53.7144
53.5306
53.3953
53.3057
53.2591
53.2531
53.2851
53.353
53.4545
53.5877
53.7505
53.9412
54.158
54.3993
54.6634
54.949
55.2547
55.5791
55.9213
56.28
56.6544
57.0436
57.4468
57.8633
58.2927
58.7344
59.1881
59.6535
60.1303
60.6184
61.1176
61.6279
62.1492
62.6815
63.2247
63.779
64.3442
64.9202
65.5069
66.1041
66.7117
67.3294
67.9567
68.5933
69.2388
69.8925
70.554
71.2225
71.8973
72.5779
73.2634
73.9531
74.6462
75.3421
76.04
76.7393
77.4394
78.1397
78.8399
79.5394
80.2379
80.9353
81.6314
82.326
83.0194
83.7114
84.4024
85.0926
85.7825
86.4723
87.1626
87.8541
88.5474
89.2432
89.9423
90.6456
91.354
92.0686
92.7905
93.5209
94.261
95.0124
95.7763
96.5544
97.3483
98.1597
98.9904
99.8421
100.717
101.616
102.542
103.495
104.478
105.492
106.537
107.613
108.721
109.859
111.025
112.217
113.43
114.659
115.896
117.131
118.355
119.553
120.71
121.807
122.823
123.737
124.521
125.15
125.595
125.826
125.811
125.52
124.923
123.99
122.695
121.017
118.938
116.444
113.53
110.193
106.44
102.28
97.7298
92.8115
87.5525
81.987
76.1592
70.1277
63.9748
57.8195
51.8402
46.3152
41.7215
39.1039
42.236
82.3589
37.0324
20.6824
20.3194
22.2875
25.0287
28.1338
31.4254
34.8037
38.2052
41.5875
44.9214
48.1866
51.3684
54.4546
57.4349
60.2986
63.0346
65.6305
68.0729
70.3472
72.4382
74.3308
76.0104
77.4645
78.6827
79.6583
80.3872
80.8681
81.1038
81.1013
80.872
80.4311
79.7968
78.9901
78.0335
76.9509
75.7661
74.5029
73.1838
71.8303
70.4619
69.0963
67.7491
66.4335
65.1608
63.9402
62.7787
61.682
60.6538
59.6967
58.8119
57.9998
57.2599
56.5909
55.9912
55.4586
54.9907
54.585
54.2388
53.9495
53.7144
53.5306
53.3953
53.3057
53.2592
53.2531
53.2851
53.353
53.4545
53.5877
53.7505
53.9413
54.1581
54.3993
54.6634
54.949
55.2547
55.5791
55.9213
56.28
56.6544
57.0436
57.4467
57.8633
58.2927
58.7344
59.1881
59.6535
60.1303
60.6184
61.1176
61.6278
62.1491
62.6814
63.2247
63.779
64.3441
64.9201
65.5068
66.1041
66.7117
67.3293
67.9567
68.5933
69.2387
69.8925
70.5539
71.2224
71.8973
72.5778
73.2633
73.953
74.6461
75.342
76.0399
76.7392
77.4393
78.1397
78.8398
79.5393
80.2378
80.9352
81.6313
82.3259
83.0193
83.7113
84.4023
85.0925
85.7823
86.4722
87.1625
87.854
88.5473
89.2431
89.9421
90.6454
91.3538
92.0685
92.7903
93.5207
94.2609
95.0122
95.7762
96.5543
97.3482
98.1596
98.9903
99.842
100.717
101.616
102.542
103.495
104.478
105.492
106.537
107.613
108.721
109.859
111.025
112.217
113.43
114.659
115.896
117.131
118.355
119.553
120.71
121.807
122.823
123.737
124.521
125.15
125.595
125.826
125.811
125.52
124.923
123.99
122.695
121.017
118.938
116.444
113.53
110.193
106.44
102.28
97.7295
92.8113
87.5522
81.9867
76.1589
70.1274
63.9745
57.8192
51.8399
46.3149
41.7212
39.1034
42.2354
82.3577
45.7673
25.306
24.0272
25.6244
28.1566
31.1123
34.2733
37.5187
40.7729
43.9866
47.1278
50.1765
53.1206
55.9528
58.6689
61.2655
63.739
66.0845
68.2954
70.3633
72.2781
74.0283
75.6018
76.9867
78.1718
79.1477
79.9072
80.445
80.7606
80.8572
80.7419
80.4255
79.9221
79.2485
78.4237
77.4682
76.4036
75.2514
74.033
72.7688
71.4781
70.1785
68.8858
67.614
66.375
65.179
64.034
62.9466
61.9216
60.9626
60.0716
59.2498
58.4975
57.8141
57.1985
56.6492
56.1641
55.7411
55.3776
55.0713
54.8195
54.6195
54.4689
54.3648
54.3049
54.2866
54.3077
54.3658
54.4588
54.5846
54.7412
54.9268
55.1396
55.3778
55.6399
55.9244
56.2299
56.555
56.8986
57.2596
57.6369
58.0297
58.437
58.8584
59.293
59.7404
60.2002
60.672
61.1555
61.6505
62.1568
62.6743
63.2029
63.7425
64.2931
64.8546
65.4268
66.0098
66.6033
67.2071
67.8211
68.4449
69.0782
69.7205
70.3715
71.0306
71.6973
72.3708
73.0507
73.7362
74.4266
75.1212
75.8193
76.5203
77.2234
77.9281
78.6337
79.3398
80.0459
80.7517
81.4567
82.1608
82.8637
83.5655
84.2662
84.9658
85.6644
86.3625
87.0602
87.758
88.4563
89.1558
89.8571
90.5608
91.2678
91.979
92.6952
93.4174
94.1469
94.8847
95.6323
96.3909
97.162
97.9471
98.748
99.5663
100.404
101.262
102.144
103.05
103.982
104.942
105.931
106.951
108.002
109.085
110.199
111.343
112.515
113.712
114.931
116.165
117.407
118.647
119.876
121.08
122.243
123.347
124.373
125.298
126.097
126.745
127.213
127.474
127.499
127.259
126.728
125.88
124.691
123.144
121.222
118.915
116.216
113.124
109.641
105.773
101.531
96.9276
91.9819
86.7185
81.1732
75.3991
69.4778
63.5354
57.7691
52.4981
48.2947
46.4698
51.8767
104.31
45.7683
25.307
24.0283
25.6256
28.1577
31.1134
34.2744
37.5198
40.7739
43.9875
47.1287
50.1774
53.1213
55.9534
58.6694
61.266
63.7393
66.0847
68.2956
70.3634
72.2781
74.0282
75.6017
76.9865
78.1715
79.1474
79.9068
80.4446
80.7601
80.8567
80.7414
80.425
79.9216
79.2479
78.4231
77.4677
76.403
75.2509
74.0325
72.7683
71.4776
70.178
68.8853
67.6135
66.3746
65.1786
64.0337
62.9463
61.9213
60.9623
60.0713
59.2495
58.4972
57.8138
57.1983
56.649
56.1639
55.7408
55.3774
55.0711
54.8193
54.6194
54.4687
54.3646
54.3047
54.2864
54.3075
54.3656
54.4586
54.5844
54.741
54.9266
55.1394
55.3776
55.6397
55.9242
56.2297
56.5548
56.8984
57.2594
57.6367
58.0295
58.4368
58.8582
59.2928
59.7402
60.2
60.6718
61.1553
61.6503
62.1566
62.6741
63.2027
63.7423
64.2929
64.8544
65.4266
66.0096
66.603
67.2069
67.8209
68.4447
69.0779
69.7203
70.3713
71.0304
71.697
72.3706
73.0505
73.7359
74.4263
75.1209
75.8191
76.52
77.2231
77.9278
78.6334
79.3395
80.0456
80.7514
81.4564
82.1605
82.8634
83.5652
84.2659
84.9655
85.6641
86.3622
87.0599
87.7576
88.456
89.1555
89.8568
90.5605
91.2675
91.9786
92.6948
93.4171
94.1465
94.8844
95.6319
96.3905
97.1616
97.9468
98.7477
99.566
100.404
101.262
102.143
103.049
103.981
104.942
105.931
106.951
108.002
109.085
110.198
111.342
112.515
113.712
114.93
116.164
117.406
118.647
119.876
121.08
122.243
123.347
124.373
125.298
126.097
126.745
127.213
127.474
127.499
127.259
126.728
125.879
124.691
123.143
121.221
118.914
116.215
113.123
109.64
105.773
101.53
96.9272
91.9814
86.7181
81.1728
75.3987
69.4773
63.5349
57.7687
52.4977
48.2942
46.4691
51.8758
104.308
54.5924
29.9578
27.8467
29.1306
31.493
34.3234
37.3642
40.4754
43.5708
46.5959
49.5172
52.3156
54.9828
57.5171
59.921
62.1987
64.3548
66.3922
68.312
70.1125
71.7894
73.3359
74.7428
76.0002
77.097
78.0228
78.7681
79.3248
79.688
79.8573
79.8355
79.629
79.2472
78.7027
78.0105
77.1875
76.2521
75.2235
74.1209
72.9634
71.7692
70.5555
69.338
68.1308
66.9463
65.795
64.6861
63.6266
62.6223
61.6776
60.7955
59.9779
59.2258
58.5394
57.9181
57.3609
56.8664
56.4327
56.0577
55.7393
55.4749
55.2621
55.0987
54.9821
54.9101
54.8802
54.8904
54.9383
55.0218
55.1389
55.2876
55.4661
55.6725
55.9052
56.1625
56.4429
56.7451
57.0676
57.4092
57.7689
58.1455
58.5381
58.9459
59.3682
59.8042
60.2534
60.7153
61.1894
61.6756
62.1734
62.6826
63.2031
63.7347
64.2772
64.8306
65.3947
65.9693
66.5544
67.1497
67.7551
68.3702
68.9948
69.6285
70.271
70.9217
71.5802
72.2459
72.9183
73.5968
74.2807
74.9693
75.6621
76.3584
77.0575
77.7589
78.4619
79.1661
79.8709
80.5759
81.2807
81.9851
82.6888
83.3918
84.0937
84.7948
85.4951
86.1946
86.8938
87.5927
88.2919
88.9918
89.6928
90.3958
91.1012
91.8099
92.5226
93.2405
93.9643
94.6954
95.4347
96.1837
96.9436
97.716
98.5025
99.3046
100.124
100.963
101.822
102.705
103.612
104.545
105.506
106.497
107.518
108.57
109.654
110.769
111.914
113.088
114.287
115.507
116.743
117.988
119.233
120.467
121.677
122.848
123.964
125.005
125.949
126.774
127.454
127.964
128.278
128.37
128.214
127.788
127.068
126.036
124.676
122.973
120.919
118.507
115.735
112.6
109.103
105.247
101.036
96.4772
91.5849
86.3843
80.9207
75.2719
69.5674
64.019
58.9827
55.1211
54.0013
61.5032
125.512
54.5937
29.9589
27.848
29.1318
31.4942
34.3245
37.3653
40.4765
43.5718
46.5969
49.518
52.3164
54.9835
57.5177
59.9214
62.1991
64.355
66.3923
68.312
70.1125
71.7893
73.3356
74.7426
75.9998
77.0966
78.0223
78.7676
79.3242
79.6874
79.8566
79.8348
79.6283
79.2465
78.702
78.0098
77.1868
76.2514
75.2228
74.1202
72.9627
71.7686
70.5549
69.3374
68.1302
66.9457
65.7945
64.6855
63.6261
62.6219
61.6772
60.7951
59.9775
59.2254
58.539
57.9177
57.3606
56.866
56.4323
56.0574
55.7389
55.4745
55.2618
55.0983
54.9818
54.9097
54.8799
54.89
54.9379
55.0214
55.1385
55.2873
55.4657
55.6722
55.9048
56.1622
56.4426
56.7447
57.0672
57.4089
57.7685
58.1451
58.5378
58.9456
59.3678
59.8038
60.253
60.7149
61.1891
61.6752
62.173
62.6823
63.2027
63.7343
64.2769
64.8302
65.3943
65.9689
66.554
67.1493
67.7547
68.3698
68.9944
69.6281
70.2705
70.9213
71.5797
72.2455
72.9179
73.5964
74.2802
74.9689
75.6617
76.358
77.0571
77.7585
78.4615
79.1656
79.8704
80.5754
81.2803
81.9847
82.6884
83.3913
84.0933
84.7944
85.4946
86.1942
86.8933
87.5922
88.2914
88.9913
89.6924
90.3953
91.1007
91.8094
92.5222
93.24
93.9638
94.6949
95.4342
96.1832
96.9431
97.7155
98.502
99.3041
100.124
100.962
101.822
102.704
103.611
104.544
105.506
106.496
107.517
108.569
109.653
110.768
111.913
113.087
114.286
115.507
116.743
117.988
119.232
120.466
121.676
122.848
123.963
125.004
125.949
126.773
127.454
127.964
128.277
128.369
128.214
127.787
127.068
126.036
124.675
122.972
120.919
118.507
115.734
112.599
109.102
105.246
101.035
96.4767
91.5844
86.3838
80.9201
75.2714
69.5669
64.0185
58.9821
55.1205
54.0004
61.5021
125.51
63.3969
34.5804
31.6784
32.6764
34.8824
37.5881
40.4986
43.4563
46.3664
49.1707
51.8354
54.3439
56.6922
58.8846
60.931
62.8436
64.6349
66.3161
67.8961
69.38
70.7695
72.0627
73.2543
74.3362
75.2988
76.1312
76.8224
77.3623
77.7418
77.9568
78.0062
77.8917
77.6183
77.1942
76.6301
75.9391
75.1362
74.2376
73.2603
72.2212
71.1374
70.025
68.8991
67.7735
66.6609
65.572
64.5162
63.5015
62.5341
61.6191
60.7604
59.9604
59.221
58.5429
57.9262
57.3705
56.8747
56.4376
56.0574
55.7321
55.4598
55.2381
55.0649
54.9381
54.8556
54.8152
54.8148
54.8522
54.9255
55.0327
55.1718
55.3411
55.5387
55.763
56.0124
56.2854
56.5806
56.8966
57.2322
57.5863
57.9578
58.3457
58.7493
59.1676
59.6
60.0459
60.5047
60.976
61.4594
61.9546
62.4612
62.979
63.5077
64.0473
64.5974
65.1579
65.7287
66.3095
66.9001
67.5003
68.1098
68.7282
69.3553
69.9906
70.6336
71.284
71.9413
72.6047
73.274
73.9483
74.6272
75.3101
75.9963
76.6853
77.3766
78.0695
78.7638
79.4588
80.1543
80.8499
81.5452
82.2402
82.9346
83.6285
84.3217
85.0143
85.7065
86.3985
87.0906
87.7831
88.4764
89.1711
89.8676
90.5668
91.2692
91.9758
92.6874
93.4051
94.1298
94.8628
95.6054
96.3588
97.1247
97.9045
98.6999
99.5126
100.344
101.197
102.072
102.972
103.898
104.852
105.836
106.849
107.895
108.971
110.08
111.218
112.386
113.579
114.794
116.026
117.268
118.512
119.747
120.961
122.14
123.268
124.326
125.296
126.155
126.881
127.45
127.839
128.025
127.987
127.705
127.16
126.337
125.221
123.802
122.071
120.022
117.648
114.943
111.903
108.521
104.789
100.705
96.2677
91.4922
86.4133
81.1024
75.6888
70.395
65.6093
62.0779
61.6066
71.0141
145.426
63.3985
34.5817
31.6798
32.6776
34.8836
37.5892
40.4997
43.4573
46.3674
49.1716
51.8362
54.3445
56.6927
58.8851
60.9314
62.8438
64.635
66.3162
67.896
69.3798
70.7693
72.0624
73.2539
74.3358
75.2983
76.1306
76.8218
77.3616
77.741
77.956
78.0054
77.8909
77.6175
77.1934
76.6293
75.9383
75.1354
74.2368
73.2594
72.2204
71.1367
70.0242
68.8983
67.7728
66.6602
65.5713
64.5155
63.5008
62.5335
61.6185
60.7598
59.9598
59.2204
58.5423
57.9257
57.37
56.8742
56.4371
56.0569
55.7317
55.4593
55.2376
55.0644
54.9376
54.8551
54.8147
54.8143
54.8517
54.925
55.0322
55.1713
55.3406
55.5382
55.7625
56.0119
56.2849
56.5801
56.8961
57.2317
57.5858
57.9573
58.3453
58.7488
59.1671
59.5995
60.0454
60.5042
60.9755
61.4589
61.9541
62.4607
62.9785
63.5072
64.0468
64.5969
65.1574
65.7282
66.309
66.8996
67.4998
68.1092
68.7277
69.3548
69.99
70.6331
71.2835
71.9407
72.6042
73.2734
73.9478
74.6266
75.3095
75.9957
76.6847
77.376
78.069
78.7632
79.4583
80.1537
80.8493
81.5446
82.2396
82.9341
83.6279
84.3211
85.0137
85.7059
86.3979
87.09
87.7825
88.4758
89.1704
89.867
90.5662
91.2686
91.9752
92.6868
93.4044
94.1292
94.8622
95.6047
96.3582
97.1241
97.9039
98.6992
99.5119
100.344
101.196
102.072
102.972
103.898
104.852
105.835
106.849
107.894
108.971
110.079
111.218
112.385
113.578
114.794
116.026
117.268
118.511
119.746
120.96
122.139
123.267
124.326
125.296
126.155
126.881
127.449
127.838
128.025
127.987
127.705
127.16
126.336
125.22
123.801
122.07
120.021
117.647
114.943
111.903
108.52
104.789
100.704
96.2671
91.4916
86.4127
81.1018
75.6882
70.3944
65.6086
62.0771
61.6055
71.0128
145.423
72.0588
39.1153
35.4502
36.1737
38.2231
40.7941
43.5559
46.3351
49.03
51.5802
53.9529
56.1349
58.1274
59.9415
61.5942
63.1057
64.4968
65.7866
66.9914
68.1231
69.1894
70.1931
71.1326
72.0026
72.7945
73.4978
74.1007
74.5916
74.9576
75.1916
75.2882
75.2451
75.0629
74.7454
74.2991
73.7333
73.0594
72.2904
71.4407
70.5251
69.5587
68.5565
67.5326
66.5004
65.472
64.4584
63.4691
62.5124
61.595
60.7226
59.8994
59.1288
58.413
57.7534
57.1508
56.6051
56.1159
55.6823
55.303
54.9763
54.7006
54.4739
54.2942
54.1599
54.0688
54.0191
54.0088
54.036
54.0986
54.195
54.3231
54.4814
54.668
54.8813
55.1199
55.3823
55.667
55.9727
56.2983
56.6426
57.0045
57.3831
57.7776
58.187
58.6107
59.048
59.4984
59.9613
60.4362
60.9229
61.4209
61.9299
62.4497
62.98
63.5205
64.0709
64.6312
65.201
65.78
66.368
66.9647
67.5698
68.1829
68.8036
69.4315
70.0661
70.707
71.3538
72.0058
72.6626
73.3237
73.9884
74.6564
75.3271
76
76.6746
77.3506
78.0275
78.7051
79.3829
80.0609
80.7387
81.4163
82.0936
82.7705
83.4472
84.1238
84.8004
85.4773
86.1548
86.8334
87.5134
88.1955
88.8803
89.5684
90.2606
90.9579
91.6611
92.3715
93.09
93.8179
94.5567
95.3078
96.0726
96.8529
97.6504
98.4667
99.3038
100.163
101.047
101.958
102.895
103.863
104.86
105.889
106.95
108.042
109.165
110.317
111.496
112.699
113.919
115.151
116.387
117.618
118.832
120.016
121.155
122.234
123.234
124.136
124.918
125.561
126.046
126.352
126.463
126.361
126.033
125.465
124.648
123.572
122.229
120.612
118.71
116.515
114.013
111.187
108.021
104.496
100.6
96.3345
91.7212
86.8233
81.7667
76.7808
72.2815
69.0914
69.2384
80.4123
164.406
72.0604
39.1167
35.4517
36.175
38.2244
40.7953
43.557
46.3361
49.0309
51.581
53.9536
56.1355
58.1279
59.9418
61.5944
63.1058
64.4968
65.7865
66.9912
68.1228
69.189
70.1927
71.1321
72.002
72.7939
73.4971
74.1
74.5908
74.9568
75.1907
75.2873
75.2442
75.062
74.7445
74.2982
73.7324
73.0585
72.2895
71.4398
70.5242
69.5579
68.5557
67.5318
66.4996
65.4712
64.4576
63.4684
62.5117
61.5943
60.7219
59.8987
59.1281
58.4123
57.7528
57.1502
56.6045
56.1153
55.6817
55.3024
54.9758
54.7001
54.4733
54.2937
54.1593
54.0682
54.0185
54.0082
54.0354
54.0981
54.1944
54.3226
54.4808
54.6674
54.8808
55.1194
55.3817
55.6664
55.9721
56.2977
56.642
57.0039
57.3826
57.777
58.1864
58.6101
59.0474
59.4978
59.9607
60.4356
60.9223
61.4203
61.9293
62.4491
62.9794
63.5199
64.0703
64.6306
65.2003
65.7794
66.3674
66.9641
67.5692
68.1822
68.8029
69.4308
70.0655
70.7064
71.3531
72.0052
72.662
73.323
73.9878
74.6557
75.3264
75.9993
76.6739
77.3499
78.0268
78.7044
79.3822
80.0602
80.738
81.4156
82.0929
82.7698
83.4465
84.1231
84.7997
85.4766
86.1541
86.8327
87.5127
88.1948
88.8795
89.5676
90.2599
90.9572
91.6604
92.3707
93.0892
93.8172
94.556
95.3071
96.0719
96.8522
97.6496
98.466
99.3031
100.163
101.047
101.957
102.895
103.862
104.859
105.888
106.949
108.041
109.164
110.317
111.496
112.698
113.918
115.15
116.386
117.617
118.831
120.015
121.155
122.234
123.233
124.135
124.918
125.561
126.045
126.351
126.462
126.36
126.032
125.465
124.648
123.572
122.229
120.611
118.71
116.514
114.012
111.186
108.02
104.495
100.6
96.3338
91.7206
86.8226
81.766
76.78
72.2806
69.0905
69.2372
80.4108
164.403
80.5577
43.5198
39.1077
39.5597
41.4463
43.8687
46.4618
49.0381
51.4904
53.7574
55.8087
57.6353
59.2443
60.6536
61.8877
62.9747
63.9433
64.8201
65.6282
66.3861
67.1069
67.7978
68.4609
69.0933
69.688
70.2349
70.7218
71.1358
71.4618
71.6889
71.8086
71.8146
71.7034
71.4748
71.1313
70.6783
70.1238
69.4776
68.7513
67.9574
67.1091
66.2196
65.3021
64.369
63.4319
62.5016
61.5874
60.6978
59.8398
59.0193
58.2411
57.509
56.8256
56.193
55.6124
55.0841
54.6083
54.1843
53.8114
53.4883
53.2136
52.9856
52.8027
52.6634
52.5658
52.5084
52.4892
52.5065
52.5585
52.6434
52.7597
52.9055
53.0794
53.2797
53.505
53.7539
54.025
54.3171
54.629
54.9596
55.3079
55.6729
56.0537
56.4495
56.8596
57.2833
57.72
58.1692
58.6303
59.1029
59.5866
60.081
60.5859
61.1008
61.6255
62.1596
62.703
63.2553
63.8162
64.3854
64.9626
65.5475
66.1397
66.7389
67.3446
67.9564
68.5739
69.1967
69.8243
70.4562
71.0921
71.7314