/*--------------------------------*- C++ -*----------------------------------*\
  =========                 |
  \\      /  F ield         | OpenFOAM: The Open Source CFD Toolbox
   \\    /   O peration     | Website:  https://openfoam.org
    \\  /    A nd           | Version:  8
     \\/     M anipulation  |
\*---------------------------------------------------------------------------*/
FoamFile
{
    version     2.0;
    format      ascii;
    class       volScalarField;
    location    "800";
    object      k;
}
// * * * * * * * * * * * * * * * * * * * * * * * * * * * * * * * * * * * * * //

dimensions      [0 2 -2 0 0 0 0];

internalField   nonuniform List<scalar> 
46000
(
0.00178205
0.0077365
0.0161681
0.0255111
0.0355709
0.045494
0.0551981
0.0645373
0.0732852
0.0815561
0.0893428
0.0966289
0.103397
0.109633
0.115324
0.120458
0.125029
0.129034
0.132474
0.135355
0.137686
0.139481
0.140759
0.141539
0.141851
0.141831
0.141514
0.140855
0.139863
0.138568
0.137011
0.135231
0.133273
0.131178
0.128984
0.126727
0.124442
0.122158
0.1199
0.117691
0.115549
0.11349
0.111525
0.109662
0.107909
0.10627
0.104745
0.103335
0.10204
0.100857
0.0997837
0.098816
0.0979503
0.0971823
0.0965077
0.095922
0.0954206
0.0949991
0.094653
0.094383
0.0941984
0.0940801
0.0940209
0.0940171
0.0940656
0.0941638
0.0943092
0.0944994
0.0947321
0.095005
0.0953161
0.0956632
0.0960444
0.0964578
0.0969017
0.0973744
0.0978743
0.0984002
0.0989506
0.0995245
0.100121
0.100739
0.101378
0.102038
0.102717
0.103416
0.104134
0.104872
0.105628
0.106403
0.107197
0.10801
0.108841
0.109691
0.11056
0.111447
0.112352
0.113274
0.114213
0.115168
0.116139
0.117124
0.118122
0.119133
0.120155
0.121187
0.122227
0.123275
0.124328
0.125385
0.126445
0.127508
0.12857
0.129633
0.130694
0.131753
0.13281
0.133863
0.134913
0.13596
0.137003
0.138042
0.139078
0.140112
0.141143
0.142173
0.143202
0.144232
0.145262
0.146295
0.147331
0.148371
0.149418
0.150472
0.151534
0.152607
0.153692
0.154791
0.155907
0.15704
0.158193
0.15937
0.160571
0.161801
0.163063
0.164358
0.16569
0.167063
0.16848
0.169943
0.171455
0.17302
0.17464
0.176316
0.17805
0.179841
0.181689
0.183591
0.185544
0.187542
0.189576
0.191636
0.193708
0.195775
0.197816
0.199806
0.201715
0.203511
0.205153
0.2066
0.207803
0.208712
0.209281
0.209511
0.209316
0.208611
0.207325
0.205396
0.202769
0.199391
0.195221
0.190224
0.184377
0.177673
0.170117
0.161734
0.152565
0.14267
0.132131
0.121043
0.109524
0.0976997
0.0857061
0.0736488
0.0613626
0.0494585
0.0375484
0.0256496
0.0138169
0.00341585
0.001782
0.00773697
0.0161689
0.025512
0.0355718
0.0454953
0.0551999
0.0645395
0.0732878
0.0815589
0.0893459
0.0966321
0.103401
0.109637
0.115327
0.120461
0.125032
0.129037
0.132477
0.135358
0.137688
0.139484
0.140761
0.141541
0.141853
0.141833
0.141516
0.140857
0.139864
0.13857
0.137012
0.135233
0.133275
0.131179
0.128985
0.126729
0.124443
0.122159
0.119901
0.117692
0.11555
0.113491
0.111526
0.109664
0.107911
0.106271
0.104746
0.103337
0.102042
0.100859
0.0997854
0.0988178
0.097952
0.0971841
0.0965094
0.0959237
0.0954224
0.0950008
0.0946547
0.0943848
0.0942002
0.0940819
0.0940228
0.094019
0.0940675
0.0941657
0.0943111
0.0945013
0.094734
0.0950069
0.095318
0.0956651
0.0960463
0.0964597
0.0969036
0.0973763
0.0978763
0.0984021
0.0989526
0.0995265
0.100123
0.100741
0.10138
0.10204
0.102719
0.103418
0.104136
0.104873
0.10563
0.106405
0.107199
0.108011
0.108843
0.109693
0.110562
0.111449
0.112354
0.113276
0.114215
0.11517
0.116141
0.117126
0.118124
0.119135
0.120157
0.121189
0.122229
0.123276
0.124329
0.125387
0.126447
0.127509
0.128572
0.129634
0.130695
0.131755
0.132811
0.133865
0.134915
0.135961
0.137004
0.138044
0.13908
0.140113
0.141145
0.142175
0.143204
0.144233
0.145264
0.146296
0.147332
0.148373
0.149419
0.150473
0.151536
0.152609
0.153694
0.154793
0.155908
0.157041
0.158195
0.159371
0.160573
0.161803
0.163065
0.16436
0.165692
0.167065
0.168482
0.169945
0.171457
0.173022
0.174642
0.176318
0.178052
0.179843
0.181691
0.183593
0.185546
0.187544
0.189578
0.191638
0.19371
0.195777
0.197818
0.199808
0.201717
0.203513
0.205155
0.206602
0.207805
0.208714
0.209283
0.209513
0.209318
0.208613
0.207327
0.205398
0.202771
0.199393
0.195223
0.190226
0.184379
0.177675
0.170119
0.161735
0.152566
0.142672
0.132132
0.121044
0.109524
0.0977006
0.0857069
0.0736496
0.0613634
0.0494592
0.0375491
0.0256505
0.0138179
0.00341618
0.00767561
0.0378681
0.0641095
0.0878662
0.109879
0.130411
0.14965
0.167742
0.184735
0.200679
0.215603
0.229523
0.242446
0.254372
0.265301
0.27523
0.284155
0.292078
0.299002
0.304935
0.309891
0.313889
0.316952
0.319109
0.320391
0.320821
0.320547
0.319605
0.318048
0.315938
0.313342
0.310333
0.30698
0.303354
0.299522
0.295547
0.291487
0.287395
0.28332
0.279302
0.275377
0.271577
0.267925
0.264442
0.261142
0.258036
0.255132
0.252433
0.249941
0.247654
0.24557
0.243683
0.24199
0.240482
0.239153
0.237996
0.237002
0.236164
0.235473
0.234921
0.234506
0.23422
0.234055
0.234002
0.234057
0.234212
0.234462
0.234802
0.235227
0.235733
0.236313
0.236965
0.237683
0.238463
0.239303
0.240198
0.241144
0.242139
0.243181
0.244266
0.245392
0.246557
0.24776
0.248999
0.250273
0.25158
0.252921
0.254294
0.2557
0.257136
0.258604
0.260103
0.261633
0.263193
0.264784
0.266404
0.268053
0.26973
0.271434
0.273165
0.27492
0.276698
0.278497
0.280316
0.282153
0.284005
0.28587
0.287745
0.289629
0.291519
0.293412
0.295307
0.297201
0.299092
0.30098
0.302862
0.304737
0.306605
0.308464
0.310314
0.312155
0.313987
0.31581
0.317625
0.319433
0.321235
0.323032
0.324825
0.326616
0.328407
0.3302
0.331997
0.3338
0.335611
0.337433
0.339269
0.341121
0.342993
0.344888
0.346809
0.34876
0.350746
0.352769
0.354835
0.356949
0.359114
0.361337
0.363621
0.365972
0.368395
0.370893
0.373471
0.376133
0.37888
0.381714
0.384634
0.38764
0.390726
0.393886
0.397111
0.400386
0.403695
0.407015
0.41032
0.413578
0.416749
0.419788
0.422645
0.425259
0.427565
0.429493
0.430966
0.43191
0.432237
0.431831
0.430594
0.428428
0.425237
0.420929
0.415421
0.408636
0.400512
0.391
0.380067
0.367702
0.35391
0.338722
0.322186
0.304372
0.285368
0.265272
0.244192
0.222227
0.199448
0.175853
0.151286
0.124973
0.0956117
0.0604078
0.0140622
0.00767526
0.0378692
0.0641113
0.0878683
0.109881
0.130414
0.149653
0.167744
0.184738
0.200682
0.215606
0.229526
0.242448
0.254375
0.265304
0.275233
0.284158
0.292081
0.299005
0.304938
0.309894
0.313891
0.316955
0.319112
0.320393
0.320823
0.320549
0.319607
0.31805
0.31594
0.313344
0.310335
0.306982
0.303356
0.299524
0.295549
0.291489
0.287397
0.283322
0.279304
0.275379
0.271579
0.267927
0.264444
0.261144
0.258038
0.255134
0.252435
0.249943
0.247656
0.245572
0.243686
0.241992
0.240484
0.239156
0.237998
0.237005
0.236166
0.235476
0.234923
0.234509
0.234223
0.234057
0.234005
0.234059
0.234214
0.234464
0.234805
0.23523
0.235735
0.236316
0.236967
0.237685
0.238466
0.239305
0.2402
0.241147
0.242142
0.243183
0.244268
0.245394
0.24656
0.247762
0.249001
0.250275
0.251583
0.252924
0.254297
0.255702
0.257139
0.258607
0.260106
0.261635
0.263196
0.264786
0.266406
0.268055
0.269732
0.271437
0.273167
0.274922
0.2767
0.2785
0.280319
0.282155
0.284007
0.285872
0.287747
0.289631
0.291521
0.293414
0.295309
0.297203
0.299094
0.300982
0.302864
0.304739
0.306607
0.308466
0.310316
0.312157
0.313989
0.315812
0.317627
0.319435
0.321237
0.323034
0.324827
0.326618
0.328409
0.330202
0.331999
0.333802
0.335613
0.337435
0.339271
0.341123
0.342995
0.34489
0.346811
0.348762
0.350747
0.352771
0.354837
0.35695
0.359116
0.361338
0.363623
0.365974
0.368396
0.370895
0.373473
0.376134
0.378881
0.381715
0.384636
0.387641
0.390727
0.393888
0.397112
0.400387
0.403696
0.407016
0.410322
0.413579
0.41675
0.41979
0.422646
0.42526
0.427567
0.429494
0.430967
0.431911
0.432239
0.431833
0.430596
0.42843
0.425239
0.420931
0.415423
0.408638
0.400514
0.391002
0.380069
0.367703
0.353912
0.338723
0.322187
0.304374
0.285369
0.265273
0.244193
0.222228
0.19945
0.175854
0.151287
0.124974
0.0956125
0.0604086
0.0140624
0.014758
0.0619531
0.0969096
0.12644
0.153568
0.179045
0.203091
0.225789
0.247174
0.267268
0.286091
0.303654
0.319969
0.335042
0.348878
0.361481
0.372857
0.38301
0.39195
0.399687
0.406239
0.411626
0.415875
0.419016
0.421086
0.422126
0.422217
0.421452
0.419895
0.417622
0.414711
0.411247
0.407315
0.402999
0.398382
0.393541
0.388551
0.38348
0.37839
0.373336
0.368367
0.363525
0.358846
0.354358
0.350085
0.346043
0.342247
0.338703
0.335418
0.332391
0.329621
0.327105
0.324837
0.32281
0.321017
0.319447
0.318093
0.316943
0.315989
0.31522
0.314627
0.314205
0.313942
0.31383
0.31386
0.314024
0.314315
0.314725
0.315247
0.315876
0.316604
0.317426
0.318335
0.319328
0.320397
0.321539
0.322749
0.324023
0.325357
0.326747
0.328191
0.329685
0.331228
0.332817
0.33445
0.336127
0.337845
0.339604
0.341403
0.343242
0.345119
0.347036
0.34899
0.350981
0.35301
0.355075
0.357176
0.359312
0.361481
0.363682
0.365913
0.368173
0.370459
0.372769
0.375101
0.377452
0.379819
0.3822
0.384591
0.386989
0.389393
0.391798
0.394203
0.396606
0.399003
0.401394
0.403776
0.406149
0.408511
0.410861
0.413201
0.415528
0.417844
0.42015
0.422446
0.424734
0.427014
0.429289
0.431561
0.433832
0.436104
0.438379
0.440661
0.442952
0.445255
0.447575
0.449914
0.452276
0.454666
0.457087
0.459546
0.462045
0.464591
0.46719
0.469846
0.472566
0.475356
0.478222
0.481169
0.484204
0.487333
0.490559
0.493887
0.49732
0.500859
0.504505
0.508253
0.5121
0.516037
0.520051
0.524126
0.52824
0.532368
0.536475
0.540521
0.544461
0.548238
0.55179
0.555045
0.557926
0.560345
0.56221
0.563429
0.563879
0.563444
0.562008
0.559455
0.555673
0.550554
0.543998
0.535915
0.526229
0.514878
0.501819
0.487028
0.470499
0.452247
0.432304
0.410719
0.387553
0.362878
0.336764
0.309279
0.280465
0.250306
0.218633
0.184866
0.147416
0.100519
0.0290096
0.0147578
0.0619545
0.096912
0.126443
0.153572
0.179049
0.203094
0.225792
0.247177
0.267272
0.286094
0.303658
0.319972
0.335045
0.348881
0.361484
0.37286
0.383013
0.391952
0.39969
0.406242
0.411629
0.415877
0.419018
0.421089
0.422128
0.422219
0.421454
0.419897
0.417624
0.414713
0.411249
0.407317
0.403001
0.398384
0.393543
0.388553
0.383482
0.378392
0.373338
0.368369
0.363527
0.358848
0.35436
0.350087
0.346046
0.342249
0.338706
0.33542
0.332393
0.329623
0.327107
0.324839
0.322813
0.321019
0.31945
0.318095
0.316946
0.315992
0.315223
0.31463
0.314207
0.313945
0.313832
0.313862
0.314026
0.314317
0.314727
0.31525
0.315878
0.316606
0.317428
0.318338
0.31933
0.320399
0.321541
0.322751
0.324025
0.325359
0.326749
0.328193
0.329687
0.33123
0.332819
0.334452
0.336129
0.337847
0.339606
0.341405
0.343244
0.345122
0.347038
0.348992
0.350984
0.353012
0.355078
0.357178
0.359314
0.361483
0.363684
0.365915
0.368175
0.370461
0.372771
0.375103
0.377454
0.379821
0.382202
0.384593
0.386991
0.389395
0.3918
0.394205
0.396608
0.399005
0.401396
0.403778
0.406151
0.408513
0.410863
0.413202
0.41553
0.417846
0.420152
0.422448
0.424736
0.427016
0.429291
0.431563
0.433834
0.436105
0.438381
0.440662
0.442953
0.445257
0.447576
0.449915
0.452278
0.454667
0.457089
0.459547
0.462047
0.464593
0.467191
0.469848
0.472568
0.475357
0.478223
0.48117
0.484206
0.487334
0.49056
0.493888
0.497321
0.500861
0.504506
0.508255
0.512101
0.516038
0.520052
0.524127
0.528242
0.532369
0.536476
0.540523
0.544462
0.548239
0.551791
0.555047
0.557927
0.560346
0.562212
0.563431
0.563881
0.563445
0.562009
0.559457
0.555675
0.550556
0.544
0.535917
0.52623
0.51488
0.501821
0.48703
0.470501
0.452248
0.432305
0.41072
0.387555
0.362879
0.336765
0.30928
0.280466
0.250307
0.218634
0.184867
0.147416
0.100519
0.0290094
0.0216897
0.0821293
0.123002
0.156707
0.187497
0.216408
0.24373
0.269538
0.293846
0.316659
0.337984
0.357833
0.376224
0.393175
0.408709
0.422846
0.435608
0.447017
0.457094
0.465861
0.473344
0.479569
0.484565
0.488366
0.49101
0.492539
0.493006
0.492512
0.491126
0.488925
0.485991
0.482413
0.478278
0.473678
0.4687
0.463431
0.457952
0.452339
0.446666
0.440995
0.435385
0.429886
0.424543
0.419391
0.414462
0.409778
0.405358
0.401214
0.397357
0.393788
0.39051
0.387521
0.384816
0.382388
0.380231
0.378335
0.376689
0.375284
0.374109
0.373153
0.372404
0.371855
0.371495
0.371313
0.371301
0.371449
0.371747
0.372187
0.372762
0.373463
0.374283
0.375214
0.37625
0.377384
0.378611
0.379924
0.381317
0.382787
0.384327
0.385935
0.387606
0.389337
0.391125
0.392967
0.394862
0.396807
0.3988
0.400841
0.402928
0.405061
0.407238
0.409459
0.411723
0.41403
0.416379
0.418769
0.421199
0.423668
0.426175
0.428718
0.431294
0.433903
0.436541
0.439206
0.441895
0.444606
0.447335
0.450079
0.452836
0.455601
0.458372
0.461145
0.463919
0.46669
0.469455
0.472214
0.474963
0.477702
0.480429
0.483144
0.485846
0.488535
0.491211
0.493876
0.49653
0.499174
0.50181
0.50444
0.507065
0.509689
0.512314
0.514943
0.517579
0.520225
0.522884
0.525562
0.528261
0.530987
0.533743
0.536536
0.53937
0.542251
0.545185
0.548179
0.551238
0.55437
0.557582
0.560881
0.564273
0.567765
0.571363
0.575073
0.578899
0.582845
0.586912
0.5911
0.595406
0.599823
0.604342
0.60895
0.613627
0.618349
0.623085
0.627799
0.632445
0.636971
0.641314
0.645404
0.649162
0.652501
0.655322
0.657525
0.659
0.659617
0.659253
0.657784
0.655086
0.651037
0.645523
0.638435
0.629679
0.619169
0.606837
0.592631
0.576512
0.558461
0.538473
0.516554
0.492723
0.467006
0.439434
0.410044
0.37887
0.345936
0.311223
0.27457
0.235395
0.191818
0.136779
0.0458786
0.02169
0.0821308
0.123005
0.15671
0.1875
0.216412
0.243734
0.269541
0.29385
0.316663
0.337988
0.357837
0.376227
0.393178
0.408712
0.422849
0.435611
0.44702
0.457096
0.465864
0.473347
0.479571
0.484567
0.488368
0.491011
0.492541
0.493008
0.492514
0.491127
0.488926
0.485992
0.482414
0.47828
0.473679
0.468702
0.463432
0.457953
0.452341
0.446667
0.440996
0.435386
0.429888
0.424544
0.419393
0.414463
0.409779
0.405359
0.401216
0.397358
0.39379
0.390512
0.387523
0.384818
0.38239
0.380233
0.378337
0.376691
0.375286
0.374111
0.373155
0.372406
0.371857
0.371497
0.371315
0.371303
0.371451
0.371749
0.372189
0.372764
0.373465
0.374285
0.375216
0.376252
0.377386
0.378613
0.379925
0.381319
0.382788
0.384329
0.385937
0.387608
0.389339
0.391127
0.392969
0.394864
0.396808
0.398802
0.400843
0.40293
0.405062
0.40724
0.409461
0.411725
0.414032
0.416381
0.418771
0.421201
0.42367
0.426177
0.428719
0.431296
0.433904
0.436542
0.439207
0.441897
0.444608
0.447337
0.450081
0.452837
0.455602
0.458373
0.461147
0.46392
0.466691
0.469457
0.472215
0.474964
0.477703
0.48043
0.483145
0.485847
0.488536
0.491213
0.493877
0.496531
0.499175
0.501811
0.504441
0.507067
0.509691
0.512316
0.514944
0.51758
0.520226
0.522886
0.525563
0.528262
0.530988
0.533744
0.536537
0.539371
0.542252
0.545186
0.54818
0.551239
0.554371
0.557583
0.560882
0.564274
0.567766
0.571364
0.575074
0.5789
0.582846
0.586913
0.591101
0.595407
0.599824
0.604343
0.608951
0.613628
0.61835
0.623086
0.6278
0.632446
0.636972
0.641315
0.645405
0.649164
0.652502
0.655324
0.657526
0.659002
0.659619
0.659255
0.657786
0.655087
0.651038
0.645524
0.638437
0.62968
0.61917
0.606839
0.592632
0.576513
0.558463
0.538474
0.516555
0.492724
0.467007
0.439435
0.410045
0.378871
0.345936
0.311223
0.27457
0.235395
0.191817
0.136778
0.0458781
0.028684
0.100024
0.146234
0.1837
0.217583
0.249238
0.279057
0.30714
0.3335
0.358135
0.381052
0.402272
0.421826
0.439756
0.456107
0.470928
0.484267
0.49617
0.506682
0.515843
0.523692
0.530267
0.535603
0.539737
0.542706
0.54455
0.545313
0.545076
0.54391
0.541887
0.539086
0.53559
0.531487
0.526863
0.521807
0.516405
0.510743
0.504899
0.49895
0.492966
0.487009
0.481136
0.475398
0.469836
0.464487
0.459381
0.45454
0.449982
0.445719
0.44176
0.438108
0.434764
0.431725
0.428987
0.426542
0.424382
0.422499
0.42088
0.419516
0.418395
0.417504
0.416836
0.416379
0.416122
0.416055
0.416167
0.41645
0.416893
0.417488
0.418226
0.419099
0.420098
0.421215
0.422444
0.423778
0.42521
0.426733
0.428343
0.430034
0.431801
0.433639
0.435546
0.437517
0.43955
0.441641
0.443789
0.445991
0.448247
0.450553
0.45291
0.455316
0.45777
0.460271
0.462818
0.465411
0.468048
0.470729
0.47345
0.476212
0.479013
0.481849
0.484719
0.487621
0.490551
0.493507
0.496486
0.499484
0.502498
0.505525
0.508562
0.511605
0.514651
0.517697
0.52074
0.523778
0.526809
0.529831
0.532842
0.535841
0.538828
0.541801
0.544761
0.547708
0.550642
0.553566
0.556479
0.559384
0.562282
0.565177
0.568069
0.570963
0.573862
0.576767
0.579684
0.582616
0.585568
0.588543
0.591547
0.594586
0.597663
0.600786
0.603961
0.607194
0.610493
0.613864
0.617316
0.620855
0.62449
0.628227
0.632075
0.63604
0.640128
0.644345
0.648693
0.653175
0.65779
0.662534
0.667403
0.672384
0.677463
0.68262
0.687828
0.693055
0.698259
0.703394
0.708401
0.713215
0.71776
0.721953
0.725699
0.728896
0.731434
0.733196
0.734051
0.733872
0.732533
0.729907
0.725871
0.720308
0.713108
0.704172
0.693412
0.680753
0.666131
0.649495
0.630804
0.610025
0.587132
0.562102
0.534915
0.505555
0.47401
0.440276
0.404345
0.366176
0.325578
0.281879
0.232859
0.170286
0.0630552
0.0286845
0.100026
0.146237
0.183703
0.217587
0.249242
0.279061
0.307144
0.333503
0.358138
0.381056
0.402275
0.42183
0.439759
0.45611
0.470931
0.484269
0.496172
0.506684
0.515845
0.523694
0.530269
0.535605
0.539738
0.542707
0.544551
0.545313
0.545077
0.543911
0.541887
0.539086
0.535591
0.531487
0.526863
0.521808
0.516406
0.510744
0.5049
0.498951
0.492967
0.48701
0.481137
0.475399
0.469837
0.464488
0.459382
0.454541
0.449983
0.445721
0.441761
0.43811
0.434765
0.431726
0.428988
0.426543
0.424384
0.4225
0.420882
0.419517
0.418396
0.417506
0.416837
0.41638
0.416123
0.416056
0.416168
0.416451
0.416895
0.41749
0.418228
0.4191
0.420099
0.421217
0.422446
0.423779
0.425211
0.426734
0.428344
0.430035
0.431802
0.433641
0.435547
0.437519
0.439551
0.441642
0.44379
0.445993
0.448248
0.450554
0.452911
0.455317
0.457771
0.460272
0.462819
0.465412
0.468049
0.47073
0.473452
0.476214
0.479014
0.48185
0.48472
0.487622
0.490552
0.493508
0.496487
0.499485
0.502499
0.505526
0.508563
0.511606
0.514651
0.517697
0.520741
0.523779
0.52681
0.529832
0.532843
0.535842
0.538828
0.541802
0.544762
0.547708
0.550643
0.553566
0.55648
0.559385
0.562283
0.565177
0.56807
0.570964
0.573862
0.576768
0.579685
0.582617
0.585569
0.588544
0.591548
0.594586
0.597664
0.600787
0.603962
0.607195
0.610494
0.613865
0.617316
0.620855
0.62449
0.628228
0.632076
0.636041
0.640129
0.644345
0.648693
0.653175
0.65779
0.662535
0.667403
0.672385
0.677464
0.682621
0.687829
0.693056
0.69826
0.703394
0.708401
0.713215
0.717761
0.721953
0.725699
0.728896
0.731434
0.733197
0.734052
0.733873
0.732534
0.729908
0.725872
0.720308
0.713108
0.704172
0.693413
0.680753
0.666132
0.649496
0.630805
0.610026
0.587133
0.562103
0.534916
0.505555
0.474011
0.440276
0.404345
0.366176
0.325578
0.281878
0.232858
0.170285
0.0630543
0.0355682
0.116535
0.167802
0.208765
0.245392
0.279339
0.311115
0.340866
0.368622
0.39439
0.418188
0.440053
0.46004
0.47822
0.494672
0.509477
0.522719
0.534477
0.544824
0.553827
0.561543
0.568026
0.57332
0.577467
0.580504
0.582469
0.583397
0.583349
0.582387
0.580575
0.577984
0.574688
0.570764
0.566292
0.561355
0.556035
0.550414
0.544571
0.538581
0.532516
0.526442
0.520419
0.5145
0.508733
0.503158
0.497809
0.492714
0.487895
0.483368
0.479144
0.475232
0.471634
0.46835
0.465377
0.462711
0.460345
0.458269
0.456474
0.45495
0.453686
0.452668
0.451889
0.451336
0.451
0.450869
0.450934
0.451183
0.451608
0.452199
0.452945
0.45384
0.454872
0.456036
0.457322
0.458723
0.460232
0.461842
0.463548
0.465343
0.467222
0.469181
0.471214
0.473319
0.475491
0.477728
0.480027
0.482385
0.484801
0.487272
0.489797
0.492375
0.495005
0.497684
0.500412
0.503188
0.506011
0.508878
0.511788
0.51474
0.517731
0.520759
0.523821
0.526916
0.530039
0.533189
0.536362
0.539554
0.542763
0.545984
0.549216
0.552453
0.555694
0.558935
0.562174
0.565408
0.568635
0.571853
0.57506
0.578255
0.581438
0.584608
0.587765
0.59091
0.594042
0.597163
0.600275
0.603378
0.606476
0.60957
0.612662
0.615757
0.618856
0.621964
0.625085
0.628221
0.631379
0.634563
0.637777
0.641028
0.644322
0.647665
0.651063
0.654524
0.658056
0.661666
0.665363
0.669154
0.673048
0.677053
0.681178
0.685428
0.689812
0.694334
0.698999
0.703808
0.708762
0.713857
0.719086
0.724438
0.729898
0.735445
0.741051
0.746682
0.752295
0.757842
0.763261
0.768487
0.773439
0.778033
0.78217
0.785747
0.788651
0.790759
0.791945
0.792084
0.791051
0.788721
0.784974
0.779693
0.772772
0.764111
0.753618
0.741211
0.726815
0.710359
0.691777
0.671001
0.647962
0.622586
0.594798
0.564522
0.531689
0.496238
0.458114
0.417224
0.373311
0.325564
0.271401
0.201461
0.0799531
0.0355689
0.116537
0.167805
0.208769
0.245396
0.279343
0.311119
0.34087
0.368625
0.394393
0.418191
0.440056
0.460043
0.478223
0.494674
0.509479
0.522721
0.534479
0.544826
0.553828
0.561544
0.568027
0.57332
0.577467
0.580504
0.582469
0.583398
0.583349
0.582387
0.580575
0.577985
0.574688
0.570764
0.566292
0.561355
0.556035
0.550414
0.544571
0.538581
0.532516
0.526442
0.520419
0.5145
0.508733
0.503158
0.497809
0.492714
0.487895
0.483368
0.479145
0.475232
0.471634
0.46835
0.465378
0.462712
0.460345
0.45827
0.456475
0.454951
0.453686
0.452669
0.45189
0.451337
0.451001
0.45087
0.450934
0.451184
0.451609
0.452199
0.452946
0.45384
0.454873
0.456036
0.457322
0.458723
0.460232
0.461843
0.463548
0.465343
0.467223
0.469181
0.471215
0.473319
0.475492
0.477729
0.480027
0.482386
0.484801
0.487272
0.489798
0.492376
0.495005
0.497685
0.500413
0.503189
0.506011
0.508878
0.511788
0.51474
0.517731
0.520759
0.523822
0.526916
0.53004
0.533189
0.536362
0.539554
0.542763
0.545985
0.549216
0.552454
0.555695
0.558936
0.562175
0.565408
0.568635
0.571853
0.57506
0.578256
0.581439
0.584609
0.587766
0.59091
0.594042
0.597164
0.600275
0.603379
0.606476
0.60957
0.612663
0.615757
0.618856
0.621964
0.625085
0.628221
0.631379
0.634563
0.637777
0.641028
0.644322
0.647665
0.651063
0.654525
0.658056
0.661666
0.665363
0.669154
0.673048
0.677053
0.681178
0.685429
0.689812
0.694334
0.698999
0.703808
0.708762
0.713857
0.719086
0.724438
0.729898
0.735445
0.741051
0.746682
0.752296
0.757842
0.763262
0.768487
0.77344
0.778033
0.782171
0.785748
0.788652
0.790759
0.791945
0.792085
0.791051
0.788721
0.784974
0.779694
0.772773
0.764111
0.753619
0.741212
0.726815
0.710359
0.691777
0.671001
0.647962
0.622586
0.594798
0.564522
0.531689
0.496238
0.458114
0.417224
0.37331
0.325563
0.2714
0.20146
0.0799519
0.0425309
0.132158
0.188146
0.232331
0.271391
0.307253
0.340543
0.371462
0.400073
0.426402
0.450489
0.472396
0.49221
0.510035
0.525989
0.540195
0.552777
0.56385
0.573522
0.58189
0.589037
0.595033
0.599937
0.603795
0.606649
0.608531
0.609473
0.609508
0.608692
0.607077
0.604718
0.601675
0.598015
0.593805
0.589118
0.584028
0.578609
0.572935
0.56708
0.561112
0.555099
0.549099
0.543171
0.537362
0.531717
0.526274
0.521063
0.516111
0.511438
0.507058
0.502983
0.499218
0.495767
0.492629
0.489801
0.487278
0.485053
0.483117
0.481461
0.480074
0.478945
0.478064
0.47742
0.477004
0.476804
0.476811
0.477015
0.477404
0.47797
0.478703
0.479594
0.480633
0.481812
0.483122
0.484557
0.486108
0.487769
0.489532
0.491393
0.493344
0.495381
0.4975
0.499695
0.501963
0.504301
0.506706
0.509174
0.511704
0.514292
0.516938
0.519639
0.522394
0.525201
0.528058
0.530965
0.533918
0.536918
0.53996
0.543045
0.546168
0.549329
0.552524
0.55575
0.559005
0.562286
0.565589
0.568911
0.572249
0.5756
0.57896
0.582327
0.585696
0.589066
0.592434
0.595796
0.599153
0.6025
0.605838
0.609165
0.612479
0.615782
0.619073
0.622351
0.625619
0.628876
0.632124
0.635365
0.638601
0.641834
0.645067
0.648302
0.651544
0.654795
0.658059
0.661342
0.664647
0.66798
0.671345
0.67475
0.6782
0.681702
0.685263
0.688891
0.692594
0.696381
0.700258
0.704237
0.708325
0.712531
0.716864
0.721331
0.725941
0.730697
0.735606
0.74067
0.745888
0.751258
0.756772
0.762421
0.768189
0.774053
0.779987
0.785955
0.791916
0.797818
0.803602
0.809199
0.814531
0.819512
0.824045
0.828026
0.831342
0.833873
0.835498
0.836098
0.835554
0.833745
0.830558
0.825881
0.819611
0.811649
0.801899
0.790273
0.776678
0.761024
0.74321
0.723129
0.700661
0.675673
0.648024
0.617571
0.584172
0.5477
0.50803
0.464998
0.41825
0.366815
0.307765
0.230753
0.0963004
0.0425319
0.132161
0.188149
0.232335
0.271395
0.307256
0.340546
0.371466
0.400076
0.426405
0.450492
0.472399
0.492212
0.510037
0.525991
0.540197
0.552778
0.563851
0.573523
0.581891
0.589038
0.595034
0.599937
0.603795
0.606649
0.608531
0.609473
0.609508
0.608692
0.607076
0.604717
0.601675
0.598015
0.593805
0.589118
0.584028
0.578608
0.572935
0.567079
0.561112
0.555098
0.549099
0.54317
0.537362
0.531717
0.526274
0.521063
0.516111
0.511438
0.507058
0.502983
0.499218
0.495767
0.492629
0.489801
0.487278
0.485053
0.483117
0.481461
0.480074
0.478945
0.478064
0.47742
0.477004
0.476804
0.476811
0.477015
0.477404
0.47797
0.478703
0.479594
0.480633
0.481812
0.483123
0.484557
0.486108
0.487769
0.489532
0.491393
0.493344
0.495381
0.4975
0.499695
0.501964
0.504302
0.506706
0.509174
0.511704
0.514292
0.516938
0.519639
0.522394
0.525201
0.528058
0.530965
0.533918
0.536917
0.53996
0.543044
0.546168
0.549329
0.552524
0.55575
0.559005
0.562286
0.565589
0.568911
0.572249
0.5756
0.57896
0.582326
0.585696
0.589066
0.592433
0.595796
0.599152
0.6025
0.605838
0.609164
0.612479
0.615782
0.619072
0.622351
0.625618
0.628875
0.632124
0.635365
0.638601
0.641833
0.645066
0.648302
0.651543
0.654794
0.658059
0.661341
0.664646
0.667979
0.671345
0.67475
0.6782
0.681702
0.685263
0.688891
0.692594
0.69638
0.700258
0.704237
0.708325
0.712531
0.716864
0.721331
0.72594
0.730697
0.735606
0.740669
0.745887
0.751257
0.756772
0.762421
0.768188
0.774053
0.779987
0.785955
0.791916
0.797817
0.803601
0.809199
0.814531
0.819512
0.824045
0.828026
0.831342
0.833872
0.835498
0.836098
0.835554
0.833745
0.830558
0.825881
0.819611
0.811649
0.801899
0.790273
0.776678
0.761024
0.74321
0.723129
0.70066
0.675673
0.648024
0.61757
0.584172
0.547699
0.508029
0.464997
0.418248
0.366814
0.307763
0.230751
0.096299
0.0494753
0.147117
0.207425
0.254524
0.295709
0.333139
0.367552
0.39921
0.428213
0.45462
0.478499
0.499945
0.519079
0.536048
0.551012
0.564138
0.575591
0.585532
0.594104
0.601438
0.607643
0.612811
0.617015
0.620311
0.622743
0.624341
0.62513
0.625128
0.624373
0.622902
0.620754
0.617974
0.614611
0.610719
0.606357
0.601587
0.596475
0.591086
0.585488
0.579746
0.573923
0.568079
0.56227
0.556547
0.550956
0.545535
0.540321
0.535341
0.530619
0.526174
0.522018
0.518162
0.514611
0.511367
0.508429
0.505795
0.503459
0.501414
0.499653
0.498164
0.496939
0.495967
0.495238
0.494744
0.494473
0.494416
0.494564
0.494906
0.495432
0.496132
0.496998
0.49802
0.49919
0.500498
0.501938
0.503501
0.50518
0.506968
0.50886
0.510848
0.512928
0.515094
0.517342
0.519668
0.522068
0.524538
0.527075
0.529676
0.53234
0.535063
0.537843
0.540679
0.543568
0.546508
0.549498
0.552534
0.555617
0.558742
0.561908
0.565113
0.568354
0.571628
0.574932
0.578264
0.58162
0.584997
0.588393
0.591803
0.595226
0.598657
0.602094
0.605533
0.608973
0.612411
0.615845
0.619272
0.622692
0.626103
0.629503
0.632893
0.636271
0.639639
0.642996
0.646343
0.649681
0.653011
0.656335
0.659656
0.662974
0.666294
0.669617
0.672948
0.67629
0.679646
0.683022
0.686422
0.689851
0.693316
0.696821
0.700374
0.703982
0.707652
0.711393
0.715212
0.719118
0.723121
0.72723
0.731454
0.735802
0.740284
0.744907
0.74968
0.754609
0.759699
0.764953
0.770372
0.775952
0.781689
0.787571
0.793583
0.799705
0.805909
0.812161
0.818419
0.824633
0.830745
0.836688
0.842386
0.847753
0.852697
0.857115
0.860901
0.863938
0.866117
0.867324
0.867448
0.86638
0.864013
0.860243
0.854971
0.848098
0.839527
0.829158
0.816883
0.802581
0.78612
0.767342
0.746071
0.72211
0.695245
0.665254
0.631917
0.595025
0.55437
0.509698
0.460542
0.405761
0.342094
0.258321
0.111672
0.0494764
0.14712
0.207429
0.254528
0.295713
0.333143
0.367556
0.399214
0.428216
0.454623
0.478502
0.499947
0.519081
0.53605
0.551013
0.564139
0.575592
0.585532
0.594105
0.601438
0.607643
0.612811
0.617015
0.620311
0.622742
0.62434
0.625129
0.625127
0.624372
0.622901
0.620753
0.617973
0.61461
0.610718
0.606356
0.601586
0.596474
0.591085
0.585487
0.579745
0.573922
0.568079
0.56227
0.556547
0.550955
0.545535
0.54032
0.535341
0.530619
0.526173
0.522018
0.518162
0.51461
0.511366
0.508429
0.505794
0.503459
0.501414
0.499652
0.498164
0.496939
0.495967
0.495238
0.494743
0.494473
0.494416
0.494564
0.494905
0.495431
0.496132
0.496998
0.49802
0.499189
0.500498
0.501938
0.503501
0.50518
0.506968
0.508859
0.510848
0.512927
0.515094
0.517342
0.519667
0.522067
0.524537
0.527074
0.529676
0.532339
0.535062
0.537843
0.540678
0.543567
0.546507
0.549497
0.552534
0.555616
0.558742
0.561908
0.565113
0.568353
0.571627
0.574932
0.578263
0.581619
0.584997
0.588392
0.591803
0.595225
0.598656
0.602093
0.605533
0.608973
0.612411
0.615844
0.619272
0.622691
0.626102
0.629502
0.632892
0.63627
0.639638
0.642995
0.646342
0.64968
0.65301
0.656334
0.659655
0.662973
0.666293
0.669617
0.672947
0.676289
0.679646
0.683021
0.686421
0.689851
0.693315
0.69682
0.700373
0.703981
0.707651
0.711392
0.715211
0.719117
0.72312
0.727229
0.731453
0.735801
0.740283
0.744907
0.74968
0.754609
0.759699
0.764953
0.770371
0.775952
0.781688
0.78757
0.793583
0.799704
0.805908
0.81216
0.818418
0.824632
0.830744
0.836687
0.842385
0.847752
0.852696
0.857115
0.860901
0.863938
0.866116
0.867324
0.867448
0.86638
0.864013
0.860243
0.85497
0.848097
0.839527
0.829158
0.816882
0.802581
0.786119
0.767341
0.74607
0.722109
0.695244
0.665253
0.631916
0.595024
0.554369
0.509697
0.46054
0.405759
0.342092
0.258318
0.11167
0.0562969
0.161426
0.225666
0.275364
0.31837
0.357046
0.392234
0.424257
0.453259
0.479337
0.502594
0.523163
0.541206
0.556912
0.570487
0.582145
0.592097
0.600544
0.607672
0.613644
0.6186
0.622654
0.625895
0.628389
0.630184
0.631309
0.631781
0.631611
0.630813
0.629407
0.627417
0.624869
0.621795
0.618233
0.614225
0.60982
0.605071
0.600035
0.594771
0.589337
0.583793
0.578195
0.572599
0.567054
0.561607
0.556299
0.551167
0.546241
0.541549
0.53711
0.532941
0.529055
0.52546
0.522161
0.519159
0.516454
0.514041
0.511917
0.510074
0.508504
0.507198
0.506146
0.50534
0.50477
0.504429
0.504305
0.504391
0.504675
0.505149
0.505803
0.506627
0.507614
0.508753
0.510036
0.511456
0.513005
0.514675
0.51646
0.518352
0.520346