/*--------------------------------*- C++ -*----------------------------------*\
  =========                 |
  \\      /  F ield         | OpenFOAM: The Open Source CFD Toolbox
   \\    /   O peration     | Website:  https://openfoam.org
    \\  /    A nd           | Version:  8
     \\/     M anipulation  |
\*---------------------------------------------------------------------------*/
FoamFile
{
    version     2.0;
    format      ascii;
    class       volScalarField;
    location    "800";
    object      nut;
}
// * * * * * * * * * * * * * * * * * * * * * * * * * * * * * * * * * * * * * //

dimensions      [0 2 -1 0 0 0 0];

internalField   nonuniform List<scalar> 
46000
(
1.26741e-07
5.79007e-07
1.2102e-06
1.90939e-06
2.66242e-06
3.40537e-06
4.13188e-06
4.83129e-06
5.4864e-06
6.1058e-06
6.68896e-06
7.23463e-06
7.74155e-06
8.20859e-06
8.63476e-06
9.0193e-06
9.36169e-06
9.6617e-06
9.91941e-06
1.01352e-05
1.03099e-05
1.04444e-05
1.05401e-05
1.05986e-05
1.06221e-05
1.06206e-05
1.0597e-05
1.05477e-05
1.04734e-05
1.03765e-05
1.02599e-05
1.01266e-05
9.97997e-06
9.823e-06
9.65862e-06
9.48958e-06
9.31835e-06
9.14717e-06
8.97795e-06
8.81238e-06
8.65184e-06
8.49746e-06
8.35012e-06
8.21048e-06
8.07902e-06
7.95603e-06
7.84165e-06
7.73592e-06
7.63875e-06
7.55e-06
7.46945e-06
7.39683e-06
7.33186e-06
7.27422e-06
7.22359e-06
7.17961e-06
7.14197e-06
7.11032e-06
7.08432e-06
7.064e-06
7.05011e-06
7.0412e-06
7.03674e-06
7.03644e-06
7.04006e-06
7.04742e-06
7.05831e-06
7.07257e-06
7.09002e-06
7.1105e-06
7.13384e-06
7.15988e-06
7.18849e-06
7.21952e-06
7.25284e-06
7.28833e-06
7.32586e-06
7.36535e-06
7.40668e-06
7.44979e-06
7.49458e-06
7.54101e-06
7.58902e-06
7.63855e-06
7.68959e-06
7.74209e-06
7.79604e-06
7.85143e-06
7.90825e-06
7.96649e-06
8.02614e-06
8.08721e-06
8.14968e-06
8.21356e-06
8.27883e-06
8.34546e-06
8.41343e-06
8.48271e-06
8.55325e-06
8.62501e-06
8.69792e-06
8.77191e-06
8.84692e-06
8.92285e-06
8.99961e-06
9.07711e-06
9.15525e-06
9.23392e-06
9.31302e-06
9.39245e-06
9.4721e-06
9.5519e-06
9.63175e-06
9.71158e-06
9.79131e-06
9.8709e-06
9.9503e-06
1.00295e-05
1.01084e-05
1.0187e-05
1.02654e-05
1.03435e-05
1.04214e-05
1.04991e-05
1.05766e-05
1.0654e-05
1.07313e-05
1.08087e-05
1.08862e-05
1.09638e-05
1.10417e-05
1.11199e-05
1.11985e-05
1.12778e-05
1.13576e-05
1.14383e-05
1.15199e-05
1.16025e-05
1.16863e-05
1.17715e-05
1.18582e-05
1.19467e-05
1.2037e-05
1.21295e-05
1.22243e-05
1.23216e-05
1.24218e-05
1.2525e-05
1.26315e-05
1.27415e-05
1.28552e-05
1.29728e-05
1.30945e-05
1.32205e-05
1.33508e-05
1.34854e-05
1.36243e-05
1.37672e-05
1.39139e-05
1.4064e-05
1.42168e-05
1.43715e-05
1.45271e-05
1.46823e-05
1.48355e-05
1.49848e-05
1.51281e-05
1.52628e-05
1.5386e-05
1.54944e-05
1.55845e-05
1.56525e-05
1.5695e-05
1.57119e-05
1.5697e-05
1.56438e-05
1.55469e-05
1.54018e-05
1.52043e-05
1.49506e-05
1.46374e-05
1.42622e-05
1.38233e-05
1.33202e-05
1.27532e-05
1.21243e-05
1.14366e-05
1.06945e-05
9.9042e-06
9.0729e-06
8.20927e-06
7.32292e-06
6.42391e-06
5.52016e-06
4.59915e-06
3.70712e-06
2.81438e-06
1.92259e-06
1.03546e-06
2.43126e-07
1.26742e-07
5.79015e-07
1.21023e-06
1.90945e-06
2.66249e-06
3.40544e-06
4.13195e-06
4.83136e-06
5.48647e-06
6.10588e-06
6.68905e-06
7.23472e-06
7.74166e-06
8.2087e-06
8.63488e-06
9.01943e-06
9.36182e-06
9.66184e-06
9.91955e-06
1.01354e-05
1.031e-05
1.04445e-05
1.05403e-05
1.05988e-05
1.06223e-05
1.06208e-05
1.05971e-05
1.05478e-05
1.04735e-05
1.03766e-05
1.026e-05
1.01267e-05
9.98009e-06
9.82311e-06
9.65874e-06
9.4897e-06
9.31847e-06
9.14728e-06
8.97807e-06
8.8125e-06
8.65195e-06
8.49757e-06
8.35023e-06
8.2106e-06
8.07914e-06
7.95615e-06
7.84178e-06
7.73604e-06
7.63888e-06
7.55013e-06
7.46958e-06
7.39696e-06
7.332e-06
7.27435e-06
7.22372e-06
7.17975e-06
7.1421e-06
7.11045e-06
7.08445e-06
7.06413e-06
7.05024e-06
7.04134e-06
7.03688e-06
7.03658e-06
7.0402e-06
7.04756e-06
7.05846e-06
7.07272e-06
7.09017e-06
7.11064e-06
7.13398e-06
7.16002e-06
7.18863e-06
7.21966e-06
7.25298e-06
7.28847e-06
7.32601e-06
7.36549e-06
7.40683e-06
7.44993e-06
7.49473e-06
7.54116e-06
7.58916e-06
7.6387e-06
7.68973e-06
7.74224e-06
7.79619e-06
7.85158e-06
7.90839e-06
7.96663e-06
8.02628e-06
8.08735e-06
8.14983e-06
8.2137e-06
8.27897e-06
8.3456e-06
8.41357e-06
8.48284e-06
8.55338e-06
8.62514e-06
8.69805e-06
8.77204e-06
8.84705e-06
8.92298e-06
8.99974e-06
9.07724e-06
9.15538e-06
9.23405e-06
9.31315e-06
9.39257e-06
9.47223e-06
9.55203e-06
9.63188e-06
9.7117e-06
9.79144e-06
9.87103e-06
9.95042e-06
1.00296e-05
1.01085e-05
1.01871e-05
1.02655e-05
1.03436e-05
1.04215e-05
1.04992e-05
1.05767e-05
1.06541e-05
1.07315e-05
1.08088e-05
1.08863e-05
1.09639e-05
1.10418e-05
1.112e-05
1.11987e-05
1.12779e-05
1.13578e-05
1.14384e-05
1.152e-05
1.16026e-05
1.16865e-05
1.17716e-05
1.18584e-05
1.19468e-05
1.20371e-05
1.21296e-05
1.22244e-05
1.23218e-05
1.24219e-05
1.25251e-05
1.26316e-05
1.27416e-05
1.28553e-05
1.29729e-05
1.30946e-05
1.32206e-05
1.33509e-05
1.34855e-05
1.36244e-05
1.37673e-05
1.3914e-05
1.40641e-05
1.42169e-05
1.43716e-05
1.45272e-05
1.46824e-05
1.48356e-05
1.49849e-05
1.51282e-05
1.52629e-05
1.53861e-05
1.54945e-05
1.55846e-05
1.56526e-05
1.56951e-05
1.5712e-05
1.56972e-05
1.56439e-05
1.5547e-05
1.5402e-05
1.52045e-05
1.49507e-05
1.46375e-05
1.42623e-05
1.38234e-05
1.33203e-05
1.27534e-05
1.21244e-05
1.14367e-05
1.06946e-05
9.90429e-06
9.07298e-06
8.20934e-06
7.32299e-06
6.42397e-06
5.5202e-06
4.59918e-06
3.70714e-06
2.81439e-06
1.92257e-06
1.03546e-06
2.43125e-07
5.25913e-07
1.48736e-05
2.95997e-05
4.07425e-05
4.93303e-05
5.65153e-05
6.2728e-05
6.82008e-05
7.30736e-05
7.74009e-05
8.12307e-05
8.46049e-05
8.75598e-05
9.01273e-05
9.23365e-05
9.4214e-05
9.57848e-05
9.70726e-05
9.80997e-05
9.88874e-05
9.94561e-05
9.98247e-05
0.00010001
0.000100027
9.98757e-05
9.95199e-05
9.90412e-05
9.84661e-05
9.78166e-05
9.71107e-05
9.63635e-05
9.55883e-05
9.47966e-05
9.39986e-05
9.3203e-05
9.24176e-05
9.16489e-05
9.09024e-05
9.01826e-05
8.94931e-05
8.88366e-05
8.82154e-05
8.76307e-05
8.70834e-05
8.65738e-05
8.61019e-05
8.56672e-05
8.5269e-05
8.49065e-05
8.45785e-05
8.42838e-05
8.40214e-05
8.37898e-05
8.35877e-05
8.3414e-05
8.32671e-05
8.3146e-05
8.30489e-05
8.29738e-05
8.29153e-05
8.28727e-05
8.28491e-05
8.28451e-05
8.28603e-05
8.28942e-05
8.2946e-05
8.3015e-05
8.31003e-05
8.32011e-05
8.33165e-05
8.34459e-05
8.35884e-05
8.37433e-05
8.39099e-05
8.40876e-05
8.42756e-05
8.44734e-05
8.46805e-05
8.48964e-05
8.51205e-05
8.53526e-05
8.55923e-05
8.58392e-05
8.60931e-05
8.63538e-05
8.66211e-05
8.68948e-05
8.71748e-05
8.74609e-05
8.77531e-05
8.80512e-05
8.83551e-05
8.86646e-05
8.89795e-05
8.92997e-05
8.9625e-05
8.9955e-05
9.02895e-05
9.06282e-05
9.09707e-05
9.13166e-05
9.16656e-05
9.2017e-05
9.23706e-05
9.27257e-05
9.30819e-05
9.34387e-05
9.37957e-05
9.41524e-05
9.45083e-05
9.4863e-05
9.52163e-05
9.55678e-05
9.59172e-05
9.62643e-05
9.6609e-05
9.69511e-05
9.72906e-05
9.76276e-05
9.7962e-05
9.82939e-05
9.86236e-05
9.89511e-05
9.92768e-05
9.96009e-05
9.99236e-05
0.000100245
0.000100566
0.000100887
0.000101208
0.000101529
0.000101852
0.000102175
0.000102501
0.000102829
0.00010316
0.000103494
0.000103832
0.000104175
0.000104523
0.000104878
0.000105239
0.000105608
0.000105986
0.000106372
0.000106769
0.000107177
0.000107598
0.00010803
0.000108477
0.000108938
0.000109413
0.000109904
0.000110411
0.000110933
0.000111469
0.000112021
0.000112585
0.000113161
0.000113745
0.000114336
0.00011493
0.000115521
0.000116105
0.000116674
0.000117222
0.000117741
0.000118219
0.000118647
0.000119013
0.000119303
0.000119504
0.000119601
0.000119562
0.00011936
0.000118984
0.000118421
0.000117655
0.000116668
0.000115447
0.000113975
0.00011224
0.000110231
0.000107938
0.000105356
0.000102481
9.93122e-05
9.58527e-05
9.21073e-05
8.80832e-05
8.37882e-05
7.92281e-05
7.44016e-05
6.92908e-05
6.38439e-05
5.77063e-05
5.00627e-05
3.88182e-05
2.06144e-05
9.61591e-07
5.25917e-07
1.4874e-05
2.96e-05
4.07428e-05
4.93307e-05
5.65155e-05
6.2728e-05
6.82006e-05
7.30733e-05
7.74005e-05
8.12302e-05
8.46044e-05
8.75593e-05
9.01269e-05
9.23361e-05
9.42136e-05
9.57845e-05
9.70723e-05
9.80995e-05
9.88874e-05
9.94561e-05
9.98248e-05
0.000100011
0.000100027
9.98759e-05
9.95202e-05
9.90414e-05
9.84664e-05
9.78169e-05
9.7111e-05
9.63638e-05
9.55886e-05
9.47969e-05
9.39988e-05
9.32033e-05
9.24179e-05
9.16492e-05
9.09027e-05
9.01828e-05
8.94933e-05
8.88369e-05
8.82157e-05
8.7631e-05
8.70837e-05
8.65742e-05
8.61023e-05
8.56676e-05
8.52694e-05
8.49068e-05
8.45788e-05
8.42842e-05
8.40218e-05
8.37902e-05
8.35881e-05
8.34143e-05
8.32675e-05
8.31463e-05
8.30493e-05
8.29742e-05
8.29157e-05
8.2873e-05
8.28495e-05
8.28454e-05
8.28607e-05
8.28946e-05
8.29464e-05
8.30154e-05
8.31006e-05
8.32014e-05
8.33169e-05
8.34462e-05
8.35887e-05
8.37436e-05
8.39103e-05
8.40879e-05
8.42759e-05
8.44737e-05
8.46808e-05
8.48967e-05
8.51208e-05
8.53529e-05
8.55926e-05
8.58395e-05
8.60934e-05
8.63541e-05
8.66214e-05
8.68951e-05
8.71751e-05
8.74612e-05
8.77534e-05
8.80515e-05
8.83554e-05
8.86649e-05
8.89798e-05
8.93e-05
8.96253e-05
8.99553e-05
9.02898e-05
9.06285e-05
9.0971e-05
9.13169e-05
9.16659e-05
9.20173e-05
9.23708e-05
9.27259e-05
9.30822e-05
9.3439e-05
9.37959e-05
9.41526e-05
9.45085e-05
9.48633e-05
9.52165e-05
9.5568e-05
9.59174e-05
9.62646e-05
9.66092e-05
9.69514e-05
9.72909e-05
9.76279e-05
9.79622e-05
9.82942e-05
9.86239e-05
9.89514e-05
9.92771e-05
9.96011e-05
9.99239e-05
0.000100246
0.000100567
0.000100887
0.000101208
0.00010153
0.000101852
0.000102176
0.000102501
0.000102829
0.00010316
0.000103494
0.000103832
0.000104175
0.000104524
0.000104878
0.000105239
0.000105608
0.000105986
0.000106372
0.000106769
0.000107177
0.000107598
0.00010803
0.000108477
0.000108938
0.000109413
0.000109904
0.000110411
0.000110933
0.000111469
0.000112021
0.000112585
0.000113161
0.000113745
0.000114336
0.00011493
0.000115521
0.000116105
0.000116674
0.000117222
0.000117741
0.000118219
0.000118647
0.000119013
0.000119303
0.000119504
0.000119601
0.000119562
0.00011936
0.000118985
0.000118421
0.000117655
0.000116669
0.000115447
0.000113975
0.00011224
0.000110231
0.000107939
0.000105356
0.000102481
9.93125e-05
9.58529e-05
9.21075e-05
8.80834e-05
8.37884e-05
7.92283e-05
7.44017e-05
6.92909e-05
6.3844e-05
5.77063e-05
5.00626e-05
3.88178e-05
2.06143e-05
9.61587e-07
1.01886e-06
2.86625e-05
6.04322e-05
8.39729e-05
0.00010247
0.000117798
0.000130853
0.000142121
0.000151902
0.000160381
0.0001677
0.000173973
0.000179298
0.000183764
0.000187452
0.000190439
0.000192795
0.000194586
0.000195876
0.000196721
0.000197175
0.000197287
0.000197099
0.000196645
0.000195949
0.000195012
0.00019388
0.000192628
0.00019129
0.000189896
0.000188471
0.000187036
0.000185611
0.00018421
0.000182846
0.000181529
0.000180266
0.000179064
0.000177928
0.000176861
0.000175864
0.000174938
0.000174082
0.000173296
0.000172578
0.000171925
0.000171335
0.000170805
0.000170332
0.000169912
0.000169544
0.000169223
0.000168947
0.000168714
0.00016852
0.000168364
0.000168243
0.000168154
0.000168094
0.000168059
0.000168044
0.000168055
0.000168091
0.000168152
0.000168238
0.000168348
0.000168481
0.000168637
0.000168815
0.000169014
0.000169232
0.00016947
0.000169725
0.000169998
0.000170288
0.000170593
0.000170913
0.000171247
0.000171595
0.000171957
0.000172331
0.000172717
0.000173115
0.000173525
0.000173946
0.000174378
0.000174821
0.000175275
0.000175738
0.000176212
0.000176696
0.000177188
0.00017769
0.000178201
0.00017872
0.000179246
0.00017978
0.00018032
0.000180866
0.000181417
0.000181973
0.000182532
0.000183093
0.000183656
0.000184221
0.000184785
0.000185349
0.000185911
0.000186471
0.000187028
0.000187582
0.000188133
0.000188679
0.00018922
0.000189757
0.00019029
0.000190817
0.00019134
0.000191859
0.000192373
0.000192884
0.000193391
0.000193895
0.000194396
0.000194896
0.000195394
0.000195891
0.000196388
0.000196886
0.000197384
0.000197885
0.000198388
0.000198895
0.000199406
0.000199922
0.000200445
0.000200974
0.000201511
0.000202058
0.000202615
0.000203183
0.000203764
0.00020436
0.000204971
0.0002056
0.000206247
0.000206914
0.000207603
0.000208315
0.000209052
0.000209814
0.000210602
0.000211417
0.000212259
0.000213128
0.000214023
0.000214943
0.000215885
0.000216846
0.000217823
0.000218809
0.000219799
0.000220785
0.000221757
0.000222705
0.000223616
0.000224477
0.00022527
0.00022598
0.000226586
0.000227068
0.000227403
0.000227566
0.000227508
0.000227202
0.000226625
0.000225751
0.000224556
0.000223014
0.000221099
0.000218789
0.000216059
0.000212888
0.000209257
0.000205146
0.000200539
0.000195419
0.000189769
0.00018357
0.000176798
0.000169416
0.000161367
0.000152547
0.000142762
0.000131618
0.000118243
0.000100887
7.61061e-05
3.85342e-05
1.99174e-06
1.01887e-06
2.86629e-05
6.04321e-05
8.39726e-05
0.00010247
0.000117797
0.000130852
0.000142121
0.000151901
0.000160381
0.000167699
0.000173972
0.000179297
0.000183763
0.000187452
0.000190439
0.000192795
0.000194586
0.000195876
0.000196721
0.000197175
0.000197287
0.000197099
0.000196646
0.000195949
0.000195013
0.000193881
0.000192629
0.000191291
0.000189896
0.000188471
0.000187037
0.000185612
0.000184211
0.000182847
0.000181529
0.000180267
0.000179065
0.000177929
0.000176862
0.000175865
0.000174939
0.000174083
0.000173297
0.000172579
0.000171926
0.000171336
0.000170806
0.000170332
0.000169913
0.000169544
0.000169224
0.000168948
0.000168715
0.000168521
0.000168365
0.000168244
0.000168155
0.000168095
0.00016806
0.000168045
0.000168055
0.000168091
0.000168152
0.000168238
0.000168348
0.000168482
0.000168638
0.000168816
0.000169014
0.000169233
0.00016947
0.000169726
0.000169999
0.000170288
0.000170593
0.000170913
0.000171248
0.000171596
0.000171957
0.000172331
0.000172718
0.000173116
0.000173526
0.000173947
0.000174379
0.000174822
0.000175275
0.000175739
0.000176213
0.000176696
0.000177189
0.000177691
0.000178202
0.00017872
0.000179247
0.000179781
0.000180321
0.000180867
0.000181418
0.000181973
0.000182532
0.000183093
0.000183657
0.000184221
0.000184785
0.000185349
0.000185911
0.000186471
0.000187029
0.000187583
0.000188133
0.000188679
0.000189221
0.000189758
0.00019029
0.000190818
0.000191341
0.000191859
0.000192374
0.000192884
0.000193391
0.000193895
0.000194396
0.000194896
0.000195394
0.000195891
0.000196388
0.000196886
0.000197385
0.000197885
0.000198389
0.000198896
0.000199407
0.000199923
0.000200445
0.000200974
0.000201512
0.000202058
0.000202615
0.000203183
0.000203765
0.00020436
0.000204971
0.0002056
0.000206247
0.000206915
0.000207604
0.000208316
0.000209052
0.000209814
0.000210602
0.000211417
0.000212259
0.000213128
0.000214023
0.000214943
0.000215885
0.000216846
0.000217823
0.000218809
0.000219799
0.000220785
0.000221757
0.000222705
0.000223616
0.000224477
0.000225271
0.00022598
0.000226587
0.000227068
0.000227403
0.000227566
0.000227508
0.000227202
0.000226625
0.000225751
0.000224556
0.000223014
0.0002211
0.000218789
0.000216059
0.000212889
0.000209257
0.000205147
0.00020054
0.00019542
0.00018977
0.000183571
0.000176798
0.000169416
0.000161367
0.000152547
0.000142762
0.000131618
0.000118243
0.000100887
7.61062e-05
3.85342e-05
1.99172e-06
1.50558e-06
3.75582e-05
8.06998e-05
0.000114386
0.000141474
0.000164037
0.000183235
0.000199744
0.000213994
0.000226274
0.000236803
0.000245755
0.000253282
0.000259518
0.00026459
0.000268616
0.000271707
0.000273968
0.0002755
0.000276394
0.000276736
0.000276603
0.000276064
0.000275178
0.000273992
0.000272541
0.00027086
0.000269041
0.000267128
0.000265159
0.000263167
0.000261182
0.000259225
0.000257317
0.000255474
0.000253706
0.000252026
0.000250438
0.000248948
0.000247559
0.000246272
0.000245087
0.000244001
0.000243013
0.000242119
0.000241315
0.000240596
0.000239958
0.000239396
0.000238904
0.000238479
0.000238116
0.00023781
0.000237557
0.000237353
0.000237195
0.000237079
0.000237001
0.000236959
0.000236948
0.000236963
0.000237008
0.000237082
0.000237185
0.000237315
0.000237474
0.000237659
0.000237871
0.000238108
0.000238369
0.000238654
0.000238962
0.000239292
0.000239643
0.000240014
0.000240405
0.000240814
0.000241241
0.000241687
0.000242149
0.000242627
0.000243122
0.000243632
0.000244157
0.000244697
0.000245252
0.000245821
0.000246404
0.000247001
0.000247611
0.000248234
0.000248869
0.000249515
0.000250173
0.000250841
0.000251519
0.000252206
0.0002529
0.000253602
0.000254309
0.000255021
0.000255736
0.000256454
0.000257174
0.000257893
0.000258612
0.000259329
0.000260042
0.000260753
0.000261458
0.000262159
0.000262854
0.000263543
0.000264226
0.000264903
0.000265573
0.000266237
0.000266894
0.000267546
0.000268193
0.000268835
0.000269473
0.000270108
0.00027074
0.000271369
0.000271998
0.000272627
0.000273256
0.000273886
0.000274519
0.000275156
0.000275797
0.000276444
0.000277097
0.000277758
0.000278428
0.000279109
0.000279802
0.000280508
0.000281229
0.000281967
0.000282723
0.0002835
0.000284299
0.000285122
0.000285972
0.000286851
0.00028776
0.000288701
0.000289677
0.000290688
0.000291736
0.000292821
0.000293945
0.000295106
0.000296304
0.000297537
0.000298801
0.000300093
0.000301407
0.000302736
0.000304073
0.000305406
0.000306724
0.000308013
0.000309257
0.000310438
0.000311535
0.000312526
0.000313386
0.000314088
0.000314602
0.000314897
0.000314924
0.000314649
0.00031404
0.000313064
0.000311688
0.000309879
0.000307603
0.000304828
0.00030152
0.000297645
0.000293172
0.000288064
0.000282286
0.000275796
0.000268548
0.000260485
0.000251533
0.000241591
0.000230511
0.000218054
0.000203822
0.000187107
0.00016661
0.00014
0.000103295
5.15406e-05
3.1566e-06
1.50561e-06
3.75582e-05
8.06994e-05
0.000114386
0.000141473
0.000164036
0.000183234
0.000199743
0.000213993
0.000226273
0.000236802
0.000245755
0.000253281
0.000259518
0.00026459
0.000268616
0.000271707
0.000273968
0.0002755
0.000276394
0.000276736
0.000276604
0.000276065
0.000275179
0.000273993
0.000272542
0.000270862
0.000269043
0.000267129
0.00026516
0.000263169
0.000261183
0.000259227
0.000257319
0.000255475
0.000253708
0.000252027
0.000250439
0.00024895
0.000247561
0.000246274
0.000245088
0.000244003
0.000243015
0.00024212
0.000241316
0.000240597
0.000239959
0.000239397
0.000238906
0.000238481
0.000238117
0.000237811
0.000237558
0.000237354
0.000237196
0.00023708
0.000237003
0.00023696
0.000236949
0.000236964
0.000237009
0.000237083
0.000237186
0.000237317
0.000237475
0.000237661
0.000237872
0.000238109
0.000238371
0.000238656
0.000238963
0.000239293
0.000239644
0.000240015
0.000240406
0.000240815
0.000241243
0.000241688
0.00024215
0.000242628
0.000243123
0.000243633
0.000244158
0.000244698
0.000245253
0.000245823
0.000246406
0.000247002
0.000247612
0.000248235
0.00024887
0.000249517
0.000250174
0.000250843
0.00025152
0.000252207
0.000252902
0.000253603
0.00025431
0.000255022
0.000255738
0.000256455
0.000257175
0.000257894
0.000258613
0.00025933
0.000260043
0.000260754
0.000261459
0.00026216
0.000262855
0.000263544
0.000264227
0.000264904
0.000265574
0.000266238
0.000266895
0.000267547
0.000268194
0.000268836
0.000269474
0.000270109
0.000270741
0.00027137
0.000271999
0.000272628
0.000273257
0.000273887
0.00027452
0.000275157
0.000275798
0.000276445
0.000277098
0.000277759
0.000278429
0.00027911
0.000279803
0.000280509
0.00028123
0.000281968
0.000282724
0.000283501
0.0002843
0.000285123
0.000285973
0.000286852
0.00028776
0.000288702
0.000289677
0.000290688
0.000291736
0.000292822
0.000293946
0.000295107
0.000296305
0.000297537
0.000298801
0.000300093
0.000301407
0.000302737
0.000304073
0.000305407
0.000306725
0.000308014
0.000309258
0.000310439
0.000311536
0.000312527
0.000313387
0.000314088
0.000314603
0.000314898
0.000314925
0.00031465
0.000314041
0.000313065
0.000311689
0.00030988
0.000307604
0.000304829
0.000301521
0.000297647
0.000293173
0.000288066
0.000282287
0.000275798
0.00026855
0.000260486
0.000251534
0.000241593
0.000230512
0.000218055
0.000203823
0.000187108
0.000166611
0.00014
0.000103295
5.15406e-05
3.15656e-06
1.99962e-06
4.35378e-05
9.47213e-05
0.000136275
0.000170244
0.000198729
0.00022303
0.000243951
0.000262012
0.000277577
0.000290916
0.000302249
0.000311761
0.000319623
0.000325992
0.000331016
0.00033484
0.000337599
0.000339423
0.000340433
0.000340744
0.000340458
0.000339669
0.000338458
0.000336893
0.000335032
0.000332924
0.000330658
0.000328287
0.000325859
0.000323413
0.000320983
0.000318596
0.000316274
0.000314035
0.000311895
0.000309863
0.000307948
0.000306154
0.000304486
0.000302942
0.000301524
0.000300228
0.000299052
0.00029799
0.000297039
0.000296192
0.000295443
0.000294786
0.000294215
0.000293724
0.000293307
0.000292959
0.000292673
0.000292446
0.000292273
0.000292149
0.000292069
0.000292031
0.00029203
0.000292061
0.000292126
0.000292224
0.000292354
0.000292515
0.000292707
0.000292929
0.00029318
0.000293459
0.000293765
0.000294098
0.000294457
0.000294841
0.000295249
0.00029568
0.000296134
0.00029661
0.000297108
0.000297626
0.000298164
0.000298721
0.000299298
0.000299894
0.000300508
0.000301139
0.000301789
0.000302455
0.000303138
0.000303837
0.000304552
0.000305282
0.000306027
0.000306785
0.000307556
0.000308339
0.000309134
0.000309938
0.000310751
0.000311571
0.000312398
0.000313229
0.000314064
0.000314902
0.00031574
0.000316578
0.000317414
0.000318247
0.000319076
0.000319901
0.00032072
0.000321532
0.000322338
0.000323136
0.000323927
0.00032471
0.000325485
0.000326254
0.000327015
0.00032777
0.000328519
0.000329262
0.000330002
0.000330737
0.00033147
0.000332201
0.000332932
0.000333663
0.000334395
0.000335129
0.000335868
0.000336611
0.000337361
0.000338118
0.000338884
0.00033966
0.000340448
0.000341249
0.000342066
0.0003429
0.000343753
0.000344628
0.000345526
0.00034645
0.000347402
0.000348385
0.000349401
0.000350453
0.000351543
0.000352675
0.000353849
0.000355068
0.000356333
0.000357646
0.000359006
0.000360414
0.000361869
0.000363368
0.000364908
0.000366484
0.00036809
0.000369719
0.00037136
0.000373002
0.00037463
0.000376229
0.000377781
0.000379263
0.000380654
0.000381926
0.000383051
0.000383999
0.000384734
0.000385222
0.000385412
0.000385269
0.000384754
0.000383827
0.000382451
0.000380584
0.000378185
0.000375214
0.000371626
0.000367376
0.000362415
0.000356689
0.00035014
0.000342698
0.000334282
0.000324791
0.000314099
0.000302035
0.000288356
0.000272699
0.000254491
0.000232785
0.000205982
0.000171399
0.000124799
6.17898e-05
4.34484e-06
1.99966e-06
4.35377e-05
9.47206e-05
0.000136274
0.000170243
0.000198727
0.000223029
0.000243949
0.000262011
0.000277576
0.000290915
0.000302248
0.00031176
0.000319622
0.000325991
0.000331016
0.00033484
0.000337599
0.000339423
0.000340434
0.000340745
0.00034046
0.000339671
0.000338459
0.000336895
0.000335034
0.000332926
0.00033066
0.000328289
0.000325861
0.000323415
0.000320985
0.000318598
0.000316276
0.000314038
0.000311897
0.000309866
0.00030795
0.000306157
0.000304488
0.000302944
0.000301526
0.00030023
0.000299054
0.000297993
0.000297041
0.000296194
0.000295445
0.000294788
0.000294217
0.000293726
0.000293309
0.000292961
0.000292675
0.000292448
0.000292275
0.000292151
0.000292071
0.000292033
0.000292032
0.000292063
0.000292128
0.000292226
0.000292356
0.000292517
0.000292709
0.000292931
0.000293181
0.00029346
0.000293767
0.0002941
0.000294459
0.000294843
0.000295251
0.000295682
0.000296136
0.000296612
0.000297109
0.000297627
0.000298165
0.000298723
0.0002993
0.000299896
0.000300509
0.000301141
0.00030179
0.000302457
0.00030314
0.000303839
0.000304554
0.000305284
0.000306028
0.000306787
0.000307558
0.000308341
0.000309135
0.000309939
0.000310752
0.000311573
0.000312399
0.000313231
0.000314066
0.000314903
0.000315741
0.000316579
0.000317415
0.000318249
0.000319078
0.000319902
0.000320721
0.000321534
0.000322339
0.000323137
0.000323928
0.000324711
0.000325487
0.000326255
0.000327016
0.000327771
0.00032852
0.000329264
0.000330003
0.000330739
0.000331471
0.000332203
0.000332933
0.000333664
0.000334396
0.000335131
0.000335869
0.000336613
0.000337362
0.000338119
0.000338885
0.000339661
0.000340449
0.000341251
0.000342067
0.000342901
0.000343755
0.000344629
0.000345527
0.000346451
0.000347403
0.000348386
0.000349402
0.000350454
0.000351545
0.000352676
0.00035385
0.000355069
0.000356334
0.000357647
0.000359007
0.000360415
0.00036187
0.000363369
0.000364909
0.000366485
0.000368091
0.00036972
0.000371361
0.000373003
0.000374631
0.00037623
0.000377782
0.000379264
0.000380655
0.000381927
0.000383052
0.000384
0.000384735
0.000385223
0.000385413
0.00038527
0.000384755
0.000383829
0.000382452
0.000380585
0.000378187
0.000375215
0.000371628
0.000367377
0.000362416
0.000356691
0.000350142
0.0003427
0.000334283
0.000324793
0.000314101
0.000302036
0.000288357
0.0002727
0.000254492
0.000232786
0.000205983
0.0001714
0.000124799
6.17899e-05
4.34478e-06
2.48777e-06
4.8298e-05
0.000105471
0.000153075
0.000192479
0.000225721
0.000254172
0.000278716
0.000299939
0.000318254
0.00033397
0.000347337
0.000358568
0.000367855
0.000375378
0.000381308
0.000385811
0.000389047
0.000391169
0.000392323
0.000392647
0.000392266
0.000391295
0.000389835
0.000387974
0.000385789
0.000383341
0.000380715
0.000377977
0.000375181
0.000372371
0.000369584
0.000366849
0.000364193
0.000361635
0.000359189
0.000356868
0.00035468
0.00035263
0.000350722
0.000348956
0.000347332
0.000345847
0.000344497
0.000343278
0.000342184
0.00034121
0.000340347
0.00033959
0.000338931
0.000338364
0.000337882
0.000337478
0.000337147
0.000336882
0.000336678
0.000336531
0.000336434
0.000336385
0.000336378
0.000336409
0.000336479
0.000336585
0.000336727
0.000336903
0.000337112
0.000337355
0.000337629
0.000337935
0.000338271
0.000338636
0.000339029
0.000339451
0.000339899
0.000340374
0.000340874
0.000341399
0.000341948
0.00034252
0.000343116
0.000343734
0.000344373
0.000345034
0.000345716
0.000346418
0.00034714
0.000347882
0.000348643
0.000349422
0.000350218
0.000351032
0.000351861
0.000352706
0.000353565
0.000354437
0.000355321
0.000356216
0.00035712
0.000358032
0.000358951
0.000359874
0.000360801
0.000361729
0.000362659
0.000363587
0.000364513
0.000365435
0.000366352
0.000367264
0.000368169
0.000369067
0.000369957
0.000370839
0.000371713
0.000372578
0.000373435
0.000374284
0.000375126
0.000375961
0.000376789
0.000377612
0.000378431
0.000379245
0.000380058
0.000380869
0.00038168
0.000382491
0.000383305
0.000384123
0.000384945
0.000385773
0.000386609
0.000387455
0.000388311
0.00038918
0.000390063
0.000390962
0.000391879
0.000392818
0.000393778
0.000394765
0.000395779
0.000396824
0.000397903
0.000399018
0.000400172
0.00040137
0.000402612
0.000403903
0.000405245
0.000406639
0.000408089
0.000409596
0.000411159
0.00041278
0.000414456
0.000416186
0.000417967
0.000419793
0.000421657
0.000423552
0.000425466
0.000427387
0.0004293
0.000431187
0.000433029
0.000434802
0.000436481
0.000438038
0.000439441
0.000440659
0.000441653
0.000442382
0.000442802
0.000442872
0.000442549
0.000441791
0.000440552
0.000438788
0.000436449
0.000433486
0.000429843
0.000425462
0.000420278
0.000414216
0.000407193
0.000399109
0.000389846
0.000379261
0.000367172
0.000353339
0.000337436
0.00031899
0.000297286
0.000271198
0.000238914
0.000197522
0.000142658
7.04132e-05
5.51555e-06
2.48782e-06
4.82979e-05
0.00010547
0.000153074
0.000192478
0.00022572
0.000254171
0.000278714
0.000299937
0.000318252
0.000333969
0.000347336
0.000358568
0.000367855
0.000375378
0.000381308
0.000385811
0.000389047
0.00039117
0.000392324
0.000392648
0.000392268
0.000391296
0.000389837
0.000387976
0.000385791
0.000383343
0.000380717
0.00037798
0.000375184
0.000372374
0.000369586
0.000366852
0.000364196
0.000361638
0.000359192
0.000356871
0.000354683
0.000352633
0.000350725
0.000348959
0.000347334
0.000345849
0.0003445
0.000343281
0.000342187
0.000341212
0.00034035
0.000339593
0.000338934
0.000338367
0.000337885
0.000337481
0.000337149
0.000336884
0.000336681
0.000336533
0.000336437
0.000336387
0.00033638
0.000336412
0.000336481
0.000336587
0.000336729
0.000336905
0.000337115
0.000337357
0.000337632
0.000337937
0.000338273
0.000338638
0.000339032
0.000339453
0.000339902
0.000340376
0.000340876
0.000341401
0.00034195
0.000342522
0.000343118
0.000343736
0.000344375
0.000345036
0.000345718
0.00034642
0.000347142
0.000347884
0.000348645
0.000349424
0.00035022
0.000351034
0.000351863
0.000352708
0.000353567
0.000354439
0.000355323
0.000356218
0.000357122
0.000358034
0.000358953
0.000359876
0.000360803
0.000361731
0.00036266
0.000363589
0.000364514
0.000365437
0.000366354
0.000367266
0.000368171
0.000369069
0.000369959
0.000370841
0.000371715
0.00037258
0.000373437
0.000374286
0.000375128
0.000375962
0.000376791
0.000377614
0.000378432
0.000379247
0.00038006
0.000380871
0.000381681
0.000382493
0.000383307
0.000384124
0.000384946
0.000385775
0.000386611
0.000387456
0.000388312
0.000389181
0.000390064
0.000390963
0.000391881
0.000392819
0.00039378
0.000394766
0.000395781
0.000396826
0.000397904
0.000399019
0.000400174
0.000401371
0.000402614
0.000403904
0.000405246
0.000406641
0.000408091
0.000409597
0.00041116
0.000412781
0.000414457
0.000416188
0.000417968
0.000419794
0.000421658
0.000423553
0.000425467
0.000427388
0.000429301
0.000431188
0.00043303
0.000434803
0.000436482
0.000438039
0.000439443
0.00044066
0.000441655
0.000442384
0.000442804
0.000442873
0.000442551
0.000441792
0.000440554
0.000438789
0.000436451
0.000433488
0.000429845
0.000425464
0.00042028
0.000414218
0.000407195
0.000399111
0.000389848
0.000379263
0.000367174
0.000353341
0.000337438
0.000318992
0.000297287
0.000271199
0.000238914
0.000197523
0.000142658
7.04132e-05
5.51547e-06
2.98209e-06
5.24711e-05
0.000114408
0.000166766
0.000210485
0.000247539
0.000279337
0.000306818
0.000330616
0.000351182
0.000368854
0.000383905
0.000396567
0.000407048
0.000415544
0.000422243
0.000427328
0.000430975
0.000433357
0.00043464
0.000434978
0.000434519
0.000433395
0.000431725
0.000429615
0.000427156
0.000424425
0.000421495
0.000418451
0.000415351
0.000412241
0.000409163
0.000406147
0.000403219
0.000400401
0.000397706
0.000395149
0.000392736
0.000390472
0.000388363
0.000386407
0.000384604
0.000382951
0.000381446
0.000380082
0.000378855
0.000377757
0.000376782
0.000375923
0.000375172
0.000374522
0.000373966
0.000373497
0.000373108
0.000372793
0.000372546
0.000372361
0.000372234
0.000372159
0.000372133
0.00037215
0.000372209
0.000372309
0.000372447