/*--------------------------------*- C++ -*----------------------------------*\
  =========                 |
  \\      /  F ield         | OpenFOAM: The Open Source CFD Toolbox
   \\    /   O peration     | Website:  https://openfoam.org
    \\  /    A nd           | Version:  8
     \\/     M anipulation  |
\*---------------------------------------------------------------------------*/
FoamFile
{
    version     2.0;
    format      ascii;
    class       surfaceScalarField;
    location    "800";
    object      phi;
}
// * * * * * * * * * * * * * * * * * * * * * * * * * * * * * * * * * * * * * //

dimensions      [1 0 -1 0 0 0 0];

internalField   nonuniform List<scalar> 
114370
(
-1.7046e-09
-2.21955e-13
1.70482e-09
-3.36817e-09
-3.77797e-13
1.66589e-09
-4.15319e-09
-2.68767e-13
7.86712e-10
-3.9281e-09
-7.59261e-14
-2.23913e-10
-2.85975e-09
2.23891e-14
-1.06739e-09
-1.17953e-09
3.26061e-14
-1.67932e-09
9.10526e-10
2.06119e-16
-2.08916e-09
3.24314e-09
-4.50186e-14
-2.33173e-09
5.69363e-09
-8.55157e-14
-2.44965e-09
8.17503e-09
-1.17221e-13
-2.48059e-09
1.06216e-08
-1.39625e-13
-2.44578e-09
1.29834e-08
-1.54009e-13
-2.36116e-09
1.52228e-08
-1.60855e-13
-2.23868e-09
1.7311e-08
-1.60791e-13
-2.08759e-09
1.9227e-08
-1.55384e-13
-1.91535e-09
2.09558e-08
-1.46755e-13
-1.72815e-09
2.24876e-08
-1.36702e-13
-1.53126e-09
2.38174e-08
-1.25917e-13
-1.32923e-09
2.49439e-08
-1.14022e-13
-1.12604e-09
2.58696e-08
-1.00442e-13
-9.25187e-10
2.65998e-08
-8.5036e-14
-7.29728e-10
2.71426e-08
-6.81076e-14
-5.42346e-10
2.75084e-08
-5.02084e-14
-3.65422e-10
2.77099e-08
-3.21039e-14
-2.0108e-10
2.77616e-08
-1.47482e-14
-5.13654e-11
2.76784e-08
6.27429e-16
8.3465e-11
2.74744e-08
1.28087e-14
2.04218e-10
2.7164e-08
2.12739e-14
3.10738e-10
2.67614e-08
2.62629e-14
4.02799e-10
2.62812e-08
2.86543e-14
4.80441e-10
2.57375e-08
2.96544e-14
5.43946e-10
2.51439e-08
3.0453e-14
5.93812e-10
2.45133e-08
3.19086e-14
6.30728e-10
2.3858e-08
3.43609e-14
6.55538e-10
2.31889e-08
3.76195e-14
6.69209e-10
2.25162e-08
4.10964e-14
6.72793e-10
2.18489e-08
4.39997e-14
6.67396e-10
2.11949e-08
4.55401e-14
6.54154e-10
2.05608e-08
4.51345e-14
6.34199e-10
1.99522e-08
4.25521e-14
6.08644e-10
1.93738e-08
3.79503e-14
5.78557e-10
1.8829e-08
3.18034e-14
5.44949e-10
1.83203e-08
2.47793e-14
5.08759e-10
1.78496e-08
1.76333e-14
4.70846e-10
1.74178e-08
1.11163e-14
4.31979e-10
1.70251e-08
5.85292e-15
3.92836e-10
1.66712e-08
2.2351e-15
3.53999e-10
1.63554e-08
3.63903e-16
3.15961e-10
1.60764e-08
7.9961e-17
2.79123e-10
1.58327e-08
1.04348e-15
2.43801e-10
1.56226e-08
2.82534e-15
2.10231e-10
1.54441e-08
4.96865e-15
1.78581e-10
1.52953e-08
7.03648e-15
1.48951e-10
1.5174e-08
8.66129e-15
1.21389e-10
1.50782e-08
9.60825e-15
9.58898e-11
1.50058e-08
9.7993e-15
7.24095e-11
1.4955e-08
9.2958e-15
5.08627e-11
1.49238e-08
8.21072e-15
3.11259e-11
1.49107e-08
6.74617e-15
1.30317e-11
1.49142e-08
5.13242e-15
-3.49843e-12
1.49324e-08
3.58353e-15
-1.83661e-11
1.49639e-08
2.29571e-15
-3.15944e-11
1.50071e-08
1.44244e-15
-4.33662e-11
1.50608e-08
1.19676e-15
-5.38325e-11
1.51237e-08
1.65472e-15
-6.31282e-11
1.51948e-08
2.8287e-15
-7.13722e-11
1.52732e-08
4.6571e-15
-7.86689e-11
1.53581e-08
7.00505e-15
-8.51102e-11
1.54485e-08
9.64552e-15
-9.0777e-11
1.55439e-08
1.22608e-14
-9.5741e-11
1.56437e-08
1.44633e-14
-1.00066e-10
1.57471e-08
1.58436e-14
-1.03808e-10
1.58538e-08
1.60644e-14
-1.07021e-10
1.59631e-08
1.49187e-14
-1.0975e-10
1.60747e-08
1.23957e-14
-1.12042e-10
1.61883e-08
8.71266e-15
-1.1394e-10
1.63034e-08
4.31659e-15
-1.15484e-10
1.64197e-08
-1.42561e-16
-1.16717e-10
1.65369e-08
-3.89979e-15
-1.17682e-10
1.6655e-08
-6.20568e-15
-1.1842e-10
1.67735e-08
-6.49906e-15
-1.18975e-10
1.68925e-08
-4.56764e-15
-1.19391e-10
1.70118e-08
-6.46065e-16
-1.19713e-10
1.71314e-08
4.5876e-15
-1.19984e-10
1.72512e-08
1.01359e-14
-1.20248e-10
1.73714e-08
1.48887e-14
-1.20544e-10
1.74919e-08
1.78611e-14
-1.20911e-10
1.76128e-08
1.84291e-14
-1.21381e-10
1.77344e-08
1.64799e-14
-1.21984e-10
1.78567e-08
1.24552e-14
-1.22746e-10
1.79799e-08
7.27138e-15
-1.23685e-10
1.81043e-08
2.11317e-15
-1.24816e-10
1.82301e-08
-1.8591e-15
-1.26145e-10
1.83574e-08
-3.8141e-15
-1.27673e-10
1.84865e-08
-3.49379e-15
-1.29391e-10
1.86174e-08
-1.29414e-15
-1.31283e-10
1.87504e-08
1.84309e-15
-1.33326e-10
1.88857e-08
4.70297e-15
-1.35489e-10
1.90231e-08
6.16052e-15
-1.37738e-10
1.9163e-08
5.51213e-15
-1.40032e-10
1.93051e-08
2.68103e-15
-1.42332e-10
1.94496e-08
-1.76637e-15
-1.44592e-10
1.95962e-08
-6.79118e-15
-1.4677e-10
1.9745e-08
-1.11702e-14
-1.4882e-10
1.98956e-08
-1.38366e-14
-1.50698e-10
2.00479e-08
-1.41356e-14
-1.52365e-10
2.02016e-08
-1.19713e-14
-1.53781e-10
2.03565e-08
-7.78775e-15
-1.54914e-10
2.05121e-08
-2.42617e-15
-1.55738e-10
2.06683e-08
3.10518e-15
-1.56233e-10
2.08246e-08
7.86955e-15
-1.5639e-10
2.09807e-08
1.12084e-14
-1.56205e-10
2.11363e-08
1.28476e-14
-1.55685e-10
2.1291e-08
1.29037e-14
-1.54843e-10
2.14446e-08
1.18041e-14
-1.53699e-10
2.15967e-08
1.01361e-14
-1.5228e-10
2.17472e-08
8.4905e-15
-1.50616e-10
2.18958e-08
7.3319e-15
-1.48742e-10
2.20423e-08
6.91989e-15
-1.46698e-10
2.21866e-08
7.30391e-15
-1.44523e-10
2.23287e-08
8.37487e-15
-1.42258e-10
2.24684e-08
9.9335e-15
-1.39947e-10
2.26059e-08
1.17814e-14
-1.37629e-10
2.2741e-08
1.37627e-14
-1.35343e-10
2.28739e-08
1.57803e-14
-1.33126e-10
2.30047e-08
1.7787e-14
-1.31008e-10
2.31334e-08
1.97498e-14
-1.2902e-10
2.32604e-08
2.16317e-14
-1.27183e-10
2.33856e-08
2.33727e-14
-1.25518e-10
2.35093e-08
2.48956e-14
-1.24037e-10
2.36318e-08
2.61069e-14
-1.22753e-10
2.37531e-08
2.69092e-14
-1.21671e-10
2.38735e-08
2.72104e-14
-1.20793e-10
2.39933e-08
2.69279e-14
-1.20122e-10
2.41125e-08
2.60053e-14
-1.19656e-10
2.42315e-08
2.44198e-14
-1.19392e-10
2.43503e-08
2.21836e-14
-1.19328e-10
2.44693e-08
1.93471e-14
-1.19462e-10
2.45885e-08
1.5984e-14
-1.19792e-10
2.47083e-08
1.21837e-14
-1.20321e-10
2.48288e-08
8.05037e-15
-1.21049e-10
2.49502e-08
3.69606e-15
-1.21981e-10
2.50727e-08
-7.40006e-16
-1.23123e-10
2.51966e-08
-5.11016e-15
-1.24482e-10
2.53221e-08
-9.25827e-15
-1.26067e-10
2.54494e-08
-1.30378e-14
-1.27888e-10
2.55788e-08
-1.6312e-14
-1.29952e-10
2.57105e-08
-1.89603e-14
-1.32266e-10
2.58449e-08
-2.08802e-14
-1.34835e-10
2.59821e-08
-2.20023e-14
-1.37656e-10
2.61224e-08
-2.23083e-14
-1.40725e-10
2.6266e-08
-2.18423e-14
-1.44027e-10
2.64132e-08
-2.07143e-14
-1.47537e-10
2.65641e-08
-1.90835e-14
-1.51221e-10
2.67189e-08
-1.7138e-14
-1.5503e-10
2.68775e-08
-1.50978e-14
-1.58896e-10
2.70401e-08
-1.32031e-14
-1.62735e-10
2.72064e-08
-1.16996e-14
-1.66437e-10
2.73761e-08
-1.0809e-14
-1.69869e-10
2.75489e-08
-1.07e-14
-1.72863e-10
2.77241e-08
-1.14594e-14
-1.75221e-10
2.79008e-08
-1.30956e-14
-1.76702e-10
2.80778e-08
-1.55407e-14
-1.77019e-10
2.82536e-08
-1.86556e-14
-1.75837e-10
2.84264e-08
-2.22282e-14
-1.72763e-10
2.85937e-08
-2.59971e-14
-1.67343e-10
2.87528e-08
-2.96831e-14
-1.59059e-10
2.89002e-08
-3.30537e-14
-1.47322e-10
2.90317e-08
-3.59452e-14
-1.31473e-10
2.91426e-08
-3.82716e-14
-1.10787e-10
2.92272e-08
-4.00349e-14
-8.44801e-11
2.9279e-08
-4.13233e-14
-5.16981e-11
2.92908e-08
-4.24099e-14
-1.16392e-11
2.92541e-08
-4.27775e-14
3.68614e-11
2.91589e-08
-4.2423e-14
9.54047e-11
2.89938e-08
-4.19362e-14
1.6538e-10
2.87461e-08
-4.11173e-14
2.47965e-10
2.84021e-08
-3.98269e-14
3.44294e-10
2.7947e-08
-3.80901e-14
4.55409e-10
2.73652e-08
-3.62285e-14
5.82192e-10
2.66403e-08
-3.48424e-14
7.25283e-10
2.57557e-08
-3.43766e-14
8.84968e-10
2.46951e-08
-3.43258e-14
1.06104e-09
2.34428e-08
-3.27324e-14
1.25265e-09
2.19852e-08
-2.68233e-14
1.45807e-09
2.03111e-08
-1.484e-14
1.67451e-09
1.84137e-08
2.1149e-15
1.89776e-09
1.62924e-08
1.97863e-14
2.1218e-09
1.39545e-08
3.26386e-14
2.33829e-09
1.14192e-08
3.6841e-14
2.53584e-09
8.72084e-09
3.24401e-14
2.69885e-09
5.91558e-09
2.31181e-14
2.80584e-09
3.08995e-09
1.31247e-14
2.82628e-09
3.72966e-10
2.82696e-15
2.71771e-09
-2.02636e-09
-1.87524e-14
2.40015e-09
-3.82076e-09
-6.15147e-14
1.79532e-09
-4.66169e-09
-1.27105e-13
8.41956e-10
-4.20238e-09
-2.17949e-13
-4.58122e-10
-2.38434e-09
-3.37321e-13
-1.81658e-09
-3.96079e-13
-2.3826e-09
-1.70438e-09
1.70497e-09
-3.36815e-09
1.66545e-09
-4.15335e-09
7.8649e-10
-3.92817e-09
-2.2396e-10
-2.85961e-09
-1.06737e-09
-1.17919e-09
-1.6793e-09
9.11e-10
-2.08918e-09
3.24368e-09
-2.33179e-09
5.6942e-09
-2.44976e-09
8.17557e-09
-2.48074e-09
1.06221e-08
-2.44595e-09
1.29839e-08
-2.36135e-09
1.52232e-08
-2.23888e-09
1.73114e-08
-2.08779e-09
1.92273e-08
-1.91554e-09
2.0956e-08
-1.72833e-09
2.24878e-08
-1.53141e-09
2.38176e-08
-1.32936e-09
2.49441e-08
-1.12615e-09
2.58697e-08
-9.25275e-10
2.65999e-08
-7.29793e-10
2.71426e-08
-5.42391e-10
2.75084e-08
-3.65446e-10
2.77098e-08
-2.01085e-10
2.77615e-08
-5.13511e-11
2.76784e-08
8.34972e-11
2.74745e-08
2.04267e-10
2.7164e-08
3.10803e-10
2.67615e-08
4.02877e-10
2.62813e-08
4.80528e-10
2.57375e-08
5.4404e-10
2.51439e-08
5.93909e-10
2.45134e-08
6.30827e-10
2.3858e-08
6.55637e-10
2.3189e-08
6.69308e-10
2.25163e-08
6.7289e-10
2.1849e-08
6.67493e-10
2.1195e-08
6.54249e-10
2.05609e-08
6.34292e-10
1.99524e-08
6.08733e-10
1.9374e-08
5.78641e-10
1.88292e-08
5.45027e-10
1.83205e-08
5.08829e-10
1.78498e-08
4.70908e-10
1.7418e-08
4.32032e-10
1.70252e-08
3.92879e-10
1.66714e-08
3.54035e-10
1.63555e-08
3.1599e-10
1.60766e-08
2.79146e-10
1.58329e-08
2.43819e-10
1.56228e-08
2.10246e-10
1.54443e-08
1.78593e-10
1.52955e-08
1.48962e-10
1.51742e-08
1.21397e-10
1.50784e-08
9.58957e-11
1.5006e-08
7.24123e-11
1.49552e-08
5.08616e-11
1.4924e-08
3.11202e-11
1.4911e-08
1.30202e-11
1.49144e-08
-3.51556e-12
1.49326e-08
-1.83886e-11
1.49641e-08
-3.16224e-11
1.50073e-08
-4.33995e-11
1.50609e-08
-5.38708e-11
1.51238e-08
-6.31709e-11
1.5195e-08
-7.14186e-11
1.52734e-08
-7.87183e-11
1.53582e-08
-8.51617e-11
1.54487e-08
-9.083e-11
1.55441e-08
-9.57947e-11
1.56438e-08
-1.0012e-10
1.57473e-08
-1.03863e-10
1.5854e-08
-1.07075e-10
1.59633e-08
-1.09806e-10
1.6075e-08
-1.12099e-10
1.61885e-08
-1.13998e-10
1.63036e-08
-1.15545e-10
1.64199e-08
-1.16781e-10
1.65371e-08
-1.17749e-10
1.66551e-08
-1.1849e-10
1.67737e-08
-1.19047e-10
1.68927e-08
-1.19464e-10
1.7012e-08
-1.19786e-10
1.71315e-08
-1.20055e-10
1.72514e-08
-1.20315e-10
1.73715e-08
-1.20606e-10
1.7492e-08
-1.20968e-10
1.7613e-08
-1.21434e-10
1.77345e-08
-1.22034e-10
1.78568e-08
-1.22795e-10
1.79801e-08
-1.23734e-10
1.81045e-08
-1.24866e-10
1.82302e-08
-1.26196e-10
1.83575e-08
-1.27723e-10
1.84866e-08
-1.29438e-10
1.86175e-08
-1.31324e-10
1.87506e-08
-1.33359e-10
1.88858e-08
-1.35514e-10
1.90233e-08
-1.37755e-10
1.91631e-08
-1.40045e-10
1.93053e-08
-1.42342e-10
1.94497e-08
-1.44604e-10
1.95964e-08
-1.46785e-10
1.97451e-08
-1.48839e-10
1.98957e-08
-1.50723e-10
2.0048e-08
-1.52392e-10
2.02017e-08
-1.53809e-10
2.03566e-08
-1.54941e-10
2.05122e-08
-1.55761e-10
2.06684e-08
-1.56253e-10
2.08247e-08
-1.56405e-10
2.09808e-08
-1.56217e-10
2.11364e-08
-1.55694e-10
2.12911e-08
-1.54851e-10
2.14447e-08
-1.53706e-10
2.15968e-08
-1.52287e-10
2.17473e-08
-1.50624e-10
2.18959e-08
-1.4875e-10
2.20424e-08
-1.46706e-10
2.21867e-08
-1.44531e-10
2.23288e-08
-1.42267e-10
2.24685e-08
-1.39955e-10
2.2606e-08
-1.37637e-10
2.27411e-08
-1.35351e-10
2.2874e-08
-1.33134e-10
2.30048e-08
-1.31016e-10
2.31335e-08
-1.29028e-10
2.32605e-08
-1.27192e-10
2.33857e-08
-1.25528e-10
2.35094e-08
-1.2405e-10
2.36319e-08
-1.22769e-10
2.37532e-08
-1.21691e-10
2.38737e-08
-1.2082e-10
2.39934e-08
-1.20155e-10
2.41126e-08
-1.19697e-10
2.42316e-08
-1.19441e-10
2.43505e-08
-1.19387e-10
2.44694e-08
-1.1953e-10
2.45887e-08
-1.19871e-10
2.47085e-08
-1.20408e-10
2.48289e-08
-1.21145e-10
2.49503e-08
-1.22086e-10
2.50729e-08
-1.23235e-10
2.51967e-08
-1.246e-10
2.53222e-08
-1.26189e-10
2.54495e-08
-1.28012e-10
2.55789e-08
-1.30076e-10
2.57107e-08
-1.32389e-10
2.5845e-08
-1.34954e-10
2.59822e-08
-1.37771e-10
2.61225e-08
-1.40832e-10
2.62661e-08
-1.44125e-10
2.64133e-08
-1.47627e-10
2.65642e-08
-1.51301e-10
2.6719e-08
-1.551e-10
2.68776e-08
-1.58957e-10
2.70402e-08
-1.62787e-10
2.72065e-08
-1.66482e-10
2.73763e-08
-1.69908e-10
2.7549e-08
-1.72899e-10
2.77242e-08
-1.75255e-10
2.79009e-08
-1.76736e-10
2.80779e-08
-1.77054e-10
2.82537e-08
-1.75875e-10
2.84265e-08
-1.72805e-10
2.85938e-08
-1.67389e-10
2.87529e-08
-1.59109e-10
2.89003e-08
-1.47375e-10
2.90318e-08
-1.31528e-10
2.91427e-08
-1.10843e-10
2.92273e-08
-8.45348e-11
2.92791e-08
-5.17501e-11
2.92909e-08
-1.16864e-11
2.92542e-08
3.6819e-11
2.9159e-08
9.53666e-11
2.89939e-08
1.65348e-10
2.87462e-08
2.47939e-10
2.84022e-08
3.44275e-10
2.79471e-08
4.55395e-10
2.73653e-08
5.82183e-10
2.66404e-08
7.25279e-10
2.57558e-08
8.84968e-10
2.46951e-08
1.06105e-09
2.34429e-08
1.25266e-09
2.19852e-08
1.4581e-09
2.03111e-08
1.67456e-09
1.84138e-08
1.89783e-09
1.62924e-08
2.12189e-09
1.39547e-08
2.3384e-09
1.14193e-08
2.53596e-09
8.72106e-09
2.69897e-09
5.91583e-09
2.80596e-09
3.09023e-09
2.82639e-09
3.73283e-10
2.71781e-09
-2.02601e-09
2.40022e-09
-3.82041e-09
1.79534e-09
-4.66136e-09
8.41897e-10
-4.20205e-09
-4.58321e-10
-2.38393e-09
-1.81705e-09
-2.38286e-09
-1.52496e-09
1.58834e-13
3.23152e-09
-2.10274e-09
-5.55554e-15
2.24614e-09
-1.63225e-09
-5.10833e-14
3.17754e-10
-4.27476e-10
-2.45082e-14
-1.42747e-09
1.29457e-09
7.12002e-15
-2.78839e-09
3.38174e-09
2.56702e-14
-3.76557e-09
5.71375e-09
3.46208e-14
-4.42034e-09
8.19751e-09
3.74578e-14
-4.81476e-09
1.07562e-08
3.71845e-14
-5.00768e-09
1.33247e-08
3.64689e-14
-5.04855e-09
1.58513e-08
3.64834e-14
-4.97179e-09
1.82945e-08
3.6842e-14
-4.80385e-09
2.06214e-08
3.68401e-14
-4.56513e-09
2.28062e-08
3.58805e-14
-4.27191e-09
2.48289e-08
3.36374e-14
-3.93758e-09
2.66746e-08
3.00089e-14
-3.57344e-09
2.8333e-08
2.5136e-14
-3.18925e-09
2.97978e-08
1.95292e-14
-2.79357e-09
3.10661e-08
1.40136e-14
-2.39396e-09
3.21384e-08
9.4089e-15
-1.99711e-09
3.3018e-08
6.17054e-15
-1.60895e-09
3.37107e-08
4.24285e-15
-1.23465e-09
3.42244e-08
3.18678e-15
-8.78746e-10
3.45688e-08
2.43025e-15
-5.45093e-10
3.47546e-08
1.46128e-15
-2.36902e-10
3.47946e-08
-4.0853e-17
4.38017e-11
3.47028e-08
-2.18048e-15
2.96306e-10
3.44936e-08
-4.87117e-15
5.20277e-10
3.41813e-08
-7.84269e-15
7.15398e-10
3.37803e-08
-1.0703e-14
8.81779e-10
3.33045e-08
-1.30473e-14
1.01993e-09
3.27679e-08
-1.45742e-14
1.13073e-09
3.21834e-08
-1.51628e-14
1.21543e-09
3.15636e-08
-1.48766e-14
1.27557e-09
3.09201e-08
-1.39122e-14
1.31293e-09
3.02636e-08
-1.2535e-14
1.32948e-09
2.96038e-08
-1.10187e-14
1.32732e-09
2.89495e-08
-9.58816e-15
1.30864e-09
2.83082e-08
-8.37385e-15
1.27564e-09
2.76865e-08
-7.39524e-15
1.23052e-09
2.70899e-08
-6.58358e-15
1.17539e-09
2.65227e-08
-5.8257e-15
1.1123e-09
2.59884e-08
-5.00503e-15
1.04316e-09
2.54897e-08
-4.0225e-15
9.69718e-10
2.50283e-08
-2.81521e-15
8.93582e-10
2.46051e-08
-1.38133e-15
8.16172e-10
2.42205e-08
2.08873e-16
7.38729e-10
2.38743e-08
1.83376e-15
6.62312e-10
2.35658e-08
3.35336e-15
5.87801e-10
2.32938e-08
4.64493e-15
5.15909e-10
2.3057e-08
5.61274e-15
4.47185e-10
2.28536e-08
6.18947e-15
3.82035e-10
2.26819e-08
6.3415e-15
3.20733e-10
2.25399e-08
6.07567e-15
2.63433e-10
2.24257e-08
5.44586e-15
2.10192e-10
2.23371e-08
4.54131e-15
1.60977e-10
2.22723e-08
3.46426e-15
1.15682e-10
2.22292e-08
2.31066e-15
7.41426e-11
2.2206e-08
1.17223e-15
3.61543e-11
2.22008e-08
1.27376e-16
1.51934e-12
2.22121e-08
-7.46072e-16
-2.98134e-11
2.22383e-08
-1.36397e-15
-5.79507e-11
2.22779e-08
-1.6655e-15
-8.31592e-11
2.23295e-08
-1.61673e-15
-1.0568e-10
2.23918e-08
-1.21038e-15
-1.2575e-10
2.24638e-08
-4.69017e-16
-1.43585e-10
2.25442e-08
5.52289e-16
-1.59389e-10
2.26321e-08
1.75758e-15
-1.73343e-10
2.27266e-08
3.00082e-15
-1.85611e-10
2.28268e-08
4.09173e-15
-1.96343e-10
2.2932e-08
4.82073e-15
-2.05673e-10
2.30415e-08
4.99472e-15
-2.13724e-10
2.31547e-08
4.4823e-15
-2.20607e-10
2.32709e-08
3.25084e-15
-2.2643e-10
2.33897e-08
1.39152e-15
-2.31291e-10
2.35106e-08
-8.66141e-16
-2.35287e-10
2.36332e-08
-3.1715e-15
-2.38512e-10
2.37571e-08
-5.09663e-15
-2.4106e-10
2.3882e-08
-6.21641e-15
-2.43024e-10
2.40077e-08
-6.21826e-15
-2.44497e-10
2.41338e-08
-5.00895e-15
-2.45575e-10
2.42603e-08
-2.78461e-15
-2.46351e-10
2.43871e-08
-2.53181e-17
-2.46921e-10
2.4514e-08
2.60343e-15
-2.47377e-10
2.46412e-08
4.41913e-15
-2.47809e-10
2.47685e-08
4.91915e-15
-2.48304e-10
2.4896e-08
3.9324e-15
-2.48939e-10
2.5024e-08
1.68287e-15
-2.49786e-10
2.51524e-08
-1.27029e-15
-2.50905e-10
2.52816e-08
-4.19212e-15
-2.52348e-10
2.54116e-08
-6.38427e-15
-2.54153e-10
2.55428e-08
-7.37674e-15
-2.56347e-10
2.56752e-08
-7.04909e-15
-2.58943e-10
2.58091e-08
-5.64157e-15
-2.61942e-10
2.59447e-08
-3.66409e-15
-2.65326e-10
2.60821e-08
-1.73431e-15
-2.69066e-10
2.62217e-08
-3.96835e-16
-2.73117e-10
2.63633e-08
2.16673e-17
-2.77421e-10
2.65073e-08
-5.09916e-16
-2.81907e-10
2.66536e-08
-1.73907e-15
-2.86497e-10
2.68022e-08
-3.21803e-15
-2.91105e-10
2.69531e-08
-4.43709e-15
-2.9564e-10
2.71063e-08
-4.96389e-15
-3.00011e-10
2.72615e-08
-4.55361e-15
-3.04125e-10
2.74186e-08
-3.20581e-15
-3.07896e-10
2.75774e-08
-1.14993e-15
-3.11238e-10
2.77376e-08
1.22134e-15
-3.1408e-10
2.7899e-08
3.45579e-15
-3.16355e-10
2.80612e-08
5.14769e-15
-3.18014e-10
2.82239e-08
6.02199e-15
-3.19017e-10
2.83867e-08
5.98241e-15
-3.19341e-10
2.85494e-08
5.1093e-15
-3.18979e-10
2.87115e-08
3.62491e-15
-3.17939e-10
2.88727e-08
1.82719e-15
-3.16244e-10
2.90328e-08
1.9716e-17
-3.13931e-10
2.91914e-08
-1.54858e-15
-3.11049e-10
2.93483e-08
-2.72505e-15
-3.07662e-10
2.95032e-08
-3.46328e-15
-3.03841e-10
2.9656e-08
-3.80893e-15
-2.99664e-10
2.98065e-08
-3.86791e-15
-2.95213e-10
2.99546e-08
-3.76664e-15
-2.90575e-10
3.01003e-08
-3.61442e-15
-2.85834e-10
3.02435e-08
-3.48648e-15
-2.81072e-10
3.03843e-08
-3.41525e-15
-2.76368e-10
3.05227e-08
-3.40104e-15
-2.71794e-10
3.06588e-08
-3.42641e-15
-2.67415e-10
3.07928e-08
-3.47059e-15
-2.63288e-10
3.09248e-08
-3.5164e-15
-2.5946e-10
3.1055e-08
-3.55207e-15
-2.5597e-10
3.11835e-08
-3.56936e-15
-2.52848e-10
3.13105e-08
-3.56295e-15
-2.50114e-10
3.14362e-08
-3.52728e-15
-2.47781e-10
3.15608e-08
-3.45962e-15
-2.45857e-10
3.16846e-08
-3.35683e-15
-2.44342e-10
3.18077e-08
-3.21474e-15
-2.43235e-10
3.19303e-08
-3.02434e-15
-2.42529e-10
3.20527e-08
-2.77502e-15
-2.42221e-10
3.2175e-08
-2.4574e-15
-2.42304e-10
3.22973e-08
-2.06545e-15
-2.42776e-10
3.242e-08
-1.59815e-15
-2.43637e-10
3.25432e-08
-1.05712e-15
-2.44891e-10
3.26672e-08
-4.44541e-16
-2.46544e-10
3.2792e-08
2.39326e-16
-2.48607e-10
3.29179e-08
9.92202e-16
-2.51094e-10
3.30453e-08
1.80921e-15
-2.5402e-10
3.31741e-08
2.67918e-15
-2.57401e-10
3.33048e-08
3.58942e-15
-2.61253e-10
3.34376e-08
4.52493e-15
-2.65588e-10
3.35726e-08
5.46813e-15
-2.70411e-10
3.37102e-08
6.39685e-15
-2.75719e-10
3.38505e-08
7.2775e-15
-2.81498e-10
3.39938e-08
8.06831e-15
-2.87716e-10
3.41403e-08
8.72571e-15
-2.94323e-10
3.429e-08
9.21062e-15
-3.01244e-10
3.44431e-08
9.49489e-15
-3.08374e-10
3.45995e-08
9.55788e-15
-3.15573e-10
3.47593e-08
9.38723e-15
-3.2266e-10
3.49221e-08
8.98402e-15
-3.29409e-10
3.50877e-08
8.37037e-15
-3.35536e-10
3.52554e-08
7.59224e-15
-3.40695e-10
3.54246e-08
6.71302e-15
-3.44467e-10
3.55942e-08
5.80171e-15
-3.46351e-10
3.5763e-08
4.92467e-15
-3.45754e-10
3.59291e-08
4.14694e-15
-3.41981e-10
3.60905e-08
3.53277e-15
-3.34222e-10
3.62447e-08
3.13598e-15
-3.21544e-10
3.63886e-08
2.99182e-15
-3.02877e-10
3.65183e-08
3.10467e-15
-2.77014e-10
3.66295e-08
3.45697e-15
-2.42595e-10
3.67169e-08
4.00942e-15
-1.98113e-10
3.67744e-08
4.70537e-15
-1.41908e-10
3.6795e-08
5.47086e-15
-7.21612e-11
3.67705e-08
6.26049e-15
1.30369e-11
3.66915e-08
6.87687e-15
1.15992e-10
3.65479e-08
7.24009e-15
2.39303e-10
3.63281e-08
7.42662e-15
3.85429e-10
3.60196e-08
7.42461e-15
5.56733e-10
3.56088e-08
7.3459e-15
7.55438e-10
3.5081e-08
7.40812e-15
9.83539e-10
3.44209e-08
7.84483e-15
1.24267e-09
3.36126e-08
8.71067e-15
1.53396e-09
3.26402e-08
9.68276e-15
1.85777e-09
3.14881e-08
1.00918e-14
2.2135e-09
3.0142e-08
9.3124e-15
2.59925e-09
2.8589e-08
7.30302e-15
3.01143e-09
2.68197e-08
4.8074e-15
3.44435e-09
2.48283e-08
2.95934e-15
3.88964e-09
2.26151e-08
2.54083e-15
4.33555e-09
2.01879e-08
3.44969e-15
4.76603e-09
1.75648e-08
4.78626e-15
5.15953e-09
1.47771e-08
5.60143e-15
5.48725e-09
1.18729e-08
6.00214e-15
5.71068e-09
8.92259e-09
7.93864e-15
5.77739e-09
6.0235e-09
1.4569e-14
5.61764e-09
3.29533e-09
2.70686e-14
5.1292e-09
8.92064e-10
4.49033e-14
4.19951e-09
-9.82501e-10
6.69622e-14
2.71752e-09
-2.04549e-09
8.7813e-14
6.0603e-10
-1.82368e-09
5.53081e-14
-2.03684e-09
-1.34402e-13
-4.20499e-09
-1.52411e-09
3.23147e-09
-2.10221e-09
2.24573e-09
-1.63201e-09
3.17523e-10
-4.27346e-10
-1.42761e-09
1.2947e-09
-2.78849e-09
3.38193e-09
-3.76567e-09
5.71399e-09
-4.42044e-09
8.1978e-09
-4.81488e-09
1.07565e-08
-5.00782e-09
1.33251e-08
-5.0487e-09
1.58516e-08
-4.97194e-09
1.82948e-08
-4.80401e-09
2.06217e-08
-4.5653e-09
2.28065e-08
-4.27208e-09
2.48291e-08
-3.93774e-09
2.66748e-08
-3.57358e-09
2.83332e-08
-3.18938e-09
2.9798e-08
-2.79368e-09
3.10663e-08
-2.39406e-09
3.21386e-08
-1.9972e-09
3.30181e-08
-1.60902e-09
3.37108e-08
-1.23471e-09
3.42245e-08
-8.78791e-10
3.45688e-08
-5.45124e-10
3.47547e-08
-2.3692e-10
3.47947e-08
4.37975e-11
3.47029e-08
2.96315e-10
3.44937e-08
5.20296e-10
3.41814e-08
7.15427e-10
3.37803e-08
8.81815e-10
3.33046e-08
1.01997e-09
3.27679e-08
1.13077e-09
3.21835e-08
1.21548e-09
3.15637e-08
1.27562e-09
3.09201e-08
1.31297e-09
3.02636e-08
1.32952e-09
2.96039e-08
1.32737e-09
2.89496e-08
1.30869e-09
2.83083e-08
1.27569e-09
2.76866e-08
1.23056e-09
2.709e-08
1.17544e-09
2.65228e-08
1.11234e-09
2.59886e-08
1.04319e-09
2.54899e-08
9.69748e-10
2.50284e-08
8.93608e-10
2.46052e-08
8.16193e-10
2.42207e-08
7.38745e-10
2.38745e-08
6.62323e-10
2.35659e-08
5.87809e-10
2.32939e-08
5.15914e-10
2.30571e-08
4.47188e-10
2.28538e-08
3.82038e-10
2.26821e-08
3.20734e-10
2.25401e-08
2.63434e-10
2.24258e-08
2.10193e-10
2.23373e-08
1.60977e-10
2.22724e-08
1.15682e-10
2.22293e-08
7.41404e-11
2.22061e-08
3.615e-11
2.2201e-08
1.51276e-12
2.22123e-08
-2.98223e-11
2.22384e-08
-5.79622e-11
2.2278e-08
-8.3173e-11
2.23296e-08
-1.05696e-10
2.2392e-08
-1.25767e-10
2.24639e-08
-1.43603e-10
2.25443e-08
-1.59406e-10
2.26322e-08
-1.73359e-10
2.27267e-08
-1.85625e-10
2.28269e-08
-1.96354e-10
2.29321e-08
-2.05681e-10
2.30416e-08
-2.13729e-10
2.31548e-08
-2.20611e-10
2.32711e-08
-2.26433e-10
2.33899e-08
-2.31295e-10
2.35108e-08
-2.35293e-10
2.36334e-08
-2.38522e-10
2.37573e-08
-2.41073e-10
2.38822e-08
-2.43041e-10
2.40078e-08
-2.44517e-10
2.41339e-08
-2.45597e-10
2.42604e-08
-2.46373e-10
2.43872e-08
-2.46941e-10
2.45142e-08
-2.47394e-10
2.46413e-08
-2.47822e-10
2.47686e-08
-2.48312e-10
2.48961e-08
-2.48943e-10
2.50241e-08
-2.49787e-10
2.51526e-08
-2.50905e-10
2.52817e-08
-2.52349e-10
2.54118e-08
-2.54156e-10
2.55429e-08
-2.56352e-10
2.56753e-08
-2.58951e-10
2.58092e-08
-2.6195e-10
2.59448e-08
-2.65332e-10
2.60822e-08
-2.69069e-10
2.62218e-08
-2.73115e-10
2.63635e-08
-2.77415e-10
2.65074e-08
-2.81898e-10
2.66537e-08
-2.86488e-10
2.68023e-08
-2.91098e-10
2.69533e-08
-2.95638e-10
2.71064e-08
-3.00014e-10
2.72616e-08
-3.04134e-10
2.74187e-08
-3.07909e-10
2.75775e-08
-3.11254e-10
2.77377e-08
-3.14096e-10
2.78991e-08
-3.16369e-10
2.80613e-08
-3.18024e-10
2.8224e-08
-3.19022e-10
2.83868e-08
-3.19342e-10
2.85495e-08
-3.18977e-10
2.87116e-08
-3.17934e-10
2.88729e-08
-3.16237e-10
2.90329e-08
-3.13924e-10
2.91915e-08
-3.11043e-10
2.93484e-08
-3.07657e-10
2.95033e-08
-3.03837e-10
2.96561e-08
-2.99661e-10
2.98066e-08
-2.95212e-10
2.99547e-08
-2.90574e-10
3.01004e-08
-2.85833e-10
3.02436e-08
-2.81071e-10
3.03844e-08
-2.76366e-10
3.05228e-08
-2.71792e-10
3.06589e-08
-2.67413e-10
3.07929e-08
-2.63285e-10
3.09249e-08
-2.59456e-10
3.10551e-08
-2.55966e-10
3.11835e-08
-2.52844e-10
3.13105e-08
-2.50111e-10
3.14363e-08
-2.47779e-10
3.15609e-08
-2.45857e-10
3.16847e-08
-2.44344e-10
3.18078e-08
-2.43239e-10
3.19304e-08
-2.42536e-10
3.20528e-08
-2.4223e-10
3.2175e-08
-2.42317e-10
3.22974e-08
-2.42792e-10
3.24201e-08
-2.43657e-10
3.25433e-08
-2.44914e-10
3.26672e-08
-2.4657e-10
3.27921e-08
-2.48636e-10
3.2918e-08
-2.51125e-10
3.30453e-08
-2.54053e-10
3.31742e-08
-2.57435e-10
3.33049e-08
-2.61287e-10
3.34377e-08
-2.6562e-10
3.35727e-08
-2.70442e-10
3.37103e-08
-2.75748e-10
3.38506e-08
-2.81524e-10
3.39939e-08
-2.87738e-10
3.41404e-08
-2.94341e-10
3.42901e-08
-3.01258e-10
3.44432e-08
-3.08384e-10
3.45996e-08
-3.15579e-10
3.47594e-08
-3.22665e-10
3.49222e-08
-3.29412e-10
3.50878e-08
-3.35539e-10
3.52555e-08
-3.40699e-10
3.54247e-08
-3.44473e-10
3.55943e-08
-3.4636e-10
3.5763e-08
-3.45768e-10
3.59292e-08
-3.41999e-10
3.60906e-08
-3.34246e-10
3.62448e-08
-3.21572e-10
3.63886e-08
-3.02911e-10
3.65184e-08
-2.77051e-10
3.66295e-08
-2.42636e-10
3.67169e-08
-1.98156e-10
3.67744e-08
-1.41953e-10
3.6795e-08
-7.22065e-11
3.67705e-08
1.29922e-11
3.66916e-08
1.15949e-10
3.65479e-08
2.39261e-10
3.63282e-08
3.8539e-10
3.60197e-08
5.56697e-10
3.56089e-08
7.55406e-10
3.50811e-08
9.83511e-10
3.4421e-08
1.24265e-09
3.36127e-08
1.53394e-09
3.26403e-08
1.85775e-09
3.14882e-08
2.21349e-09
3.0142e-08
2.59924e-09
2.85891e-08
3.01144e-09
2.68197e-08
3.44437e-09
2.48283e-08
3.88968e-09
2.26151e-08
4.3356e-09
2.01879e-08
4.76609e-09
1.75649e-08
5.15961e-09
1.47771e-08
5.48733e-09
1.1873e-08
5.71076e-09
8.92265e-09
5.77745e-09
6.02357e-09
5.61769e-09
3.29545e-09
5.1292e-09
8.92281e-10
4.19943e-09
-9.82132e-10
2.71736e-09
-2.04493e-09
6.05731e-10
-1.82305e-09
-2.03733e-09
-4.2052e-09
-6.10496e-10
2.06474e-13
3.84317e-09
-7.87403e-11
7.63915e-14
1.71582e-09
1.12993e-09
1.24269e-14
-8.90302e-10
2.72109e-09
5.04041e-16
-3.01821e-09
4.58163e-09
6.02819e-15
-4.64858e-09
6.64819e-09
1.25095e-14
-5.83185e-09
8.86498e-09
1.71548e-14
-6.6369e-09
1.11817e-08
1.98798e-14
-7.13122e-09
1.35503e-08
2.11253e-14
-7.3761e-09
1.59252e-08
2.18515e-14
-7.42334e-09
1.82669e-08
2.27897e-14
-7.31326e-09
2.05412e-08
2.3875e-14
-7.07803e-09
2.27197e-08
2.46697e-14
-6.74351e-09
2.4779e-08
2.46743e-14
-6.33102e-09
2.67001e-08
2.36613e-14
-5.85853e-09
2.84683e-08
2.16698e-14
-5.34153e-09
3.00728e-08
1.89312e-14
-4.7936e-09
3.15062e-08
1.58363e-14
-4.2268e-09
3.27642e-08
1.28579e-14
-3.65189e-09
3.38457e-08
1.04372e-14
-3.07848e-09
3.4752e-08
8.81878e-15
-2.51512e-09
3.54868e-08
7.93028e-15
-1.96934e-09
3.60559e-08
7.42337e-15
-1.44772e-09
3.64668e-08
6.85619e-15
-9.55827e-10
3.67282e-08
5.87881e-15
-4.98213e-10
3.68504e-08
4.3111e-15
-7.83008e-11
3.68451e-08
2.17913e-15
3.01668e-10
3.6725e-08
-3.08726e-16
6.4047e-10
3.6503e-08
-2.86519e-15
9.37559e-10
3.61919e-08
-5.18312e-15
1.19293e-09
3.58048e-08
-7.00859e-15
1.40717e-09
3.53542e-08
-8.20516e-15
1.58141e-09
3.48524e-08
-8.77607e-15
1.71728e-09
3.43112e-08
-8.83686e-15
1.81688e-09
3.37415e-08
-8.56349e-15
1.88267e-09
3.31537e-08
-8.14222e-15
1.91738e-09
3.25571e-08
-7.7273e-15
1.92399e-09
3.19602e-08
-7.40914e-15
1.90559e-09
3.13705e-08
-7.2002e-15
1.86535e-09
3.07947e-08
-7.04527e-15
1.80643e-09
3.02382e-08
-6.84859e-15
1.73193e-09
2.97058e-08
-6.51069e-15
1.64482e-09
2.9201e-08
-5.95303e-15
1.54793e-09
2.87269e-08
-5.13137e-15
1.44387e-09
2.82856e-08
-4.04701e-15
1.33503e-09
2.78782e-08
-2.75991e-15
1.22354e-09
2.75057e-08
-1.3819e-15
1.11129e-09
2.71682e-08
-4.54729e-17
9.99895e-10
2.68653e-08
1.12799e-15
8.90728e-10
2.65964e-08
2.04559e-15
7.84899e-10
2.63603e-08
2.64832e-15
6.8329e-10
2.61558e-08
2.91034e-15
5.86564e-10
2.59814e-08
2.84276e-15
4.95191e-10
2.58353e-08
2.49268e-15
4.09463e-10
2.5716e-08
1.93742e-15
3.29523e-10
2.56216e-08
1.26913e-15
2.55383e-10
2.55504e-08
5.79035e-16
1.8695e-10
2.55004e-08
-5.32707e-17
1.24047e-10
2.54701e-08
-5.61872e-16
6.64447e-11
2.54577e-08
-9.08874e-16
1.38932e-11
2.54617e-08
-1.05319e-15
-3.38086e-11
2.54805e-08
-9.50298e-16
-7.68842e-11
2.5513e-08
-5.96905e-16
-1.1564e-10
2.55576e-08
-2.13586e-17
-1.50394e-10
2.56132e-08
7.24299e-16
-1.81461e-10
2.56787e-08
1.56716e-15
-2.09144e-10
2.57529e-08
2.41635e-15
-2.33727e-10
2.5835e-08
3.16152e-15
-2.55473e-10
2.59239e-08
3.67787e-15
-2.74622e-10
2.60188e-08
3.84429e-15
-2.91395e-10
2.6119e-08
3.56819e-15
-3.05993e-10
2.62238e-08
2.81336e-15
-3.18603e-10
2.63324e-08
1.62117e-15
-3.29398e-10
2.64444e-08
1.15854e-16
-3.38541e-10
2.65592e-08
-1.49972e-15
-3.46187e-10
2.66762e-08
-2.96291e-15
-3.52486e-10
2.67952e-08
-3.98824e-15
-3.57586e-10
2.69156e-08
-4.32034e-15
-3.61633e-10
2.70372e-08
-3.80041e-15
-3.64773e-10
2.71597e-08
-2.43275e-15
-3.67151e-10
2.72829e-08
-4.26268e-16
-3.68913e-10
2.74067e-08
1.81348e-15
-3.70205e-10
2.75308e-08
3.7574e-15
-3.71171e-10
2.76552e-08
4.88496e-15
-3.71951e-10
2.77799e-08
4.8417e-15
-3.72681e-10
2.79049e-08
3.56869e-15
-3.7349e-10
2.80303e-08
1.34938e-15
-3.74497e-10
2.81562e-08
-1.25178e-15
-3.75809e-10
2.82827e-08
-3.55457e-15
-3.7752e-10
2.84099e-08
-4.97074e-15
-3.79705e-10
2.85381e-08
-5.18991e-15
-3.82425e-10
2.86673e-08
-4.27044e-15
-3.85719e-10
2.87979e-08
-2.60944e-15
-3.89606e-10
2.89299e-08
-8.01142e-16
-3.94083e-10
2.90636e-08
5.5851e-16
-3.99126e-10
2.91991e-08
1.05422e-15
-4.04688e-10
2.93366e-08
5.6731e-16
-4.10702e-10
2.94762e-08
-7.11009e-16
-4.17082e-10
2.9618e-08
-2.3553e-15
-4.23726e-10
2.9762e-08
-3.84303e-15
-4.30516e-10
2.99081e-08
-4.70789e-15
-4.37327e-10
3.00565e-08
-4.66207e-15
-4.44026e-10
3.02069e-08
-3.65808e-15
-4.50476e-10
3.03593e-08
-1.88567e-15
-4.56544e-10
3.05135e-08
2.94239e-16
-4.62099e-10
3.06692e-08
2.44878e-15
-4.67019e-10
3.08263e-08
4.18167e-15
-4.71197e-10
3.09844e-08
5.21774e-15
-4.74539e-10
3.11434e-08
5.44814e-15
-4.76969e-10
3.13027e-08
4.92886e-15
-4.78433e-10
3.14622e-08
3.84407e-15
-4.78897e-10
3.16216e-08
2.44637e-15
-4.78352e-10
3.17804e-08
9.94196e-16
-4.76808e-10
3.19384e-08
-2.98224e-16
-4.743e-10
3.20953e-08
-1.29265e-15
-4.70883e-10
3.22508e-08
-1.93395e-15
-4.66632e-10
3.24048e-08
-2.23931e-15
-4.61635e-10
3.25569e-08
-2.2784e-15
-4.55998e-10
3.2707e-08
-2.14558e-15
-4.49835e-10
3.2855e-08
-1.93638e-15
-4.43265e-10
3.30007e-08
-1.72956e-15
-4.36414e-10
3.31442e-08
-1.57793e-15
-4.29404e-10
3.32854e-08
-1.50822e-15
-4.22356e-10
3.34244e-08
-1.52648e-15
-4.15385e-10
3.35611e-08
-1.6279e-15
-4.08595e-10
3.36957e-08
-1.80387e-15
-4.02082e-10
3.38282e-08
-2.04396e-15
-3.95928e-10
3.39589e-08
-2.33669e-15
-3.90204e-10
3.40878e-08
-2.66525e-15
-3.84967e-10
3.42151e-08
-3.00899e-15