/*--------------------------------*- C++ -*----------------------------------*\
  =========                 |
  \\      /  F ield         | OpenFOAM: The Open Source CFD Toolbox
   \\    /   O peration     | Website:  https://openfoam.org
    \\  /    A nd           | Version:  8
     \\/     M anipulation  |
\*---------------------------------------------------------------------------*/
FoamFile
{
    version     2.0;
    format      ascii;
    class       volScalarField;
    location    "800";
    object      T;
}
// * * * * * * * * * * * * * * * * * * * * * * * * * * * * * * * * * * * * * //

dimensions      [0 0 0 1 0 0 0];

internalField   nonuniform List<scalar> 
46000
(
310.868
310.006
309.038
308.245
307.613
307.141
306.782
306.51
306.306
306.15
306.03
305.94
305.874
305.829
305.801
305.789
305.79
305.803
305.827
305.86
305.902
305.951
306.007
306.069
306.135
306.204
306.274
306.346
306.42
306.495
306.571
306.648
306.724
306.8
306.875
306.948
307.019
307.087
307.153
307.216
307.275
307.331
307.383
307.432
307.477
307.519
307.558
307.593
307.625
307.655
307.682
307.706
307.729
307.749
307.767
307.783
307.798
307.811
307.823
307.834
307.843
307.851
307.858
307.864
307.869
307.874
307.878
307.882
307.885
307.887
307.89
307.891
307.893
307.894
307.894
307.895
307.895
307.895
307.895
307.894
307.893
307.892
307.891
307.889
307.888
307.886
307.884
307.881
307.879
307.876
307.873
307.869
307.865
307.861
307.857
307.853
307.848
307.843
307.837
307.832
307.826
307.82
307.814
307.808
307.802
307.795
307.789
307.782
307.775
307.769
307.762
307.756
307.749
307.743
307.737
307.731
307.725
307.719
307.713
307.707
307.702
307.696
307.691
307.685
307.68
307.675
307.67
307.665
307.66
307.655
307.649
307.644
307.639
307.634
307.628
307.623
307.617
307.611
307.606
307.6
307.593
307.587
307.58
307.573
307.566
307.559
307.551
307.543
307.535
307.526
307.517
307.508
307.498
307.488
307.477
307.466
307.455
307.443
307.432
307.42
307.408
307.396
307.384
307.373
307.362
307.352
307.343
307.336
307.33
307.326
307.325
307.326
307.331
307.339
307.351
307.368
307.391
307.419
307.455
307.499
307.551
307.614
307.688
307.773
307.873
307.987
308.117
308.264
308.43
308.614
308.818
309.038
309.272
309.514
309.762
309.992
310.217
310.452
310.721
311.025
310.868
310.006
309.038
308.245
307.613
307.141
306.782
306.51
306.306
306.15
306.03
305.94
305.874
305.828
305.801
305.788
305.79
305.803
305.827
305.86
305.902
305.951
306.007
306.069
306.135
306.204
306.274
306.346
306.42
306.495
306.571
306.648
306.724
306.8
306.875
306.948
307.019
307.087
307.153
307.216
307.275
307.331
307.383
307.432
307.477
307.519
307.558
307.593
307.625
307.655
307.682
307.706
307.729
307.749
307.767
307.783
307.798
307.811
307.823
307.834
307.843
307.851
307.858
307.864
307.869
307.874
307.878
307.882
307.885
307.887
307.89
307.891
307.893
307.894
307.894
307.895
307.895
307.895
307.895
307.894
307.893
307.892
307.891
307.889
307.888
307.886
307.884
307.881
307.879
307.876
307.873
307.869
307.865
307.861
307.857
307.853
307.848
307.843
307.837
307.832
307.826
307.82
307.814
307.808
307.802
307.795
307.789
307.782
307.775
307.769
307.762
307.756
307.749
307.743
307.737
307.731
307.725
307.719
307.713
307.707
307.702
307.696
307.691
307.685
307.68
307.675
307.67
307.665
307.66
307.655
307.649
307.644
307.639
307.634
307.628
307.623
307.617
307.611
307.606
307.6
307.593
307.587
307.58
307.573
307.566
307.559
307.551
307.543
307.535
307.526
307.517
307.508
307.498
307.488
307.477
307.466
307.455
307.443
307.432
307.42
307.408
307.396
307.384
307.373
307.362
307.352
307.343
307.336
307.33
307.326
307.325
307.326
307.331
307.339
307.351
307.368
307.391
307.419
307.455
307.499
307.551
307.614
307.687
307.773
307.873
307.987
308.117
308.264
308.43
308.614
308.818
309.038
309.272
309.514
309.761
309.992
310.217
310.452
310.721
311.025
307.445
306.304
305.279
304.517
303.978
303.596
303.322
303.126
302.985
302.886
302.819
302.777
302.756
302.751
302.761
302.782
302.815
302.856
302.906
302.964
303.027
303.097
303.171
303.249
303.332
303.417
303.504
303.593
303.682
303.771
303.86
303.948
304.035
304.121
304.204
304.286
304.364
304.439
304.511
304.579
304.644
304.704
304.761
304.814
304.863
304.909
304.95
304.989
305.024
305.057
305.087
305.114
305.139
305.161
305.182
305.201
305.219
305.235
305.249
305.263
305.276
305.287
305.298
305.308
305.317
305.325
305.333
305.341
305.348
305.355
305.361
305.368
305.373
305.379
305.384
305.389
305.394
305.399
305.404
305.408
305.412
305.416
305.42
305.424
305.427
305.431
305.434
305.436
305.439
305.441
305.443
305.445
305.447
305.448
305.449
305.449
305.45
305.45
305.45
305.449
305.449
305.448
305.447
305.445
305.444
305.442
305.441
305.439
305.437
305.435
305.433
305.431
305.43
305.428
305.426
305.424
305.423
305.421
305.42
305.419
305.417
305.416
305.415
305.414
305.413
305.412
305.411
305.409
305.408
305.407
305.406
305.405
305.404
305.402
305.401
305.4
305.398
305.396
305.394
305.392
305.39
305.388
305.385
305.382
305.379
305.376
305.372
305.369
305.365
305.36
305.356
305.351
305.346
305.34
305.335
305.329
305.323
305.316
305.31
305.303
305.297
305.291
305.285
305.279
305.274
305.27
305.267
305.265
305.265
305.267
305.271
305.277
305.287
305.3
305.317
305.339
305.366
305.398
305.438
305.485
305.541
305.607
305.683
305.771
305.871
305.987
306.117
306.265
306.43
306.612
306.811
307.024
307.246
307.468
307.682
307.871
308.031
308.166
308.284
308.368
307.444
306.304
305.279
304.517
303.978
303.596
303.322
303.125
302.985
302.886
302.819
302.777
302.756
302.751
302.761
302.782
302.815
302.856
302.906
302.964
303.027
303.097
303.171
303.249
303.332
303.417
303.504
303.593
303.682
303.771
303.86
303.948
304.035
304.121
304.205
304.286
304.364
304.439
304.511
304.579
304.644
304.704
304.761
304.814
304.863
304.909
304.95
304.989
305.024
305.057
305.087
305.114
305.139
305.161
305.182
305.201
305.219
305.235
305.249
305.263
305.276
305.287
305.298
305.308
305.317
305.325
305.333
305.341
305.348
305.355
305.361
305.368
305.373
305.379
305.384
305.389
305.394
305.399
305.404
305.408
305.412
305.416
305.42
305.424
305.427
305.431
305.434
305.436
305.439
305.441
305.443
305.445
305.447
305.448
305.449
305.449
305.45
305.45
305.45
305.449
305.449
305.448
305.447
305.445
305.444
305.442
305.441
305.439
305.437
305.435
305.433
305.431
305.43
305.428
305.426
305.424
305.423
305.421
305.42
305.419
305.417
305.416
305.415
305.414
305.413
305.412
305.411
305.409
305.408
305.407
305.406
305.405
305.404
305.402
305.401
305.4
305.398
305.396
305.394
305.392
305.39
305.388
305.385
305.382
305.379
305.376
305.372
305.369
305.365
305.36
305.356
305.351
305.346
305.34
305.335
305.329
305.323
305.316
305.31
305.303
305.297
305.291
305.285
305.279
305.274
305.27
305.267
305.265
305.265
305.267
305.271
305.277
305.287
305.3
305.317
305.339
305.366
305.398
305.438
305.485
305.541
305.607
305.683
305.771
305.871
305.987
306.117
306.265
306.43
306.612
306.811
307.024
307.246
307.468
307.681
307.871
308.031
308.166
308.284
308.368
305.032
304.105
303.356
302.822
302.437
302.156
301.953
301.807
301.704
301.634
301.59
301.567
301.561
301.568
301.588
301.618
301.658
301.705
301.76
301.82
301.887
301.959
302.035
302.115
302.198
302.285
302.373
302.462
302.553
302.643
302.734
302.823
302.912
302.999
303.084
303.166
303.246
303.323
303.396
303.466
303.533
303.595
303.654
303.709
303.76
303.808
303.852
303.893
303.93
303.965
303.997
304.026
304.053
304.078
304.1
304.121
304.141
304.158
304.175
304.19
304.205
304.218
304.23
304.242
304.253
304.263
304.273
304.282
304.291
304.3
304.308
304.316
304.323
304.33
304.338
304.344
304.351
304.358
304.364
304.37
304.376
304.382
304.388
304.393
304.398
304.403
304.408
304.413
304.417
304.422
304.425
304.429
304.432
304.435
304.438
304.441
304.443
304.445
304.446
304.448
304.449
304.45
304.45
304.451
304.451
304.451
304.451
304.451
304.451
304.451
304.45
304.45
304.45
304.45
304.449
304.449
304.449
304.449
304.449
304.449
304.449
304.449
304.45
304.45
304.45
304.45
304.451
304.451
304.451
304.451
304.452
304.452
304.452
304.452
304.452
304.451
304.451
304.451
304.45
304.449
304.448
304.447
304.446
304.445
304.443
304.441
304.439
304.437
304.434
304.431
304.428
304.425
304.421
304.418
304.414
304.409
304.405
304.401
304.396
304.392
304.387
304.383
304.379
304.376
304.373
304.371
304.371
304.371
304.373
304.378
304.384
304.393
304.405
304.421
304.44
304.464
304.494
304.529
304.57
304.62
304.677
304.744
304.821
304.909
305.009
305.123
305.252
305.395
305.554
305.728
305.915
306.113
306.317
306.519
306.709
306.876
307.009
307.1
307.142
307.084
305.032
304.105
303.355
302.822
302.436
302.156
301.953
301.807
301.704
301.634
301.59
301.567
301.561
301.568
301.588
301.618
301.658
301.705
301.76
301.821
301.887
301.959
302.035
302.115
302.198
302.285
302.373
302.462
302.553
302.643
302.734
302.823
302.912
302.999
303.084
303.166
303.246
303.323
303.397
303.466
303.533
303.595
303.654
303.709
303.76
303.808
303.852
303.893
303.93
303.965
303.997
304.026
304.053
304.078
304.1
304.121
304.141
304.158
304.175
304.19
304.205
304.218
304.23
304.242
304.253
304.263
304.273
304.282
304.291
304.3
304.308
304.316
304.323
304.33
304.338
304.344
304.351
304.358
304.364
304.37
304.376
304.382
304.388
304.393
304.398
304.403
304.408
304.413
304.417
304.422
304.425
304.429
304.432
304.435
304.438
304.441
304.443
304.445
304.446
304.448
304.449
304.45
304.45
304.451
304.451
304.451
304.451
304.451
304.451
304.451
304.45
304.45
304.45
304.45
304.449
304.449
304.449
304.449
304.449
304.449
304.449
304.449
304.45
304.45
304.45
304.45
304.451
304.451
304.451
304.451
304.452
304.452
304.452
304.452
304.452
304.451
304.451
304.451
304.45
304.449
304.448
304.447
304.446
304.445
304.443
304.441
304.439
304.437
304.434
304.431
304.428
304.425
304.421
304.418
304.414
304.409
304.405
304.401
304.396
304.392
304.387
304.383
304.379
304.376
304.373
304.371
304.371
304.371
304.373
304.378
304.384
304.393
304.405
304.421
304.44
304.464
304.494
304.529
304.57
304.62
304.677
304.744
304.821
304.909
305.009
305.123
305.252
305.395
305.554
305.728
305.915
306.113
306.317
306.519
306.709
306.876
307.009
307.1
307.142
307.084
303.236
302.567
302.073
301.721
301.459
301.263
301.119
301.015
300.942
300.894
300.867
300.856
300.859
300.874
300.899
300.933
300.974
301.023
301.078
301.139
301.205
301.276
301.351
301.43
301.511
301.596
301.683
301.771
301.86
301.949
302.038
302.127
302.215
302.301
302.385
302.468
302.547
302.624
302.698
302.768
302.835
302.898
302.958
303.014
303.066
303.115
303.16
303.202
303.241
303.277
303.311
303.341
303.369
303.396
303.42
303.442
303.462
303.482
303.499
303.516
303.531
303.546
303.559
303.572
303.584
303.595
303.606
303.616
303.626
303.635
303.644
303.653
303.662
303.67
303.678
303.686
303.693
303.701
303.708
303.715
303.722
303.729
303.735
303.742
303.748
303.754
303.76
303.765
303.77
303.776
303.78
303.785
303.789
303.793
303.797
303.8
303.803
303.806
303.809
303.811
303.813
303.815
303.816
303.817
303.818
303.819
303.82
303.821
303.822
303.822
303.823
303.823
303.824
303.824
303.825
303.825
303.826
303.827
303.827
303.828
303.829
303.83
303.831
303.831
303.832
303.833
303.834
303.835
303.836
303.837
303.838
303.838
303.839
303.84
303.84
303.841
303.841
303.841
303.841
303.841
303.841
303.841
303.84
303.839
303.838
303.837
303.836
303.834
303.833
303.83
303.828
303.826
303.823
303.82
303.817
303.814
303.81
303.807
303.803
303.8
303.797
303.794
303.791
303.789
303.788
303.788
303.789
303.791
303.795
303.801
303.809
303.82
303.834
303.852
303.873
303.9
303.931
303.968
304.012
304.063
304.122
304.191
304.269
304.358
304.458
304.571
304.697
304.837
304.991
305.157
305.334
305.52
305.709
305.895
306.068
306.22
306.34
306.419
306.445
306.393
303.235
302.567
302.073
301.721
301.459
301.263
301.119
301.015
300.942
300.894
300.867
300.856
300.859
300.874
300.899
300.933
300.974
301.023
301.078
301.139
301.205
301.276
301.351
301.43
301.512
301.596
301.683
301.771
301.86
301.949
302.038
302.127
302.215
302.301
302.386
302.468
302.547
302.624
302.698
302.768
302.835
302.898
302.958
303.014
303.066
303.115
303.16
303.202
303.241
303.277
303.311
303.341
303.369
303.396
303.42
303.442
303.462
303.482
303.499
303.516
303.531
303.546
303.559
303.572
303.584
303.595
303.606
303.616
303.626
303.635
303.644
303.653
303.662
303.67
303.678
303.686
303.693
303.701
303.708
303.715
303.722
303.729
303.735
303.742
303.748
303.754
303.76
303.765
303.77
303.776
303.78
303.785
303.789
303.793
303.797
303.8
303.803
303.806
303.809
303.811
303.813
303.815
303.816
303.817
303.818
303.819
303.82
303.821
303.822
303.822
303.823
303.823
303.824
303.824
303.825
303.825
303.826
303.827
303.827
303.828
303.829
303.83
303.831
303.831
303.832
303.833
303.834
303.835
303.836
303.837
303.838
303.838
303.839
303.84
303.84
303.841
303.841
303.841
303.841
303.841
303.841
303.841
303.84
303.839
303.838
303.837
303.836
303.834
303.833
303.83
303.828
303.826
303.823
303.82
303.817
303.814
303.81
303.807
303.803
303.8
303.797
303.794
303.791
303.789
303.788
303.788
303.789
303.791
303.795
303.801
303.809
303.82
303.834
303.852
303.873
303.899
303.931
303.968
304.012
304.063
304.122
304.191
304.269
304.358
304.458
304.571
304.697
304.837
304.991
305.157
305.334
305.52
305.709
305.895
306.068
306.22
306.34
306.419
306.446
306.393
301.829
301.392
301.102
300.89
300.726
300.601
300.507
300.439
300.392
300.364
300.351
300.351
300.361
300.382
300.41
300.447
300.49
300.539
300.594
300.654
300.719
300.788
300.861
300.938
301.017
301.099
301.183
301.269
301.356
301.443
301.53
301.617
301.703
301.788
301.871
301.952
302.03
302.106
302.179
302.249
302.316
302.379
302.438
302.494
302.547
302.596
302.642
302.685
302.724
302.761
302.795
302.827
302.856
302.883
302.907
302.93
302.952
302.972
302.99
303.008
303.024
303.039
303.053
303.066
303.079
303.091
303.102
303.113
303.124
303.134
303.143
303.153
303.162
303.171
303.179
303.187
303.196
303.204
303.211
303.219
303.226
303.234
303.241
303.248
303.254
303.261
303.267
303.273
303.279
303.285
303.29
303.295
303.3
303.304
303.309
303.313
303.316
303.32
303.323
303.325
303.328
303.33
303.332
303.334
303.336
303.337
303.339
303.34
303.341
303.342
303.343
303.344
303.345
303.346
303.347
303.348
303.349
303.35
303.351
303.353
303.354
303.355
303.356
303.358
303.359
303.36
303.362
303.363
303.364
303.366
303.367
303.368
303.369
303.37
303.371
303.372
303.373
303.373
303.374
303.374
303.374
303.374
303.374
303.374
303.373
303.373
303.372
303.371
303.369
303.368
303.366
303.364
303.362
303.36
303.357
303.354
303.352
303.349
303.346
303.344
303.341
303.339
303.338
303.337
303.337
303.338
303.34
303.344
303.349
303.357
303.367
303.379
303.395
303.415
303.439
303.467
303.5
303.54
303.586
303.639
303.7
303.77
303.85
303.939
304.04
304.152
304.277
304.413
304.562
304.722
304.891
305.066
305.243
305.415
305.577
305.719
305.833
305.911
305.946
305.929
301.828
301.392
301.102
300.89
300.726
300.6
300.507
300.439
300.392
300.364
300.351
300.351
300.361
300.382
300.41
300.447
300.49
300.539
300.594
300.654
300.719
300.788
300.861
300.938
301.017
301.099
301.183
301.269
301.356
301.443
301.53
301.617
301.703
301.788
301.871
301.952
302.03
302.106
302.179
302.249
302.316
302.379
302.438
302.494
302.547
302.596
302.642
302.685
302.724
302.761
302.795
302.827
302.856
302.883
302.907
302.931
302.952
302.972
302.99
303.008
303.024
303.039
303.053
303.066
303.079
303.091
303.102
303.113
303.124
303.134
303.143
303.153
303.162
303.171
303.179
303.187
303.196
303.204
303.211
303.219
303.226
303.234
303.241
303.248
303.254
303.261
303.267
303.273
303.279
303.285
303.29
303.295
303.3
303.304
303.309
303.313
303.316
303.32
303.323
303.325
303.328
303.33
303.332
303.334
303.336
303.337
303.339
303.34
303.341
303.342
303.343
303.344
303.345
303.346
303.347
303.348
303.349
303.35
303.351
303.353
303.354
303.355
303.356
303.358
303.359
303.36
303.362
303.363
303.364
303.366
303.367
303.368
303.369
303.37
303.371
303.372
303.373
303.373
303.374
303.374
303.374
303.374
303.374
303.374
303.373
303.373
303.372
303.371
303.369
303.368
303.366
303.364
303.362
303.36
303.357
303.354
303.352
303.349
303.346
303.344
303.341
303.339
303.338
303.337
303.337
303.338
303.34
303.344
303.349
303.357
303.367
303.379
303.395
303.415
303.439
303.467
303.5
303.54
303.586
303.639
303.7
303.77
303.85
303.939
304.04
304.152
304.277
304.413
304.562
304.722
304.891
305.066
305.243
305.415
305.577
305.719
305.833
305.911
305.946
305.929
300.734
300.495
300.35
300.24
300.151
300.08
300.027
299.989
299.965
299.954
299.953
299.961
299.979
300.004
300.035
300.074
300.118
300.167
300.221
300.28
300.344
300.411
300.482
300.556
300.632
300.712
300.793
300.876
300.96
301.045
301.13
301.214
301.298
301.38
301.461
301.54
301.617
301.692
301.763
301.832
301.898
301.96
302.019
302.075
302.127
302.176
302.222
302.265
302.304
302.341
302.376
302.407
302.437
302.464
302.49
302.513
302.535
302.555
302.574
302.592
302.608
302.624
302.639
302.652
302.665
302.678
302.689
302.701
302.711
302.722
302.732
302.741
302.751
302.76
302.769
302.778
302.786
302.794
302.802
302.81
302.818
302.826
302.833
302.84
302.847
302.854
302.861
302.867
302.873
302.879
302.885
302.89
302.896
302.9
302.905
302.909
302.913
302.917
302.92
302.923
302.926
302.929
302.931
302.934
302.936
302.938
302.939
302.941
302.942
302.944
302.945
302.947
302.948
302.949
302.951
302.952
302.953
302.955
302.956
302.958
302.959
302.961
302.962
302.964
302.966
302.967
302.969
302.97
302.972
302.974
302.975
302.976
302.978
302.979
302.98
302.982
302.983
302.983
302.984
302.985
302.985
302.986
302.986
302.986
302.986
302.985
302.985
302.984
302.983
302.982
302.98
302.979
302.977
302.975
302.973
302.971
302.969
302.967
302.965
302.963
302.961
302.96
302.959
302.959
302.96
302.962
302.966
302.971
302.978
302.987
302.998
303.013
303.03
303.052
303.078
303.108
303.144
303.186
303.234
303.289
303.352
303.424
303.505
303.596
303.697
303.809
303.932
304.066
304.21
304.364
304.526
304.692
304.859
305.022
305.174
305.31
305.422
305.504
305.553
305.562
300.734
300.495
300.35
300.24
300.151
300.08
300.027
299.989
299.965
299.954
299.953
299.961
299.979
300.004
300.035
300.074
300.118
300.167
300.221
300.28
300.344
300.411
300.482
300.556
300.632
300.712
300.793
300.876
300.96
301.045
301.13
301.214
301.298
301.38
301.461
301.54
301.617
301.692
301.763
301.832
301.898
301.96
302.019
302.075
302.127
302.176
302.222
302.265
302.304
302.341
302.376
302.407
302.437
302.464
302.49
302.513
302.535
302.555
302.574
302.592
302.608
302.624
302.639
302.652
302.665
302.678
302.689
302.701
302.711
302.722
302.732
302.742
302.751
302.76
302.769
302.778
302.786
302.794
302.802
302.81
302.818
302.826
302.833
302.84
302.847
302.854
302.861
302.867
302.873
302.879
302.885
302.89
302.896
302.9
302.905
302.909
302.913
302.917
302.92
302.923
302.926
302.929
302.931
302.934
302.936
302.938
302.939
302.941
302.942
302.944
302.945
302.947
302.948
302.949
302.951
302.952
302.953
302.955
302.956
302.958
302.959
302.961
302.962
302.964
302.966
302.967
302.969
302.97
302.972
302.974
302.975
302.976
302.978
302.979
302.98
302.982
302.983
302.983
302.984
302.985
302.985
302.986
302.986
302.986
302.986
302.985
302.985
302.984
302.983
302.982
302.98
302.979
302.977
302.975
302.973
302.971
302.969
302.967
302.965
302.963
302.961
302.96
302.959
302.959
302.96
302.962
302.966
302.971
302.978
302.987
302.998
303.013
303.03
303.052
303.078
303.108
303.144
303.186
303.234
303.289
303.352
303.424
303.505
303.596
303.697
303.809
303.932
304.066
304.21
304.364
304.526
304.692
304.859
305.022
305.174
305.31
305.422
305.504
305.553
305.562
299.904
299.824
299.776
299.734
299.697
299.667
299.644
299.63
299.623
299.625
299.634
299.65
299.673
299.701
299.736
299.775
299.82
299.869
299.922
299.98
300.041
300.106
300.175
300.246
300.32
300.397
300.475
300.555
300.636
300.718
300.8
300.882
300.963
301.043
301.122
301.199
301.274
301.346
301.416
301.483
301.547
301.608
301.666
301.721
301.773
301.821
301.866
301.909
301.948
301.985
302.019
302.051
302.08
302.108
302.133
302.157
302.179
302.199
302.218
302.236
302.253
302.269
302.284
302.297
302.311
302.323
302.335
302.346
302.357
302.368
302.378
302.388
302.397
302.407
302.416
302.425
302.433
302.442
302.45
302.458
302.466
302.474
302.481
302.489
302.496
302.503
302.51
302.516
302.523
302.529
302.535
302.54
302.546
302.551
302.556
302.56
302.564
302.568
302.572
302.575
302.578
302.581
302.584
302.586
302.589
302.591
302.593
302.595
302.597
302.598
302.6
302.601
302.603
302.605
302.606
302.608
302.609
302.611
302.613
302.614
302.616
302.618
302.62
302.622
302.623
302.625
302.627
302.629
302.631
302.633
302.634
302.636
302.637
302.639
302.64
302.642
302.643
302.644
302.645
302.646
302.647
302.647
302.648
302.648
302.648
302.648
302.647
302.647
302.646
302.645
302.644
302.643
302.641
302.64
302.638
302.636
302.635
302.633
302.631
302.63
302.629
302.629
302.629
302.63
302.632
302.635
302.639
302.646
302.654
302.664
302.678
302.694
302.714
302.737
302.765
302.798
302.836
302.88
302.93
302.988
303.053
303.127
303.209
303.301
303.402
303.514
303.636
303.768
303.909
304.058
304.214
304.373
304.532
304.687
304.833
304.964
305.076
305.164
305.226
305.255
299.904
299.824
299.776
299.734
299.697
299.667
299.644
299.63
299.623
299.625
299.634
299.65
299.673
299.701
299.736
299.775
299.82
299.869
299.922
299.98
300.041
300.106
300.175
300.246
300.32
300.397
300.475
300.555
300.636
300.718
300.8
300.882
300.963
301.043
301.122
301.199
301.274
301.346
301.416
301.483
301.547
301.608
301.666
301.721
301.773
301.821
301.866
301.909
301.948
301.985
302.019
302.051
302.081
302.108
302.133
302.157
302.179
302.199
302.218
302.236
302.253
302.269
302.284
302.297
302.311
302.323
302.335
302.347
302.357
302.368
302.378
302.388
302.397
302.407
302.416
302.425
302.433
302.442
302.45
302.458
302.466
302.474
302.481
302.489
302.496
302.503
302.51
302.516
302.523
302.529
302.535
302.54
302.546
302.551
302.556
302.56
302.564
302.568
302.572
302.575
302.578
302.581
302.584
302.586
302.589
302.591
302.593
302.595
302.597
302.598
302.6
302.601
302.603
302.605
302.606
302.608
302.609
302.611
302.613
302.614
302.616
302.618
302.62
302.622
302.623
302.625
302.627
302.629
302.631
302.633
302.634
302.636
302.637
302.639
302.64
302.642
302.643
302.644
302.645
302.646
302.647
302.647
302.648
302.648
302.648
302.648
302.647
302.647
302.646
302.645
302.644
302.643
302.641
302.64
302.638
302.636
302.635
302.633
302.631
302.63
302.629
302.629
302.629
302.63
302.632
302.635
302.639
302.646
302.654
302.664
302.678
302.694
302.714
302.737
302.765
302.798
302.836
302.88
302.93
302.988
303.053
303.127
303.209
303.301
303.402
303.514
303.636
303.768
303.909
304.058
304.214
304.373
304.532
304.687
304.833
304.964
305.076
305.164
305.226
305.255
299.338
299.343
299.349
299.348
299.344
299.34
299.338
299.341
299.347
299.359
299.376
299.397
299.424
299.455
299.491
299.531
299.575
299.624
299.676
299.732
299.792
299.855
299.921
299.989
300.061
300.134
300.21
300.287
300.365
300.444
300.523
300.601
300.68
300.757
300.833
300.908
300.98
301.051
301.118
301.184
301.246
301.306
301.362
301.416
301.466
301.513
301.558
301.6
301.638
301.675
301.708
301.74
301.769
301.796
301.821
301.845
301.867
301.887
301.906
301.924
301.94
301.956
301.971
301.985
301.998
302.01
302.022
302.034
302.045
302.055
302.065
302.075
302.085
302.094
302.103
302.112
302.121
302.129
302.138
302.146
302.154
302.161
302.169
302.177
302.184
302.191
302.198
302.205
302.211
302.217
302.223
302.229
302.234
302.24
302.244
302.249
302.253
302.258
302.261
302.265
302.268
302.271
302.274
302.277
302.279
302.282
302.284
302.286
302.288
302.29
302.292
302.293
302.295
302.297
302.299
302.3
302.302
302.304
302.306
302.308
302.31
302.312
302.314
302.316
302.318
302.32
302.322
302.324
302.326
302.328
302.329
302.331
302.333
302.335
302.336
302.338
302.339
302.34
302.342
302.343
302.343
302.344
302.345
302.345
302.345
302.345
302.345
302.345
302.344
302.344
302.343
302.342
302.34
302.339
302.338
302.336
302.335
302.334
302.333
302.332
302.332
302.332
302.333
302.334
302.337
302.342
302.347
302.355
302.365
302.377
302.392
302.41
302.431
302.457
302.487
302.522
302.562
302.609
302.662
302.721
302.789
302.864
302.948
303.041
303.143
303.255
303.376
303.506
303.644
303.789
303.94
304.093
304.246
304.396
304.537
304.666
304.778
304.871
304.945
304.997
299.338
299.343
299.349
299.348
299.344
299.34
299.338
299.341
299.347
299.359
299.376
299.397
299.424
299.455
299.491
299.531
299.575
299.624
299.676
299.732
299.792
299.855
299.921
299.989
300.061
300.134
300.21
300.287
300.365
300.444
300.523
300.601
300.68
300.757
300.833
300.908
300.98
301.051
301.118
301.184
301.246
301.306
301.362
301.416
301.466
301.513
301.558
301.6
301.638
301.675
301.708
301.74
301.769
301.796
301.821
301.845
301.867
301.887
301.906
301.924
301.94
301.956
301.971
301.985
301.998
302.01
302.022
302.034
302.045
302.055
302.065
302.075
302.085
302.094
302.103
302.112
302.121
302.129
302.138
302.146
302.154
302.161
302.169
302.177
302.184
302.191
302.198
302.205
302.211
302.217
302.223
302.229
302.234
302.24
302.244
302.249
302.253
302.258
302.261
302.265
302.268
302.271
302.274
302.277
302.279
302.282
302.284
302.286
302.288
302.29
302.292
302.293
302.295
302.297
302.299
302.3
302.302
302.304
302.306
302.308
302.31
302.312
302.314
302.316
302.318
302.32
302.322
302.324
302.326
302.328
302.329
302.331
302.333
302.335
302.336
302.338
302.339
302.34
302.342
302.343
302.343
302.344
302.345
302.345
302.345
302.345
302.345
302.345
302.344
302.344
302.343
302.342
302.34
302.339
302.338
302.336
302.335
302.334
302.333
302.332
302.332
302.332
302.333
302.334
302.337
302.342
302.347
302.355
302.365
302.377
302.392
302.41
302.431
302.457
302.487
302.522
302.562
302.609
302.662
302.721
302.789
302.864
302.948
303.041
303.143
303.255
303.376
303.506
303.644
303.789
303.94
304.093
304.246
304.396
304.537
304.666
304.778
304.872
304.945
304.997
298.974
299.009
299.038
299.057
299.072
299.084
299.095
299.109
299.124
299.143
299.164
299.19
299.219
299.252
299.288
299.329
299.373
299.42
299.471
299.525
299.583
299.644
299.707
299.773
299.841
299.912
299.984
300.058
300.133
300.209
300.285
300.361
300.436
300.51
300.584
300.655
300.725
300.793
300.859
300.922
300.983
301.04
301.095
301.147
301.196
301.242
301.286
301.326
301.364
301.4
301.433
301.463
301.492
301.519
301.543
301.566
301.588
301.608
301.627
301.644
301.66
301.676
301.69
301.704
301.717
301.729
301.741
301.752
301.763
301.774
301.784
301.793
301.803
301.812
301.821
301.83
301.839
301.847
301.855
301.863
301.871
301.879
301.887
301.894
301.901
301.909
301.915
301.922
301.929
301.935
301.941
301.947
301.952
301.957
301.962
301.967
301.971
301.975
301.979
301.983
301.986
301.99
301.993
301.995
301.998
302
302.003
302.005
302.007
302.009
302.011
302.013
302.015
302.017
302.019
302.021
302.023
302.025
302.027
302.029
302.031
302.033
302.035
302.037
302.039
302.041
302.044
302.046
302.048
302.05
302.052
302.054
302.056
302.057
302.059
302.061
302.062
302.064
302.065
302.066
302.067
302.068
302.069
302.069
302.069
302.07
302.07
302.069
302.069
302.068
302.068
302.067
302.066
302.065
302.064
302.063
302.062
302.061
302.06
302.06
302.06
302.061
302.063
302.065
302.069
302.074
302.081
302.09
302.101
302.115
302.132
302.152
302.175
302.203
302.235
302.273
302.315
302.364
302.42
302.482
302.551
302.629
302.714
302.808
302.911
303.023
303.143
303.272
303.407
303.549
303.696
303.845
303.993
304.138
304.276
304.403
304.516
304.615
304.698
304.768
298.974
299.009
299.038
299.057
299.072
299.084
299.095
299.109
299.124
299.143
299.164
299.19
299.219
299.252
299.288
299.329
299.373
299.42
299.471
299.526
299.583
299.644
299.707
299.773
299.841
299.912
299.984
300.058
300.133
300.209
300.285
300.361
300.436
300.51
300.584
300.656
300.725
300.793
300.859
300.922
300.983
301.04
301.095
301.147
301.196
301.242
301.286
301.326
301.364
301.4
301.433
301.463
301.492
301.519
301.543
301.566
301.588
301.608
301.627
301.644
301.66
301.676
301.69
301.704
301.717
301.729
301.741
301.752
301.763
301.774
301.784
301.793
301.803
301.812
301.821
301.83
301.839
301.847
301.855
301.863
301.871
301.879
301.887
301.894
301.901
301.909
301.915
301.922
301.929
301.935
301.941
301.947
301.952
301.957
301.962
301.967
301.971
301.975
301.979
301.983
301.986
301.99
301.993
301.995
301.998
302
302.003
302.005
302.007
302.009
302.011
302.013
302.015
302.017
302.019
302.021
302.023
302.025
302.027
302.029
302.031
302.033
302.035
302.037
302.039
302.041
302.044
302.046
302.048
302.05
302.052
302.054
302.056
302.058
302.059
302.061
302.062
302.064
302.065
302.066
302.067
302.068
302.069
302.069
302.069
302.07
302.07
302.069
302.069
302.068
302.068
302.067
302.066
302.065
302.064
302.063
302.062
302.061
302.06
302.06
302.06
302.061
302.063
302.065
302.069
302.074
302.081
302.09
302.101
302.115
302.132
302.152
302.175
302.203
302.235
302.273
302.315
302.364
302.42
302.482
302.551
302.629
302.714
302.808
302.911
303.023
303.143
303.272
303.407
303.549
303.696
303.845
303.993
304.138
304.276
304.403
304.516
304.615
304.699
304.768
298.736
298.778
298.814
298.842
298.865
298.885
298.904
298.923
298.944
298.967
298.992
299.019
299.05
299.084
299.12
299.16
299.203
299.249
299.299
299.351
299.406
299.465
299.525
299.589
299.654
299.721
299.791
299.861
299.933
300.006
300.078
300.151
300.223
300.295
300.365
300.434
300.502
300.567
300.63
300.691
300.749
300.805
300.858
300.908
300.955
301
301.042
301.081
301.118
301.152
301.184
301.214
301.242
301.268
301.292
301.315
301.335
301.355
301.373
301.39
301.406
301.421
301.435
301.449
301.461
301.473
301.485
301.496
301.506
301.517
301.526
301.536
301.545
301.554
301.563
301.572
301.58
301.589
301.597
301.605
301.612
301.62
301.628
301.635
301.642
301.649
301.656
301.663
301.669
301.675
301.681
301.687
301.692
301.698
301.703
301.707
301.712
301.716
301.72
301.723
301.727
301.73
301.733
301.736
301.739
301.741
301.744
301.746
301.748
301.75
301.752
301.754
301.757
301.759
301.761
301.763
301.765