/*--------------------------------*- C++ -*----------------------------------*\
  =========                 |
  \\      /  F ield         | OpenFOAM: The Open Source CFD Toolbox
   \\    /   O peration     | Website:  https://openfoam.org
    \\  /    A nd           | Version:  8
     \\/     M anipulation  |
\*---------------------------------------------------------------------------*/
FoamFile
{
    version     2.0;
    format      ascii;
    class       volVectorField;
    location    "800";
    object      U;
}
// * * * * * * * * * * * * * * * * * * * * * * * * * * * * * * * * * * * * * //

dimensions      [0 1 -1 0 0 0 0];

internalField   nonuniform List<vector> 
46000
(
(-0.00613555 -2.86723e-06 0.00664165)
(-0.0212458 -4.10021e-06 0.00820933)
(-0.0312586 -3.46955e-06 0.0052428)
(-0.0331592 -1.54224e-06 0.000476219)
(-0.0275622 -2.19308e-07 -0.00391688)
(-0.016528 2.6036e-07 -0.00728891)
(-0.00160464 3.75571e-07 -0.00963494)
(0.0158348 3.50303e-07 -0.0109935)
(0.0344231 2.09745e-07 -0.0116076)
(0.0536063 -4.47825e-08 -0.0117602)
(0.072723 -3.54243e-07 -0.0115744)
(0.0913515 -6.81998e-07 -0.011137)
(0.10916 -9.88444e-07 -0.0105131)
(0.125899 -1.23791e-06 -0.00975213)
(0.141381 -1.40335e-06 -0.00889318)
(0.15547 -1.47716e-06 -0.00796786)
(0.168073 -1.46522e-06 -0.00700254)
(0.179135 -1.38418e-06 -0.00601963)
(0.188633 -1.25369e-06 -0.0050384)
(0.196571 -1.09187e-06 -0.00407552)
(0.202978 -9.15642e-07 -0.00314539)
(0.207908 -7.40003e-07 -0.00226056)
(0.211431 -5.75257e-07 -0.00143216)
(0.213636 -4.25827e-07 -0.000670375)
(0.214623 -2.89737e-07 1.63074e-05)
(0.21452 -1.65476e-07 0.000629386)
(0.213432 -5.33127e-08 0.00117435)
(0.211462 4.79123e-08 0.00165093)
(0.208725 1.37523e-07 0.0020592)
(0.205332 2.14358e-07 0.00239996)
(0.201392 2.76674e-07 0.00267487)
(0.197013 3.22537e-07 0.00288651)
(0.192296 3.50778e-07 0.00303828)
(0.187339 3.61698e-07 0.00313431)
(0.182231 3.57287e-07 0.00317929)
(0.177054 3.40937e-07 0.00317831)
(0.171883 3.16866e-07 0.00313672)
(0.166783 2.8935e-07 0.00305999)
(0.161811 2.6209e-07 0.00295356)
(0.157015 2.3744e-07 0.0028227)
(0.152434 2.16148e-07 0.00267246)
(0.148099 1.97366e-07 0.00250753)
(0.144033 1.79152e-07 0.00233224)
(0.140254 1.59099e-07 0.00215046)
(0.136771 1.35327e-07 0.00196565)
(0.133589 1.06969e-07 0.00178079)
(0.130708 7.46368e-08 0.00159843)
(0.128124 4.02024e-08 0.00142072)
(0.125829 6.59182e-09 0.00124937)
(0.123813 -2.26379e-08 0.00108575)
(0.122063 -4.40027e-08 0.000930884)
(0.120566 -5.48395e-08 0.000785456)
(0.119306 -5.38523e-08 0.000649879)
(0.118269 -4.1342e-08 0.000524304)
(0.117437 -1.89941e-08 0.00040865)
(0.116794 1.04034e-08 0.00030262)
(0.116326 4.3553e-08 0.000205704)
(0.116018 7.66749e-08 0.00011716)
(0.115855 1.07255e-07 3.60317e-05)
(0.115826 1.3188e-07 -3.78381e-05)
(0.115919 1.48572e-07 -0.000103891)
(0.116119 1.5737e-07 -0.000162341)
(0.116416 1.57915e-07 -0.000214014)
(0.116798 1.5152e-07 -0.000259709)
(0.117255 1.40163e-07 -0.000300121)
(0.11778 1.25993e-07 -0.000335853)
(0.118365 1.11222e-07 -0.000367418)
(0.119002 9.81288e-08 -0.000395256)
(0.119686 8.87956e-08 -0.000419745)
(0.12041 8.48638e-08 -0.000441211)
(0.12117 8.72702e-08 -0.000459936)
(0.121961 9.58363e-08 -0.000476166)
(0.122778 1.09501e-07 -0.000490117)
(0.123617 1.26242e-07 -0.000501982)
(0.124476 1.43471e-07 -0.00051194)
(0.12535 1.58365e-07 -0.000520159)
(0.126237 1.68372e-07 -0.000526809)
(0.127135 1.71627e-07 -0.000532065)
(0.128041 1.67272e-07 -0.000536115)
(0.128954 1.5575e-07 -0.000539165)
(0.129871 1.38659e-07 -0.000541435)
(0.130792 1.18578e-07 -0.000543157)
(0.131716 9.85341e-08 -0.000544555)
(0.132642 8.13277e-08 -0.00054584)
(0.133571 6.89296e-08 -0.000547195)
(0.134501 6.20676e-08 -0.000548766)
(0.135434 5.98655e-08 -0.000550672)
(0.13637 6.02847e-08 -0.000553009)
(0.13731 6.05219e-08 -0.000555865)
(0.138256 5.77638e-08 -0.000559337)
(0.139209 5.00697e-08 -0.00056353)
(0.14017 3.69211e-08 -0.00056855)
(0.141141 1.94839e-08 -0.00057449)
(0.142123 3.28785e-10 -0.000581405)
(0.143118 -1.72894e-08 -0.000589288)
(0.144127 -3.03823e-08 -0.000598067)
(0.14515 -3.70128e-08 -0.000607604)
(0.14619 -3.69251e-08 -0.000617714)
(0.147247 -3.1575e-08 -0.000628188)
(0.148322 -2.37485e-08 -0.000638814)
(0.149415 -1.67307e-08 -0.000649396)
(0.150526 -1.34557e-08 -0.000659756)
(0.151655 -1.57425e-08 -0.000669732)
(0.1528 -2.38235e-08 -0.000679164)
(0.15396 -3.64653e-08 -0.000687889)
(0.155134 -5.13166e-08 -0.000695731)
(0.15632 -6.56218e-08 -0.000702508)
(0.157515 -7.69017e-08 -0.000708036)
(0.158717 -8.34791e-08 -0.00071215)
(0.159925 -8.47445e-08 -0.000714712)
(0.161136 -8.11191e-08 -0.000715632)
(0.162346 -7.36811e-08 -0.000714868)
(0.163555 -6.38149e-08 -0.000712437)
(0.164758 -5.27903e-08 -0.000708405)
(0.165954 -4.14864e-08 -0.000702884)
(0.167141 -3.04624e-08 -0.000696021)
(0.168315 -1.99674e-08 -0.00068799)
(0.169476 -1.02237e-08 -0.00067898)
(0.170621 -1.52102e-09 -0.00066919)
(0.171749 5.75677e-09 -0.000658819)
(0.172859 1.12325e-08 -0.000648068)
(0.173951 1.46571e-08 -0.000637132)
(0.175024 1.61687e-08 -0.000626198)
(0.176079 1.64073e-08 -0.000615444)
(0.177116 1.63832e-08 -0.000605033)
(0.178135 1.73862e-08 -0.000595111)
(0.179139 2.06656e-08 -0.000585806)
(0.180127 2.71945e-08 -0.000577224)
(0.181102 3.73769e-08 -0.000569451)
(0.182064 5.11183e-08 -0.000562552)
(0.183015 6.77721e-08 -0.000556572)
(0.183957 8.63684e-08 -0.000551541)
(0.184892 1.05755e-07 -0.000547475)
(0.18582 1.24708e-07 -0.000544375)
(0.186744 1.42073e-07 -0.000542236)
(0.187664 1.56866e-07 -0.000541048)
(0.188584 1.68161e-07 -0.000540799)
(0.189503 1.7532e-07 -0.000541476)
(0.190425 1.77917e-07 -0.000543073)
(0.191349 1.7579e-07 -0.00054559)
(0.192278 1.69095e-07 -0.000549031)
(0.193214 1.58087e-07 -0.000553412)
(0.194157 1.43269e-07 -0.000558754)
(0.19511 1.25195e-07 -0.000565089)
(0.196073 1.0456e-07 -0.000572451)
(0.19705 8.21758e-08 -0.000580883)
(0.198042 5.90818e-08 -0.000590423)
(0.19905 3.64767e-08 -0.000601107)
(0.200076 1.57038e-08 -0.000612957)
(0.201123 -1.91764e-09 -0.00062598)
(0.202193 -1.52366e-08 -0.000640158)
(0.203287 -2.33346e-08 -0.00065544)
(0.204408 -2.56061e-08 -0.000671735)
(0.205556 -2.18026e-08 -0.000688902)
(0.206733 -1.19617e-08 -0.000706736)
(0.20794 3.38773e-09 -0.000724959)
(0.209178 2.32321e-08 -0.000743206)
(0.210445 4.60902e-08 -0.000761015)
(0.211741 7.00707e-08 -0.000777803)
(0.213062 9.30232e-08 -0.000792853)
(0.214405 1.12754e-07 -0.00080529)
(0.215764 1.27087e-07 -0.00081406)
(0.217131 1.34094e-07 -0.000817906)
(0.218496 1.32172e-07 -0.000815339)
(0.219846 1.20292e-07 -0.000804615)
(0.221165 9.81456e-08 -0.000783703)
(0.222432 6.6356e-08 -0.000750264)
(0.223624 2.62591e-08 -0.000701637)
(0.224712 -2.00962e-08 -0.000634835)
(0.22566 -7.01742e-08 -0.00054657)
(0.22643 -1.21295e-07 -0.000433287)
(0.226975 -1.7094e-07 -0.000291016)
(0.227238 -2.18774e-07 -0.000115468)
(0.227167 -2.54578e-07 9.85411e-05)
(0.226686 -2.76236e-07 0.00035826)
(0.225711 -2.91046e-07 0.000671181)
(0.224151 -2.96704e-07 0.00104361)
(0.221902 -2.9176e-07 0.00148141)
(0.218855 -2.75476e-07 0.00199005)
(0.214891 -2.47897e-07 0.00257436)
(0.209885 -2.1015e-07 0.00323819)
(0.203708 -1.64574e-07 0.00398384)
(0.196231 -1.13708e-07 0.00481143)
(0.187327 -5.81868e-08 0.00571805)
(0.17688 4.60466e-09 0.00669674)
(0.164789 7.97335e-08 0.00773527)
(0.150979 1.721e-07 0.00881458)
(0.135414 2.84657e-07 0.00990664)
(0.11811 4.18173e-07 0.0109715)
(0.0991579 5.70342e-07 0.0119531)
(0.0787502 7.30971e-07 0.0127721)
(0.0572266 8.72411e-07 0.0133155)
(0.035079 9.37942e-07 0.0134188)
(0.0133081 8.38329e-07 0.0128279)
(-0.00740762 3.74492e-07 0.0109227)
(-0.0242456 -4.63394e-07 0.00733046)
(-0.0352956 -1.5601e-06 0.00201457)
(-0.0372224 -3.05828e-06 -0.00457997)
(-0.0281837 -5.17655e-06 -0.0100777)
(-0.00932879 -6.54607e-06 -0.00996618)
(-0.00612723 -2.86738e-06 0.00663249)
(-0.0212432 -4.10008e-06 0.00819738)
(-0.0312642 -3.46942e-06 0.00523846)
(-0.0331624 -1.54221e-06 0.000476444)
(-0.0275615 -2.19306e-07 -0.00391659)
(-0.0165249 2.60358e-07 -0.00729061)
(-0.00159986 3.75555e-07 -0.00963913)
(0.0158403 3.50279e-07 -0.0109998)
(0.0344284 2.09731e-07 -0.0116153)
(0.0536111 -4.47798e-08 -0.0117687)
(0.0727272 -3.54225e-07 -0.0115834)
(0.0913551 -6.81967e-07 -0.0111463)
(0.109163 -9.88407e-07 -0.0105223)
(0.125901 -1.23787e-06 -0.00976095)
(0.141383 -1.40332e-06 -0.00890134)
(0.155471 -1.47713e-06 -0.00797518)
(0.168075 -1.4652e-06 -0.00700891)
(0.179137 -1.38416e-06 -0.006025)
(0.188634 -1.25368e-06 -0.0050428)
(0.196571 -1.09186e-06 -0.004079)
(0.202979 -9.15636e-07 -0.00314806)
(0.207908 -7.39999e-07 -0.0022625)
(0.21143 -5.75255e-07 -0.00143343)
(0.213636 -4.25825e-07 -0.00067099)
(0.214623 -2.89736e-07 1.63355e-05)
(0.214519 -1.65476e-07 0.000630044)
(0.213432 -5.33127e-08 0.0011756)
(0.211462 4.79122e-08 0.0016527)
(0.208725 1.37522e-07 0.0020614)
(0.205333 2.14357e-07 0.00240248)
(0.201393 2.76673e-07 0.00267762)
(0.197014 3.22536e-07 0.0028894)
(0.192297 3.50777e-07 0.00304125)
(0.187339 3.61697e-07 0.00313731)
(0.182231 3.57286e-07 0.00318228)
(0.177054 3.40937e-07 0.00318127)
(0.171883 3.16866e-07 0.00313963)
(0.166784 2.8935e-07 0.0030628)
(0.161812 2.62089e-07 0.00295623)
(0.157016 2.37439e-07 0.00282518)
(0.152435 2.16147e-07 0.00267469)
(0.1481 1.97366e-07 0.00250946)
(0.144035 1.79151e-07 0.00233383)
(0.140256 1.59098e-07 0.00215169)
(0.136773 1.35326e-07 0.00196652)
(0.133591 1.06968e-07 0.00178133)
(0.13071 7.46363e-08 0.00159869)
(0.128125 4.02021e-08 0.00142074)
(0.12583 6.59178e-09 0.00124924)
(0.123814 -2.26378e-08 0.00108554)
(0.122064 -4.40024e-08 0.000930645)
(0.120567 -5.48392e-08 0.000785235)
(0.119308 -5.3852e-08 0.000649706)
(0.11827 -4.13417e-08 0.000524192)
(0.117438 -1.8994e-08 0.000408597)
(0.116796 1.04033e-08 0.000302615)
(0.116328 4.35527e-08 0.000205727)
(0.11602 7.66744e-08 0.00011719)
(0.115857 1.07255e-07 3.60455e-05)
(0.115827 1.3188e-07 -3.78524e-05)
(0.115921 1.48571e-07 -0.000103941)
(0.116121 1.57369e-07 -0.000162439)
(0.116417 1.57914e-07 -0.000214171)
(0.116799 1.51519e-07 -0.00025993)
(0.117256 1.40163e-07 -0.000300414)
(0.117781 1.25992e-07 -0.000336222)
(0.118366 1.11221e-07 -0.000367868)
(0.119003 9.81282e-08 -0.000395789)
(0.119687 8.87951e-08 -0.000420358)
(0.120411 8.48632e-08 -0.000441895)
(0.121171 8.72696e-08 -0.000460676)
(0.121962 9.58356e-08 -0.000476939)
(0.122779 1.095e-07 -0.000490896)
(0.123619 1.26241e-07 -0.00050274)
(0.124477 1.4347e-07 -0.000512653)
(0.125352 1.58363e-07 -0.000520814)
(0.126239 1.68371e-07 -0.000527406)
(0.127137 1.71625e-07 -0.000532622)
(0.128042 1.67271e-07 -0.000536667)
(0.128955 1.55749e-07 -0.000539756)
(0.129872 1.38657e-07 -0.000542109)
(0.130793 1.18577e-07 -0.00054394)
(0.131717 9.85334e-08 -0.000545449)
(0.132643 8.13271e-08 -0.00054681)
(0.133571 6.89292e-08 -0.000548174)
(0.134502 6.20672e-08 -0.000549672)
(0.135435 5.98651e-08 -0.000551424)
(0.136371 6.02843e-08 -0.000553554)
(0.137311 6.05216e-08 -0.000556197)
(0.138257 5.77635e-08 -0.000559497)
(0.13921 5.00695e-08 -0.000563597)
(0.140171 3.69209e-08 -0.00056862)
(0.141142 1.94837e-08 -0.000574641)
(0.142124 3.28783e-10 -0.000581677)
(0.143119 -1.72893e-08 -0.00058967)
(0.144128 -3.03821e-08 -0.000598504)
(0.145151 -3.70126e-08 -0.000608017)
(0.146191 -3.6925e-08 -0.000618029)
(0.147248 -3.15748e-08 -0.000628361)
(0.148323 -2.37484e-08 -0.000638846)
(0.149416 -1.67306e-08 -0.000649333)
(0.150528 -1.34556e-08 -0.000659677)
(0.151656 -1.57425e-08 -0.000669724)
(0.152801 -2.38233e-08 -0.000679301)
(0.153961 -3.64651e-08 -0.00068821)
(0.155135 -5.13163e-08 -0.000696233)
(0.15632 -6.56214e-08 -0.000703147)
(0.157515 -7.69013e-08 -0.000708741)
(0.158718 -8.34787e-08 -0.000712836)
(0.159926 -8.47441e-08 -0.000715302)
(0.161136 -8.11189e-08 -0.000716066)
(0.162347 -7.36809e-08 -0.000715115)
(0.163556 -6.38147e-08 -0.000712491)
(0.164759 -5.27902e-08 -0.000708284)
(0.165955 -4.14864e-08 -0.000702619)
(0.167142 -3.04623e-08 -0.000695649)
(0.168316 -1.99674e-08 -0.000687544)
(0.169477 -1.02237e-08 -0.000678485)
(0.170621 -1.52102e-09 -0.000668659)
(0.171749 5.75677e-09 -0.000658258)
(0.17286 1.12325e-08 -0.000647474)
(0.173951 1.46571e-08 -0.000636498)
(0.175025 1.61687e-08 -0.000625518)
(0.176079 1.64073e-08 -0.000614711)
(0.177116 1.63832e-08 -0.000604245)
(0.178136 1.73862e-08 -0.000594269)
(0.179139 2.06656e-08 -0.000584917)
(0.180128 2.71945e-08 -0.0005763)
(0.181102 3.7377e-08 -0.00056851)
(0.182065 5.11184e-08 -0.000561616)
(0.183016 6.77722e-08 -0.000555669)
(0.183958 8.63684e-08 -0.000550703)
(0.184893 1.05755e-07 -0.000546735)
(0.185821 1.24708e-07 -0.000543769)
(0.186745 1.42073e-07 -0.000541798)
(0.187666 1.56866e-07 -0.000540809)
(0.188585 1.6816e-07 -0.000540787)
(0.189505 1.75319e-07 -0.000541716)
(0.190426 1.77916e-07 -0.000543583)
(0.19135 1.75789e-07 -0.000546379)
(0.19228 1.69094e-07 -0.000550106)
(0.193215 1.58086e-07 -0.000554768)
(0.194158 1.43268e-07 -0.000560382)
(0.195111 1.25194e-07 -0.000566972)
(0.196074 1.04559e-07 -0.000574566)
(0.197051 8.2175e-08 -0.000583199)
(0.198042 5.90812e-08 -0.000592906)
(0.19905 3.64764e-08 -0.000603717)
(0.200077 1.57036e-08 -0.000615653)
(0.201124 -1.91762e-09 -0.000628718)
(0.202194 -1.52365e-08 -0.000642894)
(0.203288 -2.33343e-08 -0.000658134)
(0.204408 -2.56058e-08 -0.000674349)
(0.205557 -2.18024e-08 -0.000691404)
(0.206734 -1.19615e-08 -0.000709102)
(0.207941 3.3877e-09 -0.000727173)
(0.209179 2.32319e-08 -0.000745265)
(0.210446 4.60898e-08 -0.000762922)
(0.211742 7.00701e-08 -0.000779574)
(0.213063 9.30225e-08 -0.000794512)
(0.214406 1.12753e-07 -0.000806869)
(0.215765 1.27086e-07 -0.000815595)
(0.217132 1.34093e-07 -0.000819432)
(0.218497 1.32171e-07 -0.000816891)
(0.219847 1.20291e-07 -0.00080622)
(0.221166 9.81448e-08 -0.000785383)
(0.222433 6.63554e-08 -0.000752029)
(0.223625 2.62589e-08 -0.000703488)
(0.224712 -2.00961e-08 -0.000636765)
(0.225661 -7.01737e-08 -0.000548566)
(0.226431 -1.21294e-07 -0.000435327)
(0.226975 -1.70938e-07 -0.000293075)
(0.227239 -2.18772e-07 -0.000117519)
(0.227168 -2.54577e-07 9.6525e-05)
(0.226686 -2.76235e-07 0.00035631)
(0.225712 -2.91045e-07 0.000669324)
(0.224151 -2.96703e-07 0.00104186)
(0.221903 -2.91758e-07 0.00147978)
(0.218856 -2.75475e-07 0.00198851)
(0.214892 -2.47895e-07 0.00257284)
(0.209886 -2.10149e-07 0.00323661)
(0.203709 -1.64573e-07 0.00398215)
(0.196232 -1.13708e-07 0.00480969)
(0.187328 -5.81865e-08 0.00571648)
(0.176881 4.60464e-09 0.00669564)
(0.164789 7.97332e-08 0.00773493)
(0.150979 1.72099e-07 0.00881508)
(0.135414 2.84657e-07 0.00990782)
(0.11811 4.18172e-07 0.010973)
(0.0991594 5.7034e-07 0.0119545)
(0.0787523 7.30964e-07 0.0127731)
(0.0572289 8.724e-07 0.0133161)
(0.0350812 9.37929e-07 0.0134191)
(0.0133101 8.38318e-07 0.0128275)
(-0.00740534 3.74491e-07 0.010921)
(-0.024243 -4.634e-07 0.00732654)
(-0.035293 -1.56013e-06 0.00200769)
(-0.03722 -3.05832e-06 -0.00458988)
(-0.0281815 -5.17654e-06 -0.0100896)
(-0.00932598 -6.54601e-06 -0.00997175)
(-0.00702232 3.70522e-07 0.0217385)
(-0.0165619 -5.8632e-07 0.0187501)
(-0.0159464 -9.33744e-07 0.00660791)
(-0.0090275 -6.92366e-07 -0.00558412)
(0.00255029 -3.89775e-07 -0.0153439)
(0.0173953 -2.37823e-07 -0.0223224)
(0.0344959 -1.50347e-07 -0.0269539)
(0.0530737 -6.17716e-08 -0.0296943)
(0.0724745 2.91067e-08 -0.0310123)
(0.0921787 1.09553e-07 -0.0313029)
(0.111736 1.79429e-07 -0.0308134)
(0.130799 2.34191e-07 -0.0297315)
(0.14909 2.70531e-07 -0.0281972)
(0.166386 2.87847e-07 -0.0263199)
(0.182516 2.88416e-07 -0.0241879)
(0.197349 2.75292e-07 -0.0218746)
(0.210789 2.51886e-07 -0.0194425)
(0.222774 2.20613e-07 -0.0169461)
(0.233269 1.83517e-07 -0.0144329)
(0.242264 1.42674e-07 -0.011945)
(0.249774 1.00159e-07 -0.00951925)
(0.255833 5.78066e-08 -0.00718796)
(0.260494 1.68992e-08 -0.00497955)
(0.263822 -2.17042e-08 -0.00291878)
(0.265898 -5.72898e-08 -0.00102789)
(0.266804 -8.85414e-08 0.000684468)
(0.26665 -1.14468e-07 0.00222095)
(0.26554 -1.35229e-07 0.00358074)
(0.263584 -1.51097e-07 0.00476148)
(0.260892 -1.62647e-07 0.00576368)
(0.257572 -1.70735e-07 0.00659052)
(0.253729 -1.76308e-07 0.00724773)
(0.249467 -1.80131e-07 0.00774326)
(0.244884 -1.82567e-07 0.008087)
(0.240071 -1.83551e-07 0.00829033)
(0.235114 -1.82652e-07 0.00836582)
(0.230093 -1.792e-07 0.00832679)
(0.225078 -1.72554e-07 0.00818703)
(0.220132 -1.62341e-07 0.00796046)
(0.215309 -1.48606e-07 0.00766079)
(0.210655 -1.31941e-07 0.00730132)
(0.206209 -1.13375e-07 0.0068947)
(0.202001 -9.41962e-08 0.00645273)
(0.198055 -7.56321e-08 0.00598626)
(0.194386 -5.86106e-08 0.0055051)
(0.191006 -4.3699e-08 0.00501792)
(0.18792 -3.10724e-08 0.00453226)
(0.185128 -2.05034e-08 0.00405452)
(0.182628 -1.14253e-08 0.00359003)
(0.180412 -3.07862e-09 0.00314303)
(0.178471 5.251e-09 0.00271681)
(0.176793 1.40496e-08 0.00231373)
(0.175365 2.34875e-08 0.00193537)
(0.174172 3.34059e-08 0.00158255)
(0.1732 4.34023e-08 0.00125547)
(0.172433 5.2945e-08 0.000953795)
(0.171855 6.14372e-08 0.000676666)
(0.171452 6.82554e-08 0.0004228)
(0.171209 7.28611e-08 0.000190551)
(0.17111 7.50017e-08 -2.13376e-05)
(0.171144 7.44577e-08 -0.000212445)
(0.171298 7.12692e-08 -0.000383166)
(0.17156 6.58404e-08 -0.000535545)
(0.171919 5.86074e-08 -0.000671315)
(0.172366 5.00917e-08 -0.00079209)
(0.172891 4.08266e-08 -0.000899327)
(0.173484 3.13937e-08 -0.000994325)
(0.174139 2.2395e-08 -0.00107824)
(0.174848 1.44223e-08 -0.00115208)
(0.175603 7.94387e-09 -0.00121677)
(0.1764 3.2641e-09 -0.00127308)
(0.177232 4.33262e-10 -0.00132174)
(0.178095 -6.80612e-10 -0.00136338)
(0.178983 -4.06794e-10 -0.0013986)
(0.179893 8.1506e-10 -0.00142797)
(0.18082 2.5018e-09 -0.00145205)
(0.181762 4.17691e-09 -0.00147141)
(0.182715 5.40066e-09 -0.00148663)
(0.183677 5.81353e-09 -0.00149832)
(0.184645 5.09443e-09 -0.00150711)
(0.185618 2.97075e-09 -0.00151362)
(0.186595 -7.74975e-10 -0.00151846)
(0.187573 -6.24482e-09 -0.00152221)
(0.188553 -1.33486e-08 -0.00152538)
(0.189534 -2.1685e-08 -0.00152845)
(0.190517 -3.05165e-08 -0.00153183)
(0.191501 -3.88851e-08 -0.00153594)
(0.192487 -4.58022e-08 -0.00154117)
(0.193477 -5.05688e-08 -0.00154793)
(0.194472 -5.29691e-08 -0.00155661)
(0.195472 -5.33625e-08 -0.00156757)
(0.19648 -5.24413e-08 -0.00158108)
(0.197497 -5.09698e-08 -0.00159729)
(0.198525 -4.94714e-08 -0.00161617)
(0.199565 -4.80299e-08 -0.00163757)
(0.200618 -4.63224e-08 -0.0016612)
(0.201686 -4.38022e-08 -0.00168667)
(0.20277 -4.0016e-08 -0.00171355)
(0.203872 -3.47949e-08 -0.00174142)
(0.204991 -2.83647e-08 -0.00176983)
(0.206128 -2.12889e-08 -0.00179834)
(0.207282 -1.42782e-08 -0.0018265)
(0.208455 -7.99166e-09 -0.00185381)
(0.209643 -2.85062e-09 -0.00187973)
(0.210847 9.65917e-10 -0.00190368)
(0.212065 3.52148e-09 -0.00192507)
(0.213294 5.03678e-09 -0.00194332)
(0.214533 5.79111e-09 -0.00195794)
(0.21578 6.05369e-09 -0.00196853)
(0.217032 6.04028e-09 -0.00197482)
(0.218287 5.95157e-09 -0.00197668)
(0.219541 5.95481e-09 -0.0019741)
(0.220793 6.24065e-09 -0.00196721)
(0.22204 6.97633e-09 -0.00195623)
(0.223279 8.26385e-09 -0.00194146)
(0.224508 1.01116e-08 -0.00192325)
(0.225724 1.23824e-08 -0.00190203)
(0.226926 1.4792e-08 -0.00187822)
(0.228113 1.69557e-08 -0.0018523)
(0.229282 1.84673e-08 -0.00182476)
(0.230433 1.90024e-08 -0.00179611)
(0.231565 1.84354e-08 -0.00176684)
(0.232678 1.68485e-08 -0.00173746)
(0.233772 1.45392e-08 -0.00170844)
(0.234847 1.19381e-08 -0.00168021)
(0.235905 9.50348e-09 -0.00165319)
(0.236945 7.61981e-09 -0.00162771)
(0.237969 6.4995e-09 -0.00160409)
(0.238978 6.18014e-09 -0.00158256)
(0.239974 6.53969e-09 -0.00156331)
(0.240957 7.34068e-09 -0.00154648)
(0.24193 8.3231e-09 -0.00153217)
(0.242894 9.24032e-09 -0.00152042)
(0.24385 9.87495e-09 -0.00151126)
(0.2448 1.00539e-08 -0.00150468)
(0.245746 9.65941e-09 -0.00150066)
(0.246689 8.61277e-09 -0.00149919)
(0.24763 6.89063e-09 -0.00150023)
(0.248572 4.52811e-09 -0.00150377)
(0.249515 1.62052e-09 -0.00150983)
(0.250461 -1.69584e-09 -0.00151841)
(0.251412 -5.2705e-09 -0.00152956)
(0.252369 -8.95294e-09 -0.00154335)
(0.253333 -1.26036e-08 -0.00155984)
(0.254307 -1.60727e-08 -0.00157913)
(0.255292 -1.92066e-08 -0.00160131)
(0.25629 -2.17803e-08 -0.00162645)
(0.257302 -2.35531e-08 -0.00165464)
(0.258331 -2.42901e-08 -0.00168588)
(0.259378 -2.37757e-08 -0.00172017)
(0.260445 -2.18787e-08 -0.00175739)
(0.261534 -1.85515e-08 -0.00179738)
(0.262645 -1.38142e-08 -0.00183983)
(0.263782 -7.76131e-09 -0.00188429)
(0.264944 -5.30052e-10 -0.00193015)
(0.266132 7.65218e-09 -0.00197658)
(0.267345 1.64577e-08 -0.00202251)
(0.268584 2.54885e-08 -0.00206659)
(0.269845 3.42967e-08 -0.00210713)
(0.271125 4.24435e-08 -0.00214206)
(0.27242 4.95328e-08 -0.00216886)
(0.273723 5.52312e-08 -0.0021845)
(0.275025 5.92689e-08 -0.00218537)
(0.276314 6.14762e-08 -0.00216725)
(0.277577 6.18418e-08 -0.00212518)
(0.278796 6.05052e-08 -0.00205344)
(0.279949 5.77942e-08 -0.00194545)
(0.28101 5.414e-08 -0.00179378)
(0.281948 5.007e-08 -0.00159008)
(0.282726 4.61532e-08 -0.00132511)
(0.283301 4.29988e-08 -0.000988769)
(0.283622 4.12262e-08 -0.000570052)
(0.283633 4.18126e-08 -5.82023e-05)
(0.283265 4.3317e-08 0.000561449)
(0.282442 4.51098e-08 0.00130725)
(0.281083 4.78202e-08 0.00219555)
(0.279095 4.98187e-08 0.00324125)
(0.276377 4.96631e-08 0.00445853)
(0.27282 4.60644e-08 0.00586043)
(0.268308 3.81667e-08 0.007458)
(0.26272 2.58939e-08 0.00925927)
(0.255933 1.01915e-08 0.011268)
(0.247823 -6.90738e-09 0.0134819)
(0.238273 -2.26553e-08 0.0158908)
(0.227175 -3.45071e-08 0.0184743)
(0.214438 -4.12725e-08 0.0211986)
(0.199999 -4.37588e-08 0.024013)
(0.18383 -4.39882e-08 0.0268447)
(0.165954 -4.27024e-08 0.029593)
(0.146459 -3.58105e-08 0.0321196)
(0.125524 -1.18524e-08 0.0342358)
(0.103445 4.80024e-08 0.0356825)
(0.0806537 1.66489e-07 0.0360921)
(0.0578181 3.57305e-07 0.0349633)
(0.0357184 5.96645e-07 0.0314611)
(0.0154919 8.78333e-07 0.0246719)
(-0.00160108 1.22298e-06 0.0137408)
(-0.0135074 1.51619e-06 -0.0016775)
(-0.0183127 7.75867e-07 -0.019465)
(-0.00927231 -2.55144e-06 -0.029937)
(-0.00701119 3.7057e-07 0.021735)
(-0.0165544 -5.86345e-07 0.0187434)
(-0.0159442 -9.33743e-07 0.00660475)
(-0.00902718 -6.9236e-07 -0.00558554)
(0.00255068 -3.89773e-07 -0.0153447)
(0.0173962 -2.37822e-07 -0.0223232)
(0.0344974 -1.50346e-07 -0.026955)
(0.0530758 -6.17714e-08 -0.0296957)
(0.072477 2.91066e-08 -0.0310141)
(0.0921813 1.09553e-07 -0.0313048)
(0.111738 1.79429e-07 -0.0308154)
(0.130802 2.3419e-07 -0.0297335)
(0.149092 2.70531e-07 -0.0281991)
(0.166388 2.87847e-07 -0.0263218)
(0.182518 2.88416e-07 -0.0241896)
(0.197351 2.75292e-07 -0.0218761)
(0.210791 2.51886e-07 -0.0194439)
(0.222776 2.20613e-07 -0.0169473)
(0.23327 1.83517e-07 -0.0144339)
(0.242265 1.42674e-07 -0.0119459)
(0.249775 1.00159e-07 -0.00952001)
(0.255834 5.78066e-08 -0.00718862)
(0.260494 1.68992e-08 -0.00498012)
(0.263822 -2.17041e-08 -0.00291923)
(0.265898 -5.72897e-08 -0.00102822)
(0.266805 -8.85412e-08 0.00068428)
(0.26665 -1.14468e-07 0.00222091)
(0.26554 -1.35229e-07 0.00358084)
(0.263585 -1.51097e-07 0.0047617)
(0.260893 -1.62647e-07 0.00576398)
(0.257572 -1.70735e-07 0.00659089)
(0.25373 -1.76307e-07 0.00724813)
(0.249468 -1.8013e-07 0.00774369)
(0.244884 -1.82567e-07 0.00808744)
(0.240071 -1.8355e-07 0.00829078)
(0.235115 -1.82651e-07 0.00836628)
(0.230094 -1.792e-07 0.00832728)
(0.225079 -1.72554e-07 0.00818755)
(0.220132 -1.62341e-07 0.007961)
(0.215309 -1.48606e-07 0.00766134)
(0.210656 -1.3194e-07 0.00730186)
(0.20621 -1.13375e-07 0.00689521)
(0.202002 -9.41959e-08 0.00645319)
(0.198055 -7.56318e-08 0.00598666)
(0.194387 -5.86104e-08 0.00550542)
(0.191007 -4.36988e-08 0.00501816)
(0.187921 -3.10723e-08 0.00453242)
(0.185129 -2.05034e-08 0.00405462)
(0.182629 -1.14252e-08 0.00359008)
(0.180413 -3.07861e-09 0.00314306)
(0.178472 5.25098e-09 0.00271682)
(0.176794 1.40495e-08 0.00231375)
(0.175366 2.34874e-08 0.0019354)
(0.174174 3.34058e-08 0.0015826)
(0.173201 4.34021e-08 0.00125555)
(0.172434 5.29447e-08 0.000953884)
(0.171857 6.14369e-08 0.000676762)
(0.171453 6.82551e-08 0.000422893)
(0.17121 7.28608e-08 0.000190626)
(0.171111 7.50014e-08 -2.12872e-05)
(0.171145 7.44574e-08 -0.000212425)
(0.171299 7.12689e-08 -0.000383186)
(0.171561 6.58401e-08 -0.000535613)
(0.171921 5.86072e-08 -0.000671433)
(0.172367 5.00915e-08 -0.000792257)
(0.172892 4.08264e-08 -0.000899537)
(0.173485 3.13936e-08 -0.00099457)
(0.17414 2.23949e-08 -0.00107851)
(0.174848 1.44222e-08 -0.00115236)
(0.175604 7.94384e-09 -0.00121703)
(0.176401 3.26409e-09 -0.00127332)
(0.177233 4.33261e-10 -0.00132194)
(0.178096 -6.80609e-10 -0.00136353)
(0.178984 -4.06793e-10 -0.0013987)
(0.179894 8.15058e-10 -0.00142803)
(0.180822 2.50179e-09 -0.00145209)
(0.181763 4.1769e-09 -0.00147145)
(0.182716 5.40064e-09 -0.0014867)
(0.183678 5.81351e-09 -0.00149845)
(0.184646 5.09441e-09 -0.00150732)
(0.185619 2.97074e-09 -0.00151392)
(0.186595 -7.74972e-10 -0.00151885)
(0.187574 -6.2448e-09 -0.00152265)
(0.188554 -1.33485e-08 -0.00152582)
(0.189535 -2.16849e-08 -0.00152884)
(0.190517 -3.05165e-08 -0.00153212)
(0.191502 -3.8885e-08 -0.00153611)
(0.192488 -4.58021e-08 -0.00154122)
(0.193478 -5.05687e-08 -0.0015479)
(0.194473 -5.29689e-08 -0.00155656)
(0.195473 -5.33623e-08 -0.00156755)
(0.196481 -5.24411e-08 -0.00158114)
(0.197498 -5.09696e-08 -0.00159743)
(0.198525 -4.94712e-08 -0.00161638)
(0.199565 -4.80297e-08 -0.00163781)
(0.200619 -4.63223e-08 -0.0016614)
(0.201687 -4.38021e-08 -0.00168678)
(0.202771 -4.00159e-08 -0.00171356)
(0.203873 -3.47949e-08 -0.00174132)
(0.204992 -2.83646e-08 -0.00176966)
(0.206129 -2.12888e-08 -0.00179815)
(0.207283 -1.42782e-08 -0.00182636)
(0.208455 -7.99164e-09 -0.00185376)
(0.209644 -2.85061e-09 -0.0018798)
(0.210848 9.65914e-10 -0.00190386)
(0.212065 3.52147e-09 -0.00192533)
(0.213295 5.03677e-09 -0.00194362)
(0.214534 5.79109e-09 -0.00195824)
(0.215781 6.05368e-09 -0.00196877)
(0.217033 6.04027e-09 -0.00197498)
(0.218287 5.95156e-09 -0.00197675)
(0.219542 5.95479e-09 -0.00197409)
(0.220794 6.24063e-09 -0.00196713)
(0.222041 6.97631e-09 -0.00195611)
(0.22328 8.26383e-09 -0.00194131)
(0.224509 1.01116e-08 -0.00192311)
(0.225725 1.23824e-08 -0.00190189)
(0.226927 1.47919e-08 -0.00187811)
(0.228113 1.69557e-08 -0.00185221)
(0.229282 1.84673e-08 -0.00182469)
(0.230433 1.90023e-08 -0.00179605)
(0.231565 1.84354e-08 -0.00176679)
(0.232678 1.68485e-08 -0.0017374)
(0.233772 1.45392e-08 -0.00170837)
(0.234848 1.19381e-08 -0.00168013)
(0.235905 9.50346e-09 -0.00165309)
(0.236945 7.6198e-09 -0.00162759)
(0.237969 6.49948e-09 -0.00160395)
(0.238979 6.18013e-09 -0.0015824)
(0.239974 6.53968e-09 -0.00156314)
(0.240958 7.34067e-09 -0.00154631)
(0.241931 8.32309e-09 -0.001532)
(0.242894 9.2403e-09 -0.00152026)
(0.243851 9.87494e-09 -0.00151112)
(0.244801 1.00539e-08 -0.00150457)
(0.245747 9.6594e-09 -0.0015006)
(0.24669 8.61276e-09 -0.00149918)
(0.247631 6.89062e-09 -0.00150028)
(0.248573 4.5281e-09 -0.00150389)
(0.249516 1.62052e-09 -0.00151002)
(0.250462 -1.69584e-09 -0.00151868)
(0.251413 -5.27049e-09 -0.00152992)
(0.252369 -8.95293e-09 -0.00154378)
(0.253334 -1.26036e-08 -0.00156035)
(0.254308 -1.60727e-08 -0.00157971)
(0.255293 -1.92066e-08 -0.00160194)
(0.25629 -2.17803e-08 -0.00162713)
(0.257303 -2.35531e-08 -0.00165534)
(0.258331 -2.42901e-08 -0.0016866)
(0.259378 -2.37757e-08 -0.00172088)
(0.260445 -2.18787e-08 -0.00175808)
(0.261534 -1.85515e-08 -0.00179802)
(0.262646 -1.38142e-08 -0.00184041)
(0.263783 -7.7613e-09 -0.0018848)
(0.264945 -5.30052e-10 -0.00193058)
(0.266132 7.65217e-09 -0.00197693)
(0.267346 1.64577e-08 -0.00202278)
(0.268584 2.54885e-08 -0.00206679)
(0.269845 3.42967e-08 -0.00210728)
(0.271126 4.24435e-08 -0.00214217)
(0.272421 4.95328e-08 -0.00216896)
(0.273723 5.52312e-08 -0.0021846)
(0.275025 5.92688e-08 -0.00218551)
(0.276315 6.14762e-08 -0.00216743)
(0.277578 6.18418e-08 -0.00212542)
(0.278797 6.05052e-08 -0.00205374)
(0.27995 5.77942e-08 -0.00194583)
(0.281011 5.414e-08 -0.00179422)
(0.281948 5.00699e-08 -0.00159058)
(0.282726 4.61531e-08 -0.00132566)
(0.283301 4.29988e-08 -0.000989343)
(0.283623 4.12262e-08 -0.000570641)
(0.283633 4.18125e-08 -5.87861e-05)
(0.283265 4.3317e-08 0.000560877)
(0.282443 4.51097e-08 0.00130669)
(0.281084 4.78201e-08 0.00219502)
(0.279096 4.98186e-08 0.00324075)
(0.276378 4.9663e-08 0.00445808)
(0.272821 4.60643e-08 0.00586002)
(0.268309 3.81666e-08 0.00745761)
(0.262721 2.58938e-08 0.00925889)
(0.255933 1.01915e-08 0.0112676)
(0.247824 -6.90737e-09 0.0134814)
(0.238274 -2.26552e-08 0.0158903)
(0.227175 -3.4507e-08 0.0184739)
(0.214439 -4.12723e-08 0.0211984)
(0.2 -4.37586e-08 0.024013)
(0.183831 -4.39881e-08 0.026845)
(0.165954 -4.27023e-08 0.0295935)
(0.14646 -3.58104e-08 0.0321202)
(0.125525 -1.18524e-08 0.0342364)
(0.103445 4.80023e-08 0.0356831)
(0.0806544 1.66488e-07 0.0360926)
(0.0578186 3.57304e-07 0.0349638)
(0.0357191 5.96643e-07 0.0314616)
(0.015493 8.78332e-07 0.0246721)
(-0.0015991 1.22298e-06 0.0137403)
(-0.0135047 1.51621e-06 -0.00167954)
(-0.0183074 7.75876e-07 -0.0194701)
(-0.00926422 -2.55142e-06 -0.0299403)
(-0.00418117 1.4669e-06 0.0305816)
(-0.00447138 5.88213e-07 0.0176923)
(0.00322841 9.30563e-09 -0.00141181)
(0.014133 -1.32397e-07 -0.0175132)
(0.0274661 -6.63486e-08 -0.0298395)
(0.0425455 8.45431e-09 -0.0387125)
(0.058962 6.48769e-08 -0.0446922)
(0.0763178 1.15644e-07 -0.0483288)
(0.0942444 1.63245e-07 -0.0501188)
(0.112386 2.05502e-07 -0.0504762)
(0.130416 2.42092e-07 -0.049712)
(0.148056 2.72295e-07 -0.0480678)
(0.165072 2.92281e-07 -0.045734)
(0.181265 3.0083e-07 -0.0428642)
(0.196478 2.97505e-07 -0.0395863)
(0.210582 2.83592e-07 -0.036009)
(0.223481 2.61207e-07 -0.0322272)
(0.235107 2.32677e-07 -0.028324)
(0.245414 2.00425e-07 -0.0243737)
(0.254382 1.66569e-07 -0.0204419)
(0.262011 1.32579e-07 -0.0165873)
(0.26832 9.90994e-08 -0.0128609)
(0.273345 6.60724e-08 -0.00930748)
(0.277136 3.33512e-08 -0.00596482)
(0.279754 1.21538e-09 -0.00286356)
(0.281272 -2.97996e-08 -2.64298e-05)
(0.28177 -5.8654e-08 0.00253348)
(0.281343 -8.41829e-08 0.00481042)
(0.280088 -1.05701e-07 0.00680131)
(0.278102 -1.22971e-07 0.00850673)
(0.275483 -1.36177e-07 0.0099311)
(0.272329 -1.45838e-07 0.0110826)
(0.268735 -1.52577e-07 0.0119728)