/*--------------------------------*- C++ -*----------------------------------*\
  =========                 |
  \\      /  F ield         | OpenFOAM: The Open Source CFD Toolbox
   \\    /   O peration     | Website:  https://openfoam.org
    \\  /    A nd           | Version:  8
     \\/     M anipulation  |
\*---------------------------------------------------------------------------*/
FoamFile
{
    version     2.0;
    format      ascii;
    class       volScalarField;
    location    "3800";
    object      alphat;
}
// * * * * * * * * * * * * * * * * * * * * * * * * * * * * * * * * * * * * * //

dimensions      [1 -1 -1 0 0 0 0];

internalField   nonuniform List<scalar> 
48000
(
5.21224e-05
9.03799e-05
0.000111895
0.000127743
0.000141022
0.000152208
0.000161915
0.000170534
0.00017845
0.000185773
0.000192558
0.000198902
0.000204862
0.000210484
0.000215802
0.000220846
0.000225638
0.000230197
0.000234537
0.000238672
0.000242612
0.000246368
0.000249945
0.000253353
0.000256596
0.000259681
0.000262614
0.000265398
0.000268038
0.00027054
0.000272907
0.000275142
0.000277251
0.000279237
0.000281104
0.000282856
0.000284495
0.000286027
0.000287455
0.000288781
0.00029001
0.000291145
0.000292189
0.000293145
0.000294034
0.000294847
0.000295582
0.000296242
0.000296829
0.000297348
0.000297801
0.000298191
0.000298522
0.000298796
0.000299016
0.000299184
0.000299304
0.000299376
0.000299405
0.000299392
0.000299339
0.000299248
0.000299122
0.000298962
0.000298769
0.000298546
0.000298294
0.000298015
0.00029771
0.00029738
0.000297027
0.000296652
0.000296256
0.000295839
0.000295404
0.000294951
0.00029448
0.000293993
0.00029349
0.000292972
0.00029244
0.000291893
0.000291334
0.000290761
0.000290176
0.000289579
0.00028897
0.000288349
0.000287717
0.000287074
0.000286421
0.000285757
0.000285082
0.000284396
0.000283701
0.000282995
0.000282278
0.000281551
0.000280814
0.000280066
0.000279308
0.000278539
0.00027776
0.000276969
0.000276167
0.000275354
0.00027453
0.000273694
0.000272846
0.000271987
0.000271114
0.00027023
0.000269332
0.000268421
0.000267497
0.000266559
0.000265607
0.000264641
0.00026366
0.000262664
0.000261653
0.000260626
0.000259583
0.000258524
0.000257448
0.000256356
0.000255245
0.000254117
0.000252971
0.000251806
0.000250623
0.00024942
0.000248198
0.000246956
0.000245693
0.00024441
0.000243106
0.00024178
0.000240433
0.000239063
0.000237671
0.000236256
0.000234818
0.000233357
0.000231871
0.000230362
0.000228827
0.000227268
0.000225683
0.000224072
0.000222436
0.000220773
0.000219083
0.000217366
0.000215621
0.000213848
0.000212047
0.000210216
0.000208357
0.000206467
0.000204546
0.000202595
0.000200612
0.000198596
0.000196547
0.000194464
0.000192346
0.000190192
0.000188001
0.000185771
0.000183502
0.000181192
0.000178838
0.000176439
0.000173994
0.000171498
0.000168949
0.000166344
0.00016368
0.000160952
0.00015816
0.000155313
0.000152395
0.000149384
0.000146268
0.000143033
0.000139663
0.000136137
0.000132431
0.00012851
0.00012433
0.000119845
0.000115015
0.000109699
0.00010373
9.68418e-05
8.85518e-05
7.77261e-05
5.95047e-05
7.52963e-05
5.21229e-05
9.03803e-05
0.000111895
0.000127744
0.000141022
0.000152208
0.000161915
0.000170534
0.000178451
0.000185774
0.000192558
0.000198902
0.000204862
0.000210484
0.000215802
0.000220846
0.000225638
0.000230197
0.000234537
0.000238672
0.000242613
0.000246368
0.000249945
0.000253353
0.000256596
0.000259682
0.000262614
0.000265398
0.000268038
0.00027054
0.000272907
0.000275142
0.000277251
0.000279237
0.000281104
0.000282856
0.000284496
0.000286027
0.000287455
0.000288781
0.00029001
0.000291145
0.000292189
0.000293145
0.000294034
0.000294847
0.000295582
0.000296242
0.000296829
0.000297348
0.000297801
0.000298191
0.000298522
0.000298796
0.000299016
0.000299184
0.000299304
0.000299376
0.000299405
0.000299392
0.000299339
0.000299248
0.000299122
0.000298962
0.000298769
0.000298546
0.000298294
0.000298015
0.00029771
0.00029738
0.000297027
0.000296652
0.000296256
0.000295839
0.000295404
0.000294951
0.00029448
0.000293993
0.00029349
0.000292972
0.00029244
0.000291893
0.000291334
0.000290761
0.000290176
0.000289579
0.00028897
0.000288349
0.000287717
0.000287074
0.000286421
0.000285757
0.000285082
0.000284396
0.000283701
0.000282995
0.000282278
0.000281551
0.000280814
0.000280066
0.000279308
0.000278539
0.00027776
0.000276969
0.000276167
0.000275354
0.00027453
0.000273694
0.000272846
0.000271987
0.000271114
0.00027023
0.000269332
0.000268421
0.000267497
0.000266559
0.000265607
0.000264641
0.00026366
0.000262664
0.000261653
0.000260626
0.000259583
0.000258524
0.000257448
0.000256356
0.000255245
0.000254117
0.000252971
0.000251806
0.000250623
0.00024942
0.000248198
0.000246956
0.000245693
0.00024441
0.000243106
0.00024178
0.000240433
0.000239063
0.000237671
0.000236256
0.000234818
0.000233357
0.000231871
0.000230361
0.000228827
0.000227268
0.000225683
0.000224072
0.000222436
0.000220773
0.000219083
0.000217366
0.000215621
0.000213848
0.000212047
0.000210216
0.000208357
0.000206467
0.000204546
0.000202595
0.000200612
0.000198596
0.000196547
0.000194464
0.000192346
0.000190192
0.000188001
0.000185771
0.000183502
0.000181192
0.000178838
0.000176439
0.000173994
0.000171498
0.000168949
0.000166344
0.00016368
0.000160952
0.00015816
0.000155313
0.000152395
0.000149384
0.000146268
0.000143033
0.000139663
0.000136138
0.000132431
0.00012851
0.00012433
0.000119845
0.000115015
0.000109699
0.00010373
9.68418e-05
8.85518e-05
7.77252e-05
5.95033e-05
7.52888e-05
7.85605e-05
0.000582217
0.000922305
0.00116035
0.001338
0.00148281
0.00160699
0.00171619
0.0018135
0.00190142
0.00198186
0.00205602
0.0021248
0.0021889
0.00224887
0.00230514
0.00235808
0.00240798
0.00245508
0.00249961
0.00254173
0.0025816
0.00261938
0.00265516
0.00268907
0.00272121
0.00275165
0.00278048
0.00280778
0.00283361
0.00285804
0.00288113
0.00290292
0.00292348
0.00294285
0.00296108
0.00297822
0.0029943
0.00300937
0.00302346
0.00303661
0.00304885
0.00306019
0.0030706
0.00307989
0.00308833
0.00309603
0.00310305
0.00310943
0.0031152
0.0031204
0.00312505
0.00312918
0.0031328
0.00313595
0.00313863
0.00314087
0.00314269
0.00314411
0.00314515
0.00314581
0.00314612
0.00314609
0.00314574
0.00314508
0.00314412
0.00314288
0.00314136
0.00313958
0.00313756
0.00313529
0.00313279
0.00313008
0.00312715
0.00312401
0.00312068
0.00311716
0.00311345
0.00310957
0.00310552
0.0031013
0.00309691
0.00309238
0.00308768
0.00308284
0.00307785
0.00307272
0.00306745
0.00306204
0.0030565
0.00305081
0.003045
0.00303905
0.00303297
0.00302676
0.00302042
0.00301395
0.00300734
0.0030006
0.00299374
0.00298673
0.0029796
0.00297233
0.00296492
0.00295737
0.00294969
0.00294186
0.00293388
0.00292576
0.0029175
0.00290908
0.0029005
0.00289178
0.00288289
0.00287384
0.00286462
0.00285524
0.00284569
0.00283596
0.00282606
0.00281598
0.00280571
0.00279525
0.00278461
0.00277377
0.00276273
0.00275149
0.00274004
0.00272839
0.00271653
0.00270445
0.00269214
0.00267962
0.00266687
0.00265389
0.00264067
0.00262722
0.00261352
0.00259958
0.00258539
0.00257095
0.00255625
0.00254129
0.00252606
0.00251057
0.0024948
0.00247876
0.00246243
0.00244583
0.00242893
0.00241174
0.00239426
0.00237647
0.00235837
0.00233997
0.00232124
0.0023022
0.00228282
0.00226311
0.00224306
0.00222266
0.00220191
0.00218079
0.00215929
0.00213741
0.00211514
0.00209246
0.00206935
0.00204582
0.00202182
0.00199736
0.0019724
0.00194693
0.00192091
0.00189432
0.00186711
0.00183925
0.00181069
0.00178136
0.00175117
0.00172001
0.0016877
0.00165417
0.0016194
0.00158327
0.00154561
0.0015062
0.00146478
0.00142094
0.00137419
0.00132374
0.00126825
0.00120592
0.00113555
0.00105417
0.000956812
0.00083441
0.000668384
0.000416215
5.29571e-05
7.85609e-05
0.000582225
0.000922318
0.00116037
0.00133801
0.00148282
0.001607
0.0017162
0.00181351
0.00190143
0.00198188
0.00205603
0.00212481
0.00218891
0.00224888
0.00230515
0.00235809
0.00240799
0.00245509
0.00249961
0.00254174
0.00258161
0.00261938
0.00265517
0.00268908
0.00272122
0.00275166
0.00278049
0.00280779
0.00283362
0.00285805
0.00288113
0.00290293
0.00292349
0.00294286
0.00296109
0.00297822
0.0029943
0.00300937
0.00302346
0.00303662
0.00304886
0.0030602
0.00307061
0.0030799
0.00308834
0.00309604
0.00310305
0.00310943
0.00311521
0.00312041
0.00312506
0.00312918
0.00313281
0.00313595
0.00313863
0.00314088
0.0031427
0.00314412
0.00314515
0.00314581
0.00314612
0.0031461
0.00314574
0.00314508
0.00314412
0.00314288
0.00314137
0.00313959
0.00313756
0.0031353
0.0031328
0.00313008
0.00312715
0.00312402
0.00312068
0.00311716
0.00311346
0.00310958
0.00310552
0.0031013
0.00309692
0.00309238
0.00308769
0.00308285
0.00307786
0.00307273
0.00306746
0.00306205
0.0030565
0.00305082
0.003045
0.00303906
0.00303298
0.00302677
0.00302042
0.00301395
0.00300735
0.00300061
0.00299374
0.00298674
0.0029796
0.00297233
0.00296492
0.00295738
0.00294969
0.00294186
0.00293389
0.00292577
0.0029175
0.00290908
0.00290051
0.00289178
0.00288289
0.00287384
0.00286463
0.00285525
0.00284569
0.00283597
0.00282606
0.00281598
0.00280571
0.00279526
0.00278461
0.00277377
0.00276273
0.00275149
0.00274005
0.0027284
0.00271653
0.00270445
0.00269215
0.00267962
0.00266687
0.00265389
0.00264068
0.00262722
0.00261353
0.00259959
0.0025854
0.00257095
0.00255625
0.00254129
0.00252606
0.00251057
0.0024948
0.00247876
0.00246244
0.00244583
0.00242894
0.00241175
0.00239426
0.00237647
0.00235838
0.00233997
0.00232125
0.0023022
0.00228283
0.00226312
0.00224307
0.00222267
0.00220191
0.00218079
0.0021593
0.00213742
0.00211514
0.00209246
0.00206936
0.00204582
0.00202183
0.00199736
0.00197241
0.00194693
0.00192091
0.00189432
0.00186711
0.00183926
0.00181069
0.00178136
0.00175117
0.00172001
0.0016877
0.00165418
0.0016194
0.00158327
0.00154561
0.00150621
0.00146478
0.00142095
0.00137419
0.00132374
0.00126825
0.00120592
0.00113555
0.00105417
0.000956815
0.000834419
0.000668402
0.000416211
5.29569e-05
9.66037e-05
0.000883074
0.00157069
0.00208571
0.00249067
0.00282606
0.00311377
0.00336651
0.00359199
0.0037955
0.00398089
0.00415096
0.00430784
0.00445318
0.00458831
0.00471431
0.00483207
0.00494237
0.00504584
0.00514304
0.00523447
0.00532055
0.00540167
0.00547816
0.00555033
0.00561846
0.0056828
0.00574358
0.00580099
0.00585524
0.0059065
0.00595493
0.00600067
0.00604387
0.00608465
0.00612313
0.00615941
0.00619361
0.0062258
0.00625609
0.00628453
0.0063112
0.00633614
0.00635933
0.00638072
0.00640052
0.00641886
0.00643587
0.00645163
0.0064662
0.00647964
0.00649202
0.00650337
0.00651374
0.00652317
0.0065317
0.00653936
0.0065462
0.00655224
0.00655752
0.00656205
0.00656589
0.00656904
0.00657153
0.0065734
0.00657466
0.00657533
0.00657544
0.00657501
0.00657406
0.00657259
0.00657064
0.00656822
0.00656533
0.00656201
0.00655825
0.00655407
0.00654949
0.00654452
0.00653916
0.00653342
0.00652732
0.00652085
0.00651404
0.00650688
0.00649938
0.00649155
0.00648338
0.00647489
0.00646608
0.00645695
0.0064475
0.00643774
0.00642766
0.00641726
0.00640656
0.00639554
0.0063842
0.00637255
0.00636058
0.0063483
0.00633569
0.00632276
0.0063095
0.00629591
0.00628199
0.00626774
0.00625314
0.00623819
0.0062229
0.00620725
0.00619123
0.00617486
0.00615811
0.00614098
0.00612347
0.00610557
0.00608727
0.00606857
0.00604946
0.00602993
0.00600997
0.00598959
0.00596877
0.0059475
0.00592578
0.00590359
0.00588094
0.00585781
0.0058342
0.00581009
0.00578548
0.00576036
0.00573472
0.00570855
0.00568185
0.00565461
0.00562681
0.00559845
0.00556952
0.00554001
0.00550991
0.00547921
0.00544791
0.00541598
0.00538342
0.00535023
0.00531638
0.00528187
0.00524669
0.00521082
0.00517426
0.00513698
0.00509898
0.00506024
0.00502074
0.00498047
0.00493941
0.00489755
0.00485485
0.00481131
0.0047669
0.00472159
0.00467535
0.00462816
0.00457998
0.00453078
0.00448052
0.00442915
0.00437662
0.00432289
0.00426788
0.00421154
0.00415377
0.0040945
0.00403362
0.00397101
0.00390653
0.00384001
0.00377123
0.00369996
0.00362588
0.00354875
0.00346826
0.003384
0.00329544
0.00320192
0.00310261
0.00299639
0.0028818
0.00275681
0.00261856
0.00246306
0.00228594
0.00208004
0.00183429
0.00153113
0.00114197
0.000625496
6.84595e-05
9.6604e-05
0.000883085
0.00157071
0.00208574
0.0024907
0.00282609
0.0031138
0.00336654
0.00359202
0.00379552
0.00398091
0.00415099
0.00430786
0.0044532
0.00458833
0.00471433
0.00483209
0.00494239
0.00504586
0.00514306
0.00523449
0.00532057
0.00540168
0.00547817
0.00555034
0.00561848
0.00568281
0.00574359
0.00580101
0.00585526
0.00590651
0.00595494
0.00600068
0.00604388
0.00608466
0.00612314
0.00615942
0.00619361
0.00622581
0.00625609
0.00628454
0.00631121
0.00633614
0.00635933
0.00638072
0.00640052
0.00641887
0.00643588
0.00645163
0.0064662
0.00647965
0.00649202
0.00650337
0.00651374
0.00652317
0.0065317
0.00653937
0.0065462
0.00655224
0.00655752
0.00656206
0.00656589
0.00656904
0.00657154
0.0065734
0.00657466
0.00657534
0.00657545
0.00657502
0.00657406
0.0065726
0.00657064
0.00656822
0.00656533
0.00656201
0.00655825
0.00655408
0.00654949
0.00654452
0.00653916
0.00653342
0.00652732
0.00652086
0.00651404
0.00650688
0.00649938
0.00649155
0.00648339
0.0064749
0.00646608
0.00645695
0.0064475
0.00643774
0.00642766
0.00641726
0.00640656
0.00639554
0.0063842
0.00637255
0.00636058
0.0063483
0.00633569
0.00632276
0.0063095
0.00629592
0.006282
0.00626774
0.00625314
0.00623819
0.0062229
0.00620725
0.00619124
0.00617486
0.00615811
0.00614098
0.00612347
0.00610557
0.00608727
0.00606857
0.00604946
0.00602993
0.00600998
0.00598959
0.00596877
0.0059475
0.00592578
0.00590359
0.00588094
0.00585781
0.0058342
0.00581009
0.00578548
0.00576036
0.00573472
0.00570855
0.00568185
0.00565461
0.00562681
0.00559845
0.00556952
0.00554001
0.00550991
0.00547921
0.00544791
0.00541598
0.00538342
0.00535023
0.00531638
0.00528187
0.00524669
0.00521082
0.00517426
0.00513698
0.00509898
0.00506024
0.00502074
0.00498047
0.00493941
0.00489755
0.00485485
0.00481131
0.0047669
0.00472159
0.00467535
0.00462816
0.00457998
0.00453078
0.00448052
0.00442915
0.00437662
0.00432289
0.00426788
0.00421154
0.00415377
0.0040945
0.00403362
0.00397101
0.00390653
0.00384001
0.00377123
0.00369996
0.00362589
0.00354875
0.00346826
0.003384
0.00329544
0.00320192
0.00310261
0.00299639
0.0028818
0.00275681
0.00261856
0.00246306
0.00228594
0.00208004
0.00183429
0.00153113
0.00114198
0.000625484
6.84593e-05
0.000109405
0.00106716
0.00200775
0.00275459
0.00336387
0.00387768
0.00432239
0.00471483
0.0050661
0.00538389
0.00567376
0.00593987
0.00618538
0.00641279
0.00662412
0.00682101
0.00700487
0.00717685
0.00733797
0.00748913
0.0076311
0.00776456
0.00789015
0.00800842
0.00811988
0.00822497
0.00832413
0.00841773
0.00850611
0.00858961
0.00866851
0.00874308
0.00881358
0.00888023
0.00894325
0.00900283
0.00905915
0.00911238
0.00916267
0.00921016
0.00925497
0.0092972
0.00933694
0.00937425
0.00940917
0.00944188
0.00947252
0.00950123
0.00952811
0.00955328
0.00957681
0.00959879
0.00961928
0.00963835
0.00965606
0.00967246
0.00968761
0.00970156
0.00971435
0.00972603
0.00973663
0.0097462
0.00975478
0.00976239
0.00976908
0.00977486
0.00977979
0.00978387
0.00978715
0.00978963
0.00979136
0.00979235
0.00979262
0.0097922
0.0097911
0.00978934
0.00978693
0.0097839
0.00978026
0.00977601
0.00977118
0.00976577
0.0097598
0.00975327
0.00974619
0.00973857
0.00973042
0.00972174
0.00971253
0.00970281
0.00969257
0.00968182
0.00967056
0.00965879
0.00964651
0.00963372
0.00962042
0.00960661
0.00959229
0.00957745
0.0095621
0.00954622
0.00952982
0.00951288
0.00949541
0.0094774
0.00945885
0.00943973
0.00942006
0.00939982
0.00937901
0.00935762
0.00933563
0.00931304
0.00928985
0.00926603
0.00924159
0.00921652
0.00919079
0.00916441
0.00913736
0.00910963
0.00908121
0.00905208
0.00902225
0.00899169
0.00896039
0.00892834
0.00889552
0.00886194
0.00882756
0.00879239
0.00875639
0.00871957
0.00868191
0.00864339
0.008604
0.00856372
0.00852254
0.00848044
0.00843741
0.00839343
0.00834849
0.00830256
0.00825563
0.00820769
0.0081587
0.00810866
0.00805754
0.00800532
0.00795198
0.00789749
0.00784184
0.00778498
0.00772691
0.00766758
0.00760698
0.00754505
0.00748178
0.00741712
0.00735103
0.00728347
0.00721439
0.00714374
0.00707146
0.0069975
0.00692178
0.00684424
0.00676478
0.00668333
0.00659978
0.00651401
0.0064259
0.00633531
0.00624208
0.006146
0.00604688
0.00594445
0.00583842
0.00572844
0.0056141
0.00549494
0.00537043
0.00523994
0.00510273
0.00495783
0.00480406
0.00463993
0.00446349
0.00427233
0.00406321
0.00383186
0.00357261
0.00327819
0.00293881
0.00254024
0.00206241
0.00147809
0.000762552
7.80997e-05
0.000109406
0.00106717
0.00200778
0.00275462
0.00336391
0.00387772
0.00432243
0.00471487
0.00506614
0.00538392
0.0056738
0.0059399
0.00618541
0.00641282
0.00662415
0.00682105
0.00700489
0.00717687
0.007338
0.00748916
0.00763112
0.00776459
0.00789018
0.00800845
0.0081199
0.00822499
0.00832415
0.00841774
0.00850613
0.00858962
0.00866852
0.00874309
0.00881359
0.00888024
0.00894326
0.00900284
0.00905916
0.00911239
0.00916268
0.00921017
0.00925497
0.00929721
0.00933695
0.00937426
0.00940918
0.00944189
0.00947253
0.00950123
0.00952812
0.00955328
0.00957681
0.00959879
0.00961928
0.00963835
0.00965606
0.00967246
0.00968762
0.00970156
0.00971435
0.00972603
0.00973663
0.00974621
0.00975478
0.00976239
0.00976908
0.00977487
0.00977979
0.00978387
0.00978715
0.00978963
0.00979136
0.00979235
0.00979262
0.0097922
0.0097911
0.00978934
0.00978693
0.0097839
0.00978026
0.00977601
0.00977118
0.00976577
0.0097598
0.00975327
0.00974619
0.00973857
0.00973042
0.00972174
0.00971253
0.00970281
0.00969257
0.00968182
0.00967056
0.00965879
0.00964651
0.00963372
0.00962042
0.00960661
0.00959229
0.00957745
0.0095621
0.00954622
0.00952982
0.00951288
0.00949541
0.0094774
0.00945884
0.00943973
0.00942006
0.00939982
0.00937901
0.00935761
0.00933563
0.00931304
0.00928985
0.00926603
0.00924159
0.00921651
0.00919079
0.00916441
0.00913736
0.00910963
0.0090812
0.00905208
0.00902225
0.00899168
0.00896038
0.00892833
0.00889552
0.00886193
0.00882756
0.00879238
0.00875639
0.00871957
0.00868191
0.00864339
0.00860399
0.00856371
0.00852254
0.00848044
0.00843741
0.00839343
0.00834849
0.00830256
0.00825563
0.00820768
0.0081587
0.00810866
0.00805754
0.00800532
0.00795197
0.00789749
0.00784183
0.00778498
0.00772691
0.00766758
0.00760697
0.00754505
0.00748178
0.00741712
0.00735103
0.00728346
0.00721438
0.00714373
0.00707146
0.0069975
0.00692178
0.00684423
0.00676478
0.00668333
0.00659977
0.00651401
0.0064259
0.00633531
0.00624207
0.006146
0.00604687
0.00594445
0.00583842
0.00572844
0.0056141
0.00549494
0.00537042
0.00523994
0.00510272
0.00495783
0.00480406
0.00463992
0.00446349
0.00427233
0.00406321
0.00383186
0.00357261
0.00327819
0.00293881
0.00254024
0.00206241
0.00147809
0.000762547
7.80996e-05
0.00011979
0.00119239
0.00232017
0.003254
0.00403466
0.00470251
0.00528567
0.0058033
0.00626865
0.00669112
0.00707761
0.0074333
0.00776216
0.00806736
0.00835145
0.00861652
0.00886434
0.0090964
0.00931402
0.00951832
0.00971033
0.00989094
0.010061
0.0102211
0.0103721
0.0105146
0.010649
0.0107759
0.0108959
0.0110092
0.0111164
0.0112178
0.0113138
0.0114046
0.0114906
0.0115721
0.0116492
0.0117222
0.0117914
0.0118569
0.0119189
0.0119776
0.012033
0.0120853
0.0121347
0.0121813
0.0122252
0.0122666
0.0123057
0.0123426
0.0123773
0.01241
0.0124408
0.0124697
0.0124969
0.0125224
0.0125462
0.0125685
0.0125893
0.0126087
0.0126267
0.0126433
0.0126587
0.0126728
0.0126857
0.0126974
0.012708
0.0127175
0.0127259
0.0127333
0.0127398
0.0127452
0.0127497
0.0127533
0.0127559
0.0127577
0.0127586
0.0127587
0.012758
0.0127565
0.0127542
0.0127511
0.0127472
0.0127426
0.0127372
0.0127311
0.0127242
0.0127167
0.0127084
0.0126994
0.0126897
0.0126793
0.0126682
0.0126564
0.0126439
0.0126307
0.0126168
0.0126021
0.0125868
0.0125707
0.012554
0.0125365
0.0125182
0.0124993
0.0124796
0.0124591
0.0124379
0.0124159
0.0123932
0.0123697
0.0123453
0.0123202
0.0122942
0.0122674
0.0122398
0.0122113
0.012182
0.0121517
0.0121206
0.0120886
0.0120556
0.0120218
0.0119869
0.0119511
0.0119143
0.0118765
0.0118377
0.0117979
0.011757
0.011715
0.0116719
0.0116278
0.0115825
0.0115361
0.0114885
0.0114397
0.0113897
0.0113385
0.011286
0.0112323
0.0111772
0.0111209
0.0110632
0.0110041
0.0109436
0.0108817
0.0108184
0.0107536
0.0106872
0.0106194
0.0105499
0.0104788
0.0104061
0.0103316
0.0102555
0.0101775
0.0100978
0.0100161
0.00993257
0.00984701
0.0097594
0.00966968
0.00957776
0.00948358
0.00938705
0.00928807
0.00918654
0.00908235
0.00897538
0.00886549
0.00875253
0.00863632
0.00851668
0.00839339
0.0082662
0.00813483
0.00799896
0.00785822
0.00771218
0.00756033
0.00740209
0.00723678
0.00706362
0.00688167
0.0066898
0.00648662
0.00627044
0.00603916
0.00579013
0.00552005
0.00522468
0.00489864
0.00453506
0.004125
0.00365724
0.00311673
0.00248413
0.00173703
0.000866704
8.57063e-05
0.00011979
0.0011924
0.00232019
0.00325403
0.0040347
0.00470255
0.00528571
0.00580334
0.00626869
0.00669117
0.00707766
0.00743334
0.0077622
0.0080674
0.00835149
0.00861656
0.00886438
0.00909644
0.00931405
0.00951836
0.00971036
0.00989097
0.010061
0.0102212
0.0103722
0.0105146
0.010649
0.010776
0.0108959
0.0110093
0.0111165
0.0112179
0.0113138
0.0114046
0.0114906
0.0115721
0.0116492
0.0117222
0.0117914
0.0118569
0.0119189
0.0119776
0.012033
0.0120854
0.0121347
0.0121813
0.0122252
0.0122666
0.0123057
0.0123426
0.0123773
0.01241
0.0124408
0.0124697
0.0124969
0.0125224
0.0125462
0.0125685
0.0125893
0.0126087
0.0126267
0.0126433
0.0126587
0.0126728
0.0126857
0.0126974
0.012708
0.0127175
0.0127259
0.0127333
0.0127398
0.0127452
0.0127497
0.0127533
0.0127559
0.0127577
0.0127586
0.0127587
0.012758
0.0127565
0.0127542
0.0127511
0.0127472
0.0127426
0.0127372
0.0127311
0.0127242
0.0127167
0.0127084
0.0126994
0.0126897
0.0126793
0.0126682
0.0126564
0.0126439
0.0126307
0.0126168
0.0126021
0.0125868
0.0125707
0.012554
0.0125365
0.0125182
0.0124993
0.0124796
0.0124591
0.0124379
0.0124159
0.0123932
0.0123696
0.0123453
0.0123202
0.0122942
0.0122674
0.0122398
0.0122113
0.012182
0.0121517
0.0121206
0.0120886
0.0120556
0.0120218
0.0119869
0.0119511
0.0119143
0.0118765
0.0118377
0.0117979
0.011757
0.011715
0.0116719
0.0116278
0.0115825
0.0115361
0.0114885
0.0114397
0.0113897
0.0113385
0.011286
0.0112323
0.0111772
0.0111209
0.0110632
0.0110041
0.0109436
0.0108817
0.0108184
0.0107536
0.0106872
0.0106193
0.0105499
0.0104788
0.0104061
0.0103316
0.0102555
0.0101775
0.0100978
0.0100161
0.00993256
0.009847
0.0097594
0.00966967
0.00957776
0.00948357
0.00938704
0.00928806
0.00918653
0.00908235
0.00897538
0.00886549
0.00875253
0.00863632
0.00851668
0.00839338
0.00826619
0.00813482
0.00799896
0.00785821
0.00771217
0.00756032
0.00740208
0.00723678
0.00706362
0.00688166
0.00668979
0.00648661
0.00627044
0.00603915
0.00579013
0.00552005
0.00522468
0.00489864
0.00453506
0.00412499
0.00365724
0.00311673
0.00248413
0.00173703
0.000866701
8.57063e-05
0.000128603
0.00129174
0.00256228
0.00364544
0.00456732
0.00536509
0.00606714
0.00669383
0.00725973
0.00777542
0.00824874
0.00868565
0.00909075
0.00946769
0.00981942
0.0101484
0.0104566
0.0107458
0.0110174
0.011273
0.0115135
0.0117401
0.0119537
0.0121552
0.0123454
0.012525
0.0126947
0.0128552
0.0130069
0.0131505
0.0132864
0.0134151
0.013537
0.0136525
0.0137621
0.013866
0.0139645
0.014058
0.0141467
0.0142308
0.0143107
0.0143864
0.0144582
0.0145263
0.0145908
0.0146519
0.0147098
0.0147646
0.0148166
0.0148658
0.0149125
0.0149566
0.0149985
0.015038
0.0150754
0.0151108
0.0151441
0.0151756
0.0152052
0.0152331
0.0152593
0.0152838
0.0153068
0.0153282
0.0153482
0.0153668
0.0153839
0.0153998
0.0154143
0.0154276
0.0154396
0.0154505
0.0154601
0.0154687
0.0154761
0.0154825
0.0154878
0.015492
0.0154952
0.0154975
0.0154987
0.015499
0.0154983
0.0154966
0.0154941
0.0154906
0.0154861
0.0154808
0.0154746
0.0154675
0.0154594
0.0154505
0.0154407
0.01543
0.0154184
0.0154059
0.0153926
0.0153783
0.0153631
0.015347
0.01533
0.0153121
0.0152932
0.0152734
0.0152527
0.015231
0.0152083
0.0151847
0.0151601
0.0151344
0.0151078
0.0150801
0.0150514
0.0150217
0.0149908
0.0149589
0.0149259
0.0148918
0.0148565
0.01482
0.0147824
0.0147436
0.0147036
0.0146624
0.0146199
0.0145761
0.014531
0.0144846
0.0144369
0.0143878
0.0143373
0.0142854
0.0142321
0.0141773
0.014121
0.0140632
0.0140039
0.013943
0.0138805
0.0138163
0.0137505
0.013683
0.0136137
0.0135427
0.0134699
0.0133953
0.0133188
0.0132404
0.01316
0.0130776
0.0129931
0.0129066
0.0128179
0.012727
0.0126339
0.0125384
0.0124405
0.0123402
0.0122374
0.0121319
0.0120238
0.0119128
0.011799
0.0116822
0.0115623
0.0114392
0.0113126
0.0111826
0.0110489
0.0109113
0.0107696
0.0106235
0.010473
0.0103175
0.0101569
0.00999064
0.00981842
0.0096397
0.00945392
0.00926042
0.00905843
0.00884707
0.00862528
0.00839183
0.00814526
0.00788377
0.00760521
0.00730694
0.00698573
0.00663759
0.00625754
0.00583943
0.00537554
0.00485618
0.00426951
0.00360096
0.00283309
0.00194877
0.000952201
9.21259e-05
0.000128603
0.00129175
0.0025623
0.00364547
0.00456735
0.00536513
0.00606719
0.00669388
0.00725978
0.00777547
0.00824879
0.0086857
0.0090908
0.00946774
0.00981947
0.0101484
0.0104566
0.0107458
0.0110175
0.011273
0.0115136
0.0117401
0.0119538
0.0121553
0.0123455
0.0125251
0.0126948
0.0128552
0.0130069
0.0131505
0.0132864
0.0134151
0.013537
0.0136526
0.0137621
0.013866
0.0139645
0.014058
0.0141467
0.0142308
0.0143107
0.0143864
0.0144583
0.0145263
0.0145908
0.0146519
0.0147098
0.0147647
0.0148166
0.0148658
0.0149125
0.0149567
0.0149985
0.015038
0.0150754
0.0151108
0.0151441
0.0151756
0.0152052
0.0152331
0.0152593
0.0152838
0.0153068
0.0153282
0.0153482
0.0153668
0.0153839
0.0153998
0.0154143
0.0154276
0.0154396
0.0154505
0.0154601
0.0154687
0.0154761
0.0154825
0.0154878
0.015492
0.0154952
0.0154975
0.0154987
0.015499
0.0154983
0.0154966
0.0154941
0.0154906
0.0154861
0.0154808
0.0154746
0.0154675
0.0154594
0.0154505
0.0154407
0.01543
0.0154184
0.0154059
0.0153926
0.0153783
0.0153631
0.015347
0.01533
0.0153121
0.0152932
0.0152734
0.0152527
0.015231
0.0152083
0.0151847
0.0151601
0.0151344
0.0151078
0.0150801
0.0150514
0.0150217
0.0149908
0.0149589
0.0149259
0.0148918
0.0148565
0.01482
0.0147824
0.0147436
0.0147036
0.0146624
0.0146199
0.0145761
0.014531
0.0144846
0.0144369
0.0143878
0.0143373
0.0142854
0.0142321
0.0141773
0.014121
0.0140632
0.0140039
0.013943
0.0138805
0.0138163
0.0137505
0.013683
0.0136137
0.0135427
0.0134699
0.0133953
0.0133188
0.0132404
0.01316
0.0130776
0.0129931
0.0129066
0.0128179
0.012727
0.0126339
0.0125384
0.0124405
0.0123402
0.0122374
0.0121319
0.0120238
0.0119128
0.011799
0.0116822
0.0115623
0.0114391
0.0113126
0.0111826
0.0110489
0.0109112
0.0107695
0.0106235
0.010473
0.0103175
0.0101569
0.00999063
0.00981841
0.00963969
0.00945392
0.00926041
0.00905843
0.00884706
0.00862527
0.00839183
0.00814525
0.00788376
0.0076052
0.00730694
0.00698573
0.00663758
0.00625754
0.00583943
0.00537553
0.00485618
0.00426951
0.00360096
0.00283309
0.00194877
0.000952199
9.21259e-05
0.000136408
0.00137678
0.00276202
0.00396608
0.00500449
0.00591136
0.00671469
0.0074354
0.00808889
0.00868653
0.00923686
0.00974639
0.0102202
0.0106623
0.0110759
0.0114638
0.0118281
0.0121707
0.0124934
0.0127975
0.0130844
0.0133551
0.0136109
0.0138526
0.0140811
0.0142972
0.0145017
0.0146953
0.0148787
0.0150525
0.0152171
0.0153733
0.0155214
0.015662
0.0157954
0.0159221
0.0160425
0.0161569
0.0162655
0.0163688
0.016467
0.0165603
0.016649
0.0167333
0.0168134
0.0168896
0.0169619
0.0170307
0.017096
0.0171582
0.0172172
0.0172734
0.0173267
0.0173774
0.0174256
0.0174713
0.0175147
0.0175558
0.0175948
0.0176317
0.0176667
0.0176997
0.0177308
0.0177602
0.0177878
0.0178138
0.0178381
0.0178609
0.0178821
0.0179018
0.0179201
0.017937
0.0179525
0.0179667
0.0179795
0.0179911
0.0180014
0.0180105
0.0180184
0.0180251
0.0180306
0.0180349
0.0180381
0.0180402
0.0180412
0.018041
0.0180398
0.0180375
0.0180341
0.0180296
0.018024
0.0180174
0.0180097
0.0180009
0.017991
0.0179801
0.0179681
0.017955
0.0179408
0.0179255
0.0179091
0.0178916
0.0178729
0.0178532
0.0178323
0.0178102
0.017787
0.0177626
0.017737
0.0177102
0.0176821
0.0176528
0.0176223
0.0175905
0.0175573
0.0175229
0.0174871
0.01745
0.0174115
0.0173716
0.0173303
0.0172875
0.0172433
0.0171976
0.0171503
0.0171015
0.0170511
0.0169992
0.0169456
0.0168903
0.0168334
0.0167748
0.0167144
0.0166522
0.0165882
0.0165224
0.0164546
0.016385
0.0163134
0.0162398
0.0161642
0.0160865
0.0160067
0.0159248
0.0158406
0.0157542
0.0156655
0.0155744
0.0154809
0.015385
0.0152865
0.0151854
0.0150817
0.0149753
0.0148661
0.014754
0.014639
0.0145209
0.0143996
0.0142752
0.0141474
0.0140161
0.0138813
0.0137427
0.0136002
0.0134538
0.0133031
0.013148
0.0129883
0.0128238
0.0126542
0.0124791
0.0122984
0.0121115
0.0119182
0.0117179
0.01151
0.0112941
0.0110693
0.0108349
0.01059
0.0103333
0.0100637
0.00977969
0.0094794
0.00916073
0.00882114
0.00845753
0.0080662
0.00764262
0.0071813
0.00667555
0.00611721
0.00549639
0.00480119
0.0040179
0.00313124
0.00212896
0.00102553
9.77432e-05
0.000136408
0.00137679
0.00276204
0.00396611
0.00500453
0.00591141
0.00671474
0.00743546
0.00808894
0.00868658
0.00923691
0.00974645
0.0102203
0.0106624
0.011076
0.0114638
0.0118281
0.0121708
0.0124934
0.0127975
0.0130844
0.0133552
0.0136109
0.0138526
0.0140811
0.0142972
0.0145017
0.0146954
0.0148787
0.0150525
0.0152172
0.0153733
0.0155215
0.015662
0.0157955
0.0159222
0.0160425
0.0161569
0.0162656
0.0163688
0.016467
0.0165603
0.0166491
0.0167334
0.0168135
0.0168896
0.0169619
0.0170307
0.017096
0.0171582
0.0172172
0.0172734
0.0173267
0.0173774
0.0174256
0.0174713
0.0175147
0.0175558
0.0175948
0.0176317
0.0176667
0.0176997
0.0177308
0.0177602
0.0177878
0.0178138
0.0178381
0.0178609
0.0178821
0.0179018
0.0179201
0.017937
0.0179525
0.0179667
0.0179795
0.0179911
0.0180014
0.0180105
0.0180184
0.0180251
0.0180306
0.0180349
0.0180381
0.0180402
0.0180412
0.018041
0.0180398
0.0180375
0.0180341
0.0180296
0.018024
0.0180174
0.0180097
0.0180009
0.017991
0.0179801
0.0179681
0.017955
0.0179408
0.0179255
0.0179091
0.0178916
0.0178729
0.0178532
0.0178323
0.0178102
0.017787
0.0177626
0.017737
0.0177102
0.0176821
0.0176528
0.0176223
0.0175905
0.0175573
0.0175229
0.0174871
0.01745
0.0174115
0.0173716
0.0173303
0.0172875
0.0172433
0.0171976
0.0171503
0.0171015
0.0170511
0.0169992
0.0169456
0.0168903
0.0168334
0.0167747