/*--------------------------------*- C++ -*----------------------------------*\
  =========                 |
  \\      /  F ield         | OpenFOAM: The Open Source CFD Toolbox
   \\    /   O peration     | Website:  https://openfoam.org
    \\  /    A nd           | Version:  8
     \\/     M anipulation  |
\*---------------------------------------------------------------------------*/
FoamFile
{
    version     2.0;
    format      ascii;
    class       volScalarField;
    location    "3800";
    object      k;
}
// * * * * * * * * * * * * * * * * * * * * * * * * * * * * * * * * * * * * * //

dimensions      [0 2 -2 0 0 0 0];

internalField   nonuniform List<scalar> 
48000
(
0.0295447
0.0761562
0.116729
0.152138
0.18541
0.215992
0.24442
0.271135
0.296892
0.32176
0.345691
0.368844
0.391281
0.413049
0.434186
0.454719
0.474666
0.494039
0.512845
0.531088
0.548769
0.565888
0.582442
0.598431
0.613851
0.628701
0.642979
0.656684
0.669816
0.682376
0.694367
0.70579
0.716651
0.726955
0.736707
0.745916
0.75459
0.762737
0.770369
0.777495
0.784127
0.790276
0.795952
0.801171
0.80604
0.810503
0.814549
0.818188
0.821437
0.824311
0.826825
0.828995
0.830836
0.832362
0.833588
0.834528
0.835195
0.835603
0.835764
0.835692
0.835397
0.834893
0.834188
0.833295
0.832223
0.830983
0.829583
0.828031
0.826338
0.824509
0.822553
0.820477
0.818288
0.815991
0.813592
0.811098
0.808512
0.805841
0.803087
0.800256
0.797351
0.794376
0.791333
0.788226
0.785057
0.78183
0.778545
0.775206
0.771813
0.768369
0.764875
0.761331
0.75774
0.754102
0.750417
0.746687
0.742911
0.739091
0.735226
0.731316
0.727362
0.723363
0.719319
0.715231
0.711097
0.706917
0.702691
0.698418
0.694098
0.68973
0.685313
0.680848
0.676332
0.671765
0.667147
0.662477
0.657754
0.652977
0.648145
0.643258
0.638315
0.633315
0.628257
0.62314
0.617964
0.612729
0.607433
0.602075
0.596656
0.591175
0.585631
0.580023
0.574352
0.568617
0.562818
0.556954
0.551025
0.545032
0.538974
0.532851
0.526663
0.520411
0.514095
0.507714
0.501271
0.494764
0.488194
0.481562
0.474869
0.468116
0.461303
0.45443
0.4475
0.440512
0.433468
0.426369
0.419215
0.412009
0.40475
0.397441
0.390081
0.382673
0.375217
0.367714
0.360165
0.352571
0.344932
0.337249
0.329523
0.321753
0.313941
0.306084
0.298184
0.290238
0.282247
0.274207
0.266117
0.257974
0.249775
0.241521
0.233213
0.224892
0.216521
0.208048
0.199458
0.190733
0.181851
0.172786
0.163505
0.153966
0.144114
0.133903
0.123328
0.112191
0.100314
0.0874369
0.0731304
0.0565887
0.0358658
0.0218645
0.0295453
0.0761568
0.11673
0.152139
0.185411
0.215992
0.244421
0.271136
0.296893
0.32176
0.345692
0.368845
0.391281
0.41305
0.434187
0.45472
0.474667
0.49404
0.512846
0.531089
0.54877
0.565888
0.582443
0.598431
0.613851
0.628701
0.642979
0.656684
0.669816
0.682377
0.694367
0.705791
0.716651
0.726955
0.736707
0.745916
0.75459
0.762737
0.770369
0.777495
0.784127
0.790276
0.795953
0.801171
0.80604
0.810503
0.814549
0.818189
0.821437
0.824311
0.826825
0.828995
0.830836
0.832362
0.833588
0.834528
0.835195
0.835603
0.835764
0.835692
0.835397
0.834893
0.834188
0.833295
0.832223
0.830983
0.829583
0.828031
0.826337
0.824509
0.822553
0.820477
0.818288
0.815991
0.813592
0.811098
0.808512
0.805841
0.803087
0.800256
0.797351
0.794376
0.791333
0.788226
0.785057
0.78183
0.778545
0.775206
0.771813
0.768369
0.764875
0.761331
0.75774
0.754102
0.750417
0.746687
0.742911
0.739091
0.735226
0.731316
0.727362
0.723363
0.719319
0.715231
0.711097
0.706917
0.702691
0.698418
0.694098
0.68973
0.685313
0.680847
0.676332
0.671765
0.667147
0.662477
0.657754
0.652977
0.648145
0.643258
0.638315
0.633315
0.628257
0.62314
0.617964
0.612729
0.607433
0.602075
0.596656
0.591175
0.585631
0.580023
0.574352
0.568617
0.562818
0.556954
0.551025
0.545032
0.538974
0.532851
0.526663
0.520411
0.514095
0.507714
0.50127
0.494763
0.488194
0.481562
0.474869
0.468116
0.461302
0.45443
0.4475
0.440512
0.433468
0.426369
0.419215
0.412009
0.40475
0.397441
0.390081
0.382673
0.375217
0.367714
0.360165
0.352571
0.344932
0.337249
0.329523
0.321753
0.313941
0.306084
0.298184
0.290238
0.282247
0.274207
0.266117
0.257974
0.249775
0.241521
0.233214
0.224892
0.216521
0.208048
0.199458
0.190733
0.181851
0.172786
0.163506
0.153966
0.144114
0.133903
0.123328
0.112191
0.100315
0.0874369
0.0731304
0.0565884
0.035866
0.0218635
0.0774242
0.195126
0.27784
0.350737
0.417588
0.480323
0.539861
0.596543
0.650989
0.703552
0.754456
0.803876
0.851938
0.898731
0.944318
0.98874
1.03202
1.07418
1.11521
1.15512
1.19389
1.23151
1.26797
1.30326
1.33735
1.37024
1.40192
1.43237
1.46159
1.48957
1.5163
1.5418
1.56606
1.58909
1.6109
1.63151
1.65092
1.66915
1.68623
1.70217
1.71701
1.73076
1.74345
1.75511
1.76576
1.77547
1.78425
1.79213
1.79914
1.80532
1.81071
1.81533
1.81922
1.82241
1.82493
1.82682
1.82811
1.82881
1.82898
1.82862
1.82777
1.82646
1.82471
1.82254
1.81997
1.81704
1.81375
1.81013
1.8062
1.80198
1.79747
1.7927
1.78769
1.78244
1.77697
1.7713
1.76542
1.75936
1.75313
1.74672
1.74016
1.73345
1.72659
1.7196
1.71248
1.70523
1.69786
1.69037
1.68277
1.67506
1.66725
1.65933
1.65132
1.6432
1.63499
1.62668
1.61828
1.60978
1.60119
1.59251
1.58373
1.57486
1.5659
1.55684
1.54769
1.53845
1.5291
1.51966
1.51012
1.50049
1.49074
1.4809
1.47095
1.4609
1.45073
1.44046
1.43008
1.41958
1.40897
1.39825
1.3874
1.37644
1.36535
1.35414
1.34281
1.33135
1.31977
1.30805
1.29621
1.28423
1.27213
1.25989
1.24752
1.23501
1.22237
1.20959
1.19668
1.18363
1.17044
1.15712
1.14367
1.13008
1.11635
1.10249
1.0885
1.07438
1.06013
1.04575
1.03124
1.0166
1.00184
0.986961
0.97196
0.95684
0.941604
0.926254
0.910793
0.895223
0.879546
0.863765
0.847881
0.831898
0.815817
0.799641
0.783371
0.76701
0.750557
0.734016
0.717386
0.700668
0.683862
0.666968
0.649983
0.632906
0.615734
0.598462
0.581086
0.5636
0.545994
0.528261
0.51039
0.492369
0.474172
0.455761
0.437126
0.418235
0.399043
0.379502
0.359548
0.339104
0.318068
0.296307
0.273664
0.249953
0.224869
0.197983
0.168642
0.135698
0.096288
0.0373572
0.077425
0.195127
0.27784
0.350738
0.417589
0.480323
0.539861
0.596543
0.650989
0.703552
0.754456
0.803876
0.851938
0.898731
0.944318
0.98874
1.03202
1.07418
1.11521
1.15512
1.19389
1.23151
1.26797
1.30326
1.33735
1.37024
1.40192
1.43237
1.46159
1.48957
1.5163
1.5418
1.56606
1.58909
1.6109
1.63151
1.65092
1.66915
1.68623
1.70217
1.71701
1.73076
1.74345
1.7551
1.76576
1.77547
1.78425
1.79213
1.79914
1.80532
1.81071
1.81533
1.81922
1.82241
1.82493
1.82682
1.82811
1.82881
1.82898
1.82862
1.82777
1.82646
1.82471
1.82254
1.81997
1.81704
1.81375
1.81013
1.8062
1.80198
1.79747
1.7927
1.78769
1.78244
1.77697
1.7713
1.76542
1.75936
1.75313
1.74672
1.74016
1.73345
1.72659
1.7196
1.71248
1.70523
1.69786
1.69037
1.68277
1.67506
1.66725
1.65933
1.65131
1.6432
1.63499
1.62668
1.61828
1.60978
1.60119
1.59251
1.58373
1.57486
1.5659
1.55684
1.54769
1.53845
1.5291
1.51966
1.51012
1.50048
1.49074
1.4809
1.47095
1.4609
1.45073
1.44046
1.43008
1.41958
1.40897
1.39825
1.3874
1.37644
1.36535
1.35414
1.34281
1.33135
1.31977
1.30805
1.29621
1.28423
1.27213
1.25989
1.24751
1.23501
1.22237
1.20959
1.19667
1.18363
1.17044
1.15712
1.14367
1.13008
1.11635
1.10249
1.0885
1.07438
1.06013
1.04575
1.03124
1.0166
1.00184
0.986961
0.971959
0.956839
0.941603
0.926254
0.910793
0.895222
0.879545
0.863764
0.847881
0.831898
0.815817
0.799641
0.783371
0.767009
0.750557
0.734016
0.717386
0.700668
0.683862
0.666967
0.649983
0.632906
0.615733
0.598462
0.581086
0.563599
0.545994
0.528261
0.510389
0.492368
0.474172
0.455761
0.437126
0.418235
0.399043
0.379502
0.359548
0.339104
0.318068
0.296307
0.273664
0.249953
0.224869
0.197983
0.168642
0.135698
0.0962875
0.0373563
0.117072
0.278278
0.381872
0.470469
0.551762
0.628532
0.701888
0.772403
0.8405
0.906477
0.970546
1.03287
1.09356
1.15271
1.21037
1.2666
1.32141
1.37482
1.42682
1.47742
1.52659
1.57433
1.6206
1.66541
1.70872
1.75051
1.79077
1.82949
1.86666
1.90226
1.93629
1.96874
1.99964
2.02897
2.05675
2.08299
2.10771
2.13094
2.15269
2.17299
2.19187
2.20937
2.22551
2.24034
2.25389
2.26621
2.27733
2.28731
2.29617
2.30396
2.31073
2.31651
2.32134
2.32528
2.32836
2.33062
2.33209
2.33283
2.33287
2.33223
2.33096
2.3291
2.32667
2.3237
2.32023
2.31627
2.31187
2.30705
2.30182
2.29622
2.29026
2.28397
2.27736
2.27045
2.26327
2.25582
2.24812
2.24019
2.23203
2.22366
2.2151
2.20634
2.1974
2.1883
2.17902
2.1696
2.16002
2.1503
2.14043
2.13044
2.12031
2.11005
2.09968
2.08918
2.07856
2.06782
2.05697
2.046
2.03491
2.02372
2.01241
2.00098
1.98944
1.97779
1.96602
1.95413
1.94212
1.92999
1.91775
1.90538
1.89288
1.88026
1.86751
1.85463
1.84162
1.82847
1.81519
1.80176
1.7882
1.77449
1.76064
1.74664
1.73249
1.71819
1.70373
1.68912
1.67436
1.65943
1.64435
1.6291
1.61369
1.59812
1.58238
1.56647
1.5504
1.53417
1.51776
1.50119
1.48445
1.46754
1.45046
1.43322
1.41581
1.39824
1.3805
1.36261
1.34455
1.32633
1.30795
1.28942
1.27074
1.2519
1.23292
1.21379
1.19452
1.17511
1.15557
1.13588
1.11607
1.09613
1.07607
1.05588
1.03557
1.01514
0.994605
0.973953
0.95319
0.932318
0.911338
0.890251
0.869056
0.847752
0.826339
0.804814
0.783172
0.76141
0.739521
0.717498
0.695331
0.673008
0.650516
0.627837
0.604946
0.581814
0.558409
0.53469
0.510611
0.486128
0.461166
0.435641
0.409445
0.38244
0.354444
0.325255
0.294553
0.261875
0.226455
0.186729
0.138
0.058903
0.117073
0.278279
0.381872
0.470469
0.551762
0.628532
0.701888
0.772403
0.8405
0.906477
0.970545
1.03287
1.09356
1.15271
1.21037
1.2666
1.32141
1.37482
1.42682
1.47742
1.52659
1.57433
1.6206
1.66541
1.70872
1.75051
1.79077
1.82949
1.86666
1.90226
1.93628
1.96874
1.99964
2.02897
2.05675
2.08299
2.10771
2.13094
2.15269
2.17299
2.19187
2.20937
2.22551
2.24034
2.25389
2.2662
2.27733
2.28731
2.29617
2.30396
2.31073
2.31651
2.32134
2.32528
2.32836
2.33061
2.33209
2.33283
2.33286
2.33223
2.33096
2.3291
2.32667
2.3237
2.32022
2.31627
2.31187
2.30705
2.30182
2.29622
2.29026
2.28397
2.27736
2.27045
2.26327
2.25582
2.24812
2.24019
2.23203
2.22366
2.21509
2.20634
2.1974
2.18829
2.17902
2.1696
2.16002
2.15029
2.14043
2.13044
2.12031
2.11005
2.09967
2.08917
2.07856
2.06782
2.05696
2.046
2.03491
2.02372
2.01241
2.00098
1.98944
1.97779
1.96601
1.95413
1.94212
1.92999
1.91775
1.90538
1.89288
1.88026
1.86751
1.85463
1.84162
1.82847
1.81518
1.80176
1.7882
1.77449
1.76064
1.74664
1.73249
1.71819
1.70373
1.68912
1.67436
1.65943
1.64435
1.6291
1.61369
1.59812
1.58238
1.56647
1.5504
1.53416
1.51776
1.50119
1.48445
1.46754
1.45046
1.43322
1.41581
1.39824
1.3805
1.36261
1.34455
1.32633
1.30795
1.28942
1.27074
1.2519
1.23292
1.21379
1.19452
1.17511
1.15557
1.13588
1.11607
1.09613
1.07607
1.05588
1.03557
1.01514
0.994604
0.973952
0.953189
0.932318
0.911338
0.89025
0.869055
0.847752
0.826339
0.804813
0.783172
0.76141
0.739521
0.717498
0.695331
0.673008
0.650516
0.627837
0.604946
0.581814
0.558409
0.53469
0.510611
0.486128
0.461166
0.435641
0.409445
0.38244
0.354444
0.325254
0.294553
0.261875
0.226455
0.186729
0.138
0.0589031
0.150157
0.349037
0.469561
0.569449
0.660757
0.747084
0.829836
0.909686
0.987029
1.06213
1.13516
1.20626
1.27553
1.34306
1.40889
1.47307
1.53562
1.59655
1.65587
1.71356
1.76963
1.82404
1.8768
1.92787
1.97724
2.02489
2.0708
2.11496
2.15735
2.19796
2.2368
2.27385
2.30912
2.34261
2.37435
2.40433
2.43258
2.45912
2.48399
2.50719
2.52878
2.54878
2.56723
2.58418
2.59966
2.61373
2.62642
2.63779
2.64788
2.65674
2.66441
2.67095
2.6764
2.68081
2.68422
2.68669
2.68825
2.68896
2.68886
2.68798
2.68637
2.68406
2.6811
2.67752
2.67336
2.66864
2.66341
2.65768
2.65149
2.64486
2.63783
2.63041
2.62262
2.61449
2.60605
2.59729
2.58826
2.57895
2.56938
2.55958
2.54955
2.5393
2.52884
2.5182
2.50736
2.49635
2.48516
2.47382
2.46231
2.45065
2.43885
2.4269
2.41482
2.40259
2.39023
2.37774
2.36512
2.35237
2.3395
2.32649
2.31336
2.3001
2.28671
2.27319
2.25955
2.24577
2.23186
2.21781
2.20363
2.18932
2.17486
2.16026
2.14552
2.13064
2.1156
2.10042
2.08508
2.06958
2.05393
2.03812
2.02214
2.006
1.9897
1.97322
1.95657
1.93975
1.92275
1.90557
1.88822
1.87068
1.85296
1.83506
1.81697
1.79869
1.78023
1.76158
1.74275
1.72372
1.70451
1.68511
1.66552
1.64575
1.62579
1.60565
1.58532
1.56481
1.54412
1.52325
1.5022
1.48098
1.45959
1.43803
1.41631
1.39442
1.37237
1.35017
1.32781
1.3053
1.28265
1.25985
1.23691
1.21383
1.19062
1.16728
1.14381
1.12022
1.0965
1.07266
1.04869
1.02461
1.00041
0.97609
0.951646
0.927077
0.90238
0.877551
0.852582
0.827465
0.802192
0.776748
0.75112
0.725289
0.69923
0.672916
0.646314
0.619384
0.592079
0.564343
0.536104
0.507287
0.477784
0.447458
0.416129
0.383569
0.349454
0.31326
0.274044
0.229702
0.173677
0.0765238
0.150158
0.349038
0.469561
0.569449
0.660757
0.747084
0.829836
0.909686
0.987029
1.06212
1.13516
1.20626
1.27553
1.34306
1.40889
1.47307
1.53562
1.59655
1.65587
1.71356
1.76962
1.82404
1.8768
1.92787
1.97724
2.02489
2.0708
2.11496
2.15735
2.19796
2.2368
2.27385
2.30912
2.34261
2.37434
2.40433
2.43258
2.45912
2.48398
2.50719
2.52878
2.54878
2.56723
2.58418
2.59966
2.61373
2.62642
2.63779
2.64788
2.65674
2.66441
2.67095
2.6764
2.68081
2.68422
2.68669
2.68825
2.68896
2.68886
2.68798
2.68637
2.68406
2.6811
2.67752
2.67336
2.66864
2.6634
2.65768
2.65149
2.64486
2.63783
2.6304
2.62262
2.61449
2.60604
2.59729
2.58825
2.57895
2.56938
2.55958
2.54955
2.5393
2.52884
2.51819
2.50736
2.49635
2.48516
2.47381
2.46231
2.45065
2.43885
2.4269
2.41481
2.40259
2.39023
2.37774
2.36512
2.35237
2.3395
2.32649
2.31336
2.3001
2.28671
2.27319
2.25954
2.24577
2.23186
2.21781
2.20363
2.18932
2.17486
2.16026
2.14552
2.13064
2.1156
2.10041
2.08508
2.06958
2.05393
2.03812
2.02214
2.006
1.9897
1.97322
1.95657
1.93975
1.92275
1.90557
1.88822
1.87068
1.85296
1.83506
1.81697
1.79869
1.78023
1.76158
1.74275
1.72372
1.70451
1.68511
1.66552
1.64575
1.62579
1.60564
1.58532
1.56481
1.54412
1.52325
1.5022
1.48098
1.45959
1.43803
1.41631
1.39442
1.37237
1.35017
1.32781
1.3053
1.28264
1.25985
1.23691
1.21383
1.19062
1.16728
1.14381
1.12022
1.0965
1.07266
1.04869
1.02461
1.00041
0.976089
0.951645
0.927077
0.90238
0.87755
0.852581
0.827465
0.802191
0.776748
0.75112
0.725289
0.69923
0.672916
0.646314
0.619383
0.592078
0.564343
0.536104
0.507287
0.477784
0.447457
0.416129
0.383569
0.349454
0.31326
0.274044
0.229702
0.173677
0.0765238
0.180016
0.412719
0.549452
0.660064
0.760223
0.854623
0.945092
1.03247
1.11718
1.19949
1.27957
1.35754
1.43349
1.50749
1.57958
1.64981
1.71821
1.78479
1.84955
1.91251
1.97366
2.03298
2.09047
2.14611
2.19988
2.25177
2.30177
2.34986
2.39603
2.44027
2.48258
2.52295
2.5614
2.59792
2.63253
2.66524
2.69607
2.72505
2.7522
2.77754
2.80113
2.82298
2.84315
2.86167
2.87859
2.89397
2.90784
2.92025
2.93126
2.94092
2.94927
2.95638
2.96228
2.96704
2.9707
2.97332
2.97494
2.97561
2.97539
2.97431
2.97241
2.96976
2.96637
2.9623
2.95758
2.95225
2.94635
2.9399
2.93293
2.92549
2.91759
2.90927
2.90054
2.89143
2.88197
2.87217
2.86206
2.85165
2.84095
2.82999
2.81878
2.80734
2.79566
2.78377
2.77168
2.75939
2.74692
2.73426
2.72144
2.70844
2.69529
2.68198
2.66852
2.65491
2.64115
2.62725
2.61321
2.59903
2.58471
2.57025
2.55566
2.54092
2.52605
2.51104
2.49588
2.48059
2.46515
2.44957
2.43384
2.41797
2.40194
2.38576
2.36943
2.35294
2.33628
2.31947
2.30249
2.28534
2.26803
2.25053
2.23287
2.21502
2.197
2.17879
2.16039
2.14181
2.12304
2.10407
2.08491
2.06556
2.04601
2.02626
2.00631
1.98616
1.9658
1.94525
1.92449
1.90353
1.88236
1.86099
1.83942
1.81765
1.79567
1.7735
1.75113
1.72856
1.70579
1.68284
1.65969
1.63635
1.61283
1.58913
1.56524
1.54118
1.51695
1.49254
1.46797
1.44324
1.41834
1.39329
1.36809
1.34274
1.31725
1.29161
1.26583
1.23991
1.21387
1.18768
1.16137
1.13493
1.10835
1.08165
1.05481
1.02785
1.00074
0.97349
0.946093
0.918539
0.89082
0.862923
0.834832
0.806531
0.777995
0.749199
0.720111
0.690692
0.660898
0.630673
0.59995
0.568647
0.536658
0.503845
0.470034
0.434966
0.398282
0.359364
0.317042
0.268637
0.205873
0.0921503
0.180017
0.41272
0.549453
0.660064
0.760222
0.854622
0.945091
1.03246
1.11718
1.19949
1.27957
1.35754
1.43349
1.50748
1.57958
1.64981
1.71821
1.78479
1.84955
1.91251
1.97366
2.03298
2.09047
2.14611
2.19988
2.25177
2.30177
2.34986
2.39603
2.44027
2.48258
2.52295
2.5614
2.59792
2.63253
2.66524
2.69607
2.72505
2.7522
2.77754
2.80113
2.82298
2.84315
2.86167
2.87859
2.89397
2.90784
2.92025
2.93126
2.94092
2.94927
2.95637
2.96228
2.96704
2.9707
2.97332
2.97494
2.97561
2.97539
2.9743
2.97241
2.96975
2.96637
2.9623
2.95758
2.95225
2.94634
2.93989
2.93293
2.92549
2.91759
2.90926
2.90054
2.89143
2.88197
2.87217
2.86206
2.85165
2.84095
2.82999
2.81878
2.80733
2.79566
2.78377
2.77168
2.75939
2.74692
2.73426
2.72144
2.70844
2.69529
2.68198
2.66852
2.65491
2.64115
2.62725
2.61321
2.59903
2.58471
2.57025
2.55565
2.54092
2.52605
2.51103
2.49588
2.48059
2.46515
2.44957
2.43384
2.41797
2.40194
2.38576
2.36943
2.35294
2.33628
2.31947
2.30249
2.28534
2.26802
2.25053
2.23287
2.21502
2.197
2.17879
2.16039
2.14181
2.12304
2.10407
2.08491
2.06556
2.04601
2.02626
2.00631
1.98616
1.9658
1.94525
1.92449
1.90353
1.88236
1.86099
1.83942
1.81765
1.79567
1.7735
1.75113
1.72856
1.70579
1.68284
1.65969
1.63635
1.61283
1.58913
1.56524
1.54118
1.51695
1.49254
1.46797
1.44324
1.41834
1.39329
1.36809
1.34274
1.31725
1.29161
1.26583
1.23991
1.21386
1.18768
1.16137
1.13493
1.10835
1.08165
1.05481
1.02785
1.00074
0.97349
0.946092
0.918539
0.89082
0.862922
0.834832
0.80653
0.777995
0.749199
0.720111
0.690692
0.660898
0.630673
0.59995
0.568647
0.536657
0.503845
0.470034
0.434966
0.398282
0.359364
0.317042
0.268637
0.205873
0.0921503
0.207479
0.472633
0.62499
0.746218
0.854902
0.956818
1.05426
1.14826
1.23935
1.32782
1.41385
1.49754
1.579
1.65828
1.73544
1.81052
1.88356
1.95458
2.02359
2.09061
2.15565
2.2187
2.27976
2.33882
2.39588
2.45093
2.50396
2.55496
2.60392
2.65084
2.69572
2.73855
2.77935
2.81812
2.85487
2.88962
2.92238
2.95319
2.98206
3.00902
3.03412
3.05739
3.07887
3.0986
3.11664
3.13302
3.1478
3.16103
3.17276
3.18305
3.19194
3.19949
3.20576
3.2108
3.21466
3.2174
3.21907
3.21972
3.2194
3.21816
3.21605
3.21311
3.20939
3.20492
3.19976
3.19393
3.18748
3.18044
3.17285
3.16474
3.15614
3.14707
3.13757
3.12766
3.11736
3.1067
3.0957
3.08438
3.07275
3.06084
3.04865
3.03621
3.02352
3.01061
2.99747
2.98412
2.97057
2.95683
2.9429
2.92879
2.91451
2.90007
2.88546
2.87069
2.85576
2.84069
2.82546
2.81008
2.79455
2.77888
2.76305
2.74709
2.73097
2.71471
2.69829
2.68173
2.66501
2.64814
2.63112
2.61394
2.59659
2.57909
2.56142
2.54359
2.52558
2.5074
2.48905
2.47052
2.45181
2.43291
2.41383
2.39456
2.3751
2.35544
2.33558
2.31553
2.29528
2.27482
2.25415
2.23328
2.2122
2.19091
2.1694
2.14769
2.12575
2.10361
2.08125
2.05867
2.03587
2.01287
1.98964
1.9662
1.94255
1.91868
1.89461
1.87032
1.84583
1.82113
1.79623
1.77113
1.74583
1.72034
1.69465
1.66878
1.64272
1.61648
1.59006
1.56346
1.5367
1.50977
1.48267
1.45542
1.428
1.40044
1.37272
1.34486
1.31685
1.2887
1.26041
1.23198
1.20341
1.1747
1.14585
1.11685
1.08771
1.05842
1.02897
0.999363
0.96958
0.939613
0.909447
0.879066
0.848449
0.81757
0.786399
0.754901
0.723031
0.690737
0.657952
0.624594
0.590557
0.555699
0.519826
0.482654
0.443755
0.402411
0.357205
0.304905
0.235682
0.106472
0.20748
0.472633
0.624991
0.746218
0.854902
0.956817
1.05426
1.14826
1.23935
1.32782
1.41385
1.49754
1.579
1.65828
1.73544
1.81052
1.88356
1.95458
2.02359
2.09061
2.15565
2.2187
2.27976
2.33882
2.39588
2.45093
2.50396
2.55496
2.60392
2.65084
2.69572
2.73855
2.77935
2.81812
2.85487
2.88962
2.92238
2.95318
2.98205
3.00902
3.03412
3.05739
3.07887
3.0986
3.11664
3.13302
3.1478
3.16103
3.17276
3.18304
3.19194
3.19949
3.20576
3.2108
3.21466
3.2174
3.21907
3.21972
3.2194
3.21816
3.21605
3.21311
3.20939
3.20492
3.19975
3.19393
3.18748
3.18044
3.17285
3.16474
3.15614
3.14707
3.13757
3.12766
3.11736
3.1067
3.0957
3.08438
3.07275
3.06084
3.04865
3.03621
3.02352
3.01061
2.99747
2.98412
2.97057
2.95683
2.9429
2.92879
2.91451
2.90007
2.88546
2.87069
2.85576
2.84068
2.82546
2.81008
2.79455
2.77888
2.76305
2.74709
2.73097
2.7147
2.69829
2.68173
2.66501
2.64814
2.63112
2.61394
2.59659
2.57909
2.56142
2.54359
2.52558
2.5074
2.48905
2.47052
2.45181
2.43291
2.41383
2.39456
2.37509
2.35544
2.33558
2.31553
2.29527
2.27482
2.25415
2.23328
2.2122
2.19091
2.1694
2.14769
2.12575
2.10361
2.08124
2.05867
2.03587
2.01286
1.98964
1.9662
1.94255
1.91868
1.89461
1.87032
1.84583
1.82113
1.79623
1.77113
1.74583
1.72034
1.69465
1.66878
1.64272
1.61648
1.59006
1.56346
1.5367
1.50977
1.48267
1.45541
1.428
1.40044
1.37272
1.34486
1.31685
1.2887
1.26041
1.23198
1.20341
1.1747
1.14585
1.11685
1.08771
1.05842
1.02897
0.999363
0.96958
0.939613
0.909447
0.879066
0.848449
0.81757
0.786399
0.754901
0.723031
0.690736
0.657952
0.624594
0.590557
0.555699
0.519826
0.482654
0.443755
0.402412
0.357205
0.304905
0.235683
0.106472
0.233427
0.529917
0.697779
0.829625
0.946751
1.05595
1.15998
1.26011
1.35697
1.45092
1.54216
1.6308
1.71696
1.80069
1.88207
1.96113
2.03793
2.1125
2.18488
2.25507
2.32312
2.38901
2.45278
2.51442
2.57393
2.63131
2.68657
2.73971
2.79071
2.83959
2.88635
2.93098
2.9735
3.01392
3.05225
3.0885
3.12269
3.15486
3.18502
3.2132
3.23945
3.26379
3.28628
3.30694
3.32583
3.343
3.35849
3.37236
3.38466
3.39545
3.40477
3.41269
3.41926
3.42453
3.42856
3.43141
3.43313
3.43377
3.43339
3.43203
3.42975
3.42659
3.42259
3.41781
3.41229
3.40607
3.39918
3.39167
3.38357
3.37491
3.36573
3.35606
3.34592
3.33535
3.32437
3.313
3.30126
3.28918
3.27678
3.26407
3.25107
3.23779
3.22426
3.21048
3.19646
3.18222
3.16777
3.15311
3.13825
3.12321
3.10798
3.09257
3.07699
3.06124
3.04533
3.02925
3.01301
2.99662
2.98007
2.96336
2.94649
2.92947
2.9123
2.89497
2.87748
2.85984
2.84203
2.82406
2.80593
2.78764
2.76917
2.75054
2.73173
2.71275
2.69359
2.67424
2.65472
2.635
2.6151
2.59501
2.57471
2.55422
2.53353
2.51264
2.49154
2.47023
2.44871
2.42697
2.40502
2.38285
2.36046
2.33785
2.31502
2.29196
2.26868
2.24518
2.22144
2.19749
2.1733
2.14889
2.12425
2.09938
2.0743
2.04898
2.02345
1.99769
1.97172
1.94553
1.91913
1.89251
1.86569
1.83866
1.81142
1.78399
1.75636
1.72853
1.70052
1.67232
1.64394
1.61539
1.58665
1.55775
1.52868
1.49944
1.47005
1.44049
1.41078
1.38092
1.3509
1.32073
1.29042
1.25995
1.22934
1.19857
1.16764
1.13656
1.10531
1.0739
1.0423
1.01052
0.978527
0.94632
0.913875
0.881168
0.848171
0.81485
0.781162
0.747054
0.712462
0.677301
0.641459
0.604785
0.567066
0.527982
0.487032
0.443373
0.395348
0.339217
0.263735
0.119852
0.233428
0.529918
0.697779
0.829625
0.946751
1.05595
1.15998
1.26011
1.35697
1.45092
1.54216
1.6308
1.71696
1.80069
1.88207
1.96113
2.03793
2.1125
2.18488
2.25507
2.32311
2.38901
2.45278
2.51442
2.57393
2.63131
2.68657
2.73971
2.79071
2.83959
2.88635
2.93098
2.9735
3.01392
3.05225
3.0885
3.12269
3.15486
3.18502
3.2132
3.23945
3.26379
3.28627
3.30694
3.32583
3.343
3.35849
3.37236
3.38466
3.39545
3.40477
3.41269
3.41926
3.42453
3.42856
3.43141
3.43313
3.43377
3.43339
3.43203
3.42975
3.42658
3.42259
3.41781
3.41229
3.40607
3.39918
3.39167
3.38357
3.37491
3.36573
3.35606
3.34592
3.33535
3.32437
3.31299
3.30126
3.28918
3.27678
3.26407
3.25107
3.23779
3.22426
3.21048
3.19646
3.18222
3.16777
3.15311
3.13825
3.12321
3.10798
3.09257
3.07699
3.06124
3.04533
3.02925
3.01301
2.99662
2.98006
2.96336
2.94649
2.92947
2.9123
2.89497
2.87748
2.85984
2.84203
2.82406
2.80593
2.78764
2.76917
2.75054
2.73173
2.71275
2.69359
2.67424
2.65472
2.635
2.6151
2.595
2.57471
2.55422
2.53353
2.51264
2.49154
2.47023
2.44871
2.42697
2.40502
2.38285
2.36046
2.33785
2.31502
2.29196
2.26868
2.24518
2.22144
2.19748
2.1733
2.14889
2.12425
2.09938
2.0743
2.04898
2.02345
1.99769
1.97172
1.94553
1.91913
1.89251
1.86569
1.83866
1.81142
1.78399
1.75636
1.72853
1.70052
1.67232
1.64394
1.61539
1.58665
1.55775
1.52868
1.49944
1.47005
1.44049
1.41078
1.38092
1.3509
1.32073
1.29042
1.25995
1.22933
1.19857
1.16764
1.13656
1.10531
1.0739
1.0423
1.01052
0.978527
0.94632
0.913875
0.881168
0.848171
0.81485
0.781162
0.747054
0.712462
0.677301
0.641459
0.604785
0.567066
0.527982
0.487033
0.443373
0.395348
0.339217
0.263735
0.119852
0.259153
0.585618
0.768801
0.911236
1.03676
1.15312
1.26351
1.36944
1.47167
1.57061
1.66651
1.75953
1.84977
1.93731
2.02224
2.10461
2.18449
2.26192
2.33695
2.40962
2.47997
2.54802
2.6138
2.67733
2.73862
2.79769
2.85454
2.90919
2.96164
3.0119
3.05997
3.10587
3.14961
3.19119
3.23063
3.26795
3.30317
3.33631
3.36741
3.39648
3.42357
3.44871
3.47194
3.49331
3.51285
3.53062
3.54666
3.56103
3.57377
3.58495
3.59462
3.60283
3.60964
3.61511
3.61929
3.62224
3.62401
3.62465
3.62423
3.62279
3.62038
3.61706
3.61286
3.60784
3.60204
3.5955
3.58827
3.58037
3.57186
3.56277
3.55312
3.54296
3.5323
3.52119
3.50964
3.49768
3.48534
3.47264
3.45959
3.44622
3.43255
3.41858
3.40434
3.38984
3.37509
3.3601
3.34489
3.32946
3.31382
3.29798
3.28195
3.26573
3.24933
3.23275
3.21599
3.19907
3.18197
3.16471
3.14729
3.1297
3.11194
3.09403
3.07595
3.05771
3.0393
3.02073
3.00199
2.98308
2.964
2.94475
2.92532
2.90572
2.88593
2.86596
2.84581
2.82546
2.80493
2.7842
2.76327
2.74214
2.72081
2.69927
2.67752
2.65556
2.63338
2.61099
2.58837
2.56553
2.54247
2.51918
2.49567
2.47192
2.44794
2.42373
2.39928
2.3746
2.34968
2.32452
2.29913
2.27351
2.24764
2.22154
2.19521
2.16864
2.14184
2.11481
2.08755
2.06006
2.03235
2.00441
1.97626
1.94789
1.9193
1.8905
1.8615
1.83229
1.80288
1.77328
1.74348
1.71349
1.68331
1.65295
1.62241
1.5917
1.56081
1.52976
1.49853
1.46714
1.43559
1.40387
1.372
1.33996
1.30776
1.2754
1.24288
1.21019
1.17732
1.14427
1.11104
1.07762
1.04398
1.01013
0.976028
0.941668
0.907018
0.872044
0.836706
0.80095
0.764709
0.727895
0.690388
0.652024
0.612564
0.57165
0.528708
0.482762
0.431943
0.372025
0.290449
0.132525
0.259154
0.585619
0.768801
0.911236
1.03676
1.15312
1.26351
1.36944
1.47166
1.57061
1.66651
1.75953
1.84977
1.93731
2.02224
2.10461
2.18449
2.26192
2.33695
2.40962
2.47997
2.54802
2.6138
2.67733
2.73862
2.79769
2.85454
2.90919
2.96164
3.0119
3.05997
3.10587
3.1496
3.19118
3.23063
3.26795
3.30317
3.33631
3.36741
3.39648
3.42357
3.44871
3.47194
3.49331
3.51285
3.53062
3.54666
3.56103
3.57377
3.58495
3.59462
3.60283
3.60964
3.61511
3.61929
3.62224
3.62401
3.62465
3.62423
3.62279
3.62038
3.61705
3.61286
3.60784
3.60204
3.5955
3.58826
3.58037
3.57186
3.56277
3.55312
3.54296
3.5323
3.52119
3.50964
3.49768
3.48534
3.47264
3.45959
3.44622
3.43254
3.41858
3.40434
3.38984
3.37509
3.3601
3.34489
3.32946
3.31382
3.29798
3.28195
3.26573
3.24933
3.23275
3.21599
3.19906
3.18197
3.16471
3.14728
3.1297
3.11194
3.09403
3.07595
3.05771
3.0393
3.02073
3.00199
2.98308
2.964
2.94475
2.92532
2.90572
2.88593
2.86596
2.84581
2.82546
2.80493
2.7842
2.76327
2.74214
2.72081
2.69927
2.67752
2.65556
2.63338
2.61098
2.58837
2.56553
2.54247
2.51918
2.49567
2.47192
2.44794
2.42373
2.39928
2.3746
2.34968
2.32452
2.29913
2.27351
2.24764
2.22154
2.19521
2.16864
2.14184
2.11481
2.08755
2.06006
2.03235
2.00441
1.97626
1.94789
1.9193
1.8905
1.8615
1.83229
1.80288
1.77328
1.74348
1.71349
1.68331
1.65295
1.62241
1.5917
1.56081
1.52976
1.49853
1.46714
1.43559
1.40387
1.372
1.33996
1.30776
1.2754
1.24288
1.21019
1.17732
1.14427
1.11104
1.07762
1.04398
1.01013
0.976028
0.941668
0.907018
0.872044
0.836706
0.80095
0.764709
0.727895
0.690388
0.652024
0.612564
0.57165
0.528708
0.482763
0.431943
0.372025
0.290449
0.132525
0.284513
0.640367
0.838668
0.991638
1.12552
1.24895
1.36553
1.477
1.58427
1.68783
1.78797
1.88489
1.97871
2.06955
2.15748
2.24261
2.32499
2.40471
2.48182
2.55638
2.62846
2.69809
2.76531
2.83017
2.89269
2.9529
3.01082
3.06646
3.11985
3.17101
3.21993
3.26665
3.31117
3.35351
3.39368
3.43171
3.46761
3.50141
3.53314
3.56283
3.5905
3.6162
3.63996
3.66183
3.68184
3.70005
3.7165
3.73125
3.74433
3.75582
3.76575
3.7742
3.78121
3.78684
3.79114
3.79417
3.796
3.79666
3.79622
3.79472
3.79223
3.78878
3.78444
3.77923
3.77322
3.76644
3.75894
3.75076
3.74192
3.73248
3.72247
3.71191
3.70084
3.68929
3.67729
3.66486
3.65203
3.63881
3.62524
3.61133
3.5971
3.58256
3.56773
3.55264
3.53728
3.52167
3.50582
3.48975
3.47346
3.45696
3.44025
3.42335
3.40626
3.38898
3.37151
3.35387
3.33605
3.31806
3.29989
3.28156
3.26305
3.24437
3.22552
3.20651
3.18732
3.16795
3.14841
3.1287
3.10881
3.08874
3.06849
3.04805
3.02742
3.00661
2.9856
2.96439
2.94299
2.92138
2.89957
2.87755
2.85532
2.83288
2.81022
2.78733
2.76423
2.7409
2.71734
2.69355
2.66953
2.64527
2.62078
2.59604
2.57107
2.54585
2.52039
2.49469
2.46874
2.44255
2.41611
2.38942
2.36249
2.33532
2.3079
2.28023
2.25233
2.22418
2.19579
2.16717
2.13831
2.10921
2.07989
2.05033
2.02056
1.99056
1.96034
1.9299
1.89926
1.8684
1.83734
1.80607
1.77461
1.74295
1.7111
1.67906
1.64684
1.61443
1.58184
1.54908
1.51613
1.48302
1.44973
1.41626
1.38262
1.34881
1.31482
1.28066
1.24631
1.21177
1.17704
1.1421
1.10695
1.07157
1.03595
1.00006
0.963874
0.927365
0.89049
0.853193
0.815403
0.777027
0.737935
0.697945
0.656794
0.614079
0.569157
0.520924
0.4673
0.403611
0.316057
0.144721
0.284514
0.640368
0.838668
0.991637
1.12552
1.24894
1.36553
1.477
1.58427
1.68783
1.78797
1.88489
1.97871
2.06954
2.15748
2.24261
2.32499
2.40471
2.48182
2.55638
2.62846
2.69809
2.76531
2.83017
2.89269
2.9529
3.01082
3.06646
3.11985
3.17101
3.21993
3.26665
3.31117
3.35351
3.39368
3.4317
3.46761
3.50141
3.53314
3.56283
3.5905
3.6162
3.63996
3.66183
3.68184
3.70005
3.7165
3.73125
3.74433
3.75582
3.76575
3.7742
3.78121
3.78683
3.79114
3.79417
3.796
3.79666
3.79622
3.79472
3.79223
3.78878
3.78444
3.77923
3.77322
3.76644
3.75894
3.75075
3.74192
3.73248
3.72246
3.71191
3.70084
3.68929
3.67729
3.66486
3.65202
3.63881
3.62524
3.61133
3.59709
3.58256
3.56773
3.55264
3.53728
3.52167
3.50582
3.48975
3.47346
3.45696
3.44025
3.42335
3.40626
3.38898
3.37151
3.35387
3.33605
3.31806
3.29989
3.28156
3.26305
3.24437
3.22552
3.2065
3.18731
3.16795
3.14841
3.1287
3.10881
3.08874
3.06849
3.04805
3.02742
3.00661
2.9856
2.96439
2.94299
2.92138
2.89957
2.87755
2.85532
2.83288
2.81022
2.78733
2.76423
2.7409
2.71734
2.69355
2.66953
2.64527
2.62078
2.59604
2.57107
2.54585
2.52039
2.49469
2.46874
2.44255
2.41611
2.38942
2.36249
2.33532
2.3079
2.28023
2.25233
2.22418
2.19579
2.16717
2.1383
2.10921
2.07989
2.05033
2.02056
1.99056
1.96034
1.9299
1.89926
1.8684
1.83734
1.80607
1.77461
1.74295
1.7111
1.67906
1.64684
1.61443
1.58184
1.54908
1.51613
1.48302
1.44972
1.41626
1.38262
1.34881
1.31482
1.28066
1.24631
1.21177
1.17704
1.1421
1.10695
1.07157
1.03595
1.00006
0.963874
0.927365
0.89049
0.853193