/*--------------------------------*- C++ -*----------------------------------*\
  =========                 |
  \\      /  F ield         | OpenFOAM: The Open Source CFD Toolbox
   \\    /   O peration     | Website:  https://openfoam.org
    \\  /    A nd           | Version:  8
     \\/     M anipulation  |
\*---------------------------------------------------------------------------*/
FoamFile
{
    version     2.0;
    format      ascii;
    class       volScalarField;
    location    "3800";
    object      nut;
}
// * * * * * * * * * * * * * * * * * * * * * * * * * * * * * * * * * * * * * //

dimensions      [0 2 -1 0 0 0 0];

internalField   nonuniform List<scalar> 
48000
(
5.18362e-05
8.98836e-05
0.00011128
0.000127042
0.000140247
0.000151372
0.000161026
0.000169597
0.00017747
0.000184753
0.000191501
0.00019781
0.000203737
0.000209328
0.000214617
0.000219633
0.000224399
0.000228932
0.000233249
0.000237361
0.00024128
0.000245014
0.000248572
0.000251961
0.000255187
0.000258255
0.000261171
0.00026394
0.000266566
0.000269053
0.000271407
0.00027363
0.000275728
0.000277703
0.000279559
0.000281301
0.000282932
0.000284455
0.000285874
0.000287194
0.000288416
0.000289544
0.000290582
0.000291533
0.000292418
0.000293226
0.000293957
0.000294612
0.000295197
0.000295712
0.000296163
0.000296551
0.00029688
0.000297152
0.000297371
0.000297538
0.000297657
0.000297729
0.000297757
0.000297744
0.000297692
0.000297601
0.000297475
0.000297316
0.000297124
0.000296902
0.000296652
0.000296374
0.000296071
0.000295743
0.000295391
0.000295018
0.000294624
0.00029421
0.000293777
0.000293326
0.000292858
0.000292373
0.000291873
0.000291358
0.000290828
0.000290285
0.000289728
0.000289159
0.000288577
0.000287983
0.000287377
0.00028676
0.000286131
0.000285492
0.000284842
0.000284181
0.00028351
0.000282828
0.000282136
0.000281434
0.000280722
0.000279999
0.000279265
0.000278522
0.000277768
0.000277003
0.000276228
0.000275441
0.000274644
0.000273836
0.000273016
0.000272185
0.000271341
0.000270486
0.000269619
0.000268739
0.000267846
0.00026694
0.000266021
0.000265088
0.000264142
0.000263181
0.000262205
0.000261215
0.000260209
0.000259188
0.000258151
0.000257098
0.000256028
0.000254941
0.000253837
0.000252715
0.000251575
0.000250417
0.00024924
0.000248044
0.000246828
0.000245593
0.000244338
0.000243061
0.000241764
0.000240446
0.000239106
0.000237744
0.00023636
0.000234953
0.000233523
0.000232069
0.000230592
0.00022909
0.000227564
0.000226014
0.000224438
0.000222836
0.000221208
0.000219555
0.000217874
0.000216166
0.000214431
0.000212668
0.000210877
0.000209056
0.000207207
0.000205327
0.000203418
0.000201477
0.000199504
0.0001975
0.000195462
0.000193391
0.000191284
0.000189142
0.000186963
0.000184746
0.000182489
0.000180192
0.000177851
0.000175466
0.000173033
0.000170551
0.000168017
0.000165426
0.000162776
0.000160064
0.000157287
0.000154456
0.000151554
0.00014856
0.00014546
0.000142243
0.000138892
0.000135386
0.0001317
0.000127801
0.000123644
0.000119183
0.00011438
0.000109093
0.000103157
9.63073e-05
8.80631e-05
7.72971e-05
5.91763e-05
7.48807e-05
5.18366e-05
8.9884e-05
0.000111281
0.000127042
0.000140247
0.000151372
0.000161026
0.000169598
0.000177471
0.000184753
0.000191501
0.00019781
0.000203737
0.000209328
0.000214617
0.000219633
0.000224399
0.000228932
0.000233249
0.000237361
0.00024128
0.000245014
0.000248572
0.000251961
0.000255187
0.000258255
0.000261171
0.00026394
0.000266566
0.000269053
0.000271407
0.00027363
0.000275728
0.000277703
0.000279559
0.000281301
0.000282932
0.000284455
0.000285874
0.000287194
0.000288416
0.000289544
0.000290582
0.000291533
0.000292418
0.000293226
0.000293957
0.000294612
0.000295197
0.000295712
0.000296163
0.000296551
0.00029688
0.000297152
0.000297371
0.000297538
0.000297657
0.000297729
0.000297757
0.000297744
0.000297692
0.000297601
0.000297475
0.000297316
0.000297124
0.000296902
0.000296652
0.000296374
0.000296071
0.000295743
0.000295391
0.000295018
0.000294624
0.00029421
0.000293777
0.000293326
0.000292858
0.000292373
0.000291873
0.000291358
0.000290828
0.000290285
0.000289728
0.000289159
0.000288577
0.000287982
0.000287377
0.00028676
0.000286131
0.000285492
0.000284842
0.000284181
0.00028351
0.000282828
0.000282136
0.000281434
0.000280722
0.000279999
0.000279265
0.000278522
0.000277768
0.000277003
0.000276228
0.000275441
0.000274644
0.000273836
0.000273016
0.000272185
0.000271341
0.000270486
0.000269619
0.000268739
0.000267846
0.00026694
0.000266021
0.000265088
0.000264142
0.000263181
0.000262205
0.000261215
0.000260209
0.000259188
0.000258151
0.000257098
0.000256028
0.000254941
0.000253837
0.000252715
0.000251575
0.000250417
0.00024924
0.000248044
0.000246828
0.000245593
0.000244338
0.000243061
0.000241764
0.000240446
0.000239106
0.000237744
0.00023636
0.000234953
0.000233523
0.000232069
0.000230592
0.00022909
0.000227564
0.000226014
0.000224438
0.000222836
0.000221208
0.000219555
0.000217874
0.000216166
0.000214431
0.000212668
0.000210877
0.000209056
0.000207207
0.000205327
0.000203418
0.000201477
0.000199504
0.0001975
0.000195462
0.000193391
0.000191284
0.000189142
0.000186963
0.000184746
0.000182489
0.000180192
0.000177851
0.000175466
0.000173033
0.000170551
0.000168017
0.000165426
0.000162776
0.000160064
0.000157287
0.000154456
0.000151554
0.00014856
0.00014546
0.000142243
0.000138892
0.000135386
0.0001317
0.000127801
0.000123644
0.000119183
0.00011438
0.000109093
0.000103157
9.63074e-05
8.80631e-05
7.72963e-05
5.91749e-05
7.48733e-05
7.8129e-05
0.000579019
0.00091724
0.00115398
0.00133065
0.00147467
0.00159816
0.00170676
0.00180354
0.00189097
0.00197098
0.00204473
0.00211313
0.00217688
0.00223652
0.00229248
0.00234513
0.00239475
0.0024416
0.00248587
0.00252776
0.00256742
0.00260499
0.00264058
0.0026743
0.00270626
0.00273653
0.00276521
0.00279235
0.00281804
0.00284234
0.00286529
0.00288697
0.00290741
0.00292668
0.00294481
0.00296185
0.00297784
0.00299282
0.00300684
0.00301991
0.00303209
0.00304336
0.00305372
0.00306296
0.00307135
0.003079
0.00308598
0.00309232
0.00309806
0.00310324
0.00310786
0.00311196
0.00311557
0.00311869
0.00312136
0.00312359
0.0031254
0.00312681
0.00312783
0.00312849
0.0031288
0.00312877
0.00312842
0.00312776
0.00312681
0.00312557
0.00312406
0.00312229
0.00312028
0.00311802
0.00311554
0.00311284
0.00310992
0.0031068
0.00310349
0.00309998
0.0030963
0.00309244
0.0030884
0.00308421
0.00307985
0.00307533
0.00307067
0.00306585
0.00306089
0.00305579
0.00305054
0.00304516
0.00303965
0.00303399
0.00302821
0.00302229
0.00301625
0.00301007
0.00300376
0.00299733
0.00299076
0.00298406
0.00297723
0.00297026
0.00296317
0.00295593
0.00294857
0.00294106
0.00293342
0.00292563
0.0029177
0.00290962
0.0029014
0.00289303
0.0028845
0.00287582
0.00286698
0.00285798
0.00284882
0.00283949
0.00282999
0.00282032
0.00281047
0.00280044
0.00279023
0.00277983
0.00276924
0.00275846
0.00274748
0.00273631
0.00272493
0.00271334
0.00270154
0.00268952
0.00267729
0.00266483
0.00265215
0.00263924
0.0026261
0.00261272
0.0025991
0.00258524
0.00257112
0.00255676
0.00254214
0.00252726
0.00251212
0.00249671
0.00248103
0.00246508
0.00244885
0.00243233
0.00241553
0.00239843
0.00238104
0.00236335
0.00234536
0.00232705
0.00230843
0.00228949
0.00227023
0.00225063
0.00223069
0.0022104
0.00218976
0.00216875
0.00214738
0.00212562
0.00210347
0.00208091
0.00205793
0.00203452
0.00201067
0.00198634
0.00196152
0.00193618
0.00191031
0.00188386
0.00185681
0.0018291
0.00180069
0.00177152
0.0017415
0.00171052
0.00167839
0.00164504
0.00161046
0.00157453
0.00153708
0.00149789
0.00145669
0.0014131
0.0013666
0.00131643
0.00126125
0.00119927
0.00112928
0.00104835
0.000951531
0.000829806
0.000664695
0.000413918
5.26648e-05
7.81295e-05
0.000579028
0.000917253
0.001154
0.00133066
0.00147468
0.00159818
0.00170677
0.00180355
0.00189099
0.00197099
0.00204474
0.00211314
0.00217689
0.00223653
0.00229249
0.00234514
0.00239476
0.00244161
0.00248588
0.00252777
0.00256743
0.00260499
0.00264058
0.00267431
0.00270626
0.00273654
0.00276521
0.00279236
0.00281805
0.00284234
0.0028653
0.00288697
0.00290742
0.00292668
0.00294481
0.00296185
0.00297784
0.00299283
0.00300684
0.00301992
0.00303209
0.00304337
0.00305373
0.00306296
0.00307136
0.00307901
0.00308599
0.00309233
0.00309807
0.00310324
0.00310787
0.00311197
0.00311557
0.0031187
0.00312136
0.00312359
0.0031254
0.00312681
0.00312784
0.0031285
0.00312881
0.00312878
0.00312843
0.00312777
0.00312681
0.00312557
0.00312407
0.0031223
0.00312028
0.00311803
0.00311554
0.00311284
0.00310993
0.00310681
0.00310349
0.00309999
0.0030963
0.00309244
0.00308841
0.00308421
0.00307985
0.00307534
0.00307067
0.00306586
0.00306089
0.00305579
0.00305055
0.00304517
0.00303965
0.003034
0.00302822
0.0030223
0.00301625
0.00301008
0.00300377
0.00299733
0.00299076
0.00298406
0.00297723
0.00297027
0.00296317
0.00295594
0.00294857
0.00294107
0.00293342
0.00292563
0.0029177
0.00290963
0.00290141
0.00289303
0.00288451
0.00287583
0.00286699
0.00285799
0.00284883
0.0028395
0.00283
0.00282032
0.00281047
0.00280044
0.00279023
0.00277983
0.00276925
0.00275847
0.00274749
0.00273631
0.00272493
0.00271334
0.00270154
0.00268953
0.00267729
0.00266484
0.00265216
0.00263925
0.0026261
0.00261273
0.00259911
0.00258524
0.00257113
0.00255676
0.00254214
0.00252727
0.00251212
0.00249672
0.00248104
0.00246508
0.00244885
0.00243233
0.00241553
0.00239844
0.00238105
0.00236336
0.00234536
0.00232706
0.00230844
0.0022895
0.00227023
0.00225063
0.00223069
0.0022104
0.00218976
0.00216876
0.00214738
0.00212562
0.00210347
0.00208091
0.00205794
0.00203453
0.00201067
0.00198634
0.00196152
0.00193619
0.00191031
0.00188387
0.00185681
0.0018291
0.0018007
0.00177153
0.00174151
0.00171052
0.00167839
0.00164505
0.00161046
0.00157453
0.00153708
0.00149789
0.00145669
0.0014131
0.00136661
0.00131643
0.00126125
0.00119927
0.00112928
0.00104835
0.000951535
0.000829814
0.000664713
0.000413914
5.26646e-05
9.60731e-05
0.000878224
0.00156206
0.00207426
0.002477
0.00281054
0.00309667
0.00334803
0.00357226
0.00377465
0.00395903
0.00412817
0.00428418
0.00442872
0.00456311
0.00468841
0.00480553
0.00491522
0.00501812
0.00511479
0.00520571
0.00529132
0.00537199
0.00544806
0.00551984
0.00558759
0.00565158
0.00571202
0.00576912
0.00582307
0.00587404
0.0059222
0.0059677
0.00601065
0.00605121
0.00608947
0.00612556
0.00615956
0.00619158
0.00622169
0.00624998
0.0062765
0.0063013
0.00632436
0.00634563
0.00636532
0.00638356
0.00640047
0.00641614
0.00643063
0.006444
0.0064563
0.00646759
0.0064779
0.00648727
0.00649575
0.00650338
0.00651017
0.00651618
0.00652142
0.00652593
0.00652974
0.00653287
0.00653535
0.00653721
0.00653846
0.00653912
0.00653923
0.0065388
0.00653785
0.00653639
0.00653445
0.00653203
0.00652916
0.00652585
0.00652212
0.00651796
0.0065134
0.00650845
0.00650312
0.00649741
0.00649134
0.00648491
0.00647814
0.00647101
0.00646356
0.00645576
0.00644764
0.0064392
0.00643043
0.00642135
0.00641195
0.00640224
0.00639222
0.00638188
0.00637123
0.00636027
0.00634899
0.00633741
0.0063255
0.00631328
0.00630075
0.00628789
0.0062747
0.00626119
0.00624734
0.00623316
0.00621864
0.00620378
0.00618857
0.006173
0.00615708
0.00614079
0.00612413
0.0061071
0.00608969
0.00607188
0.00605368
0.00603509
0.00601608
0.00599666
0.00597681
0.00595654
0.00593584
0.00591468
0.00589308
0.00587102
0.00584849
0.00582549
0.005802
0.00577803
0.00575355
0.00572857
0.00570307
0.00567705
0.0056505
0.00562341
0.00559576
0.00556756
0.00553879
0.00550944
0.00547951
0.00544898
0.00541784
0.00538609
0.00535371
0.0053207
0.00528704
0.00525272
0.00521774
0.00518207
0.0051457
0.00510863
0.00507084
0.00503231
0.00499303
0.00495299
0.00491215
0.00487052
0.00482806
0.00478476
0.00474059
0.00469553
0.00464955
0.00460262
0.00455471
0.00450578
0.00445579
0.0044047
0.00435247
0.00429903
0.00424433
0.00418829
0.00413085
0.00407191
0.00401136
0.0039491
0.00388497
0.00381881
0.00375042
0.00367954
0.00360587
0.00352916
0.00344912
0.00336532
0.00327725
0.00318424
0.00308548
0.00297985
0.0028659
0.0027416
0.00260411
0.00244946
0.00227332
0.00206856
0.00182417
0.00152268
0.00113567
0.000622044
6.80817e-05
9.60735e-05
0.000878235
0.00156208
0.00207428
0.00247702
0.00281057
0.0030967
0.00334805
0.00357229
0.00377468
0.00395905
0.00412819
0.0042842
0.00442874
0.00456313
0.00468843
0.00480555
0.00491524
0.00501814
0.00511481
0.00520573
0.00529134
0.00537201
0.00544808
0.00551985
0.00558761
0.00565159
0.00571203
0.00576913
0.00582308
0.00587406
0.00592221
0.00596771
0.00601066
0.00605122
0.00608948
0.00612556
0.00615957
0.00619158
0.0062217
0.00624999
0.00627651
0.0063013
0.00632436
0.00634563
0.00636532
0.00638357
0.00640048
0.00641615
0.00643063
0.006444
0.00645631
0.00646759
0.0064779
0.00648728
0.00649576
0.00650338
0.00651018
0.00651618
0.00652142
0.00652594
0.00652974
0.00653287
0.00653536
0.00653721
0.00653846
0.00653913
0.00653924
0.0065388
0.00653785
0.00653639
0.00653445
0.00653204
0.00652917
0.00652586
0.00652212
0.00651796
0.00651341
0.00650846
0.00650312
0.00649742
0.00649135
0.00648492
0.00647814
0.00647102
0.00646356
0.00645577
0.00644765
0.0064392
0.00643044
0.00642135
0.00641195
0.00640224
0.00639222
0.00638188
0.00637123
0.00636027
0.006349
0.00633741
0.00632551
0.00631329
0.00630075
0.00628789
0.0062747
0.00626119
0.00624734
0.00623317
0.00621865
0.00620378
0.00618857
0.00617301
0.00615708
0.00614079
0.00612414
0.0061071
0.00608969
0.00607188
0.00605368
0.00603509
0.00601608
0.00599666
0.00597682
0.00595654
0.00593584
0.00591468
0.00589308
0.00587102
0.00584849
0.00582549
0.005802
0.00577803
0.00575355
0.00572857
0.00570307
0.00567705
0.0056505
0.00562341
0.00559576
0.00556756
0.00553879
0.00550944
0.00547951
0.00544898
0.00541784
0.00538609
0.00535371
0.0053207
0.00528704
0.00525272
0.00521774
0.00518207
0.0051457
0.00510863
0.00507084
0.00503231
0.00499303
0.00495299
0.00491215
0.00487052
0.00482806
0.00478476
0.00474059
0.00469553
0.00464955
0.00460262
0.00455471
0.00450578
0.00445579
0.0044047
0.00435247
0.00429903
0.00424433
0.00418829
0.00413085
0.00407191
0.00401136
0.0039491
0.00388497
0.00381881
0.00375042
0.00367954
0.00360587
0.00352916
0.00344912
0.00336532
0.00327725
0.00318424
0.00308548
0.00297985
0.0028659
0.0027416
0.00260411
0.00244946
0.00227332
0.00206856
0.00182417
0.00152268
0.00113567
0.000622032
6.80815e-05
0.000108805
0.0010613
0.00199673
0.00273946
0.0033454
0.00385639
0.00429866
0.00468894
0.00503828
0.00535432
0.0056426
0.00590725
0.00615141
0.00637757
0.00658774
0.00678355
0.00696639
0.00713743
0.00729767
0.00744799
0.00758918
0.00772191
0.00784681
0.00796443
0.00807527
0.00817978
0.00827839
0.00837147
0.00845937
0.0085424
0.00862087
0.00869503
0.00876514
0.00883142
0.00889409
0.00895334
0.00900935
0.00906229
0.0091123
0.00915952
0.00920408
0.00924608
0.0092856
0.0093227
0.00935743
0.00938995
0.00942042
0.00944897
0.0094757
0.00950072
0.00952412
0.00954598
0.00956635
0.00958531
0.00960292
0.00961923
0.0096343
0.00964817
0.00966088
0.00967249
0.00968303
0.00969255
0.00970107
0.00970864
0.00971529
0.00972104
0.00972593
0.00972999
0.00973324
0.00973572
0.00973743
0.00973841
0.00973868
0.00973825
0.00973716
0.0097354
0.00973301
0.00972999
0.00972636
0.00972214
0.00971733
0.00971195
0.00970601
0.00969951
0.00969247
0.00968489
0.00967678
0.00966814
0.00965899
0.00964932
0.00963913
0.00962844
0.00961724
0.00960553
0.00959332
0.0095806
0.00956737
0.00955364
0.00953939
0.00952463
0.00950936
0.00949357
0.00947726
0.00946041
0.00944304
0.00942513
0.00940667
0.00938766
0.0093681
0.00934797
0.00932727
0.00930599
0.00928413
0.00926166
0.0092386
0.00921491
0.00919061
0.00916567
0.00914008
0.00911385
0.00908694
0.00905937
0.0090311
0.00900214
0.00897247
0.00894207
0.00891094
0.00887907
0.00884644
0.00881304
0.00877885
0.00874387
0.00870807
0.00867146
0.008634
0.00859569
0.00855652
0.00851646
0.00847551
0.00843364
0.00839085
0.00834712
0.00830242
0.00825674
0.00821008
0.00816239
0.00811368
0.00806391
0.00801307
0.00796114
0.00790809
0.00785391
0.00779856
0.00774202
0.00768427
0.00762527
0.007565
0.00750341
0.00744049
0.00737619
0.00731046
0.00724327
0.00717457
0.00710431
0.00703244
0.00695888
0.00688358
0.00680646
0.00672745
0.00664645
0.00656335
0.00647806
0.00639044
0.00630035
0.00620763
0.00611208
0.00601351
0.00591164
0.0058062
0.00569683
0.00558312
0.00546462
0.00534079
0.00521102
0.00507457
0.00493047
0.00477755
0.00461432
0.00443886
0.00424875
0.00404079
0.00381071
0.00355289
0.0032601
0.00292259
0.00252622
0.00205103
0.00146994
0.000758344
7.76687e-05
0.000108805
0.00106131
0.00199675
0.00273949
0.00334544
0.00385642
0.00429869
0.00468898
0.00503832
0.00535436
0.00564264
0.00590728
0.00615144
0.0063776
0.00658777
0.00678358
0.00696642
0.00713745
0.00729769
0.00744802
0.0075892
0.00772193
0.00784683
0.00796445
0.00807529
0.0081798
0.00827841
0.00837149
0.00845939
0.00854242
0.00862088
0.00869504
0.00876515
0.00883144
0.00889411
0.00895336
0.00900937
0.0090623
0.00911231
0.00915953
0.00920409
0.00924609
0.00928561
0.00932271
0.00935743
0.00938996
0.00942043
0.00944897
0.00947571
0.00950073
0.00952413
0.00954598
0.00956635
0.00958532
0.00960292
0.00961923
0.0096343
0.00964817
0.00966088
0.00967249
0.00968304
0.00969255
0.00970107
0.00970864
0.00971529
0.00972104
0.00972593
0.00972999
0.00973324
0.00973572
0.00973743
0.00973841
0.00973868
0.00973825
0.00973716
0.0097354
0.00973301
0.00972999
0.00972636
0.00972214
0.00971733
0.00971195
0.00970601
0.00969951
0.00969247
0.00968489
0.00967678
0.00966814
0.00965899
0.00964932
0.00963913
0.00962844
0.00961724
0.00960553
0.00959332
0.0095806
0.00956737
0.00955364
0.00953939
0.00952463
0.00950936
0.00949357
0.00947725
0.00946041
0.00944304
0.00942513
0.00940667
0.00938766
0.0093681
0.00934797
0.00932727
0.00930599
0.00928413
0.00926166
0.00923859
0.00921491
0.00919061
0.00916567
0.00914008
0.00911384
0.00908694
0.00905936
0.0090311
0.00900214
0.00897246
0.00894207
0.00891094
0.00887907
0.00884644
0.00881304
0.00877885
0.00874387
0.00870807
0.00867145
0.008634
0.00859569
0.00855651
0.00851646
0.00847551
0.00843364
0.00839085
0.00834711
0.00830242
0.00825674
0.00821007
0.00816239
0.00811368
0.00806391
0.00801307
0.00796114
0.00790809
0.00785391
0.00779856
0.00774202
0.00768426
0.00762527
0.00756499
0.00750341
0.00744049
0.00737618
0.00731046
0.00724327
0.00717457
0.00710431
0.00703243
0.00695888
0.00688358
0.00680646
0.00672745
0.00664644
0.00656335
0.00647806
0.00639044
0.00630035
0.00620762
0.00611208
0.0060135
0.00591164
0.00580619
0.00569682
0.00558312
0.00546461
0.00534078
0.00521102
0.00507456
0.00493047
0.00477755
0.00461432
0.00443886
0.00424875
0.00404079
0.00381071
0.00355289
0.0032601
0.00292259
0.00252622
0.00205103
0.00146994
0.000758338
7.76686e-05
0.000119132
0.00118584
0.00230743
0.00323613
0.00401251
0.00467668
0.00525664
0.00577143
0.00623422
0.00665438
0.00703874
0.00739247
0.00771953
0.00802306
0.00830558
0.0085692
0.00881565
0.00904644
0.00926286
0.00946604
0.00965699
0.0098366
0.0100057
0.010165
0.0103151
0.0104568
0.0105905
0.0107167
0.010836
0.0109487
0.0110553
0.0111562
0.0112516
0.0113419
0.0114275
0.0115085
0.0115851
0.0116578
0.0117266
0.0117917
0.0118534
0.0119117
0.0119668
0.0120189
0.012068
0.0121143
0.012158
0.0121992
0.012238
0.0122747
0.0123092
0.0123417
0.0123723
0.0124011
0.0124281
0.0124534
0.0124772
0.0124993
0.01252
0.0125393
0.0125572
0.0125737
0.012589
0.012603
0.0126158
0.0126275
0.012638
0.0126475
0.0126558
0.0126632
0.0126696
0.012675
0.0126794
0.012683
0.0126856
0.0126874
0.0126883
0.0126884
0.0126877
0.0126862
0.0126839
0.0126808
0.0126769
0.0126723
0.012667
0.0126609
0.0126541
0.0126466
0.0126384
0.0126294
0.0126198
0.0126094
0.0125984
0.0125866
0.0125742
0.012561
0.0125472
0.0125326
0.0125174
0.0125014
0.0124847
0.0124673
0.0124492
0.0124303
0.0124107
0.0123904
0.0123693
0.0123475
0.0123248
0.0123014
0.0122772
0.0122522
0.0122264
0.0121998
0.0121723
0.012144
0.0121148
0.0120847
0.0120538
0.0120219
0.0119891
0.0119554
0.0119208
0.0118852
0.0118486
0.011811
0.0117724
0.0117328
0.0116921
0.0116504
0.0116075
0.0115636
0.0115186
0.0114724
0.0114251
0.0113766
0.0113268
0.0112759
0.0112237
0.0111703
0.0111156
0.0110595
0.0110021
0.0109434
0.0108832
0.0108217
0.0107587
0.0106942
0.0106283
0.0105607
0.0104917
0.010421
0.0103486
0.0102746
0.0101989
0.0101214
0.0100421
0.00996086
0.00987775
0.00979267
0.00970554
0.00961631
0.0095249
0.00943124
0.00933524
0.00923681
0.00913584
0.00903223
0.00892585
0.00881657
0.00870423
0.00858866
0.00846968
0.00834707
0.00822058
0.00808994
0.00795482
0.00781485
0.00766961
0.0075186
0.00736124
0.00719684
0.00702464
0.00684369
0.00665288
0.00645082
0.00623584
0.00600583
0.00575818
0.00548958
0.00519585
0.0048716
0.00451003
0.00410223
0.00363706
0.00309953
0.00247042
0.00172744
0.00086192
8.52333e-05
0.000119133
0.00118585
0.00230745
0.00323616
0.00401255
0.00467672
0.00525668
0.00577147
0.00623426
0.00665442
0.00703879
0.00739251
0.00771957
0.0080231
0.00830562
0.00856923
0.00881569
0.00904648
0.00926289
0.00946607
0.00965702
0.00983663
0.0100057
0.010165
0.0103152
0.0104568
0.0105905
0.0107167
0.010836
0.0109488
0.0110554
0.0111562
0.0112516
0.011342
0.0114275
0.0115085
0.0115852
0.0116578
0.0117266
0.0117917
0.0118534
0.0119117
0.0119668
0.0120189
0.012068
0.0121143
0.012158
0.0121992
0.012238
0.0122747
0.0123092
0.0123417
0.0123723
0.0124011
0.0124281
0.0124534
0.0124772
0.0124994
0.01252
0.0125393
0.0125572
0.0125737
0.012589
0.012603
0.0126158
0.0126275
0.012638
0.0126475
0.0126558
0.0126632
0.0126696
0.012675
0.0126794
0.012683
0.0126856
0.0126874
0.0126883
0.0126884
0.0126877
0.0126862
0.0126839
0.0126808
0.0126769
0.0126723
0.012667
0.0126609
0.0126541
0.0126466
0.0126383
0.0126294
0.0126198
0.0126094
0.0125984
0.0125866
0.0125742
0.012561
0.0125472
0.0125326
0.0125174
0.0125014
0.0124847
0.0124673
0.0124492
0.0124303
0.0124107
0.0123904
0.0123693
0.0123475
0.0123248
0.0123014
0.0122772
0.0122522
0.0122264
0.0121998
0.0121723
0.012144
0.0121148
0.0120847
0.0120538
0.0120219
0.0119891
0.0119554
0.0119208
0.0118852
0.0118486
0.011811
0.0117724
0.0117328
0.0116921
0.0116504
0.0116075
0.0115636
0.0115186
0.0114724
0.0114251
0.0113766
0.0113268
0.0112759
0.0112237
0.0111703
0.0111155
0.0110595
0.0110021
0.0109434
0.0108832
0.0108217
0.0107587
0.0106942
0.0106283
0.0105607
0.0104917
0.010421
0.0103486
0.0102746
0.0101989
0.0101214
0.0100421
0.00996086
0.00987775
0.00979266
0.00970554
0.00961631
0.0095249
0.00943124
0.00933524
0.0092368
0.00913584
0.00903222
0.00892585
0.00881656
0.00870422
0.00858866
0.00846968
0.00834706
0.00822057
0.00808993
0.00795481
0.00781485
0.00766961
0.0075186
0.00736123
0.00719684
0.00702463
0.00684369
0.00665287
0.00645082
0.00623583
0.00600582
0.00575817
0.00548958
0.00519585
0.0048716
0.00451003
0.00410223
0.00363705
0.00309953
0.00247042
0.00172744
0.000861918
8.52333e-05
0.000127897
0.00128464
0.00254821
0.00362542
0.00454223
0.00533562
0.00603382
0.00665707
0.00721986
0.00773272
0.00820344
0.00863795
0.00904083
0.00941569
0.00976549
0.0100926
0.0103991
0.0106867
0.0109569
0.0112111
0.0114503
0.0116756
0.0118881
0.0120885
0.0122776
0.0124562
0.012625
0.0127845
0.0129354
0.0130782
0.0132134
0.0133413
0.0134626
0.0135775
0.0136864
0.0137898
0.0138877
0.0139807
0.0140689
0.0141526
0.014232
0.0143073
0.0143787
0.0144464
0.0145106
0.0145713
0.0146289
0.0146834
0.0147351
0.0147841
0.0148304
0.0148744
0.0149159
0.0149553
0.0149925
0.0150276
0.0150608
0.0150921
0.0151215
0.0151492
0.0151753
0.0151997
0.0152225
0.0152438
0.0152637
0.0152821
0.0152992
0.015315
0.0153294
0.0153426
0.0153546
0.0153653
0.015375
0.0153835
0.0153909
0.0153972
0.0154024
0.0154066
0.0154098
0.015412
0.0154133
0.0154135
0.0154128
0.0154112
0.0154087
0.0154052
0.0154008
0.0153955
0.0153893
0.0153822
0.0153742
0.0153653
0.0153556
0.0153449
0.0153334
0.015321
0.0153077
0.0152935
0.0152784
0.0152624
0.0152454
0.0152276
0.0152089
0.0151892
0.0151685
0.015147
0.0151244
0.0151009
0.0150764
0.015051
0.0150245
0.0149969
0.0149684
0.0149388
0.0149081
0.0148764
0.0148436
0.0148096
0.0147745
0.0147383
0.0147009
0.0146623
0.0146225
0.0145815
0.0145392
0.0144957
0.0144508
0.0144047
0.0143572
0.0143084
0.0142582
0.0142066
0.0141536
0.0140991
0.0140431
0.0139856
0.0139266
0.013866
0.0138039
0.0137401
0.0136746
0.0136075
0.0135386
0.013468
0.0133956
0.0133214
0.0132453
0.0131673
0.0130874
0.0130054
0.0129214
0.0128354
0.0127472
0.0126568
0.0125642
0.0124692
0.0123719
0.0122721
0.0121698
0.012065
0.0119574
0.0118471
0.0117339
0.0116177
0.0114985
0.011376
0.0112502
0.0111209
0.0109879
0.010851
0.0107101
0.0105649
0.0104152
0.0102606
0.0101008
0.0099355
0.00976423
0.0095865
0.00940175
0.00920931
0.00900844
0.00879824
0.00857768
0.00834552
0.00810031
0.00784026
0.00756324
0.00726662
0.00694718
0.00660096
0.00622301
0.0058072
0.00534587
0.00482938
0.00424594
0.00358109
0.00281746
0.00193801
0.000946946
9.16174e-05
0.000127897
0.00128465
0.00254823
0.00362545
0.00454227
0.00533567
0.00603387
0.00665712
0.00721991
0.00773276
0.00820349
0.008638
0.00904088
0.00941574
0.00976553
0.0100927
0.0103992
0.0106868
0.010957
0.0112111
0.0114503
0.0116757
0.0118881
0.0120885
0.0122776
0.0124563
0.012625
0.0127846
0.0129355
0.0130782
0.0132134
0.0133414
0.0134626
0.0135775
0.0136865
0.0137898
0.0138878
0.0139807
0.0140689
0.0141526
0.014232
0.0143073
0.0143787
0.0144464
0.0145106
0.0145713
0.0146289
0.0146834
0.0147351
0.0147841
0.0148304
0.0148744
0.0149159
0.0149553
0.0149925
0.0150276
0.0150608
0.0150921
0.0151215
0.0151492
0.0151753
0.0151997
0.0152225
0.0152438
0.0152637
0.0152821
0.0152992
0.015315
0.0153294
0.0153426
0.0153546
0.0153653
0.015375
0.0153835
0.0153909
0.0153972
0.0154024
0.0154066
0.0154098
0.015412
0.0154133
0.0154135
0.0154128
0.0154112
0.0154087
0.0154052
0.0154008
0.0153955
0.0153893
0.0153822
0.0153742
0.0153653
0.0153556
0.0153449
0.0153334
0.015321
0.0153077
0.0152935
0.0152784
0.0152624
0.0152454
0.0152276
0.0152089
0.0151892
0.0151685
0.015147
0.0151244
0.0151009
0.0150764
0.0150509
0.0150245
0.0149969
0.0149684
0.0149388
0.0149081
0.0148764
0.0148435
0.0148096
0.0147745
0.0147383
0.0147009
0.0146623
0.0146225
0.0145815
0.0145392
0.0144957
0.0144508
0.0144047
0.0143572
0.0143084
0.0142582
0.0142066
0.0141536
0.0140991
0.0140431
0.0139856
0.0139266
0.013866
0.0138039
0.0137401
0.0136746
0.0136075
0.0135386
0.013468
0.0133956
0.0133214
0.0132453
0.0131673
0.0130873
0.0130054
0.0129214
0.0128354
0.0127472
0.0126568
0.0125641
0.0124692
0.0123719
0.0122721
0.0121698
0.012065
0.0119574
0.0118471
0.0117339
0.0116177
0.0114985
0.011376
0.0112502
0.0111209
0.0109879
0.010851
0.0107101
0.0105649
0.0104152
0.0102606
0.0101008
0.00993549
0.00976422
0.0095865
0.00940174
0.00920931
0.00900843
0.00879824
0.00857767
0.00834552
0.0081003
0.00784025
0.00756323
0.00726661
0.00694718
0.00660095
0.00622301
0.0058072
0.00534587
0.00482938
0.00424594
0.00358109
0.00281746
0.00193801
0.000946944
9.16174e-05
0.000135659
0.00136922
0.00274685
0.0039443
0.00497701
0.0058789
0.00667782
0.00739457
0.00804447
0.00863882
0.00918613
0.00969287
0.0101641
0.0106037
0.0110151
0.0114008
0.0117631
0.0121039
0.0124247
0.0127272
0.0130125
0.0132818
0.0135361
0.0137765
0.0140037
0.0142186
0.014422
0.0146146
0.0147969
0.0149697
0.0151335
0.0152888
0.0154361
0.0155759
0.0157086
0.0158346
0.0159543
0.016068
0.0161761
0.0162788
0.0163765
0.0164693
0.0165575
0.0166413
0.016721
0.0167967
0.0168686
0.016937
0.017002
0.0170638
0.0171225
0.0171783
0.0172314
0.0172818
0.0173297
0.0173751
0.0174183
0.0174592
0.017498
0.0175347
0.0175694
0.0176022
0.0176332
0.0176624
0.0176899
0.0177157
0.0177399
0.0177625
0.0177836
0.0178032
0.0178214
0.0178382
0.0178536
0.0178677
0.0178805
0.017892
0.0179022
0.0179113
0.0179191
0.0179257
0.0179312
0.0179355
0.0179387
0.0179408
0.0179417
0.0179416
0.0179404
0.017938
0.0179346
0.0179302
0.0179246
0.017918
0.0179104
0.0179016
0.0178918
0.0178809
0.017869
0.0178559
0.0178418
0.0178266
0.0178103
0.0177929
0.0177744
0.0177547
0.0177339
0.017712
0.0176889
0.0176646
0.0176391
0.0176125
0.0175846
0.0175554
0.0175251
0.0174934
0.0174605
0.0174262
0.0173907
0.0173537
0.0173155
0.0172758
0.0172347
0.0171921
0.0171482
0.0171027
0.0170557
0.0170072
0.0169571
0.0169054
0.0168521
0.0167971
0.0167405
0.0166822
0.0166221
0.0165603
0.0164967
0.0164312
0.0163638
0.0162946
0.0162234
0.0161502
0.016075
0.0159978
0.0159184
0.0158369
0.0157532
0.0156672
0.015579
0.0154884
0.0153955
0.0153001
0.0152021
0.0151016
0.0149985
0.0148927
0.0147841
0.0146726
0.0145582
0.0144407
0.0143202
0.0141964
0.0140693
0.0139388
0.0138047
0.0136668
0.0135252
0.0133795
0.0132297
0.0130755
0.0129167
0.012753
0.0125843
0.0124103
0.0122305
0.0120447
0.0118524
0.0116532
0.0114465
0.0112318
0.0110083
0.0107751
0.0105315
0.0102763
0.0100082
0.00972572
0.00942709
0.00911018
0.00877246
0.00841086
0.00802168
0.00760044
0.00714167
0.00663871
0.00608345
0.00546605
0.00477469
0.00399572
0.00311396
0.00211721
0.00101987
9.72037e-05
0.000135659
0.00136923
0.00274687
0.00394433
0.00497705
0.00587894
0.00667787
0.00739462
0.00804452
0.00863888
0.00918618
0.00969292
0.0101641
0.0106038
0.0110152
0.0114009
0.0117631
0.0121039
0.0124248
0.0127272
0.0130125
0.0132818
0.0135362
0.0137765
0.0140037
0.0142187
0.0144221
0.0146146
0.014797
0.0149698
0.0151335
0.0152888
0.0154361
0.0155759
0.0157086
0.0158346
0.0159543
0.0160681
0.0161761
0.0162788
0.0163765
0.0164693
0.0165575
0.0166413
0.016721
0.0167967
0.0168686
0.016937
0.017002
0.0170638
0.0171225
0.0171783
0.0172314
0.0172818
0.0173297
0.0173751
0.0174183
0.0174592
0.017498
0.0175347
0.0175694
0.0176022
0.0176332
0.0176624
0.0176899
0.0177157
0.0177399
0.0177625
0.0177836
0.0178032
0.0178214
0.0178382
0.0178536
0.0178677
0.0178805
0.017892
0.0179022
0.0179113
0.0179191
0.0179257
0.0179312
0.0179355
0.0179387
0.0179408
0.0179417
0.0179416
0.0179404
0.017938
0.0179346
0.0179302
0.0179246
0.017918
0.0179104
0.0179016
0.0178918
0.0178809
0.017869
0.0178559
0.0178418
0.0178266
0.0178103
0.0177929
0.0177744
0.0177547
0.0177339
0.017712
0.0176889
0.0176646
0.0176391
0.0176125
0.0175846
0.0175554
0.0175251
0.0174934
0.0174605
0.0174262
0.0173907
0.0173537
0.0173155
0.0172758
0.0172347
0.0171921
0.0171481
0.0171027
0.0170557
0.0170072
0.0169571
0.0169054