/*--------------------------------*- C++ -*----------------------------------*\
  =========                 |
  \\      /  F ield         | OpenFOAM: The Open Source CFD Toolbox
   \\    /   O peration     | Website:  https://openfoam.org
    \\  /    A nd           | Version:  8
     \\/     M anipulation  |
\*---------------------------------------------------------------------------*/
FoamFile
{
    version     2.0;
    format      ascii;
    class       surfaceScalarField;
    location    "3800";
    object      phi;
}
// * * * * * * * * * * * * * * * * * * * * * * * * * * * * * * * * * * * * * //

dimensions      [1 0 -1 0 0 0 0];

internalField   nonuniform List<scalar> 
119360
(
-3.54629e-07
2.53641e-12
3.54627e-07
-6.32819e-07
3.41558e-13
2.78138e-07
-7.70113e-07
3.03811e-13
1.37279e-07
-7.77018e-07
1.23123e-13
6.89272e-09
-6.86223e-07
3.49652e-15
-9.08062e-08
-5.27811e-07
-8.546e-14
-1.58422e-07
-3.24042e-07
-1.45967e-13
-2.03779e-07
-9.0877e-08
-1.86213e-13
-2.33175e-07
1.5998e-07
-2.1802e-13
-2.50867e-07
4.19859e-07
-2.31232e-13
-2.59889e-07
6.82874e-07
-2.21157e-13
-2.63024e-07
9.4497e-07
-2.04031e-13
-2.62105e-07
1.20321e-06
-1.8277e-13
-2.58246e-07
1.45545e-06
-1.59678e-13
-2.52249e-07
1.70012e-06
-1.36058e-13
-2.4468e-07
1.93607e-06
-1.12993e-13
-2.35957e-07
2.16246e-06
-9.11491e-14
-2.26394e-07
2.37868e-06
-7.10818e-14
-2.16232e-07
2.58434e-06
-5.27076e-14
-2.05662e-07
2.77916e-06
-3.62762e-14
-1.94832e-07
2.96302e-06
-2.1649e-14
-1.83866e-07
3.13587e-06
-8.64547e-15
-1.72862e-07
3.29777e-06
2.70659e-15
-1.61902e-07
3.44882e-06
1.26292e-14
-1.51055e-07
3.58919e-06
2.12474e-14
-1.40376e-07
3.71909e-06
2.86026e-14
-1.29915e-07
3.8388e-06
3.47783e-14
-1.19709e-07
3.94858e-06
3.99547e-14
-1.09791e-07
4.04876e-06
4.42152e-14
-1.00189e-07
4.13968e-06
4.75737e-14
-9.09238e-08
4.22169e-06
5.01966e-14
-8.2013e-08
4.29515e-06
5.21118e-14
-7.34696e-08
4.36045e-06
5.33747e-14
-6.53029e-08
4.41796e-06
5.41519e-14
-5.75193e-08
4.46808e-06
5.45127e-14
-5.0122e-08
4.51118e-06
5.44572e-14
-4.31116e-08
4.54766e-06
5.40826e-14
-3.64865e-08
4.5779e-06
5.3361e-14
-3.02428e-08
4.60227e-06
5.25144e-14
-2.43749e-08
4.62114e-06
5.14181e-14
-1.88754e-08
4.63487e-06
5.02385e-14
-1.3736e-08
4.64381e-06
4.89341e-14
-8.94671e-09
4.6483e-06
4.76573e-14
-4.49696e-09
4.64867e-06
4.62696e-14
-3.73307e-10
4.64523e-06
4.48818e-14
3.43667e-09
4.63828e-06
4.36745e-14
6.94515e-09
4.62811e-06
4.23839e-14
1.01665e-08
4.61499e-06
4.12737e-14
1.31148e-08
4.59918e-06
4.02051e-14
1.5804e-08
4.58093e-06
3.93031e-14
1.8248e-08
4.56046e-06
3.8401e-14
2.04606e-08
4.538e-06
3.77488e-14
2.24554e-08
4.51375e-06
3.7277e-14
2.4246e-08
4.4879e-06
3.69439e-14
2.58456e-08
4.46063e-06
3.67219e-14
2.72671e-08
4.4321e-06
3.65415e-14
2.8523e-08
4.40247e-06
3.66387e-14
2.96254e-08
4.37188e-06
3.67636e-14
3.05858e-08
4.34046e-06
3.70273e-14
3.14155e-08
4.30833e-06
3.74436e-14
3.2125e-08
4.27561e-06
3.79571e-14
3.27243e-08
4.24238e-06
3.854e-14
3.3223e-08
4.20875e-06
3.91923e-14
3.363e-08
4.17479e-06
3.99556e-14
3.39538e-08
4.14058e-06
4.07883e-14
3.42023e-08
4.10619e-06
4.17597e-14
3.43829e-08
4.07169e-06
4.27589e-14
3.45023e-08
4.03712e-06
4.38136e-14
3.45671e-08
4.00253e-06
4.48961e-14
3.45832e-08
3.96797e-06
4.60063e-14
3.4556e-08
3.93347e-06
4.71166e-14
3.44906e-08
3.89908e-06
4.82823e-14
3.43915e-08
3.86481e-06
4.94619e-14
3.42632e-08
3.8307e-06
5.06415e-14
3.41094e-08
3.79676e-06
5.17934e-14
3.39337e-08
3.76302e-06
5.29313e-14
3.37395e-08
3.72948e-06
5.40971e-14
3.35296e-08
3.69617e-06
5.52628e-14
3.33068e-08
3.66309e-06
5.63036e-14
3.30734e-08
3.63026e-06
5.73444e-14
3.28318e-08
3.59767e-06
5.8413e-14
3.2584e-08
3.56533e-06
5.93845e-14
3.23318e-08
3.53325e-06
6.03143e-14
3.20768e-08
3.50143e-06
6.13134e-14
3.18206e-08
3.46986e-06
6.22016e-14
3.15645e-08
3.43855e-06
6.31037e-14
3.13097e-08
3.40748e-06
6.3853e-14
3.10575e-08
3.37667e-06
6.46579e-14
3.08088e-08
3.3461e-06
6.53657e-14
3.05646e-08
3.31577e-06
6.60041e-14
3.03257e-08
3.28568e-06
6.66702e-14
3.0093e-08
3.2558e-06
6.72808e-14
2.9867e-08
3.22615e-06
6.78497e-14
2.96486e-08
3.19671e-06
6.84048e-14
2.94382e-08
3.16747e-06
6.88212e-14
2.92366e-08
3.13842e-06
6.91403e-14
2.90442e-08
3.10955e-06
6.94595e-14
2.88615e-08
3.08086e-06
6.98203e-14
2.8689e-08
3.05233e-06
7.00978e-14
2.85272e-08
3.02395e-06
7.03754e-14
2.83764e-08
2.9957e-06
7.05141e-14
2.82371e-08
2.96759e-06
7.07361e-14
2.81097e-08
2.93959e-06
7.08333e-14
2.79944e-08
2.91169e-06
7.0861e-14
2.78918e-08
2.88389e-06
7.0861e-14
2.78021e-08
2.85616e-06
7.08887e-14
2.77257e-08
2.82849e-06
7.08193e-14
2.76629e-08
2.80087e-06
7.08054e-14
2.7614e-08
2.77329e-06
7.06944e-14
2.75792e-08
2.74572e-06
7.05833e-14
2.7559e-08
2.71816e-06
7.0389e-14
2.75536e-08
2.6906e-06
7.02502e-14
2.75633e-08
2.663e-06
7.00281e-14
2.75883e-08
2.63537e-06
6.97922e-14
2.7629e-08
2.60768e-06
6.95424e-14
2.76855e-08
2.57992e-06
6.93342e-14
2.77581e-08
2.55206e-06
6.90705e-14
2.78471e-08
2.52411e-06
6.87652e-14
2.79527e-08
2.49603e-06
6.85292e-14
2.8075e-08
2.46781e-06
6.83488e-14
2.82144e-08
2.43943e-06
6.81406e-14
2.8371e-08
2.41088e-06
6.78214e-14
2.85449e-08
2.38214e-06
6.76687e-14
2.87364e-08
2.35319e-06
6.74328e-14
2.89455e-08
2.32401e-06
6.72662e-14
2.91725e-08
2.29459e-06
6.70997e-14
2.94173e-08
2.2649e-06
6.69748e-14
2.96802e-08
2.23494e-06
6.68637e-14
2.9961e-08
2.20467e-06
6.68915e-14
3.026e-08
2.17409e-06
6.68359e-14
3.05771e-08
2.14317e-06
6.68914e-14
3.09122e-08
2.1119e-06
6.69747e-14
3.12654e-08
2.08026e-06
6.71412e-14
3.16366e-08
2.04823e-06
6.74465e-14
3.20255e-08
2.01579e-06
6.77795e-14
3.24322e-08
1.98293e-06
6.81681e-14
3.28563e-08
1.94963e-06
6.86954e-14
3.32976e-08
1.91587e-06
6.93616e-14
3.37559e-08
1.88163e-06
6.99444e-14
3.42308e-08
1.8469e-06
7.07493e-14
3.4722e-08
1.81167e-06
7.16097e-14
3.52289e-08
1.77591e-06
7.26089e-14
3.57511e-08
1.73962e-06
7.36914e-14
3.62881e-08
1.70278e-06
7.49404e-14
3.68391e-08
1.66537e-06
7.63281e-14
3.74035e-08
1.62738e-06
7.78547e-14
3.79805e-08
1.58881e-06
7.952e-14
3.85693e-08
1.54963e-06
8.14074e-14
3.91689e-08
1.50985e-06
8.35168e-14
3.97782e-08
1.46945e-06
8.56817e-14
4.03962e-08
1.42842e-06
8.81519e-14
4.10216e-08
1.38676e-06
9.0761e-14
4.16529e-08
1.34446e-06
9.35643e-14
4.22889e-08
1.30153e-06
9.64786e-14
4.29277e-08
1.25796e-06
9.9615e-14
4.35677e-08
1.21374e-06
1.02918e-13
4.4207e-08
1.16889e-06
1.06249e-13
4.48435e-08
1.12341e-06
1.09829e-13
4.54748e-08
1.07731e-06
1.13465e-13
4.60985e-08
1.03059e-06
1.17156e-13
4.67119e-08
9.83269e-07
1.20792e-13
4.7312e-08
9.35367e-07
1.24623e-13
4.78956e-08
8.86901e-07
1.28397e-13
4.8459e-08
8.37895e-07
1.31978e-13
4.89983e-08
7.88378e-07
1.35669e-13
4.95092e-08
7.38384e-07
1.39167e-13
4.9987e-08
6.8795e-07
1.42775e-13
5.04262e-08
6.37121e-07
1.46105e-13
5.08209e-08
5.85948e-07
1.49214e-13
5.11647e-08
5.34489e-07
1.52517e-13
5.14501e-08
4.82812e-07
1.55875e-13
5.16688e-08
4.30992e-07
1.59345e-13
5.18117e-08
3.79114e-07
1.6373e-13
5.18682e-08
3.27279e-07
1.69503e-13
5.18264e-08
2.75597e-07
1.77358e-13
5.16729e-08
2.24195e-07
1.88544e-13
5.13923e-08
1.73218e-07
2.04059e-13
5.09667e-08
1.22832e-07
2.25292e-13
5.03757e-08
7.32273e-08
2.53603e-13
4.95941e-08
2.46232e-08
2.89879e-13
4.8593e-08
-2.2716e-08
3.32068e-13
4.73276e-08
-6.8474e-08
3.77365e-13
4.57458e-08
-1.12299e-07
4.24272e-13
4.38123e-08
-1.53806e-07
4.66793e-13
4.14931e-08
-1.92551e-07
4.92773e-13
3.87303e-08
-2.28005e-07
4.87055e-13
3.54395e-08
-2.59553e-07
4.33986e-13
3.15309e-08
-2.86468e-07
3.22964e-13
2.68981e-08
-3.07895e-07
1.57485e-13
2.14096e-08
-3.22826e-07
-3.24184e-14
1.49131e-08
-3.30071e-07
-1.85185e-13
7.22801e-09
-3.28251e-07
-2.19658e-13
-1.83659e-09
-3.15833e-07
-7.09987e-14
-1.24322e-08
-2.91175e-07
2.40752e-13
-2.46726e-08
-2.52674e-07
5.51836e-13
-3.85159e-08
-1.99295e-07
6.10401e-13
-5.33976e-08
-1.31863e-07
3.4206e-13
-6.7455e-08
-5.61379e-08
1.28675e-13
-7.57524e-08
3.90309e-09
5.03153e-13
-6.00683e-08
1.32361e-12
3.86534e-09
-3.54642e-07
3.54615e-07
-6.32819e-07
2.78133e-07
-7.70111e-07
1.37276e-07
-7.77015e-07
6.89018e-09
-6.86219e-07
-9.08085e-08
-5.27807e-07
-1.58425e-07
-3.24038e-07
-2.03781e-07
-9.08735e-08
-2.33177e-07
1.59983e-07
-2.50869e-07
4.19862e-07
-2.59891e-07
6.82877e-07
-2.63026e-07
9.44973e-07
-2.62106e-07
1.20321e-06
-2.58248e-07
1.45545e-06
-2.5225e-07
1.70012e-06
-2.44682e-07
1.93607e-06
-2.35959e-07
2.16246e-06
-2.26395e-07
2.37868e-06
-2.16234e-07
2.58434e-06
-2.05663e-07
2.77916e-06
-1.94833e-07
2.96302e-06
-1.83867e-07
3.13587e-06
-1.72863e-07
3.29777e-06
-1.61903e-07
3.44882e-06
-1.51056e-07
3.58919e-06
-1.40377e-07
3.71909e-06
-1.29916e-07
3.83879e-06
-1.19709e-07
3.94858e-06
-1.09792e-07
4.04876e-06
-1.0019e-07
4.13968e-06
-9.09247e-08
4.22168e-06
-8.20139e-08
4.29515e-06
-7.34704e-08
4.36044e-06
-6.53037e-08
4.41796e-06
-5.75201e-08
4.46807e-06
-5.01228e-08
4.51118e-06
-4.31124e-08
4.54766e-06
-3.64873e-08
4.5779e-06
-3.02436e-08
4.60227e-06
-2.43756e-08
4.62114e-06
-1.88762e-08
4.63487e-06
-1.37367e-08
4.64381e-06
-8.94743e-09
4.6483e-06
-4.49767e-09
4.64867e-06
-3.74014e-10
4.64523e-06
3.43597e-09
4.63828e-06
6.94446e-09
4.62811e-06
1.01658e-08
4.61499e-06
1.31141e-08
4.59918e-06
1.58033e-08
4.58093e-06
1.82473e-08
4.56046e-06
2.04599e-08
4.538e-06
2.24547e-08
4.51375e-06
2.42453e-08
4.4879e-06
2.58449e-08
4.46063e-06
2.72664e-08
4.4321e-06
2.85223e-08
4.40247e-06
2.96247e-08
4.37188e-06
3.05852e-08
4.34046e-06
3.14149e-08
4.30833e-06
3.21244e-08
4.27561e-06
3.27237e-08
4.24238e-06
3.32224e-08
4.20874e-06
3.36294e-08
4.17479e-06
3.39532e-08
4.14058e-06
3.42017e-08
4.10619e-06
3.43822e-08
4.07169e-06
3.45017e-08
4.03712e-06
3.45665e-08
4.00253e-06
3.45826e-08
3.96797e-06
3.45554e-08
3.93347e-06
3.449e-08
3.89908e-06
3.43909e-08
3.86481e-06
3.42626e-08
3.8307e-06
3.41088e-08
3.79676e-06
3.39331e-08
3.76302e-06
3.37389e-08
3.72948e-06
3.3529e-08
3.69617e-06
3.33061e-08
3.66309e-06
3.30728e-08
3.63026e-06
3.28312e-08
3.59767e-06
3.25834e-08
3.56533e-06
3.23312e-08
3.53325e-06
3.20762e-08
3.50143e-06
3.18199e-08
3.46986e-06
3.15638e-08
3.43855e-06
3.13091e-08
3.40748e-06
3.10569e-08
3.37667e-06
3.08082e-08
3.3461e-06
3.0564e-08
3.31577e-06
3.03251e-08
3.28567e-06
3.00923e-08
3.2558e-06
2.98664e-08
3.22615e-06
2.96479e-08
3.19671e-06
2.94376e-08
3.16747e-06
2.9236e-08
3.13842e-06
2.90435e-08
3.10955e-06
2.88608e-08
3.08086e-06
2.86884e-08
3.05233e-06
2.85265e-08
3.02395e-06
2.83757e-08
2.9957e-06
2.82364e-08
2.96759e-06
2.8109e-08
2.93959e-06
2.79938e-08
2.91169e-06
2.78912e-08
2.88389e-06
2.78015e-08
2.85616e-06
2.7725e-08
2.82849e-06
2.76622e-08
2.80087e-06
2.76133e-08
2.77329e-06
2.75786e-08
2.74572e-06
2.75584e-08
2.71816e-06
2.75529e-08
2.6906e-06
2.75626e-08
2.663e-06
2.75876e-08
2.63537e-06
2.76283e-08
2.60768e-06
2.76848e-08
2.57992e-06
2.77574e-08
2.55206e-06
2.78464e-08
2.52411e-06
2.7952e-08
2.49603e-06
2.80743e-08
2.46781e-06
2.82137e-08
2.43943e-06
2.83703e-08
2.41088e-06
2.85442e-08
2.38214e-06
2.87357e-08
2.35319e-06
2.89448e-08
2.32401e-06
2.91717e-08
2.29459e-06
2.94166e-08
2.2649e-06
2.96794e-08
2.23494e-06
2.99603e-08
2.20467e-06
3.02593e-08
2.17409e-06
3.05764e-08
2.14317e-06
3.09115e-08
2.1119e-06
3.12647e-08
2.08026e-06
3.16358e-08
2.04823e-06
3.20248e-08
2.01579e-06
3.24314e-08
1.98293e-06
3.28555e-08
1.94963e-06
3.32969e-08
1.91587e-06
3.37552e-08
1.88163e-06
3.42301e-08
1.8469e-06
3.47212e-08
1.81167e-06
3.52281e-08
1.77591e-06
3.57503e-08
1.73962e-06
3.62873e-08
1.70278e-06
3.68383e-08
1.66537e-06
3.74027e-08
1.62738e-06
3.79797e-08
1.58881e-06
3.85685e-08
1.54963e-06
3.91681e-08
1.50985e-06
3.97774e-08
1.46945e-06
4.03954e-08
1.42842e-06
4.10207e-08
1.38676e-06
4.16521e-08
1.34446e-06
4.2288e-08
1.30153e-06
4.29268e-08
1.25796e-06
4.35668e-08
1.21374e-06
4.42061e-08
1.16889e-06
4.48425e-08
1.12341e-06
4.54739e-08
1.07731e-06
4.60976e-08
1.03059e-06
4.67109e-08
9.8327e-07
4.7311e-08
9.35367e-07
4.78945e-08
8.86901e-07
4.84579e-08
8.37895e-07
4.89973e-08
7.88379e-07
4.95082e-08
7.38384e-07
4.99859e-08
6.8795e-07
5.0425e-08
6.37121e-07
5.08198e-08
5.85948e-07
5.11635e-08
5.3449e-07
5.14489e-08
4.82812e-07
5.16676e-08
4.30992e-07
5.18104e-08
3.79115e-07
5.18669e-08
3.27279e-07
5.18251e-08
2.75597e-07
5.16716e-08
2.24195e-07
5.13909e-08
1.73218e-07
5.09653e-08
1.22832e-07
5.03743e-08
7.32278e-08
4.95925e-08
2.46237e-08
4.85914e-08
-2.27155e-08
4.7326e-08
-6.84735e-08
4.57441e-08
-1.12299e-07
4.38105e-08
-1.53805e-07
4.14913e-08
-1.9255e-07
3.87284e-08
-2.28005e-07
3.54375e-08
-2.59553e-07
3.15287e-08
-2.86468e-07
2.68959e-08
-3.07896e-07
2.14073e-08
-3.22827e-07
1.49107e-08
-3.30071e-07
7.22565e-09
-3.2825e-07
-1.83882e-09
-3.15833e-07
-1.24342e-08
-2.91174e-07
-2.46745e-08
-2.52675e-07
-3.85181e-08
-1.99297e-07
-5.34009e-08
-1.31866e-07
-6.74599e-08
-5.61408e-08
-7.57578e-08
3.89904e-09
-6.00746e-08
3.8556e-09
-2.52003e-07
2.63839e-13
6.06581e-07
-3.13765e-07
2.76709e-14
3.39873e-07
-2.93491e-07
3.94122e-14
1.16993e-07
-2.19386e-07
3.06652e-15
-6.72233e-08
-1.01441e-07
-1.06238e-14
-2.08761e-07
5.20542e-08
-2.217e-14
-3.11927e-07
2.32683e-07
-3.13293e-14
-3.84418e-07
4.3284e-07
-3.79628e-14
-4.33341e-07
6.46316e-07
-4.25563e-14
-4.64352e-07
8.68114e-07
-4.43604e-14
-4.81696e-07
1.09411e-06
-4.39649e-14
-4.8903e-07
1.32101e-06
-4.27158e-14
-4.89008e-07
1.54623e-06
-4.07521e-14
-4.83477e-07
1.76778e-06
-3.83859e-14
-4.73807e-07
1.9841e-06
-3.58254e-14
-4.61009e-07
2.19399e-06
-3.31956e-14
-4.45852e-07
2.39652e-06
-3.06316e-14
-4.28929e-07
2.59098e-06
-2.81995e-14
-4.10704e-07
2.77686e-06
-2.58992e-14
-3.91548e-07
2.95378e-06
-2.37655e-14
-3.71759e-07
3.12149e-06
-2.18191e-14
-3.5158e-07
3.27984e-06
-2.00254e-14
-3.31214e-07
3.42875e-06
-1.83913e-14
-3.10828e-07
3.56825e-06
-1.69167e-14
-2.90561e-07
3.6984e-06
-1.55879e-14
-2.70532e-07
3.81932e-06
-1.44048e-14
-2.50841e-07
3.93118e-06
-1.33535e-14
-2.31569e-07
4.03417e-06
-1.24515e-14
-2.12788e-07
4.12853e-06
-1.16604e-14
-1.94554e-07
4.21451e-06
-1.09596e-14
-1.76916e-07
4.29241e-06
-1.03801e-14
-1.59911e-07
4.3625e-06
-9.91869e-15
-1.43571e-07
4.42511e-06
-9.52663e-15
-1.27916e-07
4.48055e-06
-9.21089e-15
-1.12965e-07
4.52915e-06
-8.99923e-15
-9.87254e-08
4.57123e-06
-8.8188e-15
-8.52038e-08
4.60714e-06
-8.69735e-15
-7.23996e-08
4.6372e-06
-8.63836e-15
-6.03086e-08
4.66175e-06
-8.60711e-15
-4.89225e-08
4.68109e-06
-8.62444e-15
-3.823e-08
4.69557e-06
-8.65565e-15
-2.82165e-08
4.70548e-06
-8.71462e-15
-1.88653e-08
4.71114e-06
-8.78746e-15
-1.01571e-08
4.71283e-06
-8.85336e-15
-2.0703e-09
4.71085e-06
-8.93315e-15
5.41722e-09
4.70546e-06
-9.0615e-15
1.23291e-08
4.69693e-06
-9.17598e-15
1.86905e-08
4.68551e-06
-9.27658e-15
2.45269e-08
4.67145e-06
-9.36677e-15
2.9864e-08
4.65497e-06
-9.44309e-15
3.47277e-08
4.63628e-06
-9.52981e-15
3.91439e-08
4.61559e-06
-9.58878e-15
4.31382e-08
4.5931e-06
-9.63734e-15
4.6736e-08
4.56898e-06
-9.66856e-15
4.99622e-08
4.5434e-06
-9.69631e-15
5.28412e-08
4.51652e-06
-9.72058e-15
5.53967e-08
4.48849e-06
-9.74139e-15
5.76516e-08
4.45944e-06
-9.72751e-15
5.9628e-08
4.42951e-06
-9.71362e-15
6.13471e-08
4.3988e-06
-9.6928e-15
6.28291e-08
4.36743e-06
-9.66504e-15
6.40933e-08
4.33549e-06
-9.64075e-15
6.5158e-08
4.30308e-06
-9.61646e-15
6.60405e-08
4.27027e-06
-9.5783e-15
6.6757e-08
4.23714e-06
-9.53319e-15
6.7323e-08
4.20377e-06
-9.48809e-15
6.77526e-08
4.17021e-06
-9.42911e-15
6.80594e-08
4.13652e-06
-9.37707e-15
6.82557e-08
4.10274e-06
-9.33543e-15
6.83531e-08
4.06893e-06
-9.27993e-15
6.83625e-08
4.03513e-06
-9.23829e-15
6.82936e-08
4.00136e-06
-9.17585e-15
6.81556e-08
3.96766e-06
-9.13422e-15
6.7957e-08
3.93406e-06
-9.103e-15
6.77055e-08
3.90058e-06
-9.05096e-15
6.74082e-08
3.86725e-06
-8.99199e-15
6.70715e-08
3.83407e-06
-8.96077e-15
6.67015e-08
3.80107e-06
-8.93996e-15
6.63035e-08
3.76826e-06
-8.90874e-15
6.58825e-08
3.73564e-06
-8.88099e-15
6.54429e-08
3.70324e-06
-8.86712e-15
6.49889e-08
3.67104e-06
-8.85325e-15
6.45242e-08
3.63906e-06
-8.84979e-15
6.40522e-08
3.6073e-06
-8.83245e-15
6.3576e-08
3.57576e-06
-8.81165e-15
6.30983e-08
3.54445e-06
-8.8186e-15
6.26218e-08
3.51335e-06
-8.79779e-15
6.21488e-08
3.48248e-06
-8.80474e-15
6.16813e-08
3.45181e-06
-8.8221e-15
6.12214e-08
3.42137e-06
-8.83599e-15
6.07708e-08
3.39112e-06
-8.836e-15
6.03312e-08
3.36108e-06
-8.83601e-15
5.99041e-08
3.33124e-06
-8.84296e-15
5.94908e-08
3.30158e-06
-8.85685e-15
5.90927e-08
3.2721e-06
-8.87768e-15
5.8711e-08
3.24279e-06
-8.90198e-15
5.83468e-08
3.21365e-06
-8.9124e-15
5.8001e-08
3.18466e-06
-8.94017e-15
5.76748e-08
3.15581e-06
-8.95406e-15
5.7369e-08
3.1271e-06
-8.96795e-15
5.70846e-08
3.09851e-06
-8.97837e-15
5.68223e-08
3.07003e-06
-8.98879e-15
5.6583e-08
3.04166e-06
-9.01309e-15
5.63674e-08
3.01337e-06
-9.03739e-15
5.61762e-08
2.98515e-06
-9.06168e-15
5.60103e-08
2.95701e-06
-9.07557e-15
5.58701e-08
2.92891e-06
-9.086e-15
5.57565e-08
2.90085e-06
-9.08254e-15
5.567e-08
2.87281e-06
-9.10337e-15
5.56112e-08
2.84479e-06
-9.11032e-15
5.55808e-08
2.81676e-06
-9.12421e-15
5.55793e-08
2.78871e-06
-9.13463e-15
5.56073e-08
2.76063e-06
-9.14852e-15
5.56653e-08
2.7325e-06
-9.14506e-15
5.57538e-08
2.7043e-06
-9.13813e-15
5.58733e-08
2.67603e-06
-9.14161e-15
5.60243e-08
2.64767e-06
-9.13816e-15
5.62072e-08
2.61919e-06
-9.13817e-15
5.64226e-08
2.59059e-06
-9.13124e-15
5.66707e-08
2.56185e-06
-9.1139e-15
5.69519e-08
2.53295e-06
-9.07228e-15
5.72667e-08
2.50388e-06
-9.05841e-15
5.76153e-08
2.47461e-06
-9.0272e-15
5.7998e-08
2.44514e-06
-9.0168e-15
5.84151e-08
2.41544e-06
-8.98211e-15
5.88667e-08
2.3855e-06
-8.95784e-15
5.93531e-08
2.3553e-06
-8.93009e-15
5.98743e-08
2.32482e-06
-8.88847e-15
6.04305e-08
2.29406e-06
-8.84337e-15
6.10216e-08
2.26298e-06
-8.80175e-15
6.16477e-08
2.23158e-06
-8.76359e-15
6.23085e-08
2.19984e-06
-8.72197e-15
6.30041e-08
2.16774e-06
-8.6734e-15
6.3734e-08
2.13526e-06
-8.61443e-15
6.44982e-08
2.10239e-06
-8.55546e-15
6.52961e-08
2.06912e-06
-8.50342e-15
6.61273e-08
2.03542e-06
-8.4271e-15
6.69913e-08
2.00128e-06
-8.36813e-15
6.78874e-08
1.96669e-06
-8.32303e-15
6.88149e-08
1.93164e-06
-8.27794e-15
6.97729e-08
1.8961e-06
-8.20508e-15
7.07605e-08
1.86007e-06
-8.15652e-15
7.17767e-08
1.82353e-06
-8.1253e-15
7.28201e-08
1.78648e-06
-8.07326e-15
7.38895e-08
1.74889e-06
-8.01429e-15
7.49834e-08
1.71077e-06
-7.96572e-15
7.61001e-08
1.67209e-06
-7.90675e-15
7.72379e-08
1.63286e-06
-7.86512e-15
7.83947e-08
1.59307e-06
-7.81308e-15
7.95685e-08
1.5527e-06
-7.77492e-15
8.07569e-08
1.51176e-06
-7.72635e-15
8.19572e-08
1.47024e-06
-7.71942e-15
8.31669e-08
1.42814e-06
-7.69861e-15
8.43827e-08
1.38546e-06
-7.68126e-15
8.56014e-08
1.34221e-06
-7.70209e-15
8.68194e-08
1.29837e-06
-7.73331e-15
8.80329e-08
1.25397e-06
-7.79924e-15
8.92376e-08
1.20901e-06
-7.86169e-15
9.0429e-08
1.1635e-06
-7.96578e-15
9.16019e-08
1.11746e-06
-8.10803e-15
9.27511e-08
1.07089e-06
-8.26416e-15
9.38705e-08
1.02383e-06
-8.43069e-15
9.49538e-08
9.76289e-07
-8.65968e-15
9.59937e-08
9.28298e-07
-8.93724e-15
9.69826e-08
8.79888e-07
-9.20092e-15
9.7912e-08
8.31096e-07
-9.51317e-15
9.87724e-08
7.81961e-07
-9.8393e-15
9.95536e-08
7.32531e-07
-1.01932e-14
1.00244e-07
6.82857e-07
-1.05748e-14
1.00831e-07
6.32999e-07
-1.09634e-14
1.01301e-07
5.83023e-07
-1.13312e-14
1.01637e-07
5.33003e-07
-1.17267e-14
1.01823e-07
4.83025e-07
-1.20251e-14
1.01838e-07
4.33183e-07
-1.21777e-14
1.0166e-07
3.83583e-07
-1.21291e-14
1.01265e-07
3.34344e-07
-1.17753e-14
1.00623e-07
2.856e-07
-1.10189e-14
9.97014e-08
2.37503e-07
-9.82544e-15
9.84632e-08
1.90224e-07
-8.0699e-15
9.68637e-08
1.43955e-07
-5.79394e-15
9.48519e-08
9.89107e-08
-3.09471e-15
9.23609e-08
5.53306e-08
-6.93578e-17
8.93146e-08
1.34833e-08
2.51885e-15
8.56476e-08
-2.63155e-08
3.28213e-15
8.12791e-08
-6.37065e-08
4.57997e-16
7.61078e-08
-9.83005e-08
-8.38215e-15
7.00193e-08
-1.29664e-07
-2.56114e-14
6.28789e-08
-1.57309e-07
-5.23192e-14
5.45283e-08
-1.80697e-07
-8.61672e-14
4.47829e-08
-1.99241e-07
-1.18752e-13
3.3442e-08
-2.12315e-07
-1.34774e-13
2.02886e-08
-2.19281e-07
-1.15893e-13
5.11647e-09
-2.19517e-07
-5.36515e-14
-1.22086e-08
-2.12517e-07
2.89768e-14
-3.16872e-08
-1.98026e-07
6.26721e-14
-5.30231e-08
-1.76211e-07
-3.95933e-14
-7.52318e-08
-1.47772e-07
-2.63817e-13
-9.59159e-08
-1.13617e-07
-3.13582e-13
-1.09935e-07
-6.88192e-08
3.04478e-14
-1.04899e-07
9.39801e-13
-6.49828e-08
-2.52007e-07
6.06578e-07
-3.13764e-07
3.3987e-07
-2.9349e-07
1.16991e-07
-2.19384e-07
-6.72247e-08
-1.01439e-07
-2.08763e-07
5.20559e-08
-3.11928e-07
2.32685e-07
-3.84418e-07
4.32842e-07
-4.33341e-07
6.46317e-07
-4.64352e-07
8.68116e-07
-4.81696e-07
1.09411e-06
-4.89031e-07
1.32101e-06
-4.89009e-07
1.54623e-06
-4.83478e-07
1.76778e-06
-4.73807e-07
1.9841e-06
-4.61009e-07
2.19399e-06
-4.45852e-07
2.39652e-06
-4.28929e-07
2.59098e-06
-4.10704e-07
2.77686e-06
-3.91548e-07
2.95378e-06
-3.71759e-07
3.12149e-06
-3.5158e-07
3.27983e-06
-3.31214e-07
3.42875e-06
-3.10828e-07
3.56825e-06
-2.90561e-07
3.6984e-06
-2.70532e-07
3.81932e-06
-2.50841e-07
3.93118e-06
-2.31569e-07
4.03417e-06
-2.12788e-07
4.12853e-06
-1.94554e-07
4.21451e-06
-1.76916e-07
4.29241e-06
-1.59911e-07
4.3625e-06
-1.43571e-07
4.42511e-06
-1.27916e-07
4.48055e-06
-1.12965e-07
4.52915e-06
-9.87255e-08
4.57123e-06
-8.52039e-08
4.60714e-06
-7.23997e-08
4.6372e-06
-6.03086e-08
4.66174e-06
-4.89226e-08
4.68109e-06
-3.823e-08
4.69557e-06
-2.82166e-08
4.70548e-06
-1.88654e-08
4.71114e-06
-1.01572e-08
4.71283e-06
-2.0704e-09
4.71085e-06
5.41711e-09
4.70546e-06
1.2329e-08
4.69693e-06
1.86904e-08
4.68551e-06
2.45268e-08
4.67145e-06
2.98639e-08
4.65496e-06
3.47276e-08
4.63628e-06
3.91438e-08
4.61559e-06
4.3138e-08
4.5931e-06
4.67358e-08
4.56898e-06
4.9962e-08
4.5434e-06
5.2841e-08
4.51652e-06
5.53965e-08
4.48849e-06
5.76514e-08
4.45944e-06
5.96278e-08
4.42951e-06
6.13469e-08
4.3988e-06
6.28289e-08
4.36743e-06
6.40931e-08
4.33549e-06
6.51578e-08
4.30307e-06
6.60403e-08
4.27027e-06
6.67569e-08
4.23714e-06
6.73228e-08
4.20377e-06
6.77525e-08
4.17021e-06
6.80592e-08
4.13652e-06
6.82555e-08
4.10274e-06
6.8353e-08
4.06893e-06
6.83623e-08
4.03513e-06
6.82934e-08
4.00136e-06
6.81555e-08
3.96766e-06
6.79569e-08
3.93406e-06
6.77054e-08
3.90058e-06
6.7408e-08
3.86725e-06
6.70714e-08
3.83407e-06
6.67014e-08
3.80107e-06
6.63034e-08
3.76826e-06
6.58823e-08
3.73564e-06
6.54428e-08
3.70324e-06
6.49888e-08
3.67104e-06
6.45241e-08
3.63906e-06
6.40521e-08
3.6073e-06
6.35759e-08
3.57576e-06
6.30982e-08
3.54445e-06
6.26217e-08
3.51335e-06
6.21486e-08
3.48247e-06
6.16812e-08
3.45181e-06
6.12213e-08
3.42137e-06
6.07707e-08
3.39112e-06
6.03311e-08
3.36108e-06
5.9904e-08
3.33124e-06
5.94907e-08
3.30158e-06
5.90926e-08
3.2721e-06
5.87109e-08
3.24279e-06
5.83466e-08
3.21365e-06
5.80009e-08
3.18466e-06
5.76747e-08
3.15581e-06
5.73689e-08
3.1271e-06
5.70845e-08
3.09851e-06
5.68222e-08
3.07003e-06
5.65829e-08
3.04166e-06
5.63673e-08
3.01337e-06
5.61761e-08
2.98515e-06
5.60102e-08
2.95701e-06
5.587e-08
2.92891e-06
5.57564e-08
2.90085e-06
5.56699e-08
2.87281e-06
5.56111e-08
2.84479e-06
5.55807e-08
2.81676e-06
5.55792e-08
2.78871e-06
5.56072e-08
2.76063e-06
5.56652e-08
2.7325e-06
5.57536e-08
2.7043e-06
5.58732e-08
2.67603e-06
5.60242e-08
2.64767e-06
5.62071e-08
2.61919e-06
5.64225e-08
2.59059e-06
5.66706e-08
2.56185e-06
5.69518e-08
2.53295e-06
5.72666e-08
2.50388e-06
5.76152e-08
2.47461e-06
5.79979e-08
2.44514e-06
5.8415e-08
2.41544e-06
5.88666e-08
2.3855e-06
5.9353e-08
2.3553e-06
5.98742e-08
2.32482e-06
6.04304e-08
2.29406e-06
6.10215e-08
2.26298e-06
6.16475e-08
2.23158e-06
6.23084e-08
2.19984e-06
6.30039e-08
2.16774e-06
6.37339e-08
2.13526e-06
6.44981e-08
2.10239e-06
6.5296e-08
2.06912e-06
6.61272e-08
2.03542e-06
6.69912e-08
2.00128e-06
6.78873e-08
1.96669e-06
6.88148e-08
1.93164e-06
6.97728e-08
1.8961e-06
7.07604e-08
1.86007e-06
7.17766e-08
1.82353e-06
7.282e-08
1.78648e-06
7.38894e-08
1.74889e-06
7.49833e-08
1.71077e-06
7.61e-08
1.67209e-06
7.72377e-08
1.63286e-06
7.83946e-08
1.59307e-06
7.95684e-08
1.5527e-06
8.07567e-08
1.51176e-06
8.19571e-08
1.47024e-06
8.31667e-08
1.42814e-06
8.43825e-08
1.38546e-06
8.56013e-08
1.34221e-06
8.68193e-08
1.29837e-06
8.80328e-08
1.25397e-06
8.92375e-08
1.20901e-06
9.04288e-08
1.1635e-06
9.16018e-08
1.11746e-06
9.2751e-08
1.07089e-06
9.38704e-08
1.02383e-06
9.49536e-08
9.76289e-07
9.59936e-08
9.28298e-07
9.69825e-08
8.79888e-07
9.79119e-08
8.31096e-07
9.87723e-08
7.81961e-07
9.95535e-08
7.32531e-07
1.00244e-07
6.82857e-07
1.00831e-07
6.32999e-07
1.01301e-07
5.83023e-07
1.01637e-07
5.33004e-07
1.01823e-07
4.83026e-07
1.01838e-07
4.33183e-07
1.0166e-07
3.83583e-07
1.01265e-07
3.34344e-07
1.00623e-07
2.856e-07
9.97012e-08
2.37503e-07
9.84631e-08
1.90224e-07
9.68636e-08
1.43955e-07
9.48518e-08
9.89109e-08
9.23607e-08
5.53308e-08
8.93145e-08
1.34835e-08
8.56475e-08
-2.63153e-08
8.1279e-08
-6.37063e-08
7.61076e-08
-9.83004e-08
7.00191e-08
-1.29663e-07
6.28788e-08
-1.57309e-07
5.45281e-08
-1.80697e-07
4.47828e-08
-1.99241e-07
3.34419e-08
-2.12315e-07
2.02885e-08
-2.19281e-07
5.1163e-09
-2.19517e-07
-1.22088e-08
-2.12517e-07
-3.16875e-08
-1.98027e-07
-5.30235e-08
-1.76212e-07
-7.52322e-08
-1.47774e-07
-9.59161e-08
-1.13618e-07
-1.09935e-07
-6.88229e-08
-1.04901e-07
-6.49866e-08
-9.39517e-08
4.10499e-13
7.00519e-07
-5.87213e-08
2.8809e-14
3.04629e-07
2.81466e-08
4.63026e-14
3.01213e-08
1.41029e-07
3.18353e-14
-1.80108e-07
2.74134e-07
3.16272e-14
-3.41869e-07
4.25341e-07
3.05622e-14
-4.63136e-07
5.92154e-07
2.88865e-14
-5.51232e-07
7.7157e-07
2.69714e-14
-6.12759e-07
9.60496e-07
2.45636e-14
-6.5328e-07
1.15609e-06
2.20552e-14
-6.77292e-07
1.35561e-06
1.9814e-14
-6.8855e-07
1.55658e-06
1.77844e-14
-6.89979e-07
1.75691e-06
1.60775e-14
-6.83809e-07
1.95486e-06
1.4655e-14
-6.7176e-07
2.14901e-06
1.3491e-14
-6.55159e-07
2.3382e-06
1.25248e-14
-6.35045e-07
2.52151e-06
1.17199e-14
-6.1224e-07
2.69821e-06
1.10364e-14
-5.87402e-07
2.86772e-06
1.04744e-14
-5.61063e-07
3.02962e-06
9.97655e-15
-5.3366e-07
3.18359e-06
9.54809e-15
-5.05553e-07
3.32942e-06
9.17513e-15
-4.77044e-07
3.46697e-06
8.83688e-15
-4.48384e-07
3.5962e-06
8.52637e-15
-4.19786e-07
3.7171e-06
8.25404e-15
-3.91431e-07
3.82972e-06
7.99904e-15
-3.6347e-07
3.93419e-06
7.7562e-15
-3.36033e-07
4.03063e-06
7.53937e-15
-3.09229e-07
4.11922e-06
7.32427e-15
-2.83148e-07
4.20017e-06
7.12826e-15
-2.57867e-07
4.2737e-06
6.93919e-15
-2.33446e-07
4.34006e-06
6.74838e-15
-2.09935e-07
4.39952e-06
6.55931e-15
-1.87372e-07
4.45234e-06
6.38411e-15
-1.65785e-07
4.4988e-06
6.20371e-15
-1.45193e-07
4.53921e-06
6.03545e-15
-1.25608e-07
4.57384e-06
5.86026e-15
-1.07032e-07
4.60299e-06
5.68679e-15
-8.94642e-08
4.62696e-06
5.53068e-15
-7.28948e-08
4.64604e-06
5.36068e-15
-5.73104e-08
4.66052e-06
5.2011e-15
-4.2693e-08
4.67067e-06
5.05539e-15
-2.90203e-08
4.67678e-06
4.90968e-15
-1.62669e-08
4.67911e-06
4.77091e-15
-4.40424e-09
4.67793e-06
4.62867e-15
6.59816e-09
4.67349e-06
4.49684e-15
1.67727e-08
4.66602e-06
4.36847e-15
2.61539e-08
4.65577e-06
4.25225e-15
3.47769e-08
4.64296e-06
4.14644e-15
4.26777e-08
4.62779e-06
4.04236e-15
4.98926e-08
4.61048e-06
3.94349e-15
5.64582e-08
4.5912e-06
3.86716e-15
6.24106e-08
4.57015e-06
3.79084e-15
6.77858e-08
4.54749e-06
3.71972e-15
7.26194e-08
4.52339e-06
3.66074e-15
7.69459e-08
4.49799e-06
3.59482e-15
8.07993e-08
4.47142e-06
3.54972e-15
8.42122e-08
4.44383e-06
3.50115e-15
8.72163e-08
4.41534e-06
3.46472e-15
8.9842e-08
4.38605e-06
3.4335e-15
9.21185e-08
4.35607e-06
3.3936e-15
9.40735e-08
4.32549e-06
3.37452e-15
9.57335e-08
4.29441e-06
3.34676e-15
9.71235e-08
4.2629e-06
3.32074e-15
9.8267e-08
4.23103e-06
3.29992e-15
9.91863e-08
4.19888e-06
3.29992e-15
9.99023e-08
4.16651e-06
3.28084e-15
1.00434e-07
4.13396e-06
3.27216e-15
1.00801e-07
4.10129e-06
3.26869e-15
1.01019e-07
4.06855e-06
3.25655e-15
1.01104e-07
4.03577e-06
3.25134e-15
1.0107e-07
4.003e-06
3.25307e-15
1.00932e-07
3.97025e-06
3.24439e-15
1.00701e-07
3.93757e-06
3.24612e-15
1.00389e-07
3.90497e-06
3.24265e-15
1.00007e-07
3.87248e-06
3.25305e-15
9.95635e-08
3.84011e-06
3.25825e-15
9.90682e-08
3.80788e-06
3.25998e-15
9.8529e-08
3.77581e-06
3.25824e-15
9.79532e-08
3.74391e-06
3.26691e-15
9.73476e-08
3.71217e-06
3.27558e-15
9.67184e-08
3.68063e-06
3.28598e-15
9.60711e-08
3.64927e-06
3.29291e-15
9.5411e-08
3.6181e-06
3.30331e-15
9.47426e-08
3.58713e-06
3.31719e-15
9.40702e-08
3.55635e-06
3.33106e-15
9.33977e-08
3.52577e-06
3.34319e-15
9.27287e-08
3.49538e-06
3.35533e-15
9.20665e-08
3.46519e-06
3.3692e-15
9.14139e-08
3.43519e-06
3.37787e-15
9.07737e-08
3.40537e-06
3.40388e-15
9.01486e-08
3.37573e-06
3.41775e-15
8.95406e-08
3.34627e-06
3.43856e-15
8.89521e-08
3.31698e-06
3.46805e-15
8.8385e-08
3.28785e-06
3.49579e-15
8.78411e-08
3.25887e-06
3.52007e-15
8.73222e-08
3.23004e-06
3.54609e-15
8.68298e-08
3.20135e-06
3.57557e-15
8.63656e-08
3.17279e-06
3.60852e-15
8.59308e-08
3.14434e-06
3.64321e-15
8.55269e-08
3.11601e-06
3.67616e-15
8.51552e-08
3.08777e-06
3.71259e-15
8.48169e-08
3.05963e-06
3.75074e-15
8.4513e-08
3.03156e-06
3.7837e-15
8.42449e-08
3.00355e-06
3.82359e-15
8.40134e-08
2.9756e-06
3.86348e-15
8.38196e-08
2.94769e-06
3.91551e-15
8.36646e-08
2.91981e-06
3.96581e-15
8.35493e-08
2.89195e-06
4.01785e-15
8.34746e-08
2.86409e-06
4.06295e-15
8.34413e-08
2.83622e-06
4.11498e-15
8.34503e-08
2.80832e-06
4.16528e-15
8.35025e-08
2.78039e-06
4.21558e-15
8.35986e-08
2.7524e-06
4.27282e-15
8.37394e-08
2.72435e-06
4.33353e-15
8.39256e-08
2.69621e-06
4.39597e-15
8.41579e-08
2.66798e-06
4.45842e-15
8.4437e-08
2.63964e-06
4.51913e-15
8.47634e-08
2.61117e-06
4.58678e-15
8.51377e-08
2.58256e-06
4.65963e-15
8.55605e-08
2.5538e-06
4.73422e-15
8.60322e-08
2.52486e-06
4.80881e-15
8.65532e-08
2.49573e-06
4.88513e-15
8.71241e-08
2.4664e-06
4.96319e-15
8.7745e-08
2.43685e-06
5.03951e-15
8.84162e-08
2.40706e-06
5.12104e-15
8.91379e-08
2.37703e-06
5.20256e-15
8.99104e-08
2.34672e-06
5.28236e-15
9.07335e-08
2.31614e-06
5.37082e-15
9.16074e-08
2.28525e-06
5.46276e-15
9.25318e-08
2.25405e-06
5.55469e-15
9.35065e-08
2.22252e-06
5.64143e-15
9.45314e-08
2.19065e-06
5.72989e-15
9.56059e-08
2.15842e-06
5.83744e-15
9.67296e-08
2.12581e-06
5.94152e-15
9.79018e-08
2.09282e-06
6.04387e-15
9.91217e-08
2.05942e-06
6.15315e-15
1.00389e-07
2.0256e-06
6.26417e-15
1.01701e-07
1.99136e-06
6.36998e-15
1.03058e-07
1.95667e-06
6.47753e-15
1.04459e-07
1.92153e-06
6.59376e-15
1.05901e-07