/*--------------------------------*- C++ -*----------------------------------*\
  =========                 |
  \\      /  F ield         | OpenFOAM: The Open Source CFD Toolbox
   \\    /   O peration     | Website:  https://openfoam.org
    \\  /    A nd           | Version:  8
     \\/     M anipulation  |
\*---------------------------------------------------------------------------*/
FoamFile
{
    version     2.0;
    format      ascii;
    class       volScalarField;
    location    "1800";
    object      nut;
}
// * * * * * * * * * * * * * * * * * * * * * * * * * * * * * * * * * * * * * //

dimensions      [0 2 -1 0 0 0 0];

internalField   nonuniform List<scalar> 
48000
(
7.25309e-05
5.79274e-05
7.47852e-05
8.586e-05
9.47555e-05
0.000102161
0.00010862
0.000114498
0.000119808
0.000124715
0.00012929
0.000133589
0.000137651
0.000141509
0.000145187
0.000148704
0.000152074
0.000155309
0.000158418
0.000161411
0.000164292
0.000167067
0.000169741
0.000172316
0.000174797
0.000177186
0.000179486
0.000181698
0.000183825
0.000185869
0.000187831
0.000189714
0.000191519
0.000193247
0.000194901
0.000196482
0.000197991
0.000199431
0.000200803
0.000202108
0.000203348
0.000204526
0.000205642
0.000206698
0.000207695
0.000208636
0.000209522
0.000210355
0.000211135
0.000211865
0.000212545
0.000213185
0.00021378
0.000214332
0.00021484
0.000215307
0.000215733
0.00021612
0.00021647
0.000216783
0.000217062
0.000217306
0.000217518
0.000217698
0.000217847
0.000217967
0.000218059
0.000218123
0.00021816
0.000218172
0.000218159
0.000218121
0.000218061
0.000217978
0.000217873
0.000217746
0.000217599
0.000217433
0.000217247
0.000217042
0.000216818
0.000216577
0.000216319
0.000216043
0.000215751
0.000215443
0.000215119
0.000214779
0.000214424
0.000214055
0.000213671
0.000213272
0.000212859
0.000212433
0.000211992
0.000211538
0.000211071
0.00021059
0.000210097
0.00020959
0.00020907
0.000208537
0.000207991
0.000207433
0.000206862
0.000206278
0.000205681
0.000205071
0.000204449
0.000203814
0.000203166
0.000202505
0.000201831
0.000201143
0.000200443
0.000199729
0.000199002
0.000198261
0.000197507
0.000196739
0.000195956
0.00019516
0.000194349
0.000193523
0.000192683
0.000191828
0.000190958
0.000190073
0.000189171
0.000188255
0.000187322
0.000186373
0.000185407
0.000184425
0.000183425
0.000182409
0.000181375
0.000180323
0.000179254
0.000178166
0.000177059
0.000175934
0.00017479
0.000173627
0.000172444
0.000171241
0.000170018
0.000168775
0.000167512
0.000166227
0.000164922
0.000163595
0.000162246
0.000160876
0.000159483
0.000158069
0.000156631
0.000155171
0.000153687
0.00015218
0.000150649
0.000149094
0.000147514
0.000145909
0.00014428
0.000142624
0.000140942
0.000139234
0.000137498
0.000135735
0.000133942
0.000132121
0.000130268
0.000128384
0.000126467
0.000124516
0.000122529
0.000120503
0.000118438
0.000116329
0.000114174
0.000111969
0.00010971
0.000107395
0.00010502
0.000102597
0.000100092
9.74845e-05
9.47596e-05
9.18929e-05
8.88546e-05
8.56035e-05
8.20837e-05
7.82552e-05
7.40109e-05
6.91692e-05
6.3677e-05
5.96413e-05
0.000397054
0.000188432
7.25013e-05
5.79286e-05
7.47866e-05
8.58607e-05
9.47562e-05
0.000102162
0.000108621
0.000114498
0.000119809
0.000124716
0.000129291
0.000133589
0.000137652
0.00014151
0.000145188
0.000148704
0.000152074
0.000155309
0.000158419
0.000161411
0.000164292
0.000167067
0.000169741
0.000172316
0.000174797
0.000177186
0.000179486
0.000181698
0.000183825
0.000185869
0.000187831
0.000189714
0.000191519
0.000193247
0.000194901
0.000196482
0.000197991
0.000199431
0.000200803
0.000202108
0.000203348
0.000204526
0.000205642
0.000206698
0.000207695
0.000208636
0.000209522
0.000210355
0.000211135
0.000211865
0.000212545
0.000213185
0.00021378
0.000214332
0.00021484
0.000215307
0.000215733
0.00021612
0.00021647
0.000216783
0.000217062
0.000217306
0.000217518
0.000217698
0.000217847
0.000217967
0.000218059
0.000218123
0.00021816
0.000218172
0.000218159
0.000218121
0.000218061
0.000217977
0.000217872
0.000217746
0.000217599
0.000217433
0.000217246
0.000217041
0.000216818
0.000216577
0.000216318
0.000216043
0.000215751
0.000215443
0.000215118
0.000214779
0.000214424
0.000214055
0.00021367
0.000213272
0.000212859
0.000212433
0.000211992
0.000211538
0.000211071
0.00021059
0.000210096
0.00020959
0.00020907
0.000208537
0.000207991
0.000207433
0.000206862
0.000206278
0.000205681
0.000205071
0.000204449
0.000203814
0.000203166
0.000202505
0.00020183
0.000201143
0.000200443
0.000199729
0.000199002
0.000198261
0.000197507
0.000196738
0.000195956
0.00019516
0.000194349
0.000193523
0.000192683
0.000191828
0.000190958
0.000190072
0.000189171
0.000188255
0.000187322
0.000186373
0.000185407
0.000184425
0.000183425
0.000182409
0.000181375
0.000180323
0.000179254
0.000178166
0.000177059
0.000175934
0.00017479
0.000173627
0.000172444
0.000171241
0.000170018
0.000168775
0.000167511
0.000166227
0.000164921
0.000163595
0.000162246
0.000160876
0.000159483
0.000158068
0.000156631
0.000155171
0.000153687
0.00015218
0.000150649
0.000149094
0.000147514
0.000145909
0.00014428
0.000142624
0.000140942
0.000139234
0.000137498
0.000135735
0.000133942
0.00013212
0.000130268
0.000128384
0.000126467
0.000124516
0.000122529
0.000120503
0.000118438
0.000116329
0.000114174
0.000111969
0.00010971
0.000107395
0.00010502
0.000102597
0.000100092
9.74845e-05
9.47596e-05
9.1893e-05
8.88546e-05
8.56035e-05
8.20837e-05
7.82552e-05
7.40106e-05
6.91665e-05
6.36626e-05
5.95979e-05
0.000397141
0.000188571
5.09585e-05
0.000384421
0.000615971
0.000774427
0.000893641
0.000991032
0.00107419
0.00114685
0.00121198
0.00127111
0.00132539
0.00137567
0.00142256
0.00146656
0.00150804
0.0015473
0.00158458
0.00162005
0.0016539
0.00168624
0.00171718
0.00174682
0.00177522
0.00180246
0.0018286
0.00185367
0.00187773
0.00190082
0.00192297
0.0019442
0.00196456
0.00198407
0.00200275
0.00202063
0.00203773
0.00205408
0.00206969
0.00208459
0.0020988
0.00211234
0.00212522
0.00213747
0.0021491
0.00216013
0.00217059
0.00218048
0.00218982
0.00219864
0.00220693
0.00221471
0.00222196
0.00222856
0.0022347
0.00224041
0.00224569
0.00225059
0.0022551
0.00225925
0.00226304
0.00226649
0.00226962
0.00227242
0.00227491
0.0022771
0.002279
0.00228061
0.00228196
0.00228304
0.00228386
0.00228444
0.00228477
0.00228487
0.00228474
0.00228438
0.00228381
0.00228303
0.00228205
0.00228086
0.00227948
0.00227791
0.00227615
0.00227421
0.00227209
0.00226979
0.00226732
0.00226469
0.00226189
0.00225893
0.0022558
0.00225252
0.00224909
0.0022455
0.00224176
0.00223787
0.00223383
0.00222964
0.00222531
0.00222083
0.00221621
0.00221145
0.00220655
0.0022015
0.00219631
0.00219098
0.00218551
0.0021799
0.00217414
0.00216825
0.00216221
0.00215603
0.0021497
0.00214323
0.00213662
0.00212985
0.00212295
0.00211589
0.00210868
0.00210132
0.00209381
0.00208614
0.00207832
0.00207034
0.0020622
0.0020539
0.00204543
0.0020368
0.00202799
0.00201902
0.00200988
0.00200056
0.00199106
0.00198139
0.00197153
0.00196149
0.00195126
0.00194084
0.00193023
0.00191942
0.00190842
0.00189721
0.00188581
0.0018742
0.00186238
0.00185035
0.00183811
0.00182565
0.00181297
0.00180008
0.00178696
0.00177361
0.00176004
0.00174623
0.00173219
0.00171791
0.00170339
0.00168863
0.00167363
0.00165837
0.00164286
0.0016271
0.00161107
0.00159479
0.00157823
0.0015614
0.00154429
0.0015269
0.00150922
0.00149124
0.00147296
0.00145436
0.00143544
0.00141618
0.00139658
0.00137661
0.00135625
0.0013355
0.00131432
0.00129268
0.00127056
0.00124791
0.00122468
0.00120082
0.00117625
0.00115085
0.00112448
0.00109693
0.00106814
0.00103801
0.00100632
0.00097273
0.000936807
0.000897864
0.000854749
0.000805208
0.000747613
0.000678952
0.000594533
0.000489801
0.000375043
0.000266302
5.09599e-05
0.000384454
0.000615996
0.000774464
0.000893683
0.000991075
0.00107423
0.00114689
0.00121202
0.00127115
0.00132543
0.00137571
0.0014226
0.0014666
0.00150808
0.00154734
0.00158461
0.00162009
0.00165393
0.00168627
0.00171721
0.00174685
0.00177525
0.00180249
0.00182863
0.0018537
0.00187776
0.00190085
0.00192299
0.00194423
0.00196459
0.00198409
0.00200277
0.00202065
0.00203776
0.0020541
0.00206971
0.00208461
0.00209882
0.00211236
0.00212524
0.00213749
0.00214912
0.00216015
0.00217061
0.0021805
0.00218984
0.00219865
0.00220695
0.00221473
0.00222197
0.00222858
0.00223472
0.00224042
0.00224571
0.0022506
0.00225512
0.00225926
0.00226306
0.00226651
0.00226963
0.00227243
0.00227492
0.00227711
0.00227901
0.00228063
0.00228197
0.00228305
0.00228388
0.00228445
0.00228478
0.00228488
0.00228475
0.0022844
0.00228383
0.00228304
0.00228206
0.00228087
0.00227949
0.00227792
0.00227616
0.00227422
0.0022721
0.0022698
0.00226734
0.0022647
0.0022619
0.00225894
0.00225581
0.00225253
0.0022491
0.00224551
0.00224177
0.00223788
0.00223384
0.00222965
0.00222532
0.00222085
0.00221623
0.00221146
0.00220656
0.00220151
0.00219632
0.00219099
0.00218552
0.00217991
0.00217415
0.00216826
0.00216222
0.00215604
0.00214971
0.00214324
0.00213663
0.00212986
0.00212296
0.0021159
0.00210869
0.00210133
0.00209382
0.00208615
0.00207833
0.00207035
0.00206221
0.00205391
0.00204544
0.00203681
0.002028
0.00201903
0.00200989
0.00200057
0.00199107
0.0019814
0.00197154
0.0019615
0.00195127
0.00194085
0.00193023
0.00191943
0.00190843
0.00189722
0.00188582
0.0018742
0.00186239
0.00185036
0.00183812
0.00182566
0.00181298
0.00180009
0.00178697
0.00177362
0.00176004
0.00174624
0.0017322
0.00171792
0.0017034
0.00168864
0.00167363
0.00165838
0.00164287
0.00162711
0.00161108
0.00159479
0.00157824
0.00156141
0.0015443
0.00152691
0.00150923
0.00149125
0.00147297
0.00145437
0.00143545
0.00141619
0.00139659
0.00137661
0.00135626
0.00133551
0.00131432
0.00129269
0.00127057
0.00124792
0.00122469
0.00120083
0.00117626
0.00115086
0.00112449
0.00109693
0.00106815
0.00103802
0.00100632
0.000972737
0.000936814
0.00089787
0.000854754
0.00080521
0.0007476
0.000678882
0.000594294
0.000489265
0.000375085
0.000266189
6.41028e-05
0.000585432
0.00104376
0.00138718
0.00165968
0.00188626
0.00208076
0.00225146
0.00240389
0.00254176
0.00266771
0.0027837
0.00289124
0.00299149
0.00308539
0.00317369
0.00325699
0.00333579
0.00341053
0.00348154
0.00354913
0.00361355
0.00367501
0.00373371
0.00378981
0.00384345
0.00389476
0.00394385
0.00399081
0.00403576
0.00407876
0.00411989
0.00415923
0.00419684
0.00423278
0.00426712
0.00429991
0.00433119
0.00436103
0.00438947
0.00441656
0.00444234
0.00446686
0.00449016
0.00451227
0.00453324
0.0045531
0.00457188
0.00458961
0.0046063
0.00462196
0.00463653
0.00465014
0.00466287
0.00467475
0.00468584
0.00469615
0.00470572
0.00471457
0.00472274
0.00473024
0.00473709
0.00474332
0.00474895
0.00475399
0.00475846
0.00476238
0.00476577
0.00476864
0.00477101
0.00477288
0.00477428
0.00477522
0.0047757
0.00477574
0.00477535
0.00477454
0.00477331
0.00477169
0.00476967
0.00476727
0.00476449
0.00476134
0.00475783
0.00475396
0.00474974
0.00474517
0.00474026
0.00473501
0.00472944
0.00472353
0.00471731
0.00471076
0.00470389
0.00469671
0.00468922
0.00468141
0.0046733
0.00466488
0.00465615
0.00464712
0.00463778
0.00462814
0.0046182
0.00460795
0.00459739
0.00458653
0.00457537
0.00456389
0.00455211
0.00454002
0.00452761
0.00451489
0.00450185
0.00448849
0.00447481
0.0044608
0.00444647
0.0044318
0.00441679
0.00440145
0.00438576
0.00436973
0.00435334
0.0043366
0.00431949
0.00430203
0.00428419
0.00426597
0.00424737
0.00422839
0.00420902
0.00418925
0.00416908
0.0041485
0.00412751
0.0041061
0.00408427
0.004062
0.0040393
0.00401616
0.00399257
0.00396852
0.00394401
0.00391904
0.00389359
0.00386766
0.00384124
0.00381433
0.00378692
0.003759
0.00373057
0.00370161
0.00367212
0.00364209
0.00361151
0.00358038
0.00354867
0.00351639
0.00348352
0.00345005
0.00341596
0.00338124
0.00334588
0.00330986
0.00327316
0.00323575
0.00319762
0.00315875
0.00311909
0.00307862
0.0030373
0.00299509
0.00295195
0.00290781
0.00286261
0.00281629
0.00276875
0.0027199
0.00266961
0.00261776
0.00256415
0.00250859
0.00245079
0.00239043
0.00232712
0.00226047
0.00218997
0.00211485
0.00203414
0.0019465
0.00185005
0.001742
0.00161825
0.00147329
0.00129967
0.0010851
0.000811039
0.000451327
5.09447e-05
6.41038e-05
0.000585455
0.00104381
0.00138726
0.00165977
0.00188635
0.00208086
0.00225156
0.00240399
0.00254186
0.0026678
0.00278379
0.00289133
0.00299158
0.00308548
0.00317377
0.00325707
0.00333587
0.0034106
0.00348161
0.0035492
0.00361361
0.00367508
0.00373377
0.00378987
0.00384351
0.00389481
0.0039439
0.00399086
0.0040358
0.0040788
0.00411993
0.00415927
0.00419688
0.00423282
0.00426715
0.00429994
0.00433122
0.00436106
0.0043895
0.00441659
0.00444237
0.00446688
0.00449018
0.00451229
0.00453326
0.00455312
0.0045719
0.00458963
0.00460632
0.00462197
0.00463654
0.00465016
0.00466288
0.00467477
0.00468585
0.00469616
0.00470573
0.00471458
0.00472274
0.00473024
0.0047371
0.00474333
0.00474895
0.00475399
0.00475847
0.00476239
0.00476578
0.00476865
0.00477101
0.00477289
0.00477429
0.00477522
0.0047757
0.00477574
0.00477535
0.00477454
0.00477331
0.00477169
0.00476967
0.00476727
0.00476449
0.00476134
0.00475783
0.00475396
0.00474974
0.00474517
0.00474026
0.00473501
0.00472944
0.00472353
0.00471731
0.00471076
0.00470389
0.00469671
0.00468921
0.00468141
0.0046733
0.00466488
0.00465615
0.00464712
0.00463778
0.00462814
0.0046182
0.00460795
0.00459739
0.00458653
0.00457537
0.00456389
0.00455211
0.00454002
0.00452761
0.00451489
0.00450185
0.00448849
0.00447481
0.0044608
0.00444646
0.0044318
0.00441679
0.00440145
0.00438576
0.00436973
0.00435334
0.0043366
0.00431949
0.00430202
0.00428418
0.00426597
0.00424737
0.00422839
0.00420902
0.00418925
0.00416908
0.0041485
0.00412751
0.0041061
0.00408427
0.004062
0.0040393
0.00401616
0.00399256
0.00396852
0.00394401
0.00391903
0.00389359
0.00386766
0.00384124
0.00381433
0.00378692
0.003759
0.00373056
0.00370161
0.00367212
0.00364209
0.00361151
0.00358037
0.00354867
0.00351639
0.00348351
0.00345004
0.00341595
0.00338124
0.00334588
0.00330985
0.00327315
0.00323575
0.00319762
0.00315874
0.00311909
0.00307862
0.0030373
0.00299509
0.00295194
0.0029078
0.00286261
0.00281629
0.00276875
0.0027199
0.00266961
0.00261776
0.00256415
0.00250858
0.00245079
0.00239043
0.00232712
0.00226047
0.00218997
0.00211485
0.00203414
0.0019465
0.00185005
0.001742
0.00161825
0.00147328
0.00129965
0.00108503
0.000811
0.000451619
5.09542e-05
7.29131e-05
0.000700823
0.00132544
0.00182536
0.00223575
0.00258316
0.00288455
0.00315093
0.00338981
0.00360646
0.00380473
0.0039875
0.004157
0.00431499
0.00446286
0.00460177
0.00473265
0.0048563
0.00497336
0.0050844
0.0051899
0.00529026
0.00538586
0.00547699
0.00556393
0.00564692
0.00572618
0.0058019
0.00587426
0.0059434
0.00600948
0.00607263
0.00613297
0.00619062
0.00624568
0.00629825
0.00634844
0.00639632
0.00644198
0.00648551
0.00652699
0.00656649
0.00660407
0.00663981
0.00667377
0.00670602
0.00673661
0.00676558
0.006793
0.00681889
0.00684329
0.0068662
0.00688769
0.00690788
0.00692682
0.00694458
0.00696119
0.0069767
0.00699116
0.00700459
0.00701704
0.00702853
0.00703911
0.0070488
0.00705762
0.00706561
0.00707279
0.00707918
0.00708481
0.0070897
0.00709386
0.00709733
0.00710011
0.00710222
0.00710368
0.00710451
0.00710472
0.00710432
0.00710333
0.00710176
0.00709961
0.00709691
0.00709366
0.00708987
0.00708555
0.00708071
0.00707535
0.00706948
0.00706312
0.00705625
0.0070489
0.00704107
0.00703275
0.00702396
0.0070147
0.00700496
0.00699476
0.0069841
0.00697297
0.00696138
0.00694933
0.00693682
0.00692385
0.00691042
0.00689654
0.00688218
0.00686737
0.00685209
0.00683635
0.00682013
0.00680345
0.00678629
0.00676865
0.00675052
0.00673191
0.00671281
0.00669322
0.00667312
0.00665251
0.0066314
0.00660976
0.00658761
0.00656492
0.00654169
0.00651792
0.0064936
0.00646871
0.00644327
0.00641724
0.00639064
0.00636344
0.00633565
0.00630725
0.00627823
0.00624858
0.0062183
0.00618738
0.0061558
0.00612356
0.00609065
0.00605705
0.00602276
0.00598777
0.00595206
0.00591563
0.00587846
0.00584055
0.00580187
0.00576242
0.00572219
0.00568116
0.00563931
0.00559664
0.00555313
0.00550877
0.00546352
0.00541739
0.00537035
0.00532237
0.00527345
0.00522354
0.00517264
0.0051207
0.0050677
0.00501361
0.00495838
0.00490199
0.00484437
0.00478549
0.00472529
0.00466369
0.00460064
0.00453606
0.00446984
0.00440189
0.00433209
0.00426031
0.00418637
0.0041101
0.00403129
0.00394966
0.0038649
0.00377665
0.00368444
0.00358773
0.00348586
0.00337803
0.00326325
0.00314022
0.00300724
0.00286206
0.00270162
0.00252179
0.00231698
0.00207944
0.00179916
0.00146168
0.00104793
0.000541253
5.60931e-05
7.29142e-05
0.000700854
0.00132551
0.00182546
0.00223587
0.00258329
0.00288469
0.00315108
0.00338996
0.00360661
0.00380487
0.00398764
0.00415714
0.00431512
0.00446299
0.0046019
0.00473278
0.00485641
0.00497347
0.00508451
0.00519
0.00529036
0.00538595
0.00547708
0.00556402
0.005647
0.00572626
0.00580198
0.00587433
0.00594347
0.00600955
0.00607269
0.00613303
0.00619067
0.00624573
0.0062983
0.00634848
0.00639636
0.00644202
0.00648555
0.00652703
0.00656652
0.0066041
0.00663984
0.0066738
0.00670604
0.00673663
0.0067656
0.00679302
0.00681891
0.0068433
0.00686621
0.0068877
0.00690789
0.00692683
0.00694459
0.0069612
0.00697671
0.00699116
0.00700459
0.00701704
0.00702853
0.00703911
0.0070488
0.00705762
0.00706561
0.00707279
0.00707918
0.00708481
0.00708969
0.00709386
0.00709732
0.0071001
0.00710221
0.00710368
0.00710451
0.00710471
0.00710431
0.00710332
0.00710175
0.0070996
0.0070969
0.00709365
0.00708986
0.00708554
0.0070807
0.00707534
0.00706947
0.00706311
0.00705624
0.00704889
0.00704106
0.00703274
0.00702395
0.00701468
0.00700495
0.00699475
0.00698409
0.00697296
0.00696137
0.00694932
0.00693681
0.00692384
0.00691041
0.00689652
0.00688217
0.00686736
0.00685208
0.00683634
0.00682012
0.00680343
0.00678627
0.00676863
0.00675051
0.0067319
0.0067128
0.0066932
0.00667311
0.0066525
0.00663139
0.00660975
0.00658759
0.0065649
0.00654168
0.0065179
0.00649358
0.0064687
0.00644325
0.00641723
0.00639062
0.00636343
0.00633563
0.00630723
0.00627821
0.00624857
0.00621829
0.00618736
0.00615579
0.00612355
0.00609063
0.00605704
0.00602275
0.00598776
0.00595205
0.00591562
0.00587845
0.00584053
0.00580185
0.00576241
0.00572217
0.00568114
0.0056393
0.00559663
0.00555312
0.00550875
0.00546351
0.00541738
0.00537033
0.00532236
0.00527343
0.00522353
0.00517262
0.00512068
0.00506768
0.00501359
0.00495837
0.00490197
0.00484436
0.00478548
0.00472527
0.00466368
0.00460063
0.00453604
0.00446983
0.00440188
0.00433208
0.00426029
0.00418636
0.00411009
0.00403127
0.00394964
0.00386489
0.00377664
0.00368443
0.00358772
0.00348585
0.00337802
0.00326324
0.00314021
0.00300724
0.00286205
0.00270162
0.00252178
0.00231697
0.00207944
0.00179916
0.00146167
0.00104795
0.000541354
5.61e-05
7.98855e-05
0.000782403
0.00152802
0.00215145
0.00267609
0.00312711
0.00352242
0.00387446
0.00419195
0.00448123
0.00474695
0.00499268
0.00522116
0.00543457
0.00563467
0.00582289
0.00600042
0.00616825
0.00632723
0.00647807
0.0066214
0.00675774
0.00688757
0.0070113
0.0071293
0.00724188
0.00734935
0.00745197
0.00754997
0.00764357
0.00773298
0.00781838
0.00789995
0.00797785
0.00805222
0.00812321
0.00819096
0.00825559
0.00831723
0.00837599
0.00843199
0.00848531
0.00853608
0.00858438
0.0086303
0.00867394
0.00871536
0.00875465
0.00879188
0.0088271
0.00886038
0.00889177
0.00892131
0.00894914
0.00897534
0.00899998
0.0090231
0.00904478
0.00906507
0.00908402
0.00910167
0.00911808
0.00913328
0.00914732
0.00916023
0.00917206
0.00918282
0.00919256
0.00920131
0.00920909
0.00921593
0.00922186
0.0092269
0.00923107
0.0092344
0.00923691
0.00923861
0.00923952
0.00923966
0.00923904
0.00923769
0.00923561
0.00923281
0.00922931
0.00922513
0.00922026
0.00921473
0.00920853
0.00920168
0.00919419
0.00918605
0.00917729
0.0091679
0.00915789
0.00914726
0.00913601
0.00912416
0.0091117
0.00909863
0.00908496
0.00907069
0.00905581
0.00904033
0.00902425
0.00900756
0.00899026
0.00897236
0.00895384
0.00893472
0.00891497
0.0088946
0.0088736
0.00885198
0.00882971
0.00880681
0.00878325
0.00875904
0.00873417
0.00870863
0.00868241
0.00865551
0.00862791
0.00859961
0.00857059
0.00854086
0.00851039
0.00847918
0.00844721
0.00841449
0.00838098
0.0083467
0.00831161
0.00827571
0.008239
0.00820144
0.00816304
0.00812378
0.00808364
0.00804262
0.00800069
0.00795785
0.00791407
0.00786935
0.00782366
0.007777
0.00772934
0.00768067
0.00763097
0.00758022
0.0075284
0.00747549
0.00742147
0.00736633
0.00731003
0.00725254
0.00719386
0.00713394
0.00707276
0.00701028
0.00694647
0.0068813
0.00681472
0.00674669
0.00667716
0.00660607
0.00653338
0.00645902
0.00638292
0.00630499
0.00622516
0.00614332
0.00605937
0.00597318
0.00588462
0.00579352
0.00569971
0.00560298
0.00550309
0.00539975
0.00529265
0.00518139
0.00506552
0.0049445
0.00481766
0.00468422
0.00454322
0.0043935
0.00423362
0.00406174
0.00387552
0.00367196
0.00344716
0.00319602
0.00291192
0.00258614
0.00220748
0.00176208
0.0012336
0.000615921
6.14766e-05
7.98868e-05
0.000782439
0.0015281
0.00215157
0.00267624
0.00312727
0.0035226
0.00387464
0.00419214
0.00448141
0.00474714
0.00499286
0.00522134
0.00543475
0.00563484
0.00582306
0.00600058
0.00616841
0.00632738
0.00647822
0.00662154
0.00675787
0.0068877
0.00701142
0.00712941
0.007242
0.00734946
0.00745207
0.00755006
0.00764366
0.00773307
0.00781847
0.00790003
0.00797792
0.00805229
0.00812328
0.00819102
0.00825565
0.00831729
0.00837604
0.00843203
0.00848536
0.00853612
0.00858442
0.00863034
0.00867397
0.00871539
0.00875468
0.0087919
0.00882713
0.0088604
0.00889178
0.00892132
0.00894916
0.00897536
0.00899999
0.00902311
0.00904479
0.00906508
0.00908402
0.00910168
0.00911808
0.00913328
0.00914732
0.00916023
0.00917205
0.00918282
0.00919256
0.0092013
0.00920908
0.00921593
0.00922185
0.00922689
0.00923107
0.0092344
0.0092369
0.0092386
0.00923951
0.00923965
0.00923903
0.00923768
0.00923559
0.0092328
0.0092293
0.00922511
0.00922025
0.00921471
0.00920852
0.00920167
0.00919417
0.00918604
0.00917728
0.00916788
0.00915787
0.00914724
0.009136
0.00912415
0.00911169
0.00909862
0.00908495
0.00907067
0.0090558
0.00904032
0.00902423
0.00900754
0.00899025
0.00897234
0.00895383
0.0089347
0.00891495
0.00889458
0.00887359
0.00885196
0.0088297
0.00880679
0.00878324
0.00875903
0.00873416
0.00870861
0.00868239
0.00865549
0.00862789
0.00859959
0.00857057
0.00854084
0.00851037
0.00847916
0.00844719
0.00841447
0.00838097
0.00834668
0.00831159
0.0082757
0.00823898
0.00820142
0.00816302
0.00812376
0.00808362
0.0080426
0.00800067
0.00795783
0.00791405
0.00786933
0.00782364
0.00777698
0.00772932
0.00768065
0.00763095
0.0075802
0.00752838
0.00747547
0.00742145
0.00736631
0.00731
0.00725252
0.00719384
0.00713392
0.00707274
0.00701026
0.00694645
0.00688128
0.0068147
0.00674667
0.00667714
0.00660605
0.00653336
0.006459
0.0063829
0.00630497
0.00622514
0.0061433
0.00605935
0.00597316
0.0058846
0.0057935
0.00569969
0.00560296
0.00550307
0.00539973
0.00529263
0.00518138
0.00506551
0.00494448
0.00481764
0.0046842
0.0045432
0.00439349
0.00423361
0.00406172
0.00387551
0.00367195
0.00344715
0.00319602
0.00291192
0.00258614
0.00220748
0.00176208
0.0012336
0.000615939
6.14778e-05
8.58346e-05
0.000847935
0.00168624
0.00240702
0.00302472
0.00356233
0.0040378
0.00446417
0.00485091
0.00520499
0.00553163
0.00583483
0.00611771
0.00638274
0.0066319
0.00686683
0.00708888
0.00729918
0.00749869
0.00768825
0.00786856
0.00804024
0.00820384
0.00835985
0.00850869
0.00865075
0.00878639
0.00891592
0.00903963
0.0091578
0.00927066
0.00937846
0.00948142
0.00957972
0.00967358
0.00976316
0.00984864
0.00993019
0.010008
0.0100821
0.0101527
0.01022
0.0102841
0.0103451
0.0104031
0.0104582
0.0105106
0.0105603
0.0106075
0.0106521
0.0106944
0.0107344
0.0107721
0.0108076
0.0108412
0.0108728
0.0109026
0.0109305
0.0109568
0.0109814
0.0110044
0.0110258
0.0110458
0.0110643
0.0110815
0.0110973
0.0111118
0.0111251
0.0111371
0.011148
0.0111577
0.0111663
0.0111739
0.0111803
0.0111858
0.0111902
0.0111937
0.0111962
0.0111977
0.0111984
0.0111981
0.0111969
0.0111949
0.0111921
0.0111884
0.0111839
0.0111785
0.0111724
0.0111655
0.0111577
0.0111493
0.01114
0.01113
0.0111192
0.0111077
0.0110954
0.0110824
0.0110687
0.0110542
0.0110389
0.011023
0.0110063
0.0109889
0.0109707
0.0109518
0.0109322
0.0109118
0.0108907
0.0108688
0.0108461
0.0108227
0.0107986
0.0107737
0.0107479
0.0107214
0.0106942
0.0106661
0.0106371
0.0106074
0.0105768
0.0105454
0.0105132
0.0104801
0.0104461
0.0104112
0.0103754
0.0103387
0.010301
0.0102625
0.0102229
0.0101824
0.0101409
0.0100985
0.0100549
0.0100104
0.0099648
0.00991813
0.00987038
0.00982152
0.00977154
0.00972041
0.00966812
0.00961465
0.00955998
0.00950407
0.00944692
0.0093885
0.00932878
0.00926774
0.00920536
0.00914159
0.00907643
0.00900982
0.00894176
0.00887219
0.00880108
0.00872839
0.00865409
0.00857813
0.00850045
0.00842102
0.00833976
0.00825663
0.00817156
0.00808446
0.00799527
0.0079039
0.00781025
0.00771421
0.00761566
0.00751447
0.0074105
0.00730357
0.00719351
0.00708008
0.00696306
0.00684215
0.00671704
0.00658736
0.00645267
0.00631245
0.00616611
0.00601293
0.00585206
0.00568247
0.00550294
0.00531196
0.00510769
0.00488785
0.00464956
0.00438925
0.00410239
0.00378327
0.00342466
0.00301753
0.0025507
0.00201128
0.00138621
0.000678257
6.61337e-05
8.58359e-05
0.000847973
0.00168633
0.00240715
0.00302488
0.00356251
0.004038
0.00446437
0.00485112
0.0052052
0.00553185
0.00583505
0.00611792
0.00638295
0.0066321
0.00686703
0.00708907
0.00729937
0.00749888
0.00768843
0.00786873
0.00804041
0.008204
0.00836
0.00850884
0.00865089
0.00878652
0.00891604
0.00903975
0.00915791
0.00927077
0.00937857
0.00948151
0.00957981
0.00967366
0.00976324
0.00984872
0.00993026
0.010008
0.0100822
0.0101528
0.0102201
0.0102842
0.0103452
0.0104032
0.0104583
0.0105107
0.0105604
0.0106075
0.0106522
0.0106944
0.0107344
0.0107721
0.0108077
0.0108412
0.0108728
0.0109026
0.0109306
0.0109568
0.0109814
0.0110044
0.0110258
0.0110458
0.0110643
0.0110815
0.0110973
0.0111118
0.0111251
0.0111371
0.011148
0.0111577
0.0111663
0.0111739
0.0111803
0.0111858
0.0111902
0.0111936
0.0111961
0.0111977
0.0111983
0.0111981
0.0111969
0.0111949
0.0111921
0.0111884
0.0111838
0.0111785
0.0111724
0.0111654
0.0111577
0.0111492
0.01114
0.01113
0.0111192
0.0111077
0.0110954
0.0110824
0.0110686
0.0110542
0.0110389
0.011023
0.0110063
0.0109889
0.0109707
0.0109518
0.0109322
0.0109118
0.0108906
0.0108688
0.0108461
0.0108227
0.0107986
0.0107736
0.0107479
0.0107214
0.0106941
0.010666
0.0106371
0.0106074
0.0105768
0.0105454
0.0105132
0.01048
0.010446
0.0104112
0.0103754
0.0103387
0.010301
0.0102625
0.0102229
0.0101824
0.0101409
0.0100984
0.0100549
0.0100104
0.00996478
0.00991811
0.00987036
0.0098215
0.00977152
0.00972039
0.0096681
0.00961463
0.00955995
0.00950405
0.0094469
0.00938848
0.00932876
0.00926772
0.00920533
0.00914157
0.0090764
0.0090098
0.00894173
0.00887216
0.00880105
0.00872837
0.00865407
0.0085781
0.00850043
0.008421
0.00833974
0.00825661
0.00817153
0.00808444
0.00799525
0.00790388
0.00781022
0.00771418
0.00761564
0.00751445
0.00741048
0.00730355
0.00719348
0.00708006
0.00696304
0.00684213
0.00671702
0.00658734
0.00645265
0.00631243
0.00616609
0.00601291
0.00585204
0.00568246
0.00550292
0.00531195
0.00510768
0.00488783
0.00464955
0.00438924
0.00410239
0.00378326
0.00342466
0.00301753
0.0025507
0.00201128
0.00138621
0.000678255
6.61339e-05
9.13061e-05
0.000903838
0.00181694
0.00261611
0.00330988
0.00391952
0.00446272
0.00495281
0.00539966
0.00581068
0.00619144
0.00654624
0.00687844
0.00719069
0.00748515
0.00776356
0.00802738
0.00827781
0.00851591
0.00874254
0.00895848
0.00916438
0.00936086
0.00954842
0.00972754
0.00989865
0.0100621
0.0102184
0.0103676
0.0105103
0.0106466
0.0107768
0.0109012
0.01102
0.0111334
0.0112417
0.011345
0.0114436
0.0115376
0.0116273
0.0117127
0.0117941
0.0118717
0.0119454
0.0120156
0.0120824
0.0121458
0.0122061
0.0122632
0.0123174
0.0123688
0.0124174
0.0124633
0.0125067
0.0125477
0.0125864
0.0126229
0.0126572
0.0126895
0.0127198
0.0127482
0.0127748
0.0127996
0.0128227
0.0128442
0.0128641
0.0128825
0.0128994
0.0129148
0.0129289
0.0129416
0.012953
0.0129631
0.012972
0.0129797
0.0129862
0.0129916
0.0129958
0.0129989
0.013001
0.013002
0.013002
0.013001
0.012999
0.012996
0.0129921
0.0129872
0.0129813
0.0129746
0.0129669
0.0129584
0.0129489
0.0129385
0.0129273
0.0129152
0.0129023
0.0128884
0.0128737
0.0128582
0.0128418
0.0128245
0.0128064
0.0127874
0.0127676
0.0127469
0.0127254
0.0127029
0.0126796
0.0126555
0.0126304
0.0126045
0.0125777
0.0125499
0.0125213
0.0124917
0.0124612
0.0124298
0.0123974
0.012364
0.0123297
0.0122944
0.012258
0.0122207
0.0121823
0.0121429
0.0121024
0.0120609
0.0120182
0.0119745
0.0119296
0.0118836
0.0118364
0.011788
0.0117384
0.0116876
0.0116355
0.0115822
0.0115275
0.0114716
0.0114143
0.0113557
0.0112957
0.0112342
0.0111713
0.011107
0.0110412
0.0109738
0.0109049
0.0108344
0.0107623
0.0106885
0.010613
0.0105358
0.0104568
0.010376
0.0102933
0.0102087
0.0101221
0.0100335
0.00994283
0.00984999
0.00975492
0.00965755
0.00955779
0.00945554
0.00935071
0.00924319
0.00913285
0.00901956
0.00890316
0.00878349
0.00866036
0.00853357
0.00840286
0.00826799
0.00812863
0.00798444
0.00783502
0.0076799
0.00751854
0.00735032
0.00717449
0.00699018
0.00679635
0.00659177
0.00637494
0.00614409
0.00589702
0.00563108
0.00534299
0.00502873
0.00468332
0.00430065
0.00387322
0.00339195
0.00284615
0.00222405
0.00151598
0.00073168
7.02553e-05
9.13076e-05
0.000903877
0.00181703
0.00261624
0.00331005
0.00391971
0.00446293
0.00495303
0.0053999
0.00581092
0.00619168
0.00654648
0.00687868
0.00719093
0.00748538
0.00776378
0.00802759
0.00827803
0.00851611
0.00874274
0.00895867
0.00916457
0.00936103
0.00954859
0.00972771
0.00989881
0.0100623
0.0102185
0.0103678
0.0105104
0.0106467
0.0107769
0.0109013
0.0110201
0.0111335
0.0112418
0.0113451
0.0114437
0.0115377
0.0116274
0.0117128
0.0117942
0.0118717
0.0119455
0.0120157
0.0120824
0.0121459
0.0122061
0.0122633
0.0123175
0.0123688
0.0124174
0.0124633
0.0125068
0.0125477
0.0125864
0.0126229
0.0126572
0.0126895
0.0127198
0.0127482
0.0127748
0.0127996
0.0128227
0.0128442
0.0128641
0.0128825
0.0128994
0.0129148
0.0129289
0.0129416
0.012953
0.0129631
0.012972
0.0129797
0.0129862
0.0129916
0.0129958
0.0129989
0.013001
0.013002
0.013002
0.013001
0.012999
0.012996
0.0129921