/*--------------------------------*- C++ -*----------------------------------*\
  =========                 |
  \\      /  F ield         | OpenFOAM: The Open Source CFD Toolbox
   \\    /   O peration     | Website:  https://openfoam.org
    \\  /    A nd           | Version:  8
     \\/     M anipulation  |
\*---------------------------------------------------------------------------*/
FoamFile
{
    version     2.0;
    format      ascii;
    class       volScalarField;
    location    "3400";
    object      epsilon;
}
// * * * * * * * * * * * * * * * * * * * * * * * * * * * * * * * * * * * * * //

dimensions      [0 2 -3 0 0 0 0];

internalField   nonuniform List<scalar> 
48000
(
1.81101
5.17571
9.72377
14.4749
19.4941
24.514
29.5065
34.4777
39.5393
44.6049
49.6782
54.7568
59.8331
64.9
69.9503
74.976
79.9688
84.9202
89.8213
94.6632
99.437
104.134
108.746
113.264
117.681
121.989
126.181
130.252
134.196
138.008
141.682
145.217
148.608
151.854
154.952
157.901
160.702
163.353
165.856
168.211
170.419
172.483
174.404
176.185
177.861
179.406
180.82
182.106
183.267
184.308
185.233
186.046
186.752
187.354
187.858
188.267
188.585
188.816
188.966
189.036
189.031
188.955
188.812
188.604
188.335
188.007
187.625
187.191
186.708
186.178
185.603
184.987
184.331
183.637
182.908
182.145
181.351
180.526
179.672
178.791
177.884
176.953
175.998
175.021
174.023
173.004
171.966
170.909
169.834
168.741
167.632
166.507
165.366
164.211
163.04
161.855
160.656
159.444
158.217
156.978
155.726
154.461
153.183
151.892
150.59
149.274
147.947
146.607
145.255
143.891
142.515
141.127
139.726
138.313
136.889
135.452
134.003
132.542
131.07
129.585
128.088
126.579
125.058
123.525
121.981
120.425
118.857
117.278
115.687
114.085
112.473
110.849
109.215
107.57
105.916
104.251
102.577
100.894
99.2024
97.5022
95.7939
94.0782
92.3553
90.6259
88.8904
87.1493
85.4033
83.6529
81.8987
80.1414
78.3816
76.6199
74.8571
73.0939
71.3309
69.5689
67.8087
66.0509
64.2964
62.5458
60.8
59.0596
57.3255
55.5984
53.879
52.168
50.4661
48.774
47.0923
45.4218
43.7629
42.1162
40.4823
38.8616
37.2546
35.6616
34.083
32.519
30.9699
29.4362
27.9196
26.422
24.9515
23.4946
22.048
20.6117
19.184
17.7634
16.3482
14.9359
13.5235
12.108
10.7006
9.28415
7.85002
6.3888
4.88792
3.33158
1.70649
0.185445
1.81114
5.17567
9.72393
14.4751
19.4943
24.5142
29.5067
34.478
39.5396
44.6051
49.6784
54.757
59.8333
64.9003
69.9505
74.9762
79.969
84.9204
89.8215
94.6634
99.4372
104.134
108.746
113.264
117.681
121.989
126.182
130.253
134.196
138.008
141.683
145.217
148.608
151.854
154.952
157.901
160.702
163.353
165.856
168.211
170.419
172.483
174.404
176.185
177.861
179.406
180.821
182.106
183.267
184.308
185.233
186.046
186.752
187.354
187.858
188.267
188.585
188.816
188.966
189.036
189.031
188.955
188.812
188.604
188.335
188.007
187.625
187.191
186.708
186.178
185.603
184.987
184.331
183.637
182.908
182.145
181.351
180.526
179.672
178.791
177.884
176.953
175.998
175.021
174.023
173.004
171.966
170.909
169.834
168.741
167.632
166.507
165.366
164.211
163.04
161.855
160.656
159.444
158.217
156.978
155.726
154.461
153.183
151.892
150.59
149.274
147.947
146.607
145.255
143.891
142.515
141.126
139.726
138.313
136.889
135.452
134.003
132.542
131.07
129.585
128.088
126.579
125.058
123.525
121.981
120.425
118.857
117.278
115.687
114.085
112.473
110.849
109.215
107.57
105.916
104.251
102.577
100.894
99.2024
97.5021
95.7939
94.0782
92.3553
90.6259
88.8904
87.1493
85.4033
83.6529
81.8987
80.1414
78.3816
76.6199
74.8571
73.0939
71.3309
69.5689
67.8087
66.0509
64.2963
62.5458
60.8
59.0596
57.3255
55.5984
53.879
52.168
50.4661
48.774
47.0923
45.4218
43.7629
42.1162
40.4823
38.8616
37.2546
35.6616
34.083
32.519
30.9699
29.4362
27.9196
26.422
24.9515
23.4946
22.048
20.6117
19.184
17.7634
16.3482
14.9359
13.5235
12.108
10.7006
9.28417
7.85004
6.38882
4.88795
3.33161
1.70642
0.185445
6.143
5.22697
6.68412
8.47296
10.4264
12.456
14.5217
16.6079
18.7243
20.8638
23.0234
25.2009
27.3934
29.5976
31.81
34.0267
36.2433
38.4554
40.6583
42.8469
45.0162
47.1614
49.2772
51.359
53.4018
55.4012
57.353
59.2531
61.0978
62.8838
64.6082
66.2683
67.8619
69.3871
70.8426
72.2272
73.5401
74.781
75.9498
77.0466
78.0721
79.0271
79.913
80.7329
81.4938
82.1918
82.8266
83.3991
83.9108
84.3636
84.7597
85.1011
85.39
85.6287
85.8193
85.9639
86.0648
86.124
86.1436
86.1257
86.0721
85.9847
85.8655
85.716
85.5381
85.3333
85.1031
84.8491
84.5726
84.275
83.9575
83.6212
83.2674
82.8971
82.5112
82.1108
81.6966
81.2695
80.8303
80.3796
79.9182
79.4467
78.9656
78.4754
77.9767
77.4699
76.9555
76.4337
75.905
75.3697
74.828
74.2803
73.7267
73.1675
72.6029
72.033
71.4581
70.8782
70.2934
69.7039
69.1097
68.511
67.9078
67.3
66.6879
66.0714
65.4505
64.8253
64.1958
63.5619
62.9238
62.2813
61.6345
60.9834
60.3279
59.6682
59.0041
58.3356
57.6629
56.9857
56.3043
55.6185
54.9284
54.234
53.5354
52.8325
52.1254
51.4141
50.6987
49.9793
49.2559
48.5286
47.7975
47.0627
46.3243
45.5824
44.8372
44.0888
43.3373
42.5829
41.8258
41.0662
40.3042
39.5402
38.7742
38.0066
37.2375
36.4673
35.6962
34.9244
34.1523
33.3801
32.6081
31.8367
31.0661
30.2966
29.5286
28.7624
27.9982
27.2366
26.4776
25.7217
24.9692
24.2204
23.4757
22.7352
21.9993
21.2684
20.5426
19.8222
19.1075
18.3987
17.696
16.9996
16.3097
15.6264
14.9499
14.2803
13.6177
12.9624
12.3145
11.6746
11.043
10.418
9.79857
9.18557
8.57804
7.97556
7.37769
6.78398
6.19416
5.60866
5.03023
4.45556
3.88407
3.31693
2.75936
2.22904
1.79563
2.0959
6.14292
5.2269
6.68414
8.4729
10.4263
12.4559
14.5216
16.6077
18.7242
20.8636
23.0233
25.2008
27.3932
29.5974
31.8098
34.0265
36.2431
38.4552
40.658
42.8466
45.016
47.1611
49.277
51.3587
53.4016
55.401
57.3528
59.2528
61.0975
62.8836
64.6079
66.268
67.8616
69.3869
70.8423
72.2269
73.5398
74.7807
75.9495
77.0463
78.0718
79.0268
79.9127
80.7326
81.4935
82.1915
82.8263
83.3988
83.9105
84.3633
84.7594
85.1008
85.3897
85.6284
85.819
85.9636
86.0645
86.1237
86.1434
86.1254
86.0718
85.9844
85.8652
85.7157
85.5378
85.333
85.1028
84.8488
84.5723
84.2747
83.9572
83.621
83.2672
82.8968
82.511
82.1105
81.6963
81.2693
80.83
80.3794
79.918
79.4464
78.9653
78.4752
77.9765
77.4697
76.9552
76.4335
75.9048
75.3694
74.8278
74.28
73.7265
73.1673
72.6027
72.0328
71.4579
70.878
70.2932
69.7037
69.1095
68.5108
67.9075
67.2998
66.6877
66.0712
65.4503
64.8251
64.1956
63.5617
62.9236
62.2811
61.6343
60.9832
60.3278
59.668
59.0039
58.3355
57.6627
56.9856
56.3041
55.6183
54.9282
54.2339
53.5352
52.8323
52.1252
51.4139
50.6986
49.9792
49.2558
48.5285
47.7974
47.0626
46.3242
45.5823
44.8371
44.0886
43.3371
42.5827
41.8257
41.066
40.3041
39.54
38.7741
38.0065
37.2374
36.4672
35.6961
34.9243
34.1522
33.38
32.608
31.8366
31.066
30.2965
29.5285
28.7623
27.9981
27.2365
26.4775
25.7216
24.9691
24.2204
23.4756
22.7351
21.9993
21.2683
20.5425
19.8221
19.1074
18.3986
17.6959
16.9996
16.3097
15.6264
14.9499
14.2803
13.6177
12.9623
12.3145
11.6745
11.0429
10.4179
9.79852
9.18553
8.578
7.97553
7.37766
6.78395
6.19413
5.60864
5.03021
4.45555
3.88406
3.31692
2.75936
2.22902
1.79565
2.09616
11.2831
6.99758
7.42375
8.49686
9.79632
11.2115
12.6958
14.2266
15.7942
17.3913
19.0128
20.6551
22.3147
23.9884
25.6731
27.3653
29.0617
30.7584
32.4517
34.1374
35.8117
37.4702
39.1089
40.7237
42.3106
43.8656
45.3852
46.8658
48.3042
49.6974
51.0428
52.338
53.5809
54.7697
55.9031
56.98
57.9995
58.9612
59.8648
60.7104
61.4985
62.2297
62.9051
63.5265
64.0962
64.6143
65.0814
65.4984
65.8665
66.1872
66.4623
66.6934
66.8824
67.0309
67.1409
67.2141
67.2524
67.2574
67.2309
67.1747
67.0902
66.9792
66.843
66.6833
66.5013
66.2985
66.0761
65.8353
65.5773
65.3032
65.0141
64.7108
64.3944
64.0657
63.7255
63.3746
63.0137
62.6435
62.2646
61.8776
61.483
61.0813
60.673
60.2585
59.8383
59.4125
58.9817
58.5461
58.106
57.6616
57.2132
56.761
56.3051
55.8458
55.3831
54.9173
54.4483
53.9764
53.5017
53.0241
52.5438
52.0608
51.5752
51.0869
50.5961
50.1028
49.6069
49.1085
48.6076
48.1042
47.5982
47.0897
46.5787
46.0652
45.5491
45.0305
44.5093
43.9856
43.4592
42.9303
42.3988
41.8648
41.3281
40.7889
40.2472
39.7029
39.1561
38.6069
38.0552
37.5011
36.9447
36.386
35.825
35.2619
34.6967
34.1296
33.5606
32.9897
32.4172
31.8432
31.2677
30.691
30.1131
29.5343
28.9546
28.3743
27.7936
27.2126
26.6315
26.0505
25.4699
24.8898
24.3104
23.7321
23.155
22.5793
22.0053
21.4333
20.8634
20.2958
19.731
19.169
18.6101
18.0545
17.5025
16.9543
16.4101
15.8701
15.3345
14.8036
14.2774
13.7561
13.24
12.7291
12.2237
11.7238
11.2295
10.7409
10.2583
9.78159
9.31102
8.84669
8.38862
7.93648
7.49005
7.04935
6.61413
6.18476
5.76125
5.34376
4.93277
4.52918
4.13462
3.75044
3.37962
3.02878
2.71312
2.47327
2.46583
4.10359
11.2832
6.9976
7.42369
8.49675
9.79619
11.2114
12.6956
14.2264
15.794
17.3911
19.0127
20.6549
22.3145
23.9882
25.6729
27.3651
29.0615
30.7582
32.4515
34.1373
35.8115
37.47
39.1087
40.7235
42.3104
43.8654
45.385
46.8656
48.304
49.6973
51.0427
52.3378
53.5807
54.7696
55.903
56.9798
57.9993
58.961
59.8646
60.7103
61.4984
62.2296
62.905
63.5263
64.096
64.6142
65.0812
65.4982
65.8663
66.1871
66.4622
66.6933
66.8822
67.0308
67.1408
67.214
67.2522
67.2573
67.2308
67.1745
67.0901
66.979
66.8429
66.6832
66.5012
66.2984
66.076
65.8352
65.5772
65.3031
65.0139
64.7107
64.3943
64.0656
63.7254
63.3745
63.0136
62.6434
62.2645
61.8775
61.4829
61.0812
60.6729
60.2584
59.8382
59.4125
58.9816
58.546
58.1059
57.6615
57.2131
56.7609
56.305
55.8457
55.383
54.9172
54.4482
53.9763
53.5016
53.024
52.5437
52.0607
51.5751
51.0868
50.5961
50.1027
49.6068
49.1084
48.6075
48.1041
47.5981
47.0897
46.5787
46.0651
45.5491
45.0304
44.5093
43.9855
43.4592
42.9303
42.3988
41.8647
41.3281
40.7889
40.2471
39.7029
39.1561
38.6068
38.0551
37.501
36.9446
36.3859
35.825
35.2619
34.6967
34.1295
33.5605
32.9897
32.4172
31.8431
31.2677
30.691
30.1131
29.5342
28.9546
28.3743
27.7935
27.2125
26.6314
26.0505
25.4698
24.8897
24.3104
23.7321
23.1549
22.5793
22.0053
21.4332
20.8633
20.2958
19.7309
19.1689
18.61
18.0545
17.5025
16.9543
16.4101
15.8701
15.3345
14.8035
14.2773
13.7561
13.24
12.7291
12.2237
11.7237
11.2295
10.7409
10.2583
9.78157
9.311
8.84668
8.3886
7.93647
7.49004
7.04934
6.61412
6.18475
5.76124
5.34375
4.93276
4.52917
4.13462
3.75044
3.37961
3.02878
2.71313
2.47327
2.46585
4.10356
16.398
9.12095
8.79578
9.44287
10.4229
11.5686
12.8131
14.1231
15.4799
16.872
18.2916
19.733
21.1917
22.6638
24.1461
25.6351
27.1276
28.6203
30.1097
31.5924
33.0649
34.5235
35.9648
37.385
38.7806
40.1484
41.4849
42.7871
44.0521
45.277
46.4596
47.5975
48.6889
49.7321
50.7257
51.6686
52.5601
53.3996
54.187
54.9221
55.6053
56.2371
56.8184
57.3504
57.8344
58.2712
58.6617
59.0068
59.3079
59.5662
59.7833
59.9607
60.1001
60.203
60.2712
60.3063
60.3099
60.2837
60.2292
60.148
60.0416
59.9115
59.759
59.5855
59.3923
59.1807
58.9518
58.7068
58.4467
58.1726
57.8853
57.5859
57.2751
56.9539
56.6228
56.2826
55.9341
55.5777
55.2141
54.8438
54.4673
54.085
53.6974
53.3048
52.9077
52.5063
52.101
51.692
51.2796
50.8639
50.4453
50.0239
49.5998
49.1733
48.7443
48.3132
47.8799
47.4446
47.0073
46.5681
46.127
45.6842
45.2396
44.7932
44.3452
43.8954
43.444
42.991
42.5362
42.0798
41.6217
41.1619
40.7004
40.2373
39.7724
39.3058
38.8375
38.3674
37.8956
37.4221
36.9468
36.4697
35.9909
35.5103
35.028
34.544
34.0582
33.5708
33.0817
32.5911
32.0988
31.6051
31.1098
30.6132
30.1152
29.6159
29.1154
28.6139
28.1113
27.6079
27.1037
26.5988
26.0934
25.5875
25.0814
24.5752
24.069
23.563
23.0574
22.5523
22.0479
21.5444
21.042
20.5409
20.0412
19.5432
19.047
18.5529
18.0611
17.5717
17.0851
16.6012
16.1205
15.643
15.1689
14.6985
14.232
13.7694
13.3111
12.857
12.4075
11.9627
11.5226
11.0875
10.6574
10.2326
9.813
9.39887
8.99028
8.58736
8.19021
7.79895
7.41364
7.0343
6.66096
6.29374
5.93281
5.57851
5.23121
4.8916
4.56074
4.24006
3.93181
3.63942
3.36877
3.13115
2.95104
2.89282
3.20581
6.07558
16.3982
9.1209
8.79567
9.44273
10.4227
11.5685
12.813
14.1229
15.4797
16.8719
18.2915
19.7328
21.1915
22.6637
24.1459
25.6349
27.1274
28.6201
30.1095
31.5922
33.0647
34.5234
35.9646
37.3848
38.7805
40.1482
41.4848
42.787
44.0519
45.2769
46.4594
47.5974
48.6887
49.7319
50.7255
51.6685
52.56
53.3995
54.1868
54.922
55.6052
56.237
56.8183
57.3503
57.8343
58.2711
58.6616
59.0067
59.3078
59.5661
59.7832
59.9606
60.1
60.2029
60.2711
60.3062
60.3099
60.2836
60.2292
60.148
60.0416
59.9114
59.7589
59.5854
59.3923
59.1806
58.9518
58.7067
58.4466
58.1725
57.8853
57.5858
57.2751
56.9538
56.6227
56.2826
55.934
55.5776
55.214
54.8437
54.4672
54.0849
53.6973
53.3048
52.9077
52.5063
52.101
51.692
51.2795
50.8639
50.4453
50.0238
49.5998
49.1732
48.7443
48.3131
47.8799
47.4445
47.0072
46.568
46.127
45.6841
45.2395
44.7932
44.3451
43.8954
43.444
42.9909
42.5362
42.0797
41.6217
41.1619
40.7004
40.2372
39.7724
39.3058
38.8375
38.3674
37.8956
37.422
36.9467
36.4697
35.9908
35.5103
35.028
34.5439
34.0582
33.5708
33.0817
32.591
32.0988
31.605
31.1098
30.6131
30.1151
29.6159
29.1154
28.6139
28.1113
27.6079
27.1037
26.5988
26.0933
25.5875
25.0814
24.5752
24.069
23.563
23.0574
22.5523
22.0479
21.5444
21.042
20.5409
20.0412
19.5432
19.047
18.5529
18.0611
17.5717
17.085
16.6012
16.1205
15.643
15.1689
14.6985
14.232
13.7694
13.3111
12.857
12.4075
11.9626
11.5226
11.0875
10.6574
10.2325
9.81299
9.39887
8.99028
8.58735
8.19021
7.79895
7.41364
7.03429
6.66095
6.29374
5.93281
5.57851
5.23121
4.89159
4.56074
4.24006
3.93181
3.63942
3.36876
3.13115
2.95104
2.89282
3.20582
6.07557
21.5304
11.4253
10.4363
10.7588
11.5256
12.5096
13.6205
14.8136
16.0632
17.3532
18.6729
20.0147
21.3727
22.7425
24.1202
25.5023
26.8857
28.2673
29.6439
31.0126
32.3702
33.7136
35.0397
36.3454
37.6275
38.8832
40.1095
41.3035
42.4628
43.5849
44.6674
45.7085
46.7062
47.6592
48.566
49.4257
50.2375
51.0009
51.7155
52.3814
52.9987
53.568
54.0899
54.5653
54.9952
55.3806
55.7223
56.0214
56.2792
56.4969
56.676
56.8178
56.924
56.9959
57.0353
57.0437
57.0226
56.9735
56.8979
56.7974
56.6733
56.5271
56.36
56.1734
55.9685
55.7465
55.5085
55.2556
54.9888
54.7091
54.4174
54.1146
53.8014
53.4788
53.1472
52.8076
52.4603
52.1062
51.7456
51.3792
51.0073
50.6304
50.249
49.8633
49.4737
49.0806
48.6842
48.2848
47.8825
47.4778
47.0706
46.6612
46.2498
45.8365
45.4215
45.0047
44.5864
44.1666
43.7454
43.3228
42.8989
42.4737
42.0474
41.6198
41.191
40.7611
40.3301
39.8978
39.4645
39.0299
38.5943
38.1574
37.7194
37.2802
36.8398
36.3982
35.9554
35.5113
35.066
34.6195
34.1717
33.7227
33.2724
32.8209
32.3681
31.9141
31.459
31.0026
30.545
30.0864
29.6266
29.1658
28.704
28.2412
27.7776
27.3131
26.8479
26.382
25.9155
25.4486
24.9812
24.5136
24.0458
23.578
23.1103
22.6427
22.1756
21.7089
21.2428
20.7776
20.3133
19.8502
19.3883
18.9279
18.4691
18.0122
17.5572
17.1044
16.6539
16.206
15.7608
15.3185
14.8792
14.4432
14.0106
13.5816
13.1564
12.7351
12.3179
11.9049
11.4962
11.0921
10.6927
10.2981
9.90844
9.52383
9.14442
8.77035
8.40174
8.03874
7.6815
7.33016
6.98488
6.64583
6.31321
5.98729
5.66847
5.35727
5.0544
4.76087
4.47814
4.20826
3.95443
3.72161
3.51823
3.36001
3.28047
3.3678
3.96412
8.03072
21.5307
11.4252
10.4361
10.7586
11.5254
12.5094
13.6204
14.8134
16.063
17.353
18.6727
20.0145
21.3725
22.7423
24.12
25.5021
26.8855
28.2671
29.6437
31.0124
32.37
33.7134
35.0395
36.3452
37.6274
38.883
40.1093
41.3034
42.4627
43.5847
44.6673
45.7083
46.7061
47.6591
48.5659
49.4256
50.2374
51.0007
51.7154
52.3813
52.9986
53.5679
54.0898
54.5652
54.9951
55.3805
55.7222
56.0213
56.2791
56.4969
56.6759
56.8177
56.9239
56.9959
57.0353
57.0436
57.0225
56.9734
56.8979
56.7973
56.6733
56.527
56.36
56.1733
55.9684
55.7464
55.5084
55.2555
54.9887
54.709
54.4174
54.1145
53.8014
53.4787
53.1472
52.8075
52.4603
52.1062
51.7456
51.3791
51.0073
50.6304
50.2489
49.8633
49.4737
49.0806
48.6842
48.2847
47.8825
47.4777
47.0706
46.6612
46.2498
45.8365
45.4214
45.0047
44.5864
44.1666
43.7453
43.3227
42.8989
42.4737
42.0473
41.6198
41.191
40.7611
40.33
39.8978
39.4644
39.0299
38.5942
38.1574
37.7194
37.2802
36.8398
36.3982
35.9553
35.5113
35.066
34.6195
34.1717
33.7227
33.2724
32.8209
32.3681
31.9141
31.4589
31.0026
30.545
30.0864
29.6266
29.1658
28.704
28.2412
27.7775
27.3131
26.8479
26.382
25.9155
25.4486
24.9812
24.5136
24.0458
23.578
23.1103
22.6427
22.1756
21.7089
21.2428
20.7776
20.3133
19.8502
19.3883
18.9279
18.4691
18.0122
17.5572
17.1044
16.6539
16.206
15.7608
15.3185
14.8792
14.4432
14.0106
13.5816
13.1564
12.7351
12.3179
11.9049
11.4962
11.0921
10.6927
10.2981
9.90844
9.52383
9.14442
8.77035
8.40174
8.03874
7.6815
7.33016
6.98488
6.64583
6.31321
5.98729
5.66847
5.35727
5.0544
4.76087
4.47814
4.20826
3.95443
3.72161
3.51823
3.36002
3.28047
3.3678
3.96413
8.03072
26.6585
13.8492
12.245
12.2949
12.8996
13.7712
14.7963
15.9187
17.1059
18.3379
19.601
20.8857
22.1849
23.4934
24.8069
26.1216
27.4346
28.7427
30.0434
31.3338
32.6113
33.8733
35.117
36.3397
37.539
38.7121
39.8566
40.97
42.05
43.0945
44.1015
45.069
45.9956
46.8798
47.7205
48.5166
49.2674
49.9724
50.6313
51.2441
51.811
52.3322
52.8084
53.2403
53.6288
53.9748
54.2791
54.543
54.7674
54.9537
55.1032
55.2173
55.2974
55.3449
55.3614
55.3483
55.3071
55.2393
55.1462
55.0294
54.8902
54.7299
54.5498
54.3511
54.1351
53.9029
53.6556
53.3941
53.1196
52.833
52.535
52.2267
51.9087
51.5817
51.2466
50.904
50.5544
50.1984
49.8365
49.4693
49.0972
48.7206
48.3399
47.9555
47.5676
47.1767
46.7829
46.3865
45.9878
45.5869
45.1841
44.7795
44.3732
43.9655
43.5563
43.1459
42.7343
42.3216
41.9078
41.4931
41.0774
40.6608
40.2434
39.8251
39.406
38.9862
38.5655
38.144
37.7218
37.2987
36.8749
36.4502
36.0248
35.5985
35.1713
34.7433
34.3145
33.8848
33.4542
33.0227
32.5903
32.157
31.7229
31.2878
30.8518
30.415
29.9773
29.5388
29.0994
28.6593
28.2184
27.7768
27.3345
26.8916
26.4481
26.0041
25.5597
25.1149
24.6698
24.2245
23.7791
23.3337
22.8884
22.4433
21.9986
21.5543
21.1105
20.6675
20.2253
19.7841
19.344
18.9052
18.4678
18.032
17.598
17.1659
16.7359
16.3081
15.8827
15.4599
15.0398
14.6226
14.2085
13.7977
13.3902
12.9863
12.5861
12.1897
11.7974
11.4093
11.0254
10.6461
10.2713
9.90127
9.53613
9.17601
8.82108
8.47147
8.12736
7.78892
7.45633
7.12982
6.80961
6.49598
6.18927
5.88991
5.59846
5.31566
5.04249
4.7803
4.53096
4.29718
4.08298
3.89473
3.74313
3.64831
3.6527
3.86825
4.72968
9.97631
26.6588
13.8491
12.2449
12.2947
12.8994
13.771
14.7962
15.9185
17.1057
18.3377
19.6008
20.8855
22.1848
23.4932
24.8067
26.1214
27.4344
28.7426
30.0432
31.3336
32.6112
33.8731
35.1168
36.3396
37.5388
38.712
39.8564
40.9698
42.0499
43.0944
44.1013
45.0689
45.9955
46.8797
47.7203
48.5164
49.2672
49.9722
50.6312
51.244
51.8109
52.3321
52.8083
53.2402
53.6287
53.9747
54.2791
54.5429
54.7673
54.9537
55.1032
55.2172
55.2973
55.3448
55.3613
55.3482
55.307
55.2392
55.1462
55.0294
54.8902
54.7299
54.5498
54.3511
54.1351
53.9029
53.6555
53.3941
53.1196
52.8329
52.535
52.2266
51.9086
51.5817
51.2466
50.9039
50.5543
50.1983
49.8365
49.4693
49.0972
48.7206
48.3399
47.9555
47.5676
47.1767
46.7829
46.3865
45.9878
45.5869
45.1841
44.7795
44.3732
43.9655
43.5563
43.1459
42.7343
42.3215
41.9078
41.493
41.0774
40.6608
40.2434
39.8251
39.406
38.9861
38.5655
38.144
37.7218
37.2987
36.8749
36.4502
36.0247
35.5985
35.1713
34.7433
34.3145
33.8848
33.4542
33.0227
32.5903
32.157
31.7229
31.2878
30.8518
30.415
29.9773
29.5388
29.0994
28.6593
28.2184
27.7768
27.3345
26.8916
26.4481
26.0041
25.5597
25.1149
24.6698
24.2245
23.7791
23.3337
22.8884
22.4433
21.9986
21.5543
21.1105
20.6675
20.2253
19.7841
19.344
18.9052
18.4678
18.032
17.598
17.1659
16.7359
16.3081
15.8827
15.4599
15.0398
14.6226
14.2085
13.7977
13.3902
12.9863
12.5861
12.1897
11.7974
11.4093
11.0254
10.6461
10.2713
9.90127
9.53613
9.17601
8.82108
8.47147
8.12736
7.78892
7.45633
7.12982
6.80961
6.49598
6.18927
5.88991
5.59846
5.31566
5.04249
4.7803
4.53096
4.29718
4.08298
3.89473
3.74313
3.64831
3.65271
3.86826
4.7297
9.97631
31.8413
16.3498
14.1793
13.9914
14.4645
15.2519
16.2174
17.2936
18.4419
19.6381
20.866
22.1144
23.3749
24.6417
25.9098
27.1756
28.4359
29.6879
30.9293
32.1577
33.3707
34.5662
35.742
36.8958
38.0256
39.129
40.2041
41.2487
42.2608
43.2386
44.1804
45.0845
45.9495
46.7741
47.5572
48.2981
48.9959
49.6502
50.2607
50.8274
51.3503
51.8298
52.2664
52.6606
53.0134
53.3254
53.5976
53.8311
54.0269
54.1862
54.3102
54.4003
54.4579
54.4843
54.4809
54.4492
54.3906
54.3063
54.198
54.0668
53.9141
53.7412
53.5493
53.3396
53.1134
52.8716
52.6154
52.3457
52.0635
51.7698
51.4653
51.151
50.8275
50.4956
50.1559
49.8092
49.4559
49.0967
48.732
48.3623
47.9882
47.6099
47.2279
46.8424
46.454
46.0627
45.6689
45.2729
44.8748
44.4749
44.0733
43.6703
43.2659
42.8602
42.4535
42.0458
41.6371
41.2277
40.8175
40.4065
39.9949
39.5827
39.1699
38.7565
38.3426
37.9281
37.5131
37.0976
36.6816
36.265
35.8479
35.4303
35.0121
34.5933
34.174
33.7541
33.3336
32.9125
32.4907
32.0684
31.6454
31.2218
30.7975
30.3726
29.9471
29.521
29.0942
28.6669
28.239
27.8106
27.3817
26.9523
26.5225
26.0922
25.6617
25.2309
24.7998
24.3687
23.9374
23.5062
23.0751
22.6441
22.2135
21.7832
21.3535
20.9243
20.4959
20.0684
19.6418
19.2163
18.7921
18.3693
17.948
17.5284
17.1106
16.6948
16.2811
15.8697
15.4607
15.0543
14.6507
14.25
13.8523
13.4578
13.0667
12.6792
12.2953
11.9152
11.5391
11.167
10.7993
10.436
10.0772
9.72312
9.37391
9.02973
8.69074
8.35713
8.02907
7.7068
7.39055
7.08059
6.77723
6.48085
6.19191
5.91097
5.63876
5.37622
5.12458
4.88551
4.66132
4.45529
4.27232
4.1201
4.01161
3.9711
4.04999
4.38407
5.50052
11.9177
31.8416
16.3497
14.1791
13.9912
14.4643
15.2517
16.2172
17.2934
18.4417
19.6379
20.8658
22.1142
23.3748
24.6415
25.9096
27.1754
28.4357
29.6878
30.9291
32.1575
33.3705
34.566
35.7418
36.8957
38.0254
39.1289
40.2039
41.2485
42.2607
43.2385
44.1803
45.0844
45.9493
46.774
47.5571
48.2979
48.9957
49.65
50.2606
50.8273
51.3502
51.8297
52.2663
52.6606
53.0133
53.3253
53.5976
53.831
54.0268
54.1861
54.3101
54.4003
54.4579
54.4843
54.4809
54.4492
54.3905
54.3063
54.1979
54.0667
53.914
53.7411
53.5493
53.3396
53.1133
52.8716
52.6153
52.3457
52.0635
51.7697
51.4653
51.1509
50.8274
50.4955
50.1559
49.8091
49.4559
49.0966
48.732
48.3623
47.9882
47.6099
47.2278
46.8424
46.4539
46.0627
45.6689
45.2729
44.8748
44.4749
44.0733
43.6702
43.2658
42.8602
42.4535
42.0458
41.6371
41.2277
40.8174
40.4065
39.9949
39.5827
39.1699
38.7565
38.3426
37.9281
37.5131
37.0976
36.6816
36.265
35.8479
35.4303
35.0121
34.5933
34.174
33.7541
33.3336
32.9124
32.4907
32.0684
31.6454
31.2217
30.7975
30.3726
29.9471
29.521
29.0942
28.6669
28.239
27.8106
27.3817
26.9523
26.5225
26.0922
25.6617
25.2309
24.7998
24.3687
23.9374
23.5062
23.0751
22.6441
22.2135
21.7832
21.3535
20.9243
20.4959
20.0684
19.6418
19.2163
18.7921
18.3693
17.948
17.5284
17.1106
16.6948
16.2811
15.8697
15.4607
15.0543
14.6507
14.25
13.8523
13.4578
13.0667
12.6792
12.2953
11.9152
11.5391
11.167
10.7993
10.436
10.0772
9.72312
9.37392
9.02973
8.69075
8.35713
8.02908
7.7068
7.39055
7.08059
6.77723
6.48085
6.19191
5.91097
5.63876
5.37622
5.12458
4.88551
4.66132
4.45529
4.27232
4.1201
4.01161
3.9711
4.05
4.38407
5.50055
11.9177
37.3203
18.9618
16.2305
15.8231
16.1833
16.9039
17.8257
18.8702
19.9927
21.1654
22.3695
23.5922
24.8241
26.0585
27.2904
28.5158
29.7317
30.9356
32.1252
33.2986
34.4541
35.5897
36.7039
37.7948
38.8607
39.8999
40.9108
41.8915
42.8404
43.7561
44.637
45.4817
46.2889
47.0577
47.7869
48.4759
49.124
49.7307
50.2958
50.8192
51.301
51.7415
52.141
52.5002
52.8196
53.1002
53.3427
53.5481
53.7174
53.8518
53.9525
54.0207
54.0576
54.0647
54.0431
53.9944
53.9198
53.8206
53.6982
53.5539
53.3889
53.2045
53.0018
52.7821
52.5464
52.2958
52.0313
51.754
51.4646
51.1642
50.8535
50.5334
50.2046
49.8677
49.5235
49.1725
48.8154
48.4527
48.0848
47.7123
47.3355
46.955
46.5709
46.1838
45.7938
45.4013
45.0066
44.6098
44.2113
43.8111
43.4095
43.0066
42.6027
42.1977
41.7918
41.3852
40.9778
40.5699
40.1614
39.7524
39.3429
38.933
38.5227
38.1121
37.7011
37.2898
36.8781
36.4662
36.0539
35.6413
35.2283
34.8151
34.4014
33.9874
33.5731
33.1583
32.7432
32.3277
31.9117
31.4953
31.0785
30.6613
30.2436
29.8256
29.407
28.9881
28.5688
28.1491
27.729
27.3085
26.8878
26.4667
26.0455
25.624
25.2024
24.7806
24.3589
23.9371
23.5155
23.094
22.6728
22.2519
21.8314
21.4115
20.9922
20.5736
20.1559
19.7391
19.3234
18.9089
18.4958
18.084
17.6739
17.2655
16.859
16.4545
16.0521
15.652
15.2544
14.8593
14.467
14.0776
13.6911
13.3079
12.928
12.5515
12.1787
11.8096
11.4444
11.0833
10.7264
10.3739
10.0259
9.68253
9.34405
9.0106
8.68238
8.35958
8.04244
7.73121
7.42619
7.1277
6.83614
6.55196
6.27574
6.00818
5.75016
5.50279
5.26757
5.04647
4.8422
4.65864
4.50154
4.37992
4.30902
4.31713
4.46483
4.91177
6.27807
13.8644
37.3206
18.9617
16.2304
15.8229
16.1831
16.9037
17.8255
18.87
19.9925
21.1652
22.3693
23.592
24.8239
26.0583
27.2902
28.5156
29.7315
30.9354
32.125
33.2985
34.4539
35.5896
36.7037
37.7946
38.8605
39.8998
40.9106
41.8913
42.8403
43.756
44.6368
45.4815
46.2888
47.0575
47.7868
48.4758
49.1238
49.7306
50.2957
50.8191
51.3009
51.7414
52.1409
52.5001
52.8195
53.1001
53.3426
53.548
53.7174
53.8518
53.9524
54.0206
54.0576
54.0646
54.0431
53.9943
53.9197
53.8206
53.6982
53.5539
53.3889
53.2045
53.0018
52.7821
52.5464
52.2958
52.0313
51.7539
51.4646
51.1642
50.8535
50.5334
50.2045
49.8677
49.5235
49.1725
48.8154
48.4527
48.0848
47.7123
47.3355
46.9549
46.5709
46.1837
45.7938
45.4013
45.0066
44.6098
44.2112
43.8111
43.4095
43.0066
42.6027
42.1977
41.7918
41.3852
40.9778
40.5699
40.1614
39.7523
39.3429
38.933
38.5227
38.1121
37.7011
37.2898
36.8781
36.4662
36.0539
35.6413
35.2283
34.815
34.4014
33.9874
33.5731
33.1583
32.7432
32.3276
31.9117
31.4953
31.0785
30.6613
30.2436
29.8255
29.407
28.9881
28.5688
28.1491
27.729
27.3085
26.8878
26.4667
26.0455
25.624
25.2023
24.7806
24.3588
23.9371
23.5155
23.094
22.6728
22.2519
21.8314
21.4115
20.9922
20.5736
20.1559
19.7391
19.3234
18.9089
18.4958
18.084
17.6739
17.2655
16.859
16.4545
16.0521
15.652
15.2544
14.8593
14.467
14.0776
13.6911
13.3079
12.928
12.5515
12.1787
11.8096
11.4444
11.0833
10.7264
10.3739
10.0259
9.68254
9.34406
9.01061
8.68238
8.35958
8.04244
7.73121
7.42619
7.1277
6.83614
6.55196
6.27575
6.00818
5.75016
5.5028
5.26757
5.04647
4.8422
4.65864
4.50154
4.37992
4.30902
4.31713
4.46483
4.91178
6.2781
13.8644
42.9719
21.6792
18.3933
17.7783
18.0379
18.7031
19.5912
20.6128
21.7173
22.873
24.0591
25.2612
26.469
27.6753
28.8746
30.063
31.2376
32.3961
33.5366
34.6576
35.7578
36.8357
37.8902
38.9201
39.924
40.9007
41.8488
42.7672
43.6544
44.5092
45.3304
46.1169
46.8676
47.5815
48.2579
48.896
49.4953
50.0554
50.576
51.057
51.4986
51.9009
52.2643
52.5892
52.8763
53.1264
53.3401
53.5185
53.6624
53.7729
53.8511
53.8983
53.9156
53.9042
53.8655
53.8007
53.711
53.5978
53.4623
53.3057
53.1293
52.9342
52.7215
52.4925
52.2481
51.9894
51.7174
51.433
51.1371
50.8305
50.5142
50.1888
49.855
49.5136
49.1652
48.8104
48.4497
48.0837
47.7128
47.3375
46.9583
46.5755
46.1894
45.8005
45.409
45.0151
44.6192
44.2215
43.8222
43.4215
43.0195
42.6164
42.2124
41.8075
41.402
40.9958
40.5891
40.1819
39.7744
39.3665
38.9583
38.5498
38.1412
37.7323
37.3232
36.914
36.5046
36.095
35.6853
35.2753
34.8653
34.455
34.0446
33.6339
33.223
32.812
32.4006
31.9891
31.5772
31.1652
30.7528
30.3402
29.9273
29.5142
29.1007
28.687
28.2731
27.8589
27.4446
27.03
26.6152
26.2003
25.7853
25.3703
24.9552
24.5402
24.1253
23.7105
23.296
22.8817
22.4678
22.0543
21.6414
21.2291
20.8175
20.4067
19.9968
19.5879
19.1802
18.7738
18.3687
17.9651
17.5631
17.1629
16.7645
16.3681
15.9739
15.582
15.1925
14.8055
14.4212
14.0398
13.6613
13.286
12.9139
12.5452
12.1801
11.8186
11.461
11.1074
10.758
10.4128
10.0722
9.73618
9.40502
9.07889
8.75802
8.44265
8.13302
7.82945
7.53228
7.24189
6.95874
6.6834
6.41653
6.15895
5.91169
5.67606
5.45378
5.24712
5.05921
4.89448
4.75955
4.66476
4.62761
4.68058
4.89341
5.45015
7.06544
15.8256
42.9723
21.679
18.3931
17.7781
18.0377
18.7029
19.591
20.6126
21.7171
22.8728
24.0589
25.261
26.4688
27.6751
28.8744
30.0628
31.2374
32.3959
33.5364
34.6575
35.7576
36.8355
37.8901
38.9199
39.9238
40.9005
41.8487
42.767
43.6542
44.5091
45.3303
46.1168
46.8675
47.5814
48.2578
48.8959
49.4952
50.0553
50.5759
51.057
51.4985
51.9008
52.2642
52.5891
52.8763
53.1263
53.3401
53.5184
53.6623
53.7728
53.8511
53.8983
53.9156
53.9042
53.8655
53.8006
53.711
53.5978
53.4623
53.3057
53.1292
52.9341
52.7215
52.4925
52.2481
51.9894
51.7173
51.4329
51.137
50.8305
50.5142
50.1887
49.855
49.5136
49.1652
48.8104
48.4497
48.0837
47.7128
47.3375
46.9583
46.5755
46.1894
45.8005
45.409
45.0151
44.6192
44.2215
43.8222
43.4214
43.0195
42.6164
42.2124
41.8075
41.402
40.9958
40.5891
40.1819
39.7744
39.3665
38.9583
38.5498
38.1412
37.7323
37.3232
36.914
36.5046
36.095
35.6852
35.2753
34.8653
34.455
34.0445
33.6339
33.223
32.8119
32.4006
31.9891
31.5772
31.1652
30.7528
30.3402
29.9273
29.5142
29.1007
28.687
28.2731
27.8589
27.4445
27.03
26.6152
26.2003
25.7853
25.3703
24.9552
24.5402
24.1253
23.7105
23.2959
22.8817
22.4678
22.0543
21.6414
21.2291
20.8174
20.4067
19.9968
19.5879
19.1802
18.7738
18.3687
17.9651
17.5631
17.1629
16.7645
16.3681
15.9739
15.582
15.1925
14.8055
14.4212
14.0398
13.6613
13.286
12.9139
12.5452
12.1801
11.8186
11.461
11.1074
10.758
10.4128
10.0722
9.73618
9.40502
9.0789
8.75803
8.44265
8.13303
7.82946
7.53228
7.24189
6.95875
6.6834
6.41653
6.15895
5.91169
5.67607
5.45378
5.24712
5.05921
4.89448
4.75955
4.66476
4.62761
4.68058
4.89341
5.45016
7.06547
15.8256
48.8282
24.5083
20.6675
19.8524
20.0197
20.637
21.4979
22.5019
23.5924
24.7344
25.9049
27.0881
28.273
29.4518
30.619
31.7706
32.9039
34.0169
35.108
36.1763
37.2208
38.2406
39.2351
40.2035
41.1449
42.0586
42.9437
43.7993
44.6243
45.4179
46.1792
46.9071
47.6009
48.2598
48.883
49.47
50.0203
50.5335
51.0094
51.448
51.8492
52.2133
52.5405
52.8313
53.0862
53.3059
53.4911
53.6426
53.7614
53.8484
53.9046
53.9312
53.9293
53.9
53.8445
53.7641
53.66
53.5333
53.3852
53.217
53.0297
52.8246
52.6026
52.3649
52.1124
51.8463
51.5673
51.2765
50.9747
50.6627
50.3412
50.0112
49.6731
49.3277
48.9757
48.6175
48.2537
47.8849
47.5115
47.1339
46.7526
46.3679
45.9802
45.5898
45.197
44.8021
44.4053
44.0068
43.6069
43.2057
42.8034
42.4002
41.9962
41.5915
41.1862
40.7804
40.3742
39.9677
39.561
39.154
38.7469
38.3396
37.9322
37.5248
37.1172
36.7097
36.3021
35.8944
35.4867
35.079
34.6712
34.2634
33.8555
33.4475
33.0394
32.6312