/*--------------------------------*- C++ -*----------------------------------*\
  =========                 |
  \\      /  F ield         | OpenFOAM: The Open Source CFD Toolbox
   \\    /   O peration     | Website:  https://openfoam.org
    \\  /    A nd           | Version:  8
     \\/     M anipulation  |
\*---------------------------------------------------------------------------*/
FoamFile
{
    version     2.0;
    format      ascii;
    class       volScalarField;
    location    "3400";
    object      k;
}
// * * * * * * * * * * * * * * * * * * * * * * * * * * * * * * * * * * * * * //

dimensions      [0 2 -2 0 0 0 0];

internalField   nonuniform List<scalar> 
48000
(
0.0313311
0.0694297
0.107318
0.140003
0.170746
0.198926
0.225093
0.249714
0.273591
0.296486
0.318562
0.339919
0.360615
0.380697
0.400199
0.419145
0.437552
0.455432
0.47279
0.489632
0.505958
0.521767
0.53706
0.551835
0.566089
0.579822
0.593032
0.605719
0.617884
0.629529
0.640655
0.651265
0.661365
0.670959
0.680054
0.688656
0.696774
0.704417
0.711593
0.718312
0.724585
0.730423
0.735834
0.740835
0.745524
0.749837
0.753771
0.757339
0.760554
0.76343
0.765981
0.76822
0.770161
0.771816
0.773197
0.774318
0.775189
0.775823
0.77623
0.776422
0.776409
0.7762
0.775806
0.775235
0.774497
0.773599
0.77255
0.771357
0.770027
0.768568
0.766986
0.765286
0.763475
0.761558
0.75954
0.757427
0.755221
0.752929
0.750553
0.748097
0.745565
0.74296
0.740285
0.737542
0.734734
0.731863
0.728931
0.725941
0.722893
0.71979
0.716632
0.713422
0.71016
0.706846
0.703483
0.70007
0.696609
0.693099
0.689541
0.685935
0.682282
0.678582
0.674834
0.671039
0.667196
0.663306
0.659367
0.65538
0.651345
0.647261
0.643127
0.638943
0.634709
0.630425
0.626088
0.6217
0.617259
0.612764
0.608216
0.603614
0.598956
0.594243
0.589474
0.584648
0.579765
0.574823
0.569823
0.564765
0.559647
0.554469
0.549232
0.543933
0.538574
0.533154
0.527673
0.522131
0.516527
0.510861
0.505134
0.499346
0.493497
0.487587
0.481616
0.475584
0.469493
0.463343
0.457133
0.450866
0.444541
0.438159
0.431721
0.425228
0.418681
0.41208
0.405427
0.398723
0.391969
0.385166
0.378315
0.371416
0.364473
0.357484
0.350452
0.343377
0.336261
0.329104
0.321907
0.314671
0.307396
0.300083
0.292731
0.285342
0.277913
0.270446
0.262938
0.255388
0.247795
0.240155
0.232466
0.224727
0.216941
0.209112
0.20128
0.193367
0.185346
0.177206
0.168926
0.16048
0.151839
0.142963
0.133802
0.124294
0.114466
0.104128
0.093108
0.0811636
0.0679017
0.0526377
0.0343339
0.0196472
0.03133
0.0694308
0.107319
0.140004
0.170747
0.198927
0.225094
0.249715
0.273593
0.296487
0.318563
0.33992
0.360616
0.380698
0.4002
0.419146
0.437553
0.455432
0.472791
0.489633
0.505958
0.521768
0.537061
0.551835
0.566089
0.579822
0.593032
0.60572
0.617885
0.629529
0.640655
0.651266
0.661365
0.670959
0.680054
0.688657
0.696774
0.704417
0.711593
0.718312
0.724586
0.730423
0.735834
0.740835
0.745524
0.749837
0.753771
0.757339
0.760554
0.76343
0.765981
0.76822
0.770161
0.771816
0.773197
0.774318
0.775189
0.775823
0.77623
0.776422
0.776409
0.7762
0.775806
0.775235
0.774497
0.773599
0.77255
0.771357
0.770027
0.768568
0.766986
0.765286
0.763475
0.761558
0.75954
0.757427
0.755221
0.752929
0.750553
0.748097
0.745565
0.74296
0.740285
0.737542
0.734734
0.731863
0.728931
0.725941
0.722893
0.71979
0.716632
0.713422
0.71016
0.706846
0.703483
0.70007
0.696609
0.693099
0.689541
0.685935
0.682282
0.678582
0.674834
0.671039
0.667196
0.663305
0.659367
0.65538
0.651345
0.647261
0.643127
0.638943
0.634709
0.630424
0.626088
0.6217
0.617259
0.612764
0.608216
0.603614
0.598956
0.594243
0.589474
0.584648
0.579764
0.574823
0.569823
0.564765
0.559647
0.554469
0.549232
0.543933
0.538574
0.533154
0.527673
0.52213
0.516527
0.510861
0.505134
0.499346
0.493497
0.487587
0.481616
0.475584
0.469493
0.463343
0.457133
0.450866
0.444541
0.438159
0.431721
0.425228
0.418681
0.41208
0.405427
0.398723
0.391969
0.385166
0.378315
0.371416
0.364473
0.357484
0.350452
0.343377
0.336261
0.329104
0.321907
0.314671
0.307396
0.300083
0.292731
0.285342
0.277913
0.270446
0.262938
0.255388
0.247795
0.240155
0.232466
0.224727
0.216941
0.209112
0.20128
0.193367
0.185346
0.177206
0.168926
0.16048
0.151839
0.142964
0.133802
0.124294
0.114466
0.104128
0.0931081
0.0811636
0.0679016
0.0526376
0.0343346
0.0196477
0.0708008
0.179068
0.255367
0.322631
0.38426
0.442176
0.497057
0.549348
0.599605
0.648123
0.695118
0.740751
0.785135
0.828353
0.870462
0.9115
0.951488
0.99044
1.02836
1.06523
1.10107
1.13584
1.16955
1.20218
1.23371
1.26413
1.29344
1.32163
1.34868
1.3746
1.39939
1.42305
1.44558
1.46699
1.48729
1.50649
1.52461
1.54166
1.55767
1.57266
1.58664
1.59964
1.61168
1.62279
1.63301
1.64236
1.65088
1.65859
1.66552
1.6717
1.67715
1.68192
1.68603
1.6895
1.69236
1.69465
1.69639
1.6976
1.69831
1.69855
1.69833
1.69768
1.69662
1.69518
1.69336
1.6912
1.6887
1.68589
1.68278
1.67939
1.67572
1.67181
1.66764
1.66325
1.65864
1.65383
1.64881
1.64361
1.63822
1.63266
1.62694
1.62107
1.61504
1.60886
1.60255
1.59611
1.58953
1.58283
1.57601
1.56906
1.56201
1.55484
1.54756
1.54018
1.53269
1.52509
1.51739
1.50959
1.50169
1.49369
1.48558
1.47738
1.46908
1.46068
1.45218
1.44358
1.43488
1.42607
1.41717
1.40816
1.39905
1.38983
1.3805
1.37107
1.36153
1.35189
1.34213
1.33225
1.32227
1.31217
1.30195
1.29162
1.28117
1.2706
1.25991
1.2491
1.23816
1.2271
1.21592
1.20461
1.19317
1.1816
1.16991
1.15809
1.14614
1.13406
1.12186
1.10952
1.09706
1.08446
1.07174
1.05889
1.04592
1.03281
1.01959
1.00623
0.99276
0.979165
0.96545
0.951617
0.937668
0.923605
0.90943
0.895144
0.880751
0.866252
0.85165
0.836947
0.822146
0.807249
0.792259
0.777178
0.762008
0.746752
0.731412
0.715989
0.700485
0.684903
0.669242
0.653503
0.637688
0.621794
0.605823
0.589772
0.573638
0.557419
0.541109
0.524704
0.508195
0.491576
0.474835
0.457962
0.440941
0.423738
0.40632
0.388682
0.370774
0.352553
0.33396
0.314922
0.295348
0.275118
0.254061
0.232027
0.20873
0.18377
0.15654
0.125995
0.0895636
0.0354809
0.0708022
0.17907
0.255369
0.322632
0.384261
0.442177
0.497057
0.549349
0.599606
0.648124
0.695119
0.740751
0.785135
0.828353
0.870462
0.9115
0.951488
0.99044
1.02836
1.06523
1.10107
1.13584
1.16955
1.20218
1.23371
1.26413
1.29344
1.32163
1.34868
1.3746
1.39939
1.42305
1.44558
1.46699
1.48729
1.50649
1.52461
1.54166
1.55767
1.57266
1.58664
1.59964
1.61168
1.62279
1.63301
1.64236
1.65088
1.65859
1.66552
1.6717
1.67715
1.68192
1.68602
1.6895
1.69236
1.69465
1.69639
1.6976
1.69831
1.69855
1.69833
1.69768
1.69662
1.69518
1.69336
1.6912
1.6887
1.68589
1.68278
1.67939
1.67572
1.6718
1.66764
1.66325
1.65864
1.65383
1.64881
1.6436
1.63822
1.63266
1.62694
1.62107
1.61504
1.60886
1.60255
1.5961
1.58953
1.58283
1.576
1.56906
1.56201
1.55484
1.54756
1.54018
1.53268
1.52509
1.51739
1.50959
1.50169
1.49369
1.48558
1.47738
1.46908
1.46068
1.45218
1.44358
1.43488
1.42607
1.41717
1.40816
1.39904
1.38983
1.3805
1.37107
1.36153
1.35188
1.34212
1.33225
1.32227
1.31217
1.30195
1.29162
1.28117
1.2706
1.25991
1.2491
1.23816
1.2271
1.21592
1.2046
1.19317
1.1816
1.16991
1.15809
1.14614
1.13406
1.12186
1.10952
1.09706
1.08446
1.07174
1.05889
1.04591
1.03281
1.01958
1.00623
0.99276
0.979164
0.96545
0.951617
0.937668
0.923604
0.909429
0.895143
0.88075
0.866251
0.851649
0.836946
0.822145
0.807249
0.792258
0.777177
0.762008
0.746752
0.731411
0.715988
0.700485
0.684902
0.669241
0.653503
0.637687
0.621794
0.605823
0.589771
0.573638
0.557418
0.541109
0.524703
0.508195
0.491575
0.474835
0.457962
0.440941
0.423738
0.40632
0.388682
0.370774
0.352552
0.333959
0.314922
0.295348
0.275117
0.254061
0.232027
0.20873
0.183769
0.15654
0.125995
0.0895638
0.0354803
0.107351
0.255542
0.351069
0.432768
0.507791
0.578676
0.646414
0.711541
0.774447
0.835398
0.894591
0.952173
1.00825
1.06291
1.1162
1.16817
1.21882
1.26819
1.31626
1.36302
1.40848
1.45261
1.49539
1.53682
1.57687
1.61553
1.65278
1.68861
1.72301
1.75598
1.78752
1.81761
1.84628
1.87352
1.89936
1.92379
1.94685
1.96854
1.9889
2.00795
2.02571
2.04223
2.05752
2.07162
2.08458
2.09642
2.1072
2.11693
2.12566
2.13343
2.14027
2.14622
2.15132
2.15561
2.15912
2.16188
2.16394
2.16532
2.16606
2.16618
2.16573
2.16472
2.16319
2.16116
2.15865
2.1557
2.15233
2.14855
2.1444
2.13988
2.13501
2.12983
2.12433
2.11854
2.11248
2.10615
2.09957
2.09275
2.0857
2.07844
2.07097
2.06331
2.05545
2.04741
2.0392
2.03082
2.02228
2.01358
2.00473
1.99573
1.98659
1.97731
1.96789
1.95834
1.94866
1.93885
1.92891
1.91885
1.90866
1.89835
1.88791
1.87735
1.86667
1.85586
1.84493
1.83388
1.8227
1.8114
1.79997
1.78842
1.77673
1.76492
1.75297
1.7409
1.72869
1.71634
1.70386
1.69124
1.67848
1.66557
1.65253
1.63934
1.626
1.61251
1.59888
1.58509
1.57116
1.55707
1.54282
1.52842
1.51386
1.49915
1.48427
1.46924
1.45405
1.4387
1.42319
1.40752
1.3917
1.37571
1.35956
1.34326
1.3268
1.31018
1.29341
1.27649
1.25941
1.24219
1.22482
1.2073
1.18964
1.17184
1.1539
1.13582
1.11761
1.09927
1.08081
1.06222
1.04351
1.02468
1.00574
0.986691
0.96753
0.948263
0.928893
0.909422
0.889852
0.870186
0.850424
0.830568
0.810617
0.790573
0.770433
0.750195
0.729858
0.709417
0.688866
0.668199
0.647408
0.626481
0.605408
0.584171
0.56275
0.541118
0.519243
0.497091
0.474613
0.451771
0.428499
0.404717
0.380325
0.355195
0.329157
0.30202
0.273491
0.243138
0.210248
0.17337
0.128142
0.0547549
0.107352
0.255543
0.35107
0.432768
0.507791
0.578676
0.646414
0.711541
0.774447
0.835398
0.894591
0.952172
1.00825
1.06291
1.1162
1.16817
1.21882
1.26819
1.31625
1.36302
1.40848
1.45261
1.49539
1.53682
1.57687
1.61553
1.65278
1.68861
1.72301
1.75598
1.78751
1.81761
1.84628
1.87352
1.89936
1.92379
1.94684
1.96854
1.9889
2.00795
2.02571
2.04223
2.05752
2.07162
2.08458
2.09642
2.1072
2.11693
2.12566
2.13343
2.14027
2.14622
2.15132
2.15561
2.15912
2.16188
2.16394
2.16532
2.16605
2.16618
2.16572
2.16472
2.16318
2.16115
2.15865
2.1557
2.15233
2.14855
2.14439
2.13987
2.13501
2.12983
2.12433
2.11854
2.11248
2.10615
2.09957
2.09275
2.0857
2.07844
2.07097
2.0633
2.05545
2.04741
2.0392
2.03082
2.02228
2.01358
2.00473
1.99573
1.98659
1.97731
1.96789
1.95834
1.94866
1.93885
1.92891
1.91885
1.90866
1.89835
1.88791
1.87735
1.86667
1.85586
1.84493
1.83388
1.8227
1.8114
1.79997
1.78842
1.77673
1.76492
1.75297
1.7409
1.72869
1.71634
1.70386
1.69124
1.67847
1.66557
1.65253
1.63933
1.626
1.61251
1.59888
1.58509
1.57115
1.55706
1.54282
1.52842
1.51386
1.49915
1.48427
1.46924
1.45405
1.4387
1.42319
1.40752
1.39169
1.37571
1.35956
1.34326
1.3268
1.31018
1.29341
1.27649
1.25941
1.24219
1.22482
1.2073
1.18964
1.17183
1.15389
1.13582
1.11761
1.09927
1.08081
1.06222
1.04351
1.02468
1.00574
0.98669
0.967529
0.948262
0.928892
0.909421
0.889851
0.870185
0.850423
0.830567
0.810617
0.790572
0.770432
0.750195
0.729857
0.709416
0.688865
0.668198
0.647407
0.626481
0.605407
0.58417
0.56275
0.541117
0.519242
0.497091
0.474613
0.451771
0.428499
0.404716
0.380325
0.355195
0.329157
0.302019
0.273491
0.243138
0.210248
0.17337
0.128142
0.0547552
0.137815
0.320624
0.431797
0.523972
0.60831
0.688086
0.764572
0.838384
0.909882
0.979301
1.04681
1.11253
1.17657
1.23898
1.29983
1.35915
1.41697
1.47329
1.52811
1.58145
1.63327
1.68358
1.73235
1.77957
1.82523
1.8693
1.91176
1.95262
1.99186
2.02946
2.06544
2.09978
2.1325
2.1636
2.19309
2.22099
2.24732
2.27209
2.29534
2.31709
2.33737
2.35623
2.37368
2.38978
2.40455
2.41805
2.43032
2.44139
2.45131
2.46012
2.46787
2.47459
2.48033
2.48512
2.48902
2.49207
2.49429
2.49573
2.49644
2.49643
2.49576
2.49445
2.49253
2.49004
2.487
2.48345
2.47941
2.4749
2.46995
2.46459
2.45884
2.45271
2.44622
2.4394
2.43227
2.42482
2.4171
2.40909
2.40083
2.39232
2.38358
2.3746
2.36542
2.35602
2.34643
2.33664
2.32668
2.31653
2.30621
2.29573
2.28508
2.27427
2.26331
2.2522
2.24095
2.22954
2.21799
2.2063
2.19447
2.1825
2.17039
2.15814
2.14576
2.13323
2.12057
2.10777
2.09482
2.08174
2.06852
2.05515
2.04164
2.02798
2.01417
2.00022
1.98612
1.97186
1.95746
1.94289
1.92817
1.91329
1.89825
1.88305
1.86768
1.85214
1.83644
1.82057
1.80453
1.78831
1.77193
1.75536
1.73863
1.72171
1.70462
1.68735
1.6699
1.65227
1.63446
1.61647
1.59831
1.57996
1.56144
1.54274
1.52387
1.50482
1.4856
1.4662
1.44664
1.4269
1.407
1.38694
1.36672
1.34634
1.32581
1.30512
1.28429
1.26331
1.24218
1.22092
1.19953
1.178
1.15634
1.13456
1.11266
1.09064
1.0685
1.04625
1.02389
1.00143
0.978852
0.956173
0.933389
0.9105
0.887505
0.864403
0.84119
0.817862
0.794414
0.770839
0.747128
0.72327
0.699251
0.675055
0.650662
0.626044
0.60117
0.576006
0.550507
0.524622
0.498286
0.47142
0.443935
0.4157
0.38655
0.356264
0.324549
0.290916
0.254488
0.213306
0.161278
0.0710953
0.137816
0.320625
0.431798
0.523972
0.60831
0.688086
0.764572
0.838384
0.909881
0.9793
1.04681
1.11253
1.17657
1.23898
1.29983
1.35915
1.41697
1.47329
1.52811
1.58145
1.63327
1.68358
1.73235
1.77957
1.82523
1.86929
1.91176
1.95262
1.99186
2.02946
2.06544
2.09978
2.1325
2.1636
2.19309
2.22099
2.24731
2.27209
2.29534
2.31709
2.33737
2.35622
2.37368
2.38977
2.40455
2.41805
2.43032
2.44139
2.45131
2.46012
2.46787
2.47459
2.48032
2.48512
2.48902
2.49206
2.49429
2.49573
2.49644
2.49643
2.49576
2.49444
2.49253
2.49004
2.487
2.48345
2.4794
2.4749
2.46995
2.46459
2.45884
2.45271
2.44622
2.4394
2.43226
2.42482
2.41709
2.40909
2.40083
2.39232
2.38358
2.3746
2.36542
2.35602
2.34643
2.33664
2.32667
2.31653
2.30621
2.29573
2.28508
2.27427
2.26331
2.2522
2.24094
2.22954
2.21799
2.2063
2.19447
2.1825
2.17039
2.15814
2.14576
2.13323
2.12057
2.10776
2.09482
2.08174
2.06851
2.05515
2.04163
2.02798
2.01417
2.00022
1.98612
1.97186
1.95745
1.94289
1.92817
1.91329
1.89825
1.88304
1.86768
1.85214
1.83644
1.82057
1.80453
1.78831
1.77193
1.75536
1.73863
1.72171
1.70462
1.68735
1.6699
1.65227
1.63446
1.61647
1.59831
1.57996
1.56144
1.54274
1.52387
1.50482
1.48559
1.4662
1.44663
1.4269
1.407
1.38694
1.36672
1.34634
1.32581
1.30512
1.28429
1.2633
1.24218
1.22092
1.19952
1.178
1.15634
1.13456
1.11266
1.09064
1.0685
1.04625
1.02389
1.00143
0.978851
0.956172
0.933388
0.910499
0.887505
0.864402
0.841189
0.817861
0.794413
0.770838
0.747127
0.723269
0.699251
0.675055
0.650661
0.626043
0.60117
0.576006
0.550507
0.524622
0.498285
0.47142
0.443935
0.4157
0.38655
0.356264
0.324549
0.290916
0.254488
0.213306
0.161278
0.0710954
0.165254
0.379255
0.505418
0.607604
0.700202
0.787511
0.871197
0.95202
1.03038
1.10651
1.18056
1.25265
1.32287
1.39127
1.45791
1.52283
1.58604
1.64758
1.70745
1.76564
1.82216
1.877
1.93014
1.98158
2.0313
2.07929
2.12554
2.17003
2.21276
2.25372
2.29291
2.33033
2.36599
2.39988
2.43204
2.46246
2.49118
2.51821
2.54358
2.56731
2.58946
2.61003
2.62909
2.64666
2.66279
2.67752
2.69089
2.70296
2.71376
2.72335
2.73176
2.73905
2.74526
2.75043
2.75461
2.75785
2.76019
2.76166
2.76232
2.7622
2.76133
2.75977
2.75753
2.75466
2.75119
2.74715
2.74257
2.73748
2.7319
2.72586
2.71939
2.7125
2.70522
2.69757
2.68958
2.68124
2.67259
2.66364
2.6544
2.64489
2.63512
2.62511
2.61485
2.60437
2.59367
2.58276
2.57164
2.56033
2.54884
2.53716
2.52531
2.51328
2.50108
2.48872
2.47619
2.46351
2.45067
2.43768
2.42453
2.41123
2.39778
2.38418
2.37043
2.35653
2.34248
2.32828
2.31392
2.29941
2.28475
2.26994
2.25496
2.23983
2.22454
2.20909
2.19348
2.1777
2.16176
2.14565
2.12937
2.11291
2.09628
2.07948
2.06249
2.04533
2.02799
2.01046
1.99274
1.97484
1.95676
1.93848
1.92001
1.90135
1.8825
1.86346
1.84422
1.82479
1.80517
1.78535
1.76534
1.74513
1.72473
1.70414
1.68336
1.6624
1.64124
1.6199
1.59837
1.57666
1.55477
1.53271
1.51047
1.48806
1.46548
1.44274
1.41984
1.39678
1.37357
1.3502
1.32669
1.30303
1.27924
1.25531
1.23125
1.20706
1.18274
1.15831
1.13375
1.10907
1.08428
1.05938
1.03436
1.00922
0.983974
0.95861
0.933128
0.907522
0.881789
0.855921
0.82991
0.803744
0.777411
0.750894
0.724172
0.697222
0.670014
0.642513
0.614677
0.586455
0.557786
0.528593
0.498779
0.468215
0.436737
0.404107
0.36999
0.333812
0.294485
0.249517
0.191218
0.0856253
0.165255
0.379256
0.505418
0.607604
0.700202
0.78751
0.871196
0.952019
1.03038
1.10651
1.18056
1.25265
1.32287
1.39127
1.45791
1.52283
1.58604
1.64758
1.70744
1.76564
1.82216
1.87699
1.93014
1.98158
2.0313
2.07929
2.12554
2.17003
2.21276
2.25372
2.29291
2.33033
2.36598
2.39988
2.43204
2.46246
2.49118
2.51821
2.54358
2.56731
2.58945
2.61003
2.62909
2.64666
2.66278
2.67752
2.69089
2.70296
2.71376
2.72335
2.73176
2.73905
2.74525
2.75043
2.75461
2.75785
2.76018
2.76166
2.76232
2.7622
2.76133
2.75977
2.75753
2.75466
2.75119
2.74715
2.74257
2.73748
2.7319
2.72586
2.71938
2.7125
2.70522
2.69757
2.68957
2.68124
2.67259
2.66364
2.6544
2.64489
2.63512
2.62511
2.61485
2.60437
2.59366
2.58275
2.57164
2.56033
2.54884
2.53716
2.5253
2.51328
2.50108
2.48872
2.47619
2.46351
2.45067
2.43768
2.42453
2.41123
2.39778
2.38418
2.37043
2.35653
2.34248
2.32827
2.31392
2.29941
2.28475
2.26994
2.25496
2.23983
2.22454
2.20909
2.19348
2.1777
2.16176
2.14565
2.12936
2.11291
2.09628
2.07948
2.06249
2.04533
2.02798
2.01046
1.99274
1.97484
1.95676
1.93848
1.92001
1.90135
1.8825
1.86346
1.84422
1.82479
1.80517
1.78535
1.76534
1.74513
1.72473
1.70414
1.68336
1.66239
1.64124
1.6199
1.59837
1.57666
1.55477
1.53271
1.51047
1.48806
1.46548
1.44274
1.41984
1.39678
1.37357
1.3502
1.32669
1.30303
1.27924
1.25531
1.23125
1.20706
1.18274
1.15831
1.13375
1.10907
1.08428
1.05937
1.03435
1.00922
0.983974
0.95861
0.933127
0.907522
0.881789
0.855921
0.829909
0.803744
0.777411
0.750894
0.724172
0.697222
0.670014
0.642513
0.614677
0.586455
0.557786
0.528593
0.498779
0.468215
0.436737
0.404107
0.36999
0.333812
0.294485
0.249517
0.191218
0.0856253
0.190549
0.434584
0.575193
0.687267
0.787826
0.882156
0.972351
1.05936
1.14366
1.22552
1.30509
1.38249
1.45781
1.5311
1.60243
1.67182
1.73932
1.80495
1.86873
1.93067
1.99078
2.04906
2.1055
2.16011
2.21286
2.26377
2.31282
2.36001
2.40532
2.44876
2.49033
2.53003
2.56787
2.60384
2.63798
2.67029
2.7008
2.72952
2.75648
2.78172
2.80527
2.82716
2.84744
2.86613
2.8833
2.89897
2.91321
2.92604
2.93753
2.94772
2.95665
2.96438
2.97095
2.97641
2.98082
2.98421
2.98663
2.98813
2.98875
2.98853
2.98751
2.98574
2.98325
2.98007
2.97625
2.97181
2.96679
2.96121
2.95512
2.94853
2.94146
2.93396
2.92603
2.9177
2.909
2.89993
2.89052
2.88079
2.87075
2.86041
2.8498
2.83891
2.82777
2.81639
2.80477
2.79292
2.78086
2.76859
2.75612
2.74345
2.73059
2.71754
2.70431
2.69091
2.67733
2.66359
2.64967
2.63559
2.62135
2.60694
2.59237
2.57764
2.56275
2.5477
2.53249
2.51711
2.50158
2.48588
2.47002
2.45399
2.4378
2.42144
2.40491
2.38821
2.37133
2.35428
2.33706
2.31965
2.30206
2.28429
2.26634
2.24819
2.22986
2.21134
2.19262
2.17371
2.1546
2.1353
2.11579
2.09608
2.07617
2.05606
2.03575
2.01522
1.9945
1.97356
1.95243
1.93108
1.90953
1.88777
1.86581
1.84365
1.82128
1.79871
1.77595
1.75298
1.72982
1.70647
1.68292
1.65919
1.63527
1.61117
1.58689
1.56243
1.5378
1.51301
1.48805
1.46292
1.43764
1.41221
1.38663
1.3609
1.33503
1.30902
1.28288
1.2566
1.2302
1.20367
1.17701
1.15023
1.12333
1.0963
1.06916
1.04188
1.01449
0.986959
0.959296
0.931491
0.903538
0.875424
0.847139
0.818665
0.789985
0.761076
0.731909
0.702451
0.672663
0.642496
0.611888
0.580764
0.549025
0.51654
0.48313
0.448532
0.412337
0.373888
0.331867
0.283267
0.218955
0.0989488
0.19055
0.434585
0.575193
0.687266
0.787825
0.882156
0.972351
1.05936
1.14366
1.22552
1.30509
1.38249
1.45781
1.5311
1.60243
1.67182
1.73932
1.80495
1.86873
1.93067
1.99078
2.04906
2.1055
2.1601
2.21286
2.26377
2.31282
2.36001
2.40532
2.44876
2.49033
2.53003
2.56786
2.60384
2.63798
2.67029
2.7008
2.72952
2.75648
2.78172
2.80527
2.82716
2.84744
2.86613
2.8833
2.89897
2.9132
2.92604
2.93753
2.94771
2.95665
2.96438
2.97095
2.97641
2.98082
2.98421
2.98663
2.98813
2.98875
2.98853
2.98751
2.98574
2.98324
2.98007
2.97624
2.97181
2.96679
2.96121
2.95512
2.94852
2.94146
2.93396
2.92603
2.9177
2.909
2.89993
2.89052
2.88079
2.87075
2.86041
2.84979
2.83891
2.82777
2.81639
2.80477
2.79292
2.78086
2.76859
2.75612
2.74345
2.73059
2.71754
2.70431
2.69091
2.67733
2.66359
2.64967
2.63559
2.62135
2.60694
2.59237
2.57764
2.56275
2.5477
2.53249
2.51711
2.50158
2.48588
2.47002
2.45399
2.4378
2.42144
2.40491
2.38821
2.37133
2.35428
2.33706
2.31965
2.30206
2.28429
2.26634
2.24819
2.22986
2.21134
2.19262
2.17371
2.1546
2.1353
2.11579
2.09608
2.07617
2.05606
2.03575
2.01522
1.9945
1.97356
1.95242
1.93108
1.90953
1.88777
1.86581
1.84365
1.82128
1.79871
1.77595
1.75298
1.72982
1.70647
1.68292
1.65919
1.63527
1.61117
1.58689
1.56243
1.5378
1.51301
1.48805
1.46292
1.43764
1.41221
1.38663
1.3609
1.33503
1.30902
1.28288
1.2566
1.2302
1.20367
1.17701
1.15023
1.12333
1.0963
1.06916
1.04188
1.01449
0.986958
0.959295
0.931491
0.903537
0.875424
0.847139
0.818665
0.789985
0.761075
0.731908
0.702451
0.672663
0.642496
0.611888
0.580764
0.549025
0.51654
0.48313
0.448532
0.412337
0.373888
0.331867
0.283267
0.218955
0.0989488
0.214507
0.487485
0.642544
0.764528
0.872978
0.97412
1.07047
1.1632
1.25289
1.33984
1.42425
1.50625
1.58591
1.66332
1.73854
1.81161
1.88258
1.95148
2.01836
2.08322
2.1461
2.20701
2.26594
2.32292
2.37795
2.43102
2.48214
2.5313
2.57851
2.62377
2.66708
2.70845
2.74788
2.78539
2.82099
2.85469
2.88653
2.91651
2.94467
2.97103
2.99564
3.01853
3.03973
3.05929
3.07725
3.09365
3.10854
3.12198
3.134
3.14465
3.154
3.16207
3.16894
3.17464
3.17922
3.18273
3.18522
3.18674
3.18733
3.18704
3.1859
3.18396
3.18126
3.17784
3.17373
3.16897
3.1636
3.15763
3.15112
3.14407
3.13653
3.12852
3.12006
3.11117
3.10188
3.09221
3.08217
3.07179
3.06108
3.05006
3.03874
3.02714
3.01526
3.00312
2.99074
2.97811
2.96525
2.95217
2.93888
2.92538
2.91167
2.89777
2.88367
2.86939
2.85493
2.84028
2.82545
2.81045
2.79528
2.77993
2.76442
2.74873
2.73287
2.71685
2.70065
2.68428
2.66774
2.65103
2.63415
2.6171
2.59986
2.58246
2.56487
2.5471
2.52915
2.51102
2.49269
2.47419
2.45549
2.43659
2.4175
2.39822
2.37874
2.35905
2.33917
2.31907
2.29877
2.27827
2.25755
2.23662
2.21548
2.19413
2.17256
2.15078
2.12878
2.10656
2.08413
2.06148
2.03861
2.01553
1.99223
1.96872
1.945
1.92106
1.89692
1.87256
1.848
1.82324
1.79827
1.77311
1.74775
1.7222
1.69645
1.67053
1.64441
1.61812
1.59166
1.56502
1.53822
1.51125
1.48412
1.45684
1.4294
1.40182
1.37409
1.34622
1.31821
1.29006
1.26178
1.23337
1.20482
1.17614
1.14733
1.11839
1.08931
1.0601
1.03074
1.00124
0.971575
0.941749
0.911747
0.881555
0.851153
0.820522
0.789635
0.758461
0.72696
0.695086
0.662776
0.629953
0.596515
0.562321
0.527174
0.490778
0.452663
0.412047
0.367394
0.315215
0.24507
0.111402
0.214509
0.487486
0.642544
0.764528
0.872977
0.974119
1.07047
1.1632
1.25288
1.33984
1.42425
1.50625
1.58591
1.66332
1.73854
1.81161
1.88258
1.95148
2.01836
2.08322
2.1461
2.207
2.26594
2.32292
2.37795
2.43102
2.48214
2.5313
2.57851
2.62377
2.66708
2.70845
2.74788
2.78539
2.82099
2.85469
2.88652
2.91651
2.94467
2.97103
2.99564
3.01853
3.03973
3.05929
3.07724
3.09365
3.10854
3.12198
3.134
3.14465
3.154
3.16207
3.16894
3.17463
3.17922
3.18273
3.18522
3.18674
3.18733
3.18704
3.1859
3.18396
3.18126
3.17784
3.17373
3.16897
3.1636
3.15763
3.15112
3.14407
3.13653
3.12852
3.12005
3.11117
3.10188
3.09221
3.08217
3.07179
3.06108
3.05006
3.03874
3.02714
3.01526
3.00312
2.99074
2.97811
2.96525
2.95217
2.93888
2.92538
2.91167
2.89777
2.88367
2.86939
2.85492
2.84028
2.82545
2.81045
2.79528
2.77993
2.76442
2.74873
2.73287
2.71684
2.70065
2.68428
2.66774
2.65103
2.63415
2.6171
2.59986
2.58246
2.56487
2.5471
2.52915
2.51102
2.49269
2.47418
2.45548
2.43659
2.4175
2.39822
2.37874
2.35905
2.33916
2.31907
2.29877
2.27827
2.25755
2.23662
2.21548
2.19413
2.17256
2.15078
2.12878
2.10656
2.08413
2.06148
2.03861
2.01553
1.99223
1.96872
1.945
1.92106
1.89692
1.87256
1.848
1.82324
1.79827
1.77311
1.74775
1.7222
1.69645
1.67052
1.64441
1.61812
1.59166
1.56502
1.53822
1.51125
1.48412
1.45684
1.4294
1.40182
1.37409
1.34622
1.31821
1.29006
1.26178
1.23337
1.20482
1.17614
1.14733
1.11839
1.08931
1.0601
1.03074
1.00124
0.971575
0.941749
0.911747
0.881554
0.851153
0.820522
0.789635
0.758461
0.72696
0.695085
0.662776
0.629953
0.596515
0.562321
0.527174
0.490778
0.452663
0.412047
0.367394
0.315215
0.24507
0.111402
0.238457
0.539094
0.708402
0.840271
0.956578
1.06442
1.16672
1.26487
1.35955
1.45116
1.53991
1.62595
1.7094
1.79033
1.86883
1.94494
2.01874
2.09028
2.1596
2.22675
2.29175
2.35464
2.41544
2.47416
2.53084
2.58547
2.63806
2.68864
2.73719
2.78373
2.82827
2.87081
2.91138
2.94997
2.9866
3.0213
3.05408
3.08497
3.11399
3.14118
3.16657
3.19018
3.21207
3.23227
3.25082
3.26778
3.28317
3.29706
3.30949
3.32051
3.33017
3.33852
3.34561
3.3515
3.35622
3.35984
3.36239
3.36393
3.3645
3.36415
3.36292
3.36086
3.35799
3.35438
3.35004
3.34503
3.33937
3.33309
3.32624
3.31883
3.3109
3.30247
3.29357
3.28423
3.27446
3.26429
3.25374
3.24283
3.23157
3.21998
3.20808
3.19588
3.18339
3.17063
3.1576
3.14432
3.1308
3.11704
3.10306
3.08885
3.07444
3.05981
3.04499
3.02996
3.01475
2.99934
2.98374
2.96796
2.952
2.93586
2.91953
2.90303
2.88635
2.86949
2.85246
2.83524
2.81785
2.80027
2.78252
2.76458
2.74646
2.72815
2.70966
2.69098
2.6721
2.65304
2.63378
2.61432
2.59466
2.57481
2.55475
2.53448
2.51401
2.49332
2.47243
2.45132
2.42999
2.40845
2.38669
2.36471
2.34251
2.32008
2.29743
2.27456
2.25146
2.22814
2.20458
2.18081
2.1568
2.13258
2.10812
2.08345
2.05855
2.03343
2.00808
1.98252
1.95675
1.93076
1.90456
1.87815
1.85153
1.82471
1.79769
1.77048
1.74307
1.71547
1.68769
1.65972
1.63158
1.60326
1.57478
1.54612
1.5173
1.48833
1.45919
1.42991
1.40047
1.37089
1.34116
1.31129
1.28127
1.25112
1.22082
1.19038
1.15979
1.12906
1.09818
1.06714
1.03594
1.00457
0.973015
0.941268
0.909309
0.87712
0.844674
0.811942
0.778885
0.745455
0.71159
0.677209
0.642201
0.606414
0.569627
0.531509
0.491526
0.448763
0.401491
0.345779
0.269952
0.123224
0.238459
0.539095
0.708403
0.840271
0.956578
1.06442
1.16672
1.26487
1.35955
1.45115
1.53991
1.62595
1.7094
1.79033
1.86882
1.94494
2.01874
2.09028
2.1596
2.22675
2.29175
2.35464
2.41544
2.47416
2.53084
2.58547
2.63806
2.68863
2.73719
2.78373
2.82827
2.87081
2.91137
2.94997
2.9866
3.0213
3.05408
3.08497
3.11399
3.14118
3.16656
3.19018
3.21207
3.23227
3.25082
3.26778
3.28317
3.29706
3.30949
3.32051
3.33017
3.33852
3.34561
3.3515
3.35622
3.35984
3.36239
3.36393
3.3645
3.36415
3.36292
3.36085
3.35799
3.35438
3.35004
3.34503
3.33937
3.33309
3.32624
3.31883
3.3109
3.30247
3.29357
3.28423
3.27446
3.26429
3.25374
3.24283
3.23157
3.21998
3.20808
3.19588
3.18339
3.17062
3.1576
3.14432
3.1308
3.11704
3.10306
3.08885
3.07444
3.05981
3.04499
3.02996
3.01474
2.99934
2.98374
2.96796
2.952
2.93586
2.91953
2.90303
2.88635
2.86949
2.85246
2.83524
2.81785
2.80027
2.78252
2.76458
2.74646
2.72815
2.70966
2.69098
2.6721
2.65304
2.63378
2.61432
2.59466
2.57481
2.55475
2.53448
2.51401
2.49332
2.47243
2.45132
2.42999
2.40845
2.38669
2.36471
2.34251
2.32008
2.29743
2.27456
2.25146
2.22813
2.20458
2.18081
2.1568
2.13258
2.10812
2.08345
2.05855
2.03342
2.00808
1.98252
1.95675
1.93076
1.90456
1.87815
1.85153
1.82471
1.79769
1.77048
1.74307
1.71547
1.68769
1.65972
1.63158
1.60326
1.57478
1.54612
1.5173
1.48833
1.45919
1.42991
1.40047
1.37089
1.34116
1.31129
1.28127
1.25111
1.22082
1.19038
1.15979
1.12906
1.09818
1.06714
1.03594
1.00457
0.973015
0.941268
0.909309
0.877119
0.844674
0.811941
0.778885
0.745455
0.71159
0.677209
0.642201
0.606414
0.569627
0.531509
0.491526
0.448763
0.401491
0.345779
0.269953
0.123224
0.261961
0.589919
0.773322
0.915038
1.03917
1.15363
1.26172
1.36506
1.46445
1.56035
1.65304
1.74271
1.82947
1.91344
1.99471
2.07336
2.14947
2.22311
2.29434
2.36323
2.42982
2.49416
2.55629
2.61625
2.67406
2.72975
2.78334
2.83485
2.88428
2.93166
2.977
3.02031
3.06161
3.10091
3.13823
3.17358
3.20699
3.23849
3.2681
3.29585
3.32177
3.34589
3.36826
3.38891
3.40789
3.42524
3.441
3.45522
3.46796
3.47925
3.48914
3.4977
3.50497
3.51099
3.51583
3.51952
3.52213
3.52369
3.52425
3.52386
3.52256
3.5204
3.51741
3.51365
3.50914
3.50393
3.49804
3.49152
3.4844
3.4767
3.46846
3.4597
3.45046
3.44075
3.4306
3.42003
3.40906
3.39771
3.386
3.37395
3.36157
3.34888
3.33589
3.32261
3.30905
3.29524
3.28116
3.26684
3.25229
3.2375
3.22249
3.20726
3.19182
3.17618
3.16033
3.14428
3.12804
3.1116
3.09497
3.07816
3.06115
3.04396
3.02658
3.00902
2.99127
2.97333
2.95521
2.93689
2.91839
2.8997
2.88082
2.86175
2.84248
2.82301
2.80335
2.78349
2.76342
2.74315
2.72267
2.70198
2.68109
2.65997
2.63865
2.6171
2.59534
2.57335
2.55114
2.52871
2.50604
2.48315
2.46003
2.43668
2.41309
2.38928
2.36522
2.34094
2.31642
2.29166
2.26667
2.24144
2.21598
2.19029
2.16437
2.13821
2.11183
2.08521
2.05837
2.03131
2.00403
1.97653
1.94881
1.92087
1.89273
1.86438
1.83583
1.80708
1.77813
1.74898
1.71965
1.69013
1.66043
1.63056
1.6005
1.57028
1.53989
1.50933
1.47861
1.44773
1.41669
1.3855
1.35415
1.32265
1.291
1.25919
1.22723
1.19511
1.16283
1.13039
1.09777
1.06498
1.032
0.998816
0.965418
0.931785
0.897893
0.863712
0.829204
0.794319
0.758991
0.723135
0.686631
0.64931
0.610929
0.571113
0.529267
0.484359
0.43446
0.375222
0.293817
0.134587
0.261962
0.58992
0.773322
0.915038
1.03917
1.15363
1.26172
1.36506
1.46444
1.56035
1.65304
1.74271
1.82947
1.91344
1.99471
2.07336
2.14947
2.22311
2.29434
2.36323
2.42982
2.49416
2.55629
2.61625
2.67406
2.72975
2.78334
2.83485
2.88428
2.93166
2.977
3.02031
3.06161
3.10091
3.13822
3.17358
3.20699
3.23849
3.2681
3.29585
3.32177
3.34589
3.36826
3.38891
3.40789
3.42524
3.441
3.45522
3.46795
3.47924
3.48914
3.4977
3.50497
3.51099
3.51583
3.51952
3.52213
3.52368
3.52425
3.52386
3.52256
3.5204
3.51741
3.51365
3.50914
3.50393
3.49804
3.49152
3.4844
3.4767
3.46846
3.4597
3.45046
3.44075
3.4306
3.42003
3.40906
3.39771
3.386
3.37395
3.36157
3.34888
3.33589
3.32261
3.30905
3.29524
3.28116
3.26684
3.25229
3.2375
3.22249
3.20726
3.19182
3.17618
3.16033
3.14428
3.12804
3.1116
3.09497
3.07816
3.06115
3.04396
3.02658
3.00902
2.99127
2.97333
2.95521
2.93689
2.91839
2.8997
2.88082
2.86175
2.84248
2.82301
2.80335
2.78349
2.76342
2.74315
2.72267
2.70198
2.68109
2.65997
2.63865
2.6171
2.59534
2.57335
2.55114
2.52871
2.50604
2.48315
2.46003
2.43668
2.41309
2.38928
2.36522
2.34094
2.31642
2.29166
2.26667
2.24144
2.21598
2.19029
2.16437
2.13821
2.11183
2.08521
2.05837
2.03131
2.00403
1.97652
1.94881
1.92087
1.89273
1.86438
1.83583
1.80708
1.77813
1.74898
1.71965
1.69013
1.66043
1.63056
1.6005
1.57028
1.53989
1.50933
1.47861
1.44773
1.41669
1.3855
1.35415
1.32265
1.291
1.25919
1.22723
1.19511
1.16283
1.13039
1.09777
1.06498
1.032
0.998816
0.965418