/*--------------------------------*- C++ -*----------------------------------*\
  =========                 |
  \\      /  F ield         | OpenFOAM: The Open Source CFD Toolbox
   \\    /   O peration     | Website:  https://openfoam.org
    \\  /    A nd           | Version:  8
     \\/     M anipulation  |
\*---------------------------------------------------------------------------*/
FoamFile
{
    version     2.0;
    format      ascii;
    class       surfaceScalarField;
    location    "3400";
    object      phi;
}
// * * * * * * * * * * * * * * * * * * * * * * * * * * * * * * * * * * * * * //

dimensions      [1 0 -1 0 0 0 0];

internalField   nonuniform List<scalar> 
119360
(
-3.4982e-07
1.49003e-12
3.49816e-07
-6.16689e-07
-9.86266e-13
2.6688e-07
-7.42962e-07
-2.10792e-12
1.26251e-07
-7.40277e-07
-1.6121e-12
-2.69945e-09
-6.42431e-07
-1.10251e-12
-9.78573e-08
-4.79534e-07
-9.23927e-13
-1.62908e-07
-2.73607e-07
-6.87227e-13
-2.05935e-07
-4.02784e-08
-2.58903e-13
-2.33336e-07
2.0892e-07
1.73834e-13
-2.49206e-07
4.65562e-07
4.10034e-13
-2.56651e-07
7.24148e-07
4.23384e-13
-2.58596e-07
9.80804e-07
2.78139e-13
-2.56669e-07
1.23276e-06
7.41082e-14
-2.51972e-07
1.47802e-06
-1.13658e-13
-2.45273e-07
1.71513e-06
-2.46358e-13
-2.3712e-07
1.94303e-06
-3.15497e-13
-2.27918e-07
2.16099e-06
-3.30429e-13
-2.1797e-07
2.36849e-06
-3.06948e-13
-2.07509e-07
2.5652e-06
-2.60901e-13
-1.9672e-07
2.75094e-06
-2.04974e-13
-1.85746e-07
2.92564e-06
-1.47936e-13
-1.74707e-07
3.08932e-06
-9.52006e-14
-1.63697e-07
3.24211e-06
-4.94594e-14
-1.52793e-07
3.38416e-06
-1.19894e-14
-1.42062e-07
3.51571e-06
1.74038e-14
-1.31555e-07
3.63702e-06
3.92752e-14
-1.21316e-07
3.74839e-06
5.46518e-14
-1.1138e-07
3.85016e-06
6.48243e-14
-1.01777e-07
3.94268e-06
7.09444e-14
-9.25286e-08
4.02633e-06
7.40531e-14
-8.36525e-08
4.10148e-06
7.50245e-14
-7.51615e-08
4.16854e-06
7.44417e-14
-6.70643e-08
4.2279e-06
7.29568e-14
-5.93656e-08
4.27996e-06
7.08752e-14
-5.20674e-08
4.32512e-06
6.84882e-14
-4.51684e-08
4.36378e-06
6.60457e-14
-3.8665e-08
4.39633e-06
6.352e-14
-3.25512e-08
4.42314e-06
6.10776e-14
-2.68193e-08
4.44459e-06
5.86628e-14
-2.14597e-08
4.46105e-06
5.63175e-14
-1.64617e-08
4.47285e-06
5.40971e-14
-1.18134e-08
4.48035e-06
5.19599e-14
-7.50198e-09
4.48386e-06
4.99338e-14
-3.5139e-09
4.48369e-06
4.79909e-14
1.66537e-10
4.48013e-06
4.62424e-14
3.55369e-09
4.47346e-06
4.46464e-14
6.66157e-09
4.46395e-06
4.3217e-14
9.506e-09
4.45184e-06
4.18432e-14
1.21022e-08
4.43737e-06
4.06219e-14
1.44649e-08
4.42076e-06
3.95672e-14
1.66084e-08
4.40221e-06
3.85542e-14
1.85469e-08
4.38191e-06
3.7777e-14
2.0294e-08
4.36004e-06
3.70554e-14
2.1863e-08
4.33677e-06
3.6528e-14
2.32666e-08
4.31224e-06
3.6084e-14
2.45172e-08
4.28661e-06
3.57509e-14
2.56264e-08
4.26e-06
3.57093e-14
2.66054e-08
4.23253e-06
3.56399e-14
2.74645e-08
4.20432e-06
3.57509e-14
2.82139e-08
4.17545e-06
3.60424e-14
2.88627e-08
4.14602e-06
3.64032e-14
2.94197e-08
4.11613e-06
3.69167e-14
2.98932e-08
4.08583e-06
3.74718e-14
3.02905e-08
4.05521e-06
3.82212e-14
3.06189e-08
4.02432e-06
3.89983e-14
3.08849e-08
3.99322e-06
3.99143e-14
3.10945e-08
3.96196e-06
4.08718e-14
3.12533e-08
3.93059e-06
4.1871e-14
3.13664e-08
3.89915e-06
4.2898e-14
3.14385e-08
3.86767e-06
4.40082e-14
3.14741e-08
3.83619e-06
4.51045e-14
3.1477e-08
3.80473e-06
4.62564e-14
3.14509e-08
3.77333e-06
4.73943e-14
3.13991e-08
3.742e-06
4.86017e-14
3.13247e-08
3.71076e-06
4.98229e-14
3.12305e-08
3.67964e-06
5.10164e-14
3.11191e-08
3.64864e-06
5.22792e-14
3.09926e-08
3.61778e-06
5.35144e-14
3.08534e-08
3.58708e-06
5.47078e-14
3.07032e-08
3.55653e-06
5.59013e-14
3.0544e-08
3.52615e-06
5.70393e-14
3.03774e-08
3.49594e-06
5.81217e-14
3.02047e-08
3.4659e-06
5.92458e-14
3.00276e-08
3.43605e-06
6.04115e-14
2.98471e-08
3.40638e-06
6.14939e-14
2.96645e-08
3.3769e-06
6.25348e-14
2.94808e-08
3.3476e-06
6.35339e-14
2.92971e-08
3.31848e-06
6.45747e-14
2.91144e-08
3.28954e-06
6.55045e-14
2.89334e-08
3.26078e-06
6.63788e-14
2.8755e-08
3.23219e-06
6.73086e-14
2.85799e-08
3.20378e-06
6.81967e-14
2.8409e-08
3.17553e-06
6.90571e-14
2.82427e-08
3.14745e-06
6.98898e-14
2.80819e-08
3.11951e-06
7.06669e-14
2.79271e-08
3.09173e-06
7.14163e-14
2.77788e-08
3.06409e-06
7.21657e-14
2.76377e-08
3.03658e-06
7.28873e-14
2.75042e-08
3.00919e-06
7.36228e-14
2.73788e-08
2.98193e-06
7.42334e-14
2.72621e-08
2.95477e-06
7.48162e-14
2.71545e-08
2.9277e-06
7.5524e-14
2.70565e-08
2.90073e-06
7.6079e-14
2.69684e-08
2.87383e-06
7.6648e-14
2.68907e-08
2.84701e-06
7.71753e-14
2.68238e-08
2.82023e-06
7.77582e-14
2.67681e-08
2.7935e-06
7.82855e-14
2.6724e-08
2.76681e-06
7.87573e-14
2.66919e-08
2.74013e-06
7.92569e-14
2.66721e-08
2.71346e-06
7.97287e-14
2.66649e-08
2.68678e-06
8.02283e-14
2.66708e-08
2.66009e-06
8.0603e-14
2.66901e-08
2.63336e-06
8.1047e-14
2.67231e-08
2.60658e-06
8.14911e-14
2.67701e-08
2.57974e-06
8.19491e-14
2.68314e-08
2.55283e-06
8.24209e-14
2.69074e-08
2.52583e-06
8.28094e-14
2.69983e-08
2.49872e-06
8.32396e-14
2.71044e-08
2.47149e-06
8.37253e-14
2.7226e-08
2.44412e-06
8.41833e-14
2.73634e-08
2.41659e-06
8.47106e-14
2.75168e-08
2.3889e-06
8.51547e-14
2.76865e-08
2.36102e-06
8.5682e-14
2.78726e-08
2.33294e-06
8.62093e-14
2.80755e-08
2.30464e-06
8.67922e-14
2.82952e-08
2.2761e-06
8.73473e-14
2.8532e-08
2.24731e-06
8.79024e-14
2.8786e-08
2.21825e-06
8.85407e-14
2.90574e-08
2.1889e-06
8.92346e-14
2.93463e-08
2.15924e-06
8.99007e-14
2.96528e-08
2.12925e-06
9.07056e-14
2.99769e-08
2.09893e-06
9.15105e-14
3.03187e-08
2.06824e-06
9.22877e-14
3.06783e-08
2.03718e-06
9.31481e-14
3.10555e-08
2.00573e-06
9.4064e-14
3.14503e-08
1.97386e-06
9.50077e-14
3.18627e-08
1.94156e-06
9.60069e-14
3.22924e-08
1.90881e-06
9.71171e-14
3.27394e-08
1.8756e-06
9.82273e-14
3.32034e-08
1.84191e-06
9.9393e-14
3.36841e-08
1.80773e-06
1.00586e-13
3.41812e-08
1.77302e-06
1.01835e-13
3.46943e-08
1.73779e-06
1.03168e-13
3.5223e-08
1.70202e-06
1.045e-13
3.57668e-08
1.66569e-06
1.06027e-13
3.6325e-08
1.62879e-06
1.07664e-13
3.68971e-08
1.5913e-06
1.0944e-13
3.74823e-08
1.55321e-06
1.11328e-13
3.80798e-08
1.51451e-06
1.13437e-13
3.86886e-08
1.4752e-06
1.15824e-13
3.93079e-08
1.43525e-06
1.18405e-13
3.99364e-08
1.39467e-06
1.21237e-13
4.0573e-08
1.35345e-06
1.24428e-13
4.12163e-08
1.31158e-06
1.27926e-13
4.18648e-08
1.26905e-06
1.31784e-13
4.25169e-08
1.22587e-06
1.35975e-13
4.31709e-08
1.18204e-06
1.40638e-13
4.38248e-08
1.13756e-06
1.45523e-13
4.44764e-08
1.09243e-06
1.50657e-13
4.51234e-08
1.04665e-06
1.56292e-13
4.57633e-08
1.00025e-06
1.62037e-13
4.63932e-08
9.53234e-07
1.67949e-13
4.70099e-08
9.05615e-07
1.73944e-13
4.76102e-08
8.57415e-07
1.79662e-13
4.81901e-08
8.0866e-07
1.85158e-13
4.87455e-08
7.59379e-07
1.89931e-13
4.92718e-08
7.09605e-07
1.94123e-13
4.97637e-08
6.5938e-07
1.9737e-13
5.02156e-08
6.08748e-07
1.9923e-13
5.06209e-08
5.57765e-07
2.00118e-13
5.09726e-08
5.06492e-07
1.99979e-13
5.12625e-08
4.54999e-07
1.98924e-13
5.14814e-08
4.03369e-07
1.97675e-13
5.16191e-08
3.51694e-07
1.96981e-13
5.16637e-08
3.0008e-07
1.97842e-13
5.16021e-08
2.48649e-07
2.01395e-13
5.14188e-08
1.9754e-07
2.08528e-13
5.10964e-08
1.46914e-07
2.20102e-13
5.06143e-08
9.6952e-08
2.35922e-13
4.99487e-08
4.78697e-08
2.55351e-13
4.90691e-08
-8.75918e-11
2.76001e-13
4.79437e-08
-4.66083e-08
2.92599e-13
4.65067e-08
-9.13357e-08
3.04201e-13
4.4713e-08
-1.33883e-07
3.12417e-13
4.25327e-08
-1.7381e-07
3.13472e-13
3.99118e-08
-2.106e-07
3.06422e-13
3.6774e-08
-2.43633e-07
2.91045e-13
3.30175e-08
-2.72187e-07
2.69673e-13
2.85379e-08
-2.95404e-07
2.46969e-13
2.32004e-08
-3.12267e-07
2.31482e-13
1.68469e-08
-3.21577e-07
2.35367e-13
9.29209e-09
-3.21917e-07
2.68285e-13
3.22766e-10
-3.1171e-07
3.24019e-13
-1.02259e-08
-2.89251e-07
3.79752e-13
-2.24788e-08
-2.52841e-07
4.08729e-13
-3.64313e-08
-2.01291e-07
4.2355e-13
-5.15727e-08
-1.35179e-07
4.86833e-13
-6.61361e-08
-5.97135e-08
5.61551e-13
-7.54937e-08
2.83166e-09
5.95967e-13
-6.25855e-08
3.84802e-13
2.76808e-09
-3.49838e-07
3.49814e-07
-6.16694e-07
2.66881e-07
-7.42959e-07
1.26252e-07
-7.40271e-07
-2.70111e-09
-6.42426e-07
-9.786e-08
-4.79528e-07
-1.62911e-07
-2.73601e-07
-2.05937e-07
-4.02727e-08
-2.33338e-07
2.08925e-07
-2.49208e-07
4.65566e-07
-2.56653e-07
7.24151e-07
-2.58599e-07
9.80806e-07
-2.56671e-07
1.23276e-06
-2.51974e-07
1.47802e-06
-2.45275e-07
1.71513e-06
-2.37122e-07
1.94303e-06
-2.2792e-07
2.16099e-06
-2.17971e-07
2.36849e-06
-2.07511e-07
2.5652e-06
-1.96721e-07
2.75094e-06
-1.85748e-07
2.92564e-06
-1.74708e-07
3.08932e-06
-1.63698e-07
3.24211e-06
-1.52795e-07
3.38416e-06
-1.42063e-07
3.51571e-06
-1.31556e-07
3.63702e-06
-1.21317e-07
3.74839e-06
-1.11381e-07
3.85016e-06
-1.01778e-07
3.94268e-06
-9.25295e-08
4.02633e-06
-8.36535e-08
4.10148e-06
-7.51625e-08
4.16854e-06
-6.70652e-08
4.2279e-06
-5.93666e-08
4.27996e-06
-5.20683e-08
4.32512e-06
-4.51693e-08
4.36378e-06
-3.86659e-08
4.39632e-06
-3.25521e-08
4.42314e-06
-2.68202e-08
4.44459e-06
-2.14606e-08
4.46105e-06
-1.64626e-08
4.47285e-06
-1.18142e-08
4.48035e-06
-7.50282e-09
4.48386e-06
-3.51473e-09
4.48368e-06
1.65715e-10
4.48013e-06
3.55288e-09
4.47346e-06
6.66076e-09
4.46395e-06
9.5052e-09
4.45184e-06
1.21014e-08
4.43737e-06
1.44641e-08
4.42076e-06
1.66076e-08
4.4022e-06
1.85461e-08
4.38191e-06
2.02932e-08
4.36004e-06
2.18622e-08
4.33677e-06
2.32659e-08
4.31224e-06
2.45165e-08
4.28661e-06
2.56257e-08
4.26e-06
2.66046e-08
4.23253e-06
2.74638e-08
4.20431e-06
2.82131e-08
4.17545e-06
2.8862e-08
4.14602e-06
2.9419e-08
4.11612e-06
2.98924e-08
4.08583e-06
3.02898e-08
4.05521e-06
3.06182e-08
4.02432e-06
3.08842e-08
3.99322e-06
3.10938e-08
3.96196e-06
3.12526e-08
3.93059e-06
3.13657e-08
3.89915e-06
3.14378e-08
3.86767e-06
3.14734e-08
3.83619e-06
3.14763e-08
3.80473e-06
3.14502e-08
3.77333e-06
3.13984e-08
3.742e-06
3.1324e-08
3.71076e-06
3.12298e-08
3.67964e-06
3.11184e-08
3.64864e-06
3.09919e-08
3.61778e-06
3.08527e-08
3.58708e-06
3.07025e-08
3.55653e-06
3.05433e-08
3.52615e-06
3.03767e-08
3.49594e-06
3.0204e-08
3.4659e-06
3.00269e-08
3.43605e-06
2.98464e-08
3.40638e-06
2.96638e-08
3.3769e-06
2.94801e-08
3.3476e-06
2.92964e-08
3.31848e-06
2.91136e-08
3.28954e-06
2.89327e-08
3.26078e-06
2.87542e-08
3.23219e-06
2.85792e-08
3.20378e-06
2.84082e-08
3.17553e-06
2.8242e-08
3.14744e-06
2.80812e-08
3.11951e-06
2.79263e-08
3.09173e-06
2.77781e-08
3.06409e-06
2.76369e-08
3.03658e-06
2.75034e-08
3.00919e-06
2.73781e-08
2.98193e-06
2.72614e-08
2.95477e-06
2.71538e-08
2.9277e-06
2.70557e-08
2.90073e-06
2.69676e-08
2.87383e-06
2.68899e-08
2.84701e-06
2.6823e-08
2.82023e-06
2.67673e-08
2.7935e-06
2.67232e-08
2.76681e-06
2.66911e-08
2.74013e-06
2.66713e-08
2.71346e-06
2.66641e-08
2.68678e-06
2.667e-08
2.66009e-06
2.66893e-08
2.63336e-06
2.67223e-08
2.60658e-06
2.67693e-08
2.57974e-06
2.68306e-08
2.55283e-06
2.69066e-08
2.52583e-06
2.69975e-08
2.49872e-06
2.71036e-08
2.47149e-06
2.72252e-08
2.44412e-06
2.73626e-08
2.41659e-06
2.7516e-08
2.3889e-06
2.76857e-08
2.36102e-06
2.78718e-08
2.33294e-06
2.80746e-08
2.30464e-06
2.82943e-08
2.2761e-06
2.85311e-08
2.24731e-06
2.87852e-08
2.21825e-06
2.90566e-08
2.1889e-06
2.93454e-08
2.15924e-06
2.96519e-08
2.12925e-06
2.9976e-08
2.09893e-06
3.03179e-08
2.06824e-06
3.06774e-08
2.03718e-06
3.10546e-08
2.00573e-06
3.14494e-08
1.97386e-06
3.18618e-08
1.94156e-06
3.22915e-08
1.90881e-06
3.27385e-08
1.8756e-06
3.32025e-08
1.84191e-06
3.36832e-08
1.80773e-06
3.41803e-08
1.77302e-06
3.46934e-08
1.73779e-06
3.52221e-08
1.70202e-06
3.57658e-08
1.66569e-06
3.6324e-08
1.62879e-06
3.68961e-08
1.5913e-06
3.74813e-08
1.55321e-06
3.80788e-08
1.51451e-06
3.86876e-08
1.4752e-06
3.93068e-08
1.43525e-06
3.99354e-08
1.39467e-06
4.05719e-08
1.35345e-06
4.12152e-08
1.31158e-06
4.18637e-08
1.26905e-06
4.25158e-08
1.22588e-06
4.31698e-08
1.18204e-06
4.38236e-08
1.13756e-06
4.44752e-08
1.09243e-06
4.51223e-08
1.04665e-06
4.57621e-08
1.00025e-06
4.63919e-08
9.53234e-07
4.70087e-08
9.05615e-07
4.76089e-08
8.57416e-07
4.81888e-08
8.08661e-07
4.87442e-08
7.59379e-07
4.92704e-08
7.09606e-07
4.97623e-08
6.5938e-07
5.02141e-08
6.08749e-07
5.06195e-08
5.57766e-07
5.09711e-08
5.06492e-07
5.12609e-08
4.55e-07
5.14798e-08
4.0337e-07
5.16175e-08
3.51694e-07
5.16621e-08
3.0008e-07
5.16004e-08
2.4865e-07
5.14171e-08
1.97541e-07
5.10946e-08
1.46914e-07
5.06126e-08
9.69526e-08
4.99469e-08
4.78702e-08
4.90673e-08
-8.71082e-11
4.79418e-08
-4.66078e-08
4.65047e-08
-9.13353e-08
4.4711e-08
-1.33883e-07
4.25306e-08
-1.7381e-07
3.99097e-08
-2.10599e-07
3.67719e-08
-2.43632e-07
3.30153e-08
-2.72186e-07
2.85357e-08
-2.95403e-07
2.31981e-08
-3.12267e-07
1.68445e-08
-3.21577e-07
9.28965e-09
-3.21917e-07
3.20202e-10
-3.11711e-07
-1.02286e-08
-2.89252e-07
-2.24818e-08
-2.52842e-07
-3.64344e-08
-2.01292e-07
-5.15759e-08
-1.35182e-07
-6.61391e-08
-5.97193e-08
-7.54979e-08
2.82223e-09
-6.25934e-08
2.74483e-09
-2.40393e-07
1.75193e-12
5.90121e-07
-2.95246e-07
3.38036e-13
3.21704e-07
-2.69083e-07
-5.967e-15
1.00073e-07
-1.90599e-07
-2.10803e-13
-8.11943e-08
-6.96619e-08
-2.48141e-13
-2.18805e-07
8.545e-08
-1.91284e-13
-3.18029e-07
2.66298e-07
-8.02272e-14
-3.86791e-07
4.65393e-07
2.68885e-14
-4.32438e-07
6.76653e-07
8.45993e-14
-4.60476e-07
8.95211e-07
8.44606e-14
-4.75221e-07
1.11702e-06
4.32782e-14
-4.80415e-07
1.33889e-06
-1.46199e-14
-4.78559e-07
1.55838e-06
-6.80077e-14
-4.71474e-07
1.77359e-06
-1.0529e-13
-4.60486e-07
1.98304e-06
-1.23567e-13
-4.46582e-07
2.18562e-06
-1.25368e-13
-4.30508e-07
2.38048e-06
-1.15688e-13
-4.12841e-07
2.56699e-06
-9.95657e-14
-3.94034e-07
2.74471e-06
-8.107e-14
-3.74446e-07
2.91332e-06
-6.3015e-14
-3.54367e-07
3.07264e-06
-4.70208e-14
-3.34034e-07
3.22258e-06
-3.3889e-14
-3.13641e-07
3.36313e-06
-2.3779e-14
-2.93349e-07
3.49435e-06
-1.64966e-14
-2.73291e-07
3.61637e-06
-1.16081e-14
-2.53577e-07
3.72935e-06
-8.65558e-15
-2.34301e-07
3.8335e-06
-7.20186e-15
-2.15538e-07
3.92906e-06
-6.77857e-15
-1.9735e-07
4.01632e-06
-7.02488e-15
-1.79787e-07
4.09554e-06
-7.63895e-15
-1.62888e-07
4.16706e-06
-8.43691e-15
-1.46683e-07
4.23118e-06
-9.25568e-15
-1.31194e-07
4.28824e-06
-1.00224e-14
-1.16434e-07
4.33858e-06
-1.06851e-14
-1.02411e-07
4.38253e-06
-1.12159e-14
-8.91273e-08
4.42044e-06
-1.15801e-14
-7.65786e-08
4.45264e-06
-1.18507e-14
-6.47571e-08
4.47947e-06
-1.20242e-14
-5.36506e-08
4.50125e-06
-1.21283e-14
-4.32438e-08
4.5183e-06
-1.21699e-14
-3.35182e-08
4.53093e-06
-1.21525e-14
-2.44532e-08
4.53945e-06
-1.21109e-14
-1.60258e-08
4.54414e-06
-1.20137e-14
-8.21151e-09
4.54529e-06
-1.19062e-14
-9.84286e-10
4.54315e-06
-1.18437e-14
5.68216e-09
4.538e-06
-1.17431e-14
1.18149e-08
4.53005e-06
-1.16216e-14
1.74418e-08
4.51956e-06
-1.15002e-14
2.25908e-08
4.50673e-06
-1.13683e-14
2.72891e-08
4.49177e-06
-1.12365e-14
3.15637e-08
4.47487e-06
-1.11012e-14
3.5441e-08
4.45622e-06
-1.09555e-14
3.89469e-08
4.43597e-06
-1.08063e-14
4.21063e-08
4.41429e-06
-1.06501e-14
4.49433e-08
4.39132e-06
-1.05148e-14
4.74812e-08
4.3672e-06
-1.03414e-14
4.97422e-08
4.34205e-06
-1.01644e-14
5.17474e-08
4.31599e-06
-9.9736e-15
5.35168e-08
4.28913e-06
-9.78279e-15
5.50695e-08
4.26157e-06
-9.57115e-15
5.64234e-08
4.23339e-06
-9.36646e-15
5.75952e-08
4.20468e-06
-9.16176e-15
5.86007e-08
4.17551e-06
-8.93626e-15
5.94546e-08
4.14595e-06
-8.71769e-15
6.01706e-08
4.11607e-06
-8.48871e-15
6.07612e-08
4.08592e-06
-8.27361e-15
6.12385e-08
4.05556e-06
-8.07239e-15
6.16132e-08
4.02503e-06
-7.87464e-15
6.18955e-08
3.99437e-06
-7.66995e-15
6.20946e-08
3.96362e-06
-7.50343e-15
6.2219e-08
3.93281e-06
-7.3369e-15
6.22767e-08
3.90199e-06
-7.17385e-15
6.22749e-08
3.87116e-06
-7.03161e-15
6.22201e-08
3.84036e-06
-6.89632e-15
6.21185e-08
3.80961e-06
-6.77143e-15
6.19756e-08
3.77893e-06
-6.65695e-15
6.17965e-08
3.74833e-06
-6.56329e-15
6.15859e-08
3.71783e-06
-6.47656e-15
6.13482e-08
3.68745e-06
-6.40719e-15
6.10872e-08
3.65718e-06
-6.35516e-15
6.08065e-08
3.62704e-06
-6.31354e-15
6.05095e-08
3.59704e-06
-6.30315e-15
6.01993e-08
3.56719e-06
-6.29275e-15
5.98786e-08
3.53748e-06
-6.30318e-15
5.955e-08
3.50793e-06
-6.29972e-15
5.92159e-08
3.47852e-06
-6.33096e-15
5.88786e-08
3.44928e-06
-6.3622e-15
5.85402e-08
3.42018e-06
-6.42467e-15
5.82025e-08
3.39125e-06
-6.48019e-15
5.78673e-08
3.36246e-06
-6.55307e-15
5.75364e-08
3.33382e-06
-6.619e-15
5.72112e-08
3.30533e-06
-6.69881e-15
5.68933e-08
3.27699e-06
-6.78557e-15
5.65841e-08
3.24878e-06
-6.87926e-15
5.62848e-08
3.22071e-06
-6.98336e-15
5.59967e-08
3.19276e-06
-7.10133e-15
5.5721e-08
3.16493e-06
-7.22278e-15
5.54588e-08
3.13722e-06
-7.33035e-15
5.52112e-08
3.10962e-06
-7.45873e-15
5.49792e-08
3.08211e-06
-7.57324e-15
5.47638e-08
3.0547e-06
-7.70856e-15
5.45659e-08
3.02736e-06
-7.81266e-15
5.43865e-08
3.0001e-06
-7.95839e-15
5.42264e-08
2.9729e-06
-8.07984e-15
5.40865e-08
2.94575e-06
-8.21169e-15
5.39675e-08
2.91864e-06
-8.34008e-15
5.38704e-08
2.89156e-06
-8.47193e-15
5.37958e-08
2.86451e-06
-8.61766e-15
5.37446e-08
2.83746e-06
-8.74604e-15
5.37174e-08
2.8104e-06
-8.85361e-15
5.37149e-08
2.78333e-06
-8.97505e-15
5.37379e-08
2.75623e-06
-9.10691e-15
5.3787e-08
2.72908e-06
-9.21794e-15
5.38628e-08
2.70188e-06
-9.34632e-15
5.39661e-08
2.67461e-06
-9.45042e-15
5.40973e-08
2.64726e-06
-9.56145e-15
5.42571e-08
2.6198e-06
-9.65861e-15
5.4446e-08
2.59224e-06
-9.74883e-15
5.46647e-08
2.56454e-06
-9.85292e-15
5.49136e-08
2.53671e-06
-9.9362e-15
5.51932e-08
2.50872e-06
-1.00125e-14
5.5504e-08
2.48055e-06
-1.00889e-14
5.58465e-08
2.4522e-06
-1.01617e-14
5.6221e-08
2.42364e-06
-1.02381e-14
5.6628e-08
2.39486e-06
-1.03005e-14
5.70678e-08
2.36585e-06
-1.0363e-14
5.75407e-08
2.33658e-06
-1.04255e-14
5.8047e-08
2.30705e-06
-1.04845e-14
5.85869e-08
2.27723e-06
-1.05434e-14
5.91607e-08
2.24711e-06
-1.05851e-14
5.97684e-08
2.21667e-06
-1.06337e-14
6.04101e-08
2.1859e-06
-1.06649e-14
6.10858e-08
2.15477e-06
-1.07065e-14
6.17956e-08
2.12328e-06
-1.07586e-14
6.25393e-08
2.09141e-06
-1.08072e-14
6.33166e-08
2.05914e-06
-1.08557e-14
6.41275e-08
2.02646e-06
-1.088e-14
6.49714e-08
1.99334e-06
-1.09113e-14
6.58481e-08
1.95978e-06
-1.09321e-14
6.67569e-08
1.92576e-06
-1.09737e-14
6.76973e-08
1.89127e-06
-1.1005e-14
6.86684e-08
1.85629e-06
-1.10501e-14
6.96696e-08
1.82081e-06
-1.11021e-14
7.06997e-08
1.78481e-06
-1.11403e-14
7.17577e-08
1.74829e-06
-1.11611e-14
7.28424e-08
1.71122e-06
-1.11889e-14
7.39523e-08
1.67361e-06
-1.11993e-14
7.5086e-08
1.63545e-06
-1.1234e-14
7.62416e-08
1.59671e-06
-1.12375e-14
7.74173e-08
1.5574e-06
-1.12479e-14
7.86111e-08
1.51751e-06
-1.12236e-14
7.98205e-08
1.47703e-06
-1.1234e-14
8.1043e-08
1.43597e-06
-1.12028e-14
8.2276e-08
1.39431e-06
-1.1175e-14
8.35163e-08
1.35206e-06
-1.11716e-14
8.47606e-08
1.30922e-06
-1.11681e-14
8.60053e-08
1.26579e-06
-1.1182e-14
8.72465e-08
1.22178e-06
-1.12063e-14
8.84797e-08
1.17719e-06
-1.12826e-14
8.97003e-08
1.13204e-06
-1.13589e-14
9.09031e-08
1.08635e-06
-1.14838e-14
9.20825e-08
1.04012e-06
-1.16573e-14
9.32321e-08
9.93374e-07
-1.19071e-14
9.43452e-08
9.46142e-07
-1.22541e-14
9.54143e-08
8.98448e-07
-1.26912e-14
9.64311e-08
8.50324e-07
-1.32602e-14
9.73865e-08
8.01808e-07
-1.39263e-14
9.82705e-08
7.52943e-07
-1.47312e-14
9.90718e-08
7.03777e-07
-1.56957e-14
9.9778e-08
6.54364e-07
-1.67019e-14
1.00375e-07
6.04769e-07
-1.77982e-14
1.00848e-07
5.55061e-07
-1.8853e-14
1.01179e-07
5.0532e-07
-1.9755e-14
1.01349e-07
4.55638e-07
-2.04073e-14
1.01336e-07
4.06116e-07
-2.07334e-14
1.01114e-07
3.56868e-07
-2.0546e-14
1.00656e-07
3.08025e-07
-1.9866e-14
9.9928e-08
2.59735e-07
-1.87281e-14
9.88939e-08
2.12162e-07
-1.72431e-14
9.751e-08
1.65495e-07
-1.57443e-14
9.57238e-08
1.19949e-07
-1.46827e-14
9.34778e-08
7.57582e-08
-1.41276e-14
9.06849e-08
3.31894e-08
-1.42039e-14
8.72689e-08
-7.45228e-09
-1.55223e-14
8.31611e-08
-4.58077e-08
-1.81313e-14
7.82536e-08
-8.14783e-08
-2.19546e-14
7.24308e-08
-1.14031e-07
-2.67564e-14
6.5556e-08
-1.42976e-07
-3.19813e-14
5.74685e-08
-1.67768e-07
-3.63875e-14
4.79774e-08
-1.87808e-07
-3.78239e-14
3.68717e-08
-2.02455e-07
-3.3494e-14
2.39239e-08
-2.11055e-07
-2.23432e-14
8.90595e-09
-2.12956e-07
-8.14625e-15
-8.34254e-09
-2.07604e-07
-1.11021e-15
-2.78498e-08
-1.94688e-07
-8.97892e-15
-4.93666e-08
-1.743e-07
-1.4197e-14
-7.19823e-08
-1.47061e-07
2.56878e-14
-9.34011e-08
-1.13929e-07
-1.45578e-14
-1.08658e-07
-7.10779e-08
-2.25237e-13
-1.05489e-07
-2.46725e-12
-6.83676e-08
-2.40399e-07
5.90117e-07
-2.95248e-07
3.21701e-07
-2.69082e-07
1.00071e-07
-1.90597e-07
-8.11959e-08
-6.96597e-08
-2.18806e-07
8.54523e-08
-3.1803e-07
2.663e-07
-3.86792e-07
4.65395e-07
-4.32439e-07
6.76654e-07
-4.60476e-07
8.95212e-07
-4.75221e-07
1.11702e-06
-4.80415e-07
1.3389e-06
-4.7856e-07
1.55838e-06
-4.71474e-07
1.77359e-06
-4.60487e-07
1.98304e-06
-4.46582e-07
2.18562e-06
-4.30508e-07
2.38048e-06
-4.12841e-07
2.56699e-06
-3.94034e-07
2.74471e-06
-3.74446e-07
2.91332e-06
-3.54367e-07
3.07264e-06
-3.34034e-07
3.22258e-06
-3.13641e-07
3.36313e-06
-2.93349e-07
3.49435e-06
-2.73291e-07
3.61637e-06
-2.53577e-07
3.72934e-06
-2.34301e-07
3.8335e-06
-2.15538e-07
3.92906e-06
-1.9735e-07
4.01631e-06
-1.79787e-07
4.09554e-06
-1.62888e-07
4.16706e-06
-1.46683e-07
4.23118e-06
-1.31194e-07
4.28824e-06
-1.16434e-07
4.33858e-06
-1.02411e-07
4.38253e-06
-8.91274e-08
4.42044e-06
-7.65787e-08
4.45264e-06
-6.47572e-08
4.47947e-06
-5.36507e-08
4.50124e-06
-4.32439e-08
4.51829e-06
-3.35184e-08
4.53093e-06
-2.44533e-08
4.53945e-06
-1.60259e-08
4.54414e-06
-8.21165e-09
4.54529e-06
-9.84438e-10
4.54315e-06
5.682e-09
4.53799e-06
1.18147e-08
4.53005e-06
1.74417e-08
4.51956e-06
2.25906e-08
4.50673e-06
2.72889e-08
4.49177e-06
3.15635e-08
4.47487e-06
3.54409e-08
4.45621e-06
3.89467e-08
4.43597e-06
4.21061e-08
4.41428e-06
4.49431e-08
4.39132e-06
4.7481e-08
4.3672e-06
4.9742e-08
4.34205e-06
5.17472e-08
4.31599e-06
5.35166e-08
4.28913e-06
5.50694e-08
4.26157e-06
5.64232e-08
4.23339e-06
5.75951e-08
4.20468e-06
5.86006e-08
4.17551e-06
5.94544e-08
4.14595e-06
6.01704e-08
4.11607e-06
6.07611e-08
4.08592e-06
6.12383e-08
4.05556e-06
6.1613e-08
4.02503e-06
6.18953e-08
3.99437e-06
6.20944e-08
3.96362e-06
6.22189e-08
3.93281e-06
6.22765e-08
3.90198e-06
6.22747e-08
3.87116e-06
6.22199e-08
3.84036e-06
6.21183e-08
3.80961e-06
6.19754e-08
3.77893e-06
6.17963e-08
3.74833e-06
6.15858e-08
3.71783e-06
6.1348e-08
3.68745e-06
6.1087e-08
3.65718e-06
6.08064e-08
3.62704e-06
6.05094e-08
3.59704e-06
6.01991e-08
3.56719e-06
5.98784e-08
3.53748e-06
5.95498e-08
3.50793e-06
5.92158e-08
3.47852e-06
5.88785e-08
3.44928e-06
5.85401e-08
3.42018e-06
5.82024e-08
3.39124e-06
5.78672e-08
3.36246e-06
5.75363e-08
3.33382e-06
5.72111e-08
3.30533e-06
5.68932e-08
3.27699e-06
5.65839e-08
3.24878e-06
5.62846e-08
3.22071e-06
5.59966e-08
3.19276e-06
5.57209e-08
3.16493e-06
5.54587e-08
3.13722e-06
5.5211e-08
3.10962e-06
5.4979e-08
3.08211e-06
5.47636e-08
3.05469e-06
5.45658e-08
3.02736e-06
5.43863e-08
3.0001e-06
5.42263e-08
2.9729e-06
5.40863e-08
2.94575e-06
5.39674e-08
2.91864e-06
5.38703e-08
2.89156e-06
5.37957e-08
2.86451e-06
5.37445e-08
2.83746e-06
5.37173e-08
2.8104e-06
5.37148e-08
2.78333e-06
5.37378e-08
2.75623e-06
5.37869e-08
2.72908e-06
5.38627e-08
2.70188e-06
5.39659e-08
2.67461e-06
5.40972e-08
2.64726e-06
5.4257e-08
2.6198e-06
5.44459e-08
2.59224e-06
5.46646e-08
2.56454e-06
5.49135e-08
2.53671e-06
5.51931e-08
2.50872e-06
5.55039e-08
2.48055e-06
5.58464e-08
2.4522e-06
5.62209e-08
2.42364e-06
5.66279e-08
2.39486e-06
5.70677e-08
2.36585e-06
5.75406e-08
2.33658e-06
5.80469e-08
2.30705e-06
5.85868e-08
2.27723e-06
5.91606e-08
2.24711e-06
5.97682e-08
2.21667e-06
6.041e-08
2.18589e-06
6.10857e-08
2.15477e-06
6.17955e-08
2.12328e-06
6.25391e-08
2.09141e-06
6.33165e-08
2.05914e-06
6.41273e-08
2.02646e-06
6.49713e-08
1.99334e-06
6.58479e-08
1.95978e-06
6.67568e-08
1.92576e-06
6.76971e-08
1.89127e-06
6.86683e-08
1.85629e-06
6.96694e-08
1.82081e-06
7.06995e-08
1.78481e-06
7.17576e-08
1.74829e-06
7.28422e-08
1.71122e-06
7.39522e-08
1.67361e-06
7.50858e-08
1.63545e-06
7.62415e-08
1.59671e-06
7.74172e-08
1.5574e-06
7.86109e-08
1.51751e-06
7.98203e-08
1.47703e-06
8.10429e-08
1.43597e-06
8.22758e-08
1.39431e-06
8.35161e-08
1.35206e-06
8.47605e-08
1.30922e-06
8.60052e-08
1.26579e-06
8.72463e-08
1.22178e-06
8.84796e-08
1.17719e-06
8.97002e-08
1.13204e-06
9.0903e-08
1.08635e-06
9.20823e-08
1.04012e-06
9.32319e-08
9.93374e-07
9.4345e-08
9.46142e-07
9.54141e-08
8.98448e-07
9.64309e-08
8.50324e-07
9.73863e-08
8.01809e-07
9.82703e-08
7.52943e-07
9.90716e-08
7.03777e-07
9.97779e-08
6.54365e-07
1.00375e-07
6.04769e-07
1.00848e-07
5.55061e-07
1.01179e-07
5.05321e-07
1.01349e-07
4.55638e-07
1.01336e-07
4.06116e-07
1.01114e-07
3.56868e-07
1.00655e-07
3.08026e-07
9.99278e-08
2.59735e-07
9.88937e-08
2.12162e-07
9.75098e-08
1.65496e-07
9.57236e-08
1.19949e-07
9.34776e-08
7.57585e-08
9.06847e-08
3.31896e-08
8.72688e-08
-7.45206e-09
8.31609e-08
-4.58075e-08
7.82535e-08
-8.14781e-08
7.24306e-08
-1.14031e-07
6.55558e-08
-1.42976e-07
5.74683e-08
-1.67768e-07
4.79772e-08
-1.87808e-07
3.68715e-08
-2.02455e-07
2.39236e-08
-2.11055e-07
8.90569e-09
-2.12956e-07
-8.34284e-09
-2.07604e-07
-2.78501e-08
-1.94688e-07
-4.9367e-08
-1.74301e-07
-7.19827e-08
-1.47063e-07
-9.34018e-08
-1.13932e-07
-1.08659e-07
-7.10876e-08
-1.0549e-07
-6.83667e-08
-8.32861e-08
1.6594e-12
6.73404e-07
-4.20589e-08
2.49995e-13
2.80463e-07
4.84037e-08
1.05305e-13
9.60728e-09
1.63246e-07
-1.19902e-14
-1.96039e-07
2.97264e-07
-3.93815e-14
-3.52825e-07
4.48443e-07
-1.16572e-14
-4.6921e-07
6.14364e-07
3.83029e-14
-5.52713e-07
7.92e-07
8.03387e-14
-6.10077e-07
9.78359e-07
9.70441e-14
-6.46836e-07
1.17065e-06
8.76801e-14
-6.67514e-07
1.36612e-06
6.17356e-14
-6.75886e-07
1.56237e-06
3.05661e-14
-6.74809e-07
1.75737e-06
3.27195e-15
-6.66478e-07
1.94945e-06
-1.5633e-14
-6.52576e-07
2.13727e-06
-2.53336e-14
-6.34403e-07
2.31974e-06
-2.7391e-14
-6.12974e-07
2.49599e-06
-2.41939e-14
-5.89094e-07
2.66536e-06
-1.8105e-14
-5.63407e-07
2.82734e-06
-1.0977e-14
-5.36433e-07
2.98157e-06
-4.09531e-15
-5.08597e-07
3.12779e-06
1.84439e-15
-4.80251e-07
3.26583e-06
6.50561e-15
-4.51685e-07
3.39562e-06
9.82589e-15
-4.23144e-07
3.51716e-06
1.1918e-14
-3.9483e-07
3.6305e-06
1.30074e-14
-3.66915e-07
3.73573e-06
1.32815e-14
-3.39539e-07
3.83302e-06
1.29814e-14
-3.12823e-07
3.92253e-06
1.2317e-14
-2.86864e-07
4.00448e-06
1.14254e-14
-2.61741e-07
4.07911e-06
1.04626e-14
-2.37518e-07
4.14667e-06
9.51026e-15
-2.14244e-07
4.20743e-06
8.60822e-15
-1.91957e-07
4.26168e-06
7.81025e-15
-1.70681e-07
4.3097e-06
7.11984e-15
-1.50433e-07
4.35179e-06
6.54392e-15
-1.3122e-07
4.38825e-06
6.08943e-15
-1.1304e-07
4.41938e-06
5.71474e-15
-9.58853e-08
4.44547e-06
5.41117e-15
-7.97422e-08
4.46681e-06
5.18913e-15
-6.45916e-08
4.4837e-06
5.00526e-15
-5.04096e-08
4.49642e-06
4.87863e-15
-3.71688e-08
4.50523e-06
4.78322e-15
-2.48386e-08
4.5104e-06
4.71384e-15
-1.33858e-08
4.51219e-06
4.66527e-15
-2.775e-09
4.51084e-06
4.62364e-15
7.03012e-09
4.50659e-06
4.59589e-15
1.60671e-08
4.49965e-06
4.58722e-15
2.43744e-08
4.49025e-06
4.59069e-15
3.19908e-08
4.47859e-06
4.59763e-15
3.89547e-08
4.46485e-06
4.60977e-15
4.5304e-08
4.44921e-06
4.62538e-15
5.10762e-08
4.43185e-06
4.65834e-15
5.63078e-08
4.41292e-06
4.6913e-15
6.10344e-08
4.39257e-06
4.72079e-15
6.52903e-08
4.37094e-06
4.76242e-15
6.91086e-08
4.34816e-06
4.80926e-15
7.25212e-08
4.32435e-06
4.8665e-15
7.55583e-08
4.29962e-06
4.92548e-15
7.82487e-08
4.27407e-06
4.99486e-15
8.06197e-08
4.24779e-06
5.06945e-15
8.26972e-08
4.22088e-06
5.14578e-15
8.45055e-08
4.19341e-06
5.22557e-15
8.60672e-08
4.16546e-06
5.31057e-15
8.74038e-08
4.1371e-06
5.39383e-15
8.85351e-08
4.10838e-06
5.48403e-15
8.94796e-08
4.07936e-06
5.58117e-15
9.02545e-08
4.0501e-06
5.66616e-15
9.08759e-08
4.02063e-06
5.75463e-15
9.13585e-08
3.99101e-06
5.84135e-15
9.17158e-08
3.96127e-06
5.91941e-15
9.19606e-08
3.93144e-06
5.98706e-15
9.21044e-08
3.90156e-06
6.05991e-15
9.21578e-08
3.87165e-06
6.12582e-15
9.21307e-08
3.84173e-06
6.19867e-15
9.20321e-08
3.81183e-06
6.25417e-15
9.18703e-08
3.78198e-06
6.31315e-15
9.16529e-08
3.75218e-06
6.36345e-15
9.13869e-08
3.72244e-06
6.4068e-15
9.10788e-08
3.6928e-06
6.43976e-15
9.07343e-08
3.66324e-06
6.47618e-15
9.03589e-08
3.63379e-06
6.50392e-15
8.99577e-08
3.60446e-06
6.52126e-15
8.95353e-08
3.57524e-06
6.54034e-15
8.90958e-08
3.54614e-06
6.55074e-15
8.86432e-08
3.51718e-06
6.5594e-15
8.81811e-08
3.48834e-06
6.55419e-15
8.7713e-08
3.45964e-06
6.54724e-15
8.72419e-08
3.43107e-06
6.53856e-15
8.67707e-08
3.40264e-06
6.52467e-15
8.63022e-08
3.37433e-06
6.50905e-15
8.58389e-08
3.34616e-06
6.48649e-15
8.53832e-08
3.31811e-06
6.4674e-15
8.49374e-08
3.29019e-06
6.43963e-15
8.45034e-08
3.26239e-06
6.41013e-15
8.40835e-08
3.23471e-06
6.38064e-15
8.36793e-08
3.20714e-06
6.33552e-15
8.32927e-08
3.17967e-06
6.30603e-15
8.29255e-08
3.1523e-06
6.26438e-15
8.25792e-08
3.12502e-06
6.22621e-15
8.22554e-08
3.09783e-06
6.18977e-15
8.19556e-08
3.07071e-06
6.14813e-15
8.16812e-08
3.04367e-06
6.10996e-15
8.14335e-08
3.01668e-06
6.06485e-15
8.1214e-08
2.98974e-06
6.02494e-15
8.10238e-08
2.96284e-06
5.99198e-15
8.08643e-08
2.93598e-06
5.95207e-15
8.07365e-08
2.90913e-06
5.9139e-15
8.06417e-08
2.88229e-06
5.87746e-15
8.05809e-08
2.85545e-06
5.84449e-15
8.05553e-08
2.8286e-06
5.80632e-15
8.05658e-08
2.80172e-06
5.78723e-15
8.06136e-08
2.77481e-06
5.75427e-15
8.06996e-08
2.74785e-06
5.73344e-15
8.08247e-08
2.72082e-06
5.70915e-15
8.09898e-08
2.69372e-06
5.68659e-15
8.1196e-08
2.66653e-06
5.66924e-15
8.14439e-08
2.63925e-06
5.66229e-15
8.17345e-08
2.61184e-06
5.66229e-15
8.20685e-08
2.58431e-06
5.66055e-15
8.24466e-08
2.55663e-06
5.66401e-15
8.28697e-08
2.52879e-06
5.67095e-15
8.33383e-08
2.50079e-06
5.68308e-15
8.38531e-08
2.47259e-06
5.70389e-15
8.44147e-08
2.44419e-06
5.73164e-15
8.50235e-08
2.41558e-06
5.7594e-15
8.56802e-08
2.38674e-06
5.78021e-15
8.6385e-08
2.35764e-06
5.82184e-15
8.71383e-08
2.32829e-06
5.86e-15
8.79405e-08
2.29866e-06
5.91203e-15
8.87918e-08
2.26873e-06
5.96927e-15
8.96922e-08
2.2385e-06
6.02478e-15
9.06418e-08
2.20794e-06
6.08723e-15
9.16406e-08
2.17705e-06
6.14794e-15
9.26885e-08
2.1458e-06
6.22079e-15
9.37852e-08
2.11419e-06
6.30059e-15
9.49304e-08
2.08219e-06
6.37691e-15
9.61236e-08
2.0498e-06
6.47058e-15
9.73642e-08
2.01699e-06
6.56946e-15
9.86515e-08
1.98376e-06
6.66487e-15
9.99846e-08
1.9501e-06
6.76027e-15
1.01362e-07
1.91598e-06