/*--------------------------------*- C++ -*----------------------------------*\
  =========                 |
  \\      /  F ield         | OpenFOAM: The Open Source CFD Toolbox
   \\    /   O peration     | Website:  https://openfoam.org
    \\  /    A nd           | Version:  8
     \\/     M anipulation  |
\*---------------------------------------------------------------------------*/
FoamFile
{
    version     2.0;
    format      ascii;
    class       volScalarField;
    location    "1500";
    object      epsilon;
}
// * * * * * * * * * * * * * * * * * * * * * * * * * * * * * * * * * * * * * //

dimensions      [0 2 -3 0 0 0 0];

internalField   nonuniform List<scalar> 
48000
(
0.210697
1.10367
2.22044
3.37979
4.53267
5.66859
6.81215
7.96002
9.10755
10.2605
11.42
12.5866
13.761
14.9432
16.133
17.3298
18.533
19.7416
20.9542
22.1695
23.386
24.6022
25.8162
27.0263
28.2307
29.4276
30.6153
31.7919
32.9557
34.1051
35.2384
36.3542
37.4509
38.5272
39.5819
40.6139
41.6219
42.6052
43.5628
44.494
45.3981
46.2746
47.123
47.9429
48.7341
49.4961
50.2291
50.9327
51.6071
52.2521
52.8679
53.4546
54.0121
54.5404
55.0415
55.518
55.9675
56.3899
56.7853
57.1541
57.4966
57.8134
58.1048
58.3713
58.6134
58.8315
59.0261
59.1976
59.3466
59.4734
59.5785
59.6624
59.7255
59.7683
59.7912
59.7946
59.779
59.7447
59.6922
59.6219
59.5342
59.4294
59.308
59.1703
59.0167
58.8475
58.6631
58.4639
58.2502
58.0222
57.7804
57.5251
57.2565
56.9749
56.6807
56.3742
56.0556
55.7253
55.3834
55.0302
54.6661
54.2912
53.9058
53.5102
53.1046
52.6891
52.2641
51.8298
51.3863
50.9339
50.4728
50.0031
49.5251
49.039
48.545
48.0431
47.5337
47.0168
46.4927
45.9615
45.4234
44.8786
44.3272
43.7694
43.2053
42.6352
42.0591
41.4774
40.89
40.2973
39.6993
39.0963
38.4884
37.8758
37.2588
36.6374
36.012
35.3828
34.7498
34.1134
33.4738
32.8313
32.186
31.5382
30.8883
30.2364
29.5828
28.9278
28.2717
27.6149
26.9576
26.3001
25.6427
24.9859
24.3298
23.675
23.0217
22.3702
21.721
21.0744
20.4307
19.7904
19.1538
18.5212
17.8931
17.2698
16.6516
16.039
15.4322
14.8316
14.2375
13.6503
13.0702
12.4976
11.9326
11.3756
10.8267
10.2861
9.75406
9.23063
8.71592
8.21001
7.71295
7.22493
6.74635
6.27942
5.8243
5.37585
4.93302
4.49517
4.06103
3.62932
3.19835
2.76892
2.34177
1.90836
1.46518
1.01728
0.196708
0.20653
0.210456
1.10398
2.22008
3.3798
4.53287
5.66884
6.81243
7.96031
9.10785
10.2608
11.4203
12.587
13.7613
14.9435
16.1333
17.3301
18.5333
19.7418
20.9545
22.1698
23.3863
24.6024
25.8164
27.0265
28.2309
29.4279
30.6155
31.7921
32.9559
34.1053
35.2386
36.3543
37.451
38.5274
39.5821
40.614
41.622
42.6053
43.5629
44.4941
45.3982
46.2747
47.1231
47.943
48.7341
49.4962
50.2291
50.9327
51.607
52.2521
52.8679
53.4545
54.012
54.5403
55.0415
55.5179
55.9675
56.3898
56.7852
57.154
57.4965
57.8133
58.1047
58.3712
58.6133
58.8314
59.026
59.1975
59.3465
59.4733
59.5784
59.6623
59.7254
59.7682
59.7911
59.7945
59.7789
59.7446
59.6921
59.6218
59.5341
59.4293
59.3079
59.1702
59.0166
58.8474
58.663
58.4638
58.2501
58.0221
57.7803
57.5249
57.2564
56.9748
56.6806
56.3741
56.0555
55.7252
55.3833
55.0301
54.666
54.2911
53.9057
53.5101
53.1045
52.689
52.264
51.8297
51.3862
50.9338
50.4727
50.003
49.5251
49.0389
48.5449
48.043
47.5336
47.0167
46.4926
45.9614
45.4233
44.8785
44.3271
43.7693
43.2052
42.6351
42.0591
41.4773
40.8899
40.2972
39.6992
39.0962
38.4883
37.8757
37.2587
36.6374
36.012
35.3827
34.7497
34.1134
33.4738
32.8312
32.1859
31.5382
30.8882
30.2363
29.5827
28.9277
28.2717
27.6148
26.9575
26.3
25.6427
24.9858
24.3298
23.6749
23.0216
22.3702
21.721
21.0743
20.4307
19.7904
19.1537
18.5212
17.8931
17.2698
16.6516
16.0389
15.4322
14.8316
14.2375
13.6503
13.0702
12.4976
11.9326
11.3756
10.8267
10.2861
9.75405
9.23062
8.71591
8.21
7.71295
7.22493
6.74635
6.27942
5.8243
5.37585
4.93302
4.49517
4.06103
3.62932
3.19835
2.76892
2.34181
1.90862
1.46666
1.0246
0.851418
0.220201
0.338787
1.09888
1.52385
1.94836
2.39184
2.84476
3.30617
3.77474
4.24957
4.73102
5.21928
5.71448
6.2166
6.72552
7.24098
7.7626
8.28991
8.82231
9.35914
9.89966
10.4431
10.9885
11.5351
12.0819
12.628
13.1725
13.7144
14.2528
14.7868
15.3155
15.8381
16.3537
16.8615
17.3609
17.8511
18.3315
18.8014
19.2604
19.7079
20.1435
20.5667
20.9773
21.375
21.7594
22.1304
22.4878
22.8315
23.1614
23.4774
23.7795
24.0678
24.3421
24.6027
24.8497
25.0839
25.3057
25.5146
25.7105
25.8935
26.0638
26.2215
26.3668
26.5
26.6212
26.7307
26.8288
26.9156
26.9914
27.0564
27.1109
27.1551
27.1892
27.2135
27.2282
27.2334
27.2296
27.2167
27.1952
27.1651
27.1267
27.0802
27.0258
26.9637
26.894
26.817
26.7329
26.6418
26.5438
26.4393
26.3282
26.2109
26.0874
25.9579
25.8226
25.6815
25.535
25.383
25.2257
25.0633
24.8959
24.7235
24.5465
24.3647
24.1785
23.9878
23.7928
23.5937
23.3904
23.1832
22.972
22.7571
22.5385
22.3163
22.0905
21.8614
21.6289
21.3931
21.1542
20.9122
20.6672
20.4192
20.1684
19.9149
19.6586
19.3997
19.1383
18.8744
18.6082
18.3396
18.0688
17.7958
17.5208
17.2438
16.9649
16.6842
16.4018
16.1178
15.8322
15.5451
15.2568
14.9672
14.6765
14.3848
14.0921
13.7987
13.5047
13.21
12.915
12.6197
12.3243
12.0288
11.7335
11.4385
11.1439
10.8499
10.5566
10.2643
9.97296
9.68287
9.39416
9.10699
8.82154
8.53796
8.25642
7.97709
7.70012
7.42567
7.15391
6.88498
6.61904
6.35623
6.09668
5.84052
5.58788
5.33887
5.09359
4.85213
4.61457
4.38097
4.1514
3.92588
3.70445
3.48713
3.27398
3.06507
2.8606
2.66038
2.46354
2.26998
2.07968
1.89221
1.70741
1.52529
1.34662
1.17195
1.00093
0.835361
0.677511
0.504367
0.278672
0.338816
1.09891
1.5228
1.94791
2.39164
2.84461
3.30603
3.77458
4.24941
4.73084
5.2191
5.71429
6.2164
6.72531
7.24076
7.76237
8.28967
8.82206
9.35889
9.8994
10.4428
10.9882
11.5348
12.0816
12.6277
13.1722
13.7141
14.2525
14.7865
15.3152
15.8378
16.3534
16.8612
17.3606
17.8508
18.3311
18.8011
19.26
19.7075
20.1431
20.5664
20.977
21.3746
21.7591
22.1301
22.4875
22.8312
23.1611
23.4771
23.7792
24.0674
24.3418
24.6023
24.8494
25.0836
25.3054
25.5142
25.7101
25.8931
26.0634
26.2211
26.3664
26.4996
26.6209
26.7304
26.8284
26.9152
26.991
27.0561
27.1106
27.1548
27.1889
27.2132
27.2278
27.2331
27.2292
27.2164
27.1948
27.1648
27.1264
27.0799
27.0255
26.9634
26.8937
26.8167
26.7326
26.6414
26.5435
26.4389
26.3279
26.2106
26.0871
25.9576
25.8223
25.6813
25.5347
25.3827
25.2254
25.063
24.8956
24.7233
24.5462
24.3645
24.1782
23.9876
23.7926
23.5934
23.3902
23.1829
22.9718
22.7569
22.5382
22.316
22.0903
21.8611
21.6286
21.3929
21.154
20.912
20.6669
20.419
20.1682
19.9146
19.6584
19.3995
19.1381
18.8742
18.608
18.3394
18.0686
17.7956
17.5206
17.2436
16.9647
16.684
16.4016
16.1176
15.832
15.545
15.2566
14.967
14.6763
14.3846
14.092
13.7986
13.5045
13.2099
12.9149
12.6196
12.3241
12.0287
11.7334
11.4384
11.1438
10.8498
10.5565
10.2642
9.97284
9.68275
9.39405
9.10689
8.82143
8.53786
8.25632
7.97699
7.70002
7.42558
7.15382
6.8849
6.61896
6.35614
6.0966
5.84044
5.5878
5.33879
5.09352
4.85206
4.6145
4.38091
4.15134
3.92583
3.7044
3.48708
3.27393
3.06503
2.86056
2.66034
2.4635
2.26994
2.07965
1.89218
1.70738
1.52527
1.34658
1.17185
1.00066
0.835255
0.683216
0.558344
0.3566
2.55578
1.61131
1.71227
1.94722
2.23045
2.53822
2.86143
3.19581
3.53921
3.89058
4.24939
4.61526
4.98795
5.36715
5.75257
6.14383
6.54051
6.94211
7.3481
7.75787
8.17079
8.58618
9.00333
9.42152
9.83999
10.258
10.6748
11.0896
11.5018
11.9105
12.315
12.7148
13.1091
13.4973
13.8789
14.2533
14.6199
14.9783
15.3281
15.6689
16.0003
16.3219
16.6336
16.9351
17.2262
17.5067
17.7764
18.0354
18.2834
18.5205
18.7467
18.9619
19.1662
19.3598
19.5429
19.7158
19.8784
20.0306
20.1726
20.3044
20.4263
20.5383
20.6406
20.7334
20.8169
20.8912
20.9565
21.0131
21.0611
21.1007
21.1321
21.1554
21.171
21.1789
21.1794
21.1726
21.1588
21.138
21.1105
21.0764
21.036
20.9893
20.9365
20.8779
20.8135
20.7434
20.668
20.5872
20.5012
20.4102
20.3143
20.2137
20.1083
19.9985
19.8843
19.7657
19.6431
19.5163
19.3856
19.2511
19.1128
18.9709
18.8255
18.6766
18.5243
18.3688
18.2101
18.0483
17.8836
17.7159
17.5453
17.372
17.196
17.0174
16.8362
16.6525
16.4665
16.2781
16.0874
15.8945
15.6994
15.5023
15.3032
15.102
14.899
14.6942
14.4876
14.2793
14.0693
13.8577
13.6446
13.4301
13.2142
12.9969
12.7784
12.5587
12.3379
12.1161
11.8933
11.6697
11.4452
11.22
10.9942
10.7679
10.5411
10.314
10.0866
9.85904
9.63145
9.40392
9.17655
8.94945
8.72275
8.49655
8.27097
8.04614
7.82217
7.5992
7.37734
7.15672
6.93746
6.7197
6.50357
6.28918
6.07667
5.86616
5.65777
5.45162
5.24783
5.04652
4.84779
4.65174
4.45849
4.26811
4.0807
3.89633
3.71508
3.53701
3.36218
3.19063
3.02241
2.85754
2.69606
2.53801
2.38343
2.23233
2.08466
1.94028
1.79913
1.66122
1.52654
1.3955
1.26844
1.14615
1.02995
0.921961
0.826776
0.751326
0.678033
0.314313
2.5556
1.61047
1.71164
1.94689
2.23024
2.53804
2.86124
3.19562
3.53901
3.89038
4.24917
4.61504
4.98772
5.36692
5.75234
6.14359
6.54027
6.94187
7.34785
7.75763
8.17055
8.58593
9.00309
9.42127
9.83975
10.2578
10.6746
11.0894
11.5015
11.9102
12.3148
12.7146
13.1089
13.4971
13.8787
14.253
14.6197
14.9781
15.3279
15.6687
16.0001
16.3217
16.6334
16.9349
17.226
17.5065
17.7762
18.0352
18.2832
18.5203
18.7465
18.9617
19.1661
19.3597
19.5428
19.7157
19.8782
20.0304
20.1724
20.3043
20.4261
20.5381
20.6405
20.7333
20.8167
20.891
20.9564
21.0129
21.0609
21.1005
21.1319
21.1553
21.1709
21.1788
21.1793
21.1725
21.1586
21.1379
21.1104
21.0763
21.0359
20.9892
20.9364
20.8778
20.8134
20.7433
20.6679
20.5871
20.5011
20.4101
20.3142
20.2136
20.1082
19.9984
19.8842
19.7656
19.643
19.5162
19.3855
19.251
19.1127
18.9708
18.8254
18.6765
18.5242
18.3687
18.21
18.0483
17.8835
17.7158
17.5452
17.3719
17.1959
17.0173
16.8361
16.6525
16.4664
16.278
16.0873
15.8944
15.6994
15.5022
15.3031
15.102
14.899
14.6941
14.4875
14.2792
14.0692
13.8577
13.6446
13.43
13.2141
12.9969
12.7784
12.5587
12.3379
12.1161
11.8933
11.6696
11.4452
11.22
10.9942
10.7678
10.5411
10.3139
10.0865
9.859
9.63141
9.40388
9.17651
8.94942
8.72271
8.49652
8.27094
8.04611
7.82214
7.59917
7.37731
7.15669
6.93743
6.71968
6.50354
6.28916
6.07665
5.86613
5.65775
5.4516
5.24781
5.0465
4.84777
4.65172
4.45847
4.26809
4.08068
3.89631
3.71506
3.537
3.36217
3.19062
3.02239
2.85753
2.69605
2.538
2.38341
2.23232
2.08465
1.94027
1.79912
1.66121
1.52653
1.3955
1.26844
1.14613
1.02991
0.92196
0.828517
0.772824
0.879572
1.99437
3.78775
2.12768
2.03297
2.16078
2.3642
2.60477
2.86758
3.14554
3.43491
3.73362
4.0404
4.35449
4.67531
5.00243
5.33544
5.67395
6.01754
6.36576
6.71812
7.0741
7.43314
7.79466
8.15805
8.52267
8.88789
9.25305
9.61748
9.98054
10.3416
10.7
11.0551
11.4063
11.753
12.0947
12.4308
12.7609
13.0844
13.401
13.7102
14.0117
14.305
14.59
14.8664
15.1338
15.3922
15.6413
15.881
16.1112
16.3318
16.5427
16.744
16.9356
17.1175
17.2899
17.4528
17.6064
17.7508
17.8859
18.0119
18.1287
18.2367
18.3358
18.4262
18.5081
18.5816
18.6468
18.704
18.7533
18.7949
18.8289
18.8556
18.875
18.8874
18.8929
18.8917
18.8839
18.8698
18.8495
18.8231
18.7908
18.7527
18.709
18.6599
18.6055
18.5459
18.4813
18.4118
18.3376
18.2587
18.1752
18.0875
17.9954
17.8992
17.799
17.6948
17.5868
17.4751
17.3598
17.241
17.1188
16.9933
16.8646
16.7327
16.5978
16.4599
16.3191
16.1756
16.0293
15.8804
15.7289
15.575
15.4186
15.2598
15.0988
14.9356
14.7702
14.6027
14.4332
14.2617
14.0883
13.9131
13.736
13.5573
13.3768
13.1948
13.0112
12.8261
12.6395
12.4515
12.2623
12.0717
11.88
11.6871
11.4931
11.298
11.1021
10.9052
10.7075
10.509
10.3099
10.1101
9.90986
9.70912
9.50801
9.30661
9.10501
8.90328
8.70153
8.49984
8.29831
8.09704
7.89612
7.69567
7.49577
7.29654
7.09809
6.90051
6.70394
6.50846
6.3142
6.12127
5.92977
5.73983
5.55155
5.36505
5.18043
4.99779
4.81726
4.63892
4.46289
4.28924
4.11808
3.9495
3.78357
3.62038
3.45999
3.30247
3.14789
2.99629
2.84774
2.70228
2.55995
2.4208
2.28488
2.15224
2.02292
1.89696
1.7744
1.65532
1.53989
1.42837
1.32122
1.21913
1.12327
1.03567
0.95994
0.903856
0.886722
0.972304
1.82672
3.7878
2.12736
2.03268
2.16056
2.36399
2.60457
2.86737
3.14532
3.4347
3.73339
4.04018
4.35425
4.67507
5.00219
5.3352
5.67372
6.0173
6.36552
6.71788
7.07386
7.43291
7.79443
8.15782
8.52245
8.88766
9.25282
9.61726
9.98033
10.3414
10.6998
11.0548
11.4061
11.7528
12.0945
12.4306
12.7607
13.0843
13.4008
13.71
14.0115
14.3049
14.5899
14.8662
15.1337
15.392
15.6411
15.8808
16.111
16.3316
16.5426
16.7439
16.9355
17.1174
17.2898
17.4527
17.6063
17.7507
17.8858
18.0118
18.1287
18.2366
18.3357
18.4261
18.508
18.5815
18.6468
18.704
18.7533
18.7949
18.8289
18.8555
18.875
18.8873
18.8928
18.8916
18.8839
18.8698
18.8494
18.823
18.7907
18.7527
18.709
18.6599
18.6055
18.5459
18.4813
18.4118
18.3375
18.2586
18.1752
18.0874
17.9954
17.8992
17.7989
17.6948
17.5868
17.4751
17.3598
17.241
17.1188
16.9933
16.8645
16.7327
16.5977
16.4599
16.3191
16.1756
16.0293
15.8804
15.7289
15.5749
15.4186
15.2598
15.0988
14.9355
14.7702
14.6027
14.4331
14.2617
14.0883
13.913
13.736
13.5573
13.3768
13.1948
13.0112
12.826
12.6395
12.4515
12.2623
12.0717
11.88
11.687
11.493
11.298
11.102
10.9052
10.7075
10.509
10.3099
10.1101
9.90986
9.70912
9.50801
9.30661
9.105
8.90328
8.70152
8.49984
8.29831
8.09704
7.89612
7.69566
7.49577
7.29654
7.09809
6.90051
6.70393
6.50846
6.3142
6.12127
5.92977
5.73983
5.55155
5.36505
5.18042
4.99779
4.81726
4.63892
4.46288
4.28924
4.11808
3.9495
3.78357
3.62037
3.45999
3.30247
3.14789
2.99629
2.84774
2.70228
2.55995
2.4208
2.28488
2.15224
2.02292
1.89696
1.7744
1.65532
1.53989
1.42837
1.32122
1.21913
1.12327
1.03564
0.959715
0.902899
0.885064
0.993561
1.86199
4.98904
2.67079
2.41208
2.45832
2.60674
2.80442
3.03088
3.27631
3.53543
3.80519
4.08369
4.36973
4.66248
4.9613
5.26571
5.57524
5.88947
6.20797
6.53027
6.85591
7.18439
7.51519
7.84776
8.18156
8.516
8.85051
9.1845
9.51739
9.84859
10.1775
10.5036
10.8264
11.1452
11.4597
11.7692
12.0733
12.3717
12.6639
12.9494
13.228
13.4994
13.7632
14.0192
14.2671
14.5068
14.738
14.9607
15.1747
15.3799
15.5763
15.7638
15.9424
16.1121
16.273
16.425
16.5684
16.7031
16.8292
16.9468
17.0559
17.1567
17.2493
17.3337
17.4102
17.4788
17.5397
17.5931
17.639
17.6777
17.7093
17.7339
17.7517
17.7629
17.7677
17.7661
17.7583
17.7445
17.7248
17.6994
17.6685
17.6321
17.5904
17.5436
17.4917
17.435
17.3735
17.3074
17.2368
17.1618
17.0826
16.9992
16.9118
16.8205
16.7253
16.6265
16.5241
16.4181
16.3088
16.1961
16.0803
15.9613
15.8393
15.7144
15.5866
15.456
15.3227
15.1868
15.0483
14.9074
14.7641
14.6184
14.4705
14.3204
14.1681
14.0138
13.8575
13.6993
13.5391
13.3772
13.2135
13.048
12.881
12.7123
12.5421
12.3704
12.1973
12.0228
11.847
11.67
11.4917
11.3123
11.1318
10.9503
10.7678
10.5844
10.4002
10.2152
10.0294
9.84305
9.65609
9.46862
9.28072
9.09246
8.90392
8.71517
8.5263
8.33739
8.14853
7.9598
7.77129
7.5831
7.39532
7.20805
7.02137
6.8354
6.65023
6.46596
6.28269
6.10054
5.91959
5.73997
5.56176
5.38508
5.21003
5.0367
4.86521
4.69564
4.52811
4.36269
4.19948
4.03858
3.88006
3.72402
3.57051
3.41963
3.27144
3.12601
2.98339
2.84366
2.70687
2.57307
2.44233
2.31472
2.1903
2.06914
1.95135
1.83703
1.72632
1.61943
1.51663
1.41837
1.3253
1.23839
1.15921
1.09039
1.03672
1.00861
1.03276
1.21087
2.4391
4.98928
2.67064
2.41189
2.45812
2.60653
2.80421
3.03065
3.27608
3.5352
3.80495
4.08346
4.3695
4.66224
4.96106
5.26547
5.575
5.88923
6.20773
6.53003
6.85567
7.18416
7.51496
7.84754
8.18133
8.51578
8.85029
9.18429
9.51718
9.84839
10.1773
10.5035
10.8262
11.1451
11.4595
11.769
12.0732
12.3715
12.6637
12.9493
13.2279
13.4992
13.763
14.019
14.267
14.5066
14.7379
14.9606
15.1746
15.3798
15.5762
15.7637
15.9423
16.112
16.2729
16.425
16.5683
16.703
16.8291
16.9467
17.0559
17.1567
17.2492
17.3337
17.4102
17.4788
17.5397
17.593
17.639
17.6777
17.7092
17.7339
17.7517
17.7629
17.7676
17.766
17.7583
17.7445
17.7248
17.6994
17.6685
17.6321
17.5904
17.5436
17.4917
17.435
17.3735
17.3074
17.2368
17.1618
17.0826
16.9992
16.9118
16.8204
16.7253
16.6265
16.524
16.4181
16.3088
16.1961
16.0803
15.9613
15.8393
15.7144
15.5866
15.456
15.3227
15.1868
15.0483
14.9074
14.7641
14.6184
14.4705
14.3204
14.1681
14.0138
13.8575
13.6993
13.5391
13.3772
13.2135
13.048
12.881
12.7123
12.5421
12.3704
12.1973
12.0228
11.847
11.67
11.4917
11.3123
11.1318
10.9503
10.7678
10.5844
10.4002
10.2152
10.0294
9.84306
9.6561
9.46863
9.28073
9.09247
8.90392
8.71518
8.52631
8.3374
8.14853
7.9598
7.7713
7.58311
7.39533
7.20805
7.02138
6.83541
6.65023
6.46596
6.2827
6.10054
5.9196
5.73997
5.56177
5.38509
5.21003
5.03671
4.86521
4.69565
4.52811
4.36269
4.19949
4.03859
3.88007
3.72402
3.57052
3.41964
3.27145
3.12601
2.9834
2.84366
2.70687
2.57308
2.44234
2.31472
2.1903
2.06915
1.95136
1.83704
1.72633
1.61943
1.51663
1.41837
1.3253
1.23839
1.15922
1.0904
1.03672
1.00844
1.03207
1.21285
2.44144
6.2103
3.23545
2.82793
2.80492
2.90987
3.07573
3.2766
3.50004
3.73931
3.99042
4.2509
4.51914
4.79403
5.07478
5.36078
5.65152
5.94655
6.24542
6.54772
6.853
7.16082
7.47071
7.78217
8.09473
8.40785
8.72104
9.03376
9.34549
9.65571
9.96389
10.2695
10.5721
10.8712
11.1663
11.4569
11.7427
12.0232
12.298
12.5669
12.8293
13.0852
13.334
13.5757
13.81
14.0367
14.2556
14.4665
14.6694
14.8642
15.0507
15.2289
15.3988
15.5604
15.7136
15.8586
15.9953
16.1239
16.2444
16.3568
16.4612
16.5577
16.6463
16.7273
16.8007
16.8666
16.9252
16.9765
17.0208
17.0581
17.0886
17.1125
17.1298
17.1408
17.1455
17.1442
17.1369
17.1239
17.1051
17.0809
17.0512
17.0163
16.9763
16.9314
16.8815
16.827
16.7678
16.7042
16.6362
16.564
16.4876
16.4072
16.323
16.2349
16.1431
16.0477
15.9489
15.8466
15.7411
15.6324
15.5205
15.4056
15.2878
15.1671
15.0436
14.9174
14.7887
14.6574
14.5236
14.3874
14.2489
14.1082
13.9652
13.8202
13.673
13.5239
13.3729
13.22
13.0653
12.9088
12.7507
12.5909
12.4295
12.2666
12.1022
11.9364
11.7693
11.6009
11.4312
11.2603
11.0883
10.9152
10.7411
10.566
10.39
10.2132
10.0356
9.85725
9.67828
9.49872
9.31864
9.13812
8.95722
8.77601
8.59458
8.413
8.23134
8.04969
7.86814
7.68676
7.50565
7.32489
7.14457
6.96479
6.78564
6.60721
6.4296
6.25291
6.07723
5.90266
5.72931
5.55727
5.38664
5.21752
5.05
4.88418
4.72016
4.55804
4.39789
4.23981
4.0839
3.93022
3.77887
3.62992
3.48345
3.33953
3.19824
3.05963
2.92379
2.79077
2.66064
2.53347
2.40935
2.28836
2.17058
2.05615
1.94518
1.83786
1.7344
1.6351
1.54037
1.4508
1.36722
1.29088
1.22376
1.16914
1.1331
1.12861
1.18983
1.44919
3.04496
6.2106
3.23532
2.82774
2.80471
2.90964
3.0755
3.27636
3.4998
3.73906
3.99018
4.25066
4.51889
4.79379
5.07454
5.36054
5.65128
5.9463
6.24518
6.54748
6.85277
7.16059
7.47048
7.78195
8.0945
8.40764
8.72083
9.03355
9.34529
9.65551
9.9637
10.2693
10.572
10.871
11.1661
11.4568
11.7426
12.0231
12.2979
12.5667
12.8292
13.085
13.3339
13.5756
13.8099
14.0366
14.2555
14.4664
14.6693
14.8641
15.0506
15.2288
15.3987
15.5603
15.7136
15.8585
15.9953
16.1239
16.2443
16.3567
16.4611
16.5576
16.6463
16.7273
16.8007
16.8666
16.9251
16.9765
17.0207
17.0581
17.0886
17.1125
17.1298
17.1408
17.1455
17.1442
17.1369
17.1238
17.1051
17.0808
17.0512
17.0163
16.9763
16.9314
16.8815
16.827
16.7678
16.7042
16.6362
16.564
16.4876
16.4072
16.323
16.2349
16.1431
16.0477
15.9489
15.8466
15.7411
15.6323
15.5205
15.4056
15.2878
15.1671
15.0436
14.9174
14.7887
14.6574
14.5236
14.3874
14.2489
14.1082
13.9652
13.8202
13.6731
13.5239
13.3729
13.22
13.0653
12.9088
12.7507
12.5909
12.4295
12.2666
12.1022
11.9364
11.7693
11.6009
11.4312
11.2603
11.0883
10.9152
10.7411
10.566
10.39
10.2132
10.0356
9.85726
9.67829
9.49873
9.31865
9.13813
8.95723
8.77602
8.59459
8.413
8.23135
8.0497
7.86815
7.68677
7.50566
7.3249
7.14458
6.9648
6.78564
6.60722
6.42961
6.25291
6.07724
5.90267
5.72932
5.55728
5.38665
5.21753
5.05001
4.88419
4.72017
4.55804
4.3979
4.23982
4.0839
3.93023
3.77888
3.62993
3.48346
3.33954
3.19825
3.05964
2.92379
2.79077
2.66064
2.53348
2.40936
2.28836
2.17059
2.05615
1.94519
1.83786
1.7344
1.6351
1.54038
1.4508
1.36722
1.29088
1.22376
1.16915
1.13312
1.12861
1.18972
1.4494
3.04523
7.48193
3.82454
3.27317
3.18747
3.2554
3.39562
3.57678
3.7839
4.00882
4.24668
4.49446
4.75017
5.01245
5.28034
5.55313
5.83025
6.11121
6.39559
6.68295
6.97291
7.26504
7.55892
7.85413
8.15022
8.44673
8.74321
9.03919
9.3342
9.62777
9.91944
10.2087
10.4952
10.7785
11.058
11.3335
11.6044
11.8706
12.1315
12.3868
12.6363
12.8796
13.1165
13.3468
13.5701
13.7864
13.9955
14.1971
14.3912
14.5777
14.7565
14.9275
15.0906
15.246
15.3934
15.5331
15.6649
15.789
15.9053
16.014
16.115
16.2085
16.2945
16.3732
16.4446
16.5088
16.566
16.6162
16.6596
16.6963
16.7265
16.7502
16.7676
16.7788
16.784
16.7833
16.7768
16.7646
16.747
16.724
16.6957
16.6623
16.6239
16.5806
16.5326
16.48
16.4228
16.3613
16.2955
16.2255
16.1515
16.0735
15.9917
15.9061
15.8169
15.7242
15.6281
15.5286
15.4258
15.3199
15.2109
15.0989
14.9841
14.8664
14.7459
14.6229
14.4972
14.369
14.2384
14.1055
13.9702
13.8327
13.6931
13.5514
13.4076
13.2619
13.1143
12.9649
12.8136
12.6607
12.5061
12.3498
12.1921
12.0328
11.8721
11.71
11.5466
11.3819
11.216
11.049
10.8808
10.7116
10.5414
10.3703
10.1983
10.0255
9.85198
9.67776
9.50292
9.32752
9.15165
8.97536
8.79872
8.62182
8.44472
8.26749
8.09023
7.913
7.7359
7.55899
7.38238
7.20614
7.03036
6.85513
6.68055
6.50671
6.33369
6.1616
5.99052
5.82056
5.6518
5.48435
5.31829
5.15373
4.99075
4.82944
4.66991
4.51223
4.35649
4.20279
4.0512
3.9018
3.75468
3.60991
3.46757
3.32773
3.19046
3.05583
2.92393
2.79482
2.66858
2.5453
2.42507
2.308
2.19421
2.08385
1.9771
1.87419
1.77542
1.68116
1.59193
1.50846
1.43178
1.36341
1.30572
1.26273
1.24179
1.25862
1.35501
1.69309
3.65806
7.48228
3.8244
3.27296
3.18724
3.25516
3.39537
3.57653
3.78365
4.00856
4.24643
4.49421
4.74991
5.0122
5.28009
5.55288
5.83
6.11097
6.39534
6.68271
6.97267
7.26481
7.5587
7.85391
8.15
8.44652
8.743
9.03899
9.334
9.62758
9.91925
10.2086
10.4951
10.7783
11.0578
11.3333
11.6043
11.8704
12.1313
12.3867
12.6362
12.8795
13.1164
13.3467
13.57
13.7863
13.9954
14.197
14.3911
14.5776
14.7564
14.9274
15.0906
15.2459
15.3934
15.533
15.6648
15.7889
15.9052
16.0139
16.115
16.2085
16.2945
16.3732
16.4446
16.5088
16.5659
16.6162
16.6596
16.6963
16.7264
16.7502
16.7676
16.7788
16.784
16.7833
16.7768
16.7646
16.747
16.724
16.6957
16.6623
16.6239
16.5806
16.5326
16.48
16.4228
16.3613
16.2955
16.2255
16.1515
16.0735
15.9917
15.9061
15.8169
15.7242
15.6281
15.5286
15.4258
15.3199
15.2109
15.0989
14.9841
14.8664
14.7459
14.6229
14.4972
14.369
14.2384
14.1055
13.9702
13.8327
13.6931
13.5514
13.4076
13.2619
13.1143
12.9649
12.8136
12.6607
12.5061
12.3499
12.1921
12.0328
11.8721
11.71
11.5466
11.3819
11.216
11.049
10.8808
10.7116
10.5414
10.3703
10.1983
10.0255
9.85199
9.67776
9.50292
9.32753
9.15166
8.97537
8.79873
8.62183
8.44473
8.2675
8.09024
7.91301
7.73591
7.559
7.38239
7.20614
7.03037
6.85514
6.68056
6.50672
6.3337
6.16161
5.99053
5.82057
5.65181
5.48436
5.3183
5.15374
4.99075
4.82945
4.66991
4.51223
4.3565
4.2028
4.0512
3.90181
3.75469
3.60992
3.46757
3.32773
3.19046
3.05584
2.92393
2.79482
2.66858
2.5453
2.42507
2.308
2.19421
2.08385
1.97711
1.8742
1.77542
1.68116
1.59193
1.50847
1.43178
1.36341
1.30573
1.26273
1.2418
1.25863
1.35501
1.69315
3.65813
8.79114
4.43705
3.7448
3.60045
3.6354
3.75382
3.9189
4.11312
4.32694
4.5547
4.79284
5.03903
5.29166
5.54963
5.81212
6.0785
6.34826
6.62096
6.8962
7.1736
7.45278
7.73337
8.01497
8.2972
8.57965
8.86192
9.1436
9.42427
9.70352
9.98092
10.2561
10.5286
10.798
11.064
11.3262
11.5842
11.8378
12.0864
12.3299
12.568
12.8004
13.0267
13.2469
13.4607
13.6679
13.8683
14.0618
14.2482
14.4275
14.5995
14.7643
14.9216
15.0716
15.2141
15.3492
15.4768
15.5971
15.71
15.8156
15.914
16.0051
16.089
16.1659
16.2358
16.2988
16.355
16.4046
16.4475
16.4839
16.514
16.5379
16.5556
16.5673
16.5731
16.5732
16.5676
16.5566
16.5401
16.5184
16.4915
16.4595
16.4227
16.3811
16.3348
16.284
16.2287
16.1691
16.1052
16.0372
15.9653
15.8894
15.8097
15.7263
15.6393
15.5488
15.4549
15.3577
15.2572
15.1536
15.047
14.9373
14.8248
14.7095
14.5915
14.4708
14.3475
14.2217
14.0935
13.963
13.8302
13.6951
13.5579
13.4186
13.2773
13.1341
12.9889
12.8419
12.6931
12.5426
12.3905
12.2368
12.0815
11.9247
11.7665
11.6069
11.446
11.2839
11.1205
10.956
10.7904
10.6238
10.4562
10.2877
10.1183
9.94815
9.77726
9.6057
9.43354
9.26085
9.08769
8.91412
8.74024
8.56609
8.39177
8.21734
8.04288
7.86848
7.69421
7.52015
7.34639
7.17302
7.00012
6.82778
6.65608
6.48512
6.315
6.14579
5.97759
5.8105
5.6446
5.47999
5.31676
5.155
4.9948
4.83625
4.67943
4.52444
4.37135
4.22025
4.07122
3.92434
3.77969
3.63734
3.49737
3.35986
3.22488
3.09251
2.96283
2.83592
2.71187
2.59078
2.47276
2.35795
2.2465
2.13858
2.03442
1.93431
1.8386
1.74776
1.6624
1.5834
1.51196
1.44988
1.39997
1.36692
1.35945
1.39615
1.52641
1.94242
4.27757
8.79152
4.43688
3.74457
3.6002
3.63514
3.75355
3.91863
4.11285
4.32668
4.55444
4.79258
5.03876
5.2914
5.54937
5.81186
6.07825
6.34801
6.62072
6.89596
7.17337
7.45255
7.73314
8.01475
8.29698
8.57944
8.86172
9.1434
9.42408
9.70333
9.98074
10.2559
10.5284
10.7979
11.0639
11.3261
11.5841
11.8376
12.0863
12.3298
12.5679
12.8002
13.0266
13.2468
13.4606
13.6678
13.8682
14.0617
14.2481
14.4274
14.5995
14.7642
14.9216
15.0715
15.214
15.3491
15.4768
15.5971
15.71
15.8156
15.9139
16.005
16.089
16.1659
16.2358
16.2988
16.355
16.4045
16.4475
16.4839
16.514
16.5379
16.5556
16.5673
16.5731
16.5732
16.5676
16.5566
16.5401
16.5184
16.4915
16.4595
16.4227
16.3811
16.3348
16.284
16.2287
16.1691
16.1052
16.0372
15.9653
15.8894
15.8097
15.7263
15.6393
15.5488
15.4549
15.3577
15.2572
15.1536
15.047
14.9374
14.8248
14.7095
14.5915
14.4708
14.3475
14.2217
14.0935
13.963
13.8302
13.6951
13.5579
13.4186
13.2773
13.1341
12.9889
12.8419
12.6931
12.5427
12.3905
12.2368
12.0815
11.9247
11.7665
11.6069
11.446
11.2839
11.1205
10.956
10.7904
10.6238
10.4562
10.2877
10.1183
9.94816
9.77727
9.60571
9.43355
9.26086
9.08769
8.91413
8.74024
8.5661
8.39178
8.21735
8.04289
7.86849
7.69422
7.52016
7.3464
7.17303
7.00013
6.82778
6.65609
6.48513
6.315
6.1458
5.9776
5.81051
5.64461
5.48
5.31677
5.15501
4.99481
4.83625
4.67944
4.52444
4.37135
4.22025
4.07123
3.92435
3.7797
3.63735
3.49738
3.35987
3.22489
3.09252
2.96283
2.83592
2.71187
2.59078
2.47277
2.35796
2.2465
2.13858
2.03443
1.93431
1.8386
1.74776
1.66241
1.58341
1.51197
1.44989
1.39997
1.36692
1.35945
1.39616
1.52642
1.94247
4.27761
10.1451
5.0747
4.24237
4.04182
4.04645
4.1456
4.29698
4.4805
4.6853
4.9049
5.13526
5.37371
5.61845
5.86821
6.12209
6.3794
6.63961
6.90227
7.167
7.43343
7.70123
7.97005
8.23956
8.50941
8.77924
9.04872
9.31747
9.58514
9.85134
10.1157
10.3779
10.6376
10.8944
11.1479
11.3978
11.6439
11.8857
12.123
12.3555
12.583
12.8051
13.0217
13.2325
13.4373
13.6359
13.8283
14.0141
14.1934
14.3659
14.5317
14.6905
14.8424
14.9873
15.1252
15.2561
15.3799
15.4967
15.6065
15.7093
15.8051
15.8941
15.9762
16.0515
16.1201
16.182
16.2374
16.2864
16.329
16.3653
16.3954
16.4195
16.4376
16.4499
16.4564
16.4573
16.4527
16.4427
16.4274
16.407
16.3815
16.351
16.3157
16.2757
16.2311
16.1819
16.1284
16.0706
16.0086
15.9425
15.8724
15.7985
15.7208
15.6394
15.5544
15.4659
15.374
15.2788
15.1804
15.0788
14.9742
14.8666
14.7561
14.6428
14.5268
14.4082
14.2869
14.1631
14.0369
13.9084
13.7775
13.6444
13.5092
13.3719
13.2325
13.0912
12.9479
12.8028
12.656
12.5074
12.3571
12.2053
12.0518
11.8969
11.7406
11.5829
11.4238
11.2635
11.102
10.9393
10.7755
10.6107
10.445
10.2783
10.1108
9.94243
9.77337
9.60365
9.43334
9.26249
9.09117
8.91946
8.74743
8.57515
8.40269
8.23013
8.05755
7.88502
7.71262
7.54044
7.36856
7.19707
7.02604
6.85557
6.68574
6.51664
6.34836
6.18099
6.01461
5.84932
5.68521
5.52236
5.36087
5.20082
5.04229
4.88538
4.73017
4.57674
4.42518
4.27555
4.12795
3.98246
3.83914
3.69808
3.55935
3.42303
3.2892
3.15794
3.02935
2.9035
2.78051
2.66049
2.54357
2.42991
2.31967
2.21309
2.11042
2.01199
1.91824
1.8297
1.7471
1.67143
1.60409
1.54714
1.50383
1.47957
1.48445
1.53998
1.70315
2.19627
4.90215
10.1455
5.0745
4.24211
4.04155
4.04617
4.14532
4.2967
4.48022
4.68502
4.90463
5.13499
5.37344
5.61818
5.86795
6.12183
6.37915
6.63936
6.90203
7.16676
7.4332
7.701
7.96983
8.23934
8.50919
8.77904
9.04852
9.31728
9.58495
9.85116
10.1156
10.3778
10.6374
10.8942
11.1477
11.3977
11.6437
11.8856
12.1229
12.3554
12.5829
12.805
13.0216
13.2324
13.4372
13.6358
13.8282
14.014
14.1933
14.3659
14.5316
14.6905
14.8424
14.9873
15.1252
15.256
15.3799
15.4967
15.6064
15.7092
15.8051
15.894
15.9761
16.0514
16.1201
16.182
16.2374
16.2864
16.329
16.3653
16.3954
16.4195
16.4376
16.4499
16.4564
16.4573
16.4527
16.4427
16.4274
16.407
16.3815
16.351
16.3157
16.2757
16.2311
16.1819
16.1284
16.0706
16.0086
15.9425
15.8725
15.7985
15.7208
15.6394
15.5544
15.4659
15.374
15.2788
15.1804
15.0788
14.9742
14.8666
14.7561
14.6429
14.5268
14.4082
14.2869
14.1631
14.0369
13.9084
13.7775
13.6445
13.5092
13.3719
13.2325
13.0912
12.9479
12.8029
12.656
12.5074
12.3571
12.2053
12.0518
11.8969
11.7406
11.5829
11.4238
11.2635
11.102
10.9393
10.7755
10.6108
10.445
10.2783
10.1108
9.94244
9.77338
9.60366
9.43334
9.26249
9.09118
8.91947
8.74744
8.57516
8.4027
8.23014
8.05755
7.88502
7.71263
7.54045
7.36857
7.19708
7.02605
6.85558
6.68575
6.51665
6.34837
6.18099
6.01462
5.84933
5.68522
5.52237
5.36088
5.20082
5.0423
4.88539
4.73018
4.57675
4.42518
4.27556
4.12796
3.98246
3.83915
3.69808
3.55936
3.42304
3.28921
3.15795
3.02935
2.90351
2.78052
2.6605
2.54358
2.42991
2.31968
2.21309
2.11042
2.012
1.91824
1.8297
1.7471
1.67143
1.60409
1.54715
1.50383
1.47957
1.48446
1.53999
1.70316
2.19632
4.90217
11.5445
5.73892
4.76644
4.51129
4.48742
4.56907
4.70835
4.88265
5.07974
5.29241
5.51612
5.74791
5.98578
6.22832
6.47455
6.72374
6.97533
7.22887
7.48398
7.74034
7.99763
8.25555
8.5138
8.7721
9.03013
9.28759
9.54417
9.79955
10.0534
10.3055
10.5554
10.8028
11.0475
11.2891
11.5273
11.7618
11.9924
12.2188
12.4407
12.6579
12.8701
13.0772
13.2789
13.475
13.6653
13.8498
14.0282
14.2004
14.3663
14.5259
14.679
14.8255
14.9655
15.0988
15.2255
15.3455
15.4588
15.5655
15.6655
15.7589
15.8457
15.9259
15.9996
16.0669
16.1278
16.1824
16.2308
16.273
16.3092
16.3393
16.3636
16.3821
16.3949
16.4021
16.4038
16.4001
16.3911
16.377
16.3578
16.3336
16.3045
16.2707
16.2322
16.1892
16.1417
16.0898
16.0338
15.9735
15.9092
15.841
15.7689
15.693
15.6135
15.5304
15.4438
15.3538
15.2605
15.1639
15.0643
14.9615
14.8558
14.7472
14.6358
14.5216
14.4047
14.2853
14.1633
14.0389
13.9121
13.783
13.6516
13.5181
13.3825
13.2448
13.1051
12.9635
12.82
12.6747
12.5277
12.379
12.2287