/*--------------------------------*- C++ -*----------------------------------*\
  =========                 |
  \\      /  F ield         | OpenFOAM: The Open Source CFD Toolbox
   \\    /   O peration     | Website:  https://openfoam.org
    \\  /    A nd           | Version:  8
     \\/     M anipulation  |
\*---------------------------------------------------------------------------*/
FoamFile
{
    version     2.0;
    format      ascii;
    class       volScalarField;
    location    "1500";
    object      k;
}
// * * * * * * * * * * * * * * * * * * * * * * * * * * * * * * * * * * * * * //

dimensions      [0 2 -2 0 0 0 0];

internalField   nonuniform List<scalar> 
48000
(
0.0191397
0.0261635
0.0403939
0.053183
0.0646316
0.0750144
0.0847874
0.094064
0.1029
0.11141
0.119653
0.127669
0.135491
0.143144
0.150644
0.158006
0.165237
0.172343
0.17933
0.186198
0.192949
0.19958
0.206093
0.212483
0.218749
0.224888
0.230898
0.236776
0.242518
0.248124
0.253589
0.258913
0.264093
0.269128
0.274016
0.278756
0.283348
0.287792
0.292086
0.296232
0.30023
0.30408
0.307784
0.311341
0.314755
0.318026
0.321155
0.324146
0.326998
0.329715
0.332298
0.33475
0.337071
0.339263
0.341336
0.343301
0.34515
0.346882
0.348499
0.350004
0.351398
0.352685
0.353867
0.354946
0.355925
0.356805
0.357589
0.35828
0.358878
0.359387
0.359808
0.360144
0.360396
0.360566
0.360656
0.360668
0.360603
0.360464
0.360251
0.359966
0.359611
0.359188
0.358697
0.35814
0.357518
0.356833
0.356086
0.355278
0.354411
0.353484
0.3525
0.35146
0.350364
0.349213
0.348009
0.346752
0.345444
0.344084
0.342675
0.341216
0.339708
0.338153
0.33655
0.334901
0.333205
0.331465
0.32968
0.32785
0.325977
0.32406
0.322101
0.320099
0.318056
0.315971
0.313845
0.311678
0.30947
0.307223
0.304935
0.302608
0.300241
0.297836
0.295391
0.292908
0.290386
0.287825
0.285227
0.282591
0.279916
0.277205
0.274456
0.271669
0.268846
0.265986
0.263089
0.260156
0.257187
0.254183
0.251142
0.248067
0.244957
0.241812
0.238633
0.235421
0.232175
0.228897
0.225587
0.222245
0.218872
0.215469
0.212036
0.208574
0.205085
0.201568
0.198024
0.194455
0.190861
0.187244
0.183603
0.179942
0.176259
0.172557
0.168837
0.165099
0.161345
0.157577
0.153794
0.149999
0.146191
0.142374
0.138547
0.134711
0.130867
0.127017
0.12316
0.119297
0.115428
0.111554
0.107673
0.103786
0.0998918
0.0959883
0.0920742
0.0881485
0.0842121
0.08028
0.0763528
0.0723816
0.0683503
0.0642436
0.0600377
0.0557037
0.0512016
0.0465085
0.0415898
0.0362722
0.0303716
0.023871
0.0220675
0.0173461
0.0191474
0.0261685
0.040395
0.0531847
0.0646337
0.0750166
0.0847897
0.0940662
0.102902
0.111413
0.119655
0.127671
0.135493
0.143146
0.150646
0.158007
0.165238
0.172345
0.179332
0.1862
0.19295
0.199582
0.206094
0.212484
0.21875
0.224889
0.230899
0.236777
0.242519
0.248125
0.25359
0.258914
0.264094
0.269128
0.274016
0.278757
0.283349
0.287792
0.292087
0.296233
0.30023
0.30408
0.307784
0.311341
0.314755
0.318026
0.321155
0.324145
0.326998
0.329715
0.332298
0.33475
0.337071
0.339263
0.341336
0.343301
0.345149
0.346881
0.348498
0.350003
0.351398
0.352685
0.353867
0.354946
0.355924
0.356805
0.357589
0.358279
0.358878
0.359387
0.359808
0.360144
0.360396
0.360566
0.360656
0.360668
0.360603
0.360463
0.36025
0.359966
0.359611
0.359187
0.358696
0.358139
0.357518
0.356833
0.356086
0.355278
0.35441
0.353484
0.3525
0.351459
0.350363
0.349213
0.348009
0.346752
0.345443
0.344084
0.342674
0.341215
0.339708
0.338152
0.336549
0.3349
0.333205
0.331464
0.329679
0.32785
0.325976
0.32406
0.322101
0.320099
0.318056
0.315971
0.313844
0.311677
0.30947
0.307222
0.304935
0.302608
0.300241
0.297835
0.295391
0.292907
0.290385
0.287825
0.285227
0.28259
0.279916
0.277204
0.274455
0.271669
0.268846
0.265986
0.263089
0.260156
0.257187
0.254182
0.251142
0.248066
0.244956
0.241812
0.238633
0.23542
0.232175
0.228897
0.225586
0.222244
0.218872
0.215468
0.212036
0.208574
0.205084
0.201567
0.198024
0.194455
0.190861
0.187243
0.183603
0.179941
0.176259
0.172557
0.168837
0.165099
0.161345
0.157576
0.153794
0.149998
0.146191
0.142374
0.138547
0.134711
0.130867
0.127017
0.12316
0.119297
0.115428
0.111554
0.107673
0.103786
0.0998917
0.0959882
0.0920741
0.0881485
0.0842121
0.08028
0.0763528
0.0723816
0.0683503
0.0642436
0.0600377
0.0557038
0.0512019
0.0465095
0.0415942
0.0362909
0.0304379
0.0238784
0.0178148
0.0189993
0.0377422
0.0689034
0.0966825
0.121603
0.144556
0.165954
0.186189
0.205511
0.224101
0.242094
0.259595
0.276681
0.293408
0.309819
0.325945
0.341809
0.357425
0.372802
0.387946
0.402857
0.417535
0.431975
0.446174
0.460125
0.473821
0.487255
0.500421
0.51331
0.525916
0.538232
0.550252
0.56197
0.573382
0.584482
0.595267
0.605734
0.61588
0.625704
0.635205
0.644382
0.653236
0.661767
0.669977
0.677867
0.685441
0.6927
0.699648
0.706288
0.712625
0.718662
0.724402
0.729851
0.735012
0.739887
0.744479
0.748798
0.752856
0.756658
0.760208
0.76351
0.76657
0.769393
0.771984
0.774348
0.776491
0.778417
0.780132
0.781639
0.782945
0.784053
0.784968
0.785694
0.786236
0.786597
0.786783
0.786796
0.786641
0.786321
0.785839
0.7852
0.784407
0.783463
0.782371
0.781134
0.779755
0.778237
0.776582
0.774795
0.772876
0.770829
0.768655
0.766358
0.76394
0.761402
0.758747
0.755977
0.753094
0.7501
0.746996
0.743784
0.740466
0.737044
0.733518
0.729892
0.726165
0.722339
0.718416
0.714397
0.710283
0.706075
0.701773
0.69738
0.692896
0.688322
0.683658
0.678906
0.674066
0.669139
0.664126
0.659027
0.653842
0.648573
0.64322
0.637783
0.632263
0.62666
0.620975
0.615208
0.60936
0.603431
0.597422
0.591332
0.585163
0.578916
0.572589
0.566186
0.559704
0.553147
0.546513
0.539805
0.533022
0.526166
0.519237
0.512237
0.505167
0.498027
0.490819
0.483545
0.476206
0.468803
0.461338
0.453812
0.446227
0.438586
0.43089
0.423141
0.415341
0.407493
0.399598
0.39166
0.38368
0.375661
0.367605
0.359516
0.351395
0.343245
0.335069
0.32687
0.318649
0.310409
0.302152
0.293881
0.285597
0.277302
0.268997
0.260683
0.252361
0.24403
0.23569
0.227338
0.218974
0.210593
0.20219
0.19376
0.185294
0.176785
0.168214
0.159552
0.150783
0.141882
0.132805
0.123501
0.113897
0.10389
0.0933719
0.0821806
0.070088
0.0567852
0.0415398
0.0238536
0.0377496
0.068903
0.0966835
0.121605
0.144558
0.165956
0.18619
0.205513
0.224102
0.242096
0.259597
0.276682
0.293409
0.30982
0.325946
0.34181
0.357425
0.372803
0.387946
0.402857
0.417535
0.431976
0.446174
0.460125
0.473821
0.487255
0.500421
0.51331
0.525916
0.538232
0.550251
0.56197
0.573381
0.584481
0.595266
0.605732
0.615879
0.625703
0.635204
0.644381
0.653234
0.661765
0.669975
0.677866
0.685439
0.692698
0.699646
0.706287
0.712623
0.71866
0.7244
0.729849
0.73501
0.739885
0.744477
0.748796
0.752854
0.756656
0.760206
0.763508
0.766568
0.769391
0.771982
0.774346
0.776489
0.778415
0.78013
0.781637
0.782943
0.784051
0.784966
0.785692
0.786234
0.786595
0.786781
0.786794
0.786639
0.786319
0.785837
0.785198
0.784405
0.783461
0.782369
0.781131
0.779752
0.778235
0.77658
0.774793
0.772874
0.770827
0.768653
0.766356
0.763938
0.7614
0.758745
0.755975
0.753092
0.750098
0.746994
0.743782
0.740464
0.737042
0.733517
0.72989
0.726163
0.722337
0.718414
0.714395
0.710281
0.706073
0.701771
0.697378
0.692894
0.68832
0.683656
0.678904
0.674064
0.669137
0.664124
0.659025
0.65384
0.648571
0.643218
0.637781
0.632261
0.626658
0.620973
0.615206
0.609358
0.603429
0.59742
0.591331
0.585162
0.578914
0.572588
0.566184
0.559703
0.553145
0.546512
0.539803
0.53302
0.526164
0.519236
0.512235
0.505165
0.498026
0.490818
0.483544
0.476204
0.468801
0.461336
0.45381
0.446226
0.438585
0.430889
0.42314
0.41534
0.407492
0.399597
0.391659
0.383679
0.37566
0.367604
0.359515
0.351394
0.343244
0.335068
0.326869
0.318648
0.310408
0.302151
0.29388
0.285596
0.277301
0.268996
0.260682
0.25236
0.244029
0.235689
0.227338
0.218973
0.210592
0.202189
0.193759
0.185294
0.176784
0.168214
0.159552
0.150782
0.141882
0.132805
0.1235
0.113897
0.10389
0.0933693
0.0821639
0.070007
0.0565156
0.0412219
0.0282532
0.0410164
0.0967059
0.132505
0.162868
0.190739
0.216965
0.241955
0.265962
0.289164
0.311696
0.333662
0.355141
0.376194
0.396869
0.417199
0.437208
0.456915
0.476329
0.495454
0.514294
0.532844
0.551102
0.56906
0.58671
0.604045
0.621055
0.637731
0.654062
0.670042
0.685659
0.700908
0.715779
0.730267
0.744365
0.758068
0.771373
0.784275
0.796772
0.808863
0.820546
0.831822
0.84269
0.853153
0.863213
0.872871
0.882132
0.890998
0.899475
0.907566
0.915276
0.92261
0.929574
0.936172
0.94241
0.948293
0.953827
0.959025
0.963895
0.968442
0.972673
0.976594
0.980212
0.983534
0.986565
0.989313
0.991783
0.993982
0.995915
0.99759
0.999011
1.00019
1.00112
1.00181
1.00228
1.00252
1.00254
1.00234
1.00193
1.00131
1.0005
0.999481
0.998273
0.996875
0.995291
0.993526
0.991583
0.989466
0.987178
0.984722
0.982102
0.979321
0.976382
0.973288
0.970041
0.966644
0.963101
0.959413
0.955583
0.951613
0.947506
0.943264
0.938888
0.934381
0.929745
0.924981
0.920092
0.915078
0.909942
0.904685
0.899309
0.893814
0.888203
0.882476
0.876634
0.870679
0.864612
0.858433
0.852144
0.845745
0.839238
0.832622
0.8259
0.81907
0.812135
0.805095
0.79795
0.790702
0.78335
0.775895
0.768338
0.76068
0.752921
0.745062
0.737103
0.729046
0.720891
0.712639
0.70429
0.695847
0.687309
0.678678
0.669955
0.661141
0.652238
0.643246
0.634169
0.625006
0.61576
0.606433
0.597027
0.587543
0.577984
0.568352
0.55865
0.54888
0.539044
0.529146
0.519189
0.509174
0.499105
0.488986
0.478819
0.468608
0.458356
0.448066
0.437741
0.427385
0.417
0.406591
0.396159
0.385708
0.37524
0.364757
0.354262
0.343756
0.333241
0.322716
0.312181
0.301637
0.29108
0.280508
0.269916
0.2593
0.248651
0.237959
0.227212
0.216393
0.205476
0.194436
0.183239
0.171835
0.160184
0.148207
0.135804
0.122837
0.10914
0.0944306
0.0782003
0.058994
0.0340408
0.041015
0.0967071
0.132507
0.162869
0.19074
0.216966
0.241956
0.265962
0.289165
0.311696
0.333662
0.355141
0.376194
0.396868
0.417198
0.437208
0.456914
0.476328
0.495454
0.514293
0.532843
0.551101
0.569059
0.586709
0.604044
0.621054
0.637729
0.654061
0.67004
0.685658
0.700906
0.715777
0.730265
0.744363
0.758066
0.771371
0.784273
0.79677
0.808861
0.820544
0.831819
0.842688
0.853151
0.86321
0.872869
0.882129
0.890996
0.899472
0.907563
0.915273
0.922607
0.929571
0.936169
0.942407
0.94829
0.953824
0.959022
0.963892
0.968439
0.97267
0.976591
0.98021
0.983531
0.986562
0.98931
0.99178
0.993979
0.995912
0.997587
0.999009
1.00018
1.00111
1.00181
1.00228
1.00251
1.00253
1.00234
1.00193
1.00131
1.00049
0.999479
0.99827
0.996872
0.995289
0.993524
0.991581
0.989463
0.987175
0.98472
0.9821
0.979319
0.976379
0.973285
0.970038
0.966642
0.963098
0.95941
0.95558
0.951611
0.947503
0.943261
0.938885
0.934379
0.929742
0.924979
0.920089
0.915076
0.90994
0.904683
0.899307
0.893812
0.888201
0.882474
0.876632
0.870677
0.86461
0.858431
0.852142
0.845743
0.839236
0.83262
0.825897
0.819068
0.812133
0.805093
0.797948
0.790699
0.783347
0.775893
0.768336
0.760678
0.752919
0.74506
0.737101
0.729044
0.720889
0.712637
0.704288
0.695845
0.687307
0.678676
0.669953
0.661139
0.652236
0.643244
0.634167
0.625004
0.615758
0.606431
0.597025
0.587541
0.577982
0.568351
0.558648
0.548878
0.539043
0.529145
0.519187
0.509172
0.499104
0.488985
0.478818
0.468607
0.458355
0.448064
0.43774
0.427383
0.416999
0.406589
0.396158
0.385706
0.375239
0.364756
0.354261
0.343755
0.33324
0.322715
0.31218
0.301636
0.291079
0.280507
0.269915
0.259299
0.24865
0.237958
0.227212
0.216392
0.205476
0.194436
0.183238
0.171834
0.160183
0.148207
0.135804
0.122832
0.109111
0.094285
0.0775733
0.056823
0.0311207
0.0520191
0.120777
0.162652
0.197084
0.228382
0.257825
0.285953
0.313053
0.339311
0.364858
0.389795
0.4142
0.438135
0.461646
0.484768
0.507528
0.529944
0.552027
0.573782
0.595212
0.616316
0.637087
0.65752
0.677606
0.697336
0.716701
0.735689
0.754291
0.772497
0.790296
0.80768
0.82464
0.841169
0.85726
0.872906
0.888104
0.902848
0.917136
0.930965
0.944334
0.957243
0.969692
0.981682
0.993215
1.00429
1.01492
1.0251
1.03484
1.04414
1.053
1.06144
1.06946
1.07706
1.08425
1.09104
1.09743
1.10344
1.10906
1.11432
1.11922
1.12376
1.12795
1.1318
1.13532
1.13851
1.14138
1.14394
1.1462
1.14816
1.14982
1.1512
1.1523
1.15313
1.15369
1.15399
1.15404
1.15384
1.15339
1.1527
1.15178
1.15064
1.14927
1.14768
1.14587
1.14386
1.14164
1.13922
1.1366
1.13379
1.13078
1.1276
1.12422
1.12067
1.11695
1.11305
1.10898
1.10474
1.10034
1.09578
1.09106
1.08618
1.08115
1.07597
1.07064
1.06516
1.05953
1.05377
1.04786
1.04181
1.03563
1.0293
1.02285
1.01626
1.00954
1.00268
0.995703
0.988593
0.981356
0.973993
0.966506
0.958894
0.951158
0.943301
0.935322
0.927222
0.919002
0.910663
0.902206
0.893631
0.884939
0.876132
0.867208
0.858171
0.849019
0.839755
0.830379
0.820893
0.811296
0.801591
0.791779
0.78186
0.771837
0.76171
0.751482
0.741154
0.730728
0.720205
0.709588
0.698879
0.68808
0.677194
0.666223
0.655169
0.644037
0.632827
0.621545
0.610191
0.598771
0.587287
0.575743
0.564142
0.552488
0.540785
0.529036
0.517244
0.505415
0.49355
0.481655
0.469732
0.457785
0.445816
0.433829
0.421827
0.409811
0.397783
0.385745
0.373697
0.36164
0.349571
0.33749
0.325394
0.313277
0.301135
0.288958
0.276738
0.26446
0.252108
0.239659
0.227087
0.214357
0.201428
0.188246
0.174737
0.160801
0.146297
0.13101
0.114558
0.0960703
0.0727943
0.0323266
0.0520209
0.120779
0.162654
0.197086
0.228382
0.257826
0.285953
0.313053
0.33931
0.364857
0.389794
0.4142
0.438134
0.461645
0.484767
0.507527
0.529943
0.552025
0.573781
0.595211
0.616314
0.637085
0.657518
0.677604
0.697335
0.716699
0.735687
0.754289
0.772495
0.790294
0.807678
0.824638
0.841167
0.857258
0.872904
0.888102
0.902846
0.917133
0.930962
0.944332
0.95724
0.969689
0.981679
0.993212
1.00429
1.01492
1.0251
1.03484
1.04414
1.053
1.06144
1.06946
1.07706
1.08425
1.09104
1.09743
1.10343
1.10906
1.11432
1.11921
1.12376
1.12795
1.1318
1.13532
1.13851
1.14138
1.14394
1.1462
1.14815
1.14982
1.1512
1.1523
1.15313
1.15369
1.15399
1.15404
1.15383
1.15339
1.1527
1.15178
1.15063
1.14926
1.14767
1.14587
1.14386
1.14164
1.13921
1.1366
1.13378
1.13078
1.12759
1.12422
1.12067
1.11694
1.11305
1.10898
1.10474
1.10034
1.09578
1.09106
1.08618
1.08115
1.07597
1.07063
1.06516
1.05953
1.05377
1.04786
1.04181
1.03562
1.0293
1.02285
1.01626
1.00953
1.00268
0.995701
0.988591
0.981354
0.973991
0.966504
0.958892
0.951156
0.943299
0.93532
0.92722
0.919
0.910662
0.902204
0.893629
0.884938
0.87613
0.867207
0.858169
0.849017
0.839753
0.830377
0.820891
0.811294
0.801589
0.791777
0.781858
0.771835
0.761709
0.75148
0.741152
0.730726
0.720203
0.709586
0.698878
0.688079
0.677192
0.666221
0.655168
0.644035
0.632826
0.621543
0.61019
0.59877
0.587286
0.575742
0.564141
0.552487
0.540784
0.529034
0.517243
0.505414
0.493549
0.481654
0.469731
0.457784
0.445815
0.433828
0.421826
0.40981
0.397782
0.385744
0.373697
0.361639
0.349571
0.33749
0.325393
0.313276
0.301134
0.288958
0.276737
0.26446
0.252107
0.239658
0.227086
0.214357
0.201428
0.188246
0.174737
0.160801
0.146296
0.131
0.114505
0.0958677
0.0722855
0.0323473
0.0624017
0.14299
0.190419
0.228544
0.262812
0.294919
0.325565
0.355105
0.383746
0.411629
0.438857
0.465509
0.491644
0.517312
0.542549
0.567382
0.591832
0.61591
0.639626
0.662981
0.685974
0.708603
0.730862
0.752741
0.774233
0.795328
0.816015
0.836284
0.856124
0.875527
0.894481
0.912979
0.931012
0.948574
0.965657
0.982256
0.998368
1.01399
1.02911
1.04374
1.05788
1.07151
1.08465
1.0973
1.10946
1.12113
1.13231
1.14301
1.15324
1.163
1.1723
1.18114
1.18952
1.19746
1.20496
1.21203
1.21868
1.22492
1.23075
1.23618
1.24122
1.24589
1.25017
1.2541
1.25766
1.26088
1.26375
1.26628
1.26849
1.27037
1.27194
1.2732
1.27416
1.27483
1.27521
1.27531
1.27513
1.27468
1.27397
1.273
1.27178
1.2703
1.26859
1.26664
1.26446
1.26205
1.25941
1.25656
1.25349
1.25021
1.24673
1.24304
1.23915
1.23507
1.23079
1.22633
1.22168
1.21685
1.21184
1.20665
1.20129
1.19576
1.19006
1.1842
1.17817
1.17198
1.16563
1.15913
1.15247
1.14566
1.13869
1.13158
1.12432
1.11691
1.10936
1.10167
1.09383
1.08585
1.07774
1.06948
1.06109
1.05256
1.04389
1.03509
1.02616
1.0171
1.0079
0.998575
0.989118
0.979532
0.969819
0.959978
0.950011
0.939919
0.929703
0.919364
0.908904
0.898322
0.887622
0.876803
0.865868
0.854818
0.843655
0.832381
0.820997
0.809506
0.797909
0.78621
0.77441
0.762512
0.750518
0.738432
0.726256
0.713994
0.701648
0.689223
0.676721
0.664146
0.651502
0.638793
0.626022
0.613193
0.600311
0.587379
0.574402
0.561383
0.548326
0.535235
0.522115
0.508967
0.495797
0.482606
0.469398
0.456175
0.442939
0.429692
0.416433
0.403164
0.389883
0.376588
0.363277
0.349946
0.336589
0.323197
0.309762
0.296271
0.282707
0.26905
0.255274
0.241348
0.22723
0.212866
0.198182
0.183072
0.167376
0.15082
0.132928
0.112561
0.0862151
0.0387325
0.0624041
0.142993
0.190421
0.228545
0.262812
0.294919
0.325565
0.355104
0.383745
0.411629
0.438857
0.465508
0.491643
0.517311
0.542548
0.567381
0.591831
0.615909
0.639624
0.662979
0.685973
0.708602
0.73086
0.752739
0.774231
0.795326
0.816013
0.836282
0.856123
0.875525
0.894479
0.912977
0.93101
0.948572
0.965655
0.982254
0.998366
1.01399
1.02911
1.04374
1.05787
1.07151
1.08465
1.0973
1.10946
1.12112
1.13231
1.14301
1.15324
1.163
1.1723
1.18113
1.18952
1.19746
1.20496
1.21203
1.21868
1.22491
1.23074
1.23618
1.24122
1.24588
1.25017
1.2541
1.25766
1.26087
1.26374
1.26628
1.26848
1.27037
1.27194
1.2732
1.27416
1.27483
1.27521
1.2753
1.27513
1.27468
1.27397
1.273
1.27177
1.2703
1.26859
1.26664
1.26446
1.26204
1.25941
1.25656
1.25349
1.25021
1.24672
1.24303
1.23915
1.23506
1.23079
1.22633
1.22168
1.21685
1.21184
1.20665
1.20129
1.19576
1.19006
1.1842
1.17817
1.17198
1.16563
1.15913
1.15247
1.14565
1.13869
1.13158
1.12432
1.11691
1.10936
1.10167
1.09383
1.08585
1.07773
1.06948
1.06109
1.05256
1.04389
1.03509
1.02616
1.0171
1.0079
0.998573
0.989117
0.979531
0.969817
0.959977
0.95001
0.939918
0.929702
0.919363
0.908902
0.898321
0.88762
0.876802
0.865867
0.854817
0.843654
0.83238
0.820996
0.809505
0.797908
0.786209
0.774409
0.76251
0.750517
0.738431
0.726255
0.713993
0.701647
0.689222
0.67672
0.664145
0.651501
0.638792
0.626021
0.613192
0.60031
0.587378
0.574401
0.561382
0.548325
0.535234
0.522114
0.508967
0.495796
0.482606
0.469398
0.456175
0.442939
0.429691
0.416432
0.403163
0.389882
0.376588
0.363277
0.349946
0.336588
0.323197
0.309762
0.296271
0.282707
0.26905
0.255274
0.241348
0.22723
0.212866
0.198182
0.183073
0.167376
0.15082
0.132921
0.112527
0.0861379
0.0387537
0.0722012
0.163959
0.216824
0.258549
0.295644
0.330199
0.363089
0.394747
0.425421
0.45527
0.484405
0.512909
0.540846
0.568265
0.595207
0.621701
0.647768
0.673426
0.698682
0.723542
0.748008
0.772077
0.795745
0.819006
0.841851
0.864271
0.886257
0.9078
0.928888
0.949514
0.969666
0.989338
1.00852
1.02721
1.04539
1.06306
1.08023
1.09687
1.113
1.1286
1.14369
1.15825
1.17229
1.18581
1.19882
1.21131
1.22329
1.23476
1.24574
1.25621
1.2662
1.2757
1.28473
1.29328
1.30137
1.309
1.31618
1.32292
1.32924
1.33512
1.3406
1.34566
1.35033
1.35461
1.3585
1.36202
1.36517
1.36796
1.37039
1.37249
1.37424
1.37566
1.37676
1.37754
1.37801
1.37818
1.37805
1.37763
1.37693
1.37595
1.37469
1.37317
1.37138
1.36933
1.36704
1.3645
1.36171
1.35869
1.35544
1.35196
1.34825
1.34432
1.34018
1.33583
1.33126
1.3265
1.32153
1.31636
1.311
1.30545
1.29971
1.29378
1.28767
1.28138
1.27492
1.26827
1.26146
1.25448
1.24732
1.24001
1.23252
1.22488
1.21707
1.20911
1.20099
1.19271
1.18428
1.1757
1.16696
1.15808
1.14904
1.13986
1.13053
1.12106
1.11144
1.10168
1.09178
1.08173
1.07154
1.06122
1.05076
1.04016
1.02942
1.01855
1.00754
0.996404
0.985135
0.973735
0.962208
0.950553
0.938773
0.92687
0.914845
0.9027
0.890437
0.87806
0.865569
0.852968
0.840259
0.827445
0.814528
0.801512
0.788401
0.775197
0.761903
0.748524
0.735064
0.721525
0.707912
0.694229
0.680479
0.666668
0.6528
0.638878
0.624906
0.61089
0.596832
0.582738
0.56861
0.554453
0.54027
0.526064
0.511838
0.497595
0.483336
0.469063
0.454777
0.440478
0.426165
0.411837
0.397491
0.383124
0.368729
0.354301
0.339829
0.325302
0.310704
0.296017
0.281217
0.266272
0.25114
0.235767
0.220074
0.203943
0.187192
0.169501
0.150278
0.128158
0.0989816
0.0448831
0.0722039
0.163962
0.216825
0.258549
0.295644
0.330199
0.363088
0.394746
0.42542
0.455269
0.484404
0.512908
0.540844
0.568264
0.595206
0.621699
0.647767
0.673424
0.69868
0.723541
0.748007
0.772076
0.795744
0.819004
0.841849
0.864269
0.886256
0.907798
0.928887
0.949512
0.969665
0.989336
1.00852
1.0272
1.04539
1.06306
1.08022
1.09687
1.113
1.1286
1.14369
1.15825
1.17229
1.18581
1.19882
1.21131
1.22329
1.23476
1.24573
1.25621
1.2662
1.2757
1.28472
1.29328
1.30137
1.309
1.31618
1.32292
1.32923
1.33512
1.3406
1.34566
1.35033
1.35461
1.3585
1.36202
1.36517
1.36796
1.37039
1.37248
1.37424
1.37566
1.37676
1.37754
1.37801
1.37818
1.37805
1.37763
1.37693
1.37594
1.37469
1.37316
1.37138
1.36933
1.36704
1.3645
1.36171
1.35869
1.35544
1.35195
1.34825
1.34432
1.34018
1.33582
1.33126
1.32649
1.32153
1.31636
1.311
1.30545
1.2997
1.29378
1.28767
1.28138
1.27491
1.26827
1.26146
1.25447
1.24732
1.24
1.23252
1.22488
1.21707
1.20911
1.20099
1.19271
1.18428
1.17569
1.16696
1.15807
1.14904
1.13986
1.13053
1.12106
1.11144
1.10168
1.09177
1.08173
1.07154
1.06122
1.05076
1.04015
1.02942
1.01855
1.00754
0.996403
0.985133
0.973734
0.962206
0.950552
0.938772
0.926868
0.914843
0.902699
0.890436
0.878059
0.865568
0.852967
0.840258
0.827444
0.814527
0.801512
0.7884
0.775196
0.761902
0.748523
0.735063
0.721524
0.707911
0.694228
0.680479
0.666668
0.652799
0.638877
0.624906
0.610889
0.596832
0.582737
0.56861
0.554453
0.54027
0.526064
0.511838
0.497594
0.483335
0.469063
0.454776
0.440477
0.426165
0.411837
0.397491
0.383123
0.368729
0.3543
0.339828
0.325301
0.310704
0.296017
0.281217
0.266271
0.25114
0.235767
0.220074
0.203943
0.187192
0.169502
0.150279
0.128154
0.0989723
0.0448867
0.0817505
0.184206
0.24239
0.287682
0.327558
0.364473
0.399472
0.433077
0.465583
0.497174
0.527975
0.558078
0.587553
0.616455
0.644825
0.672698
0.700098
0.727045
0.75355
0.779622
0.805265
0.830478
0.855259
0.879605
0.903508
0.926961
0.949956
0.972485
0.994539
1.01611
1.03718
1.05776
1.07783
1.09738
1.11641
1.13492
1.1529
1.17034
1.18724
1.20361
1.21944
1.23473
1.24947
1.26369
1.27737
1.29051
1.30313
1.31522
1.3268
1.33786
1.34841
1.35845
1.36801
1.37707
1.38564
1.39375
1.40138
1.40855
1.41528
1.42156
1.4274
1.43282
1.43782
1.44241
1.4466
1.45039
1.4538
1.45682
1.45947
1.46176
1.4637
1.46528
1.46652
1.46742
1.468
1.46826
1.4682
1.46783
1.46716
1.46619
1.46493
1.46339
1.46157
1.45947
1.45711
1.45448
1.45159
1.44846
1.44507
1.44144
1.43757
1.43347
1.42913
1.42457
1.41979
1.41479
1.40957
1.40414
1.3985
1.39266
1.38661
1.38037
1.37393
1.3673
1.36048
1.35347
1.34628
1.3389
1.33134
1.32361
1.3157
1.30762
1.29936
1.29093
1.28234
1.27358
1.26465
1.25556
1.24631
1.2369
1.22733
1.2176
1.20772
1.19768
1.18748
1.17713
1.16663
1.15598
1.14518
1.13423
1.12313
1.11188
1.10049
1.08896
1.07729
1.06547
1.05351
1.04142
1.02918
1.01682
1.00432
0.991687
0.978927
0.966039
0.953027
0.939892
0.926638
0.913266
0.899779
0.886181
0.872475
0.858664
0.84475
0.830739
0.816632
0.802435
0.788151
0.773784
0.759338
0.744817
0.730226
0.715568
0.700848
0.686071
0.671241
0.656361
0.641436
0.626471
0.611468
0.596433
0.581367
0.566275
0.551159
0.536022
0.520865
0.505691
0.4905
0.475292
0.460068
0.444825
0.429561
0.414273
0.398957
0.383604
0.368207
0.352756
0.337234
0.321626
0.305906
0.290043
0.273995
0.257703
0.241081
0.223997
0.206242
0.187448
0.166912
0.143061
0.111145
0.0507207
0.0817534
0.184208
0.242391
0.287682
0.327558
0.364472
0.399471
0.433076
0.465582
0.497173
0.527974
0.558077
0.587552
0.616453
0.644824
0.672697
0.700097
0.727043
0.753549
0.779621
0.805263
0.830476
0.855258
0.879603
0.903506
0.926959
0.949955
0.972484
0.994537
1.01611
1.03718
1.05776
1.07783
1.09738
1.11641
1.13492
1.15289
1.17034
1.18724
1.20361
1.21944
1.23472
1.24947
1.26369
1.27736
1.29051
1.30313
1.31522
1.32679
1.33785
1.3484
1.35845
1.368
1.37706
1.38564
1.39375
1.40138
1.40855
1.41528
1.42156
1.4274
1.43282
1.43782
1.44241
1.4466
1.45039
1.45379
1.45682
1.45947
1.46176
1.46369
1.46528
1.46652
1.46742
1.468
1.46826
1.46819
1.46783
1.46715
1.46619
1.46493
1.46339
1.46156
1.45947
1.4571
1.45448
1.45159
1.44846
1.44507
1.44144
1.43757
1.43347
1.42913
1.42457
1.41979
1.41478
1.40957
1.40414
1.3985
1.39266
1.38661
1.38037
1.37393
1.3673
1.36048
1.35347
1.34627
1.3389
1.33134
1.32361
1.3157
1.30761
1.29936
1.29093
1.28234
1.27358
1.26465
1.25556
1.24631
1.2369
1.22733
1.2176
1.20772
1.19767
1.18748
1.17713
1.16663
1.15598
1.14518
1.13422
1.12313
1.11188
1.10049
1.08896
1.07728
1.06547
1.05351
1.04142
1.02918
1.01682
1.00432
0.991686
0.978926
0.966038
0.953026
0.939891
0.926637
0.913265
0.899778
0.886181
0.872474
0.858663
0.84475
0.830738
0.816632
0.802435
0.78815
0.773783
0.759337
0.744816
0.730225
0.715567
0.700848
0.68607
0.67124
0.65636
0.641436
0.62647
0.611468
0.596432
0.581367
0.566274
0.551159
0.536021
0.520865
0.505691
0.4905
0.475292
0.460068
0.444825
0.429561
0.414273
0.398956
0.383604
0.368207
0.352755
0.337234
0.321626
0.305906
0.290043
0.273995
0.257703
0.241081
0.223997
0.206242
0.187449
0.166913
0.143061
0.111144
0.0507213
0.0910294
0.203987
0.267421
0.31627
0.358915
0.398153
0.435193
0.470647
0.50486
0.538048
0.570355
0.601884
0.632713
0.662904
0.692505
0.721553
0.750077
0.7781
0.805638
0.832702
0.8593
0.885434
0.911104
0.93631
0.961046
0.985308
1.00909
1.03238
1.05518
1.07748
1.09926
1.12053
1.14128
1.1615
1.18118
1.20032
1.21892
1.23697
1.25448
1.27143
1.28784
1.30369
1.319
1.33375
1.34796
1.36162
1.37475
1.38734
1.39939
1.41092
1.42193
1.43243
1.44241
1.45189
1.46088
1.46937
1.47739
1.48493
1.492
1.49862
1.50479
1.51052
1.51581
1.52068
1.52513
1.52917
1.53281
1.53605
1.53891
1.54138
1.54349
1.54523
1.54661
1.54764
1.54833
1.54869
1.54871
1.54841
1.54779
1.54686
1.54562
1.54409
1.54226
1.54015
1.53775
1.53507
1.53213
1.52891
1.52544
1.52171
1.51772
1.51349
1.50901
1.5043
1.49934
1.49416
1.48875
1.48311
1.47726
1.47119
1.4649
1.4584
1.4517
1.44479
1.43768
1.43038
1.42287
1.41517
1.40729
1.39921
1.39094
1.3825
1.37387
1.36506
1.35607
1.3469
1.33756
1.32805
1.31836
1.30851
1.29848
1.28829
1.27793
1.26741
1.25672
1.24587
1.23486
1.22369
1.21237
1.20088
1.18924
1.17745
1.1655
1.1534
1.14114
1.12874
1.1162
1.1035
1.09066
1.07768
1.06456
1.0513
1.03791
1.02438
1.01072
0.99693
0.983014
0.968975
0.954814
0.940537
0.926145
0.911642
0.897032
0.882318
0.867504
0.852594
0.837591
0.822501
0.807327
0.792073
0.776744
0.761344
0.745877
0.730348
0.714761
0.69912
0.683429
0.667693
0.651915
0.636099
0.620248
0.604365
0.588454
0.572516
0.556553
0.540568
0.524561
0.508532
0.492482
0.476408
0.460309
0.444181
0.428021
0.411821
0.395576
0.379272
0.362898
0.346436
0.32986
0.313139
0.296229
0.279063
0.261548
0.243536
0.224788
0.204889
0.183036
0.157444
0.122806
0.0562964
0.0910325
0.203989
0.267422
0.31627
0.358915
0.398152
0.435192
0.470646
0.504859
0.538047
0.570353
0.601882
0.632712
0.662903
0.692504
0.721551
0.750075
0.778098
0.805636
0.832701
0.859298
0.885432
0.911103
0.936308
0.961045
0.985307
1.00909
1.03238
1.05518
1.07748
1.09926
1.12053
1.14128
1.16149
1.18118
1.20032
1.21892
1.23697
1.25448
1.27143
1.28784
1.30369
1.31899
1.33375
1.34796
1.36162
1.37475
1.38734
1.39939
1.41092
1.42193
1.43243
1.44241
1.45189
1.46088
1.46937
1.47739
1.48493
1.492
1.49862
1.50479
1.51051
1.51581
1.52068
1.52513
1.52917
1.5328
1.53605
1.5389
1.54138
1.54349
1.54523
1.54661
1.54764
1.54833
1.54868
1.54871
1.5484
1.54779
1.54686
1.54562
1.54409
1.54226
1.54014
1.53775
1.53507
1.53213
1.52891
1.52544
1.5217
1.51772
1.51349
1.50901
1.50429
1.49934
1.49416
1.48875
1.48311
1.47726
1.47119
1.4649
1.4584
1.4517
1.44479
1.43768
1.43037
1.42287
1.41517
1.40728
1.39921
1.39094
1.3825
1.37387
1.36505
1.35607
1.3469
1.33756
1.32805
1.31836
1.3085
1.29848
1.28829
1.27793
1.26741
1.25672
1.24587
1.23486
1.22369
1.21237
1.20088
1.18924
1.17745
1.1655
1.1534
1.14114
1.12874
1.1162
1.1035
1.09066
1.07768
1.06456
1.0513
1.03791
1.02438
1.01072
0.996929
0.983013
0.968974
0.954814
0.940536
0.926144
0.911641
0.897031
0.882317
0.867503
0.852593
0.837591
0.8225
0.807326
0.792072
0.776743
0.761343
0.745876
0.730347
0.71476
0.699119
0.683429
0.667692
0.651914
0.636098
0.620247
0.604365
0.588453
0.572515
0.556553
0.540568
0.524561
0.508532
0.492481
0.476407
0.460308
0.444181
0.42802
0.411821
0.395575
0.379272
0.362898
0.346435
0.32986
0.313139
0.296229
0.279063
0.261548
0.243536
0.224789
0.204889
0.183037
0.157445
0.122806
0.0562966
0.100151
0.223471
0.292119
0.344527
0.389944
0.431491
0.470536
0.507778
0.543617
0.578303
0.612001
0.644831
0.67688
0.708218
0.7389
0.768967
0.798456
0.827392
0.855796
0.883683
0.911063
0.937944
0.964328
0.990216
1.01561
1.0405
1.06489
1.08877
1.11214
1.13498
1.15731
1.1791
1.20035
1.22107
1.24124
1.26086
1.27992
1.29844
1.31639
1.33379
1.35063
1.36692
1.38264
1.39781
1.41243
1.4265
1.44002
1.453
1.46544
1.47734
1.48872
1.49957
1.5099
1.51973
1.52905
1.53787
1.5462
1.55405
1.56142
1.56833
1.57477
1.58077
1.58632
1.59143
1.59612
1.60038
1.60423
1.60767
1.61072
1.61337
1.61564
1.61753
1.61905
1.62022
1.62102
1.62148
1.62159
1.62137
1.62081
1.61994
1.61875
1.61724
1.61543
1.61332
1.61092
1.60822
1.60525
1.60199
1.59846
1.59466
1.5906
1.58628
1.5817
1.57687
1.57179
1.56648
1.56092
1.55513
1.5491
1.54285
1.53637
1.52968
1.52276
1.51563
1.50829
1.50074
1.49299
1.48503
1.47687
1.46851
1.45995
1.4512
1.44226
1.43313
1.42381
1.41431
1.40462
1.39475
1.3847
1.37446
1.36406
1.35347
1.34271
1.33178
1.32068
1.3094
1.29796
1.28635
1.27457
1.26263
1.25052
1.23825
1.22582
1.21323
1.20049
1.18758
1.17452
1.16131
1.14795
1.13444
1.12078
1.10698
1.09303
1.07894
1.06472
1.05036
1.03587
1.02124
1.0065
0.991624
0.976633
0.961525
0.946304
0.930974
0.915539
0.900002
0.884368
0.86864
0.852824
0.836922
0.82094
0.804882
0.788752
0.772554
0.756293
0.739972
0.723596
0.707169
0.690694
0.674174
0.657614
0.641016
0.624383
0.607716
0.591019
0.574292
0.557536
0.540752
0.523939
0.507097
0.490223
0.473315
0.456368
0.439377
0.422334
0.405229
0.388049
0.370775
0.353383
0.335838
0.318093
0.300075
0.281679
0.262742
0.242995
0.221974
0.198788
0.171443
0.134101
0.0616507
0.100155
0.223474
0.29212
0.344527
0.389944
0.43149
0.470535
0.507777
0.543616
0.578302
0.612
0.644829
0.676879
0.708217
0.738898
0.768966