/*--------------------------------*- C++ -*----------------------------------*\
  =========                 |
  \\      /  F ield         | OpenFOAM: The Open Source CFD Toolbox
   \\    /   O peration     | Website:  https://openfoam.org
    \\  /    A nd           | Version:  8
     \\/     M anipulation  |
\*---------------------------------------------------------------------------*/
FoamFile
{
    version     2.0;
    format      ascii;
    class       volScalarField;
    location    "500";
    object      epsilon;
}
// * * * * * * * * * * * * * * * * * * * * * * * * * * * * * * * * * * * * * //

dimensions      [0 2 -3 0 0 0 0];

internalField   nonuniform List<scalar> 
48000
(
0.103863
0.123577
0.156142
0.180947
0.19447
0.19403
0.161717
0.186593
1.00062
0.931022
1.01951
1.1331
1.25219
1.37524
1.50108
1.62963
1.76076
1.89442
2.03054
2.16909
2.31001
2.45326
2.59876
2.74645
2.89623
3.04801
3.20168
3.35711
3.51418
3.67276
3.83269
3.99381
4.15594
4.31891
4.48254
4.64664
4.81102
4.97548
5.13982
5.30384
5.46734
5.63012
5.79198
5.95274
6.1122
6.27018
6.42648
6.58093
6.73335
6.88359
7.03148
7.17689
7.31966
7.45966
7.59675
7.73081
7.86171
7.98936
8.11365
8.23448
8.35179
8.46548
8.57547
8.6817
8.7841
8.88261
8.97717
9.06774
9.15428
9.23676
9.31514
9.38939
9.45949
9.52541
9.58714
9.64466
9.69796
9.74704
9.7919
9.83253
9.86895
9.90114
9.92912
9.9529
9.97249
9.98792
9.99919
10.0063
10.0094
10.0084
10.0038
9.99537
9.98297
9.96661
9.94636
9.92225
9.89436
9.86275
9.82746
9.78857
9.74612
9.70019
9.65083
9.59811
9.5421
9.48288
9.42053
9.3551
9.28667
9.21529
9.14104
9.06396
8.98414
8.90164
8.81653
8.72889
8.63877
8.54623
8.4513
8.35405
8.25452
8.15277
8.04889
7.94294
7.83498
7.72506
7.61324
7.49956
7.38407
7.26685
7.14797
7.02751
6.90556
6.78219
6.65745
6.53141
6.40415
6.27575
6.14632
6.01594
5.88471
5.75273
5.62008
5.48683
5.35309
5.21895
5.08453
4.94993
4.81528
4.68066
4.5462
4.41199
4.27814
4.14478
4.01201
3.87995
3.74873
3.61846
3.48924
3.36117
3.23437
3.10893
2.98496
2.86257
2.74186
2.62294
2.50589
2.39081
2.27778
2.16689
2.05822
1.95184
1.84782
1.74623
1.64713
1.55058
1.45661
1.36528
1.27661
1.1906
1.10721
1.02621
0.947849
0.887039
1.15614
1.03756
0.977909
0.900228
0.195911
0.188741
0.905772
0.888341
0.864005
0.191949
0.17584
0.155357
0.131711
0.105525
0.0770956
0.0560789
0.103871
0.123587
0.156159
0.180982
0.194504
0.19402
0.16168
0.186548
1.00059
0.931481
1.01966
1.13316
1.25222
1.37528
1.50112
1.62967
1.76081
1.89446
2.03058
2.16913
2.31005
2.4533
2.5988
2.74649
2.89627
3.04804
3.20171
3.35714
3.51421
3.67279
3.83271
3.99382
4.15595
4.31892
4.48254
4.64664
4.81102
4.97548
5.13981
5.30383
5.46733
5.6301
5.79197
5.95273
6.11219
6.27016
6.42646
6.58091
6.73333
6.88356
7.03146
7.17687
7.31964
7.45964
7.59672
7.73078
7.86168
7.98932
8.11361
8.23445
8.35175
8.46544
8.57544
8.68166
8.78406
8.88256
8.97711
9.06768
9.15423
9.2367
9.31508
9.38933
9.45943
9.52535
9.58707
9.64459
9.69789
9.74697
9.79183
9.83246
9.86887
9.90106
9.92904
9.95281
9.9724
9.98782
9.99909
10.0062
10.0093
10.0083
10.0037
9.99526
9.98286
9.96651
9.94625
9.92215
9.89427
9.86265
9.82737
9.78847
9.74603
9.70009
9.65073
9.59801
9.542
9.48278
9.42041
9.35498
9.28654
9.21516
9.14091
9.06384
8.98403
8.90154
8.81644
8.72879
8.63866
8.54611
8.45117
8.35392
8.25439
8.15267
8.04881
7.94287
7.83491
7.72499
7.61315
7.49945
7.38395
7.26673
7.14787
7.02742
6.90548
6.78209
6.65734
6.53129
6.40402
6.27563
6.1462
6.01584
5.88463
5.75266
5.62
5.48675
5.353
5.21887
5.08445
4.94986
4.81521
4.68059
4.54612
4.4119
4.27805
4.14469
4.01192
3.87988
3.74867
3.6184
3.48918
3.36112
3.23431
3.10887
2.9849
2.86251
2.7418
2.62288
2.50584
2.39076
2.27774
2.16685
2.05818
1.9518
1.84779
1.7462
1.64711
1.55055
1.45659
1.36525
1.27658
1.19058
1.10719
1.02621
0.947876
0.887052
1.15565
1.03689
0.97775
0.900191
0.195878
0.188543
0.899453
0.865858
0.194355
0.187958
0.174288
0.15485
0.131575
0.105501
0.0770996
0.0560888
0.15945
0.126724
0.138497
0.159438
0.185856
0.219816
0.264657
0.315222
0.412144
0.444122
0.485284
0.533294
0.584523
0.637818
0.692754
0.7492
0.807102
0.866432
0.927172
0.989303
1.05281
1.11766
1.18382
1.25127
1.31995
1.38982
1.46081
1.53288
1.60594
1.67993
1.75477
1.83037
1.90665
1.98352
2.06088
2.13864
2.2167
2.29495
2.3733
2.45165
2.52989
2.60793
2.68565
2.76298
2.8398
2.91602
2.99155
3.0663
3.14018
3.21311
3.285
3.35578
3.42537
3.49371
3.56071
3.62633
3.69049
3.75315
3.81425
3.87373
3.93155
3.98768
4.04206
4.09465
4.14544
4.19437
4.24143
4.28659
4.32983
4.37112
4.41044
4.44779
4.48313
4.51647
4.54779
4.57709
4.60435
4.62957
4.65275
4.67389
4.69298
4.71003
4.72504
4.73801
4.74896
4.75788
4.76479
4.7697
4.77264
4.77363
4.77277
4.77004
4.76541
4.75888
4.75047
4.74018
4.72804
4.71409
4.69834
4.68083
4.66158
4.64063
4.618
4.59374
4.56786
4.54041
4.51141
4.48091
4.44894
4.41552
4.3807
4.34451
4.30697
4.26813
4.22802
4.18666
4.14409
4.10034
4.05543
4.00939
3.96226
3.91406
3.86482
3.81458
3.76335
3.71118
3.65808
3.60408
3.54922
3.49352
3.43702
3.37975
3.32175
3.26304
3.20367
3.14366
3.08305
3.02188
2.9602
2.89804
2.83545
2.77247
2.70914
2.64551
2.58162
2.51752
2.45325
2.38888
2.32444
2.26
2.19561
2.1313
2.06715
2.00321
1.93952
1.87616
1.81316
1.75059
1.68849
1.62693
1.56596
1.50562
1.44598
1.38708
1.32897
1.27171
1.21535
1.15993
1.10549
1.05208
0.99974
0.948515
0.89844
0.849551
0.801885
0.755473
0.710349
0.666543
0.624086
0.583017
0.543412
0.505515
0.470514
0.44495
0.459156
0.42509
0.396888
0.358928
0.280826
0.257508
0.297462
0.28182
0.246697
0.158169
0.129163
0.11168
0.0969719
0.0843901
0.0773716
0.10014
0.159462
0.126758
0.138597
0.159686
0.186281
0.220306
0.264841
0.314749
0.411566
0.443968
0.485281
0.533282
0.584495
0.637783
0.692716
0.74916
0.80706
0.866388
0.927125
0.989255
1.05276
1.11761
1.18377
1.25122
1.31989
1.38976
1.46075
1.53282
1.60588
1.67987
1.7547
1.8303
1.90658
1.98345
2.06081
2.13856
2.21662
2.29487
2.37322
2.45157
2.52981
2.60784
2.68557
2.76289
2.83971
2.91593
2.99146
3.06621
3.14009
3.21301
3.2849
3.35568
3.42527
3.49361
3.56061
3.62623
3.69039
3.75305
3.81414
3.87362
3.93145
3.98757
4.04195
4.09455
4.14533
4.19426
4.24132
4.28648
4.32972
4.37101
4.41033
4.44767
4.48302
4.51636
4.54768
4.57697
4.60423
4.62945
4.65263
4.67377
4.69286
4.70991
4.72492
4.73789
4.74884
4.75776
4.76467
4.76958
4.77252
4.77351
4.77264
4.76992
4.76529
4.75876
4.75035
4.74006
4.72792
4.71397
4.69823
4.68072
4.66147
4.64052
4.61789
4.59362
4.56774
4.54029
4.5113
4.4808
4.44882
4.41541
4.38059
4.3444
4.30687
4.26803
4.22792
4.18656
4.14399
4.10023
4.05532
4.00929
3.96216
3.91396
3.86473
3.81449
3.76326
3.71108
3.65798
3.60399
3.54913
3.49343
3.43694
3.37967
3.32167
3.26296
3.20358
3.14357
3.08297
3.02181
2.96013
2.89797
2.83538
2.7724
2.70908
2.64544
2.58155
2.51745
2.45319
2.38882
2.32439
2.25995
2.19555
2.13125
2.0671
2.00316
1.93947
1.87611
1.81311
1.75054
1.68845
1.62689
1.56592
1.50558
1.44594
1.38704
1.32894
1.27168
1.21532
1.15989
1.10546
1.05205
0.999712
0.948487
0.898413
0.849526
0.80186
0.755449
0.710326
0.66652
0.624065
0.582998
0.543393
0.505477
0.470355
0.44437
0.459018
0.425692
0.397165
0.359383
0.280987
0.256051
0.293357
0.267647
0.178208
0.145549
0.126749
0.1112
0.0968748
0.0843729
0.0773746
0.100151
0.214051
0.154142
0.15552
0.17264
0.197883
0.228779
0.262863
0.297234
0.33577
0.368732
0.403686
0.441327
0.481009
0.522319
0.565051
0.609105
0.65443
0.700999
0.748792
0.797795
0.847992
0.899364
0.951887
1.00553
1.06027
1.11606
1.17286
1.23062
1.28928
1.34879
1.40909
1.47009
1.53174
1.59396
1.65667
1.71978
1.78323
1.84692
1.91078
1.97471
2.03863
2.10246
2.16611
2.2295
2.29255
2.35517
2.41729
2.47883
2.53972
2.59988
2.65925
2.71775
2.77532
2.83191
2.88745
2.94189
2.99517
3.04724
3.09807
3.14759
3.19578
3.2426
3.288
3.33195
3.37443
3.41541
3.45485
3.49274
3.52906
3.56378
3.59689
3.62838
3.65822
3.68641
3.71294
3.73779
3.76097
3.78247
3.80228
3.8204
3.83683
3.85156
3.86462
3.87598
3.88567
3.89368
3.90003
3.90472
3.90777
3.90921
3.90906
3.90733
3.90403
3.89915
3.89271
3.88472
3.87519
3.86416
3.85165
3.83766
3.82224
3.8054
3.78718
3.76759
3.74666
3.72442
3.70091
3.67614
3.65014
3.62296
3.5946
3.56511
3.53451
3.50283
3.47008
3.43631
3.40154
3.36578
3.32907
3.29143
3.25289
3.21347
3.17319
3.13208
3.09016
3.04746
3.004
2.9598
2.91489
2.86929
2.82303
2.77614
2.72864
2.68056
2.63193
2.58277
2.53312
2.48301
2.43247
2.38153
2.33023
2.2786
2.22668
2.17451
2.12211
2.06954
2.01683
1.96403
1.91116
1.85829
1.80544
1.75266
1.70001
1.64751
1.59522
1.54319
1.49145
1.44006
1.38906
1.33849
1.2884
1.23884
1.18985
1.14147
1.09374
1.04672
1.00043
0.95493
0.910246
0.86642
0.823489
0.781489
0.740454
0.700417
0.661411
0.623469
0.586623
0.550908
0.516363
0.483038
0.45101
0.420401
0.391405
0.364642
0.34519
0.323392
0.300912
0.276782
0.248068
0.223076
0.205888
0.186627
0.166102
0.140495
0.12255
0.109038
0.0986186
0.0923315
0.0958027
0.142954
0.214061
0.154146
0.155531
0.172652
0.197819
0.228566
0.262449
0.296727
0.335528
0.36869
0.403682
0.44131
0.480981
0.522287
0.565016
0.609069
0.654393
0.700961
0.748754
0.797756
0.847952
0.899324
0.951847
1.00549
1.06023
1.11602
1.17282
1.23058
1.28924
1.34875
1.40904
1.47005
1.5317
1.59392
1.65662
1.71974
1.78319
1.84688
1.91074
1.97467
2.03859
2.10242
2.16607
2.22946
2.29251
2.35513
2.41725
2.4788
2.53968
2.59984
2.65921
2.71771
2.77529
2.83188
2.88742
2.94185
2.99513
3.04721
3.09803
3.14756
3.19575
3.24256
3.28797
3.33192
3.3744
3.41538
3.45482
3.49272
3.52903
3.56376
3.59687
3.62835
3.65819
3.68638
3.71291
3.73777
3.76095
3.78245
3.80225
3.82037
3.8368
3.85154
3.8646
3.87596
3.88565
3.89366
3.90001
3.9047
3.90775
3.90919
3.90904
3.90732
3.90401
3.89913
3.89269
3.8847
3.87518
3.86415
3.85163
3.83765
3.82223
3.80539
3.78717
3.76758
3.74665
3.72441
3.7009
3.67613
3.65013
3.62295
3.5946
3.56511
3.53451
3.50282
3.47008
3.43631
3.40153
3.36577
3.32907
3.29143
3.25289
3.21347
3.17319
3.13208
3.09016
3.04746
3.00399
2.9598
2.91489
2.86929
2.82303
2.77614
2.72864
2.68056
2.63193
2.58277
2.53312
2.48301
2.43247
2.38153
2.33023
2.2786
2.22669
2.17451
2.12212
2.06955
2.01684
1.96403
1.91117
1.85829
1.80544
1.75267
1.70001
1.64752
1.59523
1.5432
1.49146
1.44007
1.38907
1.3385
1.28841
1.23885
1.18985
1.14147
1.09375
1.04672
1.00044
0.954935
0.910251
0.866425
0.823494
0.781493
0.740458
0.700421
0.661415
0.623473
0.586627
0.550912
0.516367
0.483043
0.451018
0.420414
0.391416
0.364606
0.345474
0.323622
0.301094
0.276988
0.2481
0.222977
0.2061
0.186056
0.158924
0.138033
0.12194
0.108916
0.0986018
0.0923342
0.0958121
0.142964
0.268009
0.187126
0.18032
0.19233
0.21284
0.238213
0.266337
0.295837
0.326871
0.358451
0.39156
0.426403
0.462834
0.500695
0.53987
0.580284
0.621888
0.664652
0.708554
0.753577
0.799707
0.846927
0.895217
0.944556
0.994916
1.04627
1.09857
1.15178
1.20586
1.26075
1.3164
1.37275
1.42973
1.48727
1.54531
1.60378
1.66259
1.72167
1.78094
1.84034
1.89976
1.95914
2.0184
2.07746
2.13624
2.19466
2.25265
2.31014
2.36706
2.42334
2.47891
2.5337
2.58766
2.64073
2.69285
2.74396
2.79402
2.84297
2.89078
2.93739
2.98278
3.02689
3.06969
3.11116
3.15126
3.18996
3.22724
3.26307
3.29744
3.33031
3.36169
3.39154
3.41986
3.44663
3.47185
3.4955
3.51757
3.53807
3.55698
3.57431
3.59005
3.6042
3.61677
3.62775
3.63715
3.64498
3.65124
3.65595
3.65911
3.66074
3.66086
3.65948
3.65661
3.65226
3.64643
3.63915
3.63043
3.62029
3.60875
3.59583
3.58155
3.56594
3.54903
3.53082
3.51136
3.49067
3.46877
3.44569
3.42145
3.3961
3.36964
3.34211
3.31354
3.28394
3.25335
3.22179
3.18929
3.15587
3.12155
3.08636
3.05032
3.01345
2.97577
2.93732
2.89811
2.85816
2.81751
2.77616
2.73415
2.69149
2.64821
2.60434
2.5599
2.51491
2.46941
2.42341
2.37696
2.33007
2.28277
2.23511
2.1871
2.13878
2.09019
2.04136
1.99232
1.94311
1.89378
1.84435
1.79486
1.74536
1.69588
1.64647
1.59717
1.54802
1.49907
1.45034
1.4019
1.35378
1.30602
1.25867
1.21177
1.16536
1.11949
1.07419
1.02952
0.985503
0.942186
0.899607
0.857803
0.816812
0.77667
0.73741
0.699067
0.661673
0.625261
0.589864
0.555514
0.522246
0.4901
0.459121
0.42937
0.400924
0.373852
0.348171
0.324582
0.301972
0.279843
0.257996
0.236055
0.214823
0.195139
0.176422
0.158803
0.142067
0.128032
0.116916
0.109239
0.107096
0.118203
0.185225
0.268014
0.187119
0.18028
0.192294
0.212775
0.238114
0.266206
0.295703
0.326806
0.35843
0.391543
0.426379
0.462805
0.500664
0.539837
0.58025
0.621854
0.664617
0.708518
0.753541
0.799671
0.84689
0.895181
0.94452
0.99488
1.04623
1.09853
1.15175
1.20583
1.26072
1.31637
1.37271
1.42969
1.48724
1.54528
1.60374
1.66256
1.72164
1.78092
1.84031
1.89973
1.95911
2.01837
2.07743
2.13621
2.19464
2.25263
2.31012
2.36704
2.42332
2.47889
2.53369
2.58765
2.64072
2.69283
2.74395
2.79401
2.84296
2.89077
2.93738
2.98277
3.02688
3.06968
3.11115
3.15125
3.18995
3.22723
3.26307
3.29743
3.33031
3.36169
3.39154
3.41986
3.44663
3.47185
3.4955
3.51758
3.53808
3.55699
3.57432
3.59006
3.60421
3.61678
3.62776
3.63716
3.64499
3.65125
3.65596
3.65912
3.66075
3.66088
3.6595
3.65663
3.65228
3.64645
3.63917
3.63045
3.62031
3.60877
3.59585
3.58157
3.56596
3.54905
3.53084
3.51138
3.49069
3.46879
3.44571
3.42148
3.39612
3.36966
3.34214
3.31356
3.28397
3.25338
3.22182
3.18932
3.15589
3.12157
3.08638
3.05034
3.01347
2.9758
2.93735
2.89814
2.85819
2.81753
2.77619
2.73417
2.69152
2.64824
2.60437
2.55992
2.51494
2.46943
2.42344
2.37698
2.33009
2.2828
2.23513
2.18712
2.13881
2.09022
2.04138
1.99235
1.94314
1.8938
1.84437
1.79488
1.74538
1.69591
1.6465
1.5972
1.54805
1.49909
1.45037
1.40192
1.3538
1.30604
1.25869
1.21179
1.16538
1.11951
1.07421
1.02954
0.985521
0.942204
0.899624
0.85782
0.816828
0.776685
0.737425
0.699081
0.661687
0.625274
0.589877
0.555526
0.522258
0.490111
0.459133
0.429381
0.400936
0.373862
0.348164
0.324652
0.302058
0.279941
0.258108
0.236133
0.214894
0.195367
0.176693
0.158241
0.141811
0.127979
0.116919
0.109248
0.107103
0.118214
0.185235
0.315139
0.22268
0.210662
0.218194
0.235204
0.257451
0.28301
0.310838
0.34052
0.371756
0.404578
0.438953
0.474779
0.511948
0.550368
0.589969
0.6307
0.672525
0.71542
0.759365
0.804345
0.850344
0.897346
0.945334
0.994285
1.04417
1.09497
1.14663
1.19913
1.25241
1.30643
1.36113
1.41646
1.47235
1.52873
1.58555
1.64272
1.70018
1.75785
1.81565
1.87352
1.93136
1.98912
2.0467
2.10405
2.16107
2.2177
2.27387
2.3295
2.38454
2.4389
2.49254
2.54538
2.59737
2.64845
2.69858
2.74769
2.79574
2.84268
2.88847
2.93307
2.97644
3.01854
3.05935
3.09882
3.13694
3.17367
3.20899
3.24288
3.27531
3.30627
3.33575
3.36373
3.39019
3.41512
3.43852
3.46038
3.48069
3.49944
3.51663
3.53226
3.54634
3.55885
3.5698
3.57921
3.58706
3.59337
3.59814
3.6014
3.60315
3.6034
3.60217
3.59946
3.59529
3.58967
3.58262
3.57415
3.56428
3.55303
3.54042
3.52648
3.51122
3.49467
3.47686
3.45781
3.43754
3.41609
3.39347
3.36971
3.34485
3.3189
3.29189
3.26385
3.23481
3.20479
3.17381
3.14189
3.10908
3.07537
3.04081
3.00541
2.9692
2.9322
2.89442
2.85591
2.81666
2.77672
2.7361
2.69483
2.65292
2.6104
2.5673
2.52364
2.47944
2.43473
2.38955
2.34391
2.29784
2.25138
2.20455
2.15738
2.10991
2.06217
2.0142
1.96602
1.91767
1.8692
1.82063
1.77201
1.72338
1.67476
1.62622
1.57778
1.52948
1.48138
1.43351
1.38591
1.33862
1.2917
1.24518
1.1991
1.15351
1.10844
1.06395
1.02006
0.976832
0.934291
0.89248
0.851437
0.811197
0.771797
0.733271
0.695652
0.658974
0.623267
0.588564
0.554897
0.522298
0.490802
0.460443
0.431261
0.403294
0.376566
0.351051
0.326787
0.303582
0.281242
0.259692
0.238886
0.218933
0.20003
0.1823
0.165968
0.151292
0.138855
0.129248
0.12358
0.12473
0.142294
0.226719
0.315126
0.222745
0.210589
0.218165
0.235172
0.257411
0.282966
0.310794
0.340489
0.371732
0.404553
0.438925
0.474748
0.511916
0.550335
0.589935
0.630665
0.672491
0.715385
0.75933
0.804309
0.850308
0.897311
0.945299
0.99425
1.04414
1.09493
1.1466
1.1991
1.25238
1.3064
1.3611
1.41643
1.47232
1.5287
1.58552
1.64269
1.70015
1.75782
1.81562
1.87349
1.93134
1.98909
2.04668
2.10402
2.16105
2.21768
2.27385
2.32948
2.38452
2.43889
2.49252
2.54537
2.59736
2.64844
2.69857
2.74768
2.79573
2.84267
2.88846
2.93307
2.97644
3.01854
3.05935
3.09882
3.13694
3.17367
3.20899
3.24288
3.27532
3.30628
3.33576
3.36374
3.3902
3.41513
3.43853
3.46039
3.4807
3.49945
3.51665
3.53228
3.54635
3.55887
3.56982
3.57922
3.58708
3.59339
3.59816
3.60142
3.60317
3.60342
3.60219
3.59948
3.59531
3.5897
3.58264
3.57417
3.5643
3.55306
3.54045
3.52651
3.51125
3.4947
3.47689
3.45784
3.43757
3.41612
3.3935
3.36974
3.34488
3.31893
3.29192
3.26389
3.23484
3.20482
3.17384
3.14193
3.10911
3.07541
3.04085
3.00545
2.96923
2.93223
2.89446
2.85594
2.8167
2.77676
2.73614
2.69486
2.65295
2.61043
2.56733
2.52367
2.47947
2.43477
2.38958
2.34394
2.29787
2.25141
2.20458
2.15741
2.10994
2.0622
2.01423
1.96605
1.91771
1.86923
1.82066
1.77204
1.72341
1.67479
1.62625
1.57781
1.52951
1.48141
1.43353
1.38593
1.33865
1.29172
1.2452
1.19912
1.15353
1.10846
1.06397
1.02009
0.976854
0.934312
0.892501
0.851457
0.811216
0.771815
0.733288
0.695669
0.65899
0.623283
0.588579
0.554911
0.522312
0.490815
0.460456
0.431273
0.403304
0.376575
0.351052
0.326799
0.303603
0.28127
0.259726
0.238918
0.218968
0.20011
0.182423
0.165993
0.151312
0.138877
0.129262
0.123584
0.124727
0.142297
0.22673
0.343636
0.264598
0.250074
0.251501
0.264815
0.28491
0.309273
0.336652
0.366385
0.398081
0.431519
0.466534
0.502983
0.540742
0.579711
0.619811
0.660981
0.703181
0.746377
0.79055
0.835681
0.881758
0.928766
0.976692
1.02552
1.07523
1.12579
1.17718
1.22936
1.2823
1.33595
1.39026
1.44518
1.50065
1.55661
1.61301
1.66976
1.72681
1.78407
1.84149
1.89898
1.95647
2.01388
2.07115
2.12819
2.18493
2.24131
2.29724
2.35266
2.40751
2.46171
2.5152
2.56792
2.61981
2.67081
2.72088
2.76994
2.81797
2.86491
2.91071
2.95533
2.99874
3.0409
3.08177
3.12132
3.15952
3.19635
3.23177
3.26576
3.29832
3.3294
3.359
3.3871
3.41369
3.43876
3.46229
3.48427
3.50471
3.52359
3.54091
3.55666
3.57086
3.58348
3.59455
3.60406
3.61201
3.61842
3.62329
3.62663
3.62845
3.62877
3.62759
3.62493
3.6208
3.61521
3.60818
3.59973
3.58987
3.57862
3.56602
3.55206
3.53679
3.52023
3.50239
3.4833
3.46299
3.44149
3.41881
3.395
3.37006
3.34404
3.31695
3.28882
3.25968
3.22955
3.19845
3.16642
3.13348
3.09965
3.06495
3.02941
2.99305
2.95589
2.91796
2.87928
2.83987
2.79976
2.75897
2.71751
2.67542
2.63272
2.58943
2.54558
2.5012
2.4563
2.41092
2.36508
2.31881
2.27215
2.22512
2.17775
2.13008
2.08213
2.03395
1.98557
1.93702
1.88834
1.83956
1.79074
1.74189
1.69307
1.64432
1.59567
1.54718
1.49887
1.45079
1.40299
1.35551
1.30838
1.26167
1.2154
1.16962
1.12437
1.0797
1.03564
0.992236
0.949531
0.907561
0.866365
0.825978
0.786438
0.747777
0.71003
0.673228
0.637403
0.602584
0.568802
0.536085
0.504461
0.473957
0.444596
0.416395
0.389359
0.363467
0.338689
0.314963
0.292226
0.270458
0.249677
0.229942
0.211362
0.194089
0.178345
0.164436
0.152831
0.144263
0.14019
0.144162
0.167395
0.266637
0.343542
0.265021
0.250021
0.251522
0.264819
0.284894
0.309248
0.336624
0.366358
0.398054
0.43149
0.466504
0.502951
0.54071
0.579678
0.619777
0.660947
0.703145
0.746342
0.790514
0.835645
0.881722
0.92873
0.976656
1.02548
1.07519
1.12575
1.17714
1.22933
1.28226
1.33591
1.39022
1.44514
1.50062
1.55658
1.61297
1.66973
1.72678
1.78404
1.84146
1.89895
1.95644
2.01386
2.07112
2.12817
2.18491
2.24129
2.29722
2.35264
2.40749
2.46169
2.51518
2.5679
2.61979
2.6708
2.72086
2.76993
2.81796
2.8649
2.9107
2.95533
2.99874
3.0409
3.08177
3.12132
3.15952
3.19635
3.23177
3.26577
3.29832
3.3294
3.359
3.38711
3.4137
3.43876
3.46229
3.48428
3.50472
3.5236
3.54092
3.55668
3.57087
3.5835
3.59457
3.60408
3.61203
3.61844
3.62331
3.62665
3.62847
3.62879
3.62761
3.62495
3.62082
3.61523
3.6082
3.59975
3.58989
3.57865
3.56604
3.55209
3.53682
3.52025
3.50241
3.48333
3.46302
3.44152
3.41884
3.39503
3.37009
3.34407
3.31698
3.28885
3.25971
3.22958
3.19849
3.16646
3.13351
3.09968
3.06498
3.02944
2.99308
2.95593
2.918
2.87932
2.83991
2.7998
2.759
2.71755
2.67546
2.63276
2.58947
2.54562
2.50123
2.45633
2.41095
2.36511
2.31885
2.27218
2.22515
2.17778
2.13011
2.08217
2.03399
1.9856
1.93705
1.88837
1.83959
1.79077
1.74192
1.6931
1.64435
1.5957
1.5472
1.49889
1.45082
1.40302
1.35553
1.30841
1.26169
1.21542
1.16964
1.12439
1.07972
1.03566
0.992257
0.949551
0.907581
0.866384
0.825997
0.786456
0.747795
0.710047
0.673244
0.637418
0.602599
0.568816
0.536098
0.504473
0.473969
0.444607
0.416405
0.389367
0.363472
0.338694
0.314969
0.292234
0.270468
0.249687
0.229954
0.211384
0.194125
0.178373
0.164456
0.152841
0.144261
0.140168
0.144115
0.16735
0.266654
0.30513
0.332719
0.301805
0.292539
0.300966
0.319072
0.342838
0.37042
0.400862
0.433597
0.468258
0.50458
0.542363
0.581445
0.621701
0.663036
0.705376
0.748669
0.792878
0.837977
0.883949
0.93078
0.97846
1.02698
1.07633
1.12649
1.17745
1.22918
1.28166
1.33485
1.38872
1.44322
1.49831
1.55394
1.61005
1.66658
1.72346
1.78064
1.83805
1.8956
1.95324
2.01089
2.06848
2.12592
2.18316
2.24012
2.29671
2.35289
2.40856
2.46367
2.51815
2.57194
2.62496
2.67717
2.72851
2.77891
2.82833
2.87671
2.92401
2.97018
3.01517
3.05896
3.10149
3.14274
3.18267
3.22124
3.25844
3.29423
3.32859
3.36149
3.39292
3.42286
3.45129
3.47819
3.50356
3.52739
3.54965
3.57035
3.58948
3.60704
3.62301
3.63741
3.65022
3.66145
3.67111
3.67919
3.68571
3.69067
3.69409
3.69596
3.6963
3.69513
3.69246
3.68829
3.68264
3.67554
3.66699
3.65702
3.64564
3.63288
3.61876
3.60329
3.58652
3.56845
3.54912
3.52854
3.50675
3.48377
3.45964
3.43436
3.40798
3.38051
3.35199
3.32243
3.29188
3.26034
3.22784
3.19442
3.16009
3.12489
3.08882
3.05192
3.01421
2.97572
2.93645
2.89645
2.85574
2.81433
2.77224
2.72952
2.68617
2.64222
2.59771
2.55265
2.50707
2.461
2.41446
2.3675
2.32012
2.27238
2.22429
2.1759
2.12723
2.07832
2.0292
1.97992
1.9305
1.88099
1.83142
1.78184
1.73229
1.6828
1.63342
1.58419
1.53515
1.48635
1.43783
1.38963
1.3418
1.29438
1.24742
1.20095
1.15503
1.10969
1.06497
1.02092
0.977586
0.934994
0.893188
0.852205
0.81208
0.772848
0.73454
0.697189
0.660825
0.625475
0.591166
0.557924
0.525772
0.494729
0.464811
0.436026
0.408372
0.381837
0.356401
0.33204
0.308738
0.286504
0.265376
0.245422
0.226748
0.209509
0.193927
0.180328
0.169213
0.16147
0.158938
0.166039
0.195432
0.303865
0.305021
0.33305
0.301452
0.29251
0.300985
0.319069
0.34282
0.370396
0.400835
0.433569
0.468228
0.504549
0.54233
0.581412
0.621667
0.663001
0.705341
0.748633
0.792842
0.83794
0.883912
0.930743
0.978423
1.02694
1.07629
1.12645
1.17741
1.22914
1.28162
1.33481
1.38868
1.44318
1.49828
1.5539
1.61001
1.66654
1.72343
1.78061
1.83801
1.89557
1.95321
2.01086
2.06845
2.1259
2.18313
2.24009
2.29669
2.35286
2.40854
2.46365
2.51813
2.57192
2.62494
2.67716
2.72849
2.77889
2.82831
2.87669
2.92399
2.97016
3.01516
3.05895
3.10148
3.14273
3.18266
3.22124
3.25843
3.29422
3.32858
3.36149
3.39292
3.42286
3.45129
3.4782
3.50357
3.52739
3.54966
3.57036
3.58949
3.60704
3.62302
3.63741
3.65023
3.66146
3.67112
3.67921
3.68573
3.69069
3.6941
3.69597
3.69632
3.69515
3.69247
3.68831
3.68266
3.67556
3.66701
3.65704
3.64566
3.6329
3.61878
3.60332
3.58654
3.56847
3.54914
3.52857
3.50678
3.4838
3.45966
3.43439
3.408
3.38054
3.35201
3.32246
3.2919
3.26037
3.22787
3.19445
3.16012
3.12492
3.08885
3.05195
3.01424
2.97575
2.93649
2.89648
2.85577
2.81436
2.77228
2.72955
2.6862
2.64226
2.59774
2.55268
2.5071
2.46103
2.41449
2.36753
2.32016
2.27241
2.22433
2.17593
2.12726
2.07835
2.02923
1.97995
1.93053
1.88102
1.83145
1.78187
1.73231
1.68282
1.63344
1.58421
1.53517
1.48637
1.43785
1.38965
1.34182
1.2944
1.24744
1.20097
1.15505
1.10971
1.06499
1.02094
0.977605
0.935013
0.893207
0.852223
0.812097
0.772864
0.734556
0.697204
0.660839
0.625489
0.591179
0.557937
0.525784
0.49474
0.464821
0.436034
0.408379
0.381843
0.356406
0.332044
0.308742
0.286509
0.265381
0.245427
0.226754
0.209518
0.193937
0.180333
0.169209
0.16144
0.158845
0.165828
0.195159
0.303906
0.317226
0.383186
0.350587
0.336182
0.341681
0.358659
0.382431
0.410738
0.442373
0.476604
0.512944
0.551042
0.590634
0.631517
0.673535
0.71657
0.760532
0.805359
0.851005
0.897441
0.944648
0.992615
1.04134
1.0908
1.14101
1.19196
1.24363
1.29601
1.34908
1.40281
1.45718
1.51215
1.56767
1.62371
1.68021
1.73711
1.79437
1.85191
1.90967
1.96759
2.02559
2.0836
2.14156
2.19939
2.25702
2.31437
2.37138
2.42798
2.48408
2.53964
2.59457
2.64881
2.70231
2.755
2.80681
2.8577
2.90762
2.9565
3.0043
3.05097
3.09647
3.14075
3.18378
3.22552
3.26594
3.305
3.34267
3.37892
3.41373
3.44708
3.47894
3.5093
3.53813
3.56542
3.59116
3.61533
3.63793
3.65895
3.67837
3.69619
3.71242
3.72704
3.74006
3.75148
3.76129
3.76951
3.77614
3.78118
3.78465
3.78656
3.78691
3.78571
3.78299
3.77874
3.773
3.76576
3.75706
3.74691
3.73533
3.72234
3.70796
3.69222
3.67514
3.65674
3.63705
3.6161
3.59391
3.57051
3.54592
3.52016
3.49328
3.46529
3.43622
3.4061
3.37495
3.3428
3.30967
3.27559
3.24058
3.20467
3.16789
3.13025
3.09179
3.05251
3.01246
2.97165
2.9301
2.88785
2.84491
2.80131
2.75708
2.71224
2.66681
2.62083
2.57431
2.5273
2.47981
2.43188
2.38354
2.33482
2.28575
2.23636
2.18669
2.13678
2.08666
2.03636
1.98593
1.93541
1.88483
1.83423
1.78366
1.73316
1.68277
1.63253
1.5825
1.5327
1.48319
1.43401
1.3852
1.33682
1.2889
1.24148
1.19462
1.14836
1.10274
1.0578
1.01358
0.97012
0.927463
0.885644
0.844698
0.804659
0.765559
0.727429
0.690296
0.654188
0.619128
0.585138
0.552237
0.520441
0.48976
0.460201
0.431763
0.40444
0.378226
0.353116
0.329118
0.306257
0.284585
0.26418
0.245162
0.227699
0.212034
0.198529
0.187782
0.180956
0.180828
0.194976
0.242893
0.336203
0.317174
0.38336
0.350117
0.336134
0.341707
0.358663
0.382417
0.410715
0.442346
0.476575
0.512914
0.55101
0.590601
0.631483
0.6735
0.716534
0.760496
0.805322
0.850967
0.897402
0.944609
0.992576
1.0413
1.09076
1.14097
1.19192
1.24359
1.29597
1.34904
1.40277
1.45714
1.51211
1.56763
1.62367
1.68017
1.73708
1.79433
1.85187
1.90964
1.96755
2.02555
2.08357
2.14153
2.19936
2.25699
2.31435
2.37136
2.42795
2.48406
2.53961
2.59454
2.64879
2.70229
2.75497
2.80679
2.85768
2.9076
2.95648
3.00428
3.05095
3.09645
3.14074
3.18377
3.22551
3.26593
3.30499
3.34266
3.37891
3.41373
3.44708
3.47894
3.50929
3.53813
3.56542
3.59116
3.61533
3.63793
3.65895
3.67837
3.6962
3.71242
3.72704
3.74006
3.75148
3.7613
3.76952
3.77615
3.78119
3.78466
3.78657
3.78692
3.78572
3.783
3.77876
3.77301
3.76578
3.75708
3.74693
3.73535
3.72236
3.70798
3.69224
3.67516
3.65676
3.63707
3.61612
3.59393
3.57053
3.54594
3.52019
3.4933
3.46531
3.43625
3.40612
3.37497
3.34282
3.30969
3.27561
3.24061
3.2047
3.16792
3.13028
3.09181
3.05254
3.01249
2.97168
2.93013
2.88788
2.84494
2.80134
2.75711
2.71226
2.66684
2.62085
2.57434
2.52732
2.47984
2.43191
2.38357
2.33484
2.28577
2.23639
2.18672
2.13681
2.08668
2.03639
1.98596
1.93544
1.88485
1.83426
1.78369
1.73319
1.6828
1.63256
1.58252
1.53272
1.48321
1.43403
1.38522
1.33684
1.28892
1.2415
1.19464
1.14838
1.10276
1.05782
1.0136
0.970138
0.92748
0.88566
0.844713
0.804673
0.765573
0.727442
0.690309
0.6542
0.619139
0.585149
0.552248
0.520451
0.48977
0.460209
0.43177
0.404446
0.378231
0.353121
0.329123
0.306262
0.284589
0.264184
0.245166
0.227703
0.212037
0.198528
0.187766
0.180885
0.180579
0.194301
0.241879
0.336334
0.327627
0.423491
0.397827
0.382247
0.386393
0.40305
0.427394
0.456896
0.490146
0.526266
0.56466
0.604897
0.646653
0.689681
0.733792
0.778844
0.824729
0.871373
0.918723
0.966746
1.01542
1.06474
1.11471
1.16531
1.21656
1.26845
1.32098
1.37414
1.42793
1.48232
1.53729
1.59282
1.64887
1.7054
1.76236
1.81972
1.8774
1.93536
1.99353
2.05186
2.11027
2.16869
2.22706
2.28531
2.34336
2.40115
2.45859
2.51563
2.57219
2.62821
2.68361
2.73834
2.79232
2.8455
2.89782
2.94922
2.99964
3.04903
3.09735
3.14453
3.19054
3.23534
3.27888
3.32113
3.36204
3.40159
3.43974
3.47647
3.51174
3.54554
3.57784
3.60861
3.63785
3.66553
3.69164
3.71617
3.7391
3.76042
3.78014
3.79823
3.8147
3.82955
3.84277
3.85436
3.86432
3.87266
3.87939
3.8845
3.88801
3.88993
3.89027
3.88903
3.88623
3.88189
3.87602
3.86863
3.85975
3.84939
3.83757
3.82431
3.80964
3.79358
3.77615
3.75737
3.73728
3.7159
3.69325
3.66936
3.64426
3.61797
3.59052
3.56194
3.53225
3.50148
3.46967
3.43682
3.40297
3.36815
3.33238
3.29568
3.25808
3.21961
3.18029
3.14014
3.09919
3.05747
3.01499
2.97178
2.92787
2.88329
2.83805
2.79219
2.74573
2.6987
2.65113
2.60304
2.55448
2.50545
2.45601
2.40618
2.35599
2.30547
2.25467
2.20362
2.15236
2.10092
2.04934
1.99766
1.94593
1.89418
1.84246
1.79081
1.73927
1.68789
1.63671
1.58578
1.53514
1.48484
1.43493
1.38544
1.33643
1.28794
1.24002
1.19271
1.14605
1.10008
1.05486
1.01041
0.966773
0.923993
0.882102
0.841133
0.801117
0.762084
0.72406
0.68707
0.651135
0.616275
0.582505
0.549838
0.518283
0.487846
0.458528
0.430331
0.403258
0.377316
0.352527
0.328929
0.306584
0.285587
0.266072
0.248231
0.232343
0.218838
0.208459
0.202861
0.207238
0.243634
0.427461
1.5212
0.327599
0.423795
0.397259
0.382143
0.386402
0.403051
0.427379
0.456872
0.490118
0.526236
0.564629
0.604864
0.646619
0.689646
0.733756
0.778807
0.824691
0.871334
0.918684
0.966706
1.01538
1.0647
1.11467
1.16527
1.21652
1.26841
1.32094
1.3741
1.42789
1.48228
1.53725
1.59278
1.64883
1.70536
1.76232
1.81968
1.87736
1.93532
1.9935
2.05182
2.11023
2.16866
2.22703
2.28528
2.34333
2.40111
2.45856
2.5156
2.57216
2.62818
2.68359
2.73831
2.7923
2.84548
2.8978
2.94919
2.99962
3.04901
3.09732
3.14451
3.19053
3.23532
3.27886
3.32111
3.36202
3.40157
3.43973
3.47646
3.51173
3.54553
3.57783
3.6086
3.63784
3.66552
3.69163
3.71616
3.73909
3.76042
3.78013
3.79823
3.8147
3.82955
3.84277
3.85436
3.86432
3.87267
3.87939
3.88451
3.88802
3.88994
3.89027
3.88904
3.88624
3.8819
3.87603
3.86864
3.85976
3.8494
3.83758
3.82432
3.80965
3.79359
3.77616
3.75739
3.7373
3.71591
3.69326
3.66937
3.64427
3.61798
3.59054
3.56196
3.53227
3.5015
3.46968
3.43684
3.40299
3.36817
3.3324
3.2957
3.25811
3.21963
3.18031
3.14016
3.09921
3.05749
3.01501
2.9718
2.9279
2.88331
2.83807
2.79221
2.74575
2.69872
2.65115
2.60307
2.5545
2.50548
2.45603
2.4062
2.35601
2.3055
2.2547
2.20365
2.15238
2.10094
2.04936
1.99768
1.94595
1.8942
1.84248
1.79083
1.73929
1.68791
1.63673
1.5858
1.53516
1.48486
1.43495
1.38546
1.33645
1.28796
1.24004
1.19272
1.14606
1.1001
1.05487
1.01042
0.966787
0.924007
0.882115
0.841146
0.80113
0.762096
0.724072
0.687081
0.651146
0.616285
0.582514
0.549847
0.518291
0.487854
0.458535
0.430338
0.403264
0.377322
0.352532
0.328934
0.306589
0.285591