/*--------------------------------*- C++ -*----------------------------------*\
  =========                 |
  \\      /  F ield         | OpenFOAM: The Open Source CFD Toolbox
   \\    /   O peration     | Website:  https://openfoam.org
    \\  /    A nd           | Version:  8
     \\/     M anipulation  |
\*---------------------------------------------------------------------------*/
FoamFile
{
    version     2.0;
    format      ascii;
    class       volScalarField;
    location    "500";
    object      k;
}
// * * * * * * * * * * * * * * * * * * * * * * * * * * * * * * * * * * * * * //

dimensions      [0 2 -2 0 0 0 0];

internalField   nonuniform List<scalar> 
48000
(
0.00941164
0.0131643
0.0167511
0.0197199
0.0218455
0.0230137
0.0227904
0.024782
0.0204208
0.0220101
0.0238629
0.0256571
0.0274345
0.0292052
0.0309612
0.0327047
0.0344365
0.0361578
0.0378698
0.0395735
0.0412696
0.0429586
0.0446409
0.0463167
0.0479857
0.0496479
0.0513029
0.0529503
0.0545894
0.0562195
0.0578399
0.0594497
0.0610479
0.0626336
0.0642057
0.0657632
0.0673051
0.0688302
0.0703375
0.071826
0.0732945
0.074742
0.0761677
0.0775705
0.0789495
0.0803038
0.0816327
0.0829352
0.0842108
0.0854587
0.0866783
0.0878691
0.0890305
0.0901619
0.0912631
0.0923335
0.0933728
0.0943807
0.095357
0.0963015
0.0972139
0.0980942
0.098942
0.0997575
0.10054
0.101291
0.102008
0.102693
0.103346
0.103966
0.104553
0.105108
0.105631
0.106121
0.10658
0.107006
0.1074
0.107762
0.108092
0.108391
0.108659
0.108895
0.1091
0.109275
0.109418
0.109531
0.109614
0.109666
0.109688
0.109681
0.109647
0.109586
0.109495
0.109376
0.109228
0.109051
0.108847
0.108615
0.108356
0.10807
0.107757
0.107419
0.107054
0.106664
0.106249
0.105809
0.105345
0.104857
0.104346
0.103811
0.103252
0.102672
0.102068
0.101443
0.100796
0.100127
0.0994368
0.0987255
0.0979933
0.0972404
0.0964668
0.0956728
0.0948587
0.0940247
0.093171
0.0922976
0.0914049
0.0904929
0.0895618
0.0886118
0.0876432
0.0866562
0.0856511
0.0846282
0.0835876
0.0825296
0.0814545
0.0803626
0.0792543
0.0781299
0.0769899
0.0758346
0.0746644
0.0734798
0.0722812
0.071069
0.0698437
0.0686061
0.0673565
0.0660957
0.0648241
0.0635424
0.0622513
0.0609513
0.0596433
0.0583279
0.0570058
0.0556779
0.0543448
0.0530072
0.051666
0.0503219
0.0489757
0.0476282
0.0462803
0.0449328
0.0435865
0.0422422
0.0409006
0.0395627
0.0382291
0.0369007
0.0355783
0.0342625
0.0329541
0.0316539
0.0303623
0.0290802
0.0278077
0.0265453
0.0252928
0.0240513
0.0228531
0.0221321
0.0238532
0.0206
0.0183191
0.0174588
0.022336
0.0213055
0.0187377
0.0181941
0.0179831
0.0197082
0.0185424
0.0164654
0.0139716
0.0111967
0.00818432
0.00508446
0.00941167
0.0131645
0.0167514
0.0197215
0.0218499
0.0230218
0.0227929
0.0247825
0.0204179
0.0220055
0.0238617
0.0256572
0.027435
0.0292058
0.0309618
0.0327052
0.034437
0.0361582
0.0378702
0.0395739
0.04127
0.042959
0.0446413
0.046317
0.0479861
0.0496482
0.0513032
0.0529505
0.0545896
0.0562197
0.0578401
0.0594498
0.061048
0.0626337
0.0642058
0.0657633
0.0673052
0.0688303
0.0703376
0.071826
0.0732945
0.074742
0.0761676
0.0775704
0.0789494
0.0803037
0.0816326
0.0829351
0.0842107
0.0854585
0.0866782
0.0878689
0.0890303
0.0901617
0.0912628
0.0923332
0.0933724
0.0943804
0.0953567
0.0963011
0.0972135
0.0980938
0.0989416
0.099757
0.10054
0.10129
0.102008
0.102693
0.103346
0.103965
0.104553
0.105108
0.105631
0.106121
0.106579
0.107005
0.107399
0.107761
0.108092
0.108391
0.108658
0.108895
0.1091
0.109274
0.109417
0.10953
0.109613
0.109665
0.109688
0.109681
0.109647
0.109585
0.109495
0.109375
0.109227
0.109051
0.108846
0.108614
0.108355
0.108069
0.107757
0.107418
0.107054
0.106664
0.106248
0.105809
0.105345
0.104857
0.104345
0.10381
0.103252
0.102671
0.102068
0.101442
0.100795
0.100126
0.099436
0.0987248
0.0979925
0.0972395
0.096466
0.0956721
0.094858
0.0940241
0.0931703
0.092297
0.0914042
0.0904922
0.089561
0.088611
0.0876425
0.0866555
0.0856505
0.0846275
0.0835869
0.0825288
0.0814537
0.0803618
0.0792535
0.0781292
0.0769892
0.0758339
0.0746638
0.0734791
0.0722805
0.0710683
0.0698431
0.0686054
0.0673559
0.066095
0.0648235
0.0635418
0.0622506
0.0609506
0.0596426
0.0583272
0.0570052
0.0556773
0.0543442
0.0530067
0.0516654
0.0503213
0.0489751
0.0476277
0.0462798
0.0449323
0.043586
0.0422417
0.0409001
0.0395622
0.0382287
0.0369004
0.0355779
0.0342622
0.0329538
0.0316536
0.030362
0.0290798
0.0278074
0.026545
0.0252924
0.0240506
0.0228514
0.0221278
0.0238515
0.0206089
0.0183222
0.0174589
0.0223319
0.0212909
0.0187418
0.0184865
0.0204894
0.0200484
0.01854
0.0164375
0.0139566
0.011191
0.0081827
0.00508434
0.0125762
0.0176995
0.0221762
0.0262031
0.029939
0.0336069
0.0375212
0.0413254
0.0444834
0.0483375
0.0521986
0.056021
0.059811
0.063575
0.0673169
0.0710406
0.0747488
0.0784443
0.0821289
0.0858042
0.0894713
0.0931308
0.0967827
0.100427
0.104063
0.107689
0.111305
0.114909
0.1185
0.122074
0.125631
0.129168
0.132683
0.136172
0.139635
0.143067
0.146468
0.149833
0.153161
0.156449
0.159694
0.162895
0.166048
0.169153
0.172206
0.175205
0.17815
0.181037
0.183865
0.186633
0.18934
0.191983
0.194562
0.197075
0.199522
0.201901
0.204213
0.206455
0.208628
0.21073
0.212762
0.214723
0.216613
0.218431
0.220178
0.221852
0.223455
0.224985
0.226444
0.22783
0.229145
0.230388
0.23156
0.23266
0.233688
0.234646
0.235533
0.23635
0.237096
0.237773
0.23838
0.238918
0.239387
0.239787
0.24012
0.240385
0.240583
0.240714
0.240779
0.240778
0.240713
0.240583
0.240389
0.240131
0.23981
0.239426
0.238981
0.238474
0.237908
0.237282
0.236598
0.235856
0.235057
0.234201
0.23329
0.232325
0.231305
0.230233
0.229108
0.227932
0.226705
0.225427
0.2241
0.222724
0.2213
0.219829
0.21831
0.216744
0.215133
0.213475
0.211773
0.210025
0.208234
0.206398
0.204519
0.202597
0.200632
0.198625
0.196577
0.194486
0.192356
0.190184
0.187973
0.185723
0.183434
0.181107
0.178742
0.176341
0.173904
0.171432
0.168925
0.166385
0.163813
0.161209
0.158574
0.15591
0.153217
0.150498
0.147752
0.144982
0.142189
0.139373
0.136538
0.133683
0.130811
0.127923
0.125021
0.122106
0.119181
0.116246
0.113304
0.110357
0.107405
0.104452
0.101499
0.0985474
0.0955996
0.0926574
0.0897226
0.0867972
0.0838829
0.0809817
0.0780955
0.075226
0.0723751
0.0695445
0.0667361
0.0639513
0.0611919
0.0584592
0.0557547
0.053079
0.050426
0.0477432
0.0447571
0.0426466
0.0401241
0.037882
0.0362486
0.0339828
0.0312904
0.0293493
0.0276524
0.0261475
0.0240578
0.0215526
0.0187373
0.0156348
0.0121398
0.00790193
0.0125755
0.0176977
0.0221729
0.0261992
0.0299356
0.0336059
0.0375211
0.0413239
0.0444823
0.0483375
0.052199
0.0560213
0.0598112
0.0635751
0.067317
0.0710406
0.0747489
0.0784443
0.0821289
0.0858042
0.0894712
0.0931307
0.0967826
0.100427
0.104062
0.107689
0.111305
0.114909
0.118499
0.122074
0.125631
0.129168
0.132682
0.136172
0.139634
0.143067
0.146467
0.149832
0.15316
0.156448
0.159693
0.162894
0.166048
0.169152
0.172205
0.175204
0.178149
0.181036
0.183864
0.186632
0.189339
0.191982
0.194561
0.197074
0.199521
0.2019
0.204211
0.206454
0.208626
0.210729
0.212761
0.214722
0.216612
0.21843
0.220176
0.221851
0.223453
0.224984
0.226442
0.227829
0.229144
0.230387
0.231558
0.232658
0.233687
0.234644
0.235531
0.236348
0.237095
0.237771
0.238378
0.238916
0.239385
0.239786
0.240118
0.240383
0.240581
0.240712
0.240777
0.240776
0.240711
0.240581
0.240387
0.240129
0.239808
0.239424
0.238979
0.238473
0.237906
0.237281
0.236596
0.235854
0.235055
0.234199
0.233288
0.232323
0.231303
0.230231
0.229106
0.22793
0.226703
0.225425
0.224098
0.222723
0.221299
0.219827
0.218308
0.216742
0.215131
0.213473
0.211771
0.210024
0.208232
0.206396
0.204517
0.202595
0.20063
0.198624
0.196575
0.194485
0.192354
0.190183
0.187972
0.185721
0.183432
0.181105
0.178741
0.17634
0.173902
0.17143
0.168924
0.166384
0.163811
0.161207
0.158572
0.155908
0.153216
0.150496
0.147751
0.144981
0.142187
0.139372
0.136536
0.133682
0.13081
0.127922
0.12502
0.122105
0.11918
0.116245
0.113303
0.110356
0.107404
0.104451
0.101498
0.0985462
0.0955985
0.0926563
0.0897215
0.0867961
0.0838819
0.0809807
0.0780945
0.075225
0.0723742
0.0695436
0.0667352
0.0639505
0.0611911
0.0584584
0.055754
0.0530787
0.0504265
0.0477443
0.0447604
0.0426463
0.0401217
0.0378789
0.0362468
0.0339894
0.0313229
0.0294817
0.0280488
0.0262344
0.0240485
0.021535
0.0187273
0.0156307
0.0121384
0.00790157
0.0168562
0.0227261
0.0280627
0.03313
0.038125
0.0431429
0.0481846
0.0531278
0.0579384
0.0627599
0.0675931
0.0724161
0.0772205
0.0820057
0.0867727
0.0915234
0.0962598
0.100984
0.105697
0.110401
0.115096
0.119783
0.124461
0.129131
0.133792
0.138442
0.143079
0.147701
0.152307
0.156894
0.161459
0.165999
0.170511
0.174992
0.179439
0.183849
0.188217
0.192542
0.196818
0.201045
0.205217
0.209333
0.213388
0.217381
0.221308
0.225168
0.228957
0.232672
0.236313
0.239877
0.243362
0.246766
0.250087
0.253325
0.256478
0.259544
0.262523
0.265413
0.268214
0.270925
0.273546
0.276075
0.278513
0.280859
0.283112
0.285274
0.287343
0.289319
0.291203
0.292994
0.294693
0.296299
0.297813
0.299236
0.300567
0.301806
0.302955
0.304012
0.30498
0.305857
0.306645
0.307344
0.307955
0.308477
0.308911
0.309259
0.30952
0.309696
0.309786
0.309792
0.309714
0.309553
0.30931
0.308985
0.308578
0.308091
0.307525
0.306881
0.306159
0.30536
0.304486
0.303538
0.302516
0.301422
0.300256
0.29902
0.297714
0.29634
0.294899
0.293391
0.291817
0.290179
0.288477
0.286712
0.284885
0.282997
0.281048
0.279038
0.27697
0.274842
0.272657
0.270414
0.268114
0.265758
0.263346
0.260878
0.258356
0.25578
0.25315
0.250467
0.247732
0.244945
0.242107
0.239219
0.236281
0.233294
0.230259
0.227178
0.22405
0.220877
0.21766
0.2144
0.211099
0.207757
0.204376
0.200957
0.197502
0.194012
0.190488
0.186934
0.183349
0.179736
0.176098
0.172435
0.168749
0.165044
0.16132
0.157581
0.153828
0.150063
0.146289
0.142508
0.138722
0.134934
0.131147
0.127362
0.123583
0.119811
0.116049
0.1123
0.108566
0.10485
0.101153
0.0974793
0.0938303
0.0902087
0.0866168
0.083057
0.0795317
0.0760433
0.0725949
0.0691897
0.0658286
0.0624976
0.0591815
0.0560896
0.0529507
0.049883
0.0469268
0.043914
0.0408268
0.0379329
0.0351432
0.0324011
0.0295447
0.026528
0.0233207
0.0198683
0.0159941
0.0112735
0.0168566
0.0227263
0.0280626
0.0331304
0.0381253
0.0431429
0.0481845
0.0531271
0.0579387
0.0627607
0.0675934
0.072416
0.0772203
0.0820054
0.0867723
0.091523
0.0962594
0.100983
0.105696
0.1104
0.115095
0.119782
0.124461
0.129131
0.133791
0.138441
0.143078
0.1477
0.152306
0.156893
0.161458
0.165998
0.17051
0.174991
0.179438
0.183848
0.188216
0.19254
0.196817
0.201043
0.205216
0.209331
0.213387
0.21738
0.221307
0.225166
0.228955
0.232671
0.236312
0.239876
0.24336
0.246764
0.250086
0.253323
0.256476
0.259542
0.262521
0.265411
0.268212
0.270923
0.273544
0.276073
0.278511
0.280857
0.283111
0.285272
0.287341
0.289317
0.291201
0.292992
0.294691
0.296297
0.297811
0.299234
0.300565
0.301804
0.302953
0.30401
0.304978
0.305855
0.306643
0.307342
0.307952
0.308475
0.308909
0.309257
0.309518
0.309693
0.309784
0.30979
0.309712
0.309551
0.309308
0.308982
0.308576
0.308089
0.307523
0.306878
0.306156
0.305358
0.304484
0.303536
0.302514
0.30142
0.300254
0.299018
0.297712
0.296338
0.294897
0.293389
0.291815
0.290177
0.288475
0.28671
0.284883
0.282995
0.281045
0.279036
0.276968
0.27484
0.272655
0.270412
0.268112
0.265756
0.263344
0.260876
0.258354
0.255778
0.253148
0.250465
0.24773
0.244943
0.242105
0.239217
0.236279
0.233292
0.230258
0.227176
0.224048
0.220875
0.217658
0.214398
0.211097
0.207755
0.204374
0.200955
0.1975
0.19401
0.190487
0.186932
0.183347
0.179735
0.176096
0.172433
0.168748
0.165042
0.161319
0.157579
0.153826
0.150061
0.146287
0.142506
0.138721
0.134933
0.131146
0.127361
0.123581
0.11981
0.116048
0.112299
0.108565
0.104849
0.101152
0.0974783
0.0938293
0.0902077
0.0866159
0.0830561
0.0795308
0.0760425
0.0725942
0.0691892
0.0658285
0.0624969
0.0591801
0.0560878
0.0529488
0.0498818
0.0469274
0.0439182
0.0408431
0.037979
0.0352267
0.0324287
0.0295434
0.0265215
0.0233164
0.0198664
0.0159935
0.0112735
0.0210807
0.0275964
0.0337418
0.0396491
0.0454743
0.0512728
0.0570305
0.0627241
0.0683555
0.0739534
0.0795349
0.0851011
0.0906509
0.0961838
0.1017
0.1072
0.112685
0.118156
0.123614
0.12906
0.134496
0.13992
0.145335
0.150738
0.156129
0.161507
0.166869
0.172215
0.177541
0.182845
0.188123
0.193373
0.198591
0.203774
0.208917
0.214017
0.219071
0.224074
0.229024
0.233915
0.238744
0.243508
0.248204
0.252828
0.257377
0.261847
0.266237
0.270543
0.274762
0.278893
0.282933
0.28688
0.290732
0.294487
0.298144
0.301702
0.305158
0.308513
0.311764
0.314912
0.317954
0.320892
0.323723
0.326448
0.329066
0.331578
0.333982
0.336279
0.338469
0.340552
0.342527
0.344396
0.346158
0.347813
0.349362
0.350805
0.352142
0.353374
0.354502
0.355525
0.356444
0.357259
0.357972
0.358583
0.359092
0.3595
0.359808
0.360016
0.360125
0.360137
0.360051
0.359868
0.35959
0.359217
0.358749
0.358189
0.357537
0.356793
0.35596
0.355037
0.354028
0.352931
0.35175
0.350484
0.349135
0.347704
0.346192
0.344601
0.342932
0.341185
0.339362
0.337464
0.335492
0.333446
0.331329
0.329139
0.32688
0.32455
0.322152
0.319685
0.317151
0.31455
0.311883
0.309151
0.306353
0.303492
0.300568
0.29758
0.294531
0.29142
0.288248
0.285017
0.281726
0.278377
0.274971
0.271508
0.26799
0.264418
0.260792
0.257113
0.253384
0.249606
0.245779
0.241905
0.237986
0.234023
0.230018
0.225974
0.22189
0.217771
0.213616
0.20943
0.205213
0.200969
0.196699
0.192405
0.188091
0.183759
0.179411
0.175049
0.170678
0.166298
0.161914
0.157528
0.153142
0.14876
0.144385
0.140019
0.135665
0.131327
0.127006
0.122707
0.118432
0.114183
0.109964
0.105778
0.101627
0.0975147
0.0934432
0.0894157
0.0854356
0.0815064
0.0776312
0.0738078
0.0700347
0.06634
0.062679
0.059066
0.0555075
0.0519748
0.0484581
0.045003
0.0415957
0.0382174
0.0348212
0.0313604
0.027778
0.0239736
0.0197292
0.0146023
0.0210817
0.0275972
0.0337416
0.0396489
0.045474
0.0512728
0.057031
0.0627245
0.0683561
0.0739537
0.0795348
0.0851008
0.0906504
0.0961833
0.101699
0.107199
0.112684
0.118155
0.123613
0.12906
0.134495
0.13992
0.145334
0.150737
0.156128
0.161506
0.166868
0.172214
0.17754
0.182844
0.188122
0.193372
0.19859
0.203773
0.208916
0.214016
0.21907
0.224073
0.229022
0.233913
0.238743
0.243507
0.248203
0.252827
0.257376
0.261846
0.266236
0.270541
0.274761
0.278892
0.282932
0.286878
0.29073
0.294486
0.298143
0.3017
0.305157
0.308511
0.311763
0.31491
0.317953
0.32089
0.323721
0.326446
0.329065
0.331576
0.33398
0.336277
0.338467
0.34055
0.342525
0.344394
0.346156
0.347811
0.34936
0.350803
0.35214
0.353372
0.3545
0.355523
0.356442
0.357258
0.357971
0.358581
0.35909
0.359498
0.359806
0.360014
0.360123
0.360135
0.360049
0.359866
0.359588
0.359215
0.358748
0.358187
0.357535
0.356791
0.355958
0.355036
0.354026
0.352929
0.351748
0.350482
0.349133
0.347702
0.346191
0.3446
0.34293
0.341183
0.33936
0.337462
0.33549
0.333445
0.331327
0.329137
0.326878
0.324548
0.32215
0.319683
0.317149
0.314548
0.311881
0.309149
0.306352
0.30349
0.300566
0.297579
0.294529
0.291418
0.288247
0.285015
0.281725
0.278376
0.27497
0.271507
0.267989
0.264416
0.26079
0.257112
0.253383
0.249604
0.245777
0.241903
0.237984
0.234022
0.230017
0.225972
0.221889
0.217769
0.213615
0.209429
0.205212
0.200968
0.196698
0.192404
0.18809
0.183758
0.179409
0.175048
0.170677
0.166297
0.161913
0.157527
0.153141
0.148759
0.144384
0.140018
0.135664
0.131326
0.127005
0.122706
0.118431
0.114182
0.109964
0.105777
0.101627
0.097514
0.0934425
0.0894151
0.085435
0.0815059
0.0776307
0.0738068
0.0700335
0.0663391
0.0626785
0.0590662
0.0555087
0.0519776
0.0484655
0.0450202
0.0416198
0.0382291
0.0348233
0.0313593
0.0277769
0.0239733
0.0197294
0.0146027
0.0247302
0.031988
0.039064
0.0458053
0.0523673
0.0588197
0.0652019
0.0715284
0.0778099
0.0840592
0.0902858
0.0964932
0.102682
0.108853
0.115004
0.121135
0.127248
0.133341
0.139418
0.145477
0.15152
0.157548
0.163561
0.169558
0.175538
0.181502
0.187446
0.19337
0.199271
0.205146
0.210991
0.216805
0.222583
0.228322
0.234017
0.239665
0.245262
0.250803
0.256285
0.261703
0.267053
0.272332
0.277536
0.28266
0.287703
0.292659
0.297527
0.302302
0.306982
0.311565
0.316047
0.320427
0.324702
0.328871
0.332932
0.336882
0.340721
0.344447
0.348059
0.351556
0.354937
0.358202
0.361349
0.364379
0.36729
0.370083
0.372758
0.375313
0.377749
0.380067
0.382265
0.384345
0.386306
0.388149
0.389874
0.391481
0.392971
0.394343
0.3956
0.39674
0.397765
0.398675
0.399471
0.400153
0.400721
0.401178
0.401523
0.401757
0.401881
0.401897
0.401804
0.401604
0.401297
0.400884
0.400367
0.399746
0.399023
0.398199
0.397274
0.396251
0.39513
0.393913
0.392601
0.391195
0.389697
0.388107
0.386428
0.384659
0.382804
0.380862
0.378835
0.376725
0.374532
0.372257
0.369901
0.367466
0.364952
0.362361
0.359693
0.356949
0.354129
0.351235
0.348268
0.345228
0.342115
0.338932
0.335678
0.332354
0.328961
0.3255
0.321971
0.318376
0.314715
0.31099
0.3072
0.303348
0.299435
0.295461
0.291427
0.287336
0.283188
0.278986
0.27473
0.270422
0.266063
0.261657
0.257204
0.252706
0.248166
0.243585
0.238967
0.234313
0.229625
0.224907
0.220161
0.215389
0.210594
0.205779
0.200947
0.196101
0.191243
0.186378
0.181507
0.176635
0.171764
0.166898
0.162039
0.157191
0.152358
0.147542
0.142747
0.137975
0.133231
0.128517
0.123837
0.119194
0.11459
0.110028
0.105512
0.101045
0.0966291
0.0922671
0.087961
0.0837106
0.0795139
0.0753717
0.0712756
0.0672262
0.0632238
0.0592621
0.0553367
0.0514517
0.0476021
0.0437777
0.0399554
0.0360974
0.0321431
0.0279767
0.0233505
0.0178659
0.0247326
0.0319888
0.0390626
0.0458043
0.0523667
0.0588194
0.0652019
0.0715284
0.0778099
0.084059
0.0902854
0.0964928
0.102682
0.108852
0.115003
0.121135
0.127247
0.133341
0.139417
0.145476
0.15152
0.157548
0.16356
0.169557
0.175538
0.181501
0.187446
0.193369
0.19927
0.205145
0.210991
0.216804
0.222582
0.228321
0.234016
0.239664
0.245261
0.250802
0.256284
0.261702
0.267052
0.272331
0.277535
0.282659
0.287702
0.292658
0.297525
0.302301
0.306981
0.311563
0.316046
0.320426
0.324701
0.32887
0.33293
0.336881
0.34072
0.344446
0.348058
0.351555
0.354936
0.358201
0.361348
0.364378
0.367289
0.370082
0.372756
0.375311
0.377748
0.380065
0.382264
0.384343
0.386305
0.388147
0.389872
0.391479
0.392969
0.394342
0.395598
0.396739
0.397764
0.398674
0.399469
0.400151
0.40072
0.401176
0.401521
0.401756
0.40188
0.401895
0.401802
0.401602
0.401295
0.400883
0.400365
0.399745
0.399022
0.398197
0.397273
0.39625
0.395129
0.393912
0.392599
0.391194
0.389695
0.388106
0.386426
0.384658
0.382802
0.380861
0.378834
0.376723
0.37453
0.372255
0.3699
0.367465
0.364951
0.36236
0.359691
0.356947
0.354128
0.351234
0.348267
0.345226
0.342114
0.338931
0.335677
0.332353
0.32896
0.325499
0.32197
0.318375
0.314714
0.310988
0.307199
0.303347
0.299433
0.295459
0.291426
0.287335
0.283187
0.278985
0.274728
0.27042
0.266062
0.261656
0.257203
0.252705
0.248165
0.243584
0.238966
0.234312
0.229624
0.224906
0.22016
0.215388
0.210593
0.205778
0.200946
0.1961
0.191243
0.186377
0.181507
0.176634
0.171763
0.166897
0.162038
0.15719
0.152357
0.147541
0.142746
0.137975
0.133231
0.128517
0.123837
0.119193
0.114589
0.110028
0.105512
0.101045
0.0966287
0.0922667
0.0879606
0.08371
0.0795132
0.0753712
0.0712753
0.0672261
0.0632241
0.059263
0.0553392
0.0514572
0.0476093
0.0437821
0.0399569
0.0360977
0.0321433
0.0279771
0.0233512
0.0178666
0.0269768
0.0356573
0.0440736
0.0517563
0.0590623
0.066162
0.0731501
0.0800719
0.0869496
0.0937955
0.100616
0.107414
0.114189
0.120939
0.127664
0.134363
0.141035
0.14768
0.1543
0.160896
0.167467
0.174015
0.180541
0.187045
0.193526
0.199985
0.206419
0.212827
0.219208
0.225559
0.231876
0.238158
0.2444
0.250599
0.25675
0.26285
0.268895
0.27488
0.280801
0.286654
0.292435
0.298138
0.303761
0.3093
0.31475
0.320109
0.325371
0.330535
0.335597
0.340555
0.345405
0.350144
0.354771
0.359284
0.36368
0.367958
0.372115
0.376151
0.380064
0.383853
0.387517
0.391056
0.394467
0.397752
0.400909
0.403937
0.406838
0.40961
0.412253
0.414767
0.417153
0.41941
0.421539
0.423539
0.425412
0.427157
0.428775
0.430266
0.43163
0.432869
0.433983
0.434972
0.435837
0.436579
0.437198
0.437695
0.438071
0.438326
0.438463
0.438481
0.438381
0.438165
0.437833
0.437386
0.436826
0.436153
0.435369
0.434475
0.433472
0.432362
0.431146
0.429825
0.428401
0.426875
0.425248
0.423523
0.421699
0.419779
0.417763
0.415654
0.413452
0.411159
0.408776
0.406304
0.403744
0.401098
0.398366
0.395549
0.392649
0.389666
0.386601
0.383455
0.380229
0.376923
0.37354
0.370079
0.366541
0.362927
0.359238
0.355475
0.351639
0.347731
0.343751
0.339701
0.335582
0.331395
0.327141
0.322821
0.318438
0.313991
0.309484
0.304916
0.300291
0.29561
0.290874
0.286086
0.281248
0.276361
0.271429
0.266453
0.261436
0.256381
0.25129
0.246165
0.241011
0.235828
0.230622
0.225394
0.220148
0.214887
0.209614
0.204333
0.199047
0.19376
0.188474
0.183194
0.177923
0.172665
0.167422
0.162199
0.156999
0.151825
0.146681
0.14157
0.136496
0.131461
0.126469
0.121522
0.116624
0.111776
0.106982
0.102243
0.0975587
0.0929302
0.0883552
0.0838317
0.0793565
0.0749282
0.0705459
0.0662071
0.0619087
0.0576479
0.0534192
0.0492119
0.0450056
0.0407642
0.0364239
0.0318626
0.0268221
0.0209838
0.026983
0.0356562
0.0440692
0.0517545
0.0590616
0.0661616
0.0731498
0.0800716
0.0869493
0.0937952
0.100616
0.107413
0.114188
0.120939
0.127664
0.134362
0.141034
0.14768
0.1543
0.160895
0.167466
0.174015
0.180541
0.187044
0.193526
0.199984
0.206418
0.212827
0.219207
0.225558
0.231876
0.238157
0.244399
0.250598
0.256749
0.26285
0.268894
0.274879
0.2808
0.286653
0.292434
0.298137
0.303761
0.309299
0.314749
0.320108
0.32537
0.330534
0.335597
0.340554
0.345404
0.350143
0.35477
0.359283
0.363679
0.367956
0.372114
0.37615
0.380063
0.383852
0.387516
0.391055
0.394466
0.397751
0.400908
0.403936
0.406837
0.409608
0.412252
0.414766
0.417152
0.419409
0.421537
0.423538
0.425411
0.427156
0.428773
0.430265
0.431629
0.432868
0.433982
0.434971
0.435836
0.436578
0.437197
0.437694
0.43807
0.438325
0.438462
0.43848
0.43838
0.438163
0.437831
0.437385
0.436824
0.436152
0.435368
0.434474
0.433471
0.432361
0.431145
0.429824
0.4284
0.426874
0.425247
0.423521
0.421698
0.419777
0.417762
0.415653
0.413451
0.411158
0.408775
0.406303
0.403743
0.401097
0.398365
0.395548
0.392648
0.389664
0.3866
0.383454
0.380228
0.376922
0.373539
0.370078
0.36654
0.362926
0.359237
0.355474
0.351638
0.34773
0.34375
0.3397
0.335581
0.331394
0.32714
0.32282
0.318437
0.31399
0.309483
0.304915
0.30029
0.295609
0.290873
0.286085
0.281247
0.27636
0.271428
0.266452
0.261435
0.25638
0.251289
0.246165
0.24101
0.235828
0.230621
0.225393
0.220147
0.214886
0.209614
0.204333
0.199047
0.193759
0.188474
0.183194
0.177923
0.172664
0.167421
0.162198
0.156998
0.151824
0.146681
0.14157
0.136495
0.13146
0.126468
0.121522
0.116623
0.111776
0.106982
0.102242
0.0975585
0.0929299
0.0883549
0.0838314
0.0793562
0.074928
0.0705459
0.0662072
0.0619092
0.0576493
0.053421
0.0492132
0.0450063
0.0407647
0.0364245
0.0318635
0.0268233
0.0209849
0.0255707
0.0388565
0.0490848
0.057729
0.0657595
0.0735031
0.0810955
0.0886034
0.0960596
0.103479
0.110869
0.118228
0.125558
0.132854
0.140115
0.147339
0.154526
0.161676
0.168788
0.175865
0.182908
0.189918
0.196896
0.203843
0.21076
0.217646
0.224501
0.231325
0.238115
0.244869
0.251586
0.258263
0.264895
0.271481
0.278015
0.284494
0.290914
0.297271
0.303559
0.309776
0.315916
0.321975
0.327949
0.333834
0.339626
0.345321
0.350916
0.356406
0.361789
0.367061
0.372219
0.377262
0.382185
0.386988
0.391667
0.396221
0.400647
0.404945
0.409113
0.41315
0.417054
0.420824
0.42446
0.427961
0.431327
0.434556
0.437649
0.440605
0.443424
0.446106
0.448651
0.45106
0.453331
0.455466
0.457465
0.459328
0.461055
0.462647
0.464105
0.465428
0.466617
0.467674
0.468598
0.46939
0.470052
0.470583
0.470985
0.471258
0.471404
0.471423
0.471317
0.471086
0.470731
0.470254
0.469655
0.468936
0.468099
0.467143
0.466072
0.464886
0.463586
0.462174
0.460651
0.45902
0.457281
0.455435
0.453485
0.451431
0.449275
0.447019
0.444663
0.44221
0.43966
0.437014
0.434275
0.431442
0.428518
0.425503
0.422398
0.419204
0.415923
0.412554
0.4091
0.405561
0.401939
0.398233
0.394444
0.390575
0.386625
0.382596
0.378489
0.374304
0.370043
0.365707
0.361297
0.356814
0.35226
0.347636
0.342943
0.338183
0.333358
0.32847
0.32352
0.318509
0.313441
0.308318
0.30314
0.297912
0.292634
0.287311
0.281944
0.276536
0.27109
0.265609
0.260095
0.254554
0.248986
0.243396
0.237787
0.232162
0.226526
0.220881
0.215232
0.209581
0.203933
0.198291
0.192659
0.187042
0.181441
0.175862
0.170308
0.164782
0.159288
0.15383
0.148409
0.143031
0.137697
0.13241
0.127174
0.121988
0.116857
0.111779
0.106757
0.101788
0.0968717
0.0920057
0.0871879
0.0824165
0.0776899
0.0730058
0.0683611
0.0637509
0.0591676
0.0545972
0.0500154
0.0453798
0.0406159
0.0355887
0.030044
0.0237719
0.025575
0.0388466
0.0490788
0.0577282
0.0657595
0.0735029
0.0810952
0.088603
0.0960592
0.103479
0.110868
0.118228
0.125557
0.132853
0.140114
0.147339
0.154525
0.161675
0.168788
0.175865
0.182908
0.189918
0.196896
0.203843
0.210759
0.217645
0.224501
0.231324
0.238114
0.244869
0.251586
0.258262
0.264895
0.27148
0.278014
0.284493
0.290913
0.29727
0.303559
0.309775
0.315915
0.321974
0.327948
0.333833
0.339625
0.34532
0.350915
0.356405
0.361788
0.36706
0.372218
0.377261
0.382184
0.386987
0.391666
0.39622
0.400646
0.404944
0.409112
0.413149
0.417053
0.420823
0.424459
0.42796
0.431326
0.434555
0.437648
0.440604
0.443423
0.446105
0.44865
0.451059
0.45333
0.455466
0.457464
0.459327
0.461054
0.462646
0.464104
0.465427
0.466616
0.467673
0.468597
0.469389
0.470051
0.470582
0.470984
0.471257
0.471403
0.471422
0.471316
0.471085
0.47073
0.470253
0.469654
0.468935
0.468098
0.467142
0.466071
0.464885
0.463585
0.462173
0.460651
0.459019
0.45728
0.455434
0.453484
0.45143
0.449274
0.447018
0.444662
0.442209
0.439659
0.437013
0.434274
0.431441
0.428517
0.425502
0.422397
0.419203
0.415922
0.412554
0.4091
0.405561
0.401938
0.398232
0.394444
0.390574
0.386624
0.382595
0.378488
0.374303
0.370042
0.365706
0.361296
0.356813
0.352259
0.347635
0.342942
0.338183
0.333358
0.328469
0.323519
0.318509
0.313441
0.308317
0.30314
0.297911
0.292634
0.28731
0.281943
0.276535
0.271089
0.265608
0.260095
0.254553
0.248985
0.243395
0.237786
0.232162
0.226526
0.220881
0.215231
0.20958
0.203932
0.198291
0.192659
0.187041
0.181441
0.175862
0.170308
0.164782
0.159288
0.153829
0.148409
0.143031
0.137697
0.13241
0.127173
0.121988
0.116857
0.111779
0.106757
0.101788
0.0968715
0.0920055
0.0871878
0.0824164
0.0776898
0.0730058
0.0683611
0.0637512
0.059168
0.0545976
0.0500158
0.0453803
0.0406168
0.0355897
0.0300445
0.0237707
0.0270273
0.0424826
0.0541344
0.0637425
0.0725354
0.0809453
0.0891548
0.097254
0.105287
0.113273
0.121218
0.129124
0.136988
0.144807
0.152578
0.160298
0.167967
0.175585
0.183152
0.190669
0.19814
0.205564
0.212946
0.220286
0.227585
0.234845
0.242065
0.249247
0.256388
0.263488
0.270544
0.277555
0.284518
0.291429
0.298285
0.305082
0.311817
0.318484
0.325081
0.331601
0.338042
0.344398
0.350666
0.35684
0.362918
0.368895
0.374767
0.380531
0.386183
0.39172
0.397138
0.402435
0.407608
0.412655
0.417573
0.42236
0.427014
0.431534
0.435918
0.440164
0.444271
0.448239
0.452066
0.455751
0.459294
0.462694
0.465951
0.469064
0.472033
0.474859
0.47754
0.480078
0.482472
0.484722
0.486829
0.488792
0.490613
0.492291
0.493828
0.495223
0.496477
0.497591
0.498566
0.499401
0.500098
0.500658
0.501082
0.50137
0.501523
0.501543
0.501429
0.501185
0.500809
0.500304
0.499671
0.498911
0.498026
0.497016
0.495883
0.494629
0.493255
0.491762
0.490152
0.488427
0.486588
0.484636
0.482573
0.480401
0.47812
0.475733
0.473241
0.470645
0.467946
0.465147
0.462247
0.459249
0.456153
0.452961
0.449674
0.446293
0.442818
0.439252
0.435595
0.431847
0.428011
0.424086
0.420075
0.415977
0.411794
0.407527
0.403178
0.398746
0.394234
0.389642
0.384973
0.380226
0.375404
0.370508
0.36554
0.360501
0.355393
0.350218
0.344978
0.339674
0.33431
0.328887
0.323408
0.317875
0.31229
0.306657
0.300978
0.295257
0.289495
0.283697
0.277866
0.272004
0.266116
0.260205
0.254274
0.248327
0.242369
0.236401
0.23043
0.224457
0.218489
0.212527
0.206576
0.200641
0.194724
0.18883
0.182962
0.177125
0.17132
0.165553
0.159825
0.154141
0.148502
0.142911
0.13737
0.13188
0.126443
0.121059
0.115728
0.110449
0.10522
0.10004
0.0949056
0.0898155
0.0847675
0.0797585
0.0747845
0.0698391
0.0649114
0.0599829
0.0550208
0.0499673
0.0447187
0.0390827
0.0327143
0.0255002
0.0270245
0.0424687
0.0541294
0.0637432
0.0725362
0.0809454
0.0891545
0.0972536
0.105286
0.113272
0.121218
0.129124
0.136988
0.144807
0.152577
0.160298
0.167967
0.175584
0.183151
0.190669
0.198139
0.205564
0.212945
0.220285
0.227584
0.234844
0.242065
0.249246
0.256387
0.263487
0.270544
0.277555
0.284517
0.291428
0.298284
0.305082
0.311816
0.318484
0.32508
0.3316
0.338041
0.344397
0.350665
0.35684
0.362918
0.368894
0.374767
0.38053
0.386182
0.391719
0.397137
0.402434
0.407607
0.412654
0.417572
0.422359
0.427014
0.431533
0.435917
0.440163
0.44427
0.448238
0.452065
0.45575
0.459293
0.462693
0.46595
0.469063
0.472032
0.474858
0.47754
0.480077
0.482471
0.484721
0.486828
0.488791
0.490612
0.492291
0.493827
0.495222
0.496476
0.49759
0.498565
0.4994
0.500098
0.500658
0.501081
0.501369
0.501522
0.501542
0.501429
0.501184
0.500808
0.500304
0.49967
0.498911
0.498025
0.497015
0.495882
0.494628
0.493254
0.491761
0.490152
0.488426
0.486587
0.484635
0.482572
0.4804
0.478119
0.475732
0.47324
0.470644
0.467946
0.465146
0.462246
0.459248
0.456153
0.452961
0.449673
0.446292
0.442818
0.439251
0.435594
0.431847
0.42801
0.424086
0.420074
0.415976
0.411794
0.407527
0.403177
0.398746
0.394234
0.389642
0.384972
0.380225
0.375403
0.370508
0.365539
0.3605
0.355392
0.350217
0.344977
0.339674
0.33431
0.328887
0.323407
0.317874
0.31229
0.306657
0.300978
0.295256
0.289495
0.283697
0.277866
0.272004
0.266116
0.260205
0.254274
0.248327
0.242368
0.236401
0.230429
0.224457
0.218488
0.212526
0.206576
0.20064
0.194724
0.18883
0.182962
0.177124
0.17132
0.165553
0.159825
0.154141
0.148502
0.142911
0.137369
0.13188
0.126443
0.121059
0.115728
0.110449
0.10522
0.10004
0.0949055
0.0898155
0.0847674
0.0797584
0.0747845
0.0698391
0.0649115
0.0599831
0.0550211
0.0499679
0.044719
0.0390807
0.0327047
0.0254776
0.0294035
0.0463841
0.0593143
0.0698778
0.0794551
0.0885529
0.0973968
0.106099
0.114714