/*--------------------------------*- C++ -*----------------------------------*\
  =========                 |
  \\      /  F ield         | OpenFOAM: The Open Source CFD Toolbox
   \\    /   O peration     | Website:  https://openfoam.org
    \\  /    A nd           | Version:  8
     \\/     M anipulation  |
\*---------------------------------------------------------------------------*/
FoamFile
{
    version     2.0;
    format      ascii;
    class       volVectorField;
    location    "500";
    object      U;
}
// * * * * * * * * * * * * * * * * * * * * * * * * * * * * * * * * * * * * * //

dimensions      [0 1 -1 0 0 0 0];

internalField   nonuniform List<vector> 
48000
(
(-0.0018381 -1.41806e-06 0.00181877)
(-0.0046134 1.29473e-07 0.00263787)
(-0.00815878 1.93488e-07 0.00259257)
(-0.0109601 9.16334e-08 0.00223282)
(-0.0129936 8.33855e-08 0.00176086)
(-0.0141258 7.0634e-08 0.00153867)
(-0.0146522 -4.38145e-08 0.000643433)
(-0.0135715 -1.54485e-07 -0.00109305)
(-0.0119274 -1.65925e-07 -0.00130226)
(-0.0097244 -2.05516e-07 -0.00192294)
(-0.00656839 -2.47699e-07 -0.00284815)
(-0.00308636 -3.57555e-07 -0.00318867)
(0.000802703 -3.72681e-07 -0.00339373)
(0.00486287 -2.99826e-07 -0.00350255)
(0.00903699 -2.39458e-07 -0.0035497)
(0.0132857 -2.32164e-07 -0.00355937)
(0.0175556 -2.49297e-07 -0.00353976)
(0.0218153 -2.59028e-07 -0.00349728)
(0.0260379 -2.5021e-07 -0.00343697)
(0.0302024 -2.25121e-07 -0.00336289)
(0.034292 -1.89074e-07 -0.00327847)
(0.0382934 -1.56545e-07 -0.00318663)
(0.0421967 -1.46539e-07 -0.00308985)
(0.0459946 -1.62888e-07 -0.00299013)
(0.0496826 -1.89082e-07 -0.00288904)
(0.053258 -2.06047e-07 -0.00278773)
(0.0567195 -2.04951e-07 -0.00268708)
(0.060067 -1.858e-07 -0.00258775)
(0.063301 -1.54574e-07 -0.00249035)
(0.0664228 -1.18481e-07 -0.00239539)
(0.0694341 -8.01114e-08 -0.00230327)
(0.0723375 -3.88181e-08 -0.00221418)
(0.0751359 5.27736e-09 -0.00212819)
(0.0778325 5.11622e-08 -0.00204529)
(0.0804302 9.75877e-08 -0.00196544)
(0.0829322 1.41333e-07 -0.00188862)
(0.0853415 1.78804e-07 -0.00181484)
(0.0876611 2.11158e-07 -0.00174407)
(0.0898944 2.424e-07 -0.00167622)
(0.0920446 2.73033e-07 -0.00161111)
(0.0941147 2.97102e-07 -0.00154855)
(0.0961077 3.05958e-07 -0.00148837)
(0.0980261 2.95001e-07 -0.00143046)
(0.0998725 2.66713e-07 -0.00137477)
(0.101649 2.29607e-07 -0.00132125)
(0.103358 1.93454e-07 -0.00126985)
(0.105003 1.6346e-07 -0.00122045)
(0.106585 1.38454e-07 -0.00117287)
(0.108107 1.1293e-07 -0.0011269)
(0.109571 8.16577e-08 -0.00108239)
(0.110979 4.29685e-08 -0.00103927)
(0.112332 -2.51271e-10 -0.00099753)
(0.113631 -4.22604e-08 -0.000957193)
(0.114878 -7.7424e-08 -0.000918258)
(0.116075 -1.02613e-07 -0.00088067)
(0.117223 -1.18146e-07 -0.000844313)
(0.118325 -1.26568e-07 -0.000809033)
(0.119381 -1.30771e-07 -0.00077469)
(0.120393 -1.32111e-07 -0.000741189)
(0.121361 -1.30718e-07 -0.000708505)
(0.122288 -1.26233e-07 -0.000676669)
(0.123172 -1.18953e-07 -0.000645734)
(0.124017 -1.09922e-07 -0.000615729)
(0.124821 -1.0013e-07 -0.000586639)
(0.125588 -9.01096e-08 -0.000558396)
(0.126317 -7.95864e-08 -0.000530905)
(0.127011 -6.75327e-08 -0.000504071)
(0.127669 -5.30043e-08 -0.000477828)
(0.128292 -3.61459e-08 -0.000452149)
(0.128882 -1.86098e-08 -0.000427039)
(0.129438 -3.06102e-09 -0.000402511)
(0.12996 8.16272e-09 -0.000378573)
(0.130451 1.42391e-08 -0.000355202)
(0.13091 1.65386e-08 -0.000332353)
(0.131338 1.79016e-08 -0.000309957)
(0.131736 2.11606e-08 -0.000287944)
(0.132105 2.83258e-08 -0.000266259)
(0.132444 3.94582e-08 -0.000244874)
(0.132755 5.31947e-08 -0.000223785)
(0.133038 6.72358e-08 -0.000203003)
(0.133292 7.97616e-08 -0.000182536)
(0.133519 9.02467e-08 -0.00016238)
(0.133719 9.9384e-08 -0.000142516)
(0.133892 1.0824e-07 -0.000122914)
(0.134039 1.16813e-07 -0.000103544)
(0.13416 1.23933e-07 -8.4378e-05)
(0.134255 1.27839e-07 -6.53929e-05)
(0.134324 1.27573e-07 -4.65683e-05)
(0.134368 1.23469e-07 -2.78831e-05)
(0.134387 1.17301e-07 -9.27548e-06)
(0.13438 1.11658e-07 9.24011e-06)
(0.134348 1.09009e-07 2.76232e-05)
(0.134291 1.11186e-07 4.59109e-05)
(0.134209 1.18458e-07 6.41162e-05)
(0.134104 1.29423e-07 8.22284e-05)
(0.133974 1.40906e-07 0.00010021)
(0.13382 1.48985e-07 0.000117996)
(0.133642 1.50333e-07 0.000135497)
(0.133441 1.43594e-07 0.000152631)
(0.133217 1.29903e-07 0.000169355)
(0.13297 1.1261e-07 0.000185694)
(0.132701 9.60032e-08 0.000201737)
(0.13241 8.4216e-08 0.000217592)
(0.132098 8.00661e-08 0.000233326)
(0.131765 8.46423e-08 0.000248912)
(0.131412 9.67416e-08 0.000264229)
(0.131039 1.12877e-07 0.00027911)
(0.130647 1.27923e-07 0.000293428)
(0.130235 1.362e-07 0.00030717)
(0.129804 1.33032e-07 0.000320468)
(0.129355 1.15504e-07 0.000333563)
(0.128888 8.31424e-08 0.000346711)
(0.128404 3.81257e-08 0.000360073)
(0.127903 -1.34395e-08 0.000373638)
(0.127384 -5.98573e-08 0.000387226)
(0.126848 -8.41016e-08 0.000400582)
(0.126295 -6.79285e-08 0.000413527)
(0.125723 -5.86306e-10 0.000426083)
(0.125133 1.11841e-07 0.000438501)
(0.124525 2.43137e-07 0.000451157)
(0.123899 3.5392e-07 0.000464367)
(0.123255 4.07846e-07 0.000478231)
(0.122593 3.89138e-07 0.000492587)
(0.121912 3.11447e-07 0.000507117)
(0.121211 2.12969e-07 0.000521542)
(0.12049 1.38515e-07 0.000535776)
(0.119748 1.17993e-07 0.000549974)
(0.118985 1.51512e-07 0.000564424)
(0.118201 2.09336e-07 0.000579392)
(0.117397 2.46937e-07 0.000594981)
(0.116572 2.28716e-07 0.00061111)
(0.115726 1.48018e-07 0.000627599)
(0.114858 3.29706e-08 0.0006443)
(0.113967 -6.6398e-08 0.000661198)
(0.113053 -1.0281e-07 0.000678422)
(0.112115 -5.61564e-08 0.000696175)
(0.111152 5.58899e-08 0.000714625)
(0.110165 1.86775e-07 0.000733842)
(0.109154 2.84766e-07 0.00075378)
(0.108117 3.19793e-07 0.00077432)
(0.107053 2.97391e-07 0.000795325)
(0.105961 2.5175e-07 0.000816688)
(0.104839 2.21489e-07 0.00083836)
(0.103687 2.23979e-07 0.000860354)
(0.102506 2.45003e-07 0.000882723)
(0.101294 2.5066e-07 0.000905523)
(0.100052 2.12299e-07 0.000928785)
(0.0987788 1.28106e-07 0.000952502)
(0.0974745 2.68714e-08 0.000976638)
(0.0961381 -4.79101e-08 0.00100116)
(0.0947691 -6.30552e-08 0.00102606)
(0.0933671 -1.49623e-08 0.00105142)
(0.0919318 6.98243e-08 0.00107742)
(0.0904626 1.51603e-07 0.00110422)
(0.0889587 2.00344e-07 0.00113196)
(0.087419 2.10509e-07 0.00116067)
(0.0858419 1.9873e-07 0.00119029)
(0.0842262 1.88321e-07 0.00122073)
(0.0825702 1.94016e-07 0.00125189)
(0.0808729 2.15931e-07 0.00128381)
(0.0791331 2.42162e-07 0.00131662)
(0.07735 2.565e-07 0.00135055)
(0.0755224 2.4814e-07 0.00138583)
(0.0736491 2.20309e-07 0.00142266)
(0.0717286 1.88473e-07 0.0014612)
(0.0697592 1.72041e-07 0.00150152)
(0.0677387 1.89509e-07 0.00154376)
(0.0656649 2.52488e-07 0.00158808)
(0.0635352 3.55588e-07 0.00163475)
(0.0613467 4.74214e-07 0.00168408)
(0.0590961 5.76644e-07 0.00173638)
(0.0567802 6.3916e-07 0.00179187)
(0.0543953 6.55234e-07 0.00185061)
(0.051938 6.36777e-07 0.0019127)
(0.0494044 6.07468e-07 0.00197838)
(0.0467911 5.82431e-07 0.00204789)
(0.0440948 5.5048e-07 0.00212136)
(0.0413124 5.11677e-07 0.00219875)
(0.0384404 4.98809e-07 0.00227957)
(0.0354791 4.80322e-07 0.00236218)
(0.0324308 3.81668e-07 0.00244267)
(0.0292797 2.75473e-07 0.00252137)
(0.026226 3.0722e-07 0.00263237)
(0.0224482 3.1648e-07 0.00398559)
(0.0191325 2.95108e-07 0.0034674)
(0.016246 6.87367e-07 0.00119822)
(0.0128614 8.47756e-07 0.00204681)
(0.00975451 2.53547e-08 0.0021222)
(0.00689064 -2.07595e-06 0.00199227)
(0.00378275 -5.50172e-06 0.00209551)
(0.00149307 -6.82962e-06 0.00194723)
(-0.00081595 -2.08857e-05 0.00153969)
(-0.00282532 -2.19197e-05 0.0013284)
(-0.00454923 4.1178e-06 0.00107361)
(-0.00582328 1.07698e-05 0.000711973)
(-0.00647634 8.41769e-06 0.000197727)
(-0.00639207 6.23743e-06 -0.000451183)
(-0.00544047 4.32154e-06 -0.00115701)
(-0.00362635 2.7805e-06 -0.00167301)
(-0.0015658 2.51582e-06 -0.00162624)
(-0.00183772 -1.41813e-06 0.00181896)
(-0.00461322 1.29468e-07 0.00263782)
(-0.00815989 1.93492e-07 0.00259232)
(-0.0109616 9.16415e-08 0.00223214)
(-0.0129949 8.33798e-08 0.00175986)
(-0.0141257 7.06078e-08 0.0015384)
(-0.014651 -4.37983e-08 0.000644015)
(-0.0135701 -1.54429e-07 -0.00109322)
(-0.011927 -1.65955e-07 -0.00130193)
(-0.00972507 -2.05618e-07 -0.00192168)
(-0.00656826 -2.47713e-07 -0.00284753)
(-0.00308574 -3.5755e-07 -0.00318819)
(0.000803779 -3.7267e-07 -0.00339313)
(0.00486405 -2.99815e-07 -0.0035019)
(0.00903791 -2.3945e-07 -0.00354918)
(0.0132862 -2.32156e-07 -0.00355907)
(0.0175558 -2.4929e-07 -0.00353963)
(0.0218154 -2.59022e-07 -0.00349725)
(0.0260381 -2.50205e-07 -0.00343693)
(0.0302028 -2.25116e-07 -0.00336282)
(0.0342925 -1.8907e-07 -0.00327841)
(0.0382938 -1.56542e-07 -0.00318663)
(0.0421968 -1.46537e-07 -0.00308995)
(0.0459945 -1.62885e-07 -0.00299035)
(0.0496824 -1.89079e-07 -0.00288934)
(0.0532578 -2.06045e-07 -0.00278804)
(0.0567195 -2.04948e-07 -0.00268731)
(0.0600671 -1.85798e-07 -0.0025879)
(0.0633012 -1.54572e-07 -0.00249046)
(0.0664228 -1.18479e-07 -0.00239549)
(0.069434 -8.01106e-08 -0.00230335)
(0.0723374 -3.88177e-08 -0.00221421)
(0.075136 5.27731e-09 -0.00212813)
(0.0778326 5.11617e-08 -0.00204511)
(0.0804305 9.75868e-08 -0.00196515)
(0.0829325 1.41332e-07 -0.00188827)
(0.0853417 1.78802e-07 -0.00181446)
(0.0876613 2.11156e-07 -0.00174368)
(0.0898946 2.42398e-07 -0.00167579)
(0.0920449 2.73031e-07 -0.00161063)
(0.0941151 2.971e-07 -0.00154801)
(0.0961082 3.05955e-07 -0.0014878)
(0.0980266 2.94998e-07 -0.00142991)
(0.0998728 2.6671e-07 -0.0013743)
(0.101649 2.29605e-07 -0.0013209)
(0.103358 1.93452e-07 -0.00126961)
(0.105003 1.63459e-07 -0.00122028)
(0.106585 1.38453e-07 -0.00117272)
(0.108108 1.1293e-07 -0.00112675)
(0.109572 8.16571e-08 -0.00108225)
(0.110979 4.29682e-08 -0.00103919)
(0.112332 -2.51269e-10 -0.00099756)
(0.113631 -4.22601e-08 -0.000957353)
(0.114878 -7.74235e-08 -0.000918536)
(0.116074 -1.02612e-07 -0.000881023)
(0.117223 -1.18146e-07 -0.000844683)
(0.118325 -1.26567e-07 -0.000809378)
(0.119381 -1.3077e-07 -0.000774997)
(0.120393 -1.3211e-07 -0.00074148)
(0.121362 -1.30717e-07 -0.000708823)
(0.122288 -1.26232e-07 -0.000677056)
(0.123172 -1.18953e-07 -0.000646208)
(0.124016 -1.09922e-07 -0.000616283)
(0.124821 -1.0013e-07 -0.000587238)
(0.125588 -9.01093e-08 -0.000558999)
(0.126317 -7.95861e-08 -0.000531478)
(0.127011 -6.75325e-08 -0.000504598)
(0.127669 -5.30041e-08 -0.000478313)
(0.128293 -3.61457e-08 -0.000452604)
(0.128882 -1.86097e-08 -0.000427474)
(0.129438 -3.061e-09 -0.000402927)
(0.129961 8.16267e-09 -0.000378956)
(0.130451 1.4239e-08 -0.000355534)
(0.13091 1.65386e-08 -0.000332612)
(0.131338 1.79015e-08 -0.000310132)
(0.131737 2.11605e-08 -0.000288035)
(0.132105 2.83257e-08 -0.000266281)
(0.132445 3.9458e-08 -0.000244851)
(0.132756 5.31944e-08 -0.000223742)
(0.133038 6.72355e-08 -0.000202959)
(0.133292 7.97612e-08 -0.000182502)
(0.133519 9.02463e-08 -0.000162363)
(0.133719 9.93837e-08 -0.000142521)
(0.133892 1.08239e-07 -0.000122951)
(0.134039 1.16813e-07 -0.00010362)
(0.13416 1.23933e-07 -8.44947e-05)
(0.134255 1.27839e-07 -6.55409e-05)
(0.134324 1.27572e-07 -4.67288e-05)
(0.134368 1.23468e-07 -2.80321e-05)
(0.134386 1.17301e-07 -9.39025e-06)
(0.13438 1.11658e-07 9.17773e-06)
(0.134348 1.09008e-07 2.76215e-05)
(0.134291 1.11186e-07 4.59633e-05)
(0.13421 1.18458e-07 6.42035e-05)
(0.134104 1.29423e-07 8.23205e-05)
(0.133974 1.40905e-07 0.000100274)
(0.13382 1.48984e-07 0.000118008)
(0.133643 1.50332e-07 0.000135459)
(0.133442 1.43593e-07 0.000152578)
(0.133218 1.29902e-07 0.000169344)
(0.132971 1.1261e-07 0.000185773)
(0.132701 9.60028e-08 0.000201908)
(0.13241 8.42157e-08 0.00021779)
(0.132098 8.00659e-08 0.000233429)
(0.131765 8.46423e-08 0.000248796)
(0.131412 9.67417e-08 0.000263835)
(0.131039 1.12877e-07 0.000278502)
(0.130647 1.27923e-07 0.000292796)
(0.130235 1.362e-07 0.000306771)
(0.129805 1.33032e-07 0.000320519)
(0.129356 1.15503e-07 0.000334128)
(0.128889 8.31421e-08 0.000347646)
(0.128405 3.81255e-08 0.000361055)
(0.127903 -1.34395e-08 0.000374285)
(0.127384 -5.98572e-08 0.00038727)
(0.126847 -8.41017e-08 0.000400009)
(0.126294 -6.79286e-08 0.000412604)
(0.125723 -5.86308e-10 0.000425256)
(0.125133 1.11841e-07 0.000438182)
(0.124526 2.43137e-07 0.000451518)
(0.1239 3.53919e-07 0.000465244)
(0.123256 4.07844e-07 0.000479197)
(0.122594 3.89135e-07 0.000493166)
(0.121912 3.11445e-07 0.000507025)
(0.121211 2.12968e-07 0.000520821)
(0.120489 1.38515e-07 0.000534762)
(0.119747 1.17994e-07 0.000549108)
(0.118985 1.51513e-07 0.00056403)
(0.118201 2.09337e-07 0.000579522)
(0.117397 2.46937e-07 0.000595423)
(0.116572 2.28715e-07 0.000611523)
(0.115726 1.48017e-07 0.000627708)
(0.114857 3.29706e-08 0.000644042)
(0.113966 -6.63981e-08 0.000660745)
(0.113052 -1.02811e-07 0.00067808)
(0.112114 -5.61568e-08 0.000696213)
(0.111152 5.58903e-08 0.000715147)
(0.110166 1.86775e-07 0.000734743)
(0.109155 2.84765e-07 0.000754813)
(0.108118 3.19791e-07 0.00077522)
(0.107054 2.97389e-07 0.000795927)
(0.105961 2.51749e-07 0.000816986)
(0.104839 2.21489e-07 0.000838483)
(0.103687 2.23979e-07 0.000860478)
(0.102506 2.45003e-07 0.000882967)
(0.101294 2.5066e-07 0.000905891)
(0.100052 2.12298e-07 0.000929177)
(0.0987788 1.28105e-07 0.000952784)
(0.0974741 2.68714e-08 0.000976721)
(0.0961374 -4.79102e-08 0.00100105)
(0.0947683 -6.30554e-08 0.00102588)
(0.0933665 -1.49624e-08 0.00105136)
(0.0919316 6.98248e-08 0.00107762)
(0.0904629 1.51604e-07 0.00110473)
(0.0889593 2.00344e-07 0.0011327)
(0.0874197 2.10509e-07 0.00116148)
(0.0858425 1.98729e-07 0.001191)
(0.0842264 1.8832e-07 0.00122121)
(0.08257 1.94016e-07 0.00125215)
(0.0808725 2.15931e-07 0.00128394)
(0.0791327 2.42163e-07 0.00131675)
(0.0773497 2.56501e-07 0.00135078)
(0.0755223 2.4814e-07 0.00138622)
(0.0736493 2.20309e-07 0.0014232)
(0.071729 1.88473e-07 0.00146178)
(0.0697597 1.72041e-07 0.00150207)
(0.0677392 1.89508e-07 0.00154424)
(0.0656655 2.52487e-07 0.00158854)
(0.0635358 3.55587e-07 0.00163521)
(0.0613473 4.74212e-07 0.00168451)
(0.0590969 5.76641e-07 0.00173669)
(0.0567808 6.39155e-07 0.00179196)
(0.0543958 6.55228e-07 0.0018505)
(0.0519381 6.36771e-07 0.00191245)
(0.0494044 6.07464e-07 0.00197798)
(0.0467912 5.82428e-07 0.00204739)
(0.044095 5.50478e-07 0.00212086)
(0.041313 5.11675e-07 0.00219836)
(0.0384414 4.98806e-07 0.00227931)
(0.0354805 4.80318e-07 0.00236202)
(0.0324325 3.81666e-07 0.00244257)
(0.0292815 2.75479e-07 0.00252118)
(0.0262278 3.07266e-07 0.00263164)
(0.0224498 3.16632e-07 0.00398493)
(0.0191347 2.95103e-07 0.00346748)
(0.016248 6.87012e-07 0.00120126)
(0.0128642 8.47496e-07 0.00204628)
(0.00975604 2.53576e-08 0.0021221)
(0.00688866 -2.0774e-06 0.00199413)
(0.00377419 -5.51822e-06 0.00209957)
(0.00146042 -6.86765e-06 0.00195237)
(-0.000813729 -2.09799e-05 0.00154936)
(-0.00291764 -2.19667e-05 0.00125127)
(-0.00457363 4.15002e-06 0.00103659)
(-0.00584154 1.08593e-05 0.000698452)
(-0.00649949 8.45457e-06 0.000193147)
(-0.0064077 6.24933e-06 -0.000452644)
(-0.00544956 4.32467e-06 -0.00115753)
(-0.0036312 2.78115e-06 -0.00167339)
(-0.00156829 2.51593e-06 -0.00162737)
(-0.00246366 2.3335e-08 0.00547094)
(-0.00501709 4.05985e-07 0.00568949)
(-0.00723212 3.44573e-07 0.00492695)
(-0.00863396 2.74727e-07 0.00361744)
(-0.00922255 2.37308e-07 0.00211088)
(-0.00895649 1.8151e-07 0.000529677)
(-0.00786583 1.38108e-07 -0.00103874)
(-0.00627807 1.195e-07 -0.00241637)
(-0.00419093 7.99513e-08 -0.00359646)
(-0.00147616 1.68257e-08 -0.0048074)
(0.00146977 -1.64259e-08 -0.00576592)
(0.00468015 -2.24059e-08 -0.00641169)
(0.00817573 -1.4088e-08 -0.00686096)
(0.0118677 -6.04719e-09 -0.00715363)
(0.0156973 -7.93967e-09 -0.00733112)
(0.0196146 -1.36014e-08 -0.00742212)
(0.0235771 -1.55719e-08 -0.00744411)
(0.0275523 -1.13288e-08 -0.00741156)
(0.0315135 -1.87157e-09 -0.00733563)
(0.0354391 1.00204e-08 -0.00722547)
(0.039312 2.20246e-08 -0.00708861)
(0.0431181 3.00426e-08 -0.00693135)
(0.0468469 3.02481e-08 -0.00675895)
(0.0504903 2.4735e-08 -0.00657575)
(0.0540423 1.94199e-08 -0.00638533)
(0.0574988 1.76323e-08 -0.00619057)
(0.0608572 1.89133e-08 -0.00599384)
(0.064116 2.10662e-08 -0.00579705)
(0.0672745 2.2334e-08 -0.00560174)
(0.0703328 2.26994e-08 -0.00540913)
(0.0732919 2.29297e-08 -0.00522016)
(0.0761532 2.30019e-08 -0.0050355)
(0.0789184 2.26154e-08 -0.00485563)
(0.0815896 2.17473e-08 -0.00468083)
(0.084169 2.00987e-08 -0.0045113)
(0.0866589 1.70548e-08 -0.00434714)
(0.0890617 1.31238e-08 -0.00418838)
(0.0913798 9.85901e-09 -0.00403498)
(0.0936158 8.15905e-09 -0.00388685)
(0.0957722 6.91406e-09 -0.00374383)
(0.0978515 3.85871e-09 -0.00360575)
(0.099856 -2.58318e-09 -0.00347241)
(0.101788 -1.19567e-08 -0.00334363)
(0.10365 -2.18117e-08 -0.00321925)
(0.105443 -2.92054e-08 -0.00309907)
(0.10717 -3.25634e-08 -0.00298293)
(0.108833 -3.26377e-08 -0.00287062)
(0.110434 -3.17258e-08 -0.00276194)
(0.111975 -3.20056e-08 -0.00265668)
(0.113458 -3.42557e-08 -0.00255467)
(0.114884 -3.75814e-08 -0.00245575)
(0.116254 -4.00941e-08 -0.00235982)
(0.117571 -3.99799e-08 -0.00226674)
(0.118836 -3.65381e-08 -0.00217642)
(0.12005 -3.04066e-08 -0.00208872)
(0.121215 -2.31252e-08 -0.0020035)
(0.122333 -1.60551e-08 -0.00192063)
(0.123403 -9.66088e-09 -0.00183998)
(0.124429 -3.42461e-09 -0.00176144)
(0.12541 3.54455e-09 -0.00168493)
(0.126349 1.1732e-08 -0.0016104)
(0.127244 2.08656e-08 -0.00153779)
(0.128099 2.99725e-08 -0.00146704)
(0.128914 3.78402e-08 -0.00139809)
(0.12969 4.34635e-08 -0.00133085)
(0.130427 4.64255e-08 -0.00126523)
(0.131128 4.69823e-08 -0.00120113)
(0.131792 4.56716e-08 -0.00113847)
(0.132421 4.29066e-08 -0.00107718)
(0.133015 3.87491e-08 -0.00101722)
(0.133575 3.30687e-08 -0.000958535)
(0.134101 2.5874e-08 -0.000901068)
(0.134594 1.754e-08 -0.000844769)
(0.135056 8.80615e-09 -0.000789574)
(0.135485 5.79654e-10 -0.000735418)
(0.135884 -6.30288e-09 -0.000682231)
(0.136253 -1.12904e-08 -0.000629949)
(0.136592 -1.42257e-08 -0.000578516)
(0.136902 -1.53241e-08 -0.00052788)
(0.137182 -1.49729e-08 -0.000477995)
(0.137434 -1.34938e-08 -0.000428815)
(0.137658 -1.10857e-08 -0.000380294)
(0.137854 -7.98187e-09 -0.000332387)
(0.138023 -4.83138e-09 -0.000285049)
(0.138165 -2.74787e-09 -0.000238234)
(0.138279 -2.96774e-09 -0.000191895)
(0.138368 -6.18866e-09 -0.000145982)
(0.13843 -1.20261e-08 -0.000100452)
(0.138466 -1.898e-08 -5.52766e-05)
(0.138477 -2.50183e-08 -1.04439e-05)
(0.138462 -2.83858e-08 3.40455e-05)
(0.138421 -2.80679e-08 7.81905e-05)
(0.138356 -2.40256e-08 0.000121969)
(0.138266 -1.72515e-08 0.000165335)
(0.138151 -9.72368e-09 0.000208232)
(0.138012 -4.16511e-09 0.000250595)
(0.137849 -3.41985e-09 0.000292369)
(0.137662 -9.33534e-09 0.000333532)
(0.137452 -2.15099e-08 0.000374107)
(0.137219 -3.67122e-08 0.000414161)
(0.136963 -4.96644e-08 0.000453765)
(0.136685 -5.50697e-08 0.000492949)
(0.136385 -5.00489e-08 0.000531654)
(0.136063 -3.57185e-08 0.000569728)
(0.13572 -1.70669e-08 0.000606972)
(0.135356 -1.20879e-09 0.000643229)
(0.134972 5.39676e-09 0.000678463)
(0.134568 -5.18733e-10 0.000712805)
(0.134144 -1.74628e-08 0.000746513)
(0.133701 -3.94467e-08 0.000779873)
(0.13324 -5.82326e-08 0.000813081)
(0.13276 -6.70511e-08 0.000846158)
(0.132261 -6.41385e-08 0.000878958)
(0.131745 -5.37886e-08 0.000911266)
(0.13121 -4.37089e-08 0.000942937)
(0.130657 -3.96504e-08 0.000974021)
(0.130086 -4.07583e-08 0.00100478)
(0.129497 -3.95114e-08 0.00103561)
(0.12889 -2.70884e-08 0.00106687)
(0.128265 -1.17263e-09 0.00109876)
(0.127621 2.9704e-08 0.00113123)
(0.126959 4.92713e-08 0.00116407)
(0.126279 4.32311e-08 0.00119708)
(0.125579 9.6323e-09 0.00123018)
(0.124859 -3.76478e-08 0.00126353)
(0.12412 -7.5682e-08 0.00129744)
(0.123361 -8.60681e-08 0.00133227)
(0.122581 -6.69463e-08 0.00136821)
(0.12178 -3.49599e-08 0.00140525)
(0.120959 -1.53051e-08 0.00144321)
(0.120116 -2.58378e-08 0.00148187)
(0.119251 -6.56157e-08 0.00152112)
(0.118363 -1.15258e-07 0.00156106)
(0.117453 -1.4884e-07 0.00160193)
(0.116519 -1.49335e-07 0.00164403)
(0.115561 -1.18114e-07 0.00168748)
(0.114579 -7.30321e-08 0.00173223)
(0.113572 -3.71376e-08 0.00177805)
(0.11254 -2.52419e-08 0.00182471)
(0.111481 -3.64885e-08 0.00187207)
(0.110395 -5.7196e-08 0.00192017)
(0.109282 -7.12618e-08 0.00196917)
(0.10814 -7.10352e-08 0.00201923)
(0.106969 -6.11726e-08 0.00207045)
(0.105769 -5.3819e-08 0.00212279)
(0.104539 -5.91434e-08 0.00217613)
(0.103279 -7.80596e-08 0.00223036)
(0.101988 -1.01643e-07 0.00228543)
(0.100666 -1.16985e-07 0.00234143)
(0.0993116 -1.15401e-07 0.0023985)
(0.0979248 -9.772e-08 0.0024568)
(0.0965051 -7.32948e-08 0.00251647)
(0.0950518 -5.37923e-08 0.00257759)
(0.0935644 -4.61816e-08 0.00264015)
(0.092042 -4.94654e-08 0.00270412)
(0.0904837 -5.68228e-08 0.0027695)
(0.0888884 -6.12316e-08 0.00283632)
(0.0872551 -6.00647e-08 0.00290471)
(0.0855827 -5.54674e-08 0.00297486)
(0.0838703 -5.17249e-08 0.00304698)
(0.0821168 -5.26958e-08 0.00312131)
(0.0803214 -5.98933e-08 0.00319805)
(0.0784828 -7.1138e-08 0.0032774)
(0.0766 -8.16783e-08 0.00335953)
(0.0746715 -8.75909e-08 0.00344463)
(0.0726958 -8.70255e-08 0.00353294)
(0.0706712 -7.87714e-08 0.00362475)
(0.068596 -6.19092e-08 0.00372039)
(0.0664682 -3.78876e-08 0.00382022)
(0.0642859 -1.31749e-08 0.00392459)
(0.0620468 2.38903e-09 0.00403384)
(0.0597488 5.31489e-09 0.00414828)
(0.0573896 1.76084e-09 0.0042682)
(0.0549672 -3.96522e-09 0.00439383)
(0.0524797 -1.21565e-08 0.00452537)
(0.0499254 -2.17316e-08 0.00466289)
(0.047303 -3.40727e-08 0.00480623)
(0.044612 -4.63929e-08 0.00495482)
(0.0418517 -4.79938e-08 0.00510737)
(0.0390228 -3.75848e-08 0.00526206)
(0.0361264 -2.2036e-08 0.00541482)
(0.0331533 -2.75404e-08 0.00555765)
(0.0300912 -7.80802e-08 0.0056856)
(0.0271019 -6.72881e-08 0.00574656)
(0.0242348 -6.472e-08 0.00549998)
(0.0212646 -1.20346e-07 0.00535522)
(0.0179556 3.37351e-08 0.0053554)
(0.0148787 2.8936e-07 0.00528545)
(0.0118632 6.45788e-07 0.00511323)
(0.00885332 1.2739e-06 0.00488543)
(0.00607732 1.55412e-06 0.00443242)
(0.00354622 -2.02087e-06 0.0039259)
(0.00126142 -2.69885e-07 0.0032922)
(-0.000635953 2.70378e-06 0.00254776)
(-0.00210974 5.16546e-06 0.00165597)
(-0.00310896 3.95889e-06 0.000570776)
(-0.00359884 2.63174e-06 -0.000697204)
(-0.00351617 1.61018e-06 -0.00206701)
(-0.00284866 8.12926e-07 -0.00333901)
(-0.00149135 9.92891e-08 -0.00428282)
(-0.00246385 2.33354e-08 0.00547107)
(-0.00501719 4.06061e-07 0.00568927)
(-0.00723249 3.44771e-07 0.00492676)
(-0.00863448 2.74972e-07 0.00361726)
(-0.0092229 2.3741e-07 0.00211059)
(-0.00895652 1.81397e-07 0.000529637)
(-0.00786575 1.3798e-07 -0.00103861)
(-0.00627816 1.19413e-07 -0.00241651)
(-0.00419125 7.99767e-08 -0.00359644)
(-0.00147561 1.68383e-08 -0.00480721)
(0.00147045 -1.64309e-08 -0.00576588)
(0.00468074 -2.24064e-08 -0.00641177)
(0.00817627 -1.40873e-08 -0.00686103)
(0.0118681 -6.04687e-09 -0.00715366)
(0.0156976 -7.93926e-09 -0.00733115)
(0.0196147 -1.36007e-08 -0.00742216)
(0.0235772 -1.55711e-08 -0.00744416)
(0.0275524 -1.13283e-08 -0.0074116)
(0.0315136 -1.8715e-09 -0.00733565)
(0.0354393 1.002e-08 -0.00722546)
(0.0393121 2.20238e-08 -0.00708859)
(0.0431183 3.00416e-08 -0.00693134)
(0.046847 3.02471e-08 -0.00675896)
(0.0504903 2.47342e-08 -0.00657578)
(0.0540423 1.94193e-08 -0.00638537)
(0.0574989 1.76318e-08 -0.0061906)
(0.0608573 1.89128e-08 -0.00599384)
(0.0641161 2.10657e-08 -0.00579702)
(0.0672746 2.23334e-08 -0.00560169)
(0.0703329 2.26988e-08 -0.00540907)
(0.073292 2.29291e-08 -0.0052201)
(0.0761532 2.30014e-08 -0.00503543)
(0.0789185 2.26149e-08 -0.00485553)
(0.0815897 2.17469e-08 -0.00468071)
(0.0841692 2.00983e-08 -0.00451116)
(0.0866591 1.70545e-08 -0.00434698)
(0.0890618 1.31235e-08 -0.00418821)
(0.0913799 9.85883e-09 -0.00403482)
(0.0936159 8.1589e-09 -0.00388668)
(0.0957724 6.91394e-09 -0.00374366)
(0.0978517 3.85865e-09 -0.00360557)
(0.0998563 -2.58314e-09 -0.00347223)
(0.101788 -1.19565e-08 -0.00334347)
(0.10365 -2.18114e-08 -0.00321911)
(0.105443 -2.9205e-08 -0.00309898)
(0.10717 -3.2563e-08 -0.00298287)
(0.108833 -3.26372e-08 -0.00287059)
(0.110434 -3.17254e-08 -0.00276191)
(0.111975 -3.20052e-08 -0.00265666)
(0.113458 -3.42553e-08 -0.00255466)
(0.114884 -3.75809e-08 -0.00245577)
(0.116254 -4.00937e-08 -0.00235987)
(0.117571 -3.99795e-08 -0.00226683)
(0.118836 -3.65378e-08 -0.00217655)
(0.12005 -3.04063e-08 -0.00208887)
(0.121215 -2.3125e-08 -0.00200366)
(0.122332 -1.6055e-08 -0.00192078)
(0.123403 -9.66079e-09 -0.00184011)
(0.124429 -3.42458e-09 -0.00176156)
(0.12541 3.54452e-09 -0.00168505)
(0.126348 1.17319e-08 -0.00161053)
(0.127244 2.08654e-08 -0.00153794)
(0.128099 2.99723e-08 -0.00146722)
(0.128914 3.78399e-08 -0.00139829)
(0.12969 4.34632e-08 -0.00133106)
(0.130428 4.64252e-08 -0.00126544)
(0.131128 4.6982e-08 -0.00120134)
(0.131793 4.56713e-08 -0.00113868)
(0.132421 4.29064e-08 -0.00107741)
(0.133015 3.87489e-08 -0.00101746)
(0.133575 3.30685e-08 -0.000958785)
(0.134101 2.58738e-08 -0.000901328)
(0.134594 1.75398e-08 -0.00084503)
(0.135056 8.80609e-09 -0.000789826)
(0.135486 5.7965e-10 -0.000735648)
(0.135885 -6.30284e-09 -0.000682431)
(0.136254 -1.12903e-08 -0.000630112)
(0.136592 -1.42257e-08 -0.000578637)
(0.136902 -1.5324e-08 -0.000527958)
(0.137182 -1.49728e-08 -0.00047803)
(0.137434 -1.34937e-08 -0.000428808)
(0.137658 -1.10857e-08 -0.000380252)
(0.137854 -7.98183e-09 -0.000332319)
(0.138023 -4.83136e-09 -0.000284966)
(0.138164 -2.74786e-09 -0.000238147)
(0.138279 -2.96772e-09 -0.000191809)
(0.138368 -6.18863e-09 -0.000145903)
(0.13843 -1.2026e-08 -0.000100384)
(0.138466 -1.89799e-08 -5.52212e-05)
(0.138477 -2.50182e-08 -1.04076e-05)
(0.138462 -2.83857e-08 3.40557e-05)
(0.138421 -2.80678e-08 7.81677e-05)
(0.138356 -2.40255e-08 0.000121909)
(0.138266 -1.72515e-08 0.000165241)
(0.138151 -9.72364e-09 0.000208115)
(0.138012 -4.1651e-09 0.000250481)
(0.137849 -3.41983e-09 0.000292295)
(0.137663 -9.3353e-09 0.000333538)
(0.137452 -2.15098e-08 0.00037422)
(0.137219 -3.67121e-08 0.000414377)
(0.136963 -4.96642e-08 0.000454038)
(0.136685 -5.50695e-08 0.000493193)
(0.136384 -5.00488e-08 0.000531773)
(0.136062 -3.57184e-08 0.000569651)
(0.135719 -1.70668e-08 0.000606694)
(0.135356 -1.20879e-09 0.000642827)
(0.134972 5.39674e-09 0.00067808)
(0.134568 -5.18731e-10 0.000712597)
(0.134145 -1.74628e-08 0.000746585)
(0.133702 -3.94466e-08 0.000780222)
(0.13324 -5.82324e-08 0.00081358)
(0.13276 -6.70509e-08 0.000846603)
(0.132262 -6.41384e-08 0.00087915)
(0.131745 -5.37884e-08 0.000911105)
(0.13121 -4.37088e-08 0.000942482)
(0.130657 -3.96503e-08 0.000973468)
(0.130086 -4.07582e-08 0.00100438)
(0.129497 -3.95114e-08 0.00103554)
(0.128891 -2.70884e-08 0.00106716)
(0.128265 -1.17263e-09 0.00109926)
(0.127622 2.9704e-08 0.0011317)
(0.12696 4.92712e-08 0.0011643)
(0.126278 4.3231e-08 0.00119696)
(0.125578 9.63228e-09 0.00122979)
(0.124859 -3.76477e-08 0.00126306)
(0.12412 -7.56819e-08 0.00129711)
(0.123361 -8.6068e-08 0.0013322)
(0.122581 -6.69462e-08 0.00136838)
(0.121781 -3.49598e-08 0.00140553)
(0.120959 -1.5305e-08 0.00144342)
(0.120116 -2.58377e-08 0.00148187)
(0.119251 -6.56156e-08 0.0015209)
(0.118363 -1.15258e-07 0.00156072)
(0.117453 -1.4884e-07 0.00160166)
(0.116519 -1.49335e-07 0.00164396)
(0.115562 -1.18114e-07 0.00168766)
(0.11458 -7.30321e-08 0.00173257)
(0.113573 -3.71376e-08 0.00177841)
(0.11254 -2.52419e-08 0.00182495)
(0.111481 -3.64885e-08 0.00187214)
(0.110395 -5.7196e-08 0.00192012)
(0.109282 -7.12618e-08 0.0019691)
(0.10814 -7.10352e-08 0.00201926)
(0.106969 -6.11726e-08 0.00207061)
(0.105769 -5.3819e-08 0.00212302)
(0.104539 -5.91434e-08 0.00217633)
(0.103279 -7.80596e-08 0.00223044)
(0.101988 -1.01643e-07 0.00228536)
(0.100666 -1.16985e-07 0.00234125)
(0.0993113 -1.15401e-07 0.00239829)
(0.0979246 -9.77202e-08 0.00245668)
(0.096505 -7.32949e-08 0.00251649)
(0.0950519 -5.37924e-08 0.00257773)
(0.0935646 -4.61817e-08 0.00264037)
(0.0920423 -4.94654e-08 0.00270434)
(0.0904839 -5.68229e-08 0.00276966)
(0.0888886 -6.12317e-08 0.0028364)
(0.0872551 -6.00648e-08 0.00290472)
(0.0855826 -5.54675e-08 0.00297484)
(0.0838702 -5.1725e-08 0.00304698)
(0.0821168 -5.26959e-08 0.00312135)
(0.0803214 -5.98934e-08 0.00319814)
(0.078483 -7.11381e-08 0.00327751)
(0.0766002 -8.16784e-08 0.00335965)
(0.0746717 -8.75911e-08 0.00344474)
(0.072696 -8.70257e-08 0.00353303)
(0.0706714 -7.87716e-08 0.00362482)
(0.0685962 -6.19094e-08 0.00372046)
(0.0664684 -3.78877e-08 0.0038203)
(0.0642861 -1.31749e-08 0.00392468)
(0.062047 2.38904e-09 0.00403392)
(0.059749 5.31489e-09 0.0041483)
(0.0573898 1.76084e-09 0.00426815)
(0.0549673 -3.96523e-09 0.00439373)
(0.0524798 -1.21565e-08 0.00452522)
(0.0499256 -2.17317e-08 0.00466274)
(0.0473034 -3.40728e-08 0.00480611)
(0.0446125 -4.6393e-08 0.00495476)
(0.0418524 -4.7994e-08 0.00510734)
(0.0390237 -3.75851e-08 0.00526203)
(0.0361274 -2.20365e-08 0.00541478)
(0.0331544 -2.75426e-08 0.00555753)
(0.0300924 -7.80999e-08 0.00568534)
(0.0271027 -6.72974e-08 0.0057465)
(0.0242357 -6.46496e-08 0.00550043)
(0.0212662 -1.20164e-07 0.00535419)
(0.017958 3.37213e-08 0.00535357)
(0.0148818 2.89544e-07 0.00528352)
(0.0118686 6.46872e-07 0.00511167)
(0.00886349 1.27884e-06 0.00488506)
(0.00609027 1.56523e-06 0.00443029)
(0.00358474 -2.04521e-06 0.0039256)
(0.00127393 -2.74267e-07 0.00331167)
(-0.000657396 2.74289e-06 0.00255487)
(-0.00212205 5.20851e-06 0.00165561)
(-0.00311926 3.97466e-06 0.00057041)
(-0.00360463 2.63618e-06 -0.000697163)
(-0.00351864 1.61123e-06 -0.00206666)
(-0.00284941 8.13125e-07 -0.00333858)
(-0.00149165 9.9296e-08 -0.0042832)
(-0.00193893 1.77039e-07 0.00954144)
(-0.00388943 3.30576e-07 0.00831595)
(-0.00505383 2.77025e-07 0.00645084)
(-0.00542431 1.97502e-07 0.0042245)
(-0.00506029 1.54133e-07 0.00184789)
(-0.00405278 1.17237e-07 -0.000526825)
(-0.00250997 8.55567e-08 -0.00278081)
(-0.000552343 7.60487e-08 -0.0047844)
(0.0017995 3.20109e-08 -0.0064761)
(0.00446778 -2.68607e-08 -0.00794485)
(0.00733428 -4.1772e-08 -0.00914863)
(0.0104135 -2.78387e-08 -0.0100582)
(0.0136962 -1.73673e-08 -0.0107275)
(0.0171395 -1.58446e-08 -0.0111953)
(0.0207063 -1.57924e-08 -0.0114992)
(0.0243587 -1.33044e-08 -0.0116709)
(0.0280629 -9.2621e-09 -0.0117353)
(0.0317902 -4.79147e-09 -0.0117129)
(0.0355166 3.03552e-10 -0.0116208)
(0.0392219 6.74826e-09 -0.0114727)
(0.0428893 1.38297e-08 -0.0112805)