/*--------------------------------*- C++ -*----------------------------------*\
  =========                 |
  \\      /  F ield         | OpenFOAM: The Open Source CFD Toolbox
   \\    /   O peration     | Website:  https://openfoam.org
    \\  /    A nd           | Version:  8
     \\/     M anipulation  |
\*---------------------------------------------------------------------------*/
FoamFile
{
    version     2.0;
    format      ascii;
    class       volScalarField;
    location    "2700";
    object      alphat;
}
// * * * * * * * * * * * * * * * * * * * * * * * * * * * * * * * * * * * * * //

dimensions      [1 -1 -1 0 0 0 0];

internalField   nonuniform List<scalar> 
48000
(
3.80883e-05
7.59172e-05
9.57968e-05
0.00010962
0.000121071
0.000130689
0.00013901
0.000146469
0.000153358
0.000159664
0.00016553
0.000171021
0.000176187
0.000181068
0.000185694
0.000190091
0.000194277
0.000198269
0.00020208
0.000205721
0.0002092
0.000212527
0.000215707
0.000218747
0.000221651
0.000224426
0.000227075
0.000229602
0.000232012
0.000234308
0.000236493
0.00023857
0.000240544
0.000242416
0.000244191
0.00024587
0.000247458
0.000248957
0.000250369
0.000251698
0.000252946
0.000254116
0.00025521
0.000256231
0.000257181
0.000258071
0.000258901
0.000259667
0.000260372
0.000261018
0.000261606
0.00026214
0.000262621
0.000263052
0.000263435
0.000263771
0.000264062
0.000264311
0.000264518
0.000264686
0.000264816
0.00026491
0.000264969
0.000264995
0.000264989
0.000264951
0.000264885
0.000264789
0.000264666
0.000264518
0.000264343
0.000264145
0.000263923
0.000263678
0.000263412
0.000263125
0.000262817
0.00026249
0.000262144
0.000261779
0.000261397
0.000260998
0.000260582
0.00026015
0.000259702
0.000259238
0.00025876
0.000258266
0.000257759
0.000257237
0.000256702
0.000256153
0.000255591
0.000255015
0.000254427
0.000253826
0.000253212
0.000252585
0.000251946
0.000251294
0.00025063
0.000249954
0.000249265
0.000248564
0.00024785
0.000247124
0.000246385
0.000245634
0.00024487
0.000244093
0.000243303
0.000242501
0.000241685
0.000240855
0.000240012
0.000239155
0.000238285
0.0002374
0.0002365
0.000235587
0.000234658
0.000233714
0.000232755
0.00023178
0.00023079
0.000229783
0.00022876
0.00022772
0.000226664
0.000225589
0.000224498
0.000223388
0.00022226
0.000221114
0.000219949
0.000218765
0.000217561
0.000216338
0.000215094
0.00021383
0.000212545
0.00021124
0.000209913
0.000208564
0.000207193
0.000205801
0.000204385
0.000202947
0.000201485
0.0002
0.000198491
0.000196958
0.0001954
0.000193818
0.00019221
0.000190577
0.000188918
0.000187232
0.00018552
0.000183781
0.000182015
0.00018022
0.000178398
0.000176546
0.000174664
0.000172752
0.000170809
0.000168835
0.000166828
0.000164787
0.000162711
0.000160599
0.00015845
0.000156262
0.000154033
0.00015176
0.000149443
0.000147077
0.00014466
0.000142187
0.000139656
0.000137064
0.000134408
0.0001317
0.000128909
0.000126016
0.000123009
0.00011987
0.000116576
0.000113099
0.0001094
0.000105429
0.000101142
9.64631e-05
9.12152e-05
8.51611e-05
7.79022e-05
6.87718e-05
5.57945e-05
0.000120783
3.80859e-05
7.59266e-05
9.57973e-05
0.000109621
0.000121071
0.000130689
0.00013901
0.00014647
0.000153358
0.000159664
0.00016553
0.000171021
0.000176187
0.000181068
0.000185695
0.000190091
0.000194278
0.00019827
0.00020208
0.000205721
0.000209201
0.000212527
0.000215707
0.000218747
0.000221651
0.000224426
0.000227075
0.000229603
0.000232012
0.000234308
0.000236493
0.00023857
0.000240544
0.000242416
0.000244191
0.000245871
0.000247458
0.000248957
0.000250369
0.000251698
0.000252946
0.000254116
0.00025521
0.000256231
0.000257181
0.000258071
0.0002589
0.000259667
0.000260372
0.000261018
0.000261606
0.00026214
0.000262621
0.000263052
0.000263435
0.000263771
0.000264062
0.000264311
0.000264518
0.000264686
0.000264816
0.00026491
0.000264969
0.000264995
0.000264989
0.000264951
0.000264884
0.000264789
0.000264666
0.000264517
0.000264343
0.000264145
0.000263923
0.000263678
0.000263412
0.000263124
0.000262817
0.00026249
0.000262144
0.000261779
0.000261397
0.000260998
0.000260582
0.00026015
0.000259702
0.000259238
0.00025876
0.000258266
0.000257759
0.000257237
0.000256702
0.000256153
0.000255591
0.000255015
0.000254427
0.000253826
0.000253212
0.000252585
0.000251946
0.000251294
0.00025063
0.000249954
0.000249265
0.000248564
0.00024785
0.000247124
0.000246385
0.000245634
0.00024487
0.000244093
0.000243303
0.000242501
0.000241684
0.000240855
0.000240012
0.000239155
0.000238285
0.0002374
0.0002365
0.000235587
0.000234658
0.000233714
0.000232755
0.00023178
0.00023079
0.000229783
0.00022876
0.00022772
0.000226664
0.000225589
0.000224498
0.000223388
0.00022226
0.000221114
0.000219949
0.000218765
0.000217561
0.000216338
0.000215094
0.00021383
0.000212545
0.00021124
0.000209913
0.000208564
0.000207193
0.000205801
0.000204385
0.000202947
0.000201485
0.0002
0.000198491
0.000196958
0.0001954
0.000193818
0.00019221
0.000190577
0.000188918
0.000187232
0.00018552
0.000183781
0.000182015
0.00018022
0.000178398
0.000176546
0.000174664
0.000172752
0.000170809
0.000168835
0.000166828
0.000164787
0.000162711
0.000160599
0.00015845
0.000156262
0.000154033
0.00015176
0.000149443
0.000147077
0.00014466
0.000142187
0.000139656
0.000137064
0.000134408
0.0001317
0.000128909
0.000126016
0.000123009
0.00011987
0.000116576
0.000113099
0.0001094
0.000105429
0.000101142
9.64634e-05
9.12158e-05
8.51617e-05
7.78981e-05
6.87482e-05
5.57981e-05
0.000120751
6.59363e-05
0.000494309
0.00078639
0.00098968
0.00114137
0.00126581
0.00137241
0.001466
0.00154937
0.00162504
0.00169435
0.00175836
0.00181784
0.00187339
0.00192549
0.00197452
0.00202078
0.00206453
0.00210599
0.00214533
0.0021827
0.00221825
0.00225207
0.00228428
0.00231497
0.0023442
0.00237205
0.00239859
0.00242387
0.00244795
0.00247088
0.00249269
0.00251344
0.00253316
0.0025519
0.00256968
0.00258654
0.00260251
0.00261763
0.00263192
0.00264541
0.00265813
0.0026701
0.00268132
0.0026918
0.00270142
0.00271032
0.00271857
0.00272624
0.00273334
0.00273992
0.00274598
0.00275155
0.00275665
0.00276129
0.0027655
0.00276927
0.00277264
0.00277562
0.00277822
0.00278045
0.00278232
0.00278386
0.00278506
0.00278595
0.00278653
0.00278682
0.00278681
0.00278653
0.00278599
0.00278518
0.00278412
0.00278282
0.00278129
0.00277952
0.00277753
0.00277533
0.00277292
0.00277031
0.00276749
0.00276449
0.00276129
0.00275791
0.00275436
0.00275062
0.00274672
0.00274264
0.0027384
0.002734
0.00272943
0.00272471
0.00271983
0.0027148
0.00270962
0.00270428
0.0026988
0.00269317
0.00268739
0.00268146
0.00267539
0.00266917
0.00266281
0.0026563
0.00264965
0.00264284
0.0026359
0.0026288
0.00262156
0.00261417
0.00260662
0.00259893
0.00259108
0.00258308
0.00257492
0.00256661
0.00255813
0.00254949
0.00254069
0.00253172
0.00252259
0.00251328
0.0025038
0.00249414
0.00248431
0.00247429
0.00246409
0.00245371
0.00244313
0.00243236
0.0024214
0.00241023
0.00239887
0.0023873
0.00237552
0.00236353
0.00235132
0.0023389
0.00232626
0.0023134
0.0023003
0.00228698
0.00227342
0.00225963
0.00224559
0.00223132
0.00221679
0.00220202
0.00218699
0.00217171
0.00215616
0.00214035
0.00212428
0.00210793
0.00209131
0.00207441
0.00205722
0.00203975
0.00202199
0.00200392
0.00198556
0.00196689
0.0019479
0.00192859
0.00190896
0.00188899
0.00186867
0.001848
0.00182696
0.00180555
0.00178375
0.00176154
0.0017389
0.00171583
0.00169229
0.00166826
0.00164371
0.00161861
0.00159291
0.00156658
0.00153955
0.00151174
0.00148305
0.00145334
0.00142242
0.00139027
0.00135679
0.00132182
0.00128513
0.00124639
0.0012052
0.00116092
0.00111258
0.00105832
0.000996614
0.000925146
0.000839563
0.000731955
0.000586569
0.000365575
4.55546e-05
6.59454e-05
0.000494337
0.000786416
0.000989707
0.0011414
0.00126584
0.00137243
0.00146603
0.00154939
0.00162506
0.00169438
0.00175838
0.00181786
0.00187341
0.00192551
0.00197454
0.0020208
0.00206455
0.00210601
0.00214535
0.00218272
0.00221827
0.00225209
0.0022843
0.00231498
0.00234421
0.00237207
0.00239861
0.00242389
0.00244797
0.00247089
0.00249271
0.00251345
0.00253318
0.00255191
0.00256969
0.00258655
0.00260252
0.00261764
0.00263193
0.00264542
0.00265814
0.00267011
0.00268133
0.00269181
0.00270143
0.00271033
0.00271858
0.00272625
0.00273335
0.00273993
0.00274599
0.00275156
0.00275666
0.0027613
0.0027655
0.00276928
0.00277265
0.00277563
0.00277822
0.00278045
0.00278233
0.00278387
0.00278507
0.00278596
0.00278654
0.00278682
0.00278682
0.00278654
0.00278599
0.00278519
0.00278413
0.00278283
0.00278129
0.00277953
0.00277754
0.00277534
0.00277293
0.00277031
0.0027675
0.0027645
0.0027613
0.00275792
0.00275436
0.00275063
0.00274672
0.00274265
0.00273841
0.002734
0.00272944
0.00272472
0.00271984
0.00271481
0.00270962
0.00270429
0.00269881
0.00269317
0.00268739
0.00268147
0.0026754
0.00266918
0.00266282
0.00265631
0.00264965
0.00264285
0.0026359
0.00262881
0.00262157
0.00261417
0.00260663
0.00259894
0.00259109
0.00258309
0.00257493
0.00256661
0.00255814
0.0025495
0.0025407
0.00253173
0.00252259
0.00251329
0.00250381
0.00249415
0.00248432
0.0024743
0.0024641
0.00245371
0.00244314
0.00243237
0.0024214
0.00241024
0.00239887
0.0023873
0.00237552
0.00236353
0.00235133
0.00233891
0.00232627
0.0023134
0.00230031
0.00228699
0.00227343
0.00225963
0.0022456
0.00223132
0.0022168
0.00220203
0.002187
0.00217171
0.00215617
0.00214036
0.00212428
0.00210794
0.00209131
0.00207441
0.00205723
0.00203976
0.00202199
0.00200393
0.00198556
0.00196689
0.00194791
0.0019286
0.00190896
0.00188899
0.00186868
0.001848
0.00182697
0.00180555
0.00178375
0.00176154
0.00173891
0.00171583
0.00169229
0.00166826
0.00164372
0.00161861
0.00159292
0.00156659
0.00153955
0.00151174
0.00148305
0.00145335
0.00142243
0.00139027
0.0013568
0.00132183
0.00128513
0.0012464
0.0012052
0.00116092
0.00111258
0.00105832
0.000996618
0.000925145
0.000839542
0.000731855
0.000586293
0.000365557
4.55407e-05
8.22626e-05
0.000750396
0.00133495
0.00177096
0.00211519
0.00240105
0.00264679
0.00286282
0.00305571
0.00323012
0.00338928
0.00353558
0.00367083
0.00379646
0.00391362
0.00402325
0.0041261
0.00422285
0.00431403
0.00440012
0.00448154
0.00455863
0.00463172
0.00470109
0.00476697
0.00482959
0.00488914
0.00494579
0.00499972
0.00505105
0.00509993
0.00514647
0.00519077
0.00523295
0.00527309
0.00531128
0.0053476
0.00538212
0.00541492
0.00544605
0.00547558
0.00550357
0.00553004
0.00555505
0.00557859
0.00560064
0.0056213
0.00564068
0.00565886
0.0056759
0.00569185
0.00570677
0.00572068
0.00573364
0.00574567
0.0057568
0.00576707
0.00577651
0.00578514
0.005793
0.0058001
0.00580647
0.00581214
0.00581713
0.00582146
0.00582515
0.00582822
0.00583069
0.00583258
0.00583391
0.00583468
0.00583492
0.00583465
0.00583387
0.0058326
0.00583085
0.00582864
0.00582597
0.00582286
0.00581932
0.00581536
0.00581098
0.00580619
0.00580101
0.00579544
0.00578948
0.00578315
0.00577645
0.00576938
0.00576196
0.00575418
0.00574604
0.00573756
0.00572874
0.00571957
0.00571006
0.00570022
0.00569005
0.00567954
0.00566869
0.00565752
0.00564601
0.00563417
0.005622
0.0056095
0.00559666
0.00558349
0.00556998
0.00555613
0.00554193
0.0055274
0.00551251
0.00549728
0.00548169
0.00546574
0.00544943
0.00543276
0.00541572
0.0053983
0.0053805
0.00536231
0.00534374
0.00532477
0.0053054
0.00528562
0.00526542
0.00524481
0.00522378
0.00520231
0.0051804
0.00515805
0.00513524
0.00511198
0.00508825
0.00506405
0.00503936
0.00501419
0.00498853
0.00496236
0.00493568
0.00490849
0.00488077
0.00485251
0.00482371
0.00479437
0.00476446
0.00473399
0.00470294
0.0046713
0.00463907
0.00460624
0.00457279
0.00453871
0.004504
0.00446864
0.00443261
0.00439592
0.00435853
0.00432044
0.00428163
0.00424208
0.00420178
0.0041607
0.00411883
0.00407613
0.00403258
0.00398815
0.0039428
0.00389651
0.00384924
0.00380092
0.00375153
0.00370099
0.00364924
0.00359621
0.00354181
0.00348595
0.0034285
0.00336933
0.00330829
0.00324516
0.0031797
0.00311162
0.00304058
0.00296626
0.00288827
0.00280602
0.00271879
0.00262565
0.00252534
0.00241614
0.00229561
0.00216027
0.0020053
0.00182491
0.00160918
0.0013424
0.000999947
0.000548911
6.0831e-05
8.2263e-05
0.000750418
0.00133499
0.00177101
0.00211524
0.00240111
0.00264685
0.00286288
0.00305577
0.00323018
0.00338934
0.00353563
0.00367088
0.00379651
0.00391367
0.00402329
0.00412615
0.00422289
0.00431407
0.00440016
0.00448157
0.00455867
0.00463176
0.00470112
0.004767
0.00482961
0.00488916
0.00494582
0.00499974
0.00505107
0.00509995
0.00514649
0.00519079
0.00523297
0.00527311
0.0053113
0.00534761
0.00538214
0.00541493
0.00544606
0.0054756
0.00550358
0.00553006
0.00555506
0.0055786
0.00560064
0.00562131
0.00564069
0.00565886
0.0056759
0.00569186
0.00570677
0.00572069
0.00573365
0.00574567
0.00575681
0.00576708
0.00577652
0.00578515
0.005793
0.0058001
0.00580648
0.00581215
0.00581714
0.00582147
0.00582516
0.00582823
0.0058307
0.00583259
0.00583391
0.00583468
0.00583493
0.00583465
0.00583387
0.0058326
0.00583086
0.00582864
0.00582598
0.00582287
0.00581932
0.00581536
0.00581098
0.0058062
0.00580101
0.00579544
0.00578949
0.00578316
0.00577645
0.00576939
0.00576196
0.00575418
0.00574604
0.00573756
0.00572874
0.00571957
0.00571007
0.00570022
0.00569005
0.00567954
0.00566869
0.00565752
0.00564601
0.00563417
0.005622
0.0056095
0.00559666
0.00558349
0.00556998
0.00555613
0.00554193
0.0055274
0.00551251
0.00549728
0.00548169
0.00546574
0.00544943
0.00543276
0.00541572
0.0053983
0.0053805
0.00536231
0.00534374
0.00532477
0.0053054
0.00528562
0.00526542
0.00524481
0.00522378
0.00520231
0.0051804
0.00515805
0.00513524
0.00511198
0.00508825
0.00506405
0.00503936
0.00501419
0.00498853
0.00496236
0.00493568
0.00490849
0.00488076
0.00485251
0.00482371
0.00479437
0.00476446
0.00473399
0.00470294
0.0046713
0.00463907
0.00460624
0.00457279
0.00453871
0.004504
0.00446864
0.00443261
0.00439592
0.00435853
0.00432044
0.00428163
0.00424208
0.00420178
0.0041607
0.00411883
0.00407613
0.00403258
0.00398815
0.0039428
0.00389651
0.00384924
0.00380092
0.00375153
0.00370099
0.00364924
0.00359621
0.00354181
0.00348595
0.0034285
0.00336933
0.00330829
0.00324516
0.0031797
0.00311162
0.00304058
0.00296626
0.00288827
0.00280602
0.00271879
0.00262565
0.00252534
0.00241614
0.00229561
0.00216027
0.0020053
0.00182491
0.00160918
0.0013424
0.000999945
0.00054907
6.08419e-05
9.33988e-05
0.000903632
0.00169899
0.00233004
0.00284563
0.00328118
0.00365884
0.00399268
0.00429202
0.00456339
0.0048115
0.00503984
0.00525113
0.00544747
0.00563059
0.00580189
0.00596256
0.00611358
0.00625582
0.00639001
0.0065168
0.00663677
0.0067504
0.00685816
0.00696044
0.0070576
0.00714997
0.00723783
0.00732144
0.00740106
0.00747689
0.00754913
0.00761797
0.00768357
0.00774608
0.00780566
0.00786241
0.00791648
0.00796797
0.00801697
0.0080636
0.00810792
0.00815003
0.00818997
0.00822779
0.00826354
0.00829731
0.00832921
0.00835933
0.00838777
0.00841459
0.00843986
0.00846364
0.00848599
0.00850696
0.0085266
0.00854495
0.00856206
0.00857797
0.00859272
0.00860635
0.00861889
0.00863038
0.00864084
0.00865032
0.00865884
0.00866642
0.00867311
0.00867891
0.00868386
0.00868798
0.00869129
0.00869381
0.00869557
0.00869658
0.00869686
0.00869643
0.0086953
0.00869349
0.00869101
0.00868788
0.00868411
0.00867972
0.0086747
0.00866909
0.00866287
0.00865607
0.00864869
0.00864074
0.00863223
0.00862316
0.00861355
0.00860338
0.00859268
0.00858143
0.00856966
0.00855736
0.00854452
0.00853117
0.00851728
0.00850288
0.00848795
0.00847249
0.00845651
0.00844001
0.00842298
0.00840542
0.00838732
0.0083687
0.00834953
0.00832981
0.00830956
0.00828874
0.00826737
0.00824544
0.00822294
0.00819986
0.00817619
0.00815194
0.00812709
0.00810163
0.00807556
0.00804887
0.00802155
0.00799359
0.00796497
0.0079357
0.00790576
0.00787515
0.00784384
0.00781183
0.00777911
0.00774567
0.0077115
0.00767658
0.00764091
0.00760446
0.00756724
0.00752922
0.0074904
0.00745076
0.00741028
0.00736896
0.00732678
0.00728372
0.00723977
0.00719491
0.00714914
0.00710242
0.00705475
0.0070061
0.00695646
0.00690581
0.00685412
0.00680138
0.00674756
0.00669263
0.00663657
0.00657934
0.00652093
0.00646129
0.00640039
0.00633819
0.00627465
0.00620972
0.00614335
0.00607548
0.00600606
0.00593501
0.00586225
0.00578771
0.00571129
0.00563288
0.00555235
0.00546958
0.0053844
0.00529663
0.00520606
0.00511244
0.00501548
0.00491484
0.0048101
0.00470078
0.00458631
0.00446604
0.00433918
0.00420469
0.00406131
0.00390736
0.0037407
0.0035585
0.00335706
0.0031313
0.00287441
0.00257772
0.00222869
0.00180951
0.00129644
0.000668866
6.88094e-05
9.33992e-05
0.000903654
0.00169904
0.0023301
0.0028457
0.00328126
0.00365893
0.00399276
0.00429211
0.00456348
0.00481158
0.00503992
0.0052512
0.00544754
0.00563066
0.00580196
0.00596262
0.00611364
0.00625588
0.00639007
0.00651686
0.00663682
0.00675045
0.00685821
0.00696049
0.00705764
0.00715001
0.00723786
0.00732148
0.00740109
0.00747692
0.00754916
0.00761799
0.00768359
0.00774611
0.00780568
0.00786243
0.0079165
0.00796798
0.00801699
0.00806361
0.00810794
0.00815004
0.00818998
0.0082278
0.00826355
0.00829732
0.00832922
0.00835934
0.00838778
0.00841459
0.00843986
0.00846364
0.00848599
0.00850696
0.0085266
0.00854495
0.00856206
0.00857797
0.00859272
0.00860635
0.00861889
0.00863038
0.00864084
0.00865032
0.00865884
0.00866642
0.00867311
0.00867891
0.00868386
0.00868798
0.00869129
0.00869381
0.00869557
0.00869658
0.00869686
0.00869643
0.0086953
0.00869349
0.00869101
0.00868788
0.00868411
0.00867971
0.0086747
0.00866908
0.00866287
0.00865607
0.00864869
0.00864074
0.00863223
0.00862316
0.00861354
0.00860338
0.00859267
0.00858143
0.00856966
0.00855735
0.00854452
0.00853116
0.00851728
0.00850287
0.00848794
0.00847249
0.00845651
0.00844001
0.00842298
0.00840541
0.00838732
0.00836869
0.00834952
0.00832981
0.00830955
0.00828874
0.00826737
0.00824543
0.00822293
0.00819985
0.00817619
0.00815193
0.00812708
0.00810163
0.00807556
0.00804887
0.00802154
0.00799358
0.00796497
0.0079357
0.00790576
0.00787514
0.00784383
0.00781182
0.00777911
0.00774567
0.00771149
0.00767657
0.0076409
0.00760446
0.00756723
0.00752922
0.00749039
0.00745075
0.00741027
0.00736895
0.00732677
0.00728371
0.00723976
0.00719491
0.00714913
0.00710241
0.00705474
0.0070061
0.00695646
0.0069058
0.00685412
0.00680137
0.00674755
0.00669262
0.00663656
0.00657934
0.00652092
0.00646128
0.00640039
0.00633819
0.00627464
0.00620971
0.00614334
0.00607548
0.00600605
0.005935
0.00586225
0.00578771
0.00571128
0.00563287
0.00555235
0.00546957
0.00538439
0.00529662
0.00520605
0.00511243
0.00501547
0.00491483
0.00481009
0.00470077
0.0045863
0.00446604
0.00433917
0.00420469
0.0040613
0.00390735
0.0037407
0.0035585
0.00335706
0.0031313
0.0028744
0.00257773
0.0022287
0.00180951
0.00129644
0.000668907
6.8812e-05
0.000102319
0.00100865
0.00195876
0.00274494
0.00340251
0.00396578
0.00445852
0.00489681
0.00529176
0.00565128
0.00598112
0.00628564
0.00656819
0.00683142
0.00707746
0.00730807
0.00752474
0.00772871
0.00792107
0.00810274
0.00827457
0.00843728
0.00859151
0.00873786
0.00887685
0.00900895
0.0091346
0.00925418
0.00936804
0.00947652
0.00957991
0.00967848
0.00977248
0.00986215
0.00994768
0.0100293
0.0101071
0.0101814
0.0102522
0.0103198
0.0103842
0.0104455
0.0105039
0.0105595
0.0106124
0.0106626
0.0107102
0.0107554
0.0107983
0.0108389
0.0108774
0.0109139
0.0109484
0.010981
0.0110118
0.0110408
0.0110682
0.0110939
0.011118
0.0111406
0.0111617
0.0111814
0.0111997
0.0112166
0.0112323
0.0112466
0.0112598
0.0112717
0.0112825
0.0112921
0.0113007
0.0113081
0.0113145
0.0113199
0.0113244
0.0113278
0.0113303
0.0113318
0.0113325
0.0113322
0.0113311
0.0113291
0.0113263
0.0113226
0.0113182
0.0113129
0.0113068
0.0113
0.0112924
0.011284
0.0112749
0.011265
0.0112544
0.0112431
0.011231
0.0112182
0.0112047
0.0111905
0.0111756
0.0111599
0.0111436
0.0111265
0.0111087
0.0110902
0.011071
0.0110511
0.0110305
0.0110091
0.010987
0.0109642
0.0109406
0.0109163
0.0108912
0.0108654
0.0108388
0.0108115
0.0107833
0.0107544
0.0107247
0.0106941
0.0106628
0.0106306
0.0105975
0.0105636
0.0105288
0.0104932
0.0104566
0.0104192
0.0103808
0.0103414
0.0103012
0.0102599
0.0102177
0.0101745
0.0101302
0.0100849
0.0100386
0.00999122
0.00994274
0.00989316
0.00984245
0.0097906
0.00973758
0.00968338
0.00962797
0.00957134
0.00951345
0.00945428
0.00939382
0.00933202
0.00926887
0.00920433
0.00913838
0.00907098
0.0090021
0.0089317
0.00885974
0.00878618
0.00871098
0.00863408
0.00855545
0.00847501
0.00839272
0.0083085
0.00822228
0.00813399
0.00804354
0.00795084
0.00785577
0.00775823
0.00765808
0.00755518
0.00744937
0.00734046
0.00722824
0.00711248
0.00699291
0.0068692
0.00674099
0.00660785
0.00646929
0.0063247
0.0061734
0.00601455
0.00584719
0.00567011
0.00548186
0.00528059
0.00506403
0.00482925
0.00457254
0.00428914
0.00397285
0.0036157
0.00320739
0.00273477
0.00218063
0.00152521
0.000761076
7.55148e-05
0.000102319
0.00100867
0.00195881
0.00274501
0.00340259
0.00396587
0.00445861
0.00489691
0.00529186
0.00565138
0.00598122
0.00628574
0.00656829
0.00683151
0.00707755
0.00730816
0.00752482
0.00772879
0.00792114
0.00810282
0.00827464
0.00843734
0.00859158
0.00873792
0.00887691
0.00900901
0.00913465
0.00925423
0.00936809
0.00947657
0.00957995
0.00967852
0.00977252
0.00986218
0.00994771
0.0100293
0.0101072
0.0101814
0.0102523
0.0103198
0.0103842
0.0104455
0.010504
0.0105596
0.0106124
0.0106626
0.0107102
0.0107554
0.0107983
0.0108389
0.0108774
0.0109139
0.0109484
0.010981
0.0110118
0.0110409
0.0110682
0.0110939
0.011118
0.0111406
0.0111617
0.0111814
0.0111997
0.0112166
0.0112323
0.0112466
0.0112598
0.0112717
0.0112825
0.0112921
0.0113007
0.0113081
0.0113145
0.0113199
0.0113244
0.0113278
0.0113303
0.0113318
0.0113325
0.0113322
0.0113311
0.0113291
0.0113263
0.0113226
0.0113182
0.0113129
0.0113068
0.0113
0.0112924
0.011284
0.0112749
0.011265
0.0112544
0.0112431
0.011231
0.0112182
0.0112047
0.0111905
0.0111756
0.0111599
0.0111436
0.0111265
0.0111087
0.0110902
0.011071
0.0110511
0.0110305
0.0110091
0.010987
0.0109642
0.0109406
0.0109163
0.0108912
0.0108654
0.0108388
0.0108115
0.0107833
0.0107544
0.0107247
0.0106941
0.0106628
0.0106306
0.0105975
0.0105636
0.0105288
0.0104932
0.0104566
0.0104191
0.0103808
0.0103414
0.0103012
0.0102599
0.0102177
0.0101745
0.0101302
0.0100849
0.0100386
0.00999121
0.00994273
0.00989315
0.00984244
0.00979059
0.00973757
0.00968337
0.00962796
0.00957133
0.00951344
0.00945427
0.00939381
0.00933201
0.00926886
0.00920432
0.00913837
0.00907097
0.00900209
0.00893169
0.00885973
0.00878617
0.00871097
0.00863407
0.00855544
0.008475
0.00839271
0.00830849
0.00822227
0.00813398
0.00804353
0.00795083
0.00785576
0.00775822
0.00765807
0.00755517
0.00744936
0.00734045
0.00722823
0.00711247
0.0069929
0.00686919
0.00674098
0.00660784
0.00646928
0.00632469
0.00617339
0.00601454
0.00584718
0.0056701
0.00548185
0.00528059
0.00506402
0.00482924
0.00457254
0.00428914
0.00397285
0.0036157
0.00320739
0.00273477
0.00218063
0.0015252
0.000761081
7.5515e-05
0.00010991
0.00109251
0.00216036
0.00306906
0.00384229
0.00451209
0.00510258
0.00563093
0.00610936
0.00654672
0.00694953
0.00732275
0.0076702
0.0079949
0.00829931
0.00858542
0.00885491
0.00910922
0.00934958
0.00957706
0.00979259
0.00999703
0.0101911
0.0103756
0.0105509
0.0107178
0.0108767
0.0110281
0.0111724
0.0113099
0.0114412
0.0115664
0.011686
0.0118001
0.0119091
0.0120131
0.0121125
0.0122075
0.0122981
0.0123847
0.0124673
0.0125462
0.0126214
0.0126932
0.0127615
0.0128266
0.0128886
0.0129476
0.0130037
0.0130571
0.0131079
0.0131561
0.0132018
0.0132453
0.0132864
0.0133254
0.0133623
0.0133972
0.0134301
0.0134611
0.0134903
0.0135178
0.0135435
0.0135675
0.0135899
0.0136107
0.0136301
0.0136479
0.0136643
0.0136793
0.013693
0.0137053
0.0137163
0.013726
0.0137345
0.0137418
0.013748
0.0137529
0.0137568
0.0137595
0.0137611
0.0137617
0.0137612
0.0137597
0.0137572
0.0137536
0.0137491
0.0137436
0.0137372
0.0137298
0.0137215
0.0137122
0.013702
0.0136909
0.0136789
0.0136659
0.0136521
0.0136374
0.0136218
0.0136053
0.0135879
0.0135696
0.0135504
0.0135303
0.0135094
0.0134875
0.0134647
0.013441
0.0134164
0.0133909
0.0133645
0.0133371
0.0133088
0.0132795
0.0132493
0.0132181
0.0131859
0.0131527
0.0131185
0.0130833
0.0130471
0.0130098
0.0129714
0.012932
0.0128915
0.0128498
0.0128071
0.0127632
0.0127181
0.0126718
0.0126244
0.0125757
0.0125258
0.0124746
0.0124221
0.0123684
0.0123133
0.0122568
0.012199
0.0121398
0.0120791
0.012017
0.0119534
0.0118883
0.0118217
0.0117535
0.0116837
0.0116122
0.0115391
0.0114643
0.0113877
0.0113094
0.0112292
0.0111472
0.0110632
0.0109773
0.0108894
0.0107994
0.0107072
0.0106128
0.0105162
0.0104172
0.0103158
0.0102118
0.0101053
0.00999598
0.00988383
0.0097687
0.00965046
0.00952893
0.00940396
0.00927533
0.00914284
0.00900623
0.00886521
0.00871948
0.00856866
0.00841234
0.00825002
0.00808114
0.00790504
0.00772095
0.00752796
0.00732498
0.00711074
0.0068837
0.00664196
0.00638323
0.00610467
0.00580275
0.00547309
0.00511019
0.00470716
0.00425536
0.003744
0.00315999
0.00248788
0.00171236
0.000836989
8.11997e-05
0.000109911
0.00109253
0.00216041
0.00306914
0.00384239
0.00451219
0.00510268
0.00563104
0.00610948
0.00654683
0.00694965
0.00732286
0.00767031
0.00799501
0.00829941
0.00858552
0.00885501
0.00910932
0.00934967
0.00957714
0.00979268
0.00999711
0.0101912
0.0103756
0.010551
0.0107179
0.0108768
0.0110281
0.0111724
0.01131
0.0114412
0.0115665
0.011686
0.0118001
0.0119091
0.0120132
0.0121126
0.0122075
0.0122981
0.0123847
0.0124673
0.0125462
0.0126214
0.0126932
0.0127615
0.0128267
0.0128886
0.0129476
0.0130038
0.0130571
0.0131079
0.0131561
0.0132018
0.0132453
0.0132864
0.0133254
0.0133623
0.0133972
0.0134301
0.0134612
0.0134903
0.0135178
0.0135435
0.0135675
0.0135899
0.0136108
0.0136301
0.0136479
0.0136643
0.0136793
0.013693
0.0137053
0.0137163
0.013726
0.0137345
0.0137418
0.013748
0.0137529
0.0137568
0.0137595
0.0137611
0.0137617
0.0137612
0.0137597
0.0137572
0.0137536
0.0137491
0.0137436
0.0137372
0.0137298
0.0137215
0.0137122
0.013702
0.0136909
0.0136789
0.0136659
0.0136521
0.0136374
0.0136218
0.0136053
0.0135879
0.0135696
0.0135504
0.0135303
0.0135094
0.0134875
0.0134647
0.013441
0.0134164
0.0133909
0.0133645
0.0133371
0.0133088
0.0132795
0.0132493
0.0132181
0.0131859
0.0131527
0.0131185
0.0130833
0.0130471
0.0130098
0.0129714
0.012932
0.0128915
0.0128498
0.0128071
0.0127632
0.0127181
0.0126718
0.0126244
0.0125757
0.0125258
0.0124746
0.0124221
0.0123684
0.0123133
0.0122568
0.012199
0.0121398
0.0120791
0.012017
0.0119534
0.0118883
0.0118217
0.0117535
0.0116836
0.0116122
0.0115391
0.0114643
0.0113877
0.0113094
0.0112292
0.0111472
0.0110632
0.0109773
0.0108894
0.0107994
0.0107072
0.0106128
0.0105162
0.0104172
0.0103158
0.0102118
0.0101053
0.00999596
0.00988382
0.00976869
0.00965044
0.00952892
0.00940395
0.00927532
0.00914283
0.00900622
0.0088652
0.00871947
0.00856865
0.00841233
0.00825001
0.00808113
0.00790503
0.00772094
0.00752795
0.00732497
0.00711073
0.00688369
0.00664195
0.00638322
0.00610466
0.00580274
0.00547308
0.00511018
0.00470715
0.00425536
0.003744
0.00315999
0.00248788
0.00171236
0.000836987
8.11997e-05
0.000116746
0.00116429
0.00232679
0.00333396
0.00420171
0.00495999
0.00563287
0.00623809
0.00678856
0.00729377
0.00776081
0.00819507
0.00860071
0.00898103
0.00933869
0.00967587
0.00999437
0.0102957
0.0105813
0.0108522
0.0111095
0.011354
0.0115867
0.0118081
0.012019
0.01222
0.0124117
0.0125945
0.012769
0.0129356
0.0130947
0.0132467
0.0133919
0.0135306
0.0136633
0.0137901
0.0139113
0.0140271
0.0141379
0.0142438
0.014345
0.0144417
0.0145341
0.0146223
0.0147066
0.014787
0.0148637
0.0149368
0.0150065
0.015073
0.0151363
0.0151966
0.015254
0.0153086
0.0153605
0.0154099
0.0154567
0.0155011
0.0155432
0.0155831
0.0156207
0.0156563
0.0156898
0.0157213
0.0157509
0.0157786
0.0158046
0.0158287
0.0158512
0.015872
0.0158912
0.0159088
0.0159248
0.0159393
0.0159524
0.0159641
0.0159743
0.0159832
0.0159907
0.0159969
0.0160018
0.0160054
0.0160078
0.016009
0.0160089
0.0160077
0.0160052
0.0160017
0.0159969
0.0159911
0.0159841
0.015976
0.0159668
0.0159565
0.0159452
0.0159327
0.0159192
0.0159046
0.0158889
0.0158722
0.0158544
0.0158356
0.0158157
0.0157947
0.0157726
0.0157495
0.0157253
0.0157
0.0156736
0.0156461
0.0156175
0.0155878
0.0155569
0.0155249
0.0154918
0.0154575
0.015422
0.0153854
0.0153475
0.0153084
0.0152681
0.0152265
0.0151836
0.0151395
0.015094
0.0150472
0.0149991
0.0149496
0.0148987
0.0148463
0.0147925
0.0147373
0.0146805
0.0146223
0.0145624
0.0145011
0.0144381
0.0143734
0.0143071
0.0142392
0.0141694
0.014098
0.0140247
0.0139496
0.0138726
0.0137938
0.0137129
0.0136301
0.0135453
0.0134583
0.0133693
0.013278
0.0131845
0.0130888
0.0129906
0.0128901
0.0127871
0.0126815
0.0125733
0.0124623
0.0123485
0.0122319
0.0121122
0.0119894
0.0118633
0.0117338
0.0116008
0.0114641
0.0113236
0.0111789
0.0110299
0.0108764
0.010718
0.0105545
0.0103856
0.0102107
0.0100294
0.00984131
0.00964571
0.00944194
0.00922917
0.00900646
0.00877269
0.00852657
0.00826652
0.00799069
0.00769684
0.00738228
0.00704371
0.00667714
0.00627767
0.00583934
0.00535482
0.00481522
0.00420983
0.00352609
0.00275049
0.00187172
0.000902083
8.61798e-05
0.000116747
0.00116431
0.00232685
0.00333404
0.0042018
0.0049601
0.00563299
0.00623821
0.00678868
0.00729389
0.00776094
0.00819519
0.00860083
0.00898115
0.00933881
0.00967598
0.00999448
0.0102958
0.0105814
0.0108523
0.0111096
0.0113541
0.0115867
0.0118082
0.0120191
0.0122201
0.0124118
0.0125946
0.0127691
0.0129357
0.0130948
0.0132467
0.0133919
0.0135307
0.0136633
0.0137901
0.0139113
0.0140272
0.0141379
0.0142438
0.014345
0.0144417
0.0145341
0.0146224
0.0147066
0.014787
0.0148637
0.0149368
0.0150066
0.015073
0.0151363
0.0151966
0.015254
0.0153086
0.0153606
0.0154099
0.0154567
0.0155011
0.0155432
0.0155831
0.0156207
0.0156563
0.0156898
0.0157213
0.0157509
0.0157786
0.0158046
0.0158287
0.0158512
0.015872
0.0158912
0.0159088
0.0159248
0.0159393
0.0159524
0.0159641
0.0159743
0.0159832
0.0159907
0.0159969
0.0160018
0.0160054
0.0160078
0.016009
0.0160089
0.0160077
0.0160052
0.0160017
0.0159969
0.0159911
0.0159841
0.015976
0.0159668
0.0159565
0.0159452
0.0159327
0.0159192
0.0159046
0.0158889
0.0158722
0.0158544
0.0158356
0.0158156
0.0157947
0.0157726
0.0157495
0.0157252
0.0156999
0.0156736
0.0156461
0.0156175
0.0155878
0.0155569
0.0155249
0.0154918
0.0154575
0.015422
0.0153854
0.0153475
0.0153084
0.0152681
0.0152265