/*--------------------------------*- C++ -*----------------------------------*\
  =========                 |
  \\      /  F ield         | OpenFOAM: The Open Source CFD Toolbox
   \\    /   O peration     | Website:  https://openfoam.org
    \\  /    A nd           | Version:  8
     \\/     M anipulation  |
\*---------------------------------------------------------------------------*/
FoamFile
{
    version     2.0;
    format      ascii;
    class       volScalarField;
    location    "2700";
    object      epsilon;
}
// * * * * * * * * * * * * * * * * * * * * * * * * * * * * * * * * * * * * * //

dimensions      [0 2 -3 0 0 0 0];

internalField   nonuniform List<scalar> 
48000
(
1.52571
3.65674
6.92255
10.3501
13.9408
17.5335
21.1003
24.6834
28.3317
31.9725
35.6278
39.2924
42.962
46.6327
50.2998
53.9583
57.6029
61.2279
64.8274
68.3953
71.9256
75.4122
78.8493
82.231
85.5517
88.8061
91.9893
95.0966
98.1236
101.067
103.922
106.686
109.357
111.933
114.411
116.79
119.069
121.247
123.324
125.3
127.175
128.95
130.625
132.2
133.678
135.072
136.381
137.598
138.723
139.759
140.709
141.574
142.357
143.06
143.687
144.239
144.719
145.129
145.473
145.752
145.968
146.125
146.224
146.267
146.258
146.197
146.087
145.931
145.729
145.484
145.197
144.871
144.507
144.106
143.671
143.202
142.701
142.169
141.608
141.019
140.403
139.76
139.094
138.403
137.689
136.954
136.197
135.42
134.623
133.808
132.974
132.123
131.255
130.371
129.47
128.555
127.624
126.679
125.72
124.747
123.76
122.761
121.749
120.724
119.687
118.638
117.577
116.505
115.421
114.326
113.22
112.102
110.974
109.835
108.686
107.526
106.356
105.175
103.984
102.783
101.572
100.352
99.121
97.8808
96.6311
95.3719
94.1034
92.8259
91.5393
90.2439
88.9399
87.6275
86.3068
84.9782
83.6417
82.2978
80.9466
79.5884
78.2237
76.8526
75.4756
74.093
72.7052
71.3126
69.9158
68.515
67.1107
65.7036
64.294
62.8825
61.4697
60.0561
58.6422
57.2288
55.8162
54.4053
52.9965
51.5906
50.1881
48.7897
47.3961
46.0078
44.6255
43.2498
41.8815
40.5209
39.1689
37.8259
36.4925
35.1693
33.8567
32.5553
31.2655
29.9877
28.7223
27.4697
26.2301
25.0038
23.7909
22.5916
21.4063
20.2361
19.0823
17.9519
16.8344
15.7261
14.6271
13.5355
12.45
11.3688
10.2895
9.20916
8.13091
7.05407
5.96476
4.85407
3.70707
2.49462
1.21459
0.179464
1.52573
3.65666
6.92275
10.3503
13.941
17.5338
21.1006
24.6837
28.332
31.9728
35.6282
39.2927
42.9624
46.633
50.3001
53.9586
57.6032
61.2282
64.8276
68.3955
71.9258
75.4125
78.8495
82.2312
85.5519
88.8064
91.9895
95.0968
98.1238
101.067
103.922
106.686
109.358
111.933
114.411
116.79
119.069
121.247
123.325
125.301
127.176
128.95
130.625
132.2
133.678
135.072
136.381
137.598
138.723
139.76
140.709
141.574
142.357
143.06
143.687
144.239
144.719
145.129
145.473
145.751
145.968
146.125
146.224
146.267
146.258
146.197
146.087
145.931
145.729
145.484
145.197
144.871
144.507
144.106
143.671
143.202
142.701
142.169
141.608
141.019
140.403
139.76
139.094
138.403
137.689
136.954
136.197
135.42
134.623
133.808
132.974
132.123
131.255
130.371
129.47
128.555
127.624
126.679
125.72
124.747
123.76
122.761
121.749
120.724
119.687
118.638
117.577
116.505
115.421
114.326
113.22
112.102
110.974
109.835
108.686
107.526
106.356
105.175
103.984
102.783
101.572
100.352
99.121
97.8808
96.631
95.3718
94.1034
92.8258
91.5393
90.2439
88.9399
87.6275
86.3068
84.9781
83.6417
82.2977
80.9465
79.5884
78.2236
76.8525
75.4755
74.0929
72.7052
71.3126
69.9157
68.5149
67.1107
65.7036
64.294
62.8825
61.4697
60.0561
58.6422
57.2287
55.8162
54.4053
52.9965
51.5906
50.1881
48.7897
47.3961
46.0078
44.6255
43.2498
41.8814
40.5209
39.1689
37.8259
36.4925
35.1692
33.8567
32.5553
31.2655
29.9877
28.7223
27.4697
26.2301
25.0038
23.7909
22.5916
21.4063
20.2361
19.0823
17.9519
16.8344
15.7261
14.6271
13.5355
12.45
11.3689
10.2895
9.20917
8.13091
7.05408
5.96479
4.8542
3.70756
2.49573
1.21438
0.179294
4.33092
3.70986
4.76187
6.05391
7.46083
8.92554
10.4091
11.9142
13.444
14.9916
16.5564
18.137
19.7313
21.3374
22.9529
24.5749
26.2006
27.8268
29.4501
31.067
32.6741
34.2678
35.8446
37.4009
38.9335
40.4391
41.9147
43.3574
44.7646
46.1339
47.4631
48.7502
49.9936
51.1919
52.3438
53.4484
54.505
55.513
56.4722
57.3825
58.2439
59.0566
59.8211
60.538
61.2089
61.8373
62.423
62.965
63.4636
63.9196
64.3338
64.7075
65.0419
65.3382
65.5977
65.8216
66.0113
66.168
66.2929
66.3873
66.4524
66.4893
66.4993
66.4835
66.443
66.3788
66.2919
66.1835
66.0544
65.9056
65.738
65.5524
65.3497
65.1307
64.8961
64.6466
64.383
64.1058
63.8158
63.5136
63.1996
62.8745
62.5387
62.1927
61.8371
61.4721
61.0983
60.716
60.3256
59.9274
59.5218
59.1089
58.6892
58.2629
57.8302
57.3914
56.9466
56.4961
56.0401
55.5786
55.112
54.6402
54.1635
53.682
53.1958
52.7049
52.2096
51.7098
51.2056
50.6972
50.1845
49.6677
49.1468
48.6219
48.0929
47.56
47.0233
46.4826
45.9381
45.3899
44.8379
44.2823
43.7229
43.16
42.5935
42.0236
41.4501
40.8733
40.2932
39.7098
39.1233
38.5336
37.941
37.3454
36.747
36.146
35.5423
34.9362
34.3277
33.7171
33.1045
32.4899
31.8737
31.256
30.6369
30.0167
29.3955
28.7736
28.1512
27.5285
26.9058
26.2833
25.6613
25.0399
24.4195
23.8003
23.1827
22.5668
21.953
21.3414
20.7325
20.1265
19.5236
18.9241
18.3283
17.7365
17.1489
16.5657
15.9872
15.4136
14.8452
14.2821
13.7245
13.1727
12.6267
12.0866
11.5527
11.025
10.5036
9.98852
9.47997
8.97813
8.48328
7.99582
7.51436
7.03781
6.56698
6.101
5.63945
5.18194
4.72815
4.27814
3.83335
3.39365
2.95759
2.52602
2.10332
1.7027
1.36816
1.56443
4.33081
3.70979
4.7618
6.05381
7.46071
8.9254
10.4089
11.9141
13.4439
14.9914
16.5562
18.1368
19.7311
21.3372
22.9526
24.5747
26.2003
27.8265
29.4498
31.0668
32.6739
34.2675
35.8443
37.4006
38.9332
40.4388
41.9144
43.3571
44.7643
46.1336
47.4628
48.7499
49.9933
51.1916
52.3435
53.4481
54.5047
55.5127
56.4719
57.3822
58.2435
59.0562
59.8207
60.5377
61.2085
61.837
62.4226
62.9647
63.4633
63.9192
64.3335
64.7072
65.0416
65.3379
65.5974
65.8213
66.011
66.1677
66.2926
66.387
66.452
66.489
66.499
66.4832
66.4426
66.3784
66.2916
66.1832
66.0541
65.9053
65.7377
65.5521
65.3494
65.1304
64.8958
64.6463
64.3827
64.1055
63.8156
63.5133
63.1993
62.8742
62.5384
62.1924
61.8368
61.4718
61.098
60.7157
60.3253
59.9271
59.5215
59.1087
58.689
58.2627
57.83
57.3911
56.9464
56.4959
56.0398
55.5784
55.1117
54.64
54.1633
53.6818
53.1955
52.7047
52.2093
51.7095
51.2054
50.6969
50.1843
49.6675
49.1466
48.6216
48.0927
47.5598
47.023
46.4824
45.9379
45.3897
44.8377
44.282
43.7227
43.1598
42.5933
42.0234
41.45
40.8731
40.293
39.7097
39.1231
38.5335
37.9408
37.3452
36.7469
36.1458
35.5421
34.936
34.3276
33.717
33.1043
32.4898
31.8736
31.2558
30.6367
30.0165
29.3953
28.7735
28.1511
27.5284
26.9057
26.2832
25.6611
25.0398
24.4194
23.8002
23.1826
22.5667
21.9528
21.3413
20.7324
20.1264
19.5235
18.924
18.3282
17.7364
17.1488
16.5656
15.9871
15.4136
14.8451
14.282
13.7245
13.1726
12.6266
12.0866
11.5526
11.0249
10.5035
9.98846
9.47991
8.97807
8.48322
7.99577
7.51431
7.03777
6.56694
6.10096
5.63942
5.18191
4.72812
4.27811
3.83332
3.39363
2.95758
2.52607
2.10361
1.7035
1.36811
1.56446
7.94829
4.97646
5.30738
6.09015
7.03422
8.06165
9.13817
10.2497
11.3891
12.551
13.7322
14.93
16.1422
17.3666
18.601
19.8432
21.0906
22.3406
23.5904
24.8374
26.0784
27.3107
28.5312
29.7372
30.9257
32.094
33.2396
34.36
35.4529
36.5163
37.5482
38.5469
39.5111
40.4394
41.3308
42.1843
42.9994
43.7756
44.5126
45.2102
45.8686
46.4879
47.0685
47.611
48.1164
48.586
49.0203
49.4195
49.7841
50.1148
50.4124
50.6777
50.9118
51.1157
51.2904
51.4369
51.5563
51.6496
51.7179
51.7623
51.7835
51.7828
51.761
51.719
51.6578
51.5783
51.4813
51.3676
51.238
51.0932
50.9341
50.7614
50.5756
50.3774
50.1675
49.9465
49.7149
49.4732
49.2219
48.9616
48.6927
48.4156
48.1308
47.8386
47.5394
47.2335
46.9213
46.6031
46.2791
45.9497
45.6151
45.2755
44.9311
44.5822
44.2289
43.8714
43.51
43.1446
42.7756
42.403
42.0269
41.6474
41.2647
40.8789
40.4899
40.098
39.7032
39.3055
38.905
38.5018
38.0958
37.6872
37.276
36.8623
36.446
36.0272
35.606
35.1823
34.7562
34.3277
33.8969
33.4638
33.0284
32.5907
32.1509
31.7088
31.2647
30.8184
30.3701
29.9198
29.4676
29.0135
28.5576
28.1
27.6407
27.1798
26.7175
26.2537
25.7887
25.3225
24.8551
24.3869
23.9178
23.448
22.9777
22.5069
22.0359
21.5649
21.0939
20.6231
20.1527
19.683
19.2141
18.7461
18.2793
17.8139
17.35
16.888
16.4279
15.97
15.5146
15.0617
14.6116
14.1646
13.7207
13.2803
12.8434
12.4103
11.9812
11.5562
11.1354
10.7192
10.3074
9.90044
9.49827
9.10103
8.70883
8.32175
7.93988
7.56329
7.19208
6.82633
6.46615
6.11153
5.76223
5.41801
5.07891
4.74475
4.41579
4.09216
3.77411
3.46228
3.15782
2.86238
2.5781
2.31024
2.07097
1.89152
1.88265
3.08106
7.94852
4.9764
5.30727
6.09
7.03405
8.06146
9.13797
10.2495
11.3889
12.5508
13.732
14.9297
16.1419
17.3663
18.6008
19.843
21.0903
22.3403
23.5902
24.8371
26.0782
27.3105
28.531
29.7369
30.9254
32.0938
33.2394
34.3597
35.4527
36.516
37.5479
38.5467
39.5109
40.4392
41.3305
42.1841
42.9992
43.7754
44.5124
45.21
45.8684
46.4877
47.0683
47.6109
48.1162
48.5858
49.0201
49.4193
49.784
50.1147
50.4122
50.6776
50.9117
51.1155
51.2902
51.4367
51.5561
51.6495
51.7178
51.7621
51.7834
51.7827
51.7608
51.7189
51.6577
51.5782
51.4811
51.3674
51.2378
51.0931
50.934
50.7612
50.5755
50.3773
50.1674
49.9464
49.7147
49.4731
49.2218
48.9615
48.6926
48.4155
48.1307
47.8385
47.5393
47.2334
46.9212
46.603
46.279
45.9496
45.615
45.2754
44.931
44.5821
44.2288
43.8713
43.5099
43.1445
42.7755
42.4029
42.0268
41.6473
41.2646
40.8788
40.4899
40.0979
39.7031
39.3054
38.9049
38.5017
38.0957
37.6872
37.276
36.8622
36.4459
36.0271
35.6059
35.1822
34.7561
34.3276
33.8968
33.4637
33.0283
32.5907
32.1508
31.7088
31.2646
30.8184
30.3701
29.9198
29.4676
29.0135
28.5576
28.0999
27.6407
27.1798
26.7174
26.2537
25.7886
25.3224
24.8551
24.3868
23.9177
23.448
22.9776
22.5069
22.0359
21.5648
21.0938
20.623
20.1527
19.683
19.214
18.746
18.2793
17.8138
17.35
16.888
16.4279
15.97
15.5145
15.0617
14.6116
14.1645
13.7207
13.2802
12.8434
12.4103
11.9812
11.5561
11.1354
10.7191
10.3074
9.90042
9.49825
9.10101
8.70881
8.32173
7.93986
7.56327
7.19206
6.82632
6.46613
6.11152
5.76222
5.418
5.0789
4.74474
4.41577
4.09215
3.7741
3.46227
3.15781
2.86237
2.57808
2.31022
2.07097
1.89156
1.88212
3.07999
11.5924
6.50961
6.30825
6.79239
7.51335
8.35282
9.26301
10.2205
11.2122
12.23
13.2683
14.3232
15.3918
16.4714
17.5598
18.6545
19.7534
20.8541
21.9542
23.0512
24.1427
25.2262
26.299
27.3586
28.4027
29.4287
30.4345
31.4178
32.3766
33.309
34.2133
35.088
35.9317
36.7433
37.5219
38.2665
38.9766
39.6517
40.2916
40.8962
41.4655
41.9996
42.499
42.9641
43.3956
43.7943
44.1608
44.4957
44.7995
45.0728
45.3166
45.5315
45.7184
45.8784
46.0122
46.121
46.2055
46.2669
46.3059
46.3236
46.3208
46.2985
46.2575
46.1987
46.123
46.031
45.9236
45.8015
45.6656
45.5163
45.3546
45.1808
44.9958
44.8001
44.5942
44.3786
44.154
43.9207
43.6793
43.4301
43.1736
42.9102
42.6402
42.3641
42.0821
41.7945
41.5017
41.2039
40.9013
40.5943
40.283
39.9677
39.6486
39.3258
38.9995
38.6698
38.337
38.0012
37.6624
37.3209
36.9766
36.6297
36.2804
35.9286
35.5745
35.2181
34.8595
34.4987
34.1358
33.7708
33.4039
33.035
32.6641
32.2913
31.9166
31.5401
31.1618
30.7817
30.3998
30.0162
29.6309
29.2439
28.8552
28.4649
28.073
27.6795
27.2845
26.888
26.4901
26.0907
25.69
25.288
24.8848
24.4803
24.0748
23.6681
23.2606
22.8521
22.4428
22.0329
21.6223
21.2112
20.7997
20.3879
19.976
19.564
19.1522
18.7406
18.3293
17.9186
17.5086
17.0994
16.6912
16.2842
15.8785
15.4743
15.0718
14.6712
14.2725
13.8761
13.4821
13.0906
12.7018
12.316
11.9332
11.5536
11.1775
10.8049
10.436
10.0709
9.70991
9.35302
9.00038
8.65212
8.30835
7.96918
7.63471
7.30502
6.98022
6.66039
6.34562
6.03602
5.73166
5.43261
5.13889
4.85053
4.56766
4.29047
4.01928
3.75457
3.49702
3.24789
3.00887
2.78266
2.57382
2.39104
2.25315
2.20931
2.44731
4.62571
11.5927
6.50953
6.3081
6.79221
7.51315
8.35261
9.26279
10.2203
11.212
12.2297
13.268
14.323
15.3916
16.4712
17.5595
18.6543
19.7531
20.8538
21.9539
23.051
24.1425
25.2259
26.2987
27.3584
28.4025
29.4285
30.4343
31.4176
32.3764
33.3088
34.2131
35.0878
35.9316
36.7432
37.5217
38.2663
38.9764
39.6516
40.2915
40.8961
41.4653
41.9995
42.4989
42.964
43.3954
43.7941
44.1607
44.4956
44.7994
45.0727
45.3164
45.5314
45.7183
45.8783
46.0121
46.1209
46.2055
46.2668
46.3058
46.3235
46.3208
46.2984
46.2575
46.1987
46.1229
46.0309
45.9235
45.8015
45.6655
45.5163
45.3545
45.1808
44.9957
44.8
44.5941
44.3786
44.1539
43.9206
43.6792
43.43
43.1735
42.9101
42.6402
42.364
42.082
41.7944
41.5016
41.2038
40.9013
40.5943
40.283
39.9677
39.6485
39.3257
38.9994
38.6698
38.337
38.0011
37.6624
37.3208
36.9766
36.6297
36.2803
35.9286
35.5744
35.218
34.8594
34.4986
34.1358
33.7708
33.4039
33.0349
32.664
32.2913
31.9166
31.5401
31.1618
30.7817
30.3998
30.0162
29.6308
29.2438
28.8552
28.4648
28.0729
27.6795
27.2845
26.888
26.49
26.0907
25.69
25.288
24.8847
24.4803
24.0747
23.6681
23.2605
22.8521
22.4428
22.0328
21.6222
21.2112
20.7997
20.3879
19.976
19.564
19.1522
18.7405
18.3293
17.9186
17.5086
17.0994
16.6912
16.2842
15.8785
15.4743
15.0718
14.6712
14.2725
13.8761
13.4821
13.0906
12.7018
12.3159
11.9332
11.5536
11.1774
10.8048
10.436
10.0709
9.70991
9.35301
9.00037
8.65212
8.30835
7.96918
7.6347
7.30502
6.98021
6.66038
6.34562
6.03601
5.73166
5.43261
5.13888
4.85053
4.56766
4.29047
4.01928
3.75457
3.49701
3.24789
3.00887
2.78266
2.57381
2.39103
2.25315
2.20933
2.44717
4.62529
15.2363
8.17636
7.50718
7.76576
8.33995
9.06868
9.88783
10.7655
11.6835
12.6305
13.599
14.5836
15.5805
16.5866
17.5993
18.6162
19.6352
20.6542
21.671
22.6835
23.6895
24.6868
25.6732
26.6466
27.6048
28.5457
29.4673
30.3676
31.2448
32.0974
32.9236
33.7222
34.4919
35.2316
35.9405
36.6178
37.2629
37.8755
38.4552
39.002
39.5159
39.997
40.4457
40.8624
41.2476
41.6019
41.9261
42.2205
42.486
42.7231
42.9325
43.1152
43.2718
43.4033
43.5105
43.5944
43.6557
43.6955
43.7146
43.7138
43.6941
43.6562
43.6011
43.5294
43.4421
43.3397
43.2232
43.0931
42.9501
42.795
42.6284
42.4508
42.2629
42.0651
41.8581
41.6422
41.4181
41.1862
40.9469
40.7005
40.4476
40.1885
39.9235
39.6529
39.3772
39.0964
38.8111
38.5213
38.2274
37.9295
37.6279
37.3228
37.0144
36.7028
36.3883
36.0708
35.7507
35.428
35.1028
34.7753
34.4455
34.1136
33.7795
33.4435
33.1056
32.7658
32.4241
32.0808
31.7357
31.3889
31.0406
30.6906
30.3391
29.9861
29.6316
29.2756
28.9182
28.5594
28.1992
27.8376
27.4747
27.1104
26.7449
26.3781
26.0101
25.6409
25.2705
24.899
24.5264
24.1527
23.778
23.4024
23.0259
22.6485
22.2703
21.8914
21.5118
21.1317
20.751
20.37
19.9886
19.607
19.2253
18.8436
18.4619
18.0805
17.6994
17.3187
16.9386
16.5593
16.1808
15.8033
15.4269
15.0518
14.6782
14.3062
13.9359
13.5676
13.2013
12.8372
12.4755
12.1164
11.76
11.4064
11.0559
10.7085
10.3644
10.0238
9.68679
9.35351
9.02408
8.69865
8.37733
8.06025
7.7475
7.43921
7.13548
6.83642
6.54213
6.25273
5.96834
5.68908
5.41509
5.14649
4.88345
4.62617
4.37492
4.13009
3.89222
3.66207
3.44073
3.22982
3.03173
2.85029
2.69197
2.56883
2.50647
2.57219
3.02665
6.12663
15.2365
8.17626
7.50701
7.76557
8.33973
9.06845
9.88759
10.7653
11.6833
12.6302
13.5987
14.5834
15.5803
16.5864
17.599
18.616
19.635
20.654
21.6708
22.6832
23.6892
24.6865
25.673
26.6464
27.6046
28.5455
29.4671
30.3674
31.2447
32.0972
32.9234
33.722
34.4917
35.2315
35.9404
36.6177
37.2628
37.8754
38.4551
39.0019
39.5158
39.9969
40.4456
40.8623
41.2475
41.6018
41.926
42.2204
42.4859
42.723
42.9324
43.1151
43.2717
43.4032
43.5104
43.5943
43.6556
43.6954
43.7145
43.7138
43.694
43.6562
43.601
43.5294
43.442
43.3397
43.2231
43.093
42.9501
42.795
42.6283
42.4508
42.2628
42.065
41.858
41.6422
41.4181
41.1862
40.9468
40.7005
40.4476
40.1885
39.9235
39.6529
39.3771
39.0964
38.811
38.5213
38.2273
37.9295
37.6279
37.3228
37.0144
36.7028
36.3882
36.0708
35.7507
35.428
35.1028
34.7753
34.4455
34.1135
33.7795
33.4435
33.1056
32.7657
32.4241
32.0807
31.7357
31.3889
31.0405
30.6906
30.3391
29.9861
29.6316
29.2756
28.9182
28.5594
28.1991
27.8376
27.4746
27.1104
26.7449
26.3781
26.0101
25.6409
25.2705
24.899
24.5264
24.1527
23.778
23.4024
23.0258
22.6484
22.2703
21.8914
21.5118
21.1317
20.751
20.37
19.9886
19.607
19.2253
18.8436
18.4619
18.0805
17.6994
17.3187
16.9386
16.5593
16.1808
15.8033
15.4269
15.0518
14.6782
14.3062
13.9359
13.5675
13.2013
12.8372
12.4755
12.1164
11.76
11.4064
11.0559
10.7085
10.3644
10.0238
9.68679
9.35351
9.02408
8.69865
8.37733
8.06025
7.7475
7.43921
7.13548
6.83642
6.54213
6.25273
5.96834
5.68908
5.41509
5.14649
4.88345
4.62617
4.37492
4.13009
3.89222
3.66207
3.44073
3.22982
3.03173
2.85029
2.69197
2.56883
2.50647
2.57221
3.02664
6.12654
18.8846
9.92853
8.83224
8.90361
9.3679
10.0214
10.7836
11.6144
12.4907
13.3984
14.3279
15.2726
16.2278
17.1898
18.1558
19.1233
20.0904
21.055
22.0153
22.9694
23.9155
24.8516
25.7761
26.6869
27.5824
28.4605
29.3198
30.1583
30.9747
31.7673
32.5348
33.2759
33.9897
34.675
35.3311
35.9574
36.5532
37.1183
37.6524
38.1553
38.6271
39.068
39.4782
39.858
40.2081
40.5288
40.8208
41.0848
41.3212
41.5307
41.7142
41.8722
42.0057
42.1154
42.2021
42.2668
42.3102
42.3332
42.3367
42.3213
42.2881
42.2377
42.171
42.0888
41.9916
41.8804
41.7558
41.6184
41.4689
41.308
41.1362
40.9541
40.7624
40.5614
40.3517
40.1338
39.9082
39.6752
39.4354
39.1891
38.9366
38.6784
38.4147
38.1459
37.8724
37.5942
37.3118
37.0254
36.7351
36.4413
36.1442
35.8438
35.5404
35.2342
34.9254
34.614
34.3001
33.984
33.6658
33.3454
33.0231
32.6989
32.3729
32.0452
31.7158
31.3848
31.0523
30.7183
30.3829
30.046
29.7078
29.3682
29.0274
28.6853
28.3419
27.9974
27.6516
27.3047
26.9567
26.6075
26.2573
25.9059
25.5536
25.2002
24.8459
24.4906
24.1343
23.7772
23.4192
23.0604
22.7008
22.3405
21.9796
21.618
21.2558
20.8932
20.5301
20.1666
19.8029
19.4389
19.0749
18.7108
18.3467
17.9828
17.6192
17.256
16.8932
16.531
16.1696
15.809
15.4494
15.0909
14.7336
14.3777
14.0233
13.6706
13.3197
12.9708
12.624
12.2794
11.9372
11.5975
11.2605
10.9264
10.5952
10.2672
9.94241
9.621
9.30313
8.9889
8.67846
8.37192
8.06941
7.77105
7.47695
7.18724
6.90204
6.62147
6.34566
6.07475
5.80888
5.54823
5.29299
5.04336
4.7996
4.56205
4.33112
4.10737
3.89155
3.68468
3.4882
3.30418
3.13572
2.98766
2.86819
2.79266
2.79353
2.95629
3.61298
7.61793
18.8849
9.92841
8.83205
8.90339
9.36767
10.0212
10.7834
11.6141
12.4905
13.3982
14.3276
15.2724
16.2275
17.1895
18.1555
19.1231
20.0902
21.0548
22.0151
22.9692
23.9152
24.8514
25.7759
26.6867
27.5821
28.4603
29.3196
30.1581
30.9745
31.7671
32.5346
33.2758
33.9895
34.6749
35.331
35.9572
36.5531
37.1182
37.6522
38.1551
38.627
39.0678
39.478
39.8579
40.208
40.5287
40.8208
41.0847
41.3211
41.5306
41.7141
41.8721
42.0056
42.1153
42.2021
42.2667
42.3102
42.3332
42.3366
42.3213
42.288
42.2377
42.171
42.0887
41.9916
41.8804
41.7557
41.6183
41.4689
41.308
41.1362
40.9541
40.7623
40.5613
40.3517
40.1338
39.9081
39.6752
39.4354
39.189
38.9366
38.6784
38.4147
38.1459
37.8723
37.5942
37.3118
37.0253
36.7351
36.4413
36.1441
35.8438
35.5404
35.2342
34.9253
34.6139
34.3001
33.984
33.6657
33.3454
33.0231
32.6989
32.3729
32.0452
31.7158
31.3848
31.0523
30.7183
30.3828
30.046
29.7078
29.3682
29.0274
28.6852
28.3419
27.9973
27.6516
27.3047
26.9566
26.6075
26.2572
25.9059
25.5536
25.2002
24.8459
24.4905
24.1343
23.7772
23.4192
23.0604
22.7008
22.3405
21.9796
21.618
21.2558
20.8932
20.5301
20.1666
19.8029
19.4389
19.0749
18.7108
18.3467
17.9828
17.6192
17.256
16.8932
16.531
16.1696
15.809
15.4494
15.0909
14.7336
14.3777
14.0233
13.6706
13.3197
12.9708
12.624
12.2794
11.9372
11.5975
11.2605
10.9264
10.5952
10.2672
9.94241
9.62101
9.30313
8.9889
8.67846
8.37192
8.06941
7.77105
7.47695
7.18725
6.90204
6.62147
6.34566
6.07475
5.80889
5.54824
5.29299
5.04336
4.7996
4.56205
4.33112
4.10737
3.89155
3.68468
3.4882
3.30419
3.13572
2.98766
2.86819
2.79266
2.79353
2.9563
3.613
7.61792
22.6344
11.749
10.2559
10.1646
10.541
11.1396
11.8636
12.665
13.5164
14.4007
15.3065
16.226
17.1537
18.0856
19.0184
19.9498
20.8777
21.8005
22.7163
23.6238
24.5214
25.4076
26.2808
27.1395
27.9823
28.8076
29.614
30.4
31.1643
31.9056
32.6227
33.3145
33.9801
34.6186
35.2292
35.8115
36.3648
36.8889
37.3836
37.8487
38.2843
38.6906
39.0676
39.4159
39.7358
40.0278
40.2925
40.5304
40.7421
40.9282
41.0896
41.2267
41.3406
41.4318
41.5012
41.5495
41.5777
41.5864
41.5765
41.5488
41.5039
41.4428
41.3662
41.2747
41.1691
41.05
40.9182
40.7743
40.6189
40.4526
40.2759
40.0895
39.8939
39.6895
39.4768
39.2564
39.0287
38.794
38.5528
38.3055
38.0524
37.7938
37.5301
37.2616
36.9886
36.7113
36.43
36.145
35.8564
35.5645
35.2695
34.9715
34.6707
34.3673
34.0615
33.7533
33.443
33.1305
32.8161
32.4998
32.1818
31.862
31.5407
31.2178
30.8934
30.5676
30.2404
29.912
29.5822
29.2513
28.9192
28.5859
28.2515
27.916
27.5795
27.2419
26.9033
26.5637
26.2232
25.8817
25.5393
25.1961
24.8519
24.507
24.1612
23.8146
23.4673
23.1192
22.7705
22.4212
22.0712
21.7207
21.3697
21.0182
20.6663
20.3141
19.9616
19.6088
19.256
18.9031
18.5502
18.1974
17.8448
17.4925
17.1406
16.7892
16.4383
16.0882
15.7389
15.3905
15.0432
14.697
14.3522
14.0088
13.667
13.3268
12.9886
12.6523
12.3181
11.9861
11.6565
11.3295
11.0051
10.6836
10.3649
10.0494
9.73698
9.42795
9.12237
8.82039
8.52212
8.2277
7.93724
7.65087
7.36873
7.09093
6.81762
6.54894
6.28505
6.0261
5.7723
5.52384
5.28098
5.044
4.81325
4.58917
4.37231
4.16339
3.96335
3.77347
3.59551
3.432
3.2867
3.1655
3.07832
3.04358
3.10069
3.35336
4.20483
9.1073
22.6348
11.7488
10.2557
10.1643
10.5407
11.1393
11.8633
12.6647
13.5161
14.4004
15.3062
16.2258
17.1535
18.0853
19.0181
19.9495
20.8775
21.8002
22.7161
23.6236
24.5212
25.4073
26.2805
27.1393
27.9821
28.8074
29.6138
30.3998
31.1641
31.9054
32.6225
33.3143
33.9799
34.6184
35.2291
35.8113
36.3647
36.8888
37.3835
37.8486
38.2842
38.6904
39.0675
39.4158
39.7357
40.0277
40.2924
40.5303
40.742
40.9282
41.0895
41.2267
41.3405
41.4317
41.5011
41.5495
41.5776
41.5863
41.5764
41.5487
41.5039
41.4428
41.3661
41.2746
41.169
41.05
40.9182
40.7743
40.6188
40.4525
40.2759
40.0895
39.8938
39.6894
39.4768
39.2564
39.0287
38.794
38.5528
38.3055
38.0523
37.7938
37.5301
37.2616
36.9886
36.7113
36.43
36.145
35.8564
35.5645
35.2694
34.9715
34.6707
34.3673
34.0615
33.7533
33.443
33.1305
32.8161
32.4998
32.1818
31.862
31.5406
31.2177
30.8934
30.5676
30.2404
29.912
29.5822
29.2513
28.9191
28.5859
28.2515
27.916
27.5794
27.2419
26.9033
26.5637
26.2232
25.8817
25.5393
25.1961
24.8519
24.5069
24.1612
23.8146
23.4673
23.1192
22.7705
22.4212
22.0712
21.7207
21.3697
21.0182
20.6663
20.3141
19.9616
19.6088
19.256
18.9031
18.5502
18.1974
17.8448
17.4925
17.1406
16.7891
16.4383
16.0882
15.7389
15.3905
15.0432
14.697
14.3522
14.0088
13.667
13.3268
12.9886
12.6523
12.3181
11.9861
11.6565
11.3295
11.0051
10.6836
10.3649
10.0494
9.73698
9.42795
9.12238
8.82039
8.52212
8.2277
7.93724
7.65087
7.36873
7.09093
6.81763
6.54895
6.28505
6.02611
5.7723
5.52384
5.28098
5.044
4.81325
4.58917
4.37231
4.16339
3.96335
3.77347
3.59551
3.43201
3.28671
3.1655
3.07832
3.04358
3.1007
3.35337
4.20486
9.10731
26.5927
13.6585
11.7729
11.532
11.8342
12.3906
13.0879
13.8704
14.7063
15.5759
16.4661
17.368
18.2753
19.1837
20.0897
20.991
21.8857
22.7722
23.649
24.5151
25.3692
26.2101
27.0367
27.8478
28.6423
29.4189
30.1764
30.9137
31.6297
32.3232
32.9934
33.6392
34.2599
34.8547
35.4229
35.9641
36.4777
36.9637
37.4216
37.8515
38.2534
38.6274
38.9737
39.2927
39.5847
39.8502
40.0896
40.3036
40.4927
40.6574
40.7985
40.9167
41.0126
41.087
41.1407
41.1743
41.1886
41.1845
41.1626
41.1236
41.0684
40.9977
40.9121
40.8123
40.6991
40.5731
40.4348
40.285
40.1242
39.953
39.772
39.5816
39.3823
39.1748
38.9593
38.7365
38.5066
38.2701
38.0274
37.7789
37.5248
37.2656
37.0015
36.7328
36.4598
36.1827
35.9019
35.6175
35.3297
35.0388
34.745
34.4484
34.1492
33.8475
33.5435
33.2373
32.9291
32.619
32.307
31.9933
31.678
31.3611
31.0427
30.7229
30.4018
30.0794
29.7558
29.431
29.105
28.778
28.4499
28.1208
27.7907
27.4596
27.1276
26.7947
26.4609
26.1263
25.7908
25.4545
25.1175
24.7796
24.4411
24.1018
23.7619
23.4212
23.08
22.7382
22.3958
22.0529
21.7096
21.3658
21.0216
20.677
20.3322
19.9872
19.642
19.2967
18.9514
18.6061
18.261
17.916
17.5714
17.2271
16.8833
16.54
16.1975
15.8557
15.5147
15.1748
14.836
14.4984
14.1622
13.8274
13.4942
13.1627
12.8331
12.5054
12.1799
11.8566
11.5356
11.2172
10.9013
10.5882
10.2781
9.97088
9.66684
9.36608
9.06872
8.77488
8.4847
8.1983
7.91582
7.63737
7.36312
7.09319
6.82774
6.56693
6.31095
6.06
5.81429
5.57408
5.33968
5.11145
4.88982
4.67533
4.46865
4.27065
4.08247
3.90561
3.74218
3.59513
3.46889
3.37037
3.31122
3.31305
3.42225
3.7611
4.8047
10.6092
26.5931
13.6584
11.7726
11.5318
11.8339
12.3903
13.0877
13.8701
14.7061
15.5756
16.4658
17.3677
18.2751
19.1834
20.0895
20.9908
21.8854
22.7719
23.6488
24.5148
25.3689
26.2099
27.0365
27.8476
28.6421
29.4186
30.1762
30.9135
31.6295
32.3231
32.9932
33.6391
34.2598
34.8545
35.4227
35.9639
36.4776
36.9635
37.4215
37.8514
38.2533
38.6273
38.9736
39.2926
39.5846
39.8501
40.0895
40.3035
40.4926
40.6573
40.7985
40.9166
41.0126
41.087
41.1406
41.1742
41.1886
41.1844
41.1625
41.1236
41.0684
40.9976
40.9121
40.8123
40.6991
40.573
40.4348
40.285
40.1242
39.953
39.7719
39.5815
39.3823
39.1747
38.9593
38.7364
38.5066
38.2701
38.0274
37.7789
37.5248
37.2655
37.0014
36.7327
36.4597
36.1827
35.9019
35.6175
35.3297
35.0388
34.745
34.4484
34.1491
33.8475
33.5435
33.2373
32.9291
32.619
32.307
31.9933
31.678
31.3611
31.0427
30.7229
30.4018
30.0794
29.7558
29.431
29.105
28.778
28.4499
28.1208
27.7907
27.4596
27.1276
26.7947
26.4609
26.1263
25.7908
25.4545
25.1175
24.7796
24.4411
24.1018
23.7618
23.4212
23.08
22.7382
22.3958
22.0529
21.7096
21.3657
21.0216
20.677
20.3322
19.9872
19.642
19.2967
18.9514
18.6061
18.261
17.916
17.5714
17.2271
16.8833
16.54
16.1975
15.8557
15.5147
15.1748
14.836
14.4984
14.1622
13.8274
13.4942
13.1627
12.8331
12.5054
12.1799
11.8566
11.5356
11.2172
10.9013
10.5882
10.2781
9.97088
9.66685
9.36608
9.06872
8.77489
8.4847
8.19831
7.91582
7.63738
7.36312
7.09319
6.82774
6.56694
6.31096
6.06
5.81429
5.57408
5.33969
5.11146
4.88982
4.67533
4.46865
4.27065
4.08247
3.90561
3.74218
3.59513
3.46889
3.37037
3.31122
3.31305
3.42225
3.76111
4.80474
10.6092
30.6907
15.6544
13.3806
12.9993
13.2364
13.759
14.4372
15.2072
16.0331
16.8927
17.7713
18.6591
19.5492
20.4368
21.3186
22.1921
23.0556
23.9077
24.7473
25.5736
26.3858
27.183
27.9645
28.7293
29.4767
30.2058
30.9157
31.6055
32.2743
32.9212
33.5455
34.1463
34.7231
35.275
35.8017
36.3027
36.7776
37.2262
37.6483
38.0439
38.4129
38.7555
39.0719
39.3624
39.6273
39.8671
40.0822
40.2731
40.4404
40.5847
40.7064
40.8064
40.8853
40.9438
40.9825
41.0021
41.0035
40.9872
40.9541
40.9047
40.8398
40.7601
40.6663
40.5589
40.4387
40.3063
40.1622
40.007
39.8414
39.6658
39.4807
39.2868
39.0844
38.874
38.6561
38.431
38.1993
37.9612
37.7172
37.4676
37.2127
36.9528
36.6883
36.4194
36.1463
35.8694
35.5889
35.305
35.0179
34.7278
34.4348
34.1393
33.8412
33.5408
33.2382
32.9336
32.627
32.3186
32.0085
31.6968
31.3835
31.0688
30.7527
30.4352
30.1166
29.7967
29.4757
29.1536
28.8305
28.5064
28.1813
27.8552
27.5283
27.2005
26.8719
26.5425
26.2123
25.8813
25.5496
25.2171
24.884
24.5502
24.2158
23.8807
23.5451
23.2089
22.8722
22.535
22.1973
21.8592
21.5207
21.1819
20.8427
20.5034
20.1638
19.8241
19.4843
19.1445
18.8047
18.4651
18.1257
17.7865
17.4477
17.1093
16.7714
16.4342
16.0977
15.762
15.4272
15.0934
14.7608
14.4294
14.0994
13.7708
13.4438
13.1186
12.7951
12.4737
12.1542
11.837
11.5222
11.2097
10.8999
10.5927
10.2883
9.98696
9.68864
9.39352
9.10174
8.8134
8.52866
8.24764
7.97047
7.6973
7.42828
7.16356
6.90333
6.64775
6.39705
6.15145
5.91121
5.67664
5.44809
5.226
5.01088
4.80335
4.60422
4.4145
4.23549
4.06896
3.9173
3.78393
3.67391
3.59519
3.56118
3.59677
3.75517
4.17766
5.41196
12.1183
30.6912
15.6542
13.3803
12.999
13.2362
13.7588
14.4369
15.2069
16.0328
16.8924
17.771
18.6588
19.5489
20.4365
21.3183
22.1918
23.0553
23.9074
24.7471
25.5734
26.3856
27.1828
27.9642
28.7291
29.4765
30.2056
30.9155
31.6053
32.2741
32.921
33.5453
34.1462
34.7229
35.2749
35.8016
36.3026
36.7775
37.2261
37.6482
38.0437
38.4128
38.7554
39.0718
39.3623
39.6272
39.867
40.0821
40.2731
40.4403
40.5846
40.7064
40.8064
40.8853
40.9437
40.9824
41.0021
41.0034
40.9872
40.954
40.9046
40.8398
40.7601
40.6662
40.5589
40.4387
40.3062
40.1621
40.007
39.8413
39.6657
39.4807
39.2867
39.0843
38.874
38.656
38.431
38.1993
37.9612
37.7172
37.4676
37.2126
36.9528
36.6883
36.4193
36.1463
35.8694
35.5889
35.305
35.0179
34.7277
34.4348
34.1392
33.8412
33.5408
33.2382
32.9336
32.627
32.3186
32.0085
31.6968
31.3835
31.0688
30.7526
30.4352
30.1165
29.7967
29.4757
29.1536
28.8305
28.5063
28.1813
27.8552
27.5283
27.2005
26.8719
26.5425
26.2123
25.8813
25.5496
25.2171
24.884
24.5502
24.2158
23.8807
23.5451
23.2089
22.8722
22.535
22.1973
21.8592
21.5207
21.1819
20.8427
20.5034
20.1638
19.8241
19.4843
19.1445
18.8047
18.4651
18.1257
17.7865
17.4477
17.1093
16.7714
16.4342
16.0977
15.762
15.4272
15.0934
14.7608
14.4294
14.0994
13.7708
13.4438
13.1186
12.7951
12.4737
12.1543
11.837
11.5222
11.2097
10.8999
10.5927
10.2883
9.98696
9.68864
9.39352
9.10174
8.81341
8.52866
8.24764
7.97047
7.6973
7.42828
7.16357
6.90333
6.64776
6.39705
6.15145
5.91121
5.67664
5.4481
5.226
5.01088
4.80336
4.60422
4.4145
4.23549
4.06896
3.9173
3.78393
3.67391
3.59519
3.56118
3.59677
3.75518
4.17767
5.41201
12.1183
34.9471
17.742
15.0807
14.5651
14.7438
15.2385
15.9022
16.6636
17.4826
18.3344
19.203
20.0778
20.9513
21.8185
22.6761
23.5217
24.3537
25.1712
25.9732
26.7594
27.5293
28.2823
29.0182
29.7363
30.4363
31.1175
31.7794
32.4213
33.0426
33.6426
34.2207
34.7763
35.3089
35.8179
36.3029
36.7635
37.1995
37.6107
37.9968
38.3579
38.694
39.0052
39.2917
39.5538
39.7917
40.0059
40.1968
40.3649
40.5106
40.6346
40.7373
40.8195
40.8816
40.9244
40.9486
40.9547
40.9434
40.9154
40.8714
40.8121
40.7379
40.6498
40.5481
40.4336
40.3069
40.1684
40.0189
39.8589
39.6888
39.5092
39.3207
39.1236
38.9184
38.7056
38.4855
38.2587
38.0254
37.7861
37.5411
37.2907
37.0352
36.775
36.5103
36.2413
35.9685
35.6919
35.4118
35.1285
34.8421
34.5528
34.2609
33.9664
33.6695
33.3704
33.0692
32.766
32.461
32.1542
31.8458
31.5358
31.2244
30.9116
30.5975
30.2821
29.9656
29.6479
29.3292
29.0095
28.6888
28.3671
28.0446
27.7212
27.397
27.0719
26.7461
26.4196
26.0923
25.7643