/*--------------------------------*- C++ -*----------------------------------*\
  =========                 |
  \\      /  F ield         | OpenFOAM: The Open Source CFD Toolbox
   \\    /   O peration     | Website:  https://openfoam.org
    \\  /    A nd           | Version:  8
     \\/     M anipulation  |
\*---------------------------------------------------------------------------*/
FoamFile
{
    version     2.0;
    format      ascii;
    class       volScalarField;
    location    "2700";
    object      k;
}
// * * * * * * * * * * * * * * * * * * * * * * * * * * * * * * * * * * * * * //

dimensions      [0 2 -2 0 0 0 0];

internalField   nonuniform List<scalar> 
48000
(
0.0253405
0.055386
0.0856035
0.111969
0.136567
0.159124
0.180032
0.199875
0.219115
0.237506
0.255279
0.272496
0.289209
0.305456
0.321266
0.336661
0.351654
0.366256
0.380473
0.394307
0.40776
0.420833
0.433524
0.445831
0.457753
0.469289
0.480436
0.491193
0.501561
0.511539
0.521127
0.530327
0.539141
0.547572
0.555622
0.563297
0.5706
0.577536
0.584112
0.590333
0.596206
0.601738
0.606935
0.611804
0.616353
0.62063
0.624631
0.628339
0.63176
0.6349
0.637771
0.640381
0.642738
0.644852
0.646732
0.648386
0.649823
0.65105
0.652075
0.652907
0.653553
0.654019
0.654313
0.654443
0.654413
0.654231
0.653903
0.653434
0.652831
0.652098
0.651241
0.650265
0.649174
0.647973
0.646666
0.645257
0.643751
0.642151
0.64046
0.638681
0.636819
0.634876
0.632854
0.630757
0.628587
0.626346
0.624036
0.62166
0.61922
0.616717
0.614152
0.611529
0.608847
0.606109
0.603315
0.600467
0.597565
0.594612
0.591606
0.58855
0.585444
0.582288
0.579083
0.575829
0.572527
0.569177
0.565779
0.562333
0.55884
0.5553
0.551712
0.548076
0.544393
0.540663
0.536884
0.533057
0.529183
0.525259
0.521287
0.517266
0.513195
0.509075
0.504905
0.500685
0.496414
0.492092
0.487719
0.483295
0.478819
0.474292
0.469712
0.46508
0.460395
0.455658
0.450868
0.446026
0.44113
0.436182
0.431182
0.426129
0.421023
0.415866
0.410657
0.405397
0.400085
0.394724
0.389312
0.383851
0.378341
0.372784
0.367179
0.361528
0.355832
0.350091
0.344307
0.33848
0.332611
0.326703
0.320755
0.314769
0.308746
0.302688
0.296594
0.290468
0.284308
0.278118
0.271896
0.265646
0.259366
0.253058
0.246722
0.240358
0.233968
0.227549
0.221102
0.214627
0.20812
0.201582
0.19501
0.1884
0.181751
0.175066
0.168347
0.161631
0.154852
0.147979
0.141002
0.133896
0.126639
0.119197
0.111528
0.103578
0.0953263
0.0867117
0.0775367
0.0675851
0.0564894
0.0435396
0.0273645
0.0154763
0.0253399
0.0553888
0.0856049
0.111971
0.136568
0.159126
0.180033
0.199877
0.219116
0.237507
0.255281
0.272498
0.28921
0.305457
0.321267
0.336662
0.351655
0.366257
0.380474
0.394308
0.407761
0.420834
0.433525
0.445832
0.457754
0.469289
0.480436
0.491194
0.501562
0.511539
0.521127
0.530328
0.539142
0.547572
0.555623
0.563297
0.5706
0.577536
0.584112
0.590333
0.596206
0.601738
0.606935
0.611805
0.616353
0.62063
0.624631
0.628339
0.63176
0.6349
0.637771
0.640381
0.642738
0.644852
0.646732
0.648386
0.649823
0.65105
0.652075
0.652907
0.653553
0.654019
0.654313
0.654442
0.654413
0.654231
0.653903
0.653434
0.652831
0.652098
0.651241
0.650265
0.649174
0.647972
0.646666
0.645257
0.643751
0.64215
0.640459
0.638681
0.636819
0.634876
0.632854
0.630757
0.628587
0.626346
0.624036
0.62166
0.61922
0.616716
0.614152
0.611529
0.608847
0.606109
0.603315
0.600467
0.597565
0.594611
0.591606
0.58855
0.585443
0.582287
0.579082
0.575829
0.572527
0.569177
0.565779
0.562333
0.55884
0.5553
0.551712
0.548076
0.544393
0.540663
0.536884
0.533057
0.529182
0.525259
0.521287
0.517266
0.513195
0.509075
0.504905
0.500685
0.496414
0.492092
0.487719
0.483295
0.478819
0.474292
0.469712
0.46508
0.460395
0.455658
0.450868
0.446025
0.44113
0.436182
0.431182
0.426129
0.421023
0.415866
0.410657
0.405396
0.400085
0.394723
0.389312
0.383851
0.378341
0.372784
0.367179
0.361528
0.355832
0.350091
0.344306
0.33848
0.332611
0.326703
0.320755
0.314769
0.308746
0.302688
0.296594
0.290468
0.284308
0.278118
0.271896
0.265645
0.259366
0.253058
0.246722
0.240358
0.233968
0.227549
0.221102
0.214627
0.20812
0.201582
0.19501
0.1884
0.181751
0.175066
0.168347
0.161631
0.154852
0.147979
0.141002
0.133896
0.126639
0.119197
0.111528
0.103578
0.0953264
0.0867119
0.0775371
0.0675862
0.0564916
0.0435418
0.027363
0.0154669
0.056174
0.142351
0.203419
0.257305
0.306754
0.353333
0.39731
0.439322
0.479761
0.518846
0.55676
0.593634
0.629562
0.664611
0.69883
0.732249
0.764887
0.796754
0.827853
0.858181
0.887731
0.916495
0.944463
0.971624
0.997967
1.02348
1.04816
1.07199
1.09497
1.1171
1.13837
1.15879
1.17835
1.19705
1.21491
1.23194
1.24813
1.2635
1.27806
1.29183
1.30483
1.31705
1.32853
1.33927
1.3493
1.35863
1.3673
1.37531
1.38269
1.38945
1.39562
1.40122
1.40626
1.41076
1.41475
1.41824
1.42125
1.4238
1.42591
1.42759
1.42887
1.42975
1.43025
1.43039
1.43018
1.42964
1.42877
1.4276
1.42614
1.42439
1.42237
1.42009
1.41756
1.4148
1.4118
1.40858
1.40515
1.40151
1.39768
1.39365
1.38945
1.38507
1.38052
1.37581
1.37094
1.36592
1.36075
1.35543
1.34998
1.34439
1.33868
1.33283
1.32686
1.32077
1.31456
1.30824
1.3018
1.29525
1.28858
1.28181
1.27494
1.26795
1.26087
1.25368
1.24638
1.23899
1.23149
1.22389
1.21619
1.20839
1.20049
1.19249
1.18439
1.17618
1.16788
1.15947
1.15096
1.14235
1.13363
1.12481
1.11589
1.10686
1.09772
1.08848
1.07913
1.06968
1.06011
1.05044
1.04066
1.03076
1.02076
1.01065
1.00043
0.990091
0.979645
0.969088
0.95842
0.947641
0.936752
0.925752
0.914643
0.903424
0.892097
0.880662
0.869121
0.857474
0.845723
0.833869
0.821914
0.809859
0.797706
0.785458
0.773115
0.760681
0.748156
0.735545
0.722849
0.71007
0.697211
0.684274
0.671263
0.65818
0.645026
0.631805
0.618519
0.60517
0.59176
0.578291
0.564765
0.551183
0.537546
0.523855
0.510109
0.496308
0.482451
0.468535
0.454559
0.440517
0.426405
0.412215
0.397941
0.383573
0.369099
0.354505
0.33976
0.324827
0.309704
0.294341
0.278691
0.262696
0.246277
0.229334
0.211726
0.193319
0.173881
0.153081
0.130428
0.105052
0.074342
0.0280622
0.0561772
0.142354
0.20342
0.257306
0.306755
0.353335
0.397311
0.439323
0.479761
0.518847
0.556761
0.593635
0.629562
0.664612
0.69883
0.732249
0.764887
0.796754
0.827853
0.858181
0.887731
0.916495
0.944463
0.971624
0.997966
1.02348
1.04816
1.07199
1.09497
1.1171
1.13837
1.15879
1.17835
1.19705
1.21491
1.23193
1.24813
1.2635
1.27806
1.29183
1.30482
1.31705
1.32853
1.33927
1.3493
1.35863
1.36729
1.37531
1.38269
1.38945
1.39562
1.40122
1.40626
1.41076
1.41475
1.41824
1.42125
1.4238
1.42591
1.42759
1.42887
1.42974
1.43025
1.43039
1.43018
1.42963
1.42877
1.4276
1.42614
1.42439
1.42237
1.42009
1.41756
1.41479
1.4118
1.40858
1.40514
1.40151
1.39767
1.39365
1.38945
1.38507
1.38052
1.37581
1.37094
1.36591
1.36074
1.35543
1.34998
1.34439
1.33868
1.33283
1.32686
1.32077
1.31456
1.30824
1.3018
1.29524
1.28858
1.28181
1.27494
1.26795
1.26087
1.25368
1.24638
1.23899
1.23149
1.22389
1.21619
1.20839
1.20049
1.19249
1.18439
1.17618
1.16788
1.15947
1.15096
1.14235
1.13363
1.12481
1.11589
1.10686
1.09772
1.08848
1.07913
1.06967
1.06011
1.05044
1.04065
1.03076
1.02076
1.01065
1.00042
0.990089
0.979644
0.969087
0.958419
0.94764
0.936751
0.925751
0.914642
0.903423
0.892096
0.880661
0.86912
0.857473
0.845722
0.833868
0.821913
0.809858
0.797705
0.785457
0.773114
0.76068
0.748156
0.735544
0.722848
0.710069
0.69721
0.684274
0.671262
0.658179
0.645025
0.631804
0.618518
0.605169
0.591759
0.578291
0.564765
0.551183
0.537546
0.523854
0.510108
0.496307
0.48245
0.468535
0.454558
0.440516
0.426404
0.412215
0.397941
0.383572
0.369099
0.354505
0.33976
0.324827
0.309704
0.29434
0.278691
0.262695
0.246277
0.229334
0.211726
0.193319
0.17388
0.153081
0.130428
0.105052
0.0743386
0.0280582
0.0850004
0.203137
0.279805
0.345224
0.405476
0.462483
0.516978
0.569423
0.620131
0.669318
0.717144
0.763734
0.80918
0.85355
0.896893
0.93924
0.980611
1.02101
1.06045
1.09892
1.13641
1.17291
1.20841
1.24289
1.27633
1.30873
1.34006
1.37033
1.39952
1.42763
1.45465
1.48058
1.50542
1.52917
1.55185
1.57346
1.59401
1.61352
1.63199
1.64945
1.66592
1.68141
1.69594
1.70954
1.72222
1.73402
1.74496
1.75507
1.76437
1.77288
1.78064
1.78765
1.79396
1.79958
1.80454
1.80887
1.81258
1.81571
1.81826
1.82028
1.82177
1.82275
1.82326
1.8233
1.8229
1.82207
1.82084
1.81921
1.81721
1.81485
1.81214
1.8091
1.80574
1.80208
1.79813
1.79389
1.78939
1.78463
1.77961
1.77436
1.76888
1.76318
1.75726
1.75113
1.74481
1.73829
1.73159
1.72471
1.71765
1.71043
1.70303
1.69548
1.68778
1.67992
1.67191
1.66375
1.65546
1.64702
1.63844
1.62973
1.62089
1.61192
1.60281
1.59357
1.58421
1.57472
1.5651
1.55536
1.54549
1.53549
1.52537
1.51513
1.50476
1.49426
1.48363
1.47288
1.462
1.451
1.43986
1.4286
1.41721
1.40568
1.39403
1.38224
1.37032
1.35826
1.34607
1.33375
1.32129
1.30869
1.29596
1.28309
1.27008
1.25694
1.24366
1.23024
1.21668
1.20298
1.18915
1.17518
1.16107
1.14683
1.13245
1.11795
1.10331
1.08853
1.07363
1.05861
1.04346
1.02818
1.01279
0.997271
0.981641
0.965898
0.950045
0.934085
0.91802
0.901854
0.885589
0.86923
0.852779
0.836239
0.819614
0.802907
0.78612
0.769257
0.75232
0.735311
0.718232
0.701086
0.683873
0.666594
0.649249
0.631838
0.614358
0.596808
0.579185
0.561483
0.543696
0.525816
0.507835
0.489738
0.471513
0.453138
0.434588
0.41583
0.396833
0.377547
0.357931
0.33792
0.317428
0.296352
0.274552
0.251843
0.228007
0.202678
0.175269
0.144568
0.10686
0.0455082
0.0850018
0.203138
0.279806
0.345225
0.405476
0.462483
0.516978
0.569423
0.620131
0.669317
0.717144
0.763734
0.80918
0.85355
0.896893
0.939239
0.98061
1.02101
1.06045
1.09892
1.13641
1.17291
1.20841
1.24288
1.27633
1.30872
1.34006
1.37033
1.39952
1.42763
1.45465
1.48058
1.50542
1.52917
1.55185
1.57346
1.59401
1.61352
1.63199
1.64945
1.66592
1.6814
1.69594
1.70953
1.72222
1.73402
1.74496
1.75507
1.76437
1.77288
1.78063
1.78765
1.79396
1.79958
1.80454
1.80887
1.81258
1.81571
1.81826
1.82028
1.82176
1.82275
1.82326
1.8233
1.8229
1.82207
1.82084
1.81921
1.81721
1.81485
1.81214
1.8091
1.80574
1.80208
1.79813
1.79389
1.78939
1.78462
1.77961
1.77436
1.76888
1.76317
1.75726
1.75113
1.74481
1.73829
1.73159
1.72471
1.71765
1.71042
1.70303
1.69548
1.68777
1.67991
1.67191
1.66375
1.65545
1.64702
1.63844
1.62973
1.62089
1.61191
1.60281
1.59357
1.58421
1.57472
1.5651
1.55536
1.54549
1.53549
1.52537
1.51513
1.50475
1.49426
1.48363
1.47288
1.462
1.451
1.43986
1.4286
1.41721
1.40568
1.39403
1.38224
1.37032
1.35826
1.34607
1.33375
1.32129
1.30869
1.29596
1.28309
1.27008
1.25694
1.24366
1.23023
1.21668
1.20298
1.18915
1.17518
1.16107
1.14683
1.13245
1.11794
1.1033
1.08853
1.07363
1.05861
1.04345
1.02818
1.01278
0.99727
0.98164
0.965897
0.950044
0.934084
0.918019
0.901853
0.885588
0.869229
0.852778
0.836238
0.819613
0.802906
0.786119
0.769256
0.752319
0.73531
0.718232
0.701085
0.683872
0.666593
0.649248
0.631837
0.614357
0.596808
0.579184
0.561482
0.543695
0.525816
0.507834
0.489738
0.471512
0.453137
0.434587
0.41583
0.396833
0.377547
0.35793
0.337919
0.317427
0.296351
0.274552
0.251843
0.228006
0.202678
0.175269
0.144569
0.10686
0.0455044
0.109381
0.254951
0.344138
0.418192
0.486059
0.550319
0.611971
0.671508
0.729222
0.785306
0.839904
0.893123
0.945047
0.995739
1.04525
1.0936
1.14083
1.18693
1.23192
1.27579
1.31854
1.36015
1.40061
1.4399
1.47802
1.51494
1.55066
1.58516
1.61843
1.65047
1.68128
1.71084
1.73916
1.76625
1.79211
1.81675
1.84018
1.86242
1.88348
1.90339
1.92215
1.93981
1.95636
1.97185
1.9863
1.99973
2.01218
2.02368
2.03424
2.0439
2.0527
2.06064
2.06778
2.07412
2.07971
2.08457
2.08872
2.0922
2.09503
2.09723
2.09883
2.09985
2.10032
2.10025
2.09968
2.09862
2.09709
2.09511
2.09269
2.08987
2.08664
2.08304
2.07907
2.07475
2.0701
2.06512
2.05984
2.05426
2.04839
2.04225
2.03584
2.02918
2.02228
2.01513
2.00777
2.00018
1.99237
1.98437
1.97616
1.96776
1.95917
1.9504
1.94145
1.93233
1.92303
1.91357
1.90395
1.89417
1.88424
1.87415
1.86391
1.85351
1.84297
1.83229
1.82145
1.81048
1.79936
1.78809
1.77669
1.76514
1.75345
1.74162
1.72964
1.71753
1.70527
1.69287
1.68032
1.66763
1.65479
1.64181
1.62868
1.6154
1.60198
1.5884
1.57468
1.5608
1.54678
1.5326
1.51827
1.50378
1.48914
1.47435
1.4594
1.44429
1.42903
1.41362
1.39805
1.38232
1.36644
1.35041
1.33422
1.31788
1.30139
1.28475
1.26797
1.25103
1.23395
1.21673
1.19937
1.18187
1.16424
1.14647
1.12857
1.11055
1.0924
1.07413
1.05574
1.03724
1.01864
0.999921
0.981104
0.962188
0.943176
0.924072
0.90488
0.885602
0.866241
0.846801
0.827283
0.807689
0.788022
0.768281
0.748467
0.728579
0.708617
0.688577
0.668456
0.64825
0.627951
0.607551
0.587041
0.566408
0.545635
0.524702
0.503585
0.482253
0.460671
0.438796
0.416575
0.393943
0.370817
0.347102
0.322657
0.29729
0.27076
0.242658
0.212252
0.177903
0.13449
0.0593049
0.109382
0.254952
0.344139
0.418192
0.486059
0.550319
0.611971
0.671507
0.729221
0.785306
0.839904
0.893123
0.945046
0.995738
1.04525
1.0936
1.14082
1.18693
1.23192
1.27579
1.31854
1.36015
1.40061
1.4399
1.47802
1.51494
1.55066
1.58516
1.61843
1.65047
1.68128
1.71084
1.73916
1.76625
1.79211
1.81675
1.84018
1.86242
1.88348
1.90339
1.92215
1.9398
1.95636
1.97185
1.9863
1.99973
2.01218
2.02367
2.03424
2.0439
2.05269
2.06064
2.06778
2.07412
2.07971
2.08457
2.08872
2.0922
2.09503
2.09723
2.09883
2.09985
2.10032
2.10025
2.09968
2.09862
2.09709
2.0951
2.09269
2.08986
2.08664
2.08304
2.07907
2.07475
2.0701
2.06512
2.05984
2.05426
2.04839
2.04225
2.03584
2.02918
2.02227
2.01513
2.00776
2.00017
1.99237
1.98437
1.97616
1.96776
1.95917
1.9504
1.94145
1.93232
1.92303
1.91357
1.90395
1.89417
1.88424
1.87415
1.8639
1.85351
1.84297
1.83228
1.82145
1.81048
1.79936
1.78809
1.77669
1.76514
1.75345
1.74162
1.72964
1.71753
1.70527
1.69286
1.68032
1.66763
1.65479
1.64181
1.62868
1.6154
1.60198
1.5884
1.57468
1.5608
1.54678
1.5326
1.51826
1.50378
1.48914
1.47434
1.4594
1.44429
1.42903
1.41362
1.39804
1.38232
1.36644
1.35041
1.33422
1.31788
1.30139
1.28475
1.26797
1.25103
1.23395
1.21673
1.19937
1.18187
1.16423
1.14647
1.12857
1.11054
1.0924
1.07413
1.05574
1.03724
1.01864
0.99992
0.981103
0.962187
0.943175
0.924071
0.904879
0.885601
0.86624
0.8468
0.827282
0.807689
0.788021
0.76828
0.748466
0.728579
0.708616
0.688576
0.668456
0.648249
0.62795
0.607551
0.587041
0.566407
0.545634
0.524702
0.503585
0.482253
0.460671
0.438795
0.416575
0.393943
0.370817
0.347102
0.322657
0.29729
0.27076
0.242658
0.212253
0.177903
0.134491
0.0593032
0.13125
0.301879
0.403099
0.485335
0.559969
0.630404
0.697956
0.763231
0.82655
0.888109
0.94804
1.00644
1.0634
1.11897
1.17319
1.22611
1.27775
1.32813
1.37725
1.42513
1.47174
1.5171
1.56119
1.604
1.64552
1.68573
1.72463
1.7622
1.79844
1.83333
1.86688
1.89908
1.92993
1.95945
1.98762
2.01448
2.04002
2.06426
2.08722
2.10892
2.12938
2.14862
2.16667
2.18356
2.19931
2.21395
2.22752
2.24004
2.25154
2.26206
2.27162
2.28026
2.28801
2.29489
2.30094
2.30619
2.31067
2.31441
2.31743
2.31976
2.32143
2.32247
2.3229
2.32275
2.32203
2.32077
2.319
2.31674
2.314
2.3108
2.30717
2.30312
2.29867
2.29383
2.28862
2.28306
2.27716
2.27093
2.26439
2.25754
2.2504
2.24299
2.2353
2.22735
2.21916
2.21072
2.20204
2.19314
2.18402
2.17469
2.16515
2.15541
2.14548
2.13535
2.12504
2.11455
2.10388
2.09303
2.08201
2.07083
2.05947
2.04795
2.03627
2.02443
2.01244
2.00028
1.98796
1.97549
1.96287
1.95009
1.93715
1.92406
1.91081
1.89741
1.88385
1.87013
1.85626
1.84223
1.82805
1.8137
1.79919
1.78453
1.7697
1.75471
1.73956
1.72424
1.70875
1.69311
1.67729
1.66131
1.64516
1.62884
1.61236
1.5957
1.57888
1.56189
1.54473
1.5274
1.50991
1.49224
1.47442
1.45642
1.43827
1.41995
1.40147
1.38283
1.36403
1.34508
1.32598
1.30673
1.28733
1.26779
1.2481
1.22828
1.20833
1.18824
1.16803
1.1477
1.12724
1.10668
1.086
1.06521
1.04432
1.02332
1.00224
0.981054
0.959783
0.938426
0.916983
0.895459
0.873853
0.852168
0.830404
0.808561
0.786637
0.764629
0.742536
0.720351
0.698069
0.675682
0.653179
0.630548
0.607774
0.584836
0.561712
0.538373
0.514785
0.490906
0.466685
0.442059
0.416947
0.391247
0.364816
0.337457
0.308879
0.278615
0.245753
0.208206
0.159541
0.0714996
0.131252
0.30188
0.4031
0.485335
0.559969
0.630404
0.697956
0.763231
0.826549
0.888108
0.948039
1.00644
1.0634
1.11896
1.17319
1.22611
1.27775
1.32813
1.37725
1.42512
1.47174
1.5171
1.56119
1.604
1.64552
1.68573
1.72463
1.7622
1.79844
1.83333
1.86688
1.89908
1.92993
1.95944
1.98762
2.01447
2.04001
2.06426
2.08722
2.10892
2.12937
2.14862
2.16667
2.18356
2.19931
2.21395
2.22751
2.24004
2.25154
2.26206
2.27162
2.28026
2.28801
2.29489
2.30094
2.30619
2.31067
2.31441
2.31743
2.31976
2.32143
2.32247
2.3229
2.32274
2.32203
2.32077
2.319
2.31674
2.314
2.3108
2.30717
2.30312
2.29867
2.29383
2.28862
2.28306
2.27716
2.27093
2.26438
2.25754
2.2504
2.24298
2.2353
2.22735
2.21915
2.21072
2.20204
2.19314
2.18402
2.17469
2.16515
2.15541
2.14548
2.13535
2.12504
2.11455
2.10388
2.09303
2.08201
2.07082
2.05947
2.04795
2.03627
2.02443
2.01243
2.00028
1.98796
1.97549
1.96287
1.95008
1.93715
1.92406
1.91081
1.89741
1.88385
1.87013
1.85626
1.84223
1.82805
1.8137
1.79919
1.78453
1.7697
1.75471
1.73955
1.72424
1.70875
1.69311
1.67729
1.66131
1.64516
1.62884
1.61236
1.5957
1.57888
1.56189
1.54473
1.5274
1.50991
1.49224
1.47442
1.45642
1.43827
1.41995
1.40147
1.38283
1.36403
1.34508
1.32598
1.30673
1.28733
1.26779
1.2481
1.22828
1.20833
1.18824
1.16803
1.1477
1.12724
1.10667
1.08599
1.06521
1.04431
1.02332
1.00223
0.981054
0.959783
0.938425
0.916983
0.895458
0.873853
0.852168
0.830404
0.80856
0.786636
0.764629
0.742535
0.720351
0.698069
0.675681
0.653178
0.630548
0.607773
0.584836
0.561712
0.538373
0.514785
0.490905
0.466685
0.442059
0.416947
0.391247
0.364816
0.337457
0.308879
0.278615
0.245753
0.208206
0.159541
0.0714992
0.151445
0.346209
0.459179
0.549501
0.630666
0.706865
0.779758
0.850101
0.918279
0.984512
1.04894
1.11167
1.17278
1.23232
1.29036
1.34693
1.40207
1.4558
1.50814
1.5591
1.60868
1.6569
1.70373
1.74919
1.79326
1.83593
1.8772
1.91706
1.9555
1.99251
2.02811
2.06227
2.09501
2.12634
2.15625
2.18476
2.21188
2.23763
2.26202
2.28507
2.30682
2.32727
2.34646
2.36441
2.38116
2.39673
2.41115
2.42446
2.43669
2.44787
2.45803
2.46721
2.47543
2.48273
2.48915
2.49471
2.49944
2.50338
2.50656
2.509
2.51073
2.51178
2.51218
2.51195
2.51112
2.50972
2.50776
2.50527
2.50227
2.49878
2.49482
2.49041
2.48557
2.48031
2.47466
2.46863
2.46223
2.45547
2.44838
2.44096
2.43323
2.4252
2.41688
2.40828
2.3994
2.39027
2.38088
2.37126
2.36139
2.35129
2.34097
2.33044
2.31969
2.30874
2.29759
2.28625
2.27471
2.26298
2.25107
2.23898
2.2267
2.21425
2.20163
2.18884
2.17587
2.16273
2.14943
2.13596
2.12232
2.10851
2.09454
2.0804
2.0661
2.05162
2.03699
2.02218
2.00721
1.99207
1.97675
1.96127
1.94562
1.9298
1.9138
1.89763
1.88129
1.86477
1.84807
1.8312
1.81415
1.79693
1.77952
1.76194
1.74417
1.72623
1.7081
1.6898
1.67132
1.65266
1.63382
1.6148
1.5956
1.57623
1.55669
1.53697
1.51708
1.49703
1.4768
1.45641
1.43586
1.41515
1.39428
1.37326
1.35209
1.33077
1.30931
1.28771
1.26598
1.24411
1.22212
1.2
1.17776
1.15541
1.13294
1.11037
1.08769
1.06492
1.04204
1.01907
0.996014
0.972865
0.949628
0.926306
0.902897
0.879404
0.855823
0.832154
0.808393
0.784536
0.760577
0.736508
0.712321
0.688002
0.663538
0.638911
0.614097
0.589071
0.5638
0.538244
0.512353
0.486064
0.459297
0.431944
0.403854
0.37481
0.344468
0.312269
0.27712
0.236509
0.182797
0.0826747
0.151447
0.34621
0.459179
0.549501
0.630665
0.706865
0.779757
0.8501
0.918278
0.984511
1.04894
1.11167
1.17278
1.23232
1.29036
1.34693
1.40207
1.4558
1.50814
1.5591
1.60868
1.65689
1.70373
1.74919
1.79326
1.83593
1.8772
1.91706
1.9555
1.99251
2.02811
2.06227
2.09501
2.12634
2.15625
2.18476
2.21188
2.23763
2.26202
2.28507
2.30681
2.32727
2.34646
2.36441
2.38116
2.39673
2.41115
2.42446
2.43669
2.44787
2.45803
2.46721
2.47543
2.48273
2.48915
2.49471
2.49944
2.50338
2.50655
2.50899
2.51073
2.51178
2.51218
2.51195
2.51112
2.50972
2.50776
2.50527
2.50227
2.49878
2.49482
2.49041
2.48557
2.48031
2.47466
2.46863
2.46223
2.45547
2.44838
2.44096
2.43323
2.4252
2.41688
2.40828
2.3994
2.39027
2.38088
2.37125
2.36139
2.35129
2.34097
2.33044
2.31969
2.30874
2.29759
2.28625
2.27471
2.26298
2.25107
2.23897
2.2267
2.21425
2.20163
2.18884
2.17587
2.16273
2.14943
2.13596
2.12232
2.10851
2.09454
2.0804
2.06609
2.05162
2.03699
2.02218
2.00721
1.99206
1.97675
1.96127
1.94562
1.9298
1.9138
1.89763
1.88129
1.86477
1.84807
1.8312
1.81415
1.79693
1.77952
1.76194
1.74417
1.72623
1.7081
1.6898
1.67132
1.65266
1.63382
1.6148
1.5956
1.57623
1.55669
1.53697
1.51708
1.49703
1.4768
1.45641
1.43586
1.41515
1.39428
1.37326
1.35209
1.33077
1.30931
1.28771
1.26598
1.24411
1.22212
1.2
1.17776
1.15541
1.13294
1.11037
1.08769
1.06492
1.04204
1.01907
0.996013
0.972864
0.949628
0.926305
0.902897
0.879403
0.855823
0.832153
0.808392
0.784535
0.760576
0.736508
0.71232
0.688002
0.663538
0.63891
0.614097
0.589071
0.5638
0.538244
0.512353
0.486064
0.459297
0.431944
0.403854
0.37481
0.344468
0.312269
0.27712
0.236509
0.182797
0.0826746
0.170879
0.388789
0.51351
0.611938
0.699578
0.781372
0.859322
0.934353
1.00694
1.07733
1.14571
1.21217
1.27682
1.33971
1.40092
1.46048
1.51845
1.57487
1.62975
1.68313
1.73501
1.78541
1.83434
1.8818
1.92778
1.97229
2.01533
2.05688
2.09696
2.13554
2.17265
2.20827
2.24241
2.27507
2.30627
2.33601
2.36431
2.39119
2.41665
2.44073
2.46344
2.4848
2.50486
2.52362
2.54113
2.55741
2.5725
2.58642
2.59921
2.61091
2.62153
2.63113
2.63973
2.64737
2.65407
2.65988
2.66482
2.66893
2.67223
2.67476
2.67654
2.67761
2.678
2.67772
2.67681
2.67529
2.67318
2.67051
2.66731
2.66359
2.65937
2.65468
2.64953
2.64394
2.63793
2.63151
2.62471
2.61753
2.60999
2.60211
2.5939
2.58536
2.57652
2.56738
2.55795
2.54825
2.53828
2.52804
2.51756
2.50683
2.49587
2.48467
2.47325
2.46161
2.44976
2.4377
2.42544
2.41298
2.40032
2.38746
2.37442
2.36119
2.34777
2.33417
2.32039
2.30643
2.29229
2.27797
2.26348
2.24881
2.23396
2.21894
2.20374
2.18836
2.17281
2.15708
2.14117
2.12508
2.10882
2.09237
2.07575
2.05894
2.04195
2.02478
2.00742
1.98988
1.97215
1.95424
1.93614
1.91785
1.89938
1.88071
1.86186
1.84282
1.82358
1.80416
1.78455
1.76475
1.74476
1.72459
1.70423
1.68368
1.66295
1.64204
1.62095
1.59968
1.57823
1.55661
1.53482
1.51286
1.49074
1.46845
1.446
1.4234
1.40065
1.37775
1.3547
1.33151
1.30819
1.28474
1.26116
1.23745
1.21363
1.18969
1.16564
1.14147
1.11721
1.09284
1.06837
1.04381
1.01915
0.994394
0.969548
0.944609
0.919577
0.894449
0.869224
0.843896
0.818462
0.792914
0.767242
0.741437
0.715485
0.689369
0.663067
0.636555
0.609802
0.582768
0.555404
0.527646
0.499409
0.470579
0.440991
0.410399
0.378413
0.344363
0.306981
0.263352
0.204727
0.0931268
0.170881
0.38879
0.513511
0.611938
0.699577
0.781371
0.859321
0.934352
1.00693
1.07733
1.14571
1.21217
1.27682
1.33971
1.40092
1.46048
1.51845
1.57487
1.62975
1.68312
1.73501
1.78541
1.83434
1.8818
1.92778
1.97229
2.01533
2.05688
2.09695
2.13554
2.17265
2.20827
2.24241
2.27507
2.30627
2.33601
2.36431
2.39118
2.41665
2.44072
2.46343
2.4848
2.50486
2.52362
2.54113
2.55741
2.5725
2.58642
2.59921
2.6109
2.62153
2.63113
2.63973
2.64737
2.65407
2.65988
2.66482
2.66893
2.67223
2.67476
2.67654
2.67761
2.67799
2.67772
2.67681
2.67529
2.67318
2.67051
2.66731
2.66359
2.65937
2.65468
2.64953
2.64394
2.63793
2.63151
2.62471
2.61753
2.60999
2.60211
2.5939
2.58536
2.57652
2.56738
2.55795
2.54825
2.53827
2.52804
2.51756
2.50683
2.49586
2.48467
2.47325
2.46161
2.44976
2.4377
2.42544
2.41298
2.40032
2.38746
2.37442
2.36119
2.34777
2.33417
2.32039
2.30643
2.29229
2.27797
2.26348
2.24881
2.23396
2.21894
2.20373
2.18836
2.1728
2.15707
2.14117
2.12508
2.10882
2.09237
2.07575
2.05894
2.04195
2.02478
2.00742
1.98988
1.97215
1.95424
1.93614
1.91785
1.89938
1.88071
1.86186
1.84281
1.82358
1.80416
1.78455
1.76475
1.74476
1.72459
1.70423
1.68368
1.66295
1.64204
1.62095
1.59968
1.57823
1.55661
1.53482
1.51286
1.49073
1.46845
1.446
1.4234
1.40065
1.37774
1.3547
1.33151
1.30819
1.28474
1.26116
1.23745
1.21363
1.18969
1.16563
1.14147
1.11721
1.09284
1.06837
1.04381
1.01915
0.994394
0.969548
0.944609
0.919576
0.894449
0.869223
0.843896
0.818462
0.792913
0.767242
0.741437
0.715485
0.689368
0.663067
0.636555
0.609802
0.582768
0.555404
0.527646
0.499409
0.470579
0.440991
0.410399
0.378413
0.344363
0.306981
0.263353
0.204727
0.0931268
0.190263
0.430509
0.566831
0.673352
0.767445
0.854747
0.937586
1.01706
1.09374
1.16794
1.23985
1.30962
1.37734
1.4431
1.50697
1.56903
1.62932
1.68789
1.74479
1.80006
1.85371
1.90578
1.95628
2.00522
2.05262
2.09848
2.14279
2.18557
2.22682
2.26654
2.30472
2.34138
2.37652
2.41015
2.44227
2.4729
2.50206
2.52974
2.55599
2.58081
2.60423
2.62627
2.64697
2.66634
2.68441
2.70123
2.71681
2.7312
2.74442
2.7565
2.76749
2.77742
2.78631
2.79421
2.80114
2.80715
2.81225
2.8165
2.8199
2.82251
2.82435
2.82544
2.82581
2.8255
2.82453
2.82293
2.82072
2.81792
2.81456
2.81066
2.80624
2.80132
2.79593
2.79008
2.78378
2.77707
2.76994
2.76242
2.75453
2.74628
2.73767
2.72873
2.71946
2.70988
2.7
2.68983
2.67937
2.66864
2.65765
2.6464
2.6349
2.62316
2.61118
2.59897
2.58654
2.57388
2.56101
2.54793
2.53464
2.52115
2.50746
2.49357
2.47949
2.46521
2.45074
2.43608
2.42123
2.4062
2.39098
2.37557
2.35998
2.3442
2.32824
2.31209
2.29576
2.27924
2.26253
2.24564
2.22856
2.21129
2.19383
2.17618
2.15834
2.14031
2.12208
2.10367
2.08505
2.06625
2.04724
2.02804
2.00865
1.98905
1.96926
1.94927
1.92908
1.90869
1.88811
1.86733
1.84635
1.82518
1.80381
1.78225
1.76049
1.73855
1.71641
1.69409
1.67158
1.6489
1.62603
1.60298
1.57976
1.55637
1.53282
1.5091
1.48521
1.46118
1.43699
1.41265
1.38816
1.36354
1.33878
1.31388
1.28886
1.26371
1.23844
1.21306
1.18756
1.16194
1.13622
1.1104
1.08447
1.05844
1.03231
1.00607
0.979736
0.953298
0.926754
0.900101
0.873334
0.846448
0.819435
0.792283
0.764981
0.737513
0.70986
0.681995
0.653891
0.625506
0.596791
0.567678
0.538079
0.507867
0.476859
0.444778
0.41118
0.375297
0.335683
0.289053
0.225644
0.103102
0.190265
0.430511
0.566831
0.673352
0.767445
0.854746
0.937585
1.01706
1.09374
1.16794
1.23985
1.30962
1.37734
1.4431
1.50697
1.56903
1.62932
1.68789
1.74479
1.80005
1.85371
1.90578
1.95628
2.00522
2.05262
2.09848
2.14279
2.18557
2.22682
2.26653
2.30472
2.34138
2.37652
2.41015
2.44227
2.4729
2.50205
2.52974
2.55599
2.58081
2.60423
2.62627
2.64697
2.66634
2.68441
2.70123
2.71681
2.7312
2.74442
2.7565
2.76749
2.77742
2.78631
2.79421
2.80114
2.80714
2.81225
2.81649
2.8199
2.82251
2.82434
2.82544
2.82581
2.8255
2.82453
2.82293
2.82072
2.81792
2.81456
2.81066
2.80624
2.80132
2.79593
2.79008
2.78378
2.77707
2.76994
2.76242
2.75453
2.74627
2.73767
2.72873
2.71946
2.70988
2.7
2.68983
2.67937
2.66864
2.65765
2.6464
2.6349
2.62316
2.61118
2.59897
2.58653
2.57388
2.56101
2.54793
2.53464
2.52115
2.50746
2.49357
2.47949
2.46521
2.45074
2.43608
2.42123
2.4062
2.39098
2.37557
2.35998
2.3442
2.32824
2.31209
2.29576
2.27924
2.26253
2.24564
2.22856
2.21129
2.19383
2.17618
2.15834
2.14031
2.12208
2.10367
2.08505
2.06625
2.04724
2.02804
2.00864
1.98905
1.96926
1.94927
1.92908
1.90869
1.88811
1.86733
1.84635
1.82518
1.80381
1.78225
1.76049
1.73855
1.71641
1.69409
1.67158
1.6489
1.62603
1.60298
1.57976
1.55637
1.53282
1.5091
1.48521
1.46118
1.43699
1.41265
1.38816
1.36354
1.33877
1.31388
1.28886
1.26371
1.23844
1.21306
1.18756
1.16194
1.13622
1.1104
1.08447
1.05844
1.03231
1.00607
0.979736
0.953297
0.926753
0.9001
0.873334
0.846448
0.819435
0.792283
0.764981
0.737513
0.709859
0.681995
0.65389
0.625506
0.59679
0.567678
0.538079
0.507867
0.476859
0.444778
0.41118
0.375298
0.335683
0.289053
0.225644
0.103102
0.20934
0.471735
0.619574
0.734183
0.834719
0.92747
1.01508
1.09882
1.17935
1.25707
1.3322
1.40492
1.47534
1.54358
1.60972
1.67384
1.73603
1.79633
1.85482
1.91154
1.96653
2.01984
2.07149
2.1215
2.16989
2.21668
2.26188
2.3055
2.34754
2.38801
2.42692
2.46428
2.50009
2.53436
2.5671
2.59833
2.62806
2.65631
2.68308
2.70842
2.73233
2.75484
2.77598
2.79577
2.81425
2.83145
2.84739
2.86211
2.87564
2.88802
2.89927
2.90944
2.91856
2.92665
2.93376
2.93992
2.94516
2.94951
2.953
2.95568
2.95755
2.95867
2.95905
2.95872
2.95771
2.95605
2.95376
2.95087
2.94739
2.94336
2.93879
2.93371
2.92813
2.92208
2.91556
2.90861
2.90123
2.89345
2.88528
2.87673
2.86781
2.85854
2.84894
2.83901
2.82876
2.81821
2.80736
2.79623
2.78482
2.77315
2.76121
2.74901
2.73657
2.72389
2.71098
2.69783
2.68446
2.67086
2.65705
2.64303
2.6288
2.61436
2.59971
2.58486
2.56981
2.55457
2.53912
2.52348
2.50765
2.49162
2.47539
2.45898
2.44237
2.42556
2.40856
2.39137
2.37398
2.3564
2.33862
2.32065
2.30248
2.28411
2.26554
2.24677
2.2278
2.20862
2.18925
2.16967
2.14989
2.1299
2.10971
2.08932
2.06871
2.04791
2.02689
2.00567
1.98424
1.96261
1.94078
1.91874
1.89649
1.87405
1.8514
1.82856
1.80551
1.78228
1.75885
1.73522
1.71141
1.68742
1.66324
1.63889
1.61435
1.58965
1.56477
1.53973
1.51453
1.48917
1.46365
1.43799
1.41218
1.38623
1.36014
1.33391
1.30755
1.28107
1.25446
1.22773
1.20088
1.17392
1.14684
1.11965
1.09234
1.06493
1.0374
1.00977
0.982014
0.954145
0.926154
0.898036
0.869783
0.841387
0.812836
0.784114
0.755202
0.726078
0.696709
0.667056
0.637066
0.606669
0.575766
0.544219
0.511825
0.478275
0.44307
0.405353
0.36349
0.313862
0.245736
0.112661
0.209342
0.471737
0.619574
0.734183
0.834718
0.927469
1.01508
1.09882
1.17935
1.25707
1.3322
1.40492
1.47534
1.54358
1.60972
1.67384
1.73603
1.79633
1.85482
1.91154
1.96653
2.01984
2.07149
2.1215
2.16989
2.21668
2.26188
2.30549
2.34754
2.38801
2.42692
2.46428
2.50009
2.53436
2.5671
2.59833
2.62806
2.6563
2.68308
2.70841
2.73232
2.75484
2.77598
2.79577
2.81425
2.83145
2.84739
2.86211
2.87564
2.88802
2.89927
2.90944
2.91855
2.92665
2.93376
2.93992
2.94515
2.94951
2.953
2.95567
2.95755
2.95867
2.95905
2.95872
2.95771
2.95605
2.95376
2.95087
2.94739
2.94336
2.93879
2.93371
2.92813
2.92207
2.91556
2.90861
2.90123
2.89345
2.88528
2.87672
2.86781
2.85854
2.84894
2.83901
2.82876
2.81821
2.80736
2.79623
2.78482
2.77314
2.76121
2.74901
2.73657
2.72389
2.71098
2.69783
2.68446
2.67086
2.65705
2.64303
2.6288
2.61435
2.59971
2.58486
2.56981
2.55457
2.53912
2.52348
2.50765
2.49162
2.47539
2.45898
2.44237
2.42556
2.40856
2.39137
2.37398
2.3564
2.33862
2.32065
2.30248
2.2841
2.26553
2.24677
2.2278
2.20862
2.18925
2.16967
2.14989
2.1299
2.10971
2.08932
2.06871
2.04791
2.02689
2.00567
1.98424
1.96261
1.94078
1.91873
1.89649
1.87405
1.8514
1.82855
1.80551
1.78228
1.75884
1.73522
1.71141
1.68742
1.66324
1.63888
1.61435
1.58965
1.56477
1.53973
1.51453