/*--------------------------------*- C++ -*----------------------------------*\
  =========                 |
  \\      /  F ield         | OpenFOAM: The Open Source CFD Toolbox
   \\    /   O peration     | Website:  https://openfoam.org
    \\  /    A nd           | Version:  8
     \\/     M anipulation  |
\*---------------------------------------------------------------------------*/
FoamFile
{
    version     2.0;
    format      ascii;
    class       volVectorField;
    location    "2700";
    object      U;
}
// * * * * * * * * * * * * * * * * * * * * * * * * * * * * * * * * * * * * * //

dimensions      [0 1 -1 0 0 0 0];

internalField   nonuniform List<vector> 
48000
(
(-0.0168419 -1.21601e-06 0.0184338)
(-0.0325927 -4.64566e-07 0.015237)
(-0.0446563 -3.03915e-07 0.00653102)
(-0.0463469 -2.38979e-07 -0.00118187)
(-0.0411435 -2.20665e-07 -0.00659495)
(-0.031229 -2.17749e-07 -0.0101446)
(-0.0182148 -2.11215e-07 -0.0124176)
(-0.00327852 -2.0306e-07 -0.0137721)
(0.0128819 -1.86529e-07 -0.0143653)
(0.0293536 -1.6188e-07 -0.0144371)
(0.0460021 -1.41404e-07 -0.0142451)
(0.062464 -1.26555e-07 -0.0138799)
(0.0785684 -1.16135e-07 -0.013401)
(0.0941832 -1.09769e-07 -0.0128482)
(0.109218 -1.07994e-07 -0.0122486)
(0.12361 -1.08546e-07 -0.0116216)
(0.13732 -1.07161e-07 -0.010981)
(0.150321 -1.01994e-07 -0.010337)
(0.1626 -9.45202e-08 -0.00969702)
(0.174155 -8.62735e-08 -0.00906678)
(0.18499 -7.68389e-08 -0.00845049)
(0.195115 -6.5337e-08 -0.00785133)
(0.204543 -5.24492e-08 -0.00727166)
(0.213294 -4.03647e-08 -0.00671324)
(0.221389 -3.0915e-08 -0.00617731)
(0.22885 -2.44235e-08 -0.00566468)
(0.235702 -2.00755e-08 -0.00517585)
(0.241971 -1.71268e-08 -0.00471102)
(0.247684 -1.56343e-08 -0.00427018)
(0.252867 -1.6114e-08 -0.00385311)
(0.257548 -1.86078e-08 -0.00345943)
(0.261753 -2.22552e-08 -0.00308863)
(0.265509 -2.55561e-08 -0.00274008)
(0.268842 -2.72694e-08 -0.00241308)
(0.271777 -2.71228e-08 -0.00210685)
(0.274339 -2.58512e-08 -0.00182056)
(0.276552 -2.46024e-08 -0.00155335)
(0.278437 -2.40751e-08 -0.00130432)
(0.280017 -2.42521e-08 -0.00107258)
(0.281313 -2.45605e-08 -0.000857225)
(0.282343 -2.45167e-08 -0.000657362)
(0.283128 -2.41836e-08 -0.000472119)
(0.283684 -2.41759e-08 -0.000300653)
(0.284029 -2.52953e-08 -0.000142142)
(0.284177 -2.79851e-08 4.42693e-06)
(0.284144 -3.20456e-08 0.000139794)
(0.283944 -3.6799e-08 0.000264429)
(0.283589 -4.13963e-08 0.000379074)
(0.283092 -4.52321e-08 0.000484507)
(0.282463 -4.81047e-08 0.000581397)
(0.281714 -5.0132e-08 0.000670341)
(0.280853 -5.15102e-08 0.00075189)
(0.279891 -5.2226e-08 0.000826564)
(0.278836 -5.20033e-08 0.000894847)
(0.277695 -5.03756e-08 0.000957199)
(0.276476 -4.6951e-08 0.00101405)
(0.275186 -4.16303e-08 0.00106579)
(0.273832 -3.47848e-08 0.00111279)
(0.272418 -2.7155e-08 0.00115541)
(0.27095 -1.97347e-08 0.00119395)
(0.269435 -1.34203e-08 0.0012287)
(0.267875 -8.85539e-09 0.00125996)
(0.266276 -6.24742e-09 0.00128796)
(0.264642 -5.35081e-09 0.00131294)
(0.262976 -5.6078e-09 0.00133513)
(0.261283 -6.30453e-09 0.00135474)
(0.259564 -6.83565e-09 0.00137195)
(0.257824 -6.72715e-09 0.00138695)
(0.256064 -5.76962e-09 0.00139991)
(0.254289 -4.09443e-09 0.00141099)
(0.252499 -1.93192e-09 0.00142032)
(0.250697 3.35301e-10 0.00142805)
(0.248886 2.33982e-09 0.00143431)
(0.247066 3.8037e-09 0.00143922)
(0.24524 4.60131e-09 0.00144289)
(0.243409 4.70791e-09 0.00144542)
(0.241575 4.19964e-09 0.00144693)
(0.239739 3.28208e-09 0.0014475)
(0.237901 2.09802e-09 0.00144722)
(0.236064 8.4353e-10 0.00144619)
(0.234228 -3.82409e-10 0.00144448)
(0.232394 -1.5836e-09 0.00144217)
(0.230563 -2.77146e-09 0.00143933)
(0.228735 -4.00121e-09 0.00143604)
(0.226911 -5.40989e-09 0.00143235)
(0.225091 -7.06034e-09 0.00142833)
(0.223276 -9.05914e-09 0.00142403)
(0.221466 -1.14558e-08 0.00141952)
(0.219661 -1.42465e-08 0.00141485)
(0.217862 -1.74199e-08 0.00141005)
(0.216069 -2.0894e-08 0.00140519)
(0.214281 -2.45641e-08 0.00140031)
(0.212499 -2.83105e-08 0.00139544)
(0.210723 -3.19597e-08 0.00139063)
(0.208953 -3.53862e-08 0.00138593)
(0.207188 -3.84472e-08 0.00138136)
(0.205429 -4.096e-08 0.00137696)
(0.203675 -4.28465e-08 0.00137277)
(0.201926 -4.40306e-08 0.00136881)
(0.200181 -4.45103e-08 0.00136513)
(0.19844 -4.42856e-08 0.00136174)
(0.196704 -4.34519e-08 0.00135868)
(0.194971 -4.20603e-08 0.00135598)
(0.193241 -4.02957e-08 0.00135366)
(0.191513 -3.82474e-08 0.00135175)
(0.189787 -3.60468e-08 0.00135027)
(0.188063 -3.38614e-08 0.00134925)
(0.18634 -3.17675e-08 0.00134871)
(0.184617 -2.98486e-08 0.00134868)
(0.182893 -2.81316e-08 0.00134917)
(0.181169 -2.66239e-08 0.00135022)
(0.179443 -2.52838e-08 0.00135185)
(0.177714 -2.4054e-08 0.00135407)
(0.175982 -2.27938e-08 0.0013569)
(0.174246 -2.14423e-08 0.00136038)
(0.172505 -1.98508e-08 0.00136452)
(0.170759 -1.79548e-08 0.00136935)
(0.169006 -1.572e-08 0.00137487)
(0.167245 -1.3074e-08 0.00138113)
(0.165477 -1.00739e-08 0.00138812)
(0.163699 -6.73875e-09 0.00139589)
(0.161911 -3.12188e-09 0.00140443)
(0.160112 6.81542e-10 0.00141379)
(0.158301 4.53826e-09 0.00142397)
(0.156477 8.36072e-09 0.00143499)
(0.154638 1.20309e-08 0.00144688)
(0.152785 1.53851e-08 0.00145965)
(0.150915 1.84118e-08 0.00147331)
(0.149028 2.10692e-08 0.0014879)
(0.147122 2.3346e-08 0.00150341)
(0.145197 2.52496e-08 0.00151987)
(0.143251 2.67725e-08 0.00153729)
(0.141283 2.78537e-08 0.00155568)
(0.139292 2.83982e-08 0.00157507)
(0.137277 2.82611e-08 0.00159545)
(0.135237 2.72788e-08 0.00161685)
(0.133169 2.53448e-08 0.00163927)
(0.131075 2.2417e-08 0.00166273)
(0.128951 1.85374e-08 0.00168723)
(0.126797 1.39459e-08 0.00171276)
(0.124611 8.94701e-09 0.00173935)
(0.122393 3.95953e-09 0.00176697)
(0.120142 -6.20564e-10 0.00179564)
(0.117855 -4.52298e-09 0.00182533)
(0.115533 -7.66394e-09 0.00185605)
(0.113173 -1.02567e-08 0.00188778)
(0.110775 -1.27047e-08 0.00192052)
(0.108338 -1.53926e-08 0.00195423)
(0.105861 -1.85831e-08 0.00198891)
(0.103342 -2.22533e-08 0.00202452)
(0.100781 -2.59234e-08 0.00206103)
(0.0981773 -2.90758e-08 0.00209841)
(0.0955295 -3.11089e-08 0.0021366)
(0.092837 -3.18246e-08 0.00217555)
(0.0900991 -3.15048e-08 0.0022152)
(0.0873154 -3.08081e-08 0.00225549)
(0.0844854 -3.04807e-08 0.00229634)
(0.0816087 -3.08348e-08 0.00233767)
(0.078685 -3.15924e-08 0.00237938)
(0.0757144 -3.17485e-08 0.00242136)
(0.0726968 -3.03017e-08 0.00246348)
(0.0696326 -2.68257e-08 0.0025056)
(0.0665221 -2.20705e-08 0.00254756)
(0.0633662 -1.76655e-08 0.00258919)
(0.0601655 -1.52213e-08 0.00263029)
(0.0569215 -1.50842e-08 0.00267063)
(0.0536355 -1.57467e-08 0.00270996)
(0.0503094 -1.47264e-08 0.00274798)
(0.0469454 -1.03252e-08 0.00278435)
(0.0435461 -3.22853e-09 0.00281868)
(0.0401148 3.45697e-09 0.00285055)
(0.0366552 6.62078e-09 0.00287946)
(0.0331715 5.83268e-09 0.00290484)
(0.029669 4.28314e-09 0.00292603)
(0.0261535 6.29335e-09 0.00294226)
(0.0226317 1.30283e-08 0.00295262)
(0.0191117 2.05819e-08 0.00295609)
(0.0156027 2.32546e-08 0.00295145)
(0.0121153 1.9691e-08 0.00293729)
(0.00866215 1.58152e-08 0.00291187)
(0.00525648 1.89524e-08 0.00287303)
(0.00192184 2.92015e-08 0.00281803)
(-0.00133886 3.79809e-08 0.00273663)
(-0.00447586 3.88718e-08 0.00262537)
(-0.00747672 3.67702e-08 0.0024872)
(-0.0103046 4.01358e-08 0.00231975)
(-0.0129218 4.61893e-08 0.00211701)
(-0.0152839 4.17349e-08 0.00187043)
(-0.0173363 2.53257e-08 0.00157164)
(-0.019015 1.56553e-08 0.00120944)
(-0.0202423 2.41911e-08 0.000770044)
(-0.0209271 3.57042e-08 0.000236777)
(-0.0209593 4.29532e-08 -0.000406859)
(-0.0202147 6.91927e-08 -0.00117496)
(-0.0185658 1.05994e-07 -0.00207599)
(-0.0158888 9.95997e-08 -0.00309037)
(-0.0121014 6.81165e-08 -0.00410923)
(-0.0075186 1.30385e-07 -0.00476902)
(-0.00198261 3.50638e-07 -0.00361372)
(0.000377572 6.85262e-07 0.000963355)
(-0.0168418 -1.21601e-06 0.0184339)
(-0.0325926 -4.64569e-07 0.0152368)
(-0.0446561 -3.03913e-07 0.00653091)
(-0.0463465 -2.38975e-07 -0.00118198)
(-0.041143 -2.20662e-07 -0.00659504)
(-0.0312285 -2.17746e-07 -0.0101446)
(-0.0182143 -2.11213e-07 -0.0124176)
(-0.00327797 -2.03058e-07 -0.0137722)
(0.0128824 -1.86526e-07 -0.0143653)
(0.029354 -1.61878e-07 -0.0144371)
(0.0460025 -1.41403e-07 -0.0142451)
(0.0624643 -1.26554e-07 -0.0138799)
(0.0785686 -1.16134e-07 -0.0134011)
(0.0941834 -1.09768e-07 -0.0128482)
(0.109218 -1.07994e-07 -0.0122487)
(0.123611 -1.08546e-07 -0.0116217)
(0.13732 -1.0716e-07 -0.010981)
(0.150321 -1.01993e-07 -0.010337)
(0.1626 -9.45198e-08 -0.00969703)
(0.174155 -8.62731e-08 -0.00906678)
(0.18499 -7.68386e-08 -0.00845048)
(0.195115 -6.53367e-08 -0.0078513)
(0.204543 -5.2449e-08 -0.00727164)
(0.213294 -4.03646e-08 -0.00671322)
(0.221389 -3.09149e-08 -0.00617729)
(0.228849 -2.44234e-08 -0.00566466)
(0.235702 -2.00755e-08 -0.00517583)
(0.241971 -1.71267e-08 -0.00471101)
(0.247683 -1.56343e-08 -0.00427017)
(0.252867 -1.6114e-08 -0.0038531)
(0.257547 -1.86078e-08 -0.00345942)
(0.261753 -2.22552e-08 -0.00308861)
(0.265509 -2.55561e-08 -0.00274006)
(0.268842 -2.72694e-08 -0.00241306)
(0.271777 -2.71228e-08 -0.00210682)
(0.274339 -2.58511e-08 -0.00182052)
(0.276551 -2.46023e-08 -0.00155331)
(0.278437 -2.4075e-08 -0.00130428)
(0.280017 -2.42521e-08 -0.00107254)
(0.281312 -2.45604e-08 -0.000857179)
(0.282343 -2.45167e-08 -0.000657316)
(0.283128 -2.41835e-08 -0.000472073)
(0.283684 -2.41759e-08 -0.000300609)
(0.284029 -2.52952e-08 -0.000142099)
(0.284177 -2.79851e-08 4.46858e-06)
(0.284144 -3.20455e-08 0.000139836)
(0.283944 -3.67989e-08 0.000264472)
(0.283589 -4.13962e-08 0.000379118)
(0.283092 -4.5232e-08 0.000484554)
(0.282463 -4.81046e-08 0.000581446)
(0.281713 -5.0132e-08 0.000670392)
(0.280853 -5.15102e-08 0.000751943)
(0.279891 -5.22259e-08 0.000826617)
(0.278836 -5.20032e-08 0.000894903)
(0.277695 -5.03756e-08 0.000957256)
(0.276476 -4.69509e-08 0.0010141)
(0.275186 -4.16302e-08 0.00106585)
(0.273831 -3.47848e-08 0.00111285)
(0.272418 -2.7155e-08 0.00115546)
(0.27095 -1.97346e-08 0.00119399)
(0.269434 -1.34203e-08 0.00122874)
(0.267875 -8.85538e-09 0.00125999)
(0.266276 -6.24741e-09 0.00128798)
(0.264642 -5.3508e-09 0.00131296)
(0.262976 -5.6078e-09 0.00133514)
(0.261282 -6.30453e-09 0.00135474)
(0.259564 -6.83564e-09 0.00137195)
(0.257824 -6.72714e-09 0.00138695)
(0.256064 -5.76962e-09 0.00139991)
(0.254289 -4.09443e-09 0.00141099)
(0.252499 -1.93191e-09 0.00142032)
(0.250697 3.35301e-10 0.00142805)
(0.248885 2.33981e-09 0.00143431)
(0.247066 3.80369e-09 0.00143922)
(0.24524 4.60131e-09 0.00144289)
(0.243409 4.7079e-09 0.00144542)
(0.241575 4.19963e-09 0.00144693)
(0.239739 3.28208e-09 0.0014475)
(0.237901 2.09802e-09 0.00144722)
(0.236064 8.43529e-10 0.00144619)
(0.234228 -3.82408e-10 0.00144447)
(0.232394 -1.5836e-09 0.00144216)
(0.230563 -2.77146e-09 0.00143932)
(0.228735 -4.0012e-09 0.00143602)
(0.226911 -5.40989e-09 0.00143233)
(0.225091 -7.06033e-09 0.0014283)
(0.223276 -9.05913e-09 0.001424)
(0.221466 -1.14558e-08 0.00141948)
(0.219661 -1.42465e-08 0.0014148)
(0.217862 -1.74198e-08 0.00141)
(0.216069 -2.08939e-08 0.00140514)
(0.214281 -2.45641e-08 0.00140026)
(0.212499 -2.83104e-08 0.00139539)
(0.210723 -3.19597e-08 0.00139059)
(0.208953 -3.53862e-08 0.00138589)
(0.207188 -3.84472e-08 0.00138132)
(0.205429 -4.096e-08 0.00137693)
(0.203675 -4.28465e-08 0.00137275)
(0.201925 -4.40305e-08 0.0013688)
(0.200181 -4.45102e-08 0.00136513)
(0.19844 -4.42856e-08 0.00136175)
(0.196704 -4.34518e-08 0.0013587)
(0.194971 -4.20603e-08 0.001356)
(0.193241 -4.02956e-08 0.00135369)
(0.191513 -3.82473e-08 0.00135178)
(0.189787 -3.60467e-08 0.00135031)
(0.188063 -3.38614e-08 0.00134929)
(0.18634 -3.17674e-08 0.00134875)
(0.184617 -2.98486e-08 0.00134872)
(0.182893 -2.81315e-08 0.00134922)
(0.181169 -2.66239e-08 0.00135027)
(0.179443 -2.52837e-08 0.00135189)
(0.177714 -2.4054e-08 0.00135411)
(0.175982 -2.27938e-08 0.00135695)
(0.174246 -2.14422e-08 0.00136043)
(0.172505 -1.98508e-08 0.00136457)
(0.170759 -1.79548e-08 0.0013694)
(0.169006 -1.572e-08 0.00137493)
(0.167245 -1.3074e-08 0.00138118)
(0.165477 -1.00739e-08 0.00138818)
(0.163699 -6.73874e-09 0.00139594)
(0.161911 -3.12188e-09 0.00140449)
(0.160112 6.81541e-10 0.00141385)
(0.158301 4.53826e-09 0.00142403)
(0.156477 8.36071e-09 0.00143505)
(0.154638 1.20309e-08 0.00144694)
(0.152785 1.5385e-08 0.0014597)
(0.150915 1.84118e-08 0.00147336)
(0.149028 2.10692e-08 0.00148794)
(0.147122 2.33459e-08 0.00150344)
(0.145197 2.52496e-08 0.0015199)
(0.143251 2.67724e-08 0.00153731)
(0.141283 2.78537e-08 0.0015557)
(0.139292 2.83981e-08 0.00157508)
(0.137277 2.82611e-08 0.00159546)
(0.135237 2.72788e-08 0.00161685)
(0.133169 2.53447e-08 0.00163927)
(0.131075 2.2417e-08 0.00166272)
(0.128951 1.85374e-08 0.00168721)
(0.126797 1.39459e-08 0.00171275)
(0.124611 8.947e-09 0.00173933)
(0.122393 3.95953e-09 0.00176695)
(0.120142 -6.20563e-10 0.00179561)
(0.117855 -4.52297e-09 0.0018253)
(0.115533 -7.66393e-09 0.00185602)
(0.113173 -1.02567e-08 0.00188775)
(0.110775 -1.27047e-08 0.00192048)
(0.108338 -1.53926e-08 0.0019542)
(0.105861 -1.85831e-08 0.00198888)
(0.103342 -2.22532e-08 0.00202449)
(0.100781 -2.59234e-08 0.002061)
(0.0981774 -2.90758e-08 0.00209838)
(0.0955295 -3.11088e-08 0.00213657)
(0.092837 -3.18246e-08 0.00217552)
(0.0900992 -3.15048e-08 0.00221517)
(0.0873155 -3.08081e-08 0.00225547)
(0.0844854 -3.04806e-08 0.00229632)
(0.0816087 -3.08347e-08 0.00233765)
(0.078685 -3.15923e-08 0.00237936)
(0.0757144 -3.17484e-08 0.00242134)
(0.0726969 -3.03017e-08 0.00246346)
(0.0696326 -2.68257e-08 0.00250558)
(0.0665222 -2.20705e-08 0.00254754)
(0.0633662 -1.76655e-08 0.00258918)
(0.0601656 -1.52213e-08 0.00263028)
(0.0569215 -1.50842e-08 0.00267063)
(0.0536355 -1.57467e-08 0.00270996)
(0.0503094 -1.47263e-08 0.00274798)
(0.0469454 -1.03252e-08 0.00278434)
(0.0435461 -3.22852e-09 0.00281868)
(0.0401148 3.45696e-09 0.00285055)
(0.0366552 6.62076e-09 0.00287947)
(0.0331716 5.83267e-09 0.00290486)
(0.0296691 4.28313e-09 0.00292605)
(0.0261535 6.29334e-09 0.00294227)
(0.0226318 1.30283e-08 0.00295263)
(0.0191118 2.05819e-08 0.0029561)
(0.0156028 2.32545e-08 0.00295147)
(0.0121154 1.9691e-08 0.00293731)
(0.00866221 1.58152e-08 0.00291189)
(0.00525653 1.89524e-08 0.00287305)
(0.00192189 2.92014e-08 0.00281805)
(-0.0013388 3.79809e-08 0.00273666)
(-0.0044758 3.88718e-08 0.0026254)
(-0.00747666 3.67702e-08 0.00248722)
(-0.0103045 4.01358e-08 0.00231977)
(-0.0129217 4.61892e-08 0.00211703)
(-0.0152838 4.17348e-08 0.00187045)
(-0.0173363 2.53257e-08 0.00157166)
(-0.0190149 1.56553e-08 0.00120947)
(-0.0202423 2.41911e-08 0.000770077)
(-0.0209271 3.57041e-08 0.000236809)
(-0.0209593 4.29531e-08 -0.000406859)
(-0.0202147 6.91924e-08 -0.00117503)
(-0.0185657 1.05992e-07 -0.00207612)
(-0.0158887 9.95945e-08 -0.0030906)
(-0.0121012 6.81061e-08 -0.00410968)
(-0.00751865 1.30365e-07 -0.00476967)
(-0.00198286 3.50683e-07 -0.00361397)
(0.000378156 6.85584e-07 0.000963826)
(-0.0124276 -1.08692e-07 0.0368895)
(-0.0172811 3.43445e-08 0.0224386)
(-0.0164552 2.3978e-08 0.00792441)
(-0.0120615 1.38767e-08 -0.00440287)
(-0.00472322 8.92509e-09 -0.0135153)
(0.00498191 8.83743e-09 -0.0198115)
(0.0164273 9.9691e-09 -0.0239334)
(0.029117 1.04945e-08 -0.0264828)
(0.0426271 1.13159e-08 -0.0278578)
(0.0565973 1.18051e-08 -0.0284014)
(0.0707661 1.11521e-08 -0.0283918)
(0.0849064 1.00613e-08 -0.0279875)
(0.098856 8.72963e-09 -0.0273057)
(0.11249 6.6489e-09 -0.0264271)
(0.125715 4.09702e-09 -0.0254103)
(0.138462 2.18192e-09 -0.0242985)
(0.150682 1.5004e-09 -0.0231242)
(0.162339 1.62033e-09 -0.0219126)
(0.173411 1.90397e-09 -0.0206828)
(0.183886 2.29707e-09 -0.01945)
(0.193756 3.15895e-09 -0.0182262)
(0.203024 4.55719e-09 -0.0170208)
(0.211695 6.05679e-09 -0.0158413)
(0.219779 7.10238e-09 -0.0146935)
(0.227291 7.53117e-09 -0.0135821)
(0.234245 7.58209e-09 -0.0125103)
(0.240659 7.56209e-09 -0.0114808)
(0.246554 7.52306e-09 -0.0104953)
(0.25195 7.27225e-09 -0.00955496)
(0.256868 6.64547e-09 -0.00866026)
(0.26133 5.74551e-09 -0.0078113)
(0.265359 4.93026e-09 -0.00700774)
(0.268976 4.57094e-09 -0.00624894)
(0.272203 4.80937e-09 -0.00553396)
(0.275063 5.48278e-09 -0.00486164)
(0.277575 6.27422e-09 -0.00423064)
(0.279761 6.9286e-09 -0.00363947)
(0.28164 7.40879e-09 -0.00308657)
(0.283232 7.85329e-09 -0.00257026)
(0.284555 8.43342e-09 -0.00208885)
(0.285626 9.18868e-09 -0.00164061)
(0.286463 9.99107e-09 -0.00122382)
(0.28708 1.06183e-08 -0.00083676)
(0.287494 1.09048e-08 -0.000477766)
(0.287718 1.08248e-08 -0.000145198)
(0.287766 1.04988e-08 0.00016253)
(0.28765 1.01152e-08 0.00044699)
(0.287384 9.85063e-09 0.000709695)
(0.286977 9.75592e-09 0.000952046)
(0.286441 9.79398e-09 0.00117538)
(0.285784 9.8844e-09 0.00138095)
(0.285018 9.97148e-09 0.00156995)
(0.284149 1.00857e-08 0.0017435)
(0.283187 1.03084e-08 0.00190266)
(0.282139 1.07391e-08 0.00204842)
(0.281012 1.14111e-08 0.00218171)
(0.279812 1.22763e-08 0.0023034)
(0.278545 1.31872e-08 0.0024143)
(0.277218 1.39415e-08 0.00251518)
(0.275835 1.43393e-08 0.00260673)
(0.274402 1.4267e-08 0.00268963)
(0.272923 1.3684e-08 0.00276449)
(0.271402 1.26746e-08 0.00283188)
(0.269844 1.13934e-08 0.00289235)
(0.268252 1.00295e-08 0.00294638)
(0.26663 8.7583e-09 0.00299445)
(0.26498 7.70701e-09 0.003037)
(0.263306 6.92319e-09 0.00307443)
(0.26161 6.40111e-09 0.00310712)
(0.259896 6.07606e-09 0.00313544)
(0.258165 5.86143e-09 0.00315972)
(0.25642 5.67582e-09 0.00318028)
(0.254662 5.44738e-09 0.0031974)
(0.252894 5.1485e-09 0.00321137)
(0.251117 4.77634e-09 0.00322246)
(0.249333 4.35611e-09 0.00323089)
(0.247543 3.91542e-09 0.00323692)
(0.245748 3.50851e-09 0.00324075)
(0.243951 3.15491e-09 0.0032426)
(0.242151 2.87555e-09 0.00324266)
(0.24035 2.66234e-09 0.00324111)
(0.238549 2.49482e-09 0.00323814)
(0.236748 2.34966e-09 0.00323391)
(0.234948 2.19737e-09 0.00322858)
(0.23315 2.00653e-09 0.00322229)
(0.231354 1.75953e-09 0.00321519)
(0.229561 1.45209e-09 0.00320741)
(0.227771 1.08231e-09 0.00319909)
(0.225985 6.70172e-10 0.00319033)
(0.224202 2.38523e-10 0.00318127)
(0.222423 -1.84084e-10 0.003172)
(0.220648 -5.61004e-10 0.00316263)
(0.218876 -8.61778e-10 0.00315326)
(0.217109 -1.04881e-09 0.00314398)
(0.215346 -1.09878e-09 0.00313488)
(0.213587 -9.93136e-10 0.00312604)
(0.211831 -7.19494e-10 0.00311755)
(0.210079 -2.8214e-10 0.00310947)
(0.208331 3.01793e-10 0.00310188)
(0.206585 1.00898e-09 0.00309486)
(0.204842 1.8066e-09 0.00308846)
(0.203102 2.65799e-09 0.00308275)
(0.201363 3.51985e-09 0.00307779)
(0.199627 4.35173e-09 0.00307364)
(0.197891 5.11746e-09 0.00307036)
(0.196156 5.79371e-09 0.003068)
(0.194421 6.35433e-09 0.00306663)
(0.192686 6.78978e-09 0.00306629)
(0.19095 7.10054e-09 0.00306703)
(0.189213 7.28995e-09 0.00306892)
(0.187473 7.38417e-09 0.00307199)
(0.185731 7.40463e-09 0.0030763)
(0.183985 7.37465e-09 0.0030819)
(0.182235 7.33229e-09 0.00308883)
(0.18048 7.29469e-09 0.00309714)
(0.178719 7.28327e-09 0.00310688)
(0.176952 7.30088e-09 0.00311808)
(0.175177 7.35275e-09 0.0031308)
(0.173395 7.42794e-09 0.00314507)
(0.171603 7.51312e-09 0.00316093)
(0.169802 7.59307e-09 0.00317843)
(0.16799 7.64733e-09 0.0031976)
(0.166167 7.65684e-09 0.00321849)
(0.16433 7.60021e-09 0.00324112)
(0.162481 7.4641e-09 0.00326554)
(0.160617 7.2309e-09 0.00329178)
(0.158737 6.90681e-09 0.00331988)
(0.156841 6.49849e-09 0.00334987)
(0.154927 6.0302e-09 0.00338177)
(0.152995 5.51384e-09 0.00341562)
(0.151043 4.96988e-09 0.00345145)
(0.149071 4.40022e-09 0.00348928)
(0.147077 3.80058e-09 0.00352912)
(0.14506 3.14621e-09 0.00357101)
(0.143019 2.41475e-09 0.00361496)
(0.140954 1.57954e-09 0.00366097)
(0.138862 6.51046e-10 0.00370907)
(0.136743 -3.55015e-10 0.00375924)
(0.134596 -1.39153e-09 0.0038115)
(0.13242 -2.36904e-09 0.00386584)
(0.130214 -3.19807e-09 0.00392224)
(0.127976 -3.78057e-09 0.0039807)
(0.125705 -4.05945e-09 0.00404118)
(0.123401 -4.02566e-09 0.00410365)
(0.121063 -3.74203e-09 0.00416808)
(0.11869 -3.33561e-09 0.00423443)
(0.11628 -2.93299e-09 0.00430263)
(0.113832 -2.64412e-09 0.00437262)
(0.111347 -2.50039e-09 0.00444434)
(0.108823 -2.4214e-09 0.00451769)
(0.10626 -2.2653e-09 0.00459258)
(0.103656 -1.88743e-09 0.00466889)
(0.101011 -1.19356e-09 0.00474651)
(0.0983253 -2.34142e-10 0.00482528)
(0.0955976 8.18557e-10 0.00490506)
(0.0928278 1.74276e-09 0.00498565)
(0.0900157 2.36429e-09 0.00506688)
(0.0871613 2.69362e-09 0.00514851)
(0.0842645 2.93633e-09 0.00523031)
(0.0813257 3.37702e-09 0.005312)
(0.0783451 4.21461e-09 0.00539329)
(0.0753233 5.35582e-09 0.00547383)
(0.0722611 6.42375e-09 0.00555325)
(0.0691594 6.93392e-09 0.00563114)
(0.0660195 6.65219e-09 0.00570703)
(0.0628429 5.8184e-09 0.00578042)
(0.0596314 5.08741e-09 0.00585072)
(0.056387 5.09122e-09 0.00591729)
(0.0531123 5.89835e-09 0.00597939)
(0.0498102 6.87205e-09 0.00603622)
(0.0464842 7.04719e-09 0.00608684)
(0.043138 5.97069e-09 0.00613022)
(0.0397762 4.22603e-09 0.00616517)
(0.0364038 3.06292e-09 0.00619035)
(0.0330268 3.24567e-09 0.0062042)
(0.0296519 4.1318e-09 0.00620495)
(0.0262866 4.09087e-09 0.00619057)
(0.0229396 2.17964e-09 0.00615869)
(0.019621 -5.19687e-10 0.00610655)
(0.016342 -1.73039e-09 0.00603091)
(0.0131156 -5.65373e-10 0.00592764)
(0.00995704 1.20784e-09 0.00579238)
(0.00688209 1.21165e-09 0.00561694)
(0.00391102 -2.11301e-10 0.00539487)
(0.00106458 -4.65434e-10 0.00512181)
(-0.00163304 7.31941e-10 0.004789)
(-0.00414973 -4.36879e-10 0.00438679)
(-0.00645542 -5.94119e-09 0.00390287)
(-0.00851346 -1.05917e-08 0.00332265)
(-0.0102836 -8.90607e-09 0.00262842)
(-0.0117212 -5.47099e-09 0.00179998)
(-0.0127782 -8.05801e-09 0.000815468)
(-0.0134065 -1.27657e-08 -0.000345048)
(-0.0135558 -1.28913e-08 -0.00169167)
(-0.0131867 -1.30456e-08 -0.00321548)
(-0.0122782 -1.03863e-08 -0.00485511)
(-0.0108331 -6.79603e-10 -0.00641794)
(-0.00891645 -1.03135e-08 -0.00745363)
(-0.00623255 -3.19788e-08 -0.0068011)
(-0.00360169 -7.51614e-08 -0.0025965)
(-0.0124275 -1.08692e-07 0.0368892)
(-0.017281 3.43439e-08 0.0224384)
(-0.016455 2.39775e-08 0.00792419)
(-0.0120613 1.38764e-08 -0.00440307)
(-0.00472296 8.92489e-09 -0.0135154)
(0.00498217 8.83724e-09 -0.0198116)
(0.0164275 9.9689e-09 -0.0239335)
(0.0291172 1.04943e-08 -0.0264829)
(0.0426273 1.13157e-08 -0.0278579)
(0.0565975 1.18049e-08 -0.0284015)
(0.0707662 1.11519e-08 -0.0283918)
(0.0849064 1.00611e-08 -0.0279876)
(0.098856 8.72953e-09 -0.0273058)
(0.11249 6.64883e-09 -0.0264272)
(0.125715 4.09698e-09 -0.0254103)
(0.138462 2.1819e-09 -0.0242985)
(0.150682 1.50039e-09 -0.0231243)
(0.162339 1.62031e-09 -0.0219126)
(0.173411 1.90395e-09 -0.0206828)
(0.183885 2.29705e-09 -0.01945)
(0.193756 3.15893e-09 -0.0182262)
(0.203024 4.55716e-09 -0.0170208)
(0.211695 6.05675e-09 -0.0158413)
(0.219779 7.10233e-09 -0.0146935)
(0.22729 7.53113e-09 -0.013582)
(0.234244 7.58204e-09 -0.0125103)
(0.240659 7.56205e-09 -0.0114808)
(0.246554 7.52302e-09 -0.0104953)
(0.251949 7.27222e-09 -0.00955495)
(0.256867 6.64543e-09 -0.00866025)
(0.26133 5.74548e-09 -0.00781129)
(0.265358 4.93024e-09 -0.00700773)
(0.268976 4.57092e-09 -0.00624893)
(0.272203 4.80935e-09 -0.00553395)
(0.275062 5.48276e-09 -0.00486162)
(0.277575 6.2742e-09 -0.00423062)
(0.279761 6.92857e-09 -0.00363946)
(0.28164 7.40876e-09 -0.00308655)
(0.283232 7.85326e-09 -0.00257025)
(0.284555 8.43339e-09 -0.00208884)
(0.285626 9.18865e-09 -0.00164059)
(0.286463 9.99103e-09 -0.0012238)
(0.28708 1.06183e-08 -0.000836745)
(0.287494 1.09048e-08 -0.000477753)
(0.287718 1.08248e-08 -0.000145186)
(0.287766 1.04988e-08 0.00016254)
(0.28765 1.01152e-08 0.000446999)
(0.287384 9.8506e-09 0.000709703)
(0.286977 9.75589e-09 0.000952053)
(0.28644 9.79396e-09 0.00117538)
(0.285784 9.88437e-09 0.00138095)
(0.285018 9.97146e-09 0.00156995)
(0.284149 1.00857e-08 0.0017435)
(0.283187 1.03084e-08 0.00190266)
(0.282139 1.07391e-08 0.00204842)
(0.281012 1.14111e-08 0.0021817)
(0.279812 1.22762e-08 0.00230339)
(0.278545 1.31871e-08 0.0024143)
(0.277218 1.39414e-08 0.00251517)
(0.275835 1.43393e-08 0.00260673)
(0.274402 1.42669e-08 0.00268963)
(0.272923 1.36839e-08 0.00276448)
(0.271402 1.26745e-08 0.00283187)
(0.269844 1.13934e-08 0.00289234)
(0.268252 1.00294e-08 0.00294637)
(0.26663 8.75828e-09 0.00299444)
(0.26498 7.707e-09 0.00303699)
(0.263306 6.92318e-09 0.00307442)
(0.26161 6.4011e-09 0.00310712)
(0.259896 6.07605e-09 0.00313544)
(0.258165 5.86141e-09 0.00315972)
(0.25642 5.67581e-09 0.00318028)
(0.254662 5.44737e-09 0.0031974)
(0.252894 5.14849e-09 0.00321138)
(0.251117 4.77633e-09 0.00322246)
(0.249333 4.3561e-09 0.00323089)
(0.247543 3.91541e-09 0.00323692)
(0.245748 3.50851e-09 0.00324075)
(0.243951 3.1549e-09 0.0032426)
(0.242151 2.87554e-09 0.00324266)
(0.24035 2.66233e-09 0.00324111)
(0.238549 2.49481e-09 0.00323814)
(0.236748 2.34966e-09 0.0032339)
(0.234948 2.19736e-09 0.00322857)
(0.23315 2.00652e-09 0.00322227)
(0.231354 1.75953e-09 0.00321517)
(0.229561 1.45209e-09 0.00320739)
(0.227771 1.08231e-09 0.00319907)
(0.225985 6.70171e-10 0.00319031)
(0.224202 2.38522e-10 0.00318125)
(0.222423 -1.84084e-10 0.00317198)
(0.220648 -5.61003e-10 0.00316261)
(0.218876 -8.61777e-10 0.00315324)
(0.217109 -1.04881e-09 0.00314396)
(0.215346 -1.09878e-09 0.00313487)
(0.213587 -9.93134e-10 0.00312603)
(0.211831 -7.19492e-10 0.00311754)
(0.210079 -2.82139e-10 0.00310947)
(0.208331 3.01792e-10 0.00310188)
(0.206585 1.00898e-09 0.00309486)
(0.204842 1.80659e-09 0.00308846)
(0.203102 2.65798e-09 0.00308275)
(0.201363 3.51984e-09 0.00307779)
(0.199626 4.35172e-09 0.00307364)
(0.197891 5.11745e-09 0.00307036)
(0.196156 5.7937e-09 0.00306801)
(0.194421 6.35431e-09 0.00306663)
(0.192686 6.78976e-09 0.00306629)
(0.19095 7.10053e-09 0.00306704)
(0.189213 7.28993e-09 0.00306892)
(0.187473 7.38416e-09 0.00307199)
(0.185731 7.40462e-09 0.0030763)
(0.183985 7.37464e-09 0.0030819)
(0.182235 7.33228e-09 0.00308883)
(0.18048 7.29468e-09 0.00309715)
(0.178719 7.28326e-09 0.00310688)
(0.176952 7.30086e-09 0.00311809)
(0.175177 7.35273e-09 0.00313081)
(0.173395 7.42793e-09 0.00314508)
(0.171603 7.51311e-09 0.00316094)
(0.169802 7.59306e-09 0.00317844)
(0.16799 7.64731e-09 0.00319761)
(0.166167 7.65683e-09 0.0032185)
(0.16433 7.60019e-09 0.00324113)
(0.162481 7.46409e-09 0.00326555)
(0.160617 7.23089e-09 0.0032918)
(0.158737 6.9068e-09 0.00331989)
(0.156841 6.49847e-09 0.00334988)
(0.154927 6.03018e-09 0.00338178)
(0.152995 5.51383e-09 0.00341563)
(0.151043 4.96987e-09 0.00345145)
(0.149071 4.40021e-09 0.00348928)
(0.147077 3.80057e-09 0.00352912)
(0.14506 3.14621e-09 0.00357101)
(0.143019 2.41474e-09 0.00361495)
(0.140954 1.57953e-09 0.00366097)
(0.138862 6.51045e-10 0.00370906)
(0.136743 -3.55015e-10 0.00375924)
(0.134596 -1.39153e-09 0.0038115)
(0.13242 -2.36904e-09 0.00386583)
(0.130214 -3.19806e-09 0.00392224)
(0.127976 -3.78057e-09 0.00398069)
(0.125705 -4.05945e-09 0.00404117)
(0.123401 -4.02566e-09 0.00410364)
(0.121063 -3.74202e-09 0.00416807)
(0.11869 -3.3356e-09 0.00423442)
(0.11628 -2.93299e-09 0.00430262)
(0.113832 -2.64411e-09 0.00437261)
(0.111347 -2.50039e-09 0.00444433)
(0.108823 -2.42139e-09 0.00451768)
(0.10626 -2.26529e-09 0.00459257)
(0.103656 -1.88743e-09 0.00466888)
(0.101011 -1.19356e-09 0.0047465)
(0.0983253 -2.34141e-10 0.00482527)
(0.0955976 8.18556e-10 0.00490505)
(0.0928278 1.74276e-09 0.00498564)
(0.0900157 2.36429e-09 0.00506687)
(0.0871613 2.69361e-09 0.0051485)
(0.0842645 2.93632e-09 0.0052303)
(0.0813257 3.37701e-09 0.005312)
(0.0783451 4.2146e-09 0.00539328)
(0.0753233 5.35581e-09 0.00547382)
(0.0722611 6.42374e-09 0.00555324)
(0.0691595 6.93391e-09 0.00563113)
(0.0660196 6.65217e-09 0.00570702)
(0.062843 5.81839e-09 0.00578041)
(0.0596314 5.0874e-09 0.00585071)
(0.056387 5.09121e-09 0.00591728)
(0.0531123 5.89834e-09 0.00597939)
(0.0498103 6.87204e-09 0.00603621)
(0.0464842 7.04717e-09 0.00608684)
(0.043138 5.97068e-09 0.00613022)
(0.0397762 4.22602e-09 0.00616517)
(0.0364038 3.06291e-09 0.00619035)
(0.0330269 3.24566e-09 0.0062042)
(0.0296519 4.13179e-09 0.00620495)
(0.0262866 4.09086e-09 0.00619057)
(0.0229397 2.17964e-09 0.00615869)
(0.019621 -5.19685e-10 0.00610655)
(0.0163421 -1.73038e-09 0.00603091)
(0.0131156 -5.65372e-10 0.00592764)
(0.00995706 1.20784e-09 0.00579238)
(0.00688211 1.21165e-09 0.00561694)
(0.00391104 -2.113e-10 0.00539488)
(0.0010646 -4.65432e-10 0.00512182)
(-0.00163302 7.31939e-10 0.00478901)
(-0.0041497 -4.36878e-10 0.0043868)
(-0.0064554 -5.94117e-09 0.00390288)
(-0.00851343 -1.05917e-08 0.00332267)
(-0.0102836 -8.90604e-09 0.00262843)
(-0.0117211 -5.47098e-09 0.0018)
(-0.0127782 -8.05798e-09 0.000815487)
(-0.0134065 -1.27656e-08 -0.000345029)
(-0.0135558 -1.28912e-08 -0.00169166)
(-0.0131867 -1.30454e-08 -0.00321548)
(-0.0122782 -1.03859e-08 -0.00485512)
(-0.0108331 -6.79577e-10 -0.00641797)
(-0.0089165 -1.0314e-08 -0.00745365)
(-0.00623273 -3.19826e-08 -0.00680114)
(-0.00360163 -7.5178e-08 -0.00259678)
(-0.00396861 -8.64108e-08 0.0480578)
(-0.00302671 3.83078e-08 0.0208263)
(0.00271358 2.33591e-08 0.00153285)
(0.00999344 1.58173e-08 -0.0130095)
(0.0185242 1.37184e-08 -0.0237829)
(0.0281216 1.30196e-08 -0.0314761)
(0.0386565 1.23852e-08 -0.0367347)
(0.0499493 1.22119e-08 -0.0401262)
(0.0618015 1.23251e-08 -0.042093)
(0.0740262 1.20733e-08 -0.0429936)
(0.0864423 1.14166e-08 -0.0431114)
(0.0988851 1.0617e-08 -0.0426496)
(0.111221 9.55093e-09 -0.04176)
(0.123341 8.16124e-09 -0.0405556)
(0.135158 6.77345e-09 -0.0391215)
(0.146603 5.76974e-09 -0.037523)
(0.157626 5.22528e-09 -0.0358105)
(0.168188 4.89547e-09 -0.0340236)
(0.17826 4.54471e-09 -0.0321935)
(0.187825 4.25487e-09 -0.0303453)
(0.196871 4.27343e-09 -0.028499)
(0.205395 4.6356e-09 -0.0266705)
(0.213396 5.07582e-09 -0.0248727)
(0.220879 5.31805e-09 -0.023116)
(0.227854 5.3466e-09 -0.0214084)
(0.23433 5.34708e-09 -0.0197563)
(0.240322 5.44178e-09 -0.0181643)
(0.245844 5.55861e-09 -0.016636)
(0.250913 5.51316e-09 -0.0151738)
(0.255548 5.22903e-09 -0.0137791)
(0.259765 4.80642e-09 -0.0124525)
(0.263585 4.4509e-09 -0.0111941)
(0.267025 4.32288e-09 -0.0100032)
(0.270105 4.43947e-09 -0.00887867)
(0.272843 4.70122e-09 -0.00781915)
(0.275259 4.97606e-09 -0.00682281)
(0.27737 5.18783e-09 -0.00588758)
(0.279194 5.34607e-09 -0.00501125)
(0.280748 5.51954e-09 -0.00419142)
(0.282048 5.76391e-09 -0.00342561)
(0.283111 6.07349e-09 -0.0027113)
(0.283952 6.38354e-09 -0.00204592)