/*--------------------------------*- C++ -*----------------------------------*\
  =========                 |
  \\      /  F ield         | OpenFOAM: The Open Source CFD Toolbox
   \\    /   O peration     | Website:  https://openfoam.org
    \\  /    A nd           | Version:  8
     \\/     M anipulation  |
\*---------------------------------------------------------------------------*/
FoamFile
{
    version     2.0;
    format      ascii;
    class       volScalarField;
    location    "1600";
    object      k;
}
// * * * * * * * * * * * * * * * * * * * * * * * * * * * * * * * * * * * * * //

dimensions      [0 2 -2 0 0 0 0];

internalField   nonuniform List<scalar> 
48000
(
0.0194419
0.028859
0.0448894
0.0590186
0.0717454
0.0832993
0.0941544
0.104501
0.114344
0.123826
0.133007
0.141933
0.150639
0.159152
0.16749
0.175668
0.183695
0.191577
0.199319
0.206921
0.214386
0.22171
0.228894
0.235934
0.242827
0.249572
0.256163
0.262599
0.268875
0.27499
0.280941
0.286725
0.29234
0.297785
0.303058
0.308158
0.313086
0.31784
0.322421
0.326829
0.331066
0.335131
0.339028
0.342756
0.346319
0.349717
0.352954
0.356032
0.358953
0.36172
0.364335
0.3668
0.369117
0.371308
0.37337
0.375297
0.377092
0.378757
0.380296
0.38171
0.383004
0.384181
0.385244
0.386195
0.387038
0.387776
0.388411
0.388946
0.389384
0.389728
0.389979
0.390141
0.390215
0.390204
0.390111
0.389936
0.389684
0.389354
0.38895
0.388473
0.387924
0.387306
0.386621
0.385869
0.385052
0.384172
0.38323
0.382228
0.381166
0.380046
0.378869
0.377637
0.376349
0.375008
0.373615
0.372169
0.370672
0.369126
0.36753
0.365885
0.364193
0.362454
0.360668
0.358837
0.35696
0.355038
0.353073
0.351063
0.349011
0.346915
0.344777
0.342597
0.340376
0.338112
0.335808
0.333463
0.331077
0.328651
0.326184
0.323678
0.321132
0.318546
0.31592
0.313255
0.310551
0.307808
0.305025
0.302204
0.299344
0.296445
0.293508
0.290533
0.287519
0.284467
0.281377
0.278249
0.275084
0.271882
0.268643
0.265367
0.262054
0.258706
0.255322
0.251902
0.248448
0.24496
0.241437
0.237882
0.234294
0.230674
0.227022
0.223341
0.219629
0.215889
0.21212
0.208324
0.204502
0.200655
0.196784
0.192889
0.188973
0.185036
0.181078
0.177103
0.173109
0.1691
0.165075
0.161036
0.156984
0.15292
0.148845
0.144761
0.140667
0.136564
0.132454
0.128335
0.124209
0.120076
0.115934
0.111783
0.107622
0.10345
0.0992631
0.0950622
0.0908471
0.0866423
0.0824267
0.0781576
0.0738213
0.0693996
0.0648672
0.0601926
0.0553329
0.050269
0.0449522
0.0392082
0.0328499
0.0256008
0.0218311
0.0193639
0.0194412
0.0288638
0.0448915
0.0590207
0.0717475
0.0833015
0.0941566
0.104503
0.114346
0.123828
0.133009
0.141935
0.150641
0.159154
0.167492
0.17567
0.183697
0.191579
0.19932
0.206923
0.214387
0.221712
0.228895
0.235935
0.242829
0.249573
0.256164
0.2626
0.268876
0.274991
0.280941
0.286725
0.29234
0.297785
0.303058
0.308159
0.313086
0.31784
0.322421
0.32683
0.331066
0.335132
0.339028
0.342756
0.346319
0.349717
0.352954
0.356032
0.358953
0.36172
0.364335
0.3668
0.369116
0.371308
0.37337
0.375297
0.377092
0.378757
0.380295
0.38171
0.383004
0.384181
0.385244
0.386195
0.387038
0.387776
0.388411
0.388946
0.389384
0.389727
0.389979
0.39014
0.390215
0.390204
0.39011
0.389936
0.389683
0.389354
0.388949
0.388472
0.387924
0.387306
0.38662
0.385868
0.385052
0.384172
0.38323
0.382227
0.381166
0.380046
0.378869
0.377636
0.376349
0.375008
0.373614
0.372168
0.370672
0.369125
0.367529
0.365885
0.364193
0.362453
0.360668
0.358836
0.356959
0.355038
0.353072
0.351063
0.34901
0.346915
0.344777
0.342597
0.340375
0.338112
0.335808
0.333463
0.331077
0.32865
0.326184
0.323678
0.321131
0.318545
0.31592
0.313255
0.310551
0.307807
0.305025
0.302204
0.299344
0.296445
0.293508
0.290532
0.287518
0.284466
0.281377
0.278249
0.275084
0.271882
0.268642
0.265366
0.262054
0.258706
0.255321
0.251902
0.248448
0.244959
0.241437
0.237882
0.234294
0.230674
0.227022
0.22334
0.219629
0.215888
0.21212
0.208324
0.204502
0.200655
0.196784
0.192889
0.188973
0.185035
0.181078
0.177102
0.173109
0.169099
0.165075
0.161036
0.156984
0.15292
0.148845
0.144761
0.140667
0.136564
0.132453
0.128335
0.124209
0.120076
0.115934
0.111783
0.107622
0.10345
0.0992631
0.0950622
0.0908471
0.0866423
0.0824267
0.0781576
0.0738213
0.0693996
0.0648672
0.0601926
0.055333
0.050269
0.0449518
0.0392045
0.0328297
0.0255467
0.022048
0.0191794
0.029448
0.0745343
0.106667
0.134756
0.160428
0.184297
0.20686
0.228413
0.24915
0.269223
0.288745
0.307798
0.326445
0.344732
0.362691
0.380346
0.397712
0.414798
0.431609
0.448145
0.464403
0.480379
0.496067
0.51146
0.526549
0.541325
0.555782
0.569909
0.5837
0.597146
0.610241
0.622979
0.635354
0.647362
0.658999
0.670261
0.681148
0.691658
0.70179
0.711545
0.720924
0.729929
0.738561
0.746825
0.754724
0.762262
0.769443
0.776273
0.782756
0.788897
0.794703
0.800178
0.805327
0.81015
0.81467
0.818894
0.822825
0.826471
0.829839
0.832935
0.835765
0.838338
0.840658
0.842734
0.844571
0.846176
0.847555
0.848714
0.849659
0.850395
0.850929
0.851265
0.851409
0.851365
0.85114
0.850737
0.850161
0.849416
0.848508
0.847438
0.846213
0.844835
0.843309
0.841637
0.839823
0.83787
0.835781
0.83356
0.831209
0.828731
0.826128
0.823403
0.820559
0.817597
0.81452
0.81133
0.808028
0.804618
0.8011
0.797477
0.793749
0.789919
0.785987
0.781956
0.777827
0.773601
0.769278
0.764861
0.76035
0.755745
0.751049
0.746262
0.741384
0.736416
0.73136
0.726215
0.720982
0.715662
0.710255
0.704761
0.699181
0.693516
0.687766
0.681931
0.676011
0.670007
0.663919
0.657747
0.651492
0.645154
0.638734
0.632231
0.625646
0.61898
0.612232
0.605404
0.598496
0.591509
0.584442
0.577297
0.570075
0.562777
0.555402
0.547953
0.540431
0.532835
0.525169
0.517432
0.509627
0.501755
0.493817
0.485816
0.477753
0.469629
0.461448
0.45321
0.444919
0.436576
0.428184
0.419745
0.411262
0.402737
0.394172
0.385571
0.376936
0.368269
0.359573
0.350851
0.342104
0.333337
0.324549
0.315744
0.306924
0.298089
0.28924
0.280379
0.271506
0.26262
0.25372
0.244804
0.235869
0.226911
0.217924
0.208902
0.199836
0.190716
0.181522
0.172219
0.162798
0.153226
0.143455
0.133431
0.123074
0.112271
0.100911
0.0887943
0.0756051
0.0608017
0.0436344
0.0288908
0.0294525
0.074538
0.10667
0.134758
0.16043
0.184299
0.206861
0.228414
0.249151
0.269225
0.288746
0.307799
0.326446
0.344733
0.362692
0.380347
0.397712
0.414799
0.431609
0.448145
0.464403
0.48038
0.496068
0.51146
0.526549
0.541325
0.555781
0.569909
0.583699
0.597145
0.61024
0.622978
0.635353
0.647361
0.658998
0.670261
0.681147
0.691657
0.701789
0.711544
0.720923
0.729927
0.73856
0.746824
0.754723
0.76226
0.769441
0.776271
0.782754
0.788896
0.794702
0.800177
0.805325
0.810148
0.814668
0.818892
0.822823
0.826469
0.829837
0.832932
0.835763
0.838335
0.840656
0.842732
0.844569
0.846174
0.847553
0.848712
0.849657
0.850393
0.850926
0.851263
0.851406
0.851363
0.851138
0.850735
0.850159
0.849414
0.848505
0.847436
0.846211
0.844833
0.843307
0.841634
0.83982
0.837868
0.835779
0.833558
0.831207
0.828729
0.826126
0.823401
0.820557
0.817595
0.814518
0.811328
0.808026
0.804616
0.801098
0.797475
0.793747
0.789917
0.785986
0.781955
0.777825
0.773599
0.769276
0.764859
0.760348
0.755744
0.751047
0.74626
0.741382
0.736415
0.731358
0.726213
0.72098
0.71566
0.710253
0.704759
0.69918
0.693515
0.687764
0.681929
0.676009
0.670005
0.663917
0.657746
0.651491
0.645153
0.638732
0.632229
0.625645
0.618978
0.612231
0.605403
0.598495
0.591507
0.584441
0.577296
0.570074
0.562775
0.555401
0.547952
0.540429
0.532834
0.525167
0.517431
0.509626
0.501754
0.493816
0.485815
0.477751
0.469628
0.461447
0.453209
0.444918
0.436575
0.428183
0.419744
0.411261
0.402735
0.394171
0.38557
0.376934
0.368268
0.359572
0.35085
0.342104
0.333336
0.324548
0.315743
0.306923
0.298088
0.289239
0.280379
0.271505
0.262619
0.253719
0.244803
0.235868
0.22691
0.217923
0.208901
0.199835
0.190716
0.181521
0.172218
0.162798
0.153226
0.143455
0.13343
0.123073
0.11227
0.100906
0.0887702
0.0754912
0.0602934
0.0416168
0.023346
0.0444435
0.10656
0.146634
0.180561
0.211673
0.240942
0.268838
0.295644
0.321555
0.346717
0.371242
0.395217
0.418708
0.441764
0.464421
0.486706
0.508635
0.530219
0.551462
0.572363
0.59292
0.613127
0.632975
0.652454
0.671555
0.690267
0.708579
0.726479
0.743959
0.761008
0.777617
0.793779
0.809486
0.824731
0.839511
0.853821
0.867657
0.881019
0.893905
0.906315
0.91825
0.929713
0.940706
0.951232
0.961296
0.970902
0.980057
0.988766
0.997035
1.00487
1.01228
1.01927
1.02585
1.03202
1.0378
1.0432
1.04823
1.05289
1.0572
1.06116
1.06478
1.06807
1.07104
1.07369
1.07604
1.07809
1.07986
1.08134
1.08254
1.08348
1.08416
1.08459
1.08477
1.08471
1.08442
1.0839
1.08315
1.0822
1.08103
1.07965
1.07808
1.07631
1.07435
1.07221
1.06988
1.06737
1.0647
1.06185
1.05883
1.05566
1.05232
1.04883
1.04519
1.04139
1.03745
1.03337
1.02914
1.02477
1.02027
1.01563
1.01086
1.00596
1.00093
0.995773
0.990492
0.985087
0.97956
0.973912
0.968145
0.96226
0.956258
0.950141
0.943908
0.937562
0.931104
0.924533
0.917851
0.911058
0.904155
0.897144
0.890023
0.882794
0.875458
0.868014
0.860464
0.852807
0.845045
0.837177
0.829204
0.821127
0.812945
0.80466
0.796272
0.787782
0.779189
0.770496
0.761702
0.752808
0.743815
0.734725
0.725537
0.716254
0.706876
0.697405
0.687841
0.678188
0.668445
0.658615
0.6487
0.638701
0.628621
0.618462
0.608226
0.597916
0.587534
0.577083
0.566566
0.555985
0.545344
0.534646
0.523893
0.513089
0.502237
0.491341
0.480404
0.469429
0.458419
0.447378
0.436308
0.425212
0.414094
0.402955
0.391798
0.380625
0.369436
0.358234
0.347017
0.335785
0.324538
0.313272
0.301984
0.290669
0.27932
0.26793
0.256486
0.244975
0.233376
0.221664
0.20981
0.197776
0.185513
0.172973
0.16007
0.146698
0.132703
0.117887
0.101852
0.08369
0.0609767
0.0334371
0.0444457
0.106562
0.146635
0.180563
0.211674
0.240943
0.268838
0.295644
0.321555
0.346717
0.371242
0.395217
0.418708
0.441764
0.464421
0.486706
0.508635
0.530219
0.551461
0.572363
0.59292
0.613126
0.632974
0.652453
0.671554
0.690266
0.708577
0.726478
0.743958
0.761007
0.777616
0.793777
0.809484
0.82473
0.839509
0.853819
0.867655
0.881017
0.893903
0.906313
0.918248
0.929711
0.940703
0.951229
0.961293
0.9709
0.980054
0.988763
0.997032
1.00487
1.01228
1.01927
1.02585
1.03202
1.0378
1.0432
1.04822
1.05289
1.05719
1.06115
1.06477
1.06807
1.07103
1.07369
1.07604
1.07809
1.07985
1.08133
1.08254
1.08348
1.08416
1.08459
1.08477
1.08471
1.08441
1.08389
1.08315
1.08219
1.08102
1.07965
1.07808
1.07631
1.07435
1.0722
1.06988
1.06737
1.06469
1.06184
1.05883
1.05565
1.05232
1.04883
1.04518
1.04139
1.03745
1.03336
1.02914
1.02477
1.02027
1.01563
1.01086
1.00596
1.00093
0.995771
0.990489
0.985084
0.979557
0.97391
0.968143
0.962258
0.956256
0.950138
0.943906
0.93756
0.931101
0.924531
0.917848
0.911056
0.904153
0.897141
0.890021
0.882792
0.875456
0.868012
0.860462
0.852805
0.845043
0.837175
0.829202
0.821125
0.812943
0.804658
0.79627
0.78778
0.779187
0.770494
0.7617
0.752806
0.743814
0.734723
0.725536
0.716252
0.706874
0.697403
0.68784
0.678186
0.668443
0.658613
0.648698
0.638699
0.628619
0.618461
0.608225
0.597915
0.587533
0.577082
0.566565
0.555984
0.545343
0.534644
0.523891
0.513088
0.502236
0.49134
0.480403
0.469428
0.458418
0.447376
0.436307
0.425211
0.414093
0.402954
0.391797
0.380624
0.369435
0.358233
0.347016
0.335784
0.324537
0.313271
0.301983
0.290668
0.27932
0.267929
0.256485
0.244974
0.233376
0.221663
0.20981
0.197775
0.185513
0.172972
0.16007
0.146698
0.132703
0.117892
0.101888
0.0838706
0.0611559
0.0269576
0.0574532
0.133591
0.180166
0.218539
0.253458
0.286336
0.317761
0.348049
0.377398
0.405951
0.433816
0.461076
0.487797
0.51403
0.539811
0.565168
0.590119
0.614676
0.638844
0.662624
0.686012
0.709001
0.731585
0.753752
0.775491
0.796791
0.81764
0.838026
0.857937
0.877363
0.896293
0.91472
0.932633
0.950027
0.966895
0.983233
0.999037
1.01431
1.02904
1.04323
1.05688
1.07
1.08259
1.09465
1.10618
1.1172
1.1277
1.1377
1.14719
1.1562
1.16471
1.17276
1.18033
1.18744
1.1941
1.20033
1.20613
1.21151
1.21649
1.22107
1.22525
1.22906
1.2325
1.23558
1.23831
1.24069
1.24275
1.24448
1.24589
1.24699
1.2478
1.24831
1.24854
1.24849
1.24817
1.24759
1.24676
1.24567
1.24434
1.24278
1.24098
1.23896
1.23672
1.23426
1.23159
1.22872
1.22565
1.22238
1.21892
1.21527
1.21144
1.20743
1.20324
1.19887
1.19434
1.18964
1.18478
1.17976
1.17458
1.16924
1.16375
1.15811
1.15232
1.14639
1.14031
1.13409
1.12773
1.12123
1.11459
1.10781
1.1009
1.09386
1.08669
1.07938
1.07195
1.06439
1.05669
1.04888
1.04093
1.03286
1.02467
1.01635
1.00791
0.999341
0.990654
0.981845
0.972914
0.963863
0.954693
0.945402
0.935993
0.926466
0.916821
0.907059
0.89718
0.887187
0.877079
0.866857
0.856523
0.846078
0.835522
0.824857
0.814085
0.803207
0.792225
0.78114
0.769955
0.75867
0.74729
0.735815
0.724248
0.712592
0.70085
0.689024
0.677117
0.665132
0.653073
0.640943
0.628745
0.616483
0.60416
0.59178
0.579348
0.566865
0.554337
0.541767
0.529158
0.516515
0.50384
0.491137
0.478409
0.465659
0.452889
0.440101
0.427296
0.414477
0.401642
0.388791
0.375924
0.363037
0.350127
0.337189
0.324216
0.311199
0.298126
0.284983
0.271751
0.258405
0.244916
0.231248
0.217354
0.203177
0.188635
0.173625
0.157988
0.14149
0.123682
0.103531
0.0780017
0.0348844
0.0574554
0.133593
0.180168
0.218539
0.253458
0.286336
0.317761
0.348049
0.377398
0.405951
0.433815
0.461075
0.487797
0.514029
0.53981
0.565167
0.590118
0.614675
0.638843
0.662623
0.68601
0.709
0.731584
0.75375
0.77549
0.79679
0.817638
0.838024
0.857935
0.877361
0.896292
0.914718
0.932631
0.950025
0.966893
0.983231
0.999035
1.0143
1.02903
1.04323
1.05688
1.07
1.08259
1.09465
1.10618
1.1172
1.1277
1.1377
1.14719
1.15619
1.16471
1.17275
1.18033
1.18744
1.1941
1.20033
1.20613
1.21151
1.21649
1.22106
1.22525
1.22906
1.2325
1.23558
1.23831
1.24069
1.24274
1.24447
1.24588
1.24699
1.24779
1.24831
1.24854
1.24849
1.24817
1.24759
1.24675
1.24567
1.24434
1.24278
1.24098
1.23896
1.23671
1.23426
1.23159
1.22872
1.22565
1.22238
1.21892
1.21527
1.21144
1.20742
1.20323
1.19887
1.19434
1.18964
1.18478
1.17976
1.17458
1.16924
1.16375
1.15811
1.15232
1.14639
1.14031
1.13409
1.12773
1.12122
1.11459
1.10781
1.1009
1.09386
1.08669
1.07938
1.07195
1.06438
1.05669
1.04887
1.04093
1.03286
1.02467
1.01635
1.0079
0.999339
0.990652
0.981843
0.972912
0.963862
0.954691
0.9454
0.935991
0.926464
0.916819
0.907057
0.897179
0.887185
0.877077
0.866856
0.856522
0.846076
0.83552
0.824856
0.814084
0.803206
0.792224
0.781139
0.769953
0.758669
0.747288
0.735813
0.724247
0.712591
0.700848
0.689022
0.677115
0.665131
0.653072
0.640941
0.628744
0.616481
0.604159
0.591779
0.579346
0.566864
0.554336
0.541766
0.529157
0.516514
0.503839
0.491136
0.478408
0.465658
0.452888
0.4401
0.427295
0.414476
0.401641
0.38879
0.375923
0.363036
0.350127
0.337188
0.324215
0.311198
0.298126
0.284983
0.27175
0.258404
0.244915
0.231247
0.217354
0.203177
0.188635
0.173625
0.157989
0.141493
0.123702
0.10362
0.0781758
0.0344854
0.0689782
0.158262
0.210959
0.253428
0.291668
0.327538
0.361801
0.394838
0.426873
0.458057
0.488497
0.518279
0.547468
0.576115
0.604258
0.631928
0.659144
0.68592
0.712263
0.738175
0.763654
0.788696
0.813291
0.837432
0.861107
0.884303
0.907011
0.929217
0.950909
0.972077
0.992711
1.0128
1.03234
1.05131
1.06972
1.08756
1.10482
1.1215
1.1376
1.15313
1.16807
1.18243
1.19622
1.20943
1.22208
1.23417
1.2457
1.25668
1.26711
1.27702
1.28639
1.29525
1.3036
1.31145
1.31881
1.32569
1.33211
1.33807
1.34358
1.34866
1.35331
1.35755
1.36138
1.36481
1.36786
1.37053
1.37284
1.37479
1.37639
1.37765
1.37858
1.37919
1.37949
1.37948
1.37917
1.37857
1.37769
1.37654
1.37511
1.37342
1.37148
1.36929
1.36685
1.36418
1.36127
1.35813
1.35478
1.3512
1.34741
1.34342
1.33921
1.33481
1.33022
1.32543
1.32045
1.31529
1.30995
1.30443
1.29873
1.29286
1.28682
1.28061
1.27424
1.26771
1.26102
1.25416
1.24716
1.23999
1.23268
1.22522
1.2176
1.20984
1.20193
1.19388
1.18568
1.17734
1.16886
1.16024
1.15148
1.14258
1.13355
1.12437
1.11506
1.10561
1.09603
1.08632
1.07647
1.06649
1.05637
1.04613
1.03575
1.02524
1.01461
1.00384
0.992952
0.981934
0.970789
0.95952
0.948128
0.936614
0.924978
0.913224
0.901352
0.889364
0.877262
0.865048
0.852724
0.840293
0.827756
0.815116
0.802376
0.78954
0.776608
0.763586
0.750476
0.737282
0.724007
0.710655
0.697229
0.683733
0.670172
0.656549
0.642868
0.629133
0.615349
0.601519
0.587647
0.573738
0.559794
0.545819
0.531817
0.517791
0.503742
0.489674
0.475587
0.461484
0.447364
0.433227
0.419072
0.404896
0.390696
0.376468
0.362204
0.347895
0.333531
0.319098
0.304577
0.289946
0.275177
0.260236
0.245077
0.229641
0.213849
0.197587
0.180679
0.162832
0.143527
0.121513
0.0930155
0.0418344
0.0689806
0.158264
0.21096
0.253428
0.291668
0.327538
0.361801
0.394838
0.426873
0.458056
0.488497
0.518278
0.547467
0.576113
0.604257
0.631926
0.659143
0.685918
0.712261
0.738174
0.763653
0.788694
0.81329
0.83743
0.861105
0.884302
0.907009
0.929215
0.950907
0.972076
0.992709
1.0128
1.03233
1.05131
1.06972
1.08756
1.10482
1.1215
1.1376
1.15312
1.16806
1.18243
1.19622
1.20943
1.22208
1.23417
1.2457
1.25668
1.26711
1.27702
1.28639
1.29525
1.3036
1.31145
1.31881
1.32569
1.33211
1.33806
1.34358
1.34866
1.35331
1.35754
1.36137
1.36481
1.36786
1.37053
1.37284
1.37478
1.37639
1.37765
1.37858
1.37919
1.37948
1.37948
1.37917
1.37857
1.37769
1.37653
1.37511
1.37342
1.37148
1.36929
1.36685
1.36417
1.36127
1.35813
1.35477
1.3512
1.34741
1.34341
1.33921
1.33481
1.33022
1.32543
1.32045
1.31529
1.30995
1.30443
1.29873
1.29286
1.28682
1.28061
1.27424
1.26771
1.26101
1.25416
1.24715
1.23999
1.23268
1.22521
1.2176
1.20984
1.20193
1.19388
1.18568
1.17734
1.16886
1.16024
1.15148
1.14258
1.13354
1.12437
1.11506
1.10561
1.09603
1.08632
1.07647
1.06649
1.05637
1.04613
1.03575
1.02524
1.01461
1.00384
0.992951
0.981932
0.970788
0.959519
0.948127
0.936612
0.924977
0.913223
0.901351
0.889363
0.877261
0.865047
0.852723
0.840291
0.827754
0.815115
0.802375
0.789538
0.776607
0.763585
0.750475
0.737281
0.724006
0.710653
0.697228
0.683732
0.670171
0.656548
0.642867
0.629132
0.615348
0.601518
0.587647
0.573737
0.559793
0.545819
0.531816
0.51779
0.503741
0.489673
0.475586
0.461483
0.447363
0.433226
0.419071
0.404895
0.390696
0.376467
0.362203
0.347895
0.333531
0.319097
0.304577
0.289946
0.275177
0.260236
0.245077
0.229641
0.213849
0.197587
0.18068
0.162833
0.14353
0.121527
0.0930411
0.0417919
0.0797565
0.181435
0.240177
0.286665
0.328073
0.366695
0.403483
0.438906
0.47323
0.506624
0.539206
0.571064
0.602267
0.63287
0.662912
0.692428
0.72144
0.749964
0.77801
0.805584
0.832684
0.859309
0.885453
0.911106
0.93626
0.960905
0.985028
1.00862
1.03167
1.05416
1.07609
1.09744
1.11821
1.13839
1.15798
1.17696
1.19534
1.21311
1.23027
1.24681
1.26275
1.27808
1.2928
1.30693
1.32045
1.33338
1.34572
1.35748
1.36867
1.3793
1.38936
1.39888
1.40787
1.41632
1.42425
1.43167
1.4386
1.44504
1.45101
1.45651
1.46156
1.46617
1.47034
1.47409
1.47742
1.48036
1.4829
1.48505
1.48684
1.48826
1.48932
1.49004
1.49042
1.49047
1.4902
1.48962
1.48874
1.48755
1.48608
1.48432
1.48228
1.47998
1.47741
1.47458
1.47151
1.46818
1.46462
1.46081
1.45678
1.45252
1.44805
1.44335
1.43844
1.43332
1.428
1.42248
1.41676
1.41085
1.40474
1.39845
1.39198
1.38532
1.37848
1.37147
1.36428
1.35692
1.3494
1.3417
1.33384
1.32582
1.31763
1.30929
1.30078
1.29212
1.2833
1.27433
1.2652
1.25593
1.2465
1.23692
1.22719
1.21731
1.20728
1.19711
1.1868
1.17633
1.16572
1.15497
1.14408
1.13304
1.12187
1.11055
1.09909
1.0875
1.07577
1.0639
1.05189
1.03975
1.02748
1.01508
1.00255
0.989889
0.977103
0.964192
0.951159
0.938005
0.924734
0.911348
0.897848
0.884239
0.870522
0.856702
0.842781
0.828762
0.814649
0.800446
0.786156
0.771784
0.757333
0.742807
0.728211
0.713548
0.698824
0.684041
0.669205
0.654319
0.639387
0.624415
0.609404
0.59436
0.579285
0.564182
0.549055
0.533904
0.518733
0.503542
0.488332
0.473103
0.457853
0.442581
0.427284
0.411955
0.396591
0.381182
0.365717
0.350185
0.334568
0.318845
0.302989
0.286966
0.270732
0.254225
0.237361
0.220013
0.201983
0.182927
0.162207
0.138341
0.106852
0.0484429
0.0797592
0.181437
0.240178
0.286665
0.328073
0.366694
0.403482
0.438906
0.47323
0.506623
0.539205
0.571063
0.602266
0.632868
0.662911
0.692427
0.721438
0.749962
0.778009
0.805582
0.832683
0.859308
0.885451
0.911105
0.936259
0.960903
0.985026
1.00862
1.03166
1.05416
1.07608
1.09744
1.11821
1.13839
1.15798
1.17696
1.19534
1.21311
1.23026
1.24681
1.26275
1.27808
1.2928
1.30692
1.32045
1.33338
1.34572
1.35748
1.36867
1.37929
1.38936
1.39888
1.40786
1.41632
1.42425
1.43167
1.4386
1.44504
1.45101
1.45651
1.46156
1.46617
1.47034
1.47409
1.47742
1.48035
1.48289
1.48505
1.48684
1.48825
1.48932
1.49004
1.49042
1.49047
1.4902
1.48962
1.48873
1.48755
1.48608
1.48432
1.48228
1.47998
1.47741
1.47458
1.4715
1.46818
1.46461
1.46081
1.45678
1.45252
1.44804
1.44335
1.43844
1.43332
1.428
1.42248
1.41676
1.41085
1.40474
1.39845
1.39197
1.38532
1.37848
1.37147
1.36428
1.35692
1.3494
1.3417
1.33384
1.32582
1.31763
1.30928
1.30078
1.29212
1.2833
1.27433
1.2652
1.25592
1.24649
1.23691
1.22719
1.21731
1.20728
1.19711
1.18679
1.17633
1.16572
1.15497
1.14408
1.13304
1.12187
1.11055
1.09909
1.0875
1.07577
1.0639
1.05189
1.03975
1.02748
1.01508
1.00255
0.989888
0.977102
0.964191
0.951158
0.938004
0.924733
0.911347
0.897847
0.884238
0.870522
0.856701
0.84278
0.828761
0.814648
0.800445
0.786156
0.771783
0.757332
0.742806
0.72821
0.713548
0.698823
0.68404
0.669204
0.654318
0.639387
0.624414
0.609404
0.594359
0.579284
0.564182
0.549054
0.533904
0.518733
0.503542
0.488332
0.473103
0.457853
0.442581
0.427283
0.411955
0.39659
0.381181
0.365717
0.350185
0.334568
0.318844
0.302989
0.286966
0.270732
0.254225
0.237361
0.220013
0.201983
0.182927
0.162207
0.138343
0.106855
0.0484388
0.0902798
0.203768
0.268421
0.31889
0.363412
0.404681
0.443838
0.481449
0.517829
0.553176
0.587622
0.621267
0.654184
0.686433
0.71806
0.749101
0.779584
0.809528
0.838946
0.867848
0.896237
0.924112
0.95147
0.978305
1.00461
1.03037
1.05559
1.08025
1.10434
1.12785
1.15077
1.17309
1.19481
1.21592
1.23641
1.25627
1.27551
1.29412
1.3121
1.32944
1.34616
1.36224
1.3777
1.39253
1.40675
1.42035
1.43334
1.44573
1.45752
1.46873
1.47937
1.48943
1.49893
1.50788
1.51629
1.52417
1.53153
1.53838
1.54474
1.55061
1.556
1.56093
1.56541
1.56944
1.57303
1.57621
1.57897
1.58132
1.58328
1.58486
1.58606
1.5869
1.58738
1.58751
1.5873
1.58676
1.5859
1.58472
1.58323
1.58144
1.57936
1.57699
1.57434
1.57141
1.56822
1.56476
1.56105
1.55708
1.55287
1.54842
1.54373
1.53881
1.53366
1.52829
1.5227
1.51689
1.51087
1.50465
1.49822
1.4916
1.48477
1.47775
1.47054
1.46314
1.45555
1.44778
1.43983
1.4317
1.42339
1.4149
1.40625
1.39742
1.38842
1.37925
1.36992
1.36042
1.35076
1.34093
1.33094
1.32079
1.31048
1.30001
1.28939
1.27861
1.26767
1.25658
1.24533
1.23393
1.22238
1.21067
1.19882
1.18682
1.17466
1.16236
1.14992
1.13733
1.12459
1.11171
1.0987
1.08554
1.07224
1.05881
1.04524
1.03155
1.01772
1.00376
0.989684
0.975482
0.96116
0.946722
0.93217
0.917508
0.902738
0.887866
0.872893
0.857825
0.842665
0.827417
0.812085
0.796673
0.781186
0.765627
0.750002
0.734315
0.718569
0.702769
0.68692
0.671025
0.655088
0.639113
0.623103
0.607061
0.59099
0.574893
0.55877
0.542624
0.526455
0.510262
0.494046
0.477804
0.461533
0.445229
0.428887
0.412499
0.396055
0.379544
0.362948
0.346249
0.32942
0.312426
0.295222
0.277742
0.259894
0.241535
0.222439
0.20221
0.180088
0.154376
0.11995
0.0547149
0.0902827
0.20377
0.268422
0.318891
0.363411
0.40468
0.443838
0.481448
0.517828
0.553175
0.587621
0.621266
0.654183
0.686432
0.718059
0.7491
0.779582
0.809526
0.838945
0.867847
0.896236
0.92411
0.951468
0.978303
1.00461
1.03037
1.05559
1.08025
1.10434
1.12785
1.15077
1.17309
1.19481
1.21592
1.23641
1.25627
1.27551
1.29412
1.3121
1.32944
1.34616
1.36224
1.3777
1.39253
1.40674
1.42034
1.43334
1.44573
1.45752
1.46873
1.47936
1.48943
1.49893
1.50788
1.51629
1.52417
1.53153
1.53838
1.54474
1.55061
1.556
1.56093
1.56541
1.56944
1.57303
1.57621
1.57897
1.58132
1.58328
1.58486
1.58606
1.5869
1.58738
1.58751
1.5873
1.58676
1.5859
1.58472
1.58323
1.58144
1.57936
1.57699
1.57434
1.57141
1.56822
1.56476
1.56105
1.55708
1.55287
1.54841
1.54372
1.5388
1.53366
1.52828
1.52269
1.51689
1.51087
1.50465
1.49822
1.49159
1.48477
1.47775
1.47054
1.46314
1.45555
1.44778
1.43983
1.4317
1.42339
1.4149
1.40625
1.39742
1.38842
1.37925
1.36992
1.36042
1.35075
1.34093
1.33094
1.32079
1.31048
1.30001
1.28939
1.27861
1.26767
1.25658
1.24533
1.23393
1.22238
1.21067
1.19882
1.18681
1.17466
1.16236
1.14992
1.13733
1.12459
1.11171
1.09869
1.08554
1.07224
1.05881
1.04524
1.03155
1.01772
1.00376
0.989684
0.975481
0.96116
0.946721
0.932169
0.917507
0.902738
0.887865
0.872893
0.857824
0.842664
0.827416
0.812084
0.796672
0.781185
0.765627
0.750002
0.734314
0.718568
0.702769
0.68692
0.671025
0.655088
0.639113
0.623103
0.607061
0.59099
0.574892
0.55877
0.542623
0.526454
0.510262
0.494045
0.477803
0.461532
0.445229
0.428887
0.412499
0.396055
0.379543
0.362948
0.346249
0.32942
0.312426
0.295222
0.277742
0.259894
0.241535
0.222439
0.20221
0.180088
0.154377
0.119951
0.054715
0.100484
0.22555
0.296026
0.350456
0.39807
0.441938
0.48338
0.523059
0.561348
0.598476
0.634599
0.669828
0.704246
0.73792
0.770902
0.803234
0.834948
0.866068
0.896613
0.926595
0.95602
0.984893
1.01321
1.04098
1.06818
1.09481
1.12088
1.14635
1.17124
1.19553
1.21921
1.24227
1.26471
1.28652
1.3077
1.32823
1.34813
1.36738
1.38598
1.40394
1.42126
1.43793
1.45395
1.46935
1.4841
1.49823
1.51174
1.52463
1.53691
1.54859
1.55968
1.57018
1.58011
1.58948
1.59828
1.60655
1.61427
1.62147
1.62817
1.63435
1.64005
1.64526
1.65001
1.65429
1.65812
1.66152
1.66448
1.66702
1.66916
1.67089
1.67223
1.67319
1.67378
1.67401
1.67387
1.6734
1.67258
1.67143
1.66996
1.66817
1.66607
1.66367
1.66097
1.65799
1.65472
1.65118
1.64736
1.64328
1.63894
1.63434
1.6295
1.62441
1.61908
1.61352
1.60772
1.60169
1.59545
1.58898
1.5823
1.5754
1.56829
1.56098
1.55347
1.54575
1.53784
1.52973
1.52143
1.51294
1.50427
1.4954
1.48635
1.47713
1.46772
1.45813
1.44836
1.43842
1.42831
1.41802
1.40756
1.39693
1.38613
1.37516
1.36403
1.35273
1.34127
1.32964
1.31785
1.30589
1.29378
1.28151
1.26907
1.25648
1.24373
1.23083
1.21777
1.20456
1.1912
1.17769
1.16402
1.15022
1.13626
1.12216
1.10793
1.09355
1.07904
1.06439
1.04961
1.0347
1.01967
1.00451
0.989232
0.973839
0.958333
0.942718
0.926997
0.911175
0.895256
0.879243
0.863141
0.846954
0.830687
0.814343
0.797928
0.781445
0.764898
0.748293
0.731633
0.714921
0.698163
0.681361
0.664519
0.647639
0.630725
0.613779
0.596802
0.579796
0.562762
0.545699
0.528608
0.511485
0.494329
0.477136
0.459901
0.442617
0.425275
0.407863
0.390366
0.372765
0.355031
0.337132
0.319016
0.300613
0.281821
0.262479
0.242331
0.220925
0.197399
0.169828
0.132484
0.0607083
0.100487
0.225553
0.296027
0.350456
0.39807
0.441937
0.483379
0.523058
0.561346
0.598475
0.634598
0.669826
0.704245
0.737919
0.770901
0.803233
0.834947
0.866067
0.896612
0.926593
0.956019
0.984891
1.01321
1.04097
1.06818
1.09481
1.12087
1.14635
1.17124
1.19553
1.2192
1.24227
1.26471
1.28652
1.30769
1.32823
1.34813
1.36738
1.38598
1.40394
1.42126
1.43792
1.45395
1.46934
1.4841
1.49823
1.51174
1.52463
1.53691
1.54859
1.55968
1.57018
1.58011
1.58948
1.59828
1.60654
1.61427
1.62147
1.62816
1.63435
1.64005
1.64526
1.65001
1.65429
1.65812
1.66152
1.66448
1.66702
1.66916
1.67089
1.67223
1.67319
1.67378
1.674
1.67387
1.67339
1.67258
1.67143
1.66995
1.66817
1.66607
1.66367
1.66097
1.65799
1.65472
1.65117
1.64736
1.64328
1.63894
1.63434
1.6295
1.62441
1.61908
1.61351
1.60772
1.60169
1.59545
1.58898
1.58229
1.5754
1.56829
1.56098
1.55347
1.54575
1.53784
1.52973
1.52143
1.51294
1.50427
1.4954
1.48635
1.47712
1.46771
1.45813
1.44836
1.43842
1.4283
1.41802
1.40756
1.39693
1.38613
1.37516
1.36403
1.35273
1.34127
1.32964
1.31785
1.30589
1.29378
1.2815
1.26907
1.25648
1.24373
1.23083
1.21777
1.20456
1.1912
1.17768
1.16402
1.15021
1.13626
1.12216
1.10793
1.09355
1.07904
1.06439
1.04961
1.0347
1.01966
1.00451
0.989231
0.973838
0.958332
0.942717
0.926997
0.911175
0.895255
0.879243
0.863141
0.846954
0.830686
0.814343
0.797927
0.781444
0.764898
0.748292
0.731632
0.714921
0.698162
0.68136
0.664518
0.647639
0.630725
0.613779
0.596802
0.579796
0.562762
0.545699
0.528607
0.511485
0.494329
0.477136
0.459901
0.442617
0.425275
0.407863
0.390366
0.372764
0.355031
0.337132
0.319016
0.300613
0.281821
0.26248
0.242331
0.220926
0.197399
0.169829
0.132485
0.0607086
0.110498
0.246961
0.323206
0.381588
0.432288
0.478729
0.522405
0.564075
0.604173
0.642964
0.680627
0.717291
0.753051
0.787983
0.822147
0.85559
0.888351
0.92046
0.951939
0.982806
1.01307
1.04274
1.07183
1.10032
1.12822
1.15553
1.18224
1.20834
1.23383
1.2587
1.28294
1.30655
1.32953
1.35186
1.37355
1.39459
1.41497
1.4347
1.45378
1.47219
1.48996
1.50707
1.52353
1.53935
1.55452
1.56906
1.58296
1.59625
1.60891
1.62096
1.63242
1.64328
1.65355
1.66325
1.67238
1.68096
1.68899
1.69649
1.70347
1.70993
1.71588
1.72135
1.72633
1.73083
1.73488
1.73847
1.74163
1.74435
1.74664
1.74853
1.75001
1.7511
1.7518
1.75212
1.75208
1.75167
1.75092
1.74982
1.74838
1.74662
1.74453
1.74213
1.73942
1.73641
1.7331
1.72951
1.72563
1.72148
1.71705
1.71236
1.7074
1.70219
1.69673
1.69102
1.68507
1.67887
1.67245
1.66579
1.65891
1.6518
1.64448
1.63693
1.62918
1.62121
1.61303
1.60465
1.59607
1.58729
1.57831
1.56913
1.55976
1.5502
1.54045
1.53051
1.52038
1.51007
1.49958
1.48891
1.47805
1.46702
1.45581
1.44442
1.43285
1.42111
1.4092
1.39712
1.38486
1.37244
1.35984
1.34708
1.33415
1.32105
1.30779
1.29437
1.28079
1.26704
1.25314
1.23908
1.22486
1.21049
1.19596
1.18129
1.16647
1.1515
1.13639
1.12114
1.10575
1.09023
1.07458
1.05879
1.04288
1.02685
1.0107
0.994431
0.978054
0.96157
0.944983
0.928297
0.911516
0.894644
0.877686
0.860647
0.843529
0.826338
0.809078
0.791753
0.774367
0.756924
0.739427
0.72188
0.704286
0.686648
0.668969
0.651251
0.633495
0.615703
0.597875
0.580012
0.562113
0.544177
0.526201
0.508182
0.490115
0.471993
0.453809
0.43555
0.417202
0.398745
0.38015
0.361381
0.342384
0.323082
0.30336
0.283041
0.261834
0.239238
0.214293
0.184849
0.144611
0.0664592
0.110501
0.246964
0.323207
0.381588
0.432287
0.478728
0.522404
0.564074
0.604172
0.642962
0.680626
0.717289
0.753049
0.787982
0.822145
0.855588
0.888349
0.920458
0.951938
0.982805
1.01307
1.04274
1.07183
1.10032
1.12822
1.15553
1.18223
1.20834
1.23382
1.25869
1.28294
1.30655
1.32953
1.35186