/*--------------------------------*- C++ -*----------------------------------*\
  =========                 |
  \\      /  F ield         | OpenFOAM: The Open Source CFD Toolbox
   \\    /   O peration     | Website:  https://openfoam.org
    \\  /    A nd           | Version:  8
     \\/     M anipulation  |
\*---------------------------------------------------------------------------*/
FoamFile
{
    version     2.0;
    format      ascii;
    class       surfaceScalarField;
    location    "1600";
    object      phi;
}
// * * * * * * * * * * * * * * * * * * * * * * * * * * * * * * * * * * * * * //

dimensions      [1 0 -1 0 0 0 0];

internalField   nonuniform List<scalar> 
119360
(
-2.24124e-07
-3.15779e-12
2.24128e-07
-3.61047e-07
-2.20018e-12
1.36933e-07
-3.8912e-07
-1.56468e-12
2.80862e-08
-3.3254e-07
-1.82144e-12
-5.65641e-08
-2.21809e-07
-2.32443e-12
-1.10712e-07
-7.80807e-08
-2.54687e-12
-1.43706e-07
8.43445e-08
-2.6242e-12
-1.624e-07
2.55807e-07
-2.48093e-12
-1.71436e-07
4.30216e-07
-2.33971e-12
-1.74382e-07
6.03856e-07
-2.23802e-12
-1.73614e-07
7.74348e-07
-2.06871e-12
-1.70467e-07
9.40197e-07
-1.88947e-12
-1.65825e-07
1.10048e-06
-1.74614e-12
-1.60259e-07
1.25464e-06
-1.62605e-12
-1.54147e-07
1.40241e-06
-1.5478e-12
-1.47744e-07
1.54365e-06
-1.53495e-12
-1.41223e-07
1.67836e-06
-1.5467e-12
-1.34697e-07
1.80662e-06
-1.51755e-12
-1.28246e-07
1.92856e-06
-1.43395e-12
-1.2192e-07
2.04433e-06
-1.32932e-12
-1.1575e-07
2.15411e-06
-1.22584e-12
-1.09757e-07
2.25808e-06
-1.11219e-12
-1.03952e-07
2.35643e-06
-9.81512e-13
-9.8338e-08
2.44937e-06
-8.5714e-13
-9.29162e-08
2.53707e-06
-7.73096e-13
-8.76841e-08
2.61973e-06
-7.38985e-13
-8.26377e-08
2.69752e-06
-7.37431e-13
-7.77719e-08
2.77062e-06
-7.47285e-13
-7.30811e-08
2.83919e-06
-7.63688e-13
-6.85597e-08
2.90341e-06
-7.91444e-13
-6.4202e-08
2.96343e-06
-8.25029e-13
-6.00028e-08
3.01941e-06
-8.46456e-13
-5.59569e-08
3.07149e-06
-8.33661e-13
-5.20596e-08
3.11981e-06
-7.80065e-13
-4.83066e-08
3.16453e-06
-6.9802e-13
-4.4694e-08
3.20577e-06
-6.11284e-13
-4.12181e-08
3.24366e-06
-5.39314e-13
-3.78759e-08
3.27835e-06
-4.88493e-13
-3.46642e-08
3.30995e-06
-4.5416e-13
-3.15801e-08
3.33859e-06
-4.29568e-13
-2.86208e-08
3.36439e-06
-4.14525e-13
-2.57838e-08
3.38748e-06
-4.13748e-13
-2.30663e-08
3.40796e-06
-4.31595e-13
-2.04658e-08
3.42596e-06
-4.64319e-13
-1.79798e-08
3.44158e-06
-4.9782e-13
-1.56055e-08
3.45494e-06
-5.14779e-13
-1.33402e-08
3.46614e-06
-5.0351e-13
-1.11811e-08
3.47529e-06
-4.63764e-13
-9.1253e-09
3.48248e-06
-4.06421e-13
-7.17003e-09
3.48781e-06
-3.47385e-13
-5.31239e-09
3.49138e-06
-2.99729e-13
-3.54945e-09
3.49327e-06
-2.6892e-13
-1.87816e-09
3.49359e-06
-2.53627e-13
-2.94559e-10
3.4924e-06
-2.49048e-13
1.20316e-09
3.4898e-06
-2.52156e-13
2.61609e-09
3.48587e-06
-2.6287e-13
3.94798e-09
3.48068e-06
-2.83437e-13
5.20264e-09
3.47431e-06
-3.14773e-13
6.38345e-09
3.46683e-06
-3.54769e-13
7.49361e-09
3.45831e-06
-3.97374e-13
8.53625e-09
3.44881e-06
-4.34678e-13
9.51444e-09
3.43839e-06
-4.60435e-13
1.04312e-08
3.42711e-06
-4.7298e-13
1.12895e-08
3.41503e-06
-4.75645e-13
1.20923e-08
3.4022e-06
-4.762e-13
1.28422e-08
3.38868e-06
-4.83667e-13
1.3542e-08
3.37449e-06
-5.04483e-13
1.41944e-08
3.35971e-06
-5.40427e-13
1.48017e-08
3.34435e-06
-5.87972e-13
1.53666e-08
3.32847e-06
-6.39736e-13
1.58914e-08
3.31211e-06
-6.8706e-13
1.63785e-08
3.29529e-06
-7.2206e-13
1.68302e-08
3.27806e-06
-7.41128e-13
1.72486e-08
3.26044e-06
-7.44625e-13
1.76358e-08
3.24246e-06
-7.36826e-13
1.79938e-08
3.22415e-06
-7.24391e-13
1.83246e-08
3.20554e-06
-7.13955e-13
1.86298e-08
3.18665e-06
-7.10486e-13
1.89112e-08
3.1675e-06
-7.15676e-13
1.91703e-08
3.14811e-06
-7.2825e-13
1.94088e-08
3.1285e-06
-7.43626e-13
1.96281e-08
3.10869e-06
-7.56644e-13
1.98296e-08
3.08869e-06
-7.61196e-13
2.00147e-08
3.06853e-06
-7.52814e-13
2.01846e-08
3.04821e-06
-7.29388e-13
2.03408e-08
3.02775e-06
-6.91335e-13
2.04842e-08
3.00715e-06
-6.41458e-13
2.0616e-08
2.98644e-06
-5.84449e-13
2.07372e-08
2.96561e-06
-5.25662e-13
2.08487e-08
2.94468e-06
-4.70567e-13
2.09514e-08
2.92366e-06
-4.23744e-13
2.10462e-08
2.90254e-06
-3.88522e-13
2.11337e-08
2.88135e-06
-3.65846e-13
2.12148e-08
2.86008e-06
-3.55465e-13
2.12902e-08
2.83873e-06
-3.55743e-13
2.13604e-08
2.81732e-06
-3.62876e-13
2.14263e-08
2.79585e-06
-3.73479e-13
2.14883e-08
2.77432e-06
-3.83082e-13
2.15471e-08
2.75273e-06
-3.88356e-13
2.16032e-08
2.73109e-06
-3.86357e-13
2.16573e-08
2.70939e-06
-3.74839e-13
2.17099e-08
2.68765e-06
-3.53134e-13
2.17614e-08
2.66585e-06
-3.22187e-13
2.18124e-08
2.644e-06
-2.83939e-13
2.18633e-08
2.6221e-06
-2.41473e-13
2.19146e-08
2.60015e-06
-1.9873e-13
2.19668e-08
2.57814e-06
-1.60288e-13
2.20203e-08
2.55608e-06
-1.30368e-13
2.20755e-08
2.53396e-06
-1.11883e-13
2.21329e-08
2.51178e-06
-1.06998e-13
2.21929e-08
2.48953e-06
-1.15935e-13
2.22559e-08
2.46722e-06
-1.36391e-13
2.23223e-08
2.44483e-06
-1.64618e-13
2.23927e-08
2.42237e-06
-1.96648e-13
2.24674e-08
2.39983e-06
-2.26291e-13
2.25471e-08
2.37721e-06
-2.49606e-13
2.2632e-08
2.35449e-06
-2.62679e-13
2.27228e-08
2.33168e-06
-2.64927e-13
2.28198e-08
2.30876e-06
-2.57877e-13
2.29236e-08
2.28574e-06
-2.44166e-13
2.30345e-08
2.26259e-06
-2.28706e-13
2.3153e-08
2.23932e-06
-2.15605e-13
2.32796e-08
2.21591e-06
-2.07972e-13
2.34146e-08
2.19236e-06
-2.0714e-13
2.35585e-08
2.16866e-06
-2.12164e-13
2.37117e-08
2.14479e-06
-2.20296e-13
2.38748e-08
2.12075e-06
-2.29094e-13
2.40481e-08
2.09653e-06
-2.36172e-13
2.42323e-08
2.07211e-06
-2.41446e-13
2.44277e-08
2.04748e-06
-2.47913e-13
2.46348e-08
2.02263e-06
-2.59154e-13
2.48541e-08
1.99756e-06
-2.8047e-13
2.50861e-08
1.97223e-06
-3.14471e-13
2.53311e-08
1.94665e-06
-3.60517e-13
2.55895e-08
1.9208e-06
-4.13752e-13
2.58619e-08
1.89466e-06
-4.66849e-13
2.61485e-08
1.86821e-06
-5.10592e-13
2.64499e-08
1.84146e-06
-5.38208e-13
2.67664e-08
1.81437e-06
-5.46896e-13
2.70985e-08
1.78693e-06
-5.38458e-13
2.74466e-08
1.75913e-06
-5.19279e-13
2.7811e-08
1.73095e-06
-4.95631e-13
2.81921e-08
1.70238e-06
-4.72206e-13
2.85903e-08
1.67338e-06
-4.48447e-13
2.90059e-08
1.64396e-06
-4.22301e-13
2.94392e-08
1.61408e-06
-3.90715e-13
2.98906e-08
1.58374e-06
-3.54244e-13
3.03603e-08
1.5529e-06
-3.17524e-13
3.08486e-08
1.52156e-06
-2.88547e-13
3.13557e-08
1.48969e-06
-2.72754e-13
3.18818e-08
1.45727e-06
-2.69229e-13
3.2427e-08
1.4243e-06
-2.69562e-13
3.29915e-08
1.39073e-06
-2.60458e-13
3.35752e-08
1.35657e-06
-2.33036e-13
3.41782e-08
1.32178e-06
-1.87239e-13
3.48003e-08
1.28635e-06
-1.34087e-13
3.54414e-08
1.25026e-06
-8.6986e-14
3.6101e-08
1.21349e-06
-5.26246e-14
3.67786e-08
1.17602e-06
-2.37033e-14
3.74735e-08
1.13785e-06
1.53488e-14
3.81847e-08
1.09894e-06
7.55784e-14
3.89114e-08
1.0593e-06
1.51101e-13
3.96521e-08
1.0189e-06
2.21323e-13
4.04052e-08
9.77737e-07
2.64955e-13
4.11685e-08
9.35801e-07
2.81886e-13
4.19396e-08
8.93088e-07
2.98456e-13
4.27156e-08
8.49596e-07
3.45002e-13
4.34932e-08
8.05329e-07
4.2677e-13
4.42686e-08
7.60291e-07
5.11036e-13
4.5037e-08
7.14496e-07
5.54778e-13
4.57928e-08
6.67963e-07
5.48506e-13
4.65295e-08
6.20719e-07
5.34128e-13
4.72397e-08
5.72798e-07
5.68712e-13
4.79148e-08
5.24247e-07
6.58362e-13
4.85447e-08
4.75121e-07
7.42406e-13
4.91175e-08
4.25493e-07
7.60447e-13
4.96193e-08
3.75448e-07
7.38076e-13
5.00337e-08
3.25095e-07
7.77767e-13
5.0342e-08
2.7456e-07
9.35918e-13
5.05223e-08
2.24e-07
1.13332e-12
5.05481e-08
1.73598e-07
1.2379e-12
5.03881e-08
1.23579e-07
1.25328e-12
5.00044e-08
7.42132e-08
1.33737e-12
4.93506e-08
2.58275e-08
1.58296e-12
4.83711e-08
-2.11677e-08
1.84924e-12
4.698e-08
-6.62557e-08
2.01911e-12
4.50715e-08
-1.08836e-07
2.28989e-12
4.25632e-08
-1.4822e-07
2.90429e-12
3.93675e-08
-1.8358e-07
3.74212e-12
3.53425e-08
-2.13887e-07
4.59199e-12
3.02878e-08
-2.37883e-07
5.68812e-12
2.39754e-08
-2.54037e-07
7.44382e-12
1.61325e-08
-2.60496e-07
1.0245e-11
6.43293e-09
-2.55137e-07
1.5872e-11
-5.39563e-09
-2.35731e-07
2.78535e-11
-1.94532e-08
-2.00358e-07
4.71495e-11
-3.54364e-08
-1.48447e-07
7.9264e-11
-5.20087e-08
-8.43054e-08
-7.08947e-11
-6.40883e-08
-2.68572e-08
-1.85462e-10
-5.72805e-08
-4.06486e-11
-2.68355e-08
-2.24125e-07
2.24128e-07
-3.61048e-07
1.36928e-07
-3.89117e-07
2.80817e-08
-3.32534e-07
-5.65678e-08
-2.21801e-07
-1.10715e-07
-7.80721e-08
-1.43708e-07
8.43529e-08
-1.62401e-07
2.55814e-07
-1.71436e-07
4.30222e-07
-1.74382e-07
6.03861e-07
-1.73614e-07
7.74352e-07
-1.70467e-07
9.40199e-07
-1.65825e-07
1.10048e-06
-1.60258e-07
1.25464e-06
-1.54147e-07
1.4024e-06
-1.47744e-07
1.54364e-06
-1.41222e-07
1.67836e-06
-1.34697e-07
1.80662e-06
-1.28245e-07
1.92856e-06
-1.21919e-07
2.04432e-06
-1.15749e-07
2.1541e-06
-1.09756e-07
2.25807e-06
-1.03951e-07
2.35643e-06
-9.83365e-08
2.44936e-06
-9.29147e-08
2.53707e-06
-8.76826e-08
2.61972e-06
-8.26363e-08
2.69751e-06
-7.77705e-08
2.77061e-06
-7.30797e-08
2.83919e-06
-6.85582e-08
2.9034e-06
-6.42005e-08
2.96342e-06
-6.00011e-08
3.0194e-06
-5.59551e-08
3.07148e-06
-5.20576e-08
3.1198e-06
-4.83045e-08
3.16452e-06
-4.46918e-08
3.20576e-06
-4.12159e-08
3.24366e-06
-3.78737e-08
3.27834e-06
-3.4662e-08
3.30994e-06
-3.15779e-08
3.33858e-06
-2.86187e-08
3.36439e-06
-2.57816e-08
3.38747e-06
-2.30642e-08
3.40796e-06
-2.04638e-08
3.42595e-06
-1.79778e-08
3.44158e-06
-1.56035e-08
3.45494e-06
-1.33381e-08
3.46614e-06
-1.1179e-08
3.47528e-06
-9.12317e-09
3.48247e-06
-7.16791e-09
3.4878e-06
-5.31033e-09
3.49137e-06
-3.54748e-09
3.49327e-06
-1.87629e-09
3.49358e-06
-2.92782e-10
3.49239e-06
1.20484e-09
3.4898e-06
2.61767e-09
3.48586e-06
3.94946e-09
3.48067e-06
5.20402e-09
3.47431e-06
6.38473e-09
3.46683e-06
7.49481e-09
3.4583e-06
8.5374e-09
3.4488e-06
9.51557e-09
3.43838e-06
1.04323e-08
3.42711e-06
1.12907e-08
3.41503e-06
1.20934e-08
3.4022e-06
1.28434e-08
3.38867e-06
1.35432e-08
3.37449e-06
1.41955e-08
3.3597e-06
1.48028e-08
3.34435e-06
1.53677e-08
3.32847e-06
1.58926e-08
3.3121e-06
1.63798e-08
3.29529e-06
1.68315e-08
3.27806e-06
1.725e-08
3.26044e-06
1.76374e-08
3.24246e-06
1.79955e-08
3.22415e-06
1.83264e-08
3.20554e-06
1.86316e-08
3.18664e-06
1.89131e-08
3.16749e-06
1.91723e-08
3.1481e-06
1.94108e-08
3.12849e-06
1.96301e-08
3.10869e-06
1.98316e-08
3.08869e-06
2.00168e-08
3.06853e-06
2.01868e-08
3.04821e-06
2.0343e-08
3.02775e-06
2.04864e-08
3.00715e-06
2.06182e-08
2.98644e-06
2.07393e-08
2.96561e-06
2.08508e-08
2.94468e-06
2.09535e-08
2.92365e-06
2.10481e-08
2.90254e-06
2.11356e-08
2.88135e-06
2.12166e-08
2.86007e-06
2.12919e-08
2.83873e-06
2.13621e-08
2.81732e-06
2.14279e-08
2.79585e-06
2.14898e-08
2.77432e-06
2.15486e-08
2.75273e-06
2.16048e-08
2.73109e-06
2.16588e-08
2.70939e-06
2.17114e-08
2.68765e-06
2.17629e-08
2.66585e-06
2.18139e-08
2.644e-06
2.18648e-08
2.6221e-06
2.19161e-08
2.60015e-06
2.19683e-08
2.57814e-06
2.20217e-08
2.55608e-06
2.20768e-08
2.53396e-06
2.2134e-08
2.51177e-06
2.21938e-08
2.48953e-06
2.22567e-08
2.46722e-06
2.2323e-08
2.44483e-06
2.23933e-08
2.42237e-06
2.2468e-08
2.39983e-06
2.25476e-08
2.37721e-06
2.26326e-08
2.35449e-06
2.27234e-08
2.33168e-06
2.28205e-08
2.30876e-06
2.29243e-08
2.28574e-06
2.30353e-08
2.26259e-06
2.31539e-08
2.23932e-06
2.32804e-08
2.21591e-06
2.34154e-08
2.19236e-06
2.35593e-08
2.16866e-06
2.37125e-08
2.14479e-06
2.38755e-08
2.12075e-06
2.40489e-08
2.09653e-06
2.4233e-08
2.07211e-06
2.44284e-08
2.04748e-06
2.46355e-08
2.02263e-06
2.48548e-08
1.99755e-06
2.50868e-08
1.97223e-06
2.53318e-08
1.94665e-06
2.55902e-08
1.92079e-06
2.58626e-08
1.89465e-06
2.61493e-08
1.86821e-06
2.64508e-08
1.84146e-06
2.67674e-08
1.81437e-06
2.70996e-08
1.78693e-06
2.74478e-08
1.75913e-06
2.78123e-08
1.73095e-06
2.81935e-08
1.70238e-06
2.85917e-08
1.67338e-06
2.90073e-08
1.64396e-06
2.94407e-08
1.61408e-06
2.9892e-08
1.58374e-06
3.03617e-08
1.5529e-06
3.085e-08
1.52156e-06
3.1357e-08
1.48969e-06
3.18831e-08
1.45727e-06
3.24282e-08
1.4243e-06
3.29926e-08
1.39073e-06
3.35763e-08
1.35657e-06
3.41793e-08
1.32178e-06
3.48014e-08
1.28635e-06
3.54425e-08
1.25026e-06
3.6102e-08
1.21349e-06
3.67795e-08
1.17602e-06
3.74743e-08
1.13785e-06
3.81856e-08
1.09894e-06
3.89122e-08
1.0593e-06
3.96528e-08
1.0189e-06
4.04058e-08
9.77737e-07
4.11689e-08
9.35802e-07
4.19398e-08
8.93089e-07
4.27157e-08
8.49597e-07
4.34933e-08
8.0533e-07
4.42686e-08
7.60292e-07
4.50368e-08
7.14497e-07
4.57925e-08
6.67964e-07
4.6529e-08
6.2072e-07
4.72391e-08
5.728e-07
4.79141e-08
5.24249e-07
4.85439e-08
4.75123e-07
4.91166e-08
4.25495e-07
4.96182e-08
3.7545e-07
5.00326e-08
3.25097e-07
5.0341e-08
2.74564e-07
5.05214e-08
2.24004e-07
5.05473e-08
1.73602e-07
5.03871e-08
1.23584e-07
5.00035e-08
7.42203e-08
4.93499e-08
2.5836e-08
4.83706e-08
-2.1158e-08
4.69795e-08
-6.6244e-08
4.50712e-08
-1.08821e-07
4.25634e-08
-1.48202e-07
3.93685e-08
-1.83559e-07
3.53438e-08
-2.13862e-07
3.02894e-08
-2.37853e-07
2.39784e-08
-2.54001e-07
1.6138e-08
-2.60449e-07
6.4415e-09
-2.55066e-07
-5.38395e-09
-2.35624e-07
-1.94365e-08
-2.00198e-07
-3.54044e-08
-1.48186e-07
-5.19591e-08
-8.42089e-08
-6.40709e-08
-2.71971e-08
-5.72158e-08
-2.72582e-08
-1.16089e-07
2.36222e-14
3.40236e-07
-1.0925e-07
8.3478e-14
1.30095e-07
-5.6266e-08
1.40593e-13
-2.4885e-08
2.59048e-08
4.7017e-14
-1.38719e-07
1.31063e-07
-2.50841e-14
-2.15852e-07
2.53142e-07
-4.54049e-14
-2.65765e-07
3.86708e-07
4.60816e-15
-2.95944e-07
5.2739e-07
5.48023e-14
-3.12096e-07
6.71697e-07
7.74703e-14
-3.18667e-07
8.16936e-07
8.74682e-14
-3.18833e-07
9.6116e-07
8.95004e-14
-3.14672e-07
1.10298e-06
8.55028e-14
-3.07625e-07
1.24142e-06
8.51622e-14
-2.98681e-07
1.37581e-06
8.44053e-14
-2.88525e-07
1.50572e-06
6.99303e-14
-2.77635e-07
1.63086e-06
4.70732e-14
-2.66347e-07
1.75107e-06
3.59498e-14
-2.54896e-07
1.86628e-06
4.37696e-14
-2.43446e-07
1.97649e-06
6.02422e-14
-2.32111e-07
2.08173e-06
7.5792e-14
-2.20967e-07
2.18205e-06
9.21468e-14
-2.10067e-07
2.27756e-06
1.134e-13
-1.99443e-07
2.36835e-06
1.35695e-13
-1.89114e-07
2.45454e-06
1.50343e-13
-1.7909e-07
2.53625e-06
1.5309e-13
-1.69375e-07
2.6136e-06
1.47935e-13
-1.59969e-07
2.68671e-06
1.41509e-13
-1.50868e-07
2.75571e-06
1.36478e-13
-1.42066e-07
2.82072e-06
1.31177e-13
-1.33557e-07
2.88187e-06
1.2437e-13
-1.25334e-07
2.93927e-06
1.18617e-13
-1.17391e-07
2.99306e-06
1.1938e-13
-1.0972e-07
3.04333e-06
1.29997e-13
-1.02316e-07
3.09022e-06
1.48739e-13
-9.51726e-08
3.13382e-06
1.69472e-13
-8.82836e-08
3.17427e-06
1.86091e-13
-8.16441e-08
3.21166e-06
1.95985e-13
-7.52489e-08
3.24611e-06
2.00433e-13
-6.90935e-08
3.27772e-06
2.02216e-13
-6.31732e-08
3.3066e-06
2.03028e-13
-5.74837e-08
3.33286e-06
2.01911e-13
-5.20205e-08
3.35659e-06
1.97276e-13
-4.67795e-08
3.37789e-06
1.88741e-13
-4.17564e-08
3.39688e-06
1.78541e-13
-3.69466e-08
3.41364e-06
1.70561e-13
-3.23458e-08
3.42826e-06
1.68389e-13
-2.79492e-08
3.44085e-06
1.72746e-13
-2.37523e-08
3.45149e-06
1.81628e-13
-1.975e-08
3.46028e-06
1.91023e-13
-1.59374e-08
3.46729e-06
1.9731e-13
-1.23093e-08
3.47262e-06
1.98704e-13
-8.86037e-09
3.47634e-06
1.95492e-13
-5.58497e-09
3.47854e-06
1.89323e-13
-2.47736e-09
3.47929e-06
1.81489e-13
4.67398e-10
3.47867e-06
1.72593e-13
3.253e-09
3.47675e-06
1.62587e-13
5.88476e-09
3.47359e-06
1.51041e-13
8.36932e-09
3.46928e-06
1.381e-13
1.07128e-08
3.46386e-06
1.24832e-13
1.29209e-08
3.45741e-06
1.12877e-13
1.49997e-08
3.44998e-06
1.0387e-13
1.69547e-08
3.44163e-06
9.86518e-14
1.87915e-08
3.43242e-06
9.66117e-14
2.05156e-08
3.42239e-06
9.62716e-14
2.21324e-08
3.4116e-06
9.58691e-14
2.36471e-08
3.40009e-06
9.3718e-14
2.50648e-08
3.3879e-06
8.93395e-14
2.63905e-08
3.37509e-06
8.34206e-14
2.76291e-08
3.36168e-06
7.74877e-14
2.87853e-08
3.34772e-06
7.3477e-14
2.98636e-08
3.33324e-06
7.29982e-14
3.08686e-08
3.31828e-06
7.67972e-14
3.18043e-08
3.30287e-06
8.45721e-14
3.26749e-08
3.28704e-06
9.50359e-14
3.34844e-08
3.27081e-06
1.06471e-13
3.42364e-08
3.25422e-06
1.16991e-13
3.49346e-08
3.23728e-06
1.25269e-13
3.55825e-08
3.22002e-06
1.30667e-13
3.61832e-08
3.20247e-06
1.33366e-13
3.674e-08
3.18464e-06
1.34143e-13
3.72559e-08
3.16656e-06
1.34227e-13
3.77336e-08
3.14823e-06
1.34858e-13
3.8176e-08
3.12968e-06
1.36981e-13
3.85857e-08
3.11092e-06
1.412e-13
3.8965e-08
3.09196e-06
1.47389e-13
3.93163e-08
3.07282e-06
1.54988e-13
3.96419e-08
3.05351e-06
1.63071e-13
3.99438e-08
3.03405e-06
1.70642e-13
4.02241e-08
3.01443e-06
1.76658e-13
4.04845e-08
2.99467e-06
1.8028e-13
4.07269e-08
2.97478e-06
1.8105e-13
4.09529e-08
2.95477e-06
1.78878e-13
4.11642e-08
2.93464e-06
1.74062e-13
4.13621e-08
2.9144e-06
1.6713e-13
4.15483e-08
2.89405e-06
1.58866e-13
4.17239e-08
2.8736e-06
1.50158e-13
4.18903e-08
2.85305e-06
1.41942e-13
4.20488e-08
2.83241e-06
1.34989e-13
4.22005e-08
2.81168e-06
1.29827e-13
4.23465e-08
2.79087e-06
1.26906e-13
4.2488e-08
2.76996e-06
1.26246e-13
4.26259e-08
2.74898e-06
1.27606e-13
4.27612e-08
2.72791e-06
1.30451e-13
4.2895e-08
2.70676e-06
1.34066e-13
4.30281e-08
2.68552e-06
1.37473e-13
4.31615e-08
2.6642e-06
1.39708e-13
4.3296e-08
2.6428e-06
1.39902e-13
4.34326e-08
2.62132e-06
1.37425e-13
4.35722e-08
2.59974e-06
1.32033e-13
4.37156e-08
2.57808e-06
1.23825e-13
4.38638e-08
2.55633e-06
1.13409e-13
4.40178e-08
2.53448e-06
1.01856e-13
4.41783e-08
2.51253e-06
9.02751e-14
4.43463e-08
2.49048e-06
7.99083e-14
4.45228e-08
2.46833e-06
7.18939e-14
4.47087e-08
2.44606e-06
6.68146e-14
4.49048e-08
2.42368e-06
6.48787e-14
4.5112e-08
2.40117e-06
6.56836e-14
4.53312e-08
2.37854e-06
6.83134e-14
4.55633e-08
2.35577e-06
7.16441e-14
4.58091e-08
2.33286e-06
7.44335e-14
4.60696e-08
2.30981e-06
7.57797e-14
4.63455e-08
2.28659e-06
7.52384e-14
4.66378e-08
2.26321e-06
7.29555e-14
4.69474e-08
2.23965e-06
6.95832e-14
4.7275e-08
2.21591e-06
6.58987e-14
4.76218e-08
2.19198e-06
6.26374e-14
4.79885e-08
2.16784e-06
6.02157e-14
4.8376e-08
2.14349e-06
5.84602e-14
4.87854e-08
2.11891e-06
5.66006e-14
4.92174e-08
2.0941e-06
5.38736e-14
4.9673e-08
2.06904e-06
4.95298e-14
5.0153e-08
2.04372e-06
4.35832e-14
5.06582e-08
2.01813e-06
3.67831e-14
5.11896e-08
1.99225e-06
3.06283e-14
5.17478e-08
1.96607e-06
2.69299e-14
5.23336e-08
1.93958e-06
2.71311e-14
5.29479e-08
1.91277e-06
3.16205e-14
5.35913e-08
1.88561e-06
3.96835e-14
5.42644e-08
1.8581e-06
4.96478e-14
5.49681e-08
1.83022e-06
5.95704e-14
5.57029e-08
1.80195e-06
6.80497e-14
5.64695e-08
1.77329e-06
7.47943e-14
5.72684e-08
1.7442e-06
8.05051e-14
5.81002e-08
1.71469e-06
8.62088e-14
5.89656e-08
1.68473e-06
9.25163e-14
5.98649e-08
1.6543e-06
9.87821e-14
6.07986e-08
1.6234e-06
1.03313e-13
6.17671e-08
1.59199e-06
1.04569e-13
6.27707e-08
1.56008e-06
1.02029e-13
6.38095e-08
1.52763e-06
9.72764e-14
6.48838e-08
1.49464e-06
9.32587e-14
6.59935e-08
1.46108e-06
9.26689e-14
6.71384e-08
1.42695e-06
9.60759e-14
6.83182e-08
1.39223e-06
1.01204e-13
6.95323e-08
1.3569e-06
1.04278e-13
7.078e-08
1.32095e-06
1.02793e-13
7.20603e-08
1.28437e-06
9.74984e-14
7.33718e-08
1.24713e-06
9.22665e-14
7.47128e-08
1.20924e-06
9.12118e-14
7.60813e-08
1.17069e-06
9.448e-14
7.74747e-08
1.13146e-06
9.75192e-14
7.889e-08
1.09154e-06
9.39179e-14
8.03234e-08
1.05094e-06
8.17263e-14
8.17707e-08
1.00966e-06
6.6315e-14
8.32266e-08
9.67689e-07
5.68434e-14
8.46852e-08
9.25043e-07
5.76761e-14
8.61394e-08
8.8173e-07
6.2679e-14
8.7581e-08
8.37765e-07
5.92928e-14
8.90004e-08
7.93168e-07
4.0988e-14
9.03867e-08
7.47966e-07
1.60288e-14
9.17269e-08
7.02194e-07
1.47105e-15
9.30064e-08
6.55895e-07
4.66988e-15
9.42082e-08
6.0912e-07
1.2948e-14
9.53124e-08
5.61933e-07
6.10623e-15
9.62962e-08
5.1441e-07
-1.65354e-14
9.71335e-08
4.6664e-07
-2.88797e-14
9.77935e-08
4.18731e-07
-7.52176e-15
9.8241e-08
3.70808e-07
3.41949e-14
9.84345e-08
3.23019e-07
5.5192e-14
9.83257e-08
2.75538e-07
4.10297e-14
9.78577e-08
2.28567e-07
2.91919e-14
9.69632e-08
1.82345e-07
5.5761e-14
9.55607e-08
1.37151e-07
9.57151e-14
9.35535e-08
9.33034e-08
1.05596e-13
9.08145e-08
5.11683e-08
1.21153e-13
8.71937e-08
1.11692e-08
2.21267e-13
8.25497e-08
-2.61831e-08
3.7953e-13
7.6707e-08
-6.02997e-08
4.9144e-13
6.94455e-08
-9.05344e-08
5.89445e-13
6.05083e-08
-1.16165e-07
8.42368e-13
4.95917e-08
-1.36404e-07
1.29659e-12
3.63564e-08
-1.5043e-07
1.91096e-12
2.04437e-08
-1.57418e-07
2.95547e-12
1.57525e-09
-1.56613e-07
5.32714e-12
-2.02805e-08
-1.47459e-07
1.03959e-11
-4.46216e-08
-1.29603e-07
2.43248e-11
-6.99138e-08
-1.01844e-07
3.72518e-11
-9.19054e-08
-5.8781e-08
-2.31956e-11
-1.0034e-07
2.64382e-10
-8.58979e-08
-1.16089e-07
3.40236e-07
-1.09248e-07
1.30089e-07
-5.62624e-08
-2.48907e-08
2.59083e-08
-1.38723e-07
1.31066e-07
-2.15855e-07
2.53144e-07
-2.65767e-07
3.8671e-07
-2.95946e-07
5.27391e-07
-3.12098e-07
6.71697e-07
-3.18669e-07
8.16935e-07
-3.18835e-07
9.61158e-07
-3.14673e-07
1.10297e-06
-3.07627e-07
1.24141e-06
-2.98683e-07
1.37581e-06
-2.88526e-07
1.50571e-06
-2.77636e-07
1.63085e-06
-2.66348e-07
1.75106e-06
-2.54897e-07
1.86628e-06
-2.43447e-07
1.97649e-06
-2.32112e-07
2.08172e-06
-2.20968e-07
2.18205e-06
-2.10068e-07
2.27755e-06
-1.99443e-07
2.36835e-06
-1.89114e-07
2.45454e-06
-1.7909e-07
2.53624e-06
-1.69376e-07
2.61359e-06
-1.5997e-07
2.6867e-06
-1.50868e-07
2.7557e-06
-1.42066e-07
2.82072e-06
-1.33557e-07
2.88186e-06
-1.25334e-07
2.93927e-06
-1.17391e-07
2.99305e-06
-1.09721e-07
3.04332e-06
-1.02317e-07
3.09021e-06
-9.51728e-08
3.13382e-06
-8.82838e-08
3.17426e-06
-8.16442e-08
3.21166e-06
-7.5249e-08
3.2461e-06
-6.90936e-08
3.27772e-06
-6.31733e-08
3.3066e-06
-5.74837e-08
3.33285e-06
-5.20206e-08
3.35658e-06
-4.67797e-08
3.37789e-06
-4.17565e-08
3.39687e-06
-3.69467e-08
3.41363e-06
-3.23459e-08
3.42826e-06
-2.79493e-08
3.44085e-06
-2.37524e-08
3.45149e-06
-1.97501e-08
3.46027e-06
-1.59376e-08
3.46729e-06
-1.23095e-08
3.47262e-06
-8.86055e-09
3.47634e-06
-5.58516e-09
3.47854e-06
-2.47756e-09
3.47929e-06
4.6718e-10
3.47867e-06
3.25277e-09
3.47674e-06
5.88451e-09
3.47359e-06
8.36905e-09
3.46927e-06
1.07125e-08
3.46386e-06
1.29206e-08
3.45741e-06
1.49994e-08
3.44998e-06
1.69544e-08
3.44163e-06
1.87912e-08
3.43242e-06
2.05153e-08
3.42239e-06
2.21321e-08
3.41159e-06
2.36468e-08
3.40008e-06
2.50645e-08
3.3879e-06
2.63902e-08
3.37508e-06
2.76288e-08
3.36168e-06
2.8785e-08
3.34772e-06
2.98634e-08
3.33324e-06
3.08683e-08
3.31828e-06
3.18041e-08
3.30287e-06
3.26747e-08
3.28703e-06
3.34842e-08
3.27081e-06
3.42362e-08
3.25421e-06
3.49345e-08
3.23728e-06
3.55823e-08
3.22002e-06
3.61831e-08
3.20247e-06
3.67399e-08
3.18464e-06
3.72557e-08
3.16655e-06
3.77335e-08
3.14823e-06
3.81759e-08
3.12967e-06
3.85855e-08
3.11091e-06
3.89648e-08
3.09196e-06
3.93161e-08
3.07282e-06
3.96417e-08
3.05351e-06
3.99436e-08
3.03404e-06
4.02239e-08
3.01443e-06
4.04843e-08
2.99467e-06
4.07267e-08
2.97478e-06
4.09527e-08
2.95477e-06
4.11639e-08
2.93464e-06
4.13619e-08
2.91439e-06
4.1548e-08
2.89405e-06
4.17237e-08
2.8736e-06
4.18901e-08
2.85305e-06
4.20486e-08
2.83241e-06
4.22003e-08
2.81168e-06
4.23464e-08
2.79086e-06
4.24879e-08
2.76996e-06
4.26258e-08
2.74898e-06
4.27612e-08
2.72791e-06
4.28949e-08
2.70675e-06
4.3028e-08
2.68552e-06
4.31614e-08
2.6642e-06
4.32959e-08
2.6428e-06
4.34325e-08
2.62131e-06
4.3572e-08
2.59974e-06
4.37154e-08
2.57808e-06
4.38636e-08
2.55633e-06
4.40175e-08
2.53448e-06
4.4178e-08
2.51253e-06
4.43461e-08
2.49048e-06
4.45226e-08
2.46833e-06
4.47085e-08
2.44606e-06
4.49046e-08
2.42368e-06
4.51118e-08
2.40117e-06
4.53311e-08
2.37854e-06
4.55632e-08
2.35577e-06
4.58091e-08
2.33286e-06
4.60695e-08
2.3098e-06
4.63455e-08
2.28659e-06
4.66378e-08
2.26321e-06
4.69473e-08
2.23965e-06
4.7275e-08
2.21591e-06
4.76217e-08
2.19198e-06
4.79883e-08
2.16784e-06
4.83759e-08
2.14349e-06
4.87852e-08
2.11891e-06
4.92172e-08
2.0941e-06
4.96728e-08
2.06904e-06
5.01528e-08
2.04372e-06
5.0658e-08
2.01813e-06
5.11894e-08
1.99225e-06
5.17476e-08
1.96607e-06
5.23335e-08
1.93958e-06
5.29478e-08
1.91277e-06
5.35911e-08
1.88561e-06
5.42643e-08
1.8581e-06
5.4968e-08
1.83022e-06
5.57028e-08
1.80195e-06
5.64694e-08
1.77329e-06
5.72683e-08
1.7442e-06
5.81001e-08
1.71469e-06
5.89654e-08
1.68473e-06
5.98647e-08
1.6543e-06
6.07984e-08
1.6234e-06
6.17669e-08
1.59199e-06
6.27705e-08
1.56007e-06
6.38094e-08
1.52763e-06
6.48837e-08
1.49464e-06
6.59933e-08
1.46108e-06
6.71382e-08
1.42695e-06
6.8318e-08
1.39223e-06
6.95322e-08
1.3569e-06
7.07799e-08
1.32095e-06
7.20602e-08
1.28437e-06
7.33717e-08
1.24713e-06
7.47127e-08
1.20924e-06
7.60812e-08
1.17069e-06
7.74746e-08
1.13146e-06
7.88899e-08
1.09154e-06
8.03233e-08
1.05094e-06
8.17706e-08
1.00966e-06
8.32265e-08
9.67689e-07
8.46851e-08
9.25043e-07
8.61393e-08
8.8173e-07
8.75809e-08
8.37765e-07
8.90003e-08
7.93168e-07
9.03866e-08
7.47966e-07
9.17268e-08
7.02194e-07
9.30064e-08
6.55895e-07
9.42081e-08
6.0912e-07
9.53123e-08
5.61934e-07
9.62962e-08
5.1441e-07
9.71335e-08
4.66641e-07
9.77936e-08
4.18732e-07
9.82412e-08
3.7081e-07
9.84347e-08
3.23021e-07
9.8326e-08
2.7554e-07
9.78581e-08
2.2857e-07
9.69637e-08
1.82348e-07
9.55614e-08
1.37154e-07
9.35542e-08
9.33079e-08
9.08154e-08
5.11739e-08
8.71949e-08
1.1176e-08
8.25512e-08
-2.6175e-08
7.67089e-08
-6.029e-08
6.9448e-08
-9.05222e-08
6.05116e-08
-1.1615e-07
4.95961e-08
-1.36386e-07
3.63621e-08
-1.50409e-07
2.0452e-08
-1.57391e-07
1.58703e-09
-1.56569e-07
-2.02661e-08
-1.47369e-07
-4.46097e-08
-1.29378e-07
-6.99442e-08
-1.0151e-07
-9.19192e-08
-5.95054e-08
-9.92625e-08
-8.65117e-08
3.19097e-09
3.35751e-12
3.37049e-07
6.80944e-08
5.22707e-13
6.51667e-08
1.53269e-07
2.83957e-13
-1.10061e-07
2.47053e-07
2.17096e-13
-2.32503e-07
3.49202e-07
1.87877e-13
-3.18e-07
4.59041e-07
1.86452e-13
-3.75602e-07
5.75257e-07
1.94534e-13
-4.12157e-07
6.96243e-07
2.00098e-13
-4.3308e-07
8.20239e-07
2.04288e-13
-4.4266e-07
9.45556e-07
2.04221e-13
-4.44147e-07
1.07079e-06
1.97976e-13
-4.39898e-07
1.19479e-06
1.88955e-13
-4.31629e-07
1.3167e-06
1.80086e-13
-4.20586e-07
1.43584e-06
1.67808e-13
-4.07669e-07
1.55175e-06
1.50627e-13
-3.93533e-07
1.66405e-06
1.34396e-13
-3.78653e-07
1.77253e-06
1.24748e-13
-3.63372e-07
1.87703e-06
1.21476e-13
-3.47937e-07
1.97745e-06
1.21628e-13
-3.32529e-07
2.07375e-06
1.22919e-13
-3.17272e-07
2.16594e-06
1.25073e-13
-3.02255e-07
2.25404e-06
1.28331e-13
-2.87539e-07
2.3381e-06
1.31526e-13
-2.73164e-07
2.41817e-06
1.32195e-13
-2.59156e-07
2.49433e-06
1.29014e-13
-2.45529e-07
2.56665e-06
1.23282e-13
-2.32291e-07
2.63523e-06
1.17578e-13
-2.19443e-07
2.70015e-06
1.1294e-13
-2.06985e-07
2.76151e-06
1.082e-13
-1.94912e-07
2.8194e-06
1.02663e-13
-1.83219e-07
2.87391e-06
9.76011e-14
-1.71901e-07
2.92514e-06
9.58629e-14
-1.60951e-07
2.97319e-06
9.89021e-14
-1.50363e-07
3.01816e-06
1.05567e-13
-1.40131e-07
3.06013e-06
1.12773e-13
-1.30249e-07
3.0992e-06
1.17821e-13
-1.20711e-07
3.13546e-06
1.19909e-13
-1.11511e-07
3.16902e-06
1.2002e-13
-1.02645e-07
3.19996e-06
1.19451e-13
-9.41063e-08
3.22837e-06
1.18688e-13
-8.58901e-08
3.25434e-06
1.17127e-13
-7.79911e-08
3.27797e-06
1.13904e-13
-7.0404e-08
3.29934e-06
1.08946e-13
-6.31234e-08
3.31854e-06
1.03249e-13
-5.61436e-08
3.33566e-06
9.8624e-14
-4.94588e-08
3.35077e-06
9.65075e-14
-4.3063e-08
3.36397e-06
9.71875e-14
-3.695e-08
3.37534e-06
9.96924e-14
-3.11131e-08
3.38495e-06
1.02343e-13
-2.55458e-08
3.39289e-06
1.03571e-13
-2.02409e-08
3.39922e-06
1.02572e-13
-1.51913e-08
3.40403e-06
9.95292e-14
-1.03895e-08
3.40739e-06
9.51021e-14
-5.82789e-09
3.40935e-06
8.99673e-14
-1.49923e-09
3.41001e-06
8.45167e-14
2.60294e-09
3.40941e-06
7.88303e-14
6.48563e-09
3.40762e-06
7.28212e-14
1.01572e-08
3.40471e-06
6.65692e-14
1.36261e-08
3.40074e-06
6.05254e-14
1.69004e-08
3.39575e-06
5.5276e-14
1.99882e-08
3.38981e-06
5.14631e-14
2.28976e-08
3.38297e-06
4.92461e-14
2.56362e-08
3.37528e-06
4.84828e-14
2.8212e-08
3.36678e-06
4.85799e-14
3.06323e-08
3.35753e-06
4.87672e-14
3.29048e-08
3.34756e-06
4.85382e-14
3.50365e-08
3.33692e-06
4.77644e-14
3.70347e-08
3.32564e-06
4.66889e-14
3.89061e-08
3.31377e-06
4.60227e-14
4.06576e-08
3.30134e-06
4.64147e-14
4.22956e-08
3.28839e-06
4.83854e-14
4.38263e-08
3.27494e-06
5.2056e-14
4.5256e-08
3.26103e-06
5.70416e-14
4.65904e-08
3.24668e-06
6.2721e-14
4.78351e-08
3.23192e-06
6.81784e-14
4.89956e-08
3.21678e-06
7.26401e-14
5.0077e-08
3.20129e-06
7.5492e-14
5.10843e-08
3.18545e-06
7.66022e-14
5.20223e-08
3.1693e-06
7.61789e-14
5.28954e-08
3.15285e-06
7.46766e-14
5.37081e-08
3.13612e-06
7.27927e-14
5.44644e-08
3.11914e-06
7.11794e-14
5.51683e-08
3.1019e-06
7.03987e-14
5.58235e-08
3.08444e-06
7.07283e-14
5.64337e-08
3.06676e-06
7.21993e-14
5.70022e-08
3.04887e-06
7.45967e-14
5.75322e-08
3.03079e-06
7.75388e-14
5.80267e-08
3.01253e-06
8.05121e-14
5.84888e-08
2.9941e-06
8.30725e-14
5.8921e-08
2.9755e-06
8.47934e-14
5.93261e-08
2.95675e-06
8.54422e-14
5.97064e-08
2.93786e-06
8.49217e-14
6.00643e-08
2.91882e-06
8.33431e-14
6.0402e-08
2.89965e-06
8.09076e-14
6.07216e-08
2.88035e-06
7.79724e-14
6.10252e-08
2.86093e-06
7.49089e-14
6.13145e-08
2.84139e-06
7.2116e-14
6.15916e-08
2.82174e-06
6.98816e-14
6.1858e-08
2.80197e-06
6.84279e-14
6.21155e-08
2.7821e-06
6.78138e-14
6.23656e-08
2.76212e-06
6.79596e-14
6.261e-08
2.74203e-06
6.86708e-14
6.285e-08
2.72184e-06
6.95624e-14
6.30872e-08
2.70155e-06
7.03014e-14
6.33229e-08
2.68115e-06
7.04749e-14
6.35585e-08
2.66066e-06
6.97324e-14
6.37954e-08
2.64006e-06
6.79006e-14
6.4035e-08
2.61935e-06
6.4903e-14
6.42785e-08
2.59854e-06
6.09027e-14
6.45273e-08
2.57763e-06
5.62085e-14
6.47828e-08
2.5566e-06
5.12854e-14
6.50463e-08
2.53546e-06
4.67022e-14
6.53191e-08
2.51421e-06
4.2983e-14
6.56025e-08
2.49283e-06
4.05578e-14
6.5898e-08
2.47134e-06
3.96523e-14
6.62069e-08
2.44971e-06
4.02838e-14
6.65304e-08
2.42796e-06
4.21468e-14
6.68698e-08
2.40606e-06
4.47628e-14
6.72266e-08
2.38402e-06
4.74378e-14
6.76019e-08
2.36184e-06
4.94743e-14
6.79972e-08
2.33949e-06
5.0307e-14
6.84135e-08
2.31699e-06
4.95749e-14
6.88524e-08
2.29431e-06
4.72678e-14
6.93149e-08
2.27146e-06
4.36769e-14
6.98026e-08
2.24842e-06
3.93643e-14
7.03166e-08
2.22518e-06
3.49547e-14
7.08583e-08
2.20174e-06
3.10724e-14
7.1429e-08
2.17809e-06
2.80123e-14
7.20299e-08
2.15422e-06
2.58543e-14
7.26625e-08
2.13011e-06
2.4359e-14
7.33279e-08
2.10575e-06
2.30926e-14
7.40275e-08
2.08115e-06
2.17916e-14
7.47624e-08
2.05627e-06
2.02997e-14
7.55339e-08
2.03112e-06
1.89085e-14
7.6343e-08
2.00568e-06
1.80515e-14
7.7191e-08
1.97993e-06
1.83603e-14
7.80789e-08
1.95388e-06
2.01748e-14
7.90077e-08
1.92749e-06
2.34431e-14
7.99784e-08
1.90077e-06
2.76446e-14
8.09921e-08
1.87369e-06
3.19154e-14
8.20496e-08
1.84624e-06
3.54369e-14
8.31517e-08
1.81841e-06
3.78413e-14
8.42994e-08