/*--------------------------------*- C++ -*----------------------------------*\
  =========                 |
  \\      /  F ield         | OpenFOAM: The Open Source CFD Toolbox
   \\    /   O peration     | Website:  https://openfoam.org
    \\  /    A nd           | Version:  8
     \\/     M anipulation  |
\*---------------------------------------------------------------------------*/
FoamFile
{
    version     2.0;
    format      ascii;
    class       volScalarField;
    location    "1100";
    object      alphat;
}
// * * * * * * * * * * * * * * * * * * * * * * * * * * * * * * * * * * * * * //

dimensions      [1 -1 -1 0 0 0 0];

internalField   nonuniform List<scalar> 
48000
(
0.000153884
3.93664e-05
4.84595e-05
5.64297e-05
6.22657e-05
6.7104e-05
7.13359e-05
7.51822e-05
7.86855e-05
8.19383e-05
8.49886e-05
8.78719e-05
9.06146e-05
9.32369e-05
9.57542e-05
9.81786e-05
0.000100519
0.000102784
0.00010498
0.00010711
0.000109179
0.000111191
0.000113148
0.000115052
0.000116906
0.00011871
0.000120467
0.000122178
0.000123843
0.000125464
0.000127042
0.000128577
0.000130071
0.000131523
0.000132936
0.000134308
0.000135642
0.000136937
0.000138195
0.000139415
0.000140598
0.000141746
0.000142858
0.000143934
0.000144977
0.000145985
0.000146959
0.000147901
0.00014881
0.000149686
0.000150532
0.000151346
0.000152129
0.000152882
0.000153605
0.000154299
0.000154964
0.0001556
0.000156208
0.000156788
0.00015734
0.000157866
0.000158364
0.000158836
0.000159283
0.000159706
0.000160104
0.000160478
0.000160827
0.000161152
0.000161453
0.000161731
0.000161986
0.000162218
0.000162428
0.000162615
0.000162781
0.000162925
0.000163048
0.00016315
0.000163231
0.000163291
0.000163332
0.000163352
0.000163353
0.000163335
0.000163297
0.000163241
0.000163166
0.000163072
0.000162961
0.000162831
0.000162684
0.000162519
0.000162337
0.000162137
0.000161921
0.000161689
0.000161439
0.000161173
0.000160891
0.000160594
0.00016028
0.00015995
0.000159605
0.000159244
0.000158868
0.000158477
0.00015807
0.000157649
0.000157213
0.000156761
0.000156295
0.000155814
0.000155318
0.000154808
0.000154283
0.000153743
0.000153189
0.000152619
0.000152036
0.000151437
0.000150824
0.000150196
0.000149553
0.000148896
0.000148223
0.000147536
0.000146833
0.000146115
0.000145382
0.000144633
0.000143869
0.000143089
0.000142293
0.000141482
0.000140655
0.000139811
0.000138952
0.000138075
0.000137183
0.000136273
0.000135347
0.000134404
0.000133444
0.000132466
0.000131471
0.000130459
0.000129428
0.00012838
0.000127314
0.000126229
0.000125126
0.000124005
0.000122864
0.000121705
0.000120527
0.000119329
0.000118112
0.000116875
0.000115618
0.000114342
0.000113045
0.000111727
0.000110389
0.000109029
0.000107649
0.000106247
0.000104822
0.000103376
0.000101907
0.000100415
9.88986e-05
9.73583e-05
9.57931e-05
9.42021e-05
9.25844e-05
9.09389e-05
8.92643e-05
8.7559e-05
8.58213e-05
8.40488e-05
8.2239e-05
8.03886e-05
7.84947e-05
7.65552e-05
7.45709e-05
7.25487e-05
7.04506e-05
6.82572e-05
6.59487e-05
6.34929e-05
6.08425e-05
5.79052e-05
5.4437e-05
4.8743e-05
3.42335e-05
3.18925e-05
0.000184749
0.000139129
0.000153768
3.93404e-05
4.84821e-05
5.64324e-05
6.22665e-05
6.71051e-05
7.13372e-05
7.51834e-05
7.86866e-05
8.19393e-05
8.49896e-05
8.78728e-05
9.06154e-05
9.32376e-05
9.57549e-05
9.81792e-05
0.00010052
0.000102785
0.00010498
0.00010711
0.00010918
0.000111191
0.000113148
0.000115052
0.000116906
0.00011871
0.000120467
0.000122178
0.000123843
0.000125464
0.000127042
0.000128577
0.000130071
0.000131523
0.000132936
0.000134308
0.000135642
0.000136937
0.000138195
0.000139415
0.000140599
0.000141746
0.000142858
0.000143934
0.000144977
0.000145985
0.000146959
0.000147901
0.00014881
0.000149686
0.000150532
0.000151346
0.000152129
0.000152882
0.000153605
0.000154299
0.000154963
0.0001556
0.000156207
0.000156787
0.00015734
0.000157866
0.000158364
0.000158836
0.000159283
0.000159706
0.000160104
0.000160478
0.000160827
0.000161152
0.000161453
0.000161731
0.000161986
0.000162218
0.000162428
0.000162615
0.000162781
0.000162925
0.000163048
0.000163149
0.00016323
0.000163291
0.000163331
0.000163352
0.000163353
0.000163335
0.000163297
0.000163241
0.000163165
0.000163072
0.00016296
0.000162831
0.000162683
0.000162519
0.000162336
0.000162137
0.000161921
0.000161688
0.000161439
0.000161173
0.000160891
0.000160593
0.000160279
0.00015995
0.000159605
0.000159244
0.000158868
0.000158477
0.00015807
0.000157649
0.000157212
0.000156761
0.000156295
0.000155814
0.000155318
0.000154808
0.000154283
0.000153743
0.000153188
0.000152619
0.000152036
0.000151437
0.000150824
0.000150196
0.000149553
0.000148896
0.000148223
0.000147535
0.000146833
0.000146115
0.000145381
0.000144633
0.000143869
0.000143089
0.000142293
0.000141482
0.000140655
0.000139811
0.000138951
0.000138075
0.000137183
0.000136273
0.000135347
0.000134404
0.000133444
0.000132466
0.000131471
0.000130459
0.000129428
0.00012838
0.000127314
0.000126229
0.000125126
0.000124005
0.000122864
0.000121705
0.000120527
0.000119329
0.000118112
0.000116875
0.000115618
0.000114342
0.000113045
0.000111727
0.000110389
0.000109029
0.000107649
0.000106247
0.000104822
0.000103376
0.000101907
0.000100414
9.88985e-05
9.73582e-05
9.5793e-05
9.4202e-05
9.25843e-05
9.09388e-05
8.92642e-05
8.7559e-05
8.58212e-05
8.40488e-05
8.22389e-05
8.03886e-05
7.84947e-05
7.65552e-05
7.45709e-05
7.25487e-05
7.04506e-05
6.82572e-05
6.59487e-05
6.34931e-05
6.08436e-05
5.79097e-05
5.44538e-05
4.87808e-05
3.42332e-05
3.18492e-05
0.000184696
0.000139157
0.000196715
0.000265241
0.000408195
0.00051434
0.000593794
0.000658138
0.000712864
0.000760742
0.000803724
0.000842895
0.000879027
0.000912679
0.000944262
0.000974086
0.00100239
0.00102937
0.00105516
0.0010799
0.00110368
0.00112657
0.00114866
0.00116999
0.00119061
0.00121057
0.0012299
0.00124863
0.00126679
0.0012844
0.00130149
0.00131807
0.00133416
0.00134977
0.00136493
0.00137965
0.00139393
0.00140779
0.00142125
0.0014343
0.00144697
0.00145925
0.00147116
0.0014827
0.00149389
0.00150473
0.00151522
0.00152537
0.0015352
0.0015447
0.00155387
0.00156274
0.00157129
0.00157953
0.00158748
0.00159513
0.00160248
0.00160955
0.00161634
0.00162284
0.00162907
0.00163502
0.0016407
0.00164611
0.00165126
0.00165612
0.00166068
0.0016649
0.00166888
0.00167262
0.00167613
0.0016794
0.00168244
0.00168525
0.00168783
0.0016902
0.00169234
0.00169426
0.00169597
0.00169746
0.00169874
0.00169982
0.00170068
0.00170135
0.00170181
0.00170207
0.00170213
0.001702
0.00170168
0.00170117
0.00170047
0.00169958
0.0016985
0.00169725
0.00169581
0.0016942
0.00169241
0.00169044
0.0016883
0.00168599
0.00168351
0.00168087
0.00167805
0.00167507
0.00167193
0.00166862
0.00166516
0.00166153
0.00165774
0.0016538
0.0016497
0.00164544
0.00164103
0.00163646
0.00163173
0.00162686
0.00162182
0.00161664
0.0016113
0.00160581
0.00160016
0.00159436
0.0015884
0.00158229
0.00157603
0.00156961
0.00156303
0.00155629
0.0015494
0.00154235
0.00153515
0.00152778
0.00152025
0.00151256
0.0015047
0.00149668
0.0014885
0.00148015
0.00147163
0.00146294
0.00145408
0.00144505
0.00143585
0.00142647
0.00141692
0.00140719
0.00139729
0.0013872
0.00137693
0.00136648
0.00135584
0.00134502
0.00133401
0.00132281
0.00131142
0.00129984
0.00128807
0.00127609
0.00126393
0.00125156
0.00123899
0.00122621
0.00121323
0.00120004
0.00118665
0.00117303
0.00115921
0.00114516
0.00113089
0.00111639
0.00110167
0.0010867
0.0010715
0.00105605
0.00104035
0.00102438
0.00100815
0.00099163
0.000974817
0.000957695
0.000940244
0.000922442
0.000904264
0.000885674
0.000866632
0.000847081
0.000826945
0.000806112
0.000784419
0.000761677
0.000737836
0.000712728
0.000686048
0.000657289
0.000625589
0.000589094
0.000543147
0.000480652
0.000389328
0.000316973
0.000275947
0.000164312
0.000196785
0.000264854
0.000408025
0.000514353
0.000593842
0.000658193
0.00071292
0.000760797
0.000803778
0.000842947
0.000879079
0.000912729
0.00094431
0.000974133
0.00100244
0.00102941
0.00105521
0.00107994
0.00110372
0.00112662
0.0011487
0.00117003
0.00119065
0.00121061
0.00122994
0.00124867
0.00126683
0.00128444
0.00130152
0.0013181
0.00133419
0.0013498
0.00136496
0.00137968
0.00139396
0.00140782
0.00142128
0.00143433
0.00144699
0.00145927
0.00147118
0.00148273
0.00149391
0.00150475
0.00151524
0.0015254
0.00153522
0.00154472
0.0015539
0.00156276
0.00157131
0.00157955
0.0015875
0.00159515
0.0016025
0.00160957
0.00161636
0.00162286
0.00162908
0.00163504
0.00164072
0.00164613
0.00165127
0.00165614
0.00166069
0.00166492
0.0016689
0.00167264
0.00167614
0.00167941
0.00168245
0.00168526
0.00168785
0.00169021
0.00169235
0.00169427
0.00169598
0.00169747
0.00169876
0.00169983
0.0017007
0.00170136
0.00170182
0.00170208
0.00170215
0.00170202
0.00170169
0.00170118
0.00170048
0.00169959
0.00169852
0.00169726
0.00169583
0.00169421
0.00169242
0.00169045
0.00168832
0.00168601
0.00168353
0.00168088
0.00167806
0.00167508
0.00167194
0.00166864
0.00166517
0.00166154
0.00165776
0.00165381
0.00164971
0.00164545
0.00164104
0.00163647
0.00163175
0.00162687
0.00162184
0.00161665
0.00161131
0.00160582
0.00160017
0.00159437
0.00158841
0.0015823
0.00157604
0.00156962
0.00156304
0.00155631
0.00154941
0.00154236
0.00153516
0.00152779
0.00152026
0.00151257
0.00150471
0.00149669
0.00148851
0.00148016
0.00147164
0.00146295
0.00145409
0.00144506
0.00143586
0.00142648
0.00141693
0.0014072
0.00139729
0.00138721
0.00137694
0.00136649
0.00135585
0.00134503
0.00133402
0.00132282
0.00131143
0.00129985
0.00128807
0.0012761
0.00126393
0.00125157
0.00123899
0.00122622
0.00121324
0.00120005
0.00118665
0.00117304
0.00115921
0.00114517
0.0011309
0.0011164
0.00110167
0.00108671
0.00107151
0.00105606
0.00104036
0.00102439
0.00100816
0.000991638
0.000974826
0.000957704
0.000940253
0.000922451
0.000904273
0.000885683
0.000866641
0.00084709
0.000826954
0.000806121
0.000784428
0.000761686
0.000737845
0.000712737
0.000686057
0.000657301
0.000625608
0.000589131
0.000543201
0.000480581
0.000389117
0.000316669
0.000275629
0.000164256
0.000307324
0.000453454
0.000711351
0.000935088
0.00111907
0.00127231
0.00140336
0.0015181
0.00162047
0.00171315
0.00179802
0.00187644
0.00194945
0.00201783
0.00208221
0.00214309
0.00220085
0.00225582
0.00230828
0.00235844
0.00240649
0.00245261
0.00249691
0.00253954
0.00258058
0.00262015
0.00265831
0.00269514
0.00273072
0.00276509
0.00279832
0.00283046
0.00286156
0.00289165
0.00292077
0.00294896
0.00297626
0.0030027
0.00302829
0.00305308
0.00307708
0.00310032
0.00312282
0.00314459
0.00316567
0.00318605
0.00320577
0.00322482
0.00324324
0.00326102
0.00327819
0.00329475
0.00331071
0.00332609
0.00334088
0.00335511
0.00336878
0.00338189
0.00339446
0.00340649
0.00341798
0.00342894
0.00343937
0.00344927
0.00345861
0.00346738
0.00347559
0.00348332
0.00349057
0.00349735
0.00350367
0.00350954
0.00351495
0.00351991
0.00352443
0.00352851
0.00353215
0.00353537
0.00353816
0.00354053
0.00354248
0.00354402
0.00354516
0.00354589
0.00354622
0.00354616
0.00354571
0.00354487
0.00354365
0.00354205
0.00354007
0.00353773
0.00353502
0.00353194
0.00352851
0.00352472
0.00352058
0.00351609
0.00351126
0.00350608
0.00350056
0.00349471
0.00348852
0.003482
0.00347515
0.00346797
0.00346047
0.00345265
0.0034445
0.00343603
0.00342724
0.00341814
0.00340872
0.00339898
0.00338893
0.00337856
0.00336787
0.00335687
0.00334556
0.00333392
0.00332197
0.00330971
0.00329712
0.00328421
0.00327099
0.00325744
0.00324357
0.00322937
0.00321484
0.00319999
0.0031848
0.00316928
0.00315342
0.00313723
0.00312069
0.00310382
0.00308659
0.00306902
0.0030511
0.00303282
0.00301419
0.0029952
0.00297584
0.00295612
0.00293602
0.00291556
0.00289472
0.00287349
0.00285189
0.00282989
0.00280751
0.00278473
0.00276154
0.00273795
0.00271396
0.00268954
0.00266471
0.00263945
0.00261376
0.00258762
0.00256105
0.00253401
0.00250652
0.00247855
0.0024501
0.00242116
0.00239171
0.00236175
0.00233125
0.00230019
0.00226857
0.00223635
0.00220352
0.00217004
0.00213587
0.00210099
0.00206535
0.00202889
0.00199155
0.00195326
0.00191393
0.00187345
0.00183169
0.00178849
0.00174362
0.00169681
0.00164772
0.00159591
0.00154094
0.00148211
0.00141842
0.00134838
0.00126983
0.00117924
0.00107087
0.000937564
0.000774876
0.000592659
0.000397061
0.000217916
0.000307306
0.000453238
0.00071208
0.000935472
0.00111926
0.00127244
0.00140349
0.00151822
0.00162059
0.00171327
0.00179813
0.00187655
0.00194955
0.00201793
0.00208231
0.00214318
0.00220094
0.00225591
0.00230836
0.00235852
0.00240657
0.00245268
0.00249698
0.00253961
0.00258065
0.00262021
0.00265837
0.0026952
0.00273077
0.00276514
0.00279837
0.00283051
0.0028616
0.00289169
0.00292081
0.002949
0.0029763
0.00300273
0.00302833
0.00305311
0.00307711
0.00310035
0.00312285
0.00314462
0.00316569
0.00318607
0.00320579
0.00322484
0.00324326
0.00326104
0.00327821
0.00329476
0.00331073
0.0033261
0.0033409
0.00335512
0.00336879
0.0033819
0.00339447
0.0034065
0.00341799
0.00342895
0.00343938
0.00344927
0.00345862
0.00346739
0.00347559
0.00348332
0.00349057
0.00349735
0.00350368
0.00350954
0.00351495
0.00351991
0.00352443
0.00352851
0.00353215
0.00353537
0.00353816
0.00354053
0.00354248
0.00354402
0.00354516
0.00354589
0.00354622
0.00354616
0.0035457
0.00354486
0.00354364
0.00354204
0.00354007
0.00353772
0.00353501
0.00353194
0.00352851
0.00352472
0.00352058
0.00351609
0.00351125
0.00350607
0.00350056
0.0034947
0.00348851
0.00348199
0.00347514
0.00346797
0.00346046
0.00345264
0.00344449
0.00343602
0.00342724
0.00341813
0.00340871
0.00339897
0.00338892
0.00337855
0.00336786
0.00335686
0.00334555
0.00333391
0.00332196
0.0033097
0.00329711
0.00328421
0.00327098
0.00325743
0.00324356
0.00322936
0.00321483
0.00319998
0.00318479
0.00316927
0.00315341
0.00313722
0.00312068
0.00310381
0.00308658
0.00306901
0.00305109
0.00303281
0.00301418
0.00299519
0.00297583
0.00295611
0.00293601
0.00291555
0.00289471
0.00287348
0.00285188
0.00282988
0.0028075
0.00278471
0.00276153
0.00273794
0.00271395
0.00268953
0.0026647
0.00263944
0.00261375
0.00258761
0.00256104
0.002534
0.00250651
0.00247854
0.00245009
0.00242115
0.0023917
0.00236174
0.00233124
0.00230018
0.00226856
0.00223634
0.00220351
0.00217003
0.00213586
0.00210098
0.00206534
0.00202888
0.00199154
0.00195325
0.00191392
0.00187344
0.00183169
0.00178848
0.00174361
0.00169681
0.00164771
0.00159591
0.00154094
0.00148211
0.00141842
0.00134838
0.00126983
0.00117925
0.00107088
0.000937393
0.000774419
0.000591888
0.000396553
0.000218049
5.05521e-05
0.000476814
0.000898863
0.00124126
0.00152409
0.0017632
0.00196988
0.00215195
0.00231482
0.00246237
0.00259737
0.00272193
0.00283765
0.00294576
0.00304726
0.00314294
0.00323343
0.00331928
0.00340092
0.00347872
0.00355302
0.00362407
0.00369212
0.00375737
0.00382001
0.0038802
0.00393808
0.00399379
0.00404745
0.00409915
0.00414901
0.00419711
0.00424354
0.00428836
0.00433166
0.0043735
0.00441393
0.00445302
0.00449081
0.00452735
0.00456269
0.00459687
0.00462992
0.00466188
0.00469278
0.00472266
0.00475153
0.00477943
0.00480638
0.00483239
0.0048575
0.00488171
0.00490506
0.00492754
0.00494918
0.00496999
0.00498999
0.00500918
0.00502758
0.0050452
0.00506204
0.00507812
0.00509343
0.00510797
0.00512175
0.00513475
0.00514698
0.00515846
0.00516924
0.00517934
0.00518877
0.00519753
0.00520564
0.00521309
0.00521989
0.00522606
0.0052316
0.00523651
0.0052408
0.00524448
0.00524756
0.00525003
0.00525191
0.00525321
0.00525392
0.00525406
0.00525363
0.00525264
0.00525109
0.00524899
0.00524635
0.00524316
0.00523944
0.0052352
0.00523042
0.00522513
0.00521933
0.00521302
0.00520621
0.00519889
0.00519108
0.00518278
0.00517399
0.00516472
0.00515496
0.00514473
0.00513403
0.00512285
0.00511121
0.00509909
0.00508651
0.00507347
0.00505996
0.00504599
0.00503156
0.00501667
0.00500132
0.00498551
0.00496923
0.00495249
0.00493529
0.00491763
0.0048995
0.0048809
0.00486183
0.00484229
0.00482228
0.00480179
0.00478082
0.00475937
0.00473744
0.00471501
0.00469209
0.00466868
0.00464477
0.00462036
0.00459543
0.00457
0.00454405
0.00451758
0.00449058
0.00446305
0.00443499
0.00440638
0.00437723
0.00434753
0.00431726
0.00428644
0.00425504
0.00422306
0.0041905
0.00415734
0.00412358
0.00408921
0.00405422
0.00401861
0.00398235
0.00394544
0.00390787
0.00386963
0.00383069
0.00379105
0.00375068
0.00370957
0.00366771
0.00362505
0.00358159
0.00353729
0.00349212
0.00344605
0.00339903
0.00335103
0.00330198
0.00325185
0.00320055
0.00314801
0.00309415
0.00303886
0.00298202
0.00292349
0.00286311
0.00280067
0.00273591
0.00266854
0.00259818
0.00252436
0.00244648
0.00236381
0.00227543
0.0021801
0.00207611
0.00196114
0.0018319
0.00168378
0.00151038
0.00130331
0.00105453
0.000760741
0.000437337
0.000255526
5.05551e-05
0.000477187
0.000899385
0.00124159
0.00152431
0.00176338
0.00197006
0.00215212
0.002315
0.00246254
0.00259754
0.0027221
0.00283781
0.00294592
0.00304741
0.00314308
0.00323357
0.00331941
0.00340104
0.00347884
0.00355313
0.00362418
0.00369222
0.00375747
0.00382011
0.00388029
0.00393817
0.00399387
0.00404752
0.00409922
0.00414908
0.00419718
0.0042436
0.00428842
0.00433171
0.00437355
0.00441398
0.00445306
0.00449085
0.00452739
0.00456272
0.0045969
0.00462995
0.00466191
0.00469281
0.00472268
0.00475155
0.00477945
0.00480639
0.00483241
0.00485751
0.00488173
0.00490507
0.00492755
0.00494919
0.00497
0.00498999
0.00500919
0.00502758
0.0050452
0.00506204
0.00507811
0.00509342
0.00510797
0.00512174
0.00513475
0.00514698
0.00515845
0.00516923
0.00517933
0.00518876
0.00519752
0.00520562
0.00521308
0.00521988
0.00522605
0.00523158
0.0052365
0.00524079
0.00524447
0.00524754
0.00525002
0.0052519
0.00525319
0.00525391
0.00525404
0.00525361
0.00525262
0.00525107
0.00524897
0.00524633
0.00524314
0.00523942
0.00523517
0.0052304
0.00522511
0.00521931
0.005213
0.00520618
0.00519887
0.00519106
0.00518276
0.00517397
0.00516469
0.00515494
0.00514471
0.00513401
0.00512283
0.00511118
0.00509907
0.00508649
0.00507344
0.00505994
0.00504597
0.00503154
0.00501665
0.00500129
0.00498548
0.00496921
0.00495247
0.00493527
0.0049176
0.00489947
0.00488087
0.00486181
0.00484227
0.00482225
0.00480176
0.00478079
0.00475934
0.00473741
0.00471498
0.00469207
0.00466865
0.00464474
0.00462033
0.0045954
0.00456997
0.00454402
0.00451755
0.00449055
0.00446302
0.00443496
0.00440635
0.0043772
0.0043475
0.00431724
0.00428641
0.00425501
0.00422303
0.00419047
0.00415731
0.00412355
0.00408918
0.0040542
0.00401858
0.00398232
0.00394541
0.00390784
0.0038696
0.00383066
0.00379102
0.00375065
0.00370955
0.00366768
0.00362502
0.00358156
0.00353726
0.00349209
0.00344602
0.003399
0.003351
0.00330196
0.00325182
0.00320052
0.00314798
0.00309412
0.00303883
0.002982
0.00292347
0.00286309
0.00280064
0.00273589
0.00266852
0.00259816
0.00252434
0.00244646
0.0023638
0.00227542
0.00218008
0.0020761
0.00196113
0.00183189
0.00168377
0.00151035
0.00130317
0.00105421
0.000760273
0.000438248
0.000255396
5.35273e-05
0.000528386
0.00104146
0.00147476
0.00184072
0.00215505
0.00242974
0.00267347
0.00289255
0.00309158
0.00327403
0.00344253
0.00359913
0.00374543
0.00388273
0.00401207
0.0041343
0.00425013
0.00436017
0.00446491
0.00456478
0.00466017
0.00475138
0.00483871
0.00492242
0.00500272
0.00507982
0.00515391
0.00522515
0.00529369
0.00535968
0.00542324
0.0054845
0.00554355
0.00560051
0.00565547
0.00570851
0.00575972
0.00580916
0.00585692
0.00590306
0.00594762
0.00599068
0.00603228
0.00607247
0.00611129
0.00614878
0.00618498
0.00621992
0.00625364
0.00628617
0.00631753
0.00634774
0.00637684
0.00640484
0.00643177
0.00645763
0.00648246
0.00650625
0.00652904
0.00655083
0.00657163
0.00659145
0.0066103
0.00662817
0.00664508
0.00666103
0.00667602
0.00669008
0.00670327
0.00671559
0.00672706
0.00673767
0.00674745
0.0067564
0.00676453
0.00677185
0.00677837
0.00678409
0.00678903
0.00679319
0.00679658
0.00679921
0.00680109
0.00680222
0.00680262
0.00680229
0.00680124
0.00679947
0.006797
0.00679383
0.00678997
0.00678543
0.00678021
0.00677432
0.00676776
0.00676055
0.00675269
0.00674419
0.00673504
0.00672527
0.00671486
0.00670383
0.00669219
0.00667992
0.00666705
0.00665358
0.00663949
0.00662481
0.00660953
0.00659366
0.00657719
0.00656013
0.00654248
0.00652424
0.00650542
0.006486
0.00646599
0.00644539
0.0064242
0.00640242
0.00638005
0.00635708
0.00633351
0.00630934
0.00628457
0.00625919
0.0062332
0.0062066
0.00617938
0.00615154
0.00612307
0.00609397
0.00606423
0.00603386
0.00600283
0.00597116
0.00593882
0.00590582
0.00587215
0.00583781
0.00580277
0.00576704
0.00573062
0.00569348
0.00565563
0.00561705
0.00557773
0.00553767
0.00549685
0.00545527
0.00541291
0.00536975
0.00532579
0.00528101
0.0052354
0.00518893
0.0051416
0.00509338
0.00504425
0.00499419
0.00494318
0.00489118
0.00483817
0.00478411
0.00472897
0.00467271
0.00461529
0.00455665
0.00449674
0.0044355
0.00437285
0.00430873
0.00424303
0.00417566
0.0041065
0.00403541
0.00396224
0.00388681
0.00380889
0.00372823
0.00364453
0.00355742
0.00346645
0.00337107
0.00327061
0.00316422
0.00305085
0.00292917
0.00279744
0.0026534
0.00249404
0.00231536
0.00211205
0.0018771
0.00160099
0.00127019
0.000862701
0.000373785
4.59465e-05
5.35291e-05
0.000528523
0.00104168
0.00147498
0.00184092
0.00215526
0.00242995
0.00267369
0.00289277
0.0030918
0.00327424
0.00344274
0.00359933
0.00374563
0.00388292
0.00401225
0.00413448
0.00425031
0.00436033
0.00446507
0.00456494
0.00466031
0.00475152
0.00483885
0.00492254
0.00500284
0.00507994
0.00515402
0.00522525
0.00529379
0.00535977
0.00542333
0.00548458
0.00554363
0.00560058
0.00565553
0.00570857
0.00575977
0.00580922
0.00585697
0.0059031
0.00594767
0.00599072
0.00603232
0.0060725
0.00611132
0.0061488
0.006185
0.00621994
0.00625366
0.00628618
0.00631754
0.00634775
0.00637685
0.00640485
0.00643177
0.00645763
0.00648246
0.00650625
0.00652904
0.00655083
0.00657162
0.00659144
0.00661029
0.00662816
0.00664507
0.00666102
0.006676
0.00669007
0.00670326
0.00671558
0.00672704
0.00673766
0.00674744
0.00675639
0.00676452
0.00677183
0.00677835
0.00678407
0.00678901
0.00679317
0.00679656
0.00679919
0.00680107
0.0068022
0.0068026
0.00680226
0.00680121
0.00679945
0.00679697
0.0067938
0.00678994
0.0067854
0.00678018
0.00677429
0.00676774
0.00676053
0.00675266
0.00674416
0.00673501
0.00672524
0.00671483
0.0067038
0.00669216
0.00667989
0.00666702
0.00665354
0.00663946
0.00662478
0.0066095
0.00659363
0.00657716
0.0065601
0.00654245
0.00652421
0.00650538
0.00648596
0.00646596
0.00644536
0.00642417
0.00640239
0.00638002
0.00635705
0.00633348
0.00630931
0.00628453
0.00625916
0.00623317
0.00620656
0.00617934
0.0061515
0.00612303
0.00609393
0.0060642
0.00603382
0.0060028
0.00597112
0.00593879
0.00590579
0.00587212
0.00583777
0.00580273
0.00576701
0.00573058
0.00569344
0.00565559
0.00561701
0.00557769
0.00553763
0.00549682
0.00545523
0.00541287
0.00536971
0.00532575
0.00528097
0.00523536
0.0051889
0.00514156
0.00509334
0.00504422
0.00499416
0.00494314
0.00489114
0.00483813
0.00478407
0.00472894
0.00467268
0.00461525
0.00455662
0.00449671
0.00443546
0.00437282
0.0043087
0.004243
0.00417563
0.00410647
0.00403538
0.00396221
0.00388678
0.00380886
0.0037282
0.0036445
0.00355739
0.00346642
0.00337104
0.00327058
0.00316419
0.00305083
0.00292915
0.00279742
0.00265339
0.00249403
0.00231535
0.00211205
0.00187711
0.0016011
0.00127079
0.000864266
0.000373858
4.59417e-05
5.74406e-05
0.000574384
0.00115574
0.00166116
0.00209616
0.00247475
0.00280873
0.00310707
0.00337652
0.00362219
0.00384799
0.00405694
0.00425141
0.00443329
0.00460412
0.00476513
0.00491735
0.00506163
0.00519869
0.00532914
0.00545351
0.00557225
0.00568575
0.00579437
0.00589842
0.00599818
0.0060939
0.00618581
0.00627411
0.006359
0.00644066
0.00651924
0.0065949
0.00666777
0.00673799
0.00680567
0.00687094
0.00693388
0.00699461
0.0070532
0.00710975
0.00716434
0.00721702
0.00726788
0.00731698
0.00736436
0.0074101
0.00745423
0.0074968
0.00753785
0.00757743
0.00761556
0.0076523
0.00768765
0.00772166
0.00775435
0.00778575
0.00781587
0.00784475
0.00787239
0.00789882
0.00792405
0.0079481
0.00797097
0.00799268
0.00801324
0.00803265
0.00805093
0.00806808
0.00808416
0.00809919
0.00811319
0.00812616
0.00813813
0.00814909
0.00815907
0.00816807
0.0081761
0.00818317
0.00818931
0.00819451
0.00819878
0.00820214
0.0082046
0.00820616
0.00820684
0.00820665
0.00820559
0.00820368
0.00820093
0.00819733
0.00819291
0.00818768
0.00818163
0.00817478
0.00816714
0.00815871
0.00814951
0.00813953
0.00812879
0.0081173
0.00810505
0.00809206
0.00807833
0.00806387
0.00804868
0.00803277
0.00801614
0.00799879
0.00798073
0.00796195
0.00794247
0.00792229
0.0079014
0.0078798
0.00785751
0.00783451
0.00781081
0.0077864
0.00776129
0.00773547
0.00770895
0.00768171
0.00765376
0.0076251
0.00759571
0.0075656
0.00753476
0.00750319
0.00747088
0.00743782
0.00740402
0.00736946
0.00733414
0.00729805
0.00726119
0.00722354
0.0071851
0.00714586
0.00710582
0.00706496
0.00702327
0.00698074
0.00693737
0.00689314
0.00684804
0.00680206
0.00675519
0.00670741
0.0066587
0.00660906
0.00655846
0.00650689
0.00645433
0.00640077
0.00634617
0.00629051
0.00623378
0.00617594
0.00611696
0.00605682
0.00599548
0.00593289
0.00586903
0.00580383
0.00573726
0.00566926
0.00559977
0.00552871
0.00545601
0.00538158
0.00530533
0.00522716
0.00514693
0.0050645
0.00497973
0.00489242
0.00480236
0.00470931
0.00461297
0.00451301
0.00440901
0.0043005
0.00418689
0.00406746
0.00394134
0.00380746
0.00366447
0.00351071
0.00334403
0.00316173
0.00296031
0.00273532
0.00248107
0.00219046
0.00185491
0.00146476
0.00101014
0.000487358
5.05092e-05
5.74421e-05
0.000574449
0.00115587
0.00166133
0.00209636
0.00247498
0.00280897
0.00310732
0.00337677
0.00362245
0.00384824
0.00405718
0.00425164
0.00443352
0.00460434
0.00476535
0.00491756
0.00506183
0.00519889
0.00532933
0.00545369
0.00557242
0.00568592
0.00579453
0.00589858
0.00599833
0.00609404
0.00618594
0.00627424
0.00635912
0.00644077
0.00651935
0.006595
0.00666787
0.00673808
0.00680576
0.00687102
0.00693396
0.00699468
0.00705327
0.00710981
0.00716439
0.00721708
0.00726793
0.00731702
0.0073644
0.00741013
0.00745426
0.00749682
0.00753788
0.00757745
0.00761558
0.00765231
0.00768767
0.00772167
0.00775436
0.00778576
0.00781588
0.00784475
0.00787239
0.00789882
0.00792405
0.00794809
0.00797096
0.00799267
0.00801323
0.00803264
0.00805092
0.00806807
0.00808415
0.00809918
0.00811318
0.00812615
0.00813811
0.00814907
0.00815905
0.00816805
0.00817608
0.00818315
0.00818928
0.00819448
0.00819876
0.00820212
0.00820457
0.00820614
0.00820682
0.00820662
0.00820557
0.00820366
0.0082009
0.00819731
0.00819289
0.00818765
0.0081816
0.00817475
0.00816711
0.00815868
0.00814947
0.0081395
0.00812876
0.00811726
0.00810502
0.00809203
0.0080783
0.00806384
0.00804865
0.00803274
0.0080161
0.00799875
0.00798069
0.00796192
0.00794244
0.00792225
0.00790136
0.00787977
0.00785747
0.00783447
0.00781077
0.00778637
0.00776126
0.00773544
0.00770891
0.00768168
0.00765373
0.00762506
0.00759567
0.00756556
0.00753472
0.00750315
0.00747084
0.00743779
0.00740398
0.00736942
0.0073341
0.00729801
0.00726115
0.0072235
0.00718506
0.00714583
0.00710578
0.00706492
0.00702323
0.0069807
0.00693733
0.0068931
0.006848
0.00680202
0.00675515
0.00670737
0.00665866
0.00660902
0.00655842
0.00650685
0.00645429
0.00640073
0.00634613
0.00629047
0.00623374
0.0061759
0.00611692
0.00605678
0.00599544
0.00593285
0.00586899
0.0058038
0.00573723
0.00566922
0.00559973
0.00552867
0.00545597
0.00538154
0.0053053
0.00522712
0.00514689
0.00506447
0.00497969
0.00489238
0.00480233
0.00470927
0.00461294
0.00451297
0.00440898
0.00430047
0.00418686
0.00406743
0.00394131
0.00380743
0.00366445
0.00351068
0.00334401
0.00316171
0.0029603
0.00273531
0.00248106
0.00219044
0.00185485
0.00146466
0.0010101
0.000486828
5.05466e-05
6.10988e-05
0.000614273
0.00125125
0.00181591
0.00230873
0.00274207
0.00312726
0.00347333
0.00378728
0.00407452
0.00433925
0.00458478
0.00481372
0.00502819
0.00522988
0.00542019
0.00560029
0.00577112
0.00593352
0.00608817
0.00623568
0.00637655
0.00651125
0.00664018
0.00676369
0.0068821
0.00699571
0.00710477
0.00720954
0.00731022
0.00740704
0.00750017
0.00758979
0.00767607
0.00775916
0.00783921
0.00791635
0.0079907
0.00806238
0.00813149
0.00819815
0.00826245
0.00832447
0.0083843
0.00844201
0.00849768
0.00855138
0.00860315
0.00865307
0.00870118
0.00874754
0.00879218
0.00883516
0.00887651
0.00891627
0.00895447
0.00899114
0.00902632
0.00906002
0.00909228
0.00912312
0.00915256
0.00918062
0.00920731
0.00923265
0.00925666
0.00927935
0.00930073
0.00932082
0.00933964
0.00935724
0.00937363
0.00938883
0.00940287
0.00941574
0.00942746
0.00943806
0.00944753
0.0094559
0.00946318
0.00946938
0.00947451
0.00947859
0.00948162
0.00948362
0.00948461
0.00948459
0.00948357
0.00948157
0.00947859
0.00947466
0.00946977
0.00946394
0.00945718
0.0094495
0.00944091
0.00943142
0.00942104
0.00940977
0.00939763
0.00938462
0.00937075
0.00935602
0.00934045
0.00932404
0.0093068
0.00928873
0.00926983
0.00925011
0.00922958
0.00920824
0.00918608
0.00916312
0.00913935
0.00911478
0.0090894
0.00906322
0.00903624
0.00900845
0.00897986
0.00895045
0.00892024
0.00888921
0.00885737
0.00882471
0.00879122
0.0087569
0.00872175
0.00868576
0.00864892
0.00861123
0.00857268
0.00853326
0.00849297
0.00845179
0.00840972
0.00836675
0.00832287
0.00827807
0.00823233
0.00818565
0.00813802
0.00808942
0.00803983
0.00798925
0.00793766
0.00788504
0.00783138
0.00777666
0.00772085
0.00766395
0.00760593
0.00754677
0.00748644
0.00742492
0.00736217
0.00729818
0.0072329
0.0071663
0.00709835
0.007029
0.00695821
0.00688593
0.0068121
0.00673667
0.00665957
0.00658073
0.00650007
0.0064175
0.00633293
0.00624624
0.00615732
0.00606602
0.0059722
0.00587567
0.00577623
0.00567366
0.00556769
0.00545801
0.00534426
0.00522602
0.00510279
0.00497397
0.00483885
0.00469657
0.00454608
0.00438609
0.00421502
0.0040309
0.00383129
0.00361313
0.00337258
0.00310485
0.00280401
0.00246286
0.00207294
0.00162511
0.00111183
0.000538012
5.26015e-05
6.11003e-05
0.000614325
0.00125137
0.00181608
0.00230894
0.00274231
0.00312752
0.0034736
0.00378755
0.00407479
0.00433952
0.00458505
0.00481399
0.00502845
0.00523013
0.00542044
0.00560053
0.00577136
0.00593374
0.00608839
0.00623589
0.00637675
0.00651144
0.00664036
0.00676386
0.00688227
0.00699587
0.00710493
0.00720968
0.00731036
0.00740717
0.00750029
0.00758991
0.00767618
0.00775927
0.00783931
0.00791644
0.00799078