/*--------------------------------*- C++ -*----------------------------------*\
  =========                 |
  \\      /  F ield         | OpenFOAM: The Open Source CFD Toolbox
   \\    /   O peration     | Website:  https://openfoam.org
    \\  /    A nd           | Version:  8
     \\/     M anipulation  |
\*---------------------------------------------------------------------------*/
FoamFile
{
    version     2.0;
    format      ascii;
    class       volScalarField;
    location    "1100";
    object      epsilon;
}
// * * * * * * * * * * * * * * * * * * * * * * * * * * * * * * * * * * * * * //

dimensions      [0 2 -3 0 0 0 0];

internalField   nonuniform List<scalar> 
48000
(
0.214957
0.928383
0.975023
1.40965
1.88306
2.35604
2.8307
3.31373
3.79907
4.29018
4.78759
5.29181
5.80322
6.32206
6.84841
7.38223
7.92337
8.47157
9.02648
9.58767
10.1547
10.7269
11.3038
11.8848
12.4691
13.0561
13.6451
14.2354
14.8262
15.4169
16.0067
16.5949
17.1809
17.7639
18.3433
18.9184
19.4886
20.0533
20.6119
21.1638
21.7085
22.2455
22.7743
23.2944
23.8053
24.3066
24.7979
25.2789
25.7491
26.2083
26.6561
27.0922
27.5164
27.9283
28.3279
28.7148
29.0888
29.4499
29.7977
30.1322
30.4533
30.7608
31.0545
31.3343
31.6006
31.8542
32.0942
32.3206
32.5332
32.7321
32.9172
33.0886
33.2463
33.3905
33.5211
33.6383
33.7421
33.8327
33.9101
33.9745
34.026
34.0648
34.0909
34.1046
34.1059
34.0951
34.0723
34.0377
33.9915
33.9338
33.8648
33.7846
33.6936
33.5919
33.4796
33.3571
33.2243
33.0817
32.9293
32.7673
32.5961
32.4157
32.2263
32.0283
31.8216
31.6067
31.3835
31.1524
30.9136
30.6672
30.4133
30.1523
29.8842
29.6093
29.3277
29.0396
28.7452
28.4446
28.138
27.8257
27.5076
27.184
26.8551
26.5211
26.182
25.838
25.4894
25.1362
24.7786
24.4168
24.0509
23.6811
23.3076
22.9306
22.5501
22.1664
21.7796
21.3899
20.9976
20.6027
20.2055
19.8061
19.4048
19.0017
18.5971
18.1912
17.7841
17.3761
16.9674
16.5582
16.1488
15.7393
15.3301
14.9213
14.5131
14.1059
13.6999
13.2953
12.8924
12.4913
12.0925
11.696
11.3022
10.9114
10.5237
10.1395
9.75889
9.38223
9.00973
8.64164
8.27817
7.91955
7.56601
7.21775
6.87496
6.53784
6.20655
5.88125
5.56209
5.24917
4.9426
4.64245
4.34878
4.06163
3.78112
3.50754
3.24182
2.9851
2.73345
2.48593
2.24208
2.00086
1.76124
1.52262
1.29265
1.09674
1.11182
0.880079
0.181491
0.170187
0.214999
0.928974
0.974949
1.40971
1.8832
2.3562
2.83087
3.31391
3.79926
4.29036
4.78778
5.292
5.80341
6.32225
6.84859
7.38241
7.92355
8.47174
9.02665
9.58784
10.1548
10.7271
11.304
11.8849
12.4692
13.0562
13.6452
14.2355
14.8263
15.417
16.0068
16.595
17.181
17.764
18.3433
18.9184
19.4886
20.0533
20.6119
21.1639
21.7086
22.2456
22.7743
23.2944
23.8053
24.3066
24.7979
25.2789
25.7491
26.2083
26.6561
27.0922
27.5163
27.9283
28.3278
28.7147
29.0888
29.4498
29.7977
30.1322
30.4533
30.7608
31.0545
31.3343
31.6006
31.8541
32.0941
32.3205
32.5331
32.732
32.9171
33.0885
33.2462
33.3904
33.521
33.6382
33.742
33.8326
33.91
33.9744
34.0259
34.0647
34.0908
34.1045
34.1058
34.095
34.0722
34.0376
33.9914
33.9337
33.8646
33.7845
33.6935
33.5918
33.4795
33.357
33.2242
33.0816
32.9292
32.7672
32.596
32.4156
32.2262
32.0281
31.8215
31.6066
31.3834
31.1523
30.9135
30.6671
30.4132
30.1522
29.8841
29.6092
29.3276
29.0395
28.7451
28.4445
28.138
27.8256
27.5075
27.1839
26.855
26.521
26.1819
25.8379
25.4893
25.1361
24.7785
24.4167
24.0508
23.6811
23.3075
22.9305
22.55
22.1663
21.7795
21.3898
20.9975
20.6026
20.2054
19.806
19.4047
19.0017
18.5971
18.1911
17.784
17.376
16.9673
16.5582
16.1487
15.7393
15.33
14.9212
14.5131
14.1059
13.6999
13.2952
12.8923
12.4913
12.0924
11.696
11.3022
10.9113
10.5237
10.1394
9.75884
9.38219
9.00969
8.6416
8.27813
7.91952
7.56598
7.21772
6.87493
6.53781
6.20653
5.88123
5.56207
5.24915
4.94258
4.64244
4.34876
4.06162
3.78111
3.50753
3.24181
2.98509
2.73344
2.48593
2.24208
2.00086
1.76122
1.52256
1.29247
1.09635
1.11181
0.880869
0.181559
0.17016
0.336719
0.516449
0.649598
0.815377
0.996434
1.18363
1.37531
1.57137
1.77118
1.97495
2.18284
2.39499
2.61151
2.83245
3.05783
3.28761
3.52173
3.76005
4.00243
4.24867
4.49855
4.75182
5.00819
5.26738
5.52907
5.79292
6.05859
6.32573
6.59398
6.86297
7.13233
7.40169
7.6707
7.93899
8.20621
8.472
8.73603
8.99796
9.25748
9.51428
9.76806
10.0185
10.2654
10.5085
10.7475
10.9821
11.2123
11.4377
11.6581
11.8735
12.0835
12.2881
12.4872
12.6805
12.868
13.0495
13.225
13.3944
13.5575
13.7144
13.8649
14.009
14.1467
14.278
14.403
14.5219
14.6344
14.7404
14.84
14.9331
15.0197
15.0999
15.1737
15.241
15.302
15.3567
15.4052
15.4474
15.4835
15.5135
15.5375
15.5555
15.5676
15.5739
15.5745
15.5694
15.5587
15.5426
15.521
15.4941
15.4619
15.4246
15.3823
15.335
15.2828
15.2258
15.1642
15.098
15.0272
14.9521
14.8727
14.789
14.7013
14.6095
14.5138
14.4142
14.311
14.204
14.0935
13.9796
13.8623
13.7416
13.6178
13.4909
13.3609
13.2279
13.0921
12.9535
12.8122
12.6682
12.5217
12.3728
12.2214
12.0677
11.9117
11.7535
11.5933
11.431
11.2668
11.1007
10.9328
10.7632
10.5919
10.419
10.2447
10.0689
9.89177
9.7134
9.53386
9.35323
9.1716
8.98905
8.80568
8.62157
8.43682
8.25153
8.0658
7.87971
7.69338
7.5069
7.32038
7.13393
6.94765
6.76166
6.57606
6.39097
6.2065
6.02277
5.83989
5.65798
5.47716
5.29753
5.11923
4.94237
4.76706
4.59342
4.42157
4.25161
4.08367
3.91784
3.75423
3.59294
3.43408
3.27774
3.12399
2.97293
2.82463
2.67914
2.53654
2.39688
2.26017
2.12647
1.99579
1.86814
1.74356
1.62209
1.50383
1.38874
1.27621
1.16609
1.05845
0.953048
0.849987
0.750065
0.656346
0.574001
0.511028
0.414122
0.284105
0.269683
0.336719
0.51724
0.649912
0.815403
0.996399
1.18357
1.37524
1.57129
1.77109
1.97486
2.18274
2.39489
2.6114
2.83233
3.0577
3.28748
3.52159
3.75991
4.00229
4.24852
4.4984
4.75166
5.00803
5.26722
5.5289
5.79275
6.05842
6.32555
6.59379
6.86278
7.13213
7.4015
7.6705
7.93879
8.206
8.47179
8.73581
8.99775
9.25727
9.51406
9.76784
10.0183
10.2652
10.5083
10.7472
10.9819
11.212
11.4374
11.6579
11.8732
12.0833
12.2879
12.4869
12.6802
12.8677
13.0493
13.2248
13.3941
13.5573
13.7141
13.8647
14.0088
14.1465
14.2777
14.4027
14.5216
14.6341
14.7402
14.8397
14.9328
15.0195
15.0996
15.1734
15.2408
15.3018
15.3565
15.405
15.4472
15.4833
15.5133
15.5373
15.5553
15.5674
15.5737
15.5743
15.5692
15.5585
15.5423
15.5208
15.4938
15.4617
15.4244
15.3821
15.3348
15.2826
15.2256
15.164
15.0977
15.027
14.9519
14.8724
14.7888
14.701
14.6093
14.5136
14.414
14.3108
14.2038
14.0933
13.9794
13.8621
13.7414
13.6176
13.4907
13.3607
13.2277
13.0919
12.9533
12.812
12.6681
12.5216
12.3726
12.2212
12.0675
11.9115
11.7534
11.5931
11.4309
11.2666
11.1005
10.9326
10.763
10.5917
10.4189
10.2445
10.0687
9.89163
9.71326
9.53372
9.35309
9.17146
8.98891
8.80554
8.62144
8.4367
8.25141
8.06568
7.87959
7.69326
7.50679
7.32027
7.13382
6.94755
6.76156
6.57596
6.39087
6.20641
6.02268
5.8398
5.65789
5.47707
5.29745
5.11915
4.94229
4.76698
4.59335
4.42149
4.25154
4.0836
3.91777
3.75416
3.59288
3.43402
3.27768
3.12393
2.97287
2.82457
2.67909
2.5365
2.39683
2.26013
2.12643
1.99575
1.8681
1.74352
1.62206
1.5038
1.38871
1.27618
1.16606
1.05843
0.953025
0.849959
0.750019
0.656289
0.574093
0.51129
0.414453
0.284377
0.269757
0.305524
0.62123
0.714656
0.811816
0.925437
1.0504
1.183
1.32141
1.46464
1.61227
1.76409
1.92
2.07996
2.24391
2.41182
2.58362
2.75921
2.93851
3.12137
3.30765
3.49716
3.68972
3.88512
4.08311
4.28345
4.48589
4.69016
4.89597
5.10303
5.31106
5.51975
5.72881
5.93793
6.14683
6.35521
6.56277
6.76924
6.97433
7.17778
7.37933
7.57871
7.77569
7.97003
8.16152
8.34994
8.53508
8.71677
8.89482
9.06906
9.23934
9.40552
9.56745
9.72501
9.8781
10.0266
10.1704
10.3095
10.4437
10.573
10.6973
10.8166
10.9309
11.04
11.1441
11.2431
11.3371
11.426
11.5099
11.5886
11.6621
11.7306
11.7939
11.8521
11.9053
11.9534
11.9965
12.0347
12.0679
12.0963
12.1198
12.1386
12.1526
12.162
12.1668
12.167
12.1628
12.1541
12.1411
12.1238
12.1023
12.0767
12.047
12.0133
11.9757
11.9342
11.889
11.8401
11.7876
11.7315
11.672
11.609
11.5428
11.4733
11.4006
11.3249
11.2462
11.1645
11.0799
10.9926
10.9025
10.8098
10.7145
10.6167
10.5165
10.4139
10.3089
10.2018
10.0924
9.981
9.86751
9.75203
9.63463
9.51537
9.39431
9.27151
9.14703
9.02093
8.89327
8.76411
8.63351
8.50153
8.36823
8.23368
8.09792
7.96104
7.82309
7.68413
7.54423
7.40345
7.26188
7.11956
6.97658
6.83301
6.68891
6.54437
6.39946
6.25426
6.10885
5.9633
5.8177
5.67214
5.5267
5.38147
5.23653
5.09198
4.94789
4.80438
4.66152
4.5194
4.37814
4.2378
4.0985
3.96032
3.82336
3.68771
3.55346
3.4207
3.28952
3.16002
3.03227
2.90635
2.78236
2.66035
2.54042
2.42262
2.30702
2.19367
2.08264
1.97396
1.86768
1.76382
1.66243
1.56352
1.46712
1.37324
1.28192
1.19317
1.10697
1.02323
0.941924
0.863124
0.786912
0.713753
0.644306
0.579948
0.522847
0.473605
0.424243
0.37185
0.345851
0.305526
0.621485
0.713927
0.811507
0.925303
1.0503
1.1829
1.32131
1.46454
1.61216
1.76398
1.91989
2.07984
2.24379
2.4117
2.58349
2.75909
2.93838
3.12124
3.30752
3.49703
3.68959
3.88498
4.08297
4.28332
4.48576
4.69002
4.89583
5.10289
5.31092
5.51961
5.72867
5.9378
6.1467
6.35508
6.56264
6.76911
6.9742
7.17765
7.3792
7.57858
7.77556
7.96991
8.16139
8.34981
8.53496
8.71665
8.8947
9.06894
9.23922
9.4054
9.56733
9.7249
9.87798
10.0265
10.1703
10.3094
10.4436
10.5729
10.6972
10.8165
10.9308
11.0399
11.144
11.243
11.337
11.4259
11.5098
11.5885
11.662
11.7305
11.7938
11.852
11.9052
11.9533
11.9964
12.0346
12.0678
12.0962
12.1197
12.1385
12.1525
12.1619
12.1667
12.1669
12.1627
12.154
12.141
12.1237
12.1022
12.0766
12.0469
12.0132
11.9756
11.9342
11.889
11.84
11.7875
11.7314
11.6719
11.609
11.5427
11.4732
11.4006
11.3248
11.2461
11.1644
11.0799
10.9925
10.9025
10.8097
10.7145
10.6167
10.5164
10.4138
10.3089
10.2017
10.0924
9.98095
9.86746
9.75199
9.63459
9.51533
9.39427
9.27147
9.14699
9.02089
8.89323
8.76407
8.63347
8.50149
8.36819
8.23364
8.09789
7.961
7.82305
7.68409
7.54419
7.40342
7.26185
7.11953
6.97655
6.83298
6.68889
6.54435
6.39944
6.25423
6.10882
5.96328
5.81768
5.67212
5.52668
5.38145
5.23651
5.09195
4.94787
4.80436
4.6615
4.51939
4.37812
4.23779
4.09848
3.96031
3.82335
3.68769
3.55344
3.42069
3.28951
3.16
3.03225
2.90634
2.78234
2.66034
2.54041
2.42261
2.30701
2.19366
2.08263
1.97395
1.86767
1.76381
1.66242
1.56351
1.46711
1.37323
1.28191
1.19316
1.10697
1.02322
0.941918
0.863119
0.786906
0.713746
0.644294
0.579935
0.522931
0.473873
0.424765
0.372356
0.345802
1.63671
0.897749
0.850755
0.896777
0.975725
1.07173
1.17835
1.29253
1.41265
1.53783
1.66758
1.80157
1.93961
2.08155
2.22728
2.37669
2.52966
2.68609
2.84583
3.00875
3.17469
3.34347
3.5149
3.6888
3.86493
4.04308
4.22301
4.40447
4.58722
4.771
4.95555
5.14059
5.32588
5.51114
5.69612
5.88054
6.06416
6.24671
6.42797
6.60767
6.7856
6.96153
7.13524
7.30653
7.47519
7.64104
7.80391
7.96361
8.12
8.27293
8.42226
8.56785
8.70959
8.84737
8.98109
9.11066
9.23599
9.35701
9.47365
9.58586
9.69358
9.79678
9.89542
9.98948
10.079
10.1639
10.2442
10.32
10.3912
10.4577
10.5196
10.5769
10.6296
10.6778
10.7214
10.7605
10.7952
10.8254
10.8512
10.8726
10.8898
10.9027
10.9113
10.9158
10.9163
10.9126
10.905
10.8935
10.878
10.8588
10.8359
10.8092
10.779
10.7452
10.708
10.6673
10.6233
10.576
10.5255
10.4719
10.4152
10.3556
10.293
10.2275
10.1593
10.0883
10.0147
9.93848
9.85975
9.77856
9.69498
9.60907
9.5209
9.43053
9.33802
9.24343
9.14683
9.04826
8.9478
8.8455
8.74141
8.6356
8.52811
8.41902
8.30836
8.1962
8.0826
7.9676
7.85126
7.73365
7.6148
7.49479
7.37366
7.25148
7.1283
7.00418
6.87918
6.75335
6.62677
6.49949
6.37158
6.2431
6.11411
5.98469
5.85491
5.72483
5.59452
5.46407
5.33353
5.20299
5.07253
4.94223
4.81215
4.68239
4.55302
4.42413
4.2958
4.16812
4.04116
3.91501
3.78977
3.66551
3.54231
3.42027
3.29947
3.17998
3.0619
2.9453
2.83025
2.71685
2.60515
2.49524
2.38718
2.28103
2.17686
2.07472
1.97466
1.87674
1.781
1.68748
1.59621
1.50723
1.42057
1.33626
1.25433
1.17482
1.09778
1.02322
0.951209
0.881826
0.815244
0.751743
0.69182
0.636253
0.58638
0.544634
0.515022
0.504345
0.521213
0.351739
1.63635
0.89707
0.850287
0.896559
0.975599
1.07162
1.17824
1.29241
1.41253
1.53772
1.66746
1.80145
1.93949
2.08143
2.22716
2.37657
2.52954
2.68596
2.84571
3.00863
3.17456
3.34334
3.51478
3.68867
3.86481
4.04296
4.22289
4.40435
4.5871
4.77088
4.95543
5.14048
5.32577
5.51103
5.69601
5.88043
6.06405
6.24661
6.42787
6.60757
6.78551
6.96144
7.13515
7.30644
7.4751
7.64096
7.80382
7.96353
8.11993
8.27286
8.42218
8.56778
8.70952
8.8473
8.98102
9.11059
9.23592
9.35694
9.47359
9.5858
9.69352
9.79672
9.89536
9.98943
10.0789
10.1638
10.2442
10.32
10.3911
10.4576
10.5196
10.5769
10.6296
10.6778
10.7214
10.7605
10.7951
10.8253
10.8512
10.8726
10.8897
10.9026
10.9113
10.9158
10.9162
10.9126
10.905
10.8934
10.878
10.8588
10.8358
10.8092
10.779
10.7452
10.7079
10.6673
10.6233
10.576
10.5255
10.4719
10.4152
10.3556
10.293
10.2275
10.1593
10.0883
10.0147
9.93847
9.85974
9.77855
9.69497
9.60906
9.52089
9.43052
9.33801
9.24343
9.14682
9.04826
8.9478
8.84549
8.74141
8.63559
8.52811
8.41901
8.30836
8.1962
8.08259
7.9676
7.85126
7.73365
7.6148
7.49479
7.37366
7.25148
7.1283
7.00418
6.87918
6.75335
6.62677
6.49949
6.37158
6.2431
6.11412
5.9847
5.85491
5.72483
5.59453
5.46407
5.33354
5.203
5.07254
4.94223
4.81216
4.68239
4.55303
4.42414
4.29581
4.16812
4.04116
3.91502
3.78977
3.66551
3.54232
3.42027
3.29947
3.17999
3.0619
2.9453
2.83026
2.71685
2.60516
2.49524
2.38718
2.28103
2.17686
2.07472
1.97467
1.87675
1.781
1.68748
1.59621
1.50723
1.42057
1.33626
1.25433
1.17483
1.09778
1.02322
0.95121
0.881827
0.815244
0.751744
0.69182
0.636254
0.586388
0.544688
0.515168
0.504641
0.520172
0.351808
2.15474
1.12763
1.00474
1.0151
1.07053
1.14823
1.23941
1.3399
1.44746
1.56082
1.67918
1.80203
1.92904
2.05995
2.19458
2.33276
2.47435
2.61921
2.7672
2.91818
3.07198
3.22845
3.38742
3.54869
3.71207
3.87737
4.04437
4.21285
4.38259
4.55335
4.7249
4.897
5.06942
5.2419
5.41422
5.58613
5.75739
5.92778
6.09706
6.265
6.4314
6.59605
6.75872
6.91924
7.07741
7.23305
7.38599
7.53607
7.68313
7.82703
7.96763
8.10481
8.23844
8.36842
8.49465
8.61704
8.7355
8.84996
8.96034
9.0666
9.16867
9.26652
9.36011
9.44941
9.53441
9.61509
9.69146
9.7635
9.8312
9.89456
9.95357
10.0082
10.0586
10.1046
10.1464
10.1839
10.2172
10.2462
10.2711
10.2919
10.3086
10.3213
10.33
10.3347
10.3356
10.3326
10.3258
10.3153
10.3011
10.2833
10.2619
10.2371
10.2088
10.1772
10.1422
10.104
10.0626
10.0182
9.97061
9.92008
9.86663
9.81033
9.75123
9.68941
9.62493
9.55785
9.48824
9.41617
9.34168
9.26485
9.18574
9.10442
9.02093
8.93534
8.84771
8.7581
8.66656
8.57316
8.47795
8.38098
8.28232
8.18201
8.08012
7.97668
7.87177
7.76543
7.65771
7.54868
7.43838
7.32686
7.21419
7.10041
6.98558
6.86976
6.75299
6.63535
6.51688
6.39765
6.2777
6.15712
6.03595
5.91426
5.79211
5.66956
5.5467
5.42357
5.30026
5.17683
5.05335
4.9299
4.80655
4.68337
4.56045
4.43785
4.31566
4.19396
4.07283
3.95234
3.83258
3.71362
3.59556
3.47846
3.36242
3.2475
3.1338
3.02138
2.91032
2.80071
2.69261
2.58609
2.48123
2.37809
2.27673
2.17722
2.0796
1.98395
1.8903
1.79871
1.70921
1.62186
1.53668
1.45373
1.37304
1.29466
1.21864
1.14502
1.07389
1.00533
0.939462
0.876452
0.816568
0.760207
0.707986
0.660879
0.620523
0.590042
0.576833
0.605976
0.805701
2.04108
2.15477
1.12739
1.00454
1.01497
1.07042
1.14812
1.23929
1.33978
1.44734
1.5607
1.67906
1.80191
1.92892
2.05983
2.19446
2.33264
2.47423
2.61909
2.76708
2.91806
3.07186
3.22833
3.3873
3.54857
3.71196
3.87725
4.04425
4.21274
4.38247
4.55324
4.72479
4.8969
5.06931
5.2418
5.41412
5.58603
5.7573
5.92768
6.09697
6.26492
6.43132
6.59596
6.75864
6.91916
7.07733
7.23298
7.38592
7.536
7.68306
7.82696
7.96757
8.10475
8.23838
8.36837
8.4946
8.61699
8.73545
8.84991
8.9603
9.06656
9.16863
9.26648
9.36007
9.44937
9.53437
9.61506
9.69143
9.76347
9.83118
9.89453
9.95354
10.0082
10.0586
10.1046
10.1464
10.1839
10.2171
10.2462
10.2711
10.2919
10.3086
10.3213
10.33
10.3347
10.3355
10.3326
10.3258
10.3153
10.3011
10.2833
10.2619
10.2371
10.2088
10.1772
10.1422
10.104
10.0626
10.0182
9.97061
9.92008
9.86663
9.81033
9.75124
9.68942
9.62494
9.55786
9.48825
9.41617
9.34169
9.26486
9.18575
9.10442
9.02093
8.93534
8.84772
8.75811
8.66657
8.57317
8.47796
8.38099
8.28233
8.18202
8.08013
7.97669
7.87178
7.76544
7.65773
7.54869
7.43839
7.32687
7.2142
7.10042
6.98559
6.86977
6.753
6.63536
6.51689
6.39766
6.27772
6.15713
6.03596
5.91427
5.79212
5.66958
5.54671
5.42359
5.30027
5.17684
5.05336
4.92991
4.80656
4.68338
4.56046
4.43786
4.31568
4.19397
4.07284
3.95235
3.83259
3.71363
3.59557
3.47847
3.36243
3.24751
3.13381
3.02139
2.91033
2.80072
2.69262
2.5861
2.48124
2.3781
2.27674
2.17722
2.07961
1.98396
1.89031
1.79871
1.70922
1.62186
1.53669
1.45374
1.37305
1.29467
1.21864
1.14503
1.0739
1.00534
0.939465
0.876455
0.81657
0.760209
0.707988
0.660879
0.620519
0.590006
0.576573
0.604863
0.805412
2.04156
2.67725
1.36211
1.17362
1.15389
1.19065
1.25486
1.33539
1.42698
1.52677
1.63308
1.74486
1.86141
1.98225
2.10702
2.23548
2.36739
2.50258
2.64088
2.78214
2.9262
3.0729
3.22209
3.3736
3.52726
3.68288
3.84029
3.99929
4.15969
4.32127
4.48383
4.64716
4.81104
4.97524
5.13956
5.30377
5.46765
5.63099
5.79356
5.95515
6.11556
6.27458
6.432
6.58765
6.74132
6.89284
7.04204
7.18874
7.3328
7.47405
7.61237
7.7476
7.87964
8.00836
8.13364
8.2554
8.37353
8.48795
8.59859
8.70537
8.80823
8.90711
9.00197
9.09277
9.17948
9.26207
9.34053
9.41483
9.48497
9.55095
9.61275
9.67038
9.72383
9.77312
9.81825
9.85926
9.89615
9.92896
9.95771
9.98244
10.0032
10.02
10.0328
10.0419
10.047
10.0484
10.0461
10.0401
10.0305
10.0173
10.0006
9.98043
9.95686
9.92995
9.89975
9.86632
9.82973
9.79004
9.74731
9.70159
9.65297
9.60148
9.54721
9.49021
9.43054
9.36827
9.30345
9.23616
9.16645
9.09438
9.02002
8.94342
8.86465
8.78376
8.70081
8.61585
8.52896
8.44018
8.34957
8.25718
8.16307
8.0673
7.96992
7.87098
7.77054
7.66864
7.56535
7.46071
7.35479
7.24762
7.13927
7.02979
6.91923
6.80765
6.6951
6.58164
6.46732
6.3522
6.23634
6.11981
6.00265
5.88493
5.76671
5.64806
5.52903
5.40971
5.29014
5.17041
5.05058
4.93072
4.8109
4.6912
4.57169
4.45245
4.33355
4.21506
4.09707
3.97966
3.86289
3.74686
3.63163
3.51729
3.40392
3.29159
3.18038
3.07037
2.96163
2.85424
2.74826
2.64378
2.54085
2.43954
2.33992
2.24204
2.14597
2.05176
1.95946
1.86912
1.7808
1.69453
1.61037
1.52835
1.44854
1.37097
1.2957
1.22282
1.15238
1.0845
1.01931
0.956984
0.897759
0.841983
0.790153
0.743016
0.701731
0.66821
0.645881
0.641754
0.674779
0.829542
1.70396
2.67745
1.36202
1.17351
1.15377
1.19053
1.25474
1.33527
1.42686
1.52665
1.63296
1.74474
1.86129
1.98212
2.1069
2.23535
2.36727
2.50246
2.64076
2.78202
2.92608
3.07278
3.22197
3.37348
3.52714
3.68277
3.84018
3.99918
4.15958
4.32116
4.48372
4.64705
4.81093
4.97514
5.13946
5.30368
5.46756
5.6309
5.79347
5.95506
6.11548
6.2745
6.43193
6.58757
6.74125
6.89277
7.04197
7.18868
7.33274
7.47399
7.61231
7.74755
7.87959
8.00831
8.13359
8.25535
8.37349
8.48791
8.59855
8.70533
8.80819
8.90708
9.00194
9.09274
9.17946
9.26205
9.3405
9.41481
9.48495
9.55093
9.61274
9.67036
9.72381
9.7731
9.81824
9.85924
9.89614
9.92895
9.9577
9.98243
10.0032
10.02
10.0328
10.0418
10.047
10.0484
10.0461
10.0401
10.0305
10.0173
10.0006
9.98044
9.95686
9.92995
9.89975
9.86632
9.82973
9.79004
9.74731
9.7016
9.65297
9.60149
9.54722
9.49021
9.43055
9.36828
9.30346
9.23617
9.16646
9.09439
9.02003
8.94343
8.86466
8.78377
8.70082
8.61587
8.52897
8.44019
8.34958
8.25719
8.16309
8.06731
7.96993
7.87099
7.77055
7.66865
7.56536
7.46073
7.3548
7.24763
7.13928
7.0298
6.91924
6.80766
6.69511
6.58165
6.46733
6.35222
6.23636
6.11982
6.00266
5.88494
5.76672
5.64807
5.52905
5.40972
5.29016
5.17042
5.05059
4.93073
4.81092
4.69122
4.57171
4.45246
4.33356
4.21508
4.09709
3.97967
3.8629
3.74687
3.63164
3.5173
3.40393
3.2916
3.18039
3.07038
2.96164
2.85425
2.74827
2.64379
2.54086
2.43955
2.33992
2.24205
2.14598
2.05177
1.95947
1.86913
1.78081
1.69454
1.61038
1.52836
1.44854
1.37097
1.29571
1.22282
1.15239
1.08451
1.01932
0.956988
0.897763
0.841986
0.790156
0.743018
0.701734
0.66822
0.645913
0.64182
0.674822
0.830447
1.70377
3.22223
1.60798
1.35574
1.30834
1.32903
1.38242
1.45498
1.54032
1.63497
1.73687
1.84469
1.95755
2.07485
2.19613
2.32106
2.44935
2.5808
2.71521
2.85239
2.99219
3.13444
3.27899
3.42567
3.57432
3.72478
3.87686
4.03041
4.18523
4.34114
4.49796
4.65548
4.81352
4.97187
5.13033
5.28871
5.4468
5.6044
5.76131
5.91733
6.07227
6.22594
6.37814
6.5287
6.67743
6.82416
6.96873
7.11098
7.25075
7.38789
7.52227
7.65375
7.7822
7.90752
8.02959
8.1483
8.26357
8.3753
8.48341
8.58784
8.68851
8.78537
8.87837
8.96746
9.05261
9.13378
9.21094
9.28409
9.3532
9.41827
9.47929
9.53625
9.58915
9.638
9.6828
9.72359
9.76036
9.79314
9.82196
9.84684
9.86783
9.88494
9.89822
9.9077
9.91344
9.91547
9.91383
9.90858
9.89976
9.88743
9.87164
9.85243
9.82988
9.80402
9.77492
9.74264
9.70724
9.66876
9.62728
9.58286
9.53554
9.4854
9.4325
9.37689
9.31864
9.25781
9.19445
9.12863
9.06041
8.98985
8.91701
8.84195
8.76472
8.68539
8.60401
8.52064
8.43533
8.34814
8.25914
8.16836
8.07588
7.98173
7.88598
7.78868
7.68988
7.58964
7.48801
7.38504
7.28078
7.17529
7.06863
6.96084
6.85198
6.74211
6.63127
6.51953
6.40695
6.29357
6.17947
6.06469
5.9493
5.83336
5.71693
5.60008
5.48286
5.36536
5.24762
5.12973
5.01175
4.89375
4.77581
4.65799
4.54037
4.42302
4.30602
4.18945
4.07338
3.95788
3.84305
3.72894
3.61565
3.50324
3.3918
3.28139
3.17211
3.06401
2.95717
2.85167
2.74757
2.64494
2.54384
2.44435
2.34652
2.2504
2.15607
2.06356
1.97294
1.88425
1.79754
1.71286
1.63027
1.54981
1.47154
1.39552
1.32183
1.25055
1.18179
1.11567
1.05238
0.992132
0.935229
0.882094
0.833321
0.789793
0.752875
0.724832
0.709797
0.716401
0.767426
0.95441
2.04372
3.2225
1.60792
1.35563
1.30822
1.32891
1.38229
1.45485
1.54019
1.63484
1.73674
1.84456
1.95742
2.07472
2.196
2.32093
2.44923
2.58068
2.71508
2.85227
2.99207
3.13432
3.27887
3.42555
3.5742
3.72466
3.87675
4.0303
4.18512
4.34104
4.49785
4.65538
4.81342
4.97177
5.13024
5.28862
5.44671
5.60431
5.76122
5.91725
6.07219
6.22586
6.37806
6.52862
6.67736
6.8241
6.96867
7.11092
7.25069
7.38783
7.52221
7.65369
7.78215
7.90747
8.02954
8.14826
8.26353
8.37526
8.48338
8.5878
8.68848
8.78534
8.87834
8.96744
9.05258
9.13375
9.21092
9.28407
9.35319
9.41826
9.47927
9.53623
9.58913
9.63799
9.68279
9.72358
9.76035
9.79313
9.82195
9.84684
9.86782
9.88494
9.89822
9.9077
9.91344
9.91547
9.91383
9.90858
9.89976
9.88743
9.87164
9.85244
9.82988
9.80403
9.77493
9.74265
9.70724
9.66877
9.62729
9.58286
9.53555
9.48541
9.43251
9.3769
9.31865
9.25782
9.19446
9.12864
9.06042
8.98987
8.91702
8.84196
8.76473
8.6854
8.60402
8.52065
8.43534
8.34816
8.25915
8.16838
8.07589
7.98174
7.88599
7.78869
7.68989
7.58965
7.48802
7.38505
7.28079
7.17531
7.06864
6.96085
6.85199
6.74212
6.63129
6.51955
6.40696
6.29359
6.17948
6.0647
5.94931
5.83337
5.71694
5.60009
5.48288
5.36537
5.24764
5.12975
5.01177
4.89377
4.77582
4.658
4.54038
4.42303
4.30603
4.18946
4.07339
3.9579
3.84306
3.72895
3.61566
3.50325
3.39181
3.2814
3.17212
3.06402
2.95718
2.85168
2.74757
2.64494
2.54385
2.44436
2.34652
2.25041
2.15607
2.06357
1.97294
1.88425
1.79754
1.71287
1.63027
1.54981
1.47154
1.39553
1.32183
1.25055
1.18179
1.11568
1.05239
0.992136
0.935233
0.882097
0.833323
0.789795
0.752876
0.724833
0.709801
0.716408
0.767404
0.954578
2.04364
3.78541
1.86522
1.55005
1.47644
1.48268
1.52692
1.59319
1.67396
1.76512
1.86422
1.9697
2.08049
2.19585
2.31523
2.43822
2.56449
2.69378
2.82587
2.96055
3.09765
3.237
3.37844
3.52182
3.66697
3.81374
3.96198
4.11151
4.26219
4.41383
4.56627
4.71935
4.87287
5.02666
5.18054
5.33433
5.48784
5.64089
5.7933
5.94489
6.09546
6.24485
6.39288
6.53937
6.68416
6.82707
6.96796
7.10666
7.24303
7.37693
7.50821
7.63674
7.76241
7.88509
8.00468
8.12106
8.23416
8.34386
8.4501
8.5528
8.65188
8.74729
8.83897
8.92688
9.01096
9.09119
9.16753
9.23996
9.30846
9.37302
9.43362
9.49025
9.54293
9.59164
9.63639
9.67719
9.71407
9.74702
9.77609
9.80128
9.82263
9.84017
9.85393
9.86395
9.87026
9.87291
9.87195
9.8674
9.85933
9.84777
9.83278
9.81442
9.79272
9.76775
9.73955
9.7082
9.67373
9.63621
9.5957
9.55225
9.50593
9.45679
9.40488
9.35028
9.29304
9.23322
9.17088
9.10607
9.03886
8.96931
8.89748
8.82341
8.74718
8.66884
8.58844
8.50604
8.42171
8.33549
8.24743
8.15761
8.06606
7.97285
7.87802
7.78163
7.68375
7.5844
7.48367
7.38158
7.27821
7.1736
7.06781
6.96088
6.85289
6.74387
6.63389
6.52301
6.41127
6.29875
6.18549
6.07156
5.95702
5.84193
5.72635
5.61035
5.494
5.37735
5.26048
5.14346
5.02635
4.90922
4.79215
4.67521
4.55848
4.44202
4.32592
4.21024
4.09507
3.98048
3.86655
3.75335
3.64095
3.52945
3.4189
3.30939
3.20099
3.09377
2.9878
2.88315
2.77989
2.67808
2.57779
2.47909
2.38201
2.28664
2.19302
2.1012
2.01124
1.92318
1.83709
1.753
1.67099
1.5911
1.5134
1.43797
1.36489
1.29427
1.22623
1.16095
1.09862
1.03952
0.984009
0.932578
0.885927
0.845079
0.81162
0.788197
0.779684
0.796426
0.865785
1.09567
2.40023
3.78574
1.86515
1.54993
1.47631
1.48255
1.52678
1.59306
1.67383
1.76499
1.86409
1.96957
2.08036
2.19572
2.3151
2.43809
2.56436
2.69366
2.82574
2.96043
3.09753
3.23688
3.37832
3.5217
3.66685
3.81363
3.96186
4.1114
4.26208
4.41372
4.56617
4.71924
4.87277
5.02656
5.18044
5.33423
5.48775
5.64081
5.79322
5.9448
6.09538
6.24478
6.39281
6.5393
6.68409
6.82701
6.9679
7.1066
7.24298
7.37687
7.50815
7.63669
7.76236
7.88505
8.00463
8.12102
8.23412
8.34383
8.45007
8.55277
8.65185
8.74727
8.83895
8.92685
9.01094
9.09117
9.16751
9.23994
9.30845
9.373
9.4336
9.49024
9.54292
9.59163
9.63638
9.67719
9.71406
9.74702
9.77608
9.80127
9.82263
9.84017
9.85393
9.86395
9.87026
9.87292
9.87195
9.8674
9.85933
9.84778
9.83279
9.81442
9.79272
9.76775
9.73956
9.7082
9.67374
9.63622
9.59571
9.55226
9.50594
9.45679
9.40489
9.35029
9.29305
9.23323
9.17089
9.10608
9.03887
8.96932
8.89749
8.82342
8.74719
8.66885
8.58845
8.50606
8.42172
8.3355
8.24745
8.15762
8.06607
7.97286
7.87803
7.78165
7.68376
7.58442
7.48368
7.3816
7.27822
7.17361
7.06782
6.9609
6.8529
6.74388
6.6339
6.52302
6.41129
6.29876
6.1855
6.07157
5.95703
5.84194
5.72637
5.61037
5.49401
5.37736
5.26049
5.14347
5.02636
4.90923
4.79216
4.67523
4.55849
4.44203
4.32593
4.21025
4.09508
3.98049
3.86656
3.75336
3.64096
3.52946
3.41891
3.3094
3.201
3.09378
2.98781
2.88316
2.7799
2.67809
2.5778
2.47909
2.38202
2.28665
2.19302
2.1012
2.01124
1.92319
1.83709
1.75301
1.67099
1.59111
1.51341
1.43797
1.36489
1.29427
1.22624
1.16095
1.09863
1.03953
0.984012
0.932581
0.885929
0.84508
0.811621
0.788198
0.779686
0.796428
0.865779
1.09571
2.40021
4.37194
2.13497
1.75657
1.65755
1.6504
1.68661
1.74774
1.82506
1.91384
2.01124
2.11545
2.22523
2.33969
2.45821
2.5803
2.70556
2.83371
2.96447
3.09764
3.23302
3.37044
3.50972
3.65073
3.7933
3.93729
4.08256
4.22896
4.37633
4.52454
4.67343
4.82283
4.97261
5.12259
5.27262
5.42252
5.57215
5.72132
5.86988
6.01764
6.16446
6.31016
6.45458
6.59755
6.73892
6.87852
7.01622
7.15185
7.28528
7.41636
7.54496
7.67096
7.79423
7.91465
8.03212
8.14653
8.25778
8.36578
8.47045
8.5717
8.66948
8.7637
8.85432
8.94127
9.02452
9.10402
9.17974
9.25164
9.31971
9.38393
9.44427
9.50074
9.55331
9.602
9.64681
9.68773
9.72479
9.75799
9.78736
9.8129
9.83465
9.85264
9.86689
9.87744
9.88432
9.88757
9.88723
9.88334
9.87595
9.86509
9.85083
9.83319
9.81225
9.78804
9.76062
9.73004
9.69636
9.65963
9.61991
9.57725
9.53172
9.48336
9.43224
9.37841
9.32194
9.26288
9.20129
9.13722
9.07075
9.00191
8.93078
8.85741
8.78185
8.70417
8.62442
8.54265
8.45893
8.37331
8.28584
8.19657
8.10557
8.01289
7.91858
7.8227
7.7253
7.62643
7.52614
7.4245
7.32156
7.21736
7.11197
7.00544
6.89782
6.78917
6.67955
6.56902
6.45763
6.34543
6.2325
6.1189
6.00467
5.88989
5.77462
5.65892
5.54287
5.42652
5.30994
5.19321
5.0764
4.95956
4.84279
4.72614
4.6097
4.49353
4.37772
4.26234
4.14745
4.03315
3.9195
3.80658
3.69447
3.58324
3.47296
3.3637
3.25555
3.14857
3.04282
2.93838
2.83532
2.73368
2.63355
2.53497
2.43801
2.34271
2.24915
2.15736
2.0674
1.97932
1.89318
1.80904
1.72694
1.64697
1.56919
1.4937
1.42058
1.34997
1.28202
1.21693
1.15492
1.09633
1.04156
0.991187
0.946014
0.907212
0.876607
0.857254
0.854804
0.881315
0.968761
1.24213
2.75972
4.37232
2.13489
1.75645
1.65742
1.65026
1.68647
1.74759
1.82492
1.9137
2.01111
2.11532
2.22509
2.33956
2.45808
2.58016
2.70543
2.83358
2.96435
3.09752
3.2329
3.37031
3.5096
3.65061
3.79318
3.93718
4.08245
4.22885
4.37623
4.52443
4.67332
4.82273
4.97251
5.12249
5.27252
5.42243
5.57206
5.72123
5.86979
6.01756
6.16438
6.31009
6.4545
6.59748
6.73885
6.87846
7.01616
7.15179
7.28522
7.41631
7.54491
7.67091
7.79419
7.91461
8.03208
8.14649
8.25774
8.36575
8.47042
8.57167
8.66945
8.76367
8.85429
8.94125
9.0245
9.104
9.17972
9.25163
9.3197
9.38392
9.44426
9.50073
9.5533
9.602
9.6468
9.68773
9.72479
9.75799
9.78735
9.8129
9.83465
9.85264
9.86689
9.87744
9.88433
9.88758
9.88724
9.88335
9.87595
9.8651
9.85083
9.8332
9.81225
9.78804
9.76062
9.73005
9.69637
9.65964
9.61992
9.57726
9.53172
9.48337
9.43225
9.37842
9.32195
9.26289
9.2013
9.13723
9.07076
9.00192
8.93079
8.85742
8.78186
8.70418
8.62443
8.54266
8.45894
8.37332
8.28585
8.19659
8.10559
8.01291
7.9186
7.82271
7.72531
7.62644
7.52616
7.42451
7.32157
7.21737
7.11198
7.00545
6.89783
6.78918
6.67956
6.56903
6.45764
6.34545
6.23252
6.11891
6.00468
5.8899
5.77463
5.65893
5.54288
5.42653
5.30995
5.19322
5.07641
4.95957
4.8428
4.72615
4.60971
4.49354
4.37773
4.26235
4.14746
4.03316
3.91951
3.80659
3.69448
3.58324
3.47296
3.36371
3.25556
3.14858
3.04283
2.93839
2.83532
2.73369
2.63356
2.53498
2.43801
2.34272
2.24915
2.15736
2.0674
1.97933
1.89319
1.80904
1.72695
1.64698
1.5692
1.4937
1.42059
1.34998
1.28203
1.21693
1.15493
1.09633
1.04156
0.99119
0.946016
0.907214
0.876609
0.857255
0.854806
0.88132
0.968768
1.24216
2.75972
4.98404
2.41839
1.97587
1.85178
1.8319
1.86086
1.91764
1.99231
2.0795
2.17597
2.27966
2.38915
2.50345
2.62181
2.74367
2.86861
2.99628
3.12638
3.25867
3.39296
3.52905
3.66679
3.80601
3.94658
4.08835
4.2312
4.37498
4.51957
4.66484
4.81064
4.95685
5.10333
5.24993
5.39652
5.54294
5.68906
5.83472
5.97977
6.12406
6.26744
6.40975
6.55085
6.69057
6.82879
6.96533
7.10007
7.23286
7.36355
7.49203
7.61814
7.74178
7.86282
7.98114
8.09664
8.20921
8.31874
8.42516
8.52837
8.62829
8.72485
8.81798
8.90761
8.99369
9.07617
9.15501
9.23016
9.30159
9.36928
9.43319
9.49332
9.54964
9.60214
9.65083
9.6957
9.73675
9.77399
9.80743
9.83708
9.86297
9.8851
9.90351
9.91821
9.92925
9.93665
9.94045
9.94068
9.93738
9.9306
9.92037