/*--------------------------------*- C++ -*----------------------------------*\
  =========                 |
  \\      /  F ield         | OpenFOAM: The Open Source CFD Toolbox
   \\    /   O peration     | Website:  https://openfoam.org
    \\  /    A nd           | Version:  8
     \\/     M anipulation  |
\*---------------------------------------------------------------------------*/
FoamFile
{
    version     2.0;
    format      ascii;
    class       volScalarField;
    location    "1100";
    object      nut;
}
// * * * * * * * * * * * * * * * * * * * * * * * * * * * * * * * * * * * * * //

dimensions      [0 2 -1 0 0 0 0];

internalField   nonuniform List<scalar> 
48000
(
0.000153037
3.91496e-05
4.81926e-05
5.61189e-05
6.19227e-05
6.67343e-05
7.09429e-05
7.4768e-05
7.8252e-05
8.14869e-05
8.45204e-05
8.73878e-05
9.01154e-05
9.27232e-05
9.52267e-05
9.76377e-05
9.99657e-05
0.000102218
0.000104401
0.00010652
0.000108578
0.000110578
0.000112524
0.000114418
0.000116261
0.000118056
0.000119803
0.000121504
0.00012316
0.000124772
0.000126341
0.000127868
0.000129354
0.000130798
0.000132203
0.000133568
0.000134894
0.000136182
0.000137433
0.000138646
0.000139823
0.000140964
0.00014207
0.00014314
0.000144177
0.000145179
0.000146149
0.000147085
0.000147989
0.000148861
0.000149701
0.000150511
0.00015129
0.000152038
0.000152758
0.000153447
0.000154109
0.000154741
0.000155346
0.000155923
0.000156472
0.000156995
0.000157491
0.00015796
0.000158404
0.000158825
0.000159221
0.000159592
0.000159939
0.000160263
0.000160562
0.000160839
0.000161092
0.000161323
0.000161532
0.000161718
0.000161883
0.000162026
0.000162148
0.000162249
0.00016233
0.00016239
0.00016243
0.000162451
0.000162452
0.000162433
0.000162396
0.00016234
0.000162265
0.000162172
0.000162061
0.000161932
0.000161786
0.000161622
0.000161441
0.000161243
0.000161028
0.000160796
0.000160548
0.000160284
0.000160004
0.000159707
0.000159395
0.000159067
0.000158724
0.000158365
0.000157991
0.000157602
0.000157198
0.000156779
0.000156345
0.000155896
0.000155432
0.000154954
0.000154461
0.000153953
0.000153431
0.000152895
0.000152343
0.000151777
0.000151197
0.000150602
0.000149992
0.000149367
0.000148728
0.000148074
0.000147405
0.000146721
0.000146022
0.000145308
0.000144579
0.000143835
0.000143075
0.000142299
0.000141508
0.000140701
0.000139878
0.00013904
0.000138185
0.000137313
0.000136426
0.000135521
0.0001346
0.000133662
0.000132707
0.000131735
0.000130746
0.000129739
0.000128714
0.000127672
0.000126611
0.000125533
0.000124436
0.00012332
0.000122186
0.000121033
0.000119862
0.000118671
0.00011746
0.00011623
0.00011498
0.000113711
0.000112421
0.000111111
0.00010978
0.000108428
0.000107055
0.00010566
0.000104244
0.000102806
0.000101344
9.98604e-05
9.83528e-05
9.6821e-05
9.52644e-05
9.36822e-05
9.20734e-05
9.0437e-05
8.87716e-05
8.70758e-05
8.53476e-05
8.3585e-05
8.17851e-05
7.9945e-05
7.80615e-05
7.61327e-05
7.41593e-05
7.21483e-05
7.00618e-05
6.78805e-05
6.55847e-05
6.31425e-05
6.05068e-05
5.75857e-05
5.41366e-05
4.84739e-05
3.40446e-05
3.17165e-05
0.00018373
0.000138361
0.000152921
3.91237e-05
4.8215e-05
5.61216e-05
6.19235e-05
6.67355e-05
7.09442e-05
7.47692e-05
7.82531e-05
8.1488e-05
8.45214e-05
8.73887e-05
9.01162e-05
9.2724e-05
9.52273e-05
9.76383e-05
9.99662e-05
0.000102219
0.000104402
0.00010652
0.000108578
0.000110579
0.000112525
0.000114418
0.000116262
0.000118056
0.000119803
0.000121504
0.00012316
0.000124773
0.000126342
0.000127868
0.000129354
0.000130798
0.000132203
0.000133568
0.000134894
0.000136182
0.000137433
0.000138646
0.000139823
0.000140964
0.00014207
0.00014314
0.000144177
0.000145179
0.000146149
0.000147085
0.000147989
0.000148861
0.000149701
0.000150511
0.00015129
0.000152038
0.000152758
0.000153447
0.000154108
0.000154741
0.000155346
0.000155922
0.000156472
0.000156995
0.00015749
0.00015796
0.000158404
0.000158825
0.00015922
0.000159592
0.000159939
0.000160263
0.000160562
0.000160839
0.000161092
0.000161323
0.000161531
0.000161718
0.000161882
0.000162026
0.000162148
0.000162249
0.00016233
0.00016239
0.00016243
0.000162451
0.000162451
0.000162433
0.000162396
0.00016234
0.000162265
0.000162172
0.000162061
0.000161932
0.000161786
0.000161622
0.000161441
0.000161242
0.000161028
0.000160796
0.000160548
0.000160284
0.000160003
0.000159707
0.000159395
0.000159067
0.000158724
0.000158365
0.000157991
0.000157602
0.000157198
0.000156779
0.000156345
0.000155896
0.000155432
0.000154954
0.000154461
0.000153953
0.000153431
0.000152894
0.000152343
0.000151777
0.000151196
0.000150601
0.000149992
0.000149367
0.000148728
0.000148074
0.000147405
0.000146721
0.000146022
0.000145308
0.000144579
0.000143835
0.000143075
0.000142299
0.000141508
0.000140701
0.000139878
0.000139039
0.000138184
0.000137313
0.000136426
0.000135521
0.0001346
0.000133662
0.000132707
0.000131735
0.000130746
0.000129739
0.000128714
0.000127672
0.000126611
0.000125532
0.000124436
0.00012332
0.000122186
0.000121033
0.000119861
0.00011867
0.00011746
0.00011623
0.00011498
0.000113711
0.000112421
0.00011111
0.000109779
0.000108428
0.000107055
0.00010566
0.000104244
0.000102805
0.000101344
9.98603e-05
9.83527e-05
9.68209e-05
9.52643e-05
9.36821e-05
9.20733e-05
9.04369e-05
8.87716e-05
8.70757e-05
8.53476e-05
8.35849e-05
8.17851e-05
7.9945e-05
7.80615e-05
7.61327e-05
7.41593e-05
7.21483e-05
7.00618e-05
6.78805e-05
6.55847e-05
6.31427e-05
6.05078e-05
5.75901e-05
5.41533e-05
4.85116e-05
3.40443e-05
3.16734e-05
0.000183677
0.000138389
0.000195631
0.00026378
0.000405947
0.000511507
0.000590523
0.000654513
0.000708937
0.000756551
0.000799297
0.000838251
0.000874185
0.000907651
0.00093906
0.00096872
0.000996869
0.0010237
0.00104935
0.00107395
0.0010976
0.00112037
0.00114233
0.00116354
0.00118405
0.0012039
0.00122312
0.00124175
0.00125981
0.00127732
0.00129431
0.0013108
0.0013268
0.00134233
0.00135741
0.00137204
0.00138625
0.00140003
0.00141341
0.00142639
0.00143899
0.0014512
0.00146304
0.00147453
0.00148565
0.00149643
0.00150686
0.00151696
0.00152673
0.00153617
0.0015453
0.00155411
0.00156262
0.00157082
0.00157872
0.00158633
0.00159364
0.00160067
0.00160742
0.00161389
0.00162008
0.001626
0.00163165
0.00163703
0.00164214
0.00164698
0.00165151
0.00165571
0.00165967
0.00166339
0.00166688
0.00167013
0.00167315
0.00167595
0.00167852
0.00168087
0.001683
0.00168491
0.00168661
0.00168809
0.00168937
0.00169043
0.0016913
0.00169196
0.00169242
0.00169268
0.00169274
0.00169261
0.00169229
0.00169178
0.00169108
0.0016902
0.00168913
0.00168788
0.00168645
0.00168485
0.00168307
0.00168111
0.00167899
0.00167669
0.00167422
0.00167159
0.00166879
0.00166583
0.0016627
0.00165942
0.00165597
0.00165236
0.0016486
0.00164467
0.00164059
0.00163636
0.00163197
0.00162743
0.00162273
0.00161788
0.00161287
0.00160772
0.00160241
0.00159694
0.00159133
0.00158556
0.00157963
0.00157356
0.00156733
0.00156094
0.0015544
0.00154771
0.00154085
0.00153384
0.00152667
0.00151935
0.00151186
0.00150421
0.0014964
0.00148842
0.00148028
0.00147198
0.00146351
0.00145487
0.00144606
0.00143708
0.00142793
0.0014186
0.0014091
0.00139943
0.00138957
0.00137954
0.00136933
0.00135894
0.00134836
0.0013376
0.00132665
0.00131551
0.00130419
0.00129267
0.00128096
0.00126905
0.00125695
0.00124465
0.00123215
0.00121945
0.00120654
0.00119342
0.0011801
0.00116656
0.00115281
0.00113884
0.00112465
0.00111023
0.00109559
0.00108071
0.00106559
0.00105022
0.00103461
0.00101873
0.00100258
0.000986157
0.000969437
0.000952409
0.000935055
0.000917352
0.000899273
0.000880786
0.000861849
0.000842406
0.000822381
0.000801664
0.00078009
0.000757473
0.000733764
0.000708794
0.000682262
0.000653662
0.000622137
0.000585843
0.000540149
0.000478
0.00038718
0.000315224
0.000274424
0.000163405
0.000195702
0.000263395
0.000405778
0.00051152
0.000590571
0.000654567
0.000708993
0.000756606
0.00079935
0.000838304
0.000874236
0.000907701
0.000939108
0.000968767
0.000996915
0.00102374
0.00104939
0.00107399
0.00109764
0.00112041
0.00114237
0.00116358
0.00118409
0.00120394
0.00122316
0.00124179
0.00125984
0.00127736
0.00129435
0.00131083
0.00132683
0.00134236
0.00135744
0.00137207
0.00138627
0.00140006
0.00141344
0.00142642
0.00143901
0.00145123
0.00146307
0.00147455
0.00148567
0.00149645
0.00150689
0.00151698
0.00152675
0.0015362
0.00154532
0.00155414
0.00156264
0.00157084
0.00157874
0.00158635
0.00159366
0.00160069
0.00160744
0.0016139
0.0016201
0.00162601
0.00163166
0.00163705
0.00164216
0.001647
0.00165153
0.00165573
0.00165969
0.00166341
0.00166689
0.00167015
0.00167317
0.00167596
0.00167854
0.00168088
0.00168301
0.00168492
0.00168662
0.00168811
0.00168938
0.00169045
0.00169131
0.00169197
0.00169243
0.00169269
0.00169275
0.00169262
0.0016923
0.00169179
0.00169109
0.00169021
0.00168914
0.00168789
0.00168647
0.00168486
0.00168308
0.00168113
0.001679
0.0016767
0.00167424
0.0016716
0.0016688
0.00166584
0.00166271
0.00165943
0.00165598
0.00165237
0.00164861
0.00164468
0.00164061
0.00163637
0.00163198
0.00162744
0.00162274
0.00161789
0.00161288
0.00160773
0.00160242
0.00159695
0.00159134
0.00158557
0.00157965
0.00157357
0.00156734
0.00156095
0.00155441
0.00154772
0.00154086
0.00153385
0.00152668
0.00151936
0.00151187
0.00150422
0.00149641
0.00148843
0.00148029
0.00147199
0.00146352
0.00145488
0.00144607
0.00143709
0.00142794
0.00141861
0.00140911
0.00139944
0.00138958
0.00137955
0.00136934
0.00135895
0.00134837
0.00133761
0.00132666
0.00131552
0.00130419
0.00129268
0.00128097
0.00126906
0.00125696
0.00124466
0.00123216
0.00121945
0.00120655
0.00119343
0.00118011
0.00116657
0.00115282
0.00113885
0.00112466
0.00111024
0.00109559
0.00108071
0.0010656
0.00105023
0.00103462
0.00101874
0.00100259
0.000986166
0.000969446
0.000952418
0.000935064
0.00091736
0.000899282
0.000880795
0.000861858
0.000842415
0.00082239
0.000801673
0.000780099
0.000757482
0.000733773
0.000708803
0.000682271
0.000653673
0.000622155
0.00058588
0.000540203
0.000477928
0.00038697
0.000314921
0.000274108
0.000163349
0.000305631
0.000450957
0.000707433
0.000929938
0.00111291
0.0012653
0.00139563
0.00150973
0.00161155
0.00170372
0.00178811
0.0018661
0.00193871
0.00200671
0.00207074
0.00213128
0.00218872
0.00224339
0.00229556
0.00234544
0.00239323
0.00243909
0.00248315
0.00252554
0.00256636
0.0026057
0.00264365
0.00268028
0.00271566
0.00274985
0.0027829
0.00281486
0.00284578
0.0028757
0.00290466
0.0029327
0.00295985
0.00298614
0.00301159
0.00303624
0.00306011
0.00308322
0.00310559
0.00312725
0.00314821
0.00316848
0.00318808
0.00320703
0.00322535
0.00324303
0.0032601
0.00327657
0.00329245
0.00330774
0.00332245
0.0033366
0.00335019
0.00336323
0.00337573
0.00338769
0.00339912
0.00341002
0.00342039
0.00343023
0.00343953
0.00344825
0.00345641
0.00346409
0.00347131
0.00347805
0.00348434
0.00349017
0.00349555
0.00350048
0.00350498
0.00350903
0.00351266
0.00351586
0.00351863
0.00352099
0.00352293
0.00352446
0.00352559
0.00352632
0.00352665
0.00352659
0.00352614
0.0035253
0.00352409
0.0035225
0.00352054
0.0035182
0.00351551
0.00351245
0.00350904
0.00350527
0.00350115
0.00349669
0.00349188
0.00348673
0.00348124
0.00347542
0.00346927
0.00346278
0.00345597
0.00344883
0.00344137
0.00343359
0.00342549
0.00341707
0.00340833
0.00339928
0.00338991
0.00338022
0.00337022
0.00335991
0.00334929
0.00333835
0.00332709
0.00331552
0.00330364
0.00329144
0.00327892
0.00326609
0.00325294
0.00323946
0.00322566
0.00321154
0.0031971
0.00318233
0.00316722
0.00315179
0.00313602
0.00311991
0.00310347
0.00308669
0.00306956
0.00305208
0.00303426
0.00301609
0.00299755
0.00297867
0.00295942
0.0029398
0.00291982
0.00289947
0.00287874
0.00285764
0.00283615
0.00281428
0.00279201
0.00276936
0.0027463
0.00272284
0.00269898
0.0026747
0.00265
0.00262488
0.00259933
0.00257334
0.00254691
0.00252003
0.00249269
0.00246487
0.00243658
0.0024078
0.00237851
0.00234871
0.00231838
0.0022875
0.00225605
0.00222401
0.00219136
0.00215806
0.00212409
0.0020894
0.00205395
0.00201769
0.00198056
0.00194248
0.00190336
0.00186311
0.00182158
0.00177862
0.001734
0.00168745
0.00163862
0.0015871
0.00153244
0.00147393
0.00141059
0.00134094
0.00126282
0.00117273
0.00106496
0.00093239
0.0007706
0.000589389
0.000394869
0.000216713
0.000305613
0.000450741
0.000708158
0.000930319
0.00111309
0.00126544
0.00139576
0.00150986
0.00161167
0.00170383
0.00178823
0.00186621
0.00193881
0.00200682
0.00207084
0.00213137
0.00218881
0.00224348
0.00229564
0.00234552
0.00239331
0.00243916
0.00248322
0.00252561
0.00256643
0.00260577
0.00264371
0.00268034
0.00271572
0.0027499
0.00278295
0.00281491
0.00284582
0.00287574
0.0029047
0.00293274
0.00295989
0.00298617
0.00301162
0.00303627
0.00306014
0.00308325
0.00310562
0.00312727
0.00314823
0.0031685
0.0031881
0.00320705
0.00322537
0.00324305
0.00326012
0.00327659
0.00329246
0.00330775
0.00332246
0.00333661
0.0033502
0.00336324
0.00337574
0.0033877
0.00339913
0.00341003
0.0034204
0.00343024
0.00343953
0.00344825
0.00345641
0.0034641
0.00347131
0.00347805
0.00348434
0.00349017
0.00349555
0.00350048
0.00350498
0.00350903
0.00351266
0.00351586
0.00351863
0.00352099
0.00352293
0.00352446
0.00352559
0.00352632
0.00352665
0.00352659
0.00352613
0.0035253
0.00352409
0.00352249
0.00352053
0.0035182
0.0035155
0.00351245
0.00350903
0.00350527
0.00350115
0.00349668
0.00349187
0.00348672
0.00348124
0.00347541
0.00346926
0.00346278
0.00345596
0.00344883
0.00344137
0.00343358
0.00342548
0.00341706
0.00340832
0.00339927
0.0033899
0.00338021
0.00337022
0.0033599
0.00334928
0.00333834
0.00332708
0.00331551
0.00330363
0.00329143
0.00327891
0.00326608
0.00325293
0.00323945
0.00322566
0.00321153
0.00319709
0.00318232
0.00316721
0.00315178
0.00313601
0.0031199
0.00310346
0.00308668
0.00306955
0.00305207
0.00303425
0.00301608
0.00299754
0.00297866
0.00295941
0.00293979
0.00291981
0.00289946
0.00287873
0.00285762
0.00283614
0.00281426
0.002792
0.00276935
0.00274629
0.00272283
0.00269897
0.00267469
0.00264999
0.00262487
0.00259932
0.00257333
0.0025469
0.00252002
0.00249267
0.00246486
0.00243657
0.00240779
0.0023785
0.0023487
0.00231837
0.00228749
0.00225604
0.002224
0.00219135
0.00215805
0.00212408
0.00208939
0.00205394
0.00201768
0.00198055
0.00194247
0.00190336
0.0018631
0.00182158
0.00177861
0.00173399
0.00168744
0.00163862
0.0015871
0.00153243
0.00147393
0.00141059
0.00134094
0.00126283
0.00117274
0.00106497
0.00093222
0.000770145
0.000588622
0.000394365
0.000216846
5.02737e-05
0.000474188
0.000893913
0.00123443
0.0015157
0.00175349
0.00195903
0.00214009
0.00230207
0.0024488
0.00258306
0.00270694
0.00282202
0.00292954
0.00303047
0.00312562
0.00321561
0.00330099
0.00338218
0.00345955
0.00353344
0.0036041
0.00367177
0.00373666
0.00379896
0.00385881
0.00391638
0.00397178
0.00402513
0.00407655
0.00412614
0.00417397
0.00422014
0.00426472
0.00430778
0.00434938
0.00438959
0.00442846
0.00446604
0.00450238
0.00453752
0.00457151
0.00460438
0.00463616
0.0046669
0.00469661
0.00472532
0.00475306
0.00477986
0.00480573
0.0048307
0.00485478
0.00487799
0.00490035
0.00492188
0.00494257
0.00496246
0.00498154
0.00499984
0.00501736
0.00503411
0.00505009
0.00506532
0.00507979
0.00509349
0.00510642
0.00511858
0.00512999
0.00514071
0.00515076
0.00516014
0.00516885
0.00517691
0.00518432
0.00519109
0.00519722
0.00520273
0.00520761
0.00521188
0.00521554
0.0052186
0.00522106
0.00522293
0.00522422
0.00522493
0.00522507
0.00522464
0.00522365
0.00522211
0.00522002
0.00521739
0.00521423
0.00521053
0.0052063
0.00520156
0.0051963
0.00519053
0.00518425
0.00517747
0.0051702
0.00516243
0.00515418
0.00514544
0.00513621
0.00512651
0.00511634
0.0051057
0.00509458
0.005083
0.00507095
0.00505844
0.00504547
0.00503204
0.00501815
0.00500379
0.00498899
0.00497372
0.00495799
0.00494181
0.00492516
0.00490806
0.00489049
0.00487246
0.00485396
0.004835
0.00481557
0.00479567
0.00477529
0.00475444
0.00473311
0.00471129
0.00468899
0.0046662
0.00464292
0.00461914
0.00459486
0.00457007
0.00454478
0.00451897
0.00449264
0.0044658
0.00443842
0.00441051
0.00438206
0.00435307
0.00432353
0.00429344
0.00426278
0.00423155
0.00419975
0.00416737
0.0041344
0.00410082
0.00406664
0.00403185
0.00399643
0.00396037
0.00392367
0.00388631
0.00384827
0.00380955
0.00377012
0.00372998
0.0036891
0.00364746
0.00360505
0.00356182
0.00351777
0.00347285
0.00342703
0.00338027
0.00333253
0.00328376
0.0032339
0.00318288
0.00313064
0.00307707
0.00302209
0.00296556
0.00290736
0.00284731
0.00278521
0.00272081
0.00265382
0.00258385
0.00251043
0.00243298
0.00235077
0.00226288
0.00216807
0.00206465
0.00195031
0.00182179
0.00167449
0.00150204
0.00129612
0.00104871
0.000756543
0.000434924
0.000254116
5.02767e-05
0.000474559
0.000894431
0.00123475
0.00151591
0.00175367
0.00195921
0.00214027
0.00230225
0.00244898
0.00258323
0.0027071
0.00282217
0.00292969
0.00303062
0.00312576
0.00321575
0.00330112
0.0033823
0.00345967
0.00353355
0.00360421
0.00367188
0.00373676
0.00379905
0.0038589
0.00391646
0.00397186
0.00402521
0.00407663
0.00412621
0.00417403
0.0042202
0.00426477
0.00430783
0.00434943
0.00438964
0.0044285
0.00446608
0.00450242
0.00453756
0.00457154
0.00460441
0.00463619
0.00466692
0.00469663
0.00472534
0.00475308
0.00477988
0.00480575
0.00483071
0.00485479
0.004878
0.00490036
0.00492188
0.00494258
0.00496246
0.00498155
0.00499984
0.00501736
0.00503411
0.00505009
0.00506532
0.00507978
0.00509348
0.00510641
0.00511857
0.00512998
0.0051407
0.00515075
0.00516013
0.00516884
0.0051769
0.00518431
0.00519107
0.00519721
0.00520271
0.0052076
0.00521187
0.00521552
0.00521858
0.00522104
0.00522291
0.0052242
0.00522491
0.00522505
0.00522462
0.00522363
0.00522209
0.00522
0.00521737
0.00521421
0.00521051
0.00520628
0.00520154
0.00519628
0.00519051
0.00518423
0.00517745
0.00517018
0.00516241
0.00515415
0.00514541
0.00513619
0.00512649
0.00511632
0.00510567
0.00509456
0.00508297
0.00507093
0.00505842
0.00504544
0.00503201
0.00501812
0.00500377
0.00498896
0.00497369
0.00495797
0.00494178
0.00492514
0.00490803
0.00489046
0.00487243
0.00485394
0.00483497
0.00481554
0.00479564
0.00477526
0.00475441
0.00473308
0.00471126
0.00468896
0.00466617
0.00464289
0.00461911
0.00459483
0.00457004
0.00454475
0.00451894
0.00449262
0.00446577
0.00443839
0.00441048
0.00438204
0.00435305
0.00432351
0.00429341
0.00426275
0.00423153
0.00419972
0.00416734
0.00413437
0.00410079
0.00406662
0.00403182
0.0039964
0.00396034
0.00392364
0.00388628
0.00384824
0.00380952
0.0037701
0.00372995
0.00368907
0.00364744
0.00360502
0.0035618
0.00351774
0.00347282
0.003427
0.00338024
0.00333251
0.00328373
0.00323387
0.00318286
0.00313061
0.00307705
0.00302206
0.00296554
0.00290734
0.00284729
0.00278519
0.00272079
0.0026538
0.00258383
0.00251041
0.00243296
0.00235075
0.00226286
0.00216805
0.00206464
0.0019503
0.00182178
0.00167447
0.00150201
0.00129597
0.0010484
0.000756077
0.000435829
0.000253986
5.32325e-05
0.000525476
0.00103572
0.00146664
0.00183058
0.00214318
0.00241635
0.00265875
0.00287661
0.00307455
0.003256
0.00342357
0.0035793
0.0037248
0.00386134
0.00398996
0.00411152
0.00422672
0.00433615
0.00444031
0.00453963
0.00463449
0.0047252
0.00481205
0.00489529
0.00497515
0.00505182
0.0051255
0.00519635
0.00526451
0.00533013
0.00539334
0.00545426
0.00551299
0.00556963
0.00562428
0.00567703
0.00572795
0.00577713
0.00582462
0.0058705
0.00591482
0.00595764
0.00599901
0.00603897
0.00607757
0.00611486
0.00615086
0.00618561
0.00621914
0.00625149
0.00628267
0.00631272
0.00634166
0.0063695
0.00639628
0.006422
0.00644669
0.00647035
0.00649301
0.00651468
0.00653537
0.00655508
0.00657382
0.0065916
0.00660841
0.00662427
0.00663917
0.00665316
0.00666628
0.00667853
0.00668993
0.00670049
0.00671022
0.00671912
0.0067272
0.00673448
0.00674096
0.00674665
0.00675156
0.0067557
0.00675907
0.00676169
0.00676356
0.00676468
0.00676508
0.00676475
0.0067637
0.00676195
0.00675949
0.00675634
0.0067525
0.00674798
0.00674279
0.00673693
0.00673041
0.00672324
0.00671543
0.00670697
0.00669787
0.00668815
0.0066778
0.00666684
0.00665525
0.00664306
0.00663026
0.00661686
0.00660285
0.00658825
0.00657306
0.00655727
0.00654089
0.00652393
0.00650638
0.00648824
0.00646951
0.0064502
0.00643031
0.00640982
0.00638875
0.00636709
0.00634484
0.006322
0.00629856
0.00627452
0.00624989
0.00622465
0.0061988
0.00617235
0.00614528
0.00611759
0.00608928
0.00606034
0.00603077
0.00600056
0.00596971
0.0059382
0.00590605
0.00587323
0.00583975
0.00580559
0.00577075
0.00573522
0.00569899
0.00566206
0.00562441
0.00558605
0.00554695
0.00550711
0.00546652
0.00542516
0.00538303
0.00534012
0.0052964
0.00525187
0.00520651
0.0051603
0.00511323
0.00506527
0.00501641
0.00496663
0.0049159
0.00486418
0.00481147
0.00475771
0.00470287
0.00464693
0.00458982
0.0045315
0.00447192
0.00441102
0.00434872
0.00428495
0.00421962
0.00415262
0.00408384
0.00401314
0.00394038
0.00386536
0.00378787
0.00370766
0.00362442
0.00353779
0.00344732
0.00335247
0.00325256
0.00314676
0.00303401
0.002913
0.00278201
0.00263876
0.00248028
0.00230258
0.0021004
0.00186674
0.00159215
0.00126318
0.00085794
0.000371722
4.5693e-05
5.32343e-05
0.000525613
0.00103595
0.00146686
0.00183078
0.00214339
0.00241657
0.00265897
0.00287683
0.00307477
0.00325621
0.00342377
0.0035795
0.00372499
0.00386153
0.00399015
0.0041117
0.00422689
0.00433631
0.00444046
0.00453978
0.00463463
0.00472533
0.00481218
0.00489541
0.00497527
0.00505194
0.00512561
0.00519645
0.00526461
0.00533022
0.00539343
0.00545434
0.00551306
0.0055697
0.00562435
0.00567709
0.00572801
0.00577718
0.00582467
0.00587055
0.00591486
0.00595768
0.00599904
0.006039
0.0060776
0.00611488
0.00615088
0.00618563
0.00621916
0.0062515
0.00628269
0.00631273
0.00634167
0.00636951
0.00639628
0.006422
0.00644669
0.00647035
0.00649301
0.00651468
0.00653536
0.00655507
0.00657381
0.00659159
0.0066084
0.00662426
0.00663916
0.00665315
0.00666626
0.00667852
0.00668992
0.00670048
0.0067102
0.0067191
0.00672719
0.00673446
0.00674094
0.00674663
0.00675154
0.00675568
0.00675905
0.00676167
0.00676353
0.00676466
0.00676505
0.00676472
0.00676368
0.00676192
0.00675946
0.00675631
0.00675247
0.00674795
0.00674276
0.0067369
0.00673039
0.00672322
0.0067154
0.00670694
0.00669785
0.00668812
0.00667777
0.00666681
0.00665522
0.00664303
0.00663023
0.00661683
0.00660282
0.00658822
0.00657303
0.00655724
0.00654086
0.0065239
0.00650635
0.00648821
0.00646948
0.00645017
0.00643027
0.00640979
0.00638872
0.00636706
0.00634481
0.00632196
0.00629852
0.00627449
0.00624985
0.00622461
0.00619877
0.00617231
0.00614524
0.00611755
0.00608924
0.0060603
0.00603073
0.00600052
0.00596967
0.00593817
0.00590601
0.0058732
0.00583971
0.00580555
0.00577071
0.00573518
0.00569895
0.00566202
0.00562438
0.00558601
0.00554691
0.00550707
0.00546648
0.00542512
0.005383
0.00534008
0.00529636
0.00525183
0.00520647
0.00516026
0.00511319
0.00506524
0.00501638
0.00496659
0.00491586
0.00486415
0.00481143
0.00475767
0.00470284
0.00464689
0.00458978
0.00453147
0.00447189
0.00441099
0.00434869
0.00428492
0.00421958
0.00415258
0.00408381
0.00401311
0.00394034
0.00386532
0.00378784
0.00370763
0.00362439
0.00353776
0.00344729
0.00335244
0.00325253
0.00314673
0.00303399
0.00291298
0.00278199
0.00263874
0.00248026
0.00230257
0.00210039
0.00186675
0.00159226
0.00126378
0.000859496
0.000371794
4.56881e-05
5.71243e-05
0.000571221
0.00114937
0.00165201
0.00208461
0.00246113
0.00279326
0.00308995
0.00335792
0.00360224
0.0038268
0.00403459
0.00422799
0.00440887
0.00457876
0.00473888
0.00489026
0.00503374
0.00517005
0.00529978
0.00542346
0.00554154
0.00565442
0.00576244
0.00586592
0.00596512
0.00606031
0.00615171
0.00623953
0.00632395
0.00640515
0.0064833
0.00655854
0.00663101
0.00670084
0.00676815
0.00683305
0.00689564
0.00695603
0.0070143
0.00707054
0.00712482
0.00717722
0.00722779
0.00727662
0.00732374
0.00736922
0.0074131
0.00745544
0.00749626
0.00753562
0.00757355
0.00761008
0.00764524
0.00767906
0.00771157
0.00774279
0.00777275
0.00780146
0.00782895
0.00785523
0.00788032
0.00790424
0.00792698
0.00794857
0.00796902
0.00798832
0.0080065
0.00802356
0.00803955
0.0080545
0.00806842
0.00808132
0.00809322
0.00810412
0.00811404
0.00812299
0.00813098
0.00813801
0.00814411
0.00814928
0.00815353
0.00815688
0.00815932
0.00816087
0.00816155
0.00816136
0.00816031
0.00815841
0.00815567
0.00815209
0.0081477
0.00814249
0.00813648
0.00812966
0.00812206
0.00811368
0.00810453
0.00809461
0.00808393
0.0080725
0.00806032
0.0080474
0.00803375
0.00801937
0.00800426
0.00798844
0.0079719
0.00795464
0.00793668
0.00791801
0.00789864
0.00787857
0.00785779
0.00783632
0.00781414
0.00779127
0.0077677
0.00774343
0.00771846
0.00769278
0.0076664
0.00763932
0.00761152
0.00758302
0.00755379
0.00752385
0.00749318
0.00746178
0.00742965
0.00739678
0.00736316
0.00732879
0.00729367
0.00725778
0.00722112
0.00718368
0.00714545
0.00710643
0.0070666
0.00702597
0.00698451
0.00694222
0.00689909
0.0068551
0.00681025
0.00676452
0.00671791
0.00667039
0.00662195
0.00657258
0.00652227
0.00647098
0.00641871
0.00636544
0.00631114
0.00625579
0.00619937
0.00614185
0.0060832
0.00602339
0.00596239
0.00590015
0.00583664
0.0057718
0.0057056
0.00563797
0.00556886
0.00549819
0.0054259
0.00535188
0.00527605
0.00519831
0.00511852
0.00503655
0.00495225
0.00486542
0.00477586
0.00468332
0.00458751
0.0044881
0.00438468
0.00427677
0.00416378
0.00404501
0.00391959
0.00378644
0.00364425
0.00349133
0.00332558
0.00314428
0.00294398
0.00272023
0.00246738
0.00217837
0.00184468
0.00145668
0.00100456
0.000484668
5.02305e-05
5.71257e-05
0.000571286
0.00114951
0.00165218
0.00208482
0.00246135
0.0027935
0.0030902
0.00335817
0.00360249
0.00382704
0.00403483
0.00422822
0.0044091
0.00457898
0.0047391
0.00489047
0.00503394
0.00517024
0.00529997
0.00542364
0.00554171
0.00565458
0.0057626
0.00586607
0.00596527
0.00606045
0.00615184
0.00623965
0.00632407
0.00640526
0.0064834
0.00655864
0.0066311
0.00670092
0.00676823
0.00683313
0.00689572
0.0069561
0.00701437
0.0070706
0.00712488
0.00717727
0.00722784
0.00727666
0.00732378
0.00736926
0.00741314
0.00745547
0.00749629
0.00753565
0.00757357
0.00761009
0.00764525
0.00767907
0.00771158
0.0077428
0.00777275
0.00780146
0.00782895
0.00785523
0.00788032
0.00790423
0.00792698
0.00794857
0.00796901
0.00798831
0.00800649
0.00802355
0.00803954
0.00805448
0.0080684
0.0080813
0.0080932
0.0081041
0.00811402
0.00812297
0.00813096
0.00813799
0.00814409
0.00814926
0.00815351
0.00815685
0.00815929
0.00816085
0.00816153
0.00816133
0.00816028
0.00815838
0.00815564
0.00815207
0.00814767
0.00814246
0.00813645
0.00812963
0.00812203
0.00811365
0.0081045
0.00809458
0.0080839
0.00807247
0.00806029
0.00804737
0.00803372
0.00801934
0.00800423
0.00798841
0.00797186
0.00795461
0.00793665
0.00791798
0.00789861
0.00787853
0.00785776
0.00783628
0.00781411
0.00779124
0.00776766
0.00774339
0.00771842
0.00769275
0.00766637
0.00763928
0.00761149
0.00758298
0.00755376
0.00752381
0.00749314
0.00746174
0.00742961
0.00739674
0.00736312
0.00732875
0.00729363
0.00725774
0.00722108
0.00718364
0.00714541
0.00710639
0.00706656
0.00702593
0.00698447
0.00694218
0.00689905
0.00685506
0.00681021
0.00676448
0.00671787
0.00667035
0.00662191
0.00657254
0.00652223
0.00647094
0.00641867
0.0063654
0.0063111
0.00625575
0.00619933
0.00614181
0.00608316
0.00602335
0.00596235
0.00590011
0.0058366
0.00577176
0.00570556
0.00563794
0.00556882
0.00549816
0.00542586
0.00535184
0.00527602
0.00519827
0.00511849
0.00503652
0.00495221
0.00486538
0.00477582
0.00468328
0.00458748
0.00448807
0.00438465
0.00427673
0.00416375
0.00404498
0.00391956
0.00378642
0.00364422
0.00349131
0.00332556
0.00314426
0.00294396
0.00272022
0.00246737
0.00217835
0.00184461
0.00145658
0.00100453
0.000484141
5.02676e-05
6.07623e-05
0.00061089
0.00124436
0.00180591
0.00229602
0.00272697
0.00311004
0.0034542
0.00376642
0.00405208
0.00431535
0.00455952
0.00478721
0.00500049
0.00520107
0.00539034
0.00556943
0.00573933
0.00590083
0.00605463
0.00620132
0.00634141
0.00647537
0.00660358
0.00672641
0.00684417
0.00695715
0.00706561
0.00716979
0.00726992
0.0073662
0.00745882
0.00754794
0.00763375
0.00771638
0.00779598
0.00787269
0.00794663
0.00801791
0.00808665
0.00815294
0.00821688
0.00827856
0.00833805
0.00839545
0.00845081
0.0085042
0.00855569
0.00860533
0.00865318
0.00869927
0.00874367
0.00878641
0.00882753
0.00886707
0.00890506
0.00894153
0.00897651
0.00901003
0.00904211
0.00907278
0.00910206
0.00912996
0.0091565
0.00918171
0.00920558
0.00922814
0.00924941
0.00926939
0.0092881
0.0093056
0.0093219
0.00933702
0.00935098
0.00936378
0.00937544
0.00938597
0.0093954
0.00940372
0.00941096
0.00941712
0.00942222
0.00942628
0.00942929
0.00943129
0.00943226
0.00943224
0.00943123
0.00942924
0.00942628
0.00942237
0.00941751
0.00941171
0.00940499
0.00939735
0.00938881
0.00937937
0.00936905
0.00935784
0.00934576
0.00933283
0.00931903
0.00930439
0.00928891
0.00927259
0.00925544
0.00923746
0.00921867
0.00919906
0.00917865
0.00915742
0.00913539
0.00911255
0.00908891
0.00906448
0.00903924
0.0090132
0.00898637
0.00895873
0.0089303
0.00890106
0.00887101
0.00884015
0.00880849
0.008776
0.0087427
0.00870857
0.00867362
0.00863782
0.00860119
0.0085637
0.00852537
0.00848617
0.0084461
0.00840515
0.00836331
0.00832058
0.00827694
0.00823238
0.0081869
0.00814048
0.00809311
0.00804477
0.00799546
0.00794516
0.00789385
0.00784152
0.00778816
0.00773374
0.00767824
0.00762166
0.00756396
0.00750512
0.00744512
0.00738394
0.00732154
0.0072579
0.00719298
0.00712675
0.00705918
0.00699021
0.00691981
0.00684793
0.00677451
0.00669949
0.00662282
0.00654441
0.00646419
0.00638208
0.00629798
0.00621177
0.00612334
0.00603254
0.00593924
0.00584324
0.00574435
0.00564235
0.00553696
0.00542788
0.00531476
0.00519718
0.00507463
0.00494652
0.00481215
0.00467065
0.00452099
0.00436188
0.00419175
0.00400865
0.00381015
0.00359319
0.00335396
0.00308771
0.00278854
0.00244927
0.0020615
0.00161615
0.0011057
0.000535043
5.23112e-05
6.07639e-05
0.000610942
0.00124448
0.00180608
0.00229623
0.00272721
0.0031103
0.00345447
0.00376669
0.00405235
0.00431562
0.00455979
0.00478747
0.00500075
0.00520132
0.00539058
0.00556967
0.00573956
0.00590105
0.00605484
0.00620152
0.00634161
0.00647556
0.00660377
0.00672658
0.00684434
0.00695731
0.00706576
0.00716994
0.00727006
0.00736633
0.00745894
0.00754806
0.00763386
0.00771649
0.00779608
0.00787279
0.00794672
0.00801799
0.00808673
0.00815301
0.00821695
0.00827862