/*--------------------------------*- C++ -*----------------------------------*\
  =========                 |
  \\      /  F ield         | OpenFOAM: The Open Source CFD Toolbox
   \\    /   O peration     | Website:  https://openfoam.org
    \\  /    A nd           | Version:  8
     \\/     M anipulation  |
\*---------------------------------------------------------------------------*/
FoamFile
{
    version     2.0;
    format      ascii;
    class       surfaceScalarField;
    location    "1100";
    object      phi;
}
// * * * * * * * * * * * * * * * * * * * * * * * * * * * * * * * * * * * * * //

dimensions      [1 0 -1 0 0 0 0];

internalField   nonuniform List<scalar> 
119360
(
-9.57552e-08
-3.47765e-11
9.57885e-08
-1.68542e-07
-1.79526e-11
7.29405e-08
-1.96691e-07
-2.51822e-11
2.82537e-08
-1.78554e-07
-2.5161e-11
-1.80046e-08
-1.29086e-07
-2.05896e-11
-4.93393e-08
-5.93983e-08
-1.80355e-11
-6.95731e-08
2.31218e-08
-1.61904e-11
-8.24143e-08
1.13374e-07
-1.45641e-11
-9.01547e-08
2.07958e-07
-1.33357e-11
-9.44979e-08
3.0476e-07
-1.24257e-11
-9.67248e-08
4.02368e-07
-1.16812e-11
-9.75386e-08
4.99839e-07
-1.11714e-11
-9.7406e-08
5.96526e-07
-1.07907e-11
-9.66257e-08
6.91979e-07
-1.03815e-11
-9.53933e-08
7.85876e-07
-9.87768e-12
-9.38385e-08
8.77982e-07
-9.23104e-12
-9.20485e-08
9.68123e-07
-8.39515e-12
-9.00822e-08
1.05616e-06
-7.42798e-12
-8.79805e-08
1.14199e-06
-6.48657e-12
-8.57723e-08
1.22552e-06
-5.69276e-12
-8.3479e-08
1.30668e-06
-5.05355e-12
-8.11165e-08
1.38543e-06
-4.52664e-12
-7.86976e-08
1.4617e-06
-4.11614e-12
-7.62327e-08
1.53547e-06
-3.86661e-12
-7.37314e-08
1.6067e-06
-3.78635e-12
-7.12022e-08
1.67538e-06
-3.80258e-12
-6.86529e-08
1.7415e-06
-3.80158e-12
-6.60909e-08
1.80506e-06
-3.70774e-12
-6.35232e-08
1.86604e-06
-3.52006e-12
-6.09568e-08
1.92447e-06
-3.28333e-12
-5.83986e-08
1.98035e-06
-3.03251e-12
-5.58555e-08
2.03371e-06
-2.7627e-12
-5.33338e-08
2.08458e-06
-2.44831e-12
-5.08395e-08
2.13298e-06
-2.08108e-12
-4.83782e-08
2.17896e-06
-1.6933e-12
-4.59552e-08
2.22256e-06
-1.34789e-12
-4.35755e-08
2.26382e-06
-1.1055e-12
-4.12436e-08
2.30281e-06
-9.90978e-13
-3.89636e-08
2.33956e-06
-9.86037e-13
-3.67388e-08
2.37415e-06
-1.04288e-12
-3.45719e-08
2.40663e-06
-1.11069e-12
-3.24652e-08
2.43706e-06
-1.1581e-12
-3.04202e-08
2.46551e-06
-1.17733e-12
-2.84382e-08
2.49205e-06
-1.17658e-12
-2.65201e-08
2.51673e-06
-1.16526e-12
-2.46662e-08
2.53962e-06
-1.14305e-12
-2.28768e-08
2.56079e-06
-1.10117e-12
-2.11516e-08
2.58029e-06
-1.02715e-12
-1.949e-08
2.5982e-06
-9.16818e-13
-1.78913e-08
2.61457e-06
-7.80344e-13
-1.63543e-08
2.62947e-06
-6.42039e-13
-1.48781e-08
2.64294e-06
-5.31599e-13
-1.34614e-08
2.65506e-06
-4.75617e-13
-1.21029e-08
2.66588e-06
-4.87191e-13
-1.08011e-08
2.67545e-06
-5.62881e-13
-9.55462e-09
2.68383e-06
-6.83645e-13
-8.36162e-09
2.69106e-06
-8.23145e-13
-7.22033e-09
2.69721e-06
-9.54679e-13
-6.12887e-09
2.70231e-06
-1.05848e-12
-5.08535e-09
2.70641e-06
-1.1266e-12
-4.08787e-09
2.70957e-06
-1.16179e-12
-3.13459e-09
2.71181e-06
-1.17448e-12
-2.22368e-09
2.71319e-06
-1.1782e-12
-1.35338e-09
2.71373e-06
-1.18433e-12
-5.21626e-10
2.71348e-06
-1.19835e-12
2.73495e-10
2.71247e-06
-1.21908e-12
1.03277e-09
2.71074e-06
-1.24017e-12
1.75714e-09
2.70832e-06
-1.25164e-12
2.44851e-09
2.70524e-06
-1.24262e-12
3.10866e-09
2.70153e-06
-1.20545e-12
3.73924e-09
2.69721e-06
-1.13628e-12
4.34178e-09
2.69233e-06
-1.03678e-12
4.91771e-09
2.68689e-06
-9.13796e-13
5.46836e-09
2.68093e-06
-7.76517e-13
5.99503e-09
2.67446e-06
-6.3649e-13
6.4989e-09
2.66751e-06
-5.04707e-13
6.98114e-09
2.66009e-06
-3.90715e-13
7.44282e-09
2.65223e-06
-3.01231e-13
7.88501e-09
2.64395e-06
-2.39475e-13
8.30872e-09
2.63526e-06
-2.06668e-13
8.71493e-09
2.62618e-06
-2.01117e-13
9.10459e-09
2.61673e-06
-2.19102e-13
9.4786e-09
2.60691e-06
-2.56656e-13
9.83785e-09
2.59675e-06
-3.08975e-13
1.01832e-08
2.58626e-06
-3.71369e-13
1.05154e-08
2.57544e-06
-4.39176e-13
1.08352e-08
2.56432e-06
-5.08177e-13
1.11434e-08
2.5529e-06
-5.74735e-13
1.14407e-08
2.54119e-06
-6.35131e-13
1.17276e-08
2.52921e-06
-6.86534e-13
1.20048e-08
2.51696e-06
-7.26141e-13
1.22728e-08
2.50444e-06
-7.51926e-13
1.25321e-08
2.49168e-06
-7.62862e-13
1.27833e-08
2.47868e-06
-7.59143e-13
1.30267e-08
2.46544e-06
-7.41573e-13
1.32629e-08
2.45197e-06
-7.12152e-13
1.34921e-08
2.43828e-06
-6.73433e-13
1.37149e-08
2.42437e-06
-6.28858e-13
1.39315e-08
2.41025e-06
-5.82312e-13
1.41423e-08
2.39593e-06
-5.37681e-13
1.43477e-08
2.3814e-06
-4.98018e-13
1.4548e-08
2.36668e-06
-4.66321e-13
1.47436e-08
2.35177e-06
-4.4495e-13
1.49348e-08
2.33667e-06
-4.35013e-13
1.5122e-08
2.32139e-06
-4.36706e-13
1.53055e-08
2.30593e-06
-4.49835e-13
1.54856e-08
2.29029e-06
-4.72761e-13
1.56628e-08
2.27447e-06
-5.03875e-13
1.58375e-08
2.25848e-06
-5.40512e-13
1.60099e-08
2.24232e-06
-5.8023e-13
1.61806e-08
2.226e-06
-6.20864e-13
1.63498e-08
2.2095e-06
-6.59556e-13
1.6518e-08
2.19284e-06
-6.93917e-13
1.66857e-08
2.17601e-06
-7.21978e-13
1.68532e-08
2.15901e-06
-7.41296e-13
1.70211e-08
2.14184e-06
-7.49872e-13
1.71899e-08
2.12451e-06
-7.46209e-13
1.736e-08
2.107e-06
-7.28834e-13
1.7532e-08
2.08932e-06
-6.97303e-13
1.77064e-08
2.07146e-06
-6.522e-13
1.78838e-08
2.05342e-06
-5.96162e-13
1.80647e-08
2.0352e-06
-5.32685e-13
1.82498e-08
2.01678e-06
-4.66571e-13
1.84395e-08
1.99817e-06
-4.04982e-13
1.86344e-08
1.97936e-06
-3.53828e-13
1.8835e-08
1.96034e-06
-3.19245e-13
1.90419e-08
1.94111e-06
-3.05811e-13
1.92556e-08
1.92166e-06
-3.15581e-13
1.94764e-08
1.90198e-06
-3.46362e-13
1.9705e-08
1.88205e-06
-3.93102e-13
1.99417e-08
1.86189e-06
-4.46448e-13
2.0187e-08
1.84147e-06
-4.9577e-13
2.04413e-08
1.82078e-06
-5.3002e-13
2.07053e-08
1.79982e-06
-5.40179e-13
2.09792e-08
1.77858e-06
-5.21944e-13
2.12636e-08
1.75704e-06
-4.76202e-13
2.1559e-08
1.7352e-06
-4.08978e-13
2.18657e-08
1.71304e-06
-3.31207e-13
2.21841e-08
1.69054e-06
-2.54935e-13
2.25145e-08
1.66771e-06
-1.90098e-13
2.28574e-08
1.64451e-06
-1.44135e-13
2.32129e-08
1.62095e-06
-1.16629e-13
2.35815e-08
1.597e-06
-1.02252e-13
2.39635e-08
1.57266e-06
-9.21763e-14
2.43594e-08
1.54791e-06
-7.76323e-14
2.47696e-08
1.52273e-06
-5.32907e-14
2.51945e-08
1.49711e-06
-1.91236e-14
2.56346e-08
1.47104e-06
1.91791e-14
2.60904e-08
1.44449e-06
5.35405e-14
2.65624e-08
1.41745e-06
7.67164e-14
2.7051e-08
1.38991e-06
8.74023e-14
2.75568e-08
1.36184e-06
8.98448e-14
2.80804e-08
1.33323e-06
9.28702e-14
2.86223e-08
1.30406e-06
1.01141e-13
2.91832e-08
1.2743e-06
1.13742e-13
2.97636e-08
1.24395e-06
1.19738e-13
3.03643e-08
1.21298e-06
1.05527e-13
3.09856e-08
1.18136e-06
6.25611e-14
3.16282e-08
1.14907e-06
-3.88578e-15
3.22925e-08
1.1161e-06
-7.11653e-14
3.2979e-08
1.08242e-06
-1.13742e-13
3.36882e-08
1.04801e-06
-1.13742e-13
3.44206e-08
1.01285e-06
-7.92144e-14
3.5176e-08
9.76905e-07
-4.13003e-14
3.59544e-08
9.4016e-07
-3.33622e-14
3.67552e-08
9.02593e-07
-6.57807e-14
3.75775e-08
8.64184e-07
-1.14075e-13
3.84201e-08
8.24914e-07
-1.34559e-13
3.92814e-08
7.84767e-07
-1.0264e-13
4.01591e-08
7.43729e-07
-3.95794e-14
4.10499e-08
7.01792e-07
-4.16333e-15
4.19495e-08
6.58952e-07
-3.71925e-14
4.28525e-08
6.15211e-07
-1.16906e-13
4.37524e-08
5.70583e-07
-1.70253e-13
4.46411e-08
5.25088e-07
-1.41664e-13
4.55088e-08
4.78758e-07
-5.88973e-14
4.63433e-08
4.31643e-07
-1.28786e-14
4.71294e-08
3.83808e-07
-5.28466e-14
4.7849e-08
3.35342e-07
-1.15963e-13
4.84805e-08
2.86359e-07
-9.43689e-14
4.89977e-08
2.37005e-07
2.24265e-14
4.93692e-08
1.87464e-07
1.15963e-13
4.95561e-08
1.37968e-07
9.76441e-14
4.95114e-08
8.88066e-08
3.90244e-14
4.91768e-08
4.03448e-08
5.7343e-14
4.84781e-08
-6.95908e-09
1.14631e-13
4.73205e-08
-5.24874e-08
1.07026e-13
4.55448e-08
-9.54958e-08
7.62724e-14
4.3025e-08
-1.35126e-07
7.68275e-14
3.96478e-08
-1.70331e-07
-2.59792e-14
3.52216e-08
-1.99801e-07
-9.62563e-14
2.94864e-08
-2.21904e-07
4.442e-13
2.21212e-08
-2.34654e-07
1.30973e-12
1.27708e-08
-2.35636e-07
1.25844e-12
1.00201e-09
-2.21922e-07
7.01772e-13
-1.36989e-08
-1.90513e-07
-9.29257e-14
-3.13912e-08
-1.4671e-07
-1.89293e-13
-4.37799e-08
-9.33776e-08
-9.59232e-14
-5.33083e-08
-3.9813e-08
-3.49221e-13
-5.35446e-08
-2.1585e-12
-3.97949e-08
-9.57342e-08
9.57714e-08
-1.68517e-07
7.29037e-08
-1.96654e-07
2.82234e-08
-1.78517e-07
-1.80319e-08
-1.29053e-07
-4.93641e-08
-5.93689e-08
-6.95946e-08
2.31473e-08
-8.2433e-08
1.13394e-07
-9.01719e-08
2.07975e-07
-9.45139e-08
3.04774e-07
-9.67395e-08
4.0238e-07
-9.75522e-08
4.99848e-07
-9.74187e-08
5.96534e-07
-9.66374e-08
6.91985e-07
-9.54039e-08
7.85882e-07
-9.3848e-08
8.77988e-07
-9.20569e-08
9.68128e-07
-9.00894e-08
1.05616e-06
-8.79868e-08
1.14199e-06
-8.5778e-08
1.22552e-06
-8.34842e-08
1.30669e-06
-8.11214e-08
1.38543e-06
-7.87021e-08
1.4617e-06
-7.62371e-08
1.53547e-06
-7.37356e-08
1.6067e-06
-7.12061e-08
1.67538e-06
-6.86565e-08
1.7415e-06
-6.60941e-08
1.80505e-06
-6.35258e-08
1.86604e-06
-6.0959e-08
1.92446e-06
-5.84005e-08
1.98035e-06
-5.58571e-08
2.03371e-06
-5.33351e-08
2.08457e-06
-5.08405e-08
2.13298e-06
-4.83789e-08
2.17896e-06
-4.59557e-08
2.22256e-06
-4.35759e-08
2.26382e-06
-4.1244e-08
2.3028e-06
-3.8964e-08
2.33956e-06
-3.67392e-08
2.37414e-06
-3.45723e-08
2.40662e-06
-3.24654e-08
2.43706e-06
-3.04202e-08
2.46551e-06
-2.8438e-08
2.49204e-06
-2.65197e-08
2.51672e-06
-2.46657e-08
2.53961e-06
-2.28761e-08
2.56078e-06
-2.11508e-08
2.58029e-06
-1.94891e-08
2.59819e-06
-1.78901e-08
2.61457e-06
-1.63531e-08
2.62946e-06
-1.48768e-08
2.64294e-06
-1.34601e-08
2.65506e-06
-1.21016e-08
2.66587e-06
-1.07999e-08
2.67544e-06
-9.55335e-09
2.68382e-06
-8.36031e-09
2.69106e-06
-7.21893e-09
2.6972e-06
-6.12735e-09
2.7023e-06
-5.08369e-09
2.70641e-06
-4.08607e-09
2.70956e-06
-3.13267e-09
2.71181e-06
-2.22166e-09
2.71318e-06
-1.35127e-09
2.71373e-06
-5.19438e-10
2.71348e-06
2.75773e-10
2.71247e-06
1.03516e-09
2.71074e-06
1.75966e-09
2.70831e-06
2.45118e-09
2.70523e-06
3.11149e-09
2.70152e-06
3.74222e-09
2.69721e-06
4.34488e-09
2.69232e-06
4.9209e-09
2.68689e-06
5.47162e-09
2.68092e-06
5.9983e-09
2.67445e-06
6.50215e-09
2.6675e-06
6.98432e-09
2.66009e-06
7.44592e-09
2.65223e-06
7.88801e-09
2.64395e-06
8.31161e-09
2.63526e-06
8.71771e-09
2.62618e-06
9.10726e-09
2.61673e-06
9.48117e-09
2.60691e-06
9.84033e-09
2.59675e-06
1.01856e-08
2.58625e-06
1.05177e-08
2.57544e-06
1.08375e-08
2.56432e-06
1.11457e-08
2.5529e-06
1.14429e-08
2.54119e-06
1.17298e-08
2.5292e-06
1.20071e-08
2.51695e-06
1.22751e-08
2.50444e-06
1.25345e-08
2.49168e-06
1.27857e-08
2.47867e-06
1.30292e-08
2.46543e-06
1.32655e-08
2.45196e-06
1.34948e-08
2.43827e-06
1.37176e-08
2.42437e-06
1.39342e-08
2.41025e-06
1.41451e-08
2.39592e-06
1.43505e-08
2.3814e-06
1.45508e-08
2.36668e-06
1.47463e-08
2.35177e-06
1.49375e-08
2.33667e-06
1.51246e-08
2.32139e-06
1.5308e-08
2.30592e-06
1.54882e-08
2.29028e-06
1.56654e-08
2.27447e-06
1.584e-08
2.25848e-06
1.60124e-08
2.24232e-06
1.61831e-08
2.22599e-06
1.63523e-08
2.2095e-06
1.65206e-08
2.19284e-06
1.66883e-08
2.17601e-06
1.68559e-08
2.15901e-06
1.70239e-08
2.14184e-06
1.71927e-08
2.12451e-06
1.73628e-08
2.107e-06
1.75349e-08
2.08932e-06
1.77093e-08
2.07146e-06
1.78867e-08
2.05342e-06
1.80676e-08
2.03519e-06
1.82527e-08
2.01678e-06
1.84424e-08
1.99817e-06
1.86372e-08
1.97936e-06
1.88378e-08
1.96034e-06
1.90447e-08
1.94111e-06
1.92582e-08
1.92166e-06
1.9479e-08
1.90197e-06
1.97075e-08
1.88205e-06
1.99441e-08
1.86189e-06
2.01894e-08
1.84147e-06
2.04437e-08
1.82078e-06
2.07076e-08
1.79982e-06
2.09816e-08
1.77858e-06
2.12661e-08
1.75704e-06
2.15615e-08
1.7352e-06
2.18682e-08
1.71304e-06
2.21866e-08
1.69054e-06
2.2517e-08
1.66771e-06
2.28597e-08
1.64451e-06
2.32152e-08
1.62095e-06
2.35837e-08
1.597e-06
2.39657e-08
1.57266e-06
2.43615e-08
1.54791e-06
2.47717e-08
1.52273e-06
2.51965e-08
1.49711e-06
2.56366e-08
1.47104e-06
2.60924e-08
1.44449e-06
2.65643e-08
1.41745e-06
2.70529e-08
1.38991e-06
2.75586e-08
1.36184e-06
2.80821e-08
1.33323e-06
2.8624e-08
1.30406e-06
2.91849e-08
1.2743e-06
2.97653e-08
1.24395e-06
3.03659e-08
1.21298e-06
3.09872e-08
1.18136e-06
3.16297e-08
1.14907e-06
3.2294e-08
1.1161e-06
3.29805e-08
1.08243e-06
3.36898e-08
1.04801e-06
3.44222e-08
1.01285e-06
3.51778e-08
9.76905e-07
3.59562e-08
9.40161e-07
3.67569e-08
9.02594e-07
3.75792e-08
8.64185e-07
3.84219e-08
8.24915e-07
3.92833e-08
7.84768e-07
4.01611e-08
7.4373e-07
4.10519e-08
7.01793e-07
4.19515e-08
6.58952e-07
4.28544e-08
6.15212e-07
4.37543e-08
5.70584e-07
4.46432e-08
5.25089e-07
4.55111e-08
4.7876e-07
4.63456e-08
4.31644e-07
4.71316e-08
3.83809e-07
4.78512e-08
3.35343e-07
4.84828e-08
2.8636e-07
4.90003e-08
2.37007e-07
4.93718e-08
1.87466e-07
4.95587e-08
1.3797e-07
4.95139e-08
8.88087e-08
4.91795e-08
4.0347e-08
4.8481e-08
-6.95703e-09
4.73233e-08
-5.24853e-08
4.55476e-08
-9.54935e-08
4.30283e-08
-1.35124e-07
3.96515e-08
-1.70329e-07
3.5225e-08
-1.99797e-07
2.94889e-08
-2.219e-07
2.21227e-08
-2.34652e-07
1.27724e-08
-2.35634e-07
1.00555e-09
-2.21915e-07
-1.36943e-08
-1.90501e-07
-3.13909e-08
-1.46697e-07
-4.37771e-08
-9.33697e-08
-5.32975e-08
-3.98123e-08
-5.35312e-08
-3.97905e-08
-5.89277e-08
-1.96374e-11
1.54872e-07
-6.24625e-08
-7.96641e-12
7.66362e-08
-3.80774e-08
-5.43068e-12
3.98884e-09
1.18913e-09
-3.90053e-12
-5.71612e-08
5.33521e-08
-3.06889e-12
-1.0141e-07
1.1589e-07
-2.47623e-12
-1.32027e-07
1.86229e-07
-2.06775e-12
-1.52677e-07
2.62202e-07
-1.84298e-12
-1.66061e-07
3.42081e-07
-1.69807e-12
-1.74317e-07
4.2447e-07
-1.59834e-12
-1.79059e-07
5.08314e-07
-1.55875e-12
-1.81332e-07
5.9282e-07
-1.55026e-12
-1.81862e-07
6.77384e-07
-1.52891e-12
-1.81142e-07
7.61549e-07
-1.47966e-12
-1.7951e-07
8.44958e-07
-1.39218e-12
-1.772e-07
9.27333e-07
-1.25086e-12
-1.74376e-07
1.00845e-06
-1.06534e-12
-1.71153e-07
1.08813e-06
-8.7923e-13
-1.67615e-07
1.16623e-06
-7.32958e-13
-1.63823e-07
1.24261e-06
-6.32164e-13
-1.59822e-07
1.31718e-06
-5.58966e-13
-1.55647e-07
1.38984e-06
-5.05079e-13
-1.51328e-07
1.46053e-06
-4.80121e-13
-1.46888e-07
1.52917e-06
-4.92236e-13
-1.42349e-07
1.59572e-06
-5.28027e-13
-1.3773e-07
1.66014e-06
-5.57761e-13
-1.33048e-07
1.7224e-06
-5.57123e-13
-1.28321e-07
1.78246e-06
-5.23282e-13
-1.23564e-07
1.84032e-06
-4.71102e-13
-1.18793e-07
1.89597e-06
-4.16264e-13
-1.14022e-07
1.9494e-06
-3.62932e-13
-1.09266e-07
2.00063e-06
-3.04646e-13
-1.04538e-07
2.04966e-06
-2.35715e-13
-9.98503e-08
2.09652e-06
-1.60054e-13
-9.52147e-08
2.14123e-06
-9.22472e-14
-9.06421e-08
2.18381e-06
-4.85463e-14
-8.61424e-08
2.22431e-06
-3.76386e-14
-8.17245e-08
2.26276e-06
-5.59506e-14
-7.7396e-08
2.29919e-06
-9.02984e-14
-7.31639e-08
2.33367e-06
-1.25229e-13
-6.90339e-08
2.36623e-06
-1.50279e-13
-6.50108e-08
2.39692e-06
-1.62353e-13
-6.10985e-08
2.42579e-06
-1.64483e-13
-5.73e-08
2.4529e-06
-1.61104e-13
-5.36174e-08
2.4783e-06
-1.54859e-13
-5.00522e-08
2.50204e-06
-1.44923e-13
-4.6605e-08
2.52418e-06
-1.28783e-13
-4.3276e-08
2.54477e-06
-1.04622e-13
-4.00645e-08
2.56387e-06
-7.37233e-14
-3.69695e-08
2.58152e-06
-4.10691e-14
-3.39895e-08
2.59778e-06
-1.37438e-14
-3.11228e-08
2.6127e-06
1.58402e-15
-2.83672e-08
2.62633e-06
1.23694e-15
-2.57203e-08
2.63872e-06
-1.41398e-14
-2.31793e-08
2.64992e-06
-3.97583e-14
-2.07414e-08
2.65998e-06
-6.8312e-14
-1.84037e-08
2.66894e-06
-9.22027e-14
-1.61629e-08
2.67684e-06
-1.05713e-13
-1.40158e-08
2.68373e-06
-1.06254e-13
-1.19593e-08
2.68965e-06
-9.44928e-14
-9.98989e-09
2.69464e-06
-7.3704e-14
-8.10445e-09
2.69873e-06
-4.82314e-14
-6.29964e-09
2.70197e-06
-2.23216e-14
-4.57215e-09
2.70439e-06
1.2081e-15
-2.91861e-09
2.70602e-06
2.10463e-14
-1.33571e-09
2.7069e-06
3.77551e-14
1.79383e-10
2.70705e-06
5.36313e-14
1.62885e-09
2.70651e-06
7.08605e-14
3.01519e-09
2.70531e-06
9.13371e-14
4.34155e-09
2.70346e-06
1.15817e-13
5.61085e-09
2.70101e-06
1.43733e-13
6.82587e-09
2.69796e-06
1.73507e-13
7.98927e-09
2.69435e-06
2.02595e-13
9.10357e-09
2.69021e-06
2.28026e-13
1.01712e-08
2.68554e-06
2.47233e-13
1.11945e-08
2.68037e-06
2.58141e-13
1.21757e-08
2.67472e-06
2.5955e-13
1.3117e-08
2.66861e-06
2.51382e-13
1.40205e-08
2.66205e-06
2.3441e-13
1.48881e-08
2.65507e-06
2.10235e-13
1.57218e-08
2.64767e-06
1.81057e-13
1.65234e-08
2.63988e-06
1.49117e-13
1.72947e-08
2.6317e-06
1.16803e-13
1.80374e-08
2.62315e-06
8.62644e-14
1.87531e-08
2.61424e-06
5.92721e-14
1.94433e-08
2.60498e-06
3.7137e-14
2.01095e-08
2.59539e-06
2.08653e-14
2.0753e-08
2.58548e-06
1.10329e-14
2.13751e-08
2.57524e-06
7.71611e-15
2.1977e-08
2.56471e-06
1.0686e-14
2.25598e-08
2.55388e-06
1.92971e-14
2.31246e-08
2.54276e-06
3.26267e-14
2.36723e-08
2.53136e-06
4.94744e-14
2.42038e-08
2.51968e-06
6.85147e-14
2.472e-08
2.50774e-06
8.82905e-14
2.52218e-08
2.49555e-06
1.07449e-13
2.57097e-08
2.4831e-06
1.24588e-13
2.61847e-08
2.47041e-06
1.38667e-13
2.66474e-08
2.45747e-06
1.48853e-13
2.70985e-08
2.4443e-06
1.5471e-13
2.75387e-08
2.4309e-06
1.56174e-13
2.79687e-08
2.41728e-06
1.53474e-13
2.83892e-08
2.40343e-06
1.47209e-13
2.88009e-08
2.38937e-06
1.38223e-13
2.92046e-08
2.3751e-06
1.27454e-13
2.96009e-08
2.36061e-06
1.15984e-13
2.99906e-08
2.34592e-06
1.04632e-13
3.03744e-08
2.33103e-06
9.44522e-14
3.07531e-08
2.31593e-06
8.61464e-14
3.11275e-08
2.30063e-06
8.01373e-14
3.14983e-08
2.28514e-06
7.67511e-14
3.18662e-08
2.26944e-06
7.60156e-14
3.22323e-08
2.25355e-06
7.78752e-14
3.25972e-08
2.23746e-06
8.21357e-14
3.29619e-08
2.22118e-06
8.84987e-14
3.33272e-08
2.2047e-06
9.66935e-14
3.36942e-08
2.18802e-06
1.06346e-13
3.40637e-08
2.17113e-06
1.17101e-13
3.44368e-08
2.15405e-06
1.28453e-13
3.48145e-08
2.13676e-06
1.39805e-13
3.51979e-08
2.11926e-06
1.5038e-13
3.55879e-08
2.10154e-06
1.59241e-13
3.59856e-08
2.08361e-06
1.65569e-13
3.63923e-08
2.06546e-06
1.6831e-13
3.68088e-08
2.04708e-06
1.66867e-13
3.72363e-08
2.02847e-06
1.60892e-13
3.76758e-08
2.00962e-06
1.50588e-13
3.81284e-08
1.99052e-06
1.36738e-13
3.8595e-08
1.97117e-06
1.20778e-13
3.90766e-08
1.95155e-06
1.04645e-13
3.95741e-08
1.93167e-06
9.06567e-14
4.00885e-08
1.91151e-06
8.08659e-14
4.06206e-08
1.89106e-06
7.68136e-14
4.11713e-08
1.87032e-06
7.90132e-14
4.17414e-08
1.84927e-06
8.68264e-14
4.23316e-08
1.82791e-06
9.83658e-14
4.29428e-08
1.80621e-06
1.1096e-13
4.35756e-08
1.78419e-06
1.21639e-13
4.42307e-08
1.76181e-06
1.27752e-13
4.4909e-08
1.73907e-06
1.27946e-13
4.56111e-08
1.71597e-06
1.21951e-13
4.63376e-08
1.69247e-06
1.11203e-13
4.70894e-08
1.66859e-06
9.80535e-14
4.78671e-08
1.64429e-06
8.50986e-14
4.86715e-08
1.61957e-06
7.42947e-14
4.95033e-08
1.59442e-06
6.61832e-14
5.03633e-08
1.56881e-06
5.99867e-14
5.12523e-08
1.54274e-06
5.3714e-14
5.21712e-08
1.5162e-06
4.54636e-14
5.31207e-08
1.48916e-06
3.44516e-14
5.41018e-08
1.46161e-06
2.1351e-14
5.51154e-08
1.43354e-06
8.18096e-15
5.61624e-08
1.40493e-06
-2.96985e-15
5.72437e-08
1.37576e-06
-1.13104e-14
5.83604e-08
1.34602e-06
-1.82146e-14
5.95133e-08
1.31569e-06
-2.68396e-14
6.07034e-08
1.28476e-06
-4.00652e-14
6.19315e-08
1.25319e-06
-5.81271e-14
6.31984e-08
1.22099e-06
-7.72715e-14
6.45047e-08
1.18813e-06
-9.10383e-14
6.58509e-08
1.15459e-06
-9.414e-14
6.72373e-08
1.12035e-06
-8.63129e-14
6.86638e-08
1.08541e-06
-7.41768e-14
7.01299e-08
1.04974e-06
-6.73003e-14
7.16346e-08
1.01333e-06
-7.15053e-14
7.31764e-08
9.76162e-07
-8.37178e-14
7.47531e-08
9.38232e-07
-9.27522e-14
7.63614e-08
8.99527e-07
-8.89011e-14
7.79971e-08
8.60043e-07
-7.32331e-14
7.96546e-08
8.19777e-07
-5.88279e-14
8.13268e-08
7.78733e-07
-6.05488e-14
8.30047e-08
7.36919e-07
-7.91728e-14
8.46774e-08
6.94352e-07
-9.77829e-14
8.63312e-08
6.51056e-07
-9.72278e-14
8.79496e-08
6.07065e-07
-7.75768e-14
8.95125e-08
5.62425e-07
-6.13676e-14
9.09958e-08
5.17196e-07
-6.90559e-14
9.23706e-08
4.71456e-07
-9.18432e-14
9.36024e-08
4.253e-07
-9.82964e-14
9.46499e-08
3.78848e-07
-7.45237e-14
9.5464e-08
3.32245e-07
-4.68653e-14
9.59859e-08
2.85669e-07
-4.81559e-14
9.61454e-08
2.39336e-07
-6.91669e-14
9.5858e-08
1.93507e-07
-7.52731e-14
9.50212e-08
1.48491e-07
-6.8015e-14
9.35086e-08
1.0466e-07
-8.13655e-14
9.11664e-08
6.24369e-08
-9.99062e-14
8.77827e-08
2.2322e-08
-6.50591e-14
8.31556e-08
-1.50803e-08
-5.1209e-15
7.7066e-08
-4.90551e-08
-3.44863e-14
6.9212e-08
-7.88066e-08
-1.67727e-13
5.92537e-08
-1.03463e-07
-2.58377e-13
4.6793e-08
-1.22088e-07
-1.78246e-13
3.14102e-08
-1.33808e-07
-4.34236e-14
1.27405e-08
-1.38041e-07
7.52176e-15
-9.44588e-09
-1.35268e-07
1.60233e-13
-3.41421e-08
-1.20938e-07
1.39055e-13
-5.80861e-08
-9.4319e-08
-7.06934e-14
-7.99075e-08
-5.45728e-08
-1.6942e-13
-9.3272e-08
-3.14165e-12
-9.43523e-08
-5.89076e-08
1.54803e-07
-6.24457e-08
7.65686e-08
-3.80586e-08
3.93075e-09
1.20636e-09
-5.72108e-08
5.33674e-08
-1.01451e-07
1.15903e-07
-1.32064e-07
1.86239e-07
-1.52709e-07
2.6221e-07
-1.6609e-07
3.42087e-07
-1.74343e-07
4.24474e-07
-1.79084e-07
5.08318e-07
-1.81355e-07
5.92822e-07
-1.81884e-07
6.77386e-07
-1.81162e-07
7.61549e-07
-1.79528e-07
8.44958e-07
-1.77217e-07
9.27332e-07
-1.74392e-07
1.00845e-06
-1.71168e-07
1.08813e-06
-1.6763e-07
1.16622e-06
-1.63836e-07
1.24261e-06
-1.59834e-07
1.31717e-06
-1.55659e-07
1.38984e-06
-1.51339e-07
1.46052e-06
-1.46898e-07
1.52917e-06
-1.42358e-07
1.59572e-06
-1.37739e-07
1.66014e-06
-1.33056e-07
1.72239e-06
-1.28328e-07
1.78246e-06
-1.23571e-07
1.84032e-06
-1.18799e-07
1.89597e-06
-1.14028e-07
1.9494e-06
-1.09271e-07
2.00063e-06
-1.04543e-07
2.04966e-06
-9.98547e-08
2.09652e-06
-9.52187e-08
2.14122e-06
-9.06458e-08
2.18381e-06
-8.61458e-08
2.2243e-06
-8.17275e-08
2.26275e-06
-7.73988e-08
2.29919e-06
-7.31665e-08
2.33366e-06
-6.90362e-08
2.36622e-06
-6.50129e-08
2.39691e-06
-6.11004e-08
2.42579e-06
-5.73017e-08
2.4529e-06
-5.3619e-08
2.4783e-06
-5.00536e-08
2.50204e-06
-4.66064e-08
2.52418e-06
-4.32772e-08
2.54477e-06
-4.00656e-08
2.56386e-06
-3.69705e-08
2.58151e-06
-3.39905e-08
2.59777e-06
-3.11237e-08
2.61269e-06
-2.8368e-08
2.62632e-06
-2.5721e-08
2.63872e-06
-2.318e-08
2.64992e-06
-2.07421e-08
2.65997e-06
-1.84043e-08
2.66893e-06
-1.61634e-08
2.67683e-06
-1.40164e-08
2.68373e-06
-1.19598e-08
2.68965e-06
-9.99039e-09
2.69463e-06
-8.10493e-09
2.69873e-06
-6.30011e-09
2.70197e-06
-4.57261e-09
2.70439e-06
-2.91906e-09
2.70602e-06
-1.33615e-09
2.7069e-06
1.78959e-10
2.70705e-06
1.62845e-09
2.70651e-06
3.01482e-09
2.7053e-06
4.3412e-09
2.70346e-06
5.61053e-09
2.701e-06
6.82558e-09
2.69796e-06
7.989e-09
2.69435e-06
9.10332e-09
2.6902e-06
1.0171e-08
2.68553e-06
1.11943e-08
2.68037e-06
1.21755e-08
2.67472e-06
1.31168e-08
2.66861e-06
1.40203e-08
2.66205e-06
1.48879e-08
2.65507e-06
1.57216e-08
2.64767e-06
1.65233e-08
2.63987e-06
1.72946e-08
2.63169e-06
1.80373e-08
2.62314e-06
1.8753e-08
2.61423e-06
1.94432e-08
2.60498e-06
2.01094e-08
2.59539e-06
2.07529e-08
2.58547e-06
2.1375e-08
2.57524e-06
2.19769e-08
2.56471e-06
2.25597e-08
2.55387e-06
2.31245e-08
2.54275e-06
2.36722e-08
2.53135e-06
2.42037e-08
2.51968e-06
2.472e-08
2.50774e-06
2.52217e-08
2.49555e-06
2.57097e-08
2.4831e-06
2.61846e-08
2.4704e-06
2.66473e-08
2.45747e-06
2.70984e-08
2.4443e-06
2.75386e-08
2.4309e-06
2.79686e-08
2.41728e-06
2.83891e-08
2.40343e-06
2.88008e-08
2.38937e-06
2.92045e-08
2.3751e-06
2.96008e-08
2.36061e-06
2.99905e-08
2.34592e-06
3.03744e-08
2.33103e-06
3.07531e-08
2.31593e-06
3.11274e-08
2.30063e-06
3.14982e-08
2.28513e-06
3.18662e-08
2.26944e-06
3.22323e-08
2.25355e-06
3.25972e-08
2.23746e-06
3.29619e-08
2.22118e-06
3.33272e-08
2.2047e-06
3.36942e-08
2.18801e-06
3.40637e-08
2.17113e-06
3.44368e-08
2.15405e-06
3.48145e-08
2.13676e-06
3.51978e-08
2.11926e-06
3.55879e-08
2.10154e-06
3.59856e-08
2.08361e-06
3.63922e-08
2.06546e-06
3.68088e-08
2.04708e-06
3.72363e-08
2.02847e-06
3.76758e-08
2.00962e-06
3.81283e-08
1.99052e-06
3.8595e-08
1.97117e-06
3.90766e-08
1.95155e-06
3.95741e-08
1.93167e-06
4.00885e-08
1.91151e-06
4.06206e-08
1.89106e-06
4.11713e-08
1.87032e-06
4.17414e-08
1.84927e-06
4.23316e-08
1.82791e-06
4.29428e-08
1.80621e-06
4.35756e-08
1.78419e-06
4.42308e-08
1.76181e-06
4.4909e-08
1.73907e-06
4.56111e-08
1.71597e-06
4.63377e-08
1.69247e-06
4.70895e-08
1.66859e-06
4.78672e-08
1.64429e-06
4.86716e-08
1.61957e-06
4.95034e-08
1.59442e-06
5.03634e-08
1.56881e-06
5.12524e-08
1.54274e-06
5.21713e-08
1.5162e-06
5.31208e-08
1.48916e-06
5.4102e-08
1.46161e-06
5.51155e-08
1.43354e-06
5.61625e-08
1.40493e-06
5.72439e-08
1.37576e-06
5.83606e-08
1.34602e-06
5.95135e-08
1.31569e-06
6.07036e-08
1.28476e-06
6.19317e-08
1.25319e-06
6.31986e-08
1.22099e-06
6.45049e-08
1.18813e-06
6.58511e-08
1.15459e-06
6.72375e-08
1.12035e-06
6.8664e-08
1.08541e-06
7.01301e-08
1.04974e-06
7.16348e-08
1.01333e-06
7.31766e-08
9.76163e-07
7.47533e-08
9.38232e-07
7.63616e-08
8.99527e-07
7.79973e-08
8.60043e-07
7.96548e-08
8.19777e-07
8.1327e-08
7.78733e-07
8.30049e-08
7.36919e-07
8.46776e-08
6.94352e-07
8.63314e-08
6.51056e-07
8.79498e-08
6.07065e-07
8.95128e-08
5.62425e-07
9.09961e-08
5.17197e-07
9.23709e-08
4.71456e-07
9.36027e-08
4.253e-07
9.46503e-08
3.78848e-07
9.54643e-08
3.32245e-07
9.59862e-08
2.8567e-07
9.61457e-08
2.39337e-07
9.58584e-08
1.93507e-07
9.50217e-08
1.48491e-07
9.35091e-08
1.0466e-07
9.11669e-08
6.24376e-08
8.77833e-08
2.23227e-08
8.31562e-08
-1.508e-08
7.70665e-08
-4.90548e-08
6.92127e-08
-7.8806e-08
5.92547e-08
-1.03462e-07
4.67938e-08
-1.22086e-07
3.14108e-08
-1.33807e-07
1.27412e-08
-1.38039e-07
-9.44533e-09
-1.35269e-07
-3.41424e-08
-1.20942e-07
-5.80854e-08
-9.43213e-08
-7.99062e-08
-5.45691e-08
-9.32709e-08
-9.43519e-08
-1.47933e-08
-2.81212e-11
1.69787e-07
1.73051e-08
-6.19974e-12
4.46756e-08
6.30021e-08
-3.36955e-12
-4.1671e-08
1.12877e-07
-2.44242e-12
-1.0701e-07
1.67138e-07
-1.94516e-12
-1.5565e-07
2.26086e-07
-1.56608e-12
-1.90957e-07
2.89379e-07
-1.30518e-12
-2.15955e-07
3.56442e-07
-1.12623e-12
-2.33111e-07
4.2656e-07
-9.99536e-13
-2.44422e-07
4.98954e-07
-9.27865e-13
-2.51443e-07
5.72932e-07
-8.9755e-13
-2.55299e-07
6.47892e-07
-8.80169e-13
-2.56812e-07
7.23332e-07
-8.56931e-13
-2.56573e-07
7.98838e-07
-8.18213e-13
-2.55006e-07
8.74066e-07
-7.5527e-13
-2.52418e-07
9.48732e-07
-6.66536e-13
-2.49032e-07
1.0226e-06
-5.6568e-13
-2.4501e-07
1.09547e-06
-4.74399e-13
-2.40474e-07
1.16717e-06
-4.05413e-13
-2.35514e-07
1.23756e-06
-3.55914e-13
-2.30203e-07
1.30651e-06
-3.18549e-13
-2.24594e-07
1.37393e-06
-2.93146e-13
-2.18736e-07
1.43971e-06
-2.84892e-13
-2.12667e-07
1.50379e-06
-2.93816e-13
-2.06421e-07
1.56609e-06
-3.093e-13
-2.0003e-07
1.62657e-06
-3.1685e-13
-1.93522e-07
1.68518e-06
-3.08235e-13
-1.86923e-07
1.74188e-06
-2.85774e-13
-1.80261e-07
1.79665e-06
-2.5753e-13
-1.73557e-07
1.84947e-06
-2.29129e-13
-1.66836e-07
1.90033e-06
-2.00128e-13
-1.60119e-07
1.94922e-06
-1.67075e-13
-1.53427e-07
1.99615e-06
-1.28807e-13
-1.46778e-07
2.04113e-06
-8.98834e-14
-1.4019e-07
2.08418e-06
-5.8499e-14
-1.3368e-07
2.1253e-06
-4.19325e-14
-1.27263e-07
2.16453e-06
-4.24149e-14
-1.20952e-07
2.2019e-06
-5.61194e-14
-1.1476e-07
2.23743e-06
-7.58711e-14
-1.08695e-07
2.27117e-06
-9.45958e-14
-1.02769e-07
2.30315e-06
-1.08116e-13
-9.69874e-08
2.33341e-06
-1.15812e-13
-9.13571e-08
2.362e-06
-1.19281e-13
-8.58828e-08
2.38895e-06
-1.20263e-13
-8.05684e-08
2.41432e-06
-1.19268e-13
-7.54162e-08
2.43814e-06
-1.15396e-13
-7.04279e-08
2.46047e-06
-1.07312e-13
-6.5604e-08
2.48136e-06
-9.45759e-14
-6.09442e-08
2.50084e-06
-7.84084e-14
-5.64474e-08
2.51897e-06
-6.19148e-14
-5.2112e-08
2.53578e-06
-4.89252e-14
-4.79358e-08
2.55133e-06
-4.27254e-14
-4.3916e-08
2.56567e-06
-4.47759e-14
-4.00495e-08
2.57882e-06
-5.42372e-14
-3.63327e-08
2.59085e-06
-6.81116e-14
-3.27619e-08
2.60178e-06
-8.22808e-14
-2.93331e-08
2.61166e-06
-9.26545e-14
-2.60419e-08
2.62054e-06
-9.62732e-14
-2.2884e-08
2.62844e-06
-9.18879e-14
-1.98551e-08
2.6354e-06
-8.01404e-14
-1.69505e-08
2.64147e-06
-6.29354e-14
-1.41659e-08
2.64667e-06
-4.29272e-14
-1.14965e-08
2.65104e-06
-2.25442e-14
-8.93803e-09
2.65461e-06
-3.59759e-15
-6.4858e-09
2.65742e-06
1.3087e-14
-4.1354e-09
2.65949e-06
2.76343e-14
-1.88264e-09
2.66084e-06
4.08425e-14
2.7642e-10
2.66152e-06
5.37766e-14
2.34534e-09
2.66154e-06
6.72588e-14
4.32784e-09
2.66093e-06
8.14662e-14
6.22804e-09
2.65971e-06
9.59997e-14
8.04984e-09
2.65791e-06
1.09909e-13
9.797e-09
2.65554e-06
1.21837e-13
1.14731e-08
2.65264e-06
1.30278e-13
1.30816e-08
2.64921e-06
1.33903e-13
1.46259e-08
2.64529e-06
1.31922e-13
1.61092e-08
2.64087e-06
1.23981e-13
1.75345e-08
2.636e-06
1.10481e-13
1.89048e-08
2.63067e-06
9.23706e-14
2.02229e-08
2.6249e-06
7.10925e-14
2.14918e-08
2.61872e-06
4.83225e-14
2.27138e-08
2.61212e-06
2.58821e-14
2.38916e-08
2.60514e-06
5.45745e-15
2.50277e-08
2.59777e-06
-1.147e-14
2.61242e-08
2.59004e-06
-2.38351e-14
2.71833e-08
2.58194e-06
-3.10064e-14
2.82072e-08
2.5735e-06
-3.27134e-14
2.91977e-08
2.56473e-06
-2.91989e-14
3.01567e-08
2.55562e-06
-2.10491e-14
3.10859e-08
2.5462e-06
-9.13158e-15
3.1987e-08
2.53647e-06
5.36724e-15
3.28614e-08
2.52643e-06
2.11844e-14
3.37106e-08
2.5161e-06
3.69947e-14
3.45359e-08
2.50549e-06
5.15733e-14
3.53385e-08
2.4946e-06
6.38621e-14
3.61196e-08
2.48343e-06
7.30284e-14
3.68805e-08
2.472e-06
7.86038e-14
3.76221e-08
2.4603e-06
8.04287e-14
3.83456e-08
2.44836e-06
7.86593e-14
3.90519e-08
2.43616e-06
7.37223e-14
3.97421e-08
2.42371e-06
6.6374e-14
4.04172e-08
2.41103e-06
5.74887e-14
4.10783e-08
2.39811e-06
4.79616e-14
4.17263e-08
2.38495e-06
3.87433e-14
4.23624e-08
2.37157e-06
3.06213e-14
4.29875e-08
2.35796e-06
2.42237e-14
4.36027e-08
2.34413e-06
1.9984e-14
4.42091e-08
2.33008e-06
1.80654e-14
4.48079e-08
2.31582e-06
1.84228e-14
4.54e-08
2.30133e-06
2.07993e-14
4.59868e-08
2.28663e-06
2.4817e-14
4.65694e-08
2.27172e-06
2.99517e-14
4.7149e-08
2.2566e-06
3.56763e-14
4.77268e-08
2.24126e-06
4.1564e-14
4.83043e-08
2.22571e-06
4.72331e-14
4.88826e-08
2.20994e-06
5.23782e-14
4.94633e-08
2.19396e-06
5.68434e-14
5.00477e-08
2.17777e-06
6.05314e-14
5.06373e-08
2.16135e-06
6.34319e-14
5.12336e-08
2.14472e-06
6.55413e-14
5.1838e-08
2.12786e-06
6.67764e-14
5.24522e-08
2.11077e-06
6.70575e-14
5.30777e-08
2.09345e-06
6.63081e-14
5.37161e-08
2.0759e-06
6.43478e-14
5.43688e-08
2.0581e-06
6.11768e-14
5.50375e-08
2.04006e-06
5.68157e-14
5.57236e-08
2.02176e-06
5.14692e-14
5.64286e-08
2.00321e-06
4.554e-14
5.7154e-08
1.98439e-06
3.96488e-14
5.79012e-08
1.96529e-06
3.45349e-14
5.86714e-08
1.94592e-06
3.09509e-14
5.94662e-08
1.92626e-06
2.96048e-14
6.02866e-08
1.9063e-06
3.08295e-14
6.11339e-08
1.88604e-06
3.45141e-14
6.20093e-08
1.86546e-06
4.00721e-14
6.2914e-08
1.84456e-06