/*--------------------------------*- C++ -*----------------------------------*\
  =========                 |
  \\      /  F ield         | OpenFOAM: The Open Source CFD Toolbox
   \\    /   O peration     | Website:  https://openfoam.org
    \\  /    A nd           | Version:  8
     \\/     M anipulation  |
\*---------------------------------------------------------------------------*/
FoamFile
{
    version     2.0;
    format      ascii;
    class       volVectorField;
    location    "1100";
    object      U;
}
// * * * * * * * * * * * * * * * * * * * * * * * * * * * * * * * * * * * * * //

dimensions      [0 1 -1 0 0 0 0];

internalField   nonuniform List<vector> 
48000
(
(-0.00507083 -4.11572e-06 0.00608083)
(-0.00895275 -2.25509e-06 0.00543623)
(-0.0134807 -3.19418e-06 0.00265066)
(-0.013505 -3.29246e-06 -0.000883797)
(-0.0108451 -2.79813e-06 -0.00291302)
(-0.00666058 -2.50162e-06 -0.00418312)
(-0.00136382 -2.27312e-06 -0.00497266)
(0.0046502 -2.04686e-06 -0.0054125)
(0.0110043 -1.85552e-06 -0.0056164)
(0.0175953 -1.71159e-06 -0.00569417)
(0.0242784 -1.59308e-06 -0.00569208)
(0.0309799 -1.50293e-06 -0.00563887)
(0.0376465 -1.43171e-06 -0.00555255)
(0.0442415 -1.36363e-06 -0.00544459)
(0.0507393 -1.2915e-06 -0.00532235)
(0.0571212 -1.21081e-06 -0.00519059)
(0.0633735 -1.11548e-06 -0.00505243)
(0.0694858 -1.00717e-06 -0.00490989)
(0.0754499 -8.98618e-07 -0.00476431)
(0.0812593 -8.02453e-07 -0.00461663)
(0.0869087 -7.21396e-07 -0.00446749)
(0.0923938 -6.51676e-07 -0.00431738)
(0.097711 -5.92648e-07 -0.00416668)
(0.102858 -5.4862e-07 -0.00401574)
(0.107831 -5.22273e-07 -0.00386487)
(0.112631 -5.08704e-07 -0.00371436)
(0.117254 -4.97213e-07 -0.00356451)
(0.121702 -4.7895e-07 -0.00341557)
(0.125973 -4.522e-07 -0.00326784)
(0.130068 -4.2106e-07 -0.00312159)
(0.133988 -3.89863e-07 -0.00297711)
(0.137734 -3.58769e-07 -0.00283465)
(0.141308 -3.24637e-07 -0.00269448)
(0.144712 -2.84995e-07 -0.00255682)
(0.147949 -2.41611e-07 -0.0024219)
(0.15102 -2.00478e-07 -0.00228991)
(0.15393 -1.68615e-07 -0.00216104)
(0.156681 -1.49792e-07 -0.00203548)
(0.159278 -1.43003e-07 -0.00191335)
(0.161724 -1.43384e-07 -0.00179477)
(0.164023 -1.45204e-07 -0.00167981)
(0.166179 -1.448e-07 -0.00156852)
(0.168198 -1.41328e-07 -0.00146095)
(0.170082 -1.36147e-07 -0.0013571)
(0.171838 -1.30839e-07 -0.00125697)
(0.173468 -1.25821e-07 -0.00116056)
(0.174977 -1.20099e-07 -0.00106783)
(0.176371 -1.11883e-07 -0.000978716)
(0.177652 -1.0005e-07 -0.000893161)
(0.178826 -8.50952e-08 -0.000811086)
(0.179897 -6.9299e-08 -0.000732413)
(0.180869 -5.581e-08 -0.000657059)
(0.181745 -4.76511e-08 -0.000584938)
(0.18253 -4.63795e-08 -0.000515959)
(0.183228 -5.16753e-08 -0.000450024)
(0.183842 -6.13953e-08 -0.000387031)
(0.184375 -7.26114e-08 -0.00032687)
(0.184833 -8.24722e-08 -0.000269431)
(0.185217 -8.9112e-08 -0.000214605)
(0.185531 -9.21388e-08 -0.000162286)
(0.185778 -9.24586e-08 -0.000112373)
(0.185962 -9.17847e-08 -6.47707e-05)
(0.186084 -9.19294e-08 -1.93845e-05)
(0.186148 -9.41528e-08 2.39241e-05)
(0.186156 -9.87634e-08 6.52879e-05)
(0.186111 -1.05099e-07 0.000104701)
(0.186015 -1.11822e-07 0.000142183)
(0.185871 -1.17267e-07 0.000177862)
(0.185681 -1.19878e-07 0.000211858)
(0.185446 -1.18687e-07 0.000244269)
(0.185169 -1.13383e-07 0.000275183)
(0.184852 -1.04398e-07 0.00030468)
(0.184497 -9.28013e-08 0.000332834)
(0.184105 -7.98567e-08 0.000359714)
(0.183677 -6.6954e-08 0.000385382)
(0.183216 -5.52505e-08 0.000409901)
(0.182722 -4.55916e-08 0.000433329)
(0.182197 -3.84378e-08 0.000455723)
(0.181643 -3.37853e-08 0.000477138)
(0.18106 -3.14744e-08 0.000497629)
(0.18045 -3.11317e-08 0.000517249)
(0.179814 -3.2232e-08 0.00053605)
(0.179152 -3.43945e-08 0.000554081)
(0.178467 -3.72499e-08 0.000571388)
(0.177758 -4.05204e-08 0.000588017)
(0.177027 -4.40192e-08 0.000604007)
(0.176274 -4.75904e-08 0.000619399)
(0.1755 -5.11273e-08 0.000634227)
(0.174707 -5.45005e-08 0.000648525)
(0.173894 -5.75615e-08 0.000662324)
(0.173063 -6.012e-08 0.000675652)
(0.172213 -6.19932e-08 0.000688536)
(0.171346 -6.30173e-08 0.000701002)
(0.170462 -6.31011e-08 0.000713071)
(0.169561 -6.21759e-08 0.000724767)
(0.168645 -6.03142e-08 0.000736111)
(0.167713 -5.75806e-08 0.000747121)
(0.166765 -5.41845e-08 0.000757818)
(0.165804 -5.03963e-08 0.00076822)
(0.164828 -4.65168e-08 0.000778345)
(0.163838 -4.28237e-08 0.000788212)
(0.162834 -3.95724e-08 0.000797838)
(0.161817 -3.70596e-08 0.000807242)
(0.160787 -3.54415e-08 0.000816442)
(0.159745 -3.48247e-08 0.000825457)
(0.15869 -3.52702e-08 0.000834307)
(0.157622 -3.66979e-08 0.000843011)
(0.156543 -3.90241e-08 0.000851589)
(0.155451 -4.20242e-08 0.000860061)
(0.154348 -4.55078e-08 0.000868449)
(0.153233 -4.9258e-08 0.000876774)
(0.152107 -5.30271e-08 0.00088506)
(0.150969 -5.65526e-08 0.000893328)
(0.14982 -5.96669e-08 0.000901604)
(0.148659 -6.21036e-08 0.000909912)
(0.147487 -6.36836e-08 0.000918278)
(0.146303 -6.42318e-08 0.000926729)
(0.145107 -6.3615e-08 0.000935292)
(0.1439 -6.17152e-08 0.000943997)
(0.14268 -5.85286e-08 0.000952873)
(0.141449 -5.42416e-08 0.000961949)
(0.140204 -4.9079e-08 0.000971258)
(0.138947 -4.34329e-08 0.000980831)
(0.137677 -3.79086e-08 0.0009907)
(0.136393 -3.30696e-08 0.00100089)
(0.135095 -2.95593e-08 0.00101144)
(0.133783 -2.79337e-08 0.00102238)
(0.132456 -2.8558e-08 0.00103373)
(0.131113 -3.1383e-08 0.00104551)
(0.129755 -3.60469e-08 0.00105776)
(0.12838 -4.17311e-08 0.0010705)
(0.126988 -4.74115e-08 0.00108376)
(0.125578 -5.18964e-08 0.00109756)
(0.124149 -5.41883e-08 0.00111193)
(0.122702 -5.37543e-08 0.00112689)
(0.121234 -5.06057e-08 0.00114248)
(0.119746 -4.53479e-08 0.00115871)
(0.118237 -3.91536e-08 0.00117562)
(0.116705 -3.32942e-08 0.00119321)
(0.115151 -2.87751e-08 0.00121151)
(0.113572 -2.62356e-08 0.00123054)
(0.111968 -2.53866e-08 0.00125033)
(0.110339 -2.54171e-08 0.00127089)
(0.108683 -2.51696e-08 0.00129227)
(0.106999 -2.37076e-08 0.00131448)
(0.105287 -2.07761e-08 0.00133756)
(0.103545 -1.68318e-08 0.00136154)
(0.101773 -1.29941e-08 0.00138644)
(0.0999681 -1.03671e-08 0.00141231)
(0.0981307 -9.56376e-09 0.00143916)
(0.0962591 -1.01615e-08 0.00146705)
(0.0943522 -1.09534e-08 0.00149601)
(0.0924088 -1.05042e-08 0.00152608)
(0.0904276 -8.33784e-09 0.00155733)
(0.0884072 -5.18545e-09 0.00158979)
(0.0863464 -3.14477e-09 0.0016235)
(0.0842436 -4.27171e-09 0.00165852)
(0.0820975 -9.42671e-09 0.00169488)
(0.0799065 -1.71782e-08 0.00173264)
(0.0776692 -2.41302e-08 0.00177183)
(0.0753841 -2.71989e-08 0.00181253)
(0.0730495 -2.52039e-08 0.00185477)
(0.070664 -2.04677e-08 0.00189858)
(0.0682258 -1.74295e-08 0.00194397)
(0.0657335 -1.94473e-08 0.00199095)
(0.0631855 -2.59577e-08 0.00203951)
(0.0605804 -3.24072e-08 0.00208962)
(0.0579169 -3.35722e-08 0.00214124)
(0.0551938 -2.82344e-08 0.00219428)
(0.05241 -2.09931e-08 0.00224861)
(0.0495648 -1.90895e-08 0.00230403)
(0.0466577 -2.55389e-08 0.00236029)
(0.0436886 -3.54453e-08 0.00241707)
(0.0406581 -3.99531e-08 0.00247399)
(0.0375673 -3.4958e-08 0.00253054)
(0.0344179 -2.62928e-08 0.00258606)
(0.0312127 -2.42597e-08 0.00263973)
(0.0279556 -3.16914e-08 0.00269056)
(0.0246518 -3.95343e-08 0.00273733)
(0.0213083 -3.71891e-08 0.00277856)
(0.0179337 -2.65136e-08 0.00281237)
(0.0145394 -2.06048e-08 0.00283648)
(0.0111394 -2.57521e-08 0.00284802)
(0.00775149 -3.21026e-08 0.00284342)
(0.0043977 -2.91406e-08 0.00281796)
(0.00111086 -2.33079e-08 0.00276342)
(-0.00209406 -2.41531e-08 0.00266111)
(-0.00513453 -2.64222e-08 0.00250599)
(-0.00798455 -2.41074e-08 0.0022998)
(-0.0105686 -2.79603e-08 0.00203165)
(-0.0128086 -3.06102e-08 0.00168405)
(-0.0146047 6.28956e-09 0.00123539)
(-0.0158343 6.16466e-08 0.000660887)
(-0.0163355 6.06415e-08 -7.5795e-05)
(-0.0160846 5.88157e-08 -0.00103163)
(-0.0144019 1.23074e-08 -0.00240473)
(-0.0119003 -6.85601e-08 -0.00294105)
(-0.00813263 -2.00182e-07 -0.00341252)
(-0.00421336 -1.48184e-07 -0.00317005)
(-0.00189258 -2.84837e-07 -0.00188579)
(-0.00507068 -4.11395e-06 0.00607903)
(-0.00895162 -2.25396e-06 0.00543403)
(-0.0134786 -3.19333e-06 0.00264855)
(-0.0135026 -3.29251e-06 -0.000885871)
(-0.0108429 -2.79805e-06 -0.00291485)
(-0.00665853 -2.50151e-06 -0.00418472)
(-0.00136194 -2.27301e-06 -0.00497406)
(0.0046518 -2.04675e-06 -0.00541379)
(0.0110056 -1.85544e-06 -0.00561762)
(0.0175964 -1.71151e-06 -0.0056953)
(0.0242793 -1.59302e-06 -0.00569312)
(0.0309807 -1.50288e-06 -0.00563982)
(0.0376471 -1.43166e-06 -0.00555343)
(0.0442421 -1.36359e-06 -0.00544539)
(0.0507397 -1.29146e-06 -0.00532308)
(0.0571216 -1.21078e-06 -0.00519126)
(0.0633739 -1.11545e-06 -0.00505302)
(0.0694861 -1.00715e-06 -0.00491041)
(0.0754502 -8.98601e-07 -0.00476477)
(0.0812595 -8.02439e-07 -0.00461704)
(0.0869089 -7.21383e-07 -0.00446786)
(0.0923939 -6.51666e-07 -0.00431771)
(0.0977112 -5.92639e-07 -0.00416698)
(0.102858 -5.48612e-07 -0.00401601)
(0.107831 -5.22266e-07 -0.00386512)
(0.112631 -5.08697e-07 -0.0037146)
(0.117254 -4.97207e-07 -0.00356472)
(0.121702 -4.78944e-07 -0.00341577)
(0.125973 -4.52195e-07 -0.00326801)
(0.130068 -4.21055e-07 -0.00312175)
(0.133988 -3.89859e-07 -0.00297724)
(0.137734 -3.58765e-07 -0.00283477)
(0.141308 -3.24634e-07 -0.00269458)
(0.144712 -2.84993e-07 -0.0025569)
(0.147948 -2.4161e-07 -0.00242195)
(0.15102 -2.00476e-07 -0.00228995)
(0.15393 -1.68614e-07 -0.00216107)
(0.156681 -1.49791e-07 -0.0020355)
(0.159278 -1.43002e-07 -0.00191336)
(0.161723 -1.43383e-07 -0.00179477)
(0.164023 -1.45203e-07 -0.00167979)
(0.166179 -1.448e-07 -0.00156849)
(0.168198 -1.41327e-07 -0.0014609)
(0.170082 -1.36146e-07 -0.00135704)
(0.171837 -1.30839e-07 -0.00125691)
(0.173467 -1.25821e-07 -0.00116049)
(0.174977 -1.20098e-07 -0.00106775)
(0.17637 -1.11882e-07 -0.000978633)
(0.177652 -1.0005e-07 -0.000893068)
(0.178826 -8.50948e-08 -0.000810984)
(0.179897 -6.92987e-08 -0.000732304)
(0.180868 -5.58097e-08 -0.000656946)
(0.181745 -4.76508e-08 -0.000584822)
(0.18253 -4.63792e-08 -0.000515842)
(0.183227 -5.16751e-08 -0.000449906)
(0.183841 -6.1395e-08 -0.00038691)
(0.184375 -7.26111e-08 -0.000326746)
(0.184832 -8.24718e-08 -0.000269305)
(0.185217 -8.91116e-08 -0.000214479)
(0.185531 -9.21384e-08 -0.000162162)
(0.185778 -9.24582e-08 -0.000112255)
(0.185961 -9.17843e-08 -6.46597e-05)
(0.186084 -9.1929e-08 -1.92818e-05)
(0.186148 -9.41524e-08 2.4019e-05)
(0.186156 -9.8763e-08 6.53781e-05)
(0.186111 -1.05098e-07 0.000104791)
(0.186015 -1.11822e-07 0.000142276)
(0.185871 -1.17266e-07 0.000177962)
(0.18568 -1.19878e-07 0.000211967)
(0.185446 -1.18686e-07 0.000244388)
(0.185169 -1.13383e-07 0.000275311)
(0.184852 -1.04398e-07 0.000304817)
(0.184497 -9.2801e-08 0.000332978)
(0.184104 -7.98564e-08 0.000359864)
(0.183677 -6.69538e-08 0.000385537)
(0.183215 -5.52504e-08 0.000410061)
(0.182722 -4.55914e-08 0.000433494)
(0.182197 -3.84377e-08 0.000455894)
(0.181643 -3.37853e-08 0.000477315)
(0.18106 -3.14743e-08 0.000497813)
(0.18045 -3.11316e-08 0.000517441)
(0.179813 -3.22319e-08 0.000536248)
(0.179152 -3.43944e-08 0.000554283)
(0.178466 -3.72498e-08 0.000571594)
(0.177758 -4.05202e-08 0.000588224)
(0.177026 -4.40191e-08 0.000604213)
(0.176274 -4.75903e-08 0.000619602)
(0.1755 -5.11272e-08 0.000634426)
(0.174707 -5.45004e-08 0.000648718)
(0.173894 -5.75614e-08 0.000662511)
(0.173062 -6.01198e-08 0.000675832)
(0.172213 -6.1993e-08 0.000688711)
(0.171346 -6.30171e-08 0.000701171)
(0.170462 -6.31009e-08 0.000713236)
(0.169561 -6.21757e-08 0.000724929)
(0.168644 -6.0314e-08 0.00073627)
(0.167712 -5.75804e-08 0.00074728)
(0.166765 -5.41844e-08 0.000757976)
(0.165803 -5.03962e-08 0.000768379)
(0.164827 -4.65166e-08 0.000778505)
(0.163837 -4.28236e-08 0.000788373)
(0.162834 -3.95723e-08 0.000798)
(0.161817 -3.70595e-08 0.000807405)
(0.160787 -3.54414e-08 0.000816606)
(0.159745 -3.48247e-08 0.000825622)
(0.158689 -3.52701e-08 0.000834473)
(0.157622 -3.66978e-08 0.000843177)
(0.156543 -3.9024e-08 0.000851754)
(0.155451 -4.20241e-08 0.000860227)
(0.154348 -4.55077e-08 0.000868614)
(0.153233 -4.92578e-08 0.000876939)
(0.152107 -5.3027e-08 0.000885224)
(0.150969 -5.65525e-08 0.000893492)
(0.14982 -5.96668e-08 0.000901767)
(0.148659 -6.21034e-08 0.000910074)
(0.147487 -6.36834e-08 0.00091844)
(0.146303 -6.42316e-08 0.000926891)
(0.145107 -6.36149e-08 0.000935456)
(0.1439 -6.17151e-08 0.000944162)
(0.14268 -5.85284e-08 0.00095304)
(0.141448 -5.42415e-08 0.000962119)
(0.140204 -4.90789e-08 0.000971431)
(0.138947 -4.34328e-08 0.000981007)
(0.137677 -3.79085e-08 0.000990878)
(0.136393 -3.30695e-08 0.00100107)
(0.135095 -2.95593e-08 0.00101163)
(0.133783 -2.79336e-08 0.00102256)
(0.132456 -2.8558e-08 0.0010339)
(0.131113 -3.13829e-08 0.00104569)
(0.129755 -3.60468e-08 0.00105794)
(0.12838 -4.1731e-08 0.00107067)
(0.126988 -4.74113e-08 0.00108393)
(0.125578 -5.18963e-08 0.00109773)
(0.124149 -5.41882e-08 0.0011121)
(0.122702 -5.37542e-08 0.00112707)
(0.121234 -5.06056e-08 0.00114266)
(0.119746 -4.53478e-08 0.0011589)
(0.118237 -3.91535e-08 0.0011758)
(0.116705 -3.32942e-08 0.0011934)
(0.115151 -2.8775e-08 0.0012117)
(0.113572 -2.62356e-08 0.00123074)
(0.111968 -2.53866e-08 0.00125053)
(0.110339 -2.5417e-08 0.0012711)
(0.108683 -2.51695e-08 0.00129248)
(0.106999 -2.37076e-08 0.00131469)
(0.105287 -2.0776e-08 0.00133778)
(0.103545 -1.68317e-08 0.00136176)
(0.101773 -1.2994e-08 0.00138667)
(0.0999681 -1.03671e-08 0.00141254)
(0.0981306 -9.56374e-09 0.0014394)
(0.0962591 -1.01615e-08 0.00146729)
(0.0943522 -1.09534e-08 0.00149625)
(0.0924088 -1.05041e-08 0.00152634)
(0.0904276 -8.33782e-09 0.00155759)
(0.0884073 -5.18544e-09 0.00159005)
(0.0863464 -3.14476e-09 0.00162377)
(0.0842436 -4.2717e-09 0.00165879)
(0.0820975 -9.42668e-09 0.00169515)
(0.0799065 -1.71782e-08 0.0017329)
(0.0776692 -2.41302e-08 0.0017721)
(0.0753841 -2.71988e-08 0.00181281)
(0.0730496 -2.52038e-08 0.00185505)
(0.070664 -2.04676e-08 0.00189887)
(0.0682259 -1.74295e-08 0.00194426)
(0.0657335 -1.94473e-08 0.00199124)
(0.0631856 -2.59576e-08 0.0020398)
(0.0605805 -3.24071e-08 0.00208992)
(0.057917 -3.35721e-08 0.00214155)
(0.0551939 -2.82344e-08 0.0021946)
(0.0524101 -2.0993e-08 0.00224893)
(0.0495649 -1.90894e-08 0.00230435)
(0.0466577 -2.55388e-08 0.00236061)
(0.0436887 -3.54452e-08 0.0024174)
(0.0406582 -3.9953e-08 0.00247434)
(0.0375674 -3.49579e-08 0.0025309)
(0.034418 -2.62927e-08 0.00258642)
(0.0312128 -2.42596e-08 0.00264009)
(0.0279557 -3.16913e-08 0.00269093)
(0.0246519 -3.95342e-08 0.00273773)
(0.0213084 -3.71889e-08 0.00277897)
(0.0179338 -2.65135e-08 0.00281279)
(0.0145395 -2.06047e-08 0.00283689)
(0.0111395 -2.5752e-08 0.00284845)
(0.00775162 -3.21025e-08 0.00284388)
(0.00439785 -2.91404e-08 0.00281843)
(0.001111 -2.33078e-08 0.0027639)
(-0.00209392 -2.4153e-08 0.00266161)
(-0.00513437 -2.64221e-08 0.00250651)
(-0.00798439 -2.41073e-08 0.00230031)
(-0.0105685 -2.79602e-08 0.00203212)
(-0.0128085 -3.061e-08 0.00168452)
(-0.0146046 6.28953e-09 0.00123593)
(-0.0158342 6.16466e-08 0.000661526)
(-0.0163352 6.06416e-08 -7.505e-05)
(-0.0160842 5.88124e-08 -0.00103087)
(-0.0144011 1.23026e-08 -0.00240474)
(-0.0118998 -6.8561e-08 -0.0029409)
(-0.00813172 -2.00307e-07 -0.00341156)
(-0.00421304 -1.48231e-07 -0.00316888)
(-0.00189226 -2.84815e-07 -0.0018847)
(-0.00400445 -2.45476e-06 0.00987979)
(-0.00442294 -1.0488e-06 0.00650208)
(-0.00382627 -7.36115e-07 0.00176906)
(-0.00147801 -5.51008e-07 -0.00269532)
(0.00169028 -4.47172e-07 -0.00596543)
(0.00566304 -3.72849e-07 -0.00817837)
(0.0102583 -3.1884e-07 -0.00963302)
(0.0153089 -2.8524e-07 -0.0105414)
(0.0206773 -2.61323e-07 -0.0110757)
(0.0262622 -2.42653e-07 -0.0113661)
(0.0319777 -2.30764e-07 -0.0114899)
(0.0377623 -2.23505e-07 -0.0114998)
(0.0435689 -2.16425e-07 -0.0114304)
(0.0493619 -2.07672e-07 -0.0113047)
(0.0551137 -1.96318e-07 -0.0111381)
(0.0608031 -1.80618e-07 -0.0109412)
(0.0664132 -1.60472e-07 -0.0107214)
(0.0719302 -1.39253e-07 -0.0104838)
(0.0773431 -1.21117e-07 -0.010232)
(0.0826425 -1.07366e-07 -0.00996876)
(0.0878208 -9.65617e-08 -0.00969616)
(0.0928713 -8.75764e-08 -0.00941581)
(0.0977885 -8.11439e-08 -0.0091291)
(0.102568 -7.84693e-08 -0.00883723)
(0.107205 -7.89004e-08 -0.0085413)
(0.111697 -7.97609e-08 -0.00824233)
(0.116042 -7.8277e-08 -0.00794127)
(0.120237 -7.35968e-08 -0.00763906)
(0.124281 -6.69826e-08 -0.0073366)
(0.128174 -6.02094e-08 -0.00703475)
(0.131915 -5.40064e-08 -0.00673436)
(0.135504 -4.77206e-08 -0.0064362)
(0.138942 -4.04087e-08 -0.00614102)
(0.14223 -3.20127e-08 -0.00584952)
(0.145369 -2.38366e-08 -0.00556234)
(0.148362 -1.77174e-08 -0.00528007)
(0.151211 -1.4941e-08 -0.00500324)
(0.153917 -1.54512e-08 -0.00473232)
(0.156485 -1.79669e-08 -0.00446771)
(0.158916 -2.07519e-08 -0.00420976)
(0.161214 -2.25261e-08 -0.00395874)
(0.163382 -2.28907e-08 -0.00371486)
(0.165424 -2.22349e-08 -0.00347831)
(0.167343 -2.12022e-08 -0.0032492)
(0.169142 -2.02057e-08 -0.0030276)
(0.170827 -1.91806e-08 -0.00281354)
(0.172399 -1.77491e-08 -0.002607)
(0.173863 -1.55352e-08 -0.00240793)
(0.175223 -1.25056e-08 -0.00221626)
(0.176482 -9.10189e-09 -0.00203188)
(0.177644 -6.0799e-09 -0.00185465)
(0.178712 -4.22578e-09 -0.00168445)
(0.17969 -4.00212e-09 -0.00152109)
(0.180582 -5.37846e-09 -0.00136442)
(0.18139 -7.82368e-09 -0.00121424)
(0.182118 -1.05145e-08 -0.00107035)
(0.182769 -1.26132e-08 -0.000932554)
(0.183346 -1.35365e-08 -0.00080064)
(0.183853 -1.31044e-08 -0.000674398)
(0.184291 -1.15215e-08 -0.000553617)
(0.184664 -9.2905e-09 -0.000438089)
(0.184975 -6.96333e-09 -0.000327605)
(0.185226 -5.01022e-09 -0.000221953)
(0.185419 -3.652e-09 -0.000120917)
(0.185557 -2.87057e-09 -2.42866e-05)
(0.185642 -2.41656e-09 6.80995e-05)
(0.185676 -1.88736e-09 0.000156367)
(0.185662 -9.33657e-10 0.000240694)
(0.185602 6.95836e-10 0.000321288)
(0.185496 3.05346e-09 0.00039834)
(0.185348 5.99931e-09 0.000472028)
(0.185159 9.26782e-09 0.000542519)
(0.18493 1.24925e-08 0.000609974)
(0.184664 1.52985e-08 0.000674545)
(0.184361 1.73963e-08 0.000736377)
(0.184023 1.85908e-08 0.000795608)
(0.183651 1.88116e-08 0.000852373)
(0.183248 1.81158e-08 0.0009068)
(0.182813 1.66424e-08 0.000959012)
(0.182348 1.46017e-08 0.00100913)
(0.181854 1.22251e-08 0.00105726)
(0.181333 9.72656e-09 0.00110352)
(0.180785 7.30135e-09 0.00114802)
(0.180211 5.10171e-09 0.00119084)
(0.179612 3.23426e-09 0.00123209)
(0.178989 1.75896e-09 0.00127186)
(0.178342 7.19578e-10 0.00131022)
(0.177673 1.32311e-10 0.00134727)
(0.176982 -9.5095e-12 0.00138308)
(0.17627 2.65563e-10 0.00141771)
(0.175537 9.21359e-10 0.00145123)
(0.174784 1.90458e-09 0.00148371)
(0.174011 3.13907e-09 0.0015152)
(0.17322 4.54965e-09 0.00154575)
(0.17241 6.03638e-09 0.00157543)
(0.171582 7.50121e-09 0.00160427)
(0.170737 8.84707e-09 0.00163232)
(0.169874 9.98067e-09 0.00165962)
(0.168995 1.08287e-08 0.00168623)
(0.1681 1.13437e-08 0.00171217)
(0.167188 1.15036e-08 0.00173749)
(0.166262 1.13113e-08 0.00176223)
(0.165319 1.07954e-08 0.00178644)
(0.164362 1.00159e-08 0.00181014)
(0.16339 9.03838e-09 0.0018334)
(0.162404 7.95617e-09 0.00185625)
(0.161403 6.83685e-09 0.00187874)
(0.160388 5.78224e-09 0.0019009)
(0.159359 4.86755e-09 0.0019228)
(0.158317 4.14323e-09 0.00194447)
(0.157261 3.65304e-09 0.00196598)
(0.156191 3.41033e-09 0.00198736)
(0.155108 3.42556e-09 0.00200867)
(0.154011 3.68731e-09 0.00202997)
(0.152901 4.16797e-09 0.00205132)
(0.151777 4.84566e-09 0.00207277)
(0.15064 5.68135e-09 0.00209439)
(0.149488 6.64268e-09 0.00211623)
(0.148324 7.683e-09 0.00213836)
(0.147145 8.75093e-09 0.00216084)
(0.145951 9.77984e-09 0.00218374)
(0.144744 1.06879e-08 0.00220712)
(0.143521 1.14036e-08 0.00223105)
(0.142284 1.18253e-08 0.00225559)
(0.141031 1.18862e-08 0.00228081)
(0.139762 1.1534e-08 0.00230677)
(0.138478 1.07554e-08 0.00233354)
(0.137176 9.59709e-09 0.00236118)
(0.135858 8.16938e-09 0.00238974)
(0.134521 6.65219e-09 0.0024193)
(0.133167 5.27112e-09 0.00244989)
(0.131794 4.24983e-09 0.00248158)
(0.130401 3.76631e-09 0.00251443)
(0.128989 3.91384e-09 0.00254847)
(0.127556 4.64292e-09 0.00258377)
(0.126101 5.76986e-09 0.00262037)
(0.124625 7.01769e-09 0.00265831)
(0.123126 8.06277e-09 0.00269765)
(0.121603 8.62624e-09 0.00273842)
(0.120056 8.57865e-09 0.00278067)
(0.118484 7.93618e-09 0.00282445)
(0.116886 6.90442e-09 0.00286979)
(0.115262 5.78129e-09 0.00291674)
(0.11361 4.85613e-09 0.00296536)
(0.111929 4.28314e-09 0.00301569)
(0.110219 4.01187e-09 0.00306777)
(0.108478 3.82246e-09 0.00312167)
(0.106707 3.41128e-09 0.00317744)
(0.104903 2.57369e-09 0.00323512)
(0.103065 1.33824e-09 0.00329479)
(0.101194 -4.56865e-11 0.00335649)
(0.0992865 -1.19737e-09 0.0034203)
(0.097343 -1.85412e-09 0.00348628)
(0.095362 -2.04258e-09 0.0035545)
(0.0933422 -2.14918e-09 0.00362502)
(0.0912826 -2.71265e-09 0.00369792)
(0.0891819 -4.09563e-09 0.00377324)
(0.0870389 -6.14488e-09 0.00385107)
(0.0848526 -8.17984e-09 0.00393144)
(0.0826216 -9.31345e-09 0.0040144)
(0.0803448 -9.05551e-09 0.0041)
(0.078021 -7.72488e-09 0.00418824)
(0.075649 -6.3952e-09 0.00427912)
(0.0732278 -6.17724e-09 0.0043726)
(0.0707561 -7.35177e-09 0.0044686)
(0.0682332 -9.04218e-09 0.00456702)
(0.0656582 -9.72749e-09 0.00466767)
(0.0630303 -8.59864e-09 0.00477034)
(0.0603491 -6.39996e-09 0.00487471)
(0.0576143 -4.98938e-09 0.00498037)
(0.0548259 -5.76987e-09 0.00508678)
(0.0519844 -8.13416e-09 0.0051933)
(0.0490905 -9.76746e-09 0.00529911)
(0.0461456 -8.8899e-09 0.00540321)
(0.0431517 -6.30859e-09 0.00550438)
(0.0401114 -4.83138e-09 0.00560113)
(0.0370285 -6.14678e-09 0.00569166)
(0.0339076 -8.53773e-09 0.00577381)
(0.0307545 -8.68241e-09 0.00584498)
(0.0275766 -5.93168e-09 0.00590205)
(0.0243829 -3.5255e-09 0.00594126)
(0.0211844 -4.22223e-09 0.00595806)
(0.0179944 -6.20199e-09 0.00594694)
(0.0148293 -6.03067e-09 0.0059011)
(0.0117083 -4.50016e-09 0.00581188)
(0.00865535 -5.06934e-09 0.00566862)
(0.00569598 -6.48373e-09 0.00545429)
(0.00286411 -4.27553e-09 0.00515515)
(0.000194438 -9.63231e-10 0.00475802)
(-0.0022663 -3.49886e-09 0.00424094)
(-0.00446503 -9.92739e-09 0.00357869)
(-0.00634619 -1.17092e-08 0.00274012)
(-0.00784694 -6.29912e-09 0.00169068)
(-0.00889626 1.42206e-09 0.000400074)
(-0.00945609 1.52047e-08 -0.00115244)
(-0.00951594 3.84432e-08 -0.00282698)
(-0.00901087 2.66031e-08 -0.00433274)
(-0.00761863 -1.55996e-08 -0.00556341)
(-0.00514459 -2.9086e-08 -0.00585947)
(-0.00271134 -2.29948e-07 -0.00519317)
(-0.00400326 -2.45445e-06 0.00987622)
(-0.00442206 -1.04854e-06 0.00649735)
(-0.00382499 -7.35935e-07 0.00176498)
(-0.0014768 -5.50949e-07 -0.00269894)
(0.00169138 -4.47139e-07 -0.00596855)
(0.00566398 -3.7282e-07 -0.00818108)
(0.0102591 -3.18817e-07 -0.00963543)
(0.0153095 -2.8522e-07 -0.0105436)
(0.0206778 -2.61306e-07 -0.0110777)
(0.0262626 -2.42639e-07 -0.0113679)
(0.031978 -2.30752e-07 -0.0114916)
(0.0377625 -2.23494e-07 -0.0115014)
(0.0435691 -2.16415e-07 -0.0114319)
(0.0493619 -2.07663e-07 -0.011306)
(0.0551137 -1.9631e-07 -0.0111393)
(0.0608031 -1.80611e-07 -0.0109424)
(0.0664131 -1.60466e-07 -0.0107225)
(0.0719301 -1.39248e-07 -0.0104848)
(0.077343 -1.21113e-07 -0.0102329)
(0.0826424 -1.07363e-07 -0.00996965)
(0.0878207 -9.65588e-08 -0.00969697)
(0.0928711 -8.75739e-08 -0.00941657)
(0.0977883 -8.11417e-08 -0.0091298)
(0.102567 -7.84672e-08 -0.00883788)
(0.107205 -7.88985e-08 -0.0085419)
(0.111697 -7.9759e-08 -0.00824288)
(0.116042 -7.82752e-08 -0.00794178)
(0.120237 -7.35952e-08 -0.00763953)
(0.124281 -6.69812e-08 -0.00733703)
(0.128174 -6.02082e-08 -0.00703515)
(0.131914 -5.40054e-08 -0.00673472)
(0.135503 -4.77197e-08 -0.00643653)
(0.138941 -4.0408e-08 -0.00614132)
(0.142229 -3.20122e-08 -0.0058498)
(0.145369 -2.38362e-08 -0.00556259)
(0.148362 -1.77171e-08 -0.0052803)
(0.151211 -1.49407e-08 -0.00500345)
(0.153917 -1.54509e-08 -0.00473251)
(0.156484 -1.79666e-08 -0.00446788)
(0.158915 -2.07516e-08 -0.00420991)
(0.161213 -2.25258e-08 -0.00395887)
(0.163382 -2.28904e-08 -0.00371498)
(0.165423 -2.22346e-08 -0.00347841)
(0.167342 -2.12019e-08 -0.00324929)
(0.169142 -2.02054e-08 -0.00302768)
(0.170826 -1.91804e-08 -0.00281361)
(0.172399 -1.77489e-08 -0.00260706)
(0.173863 -1.5535e-08 -0.00240798)
(0.175223 -1.25054e-08 -0.00221631)
(0.176482 -9.10179e-09 -0.00203192)
(0.177644 -6.07984e-09 -0.00185469)
(0.178712 -4.22574e-09 -0.00168448)
(0.17969 -4.00209e-09 -0.00152112)
(0.180581 -5.37841e-09 -0.00136444)
(0.18139 -7.82361e-09 -0.00121426)
(0.182118 -1.05144e-08 -0.00107037)
(0.182769 -1.26131e-08 -0.000932569)
(0.183346 -1.35364e-08 -0.000800652)
(0.183852 -1.31043e-08 -0.000674408)
(0.184291 -1.15214e-08 -0.000553626)
(0.184664 -9.29043e-09 -0.000438098)
(0.184975 -6.96328e-09 -0.000327615)
(0.185225 -5.01019e-09 -0.000221964)
(0.185419 -3.65197e-09 -0.00012093)
(0.185557 -2.87055e-09 -2.43e-05)
(0.185642 -2.41655e-09 6.80867e-05)
(0.185676 -1.88735e-09 0.000156356)
(0.185662 -9.33651e-10 0.000240685)
(0.185601 6.95832e-10 0.000321283)
(0.185496 3.05344e-09 0.000398339)
(0.185348 5.99927e-09 0.00047203)
(0.185159 9.26776e-09 0.000542525)
(0.18493 1.24925e-08 0.000609984)
(0.184663 1.52984e-08 0.000674557)
(0.18436 1.73962e-08 0.000736391)
(0.184023 1.85907e-08 0.000795625)
(0.183651 1.88115e-08 0.000852392)
(0.183247 1.81157e-08 0.000906821)
(0.182813 1.66423e-08 0.000959035)
(0.182348 1.46016e-08 0.00100915)
(0.181854 1.2225e-08 0.00105729)
(0.181333 9.7265e-09 0.00110355)
(0.180785 7.30131e-09 0.00114805)
(0.180211 5.10168e-09 0.00119087)
(0.179612 3.23424e-09 0.00123212)
(0.178989 1.75895e-09 0.00127189)
(0.178342 7.19574e-10 0.00131025)
(0.177673 1.3231e-10 0.0013473)
(0.176982 -9.50945e-12 0.0013831)
(0.17627 2.65561e-10 0.00141773)
(0.175537 9.21354e-10 0.00145125)
(0.174784 1.90457e-09 0.00148373)
(0.174011 3.13906e-09 0.00151522)
(0.17322 4.54963e-09 0.00154577)
(0.17241 6.03635e-09 0.00157545)
(0.171582 7.50118e-09 0.00160429)
(0.170737 8.84703e-09 0.00163234)
(0.169874 9.98063e-09 0.00165964)
(0.168995 1.08287e-08 0.00168625)
(0.1681 1.13436e-08 0.00171219)
(0.167188 1.15035e-08 0.00173751)
(0.166261 1.13112e-08 0.00176225)
(0.165319 1.07954e-08 0.00178646)
(0.164362 1.00158e-08 0.00181017)
(0.16339 9.03834e-09 0.00183343)
(0.162404 7.95614e-09 0.00185628)
(0.161403 6.83682e-09 0.00187876)
(0.160388 5.78222e-09 0.00190093)
(0.159359 4.86753e-09 0.00192282)
(0.158317 4.14321e-09 0.0019445)
(0.157261 3.65303e-09 0.001966)
(0.156191 3.41032e-09 0.00198738)
(0.155108 3.42555e-09 0.00200869)
(0.154011 3.68729e-09 0.00203)
(0.152901 4.16796e-09 0.00205135)
(0.151777 4.84564e-09 0.0020728)
(0.150639 5.68132e-09 0.00209441)
(0.149488 6.64265e-09 0.00211626)
(0.148323 7.68297e-09 0.00213839)
(0.147144 8.7509e-09 0.00216087)
(0.145951 9.7798e-09 0.00218377)
(0.144744 1.06878e-08 0.00220715)
(0.143521 1.14036e-08 0.00223107)
(0.142284 1.18252e-08 0.00225562)
(0.141031 1.18861e-08 0.00228084)
(0.139762 1.1534e-08 0.0023068)
(0.138478 1.07554e-08 0.00233357)
(0.137176 9.59705e-09 0.00236121)
(0.135858 8.16934e-09 0.00238977)
(0.134521 6.65217e-09 0.00241932)
(0.133167 5.2711e-09 0.00244992)
(0.131794 4.24981e-09 0.00248161)
(0.130401 3.76629e-09 0.00251445)
(0.128989 3.91382e-09 0.0025485)
(0.127556 4.64291e-09 0.0025838)
(0.126101 5.76984e-09 0.0026204)
(0.124625 7.01766e-09 0.00265834)
(0.123126 8.06274e-09 0.00269768)
(0.121603 8.62621e-09 0.00273845)
(0.120056 8.57862e-09 0.0027807)
(0.118484 7.93615e-09 0.00282448)
(0.116886 6.90439e-09 0.00286982)
(0.115262 5.78126e-09 0.00291678)
(0.11361 4.85611e-09 0.00296539)
(0.111929 4.28312e-09 0.00301572)
(0.110219 4.01186e-09 0.00306781)
(0.108478 3.82245e-09 0.00312171)
(0.106707 3.41127e-09 0.00317748)
(0.104903 2.57368e-09 0.00323516)
(0.103065 1.33824e-09 0.00329483)
(0.101194 -4.56863e-11 0.00335653)
(0.0992865 -1.19737e-09 0.00342034)
(0.097343 -1.85412e-09 0.00348632)
(0.095362 -2.04257e-09 0.00355454)
(0.0933422 -2.14918e-09 0.00362507)
(0.0912826 -2.71264e-09 0.00369796)
(0.0891819 -4.09562e-09 0.00377329)
(0.0870389 -6.14485e-09 0.00385111)
(0.0848526 -8.17981e-09 0.00393148)
(0.0826216 -9.31341e-09 0.00401445)
(0.0803448 -9.05547e-09 0.00410005)
(0.078021 -7.72485e-09 0.00418829)
(0.075649 -6.39518e-09 0.00427917)
(0.0732278 -6.17721e-09 0.00437265)
(0.0707561 -7.35174e-09 0.00446865)
(0.0682332 -9.04215e-09 0.00456706)
(0.0656582 -9.72744e-09 0.00466773)
(0.0630303 -8.5986e-09 0.0047704)
(0.0603491 -6.39993e-09 0.00487477)
(0.0576143 -4.98936e-09 0.00498042)
(0.054826 -5.76984e-09 0.00508684)
(0.0519844 -8.13412e-09 0.00519335)
(0.0490905 -9.76742e-09 0.00529917)
(0.0461456 -8.88985e-09 0.00540327)
(0.0431517 -6.30856e-09 0.00550445)
(0.0401115 -4.83136e-09 0.0056012)
(0.0370286 -6.14675e-09 0.00569173)
(0.0339076 -8.53768e-09 0.00577388)
(0.0307546 -8.68236e-09 0.00584506)
(0.0275766 -5.93164e-09 0.00590213)
(0.0243829 -3.52548e-09 0.00594134)
(0.0211844 -4.2222e-09 0.00595814)
(0.0179945 -6.20195e-09 0.00594703)
(0.0148294 -6.03063e-09 0.00590119)
(0.0117083 -4.50013e-09 0.00581198)
(0.00865539 -5.0693e-09 0.00566872)
(0.00569602 -6.48368e-09 0.00545439)
(0.00286414 -4.2755e-09 0.00515526)
(0.000194466 -9.63224e-10 0.00475813)
(-0.00226626 -3.49883e-09 0.00424105)
(-0.00446497 -9.9273e-09 0.0035788)
(-0.00634612 -1.17091e-08 0.00274022)
(-0.00784687 -6.29899e-09 0.0016908)
(-0.00889616 1.42194e-09 0.000400233)
(-0.00945597 1.51998e-08 -0.00115228)
(-0.00951582 3.84171e-08 -0.00282692)
(-0.00901113 2.66067e-08 -0.00433254)
(-0.00761901 -1.56272e-08 -0.00556293)
(-0.00514436 -2.91341e-08 -0.00585887)
(-0.00271059 -2.30132e-07 -0.00519282)
(-0.00191963 -3.74389e-06 0.0140577)
(-6.86219e-05 -9.0409e-07 0.00538152)
(0.00265373 -4.91435e-07 -0.00126776)
(0.00596011 -3.58657e-07 -0.00640571)
(0.00952397 -2.86976e-07 -0.0101764)
(0.0134103 -2.32735e-07 -0.0128591)
(0.0176114 -1.95155e-07 -0.014717)
(0.0220933 -1.69585e-07 -0.0159607)
(0.0268103 -1.50983e-07 -0.0167574)
(0.03171 -1.3863e-07 -0.0172349)
(0.0367403 -1.31257e-07 -0.0174825)
(0.041857 -1.26147e-07 -0.0175638)
(0.0470223 -1.21235e-07 -0.0175232)
(0.0522051 -1.15483e-07 -0.0173922)
(0.0573794 -1.07966e-07 -0.0171928)
(0.0625241 -9.81142e-08 -0.0169408)
(0.0676213 -8.67292e-08 -0.0166476)
(0.0726564 -7.58325e-08 -0.0163213)
(0.0776167 -6.69905e-08 -0.0159681)
(0.0824916 -6.01734e-08 -0.0155927)
(0.0872721 -5.457e-08 -0.0151987)
(0.0919504 -5.00054e-08 -0.0147892)
(0.0965197 -4.70747e-08 -0.0143666)
(0.100974 -4.60805e-08 -0.0139332)