/*--------------------------------*- C++ -*----------------------------------*\
  =========                 |
  \\      /  F ield         | OpenFOAM: The Open Source CFD Toolbox
   \\    /   O peration     | Website:  https://openfoam.org
    \\  /    A nd           | Version:  8
     \\/     M anipulation  |
\*---------------------------------------------------------------------------*/
FoamFile
{
    version     2.0;
    format      ascii;
    class       volScalarField;
    location    "1300";
    object      alphat;
}
// * * * * * * * * * * * * * * * * * * * * * * * * * * * * * * * * * * * * * //

dimensions      [1 -1 -1 0 0 0 0];

internalField   nonuniform List<scalar> 
46000
(
2.79104e-08
1.40712e-07
3.02692e-07
4.76558e-07
6.54992e-07
8.38411e-07
1.02322e-06
1.2042e-06
1.37945e-06
1.54749e-06
1.70875e-06
1.86016e-06
2.00234e-06
2.13506e-06
2.25807e-06
2.37119e-06
2.47435e-06
2.56753e-06
2.65083e-06
2.7244e-06
2.78846e-06
2.84327e-06
2.88914e-06
2.92641e-06
2.95552e-06
2.97883e-06
2.9972e-06
3.00907e-06
3.01459e-06
3.01418e-06
3.00834e-06
2.99757e-06
2.98235e-06
2.96317e-06
2.94051e-06
2.9148e-06
2.88651e-06
2.85604e-06
2.82379e-06
2.79014e-06
2.75543e-06
2.71998e-06
2.68409e-06
2.64802e-06
2.61202e-06
2.57624e-06
2.54093e-06
2.50635e-06
2.47256e-06
2.43967e-06
2.40779e-06
2.37698e-06
2.34734e-06
2.3189e-06
2.29171e-06
2.26583e-06
2.24127e-06
2.21805e-06
2.19617e-06
2.17564e-06
2.15644e-06
2.13864e-06
2.12304e-06
2.10887e-06
2.09601e-06
2.08443e-06
2.07415e-06
2.06515e-06
2.05743e-06
2.051e-06
2.04586e-06
2.04202e-06
2.03948e-06
2.03824e-06
2.03831e-06
2.03969e-06
2.04239e-06
2.04642e-06
2.05178e-06
2.05848e-06
2.06652e-06
2.07591e-06
2.08665e-06
2.09878e-06
2.11227e-06
2.12711e-06
2.14333e-06
2.16093e-06
2.17992e-06
2.2003e-06
2.22207e-06
2.24524e-06
2.26981e-06
2.29578e-06
2.32316e-06
2.35194e-06
2.38212e-06
2.4137e-06
2.44669e-06
2.48107e-06
2.51684e-06
2.554e-06
2.59255e-06
2.63247e-06
2.67377e-06
2.71643e-06
2.76044e-06
2.8058e-06
2.8525e-06
2.90054e-06
2.94989e-06
3.00056e-06
3.05253e-06
3.1058e-06
3.16036e-06
3.21621e-06
3.27335e-06
3.33176e-06
3.39146e-06
3.45244e-06
3.51471e-06
3.57827e-06
3.64314e-06
3.70931e-06
3.77682e-06
3.84567e-06
3.9159e-06
3.98751e-06
4.06054e-06
4.13502e-06
4.21098e-06
4.28845e-06
4.36747e-06
4.44809e-06
4.53033e-06
4.61423e-06
4.69984e-06
4.78719e-06
4.8763e-06
4.96721e-06
5.05993e-06
5.15447e-06
5.25083e-06
5.34898e-06
5.4489e-06
5.55053e-06
5.65377e-06
5.75853e-06
5.86465e-06
5.97196e-06
6.08021e-06
6.18914e-06
6.29842e-06
6.40766e-06
6.5164e-06
6.62412e-06
6.73023e-06
6.83405e-06
6.93482e-06
7.03172e-06
7.12383e-06
7.21015e-06
7.2896e-06
7.36103e-06
7.42324e-06
7.47496e-06
7.51489e-06
7.54171e-06
7.55413e-06
7.55109e-06
7.53371e-06
7.50013e-06
7.44781e-06
7.37546e-06
7.28222e-06
7.16742e-06
7.03062e-06
6.87161e-06
6.6904e-06
6.48729e-06
6.26283e-06
6.01788e-06
5.7536e-06
5.47141e-06
5.17303e-06
4.8604e-06
4.5357e-06
4.20127e-06
3.85958e-06
3.5131e-06
3.16425e-06
2.81488e-06
2.46301e-06
2.11662e-06
1.77208e-06
1.42518e-06
1.07788e-06
7.28395e-07
3.64145e-07
7.38607e-08
2.79101e-08
1.40707e-07
3.02682e-07
4.76543e-07
6.54974e-07
8.38394e-07
1.0232e-06
1.20418e-06
1.37943e-06
1.54746e-06
1.70873e-06
1.86014e-06
2.00231e-06
2.13504e-06
2.25805e-06
2.37117e-06
2.47433e-06
2.56751e-06
2.65082e-06
2.72439e-06
2.78844e-06
2.84326e-06
2.88913e-06
2.9264e-06
2.95551e-06
2.97882e-06
2.99719e-06
3.00906e-06
3.01457e-06
3.01417e-06
3.00833e-06
2.99756e-06
2.98234e-06
2.96316e-06
2.94049e-06
2.91479e-06
2.8865e-06
2.85603e-06
2.82378e-06
2.79013e-06
2.75541e-06
2.71996e-06
2.68407e-06
2.648e-06
2.612e-06
2.57622e-06
2.54091e-06
2.50634e-06
2.47255e-06
2.43966e-06
2.40777e-06
2.37697e-06
2.34732e-06
2.31888e-06
2.29169e-06
2.26581e-06
2.24125e-06
2.21804e-06
2.19616e-06
2.17562e-06
2.15642e-06
2.13862e-06
2.12303e-06
2.10885e-06
2.09599e-06
2.08442e-06
2.07413e-06
2.06513e-06
2.05741e-06
2.05098e-06
2.04585e-06
2.042e-06
2.03946e-06
2.03822e-06
2.03829e-06
2.03967e-06
2.04237e-06
2.0464e-06
2.05175e-06
2.05845e-06
2.06649e-06
2.07588e-06
2.08663e-06
2.09876e-06
2.11224e-06
2.12708e-06
2.1433e-06
2.1609e-06
2.17989e-06
2.20027e-06
2.22204e-06
2.24521e-06
2.26978e-06
2.29575e-06
2.32313e-06
2.35191e-06
2.38209e-06
2.41367e-06
2.44665e-06
2.48103e-06
2.51681e-06
2.55397e-06
2.59252e-06
2.63244e-06
2.67374e-06
2.7164e-06
2.76041e-06
2.80577e-06
2.85247e-06
2.9005e-06
2.94986e-06
3.00052e-06
3.0525e-06
3.10577e-06
3.16033e-06
3.21618e-06
3.27332e-06
3.33174e-06
3.39143e-06
3.45241e-06
3.51468e-06
3.57824e-06
3.64311e-06
3.70929e-06
3.77679e-06
3.84565e-06
3.91587e-06
3.98748e-06
4.06051e-06
4.13499e-06
4.21095e-06
4.28843e-06
4.36745e-06
4.44807e-06
4.53031e-06
4.61421e-06
4.69982e-06
4.78717e-06
4.87628e-06
4.96719e-06
5.05991e-06
5.15445e-06
5.25081e-06
5.34897e-06
5.44889e-06
5.55051e-06
5.65376e-06
5.75851e-06
5.86464e-06
5.97194e-06
6.0802e-06
6.18913e-06
6.29841e-06
6.40765e-06
6.51639e-06
6.62411e-06
6.73022e-06
6.83404e-06
6.93481e-06
7.03171e-06
7.12382e-06
7.21014e-06
7.28959e-06
7.36103e-06
7.42324e-06
7.47496e-06
7.51489e-06
7.54171e-06
7.55414e-06
7.5511e-06
7.53372e-06
7.50014e-06
7.44782e-06
7.37548e-06
7.28223e-06
7.16744e-06
7.03065e-06
6.87164e-06
6.69043e-06
6.48731e-06
6.26286e-06
6.01791e-06
5.75363e-06
5.47145e-06
5.17306e-06
4.86044e-06
4.53574e-06
4.20131e-06
3.85961e-06
3.51313e-06
3.16427e-06
2.8149e-06
2.46303e-06
2.11663e-06
1.77209e-06
1.42519e-06
1.07789e-06
7.28405e-07
3.64152e-07
7.3862e-08
1.32706e-07
6.5456e-06
1.47023e-05
2.08427e-05
2.58651e-05
3.01124e-05
3.36917e-05
3.68379e-05
3.96448e-05
4.21617e-05
4.44245e-05
4.64704e-05
4.83148e-05
4.9972e-05
5.14555e-05
5.27774e-05
5.39491e-05
5.4981e-05
5.58831e-05
5.66647e-05
5.73344e-05
5.79003e-05
5.83697e-05
5.87482e-05
5.90357e-05
5.92144e-05
5.93141e-05
5.93501e-05
5.93332e-05
5.9271e-05
5.91694e-05
5.90337e-05
5.88682e-05
5.86769e-05
5.84633e-05
5.82307e-05
5.79819e-05
5.77195e-05
5.74458e-05
5.7163e-05
5.68731e-05
5.65779e-05
5.6279e-05
5.5978e-05
5.56764e-05
5.53757e-05
5.50773e-05
5.47815e-05
5.44892e-05
5.42015e-05
5.39194e-05
5.36437e-05
5.3375e-05
5.31141e-05
5.28615e-05
5.26179e-05
5.23836e-05
5.21591e-05
5.19447e-05
5.17404e-05
5.15458e-05
5.13586e-05
5.11709e-05
5.09946e-05
5.08308e-05
5.068e-05
5.05426e-05
5.04188e-05
5.03087e-05
5.02127e-05
5.01307e-05
5.00628e-05
5.00091e-05
4.99698e-05
4.99449e-05
4.99344e-05
4.99385e-05
4.9957e-05
4.999e-05
5.00374e-05
5.00994e-05
5.01757e-05
5.02663e-05
5.0371e-05
5.04901e-05
5.06232e-05
5.07703e-05
5.09313e-05
5.1106e-05
5.12941e-05
5.14956e-05
5.17103e-05
5.19379e-05
5.21783e-05
5.24312e-05
5.26963e-05
5.29735e-05
5.32625e-05
5.35629e-05
5.38746e-05
5.41973e-05
5.45307e-05
5.48744e-05
5.52282e-05
5.55918e-05
5.59649e-05
5.63473e-05
5.67385e-05
5.71385e-05
5.75467e-05
5.79631e-05
5.83873e-05
5.88191e-05
5.92583e-05
5.97045e-05
6.01578e-05
6.06178e-05
6.10843e-05
6.15574e-05
6.20367e-05
6.25223e-05
6.3014e-05
6.35118e-05
6.40156e-05
6.45255e-05
6.50414e-05
6.55634e-05
6.60915e-05
6.66258e-05
6.71663e-05
6.77132e-05
6.82665e-05
6.88263e-05
6.93927e-05
6.99658e-05
7.05457e-05
7.11324e-05
7.1726e-05
7.23263e-05
7.29334e-05
7.3547e-05
7.4167e-05
7.47931e-05
7.54249e-05
7.60618e-05
7.67031e-05
7.73482e-05
7.79959e-05
7.86451e-05
7.92945e-05
7.99423e-05
8.05868e-05
8.12259e-05
8.1857e-05
8.24775e-05
8.30844e-05
8.36744e-05
8.42437e-05
8.47884e-05
8.53041e-05
8.57862e-05
8.62297e-05
8.66294e-05
8.69796e-05
8.72745e-05
8.75081e-05
8.76742e-05
8.77663e-05
8.77776e-05
8.76997e-05
8.75191e-05
8.7218e-05
8.67982e-05
8.62573e-05
8.55917e-05
8.47971e-05
8.38695e-05
8.28055e-05
8.16022e-05
8.02573e-05
7.87695e-05
7.71378e-05
7.53622e-05
7.34432e-05
7.13817e-05
6.91792e-05
6.68368e-05
6.43558e-05
6.17359e-05
5.89755e-05
5.60693e-05
5.30072e-05
4.97732e-05
4.62849e-05
4.24013e-05
3.78345e-05
3.19099e-05
2.35902e-05
1.14126e-05
3.22184e-07
1.32704e-07
6.5452e-06
1.47015e-05
2.08416e-05
2.58638e-05
3.01109e-05
3.36902e-05
3.68364e-05
3.96432e-05
4.21602e-05
4.44229e-05
4.64688e-05
4.83133e-05
4.99705e-05
5.1454e-05
5.2776e-05
5.39477e-05
5.49797e-05
5.58818e-05
5.66634e-05
5.73331e-05
5.78991e-05
5.83686e-05
5.8747e-05
5.90347e-05
5.92135e-05
5.93132e-05
5.93492e-05
5.93324e-05
5.92702e-05
5.91687e-05
5.90329e-05
5.88674e-05
5.86762e-05
5.84626e-05
5.823e-05
5.79812e-05
5.77188e-05
5.74452e-05
5.71624e-05
5.68725e-05
5.65773e-05
5.62785e-05
5.59775e-05
5.5676e-05
5.53753e-05
5.50769e-05
5.47811e-05
5.44888e-05
5.42012e-05
5.39191e-05
5.36433e-05
5.33747e-05
5.31138e-05
5.28612e-05
5.26176e-05
5.23833e-05
5.21589e-05
5.19444e-05
5.17401e-05
5.15455e-05
5.13583e-05
5.11705e-05
5.09942e-05
5.08304e-05
5.06795e-05
5.05421e-05
5.04182e-05
5.03082e-05
5.02121e-05
5.013e-05
5.00621e-05
5.00084e-05
4.99691e-05
4.99441e-05
4.99336e-05
4.99376e-05
4.99561e-05
4.9989e-05
5.00365e-05
5.00983e-05
5.01746e-05
5.02652e-05
5.03699e-05
5.04889e-05
5.0622e-05
5.07691e-05
5.09301e-05
5.11047e-05
5.12928e-05
5.14943e-05
5.1709e-05
5.19366e-05
5.21769e-05
5.24298e-05
5.26949e-05
5.29721e-05
5.3261e-05
5.35615e-05
5.38732e-05
5.41958e-05
5.45292e-05
5.48729e-05
5.52267e-05
5.55903e-05
5.59635e-05
5.63458e-05
5.67371e-05
5.7137e-05
5.75452e-05
5.79616e-05
5.83858e-05
5.88176e-05
5.92568e-05
5.97031e-05
6.01563e-05
6.06163e-05
6.10829e-05
6.1556e-05
6.20353e-05
6.25209e-05
6.30126e-05
6.35104e-05
6.40143e-05
6.45242e-05
6.50401e-05
6.55621e-05
6.60902e-05
6.66245e-05
6.71651e-05
6.77119e-05
6.82652e-05
6.88251e-05
6.93915e-05
6.99646e-05
7.05445e-05
7.11313e-05
7.17248e-05
7.23251e-05
7.29322e-05
7.35459e-05
7.41659e-05
7.4792e-05
7.54238e-05
7.60607e-05
7.6702e-05
7.73471e-05
7.79948e-05
7.86441e-05
7.92934e-05
7.99413e-05
8.05858e-05
8.12248e-05
8.18559e-05
8.24764e-05
8.30833e-05
8.36733e-05
8.42426e-05
8.47873e-05
8.53031e-05
8.57852e-05
8.62287e-05
8.66283e-05
8.69785e-05
8.72734e-05
8.75071e-05
8.76732e-05
8.77654e-05
8.77767e-05
8.76988e-05
8.75182e-05
8.72171e-05
8.67973e-05
8.62565e-05
8.55909e-05
8.47963e-05
8.38688e-05
8.28048e-05
8.16015e-05
8.02567e-05
7.87689e-05
7.71373e-05
7.53617e-05
7.34428e-05
7.13813e-05
6.91788e-05
6.68365e-05
6.43554e-05
6.17356e-05
5.89752e-05
5.6069e-05
5.30069e-05
4.97729e-05
4.62846e-05
4.2401e-05
3.78343e-05
3.19096e-05
2.359e-05
1.14126e-05
3.22182e-07
2.83669e-07
1.44926e-05
3.49508e-05
5.07452e-05
6.32957e-05
7.36108e-05
8.23457e-05
8.99152e-05
9.65731e-05
0.000102476
0.000107724
0.000112397
0.000116551
0.000120232
0.000123481
0.000126336
0.000128829
0.000130994
0.000132859
0.000134451
0.000135797
0.000136918
0.000137837
0.000138569
0.000139124
0.000139498
0.000139724
0.00013983
0.000139839
0.000139768
0.000139629
0.000139435
0.000139192
0.00013891
0.000138594
0.000138249
0.000137879
0.000137489
0.000137082
0.000136659
0.000136224
0.000135778
0.000135323
0.000134861
0.000134394
0.000133923
0.000133449
0.000132975
0.000132501
0.000132028
0.000131558
0.000131092
0.000130632
0.000130179
0.000129734
0.000129298
0.000128873
0.000128458
0.000128056
0.000127664
0.000127284
0.000126912
0.000126542
0.000126185
0.000125844
0.000125521
0.000125218
0.000124935
0.000124674
0.000124435
0.000124218
0.000124024
0.000123853
0.000123704
0.00012358
0.000123479
0.000123402
0.000123348
0.000123319
0.000123313
0.000123331
0.000123374
0.00012344
0.000123529
0.000123643
0.00012378
0.000123941
0.000124125
0.000124332
0.000124562
0.000124815
0.00012509
0.000125388
0.000125707
0.000126048
0.000126411
0.000126794
0.000127199
0.000127623
0.000128068
0.000128532
0.000129015
0.000129518
0.000130039
0.000130577
0.000131134
0.000131708
0.000132299
0.000132906
0.000133529
0.000134169
0.000134823
0.000135493
0.000136178
0.000136877
0.000137591
0.000138318
0.00013906
0.000139815
0.000140584
0.000141366
0.000142162
0.000142971
0.000143794
0.00014463
0.00014548
0.000146343
0.00014722
0.000148111
0.000149016
0.000149935
0.000150868
0.000151815
0.000152776
0.000153753
0.000154743
0.000155748
0.000156767
0.0001578
0.000158847
0.000159907
0.00016098
0.000162064
0.000163159
0.000164263
0.000165376
0.000166494
0.000167617
0.00016874
0.000169863
0.000170981
0.000172091
0.000173188
0.000174268
0.000175326
0.000176356
0.000177353
0.000178308
0.000179216
0.000180068
0.000180857
0.000181573
0.000182208
0.000182752
0.000183195
0.000183527
0.000183738
0.000183816
0.00018375
0.000183527
0.000183124
0.000182524
0.000181721
0.00018071
0.000179483
0.000178034
0.000176356
0.000174441
0.000172283
0.000169877
0.000167215
0.000164293
0.000161105
0.000157644
0.000153903
0.000149875
0.000145547
0.000140906
0.000135931
0.000130592
0.000124844
0.000118614
0.000111783
0.000104122
9.52342e-05
8.43862e-05
7.02223e-05
5.04323e-05
2.29002e-05
6.90212e-07
2.83662e-07
1.44918e-05
3.49485e-05
5.07418e-05
6.32917e-05
7.36064e-05
8.23411e-05
8.99105e-05
9.65683e-05
0.000102471
0.00010772
0.000112392
0.000116546
0.000120227
0.000123477
0.000126331
0.000128826
0.00013099
0.000132855
0.000134448
0.000135793
0.000136915
0.000137834
0.000138566
0.000139121
0.000139495
0.000139721
0.000139828
0.000139837
0.000139766
0.000139627
0.000139432
0.00013919
0.000138908
0.000138592
0.000138247
0.000137878
0.000137488
0.00013708
0.000136657
0.000136222
0.000135776
0.000135321
0.000134859
0.000134392
0.000133921
0.000133448
0.000132973
0.000132499
0.000132026
0.000131556
0.00013109
0.00013063
0.000130177
0.000129732
0.000129297
0.000128871
0.000128457
0.000128054
0.000127663
0.000127282
0.00012691
0.00012654
0.000126183
0.000125842
0.000125519
0.000125215
0.000124933
0.000124672
0.000124432
0.000124215
0.000124021
0.00012385
0.000123701
0.000123577
0.000123476
0.000123398
0.000123345
0.000123315
0.000123309
0.000123328
0.00012337
0.000123436
0.000123526
0.000123639
0.000123776
0.000123937
0.000124121
0.000124328
0.000124558
0.000124811
0.000125086
0.000125383
0.000125703
0.000126044
0.000126406
0.00012679
0.000127194
0.000127619
0.000128063
0.000128528
0.000129011
0.000129513
0.000130034
0.000130573
0.00013113
0.000131704
0.000132295
0.000132902
0.000133525
0.000134165
0.000134819
0.000135489
0.000136174
0.000136873
0.000137587
0.000138314
0.000139056
0.000139811
0.00014058
0.000141363
0.000142159
0.000142968
0.000143791
0.000144627
0.000145477
0.00014634
0.000147217
0.000148108
0.000149013
0.000149932
0.000150865
0.000151812
0.000152774
0.00015375
0.00015474
0.000155745
0.000156765
0.000157798
0.000158845
0.000159905
0.000160977
0.000162061
0.000163156
0.000164261
0.000165373
0.000166492
0.000167614
0.000168738
0.000169861
0.000170979
0.000172089
0.000173186
0.000174266
0.000175324
0.000176354
0.000177351
0.000178306
0.000179214
0.000180066
0.000180855
0.000181571
0.000182206
0.00018275
0.000183193
0.000183526
0.000183736
0.000183815
0.000183749
0.000183526
0.000183123
0.000182522
0.00018172
0.000180709
0.000179482
0.000178034
0.000176355
0.000174441
0.000172283
0.000169877
0.000167215
0.000164293
0.000161105
0.000157644
0.000153904
0.000149875
0.000145547
0.000140906
0.000135931
0.000130592
0.000124844
0.000118615
0.000111783
0.000104122
9.52345e-05
8.43864e-05
7.02224e-05
5.04323e-05
2.29005e-05
6.90209e-07
4.36244e-07
2.02261e-05
5.00626e-05
7.44026e-05
9.39965e-05
0.000110276
0.000124166
0.000136229
0.000146827
0.000156196
0.000164504
0.000171873
0.000178401
0.000184167
0.000189241
0.000193683
0.000197552
0.000200899
0.000203775
0.000206224
0.000208291
0.000210015
0.00021143
0.000212568
0.000213452
0.000214102
0.000214542
0.000214817
0.000214956
0.00021498
0.000214909
0.00021476
0.000214546
0.000214277
0.000213962
0.000213608
0.000213221
0.000212805
0.000212364
0.000211901
0.000211417
0.000210916
0.0002104
0.000209868
0.000209324
0.000208768
0.000208203
0.000207629
0.000207048
0.000206461
0.00020587
0.000205277
0.000204684
0.000204092
0.000203502
0.000202917
0.000202337
0.000201765
0.0002012
0.000200643
0.000200094
0.000199551
0.000199012
0.000198484
0.00019797
0.000197474
0.000196997
0.000196541
0.000196108
0.000195698
0.000195313
0.000194953
0.000194618
0.00019431
0.000194028
0.000193774
0.000193547
0.000193347
0.000193176
0.000193032
0.000192917
0.00019283
0.000192772
0.000192742
0.000192741
0.000192769
0.000192826
0.000192911
0.000193025
0.000193168
0.00019334
0.00019354
0.000193769
0.000194026
0.000194312
0.000194626
0.000194969
0.000195339
0.000195737
0.000196163
0.000196616
0.000197097
0.000197604
0.000198138
0.000198698
0.000199284
0.000199896
0.000200533
0.000201195
0.000201882
0.000202594
0.000203329
0.000204089
0.000204872
0.000205679
0.000206509
0.000207362
0.000208239
0.000209137
0.000210059
0.000211003
0.00021197
0.000212959
0.000213972
0.000215006
0.000216064
0.000217145
0.000218249
0.000219375
0.000220526
0.000221699
0.000222896
0.000224117
0.000225361
0.000226629
0.00022792
0.000229235
0.000230572
0.000231932
0.000233313
0.000234715
0.000236137
0.000237577
0.000239033
0.000240504
0.000241988
0.000243481
0.00024498
0.000246481
0.000247981
0.000249475
0.000250957
0.000252421
0.000253861
0.00025527
0.00025664
0.000257963
0.000259228
0.000260427
0.00026155
0.000262584
0.000263519
0.000264343
0.000265043
0.000265605
0.000266018
0.000266266
0.000266335
0.000266211
0.000265879
0.000265311
0.000264491
0.00026341
0.000262055
0.000260418
0.000258486
0.00025625
0.000253699
0.000250821
0.000247605
0.00024404
0.000240111
0.000235806
0.000231106
0.000225994
0.000220444
0.000214429
0.000207909
0.000200835
0.000193136
0.000184714
0.000175418
0.000165013
0.000153116
0.000139101
0.000121929
9.99148e-05
7.05116e-05
3.15992e-05
1.09221e-06
4.36234e-07
2.0225e-05
5.00593e-05
7.43976e-05
9.39903e-05
0.000110269
0.000124158
0.000136222
0.000146819
0.000156189
0.000164496
0.000171866
0.000178394
0.000184161
0.000189234
0.000193677
0.000197546
0.000200894
0.000203769
0.00020622
0.000208287
0.000210011
0.000211427
0.000212564
0.000213449
0.000214099
0.000214539
0.000214815
0.000214953
0.000214977
0.000214907
0.000214758
0.000214544
0.000214275
0.00021396
0.000213606
0.000213219
0.000212803
0.000212362
0.000211899
0.000211415
0.000210914
0.000210398
0.000209866
0.000209322
0.000208766
0.000208201
0.000207627
0.000207046
0.000206459
0.000205868
0.000205275
0.000204682
0.000204089
0.0002035
0.000202915
0.000202335
0.000201762
0.000201197
0.00020064
0.000200091
0.000199547
0.000199009
0.00019848
0.000197967
0.00019747
0.000196993
0.000196537
0.000196104
0.000195694
0.000195309
0.000194948
0.000194614
0.000194305
0.000194024
0.000193769
0.000193542
0.000193342
0.00019317
0.000193027
0.000192912
0.000192825
0.000192766
0.000192736
0.000192735
0.000192763
0.000192819
0.000192905
0.000193019
0.000193161
0.000193333
0.000193533
0.000193762
0.00019402
0.000194306
0.00019462
0.000194962
0.000195333
0.000195731
0.000196157
0.00019661
0.00019709
0.000197598
0.000198131
0.000198692
0.000199278
0.00019989
0.000200527
0.000201189
0.000201876
0.000202588
0.000203324
0.000204084
0.000204867
0.000205674
0.000206504
0.000207357
0.000208234
0.000209133
0.000210054
0.000210998
0.000211965
0.000212955
0.000213967
0.000215002
0.00021606
0.000217141
0.000218245
0.000219372
0.000220522
0.000221695
0.000222893
0.000224113
0.000225358
0.000226626
0.000227917
0.000229232
0.000230569
0.000231929
0.00023331
0.000234712
0.000236134
0.000237574
0.00023903
0.000240501
0.000241985
0.000243478
0.000244977
0.000246479
0.000247979
0.000249472
0.000250954
0.000252419
0.000253859
0.000255268
0.000256638
0.00025796
0.000259226
0.000260425
0.000261547
0.000262582
0.000263517
0.000264341
0.000265041
0.000265603
0.000266016
0.000266264
0.000266333
0.00026621
0.000265878
0.000265309
0.00026449
0.000263409
0.000262055
0.000260417
0.000258486
0.00025625
0.000253699
0.000250821
0.000247606
0.00024404
0.000240112
0.000235807
0.000231108
0.000225995
0.000220446
0.00021443
0.000207911
0.000200836
0.000193138
0.000184716
0.00017542
0.000165015
0.000153118
0.000139102
0.00012193
9.99155e-05
7.0512e-05
3.15997e-05
1.09221e-06
5.86044e-07
2.46744e-05
6.14307e-05
9.25749e-05
0.000118238
0.000139855
0.000158438
0.000174644
0.000188911
0.000201541
0.000212751
0.000222702
0.000231525
0.000239326
0.000246199
0.000252228
0.000257487
0.000262049
0.000265979
0.000269339
0.000272189
0.000274581
0.000276565
0.000278184
0.000279477
0.000280477
0.000281215
0.000281742
0.000282091
0.000282289
0.000282362
0.000282331
0.000282212
0.000282019
0.000281764
0.000281456
0.000281101
0.000280705
0.000280274
0.000279809
0.000279315
0.000278793
0.000278245
0.000277674
0.000277081
0.000276467
0.000275834
0.000275184
0.000274519
0.00027384
0.000273149
0.000272447
0.000271738
0.000271023
0.000270304
0.000269583
0.000268861
0.00026814
0.000267421
0.000266705
0.000265993
0.000265284
0.000264579
0.000263881
0.000263194
0.000262522
0.000261866
0.000261229
0.000260613
0.00026002
0.00025945
0.000258905
0.000258385
0.000257891
0.000257425
0.000256986
0.000256576
0.000256194
0.000255842
0.000255519
0.000255226
0.000254963
0.000254731
0.000254529
0.000254359
0.00025422
0.000254113
0.000254039
0.000253996
0.000253986
0.000254009
0.000254065
0.000254154
0.000254276
0.000254433
0.000254623
0.000254847
0.000255106
0.000255398
0.000255725
0.000256086
0.000256482
0.000256912
0.000257376
0.000257875
0.000258408
0.000258974
0.000259575
0.000260209
0.000260877
0.000261578
0.000262312
0.00026308
0.00026388
0.000264713
0.000265579
0.000266477
0.000267408
0.000268371
0.000269366
0.000270393
0.000271453
0.000272546
0.00027367
0.000274827
0.000276017
0.000277239
0.000278495
0.000279783
0.000281104
0.000282458
0.000283845
0.000285266
0.000286719
0.000288205
0.000289724
0.000291274
0.000292856
0.000294469
0.000296111
0.000297782
0.00029948
0.000301202
0.000302947
0.000304712
0.000306493
0.000308288
0.000310092
0.000311901
0.000313708
0.000315508
0.000317294
0.00031906
0.000320796
0.000322495
0.000324146
0.000325739
0.000327263
0.000328707
0.000330058
0.000331303
0.000332428
0.000333418
0.00033426
0.000334937
0.000335433
0.000335734
0.000335821
0.000335678
0.000335287
0.000334621
0.000333664
0.0003324
0.000330816
0.000328897
0.000326628
0.000323996
0.000320985
0.000317577
0.000313757
0.000309504
0.000304798
0.000299612
0.000293919
0.000287684
0.000280868
0.000273419
0.000265274
0.000256351
0.00024654
0.000235688
0.000223573
0.000209862
0.000194048
0.000175338
0.000152499
0.000123651
8.61758e-05
3.84527e-05
1.5243e-06
5.86031e-07
2.46733e-05
6.14269e-05
9.25689e-05
0.00011823
0.000139847
0.000158428
0.000174634
0.000188901
0.000201532
0.000212741
0.000222693
0.000231516
0.000239318
0.000246191
0.00025222
0.00025748
0.000262042
0.000265973
0.000269334
0.000272184
0.000274577
0.000276561
0.000278181
0.000279474
0.000280474
0.000281213
0.00028174
0.000282089
0.000282288
0.000282361
0.00028233
0.000282211
0.000282019
0.000281764
0.000281455
0.0002811
0.000280705
0.000280273
0.000279809
0.000279314
0.000278792
0.000278245
0.000277673
0.00027708
0.000276466
0.000275833
0.000275183
0.000274518
0.000273839
0.000273147
0.000272446
0.000271737
0.000271022
0.000270302
0.000269581
0.000268859
0.000268138
0.000267419
0.000266703
0.000265991
0.000265282
0.000264576
0.000263878
0.000263191
0.000262518
0.000261862
0.000261225
0.000260609
0.000260016
0.000259445
0.0002589
0.00025838
0.000257886
0.00025742
0.000256981
0.00025657
0.000256188
0.000255836
0.000255512
0.000255219
0.000254956
0.000254724
0.000254522
0.000254352
0.000254213
0.000254106
0.000254031
0.000253989
0.000253979
0.000254001
0.000254057
0.000254146
0.000254269
0.000254425
0.000254615
0.00025484
0.000255098
0.000255391
0.000255718
0.000256079
0.000256475
0.000256905
0.000257369
0.000257868
0.000258401
0.000258967
0.000259568
0.000260202
0.00026087
0.000261571
0.000262306
0.000263074
0.000263874
0.000264707
0.000265573
0.000266471
0.000267402
0.000268365
0.000269361
0.000270388
0.000271448
0.000272541
0.000273666
0.000274823
0.000276013
0.000277235
0.000278491
0.000279779
0.0002811
0.000282454
0.000283842
0.000285262
0.000286715
0.000288202
0.00028972
0.000291271
0.000292853
0.000294466
0.000296108
0.000297779
0.000299477
0.000301199
0.000302944
0.000304709
0.000306491
0.000308286
0.00031009
0.000311898
0.000313705
0.000315505
0.000317292
0.000319057
0.000320794
0.000322492
0.000324143
0.000325737
0.000327261
0.000328705
0.000330056
0.000331301
0.000332425
0.000333416
0.000334258
0.000334935
0.000335432
0.000335732
0.00033582
0.000335677
0.000335286
0.00033462
0.000333663
0.0003324
0.000330816
0.000328897
0.000326629
0.000323997
0.000320985
0.000317579
0.000313759
0.000309506
0.000304799
0.000299614
0.000293921
0.000287687
0.00028087
0.000273421
0.000265276
0.000256354
0.000246543
0.000235691
0.000223576
0.000209865
0.000194051
0.000175341
0.000152501
0.000123652
8.61767e-05
3.84534e-05
1.52429e-06
7.391e-07
2.82482e-05
7.03533e-05
0.000107043
0.000137868
0.000164129
0.000186857
0.000206767
0.000224349
0.000239953
0.000253834
0.000266185
0.000277163
0.000286896
0.000295498
0.000303068
0.000309699
0.000315475
0.000320477
0.000324781
0.000328455
0.000331568
0.000334178
0.000336341
0.000338107
0.000339521
0.000340622
0.000341462
0.000342081
0.00034251
0.000342781
0.000342916
0.000342937
0.00034286
0.000342699
0.000342465
0.000342166
0.00034181
0.000341402
0.000340947
0.000340448
0.000339909
0.000339332
0.000338719
0.000338074
0.000337397
0.000336691
0.000335959
0.000335202
0.000334424
0.000333625
0.000332808
0.000331977
0.000331132
0.000330277
0.000329414
0.000328544
0.00032767
0.000326793
0.000325915
0.000325037
0.00032416
0.000323284
0.000322413
0.00032155
0.000320699
0.000319861
0.000319041
0.000318239
0.000317458
0.000316699
0.000315963
0.000315252
0.000314567
0.000313908
0.000313276
0.000312673
0.000312098
0.000311552
0.000311036
0.000310551
0.000310096
0.000309672
0.00030928
0.00030892
0.000308593
0.0003083
0.000308039
0.000307813
0.000307622
0.000307467
0.000307347
0.000307264
0.000307217
0.000307209
0.000307238
0.000307306
0.000307413
0.00030756
0.000307746
0.000307973
0.00030824
0.000308549
0.000308898
0.000309289
0.000309721
0.000310195
0.000310711
0.000311269
0.000311869
0.00031251
0.000313193
0.000313919
0.000314686
0.000315495
0.000316345
0.000317238
0.000318172
0.000319149
0.000320166
0.000321226
0.000322328
0.000323472
0.000324657
0.000325885
0.000327155
0.000328468
0.000329823
0.00033122
0.00033266
0.000334142
0.000335667
0.000337234
0.000338844
0.000340495
0.000342187
0.00034392
0.000345693
0.000347504
0.000349353
0.000351238
0.000353156
0.000355106
0.000357084
0.000359087
0.000361112
0.000363154
0.000365208
0.000367268
0.000369329
0.000371383
0.000373422
0.000375439
0.000377423
0.000379365
0.000381253
0.000383076
0.000384822
0.000386476
0.000388026
0.000389456
0.000390751
0.000391896
0.000392872
0.000393664
0.000394254
0.000394625
0.000394756
0.00039463
0.000394228
0.000393522
0.000392495
0.000391129
0.000389406
0.000387309
0.00038482
0.000381919
0.000378587
0.000374802
0.000370538
0.000365768
0.000360462
0.000354584
0.000348091
0.000340935
0.000333058
0.000324387
0.000314835
0.000304288
0.000292599
0.000279567
0.000264909
0.000248215
0.00022888
0.000205992
0.000178181
0.000143441
9.91383e-05
4.41954e-05
1.96543e-06
7.39083e-07
2.8247e-05
7.03493e-05
0.000107037
0.00013786
0.000164119
0.000186847
0.000206756
0.000224338
0.000239942
0.000253823
0.000266175
0.000277153
0.000286887
0.00029549
0.000303061
0.000309692
0.000315469
0.000320472
0.000324776
0.000328451
0.000331564
0.000334175
0.000336339
0.000338106
0.00033952
0.000340621
0.000341462
0.000342081
0.000342511
0.000342782
0.000342917
0.000342938
0.000342862
0.000342701
0.000342466
0.000342168
0.000341812
0.000341404
0.000340949
0.00034045
0.000339911
0.000339334
0.000338721
0.000338075
0.000337399
0.000336693
0.000335961
0.000335204
0.000334425
0.000333626
0.000332809
0.000331977
0.000331133
0.000330277
0.000329414
0.000328544
0.00032767
0.000326793
0.000325915
0.000325036
0.000324159
0.000323282
0.000322411
0.000321548
0.000320697
0.000319859
0.000319038
0.000318236
0.000317455
0.000316695
0.000315959
0.000315248
0.000314563
0.000313903
0.000313272
0.000312668
0.000312093
0.000311547
0.000311031
0.000310545
0.00031009
0.000309666
0.000309274
0.000308914
0.000308587
0.000308293
0.000308033
0.000307807
0.000307615
0.00030746
0.00030734
0.000307256
0.00030721
0.000307201
0.000307231
0.000307299
0.000307406
0.000307552
0.000307739
0.000307966
0.000308233
0.000308542
0.000308891
0.000309282
0.000309715
0.000310189
0.000310705
0.000311263
0.000311862
0.000312504
0.000313187
0.000313913
0.00031468
0.000315489
0.00031634
0.000317233
0.000318167
0.000319144
0.000320162
0.000321222
0.000322324
0.000323467
0.000324653
0.000325881
0.000327152
0.000328464
0.000329819
0.000331217
0.000332657
0.000334139
0.000335664
0.000337231
0.000338841
0.000340492
0.000342184
0.000343917
0.00034569
0.000347502
0.000349351
0.000351235
0.000353154
0.000355103
0.000357082
0.000359085
0.00036111
0.000363152
0.000365206
0.000367266
0.000369327
0.000371381
0.00037342
0.000375437
0.000377421
0.000379363
0.000381251
0.000383074
0.00038482
0.000386474
0.000388024
0.000389454
0.00039075
0.000391894
0.000392871
0.000393663
0.000394253
0.000394624
0.000394755
0.00039463
0.000394228
0.000393522
0.000392495
0.000391129
0.000389406
0.00038731
0.000384821
0.000381921
0.000378589
0.000374804
0.00037054
0.000365771
0.000360465
0.000354587
0.000348094
0.000340939
0.000333061
0.000324391
0.000314838
0.000304292
0.000292603
0.000279571
0.000264913
0.000248219
0.000228884
0.000205995
0.000178184
0.000143443
9.91397e-05
4.41963e-05
1.96543e-06
8.95241e-07
3.12955e-05
7.77844e-05
0.000119099
0.000154323
0.00018461
0.000210979
0.000234172
0.00025472
0.000273006
0.000289314
0.000303865
0.000316836
0.000328374
0.000338606
0.000347647
0.000355602
0.000362566
0.000368632
0.000373884
0.000378403
0.000382265
0.000385538
0.000388288
0.000390574
0.000392447
0.000393956
0.000395155
0.000396087
0.000396789
0.000397295
0.000397631
0.000397822
0.000397886
0.00039784
0.000397697
0.000397466
0.000397156
0.000396775
0.000396328
0.00039582
0.000395256
0.000394638
0.00039397
0.000393256
0.000392499
0.000391702
0.000390868
0.00039
0.000389101
0.000388175
0.000387223
0.00038625
0.000385258
0.00038425
0.000383229
0.000382198
0.000381157
0.000380111
0.000379061
0.000378008
0.000376955
0.000375902