/*--------------------------------*- C++ -*----------------------------------*\
  =========                 |
  \\      /  F ield         | OpenFOAM: The Open Source CFD Toolbox
   \\    /   O peration     | Website:  https://openfoam.org
    \\  /    A nd           | Version:  8
     \\/     M anipulation  |
\*---------------------------------------------------------------------------*/
FoamFile
{
    version     2.0;
    format      ascii;
    class       volScalarField;
    location    "1300";
    object      epsilon;
}
// * * * * * * * * * * * * * * * * * * * * * * * * * * * * * * * * * * * * * //

dimensions      [0 2 -3 0 0 0 0];

internalField   nonuniform List<scalar> 
46000
(
0.512737
2.32715
4.99749
7.85658
10.7855
13.7925
16.8183
19.7792
22.644
25.3896
28.0239
30.4962
32.8175
34.9842
36.9924
38.8392
40.5235
42.0452
43.4058
44.6077
45.6545
46.5506
47.3009
47.9109
48.3875
48.769
49.0699
49.2647
49.3554
49.3493
49.2542
49.0782
48.8294
48.5156
48.1445
47.7235
47.2599
46.7605
46.2318
45.68
45.1106
44.529
43.94
43.3482
42.7573
42.1704
41.5904
41.0229
40.4683
39.9286
39.4054
38.9001
38.414
37.9478
37.5021
37.078
36.6758
36.2958
35.9379
35.6021
35.2884
34.9979
34.7435
34.5126
34.3034
34.1154
33.9486
33.8031
33.6787
33.5756
33.4936
33.433
33.3939
33.3762
33.3799
33.4053
33.4523
33.5211
33.6118
33.7243
33.859
34.0157
34.1948
34.3965
34.6202
34.8663
35.135
35.4263
35.7403
36.077
36.4367
36.8191
37.2245
37.6529
38.1042
38.5785
39.0757
39.5959
40.139
40.705
41.2937
41.9052
42.5393
43.1959
43.8749
44.5763
45.2998
46.0453
46.8127
47.6018
48.4125
49.2447
50.0982
50.9728
51.8686
52.7853
53.723
54.6816
55.661
56.6614
57.6827
58.7251
59.7886
60.8736
61.9801
63.1086
64.2593
65.4326
66.629
67.8489
69.0929
70.3615
71.6553
72.9749
74.321
75.6943
77.0952
78.5243
79.9823
81.4695
82.9861
84.5324
86.1084
87.7136
89.3476
91.0095
92.6978
94.4109
96.1462
97.901
99.6714
101.453
103.241
105.028
106.807
108.57
110.306
112.006
113.657
115.245
116.755
118.171
119.476
120.65
121.674
122.528
123.19
123.639
123.853
123.815
123.544
123.008
122.167
120.998
119.489
117.627
115.405
112.82
109.871
106.563
102.905
98.9104
94.5973
89.9889
85.1127
80.0001
74.6862
69.209
63.6084
57.9247
52.197
46.4558
40.6687
34.9651
29.2881
23.5668
17.8324
12.0586
6.03364
1.35892
0.512723
2.32707
4.99731
7.85634
10.7852
13.7922
16.818
19.7789
22.6437
25.3893
28.0236
30.4959
32.8171
34.9839
36.9921
38.8389
40.5232
42.0449
43.4055
44.6074
45.6543
46.5504
47.3007
47.9107
48.3873
48.7688
49.0697
49.2645
49.3552
49.3491
49.254
49.078
48.8292
48.5153
48.1442
47.7233
47.2597
46.7603
46.2316
45.6797
45.1103
44.5287
43.9397
43.3479
42.757
42.1701
41.5901
41.0226
40.468
39.9283
39.4051
38.8998
38.4136
37.9474
37.5018
37.0777
36.6755
36.2954
35.9375
35.6018
35.2881
34.9975
34.7432
34.5123
34.303
34.115
33.9483
33.8027
33.6784
33.5752
33.4933
33.4327
33.3935
33.3758
33.3796
33.4049
33.4519
33.5207
33.6113
33.7239
33.8585
34.0153
34.1943
34.396
34.6197
34.8658
35.1345
35.4258
35.7398
36.0766
36.4362
36.8187
37.2241
37.6524
38.1038
38.578
39.0753
39.5955
40.1386
40.7045
41.2933
41.9047
42.5388
43.1955
43.8745
44.5758
45.2993
46.0449
46.8123
47.6014
48.4121
49.2443
50.0978
50.9725
51.8682
52.785
53.7227
54.6813
55.6607
56.6611
57.6824
58.7248
59.7883
60.8733
61.9798
63.1083
64.259
65.4323
66.6287
67.8487
69.0926
70.3613
71.6551
72.9747
74.3209
75.6941
77.095
78.5242
79.9821
81.4693
82.986
84.5323
86.1082
87.7135
89.3475
91.0093
92.6977
94.4107
96.1461
97.9009
99.6713
101.453
103.24
105.027
106.807
108.569
110.306
112.006
113.657
115.245
116.755
118.171
119.476
120.65
121.674
122.528
123.19
123.639
123.853
123.816
123.544
123.008
122.167
120.999
119.489
117.627
115.405
112.82
109.872
106.564
102.906
98.911
94.5979
89.9895
85.1132
80.0006
74.6868
69.2096
63.6089
57.9251
52.1974
46.4561
40.669
34.9653
29.2883
23.5669
17.8324
12.0585
6.03362
1.35891
2.61773
2.16404
3.11164
4.23186
5.38974
6.56901
7.75842
8.93866
10.0944
11.2132
12.2951
13.3326
14.3234
15.2651
16.1546
16.9893
17.7668
18.4849
19.1419
19.7365
20.2678
20.7354
21.1395
21.4808
21.7626
21.9948
22.1791
22.3109
22.3898
22.4175
22.3968
22.331
22.2237
22.079
21.9007
21.6929
21.4597
21.2051
20.9327
20.6463
20.3494
20.045
19.7361
19.4255
19.1154
18.8079
18.5049
18.2083
17.9193
17.639
17.3683
17.1079
16.8583
16.6201
16.3932
16.1785
15.9759
15.7855
15.6071
15.4409
15.2869
15.1459
15.0205
14.9077
14.8065
14.7166
14.6376
14.5695
14.5122
14.4656
14.4297
14.4044
14.3899
14.3861
14.393
14.4106
14.439
14.4781
14.5281
14.589
14.6607
14.7435
14.8374
14.9424
15.0585
15.1858
15.3245
15.4745
15.6359
15.8088
15.9932
16.1893
16.397
16.6164
16.8476
17.0905
17.3452
17.6118
17.8902
18.1805
18.4826
18.7966
19.1225
19.4602
19.8097
20.1709
20.5439
20.9285
21.3247
21.7326
22.1519
22.5826
23.0247
23.4782
23.9429
24.4188
24.9059
25.404
25.9133
26.4337
26.9652
27.5077
28.0615
28.6264
29.2027
29.7904
30.3896
31.0005
31.6234
32.2583
32.9057
33.5656
34.2385
34.9245
35.6241
36.3376
37.0652
37.8073
38.5643
39.3362
40.1235
40.9261
41.7443
42.5779
43.4268
44.2907
45.1691
46.0611
46.9659
47.8821
48.808
49.7417
50.6807
51.6219
52.562
53.4968
54.4217
55.3313
56.2197
57.08
57.9049
58.6862
59.4149
60.0816
60.676
61.1876
61.6053
61.918
62.1152
62.1883
62.1355
61.9466
61.6049
61.0987
60.4186
59.558
58.5118
57.2772
55.8535
54.2425
52.4482
50.4774
48.3391
46.045
43.6091
41.0474
38.3777
35.619
32.7915
29.9155
27.011
24.0953
21.1809
18.295
15.4426
12.6536
10.0102
7.57365
5.55687
6.40096
2.61765
2.16404
3.1117
4.23196
5.38988
6.5692
7.75865
8.93892
10.0947
11.2135
12.2954
13.3329
14.3238
15.2655
16.155
16.9897
17.7672
18.4853
19.1423
19.7369
20.2682
20.7358
21.1398
21.4812
21.7629
21.9952
22.1794
22.3113
22.3901
22.4178
22.3971
22.3312
22.2239
22.0792
21.9009
21.6931
21.4599
21.2052
20.9329
20.6465
20.3495
20.045
19.7362
19.4255
19.1154
18.8079
18.5049
18.2082
17.9192
17.6389
17.3682
17.1078
16.8583
16.62
16.3931
16.1784
15.9758
15.7854
15.607
15.4408
15.2868
15.1458
15.0204
14.9076
14.8065
14.7165
14.6375
14.5695
14.5121
14.4656
14.4297
14.4044
14.3899
14.3861
14.3931
14.4107
14.439
14.4782
14.5282
14.589
14.6608
14.7436
14.8375
14.9425
15.0586
15.186
15.3246
15.4747
15.6361
15.809
15.9935
16.1895
16.3973
16.6167
16.8478
17.0908
17.3455
17.6121
17.8905
18.1808
18.483
18.797
19.1229
19.4606
19.81
20.1713
20.5443
20.9289
21.3252
21.733
22.1523
22.5831
23.0252
23.4787
23.9434
24.4193
24.9063
25.4045
25.9138
26.4342
26.9657
27.5083
28.062
28.627
29.2032
29.7909
30.3902
31.0011
31.624
32.2589
32.9062
33.5662
34.2391
34.9251
35.6247
36.3382
37.0658
37.808
38.5649
39.3369
40.1241
40.9268
41.745
42.5786
43.4275
44.2914
45.1698
46.0618
46.9666
47.8828
48.8088
49.7425
50.6814
51.6227
52.5628
53.4976
54.4225
55.3322
56.2206
57.0809
57.9058
58.6871
59.4158
60.0825
60.6769
61.1885
61.6063
61.919
62.1162
62.1893
62.1365
61.9476
61.6059
61.0997
60.4196
59.559
58.5127
57.2781
55.8545
54.2434
52.4491
50.4782
48.3399
46.0458
43.6099
41.0481
38.3783
35.6197
32.7921
29.9161
27.0115
24.0958
21.1813
18.2954
15.4429
12.6538
10.0103
7.57375
5.55687
6.40095
5.48289
3.1449
3.43754
4.09634
4.85709
5.66253
6.48597
7.31209
8.13107
8.93538
9.7205
10.482
11.2167
11.9216
12.5939
13.2312
13.8308
14.3907
14.9086
15.383
15.8121
16.195
16.5308
16.8194
17.0621
17.2615
17.419
17.5334
17.6045
17.6335
17.622
17.5722
17.4869
17.369
17.2217
17.0482
16.8521
16.6366
16.405
16.1607
15.9066
15.6455
15.3803
15.1132
14.8466
14.5822
14.3219
14.0672
13.8192
13.579
13.3476
13.1254
12.913
12.7108
12.5191
12.338
12.1677
12.0083
11.8597
11.7219
11.595
11.4793
11.3754
11.2823
11.1996
11.1268
11.0637
11.0101
10.9659
10.9311
10.9054
10.889
10.8818
10.8837
10.8947
10.915
10.9444
10.983
11.0309
11.0881
11.1546
11.2306
11.316
11.4109
11.5154
11.6295
11.7534
11.887
12.0305
12.184
12.3474
12.5208
12.7044
12.8982
13.1021
13.3163
13.5409
13.7757
14.0209
14.2765
14.5425
14.8188
15.1056
15.4027
15.7101
16.0279
16.356
16.6943
17.0428
17.4014
17.7701
18.1488
18.5374
18.9359
19.3441
19.7621
20.1898
20.627
21.0739
21.5302
21.996
22.4713
22.9561
23.4503
23.9541
24.4675
24.9905
25.5232
26.0659
26.6186
27.1815
27.7548
28.3387
28.9334
29.5392
30.1564
30.7851
31.4258
32.0785
32.7436
33.4212
34.1114
34.8144
35.5302
36.2586
36.9995
37.7523
38.5167
39.2917
40.0765
40.8696
41.6695
42.4742
43.2813
44.0879
44.8908
45.6862
46.4697
47.2363
47.9805
48.6961
49.3765
50.0141
50.6012
51.1293
51.5895
51.9727
52.2697
52.4716
52.5706
52.5605
52.4324
52.1758
51.7819
51.2433
50.5542
49.7105
48.7095
47.551
46.2361
44.7686
43.1539
41.3998
39.5158
37.5136
35.4064
33.2087
30.9366
28.6068
26.2372
23.846
21.4525
19.0777
16.7482
14.4952
12.3664
10.4413
8.87171
8.26355
13.5349
5.48273
3.14496
3.4377
4.09656
4.85736
5.66284
6.48631
7.31246
8.13146
8.93579
9.72093
10.4825
11.2172
11.9221
12.5944
13.2316
13.8313
14.3911
14.9091
15.3834
15.8125
16.1954
16.5311
16.8198
17.0625
17.2619
17.4193
17.5337
17.6049
17.6338
17.6223
17.5725
17.4872
17.3692
17.2219
17.0485
16.8523
16.6368
16.4052
16.1609
15.9067
15.6457
15.3804
15.1134
14.8467
14.5824
14.322
14.0673
13.8193
13.5791
13.3476
13.1255
12.9131
12.7109
12.5191
12.3381
12.1678
12.0084
11.8598
11.722
11.5951
11.4794
11.3755
11.2824
11.1997
11.1269
11.0638
11.0102
10.9661
10.9312
10.9056
10.8892
10.8819
10.8839
10.8949
10.9152
10.9446
10.9833
11.0312
11.0884
11.1549
11.2308
11.3162
11.4112
11.5157
11.6298
11.7537
11.8874
12.0309
12.1843
12.3477
12.5212
12.7048
12.8986
13.1025
13.3168
13.5413
13.7761
14.0214
14.2769
14.5429
14.8193
15.106
15.4032
15.7106
16.0284
16.3565
16.6948
17.0433
17.4019
17.7706
18.1493
18.5379
18.9364
19.3447
19.7627
20.1903
20.6276
21.0744
21.5308
21.9966
22.4719
22.9566
23.4509
23.9547
24.468
24.991
25.5238
26.0665
26.6192
27.1821
27.7553
28.3392
28.934
29.5398
30.157
30.7857
31.4264
32.0791
32.7442
33.4218
34.112
34.815
35.5308
36.2592
37.0001
37.753
38.5173
39.2924
40.0771
40.8703
41.6702
42.4749
43.2819
44.0886
44.8915
45.6869
46.4704
47.237
47.9812
48.6969
49.3772
50.0149
50.602
51.13
51.5902
51.9734
52.2704
52.4723
52.5713
52.5612
52.433
52.1764
51.7825
51.244
50.5548
49.711
48.7101
47.5514
46.2366
44.769
43.1543
41.4001
39.5162
37.5139
35.4066
33.209
30.9368
28.6071
26.2374
23.8462
21.4526
19.0778
16.7484
14.4953
12.3665
10.4414
8.87174
8.26347
13.5349
8.3083
4.26464
4.1081
4.52164
5.09739
5.74133
6.41792
7.10841
7.80101
8.48749
9.1619
9.81955
10.4567
11.0703
11.6575
12.2159
12.7434
13.2378
13.6973
14.1202
14.5051
14.8508
15.1563
15.4213
15.6459
15.8309
15.9772
16.0843
16.1523
16.182
16.1745
16.1316
16.0555
15.9485
15.8135
15.6532
15.4706
15.269
15.0512
14.8204
14.5795
14.3311
14.078
13.8225
13.5668
13.3129
13.0625
12.8171
12.5781
12.3465
12.1232
11.9089
11.7041
11.5094
11.3249
11.151
10.9876
10.835
10.693
10.5618
10.4413
10.3315
10.2327
10.1444
10.0663
9.99791
9.93915
9.88978
9.84966
9.81867
9.79674
9.78379
9.77979
9.7847
9.79852
9.82123
9.85286
9.89342
9.94296
10.0015
10.0691
10.1459
10.2318
10.327
10.4315
10.5453
10.6687
10.8016
10.9441
11.0963
11.2583
11.4301
11.6118
11.8035
12.0052
12.2169
12.4388
12.6708
12.913
13.1654
13.428
13.7008
13.9839
14.2771
14.5805
14.8941
15.2178
15.5515
15.8952
16.2489
16.6124
16.9857
17.3687
17.7614
18.1636
18.5752
18.9963
19.4266
19.8662
20.315
20.7729
21.2399
21.716
22.2011
22.6953
23.1986
23.711
24.2327
24.7636
25.304
25.854
26.4137
26.9833
27.563
28.153
28.7536
29.365
29.9874
30.621
31.2661
31.9228
32.5913
33.2716
33.9638
34.6677
35.3832
36.1098
36.8471
37.5944
38.3506
39.1146
39.8849
40.6595
41.4363
42.2126
42.9853
43.7508
44.5049
45.2431
45.9602
46.6503
47.3072
47.9239
48.493
49.0067
49.4568
49.8347
50.1319
50.34
50.4512
50.4581
50.3524
50.1258
49.7707
49.2808
48.651
47.8776
46.9588
45.894
44.6847
43.3342
41.8476
40.2318
38.4953
36.6484
34.7028
32.6715
30.5689
28.4104
26.2133
23.9963
21.7812
19.5939
17.4674
15.4457
13.5936
12.0203
10.9682
11.3849
21.2574
8.30808
4.26473
4.10831
4.52192
5.09771
5.74169
6.41831
7.10882
7.80144
8.48793
9.16235
9.82001
10.4572
11.0707
11.6579
12.2164
12.7438
13.2382
13.6977
14.1206
14.5055
14.8511
15.1566
15.4216
15.6462
15.8312
15.9775
16.0845
16.1526
16.1822
16.1747
16.1318
16.0557
15.9487
15.8136
15.6533
15.4708
15.2691
15.0514
14.8205
14.5796
14.3312
14.0781
13.8226
13.5669
13.313
13.0626
12.8172
12.5782
12.3466
12.1233
11.909
11.7042
11.5095
11.325
11.151
10.9877
10.8351
10.6931
10.5619
10.4414
10.3317
10.2328
10.1445
10.0664
9.99804
9.93929
9.88992
9.84981
9.81883
9.79691
9.78397
9.77998
9.7849
9.79873
9.82145
9.85309
9.89366
9.94321
10.0018
10.0694
10.1461
10.2321
10.3273
10.4318
10.5457
10.669
10.8019
10.9445
11.0967
11.2587
11.4305
11.6122
11.8039
12.0056
12.2173
12.4392
12.6712
12.9134
13.1658
13.4284
13.7013
13.9843
14.2776
14.581
14.8946
15.2182
15.552
15.8957
16.2494
16.6129
16.9862
17.3692
17.7619
18.1641
18.5757
18.9968
19.4271
19.8667
20.3155
20.7734
21.2404
21.7165
22.2016
22.6958
23.1991
23.7115
24.2332
24.7641
25.3045
25.8545
26.4142
26.9838
27.5635
28.1535
28.7541
29.3655
29.9879
30.6215
31.2666
31.9233
32.5918
33.2722
33.9643
34.6683
35.3837
36.1104
36.8477
37.5949
38.3512
39.1152
39.8854
40.6601
41.4369
42.2132
42.9859
43.7513
44.5055
45.2437
45.9608
46.6509
47.3078
47.9245
48.4936
49.0073
49.4574
49.8353
50.1324
50.3405
50.4517
50.4586
50.3529
50.1262
49.7711
49.2811
48.6513
47.878
46.959
45.8942
44.6849
43.3344
41.8477
40.2319
38.4954
36.6485
34.7029
32.6715
30.5689
28.4104
26.2133
23.9963
21.7812
19.5938
17.4673
15.4456
13.5935
12.0202
10.9682
11.3847
21.2574
11.0372
5.42779
4.90649
5.14135
5.59513
6.14345
6.73896
7.35757
7.98464
8.61021
9.22713
9.83001
10.4147
10.9778
11.5167
12.0292
12.5132
12.9673
13.3897
13.7793
14.1348
14.4552
14.7398
14.9881
15.1998
15.3752
15.5145
15.6177
15.6847
15.7161
15.7128
15.676
15.6074
15.5092
15.3834
15.2327
15.0598
14.8673
14.6582
14.4354
14.2015
13.9593
13.7114
13.4601
13.2078
12.9564
12.7078
12.4635
12.2251
11.9935
11.7699
11.555
11.3495
11.1539
10.9685
10.7937
10.6295
10.4761
10.3336
10.2018
10.081
9.9709
9.87163
9.78294
9.7045
9.63606
9.57738
9.52826
9.48856
9.45814
9.43691
9.42479
9.42171
9.42764
9.44256
9.46645
9.49933
9.54122
9.59215
9.65216
9.7213
9.79964
9.88724
9.98417
10.0905
10.2063
10.3317
10.4668
10.6115
10.7661
10.9306
11.105
11.2895
11.4841
11.6888
11.9038
12.1291
12.3646
12.6105
12.8668
13.1335
13.4105
13.6979
13.9957
14.3039
14.6223
14.951
15.2899
15.6389
15.9981
16.3671
16.7462
17.135
17.5335
17.9417
18.3594
18.7866
19.2231
19.6689
20.1239
20.588
21.0612
21.5434
22.0347
22.5349
23.0442
23.5625
24.0899
24.6264
25.1722
25.7275
26.2922
26.8666
27.451
28.0454
28.65
29.2652
29.8911
30.5279
31.1759
31.8351
32.5057
33.1878
33.8814
34.5863
35.3024
36.0292
36.7663
37.5129
38.268
39.0305
39.7989
40.5713
41.3454
42.1187
42.8881
43.6501
44.4006
45.135
45.8484
46.5349
47.1886
47.8027
48.37
48.883
49.3337
49.714
50.0158
50.231
50.3517
50.3704
50.2794
50.0714
49.7397
49.2789
48.6844
47.9531
47.0833
46.0749
44.9293
43.6493
42.2397
40.7064
39.057
37.3003
35.4466
33.5074
31.4955
29.4255
27.3141
25.1808
23.0493
20.9495
18.921
17.0181
15.3231
13.981
13.3345
14.7261
29.5267
11.0369
5.4279
4.90674
5.14167
5.5955
6.14385
6.73938
7.35801
7.98509
8.61067
9.22759
9.83046
10.4151
10.9782
11.5171
12.0296
12.5136
12.9676
13.39
13.7796
14.1351
14.4555
14.7401
14.9883
15.2
15.3754
15.5147
15.6178
15.6848
15.7162
15.7128
15.676
15.6075
15.5092
15.3835
15.2328
15.0598
14.8674
14.6583
14.4354
14.2015
13.9593
13.7114
13.4601
13.2078
12.9564
12.7078
12.4636
12.2251
11.9935
11.7699
11.555
11.3495
11.1539
10.9685
10.7937
10.6295
10.4762
10.3336
10.2019
10.081
9.97097
9.87171
9.78302
9.70459
9.63615
9.57748
9.52837
9.48868
9.45827
9.43705
9.42494
9.42187
9.42781
9.44273
9.46664
9.49953
9.54143
9.59236
9.65238
9.72153
9.79988
9.88749
9.98443
10.0908
10.2066
10.332
10.4671
10.6118
10.7664
10.9309
11.1053
11.2898
11.4844
11.6892
11.9042
12.1294
12.365
12.6109
12.8672
13.1339
13.4109
13.6983
13.9961
14.3043
14.6227
14.9514
15.2903
15.6394
15.9985
16.3676
16.7466
17.1354
17.534
17.9421
18.3599
18.787
19.2235
19.6693
20.1243
20.5884
21.0616
21.5439
22.0351
22.5353
23.0446
23.5629
24.0903
24.6268
25.1727
25.7279
26.2926
26.8671
27.4514
28.0458
28.6504
29.2656
29.8915
30.5283
31.1763
31.8355
32.5061
33.1882
33.8818
34.5867
35.3028
36.0296
36.7667
37.5133
38.2684
39.031
39.7994
40.5717
41.3459
42.1192
42.8886
43.6505
44.401
45.1355
45.8488
46.5354
47.1891
47.8031
48.3704
48.8834
49.3341
49.7145
50.0162
50.2314
50.3521
50.3708
50.2797
50.0717
49.74
49.2791
48.6845
47.9532
47.0834
46.075
44.9293
43.6493
42.2396
40.7063
39.0569
37.3002
35.4465
33.5072
31.4953
29.4254
27.314
25.1806
23.0491
20.9494
18.9208
17.0179
15.3229
13.9809
13.3344
14.7258
29.5267
13.7982
6.64384
5.78721
5.86967
6.22985
6.71053
7.25206
7.82458
8.41028
8.9973
9.57724
10.144
10.6929
11.2206
11.7245
12.2025
12.6532
13.0752
13.4675
13.8293
14.1598
14.4584
14.7244
14.9576
15.1577
15.3245
15.4582
15.5587
15.6259
15.66
15.6616
15.6316
15.5713
15.4822
15.3663
15.2256
15.0625
14.8794
14.6789
14.4637
14.2364
13.9997
13.756
13.5078
13.2574
13.0069
12.7581
12.5128
12.2725
12.0385
11.8119
11.5936
11.3843
11.1848
10.9954
10.8165
10.6483
10.491
10.3446
10.2092
10.0848
9.97138
9.86884
9.77703
9.69568
9.62456
9.56344
9.51213
9.47048
9.43835
9.41562
9.4022
9.39804
9.40307
9.41728
9.44065
9.47317
9.51488
9.5658
9.62598
9.69546
9.77432
9.86262
9.96044
10.0679
10.185
10.3118
10.4486
10.5953
10.752
10.9188
11.0959
11.2832
11.4809
11.689
11.9076
12.1367
12.3764
12.6267
12.8876
13.1592
13.4414
13.7343
14.0378
14.3519
14.6765
15.0117
15.3573
15.7133
16.0795
16.456
16.8427
17.2393
17.6459
18.0622
18.4883
18.924
19.3693
19.8239
20.2879
20.7611
21.2436
21.7351
22.2358
22.7455
23.2643
23.7922
24.3293
24.8755
25.431
25.9959
26.5703
27.1544
27.7483
28.3522
28.9664
29.5909
30.2261
30.8721
31.5291
32.1972
32.8766
33.5673
34.2692
34.9823
35.7062
36.4407
37.1852
37.9389
38.7008
39.4697
40.2441
41.0221
41.8014
42.5795
43.3532
44.1191
44.8731
45.6107
46.3269
47.0161
47.6723
48.2889
48.859
49.3753
49.83
50.2156
50.5239
50.7473
50.8784
50.9095
50.8338
50.6447
50.3364
49.9039
49.3434
48.6522
47.829
46.8736
45.7872
44.5725
43.2333
41.7746
40.2026
38.5247
36.7494
34.8864
32.9471
30.9447
28.8953
26.8186
24.74
22.6927
20.722
18.892
17.3028
16.1375
15.8447
18.2025
37.9333
13.7979
6.64397
5.7875
5.87002
6.23024
6.71095
7.25249
7.82503
8.41074
8.99775
9.57768
10.1444
10.6933
11.221
11.7249
12.2029
12.6535
13.0755
13.4678
13.8295
14.16
14.4585
14.7246
14.9577
15.1578
15.3246
15.4583
15.5587
15.6258
15.6599
15.6615
15.6315
15.5712
15.4822
15.3662
15.2255
15.0624
14.8793
14.6788
14.4636
14.2363
13.9996
13.7559
13.5077
13.2574
13.0068
12.758
12.5127
12.2724
12.0384
11.8118
11.5935
11.3843
11.1847
10.9953
10.8164
10.6482
10.4909
10.3446
10.2092
10.0848
9.97139
9.86886
9.77705
9.69571
9.62459
9.56348
9.51218
9.47054
9.43842
9.4157
9.40229
9.39814
9.40318
9.4174
9.44077
9.47331
9.51503
9.56596
9.62614
9.69564
9.7745
9.86281
9.96064
10.0681
10.1852
10.3121
10.4488
10.5955
10.7522
10.9191
11.0961
11.2835
11.4812
11.6893
11.9079
12.137
12.3767
12.627
12.8879
13.1595
13.4417
13.7346
14.0381
14.3522
14.6769
15.012
15.3576
15.7136
16.0799
16.4564
16.843
17.2396
17.6462
18.0626
18.4887
18.9244
19.3696
19.8243
20.2882
20.7615
21.2439
21.7355
22.2361
22.7458
23.2646
23.7925
24.3296
24.8758
25.4313
25.9962
26.5706
27.1547
27.7486
28.3525
28.9666
29.5912
30.2264
30.8724
31.5294
32.1975
32.8769
33.5675
34.2695
34.9825
35.7065
36.441
37.1855
37.9392
38.7011
39.47
40.2444
41.0224
41.8017
42.5798
43.3536
44.1194
44.8734
45.611
46.3272
47.0164
47.6726
48.2892
48.8593
49.3756
49.8303
50.2158
50.5242
50.7476
50.8786
50.9097
50.834
50.6448
50.3364
49.9039
49.3434
48.6522
47.8289
46.8735
45.7871
44.5724
43.2331
41.7744
40.2024
38.5245
36.7491
34.8862
32.9468
30.9444
28.895
26.8183
24.7397
22.6924
20.7217
18.8918
17.3025
16.1372
15.8444
18.2021
37.9333
16.5943
7.90776
6.72874
6.6738
6.9552
7.38228
7.88295
8.42144
8.97672
9.53502
10.0868
10.6251
11.1451
11.6433
12.1171
12.565
12.9857
13.3784
13.7428
14.0784
14.385
14.6623
14.9102
15.1285
15.3169
15.4754
15.604
15.7023
15.7703
15.808
15.8155
15.7934
15.7425
15.664
15.5592
15.43
15.2781
15.1059
14.9154
14.7093
14.49
14.2599
14.0215
13.7773
13.5294
13.2802
13.0315
12.7852
12.5429
12.306
12.0757
11.8532
11.6394
11.4348
11.2401
11.0557
10.8819
10.719
10.5671
10.4263
10.2966
10.1779
10.0702
9.97341
9.88725
9.81152
9.74601
9.69053
9.64494
9.60907
9.58283
9.56611
9.55883
9.56095
9.57244
9.59327
9.62344
9.66299
9.71193
9.77031
9.83819
9.91564
10.0027
10.0995
10.2061
10.3226
10.4491
10.5857
10.7325
10.8895
11.0569
11.2347
11.4231
11.6221
11.8318
12.0522
12.2834
12.5255
12.7784
13.0423
13.317
13.6027
13.8993
14.2068
14.5251
14.8543
15.1942
15.5448
15.906
16.2778
16.66
17.0526
17.4554
17.8684
18.2914
18.7243
19.167
19.6194
20.0814
20.5529
21.0338
21.5241
22.0237
22.5324
23.0504
23.5776
24.114
24.6597
25.2146
25.7788
26.3526
26.9359
27.5289
28.1318
28.7447
29.3679
30.0015
30.6457
31.3006
31.9666
32.6435
33.3317
34.031
34.7415
35.463
36.1951
36.9376
37.6898
38.451
39.2201
39.9959
40.7768
41.5609
42.3459
43.1293
43.9078
44.6781
45.436
46.1772
46.8967
47.589
48.2482
48.8679
49.4415
49.9619
50.4218
50.8136
51.13
51.3636
51.5073
51.5542
51.4978
51.3325
51.053
50.6553
50.1358
49.4925
48.724
47.8304
46.8124
45.6722
44.4125
43.0372
41.551
39.9595
38.269
36.4875
34.6243
32.6912
30.7031
28.6798
26.6476
24.6427
22.7151
20.9383
19.4299
18.4111
18.4348
21.6987
46.2327
16.5939
7.90791
6.72905
6.67417
6.9556
7.38271
7.88339
8.42189
8.97717
9.53545
10.0872
10.6255
11.1455
11.6436
12.1174
12.5653
12.9859
13.3786
13.743
14.0785
14.3851
14.6624
14.9103
15.1285
15.3169
15.4754
15.6039
15.7022
15.7702
15.8078
15.8153
15.7932
15.7423
15.6638
15.559
15.4298
15.2779
15.1056
14.9152
14.7091
14.4897
14.2596
14.0213
13.777
13.5292
13.28
13.0313
12.785
12.5427
12.3058
12.0756
11.8531
11.6392
11.4346
11.2399
11.0556
10.8818
10.7189
10.567
10.4262
10.2965
10.1778
10.0701
9.97335
9.8872
9.81148
9.74598
9.69051
9.64493
9.60907
9.58284
9.56612
9.55886
9.56099
9.57248
9.59332
9.62351
9.66306
9.71201
9.7704
9.8383
9.91575
10.0028
10.0997
10.2063
10.3228
10.4493
10.5859
10.7326
10.8897
11.0571
11.2349
11.4233
11.6223
11.832
12.0524
12.2836
12.5257
12.7786
13.0425
13.3172
13.6029
13.8995
14.207
14.5254
14.8545
15.1944
15.545
15.9063
16.2781
16.6603
17.0529
17.4557
17.8686
18.2916
18.7245
19.1672
19.6196
20.0816
20.5531
21.0341
21.5243
22.0239
22.5327
23.0507
23.5778
24.1142
24.6599
25.2148
25.779
26.3528
26.9361
27.5291
28.132
28.7449
29.3681
30.0017
30.6458
31.3008
31.9667
32.6437
33.3319
34.0312
34.7417
35.4631
36.1953
36.9378
37.69
38.4512
39.2203
39.9961
40.777
41.5611
42.3461
43.1294
43.908
44.6783
45.4362
46.1774
46.8969
47.5892
48.2484
48.8681
49.4417
49.9621
50.4219
50.8137
51.1301
51.3637
51.5074
51.5542
51.4978
51.3325
51.053
50.6552
50.1357
49.4923
48.7239
47.8302
46.8122
45.6719
44.4122
43.0369
41.5507
39.9591
38.2687
36.4872
34.6239
32.6908
30.7027
28.6794
26.6473
24.6423
22.7147
20.9379
19.4295
18.4108
18.4344
21.6981
46.2327
19.4518
9.22261
7.72103
7.53698
7.74775
8.12876
8.59527
9.10563
9.63562
10.1696
10.6969
11.21
11.7038
12.1746
12.6203
13.0394
13.4313
13.7957
14.1327
14.4426
14.7255
14.9817
15.2114
15.4146
15.5914
15.7417
15.8654
15.9622
16.0317
16.0737
16.088
16.0749
16.0348
15.9682
15.8762
15.76
15.6212
15.4616
15.283
15.0878
14.8782
14.6564
14.425
14.1862
13.9423
13.6955
13.448
13.2015
12.9578
12.7185
12.4849
12.2583
12.0396
11.8296
11.6291
11.4386
11.2585
11.0891
10.9305
10.783
10.6466
10.5212
10.407
10.3036
10.211
10.129
10.0573
9.99579
9.94433
9.90275
9.87096
9.84884
9.83632
9.83336
9.8399
9.85594
9.88148
9.91654
9.96114
10.0153
10.0792
10.1528
10.2362
10.3295
10.4327
10.5461
10.6696
10.8034
10.9476
11.1023
11.2675
11.4434
11.6301
11.8276
12.036
12.2554
12.4858
12.7273
12.9799
13.2436
13.5185
13.8046
14.1018
14.4101
14.7295
15.06
15.4014
15.7538
16.117
16.491
16.8756
17.2708
17.6764
18.0923
18.5185
18.9548
19.4011
19.8572
20.3232
20.7988
21.2839
21.7786
22.2828
22.7963
23.3191
23.8513
24.3928
24.9437
25.504
26.0737
26.653
27.242
27.8408
28.4495
29.0683
29.6973
30.3368
30.9869
31.6478
32.3196
33.0025
33.6964
34.4015
35.1175
35.8445
36.5819
37.3295
38.0866
38.8524
39.6258
40.4056
41.1902
41.9776
42.7655
43.5514
44.3321
45.1042
45.8637
46.6062
47.3269
48.0204
48.681
49.3027
49.8789
50.4031
50.8681
51.2672
51.5932
51.8393
51.9989
52.0659
52.0347
51.9
51.6576
51.3038
50.8359
50.252
49.5509
48.7324
47.7971
46.7461
45.5812
44.3049
42.9199
41.4298
39.8389
38.1527
36.3785
34.5261
32.6091
30.6469
28.6662
26.7052
24.8187
23.0887
21.6496
20.7604
21.0752
25.1992
54.4449
19.4514
9.22279
7.72136
7.53737
7.74817
8.12919
8.5957
9.10606
9.63604
10.17
10.6973
11.2104
11.7041
12.1749
12.6206
13.0396
13.4315
13.7958
14.1328
14.4426
14.7255
14.9816
15.2113
15.4145
15.5913
15.7416
15.8652
15.9619
16.0314
16.0734
16.0877
16.0746
16.0344
15.9678
15.8758
15.7597
15.6209
15.4612
15.2827
15.0875
14.8778
14.6561
14.4246
14.1858
13.942
13.6952
13.4477
13.2012
12.9575
12.7182
12.4846
12.258
12.0393
11.8294
11.6289
11.4384
11.2583
11.0889
10.9303
10.7828
10.6464
10.5211
10.4068
10.3035
10.2109
10.1288
10.0572
9.99569
9.94423
9.90267
9.87089
9.84878
9.83627
9.83331
9.83987
9.85592
9.88147
9.91653
9.96115
10.0154
10.0792
10.1528
10.2362
10.3295
10.4328
10.5462
10.6697
10.8035
10.9477
11.1024
11.2676
11.4435
11.6302
11.8277
12.0361
12.2555
12.4859
12.7274
12.98
13.2438
13.5187
13.8047
14.1019
14.4103
14.7297
15.0602
15.4016
15.754
16.1172
16.4911
16.8757
17.2709
17.6765
18.0925
18.5187
18.9549
19.4012
19.8574
20.3233
20.7989
21.2841
21.7788
22.2829
22.7964
23.3192
23.8514
24.3929
24.9438
25.5041
26.0738
26.6531
27.2421
27.8408
28.4495
29.0683
29.6974
30.3369
30.987
31.6479
32.3197
33.0025
33.6965
34.4015
35.1176
35.8445
36.582
37.3295
38.0866
38.8524
39.6259
40.4056
41.1902
41.9776
42.7656
43.5514
44.3322
45.1043
45.8638
46.6063
47.3269
48.0204
48.6811
49.3027
49.879
50.4031
50.8681
51.2671
51.5931
51.8392
51.9989
52.0658
52.0345
51.8998
51.6574
51.3036
50.8357
50.2517
49.5505
48.732
47.7967
46.7457
45.5808
44.3045
42.9195
41.4294
39.8385
38.1523
36.3781
34.5256
32.6087
30.6464
28.6657
26.7048
24.8182
23.0882
21.6492
20.7599
21.0747
25.1984
54.445
22.3941
10.582
8.75886
8.44964
8.594
8.93278
9.36848
9.85352
10.3605
10.8721
11.3764
11.8656
12.3342
12.7786
13.1968
13.5879
13.9515
14.2881
14.5983
14.8827
15.1423
15.3778
15.5896
15.7782
15.9438
16.0864
16.2058
16.3017
16.3736
16.4208
16.4431
16.4402
16.4119
16.3586
16.2808
16.1793
16.0551
15.9098
15.7449
15.5623
15.3641
15.1524
14.9295
14.6977
14.4592
14.2163
13.971
13.7253
13.4811
13.2401
13.0037
12.7732
12.5498
12.3345
12.128
11.9309
11.7438
11.5671
11.4011
11.2459
11.1016
10.9683
10.846
10.7347
10.634
10.544
10.4643
10.3949
10.3356
10.2863
10.2468
10.2171
10.197
10.1866
10.1858
10.1946
10.2129
10.2409
10.2785
10.3259
10.383
10.4499
10.5268
10.6136
10.7106
10.8178
10.9353
11.0633
11.2017
11.3509
11.5107
11.6814
11.863
12.0556
12.2593
12.4742
12.7003
12.9376
13.1863
13.4462
13.7176
14.0002
14.2942
14.5995
14.9161
15.2438
15.5828
15.9329
16.2939
16.6659
17.0487
17.4423
17.8464
18.2611
18.6862
19.1215
19.567
20.0225
20.4879
20.9632
21.4482
21.9428
22.4471
22.9608
23.4841
24.0168
24.5589
25.1106
25.6718
26.2425
26.8229
27.4131
28.0131
28.6232
29.2434
29.8739
30.5149
31.1665
31.8289
32.5021
33.1864
33.8817
34.588
35.3052
36.0332
36.7715
37.5197
38.2772
39.0431
39.8165
40.5959
41.3797
42.1661
42.9527
43.737
44.5158
45.2858
46.0432
46.7835
47.5022
48.1941
48.8538
49.4754
50.0529
50.58
51.0502
51.4572
51.7945
52.0558
52.2352
52.3275
52.3276
52.2313
52.0349
51.7355
51.3307
50.8189
50.1991
49.4708
48.634
47.689
46.6362
45.4764
44.2106
42.8401
41.3666
39.7933
38.1249
36.3692
34.5383
32.6502
30.732
28.8235
26.9832
25.3013
23.9284
23.1595
23.747
28.6859
62.4223
22.3937
10.5822
8.75921
8.45004
8.59441
8.93321
9.3689
9.85392
10.3609
10.8724
11.3768
11.8659
12.3344
12.7788
13.197
13.588
13.9516
14.2881
14.5982
14.8827
15.1422
15.3776
15.5894
15.778
15.9436
16.0861
16.2055
16.3014
16.3732
16.4204
16.4427
16.4397
16.4115
16.3582
16.2804
16.1788
16.0547
15.9093
15.7444
15.5618
15.3636
15.1519
14.9291
14.6972
14.4588
14.2158
13.9706
13.7249
13.4807
13.2397
13.0033
12.7729
12.5495
12.3341
12.1276
11.9306
11.7435
11.5668
11.4008
11.2456
11.1013
10.9681
10.8458
10.7344
10.6338
10.5438
10.4641
10.3948
10.3355
10.2861
10.2466
10.2169
10.1969
10.1865
10.1857
10.1945
10.2128
10.2408
10.2785
10.3258
10.3829
10.4498
10.5267
10.6136
10.7106
10.8178
10.9353
11.0633
11.2017
11.3509
11.5107
11.6814
11.863
12.0557
12.2594
12.4742
12.7003
12.9377
13.1863
13.4463
13.7176
14.0003
14.2943
14.5996
14.9161
15.2439
15.5829
15.9329
16.294
16.666
17.0488
17.4423
17.8465
18.2612
18.6862
19.1215
19.567
20.0225
20.4879
20.9632
21.4482
21.9428
22.4471
22.9608
23.4841
24.0168
24.5589
25.1106
25.6717
26.2425
26.8229
27.413
28.0131
28.6231
29.2433
29.8738
30.5148
31.1664
31.8288
32.5021
33.1863
33.8816
34.5879
35.3051
36.0331
36.7714
37.5196
38.2771
39.043
39.8164
40.5958
41.3796
42.166
42.9526
43.7369
44.5157
45.2857
46.0431
46.7834
47.5021
48.194
48.8537
49.4753
50.0528
50.5799
51.0501
51.457
51.7943
52.0556
52.235
52.3272
52.3273
52.231
52.0346
51.7351
51.3303
50.8185
50.1987
49.4704
48.6336
47.6885
46.6357
45.476
44.2101
42.8396
41.3661
39.7928
38.1244
36.3687
34.5377
32.6497
30.7315
28.8229
26.9826
25.3007
23.9278
23.1589
23.7463
28.685
62.4224
25.4512
11.9897
9.84046
9.40644
9.48585
9.78403
10.1904
10.6513
11.1363
11.6262
12.1084
12.5742
13.0182
13.4369
13.8284
14.1922
14.5286
14.8383
15.1226
15.3827
15.6201
15.8359
16.031
16.2061
16.3616
16.4975
16.6138
16.71
16.7853
16.8391
16.8705
16.8788
16.8638
16.825
16.7627
16.6771
16.569
16.4394
16.2895
16.121
15.9356
15.7354
15.5224
15.2988
15.0669
14.8289
14.5869
14.343
14.099
13.8568
13.618
13.384
13.156
12.9351
12.7223
12.5183
12.3237
12.1389
11.9645
11.8005
11.6472
11.5047
11.3729
11.252
11.1417
11.0418
10.9523
10.873
10.8037
10.7444
10.6949
10.6552
10.6251
10.6047
10.5939
10.5928
10.6012
10.6193
10.647
10.6845
10.7318
10.7891
10.8563
10.9335
11.021
11.1188
11.227
11.3457
11.475
11.6151
11.766
11.9278
12.1008
12.2848
12.48
12.6866
12.9045
13.1337
13.3744
13.6266
13.8902
14.1653
14.4519
14.7499
15.0593
15.38
15.7121
16.0554
16.4098
16.7753
17.1517
17.539
17.937