/*--------------------------------*- C++ -*----------------------------------*\
  =========                 |
  \\      /  F ield         | OpenFOAM: The Open Source CFD Toolbox
   \\    /   O peration     | Website:  https://openfoam.org
    \\  /    A nd           | Version:  8
     \\/     M anipulation  |
\*---------------------------------------------------------------------------*/
FoamFile
{
    version     2.0;
    format      ascii;
    class       volScalarField;
    location    "1300";
    object      k;
}
// * * * * * * * * * * * * * * * * * * * * * * * * * * * * * * * * * * * * * //

dimensions      [0 2 -2 0 0 0 0];

internalField   nonuniform List<scalar> 
46000
(
0.000405801
0.00193999
0.00416616
0.00654952
0.00899079
0.0114968
0.0140187
0.0164864
0.0188741
0.0211625
0.0233582
0.0254191
0.0273541
0.0291605
0.0308349
0.0323749
0.0337795
0.0350488
0.0361839
0.0371869
0.0380608
0.0388091
0.0394361
0.0399462
0.0403453
0.0406654
0.0409183
0.0410827
0.0411605
0.0411576
0.0410806
0.0409362
0.040731
0.0404717
0.0401647
0.039816
0.0394318
0.0390176
0.0385789
0.0381208
0.037648
0.037165
0.0366757
0.0361838
0.0356926
0.0352045
0.0347223
0.0342502
0.0337888
0.0333396
0.032904
0.0324833
0.0320784
0.0316899
0.0313185
0.030965
0.0306296
0.0303126
0.030014
0.0297337
0.0294717
0.0292289
0.0290163
0.0288231
0.0286479
0.0284904
0.0283505
0.0282283
0.0281237
0.0280367
0.0279674
0.0279159
0.0278821
0.0278663
0.0278683
0.0278884
0.0279264
0.0279827
0.0280571
0.0281498
0.0282609
0.0283905
0.0285386
0.0287057
0.0288911
0.0290952
0.0293181
0.0295599
0.0298207
0.0301004
0.0303992
0.0307171
0.0310541
0.0314102
0.0317855
0.03218
0.0325936
0.0330264
0.0334783
0.0339492
0.0344392
0.0349481
0.0354759
0.0360225
0.0365878
0.0371717
0.0377741
0.0383949
0.0390339
0.0396911
0.0403663
0.0410594
0.0417703
0.0424988
0.043245
0.0440087
0.0447899
0.0455886
0.0464047
0.0472382
0.0480892
0.0489578
0.0498442
0.0507484
0.0516706
0.0526112
0.0535703
0.0545483
0.0555456
0.0565626
0.0575996
0.0586573
0.0597359
0.0608362
0.0619585
0.0631035
0.0642716
0.0654633
0.066679
0.067919
0.0691837
0.070473
0.0717871
0.0731256
0.0744881
0.0758737
0.0772814
0.0787096
0.0801565
0.0816194
0.0830952
0.0845804
0.0860703
0.0875597
0.0890424
0.0905114
0.0919586
0.0933748
0.0947499
0.0960724
0.0973299
0.098509
0.0995949
0.100572
0.101424
0.102134
0.102684
0.103055
0.103231
0.103198
0.102969
0.10252
0.101816
0.100839
0.0995787
0.0980246
0.0961708
0.0940142
0.0915548
0.0887963
0.0857462
0.0824158
0.0788204
0.0749792
0.0709152
0.0666544
0.0622262
0.0576622
0.0529955
0.0482599
0.0434877
0.0387043
0.0338825
0.0291308
0.0244007
0.019634
0.014857
0.0100465
0.00502687
0.00107489
0.000405793
0.00193992
0.00416602
0.00654932
0.00899055
0.0114966
0.0140184
0.0164861
0.0188738
0.0211623
0.0233579
0.0254188
0.0273538
0.0291602
0.0308346
0.0323746
0.0337792
0.0350485
0.0361836
0.0371867
0.0380605
0.0388089
0.039436
0.0399461
0.0403452
0.0406652
0.0409181
0.0410825
0.0411603
0.0411574
0.0410804
0.040936
0.0407308
0.0404715
0.0401645
0.0398158
0.0394316
0.0390174
0.0385787
0.0381206
0.0376478
0.0371647
0.0366754
0.0361835
0.0356924
0.0352042
0.0347221
0.03425
0.0337886
0.0333394
0.0329038
0.0324831
0.0320781
0.0316897
0.0313182
0.0309647
0.0306294
0.0303124
0.0300137
0.0297334
0.0294714
0.0292287
0.029016
0.0288229
0.0286477
0.0284902
0.0283503
0.028228
0.0281234
0.0280365
0.0279671
0.0279156
0.0278818
0.027866
0.027868
0.027888
0.0279261
0.0279823
0.0280567
0.0281495
0.0282606
0.0283901
0.0285382
0.0287053
0.0288907
0.0290948
0.0293177
0.0295595
0.0298203
0.0301
0.0303988
0.0307167
0.0310537
0.0314098
0.0317851
0.0321796
0.0325932
0.033026
0.0334778
0.0339488
0.0344388
0.0349477
0.0354755
0.0360221
0.0365874
0.0371713
0.0377737
0.0383945
0.0390335
0.0396907
0.0403659
0.041059
0.0417699
0.0424985
0.0432447
0.0440084
0.0447896
0.0455882
0.0464043
0.0472379
0.0480889
0.0489575
0.0498439
0.0507481
0.0516703
0.0526109
0.05357
0.0545481
0.0555454
0.0565623
0.0575994
0.058657
0.0597357
0.060836
0.0619583
0.0631033
0.0642714
0.0654631
0.0666787
0.0679188
0.0691835
0.0704729
0.0717869
0.0731254
0.0744879
0.0758735
0.0772812
0.0787095
0.0801563
0.0816192
0.0830951
0.0845802
0.0860701
0.0875596
0.0890423
0.0905113
0.0919585
0.0933747
0.0947498
0.0960723
0.0973298
0.0985089
0.0995948
0.100572
0.101424
0.102134
0.102684
0.103055
0.103231
0.103198
0.102969
0.10252
0.101816
0.10084
0.099579
0.0980249
0.0961711
0.0940146
0.0915552
0.0887967
0.0857466
0.0824163
0.0788209
0.0749797
0.0709156
0.0666549
0.0622267
0.0576627
0.052996
0.0482602
0.043488
0.0387046
0.0338828
0.029131
0.0244009
0.0196341
0.0148571
0.0100465
0.00502692
0.0010749
0.00199037
0.0126968
0.0227919
0.0316179
0.0397201
0.0472865
0.054333
0.0609595
0.0671839
0.073006
0.0784576
0.0835494
0.0882913
0.0926905
0.096753
0.100485
0.103891
0.10698
0.109756
0.112228
0.114403
0.116291
0.117901
0.119242
0.120324
0.121157
0.121776
0.122184
0.122394
0.122416
0.122266
0.121957
0.121504
0.120921
0.120223
0.119423
0.118535
0.117572
0.116545
0.115468
0.114351
0.113205
0.112038
0.110861
0.109681
0.108506
0.107342
0.106195
0.105071
0.103973
0.102905
0.101872
0.100874
0.0999148
0.0989954
0.098119
0.0972862
0.0964977
0.095754
0.0950554
0.0944024
0.0937953
0.0932354
0.0927246
0.0922608
0.0918435
0.0914724
0.0911474
0.0908685
0.0906358
0.0904492
0.0903088
0.0902149
0.0901675
0.0901667
0.0902124
0.0903049
0.090444
0.0906301
0.090863
0.0911428
0.0914695
0.0918433
0.0922639
0.0927314
0.0932456
0.0938067
0.0944143
0.0950684
0.0957688
0.0965153
0.0973076
0.0981456
0.0990288
0.0999569
0.10093
0.101947
0.103007
0.104111
0.105258
0.106446
0.107677
0.108948
0.11026
0.111612
0.113003
0.114432
0.115899
0.117403
0.118943
0.120519
0.12213
0.123775
0.125454
0.127166
0.12891
0.130687
0.132494
0.134333
0.136203
0.138102
0.140032
0.141992
0.143982
0.146002
0.148052
0.150132
0.152243
0.154385
0.156558
0.158763
0.161001
0.163271
0.165575
0.167914
0.170287
0.172697
0.175142
0.177624
0.180144
0.1827
0.185293
0.187923
0.190588
0.193288
0.196021
0.198783
0.201574
0.204387
0.20722
0.210065
0.212916
0.215764
0.218601
0.221415
0.224195
0.226924
0.229589
0.232171
0.234651
0.237008
0.239218
0.241257
0.243099
0.244716
0.246078
0.247155
0.247918
0.248336
0.24838
0.248029
0.247237
0.245973
0.244211
0.241926
0.239097
0.235708
0.231746
0.227203
0.222076
0.216366
0.210081
0.203235
0.195844
0.187933
0.179529
0.170663
0.161369
0.151681
0.141633
0.131255
0.120564
0.109561
0.0982131
0.0863825
0.0738785
0.0603596
0.0451534
0.02691
0.00485439
0.00199033
0.0126964
0.0227914
0.0316175
0.0397196
0.047286
0.0543325
0.0609591
0.0671835
0.0730057
0.0784572
0.0835491
0.088291
0.0926902
0.0967528
0.100485
0.103891
0.106979
0.109756
0.112228
0.114403
0.116291
0.117901
0.119242
0.120324
0.121157
0.121776
0.122184
0.122394
0.122416
0.122265
0.121956
0.121503
0.120921
0.120223
0.119423
0.118535
0.117571
0.116545
0.115468
0.114351
0.113204
0.112038
0.110861
0.109681
0.108505
0.107341
0.106195
0.10507
0.103972
0.102905
0.101871
0.100873
0.0999143
0.0989948
0.0981184
0.0972856
0.0964971
0.0957534
0.0950548
0.0944018
0.0937947
0.0932348
0.092724
0.0922602
0.0918429
0.0914717
0.0911467
0.0908679
0.0906351
0.0904485
0.0903082
0.0902143
0.0901669
0.0901661
0.0902118
0.0903042
0.0904434
0.0906294
0.0908623
0.0911422
0.0914689
0.0918427
0.0922633
0.0927308
0.0932451
0.0938061
0.0944137
0.0950678
0.0957682
0.0965147
0.0973071
0.098145
0.0990283
0.0999564
0.100929
0.101946
0.103007
0.104111
0.105257
0.106446
0.107676
0.108948
0.11026
0.111612
0.113002
0.114432
0.115899
0.117403
0.118943
0.120519
0.12213
0.123775
0.125454
0.127166
0.12891
0.130686
0.132494
0.134333
0.136202
0.138102
0.140032
0.141992
0.143982
0.146002
0.148052
0.150132
0.152243
0.154385
0.156558
0.158763
0.161001
0.163271
0.165575
0.167914
0.170288
0.172697
0.175142
0.177624
0.180144
0.1827
0.185293
0.187923
0.190588
0.193288
0.196021
0.198784
0.201574
0.204387
0.20722
0.210065
0.212916
0.215764
0.218601
0.221416
0.224195
0.226925
0.22959
0.232172
0.234652
0.237008
0.239218
0.241258
0.243099
0.244716
0.246078
0.247156
0.247919
0.248337
0.248381
0.24803
0.247238
0.245974
0.244212
0.241926
0.239098
0.235709
0.231747
0.227204
0.222077
0.216367
0.210082
0.203236
0.195845
0.187934
0.17953
0.170664
0.16137
0.151682
0.141634
0.131256
0.120565
0.109562
0.0982138
0.0863831
0.073879
0.0603599
0.0451536
0.0269101
0.00485437
0.00419743
0.0227025
0.0368271
0.048406
0.0588336
0.0684738
0.077481
0.0859404
0.0938989
0.101379
0.108398
0.114967
0.121096
0.126792
0.132064
0.136918
0.141362
0.145403
0.149051
0.152315
0.155204
0.157729
0.1599
0.161731
0.163232
0.164418
0.165315
0.165935
0.166293
0.166403
0.166283
0.165948
0.165417
0.164706
0.163835
0.162819
0.161677
0.160426
0.159082
0.157661
0.156178
0.154648
0.153084
0.151498
0.149903
0.148308
0.146725
0.14516
0.143623
0.142119
0.140655
0.139235
0.137864
0.136545
0.135281
0.134075
0.132928
0.131843
0.130819
0.129859
0.128962
0.128129
0.127362
0.12666
0.126024
0.125453
0.124945
0.124501
0.124121
0.123805
0.123551
0.123362
0.123235
0.123173
0.123173
0.123237
0.123365
0.123556
0.12381
0.124128
0.12451
0.124955
0.125463
0.126035
0.126669
0.127367
0.128127
0.12895
0.129835
0.130782
0.131791
0.13286
0.133991
0.135182
0.136432
0.137742
0.13911
0.140535
0.142018
0.143557
0.145152
0.146801
0.148504
0.15026
0.152068
0.153926
0.155835
0.157792
0.159797
0.161849
0.163947
0.166089
0.168276
0.170505
0.172777
0.175089
0.177442
0.179835
0.182266
0.184736
0.187244
0.189789
0.192371
0.194991
0.197647
0.200341
0.203071
0.205839
0.208645
0.211489
0.214372
0.217294
0.220256
0.22326
0.226305
0.229392
0.232522
0.235696
0.238915
0.242178
0.245485
0.248837
0.252233
0.255671
0.25915
0.262668
0.266222
0.269807
0.273419
0.277052
0.280698
0.284349
0.287994
0.291622
0.295218
0.298768
0.302253
0.305654
0.308949
0.312114
0.315122
0.317946
0.320555
0.322916
0.324996
0.326758
0.328165
0.329181
0.329768
0.329891
0.329512
0.328586
0.327078
0.324954
0.322184
0.318742
0.314605
0.309756
0.304184
0.297882
0.290849
0.283089
0.274614
0.265439
0.255585
0.245077
0.233944
0.222216
0.209924
0.197097
0.18376
0.169927
0.155597
0.140733
0.125236
0.108907
0.0913021
0.0713325
0.0463965
0.0103094
0.00419732
0.022702
0.0368267
0.0484056
0.0588334
0.0684736
0.0774809
0.0859403
0.0938989
0.101379
0.108398
0.114967
0.121096
0.126792
0.132064
0.136918
0.141362
0.145403
0.149052
0.152315
0.155204
0.157729
0.159901
0.161731
0.163232
0.164418
0.165315
0.165935
0.166293
0.166404
0.166283
0.165948
0.165417
0.164706
0.163834
0.162819
0.161677
0.160426
0.159082
0.157661
0.156178
0.154648
0.153083
0.151498
0.149902
0.148308
0.146724
0.14516
0.143623
0.142119
0.140655
0.139235
0.137864
0.136545
0.135281
0.134074
0.132928
0.131842
0.130819
0.129858
0.128961
0.128128
0.127361
0.12666
0.126024
0.125452
0.124945
0.124501
0.124121
0.123804
0.123551
0.123361
0.123235
0.123172
0.123173
0.123237
0.123364
0.123555
0.12381
0.124128
0.12451
0.124955
0.125463
0.126034
0.126669
0.127366
0.128127
0.12895
0.129835
0.130782
0.13179
0.13286
0.133991
0.135181
0.136432
0.137741
0.139109
0.140535
0.142018
0.143557
0.145152
0.146801
0.148504
0.15026
0.152067
0.153926
0.155834
0.157792
0.159797
0.161849
0.163947
0.166089
0.168276
0.170505
0.172777
0.175089
0.177442
0.179835
0.182266
0.184736
0.187244
0.189789
0.192371
0.194991
0.197647
0.200341
0.203071
0.205839
0.208645
0.211489
0.214372
0.217294
0.220257
0.22326
0.226305
0.229392
0.232523
0.235697
0.238915
0.242178
0.245486
0.248837
0.252233
0.255671
0.259151
0.262669
0.266222
0.269808
0.27342
0.277053
0.280699
0.284349
0.287995
0.291622
0.295219
0.298768
0.302253
0.305654
0.308949
0.312114
0.315123
0.317947
0.320556
0.322917
0.324997
0.326758
0.328166
0.329182
0.329769
0.329892
0.329513
0.328587
0.327079
0.324955
0.322185
0.318743
0.314606
0.309758
0.304186
0.297883
0.29085
0.283091
0.274615
0.26544
0.255586
0.245078
0.233945
0.222217
0.209925
0.197098
0.183761
0.169928
0.155597
0.140733
0.125237
0.108907
0.0913025
0.0713327
0.0463965
0.0103093
0.006392
0.0311623
0.0480882
0.0614719
0.0733291
0.0842635
0.0945071
0.104157
0.113256
0.121828
0.129883
0.137431
0.14448
0.151036
0.157107
0.162703
0.167832
0.172504
0.17673
0.180522
0.183891
0.18685
0.189411
0.191588
0.193395
0.194848
0.195966
0.196766
0.197264
0.197476
0.197417
0.197107
0.196562
0.195802
0.194846
0.193714
0.192424
0.190995
0.189447
0.187798
0.186067
0.184269
0.182422
0.180541
0.178641
0.176735
0.174835
0.172953
0.171099
0.169281
0.167507
0.165785
0.164119
0.162515
0.160976
0.159507
0.15811
0.156786
0.155538
0.154367
0.153274
0.15226
0.151325
0.150471
0.149696
0.149
0.148382
0.147841
0.147378
0.146992
0.146683
0.146451
0.146295
0.146216
0.146213
0.146287
0.146437
0.146663
0.146964
0.147342
0.147796
0.148325
0.14893
0.14961
0.150366
0.151196
0.152101
0.153081
0.154134
0.155261
0.15646
0.157733
0.159077
0.160492
0.161978
0.163534
0.165159
0.166852
0.168612
0.170439
0.172331
0.174287
0.176306
0.178387
0.180529
0.182731
0.184991
0.187308
0.189681
0.192108
0.194589
0.197122
0.199706
0.20234
0.205023
0.207753
0.210529
0.213352
0.216219
0.219131
0.222086
0.225084
0.228125
0.231208
0.234333
0.237501
0.240711
0.243964
0.247259
0.250598
0.253981
0.257409
0.260882
0.264401
0.267968
0.271582
0.275245
0.278958
0.28272
0.286532
0.290394
0.294306
0.298267
0.302276
0.306331
0.310428
0.314565
0.318736
0.322937
0.327159
0.331395
0.335634
0.339865
0.344073
0.348244
0.352358
0.356397
0.360338
0.364156
0.367822
0.371309
0.374584
0.377611
0.380355
0.382778
0.384839
0.386497
0.38771
0.388438
0.38864
0.388269
0.387283
0.385643
0.383311
0.380254
0.376443
0.371854
0.366467
0.360266
0.353244
0.345396
0.336724
0.327235
0.316941
0.305857
0.294005
0.281405
0.268083
0.254063
0.239369
0.224021
0.208034
0.19141
0.174121
0.156088
0.137116
0.116733
0.0936825
0.063897
0.016232
0.00639184
0.0311618
0.0480879
0.0614717
0.073329
0.0842635
0.0945072
0.104157
0.113256
0.121828
0.129883
0.137432
0.14448
0.151036
0.157108
0.162703
0.167832
0.172504
0.176731
0.180522
0.183891
0.18685
0.189411
0.191588
0.193395
0.194848
0.195966
0.196766
0.197264
0.197476
0.197417
0.197107
0.196562
0.195802
0.194846
0.193714
0.192423
0.190995
0.189447
0.187798
0.186066
0.184269
0.182422
0.180541
0.178641
0.176735
0.174835
0.172953
0.171099
0.169281
0.167507
0.165784
0.164119
0.162514
0.160976
0.159507
0.158109
0.156786
0.155538
0.154367
0.153274
0.15226
0.151325
0.150471
0.149696
0.148999
0.148381
0.147841
0.147378
0.146992
0.146683
0.146451
0.146295
0.146216
0.146213
0.146287
0.146436
0.146662
0.146964
0.147342
0.147796
0.148325
0.14893
0.14961
0.150366
0.151196
0.152101
0.153081
0.154134
0.155261
0.15646
0.157733
0.159077
0.160492
0.161978
0.163534
0.165159
0.166852
0.168612
0.170439
0.172331
0.174287
0.176306
0.178387
0.180529
0.182731
0.184991
0.187308
0.189681
0.192108
0.194589
0.197122
0.199706
0.20234
0.205023
0.207753
0.21053
0.213352
0.21622
0.219131
0.222086
0.225084
0.228125
0.231208
0.234334
0.237501
0.240711
0.243964
0.24726
0.250599
0.253982
0.257409
0.260882
0.264402
0.267968
0.271583
0.275246
0.278958
0.28272
0.286532
0.290395
0.294307
0.298268
0.302277
0.306331
0.310429
0.314565
0.318737
0.322937
0.32716
0.331395
0.335635
0.339865
0.344074
0.348244
0.352359
0.356398
0.360339
0.364156
0.367823
0.37131
0.374584
0.377612
0.380356
0.382779
0.38484
0.386498
0.387711
0.388439
0.388641
0.38827
0.387284
0.385644
0.383312
0.380255
0.376444
0.371855
0.366468
0.360268
0.353245
0.345397
0.336725
0.327236
0.316942
0.305858
0.294006
0.281406
0.268084
0.254064
0.23937
0.224022
0.208035
0.19141
0.174121
0.156088
0.137116
0.116733
0.0936825
0.063897
0.016232
0.0085233
0.038765
0.0581289
0.0730195
0.08606
0.0980503
0.109278
0.11986
0.129844
0.139254
0.148098
0.156384
0.164118
0.171307
0.177962
0.184093
0.189712
0.194832
0.199467
0.203633
0.207344
0.210614
0.21346
0.215896
0.217939
0.219604
0.220907
0.221869
0.222504
0.222826
0.222854
0.222602
0.22209
0.221336
0.220358
0.219176
0.217811
0.216281
0.214607
0.21281
0.210908
0.208921
0.206867
0.204765
0.202631
0.200481
0.19833
0.196191
0.194077
0.191998
0.189965
0.187986
0.186068
0.184218
0.182441
0.180742
0.179124
0.177589
0.176142
0.174782
0.173512
0.172332
0.171244
0.170248
0.169344
0.16853
0.167806
0.167171
0.166626
0.166169
0.1658
0.165519
0.165326
0.16522
0.165201
0.16527
0.165424
0.165666
0.165993
0.166407
0.166907
0.167493
0.168164
0.16892
0.169761
0.170687
0.171698
0.172792
0.173969
0.17523
0.176573
0.177997
0.179502
0.181088
0.182753
0.184497
0.186318
0.188216
0.190189
0.192237
0.194358
0.196551
0.198814
0.201147
0.203549
0.206016
0.20855
0.211147
0.213806
0.216526
0.219306
0.222144
0.225039
0.22799
0.230994
0.234052
0.237162
0.240322
0.243532
0.246791
0.250099
0.253454
0.256857
0.260307
0.263803
0.267346
0.270936
0.274573
0.278257
0.281989
0.285769
0.289599
0.293479
0.297409
0.301391
0.305426
0.309514
0.313655
0.317852
0.322102
0.326408
0.330767
0.33518
0.339644
0.344157
0.348717
0.353319
0.357957
0.362626
0.367318
0.372022
0.376728
0.381424
0.386092
0.390717
0.395279
0.399756
0.404122
0.408352
0.412415
0.416278
0.419908
0.423268
0.426317
0.429015
0.431319
0.433185
0.434569
0.435427
0.435715
0.435384
0.434392
0.432697
0.430262
0.427052
0.423038
0.418192
0.412493
0.405925
0.398475
0.390138
0.38091
0.370793
0.359794
0.347919
0.335181
0.321593
0.30717
0.291926
0.275879
0.259043
0.24143
0.223044
0.203863
0.183812
0.162685
0.139944
0.114103
0.0801004
0.0225814
0.0085231
0.0387644
0.0581286
0.0730194
0.0860601
0.0980504
0.109278
0.11986
0.129845
0.139254
0.148098
0.156384
0.164118
0.171308
0.177962
0.184093
0.189712
0.194832
0.199468
0.203633
0.207344
0.210614
0.21346
0.215897
0.217939
0.219604
0.220907
0.221869
0.222504
0.222826
0.222854
0.222602
0.22209
0.221336
0.220358
0.219176
0.217811
0.216281
0.214607
0.212809
0.210908
0.20892
0.206867
0.204765
0.202631
0.200481
0.19833
0.196191
0.194077
0.191998
0.189965
0.187986
0.186068
0.184218
0.182441
0.180742
0.179123
0.177589
0.176141
0.174782
0.173511
0.172332
0.171244
0.170248
0.169343
0.168529
0.167805
0.167171
0.166625
0.166169
0.1658
0.165519
0.165326
0.16522
0.165201
0.165269
0.165424
0.165666
0.165993
0.166407
0.166907
0.167493
0.168164
0.16892
0.169761
0.170687
0.171698
0.172792
0.173969
0.17523
0.176573
0.177997
0.179503
0.181088
0.182753
0.184497
0.186318
0.188216
0.190189
0.192237
0.194358
0.196551
0.198815
0.201148
0.203549
0.206017
0.20855
0.211147
0.213806
0.216527
0.219307
0.222145
0.22504
0.22799
0.230995
0.234052
0.237162
0.240322
0.243532
0.246792
0.250099
0.253455
0.256857
0.260307
0.263803
0.267346
0.270936
0.274573
0.278257
0.281989
0.28577
0.289599
0.293479
0.29741
0.301392
0.305426
0.309514
0.313656
0.317852
0.322103
0.326408
0.330768
0.33518
0.339644
0.344158
0.348717
0.353319
0.357958
0.362627
0.367318
0.372023
0.376729
0.381424
0.386093
0.390718
0.39528
0.399756
0.404123
0.408352
0.412415
0.416279
0.419909
0.423268
0.426318
0.429016
0.43132
0.433186
0.43457
0.435428
0.435716
0.435385
0.434393
0.432698
0.430263
0.427053
0.423039
0.418193
0.412494
0.405926
0.398476
0.390139
0.380911
0.370794
0.359794
0.34792
0.335182
0.321594
0.30717
0.291927
0.27588
0.259044
0.241431
0.223044
0.203864
0.183813
0.162685
0.139944
0.114103
0.0801002
0.0225813
0.0106867
0.0458282
0.0674798
0.0838055
0.0979628
0.110912
0.123005
0.134385
0.145111
0.155209
0.164689
0.173558
0.181825
0.189497
0.196588
0.203111
0.209083
0.214522
0.219445
0.223873
0.227825
0.231318
0.234371
0.237001
0.239227
0.241063
0.242527
0.243637
0.244407
0.244851
0.244984
0.244822
0.24438
0.243677
0.242729
0.241555
0.240174
0.238606
0.236871
0.23499
0.232984
0.230872
0.228674
0.226412
0.224102
0.221764
0.219413
0.217066
0.214738
0.21244
0.210186
0.207985
0.205847
0.203779
0.201789
0.199881
0.198061
0.196333
0.194699
0.193162
0.191724
0.190385
0.189148
0.188013
0.186979
0.186045
0.185211
0.184476
0.18384
0.183303
0.182863
0.18252
0.182274
0.182125
0.182072
0.182114
0.182252
0.182485
0.182814
0.183236
0.183754
0.184365
0.18507
0.185869
0.186761
0.187745
0.188822
0.189991
0.191251
0.192602
0.194043
0.195574
0.197193
0.198899
0.200693
0.202572
0.204537
0.206584
0.208715
0.210926
0.213218
0.215588
0.218035
0.220559
0.223156
0.225826
0.228567
0.231378
0.234257
0.237202
0.240212
0.243286
0.246421
0.249617
0.252872
0.256185
0.259554
0.262979
0.266458
0.26999
0.273575
0.277212
0.280901
0.284641
0.288431
0.292272
0.296165
0.300108
0.304103
0.308149
0.312249
0.316401
0.320608
0.324869
0.329187
0.33356
0.337992
0.342481
0.347028
0.351635
0.356299
0.361021
0.3658
0.370634
0.37552
0.380455
0.385434
0.390451
0.3955
0.400571
0.405655
0.410739
0.41581
0.42085
0.425842
0.430764
0.435592
0.440302
0.444863
0.449245
0.453414
0.457332
0.460962
0.464263
0.467191
0.469702
0.471752
0.473294
0.474283
0.474675
0.474419
0.473474
0.4718
0.469357
0.466112
0.462035
0.457098
0.451279
0.444559
0.436923
0.42836
0.418862
0.408425
0.397044
0.384718
0.371448
0.357233
0.342076
0.325981
0.308951
0.290994
0.272115
0.252313
0.231566
0.209789
0.186751
0.161834
0.133324
0.0954137
0.0290459
0.0106864
0.0458277
0.0674795
0.0838055
0.0979629
0.110912
0.123006
0.134385
0.145112
0.155209
0.164689
0.173559
0.181825
0.189497
0.196588
0.203111
0.209083
0.214522
0.219446
0.223874
0.227825
0.231318
0.234371
0.237002
0.239227
0.241063
0.242527
0.243637
0.244407
0.244851
0.244984
0.244822
0.24438
0.243677
0.242729
0.241555
0.240174
0.238606
0.236871
0.23499
0.232983
0.230871
0.228674
0.226411
0.224102
0.221763
0.219413
0.217066
0.214737
0.21244
0.210186
0.207985
0.205847
0.203779
0.201788
0.199881
0.198061
0.196333
0.194699
0.193162
0.191723
0.190385
0.189148
0.188013
0.186978
0.186044
0.185211
0.184476
0.18384
0.183303
0.182863
0.18252
0.182274
0.182125
0.182072
0.182114
0.182252
0.182485
0.182814
0.183236
0.183754
0.184365
0.18507
0.185869
0.186761
0.187745
0.188822
0.189991
0.191252
0.192602
0.194043
0.195574
0.197193
0.1989
0.200693
0.202572
0.204537
0.206585
0.208715
0.210927
0.213218
0.215588
0.218036
0.220559
0.223156
0.225826
0.228567
0.231378
0.234257
0.237202
0.240212
0.243286
0.246421
0.249617
0.252872
0.256185
0.259554
0.262979
0.266458
0.26999
0.273575
0.277213
0.280901
0.284641
0.288431
0.292273
0.296165
0.300108
0.304103
0.30815
0.312249
0.316402
0.320608
0.32487
0.329187
0.333561
0.337992
0.342481
0.347029
0.351635
0.356299
0.361022
0.365801
0.370634
0.37552
0.380455
0.385434
0.390451
0.3955
0.400572
0.405655
0.41074
0.41581
0.420851
0.425842
0.430764
0.435593
0.440302
0.444864
0.449246
0.453414
0.457333
0.460963
0.464263
0.467191
0.469703
0.471753
0.473295
0.474284
0.474676
0.47442
0.473475
0.4718
0.469358
0.466113
0.462036
0.457099
0.45128
0.444559
0.436923
0.428361
0.418863
0.408425
0.397045
0.384719
0.371448
0.357234
0.342077
0.325981
0.308952
0.290995
0.272116
0.252314
0.231566
0.209789
0.186751
0.161834
0.133323
0.0954135
0.0290459
0.0128829
0.0525688
0.076434
0.0941762
0.109422
0.123283
0.136174
0.148269
0.159642
0.170324
0.180331
0.189673
0.198359
0.206402
0.213817
0.220625
0.226846
0.232504
0.237623
0.242228
0.246342
0.249988
0.253188
0.255963
0.25833
0.260308
0.261913
0.263161
0.264066
0.264641
0.264898
0.26485
0.264512
0.263898
0.263024
0.261906
0.260561
0.259009
0.25727
0.255362
0.253307
0.251126
0.24884
0.24647
0.244036
0.241557
0.239053
0.236541
0.234037
0.231558
0.229115
0.226723
0.22439
0.222128
0.219945
0.217847
0.21584
0.213929
0.212118
0.21041
0.208807
0.207311
0.205924
0.204646
0.203477
0.202416
0.201463
0.200618
0.199879
0.199246
0.198718
0.198295
0.197977
0.197763
0.197652
0.197644
0.197739
0.197936
0.198236
0.198637
0.199139
0.199743
0.200447
0.201252
0.202156
0.20316
0.204264
0.205466
0.206766
0.208163
0.209657
0.211246
0.212931
0.21471
0.216582
0.218547
0.220602
0.222747
0.22498
0.2273
0.229707
0.232197
0.234771
0.237425
0.240159
0.242972
0.24586
0.248823
0.251859
0.254967
0.258144
0.261389
0.264701
0.268078
0.271518
0.27502
0.278583
0.282206
0.285887
0.289626
0.293422
0.297273
0.30118
0.305143
0.30916
0.313231
0.317358
0.32154
0.325777
0.33007
0.334419
0.338826
0.34329
0.347814
0.352397
0.35704
0.361745
0.366511
0.37134
0.37623
0.381183
0.386196
0.391269
0.3964
0.401585
0.406822
0.412104
0.417426
0.42278
0.428157
0.433545
0.438933
0.444305
0.449643
0.454929
0.46014
0.465251
0.470236
0.475065
0.479705
0.484121
0.488275
0.492129
0.495641
0.498767
0.501463
0.503682
0.505381
0.506512
0.507031
0.506891
0.50605
0.504469
0.502112
0.498945
0.494937
0.490062
0.484295
0.477617
0.470007
0.461451
0.451933
0.441439
0.429954
0.417466
0.403959
0.38942
0.373835
0.357191
0.339479
0.320692
0.300825
0.279869
0.257789
0.234486
0.209692
0.182705
0.151592
0.109872
0.0354361
0.0128827
0.0525683
0.0764337
0.0941762
0.109423
0.123283
0.136174
0.148269
0.159642
0.170325
0.180332
0.189673
0.198359
0.206402
0.213818
0.220625
0.226846
0.232504
0.237624
0.242228
0.246342
0.249988
0.253188
0.255963
0.25833
0.260308
0.261913
0.263161
0.264066
0.26464
0.264897
0.26485
0.264512
0.263898
0.263024
0.261905
0.260561
0.259009
0.257269
0.255362
0.253307
0.251126
0.24884
0.246469
0.244035
0.241557
0.239053
0.236541
0.234037
0.231557
0.229115
0.226722
0.22439
0.222128
0.219945
0.217846
0.215839
0.213928
0.212117
0.210409
0.208806
0.207311
0.205924
0.204646
0.203477
0.202416
0.201463
0.200617
0.199878
0.199245
0.198718
0.198295
0.197977
0.197762
0.197652
0.197644
0.197739
0.197936
0.198235
0.198637
0.199139
0.199743
0.200447
0.201252
0.202156
0.20316
0.204264
0.205466
0.206766
0.208163
0.209657
0.211247
0.212931
0.21471
0.216582
0.218547
0.220602
0.222747
0.22498
0.227301
0.229707
0.232197
0.234771
0.237425
0.24016
0.242972
0.24586
0.248823
0.25186
0.254967
0.258144
0.261389
0.264701
0.268078
0.271518
0.27502
0.278583
0.282206
0.285887
0.289626
0.293422
0.297273
0.301181
0.305143
0.30916
0.313232
0.317358
0.32154
0.325777
0.33007
0.33442
0.338826
0.343291
0.347814
0.352397
0.357041
0.361745
0.366512
0.37134
0.376231
0.381183
0.386196
0.391269
0.3964
0.401586
0.406822
0.412104
0.417426
0.42278
0.428157
0.433546
0.438933
0.444305
0.449644
0.454929
0.46014
0.465252
0.470237
0.475065
0.479705
0.484121
0.488276
0.49213
0.495642
0.498767
0.501463
0.503683
0.505381
0.506513
0.507032
0.506891
0.506051
0.50447
0.502112
0.498945
0.494937
0.490062
0.484296
0.477617
0.470008
0.461452
0.451934
0.441439
0.429955
0.417466
0.40396
0.389421
0.373835
0.357191
0.339479
0.320692
0.300826
0.279869
0.257789
0.234486
0.209691
0.182705
0.151592
0.109872
0.0354361
0.0151311
0.0591792
0.0851673
0.104312
0.120628
0.135368
0.149011
0.161763
0.173713
0.184904
0.195356
0.205084
0.214102
0.222428
0.230083
0.237092
0.243483
0.249285
0.254529
0.259245
0.263462
0.267209
0.270511
0.273392
0.275872
0.277969
0.2797
0.28108
0.282122
0.282836
0.283233
0.283322
0.283115
0.282624
0.28186
0.280839
0.279575
0.278085
0.276388
0.274502
0.272448
0.270246
0.267919
0.265488
0.262974
0.260398
0.25778
0.255141
0.252498
0.249867
0.247266
0.244708
0.242205
0.239769
0.237409
0.235134
0.232951
0.230866
0.228883
0.227007
0.22524
0.223586
0.222045
0.220618
0.219305
0.218107
0.217022
0.21605
0.215191
0.214444
0.213809
0.213284
0.21287
0.212565
0.21237
0.212284
0.212306
0.212436
0.212674
0.213019
0.213472
0.214031
0.214697
0.215468
0.216345
0.217328
0.218415
0.219606
0.220901
0.222299
0.223799
0.2254
0.227102
0.228904
0.230804
0.232801
0.234895
0.237084
0.239367
0.241742
0.244207
0.246762
0.249405
0.252134
0.254947
0.257843
0.26082
0.263876
0.26701
0.270219
0.273503
0.276859
0.280285
0.283781
0.287345
0.290974
0.294669
0.298427
0.302248
0.306131
0.310074
0.314078
0.318141
0.322263
0.326443
0.330683
0.334981
0.339338
0.343755
0.348231
0.352767
0.357365
0.362024
0.366747
0.371532
0.376382
0.381296
0.386276
0.391321
0.396432
0.401608
0.406848
0.41215
0.417512
0.422932
0.428404
0.433924
0.439484
0.445077
0.450694
0.456321
0.461947
0.467555
0.473127
0.478643
0.484081
0.489416
0.494618
0.499659
0.504506
0.509122
0.51347
0.517511
0.521203
0.524504
0.527369
0.529753
0.531613
0.532903
0.533579
0.533598
0.53292
0.531507
0.529326
0.526344
0.522532
0.517862
0.512309
0.505849
0.49846
0.490119
0.480803
0.470486
0.459143
0.446745
0.433262
0.41866
0.402909
0.385978
0.36784
0.348471
0.327852
0.305958
0.282738
0.25807
0.231644
0.202676
0.169029
0.12361
0.0417643
0.0151308
0.0591788
0.0851671
0.104312
0.120629
0.135368
0.149012
0.161763
0.173713
0.184904
0.195356
0.205084
0.214102
0.222429
0.230084
0.237093
0.243483
0.249285
0.254529
0.259245
0.263462
0.267209
0.270511
0.273392
0.275871
0.277969
0.2797
0.28108
0.282122
0.282836
0.283232
0.283322
0.283115
0.282623
0.28186
0.280838
0.279574
0.278085
0.276387
0.274501
0.272447
0.270246
0.267919
0.265487
0.262973
0.260397
0.25778
0.25514
0.252497
0.249867
0.247266
0.244707
0.242204
0.239768
0.237408
0.235134
0.232951
0.230865
0.228883
0.227007
0.22524
0.223585
0.222044
0.220617
0.219305
0.218106
0.217022
0.21605
0.215191
0.214444
0.213809
0.213284
0.21287
0.212565
0.21237
0.212284
0.212306
0.212436
0.212674
0.213019
0.213472
0.214031
0.214696
0.215468
0.216345
0.217328
0.218415
0.219606
0.220901
0.222299
0.223799
0.2254
0.227102
0.228903
0.230804
0.232801
0.234895
0.237084
0.239367
0.241742
0.244207
0.246762
0.249405
0.252134
0.254947
0.257843
0.26082
0.263876
0.26701
0.270219
0.273503
0.276859
0.280285
0.283781
0.287345
0.290974
0.294669
0.298428
0.302249
0.306131
0.310075
0.314078
0.318141
0.322263
0.326443
0.330683
0.334981
0.339338
0.343755
0.348231
0.352768
0.357365
0.362025
0.366747
0.371532
0.376382
0.381296
0.386276
0.391321
0.396432
0.401608
0.406848
0.41215
0.417512
0.422932
0.428404
0.433924
0.439484
0.445078
0.450694
0.456321
0.461947
0.467555
0.473127
0.478644
0.484082
0.489416
0.494619
0.49966
0.504506
0.509122
0.51347
0.517511
0.521204
0.524504
0.527369
0.529754
0.531613
0.532903
0.53358
0.533598
0.53292
0.531508
0.529327
0.526345
0.522532
0.517862
0.512309
0.505849
0.49846
0.490119
0.480803
0.470487
0.459144
0.446746
0.433262
0.418661
0.40291
0.385979
0.36784
0.348472
0.327852
0.305958
0.282738
0.25807
0.231644
0.202675
0.169029
0.12361
0.0417643
0.017448
0.0657218
0.0937919
0.11432
0.131689
0.147283
0.161643
0.175005
0.187479
0.199118
0.209952
0.220001
0.229285
0.237829
0.245659
0.252808
0.259309
0.265199
0.270517
0.275297
0.279577
0.283388
0.286761