/*--------------------------------*- C++ -*----------------------------------*\
  =========                 |
  \\      /  F ield         | OpenFOAM: The Open Source CFD Toolbox
   \\    /   O peration     | Website:  https://openfoam.org
    \\  /    A nd           | Version:  8
     \\/     M anipulation  |
\*---------------------------------------------------------------------------*/
FoamFile
{
    version     2.0;
    format      ascii;
    class       volScalarField;
    location    "1300";
    object      nut;
}
// * * * * * * * * * * * * * * * * * * * * * * * * * * * * * * * * * * * * * //

dimensions      [0 2 -1 0 0 0 0];

internalField   nonuniform List<scalar> 
46000
(
2.89051e-08
1.45551e-07
3.12581e-07
4.91391e-07
6.74527e-07
8.62493e-07
1.05166e-06
1.23675e-06
1.41586e-06
1.58753e-06
1.75223e-06
1.90685e-06
2.05203e-06
2.18757e-06
2.31321e-06
2.42878e-06
2.5342e-06
2.62949e-06
2.71472e-06
2.79005e-06
2.85571e-06
2.91196e-06
2.95911e-06
2.99751e-06
3.02758e-06
3.05175e-06
3.07087e-06
3.08336e-06
3.08936e-06
3.08931e-06
3.0837e-06
3.07304e-06
3.05782e-06
3.03854e-06
3.01567e-06
2.98969e-06
2.96102e-06
2.93011e-06
2.89735e-06
2.86313e-06
2.8278e-06
2.79169e-06
2.7551e-06
2.71831e-06
2.68157e-06
2.64503e-06
2.60895e-06
2.57361e-06
2.53906e-06
2.50541e-06
2.47278e-06
2.44125e-06
2.41089e-06
2.38176e-06
2.3539e-06
2.32738e-06
2.30222e-06
2.27842e-06
2.25599e-06
2.23493e-06
2.21524e-06
2.19698e-06
2.18098e-06
2.16644e-06
2.15324e-06
2.14136e-06
2.1308e-06
2.12156e-06
2.11364e-06
2.10705e-06
2.10177e-06
2.09782e-06
2.09521e-06
2.09394e-06
2.09401e-06
2.09543e-06
2.0982e-06
2.10233e-06
2.10783e-06
2.11471e-06
2.12296e-06
2.1326e-06
2.14363e-06
2.15607e-06
2.16991e-06
2.18514e-06
2.20179e-06
2.21985e-06
2.23934e-06
2.26025e-06
2.28259e-06
2.30637e-06
2.33158e-06
2.35823e-06
2.38632e-06
2.41585e-06
2.44681e-06
2.47921e-06
2.51305e-06
2.54832e-06
2.58502e-06
2.62314e-06
2.66268e-06
2.70363e-06
2.74599e-06
2.78974e-06
2.83488e-06
2.8814e-06
2.9293e-06
2.97855e-06
3.02916e-06
3.08112e-06
3.13441e-06
3.18903e-06
3.24497e-06
3.30223e-06
3.3608e-06
3.42069e-06
3.48188e-06
3.54439e-06
3.60821e-06
3.67336e-06
3.73984e-06
3.80766e-06
3.87684e-06
3.94739e-06
4.01934e-06
4.09271e-06
4.16753e-06
4.24383e-06
4.32164e-06
4.401e-06
4.48194e-06
4.5645e-06
4.64872e-06
4.73464e-06
4.82229e-06
4.91172e-06
5.00295e-06
5.09601e-06
5.19092e-06
5.28768e-06
5.38629e-06
5.48674e-06
5.58899e-06
5.69297e-06
5.7986e-06
5.90577e-06
6.01433e-06
6.12409e-06
6.23482e-06
6.34624e-06
6.45801e-06
6.56973e-06
6.68095e-06
6.79112e-06
6.89965e-06
7.00584e-06
7.10893e-06
7.20806e-06
7.30232e-06
7.39066e-06
7.47201e-06
7.54519e-06
7.60897e-06
7.66206e-06
7.70314e-06
7.73085e-06
7.74388e-06
7.74116e-06
7.72381e-06
7.68994e-06
7.63695e-06
7.56353e-06
7.46878e-06
7.35203e-06
7.21281e-06
7.05089e-06
6.86627e-06
6.65924e-06
6.43036e-06
6.18047e-06
5.91073e-06
5.62258e-06
5.31773e-06
4.99816e-06
4.66605e-06
4.32377e-06
3.97381e-06
3.61869e-06
3.26084e-06
2.90216e-06
2.54058e-06
2.1843e-06
1.82961e-06
1.47217e-06
1.11403e-06
7.53308e-07
3.76928e-07
7.65204e-08
2.89048e-08
1.45546e-07
3.12571e-07
4.91376e-07
6.74509e-07
8.62475e-07
1.05164e-06
1.23673e-06
1.41584e-06
1.58751e-06
1.75221e-06
1.90683e-06
2.05201e-06
2.18754e-06
2.31318e-06
2.42876e-06
2.53418e-06
2.62947e-06
2.7147e-06
2.79003e-06
2.85569e-06
2.91194e-06
2.9591e-06
2.99749e-06
3.02757e-06
3.05174e-06
3.07086e-06
3.08335e-06
3.08935e-06
3.08929e-06
3.08368e-06
3.07302e-06
3.05781e-06
3.03853e-06
3.01566e-06
2.98967e-06
2.96101e-06
2.9301e-06
2.89734e-06
2.86312e-06
2.82778e-06
2.79167e-06
2.75509e-06
2.7183e-06
2.68155e-06
2.64502e-06
2.60894e-06
2.57359e-06
2.53904e-06
2.5054e-06
2.47276e-06
2.44123e-06
2.41087e-06
2.38175e-06
2.35388e-06
2.32737e-06
2.3022e-06
2.2784e-06
2.25597e-06
2.23491e-06
2.21522e-06
2.19697e-06
2.18097e-06
2.16642e-06
2.15322e-06
2.14134e-06
2.13078e-06
2.12155e-06
2.11363e-06
2.10703e-06
2.10175e-06
2.0978e-06
2.09519e-06
2.09392e-06
2.09399e-06
2.09541e-06
2.09818e-06
2.10231e-06
2.10781e-06
2.11468e-06
2.12293e-06
2.13257e-06
2.1436e-06
2.15605e-06
2.16988e-06
2.18512e-06
2.20176e-06
2.21982e-06
2.23931e-06
2.26022e-06
2.28256e-06
2.30634e-06
2.33155e-06
2.3582e-06
2.38629e-06
2.41581e-06
2.44678e-06
2.47918e-06
2.51302e-06
2.54829e-06
2.58499e-06
2.62311e-06
2.66265e-06
2.7036e-06
2.74596e-06
2.78971e-06
2.83485e-06
2.88137e-06
2.92926e-06
2.97852e-06
3.02913e-06
3.08108e-06
3.13437e-06
3.18899e-06
3.24494e-06
3.3022e-06
3.36077e-06
3.42066e-06
3.48185e-06
3.54436e-06
3.60819e-06
3.67333e-06
3.73981e-06
3.80763e-06
3.87681e-06
3.94736e-06
4.01932e-06
4.09269e-06
4.16751e-06
4.24381e-06
4.32162e-06
4.40098e-06
4.48191e-06
4.56447e-06
4.64869e-06
4.73461e-06
4.82227e-06
4.9117e-06
5.00293e-06
5.09599e-06
5.1909e-06
5.28766e-06
5.38628e-06
5.48672e-06
5.58897e-06
5.69295e-06
5.79858e-06
5.90575e-06
6.01431e-06
6.12408e-06
6.23481e-06
6.34623e-06
6.458e-06
6.56972e-06
6.68094e-06
6.79111e-06
6.89964e-06
7.00583e-06
7.10892e-06
7.20805e-06
7.30231e-06
7.39065e-06
7.47201e-06
7.54519e-06
7.60897e-06
7.66206e-06
7.70314e-06
7.73085e-06
7.74389e-06
7.74117e-06
7.72382e-06
7.68995e-06
7.63697e-06
7.56355e-06
7.4688e-06
7.35205e-06
7.21283e-06
7.05091e-06
6.8663e-06
6.65927e-06
6.43039e-06
6.1805e-06
5.91077e-06
5.62261e-06
5.31777e-06
4.99819e-06
4.66608e-06
4.3238e-06
3.97384e-06
3.61872e-06
3.26087e-06
2.90218e-06
2.5406e-06
2.18431e-06
1.82962e-06
1.47218e-06
1.11404e-06
7.53318e-07
3.76936e-07
7.65218e-08
1.36203e-07
6.70451e-06
1.5025e-05
2.12607e-05
2.63448e-05
3.06349e-05
3.42449e-05
3.74156e-05
4.02433e-05
4.27789e-05
4.50589e-05
4.71212e-05
4.89814e-05
5.0654e-05
5.21525e-05
5.34892e-05
5.46756e-05
5.57221e-05
5.66386e-05
5.74344e-05
5.81181e-05
5.8698e-05
5.91811e-05
5.95729e-05
5.98734e-05
6.00642e-05
6.01753e-05
6.02222e-05
6.02156e-05
6.01632e-05
6.0071e-05
5.9944e-05
5.97866e-05
5.96029e-05
5.93962e-05
5.91698e-05
5.89265e-05
5.86688e-05
5.83993e-05
5.81199e-05
5.78327e-05
5.75394e-05
5.72419e-05
5.69416e-05
5.66401e-05
5.63389e-05
5.60395e-05
5.57422e-05
5.54481e-05
5.51582e-05
5.48735e-05
5.4595e-05
5.43233e-05
5.40592e-05
5.38033e-05
5.35563e-05
5.33186e-05
5.30907e-05
5.28729e-05
5.26653e-05
5.24674e-05
5.22769e-05
5.20859e-05
5.19065e-05
5.17396e-05
5.15861e-05
5.14461e-05
5.13199e-05
5.12079e-05
5.111e-05
5.10264e-05
5.09573e-05
5.09026e-05
5.08626e-05
5.08373e-05
5.08267e-05
5.08309e-05
5.08499e-05
5.08836e-05
5.09322e-05
5.09954e-05
5.10733e-05
5.11658e-05
5.12727e-05
5.13942e-05
5.15301e-05
5.16802e-05
5.18444e-05
5.20226e-05
5.22146e-05
5.24201e-05
5.26391e-05
5.28712e-05
5.31163e-05
5.33742e-05
5.36446e-05
5.39272e-05
5.42218e-05
5.45282e-05
5.48459e-05
5.51748e-05
5.55146e-05
5.5865e-05
5.62256e-05
5.65962e-05
5.69765e-05
5.73661e-05
5.77648e-05
5.81723e-05
5.85883e-05
5.90125e-05
5.94447e-05
5.98846e-05
6.03319e-05
6.07866e-05
6.12482e-05
6.17168e-05
6.2192e-05
6.26737e-05
6.31619e-05
6.36563e-05
6.4157e-05
6.46638e-05
6.51768e-05
6.56959e-05
6.6221e-05
6.67523e-05
6.72898e-05
6.78335e-05
6.83836e-05
6.894e-05
6.95029e-05
7.00724e-05
7.06485e-05
7.12314e-05
7.18211e-05
7.24176e-05
7.30211e-05
7.36314e-05
7.42484e-05
7.48721e-05
7.55022e-05
7.61383e-05
7.67802e-05
7.74272e-05
7.80787e-05
7.87339e-05
7.93918e-05
8.00512e-05
8.07106e-05
8.13686e-05
8.20231e-05
8.26721e-05
8.33131e-05
8.39434e-05
8.456e-05
8.51595e-05
8.57382e-05
8.62921e-05
8.68168e-05
8.73077e-05
8.77596e-05
8.81674e-05
8.85254e-05
8.88278e-05
8.90684e-05
8.92411e-05
8.93393e-05
8.9356e-05
8.92829e-05
8.91062e-05
8.88079e-05
8.83898e-05
8.78497e-05
8.71837e-05
8.63875e-05
8.54572e-05
8.43892e-05
8.31804e-05
8.18286e-05
8.03322e-05
7.86902e-05
7.69023e-05
7.49688e-05
7.28905e-05
7.06683e-05
6.83032e-05
6.57958e-05
6.31456e-05
6.035e-05
5.7403e-05
5.42936e-05
5.10047e-05
4.74513e-05
4.34885e-05
3.88209e-05
3.27562e-05
2.4228e-05
1.17285e-05
3.31335e-07
1.36201e-07
6.70409e-06
1.50241e-05
2.12596e-05
2.63435e-05
3.06334e-05
3.42434e-05
3.7414e-05
4.02417e-05
4.27773e-05
4.50573e-05
4.71196e-05
4.89798e-05
5.06525e-05
5.2151e-05
5.34878e-05
5.46742e-05
5.57207e-05
5.66372e-05
5.74331e-05
5.81169e-05
5.86968e-05
5.91799e-05
5.95718e-05
5.98724e-05
6.00633e-05
6.01744e-05
6.02213e-05
6.02148e-05
6.01624e-05
6.00702e-05
5.99432e-05
5.97859e-05
5.96021e-05
5.93955e-05
5.91691e-05
5.89258e-05
5.86682e-05
5.83986e-05
5.81193e-05
5.78321e-05
5.75389e-05
5.72413e-05
5.69411e-05
5.66396e-05
5.63385e-05
5.60391e-05
5.57418e-05
5.54477e-05
5.51578e-05
5.48732e-05
5.45946e-05
5.4323e-05
5.40589e-05
5.3803e-05
5.3556e-05
5.33183e-05
5.30904e-05
5.28726e-05
5.2665e-05
5.24671e-05
5.22766e-05
5.20855e-05
5.1906e-05
5.17392e-05
5.15856e-05
5.14456e-05
5.13194e-05
5.12073e-05
5.11094e-05
5.10258e-05
5.09566e-05
5.09019e-05
5.08619e-05
5.08365e-05
5.08259e-05
5.083e-05
5.0849e-05
5.08827e-05
5.09312e-05
5.09944e-05
5.10722e-05
5.11647e-05
5.12716e-05
5.1393e-05
5.15289e-05
5.1679e-05
5.18432e-05
5.20213e-05
5.22132e-05
5.24188e-05
5.26377e-05
5.28698e-05
5.31149e-05
5.33728e-05
5.36431e-05
5.39258e-05
5.42204e-05
5.45267e-05
5.48444e-05
5.51734e-05
5.55131e-05
5.58635e-05
5.62241e-05
5.65947e-05
5.69749e-05
5.73646e-05
5.77633e-05
5.81708e-05
5.85868e-05
5.9011e-05
5.94432e-05
5.98831e-05
6.03305e-05
6.07851e-05
6.12468e-05
6.17153e-05
6.21905e-05
6.26723e-05
6.31605e-05
6.36549e-05
6.41556e-05
6.46625e-05
6.51754e-05
6.56945e-05
6.62197e-05
6.6751e-05
6.72885e-05
6.78322e-05
6.83823e-05
6.89387e-05
6.95016e-05
7.00711e-05
7.06473e-05
7.12302e-05
7.18199e-05
7.24165e-05
7.30199e-05
7.36302e-05
7.42472e-05
7.48709e-05
7.5501e-05
7.61372e-05
7.67791e-05
7.74261e-05
7.80776e-05
7.87328e-05
7.93907e-05
8.00501e-05
8.07095e-05
8.13675e-05
8.2022e-05
8.2671e-05
8.3312e-05
8.39423e-05
8.45589e-05
8.51584e-05
8.57371e-05
8.6291e-05
8.68157e-05
8.73066e-05
8.77585e-05
8.81663e-05
8.85243e-05
8.88267e-05
8.90674e-05
8.92401e-05
8.93382e-05
8.9355e-05
8.92819e-05
8.91053e-05
8.8807e-05
8.8389e-05
8.78489e-05
8.71829e-05
8.63868e-05
8.54565e-05
8.43885e-05
8.31798e-05
8.1828e-05
8.03317e-05
7.86897e-05
7.69018e-05
7.49684e-05
7.28901e-05
7.06679e-05
6.83029e-05
6.57955e-05
6.31453e-05
6.03497e-05
5.74027e-05
5.42932e-05
5.10044e-05
4.7451e-05
4.34882e-05
3.88206e-05
3.27559e-05
2.42279e-05
1.17285e-05
3.31332e-07
2.89201e-07
1.47497e-05
3.55083e-05
5.14807e-05
6.41383e-05
7.45214e-05
8.33026e-05
9.09066e-05
9.75924e-05
0.00010352
0.000108791
0.000113486
0.000117662
0.000121365
0.000124638
0.000127516
0.000130034
0.000132224
0.000134115
0.000135734
0.000137107
0.000138256
0.000139203
0.000139964
0.000140547
0.000140949
0.000141203
0.000141337
0.000141373
0.000141328
0.000141215
0.000141046
0.000140828
0.000140568
0.000140274
0.00013995
0.000139601
0.000139229
0.000138838
0.000138431
0.000138009
0.000137575
0.000137131
0.000136678
0.000136218
0.000135753
0.000135285
0.000134813
0.000134341
0.000133869
0.000133399
0.000132932
0.00013247
0.000132014
0.000131567
0.000131127
0.000130698
0.000130279
0.000129871
0.000129475
0.00012909
0.000128713
0.000128338
0.000127975
0.000127629
0.000127301
0.000126993
0.000126706
0.000126441
0.000126198
0.000125978
0.000125781
0.000125607
0.000125457
0.000125331
0.000125229
0.000125151
0.000125097
0.000125068
0.000125063
0.000125082
0.000125126
0.000125194
0.000125286
0.000125403
0.000125543
0.000125708
0.000125896
0.000126108
0.000126343
0.000126601
0.000126882
0.000127186
0.000127512
0.00012786
0.000128229
0.00012862
0.000129033
0.000129465
0.000129919
0.000130392
0.000130884
0.000131396
0.000131927
0.000132475
0.000133042
0.000133627
0.000134228
0.000134846
0.000135481
0.000136132
0.000136798
0.00013748
0.000138176
0.000138888
0.000139614
0.000140354
0.000141108
0.000141876
0.000142658
0.000143454
0.000144263
0.000145086
0.000145922
0.000146772
0.000147636
0.000148513
0.000149404
0.000150309
0.000151228
0.000152161
0.000153109
0.000154071
0.000155047
0.000156038
0.000157043
0.000158063
0.000159097
0.000160145
0.000161207
0.000162282
0.00016337
0.00016447
0.00016558
0.0001667
0.000167827
0.000168961
0.000170099
0.000171238
0.000172376
0.000173509
0.000174633
0.000175746
0.000176841
0.000177913
0.000178958
0.000179969
0.000180939
0.000181861
0.000182727
0.00018353
0.00018426
0.000184908
0.000185465
0.000185921
0.000186266
0.000186489
0.000186579
0.000186524
0.000186312
0.000185919
0.000185328
0.000184534
0.000183531
0.000182311
0.000180868
0.000179195
0.000177284
0.000175129
0.000172723
0.000170061
0.000167136
0.000163942
0.000160472
0.00015672
0.000152674
0.000148325
0.000143655
0.000138642
0.000133256
0.000127447
0.000121141
0.000114213
0.00010643
9.73818e-05
8.63192e-05
7.18536e-05
5.16191e-05
2.34448e-05
7.06724e-07
2.89195e-07
1.47488e-05
3.55059e-05
5.14772e-05
6.41342e-05
7.45169e-05
8.32979e-05
9.09018e-05
9.75876e-05
0.000103515
0.000108786
0.000113481
0.000117657
0.000121361
0.000124633
0.000127512
0.00013003
0.00013222
0.000134111
0.00013573
0.000137103
0.000138253
0.0001392
0.000139961
0.000140544
0.000140947
0.0001412
0.000141334
0.000141371
0.000141326
0.000141213
0.000141043
0.000140825
0.000140566
0.000140272
0.000139948
0.000139599
0.000139227
0.000138836
0.000138429
0.000138007
0.000137573
0.000137129
0.000136676
0.000136216
0.000135751
0.000135283
0.000134812
0.000134339
0.000133867
0.000133397
0.00013293
0.000132468
0.000132013
0.000131565
0.000131125
0.000130696
0.000130277
0.000129869
0.000129473
0.000129088
0.000128711
0.000128335
0.000127973
0.000127626
0.000127299
0.000126991
0.000126704
0.000126439
0.000126196
0.000125975
0.000125778
0.000125604
0.000125454
0.000125328
0.000125225
0.000125147
0.000125094
0.000125064
0.000125059
0.000125078
0.000125122
0.00012519
0.000125282
0.000125399
0.000125539
0.000125704
0.000125892
0.000126103
0.000126338
0.000126597
0.000126878
0.000127181
0.000127507
0.000127855
0.000128225
0.000128616
0.000129028
0.000129461
0.000129914
0.000130387
0.00013088
0.000131392
0.000131922
0.000132471
0.000133038
0.000133622
0.000134224
0.000134842
0.000135477
0.000136128
0.000136794
0.000137476
0.000138172
0.000138884
0.00013961
0.00014035
0.000141105
0.000141873
0.000142655
0.00014345
0.00014426
0.000145083
0.000145919
0.000146769
0.000147633
0.00014851
0.000149401
0.000150306
0.000151225
0.000152159
0.000153106
0.000154068
0.000155044
0.000156035
0.000157041
0.000158061
0.000159095
0.000160143
0.000161205
0.00016228
0.000163368
0.000164467
0.000165578
0.000166697
0.000167825
0.000168959
0.000170096
0.000171236
0.000172373
0.000173506
0.000174631
0.000175743
0.000176839
0.000177911
0.000178956
0.000179967
0.000180937
0.000181859
0.000182725
0.000183528
0.000184258
0.000184906
0.000185463
0.000185919
0.000186264
0.000186487
0.000186577
0.000186523
0.000186311
0.000185918
0.000185327
0.000184533
0.00018353
0.00018231
0.000180867
0.000179194
0.000177283
0.000175128
0.000172723
0.000170061
0.000167136
0.000163942
0.000160473
0.00015672
0.000152675
0.000148325
0.000143655
0.000138643
0.000133256
0.000127447
0.000121142
0.000114214
0.00010643
9.73821e-05
8.63193e-05
7.18537e-05
5.16191e-05
2.3445e-05
7.06721e-07
4.42592e-07
2.04936e-05
5.06616e-05
7.52142e-05
9.49396e-05
0.000111304
0.00012525
0.000137355
0.000147985
0.000157382
0.000165715
0.00017311
0.000179664
0.000185458
0.00019056
0.000195032
0.000198933
0.000202314
0.000205225
0.000207712
0.000209818
0.000211582
0.000213038
0.000214218
0.000215145
0.000215838
0.000216322
0.000216641
0.000216822
0.000216889
0.000216861
0.000216753
0.000216579
0.00021635
0.000216073
0.000215755
0.000215402
0.000215019
0.000214608
0.000214173
0.000213716
0.000213239
0.000212743
0.000212231
0.000211703
0.000211161
0.000210608
0.000210044
0.00020947
0.000208889
0.000208303
0.000207712
0.000207119
0.000206527
0.000205936
0.000205348
0.000204765
0.000204188
0.000203618
0.000203056
0.000202501
0.000201952
0.000201407
0.000200873
0.000200353
0.00019985
0.000199367
0.000198905
0.000198467
0.000198052
0.000197662
0.000197297
0.000196958
0.000196646
0.000196362
0.000196105
0.000195875
0.000195675
0.000195502
0.000195358
0.000195243
0.000195157
0.0001951
0.000195072
0.000195073
0.000195103
0.000195163
0.000195252
0.00019537
0.000195518
0.000195695
0.000195901
0.000196136
0.0001964
0.000196693
0.000197014
0.000197365
0.000197743
0.00019815
0.000198585
0.000199048
0.000199538
0.000200055
0.0002006
0.000201171
0.000201768
0.000202391
0.00020304
0.000203715
0.000204414
0.000205139
0.000205888
0.000206661
0.000207458
0.000208279
0.000209123
0.000209991
0.000210881
0.000211795
0.000212732
0.000213692
0.000214674
0.000215679
0.000216708
0.000217759
0.000218833
0.00021993
0.000221051
0.000222194
0.000223362
0.000224553
0.000225767
0.000227005
0.000228267
0.000229553
0.000230862
0.000232195
0.00023355
0.000234928
0.000236328
0.000237748
0.000239188
0.000240647
0.000242122
0.000243612
0.000245114
0.000246625
0.000248143
0.000249663
0.000251182
0.000252694
0.000254194
0.000255677
0.000257136
0.000258563
0.000259951
0.000261292
0.000262576
0.000263793
0.000264934
0.000265986
0.000266939
0.000267781
0.000268499
0.000269079
0.00026951
0.000269776
0.000269863
0.000269757
0.000269443
0.000268892
0.000268089
0.000267025
0.000265687
0.000264066
0.00026215
0.000259929
0.000257392
0.000254527
0.000251324
0.000247769
0.000243848
0.000239548
0.00023485
0.000229734
0.000224174
0.000218141
0.000211593
0.000204478
0.000196723
0.000188224
0.000178826
0.000168287
0.000156213
0.000141962
0.000124475
0.000102026
7.20148e-05
3.22758e-05
1.11552e-06
4.42582e-07
2.04925e-05
5.06582e-05
7.52091e-05
9.49333e-05
0.000111297
0.000125242
0.000137347
0.000147977
0.000157374
0.000165708
0.000173103
0.000179657
0.000185451
0.000190553
0.000195026
0.000198927
0.000202309
0.00020522
0.000207707
0.000209814
0.000211578
0.000213035
0.000214215
0.000215142
0.000215835
0.000216319
0.000216638
0.00021682
0.000216887
0.000216859
0.000216751
0.000216577
0.000216348
0.000216071
0.000215753
0.0002154
0.000215017
0.000214607
0.000214171
0.000213714
0.000213237
0.000212741
0.000212229
0.000211701
0.000211159
0.000210606
0.000210041
0.000209468
0.000208887
0.0002083
0.00020771
0.000207117
0.000206524
0.000205933
0.000205346
0.000204762
0.000204185
0.000203616
0.000203053
0.000202498
0.000201949
0.000201404
0.00020087
0.000200349
0.000199846
0.000199363
0.000198902
0.000198463
0.000198047
0.000197657
0.000197292
0.000196954
0.000196642
0.000196357
0.0001961
0.00019587
0.000195669
0.000195496
0.000195352
0.000195237
0.000195151
0.000195094
0.000195065
0.000195067
0.000195097
0.000195157
0.000195246
0.000195364
0.000195511
0.000195688
0.000195894
0.000196129
0.000196393
0.000196686
0.000197008
0.000197358
0.000197737
0.000198144
0.000198579
0.000199041
0.000199531
0.000200049
0.000200593
0.000201164
0.000201762
0.000202385
0.000203034
0.000203709
0.000204409
0.000205133
0.000205882
0.000206655
0.000207452
0.000208273
0.000209118
0.000209985
0.000210876
0.00021179
0.000212727
0.000213687
0.000214669
0.000215675
0.000216703
0.000217754
0.000218829
0.000219926
0.000221047
0.00022219
0.000223358
0.000224549
0.000225764
0.000227002
0.000228264
0.00022955
0.000230859
0.000232192
0.000233547
0.000234925
0.000236325
0.000237745
0.000239185
0.000240644
0.000242119
0.000243609
0.000245111
0.000246622
0.00024814
0.00024966
0.000251179
0.000252691
0.000254192
0.000255675
0.000257133
0.000258561
0.000259949
0.00026129
0.000262573
0.000263791
0.000264931
0.000265984
0.000266937
0.000267779
0.000268497
0.000269077
0.000269508
0.000269774
0.000269861
0.000269756
0.000269441
0.00026889
0.000268088
0.000267024
0.000265686
0.000264065
0.00026215
0.000259929
0.000257392
0.000254528
0.000251324
0.000247769
0.000243849
0.000239549
0.000234851
0.000229735
0.000224176
0.000218143
0.000211595
0.00020448
0.000196725
0.000188226
0.000178828
0.000168288
0.000156214
0.000141964
0.000124476
0.000102027
7.20153e-05
3.22762e-05
1.11552e-06
5.92378e-07
2.49171e-05
6.19807e-05
9.33347e-05
0.000119134
0.000140841
0.000159484
0.000175734
0.000190035
0.000202694
0.000213931
0.000223909
0.00023276
0.000240591
0.000247497
0.00025356
0.000258857
0.00026346
0.000267433
0.00027084
0.000273737
0.00027618
0.000278216
0.000279889
0.000281237
0.000282294
0.000283089
0.000283674
0.000284079
0.000284335
0.000284465
0.00028449
0.000284426
0.000284287
0.000284084
0.000283826
0.000283519
0.000283169
0.00028278
0.000282356
0.000281899
0.000281412
0.000280896
0.000280353
0.000279784
0.000279193
0.000278579
0.000277946
0.000277294
0.000276626
0.000275943
0.000275248
0.000274544
0.000273831
0.000273112
0.00027239
0.000271666
0.000270942
0.000270219
0.000269499
0.000268781
0.000268066
0.000267354
0.000266649
0.000265955
0.000265275
0.000264612
0.000263968
0.000263346
0.000262746
0.000262169
0.000261618
0.000261093
0.000260595
0.000260124
0.000259681
0.000259267
0.000258883
0.000258528
0.000258204
0.000257909
0.000257646
0.000257414
0.000257213
0.000257044
0.000256907
0.000256802
0.00025673
0.000256691
0.000256685
0.000256712
0.000256773
0.000256867
0.000256996
0.000257159
0.000257356
0.000257587
0.000257854
0.000258155
0.00025849
0.000258861
0.000259266
0.000259706
0.000260181
0.000260691
0.000261235
0.000261813
0.000262425
0.000263072
0.000263753
0.000264467
0.000265215
0.000265997
0.000266811
0.000267659
0.00026854
0.000269453
0.000270399
0.000271378
0.00027239
0.000273434
0.000274511
0.00027562
0.000276762
0.000277937
0.000279144
0.000280385
0.000281658
0.000282965
0.000284305
0.000285678
0.000287085
0.000288524
0.000289997
0.000291503
0.000293041
0.000294612
0.000296214
0.000297847
0.00029951
0.000301201
0.000302919
0.000304662
0.000306428
0.000308214
0.000310016
0.000311832
0.000313657
0.000315486
0.000317314
0.000319136
0.000320943
0.00032273
0.000324487
0.000326207
0.000327879
0.000329494
0.000331039
0.000332505
0.000333877
0.000335144
0.00033629
0.000337303
0.000338167
0.000338867
0.000339387
0.000339712
0.000339823
0.000339704
0.000339338
0.000338698
0.000337766
0.000336528
0.00033497
0.000333077
0.000330835
0.000328229
0.000325243
0.000321861
0.000318065
0.000313835
0.000309148
0.000303979
0.000298298
0.00029207
0.000285251
0.000277789
0.000269619
0.000260654
0.00025078
0.000239837
0.000227598
0.000213722
0.000197686
0.000178682
0.00015545
0.00012607
8.7874e-05
3.92125e-05
1.55427e-06
5.92365e-07
2.49159e-05
6.19768e-05
9.33286e-05
0.000119126
0.000140832
0.000159474
0.000175724
0.000190025
0.000202685
0.000213921
0.000223899
0.000232751
0.000240583
0.000247489
0.000253553
0.00025885
0.000263453
0.000267427
0.000270834
0.000273733
0.000276176
0.000278212
0.000279886
0.000281234
0.000282291
0.000283087
0.000283672
0.000284078
0.000284334
0.000284464
0.000284489
0.000284425
0.000284286
0.000284083
0.000283825
0.000283518
0.000283169
0.00028278
0.000282356
0.000281899
0.000281411
0.000280895
0.000280352
0.000279784
0.000279192
0.000278578
0.000277945
0.000277293
0.000276624
0.000275942
0.000275247
0.000274542
0.000273829
0.000273111
0.000272389
0.000271664
0.00027094
0.000270217
0.000269496
0.000268778
0.000268063
0.000267351
0.000266646
0.000265951
0.000265271
0.000264608
0.000263965
0.000263342
0.000262741
0.000262165
0.000261613
0.000261088
0.000260589
0.000260118
0.000259676
0.000259262
0.000258877
0.000258522
0.000258197
0.000257903
0.000257639
0.000257407
0.000257206
0.000257037
0.0002569
0.000256795
0.000256723
0.000256684
0.000256677
0.000256705
0.000256765
0.00025686
0.000256988
0.000257151
0.000257348
0.00025758
0.000257846
0.000258147
0.000258483
0.000258854
0.000259259
0.000259699
0.000260174
0.000260683
0.000261228
0.000261806
0.000262419
0.000263066
0.000263746
0.000264461
0.000265209
0.00026599
0.000266805
0.000267653
0.000268534
0.000269448
0.000270394
0.000271373
0.000272385
0.000273429
0.000274506
0.000275615
0.000276757
0.000277932
0.00027914
0.000280381
0.000281654
0.000282961
0.000284301
0.000285674
0.000287081
0.000288521
0.000289994
0.0002915
0.000293038
0.000294609
0.000296211
0.000297844
0.000299507
0.000301198
0.000302916
0.000304659
0.000306425
0.000308211
0.000310014
0.000311829
0.000313654
0.000315484
0.000317312
0.000319133
0.00032094
0.000322727
0.000324485
0.000326204
0.000327876
0.000329491
0.000331037
0.000332502
0.000333875
0.000335141
0.000336288
0.000337301
0.000338165
0.000338865
0.000339386
0.00033971
0.000339821
0.000339703
0.000339337
0.000338697
0.000337765
0.000336527
0.000334969
0.000333077
0.000330835
0.000328229
0.000325244
0.000321862
0.000318067
0.000313837
0.00030915
0.000303981
0.000298301
0.000292072
0.000285254
0.000277792
0.000269622
0.000260657
0.000250783
0.00023984
0.000227601
0.000213725
0.000197689
0.000178684
0.000155452
0.000126071
8.78749e-05
3.92132e-05
1.55427e-06
7.4491e-07
2.84505e-05
7.08142e-05
0.00010769
0.00013864
0.000164985
0.000187771
0.000207723
0.000225338
0.00024097
0.000254876
0.000267254
0.000278261
0.000288026
0.000296662
0.000304271
0.000310943
0.000316765
0.000321817
0.000326173
0.000329903
0.000333074
0.000335746
0.000337973
0.000339805
0.000341285
0.000342455
0.000343365
0.000344053
0.000344552
0.000344892
0.000345096
0.000345184
0.000345173
0.000345077
0.000344904
0.000344666
0.000344367
0.000344013
0.000343609
0.000343157
0.000342662
0.000342125
0.00034155
0.000340937
0.00034029
0.00033961
0.0003389
0.000338163
0.0003374
0.000336614
0.000335808
0.000334984
0.000334144
0.000333293
0.000332431
0.000331561
0.000330685
0.000329805
0.000328923
0.000328039
0.000327156
0.000326273
0.000325395
0.000324525
0.000323666
0.000322821
0.000321992
0.000321183
0.000320394
0.000319628
0.000318886
0.000318168
0.000317477
0.000316812
0.000316176
0.000315568
0.000314989
0.00031444
0.000313922
0.000313434
0.000312977
0.000312553
0.00031216
0.0003118
0.000311474
0.000311181
0.000310923
0.0003107
0.000310511
0.000310359
0.000310243
0.000310165
0.000310124
0.000310121
0.000310156
0.000310231
0.000310345
0.000310499
0.000310694
0.000310929
0.000311206
0.000311524
0.000311883
0.000312285
0.000312728
0.000313214
0.000313741
0.000314311
0.000314924
0.000315578
0.000316275
0.000317014
0.000317796
0.00031862
0.000319486
0.000320394
0.000321344
0.000322336
0.000323371
0.000324448
0.000325567
0.000326728
0.000327932
0.000329178
0.000330467
0.000331798
0.000333172
0.000334589
0.000336049
0.000337551
0.000339096
0.000340684
0.000342314
0.000343985
0.000345699
0.000347453
0.000349247
0.00035108
0.000352951
0.000354857
0.000356797
0.000358769
0.000360769
0.000362795
0.000364842
0.000366906
0.000368982
0.000371066
0.000373149
0.000375226
0.000377288
0.000379327
0.000381335
0.0003833
0.000385211
0.000387058
0.000388828
0.000390507
0.000392082
0.000393537
0.000394858
0.000396029
0.000397032
0.000397852
0.000398471
0.00039887
0.000399032
0.000398938
0.000398567
0.000397895
0.000396901
0.00039557
0.000393883
0.000391823
0.000389371
0.000386508
0.000383214
0.000379466
0.000375239
0.000370504
0.00036523
0.00035938
0.000352911
0.000345771
0.000337899
0.000329222
0.000319647
0.000309058
0.000297301
0.000284169
0.00026937
0.000252486
0.000232895
0.000209667
0.000181406
0.000146066
0.000100966
4.50123e-05
2.00167e-06
7.44893e-07
2.84493e-05
7.08101e-05
0.000107683
0.000138631
0.000164975
0.000187761
0.000207712
0.000225327
0.000240959
0.000254866
0.000267244
0.000278251
0.000288017
0.000296654
0.000304263
0.000310937
0.000316759
0.000321811
0.000326168
0.000329899
0.000333071
0.000335743
0.000337971
0.000339803
0.000341284
0.000342454
0.000343365
0.000344053
0.000344553
0.000344893
0.000345097
0.000345185
0.000345175
0.000345078
0.000344906
0.000344667
0.000344369
0.000344015
0.000343611
0.000343159
0.000342664
0.000342127
0.000341551
0.000340939
0.000340291
0.000339611
0.000338901
0.000338164
0.000337401
0.000336615
0.000335808
0.000334984
0.000334145
0.000333293
0.000332431
0.000331561
0.000330685
0.000329805
0.000328922
0.000328038
0.000327155
0.000326272
0.000325393
0.000324523
0.000323664
0.000322818
0.00032199
0.00032118
0.000320391
0.000319625
0.000318882
0.000318164
0.000317473
0.000316808
0.000316171
0.000315563
0.000314984
0.000314435
0.000313916
0.000313428
0.000312971
0.000312546
0.000312154
0.000311794
0.000311467
0.000311175
0.000310916
0.000310693
0.000310504
0.000310352
0.000310236
0.000310158
0.000310116
0.000310113
0.000310149
0.000310223
0.000310338
0.000310492
0.000310687
0.000310922
0.000311199
0.000311517
0.000311876
0.000312278
0.000312721
0.000313207
0.000313735
0.000314305
0.000314917
0.000315572
0.000316269
0.000317009
0.00031779
0.000318614
0.00031948
0.000320388
0.000321339
0.000322331
0.000323366
0.000324443
0.000325562
0.000326724
0.000327928
0.000329174
0.000330463
0.000331794
0.000333169
0.000334586
0.000336045
0.000337548
0.000339093
0.000340681
0.000342311
0.000343983
0.000345696
0.00034745
0.000349245
0.000351078
0.000352948
0.000354855
0.000356795
0.000358767
0.000360767
0.000362792
0.00036484
0.000366904
0.00036898
0.000371063
0.000373147
0.000375224
0.000377286
0.000379325
0.000381333
0.000383298
0.000385209
0.000387056
0.000388826
0.000390505
0.00039208
0.000393535
0.000394856
0.000396027
0.000397031
0.000397851
0.00039847
0.000398869
0.000399031
0.000398937
0.000398567
0.000397894
0.000396901
0.00039557
0.000393884
0.000391824
0.000389372
0.00038651
0.000383216
0.000379468
0.000375241
0.000370507
0.000365233
0.000359383
0.000352914
0.000345774
0.000337903
0.000329226
0.000319651
0.000309062
0.000297305
0.000284172
0.000269374
0.000252489
0.000232898
0.000209671
0.000181409
0.000146068
0.000100967
4.50133e-05
2.00167e-06
9.00151e-07
3.14518e-05
7.81415e-05
0.000119606
0.000154934
0.000185291
0.00021171
0.000234939
0.000255515
0.000273825
0.000290157
0.000304734
0.000317732
0.000329301
0.000339569
0.00034865
0.000356649
0.000363663
0.000369782
0.000375092
0.000379673
0.000383599
0.000386942
0.000389763
0.000392123
0.000394072
0.000395659
0.000396937
0.000397948
0.000398731
0.000399316
0.000399731
0.0004
0.000400141
0.00040017
0.000400099
0.000399938
0.000399695
0.000399377
0.00039899
0.000398538
0.000398026
0.000397456
0.000396832
0.000396158
0.000395437
0.000394672
0.000393866
0.000393022
0.000392143
0.000391234
0.000390296
0.000389334
0.00038835
0.000387348
0.00038633
0.0003853
0.00038426
0.000383211
0.000382158
0.000381101
0.000380041
0.000378982