/*--------------------------------*- C++ -*----------------------------------*\
  =========                 |
  \\      /  F ield         | OpenFOAM: The Open Source CFD Toolbox
   \\    /   O peration     | Website:  https://openfoam.org
    \\  /    A nd           | Version:  8
     \\/     M anipulation  |
\*---------------------------------------------------------------------------*/
FoamFile
{
    version     2.0;
    format      ascii;
    class       surfaceScalarField;
    location    "1300";
    object      phi;
}
// * * * * * * * * * * * * * * * * * * * * * * * * * * * * * * * * * * * * * //

dimensions      [1 0 -1 0 0 0 0];

internalField   nonuniform List<scalar> 
114370
(
-3.60155e-10
5.23563e-14
3.60102e-10
-9.44228e-10
3.46444e-14
5.83065e-10
-1.48337e-09
2.60881e-14
5.38338e-10
-1.83132e-09
2.09239e-14
3.47314e-10
-1.94952e-09
1.6051e-14
1.17595e-10
-1.85186e-09
1.25074e-14
-9.82309e-11
-1.57347e-09
1.04575e-14
-2.78965e-10
-1.15421e-09
9.40992e-15
-4.19823e-10
-6.30916e-10
8.81857e-15
-5.23852e-10
-3.59139e-11
8.20337e-15
-5.95565e-10
6.01896e-10
7.10801e-15
-6.38376e-10
1.25803e-09
6.25924e-15
-6.56698e-10
1.91337e-09
6.12432e-15
-6.55883e-10
2.55206e-09
6.26655e-15
-6.39231e-10
3.16115e-09
6.60267e-15
-6.09628e-10
3.73016e-09
7.10106e-15
-5.69541e-10
4.25077e-09
7.66544e-15
-5.2113e-10
4.71655e-09
8.10372e-15
-4.66303e-10
5.12279e-09
8.30225e-15
-4.0676e-10
5.4663e-09
8.3018e-15
-3.44025e-10
5.74525e-09
8.22681e-15
-2.79471e-10
5.95908e-09
8.16052e-15
-2.14338e-10
6.10832e-09
8.0873e-15
-1.49756e-10
6.19458e-09
7.95291e-15
-8.677e-11
6.22046e-09
7.69876e-15
-2.63928e-11
6.18904e-09
7.47475e-15
3.09037e-11
6.10351e-09
7.39051e-15
8.50208e-11
5.96745e-09
7.42466e-15
1.35555e-10
5.7849e-09
7.62488e-15
1.82045e-10
5.56025e-09
7.963e-15
2.24152e-10
5.29811e-09
8.40521e-15
2.61638e-10
5.00325e-09
8.93547e-15
2.94363e-10
4.68048e-09
9.54035e-15
3.2227e-10
4.33461e-09
1.02125e-14
3.45376e-10
3.97036e-09
1.09435e-14
3.63759e-10
3.59231e-09
1.17275e-14
3.77555e-10
3.20487e-09
1.25539e-14
3.86948e-10
2.81221e-09
1.34146e-14
3.92162e-10
2.41826e-09
1.4302e-14
3.93454e-10
2.02666e-09
1.52107e-14
3.91108e-10
1.64073e-09
1.61272e-14
3.85429e-10
1.2635e-09
1.6979e-14
3.76736e-10
8.97643e-10
1.76904e-14
3.65357e-10
5.45521e-10
1.82556e-14
3.51623e-10
2.09165e-10
1.8641e-14
3.35854e-10
-1.09706e-10
1.86942e-14
3.18367e-10
-4.09489e-10
1.8375e-14
2.99279e-10
-6.88975e-10
1.78692e-14
2.78986e-10
-9.47474e-10
1.73375e-14
2.58002e-10
-1.18451e-09
1.68226e-14
2.36543e-10
-1.39982e-09
1.63328e-14
2.14827e-10
-1.59336e-09
1.59124e-14
1.93049e-10
-1.76522e-09
1.55618e-14
1.71384e-10
-1.91568e-09
1.52212e-14
1.49988e-10
-2.04517e-09
1.48295e-14
1.29015e-10
-2.15422e-09
1.43589e-14
1.08581e-10
-2.2434e-09
1.37946e-14
8.87256e-11
-2.31338e-09
1.30903e-14
6.95197e-11
-2.36487e-09
1.22372e-14
5.10381e-11
-2.39864e-09
1.12315e-14
3.33234e-11
-2.41548e-09
1.00979e-14
1.63988e-11
-2.4162e-09
8.88702e-15
2.7593e-13
-2.40167e-09
7.60342e-15
-1.49605e-11
-2.3728e-09
6.29842e-15
-2.92962e-11
-2.33043e-09
5.05151e-15
-4.27988e-11
-2.27536e-09
3.90041e-15
-5.54836e-11
-2.20839e-09
2.87116e-15
-6.73758e-11
-2.1303e-09
1.99714e-15
-7.85033e-11
-2.0418e-09
1.32261e-15
-8.8894e-11
-1.94363e-09
8.74886e-16
-9.85707e-11
-1.83644e-09
6.67417e-16
-1.07581e-10
-1.72083e-09
7.08003e-16
-1.15991e-10
-1.59738e-09
1.01442e-15
-1.23834e-10
-1.46663e-09
1.58928e-15
-1.31132e-10
-1.32908e-09
2.41826e-15
-1.3792e-10
-1.18522e-09
3.45235e-15
-1.4423e-10
-1.0355e-09
4.64819e-15
-1.50094e-10
-8.80316e-10
5.95896e-15
-1.55545e-10
-7.20063e-10
7.31093e-15
-1.60617e-10
-5.55083e-10
8.62085e-15
-1.65341e-10
-3.85696e-10
9.8228e-15
-1.69747e-10
-2.12181e-10
1.08756e-14
-1.73873e-10
-3.482e-11
1.17138e-14
-1.77717e-10
1.46061e-10
1.22081e-14
-1.81236e-10
3.30156e-10
1.23456e-14
-1.84445e-10
5.17212e-10
1.2209e-14
-1.87402e-10
7.06998e-10
1.18057e-14
-1.90128e-10
8.99301e-10
1.11536e-14
-1.9264e-10
1.09392e-09
1.03106e-14
-1.94954e-10
1.29068e-09
9.35015e-15
-1.97084e-10
1.4894e-09
8.32854e-15
-1.99039e-10
1.68991e-09
7.29002e-15
-2.0083e-10
1.89206e-09
6.27795e-15
-2.02465e-10
2.09571e-09
5.32529e-15
-2.03952e-10
2.3007e-09
4.45544e-15
-2.05295e-10
2.5069e-09
3.68708e-15
-2.065e-10
2.71418e-09
3.02281e-15
-2.07572e-10
2.92241e-09
2.46522e-15
-2.08514e-10
3.13146e-09
2.01301e-15
-2.09329e-10
3.34121e-09
1.65405e-15
-2.1002e-10
3.55152e-09
1.37749e-15
-2.10586e-10
3.76229e-09
1.15948e-15
-2.11029e-10
3.97338e-09
9.83111e-16
-2.1135e-10
4.18468e-09
8.38405e-16
-2.11547e-10
4.39605e-09
7.17122e-16
-2.11621e-10
4.60739e-09
6.17519e-16
-2.11571e-10
4.81855e-09
5.35691e-16
-2.11396e-10
5.02942e-09
4.69036e-16
-2.11097e-10
5.23987e-09
4.05849e-16
-2.10672e-10
5.44977e-09
3.35285e-16
-2.10123e-10
5.65901e-09
2.49105e-16
-2.09451e-10
5.86747e-09
1.52515e-16
-2.08659e-10
6.07502e-09
4.812e-17
-2.07749e-10
6.28155e-09
-6.1912e-17
-2.06726e-10
6.48695e-09
-1.75848e-16
-2.05594e-10
6.69113e-09
-2.89784e-16
-2.04359e-10
6.89398e-09
-3.97649e-16
-2.03027e-10
7.09541e-09
-4.94238e-16
-2.01606e-10
7.29535e-09
-5.77819e-16
-2.00106e-10
7.49372e-09
-6.51862e-16
-1.98536e-10
7.69047e-09
-7.10295e-16
-1.96906e-10
7.88554e-09
-7.63526e-16
-1.95227e-10
8.0789e-09
-8.18928e-16
-1.93512e-10
8.27053e-09
-8.86045e-16
-1.91772e-10
8.46041e-09
-9.59237e-16
-1.90021e-10
8.64854e-09
-1.02896e-15
-1.88272e-10
8.83495e-09
-1.08394e-15
-1.86539e-10
9.01965e-09
-1.10422e-15
-1.84839e-10
9.20271e-09
-1.08808e-15
-1.83184e-10
9.38418e-09
-1.02728e-15
-1.81589e-10
9.56412e-09
-9.28328e-16
-1.80069e-10
9.74264e-09
-7.96855e-16
-1.78639e-10
9.91984e-09
-6.53245e-16
-1.77311e-10
1.00958e-08
-5.09208e-16
-1.76101e-10
1.02707e-08
-3.78617e-16
-1.7502e-10
1.04447e-08
-2.64072e-16
-1.74082e-10
1.06179e-08
-1.67738e-16
-1.73298e-10
1.07905e-08
-9.17811e-17
-1.72677e-10
1.09626e-08
-4.01054e-17
-1.72229e-10
1.11345e-08
-1.61831e-17
-1.71961e-10
1.13062e-08
-2.69563e-17
-1.71879e-10
1.14781e-08
-6.67891e-17
-1.71985e-10
1.16503e-08
-1.21371e-16
-1.72278e-10
1.18229e-08
-1.79425e-16
-1.72755e-10
1.19963e-08
-2.37918e-16
-1.73406e-10
1.21704e-08
-2.97284e-16
-1.74221e-10
1.23455e-08
-3.60126e-16
-1.75181e-10
1.25216e-08
-4.20801e-16
-1.7626e-10
1.26989e-08
-4.57406e-16
-1.77426e-10
1.28775e-08
-4.49986e-16
-1.78636e-10
1.30572e-08
-3.89434e-16
-1.79838e-10
1.32381e-08
-2.74453e-16
-1.80967e-10
1.34199e-08
-1.01141e-16
-1.81943e-10
1.36025e-08
1.4438e-16
-1.82674e-10
1.37854e-08
4.94205e-16
-1.83049e-10
1.39682e-08
9.6763e-16
-1.82942e-10
1.41503e-08
1.56248e-15
-1.82206e-10
1.43309e-08
2.26097e-15
-1.80674e-10
1.45089e-08
3.04595e-15
-1.78158e-10
1.46832e-08
3.91159e-15
-1.74449e-10
1.48524e-08
4.84683e-15
-1.69315e-10
1.50147e-08
5.82392e-15
-1.62507e-10
1.51683e-08
6.79039e-15
-1.53752e-10
1.53109e-08
7.69094e-15
-1.42761e-10
1.544e-08
8.4755e-15
-1.29232e-10
1.55526e-08
9.09441e-15
-1.12855e-10
1.56458e-08
9.50909e-15
-9.3321e-11
1.57159e-08
9.71149e-15
-7.03339e-11
1.57593e-08
9.76516e-15
-4.36206e-11
1.5772e-08
9.77353e-15
-1.29754e-11
1.57499e-08
9.82701e-15
2.19248e-11
1.5688e-08
1.00414e-14
6.16682e-11
1.5581e-08
1.05155e-14
1.06689e-10
1.54236e-08
1.13123e-14
1.57148e-10
1.52102e-08
1.24098e-14
2.1314e-10
1.49352e-08
1.37119e-14
2.74685e-10
1.45932e-08
1.50766e-14
3.41709e-10
1.41788e-08
1.64061e-14
4.14021e-10
1.36872e-08
1.76998e-14
4.91283e-10
1.31139e-08
1.90366e-14
5.72979e-10
1.24551e-08
2.04993e-14
6.58388e-10
1.17082e-08
2.21211e-14
7.46541e-10
1.08716e-08
2.38644e-14
8.36179e-10
9.94544e-09
2.56335e-14
9.257e-10
8.93189e-09
2.7335e-14
1.0131e-09
7.83553e-09
2.89914e-14
1.09589e-09
6.66404e-09
3.07298e-14
1.17099e-09
5.42895e-09
3.26711e-14
1.23457e-09
4.14652e-09
3.47719e-14
1.28188e-09
2.83908e-09
3.68406e-14
1.30686e-09
1.53682e-09
3.86477e-14
1.30164e-09
2.79991e-10
3.99599e-14
1.25618e-09
-8.73772e-10
3.97937e-14
1.15307e-09
-1.8488e-09
3.85828e-14
9.74317e-10
-2.55345e-09
3.84829e-14
7.03907e-10
-2.87863e-09
4.05576e-14
3.24416e-10
-2.71695e-09
4.46244e-14
-1.6248e-10
-2.02022e-09
4.73536e-14
-6.97602e-10
-9.37091e-10
4.29714e-14
-1.0841e-09
1.84087e-14
-9.38157e-10
-3.60302e-10
3.5997e-10
-9.44305e-10
5.82903e-10
-1.48341e-09
5.38189e-10
-1.83135e-09
3.47185e-10
-1.94952e-09
1.17484e-10
-1.85186e-09
-9.83299e-11
-1.57345e-09
-2.79054e-10
-1.15419e-09
-4.19905e-10
-6.30887e-10
-5.23929e-10
-3.58772e-11
-5.95637e-10
6.01946e-10
-6.3844e-10
1.2581e-09
-6.56755e-10
1.91344e-09
-6.55936e-10
2.55214e-09
-6.3928e-10
3.16124e-09
-6.09673e-10
3.73026e-09
-5.69585e-10
4.25086e-09
-5.21174e-10
4.71664e-09
-4.66349e-10
5.12288e-09
-4.0681e-10
5.46639e-09
-3.44081e-10
5.74535e-09
-2.79533e-10
5.95918e-09
-2.14406e-10
6.10843e-09
-1.49831e-10
6.1947e-09
-8.685e-11
6.22058e-09
-2.64761e-11
6.18917e-09
3.08181e-11
6.10365e-09
8.49334e-11
5.96759e-09
1.35467e-10
5.78504e-09
1.81958e-10
5.56038e-09
2.24066e-10
5.29824e-09
2.61553e-10
5.00337e-09
2.94279e-10
4.6806e-09
3.22186e-10
4.33473e-09
3.4529e-10
3.97048e-09
3.63672e-10
3.59243e-09
3.77467e-10
3.20498e-09
3.8686e-10
2.81233e-09
3.92075e-10
2.41838e-09
3.93369e-10
2.02678e-09
3.91026e-10
1.64086e-09
3.85351e-10
1.26362e-09
3.76662e-10
8.97761e-10
3.65287e-10
5.45634e-10
3.51555e-10
2.09276e-10
3.35787e-10
-1.09596e-10
3.18301e-10
-4.09377e-10
2.99213e-10
-6.88859e-10
2.78921e-10
-9.47352e-10
2.57937e-10
-1.18438e-09
2.36479e-10
-1.39969e-09
2.14764e-10
-1.59322e-09
1.92988e-10
-1.76508e-09
1.71326e-10
-1.91554e-09
1.49932e-10
-2.04502e-09
1.28961e-10
-2.15407e-09
1.08528e-10
-2.24326e-09
8.86731e-11
-2.31324e-09
6.94668e-11
-2.36473e-09
5.09839e-11
-2.39851e-09
3.32674e-11
-2.41535e-09
1.63405e-11
-2.41606e-09
2.15602e-13
-2.40153e-09
-1.50224e-11
-2.37266e-09
-2.93593e-11
-2.33029e-09
-4.28628e-11
-2.27522e-09
-5.55481e-11
-2.20826e-09
-6.74405e-11
-2.13017e-09
-7.85679e-11
-2.04168e-09
-8.89585e-11
-1.94351e-09
-9.86351e-11
-1.83632e-09
-1.07645e-10
-1.72072e-09
-1.16055e-10
-1.59727e-09
-1.23897e-10
-1.46652e-09
-1.31195e-10
-1.32897e-09
-1.37981e-10
-1.18512e-09
-1.44289e-10
-1.03539e-09
-1.5015e-10
-8.80217e-10
-1.55599e-10
-7.19966e-10
-1.60668e-10
-5.5499e-10
-1.65389e-10
-3.85607e-10
-1.69793e-10
-2.12096e-10
-1.73917e-10
-3.47395e-11
-1.7776e-10
1.46138e-10
-1.81277e-10
3.3023e-10
-1.84485e-10
5.17283e-10
-1.87442e-10
7.07067e-10
-1.90168e-10
8.99369e-10
-1.92681e-10
1.09399e-09
-1.94997e-10
1.29075e-09
-1.97128e-10
1.48947e-09
-1.99085e-10
1.68998e-09
-2.00877e-10
1.89214e-09
-2.02513e-10
2.09578e-09
-2.04e-10
2.30078e-09
-2.05343e-10
2.50698e-09
-2.06548e-10
2.71426e-09
-2.07619e-10
2.92249e-09
-2.08561e-10
3.13153e-09
-2.09375e-10
3.34128e-09
-2.10064e-10
3.55159e-09
-2.1063e-10
3.76235e-09
-2.11072e-10
3.97344e-09
-2.11392e-10
4.18474e-09
-2.11588e-10
4.39611e-09
-2.11661e-10
4.60744e-09
-2.11611e-10
4.8186e-09
-2.11435e-10
5.02947e-09
-2.11134e-10
5.23991e-09
-2.10709e-10
5.44982e-09
-2.10159e-10
5.65906e-09
-2.09486e-10
5.86751e-09
-2.08693e-10
6.07506e-09
-2.07783e-10
6.28159e-09
-2.06759e-10
6.48699e-09
-2.05626e-10
6.69116e-09
-2.0439e-10
6.89401e-09
-2.03058e-10
7.09544e-09
-2.01637e-10
7.29538e-09
-2.00136e-10
7.49375e-09
-1.98565e-10
7.6905e-09
-1.96934e-10
7.88557e-09
-1.95254e-10
8.07893e-09
-1.93538e-10
8.27056e-09
-1.91798e-10
8.46043e-09
-1.90046e-10
8.64857e-09
-1.88297e-10
8.83497e-09
-1.86565e-10
9.01968e-09
-1.84864e-10
9.20274e-09
-1.83209e-10
9.38421e-09
-1.81614e-10
9.56416e-09
-1.80093e-10
9.74268e-09
-1.78662e-10
9.91987e-09
-1.77333e-10
1.00959e-08
-1.76122e-10
1.02708e-08
-1.7504e-10
1.04447e-08
-1.74101e-10
1.06179e-08
-1.73315e-10
1.07905e-08
-1.72694e-10
1.09626e-08
-1.72247e-10
1.11345e-08
-1.71979e-10
1.13063e-08
-1.71897e-10
1.14781e-08
-1.72003e-10
1.16503e-08
-1.72296e-10
1.1823e-08
-1.72772e-10
1.19963e-08
-1.73424e-10
1.21704e-08
-1.74239e-10
1.23455e-08
-1.75198e-10
1.25216e-08
-1.76276e-10
1.2699e-08
-1.77441e-10
1.28775e-08
-1.78651e-10
1.30572e-08
-1.79854e-10
1.32381e-08
-1.80983e-10
1.34199e-08
-1.81959e-10
1.36025e-08
-1.8269e-10
1.37854e-08
-1.83066e-10
1.39682e-08
-1.82959e-10
1.41503e-08
-1.82224e-10
1.43309e-08
-1.80691e-10
1.45089e-08
-1.78173e-10
1.46832e-08
-1.74461e-10
1.48524e-08
-1.69325e-10
1.50147e-08
-1.62514e-10
1.51683e-08
-1.53757e-10
1.53109e-08
-1.42765e-10
1.544e-08
-1.29235e-10
1.55527e-08
-1.12859e-10
1.56458e-08
-9.33276e-11
1.57159e-08
-7.03438e-11
1.57593e-08
-4.36342e-11
1.57721e-08
-1.29928e-11
1.57499e-08
2.19035e-11
1.5688e-08
6.16439e-11
1.55811e-08
1.06664e-10
1.54237e-08
1.57122e-10
1.52102e-08
2.13114e-10
1.49353e-08
2.7466e-10
1.45932e-08
3.41686e-10
1.41789e-08
4.13999e-10
1.36873e-08
4.91261e-10
1.31139e-08
5.72956e-10
1.24551e-08
6.58362e-10
1.17082e-08
7.46511e-10
1.08716e-08
8.36144e-10
9.94548e-09
9.25658e-10
8.93193e-09
1.01305e-09
7.83557e-09
1.09583e-09
6.66409e-09
1.17092e-09
5.429e-09
1.2345e-09
4.14657e-09
1.2818e-09
2.83912e-09
1.30677e-09
1.53686e-09
1.30155e-09
2.80009e-10
1.25609e-09
-8.73771e-10
1.15299e-09
-1.84882e-09
9.74238e-10
-2.55347e-09
7.03832e-10
-2.87865e-09
3.24343e-10
-2.71698e-09
-1.62554e-10
-2.02025e-09
-6.97679e-10
-9.37161e-10
-1.08418e-09
-9.38266e-10
-5.64211e-10
3.13969e-14
9.2335e-10
-1.1325e-09
2.4366e-15
1.1499e-09
-1.42775e-09
-2.11202e-15
8.32621e-10
-1.45409e-09
-2.71692e-15
3.72875e-10
-1.25116e-09
-3.29632e-15
-8.60493e-11
-8.6193e-10
-3.63753e-15
-4.88128e-10
-3.27223e-10
-3.43874e-15
-8.1432e-10
3.17055e-10
-3.06443e-15
-1.06473e-09
1.03837e-09
-2.73652e-15
-1.24579e-09
1.80879e-09
-2.41234e-15
-1.3666e-09
2.60531e-09
-2.11272e-15
-1.43551e-09
3.40836e-09
-1.85787e-15
-1.46033e-09
4.20078e-09
-1.6913e-15
-1.44888e-09
4.96814e-09
-1.62429e-15
-1.40717e-09
5.69842e-09
-1.60133e-15
-1.34046e-09
6.38164e-09
-1.61232e-15
-1.25332e-09
7.0097e-09
-1.68958e-15
-1.14974e-09
7.57616e-09
-1.86659e-15
-1.03331e-09
8.07612e-09
-2.13492e-15
-9.07266e-10
8.50607e-09
-2.4563e-15
-7.74517e-10
8.86378e-09
-2.79161e-15
-6.37719e-10
9.14818e-09
-3.127e-15
-4.99283e-10
9.35929e-09
-3.47528e-15
-3.61406e-10
9.49805e-09
-3.84938e-15
-2.26075e-10
9.56619e-09
-4.23868e-15
-9.50669e-11
9.56629e-09
-4.6078e-15
3.02578e-11
9.5018e-09
-4.90879e-15
1.48976e-10
9.37661e-09
-5.11874e-15
2.60215e-10
9.19503e-09
-5.23916e-15
3.63097e-10
8.96173e-09
-5.28261e-15
4.56925e-10
8.68167e-09
-5.25914e-15
5.41174e-10
8.36003e-09
-5.17625e-15
6.15487e-10
8.00211e-09
-5.0401e-15
6.79672e-10
7.61329e-09
-4.86121e-15
7.33681e-10
7.19893e-09
-4.64839e-15
7.77604e-10
6.76432e-09
-4.41239e-15
8.1165e-10
6.31462e-09
-4.15844e-15
8.36136e-10
5.85479e-09
-3.89163e-15
8.51475e-10
5.38958e-09
-3.61089e-15
8.58155e-10
4.92344e-09
-3.31143e-15
8.56734e-10
4.46054e-09
-2.99496e-15
8.47822e-10
4.00469e-09
-2.67404e-15
8.32067e-10
3.55939e-09
-2.36696e-15
8.10145e-10
3.12776e-09
-2.08508e-15
7.82746e-10
2.71254e-09
-1.83914e-15
7.50555e-10
2.31614e-09
-1.63381e-15
7.14251e-10
1.94053e-09
-1.46846e-15
6.74381e-10
1.58736e-09
-1.34648e-15
6.31637e-10
1.25807e-09
-1.2655e-15
5.8679e-10
9.53698e-10
-1.21968e-15
5.40413e-10
6.74984e-10
-1.20719e-15
4.9304e-10
4.22388e-10
-1.21825e-15
4.45147e-10
1.9612e-10
-1.23246e-15
3.97159e-10
-3.832e-12
-1.25555e-15
3.4945e-10
-1.77639e-10
-1.30073e-15
3.02336e-10
-3.25651e-10
-1.36461e-15
2.56111e-10
-4.48435e-10
-1.45003e-15
2.11032e-10
-5.46683e-10
-1.57411e-15
1.67294e-10
-6.21159e-10
-1.74653e-15
1.25044e-10
-6.72696e-10
-1.96783e-15
8.43952e-11
-7.02188e-10
-2.23022e-15
4.54292e-11
-7.10566e-10
-2.52473e-15
8.19804e-12
-6.98787e-10
-2.83967e-15
-2.71918e-11
-6.67842e-10
-3.16122e-15
-6.06889e-11
-6.18742e-10
-3.47107e-15
-9.23411e-11
-5.52483e-10
-3.75004e-15
-1.22181e-10
-4.70038e-10
-3.99021e-15
-1.50253e-10
-3.72357e-10
-4.18681e-15
-1.76611e-10
-2.60355e-10
-4.32075e-15
-2.01318e-10
-1.34901e-10
-4.37479e-15
-2.24442e-10
3.15768e-12
-4.35392e-15
-2.46051e-10
1.52967e-10
-4.26083e-15
-2.66206e-10
3.13712e-10
-4.08762e-15
-2.84981e-10
4.84637e-10
-3.82681e-15
-3.02454e-10
6.65026e-10
-3.48871e-15
-3.18701e-10
8.54201e-10
-3.1016e-15
-3.33793e-10
1.05152e-09
-2.68078e-15
-3.478e-10
1.25639e-09
-2.23437e-15
-3.6079e-10
1.46822e-09
-1.78263e-15
-3.72829e-10
1.68649e-09
-1.35072e-15
-3.83979e-10
1.91066e-09
-9.52393e-16
-3.94297e-10
2.14026e-09
-5.99787e-16
-4.03837e-10
2.3748e-09
-3.05802e-16
-4.12626e-10
2.61388e-09
-7.07661e-17
-4.20674e-10
2.8571e-09
9.78384e-17
-4.28033e-10
3.10412e-09
1.84503e-16
-4.34769e-10
3.35456e-09
1.8749e-16
-4.40924e-10
3.60811e-09
1.12109e-16
-4.46535e-10
3.86445e-09
-2.4294e-17
-4.51636e-10
4.12329e-09
-2.04377e-16
-4.56257e-10
4.38434e-09
-4.1123e-16
-4.60427e-10
4.64735e-09
-6.26319e-16
-4.64169e-10
4.91207e-09
-8.32191e-16
-4.67507e-10
5.17826e-09
-1.01953e-15
-4.70459e-10
5.44569e-09
-1.18269e-15
-4.73042e-10
5.71415e-09
-1.31387e-15
-4.75271e-10
5.98344e-09
-1.40818e-15
-4.77157e-10
6.25334e-09
-1.46476e-15
-4.78713e-10
6.52366e-09
-1.48871e-15
-4.79948e-10
6.79423e-09
-1.48154e-15
-4.80868e-10
7.06484e-09
-1.44867e-15
-4.8148e-10
7.33533e-09
-1.39596e-15
-4.81789e-10
7.6055e-09
-1.33218e-15
-4.81797e-10
7.8752e-09
-1.25713e-15
-4.81507e-10
8.14425e-09
-1.17492e-15
-4.80922e-10
8.41247e-09
-1.08871e-15
-4.80044e-10
8.6797e-09
-1.00011e-15
-4.78874e-10
8.94578e-09
-9.09889e-16
-4.77415e-10
9.21055e-09
-8.21516e-16
-4.7567e-10
9.47384e-09
-7.42148e-16
-4.73643e-10
9.73551e-09
-6.72324e-16
-4.71339e-10
9.9954e-09
-6.10743e-16
-4.68766e-10
1.02534e-08
-5.53174e-16
-4.65931e-10
1.05093e-08
-4.97666e-16
-4.62845e-10
1.0763e-08
-4.46278e-16
-4.59521e-10
1.10144e-08
-3.96408e-16
-4.55974e-10
1.12634e-08
-3.48165e-16
-4.52218e-10
1.15099e-08
-3.00248e-16
-4.48273e-10
1.17538e-08
-2.5515e-16
-4.44158e-10
1.1995e-08
-2.11248e-16
-4.39897e-10
1.22334e-08
-1.67023e-16
-4.35511e-10
1.24691e-08
-1.25836e-16
-4.31027e-10
1.27019e-08
-9.20267e-17
-4.26472e-10
1.29318e-08
-6.80879e-17
-4.21873e-10
1.31589e-08
-5.14172e-17
-4.1726e-10
1.33832e-08
-3.47488e-17
-4.12663e-10
1.36046e-08
-1.52626e-17
-4.08113e-10
1.38233e-08
1.02933e-17
-4.03642e-10
1.40392e-08
4.15916e-17
-3.99281e-10
1.42526e-08
7.92811e-17
-3.95062e-10
1.44634e-08
1.19675e-16
-3.91017e-10
1.46718e-08
1.61363e-16
-3.87175e-10
1.48779e-08
1.99143e-16
-3.83569e-10
1.50819e-08
2.30306e-16
-3.80225e-10
1.5284e-08
2.52794e-16
-3.77173e-10
1.54842e-08
2.6585e-16
-3.74439e-10
1.56828e-08
2.7208e-16
-3.72045e-10
1.58801e-08
2.7376e-16
-3.70014e-10
1.60761e-08
2.68396e-16
-3.68366e-10
1.62711e-08
2.50781e-16
-3.67113e-10
1.64654e-08
2.17011e-16
-3.66266e-10
1.66591e-08
1.65024e-16
-3.65828e-10
1.68525e-08
1.023e-16
-3.65797e-10
1.70458e-08
3.4478e-17
-3.66162e-10
1.72392e-08
-3.90939e-17
-3.66906e-10
1.74329e-08
-1.21777e-16
-3.67999e-10
1.7627e-08
-2.16172e-16
-3.694e-10
1.78217e-08
-3.14904e-16
-3.7105e-10
1.8017e-08
-4.0561e-16
-3.72875e-10
1.82131e-08
-4.79289e-16
-3.74782e-10
1.84098e-08
-5.38545e-16
-3.76655e-10
1.8607e-08
-5.87932e-16
-3.78353e-10
1.88047e-08
-6.26367e-16
-3.79707e-10
1.90024e-08
-6.41057e-16
-3.80514e-10
1.91998e-08
-6.15195e-16
-3.80543e-10
1.93962e-08
-5.44015e-16
-3.79523e-10
1.9591e-08
-4.38578e-16
-3.77147e-10
1.97833e-08
-3.12768e-16
-3.73063e-10
1.99718e-08
-1.72333e-16
-3.66878e-10
2.01554e-08
-1.28232e-17
-3.58156e-10
2.03323e-08
1.65764e-16
-3.46419e-10
2.05008e-08
3.50856e-16
-3.31149e-10
2.06587e-08
5.17845e-16
-3.11786e-10
2.08035e-08
6.45159e-16
-2.87734e-10
2.09324e-08
7.20333e-16
-2.5837e-10
2.10424e-08
7.30469e-16
-2.23048e-10
2.113e-08
6.63099e-16
-1.81112e-10
2.11913e-08
5.16055e-16
-1.3191e-10
2.12223e-08
3.13838e-16
-7.47992e-11
2.12182e-08
9.25465e-17
-9.19281e-12
2.11743e-08
-1.06953e-16
6.56028e-11
2.10853e-08
-2.67747e-16
1.50391e-10
2.09459e-08
-3.90716e-16
2.45804e-10
2.07505e-08
-4.6318e-16
3.52265e-10
2.04933e-08
-4.94355e-16
4.7004e-10
2.01684e-08
-5.28473e-16
5.99215e-10
1.97701e-08
-6.12155e-16
7.39678e-10
1.92927e-08
-7.54609e-16
8.91069e-10
1.87309e-08
-9.1842e-16
1.05273e-09
1.80798e-08
-1.06563e-15
1.22366e-09
1.73354e-08
-1.18551e-15
1.40244e-09
1.64943e-08
-1.29506e-15
1.58715e-09
1.55547e-08
-1.4317e-15
1.77533e-09
1.45161e-08
-1.64573e-15
1.96384e-09
1.338e-08
-1.96709e-15
2.14873e-09
1.21503e-08
-2.36499e-15
2.32514e-09
1.08336e-08
-2.7717e-15
2.48708e-09
9.44049e-09
-3.15936e-15
2.62715e-09
7.98558e-09
-3.5759e-15
2.7362e-09
6.48901e-09
-4.04324e-15
2.8028e-09
4.97754e-09
-4.47591e-15
2.81244e-09
3.48612e-09
-4.75344e-15
2.74689e-09
2.05763e-09
-4.74414e-15
2.58082e-09
7.45615e-10
-4.4287e-15
2.28557e-09
-3.81405e-10
-3.67811e-15
1.83012e-09
-1.24007e-09
-2.1378e-15
1.18222e-09
-1.73109e-09
3.59641e-16
3.27602e-10
-1.73009e-09
2.7508e-15
-6.99679e-10
-1.08655e-09
-4.12424e-16
-1.72898e-09
-2.52405e-14
-2.02562e-09
-5.64371e-10
9.23299e-10
-1.13256e-09
1.14984e-09
-1.42777e-09
8.32557e-10
-1.4541e-09
3.72814e-10
-1.25115e-09
-8.61052e-11
-8.61911e-10
-4.88179e-10
-3.27191e-10
-8.14368e-10
3.17098e-10
-1.06478e-09
1.03842e-09
-1.24584e-09
1.80885e-09
-1.36665e-09
2.60539e-09
-1.43555e-09
3.40845e-09
-1.46037e-09
4.20088e-09
-1.44891e-09
4.96826e-09
-1.4072e-09
5.69854e-09
-1.34049e-09
6.38177e-09
-1.25334e-09
7.00983e-09
-1.14975e-09
7.5763e-09
-1.03333e-09
8.07627e-09
-9.07281e-10
8.50622e-09
-7.74535e-10
8.86393e-09
-6.37739e-10
9.14834e-09
-4.99307e-10
9.35945e-09
-3.61433e-10
9.49822e-09
-2.26103e-10
9.56635e-09
-9.50947e-11
9.56646e-09
3.02313e-11
9.50197e-09
1.48951e-10
9.37678e-09
2.60193e-10
9.19519e-09
3.63079e-10
8.96189e-09
4.5691e-10
8.68183e-09
5.41161e-10
8.36018e-09
6.15477e-10
8.00226e-09
6.79662e-10
7.61343e-09
7.3367e-10
7.19907e-09
7.77592e-10
6.76446e-09
8.11637e-10
6.31475e-09
8.36124e-10
5.85493e-09
8.51463e-10
5.38971e-09
8.58146e-10
4.92358e-09
8.56729e-10
4.46067e-09
8.4782e-10
4.00483e-09
8.32068e-10
3.55953e-09
8.10149e-10
3.12789e-09
7.82751e-10
2.71268e-09
7.50559e-10
2.31628e-09
7.14253e-10
1.94067e-09
6.74382e-10
1.58751e-09
6.31636e-10
1.25822e-09
5.86787e-10
9.53852e-10
5.4041e-10
6.75141e-10
4.93037e-10
4.22548e-10
4.45146e-10
1.96282e-10
3.97159e-10
-3.66831e-12
3.49452e-10
-1.77473e-10
3.02338e-10
-3.25483e-10
2.56114e-10
-4.48265e-10
2.11034e-10
-5.46511e-10
1.67294e-10
-6.20984e-10
1.25042e-10
-6.7252e-10
8.43913e-11
-7.02011e-10
4.54225e-11
-7.10389e-10
8.1889e-12
-6.98611e-10
-2.72029e-11
-6.67668e-10
-6.07017e-11
-6.18571e-10
-9.23552e-11
-5.52314e-10
-1.22196e-10
-4.69874e-10
-1.50268e-10
-3.72198e-10
-1.76627e-10
-2.60202e-10
-2.01333e-10
-1.34753e-10
-2.24457e-10
3.29869e-12
-2.46067e-10
1.53101e-10
-2.66221e-10
3.1384e-10
-2.84995e-10
4.84759e-10
-3.02467e-10
6.65142e-10
-3.18712e-10
8.54312e-10
-3.33803e-10
1.05163e-09
-3.47807e-10
1.25649e-09
-3.60795e-10
1.46832e-09
-3.72831e-10
1.68659e-09
-3.83978e-10
1.91076e-09
-3.94293e-10
2.14036e-09
-4.03831e-10
2.3749e-09
-4.12619e-10
2.61398e-09
-4.20666e-10
2.85721e-09
-4.28025e-10
3.10423e-09
-4.34762e-10
3.35467e-09
-4.40918e-10
3.60822e-09
-4.46531e-10
3.86457e-09
-4.51633e-10
4.1234e-09
-4.56257e-10
4.38446e-09
-4.60428e-10
4.64747e-09
-4.64173e-10
4.91218e-09
-4.67512e-10
5.17837e-09
-4.70466e-10
5.4458e-09
-4.73049e-10
5.71426e-09
-4.75278e-10
5.98354e-09
-4.77164e-10
6.25344e-09
-4.78721e-10
6.52376e-09
-4.79955e-10
6.79432e-09
-4.80875e-10
7.06493e-09
-4.81487e-10
7.33542e-09
-4.81796e-10
7.60559e-09
-4.81804e-10
7.87529e-09
-4.81514e-10
8.14433e-09
-4.80929e-10
8.41255e-09
-4.80051e-10
8.67978e-09
-4.78881e-10
8.94586e-09
-4.77422e-10
9.21063e-09
-4.75677e-10
9.47392e-09
-4.7365e-10
9.73559e-09
-4.71346e-10
9.99548e-09
-4.68772e-10
1.02534e-08
-4.65937e-10
1.05094e-08
-4.62851e-10
1.07631e-08
-4.59527e-10
1.10145e-08
-4.5598e-10
1.12635e-08
-4.52224e-10
1.151e-08
-4.48279e-10
1.17539e-08
-4.44165e-10
1.19951e-08
-4.39903e-10
1.22335e-08
-4.35517e-10
1.24691e-08
-4.31034e-10
1.27019e-08
-4.26478e-10
1.29319e-08
-4.2188e-10
1.3159e-08
-4.17267e-10
1.33832e-08
-4.1267e-10
1.36047e-08
-4.0812e-10
1.38233e-08
-4.03649e-10
1.40393e-08
-3.99289e-10
1.42526e-08
-3.9507e-10
1.44634e-08
-3.91024e-10
1.46718e-08
-3.87183e-10
1.4878e-08
-3.83575e-10
1.5082e-08
-3.80231e-10
1.5284e-08
-3.77178e-10
1.54843e-08
-3.74442e-10
1.56829e-08
-3.72048e-10
1.58801e-08
-3.70018e-10
1.60761e-08
-3.6837e-10
1.62712e-08
-3.67119e-10
1.64655e-08
-3.66272e-10
1.66592e-08
-3.65834e-10
1.68526e-08
-3.65803e-10
1.70459e-08
-3.66168e-10
1.72393e-08
-3.66912e-10
1.7433e-08
-3.68005e-10
1.76271e-08
-3.69405e-10
1.78217e-08
-3.71054e-10
1.80171e-08
-3.72879e-10
1.82131e-08
-3.74787e-10
1.84098e-08
-3.76661e-10
1.86071e-08
-3.7836e-10
1.88047e-08
-3.79713e-10
1.90024e-08
-3.80521e-10
1.91998e-08
-3.80551e-10
1.93962e-08
-3.79532e-10
1.9591e-08
-3.77156e-10
1.97833e-08
-3.73071e-10
1.99719e-08
-3.66884e-10
2.01554e-08
-3.58159e-10
2.03324e-08
-3.46419e-10
2.05008e-08
-3.31147e-10
2.06587e-08
-3.11782e-10
2.08035e-08
-2.8773e-10
2.09324e-08
-2.58365e-10
2.10424e-08
-2.23044e-10
2.113e-08
-1.8111e-10
2.11914e-08
-1.31911e-10
2.12223e-08
-7.48028e-11
2.12183e-08
-9.19926e-12
2.11743e-08
6.55937e-11
2.10854e-08
1.50381e-10
2.0946e-08
2.45794e-10
2.07505e-08
3.52258e-10
2.04933e-08
4.70036e-10
2.01685e-08
5.99215e-10
1.97702e-08
7.39682e-10
1.92928e-08
8.91079e-10
1.87309e-08
1.05275e-09
1.80799e-08
1.22368e-09
1.73354e-08
1.40246e-09
1.64944e-08
1.58717e-09
1.55548e-08
1.77535e-09
1.45162e-08
1.96385e-09
1.33801e-08
2.14874e-09
1.21503e-08
2.32516e-09
1.08337e-08
2.4871e-09
9.44055e-09
2.62717e-09
7.98564e-09
2.73621e-09
6.48906e-09
2.80282e-09
4.97758e-09
2.81247e-09
3.48615e-09
2.74692e-09
2.05765e-09
2.58085e-09
7.45623e-10
2.2856e-09
-3.81405e-10
1.83014e-09
-1.24007e-09
1.18224e-09
-1.7311e-09
3.27611e-10
-1.73011e-09
-6.99676e-10
-1.08661e-09
-1.72898e-09
-2.02564e-09
-4.95385e-10
2.53811e-14
1.41794e-09
-7.72153e-10
-1.11435e-16
1.42569e-09
-7.54976e-10
-1.97572e-15
8.14982e-10
-5.28662e-10
-2.16556e-15
1.46246e-10
-1.46084e-10
-2.51905e-15
-4.68888e-10
3.58341e-10
-2.66088e-15
-9.92782e-10
9.58706e-10
-2.57895e-15
-1.41489e-09
1.63238e-09
-2.49913e-15
-1.7386e-09
2.35894e-09
-2.38981e-15
-1.97253e-09
3.11949e-09
-2.23186e-15
-2.12733e-09
3.89715e-09
-2.08805e-15
-2.21333e-09
4.67686e-09
-1.94553e-15
-2.2402e-09
5.44482e-09
-1.81664e-15
-2.21699e-09
6.18898e-09
-1.72622e-15
-2.15148e-09
6.89889e-09
-1.65281e-15
-2.05053e-09
7.56566e-09
-1.58666e-15
-1.92024e-09
8.18185e-09
-1.5449e-15
-1.76608e-09
8.74137e-09
-1.54428e-15
-1.59298e-09
9.2394e-09
-1.58203e-15
-1.40545e-09
9.67234e-09
-1.64138e-15
-1.20761e-09
1.00377e-08
-1.70269e-15
-1.00324e-09
1.03341e-08
-1.76139e-15
-7.95806e-10
1.0561e-08
-1.8307e-15
-5.8847e-10
1.07189e-08
-1.92539e-15
-3.841e-10
1.08089e-08
-2.04849e-15
-1.8524e-10
1.08331e-08
-2.17333e-15
5.93967e-12
1.07942e-08
-2.27017e-15
1.87707e-10
1.06957e-08
-2.32924e-15
3.58601e-10
1.05413e-08
-2.34635e-15
5.17291e-10
1.03354e-08
-2.32915e-15
6.62689e-10
1.00825e-08
-2.28131e-15
7.93944e-10
9.7874e-09
-2.20614e-15
9.10449e-10
9.4551e-09
-2.10803e-15
1.01183e-09
9.0907e-09
-1.99104e-15
1.09793e-09
8.69935e-09
-1.86278e-15
1.16882e-09
8.28614e-09
-1.72976e-15
1.22472e-09
7.8561e-09
-1.59823e-15
1.26604e-09
7.41409e-09
-1.46997e-15
1.29335e-09
6.96478e-09
-1.34483e-15
1.30733e-09
6.5126e-09
-1.22535e-15
1.30878e-09
6.06172e-09
-1.11108e-15
1.29857e-09
5.61599e-09
-9.96309e-16
1.27766e-09
5.17895e-09
-8.85587e-16
1.24705e-09
4.7538e-09
-7.86872e-16
1.20777e-09
4.34338e-09
-7.00597e-16
1.16084e-09
3.95022e-09
-6.29424e-16
1.10729e-09
3.57638e-09
-5.73743e-16
1.04809e-09
3.22365e-09
-5.38338e-16
9.84236e-10
2.89356e-09
-5.2051e-16
9.16745e-10
2.58732e-09
-5.11483e-16
8.46517e-10
2.30585e-09
-5.13643e-16
7.74384e-10
2.04976e-09
-5.31807e-16
7.01105e-10
1.81943e-09
-5.59138e-16
6.27359e-10
1.61499e-09
-5.90039e-16
5.53754e-10
1.43638e-09
-6.27486e-16
4.80818e-10
1.28334e-09
-6.70442e-16
4.09015e-10
1.15549e-09
-7.22483e-16
3.38753e-10
1.05229e-09
-7.8795e-16
2.70366e-10
9.73089e-10
-8.69126e-16
2.04118e-10
9.17144e-10
-9.67913e-16
1.40213e-10
8.83637e-10
-1.08199e-15
7.88103e-11
8.71684e-10
-1.20941e-15
2.00261e-11
8.80385e-10
-1.34785e-15
-3.60167e-11
9.08817e-10
-1.4903e-15
-8.92441e-11
9.56018e-10
-1.62691e-15
-1.39663e-10
1.02102e-09
-1.74781e-15
-1.87302e-10
1.10286e-09
-1.84844e-15
-2.32213e-10
1.2006e-09
-1.92664e-15
-2.74465e-10
1.3133e-09
-1.97643e-15
-3.14139e-10
1.44007e-09
-1.98649e-15
-3.51328e-10
1.58003e-09
-1.95562e-15
-3.86124e-10
1.73234e-09
-1.8906e-15
-4.18625e-10
1.89619e-09
-1.79251e-15
-4.48941e-10
2.07081e-09
-1.65751e-15
-4.77183e-10
2.25546e-09
-1.48793e-15
-5.03459e-10
2.44944e-09
-1.29558e-15
-5.27878e-10
2.65208e-09
-1.09e-15
-5.50543e-10
2.86274e-09
-8.79002e-16
-5.71555e-10
3.08082e-09
-6.6805e-16
-5.91012e-10
3.30574e-09
-4.65546e-16
-6.09005e-10
3.53696e-09
-2.78966e-16
-6.25619e-10
3.77396e-09
-1.13023e-16
-6.40933e-10
4.01625e-09
2.5995e-17
-6.55013e-10
4.2634e-09
1.36678e-16
-6.6792e-10
4.515e-09
2.14632e-16
-6.79729e-10
4.77065e-09
2.53405e-16
-6.90515e-10
5.02997e-09
2.54621e-16
-7.00342e-10
5.29261e-09
2.26411e-16
-7.09269e-10
5.55823e-09
1.74195e-16
-7.17349e-10
5.82651e-09
1.02361e-16
-7.24632e-10
6.09716e-09
1.79566e-17
-7.31162e-10
6.36988e-09
-6.95895e-17
-7.36982e-10
6.64441e-09
-1.54695e-16
-7.42127e-10
6.92049e-09
-2.34868e-16
-7.4663e-10
7.19788e-09
-3.05989e-16
-7.50519e-10
7.47634e-09
-3.63666e-16
-7.53818e-10
7.75565e-09
-4.03616e-16
-7.5655e-10
8.03559e-09
-4.27681e-16
-7.58735e-10
8.31595e-09
-4.36079e-16
-7.60388e-10
8.59652e-09
-4.28593e-16
-7.61522e-10
8.87712e-09
-4.06903e-16
-7.6215e-10
9.15753e-09
-3.7513e-16
-7.6228e-10
9.43758e-09
-3.3685e-16
-7.61919e-10
9.71707e-09
-2.9163e-16
-7.61074e-10
9.99582e-09
-2.42941e-16
-7.5975e-10
1.02737e-08
-1.93927e-16
-7.57954e-10
1.05504e-08
-1.47193e-16
-7.5569e-10
1.08259e-08
-1.01058e-16
-7.52965e-10
1.10999e-08
-5.62271e-17
-7.49784e-10
1.13724e-08
-1.5356e-17
-7.46157e-10
1.16431e-08
2.16638e-17
-7.42094e-10
1.19119e-08
5.68933e-17
-7.37605e-10
1.21786e-08
9.42906e-17
-7.32707e-10
1.24431e-08
1.32501e-16
-7.27418e-10
1.27053e-08
1.69248e-16
-7.21757e-10
1.2965e-08
2.03934e-16
-7.15749e-10
1.32221e-08
2.37374e-16
-7.0942e-10
1.34766e-08
2.69405e-16
-7.02797e-10
1.37283e-08
2.97966e-16
-6.95915e-10
1.39772e-08
3.23057e-16
-6.88806e-10
1.42231e-08
3.45382e-16
-6.81509e-10
1.44661e-08
3.65157e-16
-6.74064e-10
1.47061e-08
3.80647e-16
-6.66512e-10
1.49431e-08
3.92882e-16
-6.58899e-10
1.51771e-08
4.0273e-16
-6.51269e-10
1.5408e-08