/*--------------------------------*- C++ -*----------------------------------*\
  =========                 |
  \\      /  F ield         | OpenFOAM: The Open Source CFD Toolbox
   \\    /   O peration     | Website:  https://openfoam.org
    \\  /    A nd           | Version:  8
     \\/     M anipulation  |
\*---------------------------------------------------------------------------*/
FoamFile
{
    version     2.0;
    format      ascii;
    class       volScalarField;
    location    "1300";
    object      T;
}
// * * * * * * * * * * * * * * * * * * * * * * * * * * * * * * * * * * * * * //

dimensions      [0 0 0 1 0 0 0];

internalField   nonuniform List<scalar> 
46000
(
311.471
311.082
310.546
310.062
309.654
309.307
309.014
308.772
308.573
308.408
308.272
308.161
308.072
308.001
307.945
307.903
307.873
307.854
307.844
307.843
307.85
307.863
307.882
307.906
307.934
307.965
307.997
308.031
308.068
308.106
308.146
308.186
308.227
308.268
308.309
308.349
308.388
308.426
308.463
308.498
308.531
308.563
308.592
308.62
308.646
308.669
308.691
308.711
308.73
308.746
308.761
308.775
308.787
308.798
308.808
308.816
308.824
308.831
308.838
308.843
308.848
308.852
308.855
308.858
308.86
308.862
308.863
308.864
308.865
308.866
308.866
308.867
308.867
308.867
308.867
308.867
308.866
308.865
308.865
308.863
308.862
308.861
308.859
308.857
308.855
308.853
308.85
308.848
308.845
308.842
308.838
308.835
308.831
308.827
308.822
308.818
308.813
308.808
308.803
308.797
308.792
308.786
308.779
308.773
308.767
308.76
308.753
308.746
308.738
308.731
308.723
308.716
308.708
308.699
308.691
308.683
308.674
308.665
308.656
308.647
308.638
308.629
308.619
308.609
308.599
308.589
308.579
308.568
308.558
308.547
308.536
308.524
308.513
308.501
308.489
308.477
308.464
308.451
308.438
308.425
308.411
308.397
308.383
308.369
308.355
308.34
308.325
308.31
308.296
308.281
308.266
308.251
308.237
308.223
308.21
308.197
308.185
308.174
308.164
308.155
308.147
308.142
308.138
308.136
308.137
308.14
308.146
308.155
308.168
308.184
308.204
308.228
308.256
308.288
308.326
308.37
308.419
308.475
308.538
308.607
308.684
308.769
308.861
308.962
309.07
309.187
309.312
309.444
309.582
309.726
309.874
310.024
310.178
310.329
310.48
310.64
310.816
311.024
311.305
311.586
311.471
311.082
310.546
310.062
309.654
309.307
309.014
308.772
308.573
308.408
308.272
308.161
308.072
308.001
307.945
307.903
307.873
307.854
307.844
307.843
307.85
307.863
307.882
307.906
307.934
307.965
307.997
308.031
308.068
308.106
308.146
308.186
308.227
308.268
308.309
308.349
308.388
308.426
308.463
308.498
308.531
308.563
308.592
308.62
308.646
308.67
308.691
308.711
308.73
308.746
308.761
308.775
308.787
308.798
308.808
308.816
308.824
308.831
308.838
308.843
308.848
308.852
308.855
308.858
308.86
308.862
308.863
308.864
308.865
308.866
308.867
308.867
308.867
308.867
308.867
308.867
308.866
308.865
308.865
308.864
308.862
308.861
308.859
308.857
308.855
308.853
308.851
308.848
308.845
308.842
308.838
308.835
308.831
308.827
308.822
308.818
308.813
308.808
308.803
308.797
308.792
308.786
308.78
308.773
308.767
308.76
308.753
308.746
308.739
308.731
308.723
308.716
308.708
308.699
308.691
308.683
308.674
308.665
308.656
308.647
308.638
308.629
308.619
308.609
308.599
308.589
308.579
308.569
308.558
308.547
308.536
308.524
308.513
308.501
308.489
308.477
308.464
308.451
308.438
308.425
308.411
308.397
308.383
308.369
308.355
308.34
308.325
308.31
308.296
308.281
308.266
308.251
308.237
308.223
308.21
308.197
308.185
308.174
308.164
308.155
308.147
308.142
308.138
308.136
308.137
308.14
308.146
308.155
308.168
308.184
308.204
308.228
308.256
308.288
308.326
308.37
308.419
308.475
308.538
308.607
308.684
308.769
308.861
308.962
309.07
309.187
309.312
309.444
309.582
309.726
309.874
310.024
310.178
310.329
310.48
310.64
310.816
311.024
311.305
311.586
308.558
307.9
307.159
306.553
306.07
305.686
305.385
305.146
304.958
304.809
304.693
304.604
304.536
304.488
304.455
304.436
304.429
304.433
304.446
304.467
304.495
304.53
304.57
304.615
304.664
304.716
304.771
304.827
304.885
304.943
305.003
305.062
305.121
305.179
305.235
305.29
305.343
305.394
305.442
305.488
305.531
305.57
305.607
305.641
305.671
305.699
305.723
305.745
305.765
305.781
305.796
305.808
305.819
305.827
305.835
305.841
305.845
305.849
305.852
305.853
305.855
305.856
305.856
305.856
305.855
305.855
305.854
305.853
305.853
305.852
305.852
305.851
305.851
305.851
305.852
305.852
305.853
305.853
305.854
305.856
305.857
305.858
305.86
305.862
305.864
305.866
305.869
305.871
305.873
305.876
305.879
305.881
305.884
305.887
305.889
305.892
305.895
305.898
305.9
305.903
305.906
305.908
305.911
305.913
305.915
305.918
305.92
305.922
305.924
305.926
305.928
305.929
305.931
305.932
305.933
305.935
305.936
305.937
305.937
305.938
305.938
305.939
305.939
305.939
305.938
305.938
305.937
305.936
305.935
305.933
305.932
305.93
305.928
305.925
305.922
305.919
305.916
305.912
305.908
305.904
305.899
305.894
305.889
305.884
305.878
305.873
305.867
305.861
305.855
305.849
305.843
305.837
305.831
305.826
305.821
305.817
305.813
305.81
305.809
305.808
305.809
305.811
305.815
305.821
305.829
305.839
305.853
305.869
305.888
305.911
305.937
305.968
306.002
306.042
306.087
306.137
306.193
306.255
306.325
306.401
306.485
306.576
306.676
306.783
306.9
307.024
307.156
307.296
307.441
307.592
307.745
307.898
308.048
308.194
308.333
308.47
308.612
308.776
308.978
309.206
308.558
307.9
307.159
306.553
306.07
305.686
305.385
305.146
304.957
304.809
304.693
304.604
304.536
304.488
304.455
304.436
304.429
304.433
304.446
304.467
304.495
304.53
304.57
304.615
304.664
304.716
304.771
304.827
304.885
304.943
305.003
305.062
305.121
305.179
305.235
305.29
305.343
305.394
305.442
305.488
305.531
305.57
305.607
305.641
305.671
305.699
305.723
305.745
305.765
305.781
305.796
305.808
305.819
305.827
305.835
305.841
305.845
305.849
305.852
305.853
305.855
305.856
305.856
305.856
305.855
305.855
305.854
305.853
305.853
305.852
305.852
305.851
305.851
305.851
305.852
305.852
305.853
305.853
305.854
305.856
305.857
305.859
305.86
305.862
305.864
305.866
305.869
305.871
305.873
305.876
305.879
305.881
305.884
305.887
305.89
305.892
305.895
305.898
305.9
305.903
305.906
305.908
305.911
305.913
305.915
305.918
305.92
305.922
305.924
305.926
305.928
305.929
305.931
305.932
305.933
305.935
305.936
305.937
305.937
305.938
305.938
305.939
305.939
305.939
305.938
305.938
305.937
305.936
305.935
305.933
305.932
305.93
305.928
305.925
305.922
305.919
305.916
305.912
305.908
305.904
305.899
305.894
305.889
305.884
305.878
305.873
305.867
305.861
305.855
305.849
305.843
305.837
305.831
305.826
305.821
305.817
305.813
305.81
305.809
305.808
305.809
305.811
305.815
305.821
305.829
305.839
305.853
305.869
305.888
305.911
305.937
305.968
306.002
306.042
306.087
306.137
306.193
306.255
306.325
306.401
306.485
306.576
306.676
306.783
306.9
307.024
307.156
307.296
307.441
307.592
307.745
307.898
308.048
308.194
308.333
308.47
308.612
308.776
308.978
309.206
306.377
305.81
305.233
304.762
304.379
304.073
303.829
303.635
303.482
303.362
303.269
303.199
303.148
303.114
303.093
303.086
303.089
303.101
303.122
303.15
303.185
303.226
303.271
303.321
303.375
303.433
303.492
303.553
303.616
303.68
303.744
303.807
303.871
303.933
303.994
304.053
304.11
304.165
304.217
304.266
304.312
304.355
304.395
304.432
304.465
304.495
304.522
304.546
304.567
304.585
304.601
304.614
304.625
304.635
304.643
304.649
304.653
304.657
304.66
304.661
304.662
304.663
304.663
304.662
304.662
304.661
304.66
304.659
304.658
304.657
304.657
304.656
304.656
304.656
304.657
304.658
304.659
304.66
304.662
304.664
304.666
304.668
304.671
304.674
304.678
304.681
304.685
304.689
304.693
304.698
304.702
304.707
304.712
304.717
304.722
304.727
304.733
304.738
304.743
304.749
304.754
304.759
304.765
304.77
304.776
304.781
304.786
304.791
304.797
304.802
304.807
304.812
304.817
304.821
304.826
304.83
304.835
304.839
304.843
304.847
304.851
304.855
304.858
304.861
304.864
304.867
304.87
304.872
304.875
304.877
304.878
304.88
304.881
304.882
304.882
304.882
304.882
304.882
304.881
304.88
304.879
304.878
304.876
304.874
304.872
304.869
304.867
304.864
304.861
304.859
304.856
304.853
304.851
304.849
304.847
304.846
304.846
304.847
304.848
304.851
304.854
304.86
304.867
304.876
304.887
304.9
304.916
304.935
304.957
304.983
305.012
305.045
305.082
305.124
305.171
305.223
305.281
305.345
305.415
305.493
305.577
305.669
305.768
305.876
305.991
306.113
306.243
306.378
306.519
306.663
306.809
306.954
307.094
307.227
307.351
307.464
307.568
307.664
307.742
307.788
306.377
305.81
305.233
304.762
304.379
304.073
303.829
303.635
303.482
303.361
303.269
303.199
303.148
303.114
303.093
303.086
303.088
303.101
303.122
303.15
303.185
303.225
303.271
303.321
303.375
303.433
303.492
303.553
303.616
303.68
303.744
303.807
303.871
303.933
303.994
304.053
304.11
304.165
304.217
304.266
304.312
304.355
304.395
304.432
304.465
304.495
304.522
304.546
304.567
304.585
304.601
304.614
304.625
304.635
304.643
304.649
304.653
304.657
304.66
304.661
304.662
304.663
304.663
304.662
304.662
304.661
304.66
304.659
304.658
304.657
304.657
304.656
304.656
304.656
304.657
304.658
304.659
304.66
304.662
304.664
304.666
304.668
304.671
304.674
304.678
304.681
304.685
304.689
304.693
304.698
304.702
304.707
304.712
304.717
304.722
304.727
304.733
304.738
304.743
304.749
304.754
304.759
304.765
304.77
304.776
304.781
304.786
304.791
304.797
304.802
304.807
304.812
304.817
304.821
304.826
304.83
304.835
304.839
304.843
304.847
304.851
304.855
304.858
304.861
304.864
304.867
304.87
304.872
304.875
304.877
304.878
304.88
304.881
304.882
304.882
304.882
304.882
304.882
304.881
304.88
304.879
304.878
304.876
304.874
304.872
304.869
304.867
304.864
304.861
304.859
304.856
304.853
304.851
304.849
304.847
304.846
304.846
304.847
304.848
304.851
304.854
304.86
304.867
304.876
304.887
304.9
304.916
304.935
304.957
304.983
305.012
305.045
305.082
305.124
305.171
305.223
305.281
305.345
305.415
305.493
305.577
305.669
305.768
305.876
305.991
306.113
306.243
306.378
306.519
306.663
306.809
306.954
307.094
307.227
307.351
307.464
307.568
307.664
307.742
307.788
304.781
304.352
303.941
303.597
303.311
303.077
302.885
302.731
302.608
302.512
302.437
302.382
302.344
302.319
302.307
302.306
302.314
302.332
302.356
302.388
302.425
302.468
302.516
302.568
302.623
302.682
302.743
302.806
302.87
302.935
303
303.065
303.13
303.194
303.256
303.317
303.376
303.433
303.487
303.538
303.586
303.631
303.672
303.711
303.746
303.778
303.806
303.832
303.855
303.875
303.892
303.907
303.92
303.93
303.939
303.946
303.952
303.956
303.96
303.962
303.963
303.964
303.965
303.965
303.964
303.964
303.963
303.962
303.961
303.961
303.96
303.96
303.96
303.96
303.961
303.962
303.963
303.964
303.966
303.968
303.971
303.974
303.977
303.98
303.984
303.988
303.992
303.997
304.001
304.006
304.012
304.017
304.023
304.028
304.034
304.04
304.046
304.052
304.059
304.065
304.072
304.078
304.084
304.091
304.097
304.104
304.11
304.117
304.123
304.129
304.136
304.142
304.148
304.154
304.16
304.166
304.172
304.177
304.183
304.188
304.194
304.199
304.204
304.208
304.213
304.217
304.221
304.225
304.229
304.233
304.236
304.239
304.241
304.244
304.246
304.248
304.249
304.251
304.252
304.252
304.253
304.253
304.253
304.252
304.252
304.251
304.25
304.249
304.248
304.247
304.246
304.245
304.245
304.245
304.245
304.246
304.247
304.25
304.253
304.258
304.263
304.271
304.28
304.291
304.304
304.319
304.337
304.358
304.381
304.409
304.439
304.474
304.513
304.556
304.605
304.659
304.718
304.783
304.854
304.932
305.017
305.108
305.207
305.313
305.426
305.546
305.672
305.804
305.939
306.078
306.216
306.352
306.484
306.607
306.719
306.817
306.898
306.958
306.987
306.964
304.781
304.352
303.941
303.597
303.311
303.076
302.885
302.731
302.608
302.512
302.437
302.382
302.344
302.319
302.307
302.306
302.314
302.332
302.356
302.388
302.425
302.468
302.516
302.568
302.623
302.682
302.743
302.805
302.87
302.934
303
303.065
303.13
303.194
303.256
303.317
303.376
303.433
303.487
303.538
303.586
303.631
303.672
303.711
303.746
303.778
303.806
303.832
303.855
303.875
303.892
303.907
303.92
303.93
303.939
303.946
303.952
303.956
303.96
303.962
303.963
303.964
303.965
303.965
303.964
303.964
303.963
303.962
303.961
303.961
303.96
303.96
303.96
303.96
303.961
303.962
303.963
303.964
303.966
303.968
303.971
303.974
303.977
303.98
303.984
303.988
303.992
303.997
304.001
304.006
304.012
304.017
304.023
304.028
304.034
304.04
304.046
304.052
304.059
304.065
304.072
304.078
304.084
304.091
304.097
304.104
304.11
304.117
304.123
304.129
304.136
304.142
304.148
304.154
304.16
304.166
304.172
304.177
304.183
304.188
304.194
304.199
304.204
304.208
304.213
304.217
304.221
304.225
304.229
304.233
304.236
304.239
304.241
304.244
304.246
304.248
304.249
304.251
304.252
304.252
304.253
304.253
304.253
304.252
304.252
304.251
304.25
304.249
304.248
304.247
304.246
304.245
304.245
304.245
304.245
304.246
304.247
304.25
304.253
304.258
304.263
304.271
304.28
304.291
304.304
304.319
304.337
304.358
304.381
304.409
304.439
304.474
304.513
304.556
304.605
304.659
304.718
304.783
304.854
304.932
305.017
305.108
305.207
305.313
305.426
305.546
305.672
305.804
305.939
306.078
306.216
306.352
306.484
306.607
306.719
306.817
306.898
306.958
306.987
306.964
303.564
303.247
302.958
302.713
302.506
302.332
302.186
302.067
301.971
301.896
301.839
301.797
301.769
301.753
301.747
301.752
301.765
301.785
301.813
301.846
301.885
301.93
301.978
302.031
302.087
302.145
302.206
302.269
302.333
302.399
302.464
302.53
302.595
302.659
302.722
302.783
302.843
302.9
302.955
303.007
303.056
303.102
303.145
303.185
303.221
303.254
303.284
303.312
303.336
303.357
303.376
303.392
303.406
303.418
303.428
303.436
303.442
303.448
303.452
303.455
303.457
303.459
303.46
303.46
303.46
303.46
303.459
303.459
303.458
303.458
303.458
303.458
303.458
303.458
303.459
303.459
303.461
303.462
303.464
303.466
303.469
303.471
303.475
303.478
303.482
303.486
303.49
303.495
303.5
303.505
303.51
303.516
303.522
303.527
303.534
303.54
303.546
303.553
303.559
303.566
303.573
303.58
303.586
303.593
303.6
303.607
303.614
303.621
303.628
303.635
303.642
303.649
303.655
303.662
303.669
303.675
303.682
303.688
303.694
303.701
303.707
303.713
303.718
303.724
303.729
303.734
303.739
303.744
303.749
303.753
303.757
303.761
303.765
303.768
303.771
303.774
303.777
303.779
303.781
303.783
303.784
303.785
303.786
303.787
303.787
303.788
303.788
303.788
303.789
303.789
303.789
303.79
303.79
303.792
303.793
303.795
303.798
303.802
303.807
303.813
303.82
303.829
303.84
303.852
303.867
303.884
303.903
303.925
303.951
303.98
304.012
304.048
304.089
304.134
304.183
304.238
304.298
304.365
304.437
304.515
304.6
304.691
304.789
304.894
305.005
305.122
305.245
305.372
305.503
305.635
305.767
305.896
306.019
306.134
306.238
306.326
306.396
306.442
306.459
306.429
303.564
303.247
302.958
302.713
302.506
302.332
302.186
302.067
301.971
301.896
301.839
301.797
301.769
301.753
301.747
301.752
301.765
301.785
301.813
301.846
301.885
301.93
301.978
302.031
302.087
302.145
302.206
302.269
302.333
302.399
302.464
302.53
302.595
302.659
302.722
302.783
302.843
302.9
302.955
303.007
303.056
303.102
303.145
303.185
303.221
303.254
303.284
303.312
303.336
303.357
303.376
303.392
303.406
303.418
303.428
303.436
303.442
303.448
303.452
303.455
303.457
303.459
303.46
303.46
303.46
303.46
303.459
303.459
303.458
303.458
303.458
303.458
303.458
303.458
303.459
303.459
303.461
303.462
303.464
303.466
303.469
303.471
303.475
303.478
303.482
303.486
303.49
303.495
303.5
303.505
303.51
303.516
303.521
303.527
303.534
303.54
303.546
303.553
303.559
303.566
303.573
303.58
303.586
303.593
303.6
303.607
303.614
303.621
303.628
303.635
303.642
303.649
303.655
303.662
303.669
303.675
303.682
303.688
303.694
303.701
303.707
303.713
303.718
303.724
303.729
303.734
303.739
303.744
303.749
303.753
303.757
303.761
303.765
303.768
303.771
303.774
303.777
303.779
303.781
303.783
303.784
303.785
303.786
303.787
303.787
303.788
303.788
303.788
303.789
303.789
303.789
303.79
303.79
303.792
303.793
303.795
303.798
303.802
303.807
303.813
303.82
303.829
303.839
303.852
303.867
303.883
303.903
303.925
303.951
303.98
304.012
304.048
304.089
304.134
304.183
304.238
304.298
304.365
304.437
304.515
304.6
304.691
304.789
304.894
305.005
305.122
305.245
305.372
305.503
305.635
305.767
305.896
306.019
306.134
306.238
306.326
306.396
306.442
306.459
306.429
302.6
302.37
302.169
302.001
301.855
301.729
301.623
301.534
301.462
301.406
301.364
301.334
301.316
301.307
301.308
301.317
301.334
301.358
301.387
301.423
301.463
301.508
301.557
301.609
301.665
301.724
301.784
301.847
301.911
301.975
302.04
302.105
302.17
302.234
302.297
302.358
302.417
302.475
302.53
302.582
302.632
302.678
302.722
302.762
302.799
302.834
302.865
302.893
302.918
302.94
302.96
302.977
302.992
303.005
303.016
303.025
303.033
303.039
303.044
303.048
303.051
303.053
303.054
303.055
303.056
303.056
303.056
303.055
303.055
303.055
303.055
303.055
303.055
303.055
303.056
303.057
303.058
303.06
303.061
303.064
303.066
303.069
303.072
303.075
303.079
303.083
303.087
303.092
303.096
303.101
303.107
303.112
303.118
303.124
303.13
303.136
303.143
303.149
303.156
303.163
303.169
303.176
303.183
303.191
303.198
303.205
303.212
303.219
303.226
303.234
303.241
303.248
303.255
303.262
303.269
303.276
303.283
303.29
303.297
303.303
303.31
303.316
303.322
303.328
303.334
303.34
303.346
303.351
303.356
303.361
303.366
303.371
303.375
303.379
303.383
303.386
303.389
303.392
303.395
303.398
303.4
303.402
303.403
303.405
303.406
303.408
303.409
303.41
303.411
303.412
303.414
303.415
303.417
303.419
303.422
303.425
303.43
303.435
303.441
303.448
303.457
303.467
303.479
303.493
303.509
303.527
303.548
303.572
303.599
303.629
303.663
303.701
303.743
303.789
303.84
303.896
303.958
304.024
304.097
304.176
304.261
304.352
304.449
304.552
304.662
304.776
304.896
305.019
305.145
305.272
305.398
305.52
305.637
305.746
305.843
305.926
305.99
306.033
306.05
306.034
302.6
302.37
302.169
302.001
301.855
301.729
301.623
301.534
301.462
301.406
301.364
301.334
301.316
301.307
301.308
301.317
301.334
301.358
301.387
301.423
301.463
301.508
301.557
301.609
301.665
301.724
301.784
301.847
301.911
301.975
302.04
302.105
302.17
302.234
302.297
302.358
302.417
302.475
302.53
302.582
302.632
302.678
302.722
302.762
302.799
302.833
302.865
302.893
302.918
302.94
302.96
302.977
302.992
303.005
303.016
303.025
303.033
303.039
303.044
303.048
303.051
303.053
303.054
303.055
303.056
303.056
303.056
303.055
303.055
303.055
303.055
303.055
303.055
303.055
303.056
303.057
303.058
303.06
303.061
303.064
303.066
303.069
303.072
303.075
303.079
303.083
303.087
303.092
303.096
303.101
303.107
303.112
303.118
303.124
303.13
303.136
303.143
303.149
303.156
303.163
303.169
303.176
303.183
303.191
303.198
303.205
303.212
303.219
303.226
303.234
303.241
303.248
303.255
303.262
303.269
303.276
303.283
303.29
303.297
303.303
303.31
303.316
303.322
303.328
303.334
303.34
303.346
303.351
303.356
303.361
303.366
303.371
303.375
303.379
303.383
303.386
303.389
303.392
303.395
303.398
303.4
303.402
303.403
303.405
303.406
303.408
303.409
303.41
303.411
303.412
303.414
303.415
303.417
303.419
303.422
303.425
303.43
303.435
303.441
303.448
303.457
303.467
303.479
303.493
303.509
303.527
303.548
303.572
303.599
303.629
303.663
303.701
303.743
303.789
303.84
303.896
303.958
304.024
304.097
304.176
304.261
304.352
304.449
304.552
304.662
304.776
304.896
305.019
305.145
305.272
305.398
305.52
305.637
305.746
305.843
305.926
305.99
306.033
306.05
306.035
301.818
301.657
301.523
301.411
301.313
301.226
301.151
301.088
301.037
300.997
300.969
300.95
300.94
300.939
300.945
300.959
300.979
301.005
301.037
301.073
301.115
301.16
301.209
301.262
301.317
301.375
301.435
301.496
301.559
301.623
301.687
301.751
301.815
301.879
301.941
302.001
302.06
302.117
302.172
302.224
302.273
302.32
302.364
302.404
302.442
302.477
302.508
302.537
302.563
302.586
302.606
302.625
302.64
302.654
302.666
302.676
302.684
302.691
302.697
302.701
302.705
302.707
302.709
302.711
302.712
302.712
302.712
302.713
302.713
302.713
302.713
302.713
302.713
302.713
302.714
302.715
302.716
302.717
302.719
302.721
302.723
302.726
302.729
302.732
302.736
302.74
302.744
302.748
302.753
302.758
302.763
302.768
302.774
302.78
302.786
302.792
302.798
302.805
302.811
302.818
302.825
302.832
302.839
302.846
302.853
302.86
302.868
302.875
302.882
302.89
302.897
302.904
302.912
302.919
302.926
302.933
302.941
302.948
302.955
302.962
302.969
302.975
302.982
302.988
302.995
303.001
303.007
303.013
303.018
303.024
303.029
303.034
303.039
303.043
303.048
303.052
303.055
303.059
303.062
303.065
303.068
303.071
303.073
303.075
303.078
303.08
303.081
303.083
303.085
303.087
303.089
303.092
303.095
303.098
303.102
303.106
303.111
303.118
303.125
303.133
303.143
303.155
303.168
303.183
303.201
303.221
303.243
303.268
303.297
303.329
303.364
303.403
303.447
303.494
303.547
303.604
303.666
303.734
303.808
303.887
303.972
304.062
304.159
304.261
304.368
304.481
304.597
304.717
304.838
304.96
305.081
305.199
305.311
305.414
305.507
305.586
305.65
305.694
305.717
305.717
301.818
301.657
301.523
301.411
301.313
301.226
301.151
301.088
301.037
300.997
300.969
300.95
300.94
300.939
300.945
300.959
300.979
301.005
301.037
301.073
301.115
301.16
301.209
301.262
301.317
301.375
301.435
301.496
301.559
301.623
301.687
301.751
301.815
301.878
301.941
302.001
302.06
302.117
302.172
302.224
302.273
302.32
302.363
302.404
302.442
302.476
302.508
302.537
302.563
302.586
302.606
302.625
302.64
302.654
302.666
302.676
302.684
302.691
302.697
302.701
302.705
302.707
302.709
302.711
302.712
302.712
302.712
302.712
302.713
302.713
302.713
302.713
302.713
302.713
302.714
302.715
302.716
302.717
302.719
302.721
302.723
302.726
302.729
302.732
302.736
302.74
302.744
302.748
302.753
302.758
302.763
302.768
302.774
302.78
302.786
302.792
302.798
302.805
302.811
302.818
302.825
302.832
302.839
302.846
302.853
302.86
302.868
302.875
302.882
302.89
302.897
302.904
302.912
302.919
302.926
302.933
302.941
302.948
302.955
302.962
302.969
302.975
302.982
302.988
302.995
303.001
303.007
303.013
303.018
303.024
303.029
303.034
303.039
303.043
303.048
303.052
303.055
303.059
303.062
303.065
303.068
303.071
303.073
303.075
303.078
303.08
303.081
303.083
303.085
303.087
303.089
303.092
303.095
303.098
303.102
303.106
303.111
303.118
303.125
303.133
303.143
303.155
303.168
303.183
303.201
303.221
303.243
303.268
303.297
303.329
303.364
303.403
303.447
303.494
303.547
303.604
303.666
303.734
303.808
303.887
303.972
304.062
304.159
304.261
304.368
304.481
304.597
304.717
304.838
304.96
305.081
305.199
305.311
305.414
305.507
305.586
305.65
305.694
305.717
305.717
301.178
301.069
300.988
300.918
300.855
300.798
300.749
300.707
300.674
300.649
300.632
300.622
300.62
300.625
300.637
300.654
300.677
300.706
300.739
300.777
300.819
300.864
300.913
300.965
301.02
301.077
301.136
301.197
301.259
301.321
301.384
301.447
301.51
301.572
301.633
301.693
301.751
301.807
301.86
301.912
301.961
302.007
302.051
302.091
302.129
302.164
302.196
302.225
302.251
302.275
302.296
302.314
302.331
302.345
302.357
302.368
302.377
302.384
302.391
302.396
302.4
302.403
302.405
302.407
302.408
302.409
302.41
302.41
302.41
302.411
302.411
302.411
302.411
302.412
302.413
302.413
302.414
302.416
302.417
302.419
302.422
302.424
302.427
302.43
302.433
302.437
302.441
302.445
302.449
302.454
302.459
302.464
302.47
302.475
302.481
302.487
302.494
302.5
302.506
302.513
302.52
302.527
302.534
302.541
302.548
302.555
302.563
302.57
302.577
302.585
302.592
302.6
302.607
302.615
302.622
302.629
302.637
302.644
302.651
302.658
302.666
302.673
302.679
302.686
302.693
302.699
302.706
302.712
302.718
302.724
302.729
302.735
302.74
302.745
302.749
302.754
302.758
302.762
302.766
302.77
302.773
302.776
302.779
302.782
302.785
302.787
302.79
302.792
302.795
302.798
302.801
302.804
302.808
302.812
302.817
302.822
302.828
302.836
302.844
302.854
302.865
302.878
302.892
302.909
302.928
302.949
302.973
303
303.03
303.063
303.1
303.141
303.185
303.235
303.288
303.347
303.41
303.479
303.553
303.632
303.717
303.808
303.904
304.005
304.11
304.22
304.334
304.45
304.568
304.686
304.803
304.916
305.024
305.124
305.214
305.292
305.355
305.403
305.434
305.443
301.177
301.069
300.988
300.918
300.855
300.798
300.749
300.707
300.674
300.649
300.632
300.622
300.62
300.625
300.637
300.654
300.677
300.706
300.739
300.777
300.819
300.864
300.913
300.965
301.02
301.077
301.136
301.197
301.259
301.321
301.384
301.447
301.51
301.572
301.633
301.693
301.751
301.807
301.86
301.912
301.961
302.007
302.051
302.091
302.129
302.164
302.196
302.225
302.251
302.275
302.296
302.314
302.331
302.345
302.357
302.368
302.377
302.384
302.391
302.396
302.4
302.403
302.405
302.407
302.408
302.409
302.41
302.41
302.41
302.411
302.411
302.411
302.411
302.412
302.412
302.413
302.414
302.416
302.417
302.419
302.422
302.424
302.427
302.43
302.433
302.437
302.441
302.445
302.449
302.454
302.459
302.464
302.47
302.475
302.481
302.487
302.494
302.5
302.506
302.513
302.52
302.527
302.534
302.541
302.548
302.555
302.563
302.57
302.577
302.585
302.592
302.6
302.607
302.615
302.622
302.629
302.637
302.644
302.651
302.658
302.666
302.673
302.679
302.686
302.693
302.699
302.706
302.712
302.718
302.724
302.729
302.735
302.74
302.745
302.749
302.754
302.758
302.762
302.766
302.77
302.773
302.776
302.779
302.782
302.785
302.787
302.79
302.792
302.795
302.798
302.801
302.804
302.808
302.812
302.817
302.822
302.828
302.836
302.844
302.854
302.865
302.878
302.892
302.909
302.928
302.949
302.973
303
303.03
303.063
303.1
303.141
303.185
303.235
303.288
303.347
303.41
303.479
303.553
303.632
303.717
303.808
303.904
304.005
304.11
304.22
304.334
304.451
304.568
304.686
304.803
304.916
305.024
305.124
305.214
305.292
305.355
305.403
305.434
305.443
300.654
300.588
300.543
300.504
300.468
300.434
300.404
300.38
300.36
300.347
300.34
300.339
300.344
300.354
300.37
300.391
300.417
300.447
300.481
300.52
300.562
300.608
300.657
300.708
300.762
300.818
300.876
300.936
300.996
301.057
301.119
301.18
301.242
301.302
301.362
301.42
301.477
301.532
301.585
301.635
301.683
301.729
301.772
301.812
301.85
301.884
301.916
301.945
301.971
301.995
302.017
302.036
302.052
302.067
302.08
302.091
302.1
302.108
302.115
302.12
302.125
302.128
302.131
302.133
302.135
302.136
302.137
302.137
302.138
302.138
302.139
302.139
302.139
302.14
302.14
302.141
302.142
302.144
302.145
302.147
302.149
302.151
302.154
302.157
302.16
302.164
302.167
302.171
302.176
302.18
302.185
302.19
302.195
302.201
302.206
302.212
302.218
302.224
302.231
302.237
302.244
302.251
302.258
302.265
302.272
302.279
302.286
302.294
302.301
302.308
302.316
302.323
302.331
302.339
302.346
302.354
302.361
302.369
302.376
302.383
302.391
302.398
302.405
302.412
302.419
302.426
302.432
302.439
302.445
302.451
302.457
302.463
302.468
302.473
302.478
302.483
302.488
302.492
302.497
302.501
302.504
302.508
302.512
302.515
302.518
302.521
302.525
302.528
302.531
302.535
302.538
302.542
302.547
302.552
302.558
302.564
302.571
302.58
302.589
302.6
302.612
302.626
302.642
302.66
302.681
302.703
302.729
302.757
302.789
302.823
302.862
302.904
302.95
303.001
303.056
303.116
303.18
303.25
303.325
303.404
303.489
303.58
303.675
303.775
303.879
303.987
304.099
304.212
304.327
304.441
304.554
304.664
304.768
304.865
304.953
305.031
305.096
305.148
305.185
305.205
300.653
300.588
300.543
300.504
300.468
300.434
300.404
300.38
300.36
300.347
300.34
300.339
300.344
300.354
300.37
300.391
300.417
300.447
300.481
300.52
300.562
300.608
300.657
300.708
300.762
300.818
300.876
300.936
300.996
301.057
301.119
301.18
301.242
301.302
301.362
301.42
301.477
301.532
301.585
301.635
301.683
301.729
301.772
301.812
301.85
301.884
301.916
301.945
301.971
301.995
302.017
302.036
302.052
302.067
302.08
302.091
302.1
302.108
302.115
302.12
302.125
302.128
302.131
302.133
302.135
302.136
302.137
302.137
302.138
302.138
302.138
302.139
302.139
302.14
302.14
302.141
302.142
302.144
302.145
302.147
302.149
302.151
302.154
302.157
302.16
302.164
302.167
302.171
302.176
302.18
302.185
302.19
302.195
302.201
302.206
302.212
302.218
302.224
302.231
302.237
302.244
302.251
302.258
302.265
302.272
302.279
302.286
302.294
302.301
302.308
302.316
302.323
302.331
302.339
302.346
302.354
302.361
302.369
302.376
302.383
302.391
302.398
302.405
302.412
302.419
302.425
302.432
302.439
302.445
302.451
302.457
302.463
302.468
302.473
302.478
302.483
302.488
302.492
302.497
302.501
302.504
302.508
302.512
302.515
302.518
302.521
302.525
302.528
302.531
302.535
302.538
302.542
302.547
302.552
302.558
302.564
302.571
302.58
302.589
302.6
302.612
302.626
302.642
302.66
302.681
302.703
302.729
302.757
302.789
302.823
302.862
302.904
302.95
303.001
303.056
303.116
303.18
303.25
303.325
303.404
303.489
303.58
303.675
303.775
303.879
303.987
304.099
304.212
304.327
304.441
304.554
304.664
304.768
304.865
304.953
305.031
305.096
305.148
305.185
305.205
300.226
300.193
300.175
300.157
300.14
300.123
300.109
300.097
300.089
300.086
300.086
300.092
300.102
300.117
300.137
300.16
300.188
300.22
300.256
300.295
300.337
300.383
300.431
300.482
300.535
300.59
300.647
300.705
300.764
300.823
300.883
300.943
301.003
301.061
301.12
301.176
301.232
301.285
301.337
301.386
301.433
301.478
301.52
301.56
301.596
301.631
301.662
301.691
301.717
301.741
301.762
301.781
301.798
301.813
301.826
301.837
301.847
301.855
301.862
301.868
301.873
301.877
301.88
301.882
301.884
301.886
301.887
301.887
301.888
301.888
301.889
301.889
301.89
301.89
301.891
301.892
301.893
301.894
301.895
301.897
301.899
301.901
301.904
301.906
301.909
301.913
301.916
301.92
301.924
301.929
301.933
301.938
301.943
301.948
301.954
301.959
301.965
301.971
301.977
301.984
301.99
301.997
302.004
302.011
302.018
302.025
302.032
302.039
302.047
302.054