/*--------------------------------*- C++ -*----------------------------------*\
  =========                 |
  \\      /  F ield         | OpenFOAM: The Open Source CFD Toolbox
   \\    /   O peration     | Website:  https://openfoam.org
    \\  /    A nd           | Version:  8
     \\/     M anipulation  |
\*---------------------------------------------------------------------------*/
FoamFile
{
    version     2.0;
    format      ascii;
    class       volVectorField;
    location    "1300";
    object      U;
}
// * * * * * * * * * * * * * * * * * * * * * * * * * * * * * * * * * * * * * //

dimensions      [0 1 -1 0 0 0 0];

internalField   nonuniform List<vector> 
46000
(
(-0.000941579 8.21581e-07 0.00101598)
(-0.00501276 5.22575e-07 0.00205367)
(-0.00979532 3.56973e-07 0.00242689)
(-0.0133825 2.74716e-07 0.00192998)
(-0.0151868 2.14156e-07 0.00105961)
(-0.0151936 1.7401e-07 0.000139134)
(-0.0136399 1.52255e-07 -0.000683991)
(-0.010843 1.42656e-07 -0.00135514)
(-0.00710159 1.37749e-07 -0.00187768)
(-0.00270925 1.29724e-07 -0.00226142)
(0.00215523 1.13221e-07 -0.00250404)
(0.00720998 1.00164e-07 -0.00261913)
(0.0123379 9.78834e-08 -0.00264279)
(0.0173884 9.95268e-08 -0.00259192)
(0.022254 1.03217e-07 -0.0024799)
(0.0268444 1.08267e-07 -0.00231858)
(0.0310875 1.13415e-07 -0.00211833)
(0.0349268 1.1627e-07 -0.00188831)
(0.0383197 1.15503e-07 -0.00163667)
(0.0412359 1.11709e-07 -0.00137066)
(0.0436563 1.06577e-07 -0.00109673)
(0.0455718 1.01353e-07 -0.000820695)
(0.0469824 9.62447e-08 -0.000547846)
(0.0478968 9.0982e-08 -0.000283125)
(0.0483293 8.49976e-08 -3.12819e-05)
(0.0483056 8.02361e-08 0.000206221)
(0.0478507 7.80581e-08 0.000429802)
(0.0469862 7.80106e-08 0.000637835)
(0.0457443 8.07078e-08 0.000828383)
(0.0441575 8.56111e-08 0.000999924)
(0.0422606 9.21009e-08 0.00115148)
(0.0400902 9.99016e-08 0.00128254)
(0.0376835 1.08791e-07 0.00139296)
(0.0350778 1.18735e-07 0.00148293)
(0.0323103 1.29721e-07 0.00155291)
(0.0294171 1.41742e-07 0.0016036)
(0.0264333 1.54756e-07 0.00163587)
(0.0233924 1.68671e-07 0.00165077)
(0.0203258 1.83356e-07 0.00164948)
(0.0172632 1.98597e-07 0.00163326)
(0.0142317 2.13914e-07 0.00160347)
(0.0112562 2.28105e-07 0.00156151)
(0.00835882 2.39947e-07 0.00150879)
(0.00555945 2.49103e-07 0.00144673)
(0.00287505 2.54909e-07 0.00137671)
(0.000321386 2.55412e-07 0.00129939)
(-0.00209405 2.50333e-07 0.00121331)
(-0.00434911 2.42504e-07 0.00112166)
(-0.00644676 2.34266e-07 0.00102885)
(-0.00837794 2.26424e-07 0.000935823)
(-0.0101406 2.1933e-07 0.000843224)
(-0.0117336 2.13525e-07 0.000751735)
(-0.0131569 2.0882e-07 0.000661961)
(-0.0144122 2.04404e-07 0.000574444)
(-0.0155021 1.99265e-07 0.000489837)
(-0.0164304 1.92781e-07 0.000408463)
(-0.0172016 1.8458e-07 0.000330074)
(-0.0178203 1.73924e-07 0.000254721)
(-0.018292 1.60659e-07 0.00018272)
(-0.0186226 1.44751e-07 0.000114197)
(-0.0188178 1.26557e-07 4.91474e-05)
(-0.0188849 1.06949e-07 -1.2416e-05)
(-0.0188282 8.61726e-08 -7.00999e-05)
(-0.018657 6.51299e-08 -0.000123979)
(-0.0183772 4.50461e-08 -0.000174492)
(-0.0179953 2.65637e-08 -0.000221734)
(-0.0175176 1.01222e-08 -0.000265839)
(-0.0169502 -3.65637e-09 -0.000306944)
(-0.0162988 -1.40689e-08 -0.000345157)
(-0.0155693 -2.07028e-08 -0.000380561)
(-0.014767 -2.3308e-08 -0.00041353)
(-0.0138968 -2.16885e-08 -0.000444509)
(-0.0129633 -1.55062e-08 -0.000473591)
(-0.0119707 -4.86278e-09 -0.000500814)
(-0.0109233 9.958e-09 -0.000526306)
(-0.0098249 2.81922e-08 -0.000550203)
(-0.00867905 4.91029e-08 -0.000572644)
(-0.00748913 7.18319e-08 -0.000593768)
(-0.00625824 9.51963e-08 -0.000613719)
(-0.00498925 1.17851e-07 -0.000632642)
(-0.00368455 1.3866e-07 -0.00065071)
(-0.00234686 1.56759e-07 -0.000668114)
(-0.000978934 1.71039e-07 -0.000684607)
(0.000419891 1.79656e-07 -0.000699176)
(0.00184309 1.82406e-07 -0.000711858)
(0.00329079 1.80398e-07 -0.000723594)
(0.00476057 1.73915e-07 -0.000734565)
(0.00625072 1.63438e-07 -0.000744849)
(0.00775964 1.49933e-07 -0.000754509)
(0.00928584 1.34543e-07 -0.000763592)
(0.0108279 1.18295e-07 -0.000772138)
(0.0123846 1.01925e-07 -0.000780176)
(0.0139545 8.61707e-08 -0.000787733)
(0.0155365 7.15588e-08 -0.000794829)
(0.0171296 5.8549e-08 -0.000801479)
(0.0187324 4.74048e-08 -0.000807693)
(0.0203441 3.8167e-08 -0.000813485)
(0.0219636 3.08015e-08 -0.000818863)
(0.0235899 2.52272e-08 -0.000823826)
(0.0252219 2.11873e-08 -0.000828372)
(0.0268588 1.84789e-08 -0.0008325)
(0.0284995 1.67167e-08 -0.000836203)
(0.0301431 1.5617e-08 -0.000839473)
(0.0317887 1.50242e-08 -0.000842301)
(0.0334351 1.47289e-08 -0.000844676)
(0.0350816 1.47105e-08 -0.000846589)
(0.0367271 1.49083e-08 -0.000848027)
(0.0383707 1.52682e-08 -0.000848975)
(0.0400113 1.56212e-08 -0.000849427)
(0.041648 1.57918e-08 -0.000849379)
(0.0432799 1.55974e-08 -0.000848832)
(0.0449059 1.51056e-08 -0.000847788)
(0.0465252 1.43977e-08 -0.000846251)
(0.0481368 1.35345e-08 -0.000844233)
(0.0497398 1.25564e-08 -0.000841748)
(0.0513335 1.15716e-08 -0.000838814)
(0.0529171 1.06341e-08 -0.000835453)
(0.0544898 9.81158e-09 -0.000831694)
(0.0560509 9.10385e-09 -0.000827573)
(0.0576 8.49745e-09 -0.000823126)
(0.0591364 8.07341e-09 -0.000818393)
(0.0606598 7.71691e-09 -0.000813416)
(0.0621698 7.28607e-09 -0.000808243)
(0.0636662 6.57151e-09 -0.000802924)
(0.0651489 5.57999e-09 -0.000797512)
(0.0666177 4.39941e-09 -0.000792064)
(0.0680728 3.23241e-09 -0.000786641)
(0.0695143 2.37613e-09 -0.000781306)
(0.0709426 1.95879e-09 -0.000776121)
(0.072358 2.1559e-09 -0.000771149)
(0.0737612 2.92685e-09 -0.000766449)
(0.0751526 4.1838e-09 -0.000762086)
(0.0765332 5.62287e-09 -0.000758122)
(0.0779036 7.00097e-09 -0.000754617)
(0.079265 8.09534e-09 -0.000751631)
(0.0806183 8.81154e-09 -0.000749218)
(0.0819647 9.14291e-09 -0.000747431)
(0.0833054 9.04226e-09 -0.000746316)
(0.0846418 8.47588e-09 -0.000745918)
(0.0859752 7.35602e-09 -0.000746272)
(0.0873071 5.5882e-09 -0.000747409)
(0.0886389 3.22648e-09 -0.000749345)
(0.0899721 5.00414e-10 -0.000752085)
(0.0913081 -2.4617e-09 -0.00075562)
(0.0926484 -5.65984e-09 -0.000759921)
(0.0939942 -9.15473e-09 -0.000764942)
(0.0953469 -1.30543e-08 -0.000770615)
(0.0967074 -1.72674e-08 -0.000776841)
(0.0980767 -2.13889e-08 -0.000783488)
(0.0994551 -2.50174e-08 -0.000790385)
(0.100843 -2.78729e-08 -0.000797312)
(0.10224 -2.98612e-08 -0.00080399)
(0.103645 -3.08406e-08 -0.000810081)
(0.105058 -3.04876e-08 -0.000815175)
(0.106475 -2.82052e-08 -0.000818793)
(0.107893 -2.35754e-08 -0.000820373)
(0.109308 -1.66324e-08 -0.000819266)
(0.110715 -7.75428e-09 -0.000814724)
(0.112108 2.55973e-09 -0.000805896)
(0.113476 1.39353e-08 -0.000791835)
(0.114812 2.59678e-08 -0.000771491)
(0.116102 3.80203e-08 -0.000743718)
(0.117332 4.91958e-08 -0.000707271)
(0.118487 5.86146e-08 -0.000660822)
(0.119549 6.55082e-08 -0.00060298)
(0.120495 6.92597e-08 -0.000532331)
(0.121304 6.95049e-08 -0.000447487)
(0.121949 6.63719e-08 -0.000347159)
(0.122403 6.0916e-08 -0.00023021)
(0.122634 5.45093e-08 -9.5558e-05)
(0.122615 4.88886e-08 5.81229e-05)
(0.122308 4.58176e-08 0.00023354)
(0.121672 4.64879e-08 0.000433207)
(0.120667 5.19867e-08 0.00065801)
(0.11925 6.22046e-08 0.00090832)
(0.117378 7.6111e-08 0.00118414)
(0.115006 9.19261e-08 0.00148503)
(0.112093 1.08055e-07 0.00181001)
(0.108599 1.23865e-07 0.00215741)
(0.104485 1.396e-07 0.00252473)
(0.0997194 1.5574e-07 0.00290844)
(0.0942756 1.72328e-07 0.00330385)
(0.0881357 1.88951e-07 0.00370485)
(0.0812926 2.04996e-07 0.00410367)
(0.0737532 2.20036e-07 0.00449056)
(0.0655414 2.34639e-07 0.00485345)
(0.0567025 2.50091e-07 0.00517732)
(0.0473086 2.67429e-07 0.00544354)
(0.0374645 2.85931e-07 0.00562877)
(0.0273188 3.03362e-07 0.00570325)
(0.0170628 3.17319e-07 0.00562879)
(0.00701248 3.25389e-07 0.00535276)
(-0.00258935 3.18104e-07 0.00475414)
(-0.0110472 2.96453e-07 0.00375085)
(-0.0178086 2.78941e-07 0.00232021)
(-0.0220599 2.80376e-07 0.000426003)
(-0.0228795 3.03715e-07 -0.00184762)
(-0.0194733 3.20046e-07 -0.00402169)
(-0.0120541 2.94038e-07 -0.00479382)
(-0.00308632 1.44018e-07 -0.00324488)
(-0.000942293 8.21576e-07 0.0010153)
(-0.00501384 5.22575e-07 0.00205273)
(-0.00979579 3.56974e-07 0.00242595)
(-0.0133827 2.74718e-07 0.00192914)
(-0.0151869 2.14158e-07 0.00105887)
(-0.0151936 1.74012e-07 0.000138463)
(-0.0136398 1.52256e-07 -0.000684607)
(-0.0108429 1.42657e-07 -0.00135571)
(-0.00710138 1.3775e-07 -0.00187822)
(-0.002709 1.29725e-07 -0.00226192)
(0.00215556 1.13222e-07 -0.00250449)
(0.00721043 1.00164e-07 -0.00261953)
(0.0123385 9.78839e-08 -0.00264316)
(0.017389 9.95273e-08 -0.00259227)
(0.0222547 1.03218e-07 -0.00248023)
(0.0268451 1.08268e-07 -0.0023189)
(0.0310882 1.13416e-07 -0.00211866)
(0.0349275 1.1627e-07 -0.00188865)
(0.0383204 1.15504e-07 -0.00163704)
(0.0412366 1.11709e-07 -0.00137105)
(0.043657 1.06577e-07 -0.00109716)
(0.0455726 1.01353e-07 -0.000821172)
(0.0469832 9.62448e-08 -0.000548365)
(0.0478976 9.09821e-08 -0.000283677)
(0.0483302 8.49977e-08 -3.18566e-05)
(0.0483066 8.02362e-08 0.000205629)
(0.0478517 7.80582e-08 0.000429197)
(0.0469872 7.80107e-08 0.000637226)
(0.0457454 8.07079e-08 0.000827778)
(0.0441585 8.56112e-08 0.000999328)
(0.0422617 9.2101e-08 0.0011509)
(0.0400912 9.99017e-08 0.00128196)
(0.0376844 1.08791e-07 0.00139237)
(0.0350787 1.18735e-07 0.00148234)
(0.0323112 1.29721e-07 0.00155231)
(0.029418 1.41742e-07 0.00160298)
(0.0264342 1.54756e-07 0.00163525)
(0.0233933 1.68671e-07 0.00165016)
(0.0203267 1.83356e-07 0.00164888)
(0.0172642 1.98597e-07 0.00163269)
(0.0142327 2.13914e-07 0.00160293)
(0.0112571 2.28105e-07 0.00156099)
(0.00835975 2.39947e-07 0.0015083)
(0.00556035 2.49103e-07 0.00144626)
(0.00287592 2.54909e-07 0.00137626)
(0.000322242 2.55413e-07 0.00129893)
(-0.00209319 2.50335e-07 0.00121286)
(-0.00434822 2.42505e-07 0.00112122)
(-0.00644583 2.34267e-07 0.00102841)
(-0.00837697 2.26425e-07 0.000935383)
(-0.0101396 2.19331e-07 0.000842793)
(-0.0117325 2.13526e-07 0.000751317)
(-0.0131558 2.08821e-07 0.000661558)
(-0.0144111 2.04406e-07 0.000574056)
(-0.015501 1.99267e-07 0.000489462)
(-0.0164293 1.92782e-07 0.000408095)
(-0.0172004 1.8458e-07 0.000329709)
(-0.0178192 1.73925e-07 0.000254353)
(-0.018291 1.6066e-07 0.000182343)
(-0.0186215 1.44751e-07 0.000113806)
(-0.0188167 1.26557e-07 4.8739e-05)
(-0.0188838 1.0695e-07 -1.28407e-05)
(-0.0188271 8.61731e-08 -7.05374e-05)
(-0.018656 6.51302e-08 -0.000124427)
(-0.0183762 4.50463e-08 -0.00017495)
(-0.0179943 2.65639e-08 -0.000222198)
(-0.0175166 1.01223e-08 -0.000266307)
(-0.0169491 -3.65639e-09 -0.000307415)
(-0.0162978 -1.40689e-08 -0.000345631)
(-0.0155683 -2.07029e-08 -0.000381038)
(-0.0147661 -2.33081e-08 -0.00041401)
(-0.0138959 -2.16886e-08 -0.00044499)
(-0.0129624 -1.55063e-08 -0.000474071)
(-0.0119699 -4.86281e-09 -0.000501291)
(-0.0109225 9.95806e-09 -0.000526775)
(-0.00982407 2.81924e-08 -0.000550662)
(-0.00867824 4.91033e-08 -0.000573088)
(-0.00748834 7.18325e-08 -0.000594196)
(-0.00625747 9.5197e-08 -0.000614131)
(-0.00498851 1.17852e-07 -0.00063304)
(-0.00368384 1.38661e-07 -0.000651094)
(-0.00234618 1.5676e-07 -0.000668486)
(-0.000978289 1.71041e-07 -0.000684969)
(0.000420505 1.79657e-07 -0.000699529)
(0.00184367 1.82407e-07 -0.000712206)
(0.00329135 1.80398e-07 -0.00072394)
(0.00476111 1.73916e-07 -0.000734916)
(0.00625125 1.63439e-07 -0.000745211)
(0.00776017 1.49934e-07 -0.000754885)
(0.00928638 1.34544e-07 -0.000763984)
(0.0108285 1.18295e-07 -0.000772545)
(0.0123851 1.01926e-07 -0.000780597)
(0.0139551 8.61712e-08 -0.000788164)
(0.0155371 7.15592e-08 -0.000795267)
(0.0171302 5.85493e-08 -0.000801918)
(0.018733 4.74051e-08 -0.000808133)
(0.0203447 3.81672e-08 -0.000813926)
(0.0219642 3.08017e-08 -0.000819302)
(0.0235905 2.52274e-08 -0.000824262)
(0.0252225 2.11874e-08 -0.000828805)
(0.0268593 1.8479e-08 -0.000832928)
(0.0285 1.67168e-08 -0.000836627)
(0.0301436 1.56171e-08 -0.000839894)
(0.0317891 1.50243e-08 -0.00084272)
(0.0334356 1.4729e-08 -0.000845095)
(0.0350821 1.47106e-08 -0.000847006)
(0.0367276 1.49084e-08 -0.000848439)
(0.0383711 1.52683e-08 -0.000849383)
(0.0400117 1.56213e-08 -0.00084983)
(0.0416484 1.57919e-08 -0.000849778)
(0.0432802 1.55975e-08 -0.000849226)
(0.0449062 1.51057e-08 -0.000848178)
(0.0465255 1.43978e-08 -0.000846639)
(0.0481371 1.35346e-08 -0.000844619)
(0.0497401 1.25565e-08 -0.000842131)
(0.0513338 1.15717e-08 -0.000839195)
(0.0529174 1.06342e-08 -0.000835831)
(0.0544901 9.81163e-09 -0.00083207)
(0.0560512 9.1039e-09 -0.000827945)
(0.0576003 8.49749e-09 -0.000823493)
(0.0591367 8.07345e-09 -0.000818755)
(0.0606601 7.71694e-09 -0.000813773)
(0.0621701 7.28611e-09 -0.000808595)
(0.0636665 6.57154e-09 -0.000803272)
(0.0651491 5.58002e-09 -0.000797856)
(0.0666179 4.39943e-09 -0.000792406)
(0.068073 3.23242e-09 -0.000786983)
(0.0695145 2.37614e-09 -0.000781648)
(0.0709428 1.9588e-09 -0.000776461)
(0.0723583 2.15591e-09 -0.000771483)
(0.0737614 2.92686e-09 -0.000766777)
(0.0751529 4.18382e-09 -0.000762404)
(0.0765334 5.62289e-09 -0.000758429)
(0.0779039 7.00099e-09 -0.000754913)
(0.0792653 8.09537e-09 -0.000751916)
(0.0806185 8.81157e-09 -0.000749493)
(0.0819649 9.14294e-09 -0.000747696)
(0.0833057 9.04229e-09 -0.000746573)
(0.084642 8.4759e-09 -0.000746168)
(0.0859754 7.35604e-09 -0.000746518)
(0.0873073 5.58822e-09 -0.000747649)
(0.0886391 3.22649e-09 -0.00074958)
(0.0899723 5.00415e-10 -0.000752315)
(0.0913083 -2.46171e-09 -0.000755843)
(0.0926486 -5.65986e-09 -0.000760137)
(0.0939945 -9.15476e-09 -0.00076515)
(0.0953471 -1.30543e-08 -0.000770812)
(0.0967077 -1.72674e-08 -0.000777025)
(0.0980769 -2.1389e-08 -0.000783662)
(0.0994553 -2.50175e-08 -0.00079055)
(0.100843 -2.7873e-08 -0.000797468)
(0.10224 -2.98613e-08 -0.000804139)
(0.103646 -3.08407e-08 -0.000810222)
(0.105058 -3.04877e-08 -0.000815309)
(0.106475 -2.82053e-08 -0.000818922)
(0.107893 -2.35755e-08 -0.000820498)
(0.109308 -1.66325e-08 -0.000819382)
(0.110716 -7.7543e-09 -0.000814822)
(0.112108 2.55974e-09 -0.000805969)
(0.113477 1.39353e-08 -0.000791877)
(0.114812 2.59679e-08 -0.000771502)
(0.116102 3.80204e-08 -0.000743699)
(0.117332 4.9196e-08 -0.000707225)
(0.118488 5.86148e-08 -0.000660752)
(0.119549 6.55084e-08 -0.000602893)
(0.120495 6.92599e-08 -0.000532239)
(0.121304 6.95052e-08 -0.000447399)
(0.121949 6.63722e-08 -0.000347083)
(0.122403 6.09162e-08 -0.000230148)
(0.122635 5.45095e-08 -9.55105e-05)
(0.122615 4.88887e-08 5.81555e-05)
(0.122308 4.58178e-08 0.000233561)
(0.121672 4.6488e-08 0.000433229)
(0.120668 5.19868e-08 0.000658042)
(0.119251 6.22047e-08 0.000908368)
(0.117378 7.61111e-08 0.00118421)
(0.115007 9.19262e-08 0.00148512)
(0.112094 1.08055e-07 0.00181013)
(0.108599 1.23865e-07 0.00215755)
(0.104485 1.396e-07 0.00252487)
(0.0997198 1.5574e-07 0.00290858)
(0.094276 1.72328e-07 0.00330398)
(0.0881361 1.88951e-07 0.00370496)
(0.081293 2.04996e-07 0.00410375)
(0.0737535 2.20036e-07 0.00449061)
(0.0655417 2.34639e-07 0.00485346)
(0.0567028 2.50091e-07 0.0051773)
(0.047309 2.67429e-07 0.00544349)
(0.0374649 2.85931e-07 0.0056287)
(0.0273191 3.03362e-07 0.00570318)
(0.0170631 3.1732e-07 0.00562873)
(0.0070127 3.2539e-07 0.00535272)
(-0.00258926 3.18104e-07 0.00475413)
(-0.0110473 2.96454e-07 0.00375088)
(-0.0178088 2.78942e-07 0.00232029)
(-0.0220601 2.80377e-07 0.000426104)
(-0.0228798 3.03716e-07 -0.00184751)
(-0.0194735 3.20048e-07 -0.00402158)
(-0.0120541 2.9404e-07 -0.0047937)
(-0.00308632 1.44019e-07 -0.0032448)
(-0.00183659 4.85569e-07 0.00521741)
(-0.00711842 3.17938e-08 0.00769912)
(-0.0104557 -5.52332e-08 0.00639429)
(-0.0116136 -6.2734e-08 0.00361655)
(-0.0108409 -6.47391e-08 0.000608639)
(-0.00845686 -6.49229e-08 -0.00210478)
(-0.00482039 -5.92663e-08 -0.00432856)
(-0.000210739 -5.18312e-08 -0.00604294)
(0.00510638 -4.53786e-08 -0.00728769)
(0.010888 -4.00571e-08 -0.00812629)
(0.0169536 -3.5906e-08 -0.00861229)
(0.0231338 -3.2506e-08 -0.00880117)
(0.0292937 -3.00606e-08 -0.00875292)
(0.0353106 -2.88505e-08 -0.00850843)
(0.041085 -2.84446e-08 -0.0081035)
(0.0465331 -2.87404e-08 -0.00756846)
(0.0515863 -2.99961e-08 -0.00692982)
(0.0561893 -3.25533e-08 -0.006211)
(0.0602989 -3.63356e-08 -0.0054329)
(0.0638831 -4.09268e-08 -0.00461428)
(0.0669199 -4.58622e-08 -0.00377207)
(0.0693969 -5.08924e-08 -0.0029216)
(0.0713099 -5.60779e-08 -0.0020768)
(0.0726625 -6.14858e-08 -0.00125039)
(0.0734654 -6.69549e-08 -0.000454143)
(0.073733 -7.19956e-08 0.000304537)
(0.0734907 -7.59714e-08 0.00102198)
(0.0727652 -7.86309e-08 0.00169315)
(0.0715883 -8.00014e-08 0.00231241)
(0.0699943 -8.02657e-08 0.00287549)
(0.0680202 -7.95848e-08 0.00337924)
(0.0657047 -7.80498e-08 0.00382168)
(0.0630882 -7.57285e-08 0.0042018)
(0.0602117 -7.27427e-08 0.00451954)
(0.0571165 -6.92057e-08 0.00477564)
(0.0538437 -6.5253e-08 0.00497159)
(0.0504336 -6.09514e-08 0.00510949)
(0.0469253 -5.63546e-08 0.00519201)
(0.0433562 -5.14708e-08 0.00522226)
(0.039762 -4.62914e-08 0.00520377)
(0.0361759 -4.09214e-08 0.00514034)
(0.0326291 -3.55646e-08 0.00503601)
(0.0291497 -3.04047e-08 0.00489495)
(0.0257634 -2.56375e-08 0.00472143)
(0.0224929 -2.15158e-08 0.00451958)
(0.0193586 -1.81774e-08 0.00429354)
(0.0163768 -1.56061e-08 0.00404565)
(0.0135623 -1.37691e-08 0.00378056)
(0.0109263 -1.25783e-08 0.00350424)
(0.00847916 -1.19619e-08 0.00321995)
(0.00622752 -1.17913e-08 0.00293087)
(0.00417605 -1.18303e-08 0.00263977)
(0.00232736 -1.18174e-08 0.00234913)
(0.000682258 -1.18629e-08 0.00206112)
(-0.00076038 -1.22142e-08 0.00177751)
(-0.00200173 -1.2851e-08 0.00150015)
(-0.00304583 -1.38522e-08 0.00123036)
(-0.00389776 -1.55057e-08 0.000969169)
(-0.00456298 -1.79793e-08 0.000717415)
(-0.00504772 -2.131e-08 0.000475687)
(-0.00535859 -2.54143e-08 0.000244374)
(-0.00550299 -3.01368e-08 2.36487e-05)
(-0.00548771 -3.52518e-08 -0.000185589)
(-0.00532055 -4.05124e-08 -0.00038299)
(-0.00500936 -4.56157e-08 -0.000569167)
(-0.00456182 -5.02571e-08 -0.000744363)
(-0.00398559 -5.43244e-08 -0.0009089)
(-0.00328807 -5.76953e-08 -0.00106314)
(-0.00247649 -6.00316e-08 -0.00120749)
(-0.00155786 -6.10486e-08 -0.00134236)
(-0.000538568 -6.08081e-08 -0.00146826)
(0.000574862 -5.93504e-08 -0.00158561)
(0.00177566 -5.65532e-08 -0.00169486)
(0.00305793 -5.23044e-08 -0.00179649)
(0.00441597 -4.67681e-08 -0.00189096)
(0.00584441 -4.03446e-08 -0.00197871)
(0.00733816 -3.33015e-08 -0.00206019)
(0.00889244 -2.58515e-08 -0.0021358)
(0.0105027 -1.83478e-08 -0.00220597)
(0.0121647 -1.11351e-08 -0.0022711)
(0.0138743 -4.46108e-09 -0.00233155)
(0.0156276 1.41311e-09 -0.00238769)
(0.0174208 6.25977e-09 -0.00243958)
(0.0192507 9.99516e-09 -0.00248687)
(0.021114 1.25305e-08 -0.00252989)
(0.023008 1.36396e-08 -0.00256933)
(0.0249298 1.32555e-08 -0.00260543)
(0.0268769 1.15405e-08 -0.00263844)
(0.0288467 8.85121e-09 -0.00266855)
(0.0308369 5.50233e-09 -0.00269595)
(0.0328454 1.7617e-09 -0.0027208)
(0.03487 -2.07436e-09 -0.00274323)
(0.0369087 -5.73799e-09 -0.00276339)
(0.0389597 -9.0752e-09 -0.00278136)
(0.0410212 -1.19822e-08 -0.00279725)
(0.0430915 -1.43282e-08 -0.00281113)
(0.0451689 -1.60278e-08 -0.00282308)
(0.0472519 -1.70995e-08 -0.00283316)
(0.0493389 -1.76303e-08 -0.00284142)
(0.0514285 -1.76821e-08 -0.00284789)
(0.0535192 -1.73336e-08 -0.0028526)
(0.0556096 -1.6682e-08 -0.00285557)
(0.0576983 -1.5873e-08 -0.00285682)
(0.059784 -1.49164e-08 -0.00285635)
(0.0618653 -1.38745e-08 -0.00285418)
(0.0639409 -1.27689e-08 -0.00285031)
(0.0660095 -1.16198e-08 -0.00284474)
(0.0680698 -1.0444e-08 -0.00283747)
(0.0701205 -9.31518e-09 -0.00282852)
(0.0721605 -8.36222e-09 -0.00281791)
(0.0741884 -7.59856e-09 -0.00280566)
(0.0762032 -7.00575e-09 -0.00279181)
(0.0782037 -6.48664e-09 -0.00277641)
(0.0801888 -5.99433e-09 -0.00275952)
(0.0821575 -5.55226e-09 -0.0027412)
(0.0841087 -5.12526e-09 -0.00272154)
(0.0860416 -4.71836e-09 -0.00270063)
(0.0879555 -4.30643e-09 -0.00267858)
(0.0898494 -3.923e-09 -0.00265551)
(0.0917228 -3.54126e-09 -0.00263155)
(0.0935751 -3.1378e-09 -0.00260684)
(0.0954058 -2.76285e-09 -0.00258153)
(0.0972148 -2.49347e-09 -0.00255578)
(0.0990016 -2.3883e-09 -0.00252976)
(0.100766 -2.42052e-09 -0.00250364)
(0.102509 -2.48962e-09 -0.0024776)
(0.104229 -2.51352e-09 -0.00245182)
(0.105928 -2.4336e-09 -0.00242651)
(0.107606 -2.23818e-09 -0.00240185)
(0.109263 -1.92059e-09 -0.00237804)
(0.1109 -1.51769e-09 -0.00235525)
(0.112517 -1.05626e-09 -0.00233369)
(0.114117 -6.16699e-10 -0.00231353)
(0.115699 -2.62607e-10 -0.00229495)
(0.117265 -2.24236e-11 -0.00227813)
(0.118817 1.0222e-10 -0.00226321)
(0.120355 1.68299e-10 -0.00225035)
(0.121882 2.14345e-10 -0.00223968)
(0.123398 1.95126e-10 -0.00223132)
(0.124906 -1.58981e-12 -0.00222535)
(0.126406 -4.66258e-10 -0.00222186)
(0.127902 -1.21898e-09 -0.00222085)
(0.129394 -2.1375e-09 -0.00222232)
(0.130884 -3.13475e-09 -0.00222623)
(0.132374 -4.2241e-09 -0.00223246)
(0.133866 -5.496e-09 -0.00224085)
(0.13536 -6.99729e-09 -0.00225116)
(0.136858 -8.60568e-09 -0.00226305)
(0.138361 -1.01035e-08 -0.00227609)
(0.139869 -1.13198e-08 -0.00228972)
(0.141382 -1.22732e-08 -0.00230326)
(0.142901 -1.30256e-08 -0.00231586)
(0.144423 -1.35235e-08 -0.0023265)
(0.145947 -1.35141e-08 -0.00233397)
(0.147471 -1.26993e-08 -0.00233685)
(0.14899 -1.10174e-08 -0.00233352)
(0.1505 -8.66253e-09 -0.00232209)
(0.151995 -5.92453e-09 -0.00230043)
(0.153466 -2.9373e-09 -0.00226612)
(0.154905 3.17633e-10 -0.00221649)
(0.1563 3.81023e-09 -0.0021486)
(0.157638 7.29451e-09 -0.00205926)
(0.158904 1.03704e-08 -0.001945)
(0.16008 1.27166e-08 -0.00180215)
(0.161147 1.41909e-08 -0.00162684)
(0.162081 1.46727e-08 -0.00141509)
(0.162857 1.40314e-08 -0.00116288)
(0.163448 1.22701e-08 -0.000866272)
(0.163822 9.75377e-09 -0.000521461)
(0.163946 7.0129e-09 -0.000125342)
(0.163785 4.55976e-09 0.000326403)
(0.163296 2.6238e-09 0.00084008)
(0.162442 1.29034e-09 0.00142042)
(0.16118 8.17436e-10 0.00206996)
(0.159465 1.20372e-09 0.00279029)
(0.157252 1.94682e-09 0.00358201)
(0.154495 2.4067e-09 0.00444453)
(0.151151 2.33356e-09 0.00537579)
(0.147175 2.02234e-09 0.00637192)
(0.142528 1.7615e-09 0.00742687)
(0.137174 1.53774e-09 0.008532)
(0.131083 1.11114e-09 0.00967565)
(0.124234 1.67662e-10 0.0108425)
(0.116616 -1.69965e-09 0.0120131)
(0.108231 -4.75908e-09 0.0131626)
(0.0990958 -8.67124e-09 0.0142604)
(0.0892505 -1.26727e-08 0.0152682)
(0.0787578 -1.6485e-08 0.0161383)
(0.0677117 -2.07323e-08 0.0168108)
(0.0562442 -2.56039e-08 0.0172099)
(0.0445313 -2.99066e-08 0.0172365)
(0.0328157 -3.19775e-08 0.0167648)
(0.0213865 -3.09342e-08 0.0155989)
(0.0106314 -2.80347e-08 0.0135207)
(0.000999792 -2.21569e-08 0.0103082)
(-0.0068989 -9.07021e-09 0.00572395)
(-0.012351 1.345e-08 -0.00026782)
(-0.0144673 3.63333e-08 -0.00716783)
(-0.0124376 2.74814e-08 -0.0131702)
(-0.00449215 -1.13944e-07 -0.0127035)
(-0.00183744 4.8557e-07 0.00521656)
(-0.00711939 3.17945e-08 0.00769817)
(-0.0104561 -5.52351e-08 0.00639346)
(-0.0116137 -6.27362e-08 0.00361583)
(-0.0108409 -6.47414e-08 0.000608029)
(-0.00845676 -6.49251e-08 -0.00210532)
(-0.00482019 -5.92682e-08 -0.00432906)
(-0.000210445 -5.18328e-08 -0.00604341)
(0.00510676 -4.53799e-08 -0.00728814)
(0.0108885 -4.00582e-08 -0.00812672)
(0.0169541 -3.59069e-08 -0.00861268)
(0.0231345 -3.25067e-08 -0.00880152)
(0.0292944 -3.00613e-08 -0.00875324)
(0.0353115 -2.88511e-08 -0.0085087)
(0.0410859 -2.84451e-08 -0.00810373)
(0.0465341 -2.8741e-08 -0.00756866)
(0.0515873 -2.99966e-08 -0.00692999)
(0.0561903 -3.25538e-08 -0.00621117)
(0.0603 -3.63362e-08 -0.00543308)
(0.0638842 -4.09274e-08 -0.00461449)
(0.0669211 -4.58629e-08 -0.00377231)
(0.0693981 -5.08931e-08 -0.00292188)
(0.0713111 -5.60786e-08 -0.00207711)
(0.0726638 -6.14866e-08 -0.00125073)
(0.0734666 -6.69556e-08 -0.000454487)
(0.0737343 -7.19964e-08 0.000304195)
(0.073492 -7.59723e-08 0.00102165)
(0.0727664 -7.86317e-08 0.00169283)
(0.0715895 -8.00022e-08 0.00231212)
(0.0699955 -8.02665e-08 0.00287522)
(0.0680214 -7.95855e-08 0.003379)
(0.0657059 -7.80505e-08 0.00382144)
(0.0630893 -7.57292e-08 0.00420157)
(0.0602128 -7.27433e-08 0.0045193)
(0.0571176 -6.92063e-08 0.0047754)
(0.0538448 -6.52535e-08 0.00497134)
(0.0504347 -6.09519e-08 0.00510924)
(0.0469263 -5.63551e-08 0.00519176)
(0.0433572 -5.14712e-08 0.00522204)
(0.039763 -4.62918e-08 0.00520358)
(0.036177 -4.09218e-08 0.00514018)
(0.0326301 -3.55649e-08 0.00503588)
(0.0291507 -3.0405e-08 0.00489485)
(0.0257644 -2.56377e-08 0.00472134)
(0.022494 -2.1516e-08 0.0045195)
(0.0193597 -1.81775e-08 0.00429345)
(0.0163779 -1.56062e-08 0.00404555)
(0.0135634 -1.37692e-08 0.00378044)
(0.0109275 -1.25783e-08 0.00350411)
(0.00848034 -1.1962e-08 0.00321981)
(0.00622872 -1.17914e-08 0.00293074)
(0.00417728 -1.18304e-08 0.00263966)
(0.0023286 -1.18175e-08 0.00234903)
(0.000683514 -1.18629e-08 0.00206103)
(-0.000759108 -1.22142e-08 0.00177744)
(-0.00200045 -1.28511e-08 0.00150008)
(-0.00304453 -1.38523e-08 0.00123029)
(-0.00389644 -1.55059e-08 0.000969091)
(-0.00456164 -1.79795e-08 0.000717321)
(-0.00504636 -2.13102e-08 0.000475571)
(-0.00535723 -2.54145e-08 0.000244234)
(-0.00550162 -3.0137e-08 2.34861e-05)
(-0.00548634 -3.52522e-08 -0.00018577)
(-0.0053192 -4.05127e-08 -0.000383186)
(-0.00500802 -4.56161e-08 -0.000569374)
(-0.00456051 -5.02576e-08 -0.000744578)
(-0.0039843 -5.43249e-08 -0.00090912)
(-0.00328682 -5.7696e-08 -0.00106336)
(-0.00247528 -6.00323e-08 -0.00120771)
(-0.0015567 -6.10493e-08 -0.00134259)
(-0.000537454 -6.08088e-08 -0.00146848)
(0.000575927 -5.93511e-08 -0.00158584)
(0.00177668 -5.65538e-08 -0.00169508)
(0.0030589 -5.2305e-08 -0.0017967)
(0.00441689 -4.67687e-08 -0.00189116)
(0.00584529 -4.03451e-08 -0.00197889)
(0.00733901 -3.3302e-08 -0.00206034)
(0.00889326 -2.58519e-08 -0.00213593)
(0.0105035 -1.83481e-08 -0.00220608)
(0.0121654 -1.11353e-08 -0.00227119)
(0.0138751 -4.46115e-09 -0.00233161)
(0.0156284 1.41313e-09 -0.00238773)
(0.0174216 6.25988e-09 -0.0024396)
(0.0192515 9.99534e-09 -0.00248688)
(0.0211148 1.25307e-08 -0.00252991)
(0.0230088 1.36399e-08 -0.00256935)
(0.0249307 1.32558e-08 -0.00260546)
(0.0268778 1.15407e-08 -0.00263848)
(0.0288476 8.85138e-09 -0.00266861)
(0.0308378 5.50243e-09 -0.00269603)
(0.0328463 1.76174e-09 -0.0027209)
(0.0348709 -2.0744e-09 -0.00274335)
(0.0369096 -5.73811e-09 -0.00276352)
(0.0389606 -9.07539e-09 -0.00278151)
(0.041022 -1.19824e-08 -0.0027974)
(0.0430923 -1.43285e-08 -0.00281128)
(0.0451697 -1.60281e-08 -0.00282323)
(0.0472527 -1.70998e-08 -0.00283331)
(0.0493397 -1.76306e-08 -0.00284156)
(0.0514293 -1.76824e-08 -0.00284803)
(0.0535199 -1.7334e-08 -0.00285273)
(0.0556103 -1.66824e-08 -0.0028557)
(0.057699 -1.58733e-08 -0.00285695)
(0.0597847 -1.49167e-08 -0.00285649)
(0.061866 -1.38748e-08 -0.00285432)
(0.0639415 -1.27692e-08 -0.00285044)
(0.0660101 -1.16201e-08 -0.00284487)
(0.0680704 -1.04442e-08 -0.0028376)
(0.0701211 -9.31536e-09 -0.00282865)
(0.0721611 -8.36238e-09 -0.00281803)
(0.074189 -7.5987e-09 -0.00280578)
(0.0762038 -7.00588e-09 -0.00279193)
(0.0782043 -6.48676e-09 -0.00277653)
(0.0801894 -5.99443e-09 -0.00275963)
(0.082158 -5.55235e-09 -0.00274131)
(0.0841093 -5.12535e-09 -0.00272165)
(0.0860422 -4.71844e-09 -0.00270075)
(0.087956 -4.3065e-09 -0.0026787)
(0.0898499 -3.92306e-09 -0.00265563)
(0.0917233 -3.54132e-09 -0.00263167)
(0.0935756 -3.13785e-09 -0.00260696)
(0.0954063 -2.76289e-09 -0.00258165)
(0.0972152 -2.49351e-09 -0.0025559)
(0.0990021 -2.38833e-09 -0.00252987)
(0.100767 -2.42055e-09 -0.00250375)
(0.102509 -2.48965e-09 -0.00247771)
(0.10423 -2.51355e-09 -0.00245194)
(0.105929 -2.43364e-09 -0.00242663)
(0.107606 -2.23821e-09 -0.00240197)
(0.109263 -1.92062e-09 -0.00237816)
(0.1109 -1.51771e-09 -0.00235537)
(0.112518 -1.05628e-09 -0.0023338)
(0.114117 -6.16707e-10 -0.00231363)
(0.1157 -2.6261e-10 -0.00229505)
(0.117266 -2.24238e-11 -0.00227821)
(0.118817 1.02221e-10 -0.00226329)
(0.120356 1.68301e-10 -0.00225042)
(0.121882 2.14347e-10 -0.00223975)
(0.123398 1.95128e-10 -0.00223139)
(0.124906 -1.58982e-12 -0.00222543)
(0.126407 -4.66263e-10 -0.00222194)
(0.127902 -1.21899e-09 -0.00222093)
(0.129394 -2.13753e-09 -0.0022224)
(0.130885 -3.13478e-09 -0.00222631)
(0.132375 -4.22415e-09 -0.00223254)
(0.133866 -5.49605e-09 -0.00224093)
(0.13536 -6.99735e-09 -0.00225123)
(0.136858 -8.60577e-09 -0.00226311)
(0.138361 -1.01036e-08 -0.00227615)
(0.139869 -1.13199e-08 -0.00228978)
(0.141383 -1.22733e-08 -0.00230332)
(0.142901 -1.30257e-08 -0.00231592)
(0.144423 -1.35236e-08 -0.00232656)
(0.145948 -1.35142e-08 -0.00233403)
(0.147471 -1.26994e-08 -0.00233693)
(0.148991 -1.10175e-08 -0.0023336)
(0.150501 -8.6626e-09 -0.00232217)
(0.151995 -5.92458e-09 -0.0023005)
(0.153467 -2.93732e-09 -0.00226617)
(0.154905 3.17636e-10 -0.00221651)
(0.1563 3.81027e-09 -0.0021486)
(0.157639 7.29457e-09 -0.00205923)
(0.158905 1.03705e-08 -0.00194495)
(0.160081 1.27167e-08 -0.00180209)
(0.161147 1.4191e-08 -0.00162677)
(0.162081 1.46728e-08 -0.00141502)
(0.162857 1.40315e-08 -0.00116283)
(0.163448 1.22702e-08 -0.000866244)
(0.163823 9.75384e-09 -0.000521455)
(0.163947 7.01295e-09 -0.000125359)
(0.163785 4.55979e-09 0.000326363)
(0.163297 2.62382e-09 0.000840026)
(0.162443 1.29035e-09 0.00142037)
(0.16118 8.17441e-10 0.00206993)
(0.159465 1.20372e-09 0.00279028)
(0.157252 1.94683e-09 0.00358203)
(0.154496 2.40672e-09 0.00444459)
(0.151151 2.33357e-09 0.0053759)
(0.147175 2.02235e-09 0.00637206)
(0.142528 1.76151e-09 0.00742703)
(0.137174 1.53774e-09 0.00853217)
(0.131084 1.11115e-09 0.00967582)
(0.124235 1.67662e-10 0.0108427)
(0.116617 -1.69965e-09 0.0120132)
(0.108231 -4.75909e-09 0.0131627)
(0.0990963 -8.67126e-09 0.0142605)
(0.0892509 -1.26728e-08 0.0152683)
(0.0787583 -1.6485e-08 0.0161384)
(0.0677121 -2.07323e-08 0.0168109)
(0.0562446 -2.5604e-08 0.01721)
(0.0445316 -2.99067e-08 0.0172367)
(0.032816 -3.19776e-08 0.016765)
(0.0213866 -3.09343e-08 0.0155991)
(0.0106315 -2.80348e-08 0.0135209)
(0.000999804 -2.2157e-08 0.0103084)
(-0.00689896 -9.07025e-09 0.0057241)
(-0.0123511 1.34501e-08 -0.000267705)
(-0.0144674 3.63334e-08 -0.00716775)
(-0.0124377 2.74813e-08 -0.0131701)
(-0.00449218 -1.13944e-07 -0.0127033)
(-0.00207211 3.59531e-07 0.00986722)
(-0.00559453 -2.77303e-08 0.0110584)
(-0.00631945 -5.83896e-08 0.007173)
(-0.00527168 -5.38751e-08 0.00245058)
(-0.00285147 -5.1546e-08 -0.00203266)
(0.000611634 -4.96299e-08 -0.00588419)