/*--------------------------------*- C++ -*----------------------------------*\
  =========                 |
  \\      /  F ield         | OpenFOAM: The Open Source CFD Toolbox
   \\    /   O peration     | Website:  https://openfoam.org
    \\  /    A nd           | Version:  8
     \\/     M anipulation  |
\*---------------------------------------------------------------------------*/
FoamFile
{
    version     2.0;
    format      ascii;
    class       volScalarField;
    location    "3500";
    object      alphat;
}
// * * * * * * * * * * * * * * * * * * * * * * * * * * * * * * * * * * * * * //

dimensions      [1 -1 -1 0 0 0 0];

internalField   nonuniform List<scalar> 
46000
(
1.06702e-06
4.54422e-06
8.40985e-06
1.20057e-05
1.54007e-05
1.86838e-05
2.1895e-05
2.50425e-05
2.81439e-05
3.12112e-05
3.42556e-05
3.72837e-05
4.02797e-05
4.32555e-05
4.62135e-05
4.9154e-05
5.20762e-05
5.49788e-05
5.786e-05
6.07176e-05
6.35492e-05
6.6352e-05
6.91231e-05
7.18595e-05
7.4558e-05
7.72154e-05
7.98282e-05
8.23931e-05
8.49068e-05
8.73659e-05
8.9767e-05
9.21069e-05
9.43823e-05
9.65901e-05
9.87273e-05
0.000100791
0.000102778
0.000104686
0.000106513
0.000108256
0.000109913
0.000111482
0.000112961
0.000114349
0.000115644
0.000116844
0.00011795
0.00011896
0.000119874
0.000120691
0.000121412
0.000122035
0.000122562
0.000122993
0.000123329
0.000123571
0.000123719
0.000123775
0.000123741
0.000123619
0.00012341
0.000123117
0.000122747
0.000122296
0.000121767
0.000121162
0.000120484
0.000119734
0.000118917
0.000118034
0.000117088
0.000116083
0.000115022
0.000113907
0.000112742
0.00011153
0.000110274
0.000108977
0.000107643
0.000106273
0.000104873
0.000103443
0.000101988
0.00010051
9.90129e-05
9.74984e-05
9.59695e-05
9.44291e-05
9.28795e-05
9.13233e-05
8.97629e-05
8.82005e-05
8.66383e-05
8.50785e-05
8.35231e-05
8.19738e-05
8.04325e-05
7.8901e-05
7.73806e-05
7.5873e-05
7.43795e-05
7.29013e-05
7.14397e-05
6.99956e-05
6.857e-05
6.71638e-05
6.57777e-05
6.44125e-05
6.30687e-05
6.17468e-05
6.04472e-05
5.91703e-05
5.79162e-05
5.66853e-05
5.54776e-05
5.42931e-05
5.31319e-05
5.19938e-05
5.08787e-05
4.97865e-05
4.87168e-05
4.76695e-05
4.66441e-05
4.56404e-05
4.46579e-05
4.36962e-05
4.27548e-05
4.18333e-05
4.09311e-05
4.00478e-05
3.91827e-05
3.83354e-05
3.75052e-05
3.66916e-05
3.5894e-05
3.51118e-05
3.43445e-05
3.35915e-05
3.28521e-05
3.21259e-05
3.14122e-05
3.07105e-05
3.00203e-05
2.9341e-05
2.86721e-05
2.80131e-05
2.73636e-05
2.6723e-05
2.60908e-05
2.54665e-05
2.48508e-05
2.42428e-05
2.3642e-05
2.3048e-05
2.24603e-05
2.18788e-05
2.13032e-05
2.07332e-05
2.01685e-05
1.9609e-05
1.90545e-05
1.85048e-05
1.79598e-05
1.74193e-05
1.68839e-05
1.63541e-05
1.58288e-05
1.53077e-05
1.47908e-05
1.4278e-05
1.37692e-05
1.32645e-05
1.27637e-05
1.22669e-05
1.17739e-05
1.12849e-05
1.07997e-05
1.03183e-05
9.84065e-06
9.36653e-06
8.89534e-06
8.42797e-06
7.9639e-06
7.50266e-06
7.04422e-06
6.5882e-06
6.13417e-06
5.68163e-06
5.22991e-06
4.77816e-06
4.32538e-06
3.87197e-06
3.41614e-06
2.95494e-06
2.48548e-06
2.00402e-06
1.50596e-06
9.87942e-07
4.67114e-07
8.96914e-08
1.06708e-06
4.54438e-06
8.41003e-06
1.20059e-05
1.54009e-05
1.8684e-05
2.18952e-05
2.50427e-05
2.81441e-05
3.12113e-05
3.42557e-05
3.72838e-05
4.02798e-05
4.32556e-05
4.62136e-05
4.91541e-05
5.20763e-05
5.49789e-05
5.78601e-05
6.07177e-05
6.35492e-05
6.6352e-05
6.91231e-05
7.18595e-05
7.4558e-05
7.72153e-05
7.98282e-05
8.23931e-05
8.49068e-05
8.73659e-05
8.9767e-05
9.21068e-05
9.43822e-05
9.659e-05
9.87272e-05
0.000100791
0.000102778
0.000104686
0.000106513
0.000108256
0.000109913
0.000111482
0.000112961
0.000114348
0.000115643
0.000116844
0.00011795
0.00011896
0.000119874
0.000120691
0.000121411
0.000122035
0.000122562
0.000122993
0.000123329
0.00012357
0.000123719
0.000123775
0.000123741
0.000123618
0.000123409
0.000123117
0.000122746
0.000122296
0.000121767
0.000121162
0.000120484
0.000119734
0.000118916
0.000118033
0.000117088
0.000116083
0.000115021
0.000113907
0.000112742
0.00011153
0.000110274
0.000108977
0.000107642
0.000106273
0.000104872
0.000103443
0.000101988
0.00010051
9.90127e-05
9.74982e-05
9.59693e-05
9.44289e-05
9.28793e-05
9.13231e-05
8.97627e-05
8.82003e-05
8.66381e-05
8.50783e-05
8.35229e-05
8.19736e-05
8.04324e-05
7.89008e-05
7.73804e-05
7.58728e-05
7.43793e-05
7.29012e-05
7.14395e-05
6.99954e-05
6.85698e-05
6.71636e-05
6.57776e-05
6.44123e-05
6.30685e-05
6.17466e-05
6.0447e-05
5.91701e-05
5.79161e-05
5.66852e-05
5.54774e-05
5.4293e-05
5.31317e-05
5.19936e-05
5.08786e-05
4.97863e-05
4.87167e-05
4.76694e-05
4.6644e-05
4.56403e-05
4.46578e-05
4.36961e-05
4.27547e-05
4.18332e-05
4.0931e-05
4.00477e-05
3.91826e-05
3.83353e-05
3.75051e-05
3.66915e-05
3.58939e-05
3.51118e-05
3.43444e-05
3.35914e-05
3.2852e-05
3.21258e-05
3.14121e-05
3.07104e-05
3.00202e-05
2.93409e-05
2.8672e-05
2.80131e-05
2.73635e-05
2.67229e-05
2.60908e-05
2.54664e-05
2.48507e-05
2.42427e-05
2.36419e-05
2.30479e-05
2.24603e-05
2.18788e-05
2.13032e-05
2.07331e-05
2.01685e-05
1.9609e-05
1.90545e-05
1.85048e-05
1.79597e-05
1.74193e-05
1.68838e-05
1.63541e-05
1.58288e-05
1.53077e-05
1.47908e-05
1.4278e-05
1.37692e-05
1.32644e-05
1.27637e-05
1.22668e-05
1.17739e-05
1.12849e-05
1.07997e-05
1.03183e-05
9.84063e-06
9.36651e-06
8.89532e-06
8.42795e-06
7.96389e-06
7.50265e-06
7.04421e-06
6.58819e-06
6.13417e-06
5.68162e-06
5.2299e-06
4.77815e-06
4.32537e-06
3.87198e-06
3.41615e-06
2.95495e-06
2.48548e-06
2.00403e-06
1.50597e-06
9.8795e-07
4.67119e-07
8.96914e-08
4.17509e-06
4.65766e-05
8.01927e-05
0.000103365
0.000121263
0.000136073
0.000148787
0.000160143
0.000170536
0.000180204
0.000189294
0.000197921
0.000206174
0.0002141
0.00022174
0.000229122
0.000236271
0.000243205
0.000249938
0.000256481
0.000262843
0.000269032
0.000275051
0.000280905
0.000286596
0.000292127
0.000297499
0.000302711
0.000307765
0.000312661
0.000317397
0.000321973
0.000326389
0.000330643
0.000334734
0.000338661
0.000342423
0.000346019
0.000349448
0.000352709
0.000355801
0.000358724
0.000361477
0.000364059
0.00036647
0.00036871
0.000370779
0.000372677
0.000374406
0.000375964
0.000377354
0.000378575
0.000379631
0.00038052
0.000381246
0.00038181
0.000382214
0.00038246
0.000382551
0.000382487
0.000382272
0.000381907
0.000381393
0.000380735
0.000379939
0.000379009
0.000377948
0.00037676
0.000375449
0.00037402
0.000372475
0.000370821
0.000369059
0.000367196
0.000365235
0.000363181
0.000361037
0.000358809
0.000356501
0.000354117
0.000351662
0.000349139
0.000346554
0.00034391
0.000341213
0.000338466
0.000335672
0.000332838
0.000329965
0.00032706
0.000324124
0.000321162
0.000318178
0.000315175
0.000312157
0.000309127
0.000306088
0.000303043
0.000299995
0.000296948
0.000293904
0.000290865
0.000287833
0.000284813
0.000281804
0.00027881
0.000275833
0.000272873
0.000269934
0.000267015
0.00026412
0.000261248
0.000258402
0.000255581
0.000252788
0.000250022
0.000247284
0.000244575
0.000241895
0.000239244
0.000236623
0.000234031
0.000231468
0.000228935
0.00022643
0.000223954
0.000221506
0.000219085
0.000216691
0.000214323
0.00021198
0.000209662
0.000207368
0.000205096
0.000202846
0.000200616
0.000198406
0.000196214
0.000194039
0.00019188
0.000189736
0.000187605
0.000185487
0.000183379
0.000181282
0.000179193
0.000177111
0.000175036
0.000172966
0.000170901
0.000168838
0.000166777
0.000164715
0.000162653
0.000160588
0.00015852
0.000156447
0.000154369
0.000152284
0.000150191
0.00014809
0.000145978
0.000143854
0.000141716
0.000139557
0.00013738
0.000135186
0.000132975
0.000130746
0.000128497
0.000126228
0.000123937
0.000121622
0.000119281
0.000116913
0.000114515
0.000112085
0.000109618
0.000107113
0.000104566
0.000101972
9.93239e-05
9.66157e-05
9.38392e-05
9.09856e-05
8.80426e-05
8.49964e-05
8.18291e-05
7.85173e-05
7.503e-05
7.13215e-05
6.7312e-05
6.29552e-05
5.8149e-05
5.2734e-05
4.64479e-05
3.88151e-05
2.8851e-05
1.44039e-05
4.2246e-07
4.17522e-06
4.65786e-05
8.01955e-05
0.000103368
0.000121267
0.000136077
0.00014879
0.000160146
0.00017054
0.000180207
0.000189297
0.000197925
0.000206177
0.000214104
0.000221744
0.000229126
0.000236275
0.000243209
0.000249942
0.000256485
0.000262848
0.000269036
0.000275055
0.000280909
0.000286601
0.000292132
0.000297503
0.000302716
0.00030777
0.000312666
0.000317402
0.000321978
0.000326394
0.000330648
0.000334739
0.000338666
0.000342428
0.000346024
0.000349453
0.000352714
0.000355807
0.000358729
0.000361482
0.000364064
0.000366475
0.000368715
0.000370784
0.000372683
0.000374411
0.00037597
0.000377359
0.000378581
0.000379636
0.000380526
0.000381252
0.000381816
0.00038222
0.000382466
0.000382556
0.000382493
0.000382278
0.000381912
0.000381398
0.000380741
0.000379945
0.000379014
0.000377953
0.000376765
0.000375454
0.000374025
0.000372481
0.000370826
0.000369064
0.000367201
0.00036524
0.000363186
0.000361042
0.000358814
0.000356506
0.000354122
0.000351666
0.000349144
0.000346559
0.000343915
0.000341217
0.00033847
0.000335677
0.000332842
0.00032997
0.000327064
0.000324128
0.000321166
0.000318182
0.000315179
0.000312161
0.00030913
0.000306091
0.000303046
0.000299999
0.000296952
0.000293907
0.000290868
0.000287837
0.000284816
0.000281807
0.000278813
0.000275836
0.000272876
0.000269937
0.000267018
0.000264123
0.000261251
0.000258405
0.000255584
0.000252791
0.000250025
0.000247287
0.000244578
0.000241898
0.000239247
0.000236625
0.000234033
0.00023147
0.000228937
0.000226432
0.000223956
0.000221508
0.000219087
0.000216693
0.000214325
0.000211982
0.000209664
0.00020737
0.000205098
0.000202847
0.000200618
0.000198407
0.000196215
0.00019404
0.000191881
0.000189737
0.000187606
0.000185488
0.000183381
0.000181283
0.000179194
0.000177112
0.000175037
0.000172967
0.000170902
0.000168839
0.000166778
0.000164716
0.000162654
0.000160589
0.000158521
0.000156448
0.00015437
0.000152285
0.000150192
0.000148091
0.000145979
0.000143855
0.000141717
0.000139557
0.00013738
0.000135186
0.000132975
0.000130746
0.000128498
0.000126229
0.000123938
0.000121623
0.000119282
0.000116914
0.000114516
0.000112085
0.000109619
0.000107114
0.000104566
0.000101972
9.93245e-05
9.66163e-05
9.38397e-05
9.09861e-05
8.80431e-05
8.49969e-05
8.18295e-05
7.85177e-05
7.50304e-05
7.13219e-05
6.73122e-05
6.29554e-05
5.81492e-05
5.27342e-05
4.6448e-05
3.88152e-05
2.88511e-05
1.44038e-05
4.2246e-07
7.89636e-06
7.78209e-05
0.000146451
0.000197709
0.000237442
0.000269577
0.000296571
0.000319969
0.000340749
0.000359555
0.000376824
0.000392863
0.000407893
0.000422073
0.000435519
0.000448323
0.000460555
0.000472272
0.000483518
0.000494331
0.000504739
0.000514768
0.000524437
0.000533763
0.00054276
0.000551438
0.000559809
0.000567879
0.000575657
0.000583147
0.000590354
0.000597283
0.000603937
0.00061032
0.000616433
0.00062228
0.000627862
0.000633182
0.00063824
0.000643039
0.000647581
0.000651867
0.000655898
0.000659677
0.000663204
0.000666482
0.000669512
0.000672297
0.000674837
0.000677136
0.000679196
0.000681019
0.000682608
0.000683964
0.000685091
0.000685993
0.00068667
0.000687128
0.000687367
0.000687392
0.000687205
0.000686806
0.000686198
0.000685387
0.000684382
0.000683187
0.000681809
0.000680253
0.000678523
0.000676625
0.000674564
0.000672346
0.000669974
0.000667456
0.000664796
0.000661999
0.00065907
0.000656017
0.000652842
0.000649554
0.000646155
0.000642653
0.000639053
0.00063536
0.000631579
0.000627716
0.000623776
0.000619764
0.000615686
0.000611546
0.000607351
0.000603103
0.00059881
0.000594474
0.000590102
0.000585696
0.000581263
0.000576805
0.000572328
0.000567835
0.00056333
0.000558817
0.000554299
0.000549779
0.000545262
0.000540749
0.000536245
0.00053175
0.000527269
0.000522804
0.000518356
0.000513928
0.000509521
0.000505138
0.000500779
0.000496446
0.000492141
0.000487863
0.000483614
0.000479395
0.000475205
0.000471045
0.000466916
0.000462817
0.000458748
0.000454708
0.000450697
0.000446715
0.00044276
0.000438832
0.00043493
0.000431053
0.000427199
0.000423367
0.000419555
0.000415763
0.000411988
0.000408229
0.000404485
0.000400752
0.000397031
0.000393318
0.000389612
0.000385911
0.000382213
0.000378517
0.00037482
0.000371122
0.000367421
0.000363713
0.000359996
0.000356267
0.000352525
0.000348769
0.000344996
0.000341204
0.000337391
0.000333555
0.000329695
0.000325807
0.00032189
0.00031794
0.000313955
0.000309929
0.000305857
0.000301734
0.000297564
0.000293347
0.000289079
0.000284757
0.000280378
0.000275938
0.000271432
0.000266857
0.000262204
0.00025747
0.000252645
0.000247721
0.000242689
0.000237538
0.000232253
0.00022682
0.000221217
0.000215424
0.000209411
0.000203142
0.000196577
0.000189661
0.000182327
0.000174485
0.000166013
0.000156739
0.000146444
0.000134853
0.000121515
0.000105718
8.62854e-05
6.11984e-05
2.79145e-05
8.99784e-07
7.89651e-06
7.78237e-05
0.000146456
0.000197715
0.000237449
0.000269584
0.000296578
0.000319976
0.000340756
0.000359562
0.000376831
0.00039287
0.0004079
0.00042208
0.000435526
0.00044833
0.000460562
0.000472279
0.000483525
0.000494338
0.000504746
0.000514775
0.000524444
0.00053377
0.000542767
0.000551445
0.000559816
0.000567887
0.000575664
0.000583154
0.000590361
0.00059729
0.000603945
0.000610327
0.00061644
0.000622287
0.000627869
0.000633189
0.000638247
0.000643047
0.000647589
0.000651874
0.000655906
0.000659684
0.000663211
0.000666489
0.000669519
0.000672304
0.000674845
0.000677144
0.000679203
0.000681026
0.000682615
0.000683971
0.000685099
0.000686
0.000686677
0.000687135
0.000687374
0.000687399
0.000687211
0.000686813
0.000686204
0.000685394
0.000684388
0.000683194
0.000681816
0.000680259
0.000678529
0.000676632
0.000674571
0.000672352
0.00066998
0.000667462
0.000664801
0.000662004
0.000659076
0.000656022
0.000652848
0.000649559
0.000646161
0.000642659
0.000639058
0.000635365
0.000631584
0.000627721
0.00062378
0.000619769
0.00061569
0.000611551
0.000607355
0.000603108
0.000598814
0.000594478
0.000590106
0.0005857
0.000581267
0.000576809
0.000572332
0.000567839
0.000563334
0.00055882
0.000554302
0.000549783
0.000545265
0.000540752
0.000536248
0.000531753
0.000527272
0.000522807
0.000518359
0.000513931
0.000509524
0.000505141
0.000500782
0.000496449
0.000492143
0.000487865
0.000483616
0.000479397
0.000475207
0.000471047
0.000466918
0.000462819
0.000458749
0.000454709
0.000450699
0.000446716
0.000442762
0.000438834
0.000434932
0.000431054
0.0004272
0.000423368
0.000419556
0.000415764
0.000411989
0.00040823
0.000404485
0.000400753
0.000397031
0.000393319
0.000389613
0.000385912
0.000382214
0.000378518
0.000374821
0.000371122
0.000367421
0.000363713
0.000359996
0.000356267
0.000352526
0.000348769
0.000344996
0.000341204
0.000337391
0.000333555
0.000329695
0.000325807
0.00032189
0.00031794
0.000313955
0.000309929
0.000305857
0.000301734
0.000297564
0.000293347
0.000289078
0.000284757
0.000280378
0.000275938
0.000271432
0.000266856
0.000262204
0.00025747
0.000252645
0.000247721
0.000242689
0.000237538
0.000232253
0.00022682
0.000221217
0.000215424
0.000209411
0.000203142
0.000196577
0.000189661
0.000182327
0.000174485
0.000166013
0.000156739
0.000146444
0.000134853
0.000121515
0.000105718
8.62855e-05
6.11984e-05
2.79143e-05
8.99784e-07
1.14762e-05
9.99603e-05
0.0001954
0.000272366
0.000334341
0.000385358
0.000428468
0.000465757
0.000498654
0.00052816
0.000554984
0.000579639
0.000602507
0.000623869
0.000643941
0.00066289
0.000680846
0.000697916
0.000714184
0.000729719
0.000744577
0.000758807
0.000772447
0.000785532
0.000798088
0.000810141
0.000821711
0.000832816
0.000843471
0.00085369
0.000863485
0.000872867
0.000881845
0.000890427
0.000898621
0.000906434
0.000913872
0.000920941
0.000927647
0.000933995
0.000939989
0.000945634
0.000950936
0.000955897
0.000960522
0.000964816
0.000968783
0.000972427
0.000975751
0.000978761
0.000981459
0.000983851
0.00098594
0.000987732
0.000989229
0.000990436
0.000991358
0.000991999
0.000992363
0.000992452
0.000992272
0.000991825
0.000991114
0.000990147
0.000988932
0.000987476
0.000985787
0.00098387
0.000981733
0.000979382
0.000976823
0.000974061
0.000971105
0.000967959
0.00096463
0.000961125
0.00095745
0.000953611
0.000949615
0.000945469
0.000941178
0.000936749
0.000932189
0.000927504
0.000922701
0.000917786
0.000912765
0.000907644
0.00090243
0.000897128
0.000891746
0.000886288
0.000880761
0.000875171
0.000869523
0.000863822
0.000858074
0.000852285
0.000846459
0.000840602
0.000834718
0.000828811
0.000822887
0.000816949
0.000811003
0.00080505
0.000799096
0.000793144
0.000787196
0.000781257
0.000775328
0.000769413
0.000763514
0.000757633
0.000751772
0.000745933
0.000740117
0.000734326
0.000728561
0.000722822
0.00071711
0.000711425
0.000705768
0.000700139
0.000694538
0.000688963
0.000683415
0.000677892
0.000672395
0.000666921
0.000661469
0.000656038
0.000650626
0.000645232
0.000639854
0.000634489
0.000629136
0.000623793
0.000618458
0.000613127
0.000607799
0.000602472
0.000597142
0.000591809
0.000586468
0.000581118
0.000575757
0.000570382
0.000564991
0.000559579
0.000554144
0.000548682
0.000543191
0.000537669
0.000532112
0.000526518
0.000520885
0.000515208
0.000509485
0.000503712
0.000497886
0.000492003
0.000486058
0.000480044
0.000473956
0.000467787
0.000461538
0.000455205
0.000448784
0.00044227
0.000435656
0.000428936
0.000422101
0.000415142
0.000408049
0.000400809
0.00039341
0.000385835
0.000378066
0.000370083
0.000361861
0.00035337
0.000344575
0.000335434
0.000325896
0.000315898
0.000305364
0.000294197
0.000282277
0.000269448
0.000255504
0.000240176
0.0002231
0.000203809
0.000181614
0.000155506
0.000123989
8.49594e-05
3.72415e-05
1.38332e-06
1.14764e-05
9.99632e-05
0.000195406
0.000272374
0.00033435
0.000385368
0.000428478
0.000465767
0.000498665
0.00052817
0.000554994
0.000579649
0.000602517
0.000623879
0.000643951
0.000662899
0.000680856
0.000697926
0.000714194
0.000729728
0.000744587
0.000758816
0.000772457
0.000785541
0.000798098
0.00081015
0.00082172
0.000832825
0.00084348
0.000853699
0.000863495
0.000872876
0.000881854
0.000890436
0.00089863
0.000906443
0.000913881
0.00092095
0.000927656
0.000934004
0.000939998
0.000945643
0.000950944
0.000955906
0.000960531
0.000964825
0.000968792
0.000972435
0.00097576
0.000978769
0.000981467
0.000983859
0.000985949
0.00098774
0.000989237
0.000990444
0.000991366
0.000992007
0.00099237
0.00099246
0.00099228
0.000991833
0.000991121
0.000990154
0.000988939
0.000987483
0.000985794
0.000983877
0.00098174
0.000979389
0.000976829
0.000974068
0.000971111
0.000967965
0.000964636
0.000961131
0.000957456
0.000953617
0.000949621
0.000945474
0.000941183
0.000936754
0.000932194
0.00092751
0.000922706
0.000917791
0.000912769
0.000907648
0.000902434
0.000897133
0.00089175
0.000886293
0.000880766
0.000875175
0.000869527
0.000863826
0.000858078
0.000852289
0.000846463
0.000840605
0.000834721
0.000828814
0.00082289
0.000816952
0.000811005
0.000805053
0.000799099
0.000793146
0.000787199
0.000781259
0.00077533
0.000769415
0.000763516
0.000757635
0.000751774
0.000745935
0.000740119
0.000734328
0.000728562
0.000722823
0.000717111
0.000711426
0.00070577
0.00070014
0.000694539
0.000688964
0.000683416
0.000677893
0.000672396
0.000666921
0.000661469
0.000656038
0.000650627
0.000645233
0.000639854
0.00063449
0.000629137
0.000623794
0.000618458
0.000613127
0.000607799
0.000602472
0.000597142
0.000591808
0.000586468
0.000581118
0.000575756
0.000570381
0.00056499
0.000559579
0.000554143
0.000548682
0.000543191
0.000537668
0.000532112
0.000526518
0.000520884
0.000515207
0.000509484
0.000503711
0.000497886
0.000492002
0.000486057
0.000480044
0.000473955
0.000467786
0.000461537
0.000455204
0.000448783
0.000442269
0.000435656
0.000428935
0.0004221
0.000415141
0.000408048
0.000400808
0.000393409
0.000385834
0.000378066
0.000370083
0.00036186
0.000353369
0.000344574
0.000335433
0.000325895
0.000315898
0.000305364
0.000294197
0.000282276
0.000269447
0.000255504
0.000240176
0.0002231
0.000203808
0.000181614
0.000155506
0.00012399
8.49594e-05
3.72413e-05
1.38332e-06
1.49425e-05
0.000117732
0.000233989
0.000332681
0.000414808
0.000483903
0.000543009
0.00059443
0.000639862
0.000680554
0.000717429
0.000751182
0.000782336
0.000811294
0.000838365
0.000863796
0.000887779
0.000910471
0.000932001
0.000952472
0.000971971
0.000990571
0.00100833
0.00102531
0.00104154
0.00105706
0.00107192
0.00108613
0.00109972
0.00111272
0.00112515
0.00113701
0.00114834
0.00115913
0.00116942
0.0011792
0.00118849
0.0011973
0.00120564
0.00121351
0.00122094
0.00122791
0.00123445
0.00124057
0.00124625
0.00125153
0.00125639
0.00126086
0.00126492
0.0012686
0.0012719
0.00127482
0.00127737
0.00127955
0.00128138
0.00128286
0.00128399
0.00128478
0.00128523
0.00128536
0.00128516
0.00128464
0.00128381
0.00128267
0.00128123
0.0012795
0.0012775
0.00127522
0.00127268
0.00126988
0.00126683
0.00126354
0.00126001
0.00125625
0.00125228
0.00124809
0.0012437
0.00123911
0.00123432
0.00122936
0.00122422
0.00121891
0.00121344
0.00120781
0.00120204
0.00119613
0.00119009
0.00118392
0.00117764
0.00117125
0.00116475
0.00115815
0.00115147
0.0011447
0.00113786
0.00113095
0.00112397
0.00111694
0.00110985
0.00110272
0.00109554
0.00108834
0.0010811
0.00107384
0.00106655
0.00105926
0.00105195
0.00104463
0.00103731
0.00103
0.00102268
0.00101537
0.00100808
0.00100079
0.000993521
0.000986267
0.000979032
0.000971817
0.000964623
0.000957452
0.000950303
0.000943178
0.000936076
0.000928998
0.000921943
0.00091491
0.0009079
0.00090091
0.000893941
0.000886989
0.000880055
0.000873135
0.000866228
0.000859333
0.000852446
0.000845565
0.000838688
0.000831813
0.000824936
0.000818054
0.000811166
0.000804267
0.000797356
0.000790428
0.000783482
0.000776514
0.000769521
0.000762501
0.000755449
0.000748362
0.000741234
0.000734064
0.000726847
0.00071958
0.000712259
0.000704882
0.000697443
0.00068994
0.000682368
0.000674722
0.000666997
0.000659189
0.00065129
0.000643294
0.000635193
0.00062698
0.000618652
0.000610202
0.000601624
0.00059291
0.000584049
0.000575032
0.000565847
0.000556478
0.000546912
0.000537129
0.000527109
0.000516829
0.000506261
0.000495374
0.000484129
0.000472484
0.000460385
0.000447771
0.000434567
0.000420682
0.000406004
0.000390395
0.000373684
0.000355653
0.000336024
0.00031444
0.000290432
0.000263382
0.00023247
0.000196558
0.000154116
0.000103356
4.45208e-05
1.85964e-06
1.49427e-05
0.000117735
0.000233996
0.00033269
0.000414819
0.000483914
0.000543022
0.000594443
0.000639875
0.000680567
0.000717442
0.000751195
0.000782349
0.000811307
0.000838378
0.000863808
0.000887791
0.000910484
0.000932014
0.000952484
0.000971983
0.000990583
0.00100834
0.00102532
0.00104155
0.00105707
0.00107193
0.00108614
0.00109974
0.00111274
0.00112516
0.00113702
0.00114835
0.00115915
0.00116943
0.00117921
0.0011885
0.00119731
0.00120565
0.00121352
0.00122095
0.00122792
0.00123446
0.00124058
0.00124626
0.00125154
0.0012564
0.00126087
0.00126493
0.00126861
0.00127191
0.00127483
0.00127738
0.00127956
0.00128139
0.00128286
0.00128399
0.00128478
0.00128524
0.00128536
0.00128516
0.00128465
0.00128381
0.00128267
0.00128124
0.00127951
0.00127751
0.00127523
0.00127269
0.00126989
0.00126684
0.00126354
0.00126002
0.00125626
0.00125229
0.0012481
0.0012437
0.00123911
0.00123433
0.00122936
0.00122422
0.00121891
0.00121344
0.00120782
0.00120205
0.00119614
0.00119009
0.00118393
0.00117764
0.00117125
0.00116475
0.00115816
0.00115148
0.00114471
0.00113787
0.00113095
0.00112398
0.00111694
0.00110985
0.00110272
0.00109555
0.00108834
0.0010811
0.00107384
0.00106656
0.00105926
0.00105195
0.00104463
0.00103732
0.00103
0.00102268
0.00101538
0.00100808
0.00100079
0.000993523
0.000986269
0.000979034
0.000971819
0.000964625
0.000957453
0.000950304
0.000943179
0.000936077
0.000928999
0.000921944
0.000914911
0.000907901
0.000900911
0.000893941
0.00088699
0.000880055
0.000873135
0.000866229
0.000859333
0.000852446
0.000845565
0.000838688
0.000831813
0.000824935
0.000818054
0.000811165
0.000804267
0.000797355
0.000790428
0.000783482
0.000776513
0.000769521
0.000762501
0.000755449
0.000748361
0.000741234
0.000734063
0.000726846
0.000719579
0.000712258
0.000704881
0.000697442
0.000689939
0.000682367
0.000674721
0.000666996
0.000659188
0.000651289
0.000643293
0.000635192
0.000626979
0.00061865
0.000610201
0.000601623
0.000592909
0.000584048
0.000575031
0.000565845
0.000556477
0.000546911
0.000537128
0.000527108
0.000516828
0.00050626
0.000495372
0.000484128
0.000472482
0.000460384
0.00044777
0.000434566
0.000420681
0.000406003
0.000390394
0.000373683
0.000355652
0.000336023
0.00031444
0.000290432
0.000263382
0.00023247
0.000196558
0.000154116
0.000103356
4.45205e-05
1.85965e-06
1.8355e-05
0.000132872
0.000265947
0.000383038
0.000483031
0.000568704
0.000642887
0.00070791
0.000765597
0.000817353
0.000864255
0.000907135
0.000946637
0.000983266
0.00101742
0.00104941
0.0010795
0.00110788
0.00113474
0.0011602
0.00118439
0.0012074
0.00122932
0.00125022
0.00127015
0.00128916
0.00130732
0.00132465
0.00134118
0.00135696
0.00137201
0.00138635
0.00140001
0.00141301
0.00142536
0.00143709
0.0014482
0.00145873
0.00146867
0.00147804
0.00148686
0.00149514
0.00150289
0.00151011
0.00151682
0.00152304
0.00152876
0.001534
0.00153877
0.00154308
0.00154693
0.00155034
0.00155331
0.00155586
0.00155798
0.00155969
0.00156099
0.0015619
0.00156241
0.00156255
0.0015623
0.00156169
0.00156072
0.00155939
0.00155772
0.00155571
0.00155338
0.00155074
0.00154779
0.00154454
0.001541
0.00153718
0.0015331
0.00152874
0.00152414
0.00151928
0.00151419
0.00150887
0.00150333
0.00149758
0.00149162
0.00148546
0.00147912
0.0014726
0.00146591
0.00145905
0.00145204
0.00144488
0.00143758
0.00143016
0.00142261
0.00141494
0.00140717
0.00139929
0.00139132
0.00138327
0.00137514
0.00136694
0.00135867
0.00135034
0.00134196
0.00133353
0.00132507
0.00131657
0.00130804
0.00129948
0.00129091
0.00128232
0.00127372
0.00126512
0.00125651
0.0012479
0.0012393
0.0012307
0.00122212
0.00121354
0.00120498
0.00119644
0.00118791
0.0011794
0.0011709
0.00116243
0.00115398
0.00114554
0.00113712
0.00112872
0.00112034
0.00111197
0.00110362
0.00109528
0.00108695
0.00107862
0.00107031
0.001062
0.00105368
0.00104537
0.00103705
0.00102872
0.00102038
0.00101203
0.00100366
0.000995267
0.00098685
0.000978404
0.000969927
0.000961414
0.000952863
0.000944269
0.000935627
0.000926934
0.000918184
0.000909373
0.000900498
0.000891554
0.000882536
0.000873441
0.000864263
0.000854998
0.000845639
0.000836182
0.00082662
0.000816947
0.000807154
0.000797235
0.000787179
0.000776977
0.000766625
0.000756112
0.000745428
0.000734564
0.000723504
0.000712236
0.000700742
0.000689003
0.000677
0.000664706
0.000652095
0.000639134
0.000625787
0.000612011
0.000597755
0.000582962
0.000567562
0.000551473
0.000534596
0.000516814
0.000497984
0.000477928
0.000456433
0.000433228
0.000407976
0.00038025
0.000349504
0.00031504
0.000275966
0.000231121
0.000179079
0.000118457
5.06393e-05
2.33084e-06
1.83552e-05
0.000132875
0.000265953
0.000383048
0.000483042
0.000568717
0.000642901
0.000707925
0.000765612
0.000817368
0.00086427
0.00090715
0.000946653
0.000983282
0.00101743
0.00104943
0.00107951
0.0011079
0.00113475
0.00116022
0.00118441
0.00120742
0.00122934
0.00125023
0.00127016
0.00128918
0.00130733
0.00132466
0.0013412
0.00135698
0.00137202
0.00138637
0.00140002
0.00141302
0.00142537
0.0014371
0.00144822
0.00145874
0.00146868
0.00147806
0.00148688
0.00149515
0.0015029
0.00151012
0.00151684
0.00152305
0.00152877
0.00153401
0.00153878
0.00154309
0.00154695
0.00155035
0.00155332
0.00155587
0.00155799
0.0015597
0.001561
0.00156191
0.00156242
0.00156256
0.00156231
0.0015617
0.00156073
0.0015594
0.00155773
0.00155572
0.00155339
0.00155075
0.0015478
0.00154455
0.00154101
0.00153719
0.0015331
0.00152875
0.00152414
0.00151929
0.0015142
0.00150888
0.00150334
0.00149758
0.00149162
0.00148547
0.00147913
0.0014726
0.00146591
0.00145905
0.00145204
0.00144489
0.00143759
0.00143016
0.00142261
0.00141494
0.00140717
0.0013993
0.00139133
0.00138327
0.00137514
0.00136694
0.00135867
0.00135034
0.00134196
0.00133354
0.00132507
0.00131657
0.00130804
0.00129948
0.00129091
0.00128232
0.00127372
0.00126512
0.00125651
0.0012479
0.0012393
0.0012307
0.00122212
0.00121354
0.00120498
0.00119644
0.00118791
0.0011794
0.00117091
0.00116243
0.00115398
0.00114554
0.00113712
0.00112872
0.00112034
0.00111197
0.00110362
0.00109528
0.00108695
0.00107863
0.00107031
0.001062
0.00105368
0.00104537
0.00103705
0.00102872
0.00102038
0.00101203
0.00100366
0.000995267
0.000986849
0.000978404
0.000969927
0.000961414
0.000952862
0.000944268
0.000935627
0.000926933
0.000918183
0.000909373
0.000900497
0.000891553
0.000882536
0.00087344
0.000864262
0.000854997
0.000845638
0.000836181
0.000826619
0.000816946
0.000807153
0.000797234
0.000787178
0.000776976
0.000766624
0.000756111
0.000745427
0.000734562
0.000723503
0.000712234
0.00070074
0.000689002
0.000676998
0.000664705
0.000652094
0.000639133
0.000625786
0.00061201
0.000597754
0.000582961
0.000567561
0.000551472
0.000534595
0.000516814
0.000497983
0.000477928
0.000456432
0.000433227
0.000407976
0.00038025
0.000349504
0.000315041
0.000275966
0.000231122
0.00017908
0.000118457
5.0639e-05
2.33085e-06
2.17277e-05
0.000146236
0.000293485
0.000426378
0.000542141
0.000642799
0.000730883
0.000808659
0.00087799
0.000940369
0.000996977
0.00104875
0.00109642
0.00114059
0.00118172
0.00122019
0.0012563
0.00129032
0.00132245
0.00135286
0.0013817
0.00140908
0.00143512
0.00145989
0.00148349
0.00150596
0.00152738
0.00154779
0.00156724
0.00158576
0.0016034
0.00162019
0.00163615
0.00165131
0.0016657
0.00167933
0.00169224
0.00170444
0.00171595
0.00172679
0.00173697
0.00174651
0.00175542
0.00176372
0.00177142
0.00177854
0.00178508
0.00179107
0.0017965
0.00180141
0.00180578
0.00180964
0.001813
0.00181587
0.00181825
0.00182016
0.00182161
0.00182261
0.00182316
0.00182328
0.00182297
0.00182224
0.00182111
0.00181957
0.00181765
0.00181536
0.00181269
0.00180967
0.00180631
0.00180261
0.00179859
0.00179425
0.0017896
0.00178466
0.00177943
0.00177392
0.00176815
0.00176212
0.00175584
0.00174932
0.00174257
0.0017356
0.00172841
0.00172103
0.00171344
0.00170568
0.00169774
0.00168963
0.00168137
0.00167295
0.0016644
0.00165571
0.0016469
0.00163798
0.00162894
0.00161981
0.00161059
0.00160128
0.00159189
0.00158244
0.00157292
0.00156335
0.00155372
0.00154406
0.00153435
0.00152462
0.00151486
0.00150508
0.00149528
0.00148547