/*--------------------------------*- C++ -*----------------------------------*\
  =========                 |
  \\      /  F ield         | OpenFOAM: The Open Source CFD Toolbox
   \\    /   O peration     | Website:  https://openfoam.org
    \\  /    A nd           | Version:  8
     \\/     M anipulation  |
\*---------------------------------------------------------------------------*/
FoamFile
{
    version     2.0;
    format      ascii;
    class       volScalarField;
    location    "3500";
    object      epsilon;
}
// * * * * * * * * * * * * * * * * * * * * * * * * * * * * * * * * * * * * * //

dimensions      [0 2 -3 0 0 0 0];

internalField   nonuniform List<scalar> 
46000
(
19.3553
74.4042
137.38
195.821
250.917
304.139
356.15
407.089
457.249
506.828
556.009
604.906
653.261
701.271
748.976
796.382
843.478
890.245
936.653
982.669
1028.25
1073.37
1117.96
1161.98
1205.39
1248.13
1290.14
1331.38
1371.78
1411.3
1449.89
1487.48
1524.03
1559.49
1593.82
1626.95
1658.86
1689.49
1718.81
1746.78
1773.37
1798.54
1822.26
1844.51
1865.28
1884.52
1902.25
1918.43
1933.06
1946.14
1957.67
1967.64
1976.06
1982.93
1988.28
1992.11
1994.45
1995.3
1994.71
1992.7
1989.29
1984.55
1978.55
1971.27
1962.73
1952.97
1942.03
1929.95
1916.77
1902.55
1887.32
1871.14
1854.05
1836.11
1817.36
1797.85
1777.64
1756.78
1735.3
1713.28
1690.74
1667.75
1644.34
1620.58
1596.49
1572.13
1547.55
1522.77
1497.85
1472.82
1447.73
1422.6
1397.48
1372.39
1347.38
1322.46
1297.68
1273.05
1248.59
1224.35
1200.33
1176.55
1153.05
1129.82
1106.89
1084.27
1061.98
1040.02
1018.4
997.137
976.231
955.689
935.515
915.712
896.282
877.225
858.541
840.23
822.288
804.713
787.501
770.647
754.146
737.993
722.181
706.703
691.552
676.72
662.198
647.979
634.054
620.413
607.048
593.949
581.108
568.514
556.158
544.031
532.124
520.428
508.933
497.63
486.511
475.568
464.791
454.172
443.705
433.38
423.191
413.126
403.199
393.396
383.707
374.126
364.646
355.264
345.975
336.775
327.659
318.626
309.671
300.792
291.986
283.251
274.597
266.032
257.537
249.108
240.744
232.445
224.208
216.034
207.922
199.872
191.883
183.954
176.085
168.275
160.523
152.826
145.174
137.581
130.039
122.541
115.085
107.666
100.276
92.9073
85.549
78.1872
70.8051
63.4087
55.9694
48.4382
40.7669
32.8937
24.741
16.2499
7.69518
1.64152
19.3564
74.4069
137.383
195.824
250.92
304.142
356.152
407.092
457.251
506.83
556.011
604.907
653.263
701.272
748.977
796.383
843.479
890.245
936.654
982.67
1028.25
1073.37
1117.96
1161.98
1205.39
1248.13
1290.14
1331.37
1371.78
1411.3
1449.88
1487.48
1524.03
1559.49
1593.82
1626.95
1658.86
1689.49
1718.81
1746.78
1773.36
1798.53
1822.26
1844.51
1865.27
1884.52
1902.24
1918.43
1933.06
1946.14
1957.66
1967.63
1976.05
1982.93
1988.28
1992.11
1994.44
1995.3
1994.71
1992.69
1989.29
1984.55
1978.55
1971.27
1962.73
1952.97
1942.03
1929.94
1916.77
1902.54
1887.31
1871.13
1854.04
1836.1
1817.35
1797.85
1777.64
1756.77
1735.3
1713.27
1690.74
1667.74
1644.34
1620.57
1596.49
1572.13
1547.54
1522.77
1497.85
1472.82
1447.72
1422.6
1397.48
1372.39
1347.38
1322.46
1297.67
1273.04
1248.59
1224.35
1200.33
1176.55
1153.04
1129.82
1106.89
1084.27
1061.97
1040.01
1018.4
997.134
976.228
955.686
935.513
915.71
896.279
877.223
858.539
840.227
822.286
804.711
787.498
770.645
754.144
737.991
722.179
706.701
691.55
676.718
662.197
647.977
634.052
620.411
607.046
593.948
581.106
568.512
556.156
544.03
532.123
520.427
508.932
497.629
486.51
475.566
464.789
454.171
443.703
433.379
423.19
413.125
403.198
393.395
383.706
374.125
364.645
355.263
345.974
336.774
327.659
318.625
309.67
300.791
291.985
283.251
274.596
266.031
257.536
249.107
240.744
232.444
224.207
216.033
207.922
199.871
191.882
183.954
176.085
168.275
160.523
152.826
145.174
137.581
130.039
122.541
115.085
107.665
100.276
92.9072
85.5489
78.1871
70.8051
63.4088
55.9695
48.4383
40.7671
32.8939
24.7411
16.25
7.69527
1.64152
80.6345
68.7138
87.7276
110.399
134.03
158.128
182.575
207.226
232.063
257.065
282.192
307.46
332.827
358.298
383.871
409.53
435.256
461.025
486.808
512.575
538.295
563.93
589.446
614.804
639.963
664.883
689.524
713.842
737.795
761.342
784.439
807.045
829.119
850.62
871.508
891.746
911.295
930.121
948.19
965.469
981.929
997.542
1012.28
1026.13
1039.05
1051.04
1062.08
1072.16
1081.26
1089.37
1096.5
1102.63
1107.78
1111.94
1115.11
1117.31
1118.55
1118.84
1118.19
1116.64
1114.19
1110.89
1106.77
1101.83
1096.1
1089.58
1082.32
1074.34
1065.67
1056.35
1046.4
1035.86
1024.76
1013.15
1001.04
988.489
975.518
962.167
948.469
934.458
920.168
905.633
890.885
875.954
860.873
845.67
830.375
815.016
799.619
784.21
768.813
753.451
738.146
722.92
707.792
692.779
677.899
663.168
648.6
634.209
620.006
606.003
592.21
578.635
565.286
552.17
539.292
526.656
514.268
502.129
490.241
478.607
467.226
456.098
445.222
434.597
424.221
414.092
404.206
394.559
385.148
375.969
367.017
358.287
349.774
341.473
333.377
325.482
317.782
310.27
302.941
295.788
288.805
281.986
275.326
268.818
262.456
256.233
250.146
244.186
238.35
232.631
227.024
221.523
216.125
210.823
205.613
200.491
195.449
190.492
185.615
180.812
176.081
171.416
166.814
162.274
157.791
153.364
148.99
144.667
140.395
136.17
131.992
127.862
123.782
119.752
115.766
111.823
107.921
104.06
100.239
96.4567
92.7139
89.01
85.3448
81.7181
78.1297
74.5792
71.0663
67.5902
64.1498
60.7458
57.3769
54.0398
50.7378
47.4683
44.2294
41.0188
37.8338
34.6715
31.5298
28.4119
25.308
22.2082
19.1038
15.9884
12.8673
9.79844
7.1195
8.32967
80.6369
68.7127
87.7255
110.396
134.027
158.125
182.571
207.221
232.058
257.059
282.187
307.454
332.82
358.291
383.863
409.522
435.248
461.015
486.798
512.565
538.284
563.919
589.435
614.791
639.95
664.87
689.51
713.828
737.781
761.327
784.423
807.029
829.102
850.603
871.491
891.728
911.277
930.102
948.171
965.45
981.909
997.522
1012.26
1026.1
1039.03
1051.02
1062.06
1072.13
1081.23
1089.35
1096.48
1102.61
1107.76
1111.92
1115.09
1117.29
1118.53
1118.82
1118.17
1116.61
1114.17
1110.86
1106.74
1101.81
1096.07
1089.56
1082.3
1074.32
1065.65
1056.33
1046.38
1035.84
1024.74
1013.13
1001.02
988.469
975.499
962.148
948.45
934.44
920.151
905.616
890.867
875.937
860.856
845.654
830.359
815
799.603
784.194
768.798
753.436
738.132
722.906
707.778
692.765
677.886
663.155
648.588
634.197
619.994
605.992
592.199
578.624
565.275
552.159
539.281
526.646
514.258
502.119
490.232
478.598
467.217
456.089
445.214
434.589
424.214
414.084
404.198
394.552
385.141
375.962
367.01
358.281
349.768
341.467
333.371
325.477
317.776
310.265
302.935
295.783
288.8
281.982
275.322
268.813
262.451
256.229
250.141
244.182
238.346
232.627
227.02
221.52
216.122
210.82
205.61
200.487
195.446
190.489
185.612
180.81
176.078
171.413
166.812
162.271
157.789
153.361
148.988
144.665
140.393
136.168
131.991
127.86
123.78
119.75
115.765
111.822
107.92
104.059
100.237
96.4554
92.7126
89.0088
85.3437
81.717
78.1287
74.5782
71.0654
67.5893
64.1489
60.745
57.3761
54.0391
50.7371
47.4677
44.2288
41.0182
37.8333
34.671
31.5294
28.4116
25.3078
22.208
19.1036
15.9882
12.8672
9.7984
7.11951
8.32967
150.28
92.1619
94.433
105.712
119.951
135.63
152.181
169.31
186.863
204.756
222.931
241.347
259.972
278.78
297.753
316.868
336.103
355.434
374.834
394.277
413.736
433.179
452.576
471.896
491.106
510.172
529.061
547.737
566.165
584.311
602.14
619.616
636.706
653.375
669.59
685.32
700.532
715.196
729.285
742.769
755.624
767.826
779.352
790.181
800.295
809.678
818.316
826.195
833.307
839.644
845.2
849.972
853.959
857.163
859.587
861.237
862.122
862.252
861.64
860.302
858.256
855.524
852.131
848.087
843.409
838.115
832.226
825.768
818.764
811.241
803.226
794.746
785.829
776.503
766.797
756.74
746.359
735.685
724.743
713.563
702.172
690.596
678.862
666.995
655.02
642.962
630.843
618.685
606.511
594.34
582.191
570.084
558.036
546.063
534.179
522.401
510.74
499.209
487.82
476.582
465.504
454.596
443.864
433.314
422.953
412.786
402.815
393.045
383.478
374.115
364.958
356.008
347.263
338.725
330.39
322.259
314.329
306.597
299.06
291.716
284.562
277.592
270.804
264.194
257.756
251.487
245.382
239.435
233.644
228.001
222.503
217.145
211.921
206.827
201.857
197.007
192.273
187.648
183.129
178.711
174.39
170.16
166.018
161.96
157.981
154.078
150.247
146.483
142.786
139.153
135.581
132.068
128.608
125.201
121.843
118.531
115.265
112.041
108.858
105.715
102.609
99.541
96.5088
93.5125
90.5524
87.6284
84.7381
81.8802
79.0538
76.2581
73.4928
70.7576
68.0523
65.3766
62.7306
60.1143
57.5275
54.9702
52.4424
49.944
47.4748
45.035
42.6242
40.2422
37.8892
35.5646
33.2691
31.0027
28.7651
26.5564
24.3777
22.2314
20.1197
18.0451
16.0168
14.0577
12.2258
10.6943
10.2112
17.467
150.283
92.1598
94.43
105.708
119.947
135.626
152.177
169.306
186.858
204.752
222.925
241.342
259.966
278.775
297.747
316.862
336.097
355.427
374.827
394.27
413.728
433.171
452.568
471.888
491.097
510.163
529.051
547.727
566.155
584.301
602.129
619.605
636.694
653.363
669.578
685.308
700.519
715.184
729.272
742.756
755.611
767.813
779.338
790.167
800.282
809.665
818.302
826.182
833.294
839.63
845.186
849.958
853.945
857.149
859.573
861.224
862.108
862.238
861.626
860.288
858.242
855.51
852.117
848.074
843.396
838.102
832.214
825.755
818.752
811.229
803.214
794.734
785.817
776.491
766.785
756.728
746.348
735.674
724.732
713.553
702.161
690.586
678.852
666.985
655.011
642.953
630.834
618.676
606.502
594.331
582.183
570.076
558.028
546.055
534.172
522.394
510.733
499.202
487.813
476.575
465.498
454.59
443.858
433.309
422.948
412.78
402.81
393.04
383.473
374.11
364.954
356.003
347.259
338.72
330.386
322.255
314.325
306.593
299.056
291.713
284.558
277.589
270.801
264.191
257.753
251.484
245.379
239.433
233.641
227.999
222.501
217.142
211.919
206.824
201.855
197.005
192.271
187.646
183.127
178.709
174.388
170.158
166.017
161.959
157.98
154.077
150.245
146.482
142.784
139.152
135.58
132.066
128.607
125.2
121.842
118.53
115.264
112.04
108.857
105.714
102.608
99.5402
96.5081
93.5118
90.5517
87.6278
84.7375
81.8797
79.0532
76.2576
73.4923
70.7571
68.0518
65.3762
62.7302
60.1138
57.5271
54.9698
52.4421
49.9437
47.4745
45.0347
42.6239
40.2419
37.8889
35.5644
33.2689
31.0025
28.7649
26.5562
24.3775
22.2312
20.1196
18.045
16.0167
14.0576
12.2257
10.6943
10.2113
17.467
216.726
118.787
109.092
113.406
122.4
133.629
146.17
159.579
173.615
188.132
203.034
218.256
233.747
249.469
265.39
281.482
297.718
314.07
330.514
347.022
363.567
380.122
396.659
413.147
429.559
445.864
462.031
478.029
493.829
509.397
524.705
539.719
554.411
568.749
582.705
596.249
609.354
621.993
634.139
645.768
656.857
667.385
677.33
686.674
695.402
703.496
710.945
717.737
723.862
729.314
734.087
738.177
741.585
744.309
746.354
747.723
748.424
748.466
747.86
746.618
744.757
742.292
739.243
735.623
731.448
726.734
721.502
715.771
709.564
702.904
695.814
688.319
680.443
672.211
663.649
654.781
645.633
636.23
626.596
616.757
606.736
596.557
586.243
575.817
565.3
554.715
544.08
533.417
522.743
512.076
501.435
490.834
480.289
469.814
459.424
449.129
438.942
428.874
418.933
409.13
399.471
389.964
380.616
371.432
362.417
353.574
344.908
336.42
328.113
319.989
312.047
304.289
296.714
289.321
282.11
275.078
268.225
261.547
255.042
248.707
242.539
236.535
230.692
225.004
219.47
214.083
208.841
203.739
198.773
193.939
189.232
184.647
180.18
175.828
171.585
167.447
163.411
159.47
155.623
151.864
148.19
144.596
141.079
137.636
134.261
130.953
127.708
124.523
121.396
118.326
115.308
112.34
109.42
106.545
103.713
100.921
98.1681
95.4524
92.7723
90.1263
87.5133
84.9323
82.3825
79.8634
77.3746
74.9158
72.4859
70.0837
67.7087
65.3602
63.0381
60.7419
58.4715
56.227
54.0083
51.8154
49.6486
47.5078
45.3933
43.3052
41.2437
39.2093
37.202
35.2224
33.2709
31.3482
29.4551
27.5926
25.7625
23.9673
22.21
20.4957
18.8321
17.2314
15.7161
14.332
13.1824
12.5553
13.655
26.596
216.729
118.784
109.088
113.403
122.396
133.625
146.165
159.575
173.611
188.127
203.03
218.251
233.742
249.464
265.385
281.477
297.712
314.064
330.508
347.016
363.561
380.116
396.652
413.14
429.552
445.856
462.023
478.022
493.821
509.389
524.696
539.711
554.402
568.741
582.696
596.24
609.345
621.983
634.129
645.758
656.848
667.375
677.32
686.665
695.392
703.486
710.935
717.727
723.852
729.304
734.077
738.168
741.575
744.299
746.344
747.713
748.414
748.456
747.85
746.609
744.747
742.283
739.234
735.614
731.439
726.725
721.493
715.762
709.555
702.895
695.806
688.311
680.435
672.203
663.641
654.774
645.626
636.223
626.589
616.75
606.729
596.55
586.236
575.81
565.294
554.709
544.074
533.411
522.737
512.071
501.429
490.829
480.284
469.81
459.419
449.124
438.938
428.869
418.929
409.125
399.467
389.961
380.613
371.429
362.414
353.571
344.905
336.417
328.11
319.986
312.044
304.286
296.711
289.318
282.107
275.076
268.222
261.544
255.04
248.705
242.537
236.534
230.69
225.003
219.468
214.082
208.84
203.738
198.772
193.938
189.23
184.646
180.179
175.827
171.584
167.446
163.409
159.469
155.622
151.863
148.189
144.595
141.078
137.635
134.261
130.953
127.707
124.522
121.396
118.325
115.307
112.34
109.42
106.544
103.712
100.921
98.1677
95.452
92.7719
90.1259
87.513
84.932
82.3822
79.8631
77.3743
74.9156
72.4856
70.0835
67.7084
65.36
63.0378
60.7417
58.4713
56.2268
54.0081
51.8153
49.6484
47.5076
45.3931
43.305
41.2436
39.2091
37.2019
35.2223
33.2708
31.3481
29.455
27.5925
25.7625
23.9672
22.2099
20.4957
18.8321
17.2314
15.7161
14.3319
13.1824
12.5553
13.6552
26.596
280.799
146.292
126.359
125.231
130.391
138.553
148.46
159.51
171.375
183.852
196.812
210.163
223.838
237.785
251.962
266.334
280.869
295.536
310.307
325.154
340.051
354.969
369.881
384.76
399.578
414.305
428.915
443.377
457.663
471.745
485.594
499.181
512.478
525.457
538.092
550.355
562.221
573.665
584.663
595.193
605.233
614.763
623.764
632.219
640.112
647.43
654.159
660.291
665.814
670.724
675.014
678.681
681.725
684.144
685.943
687.125
687.696
687.663
687.038
685.831
684.054
681.724
678.856
675.463
671.56
667.165
662.294
656.967
651.204
645.026
638.455
631.513
624.222
616.605
608.686
600.487
592.032
583.343
574.444
565.358
556.106
546.71
537.191
527.571
517.869
508.105
498.298
488.465
478.625
468.793
458.985
449.217
439.502
429.853
420.284
410.804
401.425
392.156
383.007
373.986
365.1
356.355
347.758
339.313
331.025
322.897
314.933
307.135
299.505
292.044
284.752
277.631
270.679
263.897
257.283
250.835
244.552
238.432
232.473
226.671
221.023
215.528
210.18
204.978
199.916
194.993
190.202
185.542
181.007
176.594
172.299
168.117
164.045
160.078
156.212
152.444
148.77
145.184
141.685
138.267
134.928
131.664
128.47
125.344
122.283
119.283
116.341
113.455
110.624
107.844
105.113
102.428
99.7871
97.1877
94.6278
92.1057
89.6194
87.1676
84.7486
82.3613
80.0045
77.6773
75.3789
73.1085
70.8659
68.6504
66.4613
64.2979
62.1596
60.0459
57.9566
55.8915
53.8504
51.8335
49.8406
47.872
45.928
44.0086
42.1143
40.2455
38.4026
36.5861
34.7969
33.0355
31.3032
29.6011
27.9308
26.2946
24.6952
23.1365
21.624
20.1661
18.7748
17.47
16.2863
15.2901
14.6277
14.6999
17.1587
35.5261
280.802
146.288
126.355
125.227
130.387
138.548
148.455
159.506
171.37
183.848
196.807
210.158
223.833
237.78
251.957
266.329
280.863
295.53
310.301
325.148
340.045
354.963
369.875
384.754
399.571
414.299
428.908
443.37
457.656
471.738
485.587
499.174
512.47
525.45
538.084
550.347
562.213
573.657
584.655
595.185
605.225
614.755
623.756
632.211
640.104
647.422
654.151
660.283
665.806
670.716
675.006
678.673
681.717
684.137
685.935
687.117
687.688
687.656
687.03
685.823
684.047
681.717
678.848
675.456
671.553
667.158
662.287
656.96
651.198
645.02
638.449
631.506
624.216
616.599
608.68
600.481
592.026
583.338
574.439
565.353
556.1
546.705
537.186
527.566
517.864
508.1
498.293
488.461
478.621
468.789
458.982
449.213
439.498
429.85
420.28
410.8
401.421
392.153
383.004
373.983
365.097
356.352
347.755
339.31
331.022
322.895
314.931
307.133
299.503
292.041
284.75
277.629
270.677
263.895
257.281
250.833
244.551
238.431
232.471
226.669
221.022
215.526
210.179
204.976
199.915
194.991
190.201
185.541
181.006
176.593
172.298
168.116
164.044
160.077
156.212
152.444
148.769
145.184
141.684
138.267
134.928
131.663
128.469
125.344
122.282
119.282
116.34
113.455
110.624
107.844
105.113
102.428
99.7868
97.1874
94.6275
92.1054
89.6192
87.1673
84.7484
82.3611
80.0043
77.6771
75.3787
73.1084
70.8657
68.6502
66.4612
64.2978
62.1595
60.0458
57.9565
55.8914
53.8503
51.8334
49.8405
47.872
45.9279
44.0085
42.1143
40.2454
38.4025
36.5861
34.7968
33.0355
31.3031
29.601
27.9308
26.2946
24.6951
23.1364
21.6239
20.166
18.7748
17.47
16.2863
15.2901
14.6277
14.7
17.1589
35.5262
343.695
174.391
144.989
139.103
141.107
146.869
154.8
164.142
174.477
185.554
197.207
209.321
221.81
234.612
247.674
260.952
274.41
288.014
301.732
315.535
329.393
343.28
357.168
371.028
384.835
398.559
412.174
425.653
438.967
452.091
464.996
477.655
490.043
502.133
513.9
525.318
536.364
547.014
557.247
567.04
576.375
585.231
593.592
601.44
608.763
615.546
621.778
627.449
632.551
637.078
641.023
644.385
647.163
649.355
650.965
651.997
652.455
652.348
651.683
650.472
648.727
646.46
643.685
640.418
636.67
632.46
627.803
622.718
617.223
611.338
605.084
598.48
591.549
584.312
576.79
569.005
560.979
552.734
544.291
535.671
526.895
517.984
508.957
499.835
490.636
481.378
472.08
462.759
453.43
444.11
434.812
425.552
416.343
407.196
398.124
389.138
380.247
371.46
362.787
354.235
345.811
337.521
329.371
321.365
313.508
305.803
298.253
290.861
283.627
276.554
269.643
262.892
256.303
249.874
243.605
237.494
231.54
225.74
220.093
214.595
209.245
204.038
198.973
194.045
189.251
184.589
180.053
175.641
171.348
167.171
163.106
159.149
155.297
151.545
147.889
144.326
140.852
137.464
134.157
130.929
127.774
124.692
121.677
118.727
115.838
113.008
110.234
107.515
104.847
102.228
99.6551
97.1269
94.6407
92.1944
89.7861
87.414
85.0764
82.772
80.4992
78.257
76.0441
73.8597
71.703
69.5734
67.4701
65.3929
63.3409
61.3138
59.3109
57.3318
55.3765
53.4446
51.5361
49.6511
47.7897
45.9521
44.1386
42.3495
40.5854
38.8467
37.1341
35.4485
33.7909
32.1625
30.5647
28.9994
27.4689
25.9763
24.5257
23.1224
21.7741
20.4917
19.2916
18.2007
17.2646
16.5694
16.3029
16.9772
20.6835
44.3234
343.698
174.387
144.985
139.099
141.102
146.864
154.796
164.137
174.473
185.55
197.203
209.316
221.806
234.607
247.669
260.947
274.405
288.009
301.727
315.529
329.388
343.275
357.162
371.023
384.829
398.553
412.168
425.647
438.961
452.084
464.989
477.649
490.036
502.126
513.893
525.311
536.357
547.008
557.24
567.034
576.368
585.224
593.585
601.434
608.756
615.539
621.771
627.443
632.545
637.071
641.017
644.379
647.156
649.348
650.959
651.99
652.449
652.341
651.677
650.466
648.721
646.454
643.679
640.412
636.665
632.454
627.798
622.712
617.218
611.333
605.079
598.475
591.544
584.307
576.785
569.001
560.975
552.73
544.286
535.666
526.891
517.98
508.953
499.831
490.632
481.375
472.077
462.756
453.427
444.107
434.809
425.549
416.34
407.194
398.122
389.135
380.244
371.458
362.785
354.233
345.809
337.519
329.369
321.363
313.506
305.801
298.251
290.859
283.626
276.553
269.641
262.891
256.301
249.873
243.604
237.493
231.539
225.739
220.092
214.594
209.244
204.037
198.972
194.044
189.25
184.588
180.052
175.64
171.347
167.17
163.105
159.149
155.296
151.544
147.888
144.326
140.852
137.463
134.157
130.928
127.774
124.691
121.676
118.726
115.838
113.008
110.234
107.514
104.846
102.227
99.6549
97.1266
94.6404
92.1941
89.7858
87.4138
85.0762
82.7718
80.499
78.2568
76.044
73.8596
71.7029
69.5732
67.47
65.3927
63.3408
61.3137
59.3108
57.3318
55.3764
53.4445
51.536
49.651
47.7897
45.9521
44.1385
42.3495
40.5853
38.8466
37.1341
35.4485
33.7909
32.1624
30.5646
28.9993
27.4689
25.9763
24.5257
23.1224
21.774
20.4916
19.2916
18.2007
17.2646
16.5694
16.3029
16.9773
20.6838
44.3235
405.703
203.013
164.557
154.282
153.513
157.256
163.588
171.591
180.765
190.805
201.511
212.745
224.407
236.419
248.72
261.259
273.994
286.886
299.9
313.005
326.17
339.367
352.566
365.741
378.864
391.908
404.845
417.65
430.296
442.756
455.004
467.015
478.764
490.226
501.376
512.191
522.648
532.726
542.403
551.659
560.475
568.834
576.719
584.116
591.009
597.388
603.24
608.558
613.333
617.559
621.231
624.348
626.907
628.91
630.357
631.254
631.604
631.415
630.696
629.455
627.705
625.456
622.724
619.52
615.859
611.756
607.227
602.29
596.962
591.262
585.21
578.824
572.126
565.135
557.872
550.358
542.614
534.659
526.515
518.201
509.739
501.146
492.443
483.647
474.778
465.852
456.886
447.898
438.902
429.913
420.946
412.015
403.13
394.306
385.553
376.881
368.3
359.819
351.447
343.19
335.055
327.049
319.177
311.443
303.852
296.406
289.11
281.964
274.972
268.133
261.45
254.922
248.548
242.329
236.264
230.351
224.589
218.976
213.51
208.188
203.009
197.968
193.063
188.291
183.649
179.133
174.74
170.466
166.308
162.262
158.324
154.491
150.759
147.125
143.583
140.132
136.767
133.485
130.282
127.155
124.101
121.116
118.197
115.341
112.545
109.806
107.123
104.492
101.912
99.3795
96.8925
94.4489
92.0463
89.683
87.357
85.0667
82.8104
80.5868
78.3946
76.2325
74.0995
71.9947
69.9174
67.8667
65.8422
63.8434
61.8696
59.9205
57.9955
56.0944
54.2168
52.3628
50.5322
48.7252
46.9419
45.1825
43.4475
41.7373
40.0525
38.3938
36.7621
35.1584
33.584
32.0405
30.5298
29.0543
27.6171
26.222
24.8743
23.5807
22.351
21.1988
20.1447
19.2216
18.4852
18.0417
18.1196
19.3419
24.2346
53.0553
405.706
203.009
164.552
154.278
153.509
157.252
163.583
171.587
180.761
190.8
201.506
212.741
224.403
236.415
248.715
261.255
273.989
286.881
299.895
313
326.165
339.361
352.561
365.736
378.858
391.902
404.84
417.644
430.29
442.75
454.998
467.009
478.758
490.22
501.37
512.185
522.642
532.72
542.396
551.652
560.469
568.828
576.713
584.109
591.003
597.381
603.234
608.552
613.327
617.553
621.225
624.342
626.901
628.904
630.351
631.248
631.598
631.41
630.69
629.45
627.699
625.451
622.719
619.515
615.854
611.751
607.222
602.285
596.957
591.258
585.205
578.82
572.121
565.131
557.868
550.354
542.61
534.655
526.511
518.198
509.735
501.142
492.439
483.644
474.774
465.849
456.883
447.895
438.899
429.911
420.944
412.012
403.128
394.304
385.551
376.879
368.298
359.817
351.445
343.188
335.053
327.047
319.175
311.441
303.85
296.405
289.108
281.963
274.97
268.132
261.449
254.92
248.547
242.328
236.263
230.35
224.588
218.975
213.509
208.187
203.008
197.967
193.062
188.29
183.648
179.132
174.739
170.465
166.307
162.261
158.324
154.491
150.759
147.124
143.583
140.132
136.767
133.485
130.282
127.155
124.101
121.116
118.197
115.341
112.545
109.806
107.122
104.492
101.912
99.3792
96.8923
94.4486
92.0461
89.6828
87.3568
85.0665
82.8102
80.5867
78.3944
76.2323
74.0994
71.9946
69.9172
67.8666
65.8421
63.8433
61.8695
59.9204
57.9954
56.0943
54.2167
52.3627
50.5321
48.7251
46.9418
45.1825
43.4475
41.7373
40.0525
38.3938
36.7621
35.1584
33.584
32.0405
30.5298
29.0543
27.617
26.222
24.8742
23.5807
22.351
21.1988
20.1447
19.2215
18.4852
18.0417
18.1196
19.342
24.235
53.0555
467.067
232.126
184.883
170.455
167.155
169.119
174.091
180.994
189.24
198.474
208.463
219.046
230.106
241.554
253.318
265.341
277.574
289.975
302.505
315.13
327.817
340.537
353.259
365.956
378.6
391.163
403.619
415.942
428.105
440.084
451.853
463.387
474.663
485.655
496.342
506.7
516.709
526.347
535.594
544.432
552.843
560.809
568.317
575.35
581.898
587.947
593.488
598.513
603.014
606.986
610.425
613.328
615.694
617.524
618.821
619.586
619.827
619.549
618.76
617.47
615.689
613.429
610.702
607.521
603.9
599.854
595.398
590.549
585.324
579.741
573.819
567.575
561.03
554.203
547.113
539.781
532.227
524.469
516.528
508.423
500.173
491.796
483.312
474.739
466.092
457.391
448.65
439.886
431.113
422.346
413.6
404.886
396.217
387.605
379.06
370.593
362.214
353.93
345.75
337.681
329.73
321.903
314.204
306.639
299.211
291.925
284.782
277.785
270.937
264.237
257.688
251.289
245.04
238.941
232.992
227.19
221.535
216.025
210.657
205.43
200.341
195.388
190.567
185.876
181.312
176.87
172.549
168.344
164.252
160.27
156.394
152.62
148.945
145.365
141.877
138.477
135.162
131.928
128.772
125.691
122.681
119.739
116.862
114.048
111.292
108.594
105.951
103.36
100.818
98.3242
95.8753
93.4695
91.1046
88.7788
86.4903
84.2376
82.019
79.8332
77.679
75.5552
73.4607
71.3947
69.3564
67.3451
65.3602
63.4013
61.4677
59.5591
57.6751
55.8153
53.9796
52.1679
50.3801
48.6165
46.8771
45.1623
43.4725
41.8083
40.1704
38.5597
36.9771
35.4241
33.902
32.4129
30.9591
29.5436
28.1699
26.8429
25.5689
24.356
23.2157
22.1646
21.2271
20.4421
19.8756
19.6525
20.0431
21.7811
27.8264
61.776
467.069
232.122
184.879
170.451
167.15
169.115
174.086
180.989
189.235
198.469
208.458
219.042
230.102
241.549
253.314
265.337
277.57
289.97
302.5
315.125
327.812
340.532
353.254
365.951
378.594
391.157
403.613
415.936
428.1
440.079
451.848
463.382
474.657
485.649
496.336
506.695
516.703
526.341
535.588
544.426
552.837
560.804
568.311
575.345
581.892
587.941
593.483
598.507
603.009
606.981
610.419
613.322
615.689
617.519
618.815
619.581
619.822
619.544
618.755
617.465
615.684
613.424
610.697
607.517
603.896
599.85
595.394
590.545
585.32
579.737
573.815
567.571
561.026
554.199
547.11
539.778
532.223
524.466
516.525
508.419
500.169
491.793
483.309
474.736
466.09
457.388
448.647
439.883
431.11
422.344
413.597
404.883
396.215
387.602
379.058
370.591
362.212
353.928
345.748
337.679
329.728
321.901
314.202
306.637
299.21
291.923
284.781
277.784
270.935
264.236
257.687
251.288
245.039
238.94
232.991
227.189
221.534
216.024
210.656
205.429
200.341
195.387
190.567
185.876
181.311
176.87
172.548
168.343
164.252
160.269
156.393
152.619
148.944
145.364
141.876
138.476
135.161
131.928
128.772
125.69
122.68
119.738
116.862
114.047
111.292
108.594
105.951
103.359
100.818
98.3239
95.8751
93.4692
91.1043
88.7786
86.4901
84.2374
82.0188
79.833
77.6788
75.555
73.4605
71.3946
69.3563
67.345
65.3601
63.4011
61.4676
59.559
57.675
55.8153
53.9796
52.1678
50.3801
48.6164
46.877
45.1622
43.4725
41.8083
40.1704
38.5596
36.9771
35.424
33.902
32.4129
30.9591
29.5435
28.1699
26.8429
25.5688
24.3559
23.2157
22.1646
21.2271
20.4421
19.8756
19.6525
20.0431
21.7812
27.8267
61.7762
528.201
261.829
205.922
187.488
181.812
182.162
185.937
191.903
199.383
207.972
217.403
227.492
238.107
249.145
260.526
272.186
284.069
296.129
308.324
320.617
332.972
345.359
357.746
370.104
382.405
394.622
406.728
418.697
430.503
442.122
453.528
464.698
475.608
486.236
496.559
506.556
516.206
525.49
534.389
542.885
550.961
558.601
565.792
572.519
578.771
584.537
589.808
594.576
598.835
602.579
605.806
608.512
610.698
612.364
613.512
614.147
614.273
613.897
613.026
611.67
609.838
607.543
604.795
601.608
597.995
593.97
589.549
584.746
579.58
574.067
568.225
562.072
555.627
548.908
541.934
534.725
527.299
519.676
511.874
503.912
495.808
487.581
479.248
470.827
462.334
453.786
445.198
436.587
427.965
419.348
410.749
402.181
393.654
385.182
376.773
368.439
360.189
352.03
343.972
336.02
328.182
320.463
312.869
305.404
298.072
290.877
283.821
276.907
270.137
263.512
257.034
250.701
244.515
238.476
232.582
226.832
221.226
215.761
210.436
205.249
200.196
195.277
190.488
185.825
181.287
176.87
172.571
168.387
164.314
160.348
156.487
152.727
149.065
145.496
142.018
138.628
135.321
132.094
128.945
125.869
122.865
119.928
117.056
114.246
111.494
108.801
106.161
103.574
101.037
98.5474
96.103
93.7017
91.3418
89.0213
86.7386
84.492
82.2802
80.1017
77.9554
75.8402
73.7549
71.6988
69.6711
67.6711
65.6981
63.7518
61.8316
59.9371
58.068
56.2238
54.4046
52.6101
50.8405
49.0958
47.3763
45.6823
44.0144
42.3732
40.7594
39.1742
37.6186
36.0943
34.603
33.1469
31.7289
30.3523
29.0215
27.742
26.5211
25.3684
24.2973
23.3269
22.4854
21.8179
21.4006
21.3772
22.0599
24.2943
31.4749
70.5335
528.204
261.824
205.917
187.484
181.808
182.158
185.933
191.898
199.379
207.967
217.398
227.488
238.102
249.14
260.521
272.181
284.064
296.124
308.319
320.612
332.967
345.354
357.741
370.099
382.4
394.617
406.723
418.692
430.498
442.116
453.522
464.692
475.603
486.23
496.553
506.551
516.201
525.485
534.384
542.88
550.955
558.596
565.786
572.514
578.766
584.532
589.803
594.571
598.83
602.574
605.801
608.507
610.693
612.359
613.508
614.142
614.269
613.892
613.022
611.666
609.834
607.538
604.791
601.604
597.991
593.966
589.545
584.743
579.576
574.064
568.222
562.069
555.624
548.905
541.931
534.722
527.296
519.673
511.871
503.909
495.806
487.578
479.246
470.824
462.332
453.784
445.196
436.584
427.963
419.346
410.747
402.179
393.652
385.18
376.772
368.438
360.187
352.029
343.97
336.018
328.18
320.461
312.867
305.402
298.07
290.875
283.82
276.906
270.136
263.511
257.032
250.7
244.514
238.475
232.581
226.831
221.225
215.76
210.435
205.248
200.196
195.276
190.487
185.825
181.287
176.87
172.571
168.386
164.313
160.348
156.487
152.727
149.064
145.496
142.018
138.627
135.32
132.094
128.944
125.869
122.864
119.927
117.055
114.245
111.494
108.8
106.161
103.574
101.037
98.5472
96.1027
93.7015
91.3415
89.0211
86.7384
84.4918
82.28
80.1016
77.9553
75.84
73.7548
71.6987
69.671
67.6709
65.698
63.7517
61.8315
59.937
58.0679
56.2237
54.4045
52.61
50.8404
49.0957
47.3762
45.6822
44.0143
42.3731
40.7594
39.1741
37.6186
36.0943
34.6029
33.1469
31.7288
30.3522
29.0214
27.742
26.521
25.3684
24.2973
23.3268
22.4854
21.8179
21.4005
21.3772
22.06
24.2944
31.4753
70.5338
589.431
292.179
227.684
205.333
197.386
196.233
198.929
204.075
210.909
218.969
227.959
237.67
247.953
258.695
269.806
281.213
292.857
304.686
316.654
328.721
340.85
353.007
365.161
377.28
389.337
401.303
413.151
424.856
436.392
447.735
458.86
469.744
480.364
490.699
500.727
510.428
519.782
528.77
537.375
545.579
553.367
560.725
567.638
574.095
580.084
585.596
590.622
595.156
599.191
602.722
605.748
608.267
610.277
611.781
612.781
613.281
613.286
612.802
611.838
610.401
608.503
606.153
603.364
600.147
596.517
592.486
588.07
583.285
578.145
572.668
566.871
560.772
554.388
547.738
540.84
533.711
526.371
518.838
511.131
503.266
495.262
487.137
478.907
470.59
462.202
453.758
445.274
436.765
428.245
419.727
411.225
402.751
394.316
385.932
377.609
369.358
361.186
353.102
345.114
337.23
329.455
321.795
314.256
306.842
299.558
292.406
285.39
278.512
271.774
265.178
258.724
252.413
246.246
240.221
234.339
228.599