/*--------------------------------*- C++ -*----------------------------------*\
  =========                 |
  \\      /  F ield         | OpenFOAM: The Open Source CFD Toolbox
   \\    /   O peration     | Website:  https://openfoam.org
    \\  /    A nd           | Version:  8
     \\/     M anipulation  |
\*---------------------------------------------------------------------------*/
FoamFile
{
    version     2.0;
    format      ascii;
    class       volScalarField;
    location    "3500";
    object      k;
}
// * * * * * * * * * * * * * * * * * * * * * * * * * * * * * * * * * * * * * //

dimensions      [0 2 -2 0 0 0 0];

internalField   nonuniform List<scalar> 
46000
(
0.0153854
0.0621473
0.114741
0.163547
0.209558
0.254005
0.29744
0.33998
0.381869
0.423273
0.464345
0.505179
0.545561
0.585654
0.625493
0.665082
0.704412
0.743467
0.782222
0.820651
0.858719
0.896392
0.933631
0.970396
1.00664
1.04233
1.07742
1.11185
1.1456
1.1786
1.21082
1.24222
1.27274
1.30235
1.33102
1.35869
1.38533
1.41091
1.4354
1.45876
1.48096
1.50198
1.52179
1.54037
1.55771
1.57379
1.58859
1.6021
1.61432
1.62525
1.63487
1.6432
1.65023
1.65597
1.66044
1.66364
1.66559
1.66631
1.66582
1.66413
1.6613
1.65734
1.65233
1.64625
1.63912
1.63097
1.62184
1.61175
1.60075
1.58887
1.57616
1.56264
1.54838
1.5334
1.51774
1.50145
1.48458
1.46716
1.44923
1.43083
1.41202
1.39282
1.37328
1.35343
1.33332
1.31298
1.29245
1.27176
1.25095
1.23005
1.2091
1.18811
1.16714
1.14619
1.1253
1.10449
1.08379
1.06323
1.04281
1.02256
1.0025
0.982647
0.963015
0.943619
0.92447
0.905582
0.886963
0.868624
0.850572
0.832813
0.815354
0.798198
0.78135
0.764811
0.748584
0.732669
0.717065
0.701771
0.686786
0.672108
0.657732
0.643656
0.629875
0.616384
0.603178
0.59025
0.577595
0.565207
0.553078
0.541202
0.529571
0.518178
0.507014
0.496074
0.485348
0.474829
0.464508
0.45438
0.444434
0.434664
0.425063
0.415622
0.406335
0.397194
0.388193
0.379323
0.37058
0.361957
0.353446
0.345039
0.336748
0.32856
0.320467
0.312464
0.304546
0.29671
0.288951
0.281267
0.273654
0.266109
0.25863
0.251214
0.243859
0.236564
0.229336
0.222182
0.215087
0.208048
0.201063
0.194131
0.187252
0.180425
0.173651
0.166928
0.160255
0.153634
0.147062
0.14054
0.134065
0.127637
0.121247
0.114905
0.108607
0.102344
0.0961177
0.0899214
0.0837498
0.0775958
0.0714504
0.065302
0.0591366
0.0529595
0.0467463
0.0404562
0.0340492
0.0274735
0.0206643
0.0135725
0.00642747
0.00130178
0.0153863
0.0621495
0.114743
0.163549
0.209561
0.254007
0.297442
0.339982
0.381871
0.423275
0.464347
0.50518
0.545562
0.585655
0.625494
0.665083
0.704413
0.743468
0.782223
0.820651
0.858719
0.896392
0.933631
0.970396
1.00664
1.04233
1.07742
1.11185
1.1456
1.1786
1.21082
1.24221
1.27274
1.30235
1.33102
1.35869
1.38533
1.41091
1.4354
1.45875
1.48096
1.50197
1.52179
1.54037
1.55771
1.57378
1.58858
1.6021
1.61432
1.62524
1.63487
1.64319
1.65023
1.65597
1.66044
1.66364
1.66559
1.66631
1.66581
1.66413
1.66129
1.65734
1.65233
1.64625
1.63912
1.63097
1.62183
1.61175
1.60074
1.58887
1.57615
1.56264
1.54837
1.53339
1.51774
1.50145
1.48458
1.46715
1.44922
1.43083
1.41202
1.39282
1.37327
1.35343
1.33332
1.31298
1.29244
1.27176
1.25095
1.23005
1.20909
1.18811
1.16713
1.14619
1.1253
1.10449
1.08379
1.06322
1.04281
1.02256
1.0025
0.982645
0.963013
0.943616
0.924468
0.905579
0.886961
0.868622
0.850569
0.832811
0.815352
0.798196
0.781348
0.764809
0.748582
0.732667
0.717063
0.701769
0.686785
0.672106
0.657731
0.643655
0.629873
0.616382
0.603176
0.590248
0.577594
0.565206
0.553077
0.541201
0.52957
0.518176
0.507013
0.496072
0.485346
0.474827
0.464507
0.454378
0.444433
0.434663
0.425062
0.415621
0.406334
0.397193
0.388192
0.379322
0.370579
0.361956
0.353445
0.345038
0.336747
0.328559
0.320466
0.312463
0.304546
0.296709
0.288951
0.281266
0.273653
0.266108
0.258629
0.251213
0.243858
0.236563
0.229335
0.222182
0.215087
0.208047
0.201062
0.19413
0.187252
0.180425
0.17365
0.166927
0.160255
0.153633
0.147062
0.140539
0.134065
0.127637
0.121246
0.114905
0.108607
0.102344
0.0961176
0.0899213
0.0837497
0.0775957
0.0714504
0.0653019
0.0591366
0.0529596
0.0467463
0.0404563
0.0340493
0.0274736
0.0206644
0.0135727
0.00642754
0.00130178
0.0617845
0.19037
0.282092
0.359121
0.428441
0.492827
0.553606
0.61176
0.667936
0.722523
0.775749
0.827861
0.878989
0.929253
0.978736
1.02749
1.07556
1.12295
1.16968
1.21574
1.26112
1.3058
1.34976
1.39298
1.43542
1.47706
1.51785
1.55776
1.59676
1.6348
1.67184
1.70786
1.7428
1.77664
1.80934
1.84085
1.87116
1.90022
1.928
1.95448
1.97962
2.00342
2.02583
2.04685
2.06646
2.08464
2.10138
2.11667
2.13051
2.14289
2.15382
2.16329
2.17131
2.17789
2.18305
2.18678
2.18912
2.19008
2.18968
2.18795
2.18492
2.18061
2.17508
2.16834
2.16041
2.15134
2.14114
2.12987
2.11756
2.10425
2.08998
2.07481
2.05876
2.04188
2.02422
2.00583
1.98674
1.96701
1.94668
1.92578
1.90437
1.8825
1.86019
1.83751
1.81448
1.79115
1.76755
1.74374
1.71974
1.69559
1.67134
1.647
1.62262
1.59822
1.57385
1.54951
1.52526
1.5011
1.47706
1.45317
1.42945
1.40592
1.3826
1.3595
1.33664
1.31403
1.29169
1.26964
1.24787
1.2264
1.20524
1.18439
1.16386
1.14366
1.12378
1.10423
1.08501
1.06612
1.04756
1.02933
1.01143
0.993848
0.976586
0.959639
0.943001
0.926668
0.910632
0.894887
0.879427
0.864242
0.849327
0.834672
0.820269
0.80611
0.792185
0.778485
0.765002
0.751727
0.738649
0.72576
0.713051
0.700513
0.688136
0.675911
0.66383
0.651883
0.640063
0.62836
0.616766
0.605284
0.593904
0.582617
0.571414
0.560288
0.549233
0.538243
0.52731
0.516432
0.505601
0.494813
0.484064
0.473349
0.462664
0.452006
0.441369
0.430759
0.420169
0.409595
0.399032
0.388478
0.37793
0.367384
0.356838
0.346289
0.335733
0.325166
0.314585
0.303983
0.293357
0.282699
0.272
0.261254
0.250448
0.239565
0.2286
0.217533
0.206342
0.194999
0.183472
0.171717
0.15968
0.147282
0.134457
0.121076
0.106966
0.0918667
0.0753673
0.05673
0.0341908
0.00633855
0.0617864
0.190372
0.282094
0.359122
0.428441
0.492827
0.553606
0.61176
0.667936
0.722523
0.775748
0.82786
0.878988
0.929252
0.978735
1.02749
1.07556
1.12295
1.16968
1.21574
1.26112
1.3058
1.34976
1.39298
1.43542
1.47705
1.51784
1.55776
1.59675
1.63479
1.67184
1.70785
1.7428
1.77664
1.80933
1.84085
1.87115
1.90021
1.92799
1.95447
1.97962
2.00341
2.02583
2.04685
2.06645
2.08463
2.10137
2.11666
2.1305
2.14288
2.15381
2.16328
2.17131
2.17789
2.18304
2.18678
2.18912
2.19008
2.18968
2.18795
2.18491
2.18061
2.17508
2.16833
2.16041
2.15133
2.14114
2.12986
2.11755
2.10424
2.08998
2.0748
2.05875
2.04188
2.02422
2.00582
1.98674
1.967
1.94667
1.92578
1.90437
1.88249
1.86019
1.8375
1.81447
1.79114
1.76755
1.74373
1.71974
1.69559
1.67133
1.64699
1.62261
1.59822
1.57384
1.54951
1.52525
1.50109
1.47706
1.45317
1.42945
1.40592
1.38259
1.35949
1.33663
1.31403
1.29169
1.26963
1.24786
1.2264
1.20523
1.18439
1.16386
1.14365
1.12378
1.10423
1.08501
1.06612
1.04756
1.02933
1.01143
0.993844
0.976582
0.959635
0.942997
0.926664
0.910628
0.894884
0.879423
0.864239
0.849324
0.834669
0.820266
0.806106
0.792181
0.778482
0.764999
0.751724
0.738646
0.725757
0.713048
0.70051
0.688133
0.675908
0.663827
0.651881
0.640061
0.628358
0.616764
0.605282
0.593902
0.582614
0.571412
0.560286
0.549231
0.53824
0.527308
0.516429
0.505599
0.494811
0.484062
0.473347
0.462662
0.452004
0.441368
0.430758
0.420168
0.409593
0.399031
0.388477
0.377928
0.367383
0.356837
0.346288
0.335732
0.325165
0.314583
0.303982
0.293356
0.282698
0.271999
0.261253
0.250447
0.239564
0.228599
0.217532
0.206341
0.194998
0.183471
0.171717
0.159679
0.147282
0.134456
0.121076
0.106966
0.0918664
0.0753671
0.0567299
0.0341907
0.00633855
0.115712
0.284426
0.394866
0.485304
0.5664
0.641618
0.712728
0.780734
0.846293
0.909877
0.971806
1.03232
1.09159
1.14975
1.20688
1.26307
1.31835
1.37275
1.42628
1.47896
1.53077
1.5817
1.63173
1.68084
1.72899
1.77617
1.82232
1.86743
1.91145
1.95433
1.99606
2.03658
2.07585
2.11385
2.15053
2.18585
2.21979
2.25231
2.28338
2.31297
2.34106
2.36761
2.39262
2.41605
2.4379
2.45814
2.47677
2.49379
2.50917
2.52293
2.53507
2.54558
2.55447
2.56176
2.56746
2.57157
2.57413
2.57515
2.57465
2.57267
2.56923
2.56437
2.55812
2.55051
2.54158
2.53136
2.51989
2.50721
2.49337
2.4784
2.46236
2.44529
2.42723
2.40824
2.38837
2.36765
2.34615
2.32391
2.30098
2.27741
2.25325
2.22854
2.20334
2.17768
2.15163
2.12521
2.09848
2.07148
2.04426
2.01684
1.98928
1.96161
1.93387
1.90609
1.87831
1.85056
1.82288
1.79528
1.76781
1.74048
1.71332
1.68635
1.6596
1.63309
1.60683
1.58085
1.55515
1.52975
1.50467
1.47991
1.45548
1.4314
1.40767
1.38429
1.36128
1.33862
1.31634
1.29442
1.27286
1.25167
1.23085
1.21038
1.19027
1.17052
1.15111
1.13204
1.11331
1.0949
1.07682
1.05904
1.04157
1.02439
1.00749
0.990874
0.974518
0.958416
0.942559
0.926935
0.911534
0.896346
0.88136
0.866565
0.851951
0.837507
0.823224
0.80909
0.795096
0.781232
0.767494
0.753876
0.740367
0.726958
0.713639
0.700402
0.687239
0.674142
0.661104
0.64812
0.635182
0.622284
0.609421
0.596588
0.58378
0.570992
0.558219
0.54546
0.532711
0.519967
0.507223
0.494476
0.48172
0.468952
0.456168
0.443364
0.430535
0.417675
0.404779
0.391841
0.378854
0.365809
0.352696
0.339504
0.32622
0.312828
0.299309
0.28564
0.271797
0.257749
0.243456
0.228866
0.213916
0.198523
0.182581
0.165957
0.148448
0.129748
0.109344
0.0861523
0.056877
0.0133607
0.115714
0.284427
0.394867
0.485304
0.5664
0.641616
0.712727
0.780732
0.846291
0.909875
0.971803
1.03232
1.09159
1.14974
1.20688
1.26306
1.31834
1.37274
1.42628
1.47896
1.53077
1.5817
1.63173
1.68083
1.72899
1.77616
1.82232
1.86742
1.91144
1.95433
1.99605
2.03657
2.07585
2.11384
2.15052
2.18585
2.21979
2.2523
2.28337
2.31297
2.34105
2.36761
2.39261
2.41604
2.43789
2.45813
2.47677
2.49378
2.50917
2.52293
2.53506
2.54557
2.55447
2.56175
2.56745
2.57156
2.57412
2.57514
2.57464
2.57266
2.56922
2.56436
2.55811
2.5505
2.54157
2.53135
2.51988
2.50721
2.49336
2.47839
2.46235
2.44528
2.42722
2.40824
2.38836
2.36765
2.34615
2.32391
2.30098
2.2774
2.25324
2.22853
2.20333
2.17768
2.15162
2.1252
2.09848
2.07148
2.04425
2.01684
1.98927
1.9616
1.93386
1.90609
1.87831
1.85056
1.82287
1.79528
1.7678
1.74047
1.71331
1.68635
1.6596
1.63309
1.60683
1.58084
1.55514
1.52975
1.50466
1.4799
1.45548
1.4314
1.40766
1.38429
1.36127
1.33862
1.31633
1.29441
1.27286
1.25167
1.23084
1.21038
1.19027
1.17051
1.1511
1.13204
1.1133
1.0949
1.07681
1.05904
1.04156
1.02438
1.00749
0.99087
0.974514
0.958413
0.942555
0.926932
0.911531
0.896343
0.881357
0.866562
0.851948
0.837504
0.823221
0.809087
0.795093
0.781229
0.767491
0.753873
0.740365
0.726955
0.713636
0.700399
0.687236
0.674139
0.661102
0.648117
0.635179
0.622282
0.609419
0.596586
0.583778
0.570989
0.558217
0.545458
0.532709
0.519965
0.507222
0.494474
0.481718
0.468951
0.456167
0.443362
0.430533
0.417673
0.404778
0.39184
0.378852
0.365807
0.352695
0.339503
0.326219
0.312827
0.299308
0.285639
0.271796
0.257749
0.243455
0.228865
0.213915
0.198522
0.18258
0.165957
0.148448
0.129748
0.109343
0.0861524
0.056877
0.0133607
0.167303
0.365542
0.489725
0.589427
0.678356
0.760836
0.838951
0.913817
0.986123
1.05633
1.12477
1.19167
1.2572
1.32149
1.38464
1.4467
1.50774
1.56776
1.6268
1.68484
1.74189
1.79793
1.85295
1.90691
1.95978
2.01154
2.06215
2.11158
2.15977
2.20671
2.25233
2.29661
2.33951
2.38099
2.421
2.45951
2.49649
2.53191
2.56572
2.59791
2.62844
2.6573
2.68445
2.70988
2.73357
2.75551
2.77569
2.7941
2.81074
2.8256
2.83868
2.85
2.85955
2.86736
2.87342
2.87777
2.88042
2.8814
2.88072
2.87843
2.87454
2.86911
2.86215
2.85372
2.84383
2.83255
2.81989
2.80592
2.79068
2.77421
2.75656
2.73778
2.71793
2.69705
2.6752
2.65243
2.62879
2.60433
2.57912
2.5532
2.52662
2.49944
2.4717
2.44347
2.41478
2.3857
2.35625
2.32651
2.2965
2.26628
2.23588
2.20536
2.17474
2.14408
2.1134
2.08274
2.05215
2.02164
1.99126
1.96102
1.93097
1.90111
1.87149
1.84211
1.81301
1.7842
1.7557
1.72752
1.69968
1.67219
1.64506
1.6183
1.59192
1.56593
1.54033
1.51513
1.49032
1.46592
1.44191
1.41831
1.3951
1.37229
1.34987
1.32783
1.30618
1.2849
1.26399
1.24344
1.22324
1.20338
1.18385
1.16465
1.14576
1.12718
1.10888
1.09087
1.07313
1.05564
1.0384
1.02139
1.00461
0.988039
0.971666
0.955481
0.939473
0.923629
0.907939
0.892395
0.876992
0.861718
0.846562
0.831514
0.816565
0.801705
0.786925
0.772217
0.757573
0.742986
0.728447
0.713951
0.699492
0.685063
0.670658
0.656273
0.641903
0.627543
0.61319
0.598838
0.584483
0.570118
0.555741
0.541344
0.526925
0.512478
0.497997
0.483477
0.468911
0.454292
0.439612
0.424863
0.410032
0.395109
0.380079
0.364924
0.349626
0.334161
0.3185
0.302609
0.286448
0.269966
0.253098
0.235758
0.217836
0.199188
0.1796
0.158731
0.135957
0.109854
0.0758646
0.020409
0.167305
0.365543
0.489724
0.589426
0.678354
0.760834
0.838948
0.913815
0.986121
1.05633
1.12477
1.19166
1.25719
1.32149
1.38463
1.4467
1.50773
1.56776
1.62679
1.68484
1.74189
1.79793
1.85294
1.9069
1.95978
2.01154
2.06215
2.11157
2.15977
2.2067
2.25233
2.29661
2.33951
2.38098
2.42099
2.45951
2.49649
2.5319
2.56572
2.5979
2.62844
2.65729
2.68444
2.70987
2.73357
2.75551
2.77569
2.79409
2.81073
2.82559
2.83867
2.84999
2.85954
2.86735
2.87342
2.87776
2.88041
2.88139
2.88071
2.87842
2.87453
2.8691
2.86214
2.85371
2.84383
2.83254
2.81989
2.80592
2.79067
2.7742
2.75655
2.73777
2.71792
2.69704
2.67519
2.65242
2.62878
2.60433
2.57911
2.55319
2.52661
2.49943
2.4717
2.44346
2.41478
2.38569
2.35625
2.3265
2.29649
2.26627
2.23587
2.20535
2.17473
2.14407
2.11339
2.08274
2.05214
2.02164
1.99125
1.96102
1.93096
1.90111
1.87148
1.84211
1.81301
1.7842
1.75569
1.72751
1.69967
1.67218
1.64505
1.6183
1.59192
1.56593
1.54033
1.51512
1.49032
1.46591
1.44191
1.4183
1.3951
1.37228
1.34986
1.32783
1.30618
1.2849
1.26398
1.24343
1.22323
1.20337
1.18385
1.16465
1.14576
1.12718
1.10888
1.09087
1.07312
1.05564
1.0384
1.02139
1.00461
0.988036
0.971663
0.955478
0.93947
0.923626
0.907936
0.892393
0.876989
0.861715
0.846559
0.831512
0.816563
0.801703
0.786923
0.772215
0.757571
0.742984
0.728445
0.713949
0.69949
0.685061
0.670656
0.656272
0.641901
0.627542
0.613189
0.598837
0.584481
0.570117
0.555739
0.541343
0.526924
0.512476
0.497995
0.483475
0.468909
0.454291
0.439611
0.424861
0.410031
0.395108
0.380078
0.364923
0.349625
0.33416
0.318499
0.302608
0.286447
0.269966
0.253097
0.235758
0.217835
0.199188
0.1796
0.158731
0.135957
0.109854
0.0758648
0.020409
0.21712
0.439897
0.576334
0.68408
0.779362
0.867626
0.951278
1.03157
1.10924
1.18476
1.25846
1.33056
1.40123
1.47059
1.53872
1.60568
1.67153
1.73627
1.79992
1.86248
1.92395
1.9843
2.04352
2.10157
2.15843
2.21406
2.26842
2.32148
2.3732
2.42353
2.47244
2.51987
2.56581
2.61019
2.65298
2.69415
2.73366
2.77148
2.80757
2.8419
2.87444
2.90518
2.93408
2.96113
2.98632
3.00962
3.03103
3.05055
3.06816
3.08387
3.09768
3.10959
3.11962
3.12778
3.13407
3.13853
3.14118
3.14203
3.14112
3.13847
3.13413
3.12812
3.12049
3.11127
3.1005
3.08823
3.0745
3.05936
3.04285
3.02503
3.00595
2.98566
2.96422
2.94167
2.91808
2.8935
2.86799
2.8416
2.81439
2.78642
2.75774
2.72841
2.69848
2.668
2.63704
2.60564
2.57385
2.54173
2.50932
2.47668
2.44384
2.41086
2.37777
2.34462
2.31145
2.2783
2.2452
2.21219
2.17931
2.14658
2.11404
2.08171
2.04962
2.01779
1.98626
1.95502
1.92412
1.89356
1.86335
1.83352
1.80408
1.77503
1.74639
1.71816
1.69035
1.66297
1.63601
1.60948
1.58338
1.55771
1.53246
1.50764
1.48324
1.45926
1.43568
1.41251
1.38974
1.36735
1.34535
1.32371
1.30243
1.2815
1.26091
1.24064
1.22069
1.20105
1.18169
1.16261
1.1438
1.12525
1.10693
1.08884
1.07097
1.0533
1.03583
1.01853
1.0014
0.984428
0.96761
0.950931
0.93438
0.917946
0.901619
0.885388
0.869244
0.853179
0.837183
0.821248
0.805367
0.789532
0.773736
0.757974
0.742238
0.726524
0.710825
0.695137
0.679455
0.663774
0.648088
0.632392
0.61668
0.600947
0.585187
0.569396
0.553568
0.537695
0.521772
0.50579
0.489741
0.473616
0.457404
0.441091
0.424664
0.408106
0.391396
0.374511
0.357423
0.340097
0.322492
0.304556
0.286223
0.267411
0.248004
0.227845
0.206704
0.184187
0.159542
0.130991
0.0928928
0.0273197
0.217122
0.439898
0.576333
0.684078
0.77936
0.867624
0.951275
1.03157
1.10924
1.18476
1.25846
1.33056
1.40123
1.47058
1.53871
1.60568
1.67152
1.73626
1.79992
1.86248
1.92394
1.9843
2.04351
2.10156
2.15842
2.21405
2.26842
2.32148
2.37319
2.42352
2.47243
2.51987
2.5658
2.61018
2.65298
2.69415
2.73366
2.77147
2.80756
2.84189
2.87443
2.90517
2.93407
2.96113
2.98631
3.00961
3.03103
3.05054
3.06815
3.08386
3.09767
3.10958
3.11961
3.12777
3.13407
3.13853
3.14117
3.14202
3.14111
3.13846
3.13412
3.12811
3.12048
3.11126
3.1005
3.08823
3.0745
3.05935
3.04285
3.02503
3.00594
2.98565
2.96421
2.94166
2.91807
2.89349
2.86798
2.84159
2.81439
2.78641
2.75773
2.7284
2.69847
2.668
2.63704
2.60563
2.57385
2.54173
2.50932
2.47667
2.44383
2.41085
2.37776
2.34461
2.31144
2.27829
2.24519
2.21219
2.17931
2.14658
2.11403
2.08171
2.04962
2.01779
1.98625
1.95502
1.92411
1.89355
1.86335
1.83352
1.80408
1.77503
1.74639
1.71816
1.69035
1.66296
1.636
1.60947
1.58337
1.5577
1.53246
1.50764
1.48324
1.45925
1.43568
1.41251
1.38974
1.36735
1.34534
1.3237
1.30243
1.2815
1.2609
1.24064
1.22069
1.20104
1.18169
1.16261
1.1438
1.12524
1.10693
1.08884
1.07097
1.0533
1.03582
1.01853
1.0014
0.984426
0.967608
0.950929
0.934378
0.917944
0.901617
0.885386
0.869242
0.853177
0.837181
0.821246
0.805365
0.78953
0.773735
0.757972
0.742237
0.726522
0.710824
0.695136
0.679454
0.663773
0.648087
0.63239
0.616678
0.600945
0.585186
0.569395
0.553567
0.537694
0.521771
0.505789
0.48974
0.473615
0.457403
0.441091
0.424664
0.408105
0.391396
0.374511
0.357422
0.340097
0.322492
0.304555
0.286222
0.26741
0.248004
0.227845
0.206704
0.184187
0.159542
0.130991
0.0928931
0.0273198
0.266068
0.509934
0.657792
0.773195
0.87444
0.967925
1.05645
1.14145
1.22375
1.30384
1.38207
1.45866
1.53378
1.60752
1.67998
1.75121
1.82124
1.89009
1.95776
2.02426
2.08956
2.15366
2.21652
2.27813
2.33843
2.3974
2.455
2.51119
2.56593
2.61918
2.67088
2.72101
2.76951
2.81636
2.8615
2.9049
2.94653
2.98635
3.02432
3.06042
3.09462
3.1269
3.15723
3.18559
3.21197
3.23636
3.25874
3.27911
3.29747
3.31381
3.32815
3.34049
3.35083
3.3592
3.3656
3.37007
3.37261
3.37327
3.37207
3.36904
3.36422
3.35764
3.34935
3.33938
3.32778
3.31459
3.29987
3.28365
3.266
3.24695
3.22658
3.20493
3.18206
3.15803
3.13289
3.10671
3.07954
3.05144
3.02247
2.99269
2.96216
2.93094
2.89908
2.86664
2.83368
2.80026
2.76642
2.73222
2.69771
2.66294
2.62796
2.59283
2.55758
2.52226
2.48691
2.45157
2.41628
2.38109
2.34602
2.31111
2.27639
2.24189
2.20764
2.17366
2.13998
2.10663
2.07361
2.04096
2.00868
1.97679
1.94531
1.91425
1.88361
1.85341
1.82365
1.79434
1.76548
1.73707
1.70911
1.68161
1.65456
1.62796
1.60181
1.57609
1.55081
1.52596
1.50153
1.47751
1.45389
1.43067
1.40782
1.38535
1.36324
1.34147
1.32004
1.29893
1.27814
1.25764
1.23742
1.21747
1.19778
1.17833
1.15912
1.14012
1.12132
1.10272
1.0843
1.06605
1.04796
1.03002
1.01222
0.994543
0.976981
0.959524
0.94216
0.924881
0.907678
0.890541
0.873464
0.856437
0.839454
0.822507
0.805591
0.788699
0.771824
0.754963
0.738109
0.721256
0.7044
0.687533
0.670651
0.653747
0.636816
0.619852
0.602848
0.585798
0.568696
0.551532
0.534298
0.516984
0.49958
0.482072
0.464447
0.446687
0.428772
0.410679
0.392381
0.373843
0.355023
0.335871
0.316319
0.296281
0.275634
0.25421
0.231746
0.207788
0.181443
0.150603
0.108692
0.034137
0.266071
0.509934
0.657791
0.773193
0.874437
0.967922
1.05645
1.14145
1.22374
1.30384
1.38207
1.45866
1.53377
1.60752
1.67998
1.75121
1.82123
1.89008
1.95776
2.02425
2.08956
2.15366
2.21652
2.27812
2.33843
2.3974
2.455
2.51119
2.56593
2.61917
2.67088
2.721
2.76951
2.81635
2.8615
2.9049
2.94653
2.98634
3.02432
3.06042
3.09462
3.12689
3.15722
3.18558
3.21196
3.23635
3.25873
3.2791
3.29746
3.31381
3.32815
3.34048
3.35082
3.35919
3.3656
3.37006
3.37261
3.37327
3.37206
3.36903
3.36421
3.35763
3.34934
3.33937
3.32777
3.31459
3.29986
3.28364
3.26599
3.24695
3.22657
3.20493
3.18206
3.15802
3.13289
3.1067
3.07953
3.05143
3.02247
2.99269
2.96216
2.93094
2.89908
2.86664
2.83368
2.80025
2.76641
2.73221
2.6977
2.66293
2.62796
2.59282
2.55757
2.52225
2.4869
2.45156
2.41628
2.38108
2.34602
2.3111
2.27638
2.24188
2.20763
2.17366
2.13998
2.10662
2.07361
2.04095
2.00868
1.97679
1.94531
1.91425
1.88361
1.85341
1.82365
1.79434
1.76547
1.73706
1.70911
1.68161
1.65456
1.62796
1.60181
1.57609
1.55081
1.52596
1.50153
1.47751
1.45389
1.43067
1.40782
1.38535
1.36324
1.34147
1.32004
1.29893
1.27813
1.25763
1.23741
1.21747
1.19778
1.17833
1.15911
1.14011
1.12132
1.10272
1.08429
1.06605
1.04796
1.03002
1.01222
0.994541
0.97698
0.959522
0.942159
0.92488
0.907676
0.89054
0.873462
0.856435
0.839452
0.822506
0.80559
0.788697
0.771823
0.754961
0.738108
0.721255
0.704399
0.687532
0.67065
0.653746
0.636815
0.619851
0.602847
0.585798
0.568695
0.551531
0.534297
0.516983
0.499579
0.482072
0.464446
0.446686
0.428771
0.410679
0.39238
0.373842
0.355023
0.335871
0.316319
0.296281
0.275634
0.25421
0.231746
0.207788
0.181444
0.150603
0.108692
0.0341371
0.314365
0.576923
0.735821
0.858735
0.965852
1.06438
1.15751
1.24688
1.33341
1.41767
1.5
1.58064
1.65976
1.73746
1.81381
1.88886
1.96265
2.03518
2.10645
2.17647
2.2452
2.31263
2.37874
2.44349
2.50684
2.56876
2.6292
2.68813
2.7455
2.80128
2.85541
2.90785
2.95857
3.00752
3.05465
3.09995
3.14336
3.18485
3.22439
3.26196
3.29751
3.33104
3.36252
3.39193
3.41926
3.44449
3.46761
3.48863
3.50754
3.52434
3.53903
3.55163
3.56215
3.5706
3.577
3.58137
3.58374
3.58414
3.5826
3.57914
3.57382
3.56667
3.55772
3.54703
3.53463
3.52058
3.50492
3.4877
3.46899
3.44883
3.42727
3.40439
3.38023
3.35486
3.32833
3.30071
3.27205
3.24242
3.21189
3.1805
3.14832
3.11542
3.08185
3.04767
3.01294
2.97772
2.94206
2.90601
2.86965
2.833
2.79613
2.75909
2.72193
2.68468
2.6474
2.61012
2.5729
2.53576
2.49875
2.4619
2.42524
2.38881
2.35263
2.31674
2.28116
2.2459
2.211
2.17647
2.14234
2.10861
2.0753
2.04243
2.01
1.97802
1.9465
1.91545
1.88487
1.85476
1.82513
1.79597
1.76728
1.73907
1.71132
1.68403
1.65719
1.6308
1.60486
1.57934
1.55425
1.52957
1.50529
1.4814
1.45788
1.43474
1.41194
1.38948
1.36735
1.34553
1.32401
1.30277
1.28181
1.2611
1.24064
1.2204
1.20038
1.18057
1.16094
1.14151
1.12224
1.10313
1.08416
1.06533
1.04662
1.02802
1.00953
0.991123
0.9728
0.954549
0.936363
0.918233
0.900151
0.882111
0.864105
0.846127
0.82817
0.810229
0.792298
0.774371
0.756442
0.738504
0.720552
0.702579
0.68458
0.666548
0.648476
0.630357
0.612185
0.59395
0.575645
0.557258
0.538779
0.520196
0.501494
0.482655
0.463662
0.444489
0.425111
0.405493
0.385594
0.36536
0.344723
0.323591
0.301835
0.279263
0.255574
0.230251
0.202263
0.169198
0.123664
0.0409104
0.314367
0.576923
0.735819
0.858733
0.96585
1.06437
1.1575
1.24687
1.33341
1.41766
1.49999
1.58064
1.65975
1.73745
1.8138
1.88886
1.96264
2.03517
2.10645
2.17646
2.2452
2.31263
2.37874
2.44348
2.50683
2.56875
2.6292
2.68813
2.7455
2.80127
2.8554
2.90785
2.95856
3.00751
3.05465
3.09994
3.14335
3.18484
3.22439
3.26195
3.29751
3.33104
3.36252
3.39193
3.41925
3.44448
3.46761
3.48863
3.50753
3.52433
3.53903
3.55163
3.56214
3.57059
3.57699
3.58137
3.58374
3.58414
3.58259
3.57914
3.57381
3.56666
3.55771
3.54702
3.53462
3.52057
3.50491
3.4877
3.46898
3.44882
3.42727
3.40438
3.38023
3.35485
3.32832
3.3007
3.27205
3.24242
3.21188
3.18049
3.14832
3.11542
3.08185
3.04767
3.01294
2.97771
2.94205
2.90601
2.86964
2.833
2.79613
2.75909
2.72192
2.68467
2.64739
2.61012
2.57289
2.53576
2.49875
2.46189
2.42524
2.38881
2.35263
2.31674
2.28115
2.2459
2.211
2.17647
2.14233
2.10861
2.0753
2.04242
2.00999
1.97802
1.9465
1.91545
1.88487
1.85476
1.82513
1.79597
1.76728
1.73906
1.71131
1.68402
1.65719
1.6308
1.60486
1.57934
1.55425
1.52957
1.50529
1.4814
1.45788
1.43473
1.41194
1.38948
1.36735
1.34553
1.32401
1.30277
1.28181
1.2611
1.24063
1.2204
1.20038
1.18056
1.16094
1.14151
1.12224
1.10313
1.08416
1.06533
1.04662
1.02802
1.00953
0.991122
0.972798
0.954548
0.936362
0.918232
0.90015
0.88211
0.864104
0.846126
0.828169
0.810228
0.792297
0.77437
0.756441
0.738503
0.720551
0.702579
0.684579
0.666547
0.648475
0.630357
0.612184
0.59395
0.575644
0.557257
0.538779
0.520195
0.501493
0.482655
0.463661
0.444489
0.425111
0.405493
0.385593
0.365359
0.344723
0.323591
0.301835
0.279263
0.255574
0.230251
0.202263
0.169198
0.123665
0.0409106
0.362195
0.641844
0.811438
0.941847
1.05487
1.15842
1.25608
1.34968
1.44027
1.52846
1.61465
1.69908
1.78192
1.86328
1.94323
2.02182
2.09906
2.17497
2.24955
2.32277
2.39463
2.46509
2.53413
2.60171
2.6678
2.73236
2.79534
2.8567
2.9164
2.9744
3.03065
3.08511
3.13774
3.1885
3.23735
3.28425
3.32916
3.37205
3.4129
3.45167
3.48833
3.52287
3.55526
3.58549
3.61355
3.63942
3.66309
3.68457
3.70385
3.72094
3.73584
3.74857
3.75913
3.76755
3.77384
3.77803
3.78015
3.78023
3.77829
3.77437
3.76852
3.76078
3.75118
3.73977
3.7266
3.71172
3.69517
3.67702
3.65731
3.63611
3.61347
3.58945
3.56411
3.53752
3.50972
3.4808
3.4508
3.41979
3.38784
3.35501
3.32136
3.28695
3.25185
3.21611
3.1798
3.14297
3.10568
3.068
3.02997
2.99165
2.95309
2.91435
2.87547
2.8365
2.79749
2.75848
2.71952
2.68064
2.64188
2.60329
2.56489
2.52672
2.48881
2.45119
2.41388
2.37692
2.34031
2.30409
2.26826
2.23286
2.19789
2.16336
2.1293
2.0957
2.06257
2.02993
1.99777
1.9661
1.93492
1.90423
1.87404
1.84432
1.81509
1.78634
1.75806
1.73025
1.70289
1.67598
1.64951
1.62347
1.59784
1.57262
1.54779
1.52334
1.49926
1.47552
1.45213
1.42907
1.40631
1.38386
1.36168
1.33978
1.31813
1.29672
1.27553
1.25456
1.2338
1.21323
1.19283
1.1726
1.15253
1.1326
1.11279
1.09311
1.07353
1.05405
1.03466
1.01535
0.996111
0.976932
0.957807
0.938728
0.919689
0.900681
0.8817
0.862738
0.84379
0.824848
0.805908
0.786962
0.768004
0.749027
0.730024
0.710991
0.691918
0.6728
0.653628
0.634394
0.615089
0.595702
0.576224
0.55664
0.536937
0.517098
0.497104
0.476932
0.456553
0.435935
0.415033
0.393794
0.372145
0.349987
0.327178
0.303507
0.278632
0.251965
0.222345
0.187086
0.138063
0.0476808
0.362197
0.641843
0.811436
0.941845
1.05486
1.15842
1.25607
1.34968
1.44027
1.52846
1.61464
1.69908
1.78192
1.86328
1.94323
2.02182
2.09906
2.17497
2.24954
2.32277
2.39462
2.46509
2.53413
2.60171
2.6678
2.73235
2.79533
2.85669
2.9164
2.9744
3.03065
3.08511
3.13774
3.1885
3.23734
3.28424
3.32915
3.37205
3.41289
3.45166
3.48833
3.52286
3.55526
3.58549
3.61354
3.63941
3.66309
3.68456
3.70385
3.72093
3.73584
3.74856
3.75913
3.76754
3.77384
3.77803
3.78015
3.78022
3.77828
3.77437
3.76852
3.76077
3.75117
3.73977
3.7266
3.71171
3.69517
3.67702
3.65731
3.63611
3.61347
3.58945
3.56411
3.53751
3.50972
3.48079
3.45079
3.41979
3.38784
3.35501
3.32136
3.28695
3.25184
3.21611
3.17979
3.14296
3.10568
3.06799
3.02996
2.99164
2.95309
2.91434
2.87546
2.83649
2.79748
2.75848
2.71951
2.68063
2.64188
2.60329
2.56489
2.52672
2.48881
2.45119
2.41388
2.37691
2.34031
2.30408
2.26826
2.23285
2.19788
2.16336
2.12929
2.09569
2.06257
2.02992
1.99777
1.9661
1.93492
1.90423
1.87403
1.84432
1.81509
1.78634
1.75806
1.73025
1.70289
1.67598
1.64951
1.62347
1.59784
1.57262
1.54779
1.52334
1.49925
1.47552
1.45213
1.42907
1.40631
1.38386
1.36168
1.33978
1.31813
1.29671
1.27553
1.25456
1.2338
1.21322
1.19283
1.1726
1.15253
1.1326
1.11279
1.09311
1.07353
1.05405
1.03466
1.01535
0.99611
0.976931
0.957806
0.938727
0.919688
0.90068
0.881699
0.862737
0.843789
0.824848
0.805907
0.786961
0.768003
0.749026
0.730024
0.71099
0.691918
0.672799
0.653627
0.634393
0.615088
0.595702
0.576223
0.55664
0.536937
0.517098
0.497104
0.476932
0.456553
0.435934
0.415033
0.393794
0.372145
0.349987
0.327178
0.303507
0.278632
0.251965
0.222346
0.187087
0.138064
0.047681
0.409875
0.70542
0.885385
1.02331
1.14231
1.25096
1.35317
1.45098
1.54556
1.63759
1.7275
1.81556
1.90196
1.9868
2.07016
2.15207
2.23256
2.31163
2.38928
2.46549
2.54024
2.6135
2.68524
2.75542
2.824
2.89095
2.95622
3.01977
3.08155
3.14153
3.19965
3.25588
3.31018
3.3625
3.41281
3.46108
3.50726
3.55132
3.59324
3.63299
3.67054
3.70588
3.73898
3.76984
3.79843
3.82475
3.8488
3.87058
3.89008
3.90731
3.92228
3.93501
3.9455
3.95378
3.95988
3.9638
3.9656
3.96528
3.9629
3.95849
3.95208
3.94373
3.93347
3.92135
3.90742
3.89174
3.87434
3.8553
3.83465
3.81248
3.78882
3.76375
3.73732
3.70959
3.68064
3.65053
3.61931
3.58705
3.55382
3.51968
3.48469
3.44893
3.41244
3.3753
3.33756
3.29929
3.26055
3.22138
3.18186
3.14203
3.10196
3.06168
3.02126
2.98074
2.94018
2.8996
2.85907
2.81862
2.77829
2.73812
2.69814
2.6584
2.61891
2.57972
2.54084
2.50231
2.46414
2.42636
2.389
2.35205
2.31555
2.27951
2.24393
2.20883
2.17422
2.1401
2.10648
2.07336
2.04074
2.00862
1.97701
1.9459
1.91528
1.88515
1.85552
1.82635
1.79766
1.76943
1.74165
1.71431
1.68741
1.66091
1.63483
1.60913
1.58382
1.55887
1.53427
1.51
1.48606
1.46243
1.43909
1.41603
1.39323
1.37068
1.34837
1.32628
1.30441
1.28274
1.26125
1.23994
1.21879
1.19778
1.17692
1.15618
1.13555
1.11503
1.0946
1.07426
1.054
1.0338
1.01367
0.993582
0.973542
0.95354
0.933568
0.913621
0.893691
0.873773
0.853859
0.833943
0.814018
0.794077
0.774113
0.75412
0.734089
0.714014
0.693887
0.673698
0.653439
0.633099
0.612667
0.59213
0.571475
0.550683
0.529736
0.50861
0.487278
0.465704
0.443843
0.421638
0.399011
0.375855
0.352015
0.327255
0.301194
0.273175
0.241917
0.204482
0.152068
0.0544845
0.409877
0.70542
0.885383
1.02331
1.14231
1.25095
1.35316
1.45098
1.54555
1.63758
1.7275
1.81556
1.90196
1.9868
2.07015
2.15207
2.23256
2.31163
2.38928
2.46549
2.54024
2.6135
2.68524
2.75542
2.824
2.89095
2.95622
3.01976
3.08155
3.14152
3.19965
3.25588
3.31017
3.3625
3.41281
3.46107
3.50725
3.55132
3.59324
3.63298
3.67054
3.70588
3.73898
3.76983
3.79842
3.82475
3.8488
3.87057
3.89007
3.9073
3.92228
3.935
3.9455
3.95378
3.95987
3.9638
3.96559
3.96528
3.9629
3.95848
3.95208
3.94372
3.93347
3.92135
3.90742
3.89173
3.87434
3.85529
3.83465
3.81247
3.78881
3.76374
3.73731
3.70959
3.68064
3.65052
3.6193
3.58704
3.55381
3.51968
3.48469
3.44892
3.41244
3.3753
3.33756
3.29929
3.26054
3.22138
3.18186
3.14203
3.10195
3.06168
3.02126
2.98074
2.94017
2.8996
2.85907
2.81862
2.77829
2.73812
2.69814
2.65839
2.61891
2.57971
2.54084
2.5023
2.46414
2.42636
2.38899
2.35205
2.31555
2.27951
2.24393
2.20883
2.17422
2.1401
2.10647
2.07335
2.04074
2.00862
1.97701
1.94589
1.91528
1.88515
1.85551
1.82635
1.79766
1.76943
1.74165
1.71431
1.6874
1.66091
1.63483
1.60913
1.58382
1.55887
1.53427
1.51
1.48606
1.46243
1.43909
1.41603
1.39323
1.37068
1.34837
1.32628
1.30441
1.28274
1.26125
1.23994
1.21878
1.19778
1.17691
1.15617