/*--------------------------------*- C++ -*----------------------------------*\
  =========                 |
  \\      /  F ield         | OpenFOAM: The Open Source CFD Toolbox
   \\    /   O peration     | Website:  https://openfoam.org
    \\  /    A nd           | Version:  8
     \\/     M anipulation  |
\*---------------------------------------------------------------------------*/
FoamFile
{
    version     2.0;
    format      ascii;
    class       volScalarField;
    location    "3500";
    object      nut;
}
// * * * * * * * * * * * * * * * * * * * * * * * * * * * * * * * * * * * * * //

dimensions      [0 2 -1 0 0 0 0];

internalField   nonuniform List<scalar> 
46000
(
1.10068e-06
4.67185e-06
8.62493e-06
1.22932e-05
1.57515e-05
1.90922e-05
2.23567e-05
2.55541e-05
2.87024e-05
3.18144e-05
3.49013e-05
3.79704e-05
4.10055e-05
4.40189e-05
4.70131e-05
4.99886e-05
5.29447e-05
5.588e-05
5.87928e-05
6.16811e-05
6.45422e-05
6.73737e-05
7.01725e-05
7.29357e-05
7.56601e-05
7.83424e-05
8.09793e-05
8.35675e-05
8.61035e-05
8.8584e-05
9.10057e-05
9.33653e-05
9.56595e-05
9.78852e-05
0.000100039
0.000102119
0.000104122
0.000106044
0.000107885
0.00010964
0.000111309
0.000112889
0.000114378
0.000115774
0.000117077
0.000118286
0.000119398
0.000120414
0.000121333
0.000122154
0.000122877
0.000123503
0.000124031
0.000124463
0.000124799
0.00012504
0.000125186
0.000125241
0.000125203
0.000125077
0.000124864
0.000124567
0.00012419
0.000123734
0.000123198
0.000122586
0.000121899
0.000121141
0.000120315
0.000119422
0.000118467
0.000117451
0.000116379
0.000115253
0.000114077
0.000112853
0.000111585
0.000110276
0.000108928
0.000107546
0.000106132
0.000104689
0.00010322
0.000101729
0.000100218
9.8689e-05
9.7146e-05
9.55912e-05
9.40273e-05
9.24567e-05
9.08818e-05
8.9305e-05
8.77283e-05
8.61541e-05
8.45841e-05
8.30204e-05
8.14648e-05
7.99189e-05
7.83843e-05
7.68626e-05
7.5355e-05
7.38628e-05
7.23873e-05
7.09295e-05
6.94903e-05
6.80706e-05
6.66712e-05
6.52928e-05
6.3936e-05
6.26012e-05
6.12889e-05
5.99995e-05
5.87331e-05
5.749e-05
5.62703e-05
5.5074e-05
5.39011e-05
5.27516e-05
5.16252e-05
5.05219e-05
4.94413e-05
4.83833e-05
4.73474e-05
4.63332e-05
4.53405e-05
4.43688e-05
4.34175e-05
4.24863e-05
4.15746e-05
4.06818e-05
3.98075e-05
3.8951e-05
3.81119e-05
3.72894e-05
3.64831e-05
3.56924e-05
3.49166e-05
3.41551e-05
3.34075e-05
3.26731e-05
3.19513e-05
3.12416e-05
3.05435e-05
2.98563e-05
2.91796e-05
2.85129e-05
2.78556e-05
2.72074e-05
2.65676e-05
2.59356e-05
2.53123e-05
2.46968e-05
2.40884e-05
2.34868e-05
2.28917e-05
2.23026e-05
2.17194e-05
2.11417e-05
2.05695e-05
2.00023e-05
1.94401e-05
1.88827e-05
1.83298e-05
1.77815e-05
1.72382e-05
1.67004e-05
1.61671e-05
1.5638e-05
1.5113e-05
1.45919e-05
1.40749e-05
1.35618e-05
1.30526e-05
1.25472e-05
1.20457e-05
1.1548e-05
1.1054e-05
1.05638e-05
1.00772e-05
9.594e-06
9.11365e-06
8.63704e-06
8.16362e-06
7.69291e-06
7.22489e-06
6.75915e-06
6.29526e-06
5.8327e-06
5.37078e-06
4.90862e-06
4.4452e-06
3.9809e-06
3.51387e-06
3.04106e-06
2.55946e-06
2.06518e-06
1.55334e-06
1.02027e-06
4.83174e-07
9.29117e-08
1.10074e-06
4.67202e-06
8.62512e-06
1.22934e-05
1.57517e-05
1.90923e-05
2.23569e-05
2.55542e-05
2.87026e-05
3.18145e-05
3.49015e-05
3.79705e-05
4.10056e-05
4.4019e-05
4.70132e-05
4.99887e-05
5.29447e-05
5.58801e-05
5.87929e-05
6.16811e-05
6.45423e-05
6.73737e-05
7.01726e-05
7.29357e-05
7.56601e-05
7.83424e-05
8.09793e-05
8.35675e-05
8.61035e-05
8.8584e-05
9.10056e-05
9.33652e-05
9.56594e-05
9.78851e-05
0.000100039
0.000102119
0.000104122
0.000106044
0.000107884
0.00010964
0.000111309
0.000112888
0.000114377
0.000115774
0.000117077
0.000118286
0.000119398
0.000120414
0.000121332
0.000122153
0.000122877
0.000123503
0.000124031
0.000124463
0.000124799
0.00012504
0.000125186
0.00012524
0.000125203
0.000125077
0.000124864
0.000124567
0.00012419
0.000123733
0.000123198
0.000122585
0.000121899
0.000121141
0.000120314
0.000119422
0.000118466
0.000117451
0.000116379
0.000115253
0.000114077
0.000112853
0.000111585
0.000110275
0.000108928
0.000107546
0.000106132
0.000104689
0.00010322
0.000101729
0.000100217
9.86888e-05
9.71458e-05
9.5591e-05
9.40271e-05
9.24565e-05
9.08816e-05
8.93048e-05
8.77281e-05
8.61539e-05
8.45839e-05
8.30203e-05
8.14646e-05
7.99187e-05
7.83841e-05
7.68624e-05
7.53548e-05
7.38626e-05
7.23871e-05
7.09293e-05
6.94901e-05
6.80704e-05
6.66711e-05
6.52927e-05
6.39358e-05
6.26011e-05
6.12888e-05
5.99993e-05
5.8733e-05
5.74899e-05
5.62701e-05
5.50739e-05
5.3901e-05
5.27514e-05
5.16251e-05
5.05218e-05
4.94412e-05
4.83831e-05
4.73472e-05
4.63331e-05
4.53404e-05
4.43687e-05
4.34174e-05
4.24862e-05
4.15745e-05
4.06817e-05
3.98074e-05
3.89509e-05
3.81118e-05
3.72893e-05
3.6483e-05
3.56923e-05
3.49165e-05
3.4155e-05
3.34074e-05
3.2673e-05
3.19512e-05
3.12415e-05
3.05434e-05
2.98562e-05
2.91795e-05
2.85128e-05
2.78556e-05
2.72073e-05
2.65675e-05
2.59356e-05
2.53123e-05
2.46967e-05
2.40884e-05
2.34868e-05
2.28916e-05
2.23026e-05
2.17193e-05
2.11417e-05
2.05694e-05
2.00023e-05
1.944e-05
1.88826e-05
1.83298e-05
1.77814e-05
1.72381e-05
1.67004e-05
1.61671e-05
1.5638e-05
1.51129e-05
1.45919e-05
1.40748e-05
1.35617e-05
1.30525e-05
1.25472e-05
1.20457e-05
1.1548e-05
1.1054e-05
1.05638e-05
1.00771e-05
9.59398e-06
9.11364e-06
8.63702e-06
8.16361e-06
7.6929e-06
7.22488e-06
6.75914e-06
6.29525e-06
5.83269e-06
5.37077e-06
4.90862e-06
4.4452e-06
3.98091e-06
3.51388e-06
3.04107e-06
2.55947e-06
2.06519e-06
1.55335e-06
1.02027e-06
4.83179e-07
9.29116e-08
4.2607e-06
4.74674e-05
8.16374e-05
0.000105138
0.00012326
0.000138236
0.000151079
0.00016254
0.000173024
0.00018277
0.000191929
0.000200617
0.000208925
0.000216903
0.000224589
0.000232014
0.000239203
0.000246174
0.000252941
0.000259517
0.00026591
0.000272126
0.000278172
0.000284051
0.000289766
0.000295319
0.000300711
0.000305944
0.000311016
0.000315929
0.000320682
0.000325273
0.000329703
0.00033397
0.000338073
0.000342011
0.000345783
0.000349389
0.000352826
0.000356094
0.000359193
0.000362121
0.000364878
0.000367464
0.000369878
0.00037212
0.00037419
0.000376088
0.000377816
0.000379373
0.00038076
0.000381979
0.00038303
0.000383915
0.000384636
0.000385194
0.000385591
0.00038583
0.000385912
0.000385839
0.000385615
0.00038524
0.000384714
0.000384045
0.000383238
0.000382295
0.00038122
0.000380019
0.000378695
0.000377251
0.000375692
0.000374022
0.000372245
0.000370367
0.00036839
0.000366319
0.000364159
0.000361914
0.000359589
0.000357188
0.000354715
0.000352176
0.000349573
0.000346912
0.000344197
0.000341432
0.000338621
0.000335768
0.000332878
0.000329955
0.000327001
0.000324022
0.000321021
0.000318
0.000314965
0.000311917
0.000308861
0.000305799
0.000302735
0.000299671
0.00029661
0.000293555
0.000290507
0.000287471
0.000284446
0.000281437
0.000278444
0.00027547
0.000272516
0.000269583
0.000266673
0.000263787
0.000260927
0.000258093
0.000255287
0.000252508
0.000249757
0.000247036
0.000244344
0.000241681
0.000239048
0.000236445
0.000233872
0.000231327
0.000228812
0.000226326
0.000223868
0.000221438
0.000219035
0.000216658
0.000214306
0.00021198
0.000209677
0.000207397
0.000205139
0.000202902
0.000200684
0.000198485
0.000196303
0.000194137
0.000191986
0.000189849
0.000187724
0.00018561
0.000183506
0.000181411
0.000179323
0.000177242
0.000175166
0.000173095
0.000171026
0.000168959
0.000166891
0.000164822
0.000162751
0.000160676
0.000158596
0.000156511
0.000154419
0.000152319
0.00015021
0.000148089
0.000145957
0.00014381
0.000141641
0.000139454
0.000137249
0.000135027
0.000132785
0.000130524
0.000128242
0.000125936
0.000123606
0.00012125
0.000118865
0.000116449
0.000113999
0.000111513
0.000108986
0.000106416
0.000103797
0.000101124
9.8388e-05
9.5582e-05
9.26968e-05
8.972e-05
8.66374e-05
8.34306e-05
8.0076e-05
7.65419e-05
7.27816e-05
6.87136e-05
6.42907e-05
5.94083e-05
5.39032e-05
4.75066e-05
3.97301e-05
2.95604e-05
1.47779e-05
4.34105e-07
4.26083e-06
4.74694e-05
8.16403e-05
0.000105141
0.000123263
0.000138239
0.000151082
0.000162544
0.000173028
0.000182773
0.000191932
0.000200621
0.000208929
0.000216907
0.000224593
0.000232018
0.000239207
0.000246178
0.000252945
0.000259521
0.000265914
0.000272131
0.000278176
0.000284056
0.000289771
0.000295324
0.000300716
0.000305949
0.000311021
0.000315934
0.000320687
0.000325278
0.000329708
0.000333975
0.000338078
0.000342016
0.000345788
0.000349394
0.000352831
0.000356099
0.000359198
0.000362126
0.000364883
0.000367469
0.000369883
0.000372125
0.000374195
0.000376094
0.000377822
0.000379379
0.000380766
0.000381985
0.000383036
0.000383921
0.000384642
0.0003852
0.000385597
0.000385835
0.000385917
0.000385845
0.00038562
0.000385245
0.00038472
0.000384051
0.000383243
0.0003823
0.000381226
0.000380024
0.0003787
0.000377256
0.000375697
0.000374027
0.000372251
0.000370372
0.000368395
0.000366324
0.000364164
0.000361919
0.000359594
0.000357193
0.00035472
0.00035218
0.000349578
0.000346916
0.000344201
0.000341436
0.000338625
0.000335773
0.000332883
0.000329959
0.000327006
0.000324026
0.000321025
0.000318004
0.000314968
0.000311921
0.000308865
0.000305803
0.000302739
0.000299674
0.000296613
0.000293558
0.000290511
0.000287474
0.00028445
0.00028144
0.000278447
0.000275473
0.000272519
0.000269586
0.000266676
0.00026379
0.00026093
0.000258096
0.000255289
0.00025251
0.00024976
0.000247038
0.000244346
0.000241684
0.000239051
0.000236448
0.000233874
0.00023133
0.000228815
0.000226328
0.00022387
0.00022144
0.000219037
0.00021666
0.000214308
0.000211982
0.000209679
0.000207399
0.000205141
0.000202903
0.000200685
0.000198486
0.000196304
0.000194138
0.000191987
0.00018985
0.000187725
0.000185612
0.000183508
0.000181412
0.000179325
0.000177243
0.000175167
0.000173096
0.000171028
0.00016896
0.000166892
0.000164823
0.000162752
0.000160677
0.000158597
0.000156512
0.00015442
0.00015232
0.00015021
0.00014809
0.000145958
0.000143811
0.000141642
0.000139454
0.00013725
0.000135027
0.000132786
0.000130525
0.000128242
0.000125937
0.000123607
0.000121251
0.000118865
0.000116449
0.000114
0.000111513
0.000108987
0.000106416
0.000103798
0.000101124
9.83885e-05
9.55826e-05
9.26973e-05
8.97205e-05
8.66379e-05
8.34311e-05
8.00765e-05
7.65423e-05
7.2782e-05
6.87139e-05
6.42909e-05
5.94085e-05
5.39034e-05
4.75067e-05
3.97302e-05
2.95605e-05
1.47778e-05
4.34105e-07
8.01856e-06
7.90003e-05
0.0001486
0.000200515
0.000240706
0.000273174
0.00030042
0.000324016
0.000344954
0.00036389
0.000381269
0.000397401
0.000412511
0.00042676
0.000440267
0.000453124
0.000465403
0.000477162
0.000488445
0.000499291
0.000509729
0.000519784
0.000529477
0.000538825
0.00054784
0.000556536
0.000564922
0.000573006
0.000580796
0.000588296
0.000595513
0.00060245
0.000609111
0.000615499
0.000621617
0.000627467
0.000633052
0.000638372
0.000643431
0.00064823
0.000652771
0.000657054
0.000661082
0.000664856
0.000668379
0.000671651
0.000674674
0.000677451
0.000679984
0.000682274
0.000684324
0.000686137
0.000687714
0.000689059
0.000690174
0.000691062
0.000691726
0.000692169
0.000692394
0.000692403
0.000692199
0.000691784
0.000691158
0.00069033
0.000689306
0.000688093
0.000686696
0.00068512
0.000683371
0.000681453
0.000679372
0.000677133
0.000674742
0.000672202
0.000669521
0.000666703
0.000663754
0.000660679
0.000657484
0.000654174
0.000650755
0.000647231
0.00064361
0.000639896
0.000636094
0.00063221
0.000628249
0.000624217
0.000620119
0.000615959
0.000611743
0.000607476
0.000603163
0.000598808
0.000594417
0.000589993
0.000585541
0.000581065
0.00057657
0.00057206
0.000567537
0.000563007
0.000558473
0.000553937
0.000549404
0.000544876
0.000540356
0.000535848
0.000531353
0.000526873
0.000522412
0.000517971
0.000513552
0.000509157
0.000504787
0.000500443
0.000496126
0.000491838
0.00048758
0.000483351
0.000479153
0.000474985
0.000470847
0.000466741
0.000462664
0.000458618
0.000454601
0.000450614
0.000446654
0.000442721
0.000438815
0.000434933
0.000431076
0.000427241
0.000423427
0.000419632
0.000415855
0.000412095
0.000408349
0.000404616
0.000400893
0.00039718
0.000393474
0.000389773
0.000386076
0.00038238
0.000378684
0.000374986
0.000371286
0.000367579
0.000363863
0.000360135
0.000356394
0.000352638
0.000348865
0.000345073
0.000341261
0.000337424
0.000333563
0.000329674
0.000325755
0.000321803
0.000317815
0.000313785
0.000309708
0.000305579
0.000301403
0.000297177
0.000292899
0.000288567
0.000284176
0.000279722
0.000275201
0.000270608
0.000265937
0.000261181
0.000256332
0.000251383
0.000246322
0.000241139
0.000235819
0.000230347
0.000224703
0.000218863
0.000212798
0.000206472
0.000199844
0.000192858
0.000185446
0.000177515
0.000168941
0.000159551
0.000149118
0.000137365
0.000123827
0.000107779
8.80141e-05
6.24634e-05
2.85126e-05
9.19782e-07
8.01872e-06
7.90031e-05
0.000148605
0.000200521
0.000240713
0.000273181
0.000300427
0.000324023
0.000344961
0.000363897
0.000381276
0.000397407
0.000412518
0.000426767
0.000440274
0.000453131
0.00046541
0.000477168
0.000488452
0.000499298
0.000509736
0.000519791
0.000529484
0.000538832
0.000547847
0.000556543
0.000564929
0.000573014
0.000580803
0.000588304
0.00059552
0.000602457
0.000609118
0.000615506
0.000621624
0.000627474
0.000633059
0.00063838
0.000643439
0.000648238
0.000652778
0.000657061
0.000661089
0.000664864
0.000668386
0.000671658
0.000674682
0.000677459
0.000679991
0.000682282
0.000684332
0.000686144
0.000687721
0.000689066
0.000690181
0.000691069
0.000691733
0.000692176
0.0006924
0.00069241
0.000692206
0.00069179
0.000691165
0.000690336
0.000689313
0.0006881
0.000686703
0.000685127
0.000683377
0.00068146
0.000679379
0.000677139
0.000674748
0.000672208
0.000669527
0.000666709
0.00066376
0.000660685
0.000657489
0.000654179
0.00065076
0.000647237
0.000643615
0.000639901
0.000636099
0.000632215
0.000628254
0.000624222
0.000620123
0.000615964
0.000611748
0.000607481
0.000603168
0.000598813
0.000594421
0.000589997
0.000585545
0.000581069
0.000576574
0.000572063
0.000567541
0.000563011
0.000558476
0.000553941
0.000549407
0.000544879
0.00054036
0.000535851
0.000531356
0.000526876
0.000522415
0.000517974
0.000513555
0.000509159
0.000504789
0.000500445
0.000496129
0.000491841
0.000487582
0.000483353
0.000479155
0.000474987
0.000470849
0.000466743
0.000462666
0.00045862
0.000454603
0.000450615
0.000446655
0.000442723
0.000438816
0.000434935
0.000431077
0.000427242
0.000423428
0.000419633
0.000415856
0.000412096
0.00040835
0.000404616
0.000400894
0.000397181
0.000393475
0.000389774
0.000386076
0.000382381
0.000378684
0.000374987
0.000371286
0.000367579
0.000363863
0.000360135
0.000356394
0.000352638
0.000348865
0.000345074
0.000341261
0.000337425
0.000333563
0.000329674
0.000325755
0.000321803
0.000317815
0.000313785
0.000309708
0.000305579
0.000301403
0.000297177
0.000292899
0.000288567
0.000284176
0.000279722
0.000275201
0.000270608
0.000265937
0.000261181
0.000256332
0.000251383
0.000246322
0.000241139
0.000235819
0.000230347
0.000224703
0.000218863
0.000212798
0.000206472
0.000199844
0.000192858
0.000185446
0.000177515
0.000168941
0.000159551
0.000149118
0.000137365
0.000123827
0.000107779
8.80142e-05
6.24634e-05
2.85124e-05
9.19782e-07
1.16235e-05
0.00010124
0.000197859
0.000275718
0.000338357
0.000389874
0.000433369
0.00047096
0.0005041
0.000533803
0.000560789
0.00058558
0.000608561
0.000630019
0.000650173
0.000669191
0.000687208
0.000704329
0.00072064
0.000736213
0.000751104
0.000765361
0.000779025
0.000792129
0.000804702
0.000816768
0.000828349
0.000839463
0.000850125
0.000860349
0.000870147
0.00087953
0.000888507
0.000897088
0.000905279
0.000913088
0.000920521
0.000927584
0.000934282
0.000940621
0.000946606
0.000952241
0.000957531
0.00096248
0.000967092
0.000971373
0.000975325
0.000978953
0.000982261
0.000985254
0.000987935
0.000990308
0.000992379
0.000994151
0.000995628
0.000996815
0.000997716
0.000998335
0.000998676
0.000998743
0.00099854
0.000998069
0.000997334
0.000996342
0.000995102
0.000993622
0.000991907
0.000989966
0.000987803
0.000985426
0.000982841
0.000980054
0.000977071
0.0009739
0.000970545
0.000967014
0.000963314
0.000959449
0.000955428
0.000951256
0.000946941
0.000942487
0.000937903
0.000933194
0.000928367
0.000923427
0.000918383
0.000913239
0.000908002
0.000902679
0.000897274
0.000891795
0.000886247
0.000880636
0.000874968
0.000869247
0.000863481
0.000857673
0.000851828
0.000845953
0.000840052
0.000834129
0.000828189
0.000822235
0.000816273
0.000810307
0.000804339
0.000798373
0.000792413
0.000786462
0.000780522
0.000774596
0.000768687
0.000762796
0.000756926
0.000751079
0.000745256
0.000739457
0.000733686
0.000727941
0.000722224
0.000716535
0.000710875
0.000705242
0.000699638
0.000694062
0.000688513
0.00068299
0.000677492
0.000672019
0.000666569
0.00066114
0.000655731
0.00065034
0.000644965
0.000639605
0.000634257
0.000628919
0.000623589
0.000618265
0.000612943
0.000607623
0.000602301
0.000596975
0.000591643
0.000586301
0.000580948
0.000575583
0.0005702
0.000564798
0.000559372
0.000553919
0.000548437
0.000542924
0.000537376
0.00053179
0.000526164
0.000520495
0.000514779
0.000509012
0.000503192
0.000497313
0.000491371
0.00048536
0.000479273
0.000473104
0.000466852
0.000460516
0.00045409
0.000447568
0.000440944
0.000434212
0.000427362
0.000420385
0.000413271
0.000406008
0.00039858
0.000390974
0.000383169
0.000375145
0.000366877
0.000358334
0.000349481
0.000340275
0.000330663
0.000320584
0.000309957
0.000298685
0.000286646
0.00027368
0.00025958
0.00024407
0.000226778
0.000207228
0.000184719
0.000158219
0.000126198
8.65061e-05
3.7934e-05
1.40951e-06
1.16237e-05
0.000101243
0.000197865
0.000275726
0.000338366
0.000389884
0.00043338
0.000470971
0.000504111
0.000533813
0.000560799
0.00058559
0.000608571
0.000630029
0.000650183
0.000669201
0.000687217
0.000704338
0.00072065
0.000736222
0.000751113
0.00076537
0.000779034
0.000792138
0.000804711
0.000816778
0.000828359
0.000839472
0.000850134
0.000860358
0.000870156
0.000879539
0.000888517
0.000897097
0.000905288
0.000913097
0.00092053
0.000927593
0.000934291
0.00094063
0.000946615
0.00095225
0.00095754
0.000962489
0.000967101
0.000971381
0.000975333
0.000978961
0.00098227
0.000985262
0.000987943
0.000990317
0.000992387
0.000994159
0.000995636
0.000996823
0.000997724
0.000998343
0.000998684
0.000998751
0.000998547
0.000998077
0.000997341
0.00099635
0.00099511
0.000993629
0.000991914
0.000989972
0.00098781
0.000985433
0.000982847
0.00098006
0.000977078
0.000973906
0.000970551
0.00096702
0.00096332
0.000959455
0.000955434
0.000951262
0.000946946
0.000942493
0.000937908
0.000933199
0.000928372
0.000923432
0.000918388
0.000913244
0.000908007
0.000902683
0.000897279
0.0008918
0.000886251
0.00088064
0.000874972
0.000869251
0.000863484
0.000857676
0.000851832
0.000845957
0.000840055
0.000834132
0.000828192
0.000822238
0.000816276
0.000810309
0.000804341
0.000798376
0.000792415
0.000786464
0.000780524
0.000774598
0.000768689
0.000762798
0.000756928
0.000751081
0.000745257
0.000739459
0.000733687
0.000727942
0.000722225
0.000716536
0.000710876
0.000705244
0.00069964
0.000694063
0.000688514
0.000682991
0.000677493
0.00067202
0.000666569
0.00066114
0.000655731
0.00065034
0.000644965
0.000639605
0.000634257
0.000628919
0.000623589
0.000618265
0.000612943
0.000607623
0.000602301
0.000596975
0.000591642
0.000586301
0.000580948
0.000575582
0.0005702
0.000564798
0.000559371
0.000553919
0.000548437
0.000542923
0.000537375
0.000531789
0.000526163
0.000520494
0.000514778
0.000509011
0.000503191
0.000497312
0.000491371
0.00048536
0.000479273
0.000473103
0.000466852
0.000460515
0.000454089
0.000447567
0.000440944
0.000434211
0.000427361
0.000420384
0.00041327
0.000406007
0.00039858
0.000390973
0.000383168
0.000375145
0.000366876
0.000358333
0.00034948
0.000340274
0.000330663
0.000320583
0.000309956
0.000298685
0.000286645
0.00027368
0.00025958
0.000244069
0.000226778
0.000207228
0.000184719
0.000158219
0.000126198
8.65061e-05
3.79337e-05
1.40951e-06
1.51093e-05
0.000119049
0.000236583
0.000336312
0.000419252
0.000488982
0.000548591
0.000600413
0.000646169
0.000687125
0.000724218
0.000758151
0.000789455
0.000818539
0.000845716
0.000871235
0.000895294
0.000918049
0.000939632
0.000960148
0.000979683
0.000998313
0.0010161
0.00103309
0.00104934
0.00106488
0.00107974
0.00109396
0.00110755
0.00112055
0.00113297
0.00114483
0.00115615
0.00116694
0.00117721
0.00118698
0.00119626
0.00120506
0.00121338
0.00122124
0.00122865
0.00123561
0.00124213
0.00124822
0.00125389
0.00125914
0.00126398
0.00126842
0.00127246
0.00127612
0.00127939
0.00128228
0.0012848
0.00128696
0.00128876
0.00129021
0.00129131
0.00129207
0.0012925
0.00129259
0.00129236
0.00129182
0.00129095
0.00128978
0.00128831
0.00128656
0.00128452
0.00128221
0.00127964
0.00127681
0.00127373
0.0012704
0.00126684
0.00126306
0.00125905
0.00125483
0.00125041
0.00124579
0.00124098
0.00123598
0.00123081
0.00122548
0.00121998
0.00121433
0.00120853
0.00120259
0.00119652
0.00119033
0.00118403
0.00117761
0.00117109
0.00116447
0.00115776
0.00115098
0.00114411
0.00113718
0.00113018
0.00112313
0.00111602
0.00110887
0.00110168
0.00109446
0.00108721
0.00107993
0.00107264
0.00106532
0.001058
0.00105068
0.00104335
0.00103602
0.0010287
0.00102138
0.00101408
0.00100679
0.00099951
0.000992252
0.000985013
0.000977795
0.000970599
0.000963426
0.000956277
0.000949152
0.000942051
0.000934975
0.000927923
0.000920894
0.000913889
0.000906905
0.000899941
0.000892997
0.00088607
0.000879159
0.000872261
0.000865376
0.0008585
0.000851631
0.000844766
0.000837903
0.00083104
0.000824173
0.000817299
0.000810416
0.00080352
0.000796609
0.000789679
0.000782728
0.000775753
0.000768751
0.000761716
0.000754647
0.000747537
0.000740385
0.000733186
0.000725936
0.000718633
0.000711273
0.000703851
0.000696363
0.000688806
0.000681174
0.000673463
0.000665667
0.000657779
0.000649792
0.000641699
0.000633491
0.000625166
0.000616718
0.000608138
0.00059942
0.000590553
0.000581525
0.000572326
0.000562939
0.000553351
0.000543541
0.00053349
0.000523173
0.000512561
0.000501624
0.000490322
0.000478611
0.000466439
0.000453741
0.000440441
0.000426447
0.000411646
0.000395897
0.000379026
0.000360811
0.00034097
0.000319138
0.000294839
0.000267442
0.000236112
0.000199688
0.000156609
0.000105053
4.52608e-05
1.8908e-06
1.51095e-05
0.000119052
0.00023659
0.000336322
0.000419263
0.000488994
0.000548604
0.000600426
0.000646182
0.000687138
0.000724231
0.000758164
0.000789468
0.000818552
0.000845729
0.000871248
0.000895306
0.000918062
0.000939645
0.00096016
0.000979696
0.000998325
0.00101611
0.0010331
0.00104935
0.00106489
0.00107975
0.00109397
0.00110756
0.00112056
0.00113298
0.00114485
0.00115616
0.00116695
0.00117722
0.00118699
0.00119627
0.00120507
0.00121339
0.00122125
0.00122866
0.00123562
0.00124214
0.00124823
0.0012539
0.00125915
0.00126399
0.00126843
0.00127247
0.00127613
0.0012794
0.00128229
0.00128481
0.00128697
0.00128877
0.00129022
0.00129132
0.00129208
0.00129251
0.0012926
0.00129237
0.00129182
0.00129096
0.00128979
0.00128832
0.00128657
0.00128453
0.00128222
0.00127965
0.00127681
0.00127373
0.00127041
0.00126685
0.00126307
0.00125906
0.00125484
0.00125042
0.0012458
0.00124098
0.00123599
0.00123082
0.00122548
0.00121998
0.00121433
0.00120853
0.0012026
0.00119653
0.00119034
0.00118403
0.00117761
0.00117109
0.00116447
0.00115777
0.00115098
0.00114412
0.00113718
0.00113019
0.00112313
0.00111603
0.00110888
0.00110169
0.00109446
0.00108721
0.00107993
0.00107264
0.00106533
0.00105801
0.00105068
0.00104335
0.00103602
0.0010287
0.00102138
0.00101408
0.00100679
0.000999512
0.000992253
0.000985014
0.000977796
0.0009706
0.000963427
0.000956278
0.000949153
0.000942052
0.000934976
0.000927924
0.000920895
0.000913889
0.000906905
0.000899942
0.000892997
0.00088607
0.000879159
0.000872262
0.000865376
0.0008585
0.000851631
0.000844766
0.000837903
0.00083104
0.000824172
0.000817299
0.000810415
0.00080352
0.000796608
0.000789679
0.000782728
0.000775752
0.00076875
0.000761716
0.000754646
0.000747537
0.000740384
0.000733185
0.000725936
0.000718632
0.000711272
0.00070385
0.000696362
0.000688805
0.000681173
0.000673462
0.000665665
0.000657777
0.000649791
0.000641697
0.00063349
0.000625165
0.000616716
0.000608137
0.000599419
0.000590551
0.000581524
0.000572324
0.000562938
0.00055335
0.00054354
0.000533489
0.000523171
0.00051256
0.000501623
0.000490321
0.00047861
0.000466437
0.000453739
0.00044044
0.000426446
0.000411645
0.000395896
0.000379025
0.00036081
0.000340969
0.000319138
0.000294839
0.000267442
0.000236112
0.000199688
0.000156609
0.000105053
4.52605e-05
1.89081e-06
1.85377e-05
0.000134199
0.000268586
0.000386797
0.000487702
0.000574112
0.00064889
0.000714396
0.000772478
0.000824558
0.000871729
0.000914832
0.00095452
0.000991305
0.00102559
0.00105769
0.00108787
0.00111633
0.00114325
0.00116876
0.00119299
0.00121604
0.00123798
0.0012589
0.00127884
0.00129787
0.00131603
0.00133336
0.0013499
0.00136567
0.00138071
0.00139504
0.00140869
0.00142167
0.00143401
0.00144572
0.00145682
0.00146732
0.00147724
0.00148659
0.00149538
0.00150364
0.00151135
0.00151855
0.00152524
0.00153142
0.00153711
0.00154232
0.00154706
0.00155134
0.00155516
0.00155853
0.00156147
0.00156398
0.00156607
0.00156774
0.00156901
0.00156988
0.00157036
0.00157046
0.00157018
0.00156953
0.00156852
0.00156715
0.00156544
0.0015634
0.00156103
0.00155835
0.00155536
0.00155208
0.0015485
0.00154465
0.00154053
0.00153614
0.0015315
0.00152661
0.00152148
0.00151613
0.00151055
0.00150477
0.00149878
0.00149259
0.00148622
0.00147967
0.00147294
0.00146606
0.00145902
0.00145184
0.00144451
0.00143706
0.00142948
0.00142179
0.001414
0.0014061
0.00139811
0.00139004
0.00138189
0.00137367
0.00136538
0.00135704
0.00134864
0.0013402
0.00133172
0.00132321
0.00131466
0.0013061
0.00129752
0.00128892
0.00128031
0.0012717
0.00126309
0.00125447
0.00124587
0.00123727
0.00122868
0.00122011
0.00121155
0.001203
0.00119448
0.00118597
0.00117748
0.00116901
0.00116057
0.00115214
0.00114373
0.00113534
0.00112697
0.00111861
0.00111027
0.00110194
0.00109363
0.00108532
0.00107702
0.00106873
0.00106043
0.00105214
0.00104384
0.00103553
0.00102721
0.00101888
0.00101054
0.00100217
0.000993774
0.000985354
0.000976902
0.000968416
0.000959891
0.000951324
0.000942709
0.000934043
0.00092532
0.000916537
0.000907689
0.000898772
0.000889781
0.000880711
0.000871559
0.000862318
0.000852983
0.000843549
0.000834008
0.000824355
0.000814581
0.000804677
0.000794636
0.000784446
0.000774103
0.000763596
0.000752916
0.000742051
0.000730988
0.000719711
0.000708204
0.000696449
0.000684422
0.000672099
0.000659453
0.00064645
0.000633052
0.000619218
0.000604894
0.000590022
0.000574532
0.000558341
0.000541347
0.000523432
0.000504448
0.000484219
0.000462525
0.000439091
0.000413575
0.000385542
0.000354437
0.000319549
0.00027997
0.000234519
0.000181744
0.000120238
5.14061e-05
2.36625e-06
1.85378e-05
0.000134202
0.000268593
0.000386807
0.000487714
0.000574125
0.000648904
0.000714411
0.000772494
0.000824574
0.000871745
0.000914848
0.000954536
0.00099132
0.0010256
0.0010577
0.00108788
0.00111634
0.00114326
0.00116878
0.00119301
0.00121605
0.001238
0.00125891
0.00127886
0.00129789
0.00131605
0.00133338
0.00134991
0.00136569
0.00138073
0.00139506
0.0014087
0.00142169
0.00143402
0.00144573
0.00145683
0.00146733
0.00147725
0.0014866
0.0014954
0.00150365
0.00151137
0.00151856
0.00152525
0.00153143
0.00153712
0.00154234
0.00154707
0.00155135
0.00155517
0.00155854
0.00156148
0.00156399
0.00156608
0.00156775
0.00156902
0.00156989
0.00157037
0.00157046
0.00157018
0.00156954
0.00156852
0.00156716
0.00156545
0.00156341
0.00156104
0.00155836
0.00155537
0.00155208
0.00154851
0.00154466
0.00154053
0.00153614
0.0015315
0.00152661
0.00152149
0.00151614
0.00151056
0.00150477
0.00149878
0.0014926
0.00148622
0.00147967
0.00147295
0.00146607
0.00145903
0.00145184
0.00144452
0.00143707
0.00142949
0.0014218
0.001414
0.00140611
0.00139812
0.00139004
0.00138189
0.00137367
0.00136538
0.00135704
0.00134864
0.0013402
0.00133172
0.00132321
0.00131467
0.0013061
0.00129752
0.00128892
0.00128031
0.0012717
0.00126309
0.00125448
0.00124587
0.00123727
0.00122868
0.00122011
0.00121155
0.00120301
0.00119448
0.00118597
0.00117748
0.00116902
0.00116057
0.00115214
0.00114373
0.00113534
0.00112697
0.00111861
0.00111027
0.00110194
0.00109363
0.00108532
0.00107702
0.00106873
0.00106043
0.00105214
0.00104384
0.00103553
0.00102721
0.00101888
0.00101054
0.00100217
0.000993774
0.000985354
0.000976902
0.000968415
0.000959891
0.000951323
0.000942709
0.000934042
0.00092532
0.000916536
0.000907688
0.000898771
0.00088978
0.00088071
0.000871558
0.000862317
0.000852982
0.000843548
0.000834007
0.000824354
0.000814579
0.000804676
0.000794635
0.000784445
0.000774102
0.000763595
0.000752915
0.00074205
0.000730986
0.00071971
0.000708203
0.000696447
0.000684421
0.000672098
0.000659452
0.000646449
0.000633051
0.000619216
0.000604893
0.000590021
0.000574531
0.00055834
0.000541346
0.000523431
0.000504448
0.000484219
0.000462524
0.00043909
0.000413575
0.000385542
0.000354437
0.000319549
0.00027997
0.000234519
0.000181744
0.000120238
5.14058e-05
2.36626e-06
2.19231e-05
0.000147555
0.000296122
0.000430175
0.000546912
0.000648375
0.000737122
0.000815445
0.000885229
0.000947983
0.0010049
0.00105694
0.00110483
0.00114918
0.00119046
0.00122905
0.00126528
0.00129939
0.00133159
0.00136206
0.00139094
0.00141836
0.00144443
0.00146923
0.00149283
0.00151532
0.00153674
0.00155715
0.00157659
0.00159511
0.00161274
0.0016295
0.00164545
0.00166059
0.00167496
0.00168857
0.00170145
0.00171363
0.00172511
0.00173591
0.00174606
0.00175557
0.00176444
0.00177271
0.00178038
0.00178746
0.00179396
0.00179991
0.00180531
0.00181017
0.00181451
0.00181833
0.00182164
0.00182447
0.00182681
0.00182868
0.00183009
0.00183104
0.00183155
0.00183162
0.00183127
0.0018305
0.00182932
0.00182775
0.00182578
0.00182344
0.00182074
0.00181767
0.00181427
0.00181053
0.00180646
0.00180208
0.0017974
0.00179241
0.00178715
0.0017816
0.00177579
0.00176972
0.00176341
0.00175685
0.00175006
0.00174306
0.00173584
0.00172842
0.00172081
0.00171302
0.00170505
0.00169691
0.00168862
0.00168018
0.0016716
0.00166289
0.00165405
0.0016451
0.00163605
0.0016269
0.00161765
0.00160833
0.00159893
0.00158946
0.00157992
0.00157034
0.0015607
0.00155103
0.00154131
0.00153157
0.0015218
0.00151201
0.00150221
0.00149239
0.00148257