/*--------------------------------*- C++ -*----------------------------------*\
  =========                 |
  \\      /  F ield         | OpenFOAM: The Open Source CFD Toolbox
   \\    /   O peration     | Website:  https://openfoam.org
    \\  /    A nd           | Version:  8
     \\/     M anipulation  |
\*---------------------------------------------------------------------------*/
FoamFile
{
    version     2.0;
    format      ascii;
    class       surfaceScalarField;
    location    "3500";
    object      phi;
}
// * * * * * * * * * * * * * * * * * * * * * * * * * * * * * * * * * * * * * //

dimensions      [1 0 -1 0 0 0 0];

internalField   nonuniform List<scalar> 
114370
(
5.62345e-10
3.68034e-14
-5.62382e-10
1.44121e-09
1.5018e-14
-8.80009e-10
2.19942e-09
1.25088e-14
-7.58777e-10
2.66242e-09
9.14741e-15
-4.6343e-10
2.82421e-09
7.27178e-15
-1.62167e-10
2.72324e-09
6.22704e-15
1.00617e-10
2.40735e-09
5.60181e-15
3.15577e-10
1.92099e-09
5.28415e-15
4.86058e-10
1.3011e-09
5.08015e-15
6.19597e-10
5.77138e-10
4.8957e-15
7.23691e-10
-2.27357e-10
4.7065e-15
8.04234e-10
-1.0931e-09
4.48089e-15
8.65491e-10
-2.00484e-09
4.26375e-15
9.11507e-10
-2.95094e-09
4.09585e-15
9.45871e-10
-3.92203e-09
3.97024e-15
9.7087e-10
-4.91053e-09
3.8841e-15
9.88291e-10
-5.91024e-09
3.8292e-15
9.99515e-10
-6.91605e-09
3.79327e-15
1.00562e-09
-7.92369e-09
3.76592e-15
1.00746e-09
-8.92958e-09
3.74127e-15
1.00571e-09
-9.93067e-09
3.71631e-15
1.00092e-09
-1.09243e-08
3.68593e-15
9.93501e-10
-1.19083e-08
3.64731e-15
9.83821e-10
-1.28806e-08
3.59926e-15
9.72158e-10
-1.38395e-08
3.54037e-15
9.58745e-10
-1.47834e-08
3.47118e-15
9.43773e-10
-1.5711e-08
3.39288e-15
9.274e-10
-1.66209e-08
3.30765e-15
9.09761e-10
-1.7512e-08
3.21645e-15
8.90967e-10
-1.83832e-08
3.12179e-15
8.71113e-10
-1.92336e-08
3.02388e-15
8.50284e-10
-2.00623e-08
2.92585e-15
8.28553e-10
-2.08684e-08
2.82848e-15
8.05984e-10
-2.16511e-08
2.73296e-15
7.82637e-10
-2.24098e-08
2.6409e-15
7.58566e-10
-2.31437e-08
2.55291e-15
7.33821e-10
-2.38523e-08
2.46974e-15
7.08452e-10
-2.45349e-08
2.3914e-15
6.82503e-10
-2.5191e-08
2.31838e-15
6.56021e-10
-2.58202e-08
2.25039e-15
6.2905e-10
-2.64219e-08
2.18701e-15
6.01632e-10
-2.69958e-08
2.12738e-15
5.73811e-10
-2.75415e-08
2.07137e-15
5.45631e-10
-2.80588e-08
2.01787e-15
5.17135e-10
-2.85472e-08
1.96652e-15
4.88367e-10
-2.90067e-08
1.91627e-15
4.5937e-10
-2.9437e-08
1.8665e-15
4.30188e-10
-2.98379e-08
1.81662e-15
4.00864e-10
-3.02095e-08
1.76588e-15
3.71444e-10
-3.05515e-08
1.71405e-15
3.41972e-10
-3.08641e-08
1.66152e-15
3.1249e-10
-3.11472e-08
1.6079e-15
2.83044e-10
-3.1401e-08
1.55337e-15
2.53676e-10
-3.16255e-08
1.49877e-15
2.24431e-10
-3.18209e-08
1.44445e-15
1.9535e-10
-3.19875e-08
1.39089e-15
1.66477e-10
-3.21254e-08
1.33852e-15
1.37854e-10
-3.2235e-08
1.28718e-15
1.09523e-10
-3.23166e-08
1.23725e-15
8.15217e-11
-3.23706e-08
1.18808e-15
5.38895e-11
-3.23974e-08
1.14005e-15
2.6659e-11
-3.23973e-08
1.09414e-15
-1.36517e-13
-3.23709e-08
1.05039e-15
-2.64599e-11
-3.23187e-08
1.0068e-15
-5.22807e-11
-3.22412e-08
9.64026e-16
-7.75764e-11
-3.2139e-08
9.22283e-16
-1.0232e-10
-3.20126e-08
8.81624e-16
-1.26483e-10
-3.18626e-08
8.42049e-16
-1.50035e-10
-3.16898e-08
8.04047e-16
-1.72951e-10
-3.14946e-08
7.67345e-16
-1.95207e-10
-3.12779e-08
7.32432e-16
-2.16781e-10
-3.10404e-08
6.98441e-16
-2.37654e-10
-3.07826e-08
6.65968e-16
-2.5781e-10
-3.05055e-08
6.35175e-16
-2.77232e-10
-3.02097e-08
6.06442e-16
-2.95909e-10
-2.98959e-08
5.78631e-16
-3.13828e-10
-2.9565e-08
5.5223e-16
-3.3098e-10
-2.92177e-08
5.27021e-16
-3.47359e-10
-2.88548e-08
5.03329e-16
-3.62957e-10
-2.84772e-08
4.80993e-16
-3.7777e-10
-2.80854e-08
4.60013e-16
-3.91798e-10
-2.76805e-08
4.39628e-16
-4.05038e-10
-2.72631e-08
4.20925e-16
-4.17493e-10
-2.6834e-08
4.02926e-16
-4.29164e-10
-2.6394e-08
3.86119e-16
-4.40056e-10
-2.59439e-08
3.70668e-16
-4.50174e-10
-2.54844e-08
3.55867e-16
-4.59525e-10
-2.50164e-08
3.42368e-16
-4.68119e-10
-2.45405e-08
3.30332e-16
-4.75964e-10
-2.40575e-08
3.1938e-16
-4.83072e-10
-2.35682e-08
3.10163e-16
-4.89454e-10
-2.30731e-08
3.02248e-16
-4.95125e-10
-2.25731e-08
2.96067e-16
-5.00097e-10
-2.20688e-08
2.91512e-16
-5.04388e-10
-2.15608e-08
2.8815e-16
-5.08012e-10
-2.10499e-08
2.86631e-16
-5.10987e-10
-2.05367e-08
2.87172e-16
-5.1333e-10
-2.00217e-08
2.89232e-16
-5.1506e-10
-1.95056e-08
2.93351e-16
-5.16196e-10
-1.89889e-08
2.99097e-16
-5.16758e-10
-1.84722e-08
3.06902e-16
-5.16765e-10
-1.79561e-08
3.16877e-16
-5.16239e-10
-1.74409e-08
3.28152e-16
-5.15198e-10
-1.69274e-08
3.41921e-16
-5.13666e-10
-1.64158e-08
3.57533e-16
-5.11662e-10
-1.59066e-08
3.75531e-16
-5.09208e-10
-1.54004e-08
3.95806e-16
-5.06324e-10
-1.48975e-08
4.18574e-16
-5.03033e-10
-1.43982e-08
4.43511e-16
-4.99354e-10
-1.3903e-08
4.71267e-16
-4.95308e-10
-1.34121e-08
5.01083e-16
-4.90916e-10
-1.2926e-08
5.33935e-16
-4.86197e-10
-1.24449e-08
5.69606e-16
-4.81172e-10
-1.19692e-08
6.0788e-16
-4.75858e-10
-1.1499e-08
6.48755e-16
-4.70274e-10
-1.10346e-08
6.93209e-16
-4.64438e-10
-1.05764e-08
7.40264e-16
-4.58366e-10
-1.01244e-08
7.91006e-16
-4.52075e-10
-9.6789e-09
8.44134e-16
-4.45579e-10
-9.2401e-09
9.00731e-16
-4.38894e-10
-8.80817e-09
9.60472e-16
-4.32031e-10
-8.38327e-09
1.02336e-15
-4.25004e-10
-7.96555e-09
1.08906e-15
-4.17824e-10
-7.55515e-09
1.15802e-15
-4.105e-10
-7.15222e-09
1.23034e-15
-4.03042e-10
-6.75687e-09
1.30526e-15
-3.95458e-10
-6.36923e-09
1.3843e-15
-3.87754e-10
-5.98941e-09
1.46616e-15
-3.79935e-10
-5.61753e-09
1.55105e-15
-3.72006e-10
-5.25368e-09
1.63953e-15
-3.63969e-10
-4.89798e-09
1.73082e-15
-3.55827e-10
-4.55053e-09
1.82504e-15
-3.4758e-10
-4.21143e-09
1.92197e-15
-3.39228e-10
-3.88079e-09
2.0216e-15
-3.3077e-10
-3.55873e-09
2.12417e-15
-3.22202e-10
-3.24536e-09
2.22977e-15
-3.13521e-10
-2.94078e-09
2.33776e-15
-3.04722e-10
-2.64513e-09
2.44857e-15
-2.95802e-10
-2.35853e-09
2.56154e-15
-2.86753e-10
-2.08113e-09
2.67733e-15
-2.77569e-10
-1.81305e-09
2.7966e-15
-2.68243e-10
-1.55445e-09
2.91781e-15
-2.58769e-10
-1.30549e-09
3.04184e-15
-2.49139e-10
-1.06632e-09
3.16891e-15
-2.39346e-10
-8.37126e-10
3.29901e-15
-2.29383e-10
-6.18074e-10
3.43063e-15
-2.19245e-10
-4.09343e-10
3.56528e-15
-2.08928e-10
-2.11108e-10
3.70297e-15
-1.98439e-10
-2.35128e-11
3.84304e-15
-1.87805e-10
1.53235e-10
3.97227e-15
-1.76964e-10
3.18891e-10
4.09478e-15
-1.65878e-10
4.73254e-10
4.2277e-15
-1.54591e-10
6.16128e-10
4.36604e-15
-1.43109e-10
7.47326e-10
4.50827e-15
-1.31438e-10
8.66665e-10
4.65571e-15
-1.19586e-10
9.73974e-10
4.80684e-15
-1.07563e-10
1.06909e-09
4.96252e-15
-9.53793e-11
1.15188e-09
5.12318e-15
-8.30516e-11
1.2222e-09
5.2884e-15
-7.05986e-11
1.27996e-09
5.45795e-15
-5.80427e-11
1.32508e-09
5.63206e-15
-4.54106e-11
1.35752e-09
5.81028e-15
-3.27336e-11
1.37726e-09
5.99305e-15
-2.00477e-11
1.38434e-09
6.17756e-15
-7.39442e-12
1.37883e-09
6.372e-15
5.18676e-12
1.36084e-09
6.57493e-15
1.76549e-11
1.33054e-09
6.7822e-15
2.99575e-11
1.28815e-09
6.99358e-15
4.20347e-11
1.23397e-09
7.20865e-15
5.38225e-11
1.16835e-09
7.43001e-15
6.52511e-11
1.09172e-09
7.6544e-15
7.62452e-11
1.00461e-09
7.88225e-15
8.67237e-11
9.07609e-10
8.11141e-15
9.6599e-11
8.0142e-10
8.34056e-15
1.05777e-10
6.8684e-10
8.56689e-15
1.14156e-10
5.64779e-10
8.79214e-15
1.21626e-10
4.36261e-10
9.01218e-15
1.28071e-10
3.0244e-10
9.22767e-15
1.33361e-10
1.64611e-10
9.43947e-15
1.37357e-10
2.42153e-11
9.64346e-15
1.39911e-10
-1.1711e-10
9.81081e-15
1.40827e-10
-2.5753e-10
9.95301e-15
1.3991e-10
-3.95024e-10
1.01091e-14
1.36974e-10
-5.27375e-10
1.02726e-14
1.31818e-10
-6.52112e-10
1.04404e-14
1.24193e-10
-7.66464e-10
1.06112e-14
1.13794e-10
-8.67351e-10
1.07812e-14
1.00317e-10
-9.51347e-10
1.09447e-14
8.34108e-11
-1.01465e-09
1.11073e-14
6.27057e-11
-1.0531e-09
1.12739e-14
3.78282e-11
-1.06217e-09
1.14583e-14
8.44564e-12
-1.03724e-09
1.16559e-14
-2.55818e-11
-9.73857e-10
1.18829e-14
-6.40585e-11
-8.68423e-10
1.21359e-14
-1.06131e-10
-7.19663e-10
1.23864e-14
-1.49486e-10
-5.31528e-10
1.26041e-14
-1.88898e-10
-3.18774e-10
1.28246e-14
-2.13564e-10
-1.17622e-10
1.31085e-14
-2.02029e-10
4.62942e-12
1.48352e-14
-1.23241e-10
6.36223e-15
3.51388e-12
5.62143e-10
-5.62599e-10
1.44112e-09
-8.80156e-10
2.19936e-09
-7.58859e-10
2.66238e-09
-4.6349e-10
2.82417e-09
-1.62218e-10
2.72322e-09
1.00571e-10
2.40732e-09
3.15534e-10
1.92097e-09
4.86018e-10
1.30108e-09
6.19561e-10
5.77124e-10
7.23657e-10
-2.27368e-10
8.04201e-10
-1.0931e-09
8.65461e-10
-2.00485e-09
9.11478e-10
-2.95094e-09
9.45845e-10
-3.92203e-09
9.70845e-10
-4.91052e-09
9.88267e-10
-5.91023e-09
9.99492e-10
-6.91604e-09
1.0056e-09
-7.92368e-09
1.00744e-09
-8.92956e-09
1.00569e-09
-9.93065e-09
1.0009e-09
-1.09243e-08
9.93483e-10
-1.19083e-08
9.83803e-10
-1.28806e-08
9.7214e-10
-1.38395e-08
9.58728e-10
-1.47834e-08
9.43756e-10
-1.57109e-08
9.27385e-10
-1.66208e-08
9.09745e-10
-1.75119e-08
8.90951e-10
-1.83832e-08
8.71098e-10
-1.92336e-08
8.5027e-10
-2.00622e-08
8.28539e-10
-2.08683e-08
8.0597e-10
-2.16511e-08
7.82623e-10
-2.24098e-08
7.58552e-10
-2.31437e-08
7.33808e-10
-2.38522e-08
7.08438e-10
-2.45349e-08
6.8249e-10
-2.5191e-08
6.56009e-10
-2.58201e-08
6.29037e-10
-2.64219e-08
6.01619e-10
-2.69958e-08
5.73799e-10
-2.75415e-08
5.45619e-10
-2.80587e-08
5.17123e-10
-2.85472e-08
4.88355e-10
-2.90066e-08
4.59357e-10
-2.94369e-08
4.30175e-10
-2.98379e-08
4.00852e-10
-3.02094e-08
3.71432e-10
-3.05515e-08
3.41959e-10
-3.0864e-08
3.12478e-10
-3.11472e-08
2.83031e-10
-3.14009e-08
2.53664e-10
-3.16254e-08
2.24418e-10
-3.18209e-08
1.95338e-10
-3.19874e-08
1.66465e-10
-3.21254e-08
1.37842e-10
-3.2235e-08
1.0951e-10
-3.23166e-08
8.15093e-11
-3.23706e-08
5.3877e-11
-3.23973e-08
2.66465e-11
-3.23972e-08
-1.4905e-13
-3.23709e-08
-2.64725e-11
-3.23187e-08
-5.22933e-11
-3.22412e-08
-7.7589e-11
-3.21389e-08
-1.02333e-10
-3.20125e-08
-1.26495e-10
-3.18626e-08
-1.50048e-10
-3.16897e-08
-1.72964e-10
-3.14946e-08
-1.95219e-10
-3.12779e-08
-2.16793e-10
-3.10403e-08
-2.37667e-10
-3.07826e-08
-2.57822e-10
-3.05054e-08
-2.77245e-10
-3.02096e-08
-2.95922e-10
-2.98958e-08
-3.13841e-10
-2.95649e-08
-3.30993e-10
-2.92177e-08
-3.47372e-10
-2.88548e-08
-3.6297e-10
-2.84771e-08
-3.77784e-10
-2.80854e-08
-3.91811e-10
-2.76804e-08
-4.05051e-10
-2.7263e-08
-4.17506e-10
-2.68339e-08
-4.29177e-10
-2.63939e-08
-4.40069e-10
-2.59438e-08
-4.50187e-10
-2.54844e-08
-4.59539e-10
-2.50164e-08
-4.68132e-10
-2.45405e-08
-4.75977e-10
-2.40575e-08
-4.83085e-10
-2.35681e-08
-4.89468e-10
-2.30731e-08
-4.95138e-10
-2.2573e-08
-5.00111e-10
-2.20687e-08
-5.04402e-10
-2.15608e-08
-5.08026e-10
-2.10499e-08
-5.11001e-10
-2.05366e-08
-5.13344e-10
-2.00217e-08
-5.15074e-10
-1.95055e-08
-5.16211e-10
-1.89889e-08
-5.16772e-10
-1.84722e-08
-5.1678e-10
-1.7956e-08
-5.16253e-10
-1.74409e-08
-5.15213e-10
-1.69273e-08
-5.13681e-10
-1.64157e-08
-5.11677e-10
-1.59066e-08
-5.09223e-10
-1.54004e-08
-5.06339e-10
-1.48974e-08
-5.03048e-10
-1.43981e-08
-4.99369e-10
-1.39029e-08
-4.95324e-10
-1.34121e-08
-4.90932e-10
-1.2926e-08
-4.86214e-10
-1.24449e-08
-4.81188e-10
-1.19691e-08
-4.75874e-10
-1.14989e-08
-4.70291e-10
-1.10346e-08
-4.64455e-10
-1.05763e-08
-4.58383e-10
-1.01244e-08
-4.52092e-10
-9.67887e-09
-4.45597e-10
-9.24007e-09
-4.38912e-10
-8.80814e-09
-4.32049e-10
-8.38324e-09
-4.25023e-10
-7.96552e-09
-4.17843e-10
-7.55512e-09
-4.1052e-10
-7.15219e-09
-4.03062e-10
-6.75684e-09
-3.95478e-10
-6.3692e-09
-3.87774e-10
-5.98938e-09
-3.79956e-10
-5.6175e-09
-3.72027e-10
-5.25365e-09
-3.63991e-10
-4.89795e-09
-3.5585e-10
-4.5505e-09
-3.47603e-10
-4.2114e-09
-3.39252e-10
-3.88077e-09
-3.30794e-10
-3.5587e-09
-3.22226e-10
-3.24533e-09
-3.13546e-10
-2.94075e-09
-3.04748e-10
-2.6451e-09
-2.95828e-10
-2.35851e-09
-2.86779e-10
-2.0811e-09
-2.77596e-10
-1.81302e-09
-2.68272e-10
-1.55442e-09
-2.58798e-10
-1.30546e-09
-2.49169e-10
-1.06629e-09
-2.39376e-10
-8.37098e-10
-2.29414e-10
-6.18046e-10
-2.19276e-10
-4.09316e-10
-2.08961e-10
-2.1108e-10
-1.98473e-10
-2.34848e-11
-1.8784e-10
1.53263e-10
-1.76999e-10
3.18919e-10
-1.65914e-10
4.73282e-10
-1.54628e-10
6.16157e-10
-1.43146e-10
7.47354e-10
-1.31477e-10
8.66694e-10
-1.19626e-10
9.74002e-10
-1.07603e-10
1.06912e-09
-9.54204e-11
1.1519e-09
-8.30937e-11
1.22223e-09
-7.06417e-11
1.27999e-09
-5.80868e-11
1.32511e-09
-4.54558e-11
1.35754e-09
-3.27799e-11
1.37728e-09
-2.00951e-11
1.38436e-09
-7.44298e-12
1.37885e-09
5.137e-12
1.36087e-09
1.76039e-11
1.33057e-09
2.99052e-11
1.28818e-09
4.19811e-11
1.234e-09
5.37675e-11
1.16837e-09
6.51947e-11
1.09175e-09
7.61874e-11
1.00463e-09
8.66644e-11
9.07633e-10
9.65382e-11
8.01442e-10
1.05714e-10
6.86862e-10
1.14092e-10
5.64799e-10
1.21561e-10
4.3628e-10
1.28003e-10
3.02459e-10
1.33292e-10
1.64628e-10
1.37286e-10
2.42311e-11
1.39838e-10
-1.17095e-10
1.40753e-10
-2.57516e-10
1.39834e-10
-3.95012e-10
1.36895e-10
-5.27364e-10
1.31738e-10
-6.52103e-10
1.2411e-10
-7.66456e-10
1.1371e-10
-8.67344e-10
1.0023e-10
-9.51341e-10
8.3322e-11
-1.01465e-09
6.26142e-11
-1.05309e-09
3.77338e-11
-1.06217e-09
8.34799e-12
-1.03724e-09
-2.5683e-11
-9.73859e-10
-6.41637e-11
-8.68428e-10
-1.06241e-10
-7.19672e-10
-1.49602e-10
-5.31542e-10
-1.89021e-10
-3.18801e-10
-2.13695e-10
-1.17676e-10
-2.0217e-10
4.53214e-12
-1.234e-10
3.35173e-12
8.877e-10
9.62254e-15
-1.45112e-09
1.43619e-09
-1.58516e-16
-1.42954e-09
1.7084e-09
1.50186e-15
-1.03149e-09
1.77218e-09
6.75413e-16
-5.27625e-10
1.64937e-09
2.03357e-16
-3.97248e-11
1.36088e-09
-7.04538e-17
3.88769e-10
9.28852e-10
-2.09858e-16
7.47281e-10
3.75048e-10
-2.51559e-16
1.03956e-09
-2.79952e-10
-2.61968e-16
1.27431e-09
-1.01741e-09
-2.77084e-16
1.46087e-09
-1.82117e-09
-2.94957e-16
1.60774e-09
-2.67789e-09
-3.0773e-16
1.72196e-09
-3.57625e-09
-3.12313e-16
1.80963e-09
-4.50659e-09
-3.08869e-16
1.87598e-09
-5.46083e-09
-2.94526e-16
1.92489e-09
-6.43222e-09
-2.71399e-16
1.95947e-09
-7.41506e-09
-2.43038e-16
1.98216e-09
-8.40456e-09
-2.13646e-16
1.99493e-09
-9.39663e-09
-1.85553e-16
1.99934e-09
-1.03878e-08
-1.59981e-16
1.99667e-09
-1.1375e-08
-1.37768e-16
1.98793e-09
-1.23556e-08
-1.1943e-16
1.97396e-09
-1.33274e-08
-1.05211e-16
1.95542e-09
-1.42882e-08
-9.51389e-17
1.93289e-09
-1.52365e-08
-8.84541e-17
1.90682e-09
-1.61704e-08
-8.45605e-17
1.87758e-09
-1.70887e-08
-8.2374e-17
1.8455e-09
-1.79899e-08
-8.1244e-17
1.81085e-09
-1.88729e-08
-8.03304e-17
1.77385e-09
-1.97367e-08
-7.92266e-17
1.7347e-09
-2.05801e-08
-7.76345e-17
1.69357e-09
-2.14023e-08
-7.53643e-17
1.65061e-09
-2.22023e-08
-7.24161e-17
1.60594e-09
-2.29795e-08
-6.87629e-17
1.5597e-09
-2.37331e-08
-6.44587e-17
1.51199e-09
-2.44623e-08
-5.95309e-17
1.46292e-09
-2.51665e-08
-5.42774e-17
1.41258e-09
-2.58452e-08
-4.87527e-17
1.36108e-09
-2.64978e-08
-4.31192e-17
1.30849e-09
-2.71238e-08
-3.76481e-17
1.2549e-09
-2.77226e-08
-3.25291e-17
1.20042e-09
-2.8294e-08
-2.80062e-17
1.14511e-09
-2.88376e-08
-2.40794e-17
1.08908e-09
-2.9353e-08
-2.10197e-17
1.0324e-09
-2.98399e-08
-1.89356e-17
9.75159e-10
-3.0298e-08
-1.78543e-17
9.17451e-10
-3.07273e-08
-1.79111e-17
8.5936e-10
-3.11275e-08
-1.89165e-17
8.00973e-10
-3.14985e-08
-2.10331e-17
7.42377e-10
-3.18403e-08
-2.39626e-17
6.83661e-10
-3.21528e-08
-2.74342e-17
6.24911e-10
-3.24361e-08
-3.14206e-17
5.66215e-10
-3.26902e-08
-3.55695e-17
5.07659e-10
-3.29152e-08
-3.98809e-17
4.49328e-10
-3.31112e-08
-4.40025e-17
3.91308e-10
-3.32785e-08
-4.80156e-17
3.33683e-10
-3.34173e-08
-5.17305e-17
2.76533e-10
-3.35278e-08
-5.5364e-17
2.19939e-10
-3.36104e-08
-5.88348e-17
1.6398e-10
-3.36653e-08
-6.22513e-17
1.0873e-10
-3.3693e-08
-6.53154e-17
5.426e-11
-3.36939e-08
-6.87319e-17
6.40432e-13
-3.36684e-08
-7.26361e-17
-5.20642e-11
-3.36169e-08
-7.60525e-17
-1.03793e-10
-3.35401e-08
-7.92519e-17
-1.54486e-10
-3.34384e-08
-8.22887e-17
-2.04087e-10
-3.33125e-08
-8.51899e-17
-2.5254e-10
-3.31628e-08
-8.80098e-17
-2.99791e-10
-3.29901e-08
-9.04773e-17
-3.45791e-10
-3.27949e-08
-9.25924e-17
-3.90493e-10
-3.25779e-08
-9.45991e-17
-4.33857e-10
-3.23398e-08
-9.6389e-17
-4.75845e-10
-3.20813e-08
-9.78535e-17
-5.16422e-10
-3.1803e-08
-9.91826e-17
-5.55558e-10
-3.15058e-08
-1.00268e-16
-5.93227e-10
-3.11903e-08
-1.0119e-16
-6.29406e-10
-3.08573e-08
-1.01923e-16
-6.64077e-10
-3.05075e-08
-1.02628e-16
-6.97224e-10
-3.01417e-08
-1.03117e-16
-7.28835e-10
-2.97607e-08
-1.03687e-16
-7.58902e-10
-2.93651e-08
-1.03986e-16
-7.8742e-10
-2.89559e-08
-1.04204e-16
-8.14387e-10
-2.85336e-08
-1.04449e-16
-8.39805e-10
-2.80992e-08
-1.04395e-16
-8.63678e-10
-2.76533e-08
-1.04342e-16
-8.86014e-10
-2.71968e-08
-1.03882e-16
-9.06823e-10
-2.67303e-08
-1.03504e-16
-9.2612e-10
-2.62546e-08
-1.02827e-16
-9.43919e-10
-2.57704e-08
-1.01933e-16
-9.60239e-10
-2.52784e-08
-1.00497e-16
-9.75102e-10
-2.47794e-08
-9.90616e-17
-9.88529e-10
-2.42741e-08
-9.71921e-17
-1.00055e-09
-2.37631e-08
-9.51329e-17
-1.01118e-09
-2.32471e-08
-9.27484e-17
-1.02047e-09
-2.27268e-08
-9.02826e-17
-1.02843e-09
-2.22027e-08
-8.74915e-17
-1.0351e-09
-2.16756e-08
-8.43209e-17
-1.04052e-09
-2.11461e-08
-8.11232e-17
-1.04472e-09
-2.06146e-08
-7.76544e-17
-1.04773e-09
-2.00819e-08
-7.39145e-17
-1.0496e-09
-1.95483e-08
-6.98764e-17
-1.05036e-09
-1.90146e-08
-6.58112e-17
-1.05005e-09
-1.84812e-08
-6.18543e-17
-1.04871e-09
-1.79486e-08
-5.73824e-17
-1.04639e-09
-1.74172e-08
-5.28834e-17
-1.04311e-09
-1.68876e-08
-4.81675e-17
-1.03893e-09
-1.63601e-08
-4.34786e-17
-1.03387e-09
-1.58352e-08
-3.86542e-17
-1.02799e-09
-1.53133e-08
-3.37484e-17
-1.02133e-09
-1.47948e-08
-2.88155e-17
-1.01391e-09
-1.42801e-08
-2.36656e-17
-1.00578e-09
-1.37694e-08
-1.87597e-17
-9.96985e-10
-1.32631e-08
-1.37182e-17
-9.87553e-10
-1.27615e-08
-8.70368e-18
-9.77521e-10
-1.2265e-08
-3.82469e-18
-9.66926e-10
-1.17737e-08
1.00015e-18
-9.55802e-10
-1.1288e-08
5.74371e-18
-9.44179e-10
-1.08081e-08
1.04602e-17
-9.3209e-10
-1.03342e-08
1.50141e-17
-9.19563e-10
-9.86656e-09
1.92157e-17
-9.06625e-10
-9.40539e-09
2.32547e-17
-8.93302e-10
-8.95089e-09
2.69955e-17
-8.79617e-10
-8.50323e-09
3.03569e-17
-8.65592e-10
-8.0626e-09
3.3393e-17
-8.51245e-10
-7.62916e-09
3.61581e-17
-8.36595e-10
-7.20308e-09
3.85437e-17
-8.21656e-10
-6.78452e-09
4.04956e-17
-8.0644e-10
-6.37362e-09
4.2068e-17
-7.90958e-10
-5.97054e-09
4.31524e-17
-7.75217e-10
-5.57541e-09
4.35863e-17
-7.59224e-10
-5.18839e-09
4.36406e-17
-7.42981e-10
-4.80962e-09
4.30442e-17
-7.2649e-10
-4.43924e-09
4.20141e-17
-7.0975e-10
-4.07739e-09
4.01706e-17
-6.92757e-10
-3.72424e-09
3.77849e-17
-6.75506e-10
-3.37992e-09
3.47485e-17
-6.57991e-10
-3.04459e-09
3.12239e-17
-6.40202e-10
-2.71843e-09
2.67775e-17
-6.22129e-10
-2.40159e-09
2.17346e-17
-6.0376e-10
-2.09424e-09
1.61491e-17
-5.85083e-10
-1.79658e-09
9.96704e-18
-5.66083e-10
-1.50878e-09
3.07981e-18
-5.46748e-10
-1.23104e-09
-4.18734e-18
-5.27063e-10
-9.63561e-10
-1.23224e-17
-5.07015e-10
-7.0655e-10
-2.1e-17
-4.8659e-10
-4.60217e-10
-3.05998e-17
-4.65779e-10
-2.24775e-10
-4.07966e-17
-4.44578e-10
-4.34194e-13
-5.19152e-17
-4.22994e-10
2.12541e-10
-6.43894e-17
-4.01e-10
4.13894e-10
-7.63223e-17
-3.78542e-10
6.03407e-10
-8.71721e-17
-3.55623e-10
7.80844e-10
-9.76434e-17
-3.32265e-10
9.45968e-10
-1.08604e-16
-3.08477e-10
1.09855e-09
-1.20486e-16
-2.8427e-10
1.23836e-09
-1.33075e-16
-2.59658e-10
1.3652e-09
-1.46152e-16
-2.34661e-10
1.47885e-09
-1.59502e-16
-2.09301e-10
1.57913e-09
-1.73774e-16
-1.83611e-10
1.66587e-09
-1.88807e-16
-1.57628e-10
1.73893e-09
-2.04709e-16
-1.31396e-10
1.79819e-09
-2.21425e-16
-1.04969e-10
1.84356e-09
-2.38739e-16
-7.84085e-11
1.87498e-09
-2.57138e-16
-5.17841e-11
1.89243e-09
-2.75701e-16
-2.51753e-11
1.89595e-09
-2.95343e-16
1.33184e-12
1.88562e-09
-3.16131e-16
2.76461e-11
1.86156e-09
-3.36976e-16
5.36633e-11
1.82397e-09
-3.588e-16
7.92635e-11
1.7731e-09
-3.81655e-16
1.04318e-10
1.70929e-09
-4.05433e-16
1.28685e-10
1.63292e-09
-4.3084e-16
1.52214e-10
1.54451e-09
-4.57442e-16
1.74739e-10
1.44461e-09
-4.85293e-16
1.96084e-10
1.33391e-09
-5.15151e-16
2.16056e-10
1.21318e-09
-5.46583e-16
2.3445e-10
1.08331e-09
-5.8024e-16
2.51045e-10
9.45322e-10
-6.15904e-16
2.65602e-10
8.00349e-10
-6.52763e-16
2.77863e-10
6.49672e-10
-6.90653e-16
2.87551e-10
4.94726e-10
-7.30388e-16
2.94361e-10
3.37096e-10
-7.6698e-16
2.97949e-10
1.78541e-10
-7.96201e-16
2.97945e-10
2.10048e-11
-8.21084e-16
2.93977e-10
-1.33332e-10
-8.43582e-16
2.8561e-10
-2.8207e-10
-8.62823e-16
2.72372e-10
-4.2261e-10
-8.80327e-16
2.53762e-10
-5.52108e-10
-8.97501e-16
2.29227e-10
-6.67466e-10
-9.14886e-16
1.98166e-10
-7.65338e-10
-9.33239e-16
1.59957e-10
-8.42149e-10
-9.48438e-16
1.14e-10
-8.94158e-10
-9.59184e-16
5.97936e-11
-9.17531e-10
-9.63134e-16
-2.89323e-12
-9.08581e-10
-9.62459e-16
-7.37217e-11
-8.64129e-10
-9.70292e-16
-1.51331e-10
-7.82e-10
-1.00363e-15
-2.32407e-10
-6.61813e-10
-1.08322e-15
-3.09934e-10
-5.06076e-10
-1.22098e-15
-3.70237e-10
-3.21348e-10
-1.40123e-15
-3.8784e-10
-1.26807e-10
-1.16589e-15
-3.1914e-10
-1.00455e-14
-1.24236e-10
8.87571e-10
-1.4512e-09
1.43614e-09
-1.42958e-09
1.70836e-09
-1.03151e-09
1.77215e-09
-5.27636e-10
1.64934e-09
-3.97326e-11
1.36086e-09
3.88762e-10
9.28837e-10
7.47274e-10
3.75037e-10
1.03955e-09
-2.7996e-10
1.27431e-09
-1.01741e-09
1.46087e-09
-1.82117e-09
1.60773e-09
-2.67789e-09
1.72195e-09
-3.57625e-09
1.80963e-09
-4.50658e-09
1.87598e-09
-5.46082e-09
1.92489e-09
-6.4322e-09
1.95946e-09
-7.41505e-09
1.98216e-09
-8.40455e-09
1.99492e-09
-9.39661e-09
1.99934e-09
-1.03877e-08
1.99667e-09
-1.13749e-08
1.98793e-09
-1.23556e-08
1.97395e-09
-1.33273e-08
1.95542e-09
-1.42882e-08
1.93289e-09
-1.52364e-08
1.90681e-09
-1.61704e-08
1.87758e-09
-1.70886e-08
1.8455e-09
-1.79899e-08
1.81085e-09
-1.88729e-08
1.77385e-09
-1.97366e-08
1.7347e-09
-2.058e-08
1.69357e-09
-2.14022e-08
1.6506e-09
-2.22023e-08
1.60594e-09
-2.29795e-08
1.5597e-09
-2.3733e-08
1.51199e-09
-2.44622e-08
1.46292e-09
-2.51665e-08
1.41258e-09
-2.58452e-08
1.36107e-09
-2.64977e-08
1.30848e-09
-2.71237e-08
1.2549e-09
-2.77226e-08
1.20041e-09
-2.8294e-08
1.14511e-09
-2.88375e-08
1.08907e-09
-2.93529e-08
1.03239e-09
-2.98398e-08
9.75156e-10
-3.0298e-08
9.17448e-10
-3.07272e-08
8.59357e-10
-3.11275e-08
8.0097e-10
-3.14985e-08
7.42375e-10
-3.18403e-08
6.83658e-10
-3.21528e-08
6.24909e-10
-3.24361e-08
5.66212e-10
-3.26901e-08
5.07656e-10
-3.29151e-08
4.49326e-10
-3.31112e-08
3.91306e-10
-3.32785e-08
3.3368e-10
-3.34173e-08
2.7653e-10
-3.35278e-08
2.19937e-10
-3.36103e-08
1.63977e-10
-3.36652e-08
1.08727e-10
-3.36929e-08
5.42574e-11
-3.36938e-08
6.37758e-13
-3.36683e-08
-5.20669e-11
-3.36169e-08
-1.03796e-10
-3.35401e-08
-1.54489e-10
-3.34384e-08
-2.0409e-10
-3.33124e-08
-2.52543e-10
-3.31628e-08
-2.99794e-10
-3.299e-08
-3.45793e-10
-3.27948e-08
-3.90496e-10
-3.25778e-08
-4.3386e-10
-3.23397e-08
-4.75848e-10
-3.20812e-08
-5.16424e-10
-3.1803e-08
-5.55561e-10
-3.15057e-08
-5.9323e-10
-3.11902e-08
-6.29409e-10
-3.08572e-08
-6.6408e-10
-3.05075e-08
-6.97227e-10
-3.01417e-08
-7.28838e-10
-2.97606e-08
-7.58905e-10
-2.93651e-08
-7.87423e-10
-2.89558e-08
-8.1439e-10
-2.85336e-08
-8.39808e-10
-2.80992e-08
-8.63681e-10
-2.76533e-08
-8.86017e-10
-2.71967e-08
-9.06826e-10
-2.67302e-08
-9.26122e-10
-2.62545e-08
-9.43922e-10
-2.57703e-08
-9.60242e-10
-2.52784e-08
-9.75104e-10
-2.47794e-08
-9.88532e-10
-2.42741e-08
-1.00055e-09
-2.37631e-08
-1.01119e-09
-2.32471e-08
-1.02047e-09
-2.27267e-08
-1.02843e-09
-2.22027e-08
-1.03511e-09
-2.16756e-08
-1.04052e-09
-2.1146e-08
-1.04472e-09
-2.06146e-08
-1.04773e-09
-2.00818e-08
-1.0496e-09
-1.95483e-08
-1.05036e-09
-1.90146e-08
-1.05005e-09
-1.84812e-08
-1.04872e-09
-1.79485e-08
-1.04639e-09
-1.74172e-08
-1.04311e-09
-1.68875e-08
-1.03893e-09
-1.63601e-08
-1.03388e-09
-1.58352e-08
-1.028e-09
-1.53133e-08
-1.02133e-09
-1.47948e-08
-1.01391e-09
-1.428e-08
-1.00579e-09
-1.37693e-08
-9.96989e-10
-1.3263e-08
-9.87556e-10
-1.27615e-08
-9.77525e-10
-1.22649e-08
-9.6693e-10
-1.17737e-08
-9.55805e-10
-1.12879e-08
-9.44183e-10
-1.0808e-08
-9.32093e-10
-1.03342e-08
-9.19566e-10
-9.86653e-09
-9.06628e-10
-9.40536e-09
-8.93305e-10
-8.95086e-09
-8.79621e-10
-8.5032e-09
-8.65596e-10
-8.06257e-09
-8.51249e-10
-7.62914e-09
-8.36599e-10
-7.20306e-09
-8.2166e-10
-6.78449e-09
-8.06444e-10
-6.37359e-09
-7.90962e-10
-5.97051e-09
-7.75222e-10
-5.57538e-09
-7.59228e-10
-5.18836e-09
-7.42986e-10
-4.80959e-09
-7.26495e-10
-4.43921e-09
-7.09755e-10
-4.07737e-09
-6.92762e-10
-3.72421e-09
-6.75511e-10
-3.37989e-09
-6.57996e-10
-3.04457e-09
-6.40207e-10
-2.7184e-09
-6.22134e-10
-2.40156e-09
-6.03765e-10
-2.09422e-09
-5.85088e-10
-1.79655e-09
-5.66089e-10
-1.50875e-09
-5.46754e-10
-1.23101e-09
-5.27069e-10
-9.63536e-10
-5.0702e-10
-7.06525e-10
-4.86596e-10
-4.60192e-10
-4.65785e-10
-2.2475e-10
-4.44584e-10
-4.09292e-13
-4.23e-10
2.12566e-10
-4.01006e-10
4.13919e-10
-3.78549e-10
6.03432e-10
-3.55629e-10
7.80869e-10
-3.32272e-10
9.45993e-10
-3.08484e-10
1.09857e-09
-2.84277e-10
1.23839e-09
-2.59665e-10
1.36522e-09
-2.34667e-10
1.47887e-09
-2.09308e-10
1.57916e-09
-1.83618e-10
1.6659e-09
-1.57635e-10
1.73896e-09
-1.31403e-10
1.79822e-09
-1.04976e-10
1.84358e-09
-7.84156e-11
1.875e-09
-5.17912e-11
1.89246e-09
-2.51824e-11
1.89598e-09
1.32464e-12
1.88564e-09
2.76389e-11
1.86158e-09
5.3656e-11
1.82399e-09
7.92562e-11
1.77312e-09
1.0431e-10
1.70931e-09
1.28678e-10
1.63295e-09
1.52207e-10
1.54453e-09
1.74732e-10
1.44463e-09
1.96076e-10
1.33393e-09
2.16048e-10
1.2132e-09
2.34442e-10
1.08333e-09
2.51037e-10
9.45339e-10
2.65594e-10
8.00365e-10
2.77855e-10
6.49687e-10
2.87543e-10
4.9474e-10
2.94353e-10
3.37109e-10
2.9794e-10
1.78553e-10
2.97937e-10
2.10162e-11
2.93968e-10
-1.33322e-10
2.856e-10
-2.82061e-10
2.72362e-10
-4.22601e-10
2.53751e-10
-5.52101e-10
2.29216e-10
-6.6746e-10
1.98154e-10
-7.65333e-10
1.59944e-10
-8.42145e-10
1.13986e-10
-8.94155e-10
5.97785e-11
-9.1753e-10
-2.90997e-12
-9.08581e-10
-7.37405e-11
-8.64131e-10
-1.51352e-10
-7.82003e-10
-2.32431e-10
-6.6182e-10
-3.09963e-10
-5.0609e-10
-3.70271e-10
-3.21384e-10
-3.87881e-10
-1.26899e-10
-3.19192e-10
-1.24298e-10
7.38591e-10
6.22963e-15
-2.19028e-09
1.00824e-09
5.13545e-16
-1.69967e-09
1.01198e-09
1.81077e-15
-1.03538e-09
8.56172e-10
1.13588e-15
-3.71938e-10
5.75611e-10
7.39515e-16
2.40736e-10
1.86062e-10
4.6358e-16
7.78229e-10
-3.01531e-10
2.88586e-16
1.23479e-09
-8.76475e-10
1.96537e-16
1.61443e-09
-1.52771e-09
1.27802e-16
1.92548e-09
-2.24432e-09
6.31897e-17
2.17741e-09
-3.01595e-09
1.29454e-17
2.3793e-09
-3.83328e-09
-2.17115e-17
2.53922e-09
-4.68787e-09
-4.74762e-17
2.66417e-09
-5.57211e-09
-6.69239e-17
2.76016e-09
-6.47931e-09
-7.98382e-17
2.83204e-09
-7.40367e-09
-8.62462e-17
2.88377e-09
-8.34014e-09
-8.79099e-17
2.91857e-09
-9.28434e-09
-8.68353e-17
2.93907e-09
-1.02324e-08
-8.46352e-17
2.94739e-09
-1.11811e-08
-8.20415e-17
2.94529e-09
-1.21274e-08
-7.95016e-17
2.9342e-09
-1.30688e-08
-7.73677e-17
2.91529e-09
-1.4003e-08
-7.57484e-17
2.88954e-09
-1.49279e-08
-7.44812e-17
2.85774e-09
-1.58417e-08
-7.35253e-17
2.82058e-09
-1.67428e-08
-7.24742e-17
2.77861e-09
-1.76296e-08
-7.07993e-17
2.73231e-09
-1.85009e-08
-6.80942e-17
2.68208e-09
-1.93553e-08
-6.42504e-17
2.62826e-09
-2.01918e-08
-5.93357e-17
2.57114e-09
-2.10093e-08
-5.32959e-17
2.51099e-09
-2.18068e-08
-4.64292e-17
2.44803e-09
-2.25833e-08
-3.89388e-17
2.38247e-09
-2.33382e-08
-3.10551e-17
2.31449e-09
-2.40705e-08
-2.29409e-17
2.24426e-09
-2.47795e-08
-1.47316e-17
2.17194e-09
-2.54647e-08
-6.57626e-18
2.09769e-09
-2.61253e-08
1.38949e-18
2.02163e-09
-2.67607e-08
9.12502e-18
1.94392e-09
-2.73705e-08
1.65355e-17
1.86469e-09
-2.79542e-08
2.34175e-17
1.78406e-09
-2.85113e-08
2.9866e-17
1.70218e-09
-2.90415e-08
3.55693e-17
1.61916e-09
-2.95442e-08
4.06493e-17
1.53516e-09
-3.00194e-08
4.51603e-17
1.45028e-09
-3.04667e-08
4.89395e-17
1.36467e-09
-3.08858e-08
5.22445e-17
1.27845e-09
-3.12766e-08
5.51159e-17
1.19175e-09
-3.1639e-08
5.77571e-17
1.10472e-09
-3.19728e-08
6.02493e-17
1.01747e-09
-3.22781e-08
6.27144e-17
9.30139e-10
-3.25547e-08
6.52339e-17
8.42856e-10
-3.28029e-08
6.78212e-17
7.55751e-10
-3.30225e-08
7.04492e-17
6.68949e-10
-3.32138e-08
7.30774e-17
5.82579e-10
-3.33769e-08
7.57056e-17
4.96764e-10
-3.35121e-08
7.82932e-17
4.11626e-10
-3.36194e-08
8.07317e-17
3.27284e-10
-3.36994e-08
8.29671e-17
2.43855e-10
-3.37521e-08
8.50263e-17
1.61449e-10
-3.37781e-08
8.69365e-17
8.01739e-11
-3.37776e-08
8.86976e-17
1.33695e-13
-3.37511e-08
9.02826e-17
-7.85723e-11
-3.36991e-08
9.18541e-17
-1.55848e-10
-3.3622e-08
9.34121e-17
-2.31603e-10
-3.35204e-08
9.49836e-17
-3.05751e-10
-3.33947e-08
9.64874e-17
-3.78209e-10
-3.32456e-08
9.79913e-17
-4.48898e-10
-3.30737e-08
9.96171e-17
-5.17746e-10
-3.28796e-08
1.01229e-16
-5.84685e-10
-3.26638e-08
1.02882e-16
-6.49652e-10
-3.24271e-08
1.04522e-16
-7.1259e-10
-3.21701e-08
1.06243e-16
-7.73449e-10
-3.18935e-08
1.0795e-16
-8.32183e-10
-3.1598e-08
1.09698e-16
-8.88753e-10
-3.12843e-08
1.11419e-16
-9.43124e-10
-3.09532e-08
1.13085e-16
-9.95266e-10
-3.06053e-08
1.14711e-16
-1.04516e-09
-3.02413e-08
1.16351e-16
-1.09278e-09
-2.98622e-08
1.17895e-16
-1.13812e-09
-2.94684e-08
1.19413e-16
-1.18116e-09
-2.90609e-08
1.20958e-16
-1.22191e-09
-2.86404e-08
1.22421e-16
-1.26037e-09
-2.82076e-08
1.2402e-16
-1.29654e-09
-2.77632e-08
1.25565e-16
-1.33043e-09
-2.7308e-08
1.27272e-16
-1.36206e-09
-2.68427e-08
1.28912e-16
-1.39145e-09
-2.6368e-08
1.30728e-16
-1.41861e-09
-2.58847e-08
1.32665e-16
-1.44358e-09
-2.53934e-08
1.34752e-16
-1.46639e-09
-2.48949e-08
1.3688e-16
-1.48706e-09
-2.43899e-08
1.39238e-16
-1.50564e-09
-2.38789e-08
1.41637e-16
-1.52217e-09
-2.33627e-08
1.44239e-16
-1.53668e-09
-2.2842e-08
1.47003e-16
-1.54922e-09
-2.23173e-08
1.49849e-16
-1.55984e-09
-2.17892e-08
1.52844e-16
-1.56859e-09
-2.12584e-08
1.55907e-16
-1.57552e-09
-2.07255e-08
1.592e-16
-1.58068e-09
-2.0191e-08
1.62534e-16
-1.58412e-09
-1.96555e-08
1.66045e-16
-1.58591e-09
-1.91195e-08
1.69609e-16
-1.5861e-09
-1.85835e-08
1.73268e-16
-1.58474e-09
-1.8048e-08
1.77009e-16
-1.5819e-09
-1.75135e-08
1.81048e-16
-1.57762e-09
-1.69805e-08
1.85073e-16
-1.57198e-09
-1.64494e-08
1.89112e-16
-1.56503e-09
-1.59206e-08
1.93287e-16
-1.55683e-09
-1.53945e-08
1.9761e-16
-1.54744e-09
-1.48715e-08
2.01975e-16
-1.53691e-09
-1.4352e-08
2.06434e-16
-1.52529e-09
-1.38364e-08
2.10948e-16
-1.51266e-09
-1.33249e-08
2.15461e-16
-1.49905e-09
-1.28179e-08
2.20029e-16
-1.48452e-09
-1.23157e-08
2.24678e-16
-1.46913e-09
-1.18187e-08