/*--------------------------------*- C++ -*----------------------------------*\
  =========                 |
  \\      /  F ield         | OpenFOAM: The Open Source CFD Toolbox
   \\    /   O peration     | Website:  https://openfoam.org
    \\  /    A nd           | Version:  8
     \\/     M anipulation  |
\*---------------------------------------------------------------------------*/
FoamFile
{
    version     2.0;
    format      ascii;
    class       volScalarField;
    location    "3500";
    object      T;
}
// * * * * * * * * * * * * * * * * * * * * * * * * * * * * * * * * * * * * * //

dimensions      [0 0 0 1 0 0 0];

internalField   nonuniform List<scalar> 
46000
(
310.193
309.107
308.312
307.796
307.424
307.13
306.884
306.673
306.487
306.32
306.168
306.028
305.9
305.781
305.67
305.566
305.468
305.376
305.289
305.206
305.129
305.055
304.985
304.919
304.855
304.795
304.738
304.684
304.633
304.584
304.537
304.493
304.45
304.41
304.372
304.336
304.301
304.268
304.237
304.208
304.18
304.154
304.129
304.105
304.083
304.062
304.042
304.024
304.006
303.99
303.975
303.961
303.949
303.937
303.926
303.917
303.908
303.9
303.893
303.887
303.882
303.878
303.875
303.873
303.871
303.87
303.87
303.871
303.873
303.875
303.879
303.883
303.888
303.894
303.9
303.908
303.916
303.925
303.934
303.944
303.956
303.967
303.98
303.993
304.007
304.021
304.037
304.053
304.069
304.086
304.104
304.123
304.142
304.161
304.182
304.202
304.224
304.246
304.268
304.291
304.315
304.339
304.364
304.389
304.414
304.441
304.467
304.494
304.522
304.55
304.578
304.607
304.636
304.666
304.696
304.726
304.757
304.788
304.82
304.852
304.885
304.918
304.951
304.984
305.018
305.053
305.088
305.123
305.159
305.195
305.232
305.269
305.306
305.344
305.382
305.421
305.461
305.501
305.542
305.583
305.624
305.667
305.71
305.753
305.797
305.842
305.888
305.934
305.982
306.03
306.078
306.128
306.178
306.229
306.281
306.334
306.387
306.442
306.497
306.554
306.611
306.67
306.729
306.789
306.851
306.913
306.976
307.04
307.105
307.171
307.239
307.307
307.377
307.448
307.52
307.594
307.669
307.745
307.823
307.903
307.985
308.069
308.155
308.244
308.335
308.43
308.529
308.633
308.743
308.86
308.985
309.121
309.271
309.44
309.635
309.871
310.168
310.561
311.079
311.553
310.193
309.107
308.312
307.796
307.424
307.13
306.884
306.673
306.487
306.32
306.168
306.028
305.9
305.781
305.67
305.566
305.468
305.376
305.289
305.206
305.129
305.055
304.985
304.919
304.855
304.795
304.738
304.684
304.633
304.584
304.537
304.493
304.45
304.41
304.372
304.336
304.301
304.268
304.237
304.208
304.18
304.154
304.129
304.105
304.083
304.062
304.042
304.024
304.006
303.99
303.975
303.962
303.949
303.937
303.926
303.917
303.908
303.9
303.893
303.887
303.883
303.878
303.875
303.873
303.871
303.87
303.87
303.871
303.873
303.875
303.879
303.883
303.888
303.894
303.9
303.908
303.916
303.925
303.934
303.944
303.956
303.967
303.98
303.993
304.007
304.021
304.037
304.053
304.069
304.086
304.104
304.123
304.142
304.161
304.182
304.202
304.224
304.246
304.268
304.291
304.315
304.339
304.364
304.389
304.414
304.441
304.467
304.494
304.522
304.55
304.578
304.607
304.636
304.666
304.696
304.726
304.757
304.788
304.82
304.852
304.885
304.918
304.951
304.984
305.018
305.053
305.088
305.123
305.159
305.195
305.232
305.269
305.306
305.344
305.382
305.421
305.461
305.501
305.542
305.583
305.624
305.667
305.71
305.753
305.797
305.842
305.888
305.934
305.982
306.03
306.078
306.128
306.178
306.229
306.281
306.334
306.387
306.442
306.497
306.554
306.611
306.67
306.729
306.789
306.851
306.913
306.976
307.04
307.105
307.171
307.239
307.307
307.377
307.448
307.52
307.594
307.669
307.745
307.823
307.903
307.985
308.069
308.155
308.244
308.335
308.43
308.529
308.633
308.743
308.86
308.985
309.121
309.271
309.44
309.635
309.871
310.168
310.561
311.079
311.553
306.698
306.255
305.899
305.622
305.4
305.215
305.056
304.917
304.793
304.68
304.576
304.48
304.39
304.307
304.229
304.155
304.086
304.02
303.958
303.899
303.844
303.79
303.74
303.692
303.646
303.603
303.562
303.522
303.484
303.448
303.414
303.382
303.35
303.321
303.292
303.265
303.239
303.215
303.191
303.169
303.147
303.127
303.107
303.089
303.071
303.054
303.038
303.023
303.009
302.995
302.982
302.97
302.959
302.948
302.938
302.928
302.919
302.911
302.903
302.896
302.89
302.884
302.878
302.873
302.869
302.865
302.862
302.859
302.857
302.855
302.854
302.853
302.853
302.853
302.854
302.856
302.857
302.86
302.863
302.866
302.87
302.874
302.879
302.884
302.89
302.896
302.902
302.909
302.917
302.925
302.933
302.942
302.952
302.961
302.971
302.982
302.993
303.005
303.016
303.029
303.041
303.055
303.068
303.082
303.096
303.111
303.126
303.142
303.158
303.174
303.191
303.208
303.226
303.244
303.263
303.281
303.301
303.32
303.341
303.361
303.382
303.404
303.425
303.448
303.471
303.494
303.518
303.542
303.567
303.592
303.618
303.644
303.671
303.698
303.726
303.755
303.784
303.814
303.844
303.875
303.907
303.939
303.973
304.006
304.041
304.076
304.112
304.149
304.187
304.225
304.265
304.305
304.345
304.387
304.43
304.473
304.518
304.563
304.609
304.656
304.704
304.753
304.803
304.853
304.905
304.958
305.011
305.065
305.121
305.177
305.234
305.292
305.351
305.412
305.473
305.535
305.598
305.662
305.728
305.795
305.863
305.933
306.004
306.078
306.154
306.232
306.313
306.399
306.489
306.584
306.687
306.8
306.924
307.066
307.23
307.428
307.676
307.999
308.436
308.942
306.698
306.255
305.899
305.622
305.4
305.215
305.056
304.917
304.793
304.68
304.576
304.48
304.39
304.307
304.229
304.155
304.086
304.02
303.958
303.899
303.844
303.79
303.74
303.692
303.646
303.603
303.562
303.522
303.484
303.448
303.414
303.382
303.35
303.321
303.292
303.265
303.239
303.215
303.191
303.169
303.147
303.127
303.107
303.089
303.071
303.054
303.038
303.023
303.009
302.995
302.982
302.97
302.959
302.948
302.938
302.928
302.919
302.911
302.903
302.896
302.89
302.884
302.878
302.873
302.869
302.865
302.862
302.859
302.857
302.855
302.854
302.853
302.853
302.853
302.854
302.856
302.857
302.86
302.863
302.866
302.87
302.874
302.879
302.884
302.89
302.896
302.902
302.909
302.917
302.925
302.933
302.942
302.952
302.961
302.971
302.982
302.993
303.005
303.016
303.029
303.041
303.055
303.068
303.082
303.096
303.111
303.126
303.142
303.158
303.174
303.191
303.208
303.226
303.244
303.263
303.281
303.301
303.32
303.341
303.361
303.382
303.404
303.425
303.448
303.471
303.494
303.518
303.542
303.567
303.592
303.618
303.644
303.671
303.698
303.726
303.755
303.784
303.814
303.844
303.875
303.907
303.939
303.973
304.006
304.041
304.076
304.112
304.149
304.187
304.225
304.265
304.305
304.345
304.387
304.43
304.473
304.518
304.563
304.609
304.656
304.704
304.753
304.803
304.853
304.905
304.958
305.011
305.065
305.121
305.177
305.234
305.292
305.351
305.412
305.473
305.535
305.598
305.662
305.728
305.795
305.863
305.933
306.004
306.078
306.154
306.232
306.313
306.399
306.489
306.584
306.687
306.8
306.924
307.066
307.23
307.428
307.676
307.999
308.436
308.942
305.08
304.976
304.821
304.665
304.52
304.389
304.271
304.163
304.063
303.971
303.886
303.806
303.731
303.661
303.594
303.532
303.472
303.416
303.362
303.311
303.263
303.217
303.173
303.131
303.091
303.053
303.017
302.982
302.949
302.918
302.888
302.859
302.831
302.805
302.78
302.756
302.733
302.711
302.689
302.669
302.65
302.631
302.614
302.597
302.581
302.565
302.551
302.536
302.523
302.51
302.498
302.486
302.475
302.465
302.455
302.445
302.436
302.428
302.42
302.412
302.405
302.398
302.392
302.387
302.381
302.377
302.372
302.368
302.365
302.362
302.359
302.357
302.355
302.354
302.353
302.352
302.352
302.352
302.353
302.354
302.356
302.358
302.36
302.363
302.366
302.37
302.374
302.378
302.383
302.388
302.394
302.4
302.406
302.413
302.42
302.427
302.435
302.444
302.452
302.462
302.471
302.481
302.491
302.502
302.513
302.525
302.537
302.549
302.562
302.575
302.588
302.602
302.616
302.631
302.646
302.662
302.678
302.694
302.711
302.728
302.746
302.764
302.783
302.802
302.822
302.842
302.863
302.884
302.906
302.928
302.951
302.974
302.998
303.023
303.048
303.073
303.1
303.127
303.154
303.183
303.212
303.241
303.272
303.303
303.335
303.367
303.401
303.435
303.47
303.506
303.543
303.58
303.618
303.657
303.697
303.738
303.78
303.822
303.866
303.91
303.955
304.001
304.048
304.096
304.145
304.194
304.245
304.296
304.348
304.401
304.455
304.51
304.565
304.621
304.679
304.737
304.795
304.855
304.916
304.978
305.041
305.105
305.17
305.237
305.306
305.377
305.45
305.525
305.605
305.689
305.778
305.873
305.978
306.094
306.224
306.373
306.547
306.751
306.992
307.247
305.08
304.976
304.821
304.665
304.52
304.389
304.271
304.163
304.063
303.971
303.886
303.806
303.731
303.661
303.594
303.532
303.472
303.416
303.362
303.311
303.263
303.217
303.173
303.131
303.091
303.053
303.017
302.982
302.949
302.918
302.888
302.859
302.831
302.805
302.78
302.756
302.733
302.711
302.689
302.669
302.65
302.631
302.614
302.597
302.581
302.565
302.551
302.536
302.523
302.51
302.498
302.486
302.475
302.465
302.455
302.445
302.436
302.428
302.42
302.412
302.405
302.398
302.392
302.387
302.381
302.377
302.372
302.368
302.365
302.362
302.359
302.357
302.355
302.354
302.353
302.352
302.352
302.352
302.353
302.354
302.356
302.358
302.36
302.363
302.366
302.37
302.374
302.378
302.383
302.388
302.394
302.4
302.406
302.413
302.42
302.427
302.435
302.444
302.453
302.462
302.471
302.481
302.491
302.502
302.513
302.525
302.537
302.549
302.562
302.575
302.588
302.602
302.616
302.631
302.646
302.662
302.678
302.694
302.711
302.728
302.746
302.764
302.783
302.802
302.822
302.842
302.863
302.884
302.906
302.928
302.951
302.974
302.998
303.023
303.048
303.073
303.1
303.127
303.154
303.183
303.212
303.241
303.272
303.303
303.335
303.367
303.401
303.435
303.47
303.506
303.543
303.58
303.618
303.657
303.697
303.738
303.78
303.822
303.866
303.91
303.955
304.001
304.048
304.096
304.145
304.194
304.245
304.296
304.348
304.401
304.455
304.51
304.565
304.621
304.679
304.737
304.795
304.855
304.916
304.978
305.041
305.105
305.17
305.237
305.306
305.377
305.45
305.526
305.605
305.689
305.778
305.873
305.978
306.094
306.224
306.373
306.547
306.751
306.992
307.247
304.225
304.212
304.143
304.053
303.956
303.861
303.77
303.683
303.601
303.524
303.451
303.382
303.316
303.254
303.195
303.139
303.086
303.035
302.986
302.94
302.896
302.854
302.814
302.776
302.74
302.705
302.671
302.639
302.609
302.58
302.552
302.525
302.5
302.475
302.452
302.429
302.408
302.387
302.367
302.348
302.33
302.313
302.296
302.28
302.265
302.25
302.236
302.222
302.209
302.197
302.185
302.174
302.163
302.152
302.142
302.133
302.124
302.115
302.107
302.1
302.092
302.085
302.079
302.073
302.067
302.062
302.057
302.052
302.048
302.044
302.041
302.038
302.036
302.033
302.032
302.03
302.029
302.028
302.028
302.028
302.029
302.029
302.031
302.032
302.034
302.037
302.039
302.042
302.046
302.05
302.054
302.058
302.063
302.069
302.074
302.08
302.087
302.094
302.101
302.109
302.117
302.125
302.134
302.143
302.152
302.162
302.173
302.183
302.195
302.206
302.218
302.23
302.243
302.256
302.27
302.284
302.298
302.313
302.328
302.344
302.36
302.377
302.394
302.412
302.43
302.449
302.468
302.488
302.508
302.529
302.55
302.572
302.595
302.618
302.642
302.666
302.691
302.717
302.743
302.77
302.798
302.826
302.855
302.885
302.915
302.947
302.979
303.012
303.046
303.08
303.115
303.152
303.188
303.226
303.265
303.304
303.345
303.386
303.428
303.471
303.515
303.559
303.605
303.651
303.698
303.746
303.795
303.844
303.895
303.946
303.997
304.05
304.103
304.158
304.212
304.268
304.324
304.381
304.439
304.498
304.557
304.618
304.679
304.742
304.806
304.872
304.939
305.008
305.08
305.155
305.234
305.317
305.406
305.501
305.604
305.715
305.835
305.96
306.085
306.194
304.225
304.212
304.143
304.053
303.956
303.861
303.77
303.683
303.601
303.524
303.451
303.382
303.316
303.254
303.195
303.139
303.086
303.035
302.986
302.94
302.896
302.854
302.814
302.776
302.74
302.705
302.671
302.639
302.609
302.58
302.552
302.525
302.5
302.475
302.452
302.429
302.408
302.387
302.367
302.348
302.33
302.313
302.296
302.28
302.265
302.25
302.236
302.222
302.209
302.197
302.185
302.174
302.163
302.152
302.142
302.133
302.124
302.115
302.107
302.1
302.092
302.085
302.079
302.073
302.067
302.062
302.057
302.052
302.048
302.044
302.041
302.038
302.036
302.033
302.032
302.03
302.029
302.028
302.028
302.028
302.029
302.029
302.031
302.032
302.034
302.037
302.039
302.042
302.046
302.05
302.054
302.058
302.063
302.069
302.074
302.08
302.087
302.094
302.101
302.109
302.117
302.125
302.134
302.143
302.152
302.162
302.173
302.183
302.195
302.206
302.218
302.23
302.243
302.256
302.27
302.284
302.298
302.313
302.328
302.344
302.36
302.377
302.394
302.412
302.43
302.449
302.468
302.488
302.508
302.529
302.55
302.572
302.595
302.618
302.642
302.666
302.691
302.717
302.743
302.77
302.798
302.826
302.855
302.885
302.915
302.947
302.979
303.012
303.046
303.08
303.115
303.152
303.188
303.226
303.265
303.304
303.345
303.386
303.428
303.471
303.515
303.559
303.605
303.651
303.698
303.746
303.795
303.844
303.895
303.946
303.997
304.05
304.103
304.158
304.212
304.268
304.324
304.381
304.439
304.498
304.557
304.618
304.679
304.742
304.806
304.872
304.939
305.008
305.08
305.155
305.234
305.317
305.406
305.501
305.604
305.715
305.835
305.96
306.085
306.193
303.68
303.688
303.654
303.599
303.533
303.463
303.392
303.322
303.254
303.188
303.124
303.064
303.006
302.95
302.897
302.846
302.798
302.751
302.707
302.665
302.624
302.585
302.548
302.512
302.478
302.446
302.415
302.385
302.356
302.329
302.302
302.277
302.253
302.23
302.208
302.186
302.166
302.146
302.127
302.109
302.092
302.075
302.059
302.044
302.029
302.015
302.001
301.988
301.975
301.963
301.952
301.94
301.93
301.919
301.91
301.9
301.891
301.883
301.874
301.867
301.859
301.852
301.845
301.839
301.833
301.828
301.822
301.817
301.813
301.809
301.805
301.802
301.798
301.796
301.793
301.791
301.79
301.788
301.787
301.787
301.787
301.787
301.787
301.788
301.789
301.791
301.793
301.795
301.798
301.801
301.804
301.808
301.812
301.816
301.821
301.826
301.832
301.838
301.844
301.851
301.858
301.865
301.873
301.881
301.89
301.899
301.908
301.918
301.928
301.938
301.949
301.961
301.973
301.985
301.997
302.01
302.024
302.038
302.052
302.067
302.082
302.098
302.114
302.131
302.148
302.166
302.184
302.203
302.222
302.242
302.263
302.284
302.306
302.328
302.351
302.374
302.398
302.423
302.448
302.475
302.501
302.529
302.557
302.586
302.616
302.646
302.678
302.71
302.743
302.776
302.811
302.846
302.882
302.919
302.957
302.995
303.034
303.075
303.116
303.158
303.2
303.244
303.288
303.333
303.379
303.426
303.473
303.522
303.571
303.62
303.671
303.722
303.773
303.826
303.879
303.932
303.987
304.042
304.097
304.153
304.21
304.268
304.326
304.385
304.445
304.506
304.569
304.632
304.698
304.765
304.835
304.907
304.982
305.06
305.141
305.224
305.307
305.384
305.45
305.493
303.68
303.688
303.654
303.599
303.533
303.463
303.392
303.322
303.254
303.188
303.124
303.064
303.006
302.95
302.897
302.846
302.798
302.751
302.707
302.665
302.624
302.585
302.548
302.512
302.478
302.446
302.415
302.385
302.356
302.329
302.302
302.277
302.253
302.23
302.208
302.186
302.166
302.146
302.127
302.109
302.092
302.075
302.059
302.044
302.029
302.015
302.001
301.988
301.975
301.963
301.952
301.94
301.93
301.919
301.91
301.9
301.891
301.883
301.874
301.867
301.859
301.852
301.845
301.839
301.833
301.828
301.822
301.817
301.813
301.809
301.805
301.802
301.798
301.796
301.793
301.791
301.79
301.788
301.787
301.787
301.787
301.787
301.787
301.788
301.789
301.791
301.793
301.795
301.798
301.801
301.804
301.808
301.812
301.816
301.821
301.826
301.832
301.838
301.844
301.851
301.858
301.865
301.873
301.881
301.89
301.899
301.908
301.918
301.928
301.938
301.949
301.961
301.973
301.985
301.997
302.01
302.024
302.038
302.052
302.067
302.082
302.098
302.114
302.131
302.148
302.166
302.184
302.203
302.222
302.242
302.263
302.284
302.306
302.328
302.351
302.374
302.398
302.423
302.448
302.475
302.501
302.529
302.557
302.586
302.616
302.646
302.678
302.71
302.743
302.776
302.811
302.846
302.882
302.919
302.957
302.995
303.034
303.075
303.116
303.158
303.2
303.244
303.288
303.333
303.379
303.426
303.473
303.522
303.571
303.62
303.671
303.722
303.773
303.826
303.879
303.932
303.987
304.042
304.097
304.153
304.21
304.268
304.326
304.385
304.445
304.506
304.569
304.632
304.698
304.765
304.835
304.907
304.982
305.06
305.141
305.224
305.307
305.384
305.45
305.493
303.284
303.294
303.276
303.24
303.193
303.14
303.084
303.026
302.969
302.913
302.858
302.805
302.753
302.703
302.655
302.609
302.564
302.522
302.481
302.441
302.403
302.367
302.332
302.299
302.267
302.236
302.207
302.179
302.152
302.126
302.101
302.077
302.054
302.032
302.01
301.99
301.97
301.952
301.934
301.916
301.899
301.883
301.868
301.853
301.838
301.825
301.811
301.799
301.786
301.774
301.763
301.752
301.741
301.731
301.722
301.712
301.703
301.695
301.686
301.679
301.671
301.664
301.657
301.651
301.644
301.639
301.633
301.628
301.623
301.619
301.615
301.611
301.608
301.604
301.602
301.599
301.597
301.595
301.594
301.593
301.592
301.592
301.592
301.592
301.593
301.594
301.595
301.597
301.599
301.601
301.604
301.607
301.611
301.615
301.619
301.623
301.628
301.633
301.639
301.645
301.651
301.658
301.665
301.673
301.681
301.689
301.698
301.707
301.716
301.726
301.736
301.747
301.758
301.769
301.781
301.794
301.806
301.82
301.833
301.848
301.862
301.877
301.893
301.909
301.925
301.943
301.96
301.978
301.997
302.016
302.036
302.056
302.077
302.099
302.121
302.144
302.168
302.192
302.217
302.242
302.268
302.295
302.323
302.351
302.38
302.41
302.441
302.472
302.504
302.537
302.571
302.605
302.641
302.677
302.714
302.752
302.79
302.83
302.87
302.911
302.953
302.995
303.039
303.083
303.128
303.174
303.22
303.267
303.315
303.363
303.413
303.462
303.513
303.563
303.615
303.667
303.719
303.772
303.826
303.88
303.934
303.989
304.044
304.1
304.157
304.214
304.272
304.331
304.39
304.451
304.513
304.575
304.639
304.703
304.767
304.83
304.887
304.937
304.972
304.988
303.284
303.294
303.276
303.24
303.193
303.14
303.084
303.026
302.969
302.913
302.858
302.805
302.753
302.703
302.655
302.609
302.564
302.522
302.481
302.441
302.403
302.367
302.332
302.299
302.267
302.236
302.207
302.179
302.152
302.126
302.101
302.077
302.054
302.032
302.01
301.99
301.97
301.952
301.934
301.916
301.899
301.883
301.868
301.853
301.838
301.825
301.811
301.799
301.786
301.774
301.763
301.752
301.741
301.731
301.722
301.712
301.703
301.695
301.686
301.679
301.671
301.664
301.657
301.651
301.644
301.639
301.633
301.628
301.623
301.619
301.615
301.611
301.608
301.604
301.602
301.599
301.597
301.595
301.594
301.593
301.592
301.592
301.592
301.592
301.593
301.594
301.595
301.597
301.599
301.601
301.604
301.607
301.611
301.615
301.619
301.623
301.628
301.633
301.639
301.645
301.651
301.658
301.665
301.673
301.681
301.689
301.698
301.707
301.716
301.726
301.736
301.747
301.758
301.769
301.781
301.794
301.806
301.82
301.833
301.848
301.862
301.877
301.893
301.909
301.925
301.943
301.96
301.978
301.997
302.016
302.036
302.056
302.077
302.099
302.121
302.144
302.168
302.192
302.217
302.242
302.268
302.295
302.323
302.351
302.38
302.41
302.441
302.472
302.504
302.537
302.571
302.605
302.641
302.677
302.714
302.752
302.79
302.83
302.87
302.911
302.953
302.995
303.039
303.083
303.128
303.174
303.22
303.267
303.315
303.363
303.413
303.462
303.513
303.563
303.615
303.667
303.719
303.772
303.826
303.88
303.934
303.989
304.044
304.1
304.157
304.214
304.272
304.331
304.39
304.451
304.513
304.575
304.639
304.703
304.767
304.83
304.887
304.937
304.972
304.988
302.972
302.98
302.968
302.943
302.908
302.867
302.821
302.774
302.726
302.677
302.629
302.582
302.536
302.491
302.448
302.405
302.364
302.325
302.287
302.25
302.215
302.181
302.149
302.117
302.087
302.058
302.03
302.003
301.978
301.953
301.929
301.906
301.884
301.863
301.843
301.823
301.804
301.786
301.769
301.752
301.736
301.72
301.705
301.691
301.677
301.663
301.65
301.638
301.626
301.614
301.603
301.592
301.581
301.571
301.562
301.552
301.544
301.535
301.527
301.519
301.511
301.504
301.497
301.491
301.484
301.478
301.473
301.467
301.462
301.458
301.453
301.449
301.446
301.442
301.439
301.437
301.434
301.432
301.43
301.429
301.428
301.427
301.427
301.427
301.427
301.428
301.428
301.43
301.431
301.433
301.436
301.438
301.441
301.444
301.448
301.452
301.457
301.461
301.467
301.472
301.478
301.484
301.491
301.498
301.505
301.513
301.521
301.529
301.538
301.548
301.557
301.567
301.578
301.589
301.6
301.612
301.624
301.637
301.65
301.664
301.678
301.692
301.707
301.723
301.739
301.756
301.773
301.79
301.809
301.827
301.847
301.866
301.887
301.908
301.93
301.952
301.975
301.999
302.023
302.048
302.074
302.1
302.127
302.155
302.183
302.213
302.243
302.274
302.305
302.338
302.371
302.405
302.439
302.475
302.511
302.548
302.586
302.625
302.665
302.705
302.746
302.788
302.831
302.874
302.918
302.963
303.008
303.054
303.101
303.148
303.196
303.245
303.294
303.343
303.393
303.444
303.494
303.546
303.597
303.649
303.701
303.753
303.806
303.859
303.913
303.966
304.02
304.074
304.129
304.183
304.238
304.293
304.347
304.4
304.451
304.499
304.541
304.573
304.593
304.597
302.972
302.98
302.968
302.943
302.908
302.867
302.821
302.774
302.726
302.677
302.629
302.582
302.536
302.491
302.448
302.405
302.364
302.325
302.287
302.25
302.215
302.181
302.149
302.117
302.087
302.058
302.03
302.003
301.978
301.953
301.929
301.906
301.884
301.863
301.843
301.823
301.804
301.786
301.769
301.752
301.736
301.72
301.705
301.691
301.677
301.663
301.65
301.638
301.626
301.614
301.603
301.592
301.581
301.571
301.562
301.552
301.544
301.535
301.527
301.519
301.511
301.504
301.497
301.491
301.484
301.478
301.473
301.467
301.462
301.458
301.453
301.449
301.446
301.442
301.439
301.437
301.434
301.432
301.43
301.429
301.428
301.427
301.427
301.427
301.427
301.428
301.428
301.43
301.431
301.433
301.436
301.438
301.441
301.444
301.448
301.452
301.457
301.461
301.467
301.472
301.478
301.484
301.491
301.498
301.505
301.513
301.521
301.529
301.538
301.548
301.557
301.567
301.578
301.589
301.6
301.612
301.624
301.637
301.65
301.664
301.678
301.692
301.707
301.723
301.739
301.756
301.773
301.79
301.809
301.827
301.847
301.866
301.887
301.908
301.93
301.952
301.975
301.999
302.023
302.048
302.074
302.1
302.127
302.155
302.183
302.213
302.243
302.274
302.305
302.338
302.371
302.405
302.439
302.475
302.511
302.548
302.586
302.625
302.665
302.705
302.746
302.788
302.831
302.874
302.918
302.963
303.008
303.054
303.101
303.148
303.196
303.245
303.294
303.343
303.393
303.444
303.494
303.546
303.597
303.649
303.701
303.753
303.806
303.859
303.913
303.966
304.02
304.074
304.129
304.183
304.238
304.293
304.347
304.4
304.451
304.499
304.541
304.573
304.593
304.597
302.713
302.718
302.709
302.689
302.662
302.629
302.592
302.553
302.512
302.47
302.427
302.386
302.344
302.304
302.264
302.225
302.188
302.151
302.116
302.082
302.049
302.017
301.986
301.957
301.928
301.901
301.874
301.849
301.824
301.801
301.778
301.756
301.735
301.715
301.695
301.676
301.658
301.641
301.624
301.607
301.592
301.577
301.562
301.548
301.534
301.521
301.508
301.496
301.484
301.473
301.462
301.451
301.441
301.431
301.421
301.412
301.403
301.395
301.386
301.379
301.371
301.364
301.357
301.35
301.344
301.338
301.332
301.326
301.321
301.317
301.312
301.308
301.304
301.3
301.297
301.294
301.291
301.289
301.287
301.285
301.284
301.283
301.282
301.282
301.282
301.282
301.283
301.283
301.285
301.286
301.288
301.29
301.293
301.296
301.299
301.303
301.307
301.311
301.316
301.321
301.326
301.332
301.338
301.345
301.352
301.359
301.367
301.375
301.383
301.392
301.401
301.411
301.421
301.432
301.443
301.454
301.466
301.478
301.491
301.504
301.518
301.532
301.546
301.562
301.577
301.593
301.61
301.627
301.645
301.663
301.682
301.701
301.722
301.742
301.763
301.785
301.808
301.831
301.855
301.879
301.905
301.931
301.957
301.985
302.013
302.042
302.071
302.101
302.133
302.164
302.197
302.23
302.265
302.3
302.335
302.372
302.409
302.448
302.486
302.526
302.566
302.608
302.649
302.692
302.735
302.779
302.824
302.869
302.915
302.961
303.008
303.055
303.103
303.151
303.2
303.249
303.298
303.347
303.397
303.447
303.497
303.547
303.597
303.648
303.698
303.748
303.798
303.848
303.898
303.948
303.996
304.044
304.091
304.135
304.177
304.214
304.245
304.268
304.279
304.278
302.713
302.718
302.709
302.689
302.662
302.629
302.592
302.553
302.512
302.47
302.427
302.386
302.344
302.304
302.264
302.225
302.188
302.151
302.116
302.082
302.049
302.017
301.986
301.957
301.928
301.901
301.874
301.849
301.824
301.801
301.778
301.756
301.735
301.715
301.695
301.676
301.658
301.641
301.624
301.607
301.592
301.577
301.562
301.548
301.534
301.521
301.508
301.496
301.484
301.473
301.462
301.451
301.441
301.431
301.421
301.412
301.403
301.395
301.386
301.379
301.371
301.364
301.357
301.35
301.344
301.338
301.332
301.326
301.321
301.317
301.312
301.308
301.304
301.3
301.297
301.294
301.291
301.289
301.287
301.285
301.284
301.283
301.282
301.282
301.282
301.282
301.283
301.283
301.285
301.286
301.288
301.29
301.293
301.296
301.299
301.303
301.307
301.311
301.316
301.321
301.326
301.332
301.338
301.345
301.352
301.359
301.367
301.375
301.383
301.392
301.401
301.411
301.421
301.432
301.443
301.454
301.466
301.478
301.491
301.504
301.518
301.532
301.546
301.562
301.577
301.593
301.61
301.627
301.645
301.663
301.682
301.701
301.722
301.742
301.763
301.785
301.808
301.831
301.855
301.879
301.905
301.931
301.957
301.985
302.013
302.042
302.071
302.101
302.133
302.164
302.197
302.23
302.265
302.3
302.335
302.372
302.409
302.448
302.486
302.526
302.566
302.608
302.649
302.692
302.735
302.779
302.824
302.869
302.915
302.961
303.008
303.055
303.103
303.151
303.2
303.249
303.298
303.347
303.397
303.447
303.497
303.547
303.597
303.648
303.698
303.748
303.798
303.848
303.898
303.948
303.996
304.044
304.091
304.135
304.177
304.214
304.245
304.268
304.279
304.278
302.49
302.492
302.484
302.469
302.446
302.419
302.388
302.355
302.319
302.283
302.245
302.208
302.171
302.134
302.098
302.062
302.028
301.994
301.961
301.929
301.898
301.868
301.84
301.812
301.785
301.759
301.733
301.709
301.686
301.663
301.641
301.62
301.6
301.581
301.562
301.544
301.526
301.509
301.493
301.477
301.462
301.447
301.433
301.419
301.406
301.393
301.381
301.369
301.357
301.346
301.335
301.324
301.314
301.304
301.295
301.286
301.277
301.268
301.26
301.252
301.245
301.237
301.23
301.224
301.217
301.211
301.205
301.2
301.195
301.19
301.185
301.181
301.176
301.173
301.169
301.166
301.163
301.161
301.158
301.156
301.155
301.153
301.152
301.152
301.151
301.151
301.152
301.152
301.153
301.154
301.156
301.158
301.16
301.163
301.166
301.169
301.173
301.177
301.181
301.186
301.191
301.196
301.202
301.208
301.215
301.222
301.229
301.237
301.245
301.253
301.262
301.272
301.281
301.291
301.302
301.313
301.324
301.336
301.349
301.361
301.375
301.388
301.403
301.417
301.433
301.448
301.465
301.482
301.499
301.517
301.535
301.554
301.574
301.594
301.615
301.637
301.659
301.682
301.705
301.729
301.754
301.78
301.806
301.833
301.86
301.889
301.918
301.948
301.979
302.01
302.042
302.075
302.109
302.143
302.179
302.215
302.251
302.289
302.327
302.366
302.406
302.447
302.488
302.53
302.572
302.615
302.659
302.703
302.748
302.793
302.839
302.885
302.932
302.979
303.026
303.074
303.121
303.169
303.217
303.265
303.313
303.362
303.409
303.457
303.505
303.552
303.599
303.645
303.691
303.735
303.779
303.821
303.861
303.899
303.934
303.963
303.987
304.004
304.011
304.008
302.489
302.492
302.484
302.469
302.446
302.419
302.388
302.355
302.319
302.283
302.245
302.208
302.171
302.134
302.098
302.062
302.028
301.994
301.961
301.929
301.898
301.868
301.84
301.812
301.785
301.759
301.733
301.709
301.686
301.663
301.641
301.62
301.6
301.581
301.562
301.544
301.526
301.509
301.493
301.477
301.462
301.447
301.433
301.419
301.406
301.393
301.381
301.369
301.357
301.346
301.335
301.324
301.314
301.304
301.295
301.286
301.277
301.268
301.26
301.252
301.245
301.237
301.23
301.224
301.217
301.211
301.205
301.2
301.195
301.19
301.185
301.181
301.176
301.173
301.169
301.166
301.163
301.161
301.158
301.156
301.155
301.153
301.152
301.152
301.151
301.151
301.152
301.152
301.153
301.154
301.156
301.158
301.16
301.163
301.166
301.169
301.173
301.177
301.181
301.186
301.191
301.196
301.202
301.208
301.215
301.222
301.229
301.237
301.245
301.253
301.262
301.272
301.281
301.291
301.302
301.313
301.324
301.336
301.349
301.361
301.375
301.388
301.403
301.417
301.433
301.448
301.465
301.482
301.499
301.517
301.535
301.554
301.574
301.594
301.615
301.637
301.659
301.682
301.705
301.729
301.754
301.78
301.806
301.833
301.86
301.889
301.918
301.948
301.979
302.01
302.042
302.075
302.109
302.143
302.179
302.215
302.251
302.289
302.327
302.366
302.406
302.447
302.488
302.53
302.572
302.615
302.659
302.703
302.748
302.793
302.839
302.885
302.932
302.979
303.026
303.074
303.121
303.169
303.217
303.265
303.313
303.362
303.409
303.457
303.505
303.552
303.599
303.645
303.691
303.735
303.779
303.821
303.861
303.899
303.933
303.963
303.987
304.004
304.011
304.008
302.293
302.293
302.286
302.272
302.254
302.231
302.204
302.175
302.144
302.112
302.079
302.045
302.012
301.978
301.945
301.912
301.88
301.849
301.818
301.789
301.76
301.732
301.704
301.678
301.652
301.628
301.604
301.581
301.558
301.537
301.516
301.496
301.476
301.458
301.439
301.422
301.405
301.389
301.373
301.357
301.343
301.328
301.315
301.301
301.288
301.276
301.263
301.252
301.24
301.229
301.219
301.208
301.198
301.189
301.179
301.17
301.161
301.153
301.145
301.137
301.129
301.122
301.115
301.108
301.102
301.095
301.089
301.084
301.078
301.073
301.069
301.064
301.06
301.056
301.052
301.049
301.046
301.043
301.041
301.039
301.037
301.035
301.034
301.033
301.032
301.032
301.032
301.032
301.033
301.034
301.035
301.037
301.039
301.041
301.044
301.047
301.05
301.054
301.058
301.063
301.067
301.072
301.078
301.084
301.09
301.097