/*--------------------------------*- C++ -*----------------------------------*\
  =========                 |
  \\      /  F ield         | OpenFOAM: The Open Source CFD Toolbox
   \\    /   O peration     | Website:  https://openfoam.org
    \\  /    A nd           | Version:  8
     \\/     M anipulation  |
\*---------------------------------------------------------------------------*/
FoamFile
{
    version     2.0;
    format      ascii;
    class       volVectorField;
    location    "3500";
    object      U;
}
// * * * * * * * * * * * * * * * * * * * * * * * * * * * * * * * * * * * * * //

dimensions      [0 1 -1 0 0 0 0];

internalField   nonuniform List<vector> 
46000
(
(0.00151485 6.50569e-07 -0.00154898)
(0.00786531 2.48798e-07 -0.00457143)
(0.0146449 1.89388e-07 -0.00449278)
(0.0194507 1.36187e-07 -0.00289169)
(0.0217925 1.08066e-07 -0.00115349)
(0.0219283 9.24701e-08 0.000366177)
(0.0202125 8.31005e-08 0.00159684)
(0.0170237 7.83265e-08 0.00255761)
(0.0126764 7.53669e-08 0.00329733)
(0.00742818 7.28078e-08 0.00386473)
(0.00148299 7.02817e-08 0.0042946)
(-0.00500849 6.72715e-08 0.00460756)
(-0.0118889 6.43769e-08 0.00482884)
(-0.0190759 6.21712e-08 0.00498534)
(-0.0264826 6.05426e-08 0.00509114)
(-0.034046 5.9452e-08 0.00515668)
(-0.0417135 5.87445e-08 0.00518997)
(-0.0494423 5.82225e-08 0.00519721)
(-0.0571969 5.77318e-08 0.00518321)
(-0.0649475 5.72088e-08 0.00515177)
(-0.072669 5.66318e-08 0.00510586)
(-0.0803401 5.59589e-08 0.00504785)
(-0.0879423 5.51634e-08 0.00497965)
(-0.0954596 5.4247e-08 0.00490275)
(-0.102878 5.32063e-08 0.00481839)
(-0.110185 5.20614e-08 0.00472755)
(-0.117369 5.08323e-08 0.00463105)
(-0.124421 4.95623e-08 0.00452955)
(-0.131331 4.82565e-08 0.00442361)
(-0.138092 4.69465e-08 0.00431369)
(-0.144694 4.56238e-08 0.00420018)
(-0.151132 4.43219e-08 0.00408342)
(-0.157399 4.30356e-08 0.0039637)
(-0.163489 4.17699e-08 0.00384128)
(-0.169396 4.05339e-08 0.00371639)
(-0.175114 3.93318e-08 0.00358925)
(-0.18064 3.81669e-08 0.00346005)
(-0.185969 3.70432e-08 0.00332898)
(-0.191095 3.59641e-08 0.00319621)
(-0.196017 3.49303e-08 0.00306192)
(-0.200729 3.39394e-08 0.00292628)
(-0.205229 3.29871e-08 0.00278944)
(-0.209514 3.2076e-08 0.00265159)
(-0.213582 3.11992e-08 0.00251287)
(-0.21743 3.03577e-08 0.00237346)
(-0.221056 2.95414e-08 0.00223352)
(-0.22446 2.87452e-08 0.00209322)
(-0.227639 2.79651e-08 0.00195272)
(-0.230593 2.71911e-08 0.0018122)
(-0.233321 2.64147e-08 0.00167182)
(-0.235824 2.56443e-08 0.00153174)
(-0.2381 2.4864e-08 0.00139214)
(-0.240152 2.40798e-08 0.00125318)
(-0.241979 2.32965e-08 0.00111503)
(-0.243583 2.2515e-08 0.000977854)
(-0.244964 2.17411e-08 0.000841821)
(-0.246126 2.09823e-08 0.000707093)
(-0.24707 2.02303e-08 0.000573827)
(-0.247798 1.9495e-08 0.000442167)
(-0.248313 1.87665e-08 0.000312216)
(-0.248618 1.80496e-08 0.000184011)
(-0.248717 1.73637e-08 5.75516e-05)
(-0.248612 1.67094e-08 -6.66585e-05)
(-0.248307 1.60535e-08 -0.000188235)
(-0.247808 1.54126e-08 -0.00030733)
(-0.247116 1.47843e-08 -0.000423932)
(-0.246238 1.4171e-08 -0.000537943)
(-0.245177 1.3576e-08 -0.000649244)
(-0.243938 1.3001e-08 -0.000757722)
(-0.242526 1.24468e-08 -0.000863277)
(-0.240947 1.19177e-08 -0.000965815)
(-0.239205 1.13994e-08 -0.00106526)
(-0.237306 1.09035e-08 -0.00116152)
(-0.235256 1.04326e-08 -0.00125455)
(-0.23306 9.98675e-09 -0.00134427)
(-0.230725 9.55418e-09 -0.00143065)
(-0.228254 9.13992e-09 -0.00151363)
(-0.225656 8.74148e-09 -0.00159317)
(-0.222935 8.363e-09 -0.00166924)
(-0.220098 8.002e-09 -0.00174182)
(-0.21715 7.66015e-09 -0.00181089)
(-0.214098 7.32744e-09 -0.00187644)
(-0.210948 7.01803e-09 -0.00193846)
(-0.207705 6.72109e-09 -0.00199696)
(-0.204376 6.43997e-09 -0.00205194)
(-0.200966 6.18464e-09 -0.00210342)
(-0.197482 5.93597e-09 -0.00215141)
(-0.193928 5.7106e-09 -0.00219594)
(-0.190312 5.50853e-09 -0.00223704)
(-0.186638 5.32227e-09 -0.00227476)
(-0.182913 5.16099e-09 -0.00230912)
(-0.179141 5.02301e-09 -0.00234018)
(-0.175328 4.90836e-09 -0.00236798)
(-0.17148 4.82035e-09 -0.0023926)
(-0.167601 4.75066e-09 -0.00241407)
(-0.163696 4.71263e-09 -0.00243247)
(-0.159771 4.69959e-09 -0.00244788)
(-0.15583 4.71489e-09 -0.00246035)
(-0.151878 4.75686e-09 -0.00246996)
(-0.147919 4.82385e-09 -0.0024768)
(-0.143957 4.92251e-09 -0.00248094)
(-0.139997 5.05954e-09 -0.00248247)
(-0.136043 5.20992e-09 -0.00248148)
(-0.132099 5.40202e-09 -0.00247804)
(-0.128167 5.62416e-09 -0.00247226)
(-0.124253 5.87969e-09 -0.00246422)
(-0.120358 6.17028e-09 -0.00245401)
(-0.116487 6.49261e-09 -0.00244172)
(-0.112642 6.84836e-09 -0.00242745)
(-0.108827 7.24588e-09 -0.00241128)
(-0.105043 7.67517e-09 -0.00239331)
(-0.101294 8.14624e-09 -0.00237363)
(-0.0975823 8.65578e-09 -0.00235233)
(-0.0939095 9.20379e-09 -0.00232948)
(-0.0902782 9.78696e-09 -0.00230519)
(-0.0866904 1.04186e-08 -0.00227952)
(-0.0831478 1.10872e-08 -0.00225256)
(-0.0796523 1.18092e-08 -0.00222438)
(-0.0762054 1.25615e-08 -0.00219506)
(-0.0728088 1.33607e-08 -0.00216466)
(-0.0694638 1.42068e-08 -0.00213326)
(-0.0661717 1.50965e-08 -0.0021009)
(-0.0629337 1.60248e-08 -0.00206764)
(-0.0597511 1.69984e-08 -0.00203354)
(-0.0566248 1.80206e-08 -0.00199864)
(-0.0535559 1.90815e-08 -0.00196297)
(-0.0505453 2.01928e-08 -0.00192658)
(-0.047594 2.13528e-08 -0.00188948)
(-0.0447029 2.25498e-08 -0.00185171)
(-0.0418726 2.38006e-08 -0.00181327)
(-0.0391042 2.50918e-08 -0.00177418)
(-0.0363985 2.64301e-08 -0.00173445)
(-0.0337561 2.78122e-08 -0.00169407)
(-0.031178 2.92331e-08 -0.00165304)
(-0.0286651 3.07012e-08 -0.00161134)
(-0.0262181 3.22166e-08 -0.00156896)
(-0.023838 3.37725e-08 -0.00152588)
(-0.0215257 3.53789e-08 -0.00148208)
(-0.0192822 3.70227e-08 -0.00143752)
(-0.0171086 3.87104e-08 -0.00139218)
(-0.0150059 4.04521e-08 -0.00134602)
(-0.0129752 4.22312e-08 -0.00129902)
(-0.0110178 4.40509e-08 -0.00125112)
(-0.00913487 4.59349e-08 -0.0012023)
(-0.00732776 4.78596e-08 -0.00115252)
(-0.0055978 4.98184e-08 -0.00110177)
(-0.00394643 5.18247e-08 -0.00105)
(-0.00237498 5.38786e-08 -0.000997308)
(-0.000885064 5.59734e-08 -0.000943973)
(0.000523339 5.79047e-08 -0.00088918)
(0.00184638 5.97463e-08 -0.000832675)
(0.00308371 6.17394e-08 -0.000775121)
(0.0042333 6.38137e-08 -0.00071663)
(0.00529372 6.5949e-08 -0.000657243)
(0.00626348 6.81557e-08 -0.000597004)
(0.00714118 7.04303e-08 -0.000535968)
(0.00792548 7.27628e-08 -0.000474203)
(0.00861518 7.51801e-08 -0.000411794)
(0.00920918 7.76656e-08 -0.000348843)
(0.00970654 8.02192e-08 -0.000285473)
(0.0101065 8.2841e-08 -0.000221828)
(0.0104086 8.55346e-08 -0.000158075)
(0.0106124 8.83031e-08 -9.44073e-05)
(0.0107182 9.10965e-08 -3.10401e-05)
(0.0107261 9.40483e-08 3.18375e-05)
(0.0106369 9.71499e-08 9.40035e-05)
(0.0104515 1.00313e-07 0.00015517)
(0.0101714 1.03563e-07 0.000215038)
(0.00979859 1.06894e-07 0.000273277)
(0.00933542 1.10331e-07 0.000329529)
(0.00878493 1.13844e-07 0.000383406)
(0.00815072 1.1744e-07 0.000434492)
(0.00743707 1.21094e-07 0.000482342)
(0.00664894 1.24785e-07 0.000526475)
(0.00579208 1.28484e-07 0.000566377)
(0.00487303 1.32205e-07 0.000601495)
(0.00389923 1.35899e-07 0.000631235)
(0.0028791 1.39564e-07 0.000654957)
(0.00182198 1.43239e-07 0.000671971)
(0.000738891 1.46842e-07 0.000681514)
(-0.000359507 1.49932e-07 0.000682296)
(-0.00145822 1.52694e-07 0.000673217)
(-0.00254311 1.55715e-07 0.000653672)
(-0.00359779 1.58935e-07 0.000622962)
(-0.00460384 1.62286e-07 0.000579922)
(-0.00554107 1.65756e-07 0.000522994)
(-0.00638665 1.69311e-07 0.00045076)
(-0.0071153 1.72898e-07 0.000361615)
(-0.00769883 1.76625e-07 0.000253874)
(-0.00810606 1.80536e-07 0.000125897)
(-0.00830297 1.84873e-07 -2.36716e-05)
(-0.00825311 1.89583e-07 -0.000194897)
(-0.00792009 1.94973e-07 -0.00038589)
(-0.00727076 2.01111e-07 -0.000590853)
(-0.00628219 2.07681e-07 -0.000795261)
(-0.00495804 2.14315e-07 -0.000967123)
(-0.0033568 2.21416e-07 -0.00104078)
(-0.0016526 2.29017e-07 -0.000886332)
(-0.000226021 2.56075e-07 -0.000355055)
(0.000179397 1.14337e-07 0.000190991)
(0.00151335 6.50562e-07 -0.00155063)
(0.00786403 2.48795e-07 -0.00457283)
(0.0146444 1.89385e-07 -0.00449363)
(0.0194503 1.36185e-07 -0.00289234)
(0.0217922 1.08065e-07 -0.00115404)
(0.0219281 9.24691e-08 0.000365682)
(0.0202123 8.30997e-08 0.00159639)
(0.0170235 7.83258e-08 0.0025572)
(0.0126762 7.53662e-08 0.00329695)
(0.00742805 7.28072e-08 0.00386438)
(0.00148289 7.02811e-08 0.00429427)
(-0.00500857 6.7271e-08 0.00460726)
(-0.011889 6.43764e-08 0.00482857)
(-0.0190759 6.21707e-08 0.00498508)
(-0.0264826 6.05422e-08 0.0050909)
(-0.0340459 5.94516e-08 0.00515645)
(-0.0417134 5.87441e-08 0.00518976)
(-0.0494422 5.82221e-08 0.00519701)
(-0.0571968 5.77314e-08 0.00518302)
(-0.0649474 5.72085e-08 0.00515158)
(-0.0726689 5.66315e-08 0.00510568)
(-0.08034 5.59586e-08 0.00504769)
(-0.0879421 5.51631e-08 0.00497949)
(-0.0954594 5.42467e-08 0.0049026)
(-0.102878 5.32061e-08 0.00481824)
(-0.110185 5.20612e-08 0.00472741)
(-0.117369 5.08321e-08 0.00463091)
(-0.124421 4.95621e-08 0.00452942)
(-0.131331 4.82563e-08 0.00442348)
(-0.138091 4.69463e-08 0.00431356)
(-0.144694 4.56236e-08 0.00420005)
(-0.151132 4.43217e-08 0.00408329)
(-0.157399 4.30354e-08 0.00396358)
(-0.163488 4.17697e-08 0.00384116)
(-0.169395 4.05338e-08 0.00371628)
(-0.175114 3.93317e-08 0.00358914)
(-0.18064 3.81667e-08 0.00345994)
(-0.185968 3.70431e-08 0.00332886)
(-0.191095 3.59639e-08 0.0031961)
(-0.196016 3.49302e-08 0.00306181)
(-0.200728 3.39393e-08 0.00292616)
(-0.205229 3.2987e-08 0.00278933)
(-0.209514 3.20758e-08 0.00265147)
(-0.213582 3.11991e-08 0.00251275)
(-0.21743 3.03576e-08 0.00237334)
(-0.221056 2.95413e-08 0.00223341)
(-0.224459 2.87451e-08 0.00209311)
(-0.227639 2.79651e-08 0.00195261)
(-0.230592 2.7191e-08 0.00181208)
(-0.233321 2.64146e-08 0.0016717)
(-0.235823 2.56442e-08 0.00153162)
(-0.2381 2.4864e-08 0.00139202)
(-0.240151 2.40797e-08 0.00125306)
(-0.241978 2.32964e-08 0.00111491)
(-0.243582 2.25149e-08 0.000977733)
(-0.244964 2.17411e-08 0.000841699)
(-0.246126 2.09823e-08 0.00070697)
(-0.247069 2.02302e-08 0.000573703)
(-0.247797 1.9495e-08 0.000442042)
(-0.248313 1.87664e-08 0.00031209)
(-0.248618 1.80496e-08 0.000183884)
(-0.248716 1.73636e-08 5.74234e-05)
(-0.248611 1.67093e-08 -6.67875e-05)
(-0.248307 1.60534e-08 -0.000188365)
(-0.247807 1.54126e-08 -0.000307461)
(-0.247116 1.47842e-08 -0.000424064)
(-0.246237 1.41709e-08 -0.000538076)
(-0.245176 1.35759e-08 -0.000649377)
(-0.243937 1.3001e-08 -0.000757857)
(-0.242526 1.24468e-08 -0.000863412)
(-0.240946 1.19177e-08 -0.000965952)
(-0.239205 1.13993e-08 -0.00106539)
(-0.237306 1.09035e-08 -0.00116166)
(-0.235256 1.04326e-08 -0.00125469)
(-0.23306 9.98673e-09 -0.00134441)
(-0.230724 9.55416e-09 -0.00143079)
(-0.228254 9.1399e-09 -0.00151377)
(-0.225656 8.74145e-09 -0.00159331)
(-0.222935 8.36298e-09 -0.00166938)
(-0.220098 8.00198e-09 -0.00174196)
(-0.21715 7.66012e-09 -0.00181104)
(-0.214098 7.32742e-09 -0.00187659)
(-0.210948 7.01801e-09 -0.00193861)
(-0.207705 6.72108e-09 -0.00199711)
(-0.204376 6.43995e-09 -0.00205209)
(-0.200966 6.18463e-09 -0.00210357)
(-0.197481 5.93595e-09 -0.00215156)
(-0.193928 5.71058e-09 -0.00219609)
(-0.190312 5.50851e-09 -0.0022372)
(-0.186638 5.32226e-09 -0.00227491)
(-0.182912 5.16097e-09 -0.00230927)
(-0.179141 5.023e-09 -0.00234033)
(-0.175328 4.90834e-09 -0.00236814)
(-0.171479 4.82033e-09 -0.00239275)
(-0.1676 4.75065e-09 -0.00241423)
(-0.163696 4.71262e-09 -0.00243263)
(-0.159771 4.69958e-09 -0.00244804)
(-0.15583 4.71488e-09 -0.00246051)
(-0.151877 4.75685e-09 -0.00247012)
(-0.147918 4.82383e-09 -0.00247696)
(-0.143957 4.9225e-09 -0.00248111)
(-0.139997 5.05952e-09 -0.00248264)
(-0.136043 5.20991e-09 -0.00248165)
(-0.132098 5.402e-09 -0.00247821)
(-0.128167 5.62414e-09 -0.00247243)
(-0.124252 5.87967e-09 -0.00246439)
(-0.120358 6.17026e-09 -0.00245418)
(-0.116487 6.4926e-09 -0.0024419)
(-0.112642 6.84835e-09 -0.00242762)
(-0.108827 7.24586e-09 -0.00241146)
(-0.105043 7.67515e-09 -0.0023935)
(-0.101294 8.14622e-09 -0.00237382)
(-0.097582 8.65576e-09 -0.00235251)
(-0.0939093 9.20377e-09 -0.00232967)
(-0.090278 9.78693e-09 -0.00230538)
(-0.0866901 1.04186e-08 -0.00227971)
(-0.0831476 1.10871e-08 -0.00225276)
(-0.079652 1.18092e-08 -0.00222458)
(-0.0762052 1.25615e-08 -0.00219526)
(-0.0728086 1.33606e-08 -0.00216487)
(-0.0694635 1.42067e-08 -0.00213347)
(-0.0661714 1.50964e-08 -0.00210111)
(-0.0629335 1.60247e-08 -0.00206786)
(-0.0597508 1.69983e-08 -0.00203376)
(-0.0566245 1.80206e-08 -0.00199886)
(-0.0535557 1.90815e-08 -0.0019632)
(-0.0505451 2.01927e-08 -0.00192681)
(-0.0475938 2.13527e-08 -0.00188972)
(-0.0447026 2.25497e-08 -0.00185195)
(-0.0418724 2.38005e-08 -0.00181351)
(-0.039104 2.50917e-08 -0.00177443)
(-0.0363982 2.643e-08 -0.0017347)
(-0.0337559 2.78121e-08 -0.00169433)
(-0.0311778 2.92331e-08 -0.0016533)
(-0.0286649 3.07012e-08 -0.00161161)
(-0.0262179 3.22165e-08 -0.00156923)
(-0.0238378 3.37724e-08 -0.00152616)
(-0.0215255 3.53789e-08 -0.00148236)
(-0.019282 3.70226e-08 -0.00143781)
(-0.0171084 3.87103e-08 -0.00139248)
(-0.0150057 4.0452e-08 -0.00134633)
(-0.012975 4.22311e-08 -0.00129932)
(-0.0110176 4.40509e-08 -0.00125143)
(-0.00913465 4.59348e-08 -0.00120262)
(-0.00732754 4.78595e-08 -0.00115285)
(-0.00559759 4.98183e-08 -0.0011021)
(-0.00394621 5.18246e-08 -0.00105034)
(-0.00237476 5.38785e-08 -0.000997658)
(-0.000884848 5.59733e-08 -0.000944331)
(0.000523555 5.79046e-08 -0.000889545)
(0.0018466 5.97462e-08 -0.000833047)
(0.00308393 6.17392e-08 -0.000775501)
(0.00423352 6.38135e-08 -0.000717018)
(0.00529394 6.59489e-08 -0.000657639)
(0.0062637 6.81555e-08 -0.000597409)
(0.0071414 7.04301e-08 -0.000536382)
(0.00792571 7.27626e-08 -0.000474626)
(0.0086154 7.518e-08 -0.000412226)
(0.0092094 7.76654e-08 -0.000349285)
(0.00970676 8.0219e-08 -0.000285925)
(0.0101067 8.28409e-08 -0.00022229)
(0.0104088 8.55344e-08 -0.000158547)
(0.0106127 8.83029e-08 -9.48907e-05)
(0.0107184 9.10962e-08 -3.15345e-05)
(0.0107263 9.40482e-08 3.13316e-05)
(0.0106371 9.71497e-08 9.34854e-05)
(0.0104517 1.00313e-07 0.00015464)
(0.0101716 1.03562e-07 0.000214495)
(0.00979879 1.06894e-07 0.000272721)
(0.00933562 1.10331e-07 0.000328959)
(0.00878512 1.13844e-07 0.000382822)
(0.00815091 1.17439e-07 0.000433894)
(0.00743725 1.21094e-07 0.000481728)
(0.00664912 1.24784e-07 0.000525846)
(0.00579225 1.28484e-07 0.000565732)
(0.00487319 1.32205e-07 0.000600833)
(0.00389939 1.35899e-07 0.000630556)
(0.00287924 1.39564e-07 0.00065426)
(0.00182212 1.43239e-07 0.000671256)
(0.00073902 1.46842e-07 0.000680779)
(-0.000359389 1.49932e-07 0.000681543)
(-0.00145811 1.52694e-07 0.000672447)
(-0.00254301 1.55715e-07 0.000652883)
(-0.00359769 1.58935e-07 0.000622154)
(-0.00460376 1.62286e-07 0.000579094)
(-0.00554099 1.65755e-07 0.000522144)
(-0.00638659 1.6931e-07 0.000449887)
(-0.00711525 1.72897e-07 0.000360718)
(-0.00769879 1.76625e-07 0.000252951)
(-0.00810603 1.80535e-07 0.000124945)
(-0.00830296 1.84873e-07 -2.46554e-05)
(-0.00825311 1.89583e-07 -0.000195914)
(-0.0079201 1.94972e-07 -0.000386945)
(-0.00727078 2.0111e-07 -0.00059195)
(-0.00628224 2.0768e-07 -0.000796406)
(-0.00495812 2.14314e-07 -0.000968322)
(-0.00335695 2.21415e-07 -0.00104203)
(-0.00165286 2.29015e-07 -0.000887641)
(-0.000226751 2.56074e-07 -0.00035639)
(0.000178829 1.14338e-07 0.000189917)
(0.00436503 1.91659e-07 -0.0083163)
(0.00966495 -2.6657e-09 -0.0101288)
(0.012513 1.74787e-08 -0.00805874)
(0.0138083 5.13447e-09 -0.00467716)
(0.0135261 -1.24716e-09 -0.00127362)
(0.011891 -4.73409e-09 0.00171641)
(0.00906816 -6.36086e-09 0.00418838)
(0.00522903 -6.65389e-09 0.00617262)
(0.000538015 -6.53121e-09 0.00774251)
(-0.00485301 -6.48962e-09 0.00897304)
(-0.0108054 -6.46731e-09 0.00992862)
(-0.0172102 -6.34171e-09 0.0106598)
(-0.0239708 -6.09622e-09 0.0112121)
(-0.0310087 -5.75926e-09 0.0116247)
(-0.0382555 -5.29089e-09 0.0119245)
(-0.0456549 -4.72532e-09 0.0121327)
(-0.0531597 -4.11797e-09 0.0122659)
(-0.0607301 -3.53421e-09 0.0123369)
(-0.0683324 -3.00397e-09 0.012356)
(-0.0759379 -2.5376e-09 0.0123315)
(-0.0835219 -2.1388e-09 0.0122698)
(-0.0910631 -1.80752e-09 0.0121763)
(-0.0985429 -1.54081e-09 0.0120552)
(-0.105945 -1.3374e-09 0.01191)
(-0.113255 -1.18394e-09 0.0117435)
(-0.12046 -1.06835e-09 0.011558)
(-0.127549 -9.78984e-10 0.0113556)
(-0.134512 -9.03765e-10 0.0111377)
(-0.141338 -8.34795e-10 0.0109059)
(-0.148019 -7.66253e-10 0.0106612)
(-0.154548 -6.97308e-10 0.0104048)
(-0.160917 -6.28789e-10 0.0101374)
(-0.167119 -5.61942e-10 0.00985981)
(-0.173149 -4.98427e-10 0.00957286)
(-0.178999 -4.39489e-10 0.00927716)
(-0.184666 -3.84296e-10 0.00897332)
(-0.190143 -3.36584e-10 0.00866192)
(-0.195427 -2.92613e-10 0.00834354)
(-0.200512 -2.54873e-10 0.0080187)
(-0.205395 -2.22533e-10 0.00768795)
(-0.210073 -1.96007e-10 0.0073518)
(-0.214542 -1.74878e-10 0.0070108)
(-0.218799 -1.579e-10 0.00666546)
(-0.222841 -1.47978e-10 0.0063163)
(-0.226667 -1.45111e-10 0.00596385)
(-0.230274 -1.50128e-10 0.00560865)
(-0.23366 -1.63858e-10 0.00525122)
(-0.236825 -1.87129e-10 0.0048921)
(-0.239767 -2.20772e-10 0.00453181)
(-0.242485 -2.63125e-10 0.00417091)
(-0.24498 -3.11697e-10 0.00380991)
(-0.247251 -3.68978e-10 0.00344935)
(-0.249299 -4.29159e-10 0.00308977)
(-0.251124 -4.93485e-10 0.00273168)
(-0.252727 -5.57805e-10 0.00237561)
(-0.25411 -6.22122e-10 0.00202207)
(-0.255274 -6.8436e-10 0.00167156)
(-0.256221 -7.46181e-10 0.00132459)
(-0.256953 -8.05924e-10 0.000981648)
(-0.257473 -8.66495e-10 0.000643197)
(-0.257783 -9.19597e-10 0.000309691)
(-0.257887 -9.78508e-10 -1.84127e-05)
(-0.257787 -1.04198e-09 -0.000340815)
(-0.257488 -1.09757e-09 -0.000657237)
(-0.256993 -1.14901e-09 -0.000967279)
(-0.256306 -1.19713e-09 -0.00127057)
(-0.255431 -1.24234e-09 -0.00156676)
(-0.254374 -1.28424e-09 -0.00185551)
(-0.253137 -1.32075e-09 -0.0021365)
(-0.251727 -1.3527e-09 -0.00240945)
(-0.250148 -1.38092e-09 -0.00267411)
(-0.248405 -1.4054e-09 -0.00293025)
(-0.246503 -1.42574e-09 -0.00317767)
(-0.244449 -1.44318e-09 -0.00341617)
(-0.242246 -1.4573e-09 -0.0036456)
(-0.239902 -1.46851e-09 -0.00386582)
(-0.237421 -1.47683e-09 -0.00407673)
(-0.234809 -1.48391e-09 -0.00427823)
(-0.232071 -1.48725e-09 -0.00447025)
(-0.229215 -1.4906e-09 -0.00465274)
(-0.226245 -1.4898e-09 -0.00482569)
(-0.223167 -1.48693e-09 -0.00498907)
(-0.219987 -1.4824e-09 -0.0051429)
(-0.216712 -1.47373e-09 -0.00528723)
(-0.213346 -1.46256e-09 -0.00542209)
(-0.209895 -1.44601e-09 -0.00554755)
(-0.206366 -1.42863e-09 -0.00566371)
(-0.202764 -1.40585e-09 -0.00577066)
(-0.199094 -1.37976e-09 -0.00586853)
(-0.195362 -1.3462e-09 -0.00595744)
(-0.191573 -1.31056e-09 -0.00603754)
(-0.187734 -1.27036e-09 -0.00610899)
(-0.183848 -1.22518e-09 -0.00617197)
(-0.179922 -1.17668e-09 -0.00622665)
(-0.17596 -1.12528e-09 -0.00627324)
(-0.171967 -1.07014e-09 -0.00631194)
(-0.167949 -1.01084e-09 -0.00634295)
(-0.163909 -9.49881e-10 -0.0063665)
(-0.159852 -8.85184e-10 -0.00638283)
(-0.155783 -8.17993e-10 -0.00639216)
(-0.151707 -7.46646e-10 -0.00639473)
(-0.147626 -6.7488e-10 -0.00639079)
(-0.143546 -6.03938e-10 -0.00638059)
(-0.13947 -5.28009e-10 -0.00636437)
(-0.135401 -4.51659e-10 -0.00634239)
(-0.131344 -3.73641e-10 -0.0063149)
(-0.127301 -2.95616e-10 -0.00628214)
(-0.123277 -2.17168e-10 -0.00624438)
(-0.119274 -1.37881e-10 -0.00620186)
(-0.115295 -6.06627e-11 -0.00615482)
(-0.111343 1.98863e-11 -0.00610351)
(-0.10742 9.50461e-11 -0.00604817)
(-0.10353 1.71461e-10 -0.00598902)
(-0.0996749 2.46223e-10 -0.00592628)
(-0.0958565 3.17257e-10 -0.00586019)
(-0.0920773 3.87885e-10 -0.00579093)
(-0.0883394 4.55615e-10 -0.00571873)
(-0.0846446 5.22107e-10 -0.00564376)
(-0.0809949 5.83625e-10 -0.0055662)
(-0.0773919 6.41412e-10 -0.00548622)
(-0.0738373 6.95468e-10 -0.00540399)
(-0.0703327 7.44962e-10 -0.00531964)
(-0.0668795 7.88647e-10 -0.00523331)
(-0.0634791 8.26521e-10 -0.00514511)
(-0.0601328 8.59414e-10 -0.00505516)
(-0.056842 8.8691e-10 -0.00496353)
(-0.0536078 9.07761e-10 -0.00487031)
(-0.0504314 9.22796e-10 -0.00477556)
(-0.047314 9.30351e-10 -0.00467932)
(-0.0442566 9.30425e-10 -0.00458163)
(-0.0412605 9.23015e-10 -0.00448251)
(-0.0383267 9.05625e-10 -0.00438196)
(-0.0354562 8.84073e-10 -0.00427996)
(-0.0326503 8.50041e-10 -0.00417651)
(-0.0299101 8.09348e-10 -0.00407156)
(-0.0272366 7.60327e-10 -0.00396506)
(-0.0246312 7.02145e-10 -0.00385696)
(-0.0220949 6.33965e-10 -0.00374719)
(-0.0196292 5.55784e-10 -0.00363567)
(-0.0172353 4.70095e-10 -0.00352232)
(-0.0149145 3.7523e-10 -0.00340705)
(-0.0126683 2.70354e-10 -0.00328977)
(-0.0104982 1.60455e-10 -0.00317039)
(-0.00840561 3.72069e-11 -0.00304881)
(-0.00639222 -9.35686e-11 -0.00292495)
(-0.00445962 -2.38537e-10 -0.00279875)
(-0.00260945 -3.94372e-10 -0.00267017)
(-0.0008434 -5.61908e-10 -0.00253932)
(0.000837101 -7.50312e-10 -0.00240611)
(0.00242932 -9.31276e-10 -0.00226997)
(0.00393186 -1.0973e-09 -0.00213079)
(0.0053429 -1.25923e-09 -0.00198894)
(0.00666054 -1.4287e-09 -0.00184445)
(0.00788299 -1.61325e-09 -0.00169741)
(0.00900847 -1.80536e-09 -0.0015479)
(0.0100353 -2.00505e-09 -0.00139602)
(0.0109617 -2.20815e-09 -0.00124193)
(0.0117863 -2.4255e-09 -0.0010858)
(0.0125076 -2.65212e-09 -0.000927877)
(0.0131244 -2.89218e-09 -0.000768419)
(0.0136356 -3.14235e-09 -0.000607757)
(0.0140404 -3.40013e-09 -0.000446269)
(0.0143381 -3.6722e-09 -0.000284394)
(0.0145284 -3.94689e-09 -0.000122631)
(0.0146113 -4.23663e-09 3.85016e-05)
(0.0145873 -4.54078e-09 0.000198469)
(0.0144569 -4.84424e-09 0.000356629)
(0.0142214 -5.16038e-09 0.00051223)
(0.0138825 -5.48921e-09 0.000664469)
(0.0134423 -5.83072e-09 0.00081247)
(0.0129036 -6.18911e-09 0.000955284)
(0.0122698 -6.56607e-09 0.00109188)
(0.0115449 -6.96076e-09 0.00122116)
(0.0107336 -7.38073e-09 0.00134191)
(0.0098415 -7.82349e-09 0.00145285)
(0.00887497 -8.2949e-09 0.00155257)
(0.00784127 -8.7975e-09 0.00163958)
(0.00674865 -9.32044e-09 0.00171223)
(0.00560635 -9.86205e-09 0.00176873)
(0.00442487 -1.04307e-08 0.00180715)
(0.0032157 -1.09629e-08 0.00182512)
(0.00199179 -1.13864e-08 0.00182017)
(0.000767437 -1.17516e-08 0.00178994)
(-0.000441886 -1.20852e-08 0.00173161)
(-0.00161788 -1.23804e-08 0.00164201)
(-0.00274164 -1.26506e-08 0.0015177)
(-0.00379205 -1.2916e-08 0.00135484)
(-0.00474614 -1.31867e-08 0.00114911)
(-0.00557892 -1.34659e-08 0.000895994)
(-0.0062635 -1.37e-08 0.000590978)
(-0.00677134 -1.38657e-08 0.000230091)
(-0.00707299 -1.39233e-08 -0.000188686)
(-0.00713827 -1.38728e-08 -0.000663233)
(-0.00693998 -1.38523e-08 -0.00118389)
(-0.00645584 -1.40349e-08 -0.0017251)
(-0.00567417 -1.46595e-08 -0.00222983)
(-0.00459819 -1.5756e-08 -0.00258186)
(-0.00325956 -1.70299e-08 -0.00255756)
(-0.00174059 -1.23363e-08 -0.00180205)
(-0.000354493 -1.54857e-07 -0.000267484)
(0.00436389 1.91656e-07 -0.00831765)
(0.00966427 -2.66562e-09 -0.0101295)
(0.0125127 1.74782e-08 -0.00805908)
(0.0138081 5.13434e-09 -0.00467737)
(0.0135259 -1.24713e-09 -0.00127378)
(0.0118908 -4.73399e-09 0.00171627)
(0.00906803 -6.36074e-09 0.00418825)
(0.00522893 -6.65377e-09 0.0061725)
(0.000537943 -6.53109e-09 0.0077424)
(-0.00485306 -6.48951e-09 0.00897294)
(-0.0108054 -6.4672e-09 0.00992852)
(-0.0172102 -6.34161e-09 0.0106597)
(-0.0239707 -6.09613e-09 0.011212)
(-0.0310087 -5.75918e-09 0.0116246)
(-0.0382554 -5.29081e-09 0.0119244)
(-0.0456548 -4.72525e-09 0.0121326)
(-0.0531596 -4.11792e-09 0.0122658)
(-0.06073 -3.53417e-09 0.0123368)
(-0.0683323 -3.00393e-09 0.012356)
(-0.0759378 -2.53756e-09 0.0123314)
(-0.0835217 -2.13877e-09 0.0122698)
(-0.0910629 -1.80749e-09 0.0121763)
(-0.0985426 -1.54079e-09 0.0120552)
(-0.105945 -1.33738e-09 0.0119099)
(-0.113255 -1.18393e-09 0.0117434)
(-0.12046 -1.06834e-09 0.011558)
(-0.127549 -9.78972e-10 0.0113555)
(-0.134511 -9.03754e-10 0.0111377)
(-0.141337 -8.34784e-10 0.0109059)
(-0.148019 -7.66244e-10 0.0106612)
(-0.154548 -6.97299e-10 0.0104047)
(-0.160917 -6.28781e-10 0.0101373)
(-0.167119 -5.61935e-10 0.00985977)
(-0.173148 -4.98421e-10 0.00957282)
(-0.178999 -4.39484e-10 0.00927711)
(-0.184665 -3.84291e-10 0.00897327)
(-0.190143 -3.3658e-10 0.00866188)
(-0.195426 -2.92609e-10 0.00834349)
(-0.200512 -2.5487e-10 0.00801865)
(-0.205395 -2.22531e-10 0.0076879)
(-0.210073 -1.96005e-10 0.00735176)
(-0.214542 -1.74876e-10 0.00701076)
(-0.218799 -1.57899e-10 0.00666541)
(-0.222841 -1.47977e-10 0.00631625)
(-0.226667 -1.4511e-10 0.00596381)
(-0.230273 -1.50126e-10 0.00560861)
(-0.23366 -1.63856e-10 0.00525118)
(-0.236824 -1.87127e-10 0.00489205)
(-0.239766 -2.20769e-10 0.00453177)
(-0.242485 -2.63122e-10 0.00417086)
(-0.24498 -3.11693e-10 0.00380986)
(-0.247251 -3.68974e-10 0.00344931)
(-0.249298 -4.29154e-10 0.00308972)
(-0.251123 -4.93479e-10 0.00273163)
(-0.252726 -5.57799e-10 0.00237556)
(-0.254109 -6.22115e-10 0.00202202)
(-0.255273 -6.84353e-10 0.00167152)
(-0.25622 -7.46172e-10 0.00132455)
(-0.256952 -8.05915e-10 0.000981602)
(-0.257472 -8.66486e-10 0.000643151)
(-0.257782 -9.19587e-10 0.000309645)
(-0.257886 -9.78497e-10 -1.84592e-05)
(-0.257787 -1.04197e-09 -0.000340862)
(-0.257488 -1.09755e-09 -0.000657284)
(-0.256993 -1.14899e-09 -0.000967326)
(-0.256306 -1.19711e-09 -0.00127062)
(-0.255431 -1.24233e-09 -0.00156681)
(-0.254373 -1.28423e-09 -0.00185555)
(-0.253137 -1.32074e-09 -0.00213654)
(-0.251726 -1.35269e-09 -0.0024095)
(-0.250147 -1.3809e-09 -0.00267416)
(-0.248404 -1.40539e-09 -0.0029303)
(-0.246503 -1.42572e-09 -0.00317771)
(-0.244448 -1.44316e-09 -0.00341621)
(-0.242246 -1.45728e-09 -0.00364565)
(-0.239901 -1.4685e-09 -0.00386587)
(-0.23742 -1.47682e-09 -0.00407678)
(-0.234808 -1.48389e-09 -0.00427828)
(-0.232071 -1.48724e-09 -0.0044703)
(-0.229214 -1.49058e-09 -0.00465279)
(-0.226244 -1.48979e-09 -0.00482573)
(-0.223167 -1.48691e-09 -0.00498912)
(-0.219987 -1.48239e-09 -0.00514295)
(-0.216711 -1.47371e-09 -0.00528728)
(-0.213345 -1.46255e-09 -0.00542214)
(-0.209895 -1.44599e-09 -0.0055476)
(-0.206366 -1.42861e-09 -0.00566376)
(-0.202763 -1.40584e-09 -0.00577071)
(-0.199093 -1.37975e-09 -0.00586858)
(-0.195361 -1.34619e-09 -0.00595749)
(-0.191573 -1.31055e-09 -0.00603759)
(-0.187733 -1.27035e-09 -0.00610904)
(-0.183848 -1.22517e-09 -0.00617202)
(-0.179922 -1.17667e-09 -0.0062267)
(-0.17596 -1.12527e-09 -0.00627329)
(-0.171967 -1.07013e-09 -0.00631198)
(-0.167948 -1.01083e-09 -0.006343)
(-0.163908 -9.49873e-10 -0.00636655)
(-0.159852 -8.85176e-10 -0.00638288)
(-0.155783 -8.17985e-10 -0.00639221)
(-0.151706 -7.4664e-10 -0.00639478)
(-0.147626 -6.74874e-10 -0.00639084)
(-0.143546 -6.03933e-10 -0.00638064)
(-0.139469 -5.28004e-10 -0.00636442)
(-0.135401 -4.51655e-10 -0.00634244)
(-0.131344 -3.73638e-10 -0.00631495)
(-0.127301 -2.95613e-10 -0.00628219)
(-0.123277 -2.17166e-10 -0.00624443)
(-0.119274 -1.3788e-10 -0.00620191)
(-0.115295 -6.06622e-11 -0.00615488)
(-0.111342 1.98861e-11 -0.00610357)
(-0.10742 9.50453e-11 -0.00604822)
(-0.10353 1.71459e-10 -0.00598907)
(-0.0996747 2.46221e-10 -0.00592634)
(-0.0958563 3.17255e-10 -0.00586024)
(-0.0920771 3.87882e-10 -0.00579099)
(-0.0883391 4.55611e-10 -0.00571879)
(-0.0846444 5.22104e-10 -0.00564381)
(-0.0809946 5.8362e-10 -0.00556626)
(-0.0773916 6.41407e-10 -0.00548628)
(-0.0738371 6.95463e-10 -0.00540405)
(-0.0703324 7.44957e-10 -0.0053197)
(-0.0668792 7.88641e-10 -0.00523337)
(-0.0634788 8.26515e-10 -0.00514518)
(-0.0601326 8.59408e-10 -0.00505522)
(-0.0568418 8.86904e-10 -0.0049636)
(-0.0536076 9.07754e-10 -0.00487038)
(-0.0504312 9.2279e-10 -0.00477563)
(-0.0473137 9.30345e-10 -0.00467939)
(-0.0442564 9.30419e-10 -0.0045817)
(-0.0412603 9.23009e-10 -0.00448258)
(-0.0383265 9.05619e-10 -0.00438203)
(-0.035456 8.84068e-10 -0.00428004)
(-0.0326501 8.50036e-10 -0.00417659)
(-0.0299099 8.09343e-10 -0.00407164)
(-0.0272364 7.60323e-10 -0.00396514)
(-0.024631 7.02141e-10 -0.00385705)
(-0.0220948 6.33961e-10 -0.00374728)
(-0.019629 5.55781e-10 -0.00363576)
(-0.0172351 4.70092e-10 -0.00352241)
(-0.0149143 3.75228e-10 -0.00340714)
(-0.0126681 2.70352e-10 -0.00328987)
(-0.010498 1.60454e-10 -0.00317048)
(-0.00840541 3.72067e-11 -0.0030489)
(-0.00639203 -9.35681e-11 -0.00292505)
(-0.00445942 -2.38535e-10 -0.00279885)
(-0.00260926 -3.9437e-10 -0.00267027)
(-0.000843209 -5.61905e-10 -0.00253943)
(0.000837292 -7.50309e-10 -0.00240621)
(0.00242951 -9.31271e-10 -0.00227007)
(0.00393205 -1.0973e-09 -0.0021309)
(0.00534309 -1.25922e-09 -0.00198905)
(0.00666074 -1.4287e-09 -0.00184457)
(0.00788319 -1.61324e-09 -0.00169753)
(0.00900866 -1.80535e-09 -0.00154802)
(0.0100354 -2.00504e-09 -0.00139614)
(0.0109619 -2.20814e-09 -0.00124205)
(0.0117865 -2.42549e-09 -0.00108593)
(0.0125078 -2.65211e-09 -0.000928006)
(0.0131246 -2.89217e-09 -0.000768551)
(0.0136358 -3.14233e-09 -0.000607891)
(0.0140406 -3.40012e-09 -0.000446406)
(0.0143383 -3.67219e-09 -0.000284533)
(0.0145286 -3.94687e-09 -0.000122772)
(0.0146115 -4.23662e-09 3.83574e-05)
(0.0145875 -4.54076e-09 0.000198322)
(0.0144571 -4.84423e-09 0.000356479)
(0.0142216 -5.16037e-09 0.000512077)
(0.0138827 -5.48919e-09 0.000664313)
(0.0134425 -5.8307e-09 0.000812311)
(0.0129038 -6.18909e-09 0.000955122)
(0.01227 -6.56604e-09 0.00109172)
(0.011545 -6.96074e-09 0.00122099)
(0.0107337 -7.38071e-09 0.00134174)
(0.00984164 -7.82346e-09 0.00145267)
(0.00887511 -8.29488e-09 0.00155239)
(0.00784141 -8.79748e-09 0.00163939)
(0.00674877 -9.32041e-09 0.00171203)
(0.00560648 -9.86202e-09 0.00176853)
(0.00442498 -1.04307e-08 0.00180695)
(0.00321581 -1.09628e-08 0.00182491)
(0.00199189 -1.13864e-08 0.00181995)
(0.000767529 -1.17516e-08 0.00178972)
(-0.000441802 -1.20851e-08 0.00173138)
(-0.00161781 -1.23804e-08 0.00164178)
(-0.00274157 -1.26506e-08 0.00151746)
(-0.00379199 -1.2916e-08 0.00135459)
(-0.00474609 -1.31866e-08 0.00114885)
(-0.00557888 -1.34658e-08 0.000895717)
(-0.00626347 -1.37e-08 0.000590685)
(-0.00677132 -1.38657e-08 0.00022978)
(-0.00707297 -1.39232e-08 -0.000189019)
(-0.00713826 -1.38727e-08 -0.000663592)
(-0.00693998 -1.38523e-08 -0.00118428)
(-0.00645586 -1.40349e-08 -0.00172554)
(-0.0056742 -1.46594e-08 -0.00223032)
(-0.00459826 -1.57559e-08 -0.00258242)
(-0.00325971 -1.70299e-08 -0.00255822)
(-0.0017411 -1.23363e-08 -0.00180292)
(-0.000355221 -1.54858e-07 -0.000268608)
(0.00406509 1.26912e-07 -0.0153789)
(0.00744972 7.03986e-09 -0.0131273)
(0.00807072 2.43404e-08 -0.00870869)