/*--------------------------------*- C++ -*----------------------------------*\
  =========                 |
  \\      /  F ield         | OpenFOAM: The Open Source CFD Toolbox
   \\    /   O peration     | Website:  https://openfoam.org
    \\  /    A nd           | Version:  8
     \\/     M anipulation  |
\*---------------------------------------------------------------------------*/
FoamFile
{
    version     2.0;
    format      ascii;
    class       volScalarField;
    location    "2600";
    object      alphat;
}
// * * * * * * * * * * * * * * * * * * * * * * * * * * * * * * * * * * * * * //

dimensions      [1 -1 -1 0 0 0 0];

internalField   nonuniform List<scalar> 
48000
(
9.87844e-05
7.55674e-05
9.38297e-05
0.000107338
0.00011854
0.000127949
0.000136094
0.000143411
0.000150156
0.000156337
0.000162087
0.000167472
0.00017254
0.000177331
0.000181875
0.000186195
0.000190312
0.00019424
0.000197993
0.000201581
0.000205012
0.000208296
0.000211437
0.000214443
0.000217318
0.000220066
0.000222693
0.000225202
0.000227596
0.00022988
0.000232055
0.000234127
0.000236096
0.000237968
0.000239744
0.000241427
0.00024302
0.000244526
0.000245948
0.000247287
0.000248548
0.000249731
0.00025084
0.000251877
0.000252844
0.000253746
0.000254593
0.000255378
0.000256103
0.000256768
0.000257377
0.000257931
0.000258433
0.000258885
0.000259288
0.000259645
0.000259958
0.000260227
0.000260455
0.000260644
0.000260794
0.000260908
0.000260987
0.000261032
0.000261045
0.000261026
0.000260978
0.000260901
0.000260796
0.000260664
0.000260507
0.000260325
0.000260119
0.00025989
0.000259639
0.000259367
0.000259074
0.000258761
0.000258429
0.000258078
0.000257709
0.000257322
0.000256918
0.000256498
0.000256062
0.00025561
0.000255143
0.00025466
0.000254164
0.000253653
0.000253127
0.000252589
0.000252036
0.00025147
0.000250892
0.0002503
0.000249695
0.000249078
0.000248448
0.000247805
0.00024715
0.000246482
0.000245802
0.00024511
0.000244405
0.000243688
0.000242958
0.000242215
0.00024146
0.000240692
0.000239911
0.000239117
0.00023831
0.00023749
0.000236656
0.000235809
0.000234947
0.000234072
0.000233182
0.000232278
0.00023136
0.000230426
0.000229477
0.000228513
0.000227533
0.000226537
0.000225525
0.000224496
0.00022345
0.000222388
0.000221308
0.00022021
0.000219094
0.00021796
0.000216808
0.000215636
0.000214446
0.000213235
0.000212005
0.000210755
0.000209484
0.000208193
0.00020688
0.000205546
0.00020419
0.000202812
0.000201412
0.000199989
0.000198544
0.000197075
0.000195582
0.000194065
0.000192525
0.000190959
0.000189369
0.000187754
0.000186113
0.000184446
0.000182752
0.000181033
0.000179285
0.000177511
0.000175708
0.000173876
0.000172016
0.000170125
0.000168204
0.000166252
0.000164267
0.00016225
0.000160198
0.000158111
0.000155987
0.000153824
0.000151622
0.000149377
0.000147087
0.000144751
0.000142363
0.000139922
0.000137423
0.000134864
0.000132241
0.000129566
0.000126813
0.000123962
0.000120999
0.000117906
0.000114662
0.000111239
0.000107598
0.000103691
9.94694e-05
9.4867e-05
8.97033e-05
8.37165e-05
7.63162e-05
6.56165e-05
4.54492e-05
4.89353e-05
9.87691e-05
7.55619e-05
9.38311e-05
0.000107339
0.00011854
0.00012795
0.000136095
0.000143412
0.000150157
0.000156337
0.000162088
0.000167472
0.00017254
0.000177331
0.000181875
0.000186196
0.000190312
0.000194241
0.000197993
0.000201581
0.000205013
0.000208296
0.000211437
0.000214443
0.000217318
0.000220066
0.000222693
0.000225202
0.000227596
0.00022988
0.000232055
0.000234127
0.000236097
0.000237968
0.000239744
0.000241427
0.00024302
0.000244526
0.000245948
0.000247287
0.000248548
0.000249731
0.00025084
0.000251877
0.000252844
0.000253746
0.000254593
0.000255378
0.000256103
0.000256768
0.000257377
0.000257931
0.000258433
0.000258885
0.000259288
0.000259645
0.000259958
0.000260227
0.000260455
0.000260644
0.000260794
0.000260908
0.000260987
0.000261032
0.000261045
0.000261026
0.000260978
0.000260901
0.000260796
0.000260664
0.000260507
0.000260325
0.000260119
0.00025989
0.000259639
0.000259367
0.000259074
0.000258761
0.000258428
0.000258078
0.000257709
0.000257322
0.000256918
0.000256498
0.000256062
0.00025561
0.000255143
0.00025466
0.000254164
0.000253653
0.000253127
0.000252589
0.000252036
0.00025147
0.000250892
0.0002503
0.000249695
0.000249078
0.000248448
0.000247805
0.00024715
0.000246482
0.000245802
0.00024511
0.000244405
0.000243688
0.000242958
0.000242215
0.00024146
0.000240692
0.000239911
0.000239117
0.00023831
0.00023749
0.000236656
0.000235809
0.000234947
0.000234072
0.000233182
0.000232278
0.00023136
0.000230426
0.000229477
0.000228513
0.000227533
0.000226537
0.000225525
0.000224496
0.00022345
0.000222388
0.000221308
0.00022021
0.000219094
0.00021796
0.000216808
0.000215636
0.000214446
0.000213235
0.000212005
0.000210755
0.000209484
0.000208193
0.00020688
0.000205546
0.00020419
0.000202812
0.000201412
0.000199989
0.000198544
0.000197074
0.000195582
0.000194065
0.000192525
0.000190959
0.000189369
0.000187754
0.000186113
0.000184446
0.000182752
0.000181033
0.000179285
0.000177511
0.000175708
0.000173876
0.000172016
0.000170125
0.000168204
0.000166252
0.000164267
0.00016225
0.000160198
0.000158111
0.000155987
0.000153824
0.000151622
0.000149377
0.000147087
0.000144751
0.000142363
0.000139922
0.000137423
0.000134864
0.000132241
0.000129566
0.000126813
0.000123962
0.000120999
0.000117906
0.000114662
0.000111239
0.000107598
0.000103691
9.94696e-05
9.48672e-05
8.97042e-05
8.37208e-05
7.63347e-05
6.567e-05
4.54191e-05
4.88114e-05
6.58821e-05
0.000484279
0.000769624
0.000968307
0.00111678
0.00123861
0.00134298
0.00143459
0.00151624
0.00159038
0.00165831
0.00172107
0.00177942
0.00183394
0.00188511
0.0019333
0.0019788
0.00202186
0.0020627
0.00210149
0.00213838
0.00217349
0.00220693
0.00223881
0.00226921
0.00229819
0.00232584
0.00235221
0.00237736
0.00240134
0.00242419
0.00244595
0.00246668
0.0024864
0.00250516
0.00252298
0.00253989
0.00255594
0.00257114
0.00258553
0.00259914
0.00261198
0.00262408
0.00263546
0.00264611
0.00265599
0.00266508
0.00267352
0.00268136
0.00268864
0.00269538
0.00270162
0.00270736
0.00271263
0.00271744
0.00272181
0.00272576
0.00272929
0.00273243
0.00273519
0.00273757
0.0027396
0.00274129
0.00274265
0.00274368
0.0027444
0.00274483
0.00274496
0.00274481
0.0027444
0.00274372
0.00274278
0.0027416
0.00274018
0.00273853
0.00273666
0.00273456
0.00273225
0.00272974
0.00272703
0.00272412
0.00272102
0.00271773
0.00271426
0.00271061
0.00270679
0.0027028
0.00269864
0.00269432
0.00268983
0.00268519
0.00268039
0.00267543
0.00267032
0.00266506
0.00265965
0.00265409
0.00264838
0.00264253
0.00263653
0.00263039
0.00262409
0.00261766
0.00261108
0.00260435
0.00259748
0.00259046
0.00258329
0.00257598
0.00256852
0.0025609
0.00255314
0.00254522
0.00253714
0.00252892
0.00252053
0.00251198
0.00250327
0.0024944
0.00248536
0.00247615
0.00246677
0.00245721
0.00244748
0.00243757
0.00242748
0.0024172
0.00240674
0.00239609
0.00238524
0.0023742
0.00236296
0.00235151
0.00233986
0.002328
0.00231593
0.00230365
0.00229115
0.00227842
0.00226548
0.0022523
0.00223889
0.00222525
0.00221138
0.00219726
0.0021829
0.00216829
0.00215343
0.00213832
0.00212295
0.00210732
0.00209143
0.00207527
0.00205884
0.00204213
0.00202514
0.00200787
0.00199031
0.00197246
0.00195431
0.00193585
0.00191709
0.00189801
0.00187861
0.00185888
0.00183881
0.00181839
0.00179761
0.00177646
0.00175493
0.001733
0.00171065
0.00168787
0.00166464
0.00164092
0.0016167
0.00159194
0.00156659
0.00154062
0.00151397
0.00148656
0.0014583
0.00142905
0.00139862
0.00136695
0.00133398
0.00129955
0.00126343
0.00122531
0.00118479
0.00114124
0.00109374
0.0010405
0.00097981
0.000909459
0.000824904
0.000717179
0.000566163
0.00032298
3.04015e-05
6.58761e-05
0.000484293
0.000769642
0.000968334
0.00111681
0.00123864
0.00134301
0.00143462
0.00151627
0.0015904
0.00165834
0.0017211
0.00177944
0.00183397
0.00188513
0.00193332
0.00197882
0.00202189
0.00206272
0.00210151
0.0021384
0.00217351
0.00220695
0.00223883
0.00226922
0.00229821
0.00232586
0.00235223
0.00237738
0.00240135
0.0024242
0.00244597
0.00246669
0.00248642
0.00250517
0.00252299
0.00253991
0.00255595
0.00257115
0.00258554
0.00259915
0.00261199
0.00262409
0.00263547
0.00264612
0.002656
0.00266509
0.00267353
0.00268137
0.00268865
0.00269539
0.00270163
0.00270737
0.00271264
0.00271745
0.00272182
0.00272577
0.0027293
0.00273244
0.00273519
0.00273758
0.00273961
0.0027413
0.00274265
0.00274369
0.00274441
0.00274483
0.00274497
0.00274482
0.0027444
0.00274372
0.00274279
0.00274161
0.00274019
0.00273854
0.00273666
0.00273457
0.00273226
0.00272975
0.00272703
0.00272413
0.00272102
0.00271774
0.00271427
0.00271062
0.0027068
0.00270281
0.00269865
0.00269432
0.00268984
0.00268519
0.00268039
0.00267544
0.00267033
0.00266507
0.00265966
0.0026541
0.00264839
0.00264254
0.00263654
0.00263039
0.0026241
0.00261767
0.00261109
0.00260436
0.00259749
0.00259047
0.0025833
0.00257599
0.00256852
0.00256091
0.00255314
0.00254523
0.00253715
0.00252892
0.00252053
0.00251199
0.00250328
0.0024944
0.00248536
0.00247615
0.00246677
0.00245722
0.00244749
0.00243758
0.00242749
0.00241721
0.00240675
0.00239609
0.00238525
0.0023742
0.00236296
0.00235152
0.00233987
0.00232801
0.00231594
0.00230366
0.00229115
0.00227843
0.00226548
0.00225231
0.0022389
0.00222526
0.00221138
0.00219727
0.0021829
0.0021683
0.00215344
0.00213833
0.00212296
0.00210733
0.00209143
0.00207527
0.00205884
0.00204213
0.00202515
0.00200788
0.00199032
0.00197246
0.00195431
0.00193586
0.0019171
0.00189802
0.00187862
0.00185888
0.00183881
0.00181839
0.00179762
0.00177647
0.00175493
0.001733
0.00171066
0.00168788
0.00166464
0.00164093
0.00161671
0.00159194
0.0015666
0.00154063
0.00151397
0.00148657
0.00145831
0.00142906
0.00139862
0.00136696
0.00133399
0.00129956
0.00126344
0.00122532
0.00118479
0.00114125
0.00109374
0.00104051
0.000979817
0.000909472
0.000824933
0.00071722
0.000566106
0.000322946
3.04162e-05
8.06005e-05
0.000734191
0.00130573
0.00173201
0.0020688
0.0023486
0.00258917
0.00280068
0.00298958
0.00316044
0.00331641
0.00345983
0.00359249
0.0037158
0.00383086
0.0039386
0.00403977
0.00413501
0.00422486
0.00430978
0.00439016
0.00446635
0.00453867
0.00460736
0.00467268
0.00473483
0.004794
0.00485035
0.00490404
0.0049552
0.00500396
0.00505044
0.00509473
0.00513693
0.00517713
0.00521541
0.00525185
0.00528652
0.00531949
0.00535082
0.00538056
0.00540876
0.00543549
0.00546076
0.00548461
0.00550702
0.00552798
0.00554765
0.00556612
0.00558343
0.00559966
0.00561485
0.00562903
0.00564224
0.00565453
0.00566591
0.00567643
0.0056861
0.00569497
0.00570305
0.00571037
0.00571696
0.00572283
0.00572802
0.00573255
0.00573643
0.00573968
0.00574233
0.00574438
0.00574587
0.0057468
0.0057472
0.00574707
0.00574643
0.00574529
0.00574368
0.00574159
0.00573904
0.00573605
0.00573262
0.00572876
0.00572448
0.0057198
0.00571471
0.00570924
0.00570337
0.00569713
0.00569052
0.00568354
0.0056762
0.0056685
0.00566045
0.00565206
0.00564332
0.00563423
0.00562481
0.00561506
0.00560497
0.00559455
0.0055838
0.00557272
0.00556131
0.00554956
0.00553749
0.0055251
0.00551236
0.0054993
0.0054859
0.00547217
0.0054581
0.00544369
0.00542894
0.00541384
0.00539839
0.00538259
0.00536643
0.00534991
0.00533303
0.00531578
0.00529815
0.00528014
0.00526175
0.00524297
0.00522379
0.00520421
0.00518423
0.00516383
0.00514301
0.00512177
0.0051001
0.00507799
0.00505543
0.00503242
0.00500895
0.00498501
0.00496061
0.00493572
0.00491034
0.00488447
0.0048581
0.00483122
0.00480381
0.00477589
0.00474743
0.00471842
0.00468887
0.00465876
0.00462808
0.00459682
0.00456498
0.00453254
0.0044995
0.00446584
0.00443155
0.00439662
0.00436105
0.00432481
0.00428789
0.00425028
0.00421197
0.00417293
0.00413315
0.0040926
0.00405127
0.00400914
0.00396617
0.00392233
0.0038776
0.00383195
0.00378532
0.00373768
0.00368897
0.00363915
0.00358814
0.00353587
0.00348227
0.00342723
0.00337065
0.00331238
0.00325227
0.00319013
0.00312571
0.00305873
0.00298885
0.00291574
0.00283903
0.00275814
0.00267238
0.00258081
0.00248223
0.00237492
0.00225652
0.00212358
0.00197131
0.00179399
0.00158181
0.00131895
0.000979966
0.000532825
5.86973e-05
8.06011e-05
0.000734208
0.00130577
0.00173206
0.00206886
0.00234866
0.00258923
0.00280074
0.00298965
0.0031605
0.00331646
0.00345988
0.00359255
0.00371585
0.00383091
0.00393865
0.00403982
0.00413506
0.0042249
0.00430982
0.0043902
0.00446639
0.0045387
0.0046074
0.00467271
0.00473486
0.00479402
0.00485037
0.00490406
0.00495523
0.00500399
0.00505046
0.00509475
0.00513695
0.00517715
0.00521543
0.00525187
0.00528654
0.00531951
0.00535083
0.00538057
0.00540878
0.0054355
0.00546078
0.00548462
0.00550703
0.00552799
0.00554766
0.00556612
0.00558344
0.00559967
0.00561486
0.00562904
0.00564225
0.00565453
0.00566592
0.00567643
0.00568611
0.00569497
0.00570305
0.00571037
0.00571696
0.00572284
0.00572803
0.00573255
0.00573643
0.00573968
0.00574233
0.00574439
0.00574588
0.00574681
0.0057472
0.00574707
0.00574643
0.0057453
0.00574368
0.00574159
0.00573904
0.00573605
0.00573262
0.00572876
0.00572449
0.0057198
0.00571472
0.00570924
0.00570338
0.00569714
0.00569052
0.00568354
0.0056762
0.0056685
0.00566045
0.00565206
0.00564332
0.00563424
0.00562482
0.00561506
0.00560497
0.00559455
0.0055838
0.00557272
0.00556131
0.00554957
0.0055375
0.0055251
0.00551237
0.0054993
0.00548591
0.00547217
0.0054581
0.00544369
0.00542894
0.00541384
0.00539839
0.00538259
0.00536643
0.00534991
0.00533303
0.00531578
0.00529815
0.00528014
0.00526175
0.00524297
0.00522379
0.00520421
0.00518423
0.00516383
0.00514301
0.00512177
0.0051001
0.00507799
0.00505543
0.00503242
0.00500895
0.00498501
0.00496061
0.00493572
0.00491034
0.00488447
0.0048581
0.00483121
0.00480381
0.00477589
0.00474742
0.00471842
0.00468887
0.00465876
0.00462808
0.00459682
0.00456498
0.00453254
0.00449949
0.00446584
0.00443155
0.00439662
0.00436105
0.00432481
0.00428789
0.00425028
0.00421197
0.00417293
0.00413315
0.0040926
0.00405127
0.00400914
0.00396616
0.00392233
0.0038776
0.00383194
0.00378532
0.00373768
0.00368897
0.00363915
0.00358814
0.00353587
0.00348227
0.00342723
0.00337065
0.00331238
0.00325227
0.00319013
0.00312571
0.00305873
0.00298885
0.00291574
0.00283903
0.00275814
0.00267238
0.00258081
0.00248223
0.00237492
0.00225652
0.00212358
0.00197131
0.001794
0.00158184
0.00131901
0.000979967
0.000532803
5.86527e-05
9.13979e-05
0.000883317
0.00166087
0.00227795
0.00278228
0.00320843
0.00357803
0.00390482
0.00419792
0.00446374
0.00470686
0.00493072
0.00513797
0.00533068
0.00551054
0.00567892
0.00583698
0.00598568
0.00612587
0.00625825
0.00638346
0.00650205
0.0066145
0.00672126
0.00682269
0.00691915
0.00701094
0.00709834
0.00718161
0.00726097
0.00733663
0.00740878
0.00747759
0.00754322
0.00760581
0.00766551
0.00772242
0.00777668
0.00782839
0.00787764
0.00792452
0.00796913
0.00801154
0.00805181
0.00808998
0.00812611
0.00816023
0.00819246
0.00822291
0.00825166
0.00827879
0.00830435
0.00832842
0.00835104
0.00837228
0.00839217
0.00841077
0.00842811
0.00844425
0.00845921
0.00847304
0.00848577
0.00849744
0.00850808
0.00851771
0.00852638
0.00853411
0.00854092
0.00854685
0.00855191
0.00855614
0.00855954
0.00856215
0.00856399
0.00856508
0.00856542
0.00856505
0.00856398
0.00856222
0.00855979
0.0085567
0.00855297
0.0085486
0.00854362
0.00853803
0.00853184
0.00852507
0.00851772
0.00850979
0.0085013
0.00849226
0.00848267
0.00847253
0.00846186
0.00845065
0.00843891
0.00842665
0.00841386
0.00840055
0.00838672
0.00837237
0.00835751
0.00834212
0.00832622
0.0083098
0.00829286
0.00827539
0.0082574
0.00823888
0.00821984
0.00820025
0.00818013
0.00815946
0.00813825
0.00811648
0.00809415
0.00807125
0.00804778
0.00802373
0.00799909
0.00797386
0.00794802
0.00792158
0.00789451
0.00786681
0.00783848
0.0078095
0.00777986
0.00774955
0.00771857
0.0076869
0.00765453
0.00762145
0.00758765
0.00755312
0.00751784
0.00748181
0.00744501
0.00740743
0.00736906
0.00732988
0.00728988
0.00724905
0.00720738
0.00716484
0.00712143
0.00707713
0.00703192
0.00698579
0.00693872
0.00689069
0.00684168
0.00679168
0.00674067
0.00668861
0.0066355
0.0065813
0.00652599
0.00646954
0.00641192
0.0063531
0.00629305
0.00623171
0.00616907
0.00610506
0.00603963
0.00597275
0.00590433
0.00583433
0.00576265
0.00568923
0.00561396
0.00553674
0.00545745
0.00537596
0.00529212
0.00520574
0.00511661
0.00502451
0.00492914
0.00483016
0.00472717
0.0046197
0.00450718
0.00438897
0.00426429
0.00413215
0.00399127
0.00384004
0.00367635
0.0034974
0.00329955
0.00307783
0.00282549
0.00253395
0.00219091
0.00177884
0.00127402
0.000656426
6.75539e-05
9.13987e-05
0.000883339
0.00166092
0.00227802
0.00278236
0.00320851
0.00357812
0.00390491
0.00419801
0.00446382
0.00470694
0.0049308
0.00513805
0.00533076
0.00551061
0.00567899
0.00583705
0.00598575
0.00612593
0.00625831
0.00638352
0.0065021
0.00661456
0.0067213
0.00682273
0.00691919
0.00701098
0.00709838
0.00718165
0.00726101
0.00733667
0.00740881
0.00747762
0.00754325
0.00760584
0.00766553
0.00772245
0.0077767
0.0078284
0.00787765
0.00792454
0.00796915
0.00801155
0.00805182
0.00809
0.00812612
0.00816024
0.00819247
0.00822292
0.00825167
0.00827879
0.00830436
0.00832842
0.00835105
0.00837228
0.00839217
0.00841077
0.00842812
0.00844425
0.00845921
0.00847304
0.00848577
0.00849744
0.00850808
0.00851771
0.00852638
0.00853411
0.00854092
0.00854685
0.00855191
0.00855613
0.00855954
0.00856215
0.00856399
0.00856507
0.00856542
0.00856505
0.00856398
0.00856221
0.00855978
0.0085567
0.00855296
0.0085486
0.00854362
0.00853803
0.00853184
0.00852507
0.00851771
0.00850979
0.0085013
0.00849226
0.00848267
0.00847253
0.00846186
0.00845065
0.00843891
0.00842665
0.00841386
0.00840055
0.00838672
0.00837237
0.0083575
0.00834212
0.00832622
0.00830979
0.00829285
0.00827539
0.0082574
0.00823888
0.00821983
0.00820025
0.00818012
0.00815946
0.00813824
0.00811647
0.00809414
0.00807124
0.00804777
0.00802372
0.00799909
0.00797385
0.00794802
0.00792157
0.0078945
0.00786681
0.00783847
0.00780949
0.00777985
0.00774955
0.00771856
0.00768689
0.00765452
0.00762144
0.00758764
0.00755311
0.00751783
0.0074818
0.007445
0.00740742
0.00736905
0.00732987
0.00728988
0.00724905
0.00720737
0.00716483
0.00712142
0.00707712
0.00703191
0.00698578
0.00693871
0.00689068
0.00684167
0.00679168
0.00674066
0.00668861
0.00663549
0.00658129
0.00652598
0.00646953
0.00641191
0.00635309
0.00629304
0.00623171
0.00616906
0.00610505
0.00603963
0.00597274
0.00590433
0.00583432
0.00576264
0.00568922
0.00561395
0.00553673
0.00545744
0.00537596
0.00529211
0.00520573
0.00511661
0.0050245
0.00492913
0.00483015
0.00472716
0.00461969
0.00450717
0.00438896
0.00426429
0.00413214
0.00399127
0.00384004
0.00367634
0.00349739
0.00329955
0.00307782
0.00282549
0.00253394
0.00219091
0.00177884
0.00127399
0.000656394
6.75435e-05
0.000100118
0.000985827
0.00191437
0.0026829
0.00332585
0.00387675
0.00435881
0.00478773
0.00517438
0.00552649
0.00584968
0.00614823
0.00642539
0.00668377
0.00692546
0.00715217
0.00736534
0.00756621
0.00775581
0.00793507
0.00810477
0.00826563
0.00841827
0.00856327
0.00870111
0.00883226
0.00895712
0.00907607
0.00918945
0.00929757
0.00940071
0.00949912
0.00959305
0.00968271
0.00976831
0.00985003
0.00992804
0.0100025
0.0100736
0.0101414
0.010206
0.0102677
0.0103264
0.0103824
0.0104356
0.0104861
0.0105341
0.0105796
0.0106228
0.0106638
0.0107026
0.0107393
0.0107741
0.0108069
0.010838
0.0108672
0.0108947
0.0109206
0.0109449
0.0109676
0.0109889
0.0110087
0.0110271
0.0110441
0.0110598
0.0110742
0.0110874
0.0110994
0.0111102
0.0111198
0.0111283
0.0111358
0.0111422
0.0111476
0.0111519
0.0111553
0.0111577
0.0111592
0.0111598
0.0111595
0.0111582
0.0111562
0.0111533
0.0111495
0.011145
0.0111396
0.0111335
0.0111265
0.0111188
0.0111104
0.0111012
0.0110912
0.0110805
0.0110691
0.011057
0.0110442
0.0110306
0.0110164
0.0110014
0.0109857
0.0109693
0.0109523
0.0109345
0.010916
0.0108968
0.0108769
0.0108563
0.010835
0.010813
0.0107902
0.0107668
0.0107426
0.0107176
0.0106919
0.0106655
0.0106383
0.0106103
0.0105816
0.0105521
0.0105218
0.0104906
0.0104587
0.0104259
0.0103923
0.0103578
0.0103225
0.0102863
0.0102492
0.0102112
0.0101722
0.0101324
0.0100915
0.0100498
0.010007
0.00996323
0.00991846
0.00987265
0.0098258
0.00977788
0.00972888
0.00967877
0.00962754
0.00957517
0.00952164
0.00946692
0.009411
0.00935384
0.00929544
0.00923576
0.00917477
0.00911245
0.00904878
0.00898371
0.00891723
0.00884929
0.00877986
0.00870891
0.00863638
0.00856225
0.00848646
0.00840896
0.0083297
0.00824862
0.00816565
0.00808073
0.00799377
0.0079047
0.00781343
0.00771984
0.00762383
0.00752526
0.007424
0.0073199
0.00721275
0.00710238
0.00698853
0.00687095
0.00674932
0.00662329
0.00649243
0.00635626
0.00621419
0.00606555
0.00590951
0.00574512
0.00557122
0.00538635
0.00518872
0.00497608
0.00474557
0.00449354
0.00421529
0.00390472
0.00355395
0.00315284
0.00268844
0.00214383
0.0014995
0.000748132
7.42691e-05
0.000100118
0.000985851
0.00191442
0.00268297
0.00332594
0.00387685
0.00435891
0.00478784
0.00517449
0.0055266
0.00584979
0.00614833
0.00642549
0.00668387
0.00692555
0.00715226
0.00736543
0.0075663
0.00775589
0.00793514
0.00810484
0.0082657
0.00841834
0.00856333
0.00870117
0.00883231
0.00895718
0.00907613
0.0091895
0.00929762
0.00940075
0.00949916
0.00959309
0.00968275
0.00976835
0.00985006
0.00992807
0.0100025
0.0100736
0.0101414
0.0102061
0.0102677
0.0103265
0.0103824
0.0104356
0.0104861
0.0105341
0.0105796
0.0106228
0.0106638
0.0107026
0.0107393
0.0107741
0.0108069
0.010838
0.0108672
0.0108947
0.0109206
0.0109449
0.0109676
0.0109889
0.0110087
0.0110271
0.0110441
0.0110598
0.0110742
0.0110874
0.0110994
0.0111102
0.0111198
0.0111283
0.0111358
0.0111422
0.0111476
0.0111519
0.0111553
0.0111577
0.0111592
0.0111598
0.0111595
0.0111582
0.0111562
0.0111533
0.0111495
0.011145
0.0111396
0.0111335
0.0111265
0.0111188
0.0111104
0.0111012
0.0110912
0.0110805
0.0110691
0.011057
0.0110442
0.0110306
0.0110163
0.0110014
0.0109857
0.0109693
0.0109522
0.0109345
0.010916
0.0108968
0.0108769
0.0108563
0.010835
0.010813
0.0107902
0.0107668
0.0107426
0.0107176
0.0106919
0.0106655
0.0106383
0.0106103
0.0105816
0.0105521
0.0105218
0.0104906
0.0104587
0.0104259
0.0103923
0.0103578
0.0103225
0.0102863
0.0102492
0.0102111
0.0101722
0.0101323
0.0100915
0.0100497
0.010007
0.00996322
0.00991845
0.00987264
0.00982579
0.00977787
0.00972887
0.00967876
0.00962753
0.00957516
0.00952163
0.00946691
0.00941099
0.00935383
0.00929543
0.00923574
0.00917476
0.00911244
0.00904877
0.0089837
0.00891722
0.00884928
0.00877985
0.0087089
0.00863637
0.00856224
0.00848645
0.00840895
0.00832969
0.00824861
0.00816564
0.00808072
0.00799376
0.00790469
0.00781342
0.00771983
0.00762381
0.00752525
0.00742399
0.00731988
0.00721274
0.00710237
0.00698852
0.00687094
0.00674931
0.00662328
0.00649242
0.00635625
0.00621418
0.00606554
0.0059095
0.00574511
0.00557121
0.00538634
0.00518871
0.00497608
0.00474557
0.00449354
0.00421528
0.00390472
0.00355395
0.00315284
0.00268844
0.00214383
0.00149949
0.000748119
7.42674e-05
0.000107548
0.00106777
0.00211116
0.00299914
0.00375491
0.00440974
0.00498723
0.00550415
0.00597242
0.0064007
0.00679535
0.00716123
0.00750206
0.0078208
0.00811984
0.00840114
0.00866633
0.0089168
0.00915374
0.00937821
0.0095911
0.00979323
0.00998533
0.0101681
0.010342
0.0105076
0.0106655
0.0108161
0.0109597
0.0110968
0.0112277
0.0113527
0.0114721
0.0115862
0.0116952
0.0117993
0.0118989
0.011994
0.0120848
0.0121716
0.0122545
0.0123337
0.0124092
0.0124813
0.01255
0.0126154
0.0126777
0.012737
0.0127934
0.0128471
0.012898
0.0129465
0.0129924
0.013036
0.0130774
0.0131165
0.0131535
0.0131885
0.0132214
0.0132525
0.0132817
0.0133091
0.0133348
0.0133588
0.0133812
0.0134019
0.0134212
0.0134389
0.0134552
0.0134701
0.0134835
0.0134957
0.0135065
0.0135161
0.0135244
0.0135315
0.0135374
0.0135421
0.0135457
0.0135482
0.0135496
0.01355
0.0135492
0.0135475
0.0135447
0.0135409
0.0135362
0.0135304
0.0135238
0.0135161
0.0135076
0.0134981
0.0134877
0.0134764
0.0134641
0.013451
0.013437
0.0134221
0.0134064
0.0133897
0.0133722
0.0133538
0.0133345
0.0133143
0.0132933
0.0132714
0.0132486
0.0132249
0.0132003
0.0131748
0.0131483
0.013121
0.0130928
0.0130636
0.0130335
0.0130024
0.0129703
0.0129373
0.0129033
0.0128683
0.0128323
0.0127953
0.0127572
0.0127181
0.0126779
0.0126366
0.0125942
0.0125507
0.012506
0.0124602
0.0124132
0.012365
0.0123156
0.012265
0.0122131
0.0121599
0.0121054
0.0120496
0.0119925
0.0119339
0.011874
0.0118127
0.0117499
0.0116856
0.0116198
0.0115525
0.0114836
0.0114131
0.0113409
0.0112671
0.0111916
0.0111144
0.0110353
0.0109544
0.0108717
0.010787
0.0107003
0.0106116
0.0105208
0.0104279
0.0103327
0.0102352
0.0101354
0.010033
0.00992813
0.00982056
0.0097102
0.00959693
0.00948061
0.00936108
0.00923817
0.00911169
0.00898142
0.00884712
0.00870852
0.00856529
0.00841709
0.0082635
0.00810405
0.00793817
0.00776522
0.00758445
0.00739496
0.00719568
0.00698537
0.00676251
0.00652524
0.0062713
0.0059979
0.00570158
0.00537802
0.0050218
0.00462614
0.00418252
0.0036803
0.00310655
0.00244604
0.00168372
0.000823035
7.98782e-05
0.000107548
0.00106779
0.00211121
0.00299922
0.003755
0.00440985
0.00498735
0.00550427
0.00597255
0.00640082
0.00679548
0.00716135
0.00750218
0.00782092
0.00811996
0.00840125
0.00866643
0.0089169
0.00915384
0.0093783
0.00959119
0.00979332
0.00998542
0.0101681
0.010342
0.0105077
0.0106656
0.0108162
0.0109598
0.0110969
0.0112278
0.0113527
0.0114721
0.0115862
0.0116952
0.0117994
0.0118989
0.011994
0.0120849
0.0121717
0.0122546
0.0123337
0.0124093
0.0124813
0.01255
0.0126154
0.0126777
0.012737
0.0127934
0.0128471
0.012898
0.0129465
0.0129924
0.013036
0.0130774
0.0131165
0.0131535
0.0131885
0.0132214
0.0132525
0.0132817
0.0133091
0.0133348
0.0133588
0.0133812
0.0134019
0.0134212
0.0134389
0.0134552
0.0134701
0.0134835
0.0134957
0.0135065
0.0135161
0.0135244
0.0135315
0.0135374
0.0135421
0.0135457
0.0135482
0.0135496
0.0135499
0.0135492
0.0135475
0.0135447
0.0135409
0.0135362
0.0135304
0.0135238
0.0135161
0.0135076
0.0134981
0.0134877
0.0134763
0.0134641
0.013451
0.013437
0.0134221
0.0134064
0.0133897
0.0133722
0.0133538
0.0133345
0.0133143
0.0132933
0.0132714
0.0132486
0.0132248
0.0132002
0.0131747
0.0131483
0.013121
0.0130928
0.0130636
0.0130335
0.0130024
0.0129703
0.0129373
0.0129033
0.0128683
0.0128323
0.0127953
0.0127572
0.0127181
0.0126779
0.0126366
0.0125942
0.0125507
0.012506
0.0124602
0.0124132
0.012365
0.0123156
0.012265
0.0122131
0.0121599
0.0121054
0.0120496
0.0119925
0.0119339
0.011874
0.0118127
0.0117499
0.0116856
0.0116198
0.0115524
0.0114835
0.0114131
0.0113409
0.0112671
0.0111916
0.0111143
0.0110353
0.0109544
0.0108717
0.010787
0.0107003
0.0106116
0.0105208
0.0104279
0.0103327
0.0102352
0.0101354
0.010033
0.00992812
0.00982055
0.00971019
0.00959692
0.00948059
0.00936106
0.00923815
0.00911167
0.00898141
0.00884711
0.0087085
0.00856528
0.00841708
0.00826349
0.00810404
0.00793816
0.00776521
0.00758444
0.00739495
0.00719567
0.00698536
0.0067625
0.00652523
0.00627129
0.0059979
0.00570158
0.00537802
0.0050218
0.00462614
0.00418252
0.0036803
0.00310655
0.00244604
0.00168372
0.000823029
7.9878e-05
0.000114259
0.00113787
0.00227358
0.00325752
0.00410536
0.00484645
0.0055043
0.00609624
0.0066349
0.00712953
0.00758706
0.00801275
0.00841066
0.00878401
0.00913539
0.00946692
0.00978036
0.0100772
0.0103588
0.0106261
0.0108802
0.0111221
0.0113523
0.0115717
0.0117808
0.0119804
0.0121708
0.0123527
0.0125263
0.0126923
0.0128509
0.0130025
0.0131475
0.0132861
0.0134187
0.0135455
0.0136668
0.0137828
0.0138938
0.0139999
0.0141013
0.0141983
0.014291
0.0143795
0.014464
0.0145447
0.0146216
0.014695
0.0147649
0.0148316
0.0148951
0.0149555
0.015013
0.0150677
0.0151197
0.0151691
0.0152159
0.0152603
0.0153023
0.0153421
0.0153796
0.015415
0.0154484
0.0154797
0.0155091
0.0155366
0.0155623
0.0155862
0.0156084
0.0156289
0.0156477
0.015665
0.0156807
0.0156948
0.0157075
0.0157188
0.0157286
0.0157371
0.0157442
0.01575
0.0157544
0.0157576
0.0157596
0.0157603
0.0157598
0.0157582
0.0157553
0.0157513
0.0157462
0.0157399
0.0157326
0.0157241
0.0157145
0.0157039
0.0156921
0.0156793
0.0156655
0.0156506
0.0156346
0.0156176
0.0155996
0.0155805
0.0155603
0.0155391
0.0155169
0.0154936
0.0154692
0.0154438
0.0154173
0.0153897
0.0153611
0.0153314
0.0153005
0.0152686
0.0152355
0.0152012
0.0151659
0.0151293
0.0150916
0.0150527
0.0150126
0.0149713
0.0149287
0.0148848
0.0148397
0.0147932
0.0147455
0.0146964
0.0146459
0.014594
0.0145407
0.014486
0.0144299
0.0143722
0.014313
0.0142523
0.01419
0.0141261
0.0140606
0.0139934
0.0139245
0.0138539
0.0137816
0.0137075
0.0136315
0.0135536
0.0134739
0.0133922
0.0133085
0.0132228
0.013135
0.013045
0.0129529
0.0128585
0.0127618
0.0126628
0.0125613
0.0124573
0.0123507
0.0122415
0.0121295
0.0120147
0.0118969
0.0117761
0.0116521
0.0115247
0.0113939
0.0112595
0.0111213
0.0109791
0.0108327
0.0106818
0.0105262
0.0103656
0.0101996
0.0100278
0.0098498
0.00966508
0.00947304
0.009273
0.00906415
0.00884557
0.00861616
0.00837464
0.00811948
0.00784885
0.00756055
0.00725193
0.00691976
0.0065601
0.00616813
0.00573797
0.0052624
0.00473264
0.00413814
0.00346649
0.00270434
0.00184055
0.000887182
8.47833e-05
0.00011426
0.0011379
0.00227364
0.0032576
0.00410547
0.00484657
0.00550443
0.00609637
0.00663503
0.00712966
0.0075872
0.00801288
0.00841079
0.00878414
0.00913552
0.00946704
0.00978048
0.0100773
0.0103589
0.0106262
0.0108804
0.0111221
0.0113524
0.0115718
0.0117809
0.0119805
0.0121709
0.0123527
0.0125264
0.0126924
0.012851
0.0130026
0.0131476
0.0132862
0.0134188
0.0135456
0.0136669
0.0137829
0.0138938
0.0139999
0.0141014
0.0141983
0.014291
0.0143795
0.014464
0.0145447
0.0146216
0.014695
0.0147649
0.0148316
0.0148951
0.0149555
0.015013
0.0150677
0.0151197
0.0151691
0.0152159
0.0152603
0.0153023
0.0153421
0.0153796
0.015415
0.0154484
0.0154797
0.0155091
0.0155366
0.0155623
0.0155862
0.0156084
0.0156289
0.0156477
0.015665
0.0156807
0.0156948
0.0157075
0.0157188
0.0157286
0.0157371
0.0157442
0.01575
0.0157544
0.0157576
0.0157596
0.0157603
0.0157598
0.0157582
0.0157553
0.0157513
0.0157462
0.0157399
0.0157326
0.0157241
0.0157145
0.0157039
0.0156921
0.0156793
0.0156655
0.0156506
0.0156346
0.0156176
0.0155996
0.0155805
0.0155603
0.0155391
0.0155169
0.0154936
0.0154692
0.0154438
0.0154173
0.0153897
0.0153611
0.0153314
0.0153005
0.0152685
0.0152355
0.0152012