/*--------------------------------*- C++ -*----------------------------------*\
  =========                 |
  \\      /  F ield         | OpenFOAM: The Open Source CFD Toolbox
   \\    /   O peration     | Website:  https://openfoam.org
    \\  /    A nd           | Version:  8
     \\/     M anipulation  |
\*---------------------------------------------------------------------------*/
FoamFile
{
    version     2.0;
    format      ascii;
    class       surfaceScalarField;
    location    "2600";
    object      phi;
}
// * * * * * * * * * * * * * * * * * * * * * * * * * * * * * * * * * * * * * //

dimensions      [1 0 -1 0 0 0 0];

internalField   nonuniform List<scalar> 
119360
(
-3.31328e-07
-1.73705e-11
3.31345e-07
-5.59831e-07
-3.0874e-12
2.28666e-07
-6.5059e-07
-1.59893e-12
9.08138e-08
-6.22389e-07
-1.31549e-12
-2.81554e-08
-5.09836e-07
-1.31582e-12
-1.12511e-07
-3.41488e-07
-1.37173e-12
-1.68308e-07
-1.37804e-07
-1.3861e-12
-2.03647e-07
8.68224e-08
-1.40959e-12
-2.2459e-07
3.22001e-07
-1.42047e-12
-2.35146e-07
5.6067e-07
-1.38977e-12
-2.38638e-07
7.98292e-07
-1.37817e-12
-2.37594e-07
1.0317e-06
-1.3825e-12
-2.33382e-07
1.25871e-06
-1.37484e-12
-2.26982e-07
1.4778e-06
-1.33684e-12
-2.19064e-07
1.68793e-06
-1.27092e-12
-2.10107e-07
1.88841e-06
-1.17503e-12
-2.00459e-07
2.07882e-06
-1.04519e-12
-1.90382e-07
2.25892e-06
-9.02162e-13
-1.80073e-07
2.42862e-06
-7.78234e-13
-1.69685e-07
2.58798e-06
-6.86835e-13
-1.59334e-07
2.73711e-06
-6.17557e-13
-1.49113e-07
2.87623e-06
-5.59437e-13
-1.39093e-07
3.00557e-06
-5.16527e-13
-1.29328e-07
3.12545e-06
-4.95572e-13
-1.19862e-07
3.2362e-06
-4.91686e-13
-1.10727e-07
3.33816e-06
-4.89854e-13
-1.01946e-07
3.43171e-06
-4.77614e-13
-9.35352e-08
3.51723e-06
-4.54133e-13
-8.55046e-08
3.59511e-06
-4.25378e-13
-7.78594e-08
3.66572e-06
-3.95208e-13
-7.06006e-08
3.72947e-06
-3.6093e-13
-6.37254e-08
3.78671e-06
-3.18353e-13
-5.72283e-08
3.83782e-06
-2.68393e-13
-5.11014e-08
3.88317e-06
-2.19071e-13
-4.53347e-08
3.9231e-06
-1.81171e-13
-3.99168e-08
3.95795e-06
-1.61506e-13
-3.48352e-08
3.98804e-06
-1.5998e-13
-3.00763e-08
4.01367e-06
-1.71388e-13
-2.5626e-08
4.03515e-06
-1.89859e-13
-2.147e-08
4.05276e-06
-2.12091e-13
-1.75937e-08
4.06675e-06
-2.37377e-13
-1.39824e-08
4.07738e-06
-2.65979e-13
-1.06218e-08
4.08489e-06
-2.97343e-13
-7.49789e-09
4.08949e-06
-3.29747e-13
-4.59708e-09
4.09141e-06
-3.60695e-13
-1.90592e-09
4.09083e-06
-3.88048e-13
5.88995e-10
4.08794e-06
-4.11696e-13
2.89952e-09
4.08292e-06
-4.32859e-13
5.037e-09
4.07591e-06
-4.5387e-13
7.01306e-09
4.06709e-06
-4.77324e-13
8.8384e-09
4.05657e-06
-5.05385e-13
1.05229e-08
4.04451e-06
-5.39691e-13
1.20757e-08
4.03102e-06
-5.80644e-13
1.35055e-08
4.01621e-06
-6.27384e-13
1.48204e-08
4.00019e-06
-6.77358e-13
1.60281e-08
3.98307e-06
-7.27055e-13
1.71359e-08
3.96494e-06
-7.72366e-13
1.81503e-08
3.94587e-06
-8.10044e-13
1.90778e-08
3.92597e-06
-8.37383e-13
1.99242e-08
3.90529e-06
-8.53884e-13
2.0695e-08
3.88391e-06
-8.59505e-13
2.13954e-08
3.8619e-06
-8.55536e-13
2.20302e-08
3.83932e-06
-8.43517e-13
2.26039e-08
3.81622e-06
-8.24269e-13
2.31207e-08
3.79265e-06
-7.98637e-13
2.35845e-08
3.76867e-06
-7.66468e-13
2.39991e-08
3.74433e-06
-7.27596e-13
2.43679e-08
3.71965e-06
-6.81397e-13
2.46942e-08
3.69469e-06
-6.28065e-13
2.49811e-08
3.66948e-06
-5.68529e-13
2.52314e-08
3.64406e-06
-5.04386e-13
2.54479e-08
3.61844e-06
-4.38023e-13
2.56332e-08
3.59268e-06
-3.71992e-13
2.57896e-08
3.56677e-06
-3.09126e-13
2.59194e-08
3.54077e-06
-2.52019e-13
2.60247e-08
3.51468e-06
-2.02711e-13
2.61076e-08
3.48852e-06
-1.6216e-13
2.61701e-08
3.46232e-06
-1.3149e-13
2.62138e-08
3.4361e-06
-1.10618e-13
2.62406e-08
3.40986e-06
-9.91829e-14
2.6252e-08
3.38362e-06
-9.59911e-14
2.62496e-08
3.3574e-06
-9.97242e-14
2.62349e-08
3.3312e-06
-1.09244e-13
2.62093e-08
3.30503e-06
-1.22956e-13
2.6174e-08
3.27891e-06
-1.39415e-13
2.61303e-08
3.25284e-06
-1.57151e-13
2.60795e-08
3.22683e-06
-1.7515e-13
2.60226e-08
3.20088e-06
-1.92248e-13
2.59606e-08
3.17499e-06
-2.07416e-13
2.58947e-08
3.14917e-06
-2.19712e-13
2.58256e-08
3.12342e-06
-2.28233e-13
2.57545e-08
3.09775e-06
-2.32799e-13
2.5682e-08
3.07215e-06
-2.33354e-13
2.5609e-08
3.04662e-06
-2.30162e-13
2.55363e-08
3.02116e-06
-2.2407e-13
2.54646e-08
2.99578e-06
-2.16021e-13
2.53946e-08
2.97046e-06
-2.07208e-13
2.5327e-08
2.9452e-06
-1.98895e-13
2.52623e-08
2.92001e-06
-1.92193e-13
2.52013e-08
2.89487e-06
-1.88543e-13
2.51445e-08
2.86979e-06
-1.88529e-13
2.50925e-08
2.84475e-06
-1.93192e-13
2.50457e-08
2.81975e-06
-2.02573e-13
2.50048e-08
2.79479e-06
-2.16881e-13
2.49702e-08
2.76986e-06
-2.35894e-13
2.49424e-08
2.74494e-06
-2.58792e-13
2.49219e-08
2.72004e-06
-2.84883e-13
2.49091e-08
2.69514e-06
-3.1286e-13
2.49045e-08
2.67024e-06
-3.41421e-13
2.49085e-08
2.64533e-06
-3.69149e-13
2.49215e-08
2.62039e-06
-3.94684e-13
2.4944e-08
2.59543e-06
-4.16777e-13
2.49764e-08
2.57042e-06
-4.33958e-13
2.5019e-08
2.54536e-06
-4.4556e-13
2.50722e-08
2.52023e-06
-4.50556e-13
2.51364e-08
2.49503e-06
-4.49029e-13
2.52121e-08
2.46974e-06
-4.40675e-13
2.52995e-08
2.44435e-06
-4.26547e-13
2.5399e-08
2.41885e-06
-4.07785e-13
2.55111e-08
2.39323e-06
-3.86441e-13
2.5636e-08
2.36747e-06
-3.64403e-13
2.57741e-08
2.34156e-06
-3.44502e-13
2.59258e-08
2.31548e-06
-3.27987e-13
2.60913e-08
2.28922e-06
-3.16219e-13
2.6271e-08
2.26276e-06
-3.0953e-13
2.64653e-08
2.2361e-06
-3.05977e-13
2.66745e-08
2.20921e-06
-3.03701e-13
2.68987e-08
2.18209e-06
-2.99399e-13
2.71385e-08
2.1547e-06
-2.89685e-13
2.7394e-08
2.12705e-06
-2.71977e-13
2.76655e-08
2.09911e-06
-2.44082e-13
2.79533e-08
2.07086e-06
-2.06474e-13
2.82577e-08
2.04229e-06
-1.61343e-13
2.85788e-08
2.01338e-06
-1.12854e-13
2.89169e-08
1.98412e-06
-6.63912e-14
2.92721e-08
1.95448e-06
-2.73946e-14
2.96445e-08
1.92446e-06
3.60956e-16
3.00343e-08
1.89402e-06
1.53767e-14
3.04414e-08
1.86316e-06
1.98176e-14
3.0866e-08
1.83186e-06
1.87906e-14
3.13079e-08
1.8001e-06
1.91792e-14
3.17673e-08
1.76786e-06
2.70063e-14
3.2244e-08
1.73513e-06
4.61854e-14
3.2738e-08
1.70188e-06
7.76324e-14
3.3249e-08
1.66811e-06
1.17795e-13
3.3777e-08
1.63379e-06
1.59595e-13
3.43216e-08
1.59891e-06
1.94872e-13
3.48823e-08
1.56345e-06
2.1666e-13
3.54588e-08
1.5274e-06
2.21295e-13
3.60505e-08
1.49074e-06
2.08694e-13
3.66567e-08
1.45346e-06
1.8402e-13
3.72766e-08
1.41555e-06
1.54404e-13
3.79095e-08
1.37699e-06
1.27065e-13
3.85546e-08
1.33778e-06
1.07414e-13
3.92106e-08
1.2979e-06
9.73111e-14
3.98765e-08
1.25734e-06
9.52572e-14
4.0551e-08
1.21611e-06
9.6756e-14
4.12324e-08
1.17419e-06
9.75054e-14
4.1919e-08
1.13157e-06
9.42857e-14
4.2609e-08
1.08827e-06
8.86513e-14
4.33001e-08
1.04428e-06
8.35443e-14
4.39901e-08
9.99598e-07
8.49598e-14
4.46763e-08
9.54239e-07
9.5618e-14
4.53557e-08
9.08211e-07
1.11272e-13
4.6025e-08
8.61528e-07
1.22541e-13
4.66805e-08
8.14206e-07
1.18738e-13
4.73179e-08
7.6627e-07
9.6978e-14
4.79325e-08
7.17747e-07
6.87783e-14
4.85191e-08
6.68672e-07
5.47618e-14
4.90719e-08
6.19085e-07
7.39131e-14
4.95843e-08
5.69033e-07
1.24928e-13
5.00487e-08
5.18573e-07
1.8352e-13
5.04565e-08
4.67772e-07
2.17854e-13
5.07977e-08
4.16707e-07
2.15716e-13
5.10611e-08
3.65468e-07
2.00423e-13
5.1234e-08
3.14162e-07
2.12358e-13
5.13017e-08
2.62911e-07
2.67009e-13
5.12472e-08
2.11855e-07
3.31013e-13
5.10505e-08
1.61161e-07
3.50053e-13
5.06883e-08
1.11021e-07
3.07698e-13
5.01331e-08
6.16633e-08
2.56017e-13
4.93505e-08
1.3354e-08
2.59293e-13
4.83023e-08
-3.35734e-08
3.11529e-13
4.692e-08
-7.87213e-08
3.4156e-13
4.51398e-08
-1.21643e-07
3.18634e-13
4.29133e-08
-1.61835e-07
3.08753e-13
4.01827e-08
-1.98701e-07
3.80473e-13
3.68571e-08
-2.31515e-07
4.70846e-13
3.28051e-08
-2.59417e-07
4.50973e-13
2.78913e-08
-2.81371e-07
3.43336e-13
2.19441e-08
-2.96138e-07
3.10363e-13
1.47563e-08
-3.02238e-07
3.7137e-13
6.08863e-09
-2.97958e-07
3.62821e-13
-4.29163e-09
-2.81422e-07
2.99816e-13
-1.65495e-08
-2.50713e-07
3.76588e-13
-3.07215e-08
-2.04335e-07
4.74176e-13
-4.6391e-08
-1.42518e-07
3.74423e-13
-6.18324e-08
-7.05365e-08
3.23519e-13
-7.19999e-08
-1.04843e-08
1.41553e-12
-6.00732e-08
1.07514e-12
-1.05069e-08
-3.31306e-07
3.31376e-07
-5.59826e-07
2.28678e-07
-6.50583e-07
9.08202e-08
-6.22381e-07
-2.81515e-08
-5.09827e-07
-1.12508e-07
-3.4148e-07
-1.68306e-07
-1.37796e-07
-2.03645e-07
8.68295e-08
-2.24588e-07
3.22008e-07
-2.35143e-07
5.60676e-07
-2.38636e-07
7.98297e-07
-2.37592e-07
1.0317e-06
-2.3338e-07
1.25871e-06
-2.2698e-07
1.4778e-06
-2.19062e-07
1.68793e-06
-2.10104e-07
1.88841e-06
-2.00457e-07
2.07882e-06
-1.9038e-07
2.25892e-06
-1.80071e-07
2.42862e-06
-1.69683e-07
2.58798e-06
-1.59332e-07
2.73711e-06
-1.49111e-07
2.87623e-06
-1.39091e-07
3.00557e-06
-1.29326e-07
3.12545e-06
-1.19861e-07
3.2362e-06
-1.10726e-07
3.33816e-06
-1.01944e-07
3.43171e-06
-9.35336e-08
3.51723e-06
-8.5503e-08
3.59511e-06
-7.78578e-08
3.66572e-06
-7.0599e-08
3.72946e-06
-6.37239e-08
3.78671e-06
-5.72269e-08
3.83782e-06
-5.11e-08
3.88317e-06
-4.53334e-08
3.9231e-06
-3.99156e-08
3.95795e-06
-3.4834e-08
3.98803e-06
-3.00752e-08
4.01367e-06
-2.5625e-08
4.03515e-06
-2.14691e-08
4.05275e-06
-1.75928e-08
4.06675e-06
-1.39815e-08
4.07738e-06
-1.06209e-08
4.08489e-06
-7.49696e-09
4.08949e-06
-4.59614e-09
4.09141e-06
-1.90497e-09
4.09083e-06
5.8996e-10
4.08794e-06
2.90051e-09
4.08291e-06
5.03801e-09
4.07591e-06
7.0141e-09
4.06708e-06
8.83947e-09
4.05657e-06
1.0524e-08
4.04451e-06
1.20768e-08
4.03101e-06
1.35067e-08
4.01621e-06
1.48217e-08
4.00019e-06
1.60295e-08
3.98307e-06
1.71373e-08
3.96493e-06
1.81518e-08
3.94587e-06
1.90794e-08
3.92596e-06
1.99259e-08
3.90529e-06
2.06968e-08
3.88391e-06
2.13973e-08
3.8619e-06
2.20322e-08
3.83931e-06
2.26059e-08
3.81621e-06
2.31227e-08
3.79265e-06
2.35866e-08
3.76867e-06
2.40012e-08
3.74433e-06
2.437e-08
3.71965e-06
2.46963e-08
3.69469e-06
2.49832e-08
3.66948e-06
2.52335e-08
3.64406e-06
2.54499e-08
3.61844e-06
2.56351e-08
3.59267e-06
2.57914e-08
3.56677e-06
2.59211e-08
3.54077e-06
2.60264e-08
3.51468e-06
2.61092e-08
3.48852e-06
2.61715e-08
3.46232e-06
2.62151e-08
3.4361e-06
2.62418e-08
3.40986e-06
2.62531e-08
3.38362e-06
2.62507e-08
3.3574e-06
2.62359e-08
3.3312e-06
2.62102e-08
3.30503e-06
2.61749e-08
3.27891e-06
2.61312e-08
3.25284e-06
2.60803e-08
3.22683e-06
2.60233e-08
3.20088e-06
2.59614e-08
3.17499e-06
2.58954e-08
3.14917e-06
2.58264e-08
3.12342e-06
2.57552e-08
3.09775e-06
2.56827e-08
3.07215e-06
2.56098e-08
3.04662e-06
2.55371e-08
3.02116e-06
2.54654e-08
2.99578e-06
2.53954e-08
2.97046e-06
2.53278e-08
2.9452e-06
2.52632e-08
2.92001e-06
2.52022e-08
2.89487e-06
2.51454e-08
2.86979e-06
2.50933e-08
2.84475e-06
2.50466e-08
2.81975e-06
2.50056e-08
2.79479e-06
2.4971e-08
2.76985e-06
2.49432e-08
2.74494e-06
2.49227e-08
2.72004e-06
2.49099e-08
2.69514e-06
2.49053e-08
2.67024e-06
2.49093e-08
2.64533e-06
2.49224e-08
2.62039e-06
2.4945e-08
2.59543e-06
2.49774e-08
2.57042e-06
2.502e-08
2.54536e-06
2.50733e-08
2.52023e-06
2.51376e-08
2.49503e-06
2.52133e-08
2.46974e-06
2.53007e-08
2.44435e-06
2.54003e-08
2.41885e-06
2.55124e-08
2.39323e-06
2.56373e-08
2.36747e-06
2.57754e-08
2.34156e-06
2.5927e-08
2.31548e-06
2.60925e-08
2.28922e-06
2.62722e-08
2.26276e-06
2.64665e-08
2.2361e-06
2.66756e-08
2.20921e-06
2.68998e-08
2.18209e-06
2.71396e-08
2.1547e-06
2.7395e-08
2.12705e-06
2.76665e-08
2.09911e-06
2.79543e-08
2.07086e-06
2.82587e-08
2.04229e-06
2.85798e-08
2.01338e-06
2.89178e-08
1.98412e-06
2.9273e-08
1.95448e-06
2.96453e-08
1.92446e-06
3.0035e-08
1.89402e-06
3.0442e-08
1.86316e-06
3.08665e-08
1.83186e-06
3.13083e-08
1.8001e-06
3.17676e-08
1.76786e-06
3.22443e-08
1.73513e-06
3.27382e-08
1.70188e-06
3.32492e-08
1.66811e-06
3.37771e-08
1.63379e-06
3.43216e-08
1.59891e-06
3.48823e-08
1.56345e-06
3.54587e-08
1.5274e-06
3.60503e-08
1.49074e-06
3.66564e-08
1.45346e-06
3.72763e-08
1.41555e-06
3.79092e-08
1.37699e-06
3.85542e-08
1.33778e-06
3.92103e-08
1.2979e-06
3.98762e-08
1.25734e-06
4.05506e-08
1.21611e-06
4.1232e-08
1.17419e-06
4.19186e-08
1.13157e-06
4.26086e-08
1.08827e-06
4.32997e-08
1.04428e-06
4.39897e-08
9.99599e-07
4.4676e-08
9.5424e-07
4.53554e-08
9.08212e-07
4.60247e-08
8.61528e-07
4.66801e-08
8.14207e-07
4.73175e-08
7.66271e-07
4.7932e-08
7.17748e-07
4.85187e-08
6.68673e-07
4.90716e-08
6.19086e-07
4.9584e-08
5.69034e-07
5.00484e-08
5.18574e-07
5.04561e-08
4.67773e-07
5.07972e-08
4.16708e-07
5.10606e-08
3.65469e-07
5.12335e-08
3.14163e-07
5.13013e-08
2.62911e-07
5.12467e-08
2.11856e-07
5.10499e-08
1.61161e-07
5.06876e-08
1.11022e-07
5.01323e-08
6.16643e-08
4.93498e-08
1.3355e-08
4.83015e-08
-3.35726e-08
4.69191e-08
-7.87207e-08
4.51389e-08
-1.21643e-07
4.29124e-08
-1.61834e-07
4.01818e-08
-1.987e-07
3.68562e-08
-2.31515e-07
3.28041e-08
-2.59416e-07
2.78902e-08
-2.81371e-07
2.1943e-08
-2.96138e-07
1.47552e-08
-3.02238e-07
6.08731e-09
-2.97959e-07
-4.2931e-09
-2.81423e-07
-1.65507e-08
-2.50714e-07
-3.07222e-08
-2.04339e-07
-4.63916e-08
-1.42522e-07
-6.18328e-08
-7.05386e-08
-7.20034e-08
-1.04844e-08
-6.00755e-08
-1.05054e-08
-2.0227e-07
-1.30744e-12
5.33761e-07
-2.36951e-07
9.82983e-13
2.63446e-07
-1.97538e-07
7.1888e-13
5.14476e-08
-1.10834e-07
5.32706e-13
-1.1482e-07
1.34308e-08
4.07194e-13
-2.3674e-07
1.66912e-07
3.49815e-13
-3.21757e-07
3.41522e-07
3.19298e-13
-3.78226e-07
5.30456e-07
2.91451e-13
-4.13496e-07
7.28227e-07
2.63702e-13
-4.32889e-07
9.30412e-07
2.32172e-13
-4.40799e-07
1.13346e-06
1.97567e-13
-4.40617e-07
1.33467e-06
1.71241e-13
-4.34573e-07
1.53202e-06
1.57412e-13
-4.24308e-07
1.72398e-06
1.52527e-13
-4.11005e-07
1.90944e-06
1.5626e-13
-3.95539e-07
2.08757e-06
1.70457e-13
-3.78569e-07
2.25781e-06
1.90246e-13
-3.60598e-07
2.41977e-06
2.05949e-13
-3.42015e-07
2.57323e-06
2.12853e-13
-3.23125e-07
2.71808e-06
2.14026e-13
-3.04167e-07
2.85431e-06
2.14067e-13
-2.8533e-07
2.982e-06
2.12954e-13
-2.66764e-07
3.10128e-06
2.08124e-13
-2.48589e-07
3.21232e-06
1.99409e-13
-2.30895e-07
3.31537e-06
1.90281e-13
-2.13754e-07
3.41066e-06
1.84199e-13
-1.97222e-07
3.49847e-06
1.81479e-13
-1.81335e-07
3.5791e-06
1.80028e-13
-1.66122e-07
3.65286e-06
1.77961e-13
-1.51598e-07
3.72004e-06
1.75549e-13
-1.37772e-07
3.78097e-06
1.74488e-13
-1.24644e-07
3.83597e-06
1.75417e-13
-1.12208e-07
3.88533e-06
1.77076e-13
-1.00453e-07
3.92937e-06
1.76677e-13
-8.93636e-08
3.96839e-06
1.72118e-13
-7.89222e-08
4.00267e-06
1.63267e-13
-6.91074e-08
4.0325e-06
1.51711e-13
-5.98964e-08
4.05815e-06
1.39567e-13
-5.12647e-08
4.07987e-06
1.2809e-13
-4.3187e-08
4.09793e-06
1.17401e-13
-3.56374e-08
4.11254e-06
1.07076e-13
-2.85897e-08
4.12395e-06
9.67405e-14
-2.2018e-08
4.13235e-06
8.66339e-14
-1.58967e-08
4.13797e-06
7.76134e-14
-1.02006e-08
4.14097e-06
7.05842e-14
-4.90527e-09
4.14156e-06
6.57096e-14
1.31684e-11
4.13989e-06
6.28265e-14
4.57692e-09
4.13613e-06
6.14942e-14
8.80762e-09
4.13043e-06
6.09113e-14
1.27264e-08
4.12292e-06
6.03631e-14
1.63531e-08
4.11375e-06
5.95651e-14
1.97063e-08
4.10303e-06
5.83126e-14
2.28036e-08
4.09089e-06
5.68901e-14
2.56614e-08
4.07743e-06
5.57382e-14
2.82953e-08
4.06275e-06
5.5419e-14
3.07198e-08
4.04695e-06
5.66368e-14
3.29488e-08
4.03012e-06
5.9898e-14
3.49951e-08
4.01234e-06
6.55532e-14
3.68707e-08
3.99369e-06
7.36023e-14
3.85869e-08
3.97425e-06
8.3799e-14
4.01544e-08
3.95408e-06
9.5654e-14
4.1583e-08
3.93325e-06
1.0863e-13
4.28821e-08
3.91181e-06
1.22077e-13
4.40603e-08
3.88982e-06
1.35504e-13
4.51258e-08
3.86734e-06
1.48608e-13
4.60864e-08
3.84441e-06
1.61154e-13
4.69492e-08
3.82107e-06
1.73088e-13
4.7721e-08
3.79738e-06
1.84236e-13
4.84081e-08
3.77336e-06
1.94609e-13
4.90167e-08
3.74906e-06
2.03817e-13
4.95523e-08
3.72451e-06
2.11599e-13
5.00202e-08
3.69973e-06
2.17542e-13
5.04256e-08
3.67476e-06
2.21227e-13
5.07731e-08
3.64963e-06
2.22268e-13
5.10672e-08
3.62436e-06
2.20412e-13
5.13123e-08
3.59897e-06
2.15572e-13
5.15122e-08
3.57348e-06
2.07745e-13
5.16709e-08
3.54792e-06
1.97242e-13
5.17919e-08
3.52229e-06
1.84409e-13
5.18786e-08
3.49662e-06
1.69834e-13
5.19343e-08
3.47092e-06
1.54138e-13
5.19621e-08
3.44519e-06
1.37998e-13
5.19648e-08
3.41947e-06
1.22129e-13
5.19452e-08
3.39374e-06
1.07012e-13
5.19059e-08
3.36803e-06
9.31971e-14
5.18495e-08
3.34234e-06
8.10713e-14
5.17781e-08
3.31668e-06
7.09058e-14
5.16941e-08
3.29104e-06
6.27942e-14
5.15996e-08
3.26545e-06
5.67608e-14
5.14965e-08
3.2399e-06
5.28334e-14
5.13868e-08
3.21438e-06
5.06338e-14
5.12722e-08
3.18892e-06
5.00023e-14
5.11545e-08
3.1635e-06
5.05158e-14
5.10352e-08
3.13813e-06
5.17682e-14
5.09158e-08
3.1128e-06
5.33641e-14
5.0798e-08
3.08752e-06
5.4908e-14
5.06829e-08
3.06228e-06
5.61362e-14
5.0572e-08
3.03708e-06
5.67537e-14
5.04665e-08
3.01192e-06
5.67225e-14
5.03677e-08
2.9868e-06
5.59488e-14
5.02766e-08
2.9617e-06
5.45159e-14
5.01946e-08
2.93663e-06
5.2566e-14
5.01226e-08
2.91158e-06
5.02692e-14
5.00616e-08
2.88655e-06
4.77955e-14
5.00128e-08
2.86152e-06
4.53773e-14
4.99771e-08
2.83649e-06
4.32887e-14
4.99554e-08
2.81146e-06
4.17447e-14
4.99487e-08
2.78642e-06
4.09259e-14
4.99578e-08
2.76135e-06
4.10265e-14
4.99836e-08
2.73625e-06
4.2168e-14
5.00269e-08
2.71111e-06
4.43953e-14
5.00886e-08
2.68593e-06
4.77121e-14
5.01694e-08
2.66069e-06
5.20697e-14
5.02701e-08
2.63538e-06
5.74161e-14
5.03914e-08
2.60999e-06
6.3616e-14
5.05342e-08
2.58451e-06
7.04508e-14
5.06991e-08
2.55894e-06
7.77124e-14
5.08868e-08
2.53325e-06
8.5078e-14
5.10981e-08
2.50744e-06
9.22007e-14
5.13336e-08
2.48149e-06
9.86296e-14
5.15941e-08
2.45539e-06
1.03976e-13
5.18803e-08
2.42914e-06
1.07976e-13
5.21927e-08
2.40271e-06
1.10433e-13
5.25321e-08
2.37609e-06
1.11432e-13
5.2899e-08
2.34927e-06
1.11224e-13
5.32942e-08
2.32224e-06
1.10214e-13
5.37182e-08
2.29497e-06
1.09066e-13
5.41716e-08
2.26747e-06
1.08243e-13
5.46549e-08
2.2397e-06
1.08413e-13
5.51686e-08
2.21166e-06
1.09794e-13
5.57133e-08
2.18334e-06
1.1231e-13
5.62894e-08
2.15471e-06
1.15574e-13
5.68972e-08
2.12576e-06
1.18832e-13
5.75372e-08
2.09647e-06
1.20976e-13
5.82097e-08
2.06684e-06
1.21014e-13
5.89149e-08
2.03683e-06
1.18169e-13
5.96531e-08
2.00645e-06
1.1223e-13
6.04243e-08
1.97567e-06
1.03698e-13
6.12287e-08
1.94447e-06
9.35572e-14
6.20664e-08
1.91285e-06
8.33188e-14
6.29372e-08
1.88078e-06
7.44648e-14
6.38409e-08
1.84825e-06
6.79492e-14
6.47774e-08
1.81524e-06
6.3987e-14
6.57463e-08
1.78175e-06
6.2065e-14
6.67472e-08
1.74774e-06
6.07952e-14
6.77794e-08
1.71322e-06
5.86892e-14
6.88423e-08
1.67817e-06
5.42136e-14
6.9935e-08
1.64257e-06
4.66433e-14
7.10565e-08
1.60642e-06
3.611e-14
7.22056e-08
1.56969e-06
2.35992e-14
7.33809e-08
1.53239e-06
1.06304e-14
7.45809e-08
1.49449e-06
-1.19347e-15
7.58039e-08
1.45599e-06
-1.06789e-14
7.70477e-08
1.41689e-06
-1.7368e-14
7.83102e-08
1.37718e-06
-2.14342e-14
7.95888e-08
1.33684e-06
-2.36339e-14
8.08806e-08
1.29589e-06
-2.49592e-14
8.21824e-08
1.25432e-06
-2.64233e-14
8.34907e-08
1.21212e-06
-2.84148e-14
8.48016e-08
1.16931e-06
-3.05034e-14
8.61106e-08
1.12588e-06
-3.17662e-14
8.74129e-08
1.08185e-06
-3.13083e-14
8.87031e-08
1.03723e-06
-2.89282e-14
8.99751e-08
9.92031e-07
-2.60208e-14
9.12223e-08
9.46271e-07
-2.50563e-14
9.24372e-08
8.99975e-07
-2.78735e-14
9.36115e-08
8.53168e-07
-3.37716e-14
9.47359e-08
8.05884e-07
-3.90868e-14
9.58001e-08
7.58161e-07
-3.90382e-14
9.67926e-08
7.10042e-07
-3.13777e-14
9.77003e-08
6.6158e-07
-1.9526e-14
9.85085e-08
6.12832e-07
-1.11439e-14
9.92008e-08
5.63868e-07
-1.19904e-14
9.97584e-08
5.14765e-07
-2.00187e-14
1.0016e-07
4.65613e-07
-2.58404e-14
1.00382e-07
4.16515e-07
-2.15453e-14
1.00396e-07
3.67588e-07
-1.05541e-14
1.0017e-07
3.18965e-07
-6.64052e-15
9.96685e-08
2.70799e-07
-1.92485e-14
9.88483e-08
2.23266e-07
-4.0995e-14
9.766e-08
1.76567e-07
-5.34711e-14
9.60436e-08
1.30932e-07
-4.95784e-14
9.39308e-08
8.66193e-08
-4.40273e-14
9.12255e-08
4.39222e-08
-5.23886e-14
8.78296e-08
3.17474e-09
-6.39905e-14
8.36532e-08
-3.52216e-08
-5.42691e-14
7.85713e-08
-7.08121e-08
-2.9643e-14
7.24395e-08
-1.03104e-07
-3.04479e-14
6.50881e-08
-1.31537e-07
-6.67383e-14
5.63154e-08
-1.55488e-07
-9.1295e-14
4.58859e-08
-1.74276e-07
-8.12753e-14
3.35349e-08
-1.87188e-07
-8.67639e-14
1.89895e-08
-1.93494e-07
-1.19099e-13
2.00401e-09
-1.92521e-07
-1.14256e-13
-1.75343e-08
-1.83777e-07
-1.18947e-13
-3.94773e-08
-1.67091e-07
-1.9898e-13
-6.30906e-08
-1.42656e-07
-1.59164e-13
-8.6281e-08
-1.10117e-07
-8.05745e-14
-1.04557e-07
-6.43351e-08
-2.70922e-13
-1.05876e-07
-1.388e-12
-7.48572e-08
-2.02262e-07
5.33758e-07
-2.36949e-07
2.63443e-07
-1.97535e-07
5.14451e-08
-1.1083e-07
-1.14822e-07
1.34347e-08
-2.36742e-07
1.66916e-07
-3.21758e-07
3.41525e-07
-3.78227e-07
5.30459e-07
-4.13497e-07
7.28229e-07
-4.3289e-07
9.30414e-07
-4.408e-07
1.13346e-06
-4.40617e-07
1.33467e-06
-4.34573e-07
1.53202e-06
-4.24308e-07
1.72398e-06
-4.11005e-07
1.90944e-06
-3.95539e-07
2.08757e-06
-3.78569e-07
2.2578e-06
-3.60598e-07
2.41977e-06
-3.42015e-07
2.57322e-06
-3.23125e-07
2.71808e-06
-3.04167e-07
2.85431e-06
-2.8533e-07
2.982e-06
-2.66764e-07
3.10127e-06
-2.48589e-07
3.21232e-06
-2.30895e-07
3.31536e-06
-2.13755e-07
3.41065e-06
-1.97222e-07
3.49847e-06
-1.81335e-07
3.5791e-06
-1.66122e-07
3.65285e-06
-1.51598e-07
3.72004e-06
-1.37773e-07
3.78097e-06
-1.24644e-07
3.83596e-06
-1.12208e-07
3.88533e-06
-1.00453e-07
3.92937e-06
-8.93637e-08
3.96838e-06
-7.89223e-08
4.00267e-06
-6.91075e-08
4.0325e-06
-5.98965e-08
4.05814e-06
-5.12648e-08
4.07987e-06
-4.31871e-08
4.09792e-06
-3.56375e-08
4.11254e-06
-2.85899e-08
4.12394e-06
-2.20182e-08
4.13235e-06
-1.58969e-08
4.13796e-06
-1.02008e-08
4.14097e-06
-4.90543e-09
4.14156e-06
1.30021e-11
4.13989e-06
4.57675e-09
4.13613e-06
8.80744e-09
4.13043e-06
1.27262e-08
4.12292e-06
1.63529e-08
4.11375e-06
1.97061e-08
4.10303e-06
2.28034e-08
4.09089e-06
2.56612e-08
4.07742e-06
2.82951e-08
4.06275e-06
3.07197e-08
4.04695e-06
3.29486e-08
4.03012e-06
3.49949e-08
4.01234e-06
3.68705e-08
3.99369e-06
3.85868e-08
3.97425e-06
4.01542e-08
3.95408e-06
4.15828e-08
3.93324e-06
4.28819e-08
3.91181e-06
4.40601e-08
3.88982e-06
4.51256e-08
3.86734e-06
4.60862e-08
3.84441e-06
4.6949e-08
3.82107e-06
4.77208e-08
3.79738e-06
4.84079e-08
3.77336e-06
4.90165e-08
3.74906e-06
4.95521e-08
3.72451e-06
5.002e-08
3.69973e-06
5.04254e-08
3.67476e-06
5.07729e-08
3.64963e-06
5.1067e-08
3.62436e-06
5.13121e-08
3.59897e-06
5.1512e-08
3.57348e-06
5.16707e-08
3.54792e-06
5.17917e-08
3.52229e-06
5.18784e-08
3.49662e-06
5.19342e-08
3.47091e-06
5.19619e-08
3.44519e-06
5.19646e-08
3.41947e-06
5.19451e-08
3.39374e-06
5.19058e-08
3.36803e-06
5.18493e-08
3.34234e-06
5.1778e-08
3.31668e-06
5.1694e-08
3.29104e-06
5.15995e-08
3.26545e-06
5.14965e-08
3.23989e-06
5.13868e-08
3.21438e-06
5.12722e-08
3.18892e-06
5.11544e-08
3.1635e-06
5.10351e-08
3.13813e-06
5.09158e-08
3.1128e-06
5.07979e-08
3.08752e-06
5.06829e-08
3.06228e-06
5.0572e-08
3.03708e-06
5.04665e-08
3.01192e-06
5.03676e-08
2.9868e-06
5.02766e-08
2.9617e-06
5.01945e-08
2.93663e-06
5.01225e-08
2.91158e-06
5.00616e-08
2.88655e-06
5.00128e-08
2.86152e-06
4.9977e-08
2.83649e-06
4.99553e-08
2.81146e-06
4.99486e-08
2.78641e-06
4.99577e-08
2.76135e-06
4.99835e-08
2.73625e-06
5.00269e-08
2.71111e-06
5.00885e-08
2.68593e-06
5.01693e-08
2.66069e-06
5.027e-08
2.63538e-06
5.03914e-08
2.60999e-06
5.05342e-08
2.58451e-06
5.0699e-08
2.55894e-06
5.08868e-08
2.53325e-06
5.1098e-08
2.50744e-06
5.13336e-08
2.48149e-06
5.15941e-08
2.45539e-06
5.18802e-08
2.42914e-06
5.21926e-08
2.40271e-06
5.2532e-08
2.37609e-06
5.28989e-08
2.34927e-06
5.32941e-08
2.32224e-06
5.37181e-08
2.29497e-06
5.41715e-08
2.26747e-06
5.46548e-08
2.2397e-06
5.51685e-08
2.21166e-06
5.57132e-08
2.18334e-06
5.62893e-08
2.15471e-06
5.68971e-08
2.12576e-06
5.75371e-08
2.09647e-06
5.82096e-08
2.06684e-06
5.89148e-08
2.03683e-06
5.9653e-08
2.00645e-06
6.04242e-08
1.97567e-06
6.12286e-08
1.94447e-06
6.20663e-08
1.91285e-06
6.2937e-08
1.88078e-06
6.38408e-08
1.84825e-06
6.47773e-08
1.81524e-06
6.57462e-08
1.78175e-06
6.67471e-08
1.74774e-06
6.77793e-08
1.71322e-06
6.88422e-08
1.67817e-06
6.99349e-08
1.64257e-06
7.10564e-08
1.60642e-06
7.22055e-08
1.56969e-06
7.33808e-08
1.53239e-06
7.45809e-08
1.49449e-06
7.58038e-08
1.45599e-06
7.70477e-08
1.41689e-06
7.83101e-08
1.37718e-06
7.95887e-08
1.33684e-06
8.08805e-08
1.29589e-06
8.21824e-08
1.25432e-06
8.34907e-08
1.21212e-06
8.48016e-08
1.16931e-06
8.61106e-08
1.12588e-06
8.74129e-08
1.08185e-06
8.87031e-08
1.03723e-06
8.99751e-08
9.92031e-07
9.12223e-08
9.46272e-07
9.24372e-08
8.99975e-07
9.36114e-08
8.53168e-07
9.47359e-08
8.05885e-07
9.58001e-08
7.58161e-07
9.67926e-08
7.10043e-07
9.77003e-08
6.6158e-07
9.85085e-08
6.12832e-07
9.92008e-08
5.63868e-07
9.97584e-08
5.14765e-07
1.0016e-07
4.65614e-07
1.00382e-07
4.16516e-07
1.00396e-07
3.67588e-07
1.0017e-07
3.18965e-07
9.96685e-08
2.70799e-07
9.88483e-08
2.23266e-07
9.76601e-08
1.76567e-07
9.60437e-08
1.30932e-07
9.39308e-08
8.66196e-08
9.12256e-08
4.39225e-08
8.78296e-08
3.17499e-09
8.36533e-08
-3.52213e-08
7.85714e-08
-7.08119e-08
7.24396e-08
-1.03104e-07
6.50881e-08
-1.31537e-07
5.63155e-08
-1.55488e-07
4.58861e-08
-1.74276e-07
3.3535e-08
-1.87188e-07
1.89896e-08
-1.93494e-07
2.0042e-09
-1.92521e-07
-1.7534e-08
-1.83777e-07
-3.9477e-08
-1.6709e-07
-6.30901e-08
-1.42656e-07
-8.62806e-08
-1.10121e-07
-1.04555e-07
-6.43417e-08
-1.05875e-07
-7.48616e-08
-4.99492e-08
-3.40093e-13
5.83766e-07
4.6834e-09
7.75314e-13
2.0886e-07
9.98636e-08
4.66878e-13
-4.37207e-08
2.14882e-07
3.411e-13
-2.29829e-07
3.45981e-07
2.81098e-13
-3.67832e-07
4.91357e-07
2.46969e-13
-4.67126e-07
6.48743e-07
2.21135e-13
-5.35606e-07
8.15318e-07
2.04866e-13
-5.80066e-07
9.88365e-07
1.91863e-13
-6.05931e-07
1.16523e-06
1.74737e-13
-6.17663e-07
1.34342e-06
1.56817e-13
-6.18799e-07
1.52083e-06
1.43568e-13
-6.1198e-07
1.69574e-06
1.35033e-13
-5.99217e-07
1.86678e-06
1.30831e-13
-5.82037e-07
2.03286e-06
1.31702e-13
-5.61615e-07
2.19315e-06
1.36545e-13
-5.38859e-07
2.34704e-06
1.41899e-13
-5.14482e-07
2.49408e-06
1.44331e-13
-4.89045e-07
2.63395e-06
1.43258e-13
-4.62996e-07
2.76648e-06
1.40632e-13
-4.36692e-07
2.89158e-06
1.3821e-13
-4.1042e-07
3.00922e-06
1.35501e-13
-3.84408e-07
3.11948e-06
1.31358e-13
-3.58842e-07
3.22245e-06
1.26059e-13
-3.33866e-07
3.3183e-06
1.21224e-13
-3.09595e-07
3.4072e-06
1.17824e-13
-2.86117e-07
3.48936e-06
1.15317e-13
-2.63498e-07
3.56503e-06
1.12496e-13
-2.41785e-07
3.63444e-06
1.08906e-13
-2.21009e-07
3.69786e-06
1.05429e-13
-2.01189e-07
3.75555e-06
1.03158e-13
-1.82331e-07
3.80778e-06
1.02234e-13
-1.64433e-07
3.85481e-06
1.01531e-13
-1.47483e-07
3.89691e-06
9.94026e-14
-1.31466e-07
3.93435e-06
9.4901e-14
-1.16358e-07
3.96738e-06
8.84235e-14
-1.02132e-07
3.99624e-06
8.12053e-14
-8.87606e-08
4.02119e-06
7.4452e-14
-7.62096e-08
4.04245e-06
6.84446e-14
-6.44458e-08
4.06025e-06
6.26888e-14
-5.34339e-08
4.0748e-06
5.64958e-14
-4.31386e-08
4.08631e-06
4.96176e-14
-3.3524e-08
4.09497e-06
4.26076e-14
-2.45548e-08
4.10097e-06
3.64493e-14
-1.61962e-08
4.10448e-06
3.19234e-14
-8.41397e-09
4.10567e-06
2.93161e-14
-1.17515e-09
4.10469e-06
2.82162e-14
5.55173e-09
4.10171e-06
2.80011e-14
1.17971e-08
4.09684e-06
2.80011e-14
1.75905e-08
4.09024e-06
2.78744e-14
2.29597e-08
4.08202e-06
2.75969e-14
2.79314e-08
4.07229e-06
2.74008e-14
3.25304e-08
4.06118e-06
2.75431e-14
3.67804e-08
4.04877e-06
2.8223e-14
4.07035e-08
4.03517e-06
2.9623e-14
4.43208e-08
4.02047e-06
3.18052e-14
4.7652e-08
4.00476e-06
3.49017e-14
5.07155e-08
3.9881e-06
3.89418e-14
5.35287e-08
3.97058e-06
4.40072e-14
5.6108e-08
3.95227e-06
5.0103e-14
5.84687e-08
3.93323e-06
5.70887e-14
6.06251e-08
3.91353e-06
6.47215e-14
6.25908e-08
3.89322e-06
7.26544e-14
6.43784e-08
3.87235e-06
8.05387e-14
6.59998e-08
3.85097e-06
8.80552e-14
6.74662e-08
3.82914e-06
9.49663e-14
6.87881e-08
3.80688e-06
1.01125e-13
6.99753e-08
3.78426e-06
1.065e-13
7.10374e-08
3.7613e-06
1.11047e-13
7.19829e-08
3.73803e-06
1.1473e-13
7.28202e-08
3.7145e-06
1.17447e-13
7.3557e-08
3.69073e-06
1.19075e-13
7.42009e-08
3.66675e-06
1.19433e-13
7.47587e-08
3.64258e-06
1.18354e-13
7.52371e-08
3.61825e-06
1.15665e-13
7.56422e-08
3.59379e-06
1.11347e-13
7.59801e-08
3.56921e-06
1.05404e-13
7.62562e-08
3.54452e-06
9.80401e-14
7.64759e-08
3.51976e-06
8.95157e-14
7.66443e-08
3.49493e-06
8.02227e-14
7.67661e-08
3.47005e-06
7.06557e-14
7.68458e-08
3.44513e-06
6.12847e-14
7.68877e-08
3.42018e-06
5.25556e-14
7.68959e-08
3.39521e-06
4.48656e-14
7.68742e-08
3.37024e-06
3.84939e-14
7.68263e-08
3.34526e-06
3.35916e-14
7.67557e-08
3.32029e-06
3.01672e-14
7.66656e-08
3.29534e-06
2.81757e-14
7.65591e-08
3.27039e-06
2.73656e-14
7.64393e-08
3.24547e-06
2.74992e-14
7.63089e-08
3.22058e-06
2.82468e-14
7.61706e-08
3.19571e-06
2.92252e-14
7.60269e-08
3.17086e-06
3.01359e-14
7.58803e-08
3.14605e-06
3.06841e-14
7.57329e-08
3.12126e-06
3.06598e-14
7.55871e-08
3.0965e-06
2.99641e-14
7.54448e-08
3.07176e-06
2.86058e-14
7.53081e-08
3.04705e-06
2.66699e-14
7.51788e-08
3.02236e-06
2.42916e-14
7.50588e-08
2.99769e-06
2.16964e-14
7.49499e-08
2.97303e-06
1.91429e-14
7.48536e-08
2.94838e-06
1.68062e-14
7.47717e-08
2.92374e-06
1.4924e-14
7.47057e-08
2.8991e-06
1.36143e-14
7.4657e-08
2.87445e-06
1.2969e-14
7.46273e-08
2.84979e-06
1.30488e-14
7.46177e-08
2.82511e-06
1.38485e-14
7.46298e-08
2.8004e-06
1.5316e-14
7.46649e-08
2.77567e-06
1.74012e-14
7.47241e-08
2.75089e-06
1.99824e-14
7.48088e-08
2.72606e-06
2.29488e-14
7.49202e-08
2.70117e-06
2.61684e-14
7.50594e-08
2.67621e-06
2.95407e-14
7.52276e-08
2.65118e-06
3.29512e-14
7.54259e-08
2.62606e-06
3.63634e-14
7.56553e-08
2.60084e-06
3.96871e-14
7.59171e-08
2.57552e-06
4.28877e-14
7.62123e-08
2.55008e-06
4.59095e-14
7.65418e-08
2.52451e-06
4.86469e-14
7.69067e-08
2.4988e-06
5.10374e-14
7.7308e-08
2.47293e-06
5.30063e-14
7.77467e-08
2.4469e-06
5.44981e-14
7.82238e-08
2.4207e-06
5.55025e-14
7.87402e-08
2.3943e-06
5.60698e-14
7.92967e-08
2.3677e-06
5.63161e-14
7.98944e-08
2.34089e-06
5.64098e-14
8.05339e-08
2.31385e-06
5.65572e-14
8.12162e-08
2.28656e-06
5.69406e-14
8.1942e-08
2.25902e-06
5.77126e-14
8.27119e-08
2.23121e-06
5.89338e-14
8.35267e-08
2.20311e-06
6.05037e-14
8.43869e-08
2.17472e-06
6.21812e-14
8.52931e-08
2.14601e-06
6.35742e-14
8.62458e-08
2.11698e-06
6.42646e-14
8.72454e-08
2.0876e-06
6.38205e-14
8.82921e-08
2.05787e-06
6.19661e-14
8.93862e-08
2.02777e-06
5.87048e-14
9.05279e-08
1.99728e-06
5.43697e-14
9.17172e-08
1.96639e-06
4.9424e-14
9.2954e-08
1.93509e-06
4.45113e-14
9.4238e-08
1.90337e-06
4.0197e-14
9.5569e-08
1.8712e-06
3.6823e-14