/*--------------------------------*- C++ -*----------------------------------*\
  =========                 |
  \\      /  F ield         | OpenFOAM: The Open Source CFD Toolbox
   \\    /   O peration     | Website:  https://openfoam.org
    \\  /    A nd           | Version:  8
     \\/     M anipulation  |
\*---------------------------------------------------------------------------*/
FoamFile
{
    version     2.0;
    format      ascii;
    class       volVectorField;
    location    "2600";
    object      U;
}
// * * * * * * * * * * * * * * * * * * * * * * * * * * * * * * * * * * * * * //

dimensions      [0 1 -1 0 0 0 0];

internalField   nonuniform List<vector> 
48000
(
(-0.0165203 -1.37854e-06 0.0180351)
(-0.032394 -3.54721e-07 0.0147423)
(-0.0437146 -2.1819e-07 0.00616406)
(-0.0451307 -1.72989e-07 -0.00141781)
(-0.0397527 -1.61065e-07 -0.00671146)
(-0.0297719 -1.60311e-07 -0.010165)
(-0.0168014 -1.59588e-07 -0.0123624)
(-0.00194739 -1.57669e-07 -0.0136468)
(0.0140168 -1.54128e-07 -0.0141814)
(0.0302838 -1.48105e-07 -0.0142223)
(0.0466827 -1.44134e-07 -0.0140089)
(0.0628739 -1.42375e-07 -0.0136297)
(0.0786912 -1.41286e-07 -0.0131426)
(0.0940094 -1.3803e-07 -0.0125861)
(0.108743 -1.31916e-07 -0.0119867)
(0.122833 -1.23178e-07 -0.011363)
(0.136244 -1.11227e-07 -0.0107284)
(0.148952 -9.66027e-08 -0.0100926)
(0.160949 -8.15143e-08 -0.00946269)
(0.172233 -6.81658e-08 -0.00884409)
(0.182809 -5.70446e-08 -0.00824071)
(0.192691 -4.77394e-08 -0.00765547)
(0.201893 -4.03647e-08 -0.00709051)
(0.210434 -3.55179e-08 -0.00654734)
(0.218338 -3.33173e-08 -0.00602699)
(0.225626 -3.29937e-08 -0.0055301)
(0.232325 -3.3245e-08 -0.00505699)
(0.238459 -3.30736e-08 -0.00460771)
(0.244056 -3.2118e-08 -0.00418208)
(0.249141 -3.0439e-08 -0.00377977)
(0.253742 -2.80556e-08 -0.00340029)
(0.257885 -2.48479e-08 -0.00304304)
(0.261595 -2.06884e-08 -0.00270733)
(0.264896 -1.5817e-08 -0.00239239)
(0.267815 -1.09988e-08 -0.00209741)
(0.270374 -7.20868e-09 -0.00182152)
(0.272595 -5.25554e-09 -0.00156384)
(0.274501 -5.40974e-09 -0.00132349)
(0.276112 -7.41619e-09 -0.00109959)
(0.277447 -1.06771e-08 -0.000891229)
(0.278526 -1.45739e-08 -0.000697551)
(0.279366 -1.86553e-08 -0.000517702)
(0.279984 -2.26701e-08 -0.000350867)
(0.280396 -2.65326e-08 -0.000196265)
(0.280616 -3.01381e-08 -5.30711e-05)
(0.280659 -3.33286e-08 7.96321e-05)
(0.280537 -3.59994e-08 0.000202331)
(0.280262 -3.80629e-08 0.000315481)
(0.279847 -3.96201e-08 0.000419869)
(0.279302 -4.09526e-08 0.000516143)
(0.278636 -4.24622e-08 0.000604861)
(0.27786 -4.46152e-08 0.00068653)
(0.276981 -4.77315e-08 0.000761623)
(0.276009 -5.18681e-08 0.000830582)
(0.27495 -5.67661e-08 0.000893825)
(0.273811 -6.18926e-08 0.000951742)
(0.272601 -6.65831e-08 0.0010047)
(0.271323 -7.02838e-08 0.00105304)
(0.269986 -7.25967e-08 0.00109709)
(0.268592 -7.34875e-08 0.00113714)
(0.267149 -7.31068e-08 0.00117346)
(0.265659 -7.18047e-08 0.00120632)
(0.264129 -6.99543e-08 0.00123595)
(0.262561 -6.7769e-08 0.00126257)
(0.260959 -6.53361e-08 0.0012864)
(0.259328 -6.25206e-08 0.00130763)
(0.257669 -5.91264e-08 0.00132645)
(0.255987 -5.48699e-08 0.00134303)
(0.254284 -4.95969e-08 0.00135754)
(0.252562 -4.33339e-08 0.00137012)
(0.250825 -3.62657e-08 0.00138093)
(0.249073 -2.87692e-08 0.0013901)
(0.24731 -2.12823e-08 0.00139776)
(0.245537 -1.42865e-08 0.00140401)
(0.243756 -8.2139e-09 0.00140898)
(0.241968 -3.35775e-09 0.00141278)
(0.240176 1.6395e-10 0.00141549)
(0.238379 2.30743e-09 0.00141722)
(0.23658 3.19261e-09 0.00141805)
(0.23478 3.00985e-09 0.00141808)
(0.23298 2.01235e-09 0.00141739)
(0.231179 4.45661e-10 0.00141605)
(0.229381 -1.51127e-09 0.00141414)
(0.227584 -3.6814e-09 0.00141174)
(0.22579 -5.96004e-09 0.0014089)
(0.224 -8.23868e-09 0.00140569)
(0.222213 -1.04926e-08 0.00140218)
(0.22043 -1.26627e-08 0.00139841)
(0.218652 -1.47015e-08 0.00139445)
(0.216878 -1.6548e-08 0.00139033)
(0.215109 -1.80975e-08 0.00138612)
(0.213345 -1.9314e-08 0.00138185)
(0.211586 -2.01363e-08 0.00137758)
(0.209832 -2.05361e-08 0.00137333)
(0.208084 -2.05247e-08 0.00136915)
(0.20634 -2.01287e-08 0.00136508)
(0.2046 -1.94225e-08 0.00136115)
(0.202866 -1.84878e-08 0.0013574)
(0.201135 -1.74313e-08 0.00135385)
(0.199409 -1.64014e-08 0.00135055)
(0.197687 -1.54763e-08 0.00134752)
(0.195968 -1.48234e-08 0.00134478)
(0.194252 -1.44997e-08 0.00134238)
(0.192538 -1.46121e-08 0.00134032)
(0.190827 -1.52212e-08 0.00133865)
(0.189117 -1.63177e-08 0.00133738)
(0.187409 -1.79396e-08 0.00133655)
(0.185701 -2.00031e-08 0.00133617)
(0.183993 -2.24245e-08 0.00133627)
(0.182284 -2.50972e-08 0.00133687)
(0.180575 -2.78574e-08 0.00133801)
(0.178863 -3.05454e-08 0.00133969)
(0.177149 -3.29325e-08 0.00134194)
(0.175432 -3.48589e-08 0.00134479)
(0.17371 -3.61001e-08 0.00134825)
(0.171984 -3.65456e-08 0.00135235)
(0.170252 -3.60658e-08 0.00135711)
(0.168514 -3.46876e-08 0.00136255)
(0.166769 -3.24871e-08 0.00136869)
(0.165015 -2.96697e-08 0.00137555)
(0.163253 -2.65059e-08 0.00138316)
(0.16148 -2.33725e-08 0.00139153)
(0.159697 -2.05552e-08 0.00140068)
(0.157902 -1.83584e-08 0.00141063)
(0.156094 -1.6984e-08 0.0014214)
(0.154272 -1.6333e-08 0.00143301)
(0.152435 -1.62949e-08 0.00144548)
(0.150582 -1.65043e-08 0.00145883)
(0.148713 -1.65005e-08 0.00147307)
(0.146825 -1.58837e-08 0.00148823)
(0.144918 -1.4239e-08 0.00150432)
(0.14299 -1.14635e-08 0.00152136)
(0.141042 -7.6982e-09 0.00153938)
(0.13907 -3.36557e-09 0.00155838)
(0.137075 8.79491e-10 0.00157838)
(0.135055 4.29838e-09 0.00159939)
(0.133008 6.31621e-09 0.00162143)
(0.130935 6.65886e-09 0.00164448)
(0.128832 5.50908e-09 0.00166857)
(0.1267 3.55978e-09 0.00169369)
(0.124537 1.77038e-09 0.00171986)
(0.122342 1.11553e-09 0.00174706)
(0.120114 2.25009e-09 0.00177532)
(0.117851 5.40628e-09 0.00180463)
(0.115553 1.00435e-08 0.00183498)
(0.113218 1.51223e-08 0.00186638)
(0.110845 1.93217e-08 0.0018988)
(0.108432 2.15489e-08 0.00193222)
(0.10598 2.12634e-08 0.00196663)
(0.103487 1.86136e-08 0.00200199)
(0.100951 1.45132e-08 0.00203828)
(0.098373 1.01882e-08 0.00207546)
(0.0957508 6.68931e-09 0.0021135)
(0.093084 4.51538e-09 0.00215234)
(0.0903718 3.49885e-09 0.00219194)
(0.0876137 2.99629e-09 0.00223224)
(0.0848091 2.26531e-09 0.00227315)
(0.0819576 1.02796e-09 0.0023146)
(0.0790589 -4.56864e-10 0.00235648)
(0.0761128 -1.34014e-09 0.0023987)
(0.0731194 -1.02033e-09 0.00244114)
(0.0700787 7.72871e-10 0.00248367)
(0.0669913 3.40747e-09 0.00252614)
(0.0638575 5.49384e-09 0.00256836)
(0.0606783 5.82506e-09 0.00261014)
(0.0574546 4.00521e-09 0.00265123)
(0.0541879 1.03938e-09 0.00269141)
(0.05088 -9.5942e-10 0.00273038)
(0.047533 -9.5179e-11 0.00276783)
(0.0441493 4.20318e-09 0.00280339)
(0.040732 1.0329e-08 0.00283662)
(0.0372847 1.54383e-08 0.00286702)
(0.0338114 1.75894e-08 0.00289402)
(0.0303172 1.72963e-08 0.00291697)
(0.0268078 1.75056e-08 0.00293512)
(0.0232899 2.08674e-08 0.0029476)
(0.0197712 2.68334e-08 0.00295337)
(0.0162607 3.1501e-08 0.0029512)
(0.0127689 3.13335e-08 0.00293968)
(0.00930823 2.72369e-08 0.00291711)
(0.00589197 2.45033e-08 0.00288138)
(0.00254197 2.68258e-08 0.00282977)
(-0.000734463 3.13183e-08 0.00275337)
(-0.00389672 3.22929e-08 0.0026469)
(-0.00692311 2.97269e-08 0.00251212)
(-0.00978212 2.98106e-08 0.00234808)
(-0.0124344 3.51484e-08 0.00214909)
(-0.0148361 3.84454e-08 0.00190634)
(-0.0169325 3.22929e-08 0.00161128)
(-0.0186594 2.28282e-08 0.00125276)
(-0.019939 2.1191e-08 0.000816704)
(-0.0206793 2.40693e-08 0.00028621)
(-0.0207699 1.97671e-08 -0.000356006)
(-0.0200837 1.17415e-08 -0.00112427)
(-0.018492 1.10943e-08 -0.00202688)
(-0.0158705 1.14674e-08 -0.00304413)
(-0.0121229 2.29962e-09 -0.00406433)
(-0.00762504 -2.47972e-08 -0.00470409)
(-0.00185174 4.53088e-08 -0.00341096)
(-0.000137585 2.58169e-08 -0.000168831)
(-0.016521 -1.3784e-06 0.0180364)
(-0.0323937 -3.54714e-07 0.014743)
(-0.0437141 -2.18186e-07 0.00616434)
(-0.04513 -1.72986e-07 -0.00141773)
(-0.0397521 -1.61062e-07 -0.00671144)
(-0.0297713 -1.60309e-07 -0.010165)
(-0.0168009 -1.59585e-07 -0.0123624)
(-0.00194685 -1.57667e-07 -0.0136468)
(0.0140173 -1.54126e-07 -0.0141815)
(0.0302842 -1.48103e-07 -0.0142224)
(0.046683 -1.44132e-07 -0.014009)
(0.0628741 -1.42373e-07 -0.0136298)
(0.0786915 -1.41284e-07 -0.0131427)
(0.0940096 -1.38029e-07 -0.0125861)
(0.108743 -1.31915e-07 -0.0119867)
(0.122833 -1.23177e-07 -0.011363)
(0.136244 -1.11226e-07 -0.0107284)
(0.148952 -9.66022e-08 -0.0100926)
(0.160949 -8.15138e-08 -0.00946268)
(0.172233 -6.81654e-08 -0.00884408)
(0.182809 -5.70443e-08 -0.0082407)
(0.192691 -4.77392e-08 -0.00765547)
(0.201893 -4.03645e-08 -0.00709051)
(0.210434 -3.55178e-08 -0.00654734)
(0.218338 -3.33172e-08 -0.00602699)
(0.225626 -3.29936e-08 -0.00553011)
(0.232324 -3.32449e-08 -0.005057)
(0.238459 -3.30735e-08 -0.00460771)
(0.244056 -3.21179e-08 -0.00418208)
(0.249141 -3.04389e-08 -0.00377976)
(0.253742 -2.80555e-08 -0.00340028)
(0.257885 -2.48479e-08 -0.00304303)
(0.261594 -2.06884e-08 -0.00270733)
(0.264896 -1.5817e-08 -0.00239239)
(0.267815 -1.09988e-08 -0.0020974)
(0.270374 -7.20866e-09 -0.00182151)
(0.272595 -5.25553e-09 -0.00156384)
(0.274501 -5.40973e-09 -0.0013235)
(0.276112 -7.41617e-09 -0.00109959)
(0.277447 -1.06771e-08 -0.000891233)
(0.278526 -1.45739e-08 -0.000697553)
(0.279366 -1.86553e-08 -0.0005177)
(0.279984 -2.26701e-08 -0.00035086)
(0.280396 -2.65326e-08 -0.000196255)
(0.280616 -3.0138e-08 -5.30597e-05)
(0.280658 -3.33285e-08 7.9645e-05)
(0.280536 -3.59993e-08 0.000202346)
(0.280262 -3.80629e-08 0.000315497)
(0.279847 -3.962e-08 0.000419888)
(0.279301 -4.09526e-08 0.000516163)
(0.278636 -4.24622e-08 0.000604881)
(0.277859 -4.46152e-08 0.000686551)
(0.276981 -4.77314e-08 0.000761644)
(0.276008 -5.1868e-08 0.000830604)
(0.27495 -5.6766e-08 0.000893848)
(0.273811 -6.18925e-08 0.000951768)
(0.272601 -6.6583e-08 0.00100473)
(0.271323 -7.02837e-08 0.00105308)
(0.269985 -7.25966e-08 0.00109713)
(0.268592 -7.34874e-08 0.00113718)
(0.267149 -7.31067e-08 0.0011735)
(0.265659 -7.18046e-08 0.00120636)
(0.264129 -6.99543e-08 0.00123599)
(0.262561 -6.77689e-08 0.00126261)
(0.260959 -6.5336e-08 0.00128644)
(0.259328 -6.25205e-08 0.00130767)
(0.257669 -5.91264e-08 0.00132649)
(0.255987 -5.48698e-08 0.00134307)
(0.254284 -4.95968e-08 0.00135757)
(0.252562 -4.33339e-08 0.00137015)
(0.250825 -3.62657e-08 0.00138096)
(0.249073 -2.87692e-08 0.00139013)
(0.24731 -2.12823e-08 0.00139778)
(0.245537 -1.42864e-08 0.00140403)
(0.243756 -8.21388e-09 0.00140899)
(0.241968 -3.35775e-09 0.00141278)
(0.240176 1.6395e-10 0.00141549)
(0.238379 2.30742e-09 0.00141721)
(0.23658 3.1926e-09 0.00141805)
(0.23478 3.00985e-09 0.00141808)
(0.232979 2.01234e-09 0.00141738)
(0.231179 4.4566e-10 0.00141604)
(0.229381 -1.51127e-09 0.00141414)
(0.227584 -3.6814e-09 0.00141173)
(0.22579 -5.96003e-09 0.0014089)
(0.224 -8.23867e-09 0.00140569)
(0.222213 -1.04926e-08 0.00140218)
(0.22043 -1.26627e-08 0.00139841)
(0.218652 -1.47015e-08 0.00139445)
(0.216878 -1.6548e-08 0.00139034)
(0.215109 -1.80975e-08 0.00138613)
(0.213345 -1.93139e-08 0.00138187)
(0.211586 -2.01363e-08 0.00137759)
(0.209832 -2.05361e-08 0.00137335)
(0.208083 -2.05246e-08 0.00136917)
(0.20634 -2.01287e-08 0.0013651)
(0.2046 -1.94225e-08 0.00136118)
(0.202866 -1.84878e-08 0.00135743)
(0.201135 -1.74313e-08 0.00135389)
(0.199409 -1.64014e-08 0.00135058)
(0.197687 -1.54763e-08 0.00134755)
(0.195968 -1.48233e-08 0.00134482)
(0.194252 -1.44997e-08 0.00134241)
(0.192538 -1.4612e-08 0.00134035)
(0.190827 -1.52212e-08 0.00133868)
(0.189117 -1.63177e-08 0.00133741)
(0.187409 -1.79396e-08 0.00133657)
(0.185701 -2.00031e-08 0.00133619)
(0.183993 -2.24245e-08 0.00133629)
(0.182284 -2.50972e-08 0.00133689)
(0.180575 -2.78574e-08 0.00133802)
(0.178863 -3.05453e-08 0.0013397)
(0.177149 -3.29324e-08 0.00134196)
(0.175432 -3.48589e-08 0.00134481)
(0.17371 -3.61001e-08 0.00134827)
(0.171984 -3.65455e-08 0.00135237)
(0.170252 -3.60658e-08 0.00135713)
(0.168514 -3.46876e-08 0.00136257)
(0.166769 -3.2487e-08 0.00136872)
(0.165015 -2.96697e-08 0.00137558)
(0.163253 -2.65059e-08 0.00138318)
(0.16148 -2.33725e-08 0.00139155)
(0.159697 -2.05552e-08 0.0014007)
(0.157902 -1.83584e-08 0.00141065)
(0.156094 -1.6984e-08 0.00142141)
(0.154272 -1.6333e-08 0.00143302)
(0.152435 -1.62949e-08 0.00144549)
(0.150582 -1.65043e-08 0.00145883)
(0.148713 -1.65005e-08 0.00147307)
(0.146825 -1.58837e-08 0.00148822)
(0.144918 -1.4239e-08 0.00150431)
(0.14299 -1.14635e-08 0.00152136)
(0.141042 -7.69819e-09 0.00153937)
(0.13907 -3.36556e-09 0.00155838)
(0.137075 8.7949e-10 0.00157838)
(0.135055 4.29838e-09 0.00159939)
(0.133008 6.3162e-09 0.00162142)
(0.130935 6.65885e-09 0.00164447)
(0.128832 5.50907e-09 0.00166856)
(0.1267 3.55977e-09 0.00169368)
(0.124537 1.77037e-09 0.00171984)
(0.122342 1.11553e-09 0.00174704)
(0.120114 2.25008e-09 0.0017753)
(0.117851 5.40627e-09 0.00180461)
(0.115553 1.00435e-08 0.00183497)
(0.113218 1.51223e-08 0.00186636)
(0.110845 1.93217e-08 0.00189878)
(0.108432 2.15489e-08 0.0019322)
(0.10598 2.12634e-08 0.00196661)
(0.103487 1.86135e-08 0.00200197)
(0.100951 1.45131e-08 0.00203825)
(0.098373 1.01881e-08 0.00207544)
(0.0957508 6.6893e-09 0.00211347)
(0.093084 4.51537e-09 0.00215232)
(0.0903719 3.49884e-09 0.00219193)
(0.0876137 2.99629e-09 0.00223223)
(0.0848091 2.2653e-09 0.00227314)
(0.0819576 1.02795e-09 0.00231459)
(0.0790589 -4.56863e-10 0.00235647)
(0.0761128 -1.34014e-09 0.00239869)
(0.0731194 -1.02033e-09 0.00244114)
(0.0700788 7.72869e-10 0.00248368)
(0.0669913 3.40747e-09 0.00252614)
(0.0638576 5.49383e-09 0.00256837)
(0.0606783 5.82506e-09 0.00261013)
(0.0574546 4.0052e-09 0.00265123)
(0.054188 1.03937e-09 0.00269141)
(0.0508801 -9.59419e-10 0.00273038)
(0.047533 -9.51788e-11 0.00276784)
(0.0441494 4.20318e-09 0.0028034)
(0.0407321 1.0329e-08 0.00283663)
(0.0372847 1.54383e-08 0.00286702)
(0.0338114 1.75894e-08 0.00289401)
(0.0303173 1.72962e-08 0.00291696)
(0.0268079 1.75056e-08 0.00293512)
(0.02329 2.08674e-08 0.0029476)
(0.0197713 2.68333e-08 0.00295335)
(0.0162608 3.1501e-08 0.00295118)
(0.012769 3.13334e-08 0.00293965)
(0.00930829 2.72369e-08 0.00291709)
(0.00589205 2.45033e-08 0.00288136)
(0.00254204 2.68257e-08 0.00282976)
(-0.000734416 3.13182e-08 0.00275334)
(-0.00389668 3.22929e-08 0.00264688)
(-0.00692307 2.97268e-08 0.0025121)
(-0.00978208 2.98106e-08 0.00234806)
(-0.0124344 3.51483e-08 0.00214905)
(-0.0148361 3.84453e-08 0.0019063)
(-0.0169325 3.22929e-08 0.00161125)
(-0.0186594 2.28281e-08 0.00125274)
(-0.019939 2.1191e-08 0.000816663)
(-0.0206793 2.40693e-08 0.000286155)
(-0.0207699 1.97671e-08 -0.000356047)
(-0.0200838 1.17415e-08 -0.00112428)
(-0.0184921 1.10943e-08 -0.00202681)
(-0.0158707 1.14674e-08 -0.00304395)
(-0.0121232 2.29952e-09 -0.00406411)
(-0.00762523 -2.47882e-08 -0.0047043)
(-0.00185218 4.53337e-08 -0.00341098)
(-0.000137305 2.58396e-08 -0.000167882)
(-0.0119857 -1.4984e-08 0.0365604)
(-0.0167429 8.6274e-08 0.0218056)
(-0.0157403 5.36495e-08 0.00737399)
(-0.0112571 3.83623e-08 -0.00476742)
(-0.00388591 2.91405e-08 -0.0136891)
(0.00579214 2.47086e-08 -0.0198148)
(0.0171581 2.30028e-08 -0.0238002)
(0.0297246 2.11514e-08 -0.0262355)
(0.0430706 1.88184e-08 -0.0275205)
(0.0568475 1.63159e-08 -0.0280003)
(0.0707964 1.33785e-08 -0.027943)
(0.084698 1.068e-08 -0.0275052)
(0.0983952 8.93054e-09 -0.0268011)
(0.111768 8.13384e-09 -0.0259097)
(0.124727 8.15762e-09 -0.0248882)
(0.137207 9.13228e-09 -0.0237786)
(0.149161 1.09693e-08 -0.0226125)
(0.160558 1.30776e-08 -0.0214142)
(0.171378 1.48328e-08 -0.0202022)
(0.181609 1.60435e-08 -0.0189909)
(0.191248 1.68906e-08 -0.0177918)
(0.200297 1.74569e-08 -0.0166136)
(0.208763 1.75987e-08 -0.0154633)
(0.216658 1.71771e-08 -0.0143463)
(0.223996 1.63166e-08 -0.0132666)
(0.230793 1.53286e-08 -0.0122272)
(0.237067 1.44805e-08 -0.0112304)
(0.242838 1.38675e-08 -0.0102774)
(0.248127 1.3432e-08 -0.00936899)
(0.252955 1.3116e-08 -0.00850552)
(0.257343 1.29594e-08 -0.00768677)
(0.261313 1.30223e-08 -0.00691219)
(0.264887 1.33045e-08 -0.00618096)
(0.268084 1.36457e-08 -0.00549199)
(0.270928 1.38027e-08 -0.00484401)
(0.273436 1.35686e-08 -0.00423561)
(0.27563 1.2869e-08 -0.00366525)
(0.277528 1.17896e-08 -0.00313133)
(0.279148 1.0497e-08 -0.0026322)
(0.280508 9.15491e-09 -0.00216617)
(0.281624 7.87803e-09 -0.00173156)
(0.282512 6.71633e-09 -0.0013267)
(0.283188 5.68169e-09 -0.000949959)
(0.283666 4.80886e-09 -0.000599729)
(0.283958 4.1402e-09 -0.000274465)
(0.284078 3.69664e-09 2.7326e-05)
(0.284038 3.49342e-09 0.00030709)
(0.283849 3.52197e-09 0.000566232)
(0.283522 3.71043e-09 0.00080607)
(0.283066 3.95219e-09 0.00102784)
(0.282492 4.15349e-09 0.00123271)
(0.281808 4.22154e-09 0.00142177)
(0.281022 4.13778e-09 0.00159606)
(0.280142 3.94693e-09 0.00175654)
(0.279175 3.74847e-09 0.00190412)
(0.278128 3.67946e-09 0.00203966)
(0.277008 3.86268e-09 0.00216396)
(0.275819 4.37856e-09 0.00227777)
(0.274569 5.23281e-09 0.00238179)
(0.273261 6.37166e-09 0.00247668)
(0.271902 7.69134e-09 0.00256305)
(0.270494 9.07528e-09 0.00264149)
(0.269044 1.04211e-08 0.00271251)
(0.267553 1.16666e-08 0.00277664)
(0.266027 1.28049e-08 0.00283434)
(0.264469 1.38557e-08 0.00288606)
(0.262882 1.48632e-08 0.00293222)
(0.261268 1.5856e-08 0.00297321)
(0.259631 1.68501e-08 0.0030094)
(0.257973 1.78029e-08 0.00304113)
(0.256297 1.86524e-08 0.00306874)
(0.254605 1.93129e-08 0.00309253)
(0.252898 1.96927e-08 0.0031128)
(0.25118 1.97193e-08 0.00312982)
(0.249451 1.93448e-08 0.00314385)
(0.247713 1.85676e-08 0.00315513)
(0.245967 1.74116e-08 0.0031639)
(0.244216 1.59454e-08 0.00317038)
(0.24246 1.42492e-08 0.00317477)
(0.2407 1.24222e-08 0.00317729)
(0.238938 1.05543e-08 0.0031781)
(0.237174 8.73108e-09 0.0031774)
(0.23541 7.02401e-09 0.00317535)
(0.233645 5.4716e-09 0.00317212)
(0.231881 4.10717e-09 0.00316784)
(0.230118 2.94786e-09 0.00316268)
(0.228356 2.00176e-09 0.00315676)
(0.226597 1.26172e-09 0.00315021)
(0.22484 7.23471e-10 0.00314316)
(0.223086 3.89383e-10 0.00313571)
(0.221334 2.30903e-10 0.00312799)
(0.219586 2.41846e-10 0.00312009)
(0.217841 3.96988e-10 0.00311212)
(0.216099 6.70631e-10 0.00310416)
(0.21436 1.03232e-09 0.00309631)
(0.212625 1.45158e-09 0.00308865)
(0.210892 1.89893e-09 0.00308126)
(0.209163 2.33724e-09 0.00307422)
(0.207436 2.74746e-09 0.00306759)
(0.205711 3.09915e-09 0.00306147)
(0.203989 3.37994e-09 0.0030559)
(0.202269 3.57934e-09 0.00305096)
(0.20055 3.69403e-09 0.0030467)
(0.198833 3.7183e-09 0.0030432)
(0.197116 3.66499e-09 0.00304051)
(0.195399 3.55363e-09 0.00303869)
(0.193683 3.39991e-09 0.00303779)
(0.191966 3.23477e-09 0.00303787)
(0.190247 3.08438e-09 0.00303898)
(0.188527 2.98253e-09 0.00304118)
(0.186804 2.95826e-09 0.00304451)
(0.185079 3.03631e-09 0.00304903)
(0.18335 3.23952e-09 0.00305478)
(0.181616 3.58692e-09 0.00306181)
(0.179878 4.08567e-09 0.00307017)
(0.178133 4.72719e-09 0.00307989)
(0.176383 5.49244e-09 0.00309103)
(0.174625 6.34621e-09 0.00310362)
(0.172859 7.23853e-09 0.00311772)
(0.171084 8.09753e-09 0.00313335)
(0.169299 8.85565e-09 0.00315057)
(0.167504 9.4491e-09 0.00316942)
(0.165698 9.82316e-09 0.00318993)
(0.163879 9.95783e-09 0.00321214)
(0.162046 9.86027e-09 0.00323609)
(0.1602 9.57045e-09 0.00326183)
(0.158338 9.17211e-09 0.00328939)
(0.15646 8.74427e-09 0.00331879)
(0.154564 8.39734e-09 0.00335009)
(0.152651 8.19984e-09 0.00338331)
(0.150718 8.18651e-09 0.00341847)
(0.148765 8.34118e-09 0.00345562)
(0.14679 8.59055e-09 0.00349477)
(0.144793 8.8009e-09 0.00353595)
(0.142773 8.83564e-09 0.00357917)
(0.140728 8.5658e-09 0.00362446)
(0.138657 7.93523e-09 0.00367181)
(0.13656 6.98199e-09 0.00372124)
(0.134435 5.8265e-09 0.00377275)
(0.132281 4.67148e-09 0.00382634)
(0.130097 3.733e-09 0.00388201)
(0.127881 3.17143e-09 0.00393974)
(0.125634 3.03104e-09 0.00399951)
(0.123354 3.23615e-09 0.0040613)
(0.121039 3.5669e-09 0.00412509)
(0.11869 3.7644e-09 0.00419084)
(0.116304 3.5788e-09 0.00425849)
(0.113882 2.88874e-09 0.00432798)
(0.111421 1.72849e-09 0.00439926)
(0.108922 2.95064e-10 0.00447224)
(0.106383 -1.13265e-09 0.00454683)
(0.103805 -2.2929e-09 0.00462293)
(0.101185 -3.04483e-09 0.00470042)
(0.0985242 -3.41318e-09 0.00477917)
(0.0958215 -3.53692e-09 0.00485902)
(0.0930765 -3.59783e-09 0.00493982)
(0.0902891 -3.70539e-09 0.00502137)
(0.0874591 -3.85672e-09 0.00510346)
(0.0845864 -3.93287e-09 0.00518584)
(0.0816713 -3.77296e-09 0.00526827)
(0.0787139 -3.31324e-09 0.00535044)
(0.0757147 -2.65554e-09 0.00543203)
(0.0726745 -2.0283e-09 0.00551267)
(0.0695941 -1.70183e-09 0.00559196)
(0.0664746 -1.83413e-09 0.00566944)
(0.0633174 -2.31575e-09 0.00574459)
(0.0601242 -2.7907e-09 0.00581687)
(0.0568971 -2.83258e-09 0.00588561)
(0.0536385 -2.22628e-09 0.00595013)
(0.0503511 -1.13551e-09 0.00600959)
(0.0470383 -1.06602e-10 0.0060631)
(0.0437037 2.8935e-10 0.00610961)
(0.0403518 -6.85296e-11 0.00614795)
(0.0369875 -6.99578e-10 0.00617678)
(0.0336166 -8.69952e-10 0.00619457)
(0.0302456 -3.23614e-10 0.00619956)
(0.026882 3.04579e-10 0.00618972)
(0.0235344 -1.33248e-11 0.00616269)
(0.0202126 -1.53146e-09 0.00611573)
(0.0169278 -3.26946e-09 0.00604559)
(0.0136928 -3.93287e-09 0.00594825)
(0.0105226 -3.5255e-09 0.00581923)
(0.00743319 -3.41509e-09 0.0056509)
(0.00444424 -4.35928e-09 0.00543616)
(0.00157713 -5.12168e-09 0.00517008)
(-0.00114497 -4.27743e-09 0.0048445)
(-0.00368951 -3.14001e-09 0.00444959)
(-0.00602623 -4.503e-09 0.00397295)
(-0.00811851 -7.89144e-09 0.00339983)
(-0.00992581 -9.63325e-09 0.00271237)
(-0.0114032 -9.29155e-09 0.00188985)
(-0.0125023 -1.05175e-08 0.00090989)
(-0.0131738 -1.27238e-08 -0.000248483)
(-0.0133671 -1.22117e-08 -0.00159632)
(-0.0130405 -1.37575e-08 -0.00312542)
(-0.0121706 -1.89795e-08 -0.00477567)
(-0.0107501 -1.29861e-08 -0.00635358)
(-0.00885006 -1.24418e-08 -0.00740953)
(-0.00601047 -3.02119e-08 -0.00672262)
(-0.0034057 -1.5489e-07 -0.00242162)
(-0.0119858 -1.49836e-08 0.0365606)
(-0.0167429 8.62718e-08 0.0218057)
(-0.0157401 5.36476e-08 0.00737388)
(-0.0112568 3.83611e-08 -0.00476755)
(-0.00388563 2.91398e-08 -0.0136892)
(0.00579239 2.4708e-08 -0.0198149)
(0.0171583 2.30023e-08 -0.0238003)
(0.0297248 2.1151e-08 -0.0262356)
(0.0430707 1.8818e-08 -0.0275206)
(0.0568477 1.63157e-08 -0.0280004)
(0.0707965 1.33783e-08 -0.0279431)
(0.0846981 1.06799e-08 -0.0275053)
(0.0983952 8.93043e-09 -0.0268012)
(0.111768 8.13374e-09 -0.0259098)
(0.124727 8.15753e-09 -0.0248882)
(0.137207 9.13219e-09 -0.0237786)
(0.149161 1.09692e-08 -0.0226126)
(0.160558 1.30775e-08 -0.0214142)
(0.171378 1.48326e-08 -0.0202022)
(0.181609 1.60434e-08 -0.0189909)
(0.191247 1.68905e-08 -0.0177918)
(0.200296 1.74568e-08 -0.0166136)
(0.208763 1.75986e-08 -0.0154633)
(0.216658 1.7177e-08 -0.0143463)
(0.223996 1.63165e-08 -0.0132666)
(0.230793 1.53285e-08 -0.0122272)
(0.237067 1.44804e-08 -0.0112304)
(0.242838 1.38674e-08 -0.0102774)
(0.248127 1.3432e-08 -0.00936899)
(0.252955 1.3116e-08 -0.00850552)
(0.257343 1.29594e-08 -0.00768677)
(0.261313 1.30222e-08 -0.00691219)
(0.264886 1.33044e-08 -0.00618096)
(0.268084 1.36456e-08 -0.00549199)
(0.270927 1.38027e-08 -0.00484401)
(0.273436 1.35685e-08 -0.00423561)
(0.27563 1.28689e-08 -0.00366525)
(0.277528 1.17895e-08 -0.00313133)
(0.279148 1.0497e-08 -0.0026322)
(0.280508 9.15488e-09 -0.00216618)
(0.281624 7.87801e-09 -0.00173157)
(0.282512 6.7163e-09 -0.00132671)
(0.283188 5.68167e-09 -0.000949964)
(0.283665 4.80884e-09 -0.000599733)
(0.283958 4.14019e-09 -0.000274469)
(0.284078 3.69663e-09 2.7322e-05)
(0.284038 3.49341e-09 0.000307086)
(0.283849 3.52196e-09 0.000566228)
(0.283522 3.71042e-09 0.000806066)
(0.283066 3.95218e-09 0.00102784)
(0.282492 4.15348e-09 0.00123271)
(0.281808 4.22153e-09 0.00142177)
(0.281022 4.13777e-09 0.00159606)
(0.280142 3.94692e-09 0.00175654)
(0.279175 3.74846e-09 0.00190412)
(0.278128 3.67945e-09 0.00203966)
(0.277008 3.86267e-09 0.00216396)
(0.275819 4.37855e-09 0.00227777)
(0.274569 5.2328e-09 0.00238179)
(0.273261 6.37164e-09 0.00247668)
(0.271902 7.69133e-09 0.00256306)
(0.270494 9.07526e-09 0.00264149)
(0.269043 1.04211e-08 0.00271251)
(0.267553 1.16666e-08 0.00277664)
(0.266027 1.28049e-08 0.00283434)
(0.264469 1.38557e-08 0.00288606)
(0.262881 1.48632e-08 0.00293222)
(0.261268 1.58559e-08 0.00297321)
(0.259631 1.68501e-08 0.0030094)
(0.257973 1.78029e-08 0.00304113)
(0.256297 1.86523e-08 0.00306874)
(0.254605 1.93129e-08 0.00309253)
(0.252898 1.96926e-08 0.0031128)
(0.25118 1.97193e-08 0.00312982)
(0.24945 1.93447e-08 0.00314384)
(0.247712 1.85676e-08 0.00315512)
(0.245967 1.74116e-08 0.00316389)
(0.244216 1.59453e-08 0.00317037)
(0.24246 1.42492e-08 0.00317476)
(0.2407 1.24222e-08 0.00317728)
(0.238938 1.05543e-08 0.00317809)
(0.237174 8.73107e-09 0.00317739)
(0.23541 7.02399e-09 0.00317534)
(0.233645 5.47159e-09 0.00317211)
(0.231881 4.10716e-09 0.00316784)
(0.230118 2.94786e-09 0.00316267)
(0.228356 2.00176e-09 0.00315675)
(0.226597 1.26172e-09 0.0031502)
(0.22484 7.2347e-10 0.00314315)
(0.223086 3.89382e-10 0.00313571)
(0.221334 2.30903e-10 0.00312799)
(0.219586 2.41846e-10 0.00312009)
(0.217841 3.96987e-10 0.00311212)
(0.216099 6.70629e-10 0.00310416)
(0.21436 1.03231e-09 0.00309631)
(0.212625 1.45158e-09 0.00308865)
(0.210892 1.89893e-09 0.00308126)
(0.209163 2.33723e-09 0.00307422)
(0.207436 2.74746e-09 0.0030676)
(0.205711 3.09915e-09 0.00306147)
(0.203989 3.37993e-09 0.0030559)
(0.202269 3.57933e-09 0.00305096)
(0.20055 3.69402e-09 0.00304671)
(0.198833 3.71829e-09 0.0030432)
(0.197116 3.66498e-09 0.00304051)
(0.195399 3.55362e-09 0.00303869)
(0.193683 3.3999e-09 0.00303779)
(0.191965 3.23476e-09 0.00303787)
(0.190247 3.08437e-09 0.00303898)
(0.188527 2.98253e-09 0.00304118)
(0.186804 2.95825e-09 0.00304452)
(0.185079 3.0363e-09 0.00304904)
(0.18335 3.23951e-09 0.00305479)
(0.181616 3.58692e-09 0.00306182)
(0.179878 4.08566e-09 0.00307017)
(0.178133 4.72718e-09 0.0030799)
(0.176383 5.49243e-09 0.00309103)
(0.174625 6.3462e-09 0.00310363)
(0.172859 7.23851e-09 0.00311772)
(0.171084 8.09752e-09 0.00313336)
(0.169299 8.85563e-09 0.00315058)
(0.167504 9.44908e-09 0.00316942)
(0.165698 9.82314e-09 0.00318993)
(0.163878 9.95782e-09 0.00321214)
(0.162046 9.86025e-09 0.00323609)
(0.1602 9.57043e-09 0.00326183)
(0.158338 9.1721e-09 0.00328938)
(0.15646 8.74426e-09 0.00331879)
(0.154564 8.39732e-09 0.00335008)
(0.152651 8.19982e-09 0.0033833)
(0.150718 8.1865e-09 0.00341847)
(0.148765 8.34116e-09 0.00345562)
(0.14679 8.59054e-09 0.00349477)
(0.144793 8.80088e-09 0.00353594)
(0.142773 8.83562e-09 0.00357917)
(0.140728 8.56579e-09 0.00362445)
(0.138657 7.93521e-09 0.0036718)
(0.13656 6.98198e-09 0.00372123)
(0.134435 5.82649e-09 0.00377274)
(0.132281 4.67147e-09 0.00382633)
(0.130097 3.73299e-09 0.003882)
(0.127881 3.17142e-09 0.00393973)
(0.125634 3.03103e-09 0.0039995)
(0.123354 3.23615e-09 0.00406129)
(0.121039 3.5669e-09 0.00412508)
(0.11869 3.7644e-09 0.00419083)
(0.116304 3.57879e-09 0.00425848)
(0.113882 2.88873e-09 0.00432797)
(0.111421 1.72848e-09 0.00439925)
(0.108922 2.95063e-10 0.00447223)
(0.106383 -1.13265e-09 0.00454682)
(0.103805 -2.2929e-09 0.00462292)
(0.101185 -3.04482e-09 0.00470041)
(0.0985242 -3.41317e-09 0.00477916)
(0.0958215 -3.53691e-09 0.00485902)
(0.0930766 -3.59782e-09 0.00493982)
(0.0902892 -3.70538e-09 0.00502137)
(0.0874591 -3.85672e-09 0.00510345)
(0.0845864 -3.93286e-09 0.00518584)
(0.0816713 -3.77296e-09 0.00526826)
(0.0787139 -3.31323e-09 0.00535043)
(0.0757147 -2.65554e-09 0.00543203)
(0.0726745 -2.0283e-09 0.00551267)
(0.0695941 -1.70183e-09 0.00559196)
(0.0664746 -1.83413e-09 0.00566943)
(0.0633174 -2.31574e-09 0.00574459)
(0.0601242 -2.79069e-09 0.00581686)
(0.0568972 -2.83257e-09 0.00588561)
(0.0536385 -2.22627e-09 0.00595013)
(0.0503512 -1.1355e-09 0.00600959)
(0.0470383 -1.06602e-10 0.0060631)
(0.0437037 2.8935e-10 0.00610961)
(0.0403518 -6.85294e-11 0.00614795)
(0.0369875 -6.99577e-10 0.00617678)
(0.0336166 -8.6995e-10 0.00619457)
(0.0302456 -3.23613e-10 0.00619956)
(0.0268821 3.04578e-10 0.00618971)
(0.0235345 -1.33247e-11 0.00616268)
(0.0202127 -1.53145e-09 0.00611572)
(0.0169279 -3.26945e-09 0.00604559)
(0.0136928 -3.93286e-09 0.00594825)
(0.0105226 -3.52549e-09 0.00581923)
(0.00743321 -3.41508e-09 0.0056509)
(0.00444425 -4.35927e-09 0.00543616)
(0.00157715 -5.12166e-09 0.00517008)
(-0.00114496 -4.27741e-09 0.00484449)
(-0.00368951 -3.14001e-09 0.00444959)
(-0.00602622 -4.50299e-09 0.00397294)
(-0.0081185 -7.89142e-09 0.00339983)
(-0.0099258 -9.63322e-09 0.00271237)
(-0.0114032 -9.29152e-09 0.00188985)
(-0.0125023 -1.05174e-08 0.000909887)
(-0.0131738 -1.27237e-08 -0.000248486)
(-0.0133671 -1.22117e-08 -0.00159631)
(-0.0130405 -1.37573e-08 -0.00312541)
(-0.0121706 -1.89786e-08 -0.00477565)
(-0.0107501 -1.2983e-08 -0.00635356)
(-0.0088501 -1.24347e-08 -0.00740947)
(-0.00601103 -3.02088e-08 -0.00672258)
(-0.00340607 -1.54958e-07 -0.00242205)
(-0.00365835 3.4597e-08 0.0470193)
(-0.00257474 6.89733e-08 0.0199868)
(0.00321548 3.72603e-08 0.000920704)
(0.0104888 2.72768e-08 -0.0133694)
(0.0189748 2.34235e-08 -0.0239044)
(0.0284956 2.17567e-08 -0.0313872)
(0.0389237 2.04212e-08 -0.0364691)
(0.0500813 1.9277e-08 -0.0397141)
(0.061774 1.82085e-08 -0.0415629)
(0.0738171 1.66865e-08 -0.0423724)
(0.0860318 1.48547e-08 -0.0424211)
(0.0982583 1.32551e-08 -0.041909)
(0.110367 1.20405e-08 -0.0409852)
(0.122251 1.12281e-08 -0.0397604)
(0.133828 1.08916e-08 -0.0383181)
(0.145032 1.10368e-08 -0.0367218)
(0.155815 1.1526e-08 -0.0350207)
(0.166141 1.20614e-08 -0.0332532)
(0.175984 1.24078e-08 -0.0314494)
(0.185328 1.2573e-08 -0.0296335)
(0.194164 1.27029e-08 -0.0278243)
(0.202488 1.27824e-08 -0.0260372)
(0.210302 1.26519e-08 -0.024284)
(0.217612 1.22319e-08 -0.0225744)
(0.224427 1.16377e-08 -0.0209156)
(0.230759 1.10357e-08 -0.0193134)
(0.236621 1.04979e-08 -0.0177719)
(0.242029 9.99939e-09 -0.0162939)
(0.247 9.51228e-09 -0.0148814)
(0.251551 9.09466e-09 -0.0135353)
(0.255699 8.8279e-09 -0.0122559)
(0.259464 8.74508e-09 -0.0110428)
(0.262863 8.78196e-09 -0.0098951)
(0.265916 8.80075e-09 -0.00881151)
(0.268639 8.66701e-09 -0.00779035)
(0.271051 8.32197e-09 -0.00682971)
(0.273169 7.78061e-09 -0.00592745)
(0.27501 7.11266e-09 -0.00508129)
(0.276591 6.37357e-09 -0.00428884)
(0.277926 5.59449e-09 -0.00354765)
(0.279032 4.79091e-09 -0.00285524)
(0.279922 3.98162e-09 -0.00220912)