/*--------------------------------*- C++ -*----------------------------------*\
  =========                 |
  \\      /  F ield         | OpenFOAM: The Open Source CFD Toolbox
   \\    /   O peration     | Website:  https://openfoam.org
    \\  /    A nd           | Version:  8
     \\/     M anipulation  |
\*---------------------------------------------------------------------------*/
FoamFile
{
    version     2.0;
    format      ascii;
    class       volScalarField;
    location    "1400";
    object      alphat;
}
// * * * * * * * * * * * * * * * * * * * * * * * * * * * * * * * * * * * * * //

dimensions      [1 -1 -1 0 0 0 0];

internalField   nonuniform List<scalar> 
46000
(
2.61734e-08
1.33191e-07
2.86975e-07
4.50734e-07
6.17004e-07
7.84771e-07
9.54887e-07
1.12146e-06
1.28342e-06
1.43939e-06
1.58874e-06
1.73171e-06
1.86624e-06
1.9929e-06
2.11154e-06
2.22207e-06
2.32441e-06
2.4186e-06
2.50471e-06
2.58287e-06
2.65327e-06
2.71612e-06
2.77165e-06
2.82015e-06
2.86264e-06
2.90162e-06
2.93491e-06
2.96253e-06
2.98477e-06
3.00199e-06
3.01453e-06
3.02273e-06
3.02693e-06
3.02747e-06
3.02468e-06
3.01886e-06
3.01032e-06
2.99935e-06
2.98622e-06
2.97119e-06
2.95443e-06
2.93633e-06
2.91701e-06
2.89665e-06
2.8754e-06
2.85346e-06
2.83098e-06
2.80809e-06
2.78489e-06
2.7615e-06
2.73801e-06
2.71451e-06
2.69106e-06
2.66773e-06
2.64458e-06
2.62166e-06
2.59902e-06
2.57671e-06
2.55475e-06
2.5332e-06
2.51208e-06
2.49149e-06
2.47219e-06
2.45372e-06
2.43584e-06
2.41857e-06
2.40194e-06
2.386e-06
2.37079e-06
2.35636e-06
2.34277e-06
2.33005e-06
2.31825e-06
2.30742e-06
2.29761e-06
2.28886e-06
2.28121e-06
2.27471e-06
2.26938e-06
2.26528e-06
2.26243e-06
2.26087e-06
2.26062e-06
2.26172e-06
2.26419e-06
2.26806e-06
2.27334e-06
2.28005e-06
2.28821e-06
2.29782e-06
2.30891e-06
2.32149e-06
2.33555e-06
2.3511e-06
2.36811e-06
2.38659e-06
2.40654e-06
2.42798e-06
2.4509e-06
2.47528e-06
2.50114e-06
2.52844e-06
2.5572e-06
2.58739e-06
2.61902e-06
2.65206e-06
2.68651e-06
2.72236e-06
2.7596e-06
2.79821e-06
2.8382e-06
2.87954e-06
2.92224e-06
2.96629e-06
3.01168e-06
3.05842e-06
3.10649e-06
3.15591e-06
3.20666e-06
3.25876e-06
3.31221e-06
3.36702e-06
3.4232e-06
3.48076e-06
3.53971e-06
3.60008e-06
3.66187e-06
3.72512e-06
3.78983e-06
3.85604e-06
3.92376e-06
3.99302e-06
4.06384e-06
4.13624e-06
4.21025e-06
4.28588e-06
4.36314e-06
4.44203e-06
4.52257e-06
4.60474e-06
4.68852e-06
4.77388e-06
4.86078e-06
4.94915e-06
5.03891e-06
5.12995e-06
5.22215e-06
5.31533e-06
5.40929e-06
5.50382e-06
5.59863e-06
5.6934e-06
5.78778e-06
5.88133e-06
5.9736e-06
6.06405e-06
6.15209e-06
6.23708e-06
6.31831e-06
6.39499e-06
6.46631e-06
6.53137e-06
6.58924e-06
6.63895e-06
6.67946e-06
6.70974e-06
6.72875e-06
6.73545e-06
6.72896e-06
6.70953e-06
6.67729e-06
6.62959e-06
6.56527e-06
6.48365e-06
6.38422e-06
6.26666e-06
6.13079e-06
5.97666e-06
5.80448e-06
5.61471e-06
5.408e-06
5.18523e-06
4.9475e-06
4.69611e-06
4.43258e-06
4.15855e-06
3.87584e-06
3.58636e-06
3.29205e-06
2.99486e-06
2.69655e-06
2.39792e-06
2.09828e-06
1.80399e-06
1.50942e-06
1.21308e-06
9.17457e-07
6.16854e-07
3.04919e-07
6.09219e-08
2.6171e-08
1.33186e-07
2.86984e-07
4.5075e-07
6.17012e-07
7.84778e-07
9.54872e-07
1.12143e-06
1.28337e-06
1.43933e-06
1.58867e-06
1.73163e-06
1.86614e-06
1.9928e-06
2.11144e-06
2.22196e-06
2.32431e-06
2.4185e-06
2.50461e-06
2.58277e-06
2.65316e-06
2.716e-06
2.77153e-06
2.82002e-06
2.86257e-06
2.90155e-06
2.93485e-06
2.96248e-06
2.98474e-06
3.00197e-06
3.01453e-06
3.02275e-06
3.02697e-06
3.02752e-06
3.02471e-06
3.01887e-06
3.01029e-06
2.99927e-06
2.98608e-06
2.97098e-06
2.95416e-06
2.93601e-06
2.91667e-06
2.89631e-06
2.87507e-06
2.85315e-06
2.83069e-06
2.80782e-06
2.78464e-06
2.76128e-06
2.73781e-06
2.71433e-06
2.6909e-06
2.66758e-06
2.64445e-06
2.62154e-06
2.59891e-06
2.5766e-06
2.55466e-06
2.5331e-06
2.51198e-06
2.49139e-06
2.47197e-06
2.4535e-06
2.43562e-06
2.41835e-06
2.40172e-06
2.38578e-06
2.37058e-06
2.35616e-06
2.34256e-06
2.32985e-06
2.31805e-06
2.30722e-06
2.29741e-06
2.28865e-06
2.281e-06
2.27448e-06
2.26914e-06
2.26501e-06
2.26214e-06
2.26055e-06
2.26027e-06
2.26132e-06
2.26373e-06
2.26754e-06
2.27274e-06
2.27937e-06
2.28745e-06
2.29698e-06
2.30798e-06
2.32049e-06
2.33452e-06
2.35007e-06
2.36711e-06
2.38564e-06
2.40567e-06
2.42718e-06
2.45016e-06
2.47461e-06
2.50052e-06
2.52787e-06
2.55667e-06
2.5869e-06
2.61855e-06
2.65161e-06
2.68608e-06
2.72195e-06
2.7592e-06
2.79783e-06
2.83782e-06
2.87918e-06
2.92189e-06
2.96595e-06
3.01135e-06
3.0581e-06
3.10618e-06
3.15561e-06
3.20637e-06
3.25848e-06
3.31194e-06
3.36676e-06
3.42295e-06
3.48051e-06
3.53948e-06
3.59985e-06
3.66165e-06
3.7249e-06
3.78962e-06
3.85584e-06
3.92357e-06
3.99285e-06
4.06368e-06
4.1361e-06
4.21012e-06
4.28575e-06
4.36302e-06
4.44193e-06
4.52247e-06
4.60465e-06
4.68843e-06
4.7738e-06
4.86071e-06
4.94908e-06
5.03885e-06
5.12989e-06
5.22209e-06
5.31527e-06
5.40924e-06
5.50377e-06
5.59859e-06
5.69337e-06
5.78775e-06
5.88131e-06
5.97359e-06
6.06405e-06
6.1521e-06
6.2371e-06
6.31832e-06
6.39502e-06
6.46634e-06
6.53141e-06
6.58928e-06
6.63899e-06
6.67951e-06
6.7098e-06
6.72882e-06
6.73553e-06
6.72905e-06
6.70957e-06
6.67733e-06
6.62963e-06
6.56532e-06
6.4837e-06
6.38427e-06
6.2667e-06
6.13083e-06
5.9767e-06
5.80453e-06
5.61475e-06
5.40804e-06
5.18528e-06
4.94755e-06
4.69617e-06
4.43264e-06
4.15862e-06
3.87592e-06
3.58644e-06
3.29213e-06
2.99494e-06
2.69662e-06
2.39798e-06
2.09833e-06
1.80402e-06
1.50943e-06
1.21309e-06
9.1746e-07
6.16853e-07
3.04918e-07
6.09213e-08
1.25214e-07
6.37173e-06
1.44023e-05
2.03929e-05
2.52396e-05
2.93834e-05
3.28658e-05
3.59198e-05
3.86517e-05
4.11112e-05
4.3335e-05
4.53503e-05
4.71836e-05
4.88479e-05
5.03558e-05
5.1719e-05
5.29481e-05
5.4053e-05
5.50427e-05
5.59254e-05
5.67091e-05
5.74007e-05
5.8006e-05
5.85276e-05
5.89571e-05
5.92968e-05
5.95701e-05
5.97885e-05
5.99593e-05
6.00879e-05
6.0179e-05
6.02365e-05
6.0264e-05
6.02644e-05
6.02407e-05
6.01952e-05
6.01303e-05
6.0048e-05
5.995e-05
5.98381e-05
5.97144e-05
5.95796e-05
5.94348e-05
5.92808e-05
5.91188e-05
5.89494e-05
5.87736e-05
5.85923e-05
5.84061e-05
5.82157e-05
5.80219e-05
5.78252e-05
5.76261e-05
5.74253e-05
5.72232e-05
5.70203e-05
5.68171e-05
5.66139e-05
5.64113e-05
5.62092e-05
5.60075e-05
5.58041e-05
5.55921e-05
5.5382e-05
5.51756e-05
5.49741e-05
5.47784e-05
5.45891e-05
5.44068e-05
5.42321e-05
5.40655e-05
5.39077e-05
5.37592e-05
5.36205e-05
5.34922e-05
5.33747e-05
5.32687e-05
5.31745e-05
5.30927e-05
5.30236e-05
5.29675e-05
5.2925e-05
5.28963e-05
5.28816e-05
5.28811e-05
5.28949e-05
5.29234e-05
5.29666e-05
5.30245e-05
5.30971e-05
5.31845e-05
5.32865e-05
5.3403e-05
5.3534e-05
5.36793e-05
5.38388e-05
5.40122e-05
5.41992e-05
5.43997e-05
5.46133e-05
5.48398e-05
5.50788e-05
5.533e-05
5.55932e-05
5.5868e-05
5.6154e-05
5.64511e-05
5.67588e-05
5.7077e-05
5.74052e-05
5.77432e-05
5.80907e-05
5.84476e-05
5.88135e-05
5.91882e-05
5.95716e-05
5.99635e-05
6.03636e-05
6.07718e-05
6.1188e-05
6.16121e-05
6.2044e-05
6.24837e-05
6.29311e-05
6.33861e-05
6.38487e-05
6.43189e-05
6.47967e-05
6.5282e-05
6.57749e-05
6.62754e-05
6.67834e-05
6.7299e-05
6.7822e-05
6.83524e-05
6.88901e-05
6.94349e-05
6.99867e-05
7.05451e-05
7.111e-05
7.16809e-05
7.22573e-05
7.28387e-05
7.34244e-05
7.40135e-05
7.4605e-05
7.5198e-05
7.57909e-05
7.63825e-05
7.69711e-05
7.75548e-05
7.81315e-05
7.86988e-05
7.92543e-05
7.97951e-05
8.03181e-05
8.082e-05
8.12972e-05
8.17458e-05
8.21618e-05
8.25407e-05
8.28781e-05
8.3169e-05
8.34087e-05
8.35917e-05
8.3713e-05
8.37671e-05
8.37481e-05
8.36497e-05
8.34629e-05
8.31671e-05
8.27652e-05
8.22559e-05
8.16364e-05
8.09034e-05
8.00536e-05
7.90841e-05
7.79925e-05
7.67767e-05
7.54355e-05
7.39679e-05
7.23736e-05
7.06529e-05
6.88062e-05
6.68345e-05
6.47385e-05
6.25191e-05
6.01764e-05
5.77093e-05
5.51145e-05
5.23855e-05
4.95111e-05
4.6469e-05
4.31708e-05
3.9481e-05
3.51271e-05
2.94302e-05
2.16287e-05
1.02863e-05
2.68791e-07
1.25217e-07
6.37186e-06
1.44029e-05
2.03933e-05
2.52397e-05
2.9383e-05
3.28652e-05
3.59193e-05
3.86511e-05
4.11106e-05
4.33343e-05
4.53496e-05
4.71829e-05
4.88472e-05
5.03551e-05
5.17183e-05
5.29475e-05
5.40524e-05
5.50421e-05
5.59249e-05
5.67086e-05
5.74003e-05
5.80056e-05
5.85271e-05
5.89562e-05
5.92959e-05
5.95693e-05
5.97879e-05
5.9959e-05
6.0088e-05
6.01794e-05
6.02371e-05
6.02647e-05
6.02652e-05
6.02412e-05
6.01953e-05
6.01298e-05
6.00465e-05
5.99476e-05
5.98347e-05
5.97102e-05
5.95749e-05
5.94298e-05
5.92758e-05
5.91139e-05
5.89448e-05
5.87694e-05
5.85885e-05
5.84027e-05
5.82127e-05
5.80192e-05
5.78229e-05
5.76242e-05
5.74236e-05
5.72218e-05
5.70191e-05
5.68161e-05
5.66131e-05
5.64105e-05
5.62086e-05
5.60069e-05
5.58037e-05
5.55929e-05
5.53829e-05
5.51765e-05
5.4975e-05
5.47793e-05
5.45899e-05
5.44076e-05
5.42328e-05
5.40662e-05
5.39083e-05
5.37598e-05
5.3621e-05
5.34926e-05
5.33751e-05
5.3269e-05
5.31748e-05
5.30929e-05
5.30237e-05
5.29676e-05
5.2925e-05
5.28962e-05
5.28814e-05
5.28809e-05
5.28947e-05
5.29231e-05
5.29662e-05
5.3024e-05
5.30966e-05
5.31839e-05
5.32858e-05
5.34022e-05
5.35331e-05
5.36784e-05
5.38378e-05
5.40112e-05
5.41982e-05
5.43986e-05
5.46122e-05
5.48387e-05
5.50777e-05
5.53289e-05
5.5592e-05
5.58668e-05
5.61528e-05
5.64499e-05
5.67576e-05
5.70757e-05
5.74039e-05
5.77419e-05
5.80895e-05
5.84463e-05
5.88122e-05
5.91869e-05
5.95703e-05
5.99622e-05
6.03623e-05
6.07705e-05
6.11867e-05
6.16108e-05
6.20427e-05
6.24824e-05
6.29298e-05
6.33848e-05
6.38474e-05
6.43176e-05
6.47954e-05
6.52807e-05
6.57736e-05
6.62741e-05
6.67822e-05
6.72977e-05
6.78207e-05
6.83512e-05
6.88889e-05
6.94337e-05
6.99855e-05
7.05439e-05
7.11088e-05
7.16797e-05
7.22562e-05
7.28376e-05
7.34233e-05
7.40123e-05
7.46039e-05
7.51968e-05
7.57898e-05
7.63814e-05
7.69699e-05
7.75536e-05
7.81303e-05
7.86976e-05
7.92531e-05
7.97939e-05
8.03169e-05
8.08188e-05
8.12961e-05
8.17447e-05
8.21607e-05
8.25396e-05
8.2877e-05
8.31679e-05
8.34075e-05
8.35906e-05
8.3712e-05
8.3766e-05
8.37471e-05
8.36487e-05
8.34622e-05
8.31665e-05
8.27646e-05
8.22554e-05
8.16359e-05
8.09029e-05
8.00532e-05
7.90837e-05
7.79921e-05
7.67764e-05
7.54352e-05
7.39676e-05
7.23734e-05
7.06527e-05
6.88062e-05
6.68345e-05
6.47387e-05
6.25194e-05
6.01768e-05
5.77097e-05
5.51149e-05
5.23859e-05
4.95114e-05
4.64692e-05
4.31709e-05
3.94809e-05
3.51269e-05
2.94299e-05
2.16285e-05
1.02863e-05
2.6879e-07
2.70302e-07
1.41901e-05
3.44964e-05
5.01766e-05
6.26005e-05
7.28358e-05
8.15039e-05
8.90138e-05
9.56287e-05
0.000101516
0.000106785
0.000111512
0.000115759
0.000119572
0.000122992
0.000126052
0.000128786
0.000131221
0.000133385
0.000135301
0.000136992
0.000138478
0.000139774
0.000140894
0.00014184
0.000142611
0.000143252
0.000143781
0.000144215
0.000144566
0.000144846
0.000145062
0.000145221
0.000145329
0.000145392
0.000145413
0.000145396
0.000145343
0.000145258
0.000145142
0.000144999
0.000144829
0.000144634
0.000144415
0.000144175
0.000143915
0.000143635
0.000143337
0.000143023
0.000142693
0.00014235
0.000141995
0.000141629
0.000141253
0.00014087
0.00014048
0.000140084
0.000139684
0.000139281
0.000138874
0.000138463
0.000138045
0.000137617
0.000137186
0.000136758
0.000136336
0.000135921
0.000135515
0.00013512
0.000134737
0.000134367
0.000134011
0.00013367
0.000133345
0.000133038
0.000132749
0.000132479
0.000132228
0.000131998
0.00013179
0.000131603
0.000131439
0.000131298
0.00013118
0.000131086
0.000131016
0.00013097
0.000130949
0.000130952
0.000130979
0.000131031
0.000131107
0.000131207
0.000131331
0.000131479
0.000131651
0.000131845
0.000132062
0.000132302
0.000132563
0.000132846
0.00013315
0.000133475
0.00013382
0.000134185
0.00013457
0.000134974
0.000135396
0.000135837
0.000136296
0.000136772
0.000137266
0.000137778
0.000138306
0.000138851
0.000139413
0.000139991
0.000140586
0.000141198
0.000141825
0.000142469
0.000143129
0.000143805
0.000144498
0.000145207
0.000145932
0.000146674
0.000147432
0.000148207
0.000148998
0.000149806
0.00015063
0.000151471
0.000152328
0.0001532
0.000154089
0.000154992
0.000155911
0.000156843
0.000157788
0.000158746
0.000159715
0.000160694
0.000161682
0.000162675
0.000163673
0.000164674
0.000165673
0.000166669
0.000167658
0.000168637
0.0001696
0.000170545
0.000171466
0.000172357
0.000173213
0.000174028
0.000174795
0.000175508
0.000176159
0.000176741
0.000177245
0.000177663
0.000177988
0.000178209
0.000178319
0.000178307
0.000178164
0.000177879
0.000177437
0.000176816
0.000176013
0.000175023
0.00017384
0.00017246
0.000170876
0.000169083
0.000167075
0.000164847
0.000162394
0.000159711
0.000156793
0.000153635
0.00015023
0.000146573
0.000142654
0.000138462
0.000133982
0.000129192
0.000124062
0.000118545
0.000112567
0.000106006
9.86347e-05
9.00668e-05
7.95887e-05
6.59157e-05
4.69955e-05
2.09418e-05
5.78127e-07
2.70313e-07
1.41899e-05
3.44959e-05
5.01756e-05
6.25991e-05
7.28341e-05
8.15019e-05
8.90118e-05
9.56266e-05
0.000101514
0.000106783
0.00011151
0.000115757
0.00011957
0.00012299
0.00012605
0.000128784
0.000131219
0.000133383
0.000135299
0.00013699
0.000138476
0.000139773
0.000140892
0.000141838
0.00014261
0.00014325
0.000143779
0.000144213
0.000144565
0.000144845
0.000145061
0.00014522
0.000145329
0.000145392
0.000145413
0.000145395
0.000145342
0.000145257
0.000145141
0.000144997
0.000144827
0.000144632
0.000144413
0.000144173
0.000143913
0.000143633
0.000143336
0.000143022
0.000142693
0.00014235
0.000141995
0.000141629
0.000141254
0.00014087
0.00014048
0.000140085
0.000139685
0.000139281
0.000138874
0.000138463
0.000138046
0.000137618
0.000137187
0.000136759
0.000136337
0.000135921
0.000135516
0.00013512
0.000134737
0.000134367
0.000134011
0.00013367
0.000133345
0.000133038
0.000132748
0.000132478
0.000132227
0.000131997
0.000131789
0.000131602
0.000131437
0.000131296
0.000131178
0.000131084
0.000131013
0.000130967
0.000130946
0.000130949
0.000130976
0.000131028
0.000131103
0.000131204
0.000131328
0.000131475
0.000131647
0.000131841
0.000132058
0.000132298
0.000132559
0.000132842
0.000133146
0.000133471
0.000133816
0.000134181
0.000134566
0.000134969
0.000135392
0.000135832
0.000136291
0.000136768
0.000137262
0.000137773
0.000138302
0.000138847
0.000139409
0.000139987
0.000140582
0.000141193
0.000141821
0.000142465
0.000143125
0.000143801
0.000144494
0.000145203
0.000145928
0.00014667
0.000147429
0.000148203
0.000148995
0.000149803
0.000150627
0.000151467
0.000152324
0.000153197
0.000154085
0.000154989
0.000155907
0.00015684
0.000157785
0.000158743
0.000159712
0.000160691
0.000161679
0.000162672
0.00016367
0.000164671
0.00016567
0.000166666
0.000167655
0.000168634
0.000169598
0.000170542
0.000171463
0.000172354
0.00017321
0.000174025
0.000174793
0.000175506
0.000176157
0.000176738
0.000177242
0.000177661
0.000177986
0.000178207
0.000178317
0.000178305
0.000178162
0.000177877
0.000177435
0.000176815
0.000176012
0.000175021
0.000173839
0.000172459
0.000170875
0.000169082
0.000167074
0.000164846
0.000162393
0.00015971
0.000156793
0.000153635
0.00015023
0.000146573
0.000142654
0.000138462
0.000133982
0.000129192
0.000124062
0.000118545
0.000112568
0.000106007
9.8635e-05
9.0067e-05
7.95888e-05
6.59156e-05
4.69955e-05
2.0942e-05
5.78127e-07
4.18517e-07
1.98592e-05
4.96134e-05
7.39972e-05
9.37153e-05
0.000110082
0.000124044
0.000136182
0.000146874
0.00015637
0.000164847
0.000172434
0.000179231
0.000185319
0.000190767
0.000195634
0.000199973
0.000203834
0.000207261
0.000210296
0.000212976
0.000215334
0.0002174
0.000219198
0.000220746
0.000222058
0.000223177
0.00022413
0.000224938
0.000225622
0.000226197
0.000226675
0.000227067
0.000227382
0.000227626
0.000227805
0.000227925
0.000227988
0.000227998
0.000227957
0.000227868
0.000227734
0.000227556
0.000227336
0.000227076
0.000226778
0.000226445
0.000226077
0.000225678
0.000225249
0.000224792
0.00022431
0.000223806
0.000223281
0.000222738
0.000222179
0.000221605
0.00022102
0.000220424
0.000219819
0.000219203
0.000218578
0.000217941
0.000217298
0.000216654
0.000216014
0.00021538
0.000214754
0.000214139
0.000213537
0.00021295
0.000212378
0.000211824
0.000211289
0.000210774
0.00021028
0.000209809
0.000209361
0.000208937
0.000208539
0.000208166
0.00020782
0.000207502
0.000207211
0.000206948
0.000206713
0.000206508
0.000206331
0.000206183
0.000206064
0.000205974
0.000205913
0.00020588
0.000205877
0.000205902
0.000205956
0.000206037
0.000206147
0.000206284
0.000206449
0.00020664
0.000206859
0.000207104
0.000207376
0.000207673
0.000207997
0.000208347
0.000208722
0.000209123
0.000209549
0.000210001
0.000210478
0.00021098
0.000211508
0.000212061
0.00021264
0.000213245
0.000213875
0.000214531
0.000215212
0.000215921
0.000216655
0.000217416
0.000218203
0.000219018
0.00021986
0.000220728
0.000221624
0.000222548
0.000223498
0.000224476
0.000225481
0.000226513
0.000227572
0.000228657
0.000229768
0.000230903
0.000232063
0.000233245
0.000234449
0.000235673
0.000236916
0.000238174
0.000239446
0.00024073
0.00024202
0.000243316
0.000244611
0.000245902
0.000247185
0.000248453
0.000249701
0.000250922
0.00025211
0.000253257
0.000254356
0.000255397
0.000256373
0.000257273
0.000258088
0.000258807
0.000259421
0.000259918
0.000260286
0.000260515
0.000260592
0.000260506
0.000260242
0.000259788
0.000259128
0.000258239
0.000257114
0.000255744
0.00025412
0.000252233
0.000250076
0.000247638
0.000244911
0.000241885
0.00023855
0.000234896
0.000230909
0.000226578
0.000221885
0.000216812
0.000211335
0.000205426
0.000199046
0.000192145
0.000184654
0.000176473
0.000167452
0.000157357
0.000145813
0.000132213
0.000115564
9.42773e-05
6.59978e-05
2.89776e-05
9.15346e-07
4.18512e-07
1.98589e-05
4.96123e-05
7.39954e-05
9.37128e-05
0.000110079
0.00012404
0.000136179
0.00014687
0.000156367
0.000164844
0.000172431
0.000179228
0.000185316
0.000190764
0.000195631
0.00019997
0.000203831
0.000207259
0.000210294
0.000212974
0.000215332
0.000217398
0.000219196
0.000220744
0.000222057
0.000223176
0.000224129
0.000224937
0.000225621
0.000226196
0.000226674
0.000227066
0.000227381
0.000227626
0.000227805
0.000227925
0.000227988
0.000227998
0.000227957
0.000227869
0.000227734
0.000227556
0.000227336
0.000227077
0.000226779
0.000226445
0.000226078
0.000225679
0.00022525
0.000224793
0.000224312
0.000223807
0.000223282
0.000222739
0.00022218
0.000221607
0.000221022
0.000220426
0.00021982
0.000219205
0.000218579
0.000217942
0.000217299
0.000216655
0.000216015
0.00021538
0.000214755
0.00021414
0.000213537
0.00021295
0.000212378
0.000211824
0.000211288
0.000210773
0.000210279
0.000209807
0.000209359
0.000208935
0.000208536
0.000208164
0.000207817
0.000207499
0.000207207
0.000206944
0.000206709
0.000206503
0.000206326
0.000206178
0.000206059
0.000205969
0.000205907
0.000205875
0.000205871
0.000205896
0.00020595
0.000206031
0.000206141
0.000206278
0.000206442
0.000206634
0.000206853
0.000207098
0.000207369
0.000207667
0.000207991
0.00020834
0.000208715
0.000209116
0.000209543
0.000209994
0.000210471
0.000210974
0.000211502
0.000212055
0.000212634
0.000213238
0.000213869
0.000214525
0.000215207
0.000215915
0.000216649
0.00021741
0.000218198
0.000219012
0.000219854
0.000220723
0.000221619
0.000222542
0.000223493
0.000224471
0.000225476
0.000226508
0.000227567
0.000228652
0.000229763
0.000230898
0.000232058
0.00023324
0.000234445
0.000235669
0.000236911
0.00023817
0.000239442
0.000240725
0.000242016
0.000243312
0.000244607
0.000245898
0.000247181
0.000248449
0.000249697
0.000250918
0.000252106
0.000253253
0.000254352
0.000255393
0.000256369
0.000257269
0.000258084
0.000258804
0.000259418
0.000259915
0.000260283
0.000260512
0.00026059
0.000260503
0.00026024
0.000259786
0.000259125
0.000258237
0.000257112
0.000255742
0.000254118
0.000252232
0.000250075
0.000247637
0.00024491
0.000241885
0.00023855
0.000234896
0.00023091
0.000226578
0.000221885
0.000216812
0.000211336
0.000205427
0.000199047
0.000192146
0.000184655
0.000176474
0.000167453
0.000157358
0.000145814
0.000132214
0.000115565
9.42778e-05
6.59981e-05
2.89781e-05
9.15347e-07
5.64477e-07
2.42668e-05
6.11128e-05
9.25624e-05
0.000118563
0.000140487
0.000159352
0.000175836
0.000190395
0.000203347
0.000214921
0.000225288
0.000234585
0.00024292
0.000250388
0.000257069
0.000263036
0.000268356
0.00027309
0.000277293
0.000281017
0.000284307
0.000287206
0.00028975
0.000291969
0.000293891
0.000295559
0.000297004
0.000298255
0.000299336
0.000300267
0.000301064
0.000301742
0.000302312
0.000302782
0.000303161
0.000303454
0.000303666
0.000303802
0.000303864
0.000303856
0.000303781
0.000303642
0.00030344
0.000303179
0.000302862
0.00030249
0.000302068
0.000301597
0.000301082
0.000300524
0.000299928
0.000299296
0.000298632
0.000297938
0.000297218
0.000296475
0.000295711
0.000294929
0.00029413
0.000293315
0.000292486
0.000291644
0.000290793
0.000289938
0.000289082
0.00028823
0.000287386
0.00028655
0.000285727
0.000284917
0.000284124
0.00028335
0.000282594
0.00028186
0.000281149
0.000280461
0.000279799
0.000279162
0.000278552
0.00027797
0.000277417
0.000276892
0.000276396
0.000275931
0.000275496
0.000275091
0.000274716
0.000274372
0.00027406
0.000273778
0.000273526
0.000273306
0.000273117
0.000272958
0.00027283
0.000272733
0.000272667
0.000272632
0.000272627
0.000272653
0.00027271
0.000272797
0.000272916
0.000273066
0.000273247
0.00027346
0.000273704
0.000273981
0.00027429
0.000274631
0.000275005
0.000275412
0.000275853
0.000276328
0.000276837
0.000277381
0.00027796
0.000278575
0.000279225
0.000279912
0.000280636
0.000281397
0.000282195
0.000283031
0.000283906
0.000284818
0.000285769
0.000286759
0.000287787
0.000288854
0.000289959
0.000291102
0.000292282
0.000293499
0.000294752
0.00029604
0.000297361
0.000298715
0.000300099
0.000301511
0.000302949
0.000304409
0.00030589
0.000307386
0.000308894
0.000310409
0.000311926
0.00031344
0.000314944
0.000316432
0.000317897
0.000319329
0.000320722
0.000322066
0.00032335
0.000324566
0.000325702
0.000326747
0.000327689
0.000328516
0.000329215
0.000329773
0.000330177
0.000330414
0.000330469
0.000330328
0.000329976
0.000329398
0.000328575
0.000327488
0.000326124
0.000324471
0.000322518
0.000320253
0.000317664
0.000314737
0.000311459
0.000307816
0.000303792
0.000299368
0.000294524
0.000289237
0.000283479
0.000277217
0.000270412
0.000263015
0.000254963
0.000246176
0.000236544
0.000225917
0.000214074
0.000200691
0.000185271
0.000167051
0.000144858
0.00011693
8.08704e-05
3.54325e-05
1.27615e-06
5.64445e-07
2.42663e-05
6.11114e-05
9.256e-05
0.00011856
0.000140484
0.000159348
0.000175832
0.000190391
0.000203343
0.000214916
0.000225284
0.000234581
0.000242916
0.000250384
0.000257065
0.000263033
0.000268354
0.000273088
0.000277291
0.000281015
0.000284306
0.000287205
0.000289749
0.000291968
0.000293891
0.000295559
0.000297005
0.000298256
0.000299337
0.000300268
0.000301066
0.000301744
0.000302314
0.000302784
0.000303163
0.000303456
0.000303669
0.000303804
0.000303867
0.000303859
0.000303784
0.000303645
0.000303443
0.000303182
0.000302865
0.000302494
0.000302071
0.000301601
0.000301085
0.000300528
0.000299931
0.000299299
0.000298635
0.000297941
0.000297222
0.000296478
0.000295714
0.000294932
0.000294133
0.000293318
0.000292489
0.000291647
0.000290795
0.00028994
0.000289084
0.000288232
0.000287387
0.000286551
0.000285728
0.000284918
0.000284125
0.00028335
0.000282594
0.00028186
0.000281148
0.00028046
0.000279797
0.00027916
0.00027855
0.000277968
0.000277414
0.000276889
0.000276393
0.000275927
0.000275491
0.000275086
0.000274711
0.000274367
0.000274054
0.000273772
0.000273521
0.0002733
0.000273111
0.000272952
0.000272824
0.000272727
0.00027266
0.000272625
0.00027262
0.000272646
0.000272703
0.00027279
0.000272909
0.000273059
0.00027324
0.000273453
0.000273697
0.000273974
0.000274282
0.000274623
0.000274998
0.000275405
0.000275846
0.000276321
0.00027683
0.000277374
0.000277953
0.000278568
0.000279219
0.000279906
0.000280629
0.00028139
0.000282189
0.000283025
0.0002839
0.000284812
0.000285763
0.000286753
0.000287781
0.000288848
0.000289953
0.000291096
0.000292276
0.000293494
0.000294747
0.000296035
0.000297356
0.00029871
0.000300094
0.000301506
0.000302944
0.000304405
0.000305885
0.000307381
0.000308889
0.000310404
0.000311922
0.000313436
0.00031494
0.000316428
0.000317892
0.000319325
0.000320718
0.000322061
0.000323346
0.000324562
0.000325698
0.000326743
0.000327685
0.000328512
0.000329211
0.00032977
0.000330174
0.000330411
0.000330466
0.000330325
0.000329973
0.000329396
0.000328573
0.000327486
0.000326122
0.00032447
0.000322517
0.000320252
0.000317663
0.000314736
0.000311459
0.000307816
0.000303792
0.000299368
0.000294525
0.000289238
0.00028348
0.000277219
0.000270414
0.000263017
0.000254965
0.000246178
0.000236547
0.000225919
0.000214076
0.000200693
0.000185273
0.000167053
0.000144859
0.000116931
8.08712e-05
3.54331e-05
1.27616e-06
7.12427e-07
2.7924e-05
7.02455e-05
0.000107462
0.000138855
0.000165661
0.000188908
0.000209324
0.000227419
0.000243559
0.000258015
0.000270992
0.000282653
0.000293133
0.000302545
0.000310989
0.000318553
0.000325318
0.000331358
0.000336741
0.000341531
0.000345783
0.000349549
0.000352877
0.000355808
0.000358379
0.000360633
0.000362609
0.000364338
0.000365849
0.000367166
0.000368309
0.000369295
0.000370137
0.000370848
0.000371436
0.000371909
0.000372273
0.000372535
0.000372698
0.000372768
0.000372747
0.000372639
0.000372449
0.000372179
0.000371834
0.000371417
0.000370931
0.000370382
0.000369773
0.000369108
0.000368392
0.000367627
0.000366819
0.000365972
0.000365088
0.000364173
0.000363229
0.00036226
0.000361267
0.000360255
0.000359225
0.000358179
0.000357121
0.000356056
0.000354989
0.000353923
0.000352863
0.000351811
0.00035077
0.000349744
0.000348733
0.000347741
0.00034677
0.000345821
0.000344895
0.000343994
0.000343119
0.000342271
0.000341451
0.00034066
0.000339898
0.000339166
0.000338464
0.000337793
0.000337152
0.000336542
0.000335963
0.000335415
0.000334898
0.000334413
0.000333958
0.000333534
0.000333142
0.000332781
0.000332452
0.000332154
0.000331888
0.000331654
0.000331453
0.000331284
0.000331148
0.000331046
0.000330979
0.000330945
0.000330947
0.000330985
0.000331059
0.000331171
0.000331321
0.000331509
0.000331736
0.000332004
0.000332313
0.000332663
0.000333056
0.000333493
0.000333973
0.000334498
0.000335068
0.000335685
0.000336348
0.000337059
0.000337818
0.000338625
0.00033948
0.000340385
0.00034134
0.000342343
0.000343397
0.000344499
0.000345651
0.000346851
0.000348099
0.000349395
0.000350736
0.000352122
0.000353551
0.000355021
0.000356529
0.000358074
0.000359652
0.00036126
0.000362893
0.000364547
0.000366218
0.000367899
0.000369585
0.000371269
0.000372944
0.000374602
0.000376234
0.000377831
0.000379384
0.000380882
0.000382314
0.000383668
0.000384932
0.000386094
0.000387139
0.000388055
0.000388827
0.000389441
0.000389881
0.000390133
0.000390182
0.00039001
0.000389603
0.000388944
0.00038801
0.000386785
0.000385254
0.000383401
0.000381213
0.000378673
0.000375766
0.000372475
0.000368782
0.000364667
0.000360105
0.000355073
0.00034954
0.000343473
0.000336831
0.000329567
0.000321625
0.000312936
0.000303413
0.000292948
0.000281394
0.000268555
0.000254153
0.000237789
0.000218874
0.000196534
0.000169469
0.000135808
9.31548e-05
4.07875e-05
1.64743e-06
7.12407e-07
2.79233e-05
7.02439e-05
0.00010746
0.000138852
0.000165657
0.000188904
0.000209319
0.000227414
0.000243554
0.00025801
0.000270988
0.000282649
0.00029313
0.000302542
0.000310986
0.000318551
0.000325316
0.000331357
0.000336741
0.000341531
0.000345783
0.000349551
0.000352879
0.00035581
0.000358381
0.000360636
0.000362612
0.000364342
0.000365853
0.00036717
0.000368313
0.000369299
0.000370142
0.000370852
0.000371441
0.000371914
0.000372279
0.000372541
0.000372704
0.000372773
0.000372753
0.000372645
0.000372455
0.000372185
0.00037184
0.000371423
0.000370938
0.000370389
0.00036978
0.000369115
0.000368398
0.000367634
0.000366825
0.000365978
0.000365094
0.000364179
0.000363235
0.000362265
0.000361273
0.000360261
0.00035923
0.000358184
0.000357126
0.000356061
0.000354993
0.000353927
0.000352866
0.000351814
0.000350773
0.000349746
0.000348735
0.000347743
0.000346771
0.000345822
0.000344895
0.000343994
0.000343119
0.000342271
0.00034145
0.000340659
0.000339897
0.000339164
0.000338462
0.00033779
0.000337149
0.000336539
0.000335959
0.000335411
0.000334894
0.000334408
0.000333953
0.000333529
0.000333137
0.000332776
0.000332446
0.000332148
0.000331882
0.000331648
0.000331446
0.000331277
0.000331142
0.000331039
0.000330972
0.000330938
0.00033094
0.000330978
0.000331052
0.000331164
0.000331313
0.000331502
0.000331729
0.000331997
0.000332306
0.000332656
0.000333049
0.000333486
0.000333966
0.000334491
0.000335062
0.000335678
0.000336342
0.000337053
0.000337811
0.000338619
0.000339475
0.00034038
0.000341334
0.000342338
0.000343391
0.000344494
0.000345646
0.000346846
0.000348094
0.00034939
0.000350731
0.000352117
0.000353546
0.000355016
0.000356525
0.00035807
0.000359648
0.000361255
0.000362889
0.000364543
0.000366214
0.000367895
0.000369581
0.000371265
0.00037294
0.000374598
0.00037623
0.000377827
0.00037938
0.000380878
0.00038231
0.000383664
0.000384929
0.00038609
0.000387136
0.000388052
0.000388824
0.000389438
0.000389878
0.000390131
0.000390179
0.000390008
0.000389601
0.000388942
0.000388008
0.000386784
0.000385253
0.0003834
0.000381212
0.000378673
0.000375766
0.000372476
0.000368783
0.000364668
0.000360107
0.000355075
0.000349542
0.000343475
0.000336833
0.000329569
0.000321628
0.000312938
0.000303416
0.000292951
0.000281397
0.000268558
0.000254156
0.000237792
0.000218877
0.000196537
0.000169472
0.000135809
9.3156e-05
4.07884e-05
1.64743e-06
8.6531e-07
3.10388e-05
7.7912e-05
0.000119953
0.000155973
0.000187043
0.000214168
0.000238099
0.000259383
0.00027842
0.000295514
0.000310896
0.000324753
0.000337239
0.000348484
0.000358602
0.000367696
0.000375857
0.000383171
0.000389715
0.000395561
0.000400774
0.000405416
0.000409541
0.000413197
0.000416431
0.000419287
0.000421808
0.000424029
0.000425982
0.000427695
0.00042919
0.000430487
0.000431603
0.000432551
0.000433343
0.000433988
0.000434494
0.000434868
0.000435117
0.000435245
0.00043526
0.000435165
0.000434965
0.000434666
0.000434272
0.000433789
0.000433221
0.000432575
0.000431854
0.000431064
0.000430211
0.0004293
0.000428335
0.000427321
0.000426264
0.000425168
0.000424036
0.000422874
0.000421685
0.000420472
0.000419239
0.000417988