/*--------------------------------*- C++ -*----------------------------------*\
  =========                 |
  \\      /  F ield         | OpenFOAM: The Open Source CFD Toolbox
   \\    /   O peration     | Website:  https://openfoam.org
    \\  /    A nd           | Version:  8
     \\/     M anipulation  |
\*---------------------------------------------------------------------------*/
FoamFile
{
    version     2.0;
    format      ascii;
    class       volScalarField;
    location    "1400";
    object      epsilon;
}
// * * * * * * * * * * * * * * * * * * * * * * * * * * * * * * * * * * * * * //

dimensions      [0 2 -3 0 0 0 0];

internalField   nonuniform List<scalar> 
46000
(
0.479065
2.19729
4.72767
7.41627
10.1415
12.8906
15.6723
18.3936
21.038
23.5832
26.0209
28.3503
30.5433
32.6077
34.5413
36.3423
38.0099
39.5444
40.9472
42.2205
43.3672
44.3908
45.2951
46.0847
46.7746
47.4086
47.9503
48.3995
48.7609
49.0403
49.2433
49.3753
49.442
49.4487
49.4008
49.3032
49.161
48.9789
48.7613
48.5125
48.2354
47.9357
47.6165
47.2804
46.93
46.5681
46.1976
45.8205
45.4385
45.0536
44.6673
44.2809
43.8957
43.5127
43.133
42.7574
42.3868
42.0217
41.6629
41.3109
40.9663
40.6309
40.317
40.0166
39.7261
39.4458
39.1764
38.9184
38.6727
38.4399
38.2209
38.0164
37.8272
37.6538
37.4973
37.3582
37.2372
37.1349
37.052
36.9891
36.9468
36.9256
36.9261
36.9485
36.9933
37.061
37.1518
37.266
37.4037
37.5652
37.7506
37.9602
38.1944
38.4523
38.7343
39.0406
39.371
39.7256
40.1043
40.507
40.9336
41.384
41.858
42.3555
42.8763
43.4203
43.9872
44.5769
45.1893
45.8242
46.4815
47.161
47.8626
48.5862
49.3317
50.0991
50.8883
51.6995
52.5326
53.3877
54.2648
55.1642
56.0858
57.03
57.9968
58.9867
60
61.0369
62.0978
63.183
64.2929
65.4279
66.5883
67.7745
68.9868
70.2255
71.4909
72.783
74.1019
75.4473
76.8191
78.2166
79.6391
81.0858
82.5551
84.0455
85.5548
87.0804
88.619
90.1668
91.7195
93.2718
94.818
96.3511
97.8636
99.3468
100.791
102.186
103.52
104.78
105.953
107.025
107.98
108.801
109.473
109.979
110.301
110.422
110.328
110.023
109.51
108.743
107.706
106.386
104.774
102.866
100.659
98.1516
95.3487
92.2568
88.8865
85.2517
81.3701
77.2628
72.9539
68.4703
63.8413
59.0977
54.2712
49.3934
44.4932
39.5857
34.6522
29.8051
24.9498
20.0614
15.1794
10.2133
5.05379
1.12178
0.479046
2.19722
4.72756
7.41613
10.1414
12.8905
15.6721
18.3934
21.0378
23.5829
26.0206
28.3501
30.5431
32.6076
34.5412
36.3422
38.0098
39.5443
40.9471
42.2203
43.367
44.3905
45.2949
46.0844
46.7743
47.4084
47.9501
48.3992
48.7607
49.04
49.2428
49.3748
49.4414
49.4481
49.4002
49.3027
49.1605
48.9785
48.761
48.5122
48.2352
47.9356
47.6164
47.2803
46.93
46.5681
46.1976
45.8205
45.4386
45.0537
44.6673
44.2809
43.8957
43.5127
43.133
42.7574
42.3867
42.0216
41.6628
41.3108
40.9662
40.6308
40.3168
40.0164
39.7259
39.4456
39.1761
38.9182
38.6724
38.4397
38.2207
38.0162
37.8269
37.6536
37.497
37.3578
37.2368
37.1345
37.0516
36.9886
36.9463
36.9252
36.9256
36.9479
36.9928
37.0605
37.1512
37.2653
37.403
37.5645
37.7499
37.9595
38.1936
38.4516
38.7336
39.0398
39.3703
39.7249
40.1036
40.5063
40.9329
41.3833
41.8573
42.3549
42.8757
43.4196
43.9865
44.5762
45.1886
45.8235
46.4808
47.1603
47.8619
48.5855
49.331
50.0984
50.8876
51.6988
52.5319
53.3869
54.2641
55.1634
56.0851
57.0293
57.9962
58.9861
59.9993
61.0362
62.0971
63.1823
64.2922
65.4272
66.5876
67.7738
68.9862
70.225
71.4904
72.7825
74.1013
75.4467
76.8184
78.2159
79.6385
81.0851
82.5545
84.0449
85.5543
87.0798
88.6184
90.1662
91.7189
93.2713
94.8175
96.3507
97.8632
99.3465
100.791
102.186
103.52
104.78
105.953
107.025
107.979
108.801
109.473
109.979
110.301
110.422
110.328
110.023
109.509
108.743
107.706
106.385
104.774
102.866
100.659
98.1517
95.3489
92.2571
88.8868
85.252
81.3705
77.2632
72.9543
68.4707
63.8416
59.098
54.2715
49.3937
44.4934
39.5858
34.6524
29.8052
24.9499
20.0615
15.1795
10.2133
5.05381
1.12178
2.46341
2.03711
2.92114
3.9631
5.0328
6.10905
7.19467
8.2679
9.32306
10.3473
11.3368
12.2903
13.2032
14.0741
14.9014
15.6831
16.4178
17.1041
17.7411
18.328
18.8646
19.3508
19.7872
20.1755
20.5213
20.8322
21.1017
21.3283
21.5125
21.6558
21.7603
21.8281
21.8616
21.8634
21.8362
21.7824
21.7048
21.6059
21.4882
21.354
21.2057
21.0454
20.8753
20.6969
20.5118
20.3217
20.1283
19.9327
19.7357
19.5385
19.3418
19.1463
18.9526
18.7612
18.5725
18.387
18.205
18.0268
17.8528
17.6832
17.5186
17.3602
17.2105
17.0678
16.931
16.8
16.6748
16.5557
16.4429
16.3368
16.2376
16.1457
16.0613
15.9849
15.9167
15.857
15.8061
15.7644
15.7321
15.7095
15.6968
15.6943
15.7023
15.721
15.7505
15.7912
15.8431
15.9063
15.981
16.0673
16.1654
16.2754
16.3973
16.5312
16.6771
16.835
17.0051
17.1874
17.3817
17.5883
17.8069
18.0377
18.2807
18.5356
18.8027
19.0816
19.3726
19.6753
19.99
20.3164
20.6545
21.0043
21.3657
21.7387
22.1232
22.5193
22.9268
23.3458
23.7764
24.2185
24.6721
25.1373
25.6141
26.1025
26.6028
27.115
27.6391
28.1754
28.7241
29.2851
29.8588
30.4453
31.0448
31.6574
32.2833
32.9228
33.5758
34.2426
34.9231
35.6174
36.3253
37.0467
37.7814
38.5289
39.2887
40.06
40.8421
41.6336
42.4332
43.2392
44.0495
44.8618
45.6733
46.4808
47.2807
48.0689
48.8407
49.591
50.314
51.0036
51.6531
52.2552
52.802
53.2856
53.6974
54.0286
54.2706
54.4148
54.4542
54.3858
54.2072
53.904
53.4662
52.8864
52.1594
51.2812
50.2497
49.0643
47.7262
46.2386
44.6063
42.8364
40.9377
38.9205
36.7973
34.5814
32.2877
29.9317
27.5293
25.0964
22.648
20.1966
17.7521
15.3355
12.9414
10.6157
8.40539
6.34952
4.635
5.34703
2.46331
2.03691
2.92096
3.96297
5.03274
6.10906
7.19471
8.26796
9.32314
10.3474
11.3369
12.2904
13.2033
14.0743
14.9016
15.6833
16.418
17.1043
17.7413
18.3282
18.8647
19.3509
19.7873
20.1756
20.5214
20.8323
21.1018
21.3283
21.5124
21.6556
21.7599
21.8276
21.8611
21.8629
21.8357
21.7821
21.7047
21.6061
21.4888
21.355
21.2069
21.0468
20.8767
20.6984
20.5132
20.3229
20.1295
19.9337
19.7366
19.5392
19.3424
19.1467
18.9529
18.7614
18.5726
18.387
18.205
18.0267
17.8527
17.6831
17.5185
17.36
17.2102
17.0674
16.9306
16.7996
16.6744
16.5553
16.4425
16.3364
16.2373
16.1454
16.061
15.9846
15.9164
15.8568
15.806
15.7643
15.732
15.7094
15.6967
15.6943
15.7024
15.7211
15.7508
15.7915
15.8435
15.9068
15.9816
16.068
16.1662
16.2763
16.3982
16.5321
16.6779
16.8359
17.0059
17.1881
17.3824
17.5889
17.8076
18.0383
18.2812
18.5362
18.8032
19.0822
19.3731
19.6758
19.9905
20.3169
20.655
21.0048
21.3662
21.7392
22.1237
22.5198
22.9273
23.3463
23.7769
24.219
24.6726
25.1377
25.6146
26.103
26.6033
27.1155
27.6396
28.1759
28.7246
29.2856
29.8593
30.4458
31.0453
31.6579
32.2838
32.9233
33.5763
34.2431
34.9236
35.6178
36.3258
37.0472
37.7819
38.5294
39.2892
40.0605
40.8426
41.6341
42.4337
43.2397
44.0501
44.8624
45.6739
46.4814
47.2813
48.0695
48.8413
49.5916
50.3146
51.0043
51.6538
52.2558
52.8027
53.2863
53.6981
54.0293
54.2713
54.4155
54.4549
54.3864
54.2077
53.9045
53.4667
52.8869
52.1599
51.2817
50.2502
49.0648
47.7268
46.2391
44.6069
42.8369
40.9381
38.921
36.7976
34.5817
32.288
29.9319
27.5294
25.0965
22.6481
20.1967
17.7523
15.3357
12.9416
10.6159
8.40553
6.3496
4.63498
5.34697
5.21552
2.97767
3.22375
3.81523
4.49923
5.2198
5.95807
6.69722
7.43001
8.1499
8.85261
9.53514
10.1946
10.8288
11.4357
12.0136
12.5609
13.076
13.5578
14.0051
14.4172
14.7935
15.134
15.4393
15.7111
15.9521
16.1605
16.3356
16.4776
16.5873
16.6657
16.7144
16.7352
16.7298
16.7003
16.6488
16.5774
16.4882
16.3835
16.2651
16.1351
15.9954
15.8477
15.6936
15.5345
15.3717
15.2067
15.0403
14.8733
14.707
14.5419
14.3785
14.2173
14.0589
13.9035
13.7514
13.6029
13.4584
13.3179
13.1818
13.0505
12.9245
12.8047
12.6906
12.5819
12.4784
12.3803
12.2875
12.2004
12.1189
12.0434
11.9741
11.9112
11.8549
11.8055
11.7632
11.7282
11.7009
11.6813
11.6698
11.6666
11.6718
11.6857
11.7084
11.7402
11.7813
11.8316
11.8915
11.961
12.0403
12.1295
12.2286
12.3379
12.4573
12.5869
12.7268
12.8771
13.0377
13.2088
13.3903
13.5823
13.7848
13.9977
14.2212
14.455
14.6993
14.954
15.2191
15.4945
15.7802
16.0761
16.3822
16.6985
17.0248
17.3613
17.7077
18.0642
18.4306
18.8069
19.1932
19.5894
19.9956
20.4117
20.8377
21.2738
21.7199
22.1761
22.6425
23.1193
23.6064
24.1041
24.6124
25.1315
25.6614
26.2024
26.7545
27.3178
27.8924
28.4784
29.0757
29.6844
30.3042
30.935
31.5765
32.2282
32.8897
33.5602
34.2388
34.9244
35.6156
36.3109
37.0083
37.7056
38.4003
39.0893
39.7695
40.4369
41.0874
41.7163
42.3186
42.8887
43.4205
43.9078
44.3438
44.7214
45.0334
45.2727
45.4321
45.5054
45.4877
45.3735
45.1546
44.8241
44.3758
43.8054
43.1095
42.2862
41.3349
40.2566
39.054
37.7311
36.2938
34.7492
33.106
31.3745
29.5657
27.6918
25.7658
23.8012
21.8122
19.8131
17.8188
15.8459
13.9151
12.0498
10.2908
8.69811
7.40223
6.90452
11.3489
5.2154
2.9776
3.22373
3.81526
4.49929
5.21988
5.95817
6.69734
7.43014
8.15004
8.85276
9.5353
10.1948
10.8289
11.4359
12.0138
12.561
13.0762
13.5579
14.0052
14.4173
14.7936
15.1341
15.4394
15.7112
15.9522
16.1606
16.3357
16.4777
16.5873
16.6657
16.7144
16.7351
16.7297
16.7001
16.6486
16.5772
16.4881
16.3834
16.2651
16.1351
15.9954
15.8477
15.6936
15.5344
15.3717
15.2066
15.0402
14.8732
14.7068
14.5417
14.3783
14.2171
14.0586
13.9032
13.7511
13.6026
13.458
13.3176
13.1815
13.0502
12.9242
12.8043
12.6903
12.5816
12.4782
12.38
12.2873
12.2001
12.1187
12.0432
11.9739
11.911
11.8547
11.8053
11.763
11.7281
11.7008
11.6813
11.6698
11.6665
11.6718
11.6857
11.7085
11.7403
11.7813
11.8317
11.8916
11.9612
12.0405
12.1297
12.2289
12.3381
12.4575
12.5872
12.7271
12.8774
13.038
13.2091
13.3907
13.5827
13.7851
13.9981
14.2215
14.4554
14.6997
14.9544
15.2195
15.4949
15.7806
16.0765
16.3826
16.6989
17.0253
17.3617
17.7082
18.0646
18.431
18.8074
19.1937
19.5899
19.9961
20.4122
20.8382
21.2743
21.7204
22.1766
22.6431
23.1198
23.607
24.1046
24.6129
25.132
25.662
26.2029
26.755
27.3183
27.893
28.479
29.0763
29.6849
30.3048
30.9356
31.5771
32.2288
32.8903
33.5608
34.2394
34.925
35.6163
36.3115
37.0089
37.7062
38.4009
39.09
39.7701
40.4376
41.0881
41.717
42.3193
42.8894
43.4213
43.9085
44.3445
44.7221
45.0342
45.2734
45.4328
45.5061
45.4884
45.3741
45.1553
44.8246
44.3764
43.806
43.11
42.2867
41.3354
40.2571
39.0544
37.7315
36.2941
34.7495
33.1064
31.3748
29.5659
27.692
25.766
23.8014
21.8124
19.8132
17.819
15.846
13.9152
12.0499
10.2909
8.69818
7.40226
6.90444
11.3488
7.96247
4.04942
3.8491
4.19438
4.69544
5.25884
5.85214
6.45785
7.06571
7.66859
8.26139
8.84031
9.40227
9.9448
10.4658
10.9635
11.4363
11.8828
12.3019
12.6925
13.0537
13.3851
13.6863
13.9574
14.1991
14.4123
14.5965
14.7514
14.8769
14.9737
15.0425
15.0844
15.1008
15.093
15.063
15.0123
14.9429
14.8567
14.7555
14.6414
14.516
14.3813
14.2388
14.0902
13.9368
13.78
13.6211
13.4609
13.3006
13.141
12.9827
12.8263
12.6725
12.5216
12.374
12.2301
12.0901
11.9542
11.8226
11.6956
11.5736
11.4567
11.3454
11.2396
11.1391
11.044
10.9542
10.8698
10.7909
10.7176
10.6501
10.5886
10.5332
10.4842
10.4418
10.4062
10.3775
10.3561
10.3421
10.3357
10.3371
10.3465
10.3642
10.3902
10.4248
10.4682
10.5204
10.5817
10.6522
10.732
10.8213
10.9201
11.0287
11.147
11.2751
11.4132
11.5613
11.7194
11.8877
12.0661
12.2547
12.4535
12.6625
12.8818
13.1113
13.351
13.6008
13.8609
14.131
14.4113
14.7016
15.0019
15.3122
15.6324
15.9624
16.3022
16.6519
17.0112
17.3803
17.7589
18.1473
18.5452
18.9528
19.37
19.7967
20.2332
20.6793
21.1352
21.6009
22.0764
22.562
23.0576
23.5633
24.0793
24.6057
25.1425
25.6898
26.2478
26.8163
27.3955
27.9852
28.5854
29.1959
29.8164
30.4464
31.0855
31.7331
32.3882
33.0499
33.7168
34.3875
35.0603
35.7329
36.4032
37.0681
37.7248
38.3695
38.9985
39.6073
40.1911
40.7448
41.2629
41.7393
42.1677
42.5417
42.8546
43.0996
43.2701
43.36
43.3638
43.2753
43.0883
42.7968
42.3958
41.8814
41.2505
40.5017
39.6344
38.6497
37.5499
36.3389
35.0218
33.6051
32.0966
30.5053
28.841
27.1147
25.3382
23.5244
21.6871
19.8413
18.0046
16.1976
14.4466
12.7865
11.2696
9.98399
9.13043
9.51838
17.8287
7.96235
4.04942
3.84914
4.19445
4.69554
5.25896
5.85228
6.458
7.06587
7.66875
8.26156
8.84048
9.40244
9.94496
10.466
10.9637
11.4365
11.883
12.302
12.6926
13.0538
13.3852
13.6864
13.9575
14.1992
14.4124
14.5965
14.7514
14.8769
14.9737
15.0425
15.0844
15.1007
15.093
15.0629
15.0122
14.9428
14.8565
14.7554
14.6412
14.5159
14.3811
14.2387
14.09
13.9366
13.7798
13.6209
13.4607
13.3004
13.1407
12.9825
12.8261
12.6722
12.5213
12.3738
12.2299
12.0898
11.9539
11.8223
11.6954
11.5733
11.4565
11.3451
11.2393
11.1389
11.0438
10.954
10.8696
10.7907
10.7174
10.6499
10.5884
10.5331
10.4841
10.4417
10.4061
10.3775
10.3561
10.3421
10.3357
10.3371
10.3466
10.3642
10.3903
10.4249
10.4683
10.5205
10.5819
10.6524
10.7322
10.8215
10.9203
11.0289
11.1472
11.2753
11.4134
11.5615
11.7197
11.888
12.0664
12.255
12.4538
12.6629
12.8821
13.1116
13.3513
13.6012
13.8612
14.1314
14.4117
14.702
15.0023
15.3126
15.6328
15.9628
16.3027
16.6523
17.0117
17.3807
17.7594
18.1478
18.5457
18.9533
19.3704
19.7972
20.2337
20.6798
21.1357
21.6014
22.0769
22.5625
23.0581
23.5638
24.0799
24.6062
25.143
25.6904
26.2483
26.8169
27.396
27.9858
28.586
29.1965
29.8169
30.447
31.0861
31.7336
32.3888
33.0504
33.7174
34.3881
35.0609
35.7336
36.4038
37.0688
37.7254
38.3702
38.9991
39.6079
40.1918
40.7455
41.2635
41.7399
42.1684
42.5423
42.8552
43.1002
43.2707
43.3606
43.3643
43.2759
43.0888
42.7973
42.3963
41.8818
41.2509
40.502
39.6347
38.65
37.5502
36.3391
35.022
33.6053
32.0968
30.5054
28.841
27.1147
25.3383
23.5245
21.6871
19.8414
18.0046
16.1976
14.4466
12.7865
11.2696
9.98397
9.1304
9.51822
17.8286
10.6262
5.15931
4.59161
4.75792
5.13556
5.60244
6.11355
6.64655
7.18833
7.73019
8.26599
8.79117
9.30225
9.7965
10.2717
10.7262
11.1584
11.5671
11.9513
12.3101
12.6429
12.9491
13.2284
13.4808
13.7065
13.9057
14.0783
14.2241
14.343
14.4354
14.5018
14.5429
14.5598
14.5537
14.5259
14.4781
14.4118
14.3286
14.2305
14.1191
13.9961
13.8634
13.7225
13.5749
13.4223
13.2659
13.1069
12.9466
12.7858
12.6256
12.4667
12.3098
12.1554
12.004
11.8561
11.7121
11.5721
11.4365
11.3055
11.1794
11.0583
10.9425
10.8323
10.7277
10.6285
10.5348
10.4467
10.364
10.287
10.2158
10.1504
10.0911
10.0379
9.99115
9.95093
9.91746
9.89093
9.87155
9.85952
9.85501
9.85825
9.86942
9.8887
9.9163
9.95238
9.99712
10.0507
10.1132
10.1849
10.2659
10.3563
10.4563
10.5659
10.6853
10.8145
10.9538
11.1031
11.2625
11.4321
11.6119
11.802
12.0024
12.2132
12.4343
12.6658
12.9076
13.1597
13.4222
13.6949
13.9779
14.2711
14.5745
14.888
15.2115
15.5451
15.8886
16.242
16.6052
16.9783
17.3611
17.7536
18.1559
18.5678
18.9893
19.4205
19.8614
20.3119
20.7722
21.2422
21.722
22.2118
22.7114
23.2211
23.741
24.271
24.8113
25.3619
25.9229
26.4942
27.076
27.6681
28.2704
28.8826
29.5046
30.1358
30.7759
31.4241
32.0795
32.7413
33.408
34.0783
34.7503
35.4221
36.0912
36.755
37.4103
38.0538
38.6816
39.2894
39.8726
40.4262
40.9447
41.4225
41.8534
42.2312
42.5495
42.8019
42.9821
43.0839
43.1017
43.0295
42.8619
42.5935
42.2201
41.7382
41.1451
40.4396
39.6214
38.6914
37.6519
36.5063
35.2592
33.9163
32.4845
30.9717
29.3866
27.7391
26.0401
24.3016
22.5376
20.7641
19.0004
17.2709
15.6073
14.0535
12.6761
11.5935
11.091
12.3011
24.7315
10.6261
5.15935
4.59168
4.75802
5.13568
5.60258
6.11369
6.64671
7.18849
7.73036
8.26615
8.79133
9.30241
9.79664
10.2719
10.7263
11.1585
11.5672
11.9514
12.3102
12.6429
12.9491
13.2284
13.4808
13.7065
13.9057
14.0783
14.224
14.343
14.4353
14.5017
14.5428
14.5597
14.5535
14.5258
14.4779
14.4116
14.3285
14.2303
14.1189
13.9959
13.8632
13.7222
13.5747
13.422
13.2656
13.1067
12.9463
12.7856
12.6254
12.4665
12.3095
12.1551
12.0037
11.8559
11.7118
11.5718
11.4362
11.3052
11.1791
11.0581
10.9423
10.8321
10.7274
10.6283
10.5347
10.4465
10.3639
10.2869
10.2156
10.1503
10.091
10.0378
9.99107
9.95086
9.9174
9.8909
9.87153
9.85951
9.85502
9.85827
9.86945
9.88875
9.91636
9.95246
9.99721
10.0508
10.1134
10.1851
10.2661
10.3565
10.4564
10.5661
10.6855
10.8148
10.954
11.1033
11.2627
11.4323
11.6122
11.8023
12.0027
12.2135
12.4346
12.6661
12.9079
13.1601
13.4225
13.6953
13.9783
14.2715
14.5749
14.8884
15.2119
15.5455
15.889
16.2424
16.6056
16.9787
17.3615
17.7541
18.1563
18.5682
18.9898
19.421
19.8618
20.3124
20.7726
21.2427
21.7225
22.2122
22.7119
23.2216
23.7414
24.2714
24.8117
25.3623
25.9233
26.4947
27.0765
27.6686
28.2708
28.8831
29.5051
30.1363
30.7764
31.4246
32.08
32.7418
33.4085
34.0788
34.7508
35.4226
36.0917
36.7555
37.4109
38.0544
38.6822
39.29
39.8732
40.4267
40.9453
41.423
41.8539
42.2317
42.55
42.8024
42.9825
43.0843
43.1021
43.03
42.8623
42.5939
42.2205
41.7384
41.1454
40.4398
39.6215
38.6915
37.652
36.5064
35.2592
33.9163
32.4845
30.9716
29.3865
27.739
26.04
24.3016
22.5375
20.764
19.0003
17.2708
15.6072
14.0534
12.676
11.5934
11.0909
12.3008
24.7315
13.3052
6.31239
5.41051
5.42529
5.70772
6.10527
6.56104
7.04725
7.54778
8.05217
8.55313
9.04539
9.52501
9.98903
10.4352
10.8618
11.2675
11.6512
12.0122
12.3499
12.6637
12.9534
13.2186
13.4593
13.6755
13.8673
14.0345
14.1771
14.2947
14.3876
14.456
14.5004
14.5215
14.5203
14.4979
14.4554
14.3943
14.316
14.2222
14.1144
13.9944
13.8638
13.7241
13.577
13.424
13.2664
13.1057
12.943
12.7794
12.6159
12.4533
12.2926
12.1342
11.9788
11.8269
11.6788
11.535
11.3957
11.2612
11.1318
11.0076
10.8888
10.7757
10.6683
10.5666
10.4705
10.3802
10.2956
10.2168
10.1439
10.0771
10.0164
9.96205
9.91414
9.87287
9.83841
9.81097
9.79071
9.77785
9.77257
9.77507
9.78554
9.80418
9.83117
9.86671
9.91097
9.96412
10.0263
10.0978
10.1786
10.269
10.369
10.4789
10.5986
10.7284
10.8683
11.0185
11.1789
11.3498
11.5311
11.7228
11.9252
12.1381
12.3616
12.5956
12.8403
13.0956
13.3615
13.6379
13.9248
14.2222
14.5301
14.8483
15.1768
15.5156
15.8647
16.2238
16.5931
16.9724
17.3617
17.7609
18.1701
18.5891
19.0179
19.4566
19.9051
20.3635
20.8316
21.3097
21.7977
22.2957
22.8037
23.3217
23.85
24.3884
24.9372
25.4963
26.0657
26.6454
27.2355
27.8359
28.4463
29.0666
29.6965
30.3355
30.9831
31.6387
32.3013
32.9699
33.6433
34.32
34.9981
35.6757
36.3503
37.0193
37.6795
38.3276
38.9597
39.5717
40.159
40.7166
41.2393
41.7215
42.1573
42.5408
42.8657
43.1258
43.3151
43.4278
43.4582
43.4008
43.2506
43.003
42.6542
42.201
41.6414
40.9742
40.1993
39.3175
38.3308
37.2421
36.0554
34.7754
33.4081
31.9599
30.4384
28.8523
27.2112
25.5266
23.8121
22.0844
20.3645
18.6798
17.0669
15.5782
14.2951
13.3682
13.171
15.1966
31.8081
13.3051
6.31248
5.4106
5.42541
5.70785
6.10541
6.56119
7.04741
7.54794
8.05232
8.55328
9.04553
9.52514
9.98914
10.4353
10.8619
11.2675
11.6513
12.0123
12.3499
12.6637
12.9533
13.2185
13.4592
13.6753
13.8671
14.0344
14.1769
14.2945
14.3874
14.4557
14.5001
14.5213
14.5201
14.4976
14.4551
14.394
14.3157
14.2219
14.1141
13.9941
13.8634
13.7238
13.5767
13.4236
13.2661
13.1054
12.9426
12.779
12.6155
12.453
12.2922
12.1339
11.9785
11.8266
11.6785
11.5347
11.3954
11.2609
11.1315
11.0073
10.8885
10.7754
10.668
10.5663
10.4703
10.38
10.2954
10.2166
10.1438
10.077
10.0163
9.96192
9.91403
9.87277
9.83833
9.8109
9.79066
9.77781
9.77254
9.77505
9.78554
9.80419
9.8312
9.86675
9.91102
9.96419
10.0264
10.0979
10.1787
10.2691
10.3692
10.479
10.5988
10.7286
10.8685
11.0186
11.1791
11.35
11.5313
11.7231
11.9254
12.1383
12.3618
12.5959
12.8406
13.0959
13.3618
13.6382
13.9251
14.2225
14.5304
14.8486
15.1771
15.516
15.865
16.2242
16.5934
16.9728
17.3621
17.7613
18.1704
18.5894
19.0183
19.457
19.9055
20.3638
20.832
21.3101
21.7981
22.296
22.804
23.3221
23.8504
24.3888
24.9376
25.4966
26.066
26.6458
27.2359
27.8363
28.4467
29.067
29.6969
30.3359
30.9835
31.6391
32.3017
32.9703
33.6438
34.3204
34.9986
35.6761
36.3507
37.0197
37.6799
38.328
38.9602
39.5721
40.1594
40.717
41.2397
41.7219
42.1577
42.5412
42.866
43.1262
43.3155
43.4282
43.4585
43.4011
43.2509
43.0032
42.6543
42.2012
41.6415
40.9743
40.1994
39.3175
38.3308
37.2421
36.0553
34.7754
33.408
31.9598
30.4383
28.8521
27.211
25.5264
23.8119
22.0842
20.3643
18.6796
17.0667
15.578
14.2949
13.368
13.1708
15.1963
31.8081
16.051
7.52119
6.29556
6.17051
6.37216
6.71472
7.12907
7.58176
8.05363
8.5324
9.00964
9.47937
9.93724
10.3801
10.8056
11.2121
11.5984
11.9639
12.3079
12.63
12.9301
13.2079
13.4634
13.6966
13.9074
14.0958
14.2618
14.4049
14.525
14.622
14.6958
14.7468
14.7753
14.782
14.7676
14.7331
14.6797
14.6085
14.5209
14.4186
14.3029
14.1755
14.038
13.8919
13.7388
13.5801
13.4174
13.2517
13.0845
12.9166
12.7492
12.5831
12.4191
12.2578
12.0997
11.9455
11.7955
11.6501
11.5095
11.3741
11.244
11.1195
11.0007
10.8878
10.7807
10.6795
10.5842
10.4947
10.4113
10.3339
10.2627
10.1978
10.1393
10.0873
10.0422
10.0039
9.97271
9.94881
9.93239
9.92364
9.92275
9.92992
9.94535
9.96923
10.0018
10.0431
10.0935
10.1531
10.222
10.3005
10.3886
10.4866
10.5946
10.7127
10.841
10.9796
11.1287
11.2884
11.4586
11.6396
11.8312
12.0337
12.247
12.4712
12.7063
12.9522
13.209
13.4766
13.7551
14.0444
14.3445
14.6553
14.9768
15.3089
15.6515
16.0047
16.3682
16.7422
17.1264
17.5209
17.9257
18.3405
18.7655
19.2006
19.6457
20.1009
20.5661
21.0413
21.5266
22.0221
22.5276
23.0433
23.5693
24.1055
24.6521
25.209
25.7763
26.3541
26.9422
27.5406
28.1493
28.768
29.3965
30.0346
30.6816
31.3372
32.0005
32.6706
33.3466
34.027
34.7104
35.395
36.0787
36.7591
37.4335
38.0988
38.7516
39.3882
40.0044
40.5957
41.1573
41.6841
42.1707
42.6114
43.0004
43.3319
43.5999
43.7988
43.923
43.9671
43.9261
43.7956
43.5714
43.2503
42.8297
42.3077
41.6833
40.9564
40.1277
39.1989
38.1722
37.0507
35.8382
34.5392
33.1588
31.7032
30.1795
28.5961
26.9636
25.295
23.6073
21.9227
20.2714
18.6944
17.252
16.0406
15.2434
15.3227
18.1335
38.8417
16.0508
7.52129
6.29566
6.17063
6.37229
6.71486
7.12921
7.58191
8.05377
8.53252
9.00976
9.47947
9.93732
10.3801
10.8056
11.2121
11.5984
11.9639
12.3078
12.6299
12.93
13.2078
13.4633
13.6964
13.9072
14.0956
14.2615
14.4047
14.5247
14.6217
14.6955
14.7465
14.775
14.7817
14.7673
14.7328
14.6793
14.6081
14.5205
14.4181
14.3025
14.1751
14.0375
13.8915
13.7384
13.5797
13.417
13.2513
13.0841
12.9162
12.7488
12.5827
12.4187
12.2574
12.0994
11.9452
11.7952
11.6497
11.5092
11.3737
11.2437
11.1192
11.0004
10.8875
10.7805
10.6793
10.5839
10.4945
10.4111
10.3337
10.2625
10.1976
10.1391
10.0872
10.042
10.0038
9.97259
9.94871
9.9323
9.92356
9.92268
9.92986
9.9453
9.9692
10.0017
10.0431
10.0935
10.1531
10.222
10.3005
10.3887
10.4867
10.5947
10.7128
10.8411
10.9798
11.1289
11.2885
11.4588
11.6397
11.8314
12.0339
12.2472
12.4714
12.7064
12.9524
13.2092
13.4768
13.7554
14.0447
14.3447
14.6556
14.977
15.3091
15.6518
16.0049
16.3685
16.7424
17.1267
17.5212
17.9259
18.3408
18.7658
19.2008
19.6459
20.1011
20.5663
21.0416
21.5269
22.0223
22.5279
23.0436
23.5696
24.1058
24.6524
25.2093
25.7766
26.3543
26.9424
27.5409
28.1496
28.7683
29.3968
30.0348
30.6819
31.3374
32.0007
32.6709
33.3469
34.0273
34.7107
35.3953
36.079
36.7594
37.4338
38.0991
38.7519
39.3885
40.0047
40.596
41.1576
41.6844
42.171
42.6117
43.0007
43.3321
43.6002
43.799
43.9232
43.9672
43.9263
43.7957
43.5715
43.2504
42.8297
42.3077
41.6832
40.9563
40.1276
39.1988
38.172
37.0505
35.838
34.539
33.1586
31.703
30.1793
28.5959
26.9633
25.2947
23.607
21.9225
20.2711
18.6941
17.2518
16.0404
15.2431
15.3224
18.133
38.8418
18.8713
8.78486
7.23783
6.9815
7.11086
7.40677
7.78771
8.21449
8.66485
9.12473
9.58458
10.0377
10.4795
10.9064
11.3162
11.7074
12.0789
12.4303
12.7613
13.0717
13.3616
13.6311
13.8803
14.1092
14.3178
14.5061
14.674
14.8209
14.9466
15.0507
15.133
15.1935
15.2323
15.2496
15.246
15.222
15.1786
15.1167
15.0376
14.9425
14.833
14.7104
14.5763
14.4323
14.28
14.1209
13.9564
13.788
13.617
13.4445
13.2716
13.0994
12.9287
12.7603
12.5948
12.4329
12.2751
12.1216
11.973
11.8295
11.6914
11.559
11.4323
11.3115
11.1966
11.0878
10.9848
10.888
10.7972
10.7126
10.6342
10.5623
10.4969
10.4381
10.3862
10.3412
10.3035
10.2731
10.2502
10.2351
10.228
10.229
10.2384
10.2563
10.283
10.3186
10.3634
10.4175
10.4811
10.5544
10.6376
10.7308
10.8341
10.9478
11.0718
11.2064
11.3517
11.5077
11.6746
11.8524
12.0412
12.241
12.4519
12.674
12.9071
13.1514
13.4069
13.6735
13.9511
14.2399
14.5397
14.8505
15.1723
15.505
15.8484
16.2027
16.5677
16.9433
17.3295
17.7262
18.1334
18.551
18.9789
19.4172
19.8658
20.3246
20.7938
21.2732
21.7628
22.2628
22.7731
23.2937
23.8247
24.3661
24.918
25.4804
26.0532
26.6366
27.2303
27.8345
28.4488
29.0732
29.7074
30.351
31.0035
31.6644
32.3328
33.008
33.6887
34.3736
35.0613
35.7498
36.437
37.1207
37.798
38.466
39.1212
39.76
40.3783
40.9716
41.5355
42.0648
42.5544
42.9989
43.3929
43.7307
44.007
44.2163
44.3535
44.4136
44.3923
44.2856
44.09
43.8026
43.4212
42.9443
42.371
41.7012
40.9354
40.0746
39.1203
38.0747
36.9404
35.7203
34.4181
33.0381
31.5859
30.0683
28.4947
26.8775
25.2335
23.586
21.9669
20.4217
19.0182
17.8673
17.1842
17.5176
21.0685
45.7827
18.8712
8.78495
7.23792
6.98161
7.11098
7.40689
7.78783
8.2146
8.66496
9.12482
9.58466
10.0378
10.4795
10.9064
11.3162
11.7073
12.0788
12.4302
12.7611
13.0715
13.3614
13.6309
13.88
14.1089
14.3175
14.5058
14.6736
14.8205
14.9462
15.0503
15.1326
15.1931
15.2318
15.2492
15.2455
15.2215
15.1781
15.1162
15.0371
14.942
14.8324
14.7098
14.5758
14.4318
14.2795
14.1204
13.9559
13.7875
13.6165
13.444
13.2711
13.0989
12.9282
12.7598
12.5944
12.4325
12.2746
12.1212
11.9726
11.8292
11.6911
11.5586
11.4319
11.3111
11.1963
11.0874
10.9845
10.8877
10.7969
10.7123
10.634
10.562
10.4966
10.4379
10.386
10.341
10.3033
10.2729
10.2501
10.235
10.2279
10.2289
10.2383
10.2562
10.2829
10.3185
10.3633
10.4175
10.4811
10.5544
10.6376
10.7308
10.8341
10.9478
11.0718
11.2065
11.3518
11.5078
11.6747
11.8525
12.0413
12.2411
12.452
12.6741
12.9072
13.1516
13.407
13.6736
13.9513
14.2401
14.5399
14.8507
15.1725
15.5051
15.8486
16.2029
16.5678
16.9434
17.3296
17.7264
18.1335
18.5511
18.9791
19.4174
19.8659
20.3248
20.7939
21.2733
21.763
22.263
22.7732
23.2939
23.8249
24.3663
24.9182
25.4805
26.0534
26.6367
27.2305
27.8346
28.449
29.0734
29.7076
30.3512
31.0037
31.6646
32.333
33.0082
33.6889
34.3738
35.0614
35.7499
36.4372
37.1209
37.7982
38.4662
39.1214
39.7602
40.3784
40.9718
41.5356
42.0649
42.5545
42.9991
43.393
43.7309
44.0071
44.2164
44.3536
44.4137
44.3924
44.2856
44.0899
43.8025
43.4211
42.9442
42.3709
41.7011
40.9352
40.0743
39.1201
38.0745
36.9401
35.72
34.4178
33.0378
31.5856
30.068
28.4944
26.8772
25.2332
23.5856
21.9665
20.4213
19.0178
17.867
17.1838
17.5172
21.0679
45.7827
21.8129
10.1177
8.23904
7.85366
7.91516
8.16929
8.52168
8.92724
9.3606
9.80588
10.2525
10.693
11.1224
11.5372
11.935
12.3144
12.6747
13.0155
13.3368
13.6388
13.9219
14.1863
14.4323
14.66
14.8695
15.0608
15.2336
15.3875
15.5217
15.636
15.7297
15.8025
15.8543
15.8849
15.8945
15.8836
15.8525
15.8022
15.7336
15.6477
15.546
15.4298
15.3006
15.1599
15.0094
14.8506
14.685
14.5141
14.3394
14.1621
13.9835
13.8047
13.6266
13.4502
13.2763
13.1054
12.9382
12.7752
12.6169
12.4635
12.3154
12.1728
12.036
11.9051
11.7801
11.6611
11.5481
11.4412
11.3404
11.2458
11.1576
11.0758
11.0005
10.932
10.8703
10.8157
10.7683
10.7284
10.696
10.6715
10.6549
10.6466
10.6468
10.6556
10.6733
10.7
10.736
10.7814
10.8366
10.9015
10.9765
11.0616
11.157
11.263
11.3795
11.5068
11.6449
11.794
11.9542
12.1255
12.308
12.5017
12.7068
12.9232
13.151
13.3901
13.6407
13.9026
14.1758
14.4604
14.7562
15.0633
15.3816
15.7111
16.0516
16.4032
16.7657
17.1391
17.5233
17.9183
18.324
18.7404
19.1673
19.6049
20.0529
20.5115
20.9806
21.4601
21.9501
22.4506
22.9616
23.4831
24.0152
24.5578
25.111
25.6748
26.2492
26.8342
27.4296
28.0354
28.6515
29.2776
29.9134
30.5585
31.2125
31.8747
32.5443
33.2204
33.9019
34.5873
35.2752
35.9637
36.6507
37.3339
38.0105
38.6775
39.3316
39.9693
40.5865
41.1792
41.7426
42.2723
42.7631
43.2102
43.6084
43.9525
44.2374
44.4584
44.6106
44.6898
44.6921
44.6142
44.4531
44.2063
43.8722
43.4494
42.9371
42.335
41.6433
40.8625
39.9932
39.0364
37.9933
36.8654
35.6545
34.3631
32.9949
31.5551
30.0517
28.4959
26.9044
25.3007
23.7187
22.2075
20.842
19.7473
19.1695
19.7418
24.0019
52.6169
21.8126
10.1178
8.23911
7.85375
7.91526
8.16939
8.52177
8.92732
9.36067
9.80593
10.2525
10.693
11.1224
11.5371
11.9349
12.3143
12.6745
13.0152
13.3365
13.6385
13.9216
14.1859
14.4319
14.6596
14.8691
15.0603
15.2331
15.3869
15.5212
15.6354
15.7291
15.8019
15.8537
15.8843
15.8939
15.8829
15.8519
15.8016
15.7329
15.6471
15.5454
15.4292
15.3
15.1593
15.0088
14.85
14.6844
14.5135
14.3388
14.1616
13.983
13.8041
13.6261
13.4497
13.2757
13.1049
12.9377
12.7747
12.6164
12.463
12.3149
12.1724
12.0356
11.9047
11.7797
11.6607
11.5477
11.4408
11.34
11.2455
11.1572
11.0755
11.0002
10.9317
10.8701
10.8155
10.7681
10.7281
10.6958
10.6712
10.6547
10.6464
10.6466
10.6554
10.6731
10.6999
10.7359
10.7813
10.8365
10.9014
10.9764
11.0615
11.157
11.2629
11.3795
11.5068
11.6449
11.794
11.9542
12.1255
12.308
12.5018
12.7068
12.9232
13.151
13.3902
13.6407
13.9026
14.1759
14.4604
14.7563
15.0634
15.3817
15.7112
16.0517
16.4032
16.7658
17.1392
17.5234
17.9184
18.3241
18.7404
19.1674
19.6049
20.053
20.5116
20.9806
21.4602
21.9502
22.4507
22.9617
23.4832
24.0152
24.5579
25.1111
25.6749
26.2493
26.8342
27.4296
28.0355
28.6515
29.2776
29.9134
30.5586
31.2126
31.8748
32.5444
33.2205
33.9019
34.5874
35.2753
35.9638
36.6508
37.3339
38.0105
38.6775
39.3317
39.9694
40.5866
41.1792
41.7427
42.2723
42.7632
43.2102
43.6084
43.9524
44.2374
44.4583
44.6105
44.6897
44.692
44.6141
44.4529
44.2062
43.872
43.4491
42.9368
42.3347
41.643
40.8622
39.9929
39.0361
37.993
36.865
35.6541
34.3627
32.9945
31.5548
30.0513
28.4955
26.904
25.3003
23.7183
22.2071
20.8416
19.7469
19.1691
19.7412
24.0012
52.617
24.894
11.5147
9.29973
8.78549
8.78118
8.99631
9.32321
9.7107
10.1302
10.5641
11.0005
11.4317
11.852
12.2579
12.6471
13.0181
13.3705
13.7042
14.0194
14.3166
14.5964
14.8591
15.1054
15.3353
15.5492
15.7469
15.928
16.0919
16.238
16.3654
16.4734
16.5614
16.6289
16.6754
16.7009
16.7052
16.6888
16.6522
16.5959
16.5212
16.4289
16.3206
16.1975
16.0613
15.9134
15.7556
15.5894
15.4164
15.2382
15.056
14.8713
14.6854
14.4992
14.3139
14.1304
13.9493
13.7714
13.5972
13.4273
13.2622
13.102
12.9473
12.7981
12.6547
12.5171
12.3855
12.2597
12.14
12.0264
11.9189
11.8178
11.7231
11.6349
11.5535
11.4789
11.4114
11.3511
11.2982
11.253
11.2156
11.1863
11.1653
11.1528
11.149
11.1542
11.1685
11.1923
11.2255
11.2686
11.3216
11.3848
11.4583
11.5423
11.6369
11.7423
11.8586
11.986
12.1245
12.2742
12.4352
12.6077
12.7916
12.987
13.1939
13.4124
13.6425
13.8841
14.1374
14.4021
14.6785
14.9663
15.2656
15.5762