/*--------------------------------*- C++ -*----------------------------------*\
  =========                 |
  \\      /  F ield         | OpenFOAM: The Open Source CFD Toolbox
   \\    /   O peration     | Website:  https://openfoam.org
    \\  /    A nd           | Version:  8
     \\/     M anipulation  |
\*---------------------------------------------------------------------------*/
FoamFile
{
    version     2.0;
    format      ascii;
    class       volScalarField;
    location    "1400";
    object      k;
}
// * * * * * * * * * * * * * * * * * * * * * * * * * * * * * * * * * * * * * //

dimensions      [0 2 -2 0 0 0 0];

internalField   nonuniform List<scalar> 
46000
(
0.000379868
0.00183417
0.00394606
0.00618963
0.00846349
0.0107559
0.0130766
0.015347
0.0175531
0.0196765
0.0217098
0.0236543
0.0254843
0.0272071
0.028821
0.0303243
0.0317166
0.032998
0.0341698
0.0352336
0.036192
0.037048
0.0378046
0.0384656
0.0390442
0.0395758
0.0400302
0.0404074
0.0407115
0.0409473
0.0411193
0.0412321
0.0412905
0.0412989
0.0412617
0.0411831
0.0410672
0.040918
0.0407392
0.0405344
0.0403057
0.0400584
0.0397945
0.0395164
0.0392261
0.0389262
0.0386189
0.038306
0.0379888
0.037669
0.0373479
0.0370266
0.0367061
0.0363873
0.036071
0.035758
0.035449
0.0351444
0.0348449
0.0345509
0.034263
0.0339825
0.0337198
0.0334683
0.0332251
0.0329902
0.0327642
0.0325477
0.0323413
0.0321457
0.0319615
0.0317893
0.0316298
0.0314836
0.0313513
0.0312335
0.0311309
0.0310438
0.0309729
0.0309187
0.0308816
0.0308622
0.0308608
0.0308777
0.0309133
0.030968
0.031042
0.0311355
0.0312488
0.0313819
0.0315351
0.0317084
0.0319023
0.0321162
0.03235
0.032604
0.0328783
0.0331727
0.0334873
0.0338219
0.0341764
0.0345509
0.0349451
0.0353589
0.0357922
0.0362448
0.0367167
0.0372076
0.0377174
0.038246
0.0387933
0.0393592
0.0399435
0.0405461
0.0411671
0.0418064
0.0424639
0.0431397
0.0438338
0.0445462
0.0452771
0.0460264
0.0467944
0.0475812
0.048387
0.0492119
0.0500564
0.0509206
0.0518047
0.0527092
0.0536343
0.0545804
0.0555476
0.0565364
0.057547
0.0585796
0.0596344
0.0607115
0.0618109
0.0629324
0.0640759
0.0652409
0.0664267
0.0676326
0.0688575
0.0700998
0.0713577
0.0726292
0.0739114
0.0752013
0.0764951
0.0777885
0.0790766
0.0803537
0.0816135
0.0828486
0.0840512
0.0852125
0.0863227
0.0873714
0.0883473
0.0892384
0.0900319
0.0907144
0.0912722
0.091691
0.0919567
0.0920552
0.0919743
0.0917173
0.0912863
0.0906449
0.0897774
0.0886742
0.0873285
0.0857356
0.0838931
0.0818014
0.0794632
0.0768844
0.0740737
0.071043
0.0678068
0.0643828
0.060791
0.0570539
0.0531959
0.0492426
0.0452205
0.0411558
0.0370725
0.0329824
0.0288728
0.0248341
0.0207884
0.0167152
0.012648
0.00850971
0.00421046
0.000887059
0.000379843
0.00183411
0.00394608
0.00618968
0.00846349
0.0107559
0.0130764
0.0153466
0.0175527
0.019676
0.0217092
0.0236536
0.0254835
0.0272064
0.0288202
0.0303236
0.0317159
0.0329973
0.034169
0.0352328
0.0361912
0.0370471
0.0378036
0.0384646
0.0390437
0.0395752
0.0400297
0.040407
0.0407112
0.040947
0.0411191
0.0412321
0.0412906
0.041299
0.0412617
0.0411829
0.0410668
0.0409173
0.0407381
0.0405328
0.0403038
0.0400562
0.0397922
0.039514
0.0392239
0.038924
0.0386169
0.0383041
0.0379871
0.0376675
0.0373466
0.0370254
0.036705
0.0363863
0.0360701
0.0357572
0.0354482
0.0351436
0.0348442
0.0345502
0.0342623
0.0339818
0.0337182
0.0334667
0.0332235
0.0329886
0.0327626
0.0325461
0.0323398
0.0321442
0.03196
0.0317878
0.0316283
0.0314821
0.0313498
0.031232
0.0311292
0.0310421
0.0309711
0.0309167
0.0308794
0.0308598
0.0308581
0.0308747
0.0309099
0.0309642
0.0310377
0.0311307
0.0312433
0.0313758
0.0315284
0.0317013
0.0318949
0.0321088
0.0323429
0.0325973
0.032872
0.0331669
0.0334819
0.033817
0.0341719
0.0345467
0.0349412
0.0353553
0.0357887
0.0362415
0.0367135
0.0372045
0.0377144
0.0382431
0.0387904
0.0393564
0.0399408
0.0405435
0.0411646
0.0418039
0.0424615
0.0431374
0.0438315
0.044544
0.0452749
0.0460243
0.0467924
0.0475792
0.0483851
0.0492101
0.0500546
0.0509188
0.0518031
0.0527076
0.0536328
0.0545789
0.0555463
0.0565351
0.0575458
0.0585785
0.0596334
0.0607105
0.06181
0.0629316
0.0640751
0.0652401
0.066426
0.0676319
0.0688568
0.0700991
0.0713571
0.0726286
0.0739108
0.0752007
0.0764946
0.0777881
0.0790762
0.0803534
0.0816132
0.0828484
0.0840511
0.0852124
0.0863227
0.0873715
0.0883474
0.0892385
0.090032
0.0907146
0.0912725
0.0916914
0.0919571
0.0920557
0.0919748
0.0917175
0.0912865
0.0906451
0.0897776
0.0886744
0.0873287
0.0857358
0.0838934
0.0818017
0.0794636
0.0768848
0.0740742
0.0710435
0.0678073
0.0643833
0.0607916
0.0570546
0.0531965
0.0492433
0.0452212
0.0411565
0.0370731
0.0329829
0.0288732
0.0248344
0.0207886
0.0167153
0.012648
0.00850972
0.00421046
0.000887054
0.00187573
0.0121562
0.021862
0.0302743
0.0379281
0.045062
0.0516959
0.0579148
0.063777
0.069278
0.0744365
0.0792738
0.0838002
0.0880252
0.0919569
0.0956026
0.0989694
0.102065
0.104895
0.10747
0.109796
0.111882
0.113737
0.115368
0.116785
0.118013
0.119055
0.119919
0.120617
0.121156
0.121549
0.121805
0.121935
0.121949
0.121857
0.12167
0.121395
0.121042
0.120621
0.120138
0.119602
0.11902
0.118399
0.117744
0.11706
0.116353
0.115629
0.114891
0.114142
0.113387
0.112629
0.11187
0.111112
0.110357
0.109608
0.108867
0.108134
0.107411
0.1067
0.106001
0.105318
0.104649
0.103999
0.103371
0.102764
0.102178
0.101615
0.101076
0.100563
0.100076
0.0996187
0.0991912
0.0987953
0.0984327
0.0981048
0.0978132
0.0975592
0.0973443
0.0971698
0.0970368
0.0969466
0.0969003
0.0968989
0.0969433
0.0970343
0.0971727
0.0973586
0.0975929
0.0978757
0.0982075
0.0985884
0.0990186
0.0994979
0.100026
0.100604
0.10123
0.101904
0.102627
0.103397
0.104214
0.105078
0.105987
0.106943
0.107942
0.108986
0.110073
0.111203
0.112375
0.113587
0.114841
0.116134
0.117466
0.118836
0.120244
0.12169
0.123172
0.124691
0.126245
0.127834
0.129459
0.131119
0.132813
0.134541
0.136304
0.138101
0.139933
0.141799
0.143699
0.145634
0.147604
0.149609
0.151649
0.153725
0.155837
0.157984
0.160167
0.162386
0.16464
0.16693
0.169254
0.171612
0.174003
0.176425
0.178876
0.181353
0.183854
0.186375
0.188912
0.19146
0.194012
0.196562
0.199101
0.201621
0.204112
0.206561
0.208957
0.211285
0.21353
0.215674
0.2177
0.219589
0.221318
0.222866
0.22421
0.225326
0.22619
0.226775
0.227058
0.227015
0.226629
0.225866
0.224701
0.223111
0.221076
0.21858
0.215609
0.212153
0.208205
0.203762
0.198826
0.193402
0.1875
0.181133
0.17432
0.167082
0.159443
0.151431
0.143073
0.134398
0.125432
0.116194
0.106697
0.0969309
0.0868543
0.076317
0.0652113
0.0531251
0.0395935
0.0233366
0.00405332
0.00187571
0.0121557
0.0218617
0.0302742
0.037928
0.0450617
0.0516957
0.0579145
0.0637767
0.0692778
0.0744363
0.0792737
0.0838001
0.0880252
0.0919569
0.0956026
0.0989694
0.102065
0.104895
0.10747
0.109796
0.111882
0.113737
0.115368
0.116785
0.118012
0.119054
0.119919
0.120616
0.121156
0.121548
0.121804
0.121934
0.121948
0.121857
0.121669
0.121394
0.121042
0.12062
0.120137
0.119601
0.11902
0.118398
0.117743
0.117059
0.116352
0.115628
0.11489
0.114141
0.113386
0.112628
0.111869
0.111111
0.110356
0.109607
0.108866
0.108133
0.10741
0.106699
0.106001
0.105317
0.104649
0.103999
0.103371
0.102763
0.102178
0.101615
0.101076
0.100562
0.100076
0.0996183
0.0991908
0.098795
0.0984323
0.0981045
0.0978129
0.097559
0.0973441
0.0971696
0.0970367
0.0969466
0.0969004
0.0968991
0.0969437
0.0970348
0.0971734
0.0973596
0.097594
0.0978772
0.0982092
0.0985903
0.0990205
0.0994999
0.100028
0.100605
0.101231
0.101905
0.102628
0.103398
0.104215
0.105078
0.105988
0.106943
0.107943
0.108987
0.110074
0.111203
0.112375
0.113588
0.114841
0.116134
0.117466
0.118836
0.120244
0.12169
0.123172
0.124691
0.126245
0.127834
0.129459
0.131119
0.132813
0.134541
0.136304
0.138101
0.139933
0.141799
0.143699
0.145634
0.147604
0.149609
0.151649
0.153725
0.155836
0.157984
0.160167
0.162386
0.16464
0.16693
0.169254
0.171612
0.174003
0.176425
0.178875
0.181353
0.183854
0.186375
0.188912
0.19146
0.194012
0.196561
0.199101
0.201621
0.204112
0.206561
0.208957
0.211285
0.21353
0.215674
0.2177
0.219588
0.221318
0.222866
0.22421
0.225326
0.22619
0.226775
0.227058
0.227015
0.226629
0.225866
0.224701
0.223111
0.221076
0.21858
0.215609
0.212153
0.208206
0.203763
0.198827
0.193403
0.187501
0.181134
0.174321
0.167083
0.159444
0.151432
0.143074
0.134399
0.125432
0.116195
0.106697
0.0969316
0.086855
0.0763175
0.0652117
0.0531253
0.0395936
0.0233366
0.0040533
0.00399682
0.0218639
0.0354414
0.046469
0.056334
0.0654212
0.0739102
0.0818676
0.0893559
0.0964046
0.103034
0.109261
0.115097
0.120553
0.12564
0.130364
0.134737
0.138767
0.142462
0.145834
0.148892
0.151645
0.154105
0.156283
0.158192
0.159845
0.161258
0.162441
0.163404
0.16416
0.16472
0.165097
0.165303
0.165351
0.165253
0.165022
0.16467
0.164208
0.163648
0.163001
0.162277
0.161486
0.160639
0.159742
0.158804
0.157833
0.156835
0.155818
0.154784
0.153742
0.152695
0.151648
0.150603
0.149564
0.148534
0.147516
0.146511
0.145522
0.144552
0.143601
0.142672
0.141767
0.140889
0.14004
0.139221
0.138433
0.137677
0.136955
0.136268
0.13562
0.13501
0.134442
0.133918
0.133439
0.133007
0.132624
0.132292
0.132012
0.131788
0.131619
0.131507
0.131455
0.131463
0.131533
0.131664
0.13186
0.132119
0.132442
0.132831
0.133286
0.133806
0.134391
0.135043
0.13576
0.136543
0.13739
0.138302
0.139278
0.140317
0.141419
0.142583
0.143808
0.145092
0.146436
0.147838
0.149298
0.150813
0.152383
0.154008
0.155685
0.157414
0.159195
0.161025
0.162904
0.164832
0.166807
0.168828
0.170896
0.173009
0.175166
0.177368
0.179614
0.181903
0.184235
0.186611
0.18903
0.191491
0.193996
0.196543
0.199134
0.201768
0.204446
0.207168
0.209933
0.212742
0.215595
0.218492
0.221432
0.224414
0.227439
0.230504
0.233608
0.236749
0.239925
0.243133
0.246368
0.249626
0.252901
0.256187
0.259477
0.262761
0.266029
0.269271
0.272473
0.275621
0.2787
0.28169
0.284574
0.287331
0.289937
0.292368
0.294599
0.296603
0.29835
0.299811
0.300956
0.301755
0.302175
0.302189
0.301769
0.300878
0.299487
0.297567
0.295095
0.292049
0.288412
0.284169
0.27931
0.27383
0.267727
0.261006
0.253673
0.245742
0.237229
0.228153
0.218538
0.208409
0.197791
0.186711
0.175192
0.16325
0.150895
0.138115
0.12487
0.111058
0.0964944
0.0807472
0.0629067
0.0405622
0.00864131
0.00399685
0.0218635
0.035441
0.0464687
0.0563338
0.065421
0.07391
0.0818674
0.0893557
0.0964044
0.103034
0.109261
0.115097
0.120553
0.125639
0.130364
0.134737
0.138766
0.142462
0.145834
0.148891
0.151645
0.154105
0.156283
0.158191
0.159844
0.161258
0.162441
0.163404
0.164159
0.164719
0.165096
0.165302
0.16535
0.165252
0.165021
0.164669
0.164207
0.163647
0.163
0.162276
0.161485
0.160637
0.159741
0.158803
0.157832
0.156834
0.155816
0.154783
0.153741
0.152694
0.151646
0.150601
0.149563
0.148533
0.147514
0.14651
0.145521
0.14455
0.1436
0.142671
0.141766
0.140888
0.140039
0.13922
0.138432
0.137676
0.136954
0.136267
0.135618
0.135009
0.134441
0.133917
0.133438
0.133005
0.132623
0.132291
0.132011
0.131787
0.131618
0.131507
0.131454
0.131462
0.131532
0.131664
0.131859
0.132118
0.132442
0.132831
0.133285
0.133805
0.134391
0.135043
0.13576
0.136542
0.13739
0.138302
0.139278
0.140317
0.141419
0.142583
0.143807
0.145092
0.146436
0.147838
0.149297
0.150813
0.152383
0.154007
0.155685
0.157414
0.159194
0.161024
0.162904
0.164831
0.166806
0.168828
0.170895
0.173008
0.175166
0.177368
0.179613
0.181903
0.184235
0.186611
0.189029
0.191491
0.193995
0.196543
0.199134
0.201768
0.204446
0.207168
0.209933
0.212742
0.215595
0.218492
0.221431
0.224414
0.227438
0.230504
0.233608
0.236749
0.239925
0.243133
0.246368
0.249626
0.252901
0.256187
0.259477
0.262761
0.266029
0.269271
0.272473
0.275621
0.2787
0.281691
0.284575
0.287331
0.289937
0.292369
0.2946
0.296603
0.29835
0.299812
0.300957
0.301755
0.302176
0.30219
0.30177
0.300879
0.299487
0.297568
0.295096
0.29205
0.288412
0.284169
0.279311
0.273831
0.267728
0.261007
0.253675
0.245743
0.23723
0.228154
0.218539
0.20841
0.197792
0.186712
0.175193
0.163251
0.150895
0.138116
0.124871
0.111059
0.0964949
0.0807475
0.0629068
0.0405622
0.00864127
0.0061304
0.0300977
0.0463541
0.0590664
0.0703013
0.0806073
0.0902386
0.0993004
0.107849
0.115913
0.123514
0.130663
0.137373
0.143653
0.149514
0.154965
0.160018
0.164681
0.168967
0.172886
0.176451
0.179672
0.182563
0.185135
0.187402
0.189378
0.191079
0.192514
0.193696
0.194636
0.195348
0.195842
0.196134
0.196236
0.196161
0.195923
0.195535
0.195011
0.194363
0.193605
0.192749
0.191806
0.190789
0.189708
0.188572
0.187393
0.186178
0.184936
0.183674
0.182399
0.181117
0.179833
0.178552
0.17728
0.176019
0.174774
0.173547
0.172341
0.171159
0.170004
0.168877
0.167782
0.166721
0.165697
0.16471
0.163762
0.162854
0.161989
0.161168
0.160394
0.159667
0.158991
0.158368
0.157799
0.157287
0.156834
0.156443
0.156114
0.155851
0.155654
0.155526
0.155468
0.155482
0.155568
0.155729
0.155964
0.156276
0.156665
0.15713
0.157673
0.158294
0.158993
0.15977
0.160625
0.161557
0.162566
0.163651
0.164812
0.166048
0.167358
0.168741
0.170196
0.171722
0.173318
0.174983
0.176715
0.178513
0.180376
0.182302
0.184291
0.186341
0.188451
0.19062
0.192845
0.195128
0.197466
0.199858
0.202304
0.204802
0.207353
0.209955
0.212608
0.215311
0.218064
0.220867
0.223719
0.226621
0.229572
0.232573
0.235623
0.238723
0.241872
0.245071
0.248321
0.251619
0.254968
0.258366
0.261813
0.265308
0.268851
0.272439
0.276071
0.279744
0.283456
0.287203
0.290979
0.294781
0.298601
0.302432
0.306264
0.310089
0.313894
0.317666
0.321391
0.325052
0.328631
0.332108
0.335461
0.338666
0.341698
0.344528
0.347129
0.349468
0.351515
0.353235
0.354595
0.35556
0.356097
0.356171
0.355751
0.354798
0.35328
0.351167
0.348432
0.345052
0.341006
0.336278
0.330856
0.324733
0.317905
0.310373
0.302143
0.293225
0.283631
0.273378
0.262484
0.250971
0.238861
0.226173
0.212929
0.199144
0.184826
0.169972
0.15455
0.138475
0.121559
0.103354
0.0827035
0.0559562
0.0136107
0.00613032
0.0300975
0.0463538
0.0590662
0.0703011
0.0806072
0.0902384
0.0993003
0.107849
0.115913
0.123513
0.130663
0.137373
0.143653
0.149514
0.154965
0.160017
0.164681
0.168967
0.172886
0.17645
0.179672
0.182562
0.185134
0.187402
0.189378
0.191078
0.192514
0.193696
0.194636
0.195347
0.195842
0.196133
0.196235
0.19616
0.195922
0.195534
0.19501
0.194363
0.193604
0.192748
0.191805
0.190788
0.189707
0.188571
0.187392
0.186177
0.184935
0.183673
0.182398
0.181115
0.179832
0.178551
0.177279
0.176018
0.174773
0.173546
0.17234
0.171158
0.170003
0.168876
0.167781
0.16672
0.165695
0.164709
0.163761
0.162853
0.161988
0.161167
0.160393
0.159666
0.15899
0.158367
0.157798
0.157286
0.156833
0.156442
0.156113
0.15585
0.155653
0.155525
0.155467
0.155481
0.155567
0.155728
0.155964
0.156276
0.156664
0.15713
0.157673
0.158294
0.158993
0.15977
0.160624
0.161556
0.162565
0.163651
0.164812
0.166048
0.167358
0.168741
0.170196
0.171722
0.173318
0.174983
0.176715
0.178513
0.180376
0.182302
0.184291
0.186341
0.188451
0.190619
0.192845
0.195128
0.197465
0.199858
0.202304
0.204802
0.207353
0.209955
0.212607
0.215311
0.218064
0.220867
0.223719
0.226621
0.229572
0.232573
0.235623
0.238723
0.241872
0.245071
0.248321
0.251619
0.254968
0.258366
0.261813
0.265308
0.268851
0.272439
0.276071
0.279744
0.283456
0.287203
0.29098
0.294781
0.298601
0.302432
0.306265
0.310089
0.313894
0.317667
0.321392
0.325053
0.328632
0.332109
0.335462
0.338667
0.341698
0.344529
0.347129
0.349469
0.351515
0.353235
0.354595
0.355561
0.356097
0.356172
0.355752
0.354799
0.35328
0.351168
0.348433
0.345052
0.341006
0.336279
0.330857
0.324734
0.317906
0.310374
0.302144
0.293226
0.283632
0.273379
0.262485
0.250972
0.238861
0.226174
0.21293
0.199144
0.184827
0.169973
0.15455
0.138475
0.121559
0.103354
0.0827035
0.0559561
0.0136106
0.00821007
0.0374932
0.0561084
0.0702677
0.0825978
0.0938848
0.104429
0.114358
0.123735
0.13259
0.140943
0.148805
0.156188
0.1631
0.169554
0.17556
0.18113
0.186277
0.191013
0.195354
0.199311
0.202899
0.206131
0.209021
0.211584
0.213833
0.215783
0.217444
0.218829
0.219948
0.220814
0.221439
0.221836
0.222017
0.221996
0.221786
0.221401
0.220855
0.220161
0.219335
0.218388
0.217336
0.21619
0.214964
0.21367
0.212318
0.210921
0.209487
0.208026
0.206547
0.205057
0.203564
0.202073
0.200591
0.199122
0.197671
0.196241
0.194837
0.193462
0.19212
0.190812
0.189542
0.188313
0.187127
0.185985
0.18489
0.183843
0.182845
0.181899
0.181007
0.18017
0.179392
0.178675
0.17802
0.17743
0.176907
0.176454
0.176073
0.175766
0.175534
0.175379
0.175304
0.17531
0.175398
0.175569
0.175825
0.176167
0.176595
0.17711
0.177712
0.178403
0.17918
0.180046
0.180999
0.18204
0.183167
0.18438
0.185678
0.187061
0.188527
0.190075
0.191704
0.193414
0.195201
0.197066
0.199007
0.201022
0.203111
0.20527
0.2075
0.209798
0.212163
0.214595
0.21709
0.219649
0.22227
0.224953
0.227695
0.230496
0.233355
0.236271
0.239245
0.242274
0.245359
0.2485
0.251696
0.254946
0.258252
0.261612
0.265027
0.268496
0.272021
0.275601
0.279235
0.282925
0.286669
0.290467
0.294319
0.298223
0.302179
0.306185
0.310238
0.314337
0.318476
0.322653
0.326862
0.331096
0.33535
0.339614
0.343878
0.348132
0.352362
0.356555
0.360693
0.364759
0.368733
0.372593
0.376315
0.379873
0.38324
0.386384
0.389276
0.391881
0.394166
0.396094
0.397631
0.398738
0.39938
0.399521
0.399124
0.398152
0.396572
0.394353
0.391467
0.387889
0.383598
0.378576
0.37281
0.36629
0.359011
0.35097
0.34217
0.332615
0.322314
0.311277
0.299515
0.287043
0.273875
0.260026
0.245511
0.230342
0.21453
0.198072
0.180943
0.163063
0.14423
0.123939
0.10082
0.0702829
0.018912
0.00820979
0.0374931
0.0561081
0.0702675
0.0825977
0.0938847
0.104428
0.114358
0.123735
0.13259
0.140943
0.148805
0.156188
0.1631
0.169554
0.17556
0.18113
0.186277
0.191013
0.195353
0.199311
0.202898
0.206131
0.209021
0.211584
0.213832
0.215782
0.217444
0.218828
0.219948
0.220814
0.221439
0.221835
0.222016
0.221995
0.221785
0.2214
0.220854
0.220161
0.219334
0.218387
0.217335
0.216189
0.214963
0.213669
0.212317
0.21092
0.209486
0.208025
0.206546
0.205056
0.203563
0.202072
0.20059
0.199121
0.197669
0.19624
0.194836
0.193461
0.192118
0.190811
0.189541
0.188312
0.187126
0.185984
0.184889
0.183842
0.182844
0.181898
0.181006
0.180169
0.179391
0.178674
0.178019
0.177429
0.176907
0.176454
0.176072
0.175765
0.175533
0.175379
0.175303
0.175309
0.175397
0.175568
0.175825
0.176166
0.176594
0.177109
0.177712
0.178402
0.17918
0.180046
0.180999
0.182039
0.183166
0.184379
0.185678
0.18706
0.188526
0.190075
0.191704
0.193413
0.195201
0.197066
0.199007
0.201022
0.20311
0.20527
0.2075
0.209798
0.212163
0.214595
0.21709
0.219649
0.22227
0.224953
0.227695
0.230496
0.233355
0.236271
0.239245
0.242274
0.245359
0.2485
0.251696
0.254946
0.258252
0.261612
0.265027
0.268497
0.272021
0.275601
0.279236
0.282925
0.286669
0.290467
0.294319
0.298223
0.302179
0.306185
0.310239
0.314337
0.318476
0.322653
0.326862
0.331097
0.33535
0.339614
0.343878
0.348132
0.352363
0.356555
0.360693
0.36476
0.368734
0.372594
0.376316
0.379874
0.38324
0.386385
0.389276
0.391881
0.394166
0.396095
0.397631
0.398738
0.39938
0.399521
0.399125
0.398153
0.396573
0.394354
0.391468
0.38789
0.383599
0.378577
0.372811
0.366291
0.359011
0.350971
0.342171
0.332616
0.322315
0.311277
0.299516
0.287044
0.273875
0.260026
0.245511
0.230343
0.21453
0.198072
0.180943
0.163063
0.14423
0.123939
0.10082
0.0702828
0.018912
0.0103064
0.0444305
0.0652236
0.0807628
0.0941436
0.106331
0.11769
0.128376
0.138465
0.147991
0.156975
0.16543
0.173367
0.180797
0.187732
0.194186
0.200173
0.205709
0.210809
0.21549
0.219768
0.223659
0.227178
0.230341
0.233163
0.235657
0.237838
0.239715
0.241301
0.242606
0.24364
0.244414
0.24494
0.245229
0.245294
0.245148
0.244804
0.244275
0.243576
0.242721
0.241724
0.2406
0.239364
0.238029
0.236609
0.235117
0.233566
0.231968
0.230333
0.228673
0.226996
0.225311
0.223627
0.221949
0.220285
0.218639
0.217018
0.215425
0.213865
0.212341
0.210857
0.209417
0.208022
0.206677
0.205382
0.204139
0.202951
0.201818
0.200744
0.19973
0.198779
0.197893
0.197074
0.196324
0.195646
0.195043
0.194516
0.194068
0.1937
0.193416
0.193217
0.193104
0.19308
0.193147
0.193304
0.193554
0.193898
0.194336
0.194869
0.195498
0.196223
0.197043
0.19796
0.198973
0.20008
0.201283
0.20258
0.20397
0.205452
0.207026
0.20869
0.210442
0.212282
0.214208
0.216219
0.218313
0.220488
0.222742
0.225075
0.227485
0.22997
0.232529
0.235159
0.23786
0.240631
0.243469
0.246375
0.249346
0.252381
0.25548
0.258642
0.261866
0.265151
0.268498
0.271904
0.275371
0.278898
0.282484
0.28613
0.289836
0.293602
0.297427
0.301311
0.305255
0.309259
0.313321
0.317442
0.32162
0.325855
0.330145
0.334489
0.338883
0.343325
0.347811
0.352335
0.356894
0.361478
0.366082
0.370696
0.375308
0.379908
0.384481
0.389011
0.393481
0.397872
0.402162
0.406329
0.410346
0.414186
0.41782
0.421216
0.424342
0.427163
0.429643
0.431746
0.433433
0.434668
0.435413
0.435631
0.435283
0.434334
0.43275
0.430501
0.427559
0.423899
0.419498
0.414339
0.408406
0.401689
0.394177
0.385865
0.376751
0.366833
0.356112
0.344589
0.332267
0.319151
0.305245
0.290556
0.27509
0.258856
0.241858
0.224094
0.205537
0.186103
0.165564
0.143339
0.117843
0.0837607
0.0243537
0.0103062
0.0444302
0.0652233
0.0807626
0.0941435
0.106331
0.11769
0.128376
0.138465
0.147991
0.156975
0.16543
0.173367
0.180797
0.187732
0.194186
0.200173
0.205708
0.210809
0.21549
0.219768
0.223658
0.227178
0.230341
0.233163
0.235657
0.237837
0.239715
0.241301
0.242605
0.243639
0.244413
0.244939
0.245228
0.245294
0.245147
0.244803
0.244274
0.243575
0.24272
0.241723
0.2406
0.239363
0.238028
0.236608
0.235116
0.233565
0.231967
0.230332
0.228672
0.226995
0.22531
0.223626
0.221948
0.220284
0.218638
0.217017
0.215424
0.213864
0.21234
0.210856
0.209416
0.208021
0.206676
0.205381
0.204138
0.20295
0.201817
0.200743
0.19973
0.198778
0.197892
0.197073
0.196323
0.195645
0.195042
0.194515
0.194067
0.1937
0.193416
0.193216
0.193104
0.19308
0.193146
0.193304
0.193554
0.193897
0.194335
0.194869
0.195497
0.196222
0.197043
0.19796
0.198972
0.20008
0.201283
0.20258
0.20397
0.205452
0.207026
0.20869
0.210442
0.212282
0.214208
0.216219
0.218312
0.220487
0.222742
0.225075
0.227485
0.22997
0.232528
0.235159
0.23786
0.240631
0.243469
0.246375
0.249346
0.252381
0.25548
0.258642
0.261866
0.265151
0.268498
0.271904
0.275371
0.278898
0.282484
0.28613
0.289836
0.293602
0.297427
0.301311
0.305255
0.309259
0.313321
0.317442
0.32162
0.325855
0.330146
0.334489
0.338883
0.343325
0.347811
0.352336
0.356894
0.361479
0.366083
0.370696
0.375309
0.379908
0.384481
0.389011
0.393481
0.397872
0.402163
0.406329
0.410346
0.414186
0.41782
0.421217
0.424343
0.427163
0.429644
0.431746
0.433434
0.434669
0.435413
0.435631
0.435283
0.434334
0.432751
0.430502
0.42756
0.4239
0.419499
0.41434
0.408407
0.401689
0.394177
0.385866
0.376752
0.366834
0.356112
0.344589
0.332268
0.319152
0.305246
0.290556
0.275091
0.258856
0.241858
0.224094
0.205538
0.186103
0.165564
0.143339
0.117843
0.0837606
0.0243537
0.0124616
0.0510787
0.0740256
0.0909196
0.10534
0.118401
0.13053
0.141918
0.152653
0.162778
0.172317
0.181287
0.189701
0.197571
0.204913
0.211743
0.218079
0.223939
0.229344
0.234312
0.238863
0.243016
0.246788
0.250196
0.253255
0.25598
0.258385
0.260478
0.262271
0.263773
0.264991
0.265937
0.266618
0.267046
0.267231
0.267183
0.266917
0.266443
0.265777
0.264932
0.263923
0.262764
0.261473
0.260062
0.258549
0.256946
0.255269
0.253532
0.251746
0.249925
0.248079
0.246219
0.244354
0.242492
0.240642
0.23881
0.237002
0.235225
0.233482
0.231778
0.230117
0.228504
0.226941
0.225432
0.223978
0.222581
0.221243
0.219967
0.218754
0.217607
0.216528
0.215519
0.214583
0.213722
0.212938
0.212234
0.211613
0.211077
0.210627
0.210266
0.209997
0.20982
0.209738
0.209753
0.209866
0.210077
0.210389
0.210803
0.211318
0.211936
0.212657
0.213481
0.214407
0.215437
0.216569
0.217803
0.219137
0.220572
0.222107
0.223739
0.225468
0.227293
0.229212
0.231223
0.233325
0.235516
0.237796
0.240161
0.24261
0.245142
0.247755
0.250448
0.253218
0.256064
0.258986
0.26198
0.265047
0.268184
0.271392
0.274668
0.278011
0.281422
0.2849
0.288443
0.292051
0.295724
0.299462
0.303264
0.307131
0.311062
0.315057
0.319116
0.323239
0.327425
0.331676
0.335989
0.340365
0.344802
0.349299
0.353855
0.358467
0.363133
0.367849
0.372611
0.377413
0.38225
0.387115
0.391998
0.396891
0.401781
0.406655
0.4115
0.416299
0.421032
0.425681
0.430222
0.434631
0.438882
0.442947
0.446794
0.450392
0.453708
0.456705
0.459348
0.4616
0.463422
0.464778
0.465629
0.465939
0.465669
0.464786
0.463256
0.46105
0.458142
0.454505
0.450118
0.444963
0.439022
0.432281
0.424728
0.416352
0.407144
0.397094
0.386195
0.374437
0.361812
0.348312
0.33393
0.31866
0.302499
0.285445
0.267498
0.248648
0.228861
0.208039
0.185921
0.16185
0.13404
0.0965607
0.0297688
0.0124615
0.0510784
0.0740254
0.0909194
0.10534
0.118401
0.13053
0.141918
0.152653
0.162778
0.172317
0.181287
0.189701
0.197571
0.204913
0.211743
0.218079
0.223939
0.229344
0.234312
0.238863
0.243015
0.246787
0.250195
0.253255
0.25598
0.258384
0.260478
0.262271
0.263772
0.264991
0.265936
0.266618
0.267045
0.26723
0.267183
0.266916
0.266443
0.265776
0.264931
0.263922
0.262764
0.261472
0.260061
0.258548
0.256945
0.255268
0.253531
0.251745
0.249924
0.248078
0.246218
0.244353
0.242491
0.240641
0.238809
0.237002
0.235224
0.233481
0.231777
0.230117
0.228503
0.22694
0.225431
0.223977
0.22258
0.221242
0.219966
0.218753
0.217606
0.216527
0.215518
0.214582
0.213721
0.212937
0.212234
0.211613
0.211076
0.210626
0.210266
0.209996
0.20982
0.209738
0.209752
0.209865
0.210077
0.210389
0.210803
0.211318
0.211936
0.212657
0.21348
0.214407
0.215437
0.216569
0.217802
0.219137
0.220572
0.222106
0.223739
0.225468
0.227293
0.229211
0.231223
0.233325
0.235516
0.237796
0.240161
0.24261
0.245142
0.247755
0.250448
0.253218
0.256064
0.258986
0.26198
0.265047
0.268184
0.271392
0.274668
0.278011
0.281422
0.2849
0.288443
0.292051
0.295724
0.299462
0.303264
0.307131
0.311062
0.315057
0.319116
0.323239
0.327426
0.331676
0.335989
0.340365
0.344802
0.349299
0.353855
0.358468
0.363133
0.367849
0.372611
0.377414
0.382251
0.387115
0.391999
0.396891
0.401781
0.406656
0.411501
0.416299
0.421033
0.425681
0.430222
0.434632
0.438883
0.442947
0.446794
0.450393
0.453708
0.456706
0.459349
0.4616
0.463423
0.464778
0.465629
0.465939
0.46567
0.464786
0.463256
0.461051
0.458142
0.454505
0.450119
0.444963
0.439022
0.432281
0.424728
0.416353
0.407144
0.397095
0.386195
0.374437
0.361812
0.348312
0.33393
0.31866
0.302499
0.285446
0.267498
0.248648
0.228862
0.208039
0.185921
0.16185
0.134039
0.0965606
0.0297688
0.0146789
0.0576193
0.0826731
0.100935
0.116401
0.130328
0.143209
0.155268
0.166609
0.177288
0.187334
0.196768
0.205606
0.213865
0.221563
0.228721
0.235359
0.241502
0.247172
0.252393
0.257187
0.261576
0.265581
0.269219
0.272506
0.275458
0.278088
0.280404
0.282415
0.284129
0.285552
0.286692
0.287556
0.288152
0.288488
0.288573
0.288419
0.288037
0.287439
0.28664
0.285654
0.284496
0.283182
0.281728
0.28015
0.278465
0.276688
0.274835
0.272919
0.270956
0.268957
0.266936
0.264902
0.262866
0.260838
0.258824
0.256833
0.254872
0.252945
0.251059
0.249218
0.247426
0.245687
0.244005
0.242381
0.240818
0.239317
0.237882
0.236515
0.235217
0.233991
0.232839
0.231765
0.23077
0.229857
0.229028
0.228286
0.227633
0.227072
0.226605
0.226234
0.225961
0.225788
0.225716
0.225748
0.225885
0.226127
0.226477
0.226934
0.227499
0.228174
0.228957
0.229849
0.23085
0.23196
0.233177
0.234502
0.235933
0.237469
0.239109
0.240853
0.242697
0.244641
0.246684
0.248824
0.251058
0.253386
0.255806
0.258315
0.260912
0.263596
0.266364
0.269215
0.272148
0.275161
0.278252
0.28142
0.284664
0.287983
0.291376
0.294841
0.298378
0.301986
0.305665
0.309414
0.313233
0.31712
0.321077
0.325103
0.329197
0.33336
0.337591
0.341891
0.346258
0.350694
0.355196
0.359764
0.364397
0.369094
0.373853
0.378671
0.383545
0.388471
0.393446
0.398462
0.403514
0.408594
0.413693
0.418801
0.423905
0.428992
0.434047
0.439052
0.443988
0.448835
0.45357
0.458167
0.462599
0.466837
0.470852
0.47461
0.478078
0.48122
0.484001
0.486384
0.488331
0.489806
0.490772
0.491194
0.491034
0.49026
0.488841
0.48675
0.48396
0.480448
0.47619
0.471168
0.465363
0.458758
0.451336
0.44308
0.433973
0.423997
0.413132
0.401358
0.388652
0.374993
0.360359
0.34473
0.328091
0.310427
0.291727
0.271971
0.251113
0.229032
0.205436
0.179588
0.149515
0.108715
0.0351182
0.0146788
0.057619
0.0826729
0.100935
0.116401
0.130328
0.143209
0.155268
0.166609
0.177288
0.187334
0.196768
0.205606
0.213865
0.221563
0.22872
0.235359
0.241501
0.247171
0.252392
0.257187
0.261576
0.26558
0.269218
0.272506
0.275458
0.278087
0.280403
0.282415
0.284128
0.285552
0.286692
0.287555
0.288151
0.288487
0.288572
0.288418
0.288036
0.287439
0.286639
0.285653
0.284495
0.283181
0.281727
0.280149
0.278464
0.276687
0.274834
0.272919
0.270955
0.268957
0.266935
0.264901
0.262865
0.260837
0.258823
0.256832
0.254871
0.252944
0.251058
0.249217
0.247425
0.245686
0.244004
0.24238
0.240817
0.239317
0.237881
0.236514
0.235216
0.23399
0.232839
0.231764
0.230769
0.229856
0.229027
0.228286
0.227633
0.227072
0.226605
0.226233
0.22596
0.225787
0.225716
0.225748
0.225884
0.226127
0.226476
0.226934
0.227499
0.228173
0.228957
0.229849
0.23085
0.23196
0.233177
0.234502
0.235933
0.237469
0.239109
0.240852
0.242697
0.244641
0.246684
0.248824
0.251058
0.253386
0.255805
0.258315
0.260912
0.263596
0.266364
0.269215
0.272148
0.275161
0.278252
0.28142
0.284664
0.287983
0.291376
0.294841
0.298378
0.301986
0.305665
0.309414
0.313233
0.31712
0.321077
0.325103
0.329197
0.33336
0.337591
0.341891
0.346258
0.350694
0.355196
0.359764
0.364397
0.369094
0.373853
0.378671
0.383545
0.388471
0.393446
0.398462
0.403514
0.408595
0.413694
0.418801
0.423905
0.428992
0.434047
0.439052
0.443989
0.448836
0.45357
0.458167
0.462599
0.466838
0.470852
0.474611
0.478078
0.481221
0.484002
0.486384
0.488332
0.489807
0.490773
0.491194
0.491034
0.49026
0.488842
0.486751
0.483961
0.480448
0.476191
0.471169
0.465364
0.458759
0.451337
0.443081
0.433974
0.423998
0.413133
0.401358
0.388653
0.374993
0.360359
0.34473
0.328091
0.310427
0.291727
0.271971
0.251113
0.229032
0.205436
0.179588
0.149515
0.108715
0.0351182
0.0169938
0.0641915
0.0913063
0.110941
0.12746
0.142254
0.15588
0.168594
0.18052
0.191725
0.202247
0.212112
0.221341
0.229955
0.237978
0.245433
0.252347
0.258748
0.264662
0.270118
0.275141
0.279756
0.283986
0.287851