/*--------------------------------*- C++ -*----------------------------------*\
  =========                 |
  \\      /  F ield         | OpenFOAM: The Open Source CFD Toolbox
   \\    /   O peration     | Website:  https://openfoam.org
    \\  /    A nd           | Version:  8
     \\/     M anipulation  |
\*---------------------------------------------------------------------------*/
FoamFile
{
    version     2.0;
    format      ascii;
    class       volScalarField;
    location    "1400";
    object      nut;
}
// * * * * * * * * * * * * * * * * * * * * * * * * * * * * * * * * * * * * * //

dimensions      [0 2 -1 0 0 0 0];

internalField   nonuniform List<scalar> 
46000
(
2.7109e-08
1.37796e-07
2.96431e-07
4.64929e-07
6.35681e-07
8.0772e-07
9.8197e-07
1.15244e-06
1.31809e-06
1.47754e-06
1.63017e-06
1.77625e-06
1.91369e-06
2.04309e-06
2.16432e-06
2.27726e-06
2.38187e-06
2.47818e-06
2.56627e-06
2.64627e-06
2.71836e-06
2.78278e-06
2.83975e-06
2.88955e-06
2.93323e-06
2.97334e-06
3.00764e-06
3.03615e-06
3.05918e-06
3.07708e-06
3.0902e-06
3.09888e-06
3.10347e-06
3.10431e-06
3.10172e-06
3.09603e-06
3.08754e-06
3.07654e-06
3.06333e-06
3.04815e-06
3.03117e-06
3.0128e-06
2.99317e-06
2.97246e-06
2.95082e-06
2.92845e-06
2.90551e-06
2.88214e-06
2.85844e-06
2.83453e-06
2.81052e-06
2.78647e-06
2.76247e-06
2.73858e-06
2.71488e-06
2.6914e-06
2.66821e-06
2.64534e-06
2.62284e-06
2.60074e-06
2.57909e-06
2.55798e-06
2.53819e-06
2.51925e-06
2.50091e-06
2.48319e-06
2.46613e-06
2.44978e-06
2.43418e-06
2.41939e-06
2.40544e-06
2.3924e-06
2.3803e-06
2.3692e-06
2.35914e-06
2.35017e-06
2.34233e-06
2.33566e-06
2.33021e-06
2.326e-06
2.32309e-06
2.3215e-06
2.32125e-06
2.32239e-06
2.32493e-06
2.3289e-06
2.33433e-06
2.34122e-06
2.3496e-06
2.35948e-06
2.37086e-06
2.38377e-06
2.39821e-06
2.41417e-06
2.43162e-06
2.45058e-06
2.47106e-06
2.49306e-06
2.51658e-06
2.5416e-06
2.56813e-06
2.59615e-06
2.62565e-06
2.65663e-06
2.68907e-06
2.72297e-06
2.75831e-06
2.79508e-06
2.83328e-06
2.87289e-06
2.91391e-06
2.95631e-06
3.00011e-06
3.04529e-06
3.09184e-06
3.13977e-06
3.18907e-06
3.23974e-06
3.29179e-06
3.34521e-06
3.40001e-06
3.45621e-06
3.5138e-06
3.57281e-06
3.63325e-06
3.69512e-06
3.75846e-06
3.82328e-06
3.88961e-06
3.95745e-06
4.02685e-06
4.09782e-06
4.17038e-06
4.24456e-06
4.32038e-06
4.39785e-06
4.47698e-06
4.55779e-06
4.64027e-06
4.72441e-06
4.8102e-06
4.8976e-06
4.98657e-06
5.07704e-06
5.16893e-06
5.26212e-06
5.35649e-06
5.45186e-06
5.54803e-06
5.64477e-06
5.7418e-06
5.83879e-06
5.93537e-06
6.03112e-06
6.12554e-06
6.21812e-06
6.30824e-06
6.39524e-06
6.47841e-06
6.55695e-06
6.63001e-06
6.6967e-06
6.75606e-06
6.80708e-06
6.84874e-06
6.87997e-06
6.89971e-06
6.90689e-06
6.90062e-06
6.88114e-06
6.8486e-06
6.80027e-06
6.73499e-06
6.65203e-06
6.55088e-06
6.4312e-06
6.29281e-06
6.13573e-06
5.96019e-06
5.76661e-06
5.55566e-06
5.32822e-06
5.08539e-06
4.82849e-06
4.55903e-06
4.27869e-06
3.9893e-06
3.69279e-06
3.39113e-06
3.08628e-06
2.78006e-06
2.47326e-06
2.16516e-06
1.8623e-06
1.5589e-06
1.25345e-06
9.48488e-07
6.38127e-07
3.15707e-07
6.31303e-08
2.71065e-08
1.3779e-07
2.9644e-07
4.64945e-07
6.35689e-07
8.07727e-07
9.81954e-07
1.15241e-06
1.31804e-06
1.47747e-06
1.63009e-06
1.77616e-06
1.91359e-06
2.04298e-06
2.16421e-06
2.27715e-06
2.38177e-06
2.47808e-06
2.56616e-06
2.64616e-06
2.71825e-06
2.78266e-06
2.83962e-06
2.88942e-06
2.93316e-06
2.97327e-06
3.00758e-06
3.0361e-06
3.05915e-06
3.07707e-06
3.0902e-06
3.0989e-06
3.10351e-06
3.10435e-06
3.10176e-06
3.09604e-06
3.08751e-06
3.07646e-06
3.06318e-06
3.04793e-06
3.03089e-06
3.01248e-06
2.99283e-06
2.97211e-06
2.95048e-06
2.92813e-06
2.90521e-06
2.88186e-06
2.85819e-06
2.8343e-06
2.81031e-06
2.78628e-06
2.7623e-06
2.73843e-06
2.71474e-06
2.69128e-06
2.66809e-06
2.64523e-06
2.62273e-06
2.60064e-06
2.57899e-06
2.55788e-06
2.53796e-06
2.51902e-06
2.50068e-06
2.48297e-06
2.46591e-06
2.44956e-06
2.43397e-06
2.41918e-06
2.40523e-06
2.39219e-06
2.3801e-06
2.369e-06
2.35893e-06
2.34996e-06
2.34211e-06
2.33543e-06
2.32996e-06
2.32573e-06
2.32279e-06
2.32117e-06
2.32089e-06
2.32197e-06
2.32446e-06
2.32837e-06
2.33372e-06
2.34053e-06
2.34882e-06
2.35861e-06
2.36991e-06
2.38274e-06
2.39714e-06
2.41311e-06
2.43059e-06
2.44962e-06
2.47017e-06
2.49224e-06
2.51582e-06
2.54091e-06
2.56749e-06
2.59556e-06
2.6251e-06
2.65612e-06
2.68859e-06
2.72251e-06
2.75787e-06
2.79466e-06
2.83287e-06
2.8725e-06
2.91352e-06
2.95594e-06
2.99975e-06
3.04494e-06
3.0915e-06
3.13944e-06
3.18875e-06
3.23944e-06
3.29149e-06
3.34492e-06
3.39974e-06
3.45594e-06
3.51354e-06
3.57256e-06
3.633e-06
3.69489e-06
3.75824e-06
3.82306e-06
3.88939e-06
3.95725e-06
4.02666e-06
4.09764e-06
4.17022e-06
4.24441e-06
4.32024e-06
4.39772e-06
4.47686e-06
4.55768e-06
4.64017e-06
4.72432e-06
4.81011e-06
4.89752e-06
4.9865e-06
5.07697e-06
5.16887e-06
5.26206e-06
5.35643e-06
5.4518e-06
5.54798e-06
5.64472e-06
5.74176e-06
5.83875e-06
5.93534e-06
6.03109e-06
6.12553e-06
6.21812e-06
6.30824e-06
6.39526e-06
6.47843e-06
6.55697e-06
6.63004e-06
6.69673e-06
6.7561e-06
6.80713e-06
6.8488e-06
6.88004e-06
6.89978e-06
6.90697e-06
6.90071e-06
6.88119e-06
6.84864e-06
6.80032e-06
6.73503e-06
6.65207e-06
6.55093e-06
6.43124e-06
6.29285e-06
6.13577e-06
5.96023e-06
5.76665e-06
5.5557e-06
5.32827e-06
5.08545e-06
4.82855e-06
4.5591e-06
4.27877e-06
3.98938e-06
3.69287e-06
3.39121e-06
3.08636e-06
2.78013e-06
2.47332e-06
2.16521e-06
1.86233e-06
1.55892e-06
1.25346e-06
9.48491e-07
6.38127e-07
3.15706e-07
6.31297e-08
1.28542e-07
6.52865e-06
1.47255e-05
2.08141e-05
2.5725e-05
2.9915e-05
3.34306e-05
3.65112e-05
3.92656e-05
4.17451e-05
4.3987e-05
4.60194e-05
4.78689e-05
4.9549e-05
5.10723e-05
5.24505e-05
5.36945e-05
5.48141e-05
5.58182e-05
5.67153e-05
5.75133e-05
5.82189e-05
5.88381e-05
5.93733e-05
5.98159e-05
6.01679e-05
6.0453e-05
6.06829e-05
6.08647e-05
6.1004e-05
6.11053e-05
6.11726e-05
6.12092e-05
6.12183e-05
6.12027e-05
6.11647e-05
6.11066e-05
6.10303e-05
6.09378e-05
6.08308e-05
6.07111e-05
6.05798e-05
6.04378e-05
6.02859e-05
6.01254e-05
5.99569e-05
5.97815e-05
5.96e-05
5.94131e-05
5.92216e-05
5.90262e-05
5.88276e-05
5.86263e-05
5.8423e-05
5.82182e-05
5.80123e-05
5.7806e-05
5.75996e-05
5.73935e-05
5.71881e-05
5.69828e-05
5.67757e-05
5.656e-05
5.63459e-05
5.61357e-05
5.59305e-05
5.57312e-05
5.55383e-05
5.53526e-05
5.51747e-05
5.50051e-05
5.48444e-05
5.46933e-05
5.45521e-05
5.44215e-05
5.43021e-05
5.41943e-05
5.40986e-05
5.40155e-05
5.39454e-05
5.38886e-05
5.38456e-05
5.38167e-05
5.38021e-05
5.38019e-05
5.38165e-05
5.38459e-05
5.38903e-05
5.39497e-05
5.40242e-05
5.41137e-05
5.42181e-05
5.43372e-05
5.44712e-05
5.46198e-05
5.47827e-05
5.49599e-05
5.5151e-05
5.53557e-05
5.55739e-05
5.58051e-05
5.60492e-05
5.63057e-05
5.65743e-05
5.68548e-05
5.71467e-05
5.74499e-05
5.7764e-05
5.80886e-05
5.84235e-05
5.87684e-05
5.9123e-05
5.9487e-05
5.98602e-05
6.02425e-05
6.06335e-05
6.10332e-05
6.14412e-05
6.18575e-05
6.22819e-05
6.27143e-05
6.31546e-05
6.36028e-05
6.40588e-05
6.45226e-05
6.4994e-05
6.54731e-05
6.59599e-05
6.64544e-05
6.69564e-05
6.74662e-05
6.79835e-05
6.85085e-05
6.9041e-05
6.95809e-05
7.01282e-05
7.06827e-05
7.12442e-05
7.18124e-05
7.2387e-05
7.29678e-05
7.35541e-05
7.41453e-05
7.47409e-05
7.53399e-05
7.59414e-05
7.65442e-05
7.71471e-05
7.77485e-05
7.83469e-05
7.89403e-05
7.95267e-05
8.01037e-05
8.06686e-05
8.12187e-05
8.1751e-05
8.22619e-05
8.27479e-05
8.32052e-05
8.36296e-05
8.40166e-05
8.43618e-05
8.46602e-05
8.4907e-05
8.50968e-05
8.52244e-05
8.52842e-05
8.52706e-05
8.51768e-05
8.49938e-05
8.47009e-05
8.43008e-05
8.37924e-05
8.31727e-05
8.24385e-05
8.15864e-05
8.06134e-05
7.95169e-05
7.8295e-05
7.6946e-05
7.54691e-05
7.38637e-05
7.21299e-05
7.0268e-05
6.82786e-05
6.61623e-05
6.39195e-05
6.15499e-05
5.90518e-05
5.64215e-05
5.36516e-05
5.07302e-05
4.7634e-05
4.42719e-05
4.05046e-05
3.60527e-05
3.02193e-05
2.22203e-05
1.05747e-05
2.76536e-07
1.28545e-07
6.5288e-06
1.4726e-05
2.08145e-05
2.57251e-05
2.99146e-05
3.34301e-05
3.65106e-05
3.92649e-05
4.17444e-05
4.39864e-05
4.60187e-05
4.78683e-05
4.95483e-05
5.10716e-05
5.24499e-05
5.36939e-05
5.48135e-05
5.58176e-05
5.67148e-05
5.75128e-05
5.82185e-05
5.88377e-05
5.93728e-05
5.98149e-05
6.0167e-05
6.04522e-05
6.06823e-05
6.08645e-05
6.10041e-05
6.11057e-05
6.11732e-05
6.121e-05
6.12191e-05
6.12032e-05
6.11648e-05
6.1106e-05
6.10289e-05
6.09354e-05
6.08273e-05
6.07068e-05
6.0575e-05
6.04327e-05
6.02808e-05
6.01204e-05
5.99522e-05
5.97772e-05
5.95961e-05
5.94096e-05
5.92185e-05
5.90235e-05
5.88253e-05
5.86244e-05
5.84214e-05
5.82168e-05
5.80112e-05
5.7805e-05
5.75987e-05
5.73928e-05
5.71874e-05
5.69822e-05
5.67754e-05
5.65607e-05
5.63469e-05
5.61366e-05
5.59314e-05
5.57321e-05
5.55392e-05
5.53534e-05
5.51754e-05
5.50058e-05
5.48451e-05
5.46938e-05
5.45526e-05
5.4422e-05
5.43025e-05
5.41946e-05
5.40989e-05
5.40157e-05
5.39455e-05
5.38887e-05
5.38456e-05
5.38166e-05
5.38019e-05
5.38018e-05
5.38162e-05
5.38456e-05
5.38899e-05
5.39493e-05
5.40237e-05
5.41131e-05
5.42174e-05
5.43364e-05
5.44703e-05
5.46188e-05
5.47817e-05
5.49589e-05
5.51499e-05
5.53547e-05
5.55728e-05
5.5804e-05
5.6048e-05
5.63045e-05
5.65731e-05
5.68536e-05
5.71455e-05
5.74487e-05
5.77628e-05
5.80874e-05
5.84223e-05
5.87671e-05
5.91217e-05
5.94857e-05
5.98589e-05
6.02412e-05
6.06322e-05
6.10319e-05
6.14399e-05
6.18562e-05
6.22806e-05
6.2713e-05
6.31533e-05
6.36015e-05
6.40575e-05
6.45213e-05
6.49927e-05
6.54718e-05
6.59586e-05
6.64531e-05
6.69551e-05
6.74649e-05
6.79823e-05
6.85072e-05
6.90397e-05
6.95797e-05
7.0127e-05
7.06814e-05
7.12429e-05
7.18111e-05
7.23858e-05
7.29666e-05
7.35529e-05
7.41442e-05
7.47398e-05
7.53388e-05
7.59402e-05
7.65431e-05
7.71459e-05
7.77474e-05
7.83457e-05
7.89392e-05
7.95255e-05
8.01025e-05
8.06674e-05
8.12175e-05
8.17498e-05
8.22607e-05
8.27468e-05
8.32041e-05
8.36284e-05
8.40155e-05
8.43606e-05
8.46591e-05
8.49058e-05
8.50957e-05
8.52233e-05
8.52832e-05
8.52695e-05
8.51758e-05
8.49931e-05
8.47003e-05
8.43003e-05
8.37918e-05
8.31722e-05
8.2438e-05
8.15859e-05
8.06129e-05
7.95165e-05
7.82946e-05
7.69457e-05
7.54688e-05
7.38635e-05
7.21298e-05
7.0268e-05
6.82787e-05
6.61625e-05
6.39197e-05
6.15502e-05
5.90522e-05
5.64219e-05
5.36521e-05
5.07306e-05
4.76343e-05
4.42719e-05
4.05045e-05
3.60525e-05
3.0219e-05
2.22201e-05
1.05747e-05
2.76536e-07
2.7566e-07
1.44484e-05
3.50673e-05
5.09387e-05
6.34814e-05
7.37949e-05
8.25174e-05
9.00683e-05
9.67164e-05
0.000102633
0.000107928
0.000112679
0.00011695
0.000120788
0.000124231
0.000127317
0.000130076
0.000132537
0.000134727
0.00013667
0.000138389
0.000139903
0.000141229
0.000142377
0.000143352
0.000144152
0.000144821
0.000145378
0.000145839
0.000146218
0.000146524
0.000146766
0.000146951
0.000147084
0.00014717
0.000147213
0.000147216
0.000147183
0.000147115
0.000147016
0.000146887
0.00014673
0.000146547
0.000146338
0.000146106
0.000145853
0.000145578
0.000145285
0.000144973
0.000144645
0.000144302
0.000143946
0.000143579
0.000143201
0.000142814
0.00014242
0.00014202
0.000141615
0.000141206
0.000140793
0.000140376
0.000139953
0.000139518
0.000139081
0.000138646
0.000138216
0.000137795
0.000137382
0.000136981
0.000136592
0.000136216
0.000135854
0.000135508
0.000135179
0.000134867
0.000134574
0.0001343
0.000134046
0.000133813
0.000133602
0.000133414
0.000133248
0.000133106
0.000132987
0.000132893
0.000132823
0.000132778
0.000132758
0.000132762
0.000132792
0.000132846
0.000132926
0.000133029
0.000133157
0.00013331
0.000133486
0.000133685
0.000133908
0.000134154
0.000134421
0.000134711
0.000135023
0.000135355
0.000135708
0.000136081
0.000136474
0.000136887
0.000137318
0.000137768
0.000138237
0.000138724
0.000139228
0.00013975
0.000140289
0.000140846
0.000141419
0.000142009
0.000142615
0.000143239
0.000143878
0.000144534
0.000145207
0.000145896
0.000146602
0.000147324
0.000148062
0.000148818
0.00014959
0.000150378
0.000151183
0.000152005
0.000152843
0.000153698
0.000154569
0.000155457
0.000156359
0.000157278
0.00015821
0.000159158
0.000160118
0.000161091
0.000162075
0.000163069
0.000164071
0.00016508
0.000166093
0.000167108
0.000168122
0.000169133
0.000170137
0.00017113
0.000172109
0.000173068
0.000174003
0.000174908
0.000175778
0.000176607
0.000177389
0.000178115
0.00017878
0.000179374
0.000179892
0.000180323
0.00018066
0.000180894
0.000181015
0.000181015
0.000180883
0.000180608
0.000180177
0.000179565
0.00017877
0.000177787
0.000176612
0.000175237
0.000173658
0.000171868
0.000169863
0.000167636
0.000165182
0.000162496
0.000159573
0.000156408
0.000152992
0.00014932
0.000145381
0.000141164
0.000136651
0.000131821
0.00012664
0.000121059
0.000115003
0.000108344
0.000100849
9.21221e-05
8.14323e-05
6.74641e-05
4.81143e-05
2.14463e-05
5.92174e-07
2.75671e-07
1.44482e-05
3.50668e-05
5.09377e-05
6.348e-05
7.37931e-05
8.25154e-05
9.00662e-05
9.67142e-05
0.00010263
0.000107926
0.000112677
0.000116948
0.000120786
0.000124229
0.000127315
0.000130074
0.000132535
0.000134725
0.000136669
0.000138388
0.000139902
0.000141227
0.000142376
0.00014335
0.000144151
0.000144819
0.000145376
0.000145838
0.000146217
0.000146524
0.000146766
0.00014695
0.000147083
0.000147169
0.000147212
0.000147215
0.000147182
0.000147114
0.000147014
0.000146885
0.000146728
0.000146544
0.000146336
0.000146105
0.000145851
0.000145577
0.000145283
0.000144972
0.000144644
0.000144302
0.000143946
0.000143579
0.000143201
0.000142814
0.000142421
0.000142021
0.000141616
0.000141207
0.000140794
0.000140377
0.000139953
0.000139519
0.000139082
0.000138647
0.000138217
0.000137795
0.000137383
0.000136981
0.000136592
0.000136216
0.000135854
0.000135508
0.000135179
0.000134867
0.000134573
0.000134299
0.000134045
0.000133812
0.000133601
0.000133412
0.000133246
0.000133104
0.000132985
0.000132891
0.000132821
0.000132775
0.000132755
0.000132759
0.000132789
0.000132843
0.000132922
0.000133025
0.000133153
0.000133306
0.000133482
0.000133681
0.000133904
0.000134149
0.000134417
0.000134707
0.000135018
0.000135351
0.000135704
0.000136077
0.00013647
0.000136882
0.000137314
0.000137764
0.000138233
0.000138719
0.000139224
0.000139746
0.000140285
0.000140841
0.000141415
0.000142005
0.000142611
0.000143234
0.000143874
0.00014453
0.000145203
0.000145892
0.000146598
0.00014732
0.000148059
0.000148814
0.000149586
0.000150374
0.00015118
0.000152001
0.00015284
0.000153695
0.000154566
0.000155453
0.000156356
0.000157274
0.000158207
0.000159154
0.000160115
0.000161088
0.000162072
0.000163066
0.000164068
0.000165077
0.00016609
0.000167105
0.000168119
0.00016913
0.000170134
0.000171127
0.000172106
0.000173065
0.000174
0.000174905
0.000175776
0.000176605
0.000177386
0.000178112
0.000178777
0.000179372
0.000179889
0.00018032
0.000180657
0.000180891
0.000181013
0.000181013
0.000180881
0.000180606
0.000180175
0.000179563
0.000178769
0.000177786
0.00017661
0.000175236
0.000173657
0.000171868
0.000169862
0.000167635
0.000165181
0.000162496
0.000159573
0.000156407
0.000152992
0.00014932
0.000145382
0.000141164
0.000136652
0.000131821
0.00012664
0.00012106
0.000115004
0.000108345
0.000100849
9.21223e-05
8.14324e-05
6.7464e-05
4.81143e-05
2.14465e-05
5.92173e-07
4.24788e-07
2.01334e-05
5.02412e-05
7.48611e-05
9.47312e-05
0.000111199
0.000125231
0.000137422
0.000148155
0.000157686
0.000166195
0.000173812
0.000180639
0.000186757
0.000192236
0.000197135
0.000201508
0.000205404
0.000208869
0.000211942
0.000214661
0.000217061
0.000219169
0.00022101
0.000222602
0.000223959
0.000225122
0.000226119
0.000226971
0.000227699
0.000228317
0.000228837
0.000229271
0.000229626
0.000229909
0.000230126
0.000230281
0.000230377
0.000230418
0.000230407
0.000230345
0.000230234
0.000230078
0.000229877
0.000229634
0.00022935
0.000229028
0.00022867
0.000228279
0.000227855
0.000227402
0.000226922
0.000226418
0.000225892
0.000225346
0.000224784
0.000224206
0.000223615
0.000223013
0.0002224
0.000221778
0.000221144
0.000220498
0.000219847
0.000219194
0.000218545
0.000217902
0.000217267
0.000216644
0.000216033
0.000215438
0.000214858
0.000214297
0.000213755
0.000213233
0.000212733
0.000212256
0.000211803
0.000211374
0.000210972
0.000210596
0.000210247
0.000209926
0.000209633
0.000209369
0.000209133
0.000208927
0.000208751
0.000208604
0.000208486
0.000208398
0.00020834
0.000208311
0.000208311
0.00020834
0.000208398
0.000208485
0.0002086
0.000208743
0.000208914
0.000209113
0.000209339
0.000209592
0.000209872
0.000210179
0.000210512
0.000210871
0.000211256
0.000211667
0.000212104
0.000212567
0.000213056
0.00021357
0.00021411
0.000214676
0.000215267
0.000215885
0.000216528
0.000217198
0.000217894
0.000218616
0.000219365
0.000220141
0.000220944
0.000221773
0.00022263
0.000223515
0.000224427
0.000225366
0.000226333
0.000227328
0.00022835
0.000229399
0.000230475
0.000231577
0.000232705
0.000233858
0.000235035
0.000236235
0.000237457
0.000238699
0.00023996
0.000241236
0.000242527
0.000243828
0.000245137
0.00024645
0.000247764
0.000249073
0.000250374
0.00025166
0.000252926
0.000254165
0.000255371
0.000256536
0.000257652
0.000258712
0.000259705
0.000260623
0.000261455
0.000262192
0.000262824
0.000263338
0.000263724
0.00026397
0.000264065
0.000263995
0.000263749
0.000263312
0.000262668
0.000261797
0.000260688
0.000259333
0.000257724
0.000255852
0.000253709
0.000251284
0.00024857
0.000245555
0.000242229
0.000238582
0.000234601
0.00023027
0.000225574
0.000220493
0.000215001
0.000209068
0.000202654
0.000195706
0.000188153
0.000179889
0.00017076
0.000160527
0.000148803
0.000134969
0.000118006
9.62929e-05
6.74215e-05
2.96057e-05
9.35151e-07
4.24783e-07
2.01331e-05
5.02401e-05
7.48591e-05
9.47286e-05
0.000111196
0.000125228
0.000137419
0.000148151
0.000157683
0.000166191
0.000173808
0.000180635
0.000186754
0.000192232
0.000197132
0.000201505
0.000205402
0.000208866
0.00021194
0.000214659
0.000217059
0.000219167
0.000221008
0.0002226
0.000223957
0.000225121
0.000226117
0.00022697
0.000227698
0.000228316
0.000228837
0.000229271
0.000229626
0.000229909
0.000230126
0.000230281
0.000230377
0.000230418
0.000230407
0.000230345
0.000230234
0.000230078
0.000229877
0.000229634
0.000229351
0.000229029
0.000228671
0.00022828
0.000227856
0.000227403
0.000226924
0.00022642
0.000225894
0.000225348
0.000224785
0.000224208
0.000223617
0.000223014
0.000222402
0.000221779
0.000221145
0.0002205
0.000219848
0.000219195
0.000218546
0.000217902
0.000217268
0.000216644
0.000216034
0.000215438
0.000214858
0.000214296
0.000213754
0.000213232
0.000212731
0.000212254
0.000211801
0.000211372
0.000210969
0.000210593
0.000210244
0.000209923
0.00020963
0.000209365
0.000209129
0.000208923
0.000208746
0.000208599
0.000208481
0.000208393
0.000208334
0.000208305
0.000208305
0.000208334
0.000208392
0.000208479
0.000208594
0.000208737
0.000208908
0.000209107
0.000209333
0.000209586
0.000209866
0.000210172
0.000210505
0.000210864
0.00021125
0.000211661
0.000212098
0.000212561
0.000213049
0.000213564
0.000214104
0.000214669
0.000215261
0.000215879
0.000216522
0.000217192
0.000217888
0.00021861
0.000219359
0.000220135
0.000220938
0.000221768
0.000222625
0.000223509
0.000224421
0.000225361
0.000226328
0.000227323
0.000228345
0.000229394
0.00023047
0.000231572
0.0002327
0.000233853
0.00023503
0.000236231
0.000237453
0.000238695
0.000239955
0.000241232
0.000242522
0.000243824
0.000245133
0.000246446
0.00024776
0.000249069
0.00025037
0.000251656
0.000252922
0.000254161
0.000255367
0.000256532
0.000257649
0.000258708
0.000259701
0.000260619
0.000261452
0.000262189
0.00026282
0.000263335
0.000263721
0.000263967
0.000264062
0.000263992
0.000263746
0.000263309
0.000262666
0.000261795
0.000260686
0.000259331
0.000257723
0.000255851
0.000253708
0.000251284
0.000248569
0.000245555
0.000242229
0.000238582
0.000234601
0.000230271
0.000225575
0.000220493
0.000215002
0.000209069
0.000202655
0.000195708
0.000188154
0.00017989
0.000170761
0.000160528
0.000148805
0.00013497
0.000118007
9.62934e-05
6.74218e-05
2.96061e-05
9.35151e-07
5.70895e-07
2.4522e-05
6.17068e-05
9.33976e-05
0.000119562
0.000141597
0.000160542
0.000177084
0.000191689
0.00020468
0.000216288
0.000226689
0.000236019
0.000244389
0.000251892
0.000258612
0.00026462
0.000269983
0.000274762
0.000279013
0.000282786
0.000286129
0.000289082
0.00029168
0.000293956
0.000295936
0.000297662
0.000299166
0.000300476
0.000301616
0.000302605
0.00030346
0.000304194
0.000304819
0.000305342
0.000305772
0.000306114
0.000306373
0.000306552
0.000306655
0.000306685
0.000306645
0.000306536
0.000306363
0.000306127
0.000305831
0.000305478
0.000305071
0.000304614
0.000304108
0.000303558
0.000302966
0.000302337
0.000301674
0.000300979
0.000300257
0.00029951
0.00029874
0.000297952
0.000297145
0.000296322
0.000295485
0.000294633
0.000293771
0.000292906
0.00029204
0.000291177
0.000290322
0.000289476
0.000288642
0.000287823
0.000287021
0.000286236
0.000285472
0.00028473
0.000284011
0.000283316
0.000282646
0.000282003
0.000281388
0.000280801
0.000280243
0.000279714
0.000279216
0.000278748
0.00027831
0.000277904
0.000277529
0.000277185
0.000276873
0.000276592
0.000276342
0.000276124
0.000275938
0.000275782
0.000275659
0.000275566
0.000275505
0.000275475
0.000275476
0.000275509
0.000275573
0.000275668
0.000275795
0.000275953
0.000276144
0.000276366
0.00027662
0.000276907
0.000277226
0.000277579
0.000277964
0.000278384
0.000278837
0.000279325
0.000279847
0.000280405
0.000280998
0.000281627
0.000282292
0.000282994
0.000283733
0.00028451
0.000285324
0.000286177
0.000287068
0.000287997
0.000288966
0.000289973
0.000291019
0.000292103
0.000293226
0.000294388
0.000295587
0.000296823
0.000298095
0.000299402
0.000300743
0.000302116
0.00030352
0.000304952
0.00030641
0.00030789
0.00030939
0.000310907
0.000312435
0.000313971
0.000315508
0.000317042
0.000318567
0.000320076
0.00032156
0.000323014
0.000324427
0.000325791
0.000327096
0.000328333
0.00032949
0.000330556
0.000331519
0.000332367
0.000333088
0.000333668
0.000334095
0.000334354
0.000334431
0.000334313
0.000333985
0.000333431
0.000332632
0.000331569
0.000330229
0.000328601
0.000326673
0.000324432
0.000321867
0.000318964
0.00031571
0.000312089
0.000308085
0.000303679
0.000298851
0.000293575
0.000287823
0.00028156
0.000274746
0.000267328
0.000259242
0.000250403
0.000240699
0.000229973
0.000217999
0.000204443
0.000188797
0.000170281
0.000147696
0.000119245
8.24831e-05
3.61409e-05
1.30156e-06
5.70863e-07
2.45216e-05
6.17054e-05
9.33952e-05
0.000119558
0.000141594
0.000160537
0.000177079
0.000191684
0.000204675
0.000216284
0.000226685
0.000236015
0.000244385
0.000251889
0.000258608
0.000264617
0.00026998
0.00027476
0.000279011
0.000282785
0.000286128
0.000289081
0.00029168
0.000293956
0.000295936
0.000297662
0.000299167
0.000300477
0.000301617
0.000302606
0.000303461
0.000304196
0.00030482
0.000305344
0.000305774
0.000306116
0.000306375
0.000306554
0.000306658
0.000306688
0.000306647
0.000306539
0.000306366
0.00030613
0.000305834
0.000305482
0.000305075
0.000304617
0.000304111
0.000303561
0.00030297
0.000302341
0.000301677
0.000300983
0.00030026
0.000299513
0.000298744
0.000297955
0.000297148
0.000296325
0.000295487
0.000294635
0.000293774
0.000292908
0.000292042
0.000291179
0.000290323
0.000289477
0.000288643
0.000287824
0.000287021
0.000286236
0.000285472
0.000284729
0.00028401
0.000283314
0.000282645
0.000282001
0.000281386
0.000280798
0.00028024
0.000279711
0.000279212
0.000278744
0.000278306
0.000277899
0.000277524
0.00027718
0.000276867
0.000276586
0.000276336
0.000276118
0.000275931
0.000275776
0.000275652
0.000275559
0.000275498
0.000275468
0.000275469
0.000275502
0.000275566
0.000275661
0.000275788
0.000275946
0.000276136
0.000276358
0.000276613
0.000276899
0.000277219
0.000277571
0.000277957
0.000278376
0.00027883
0.000279318
0.00027984
0.000280398
0.000280991
0.00028162
0.000282285
0.000282987
0.000283727
0.000284503
0.000285318
0.00028617
0.000287062
0.000287991
0.00028896
0.000289967
0.000291013
0.000292098
0.000293221
0.000294382
0.000295581
0.000296817
0.00029809
0.000299397
0.000300738
0.000302111
0.000303515
0.000304947
0.000306405
0.000307885
0.000309386
0.000310902
0.00031243
0.000313966
0.000315504
0.000317038
0.000318563
0.000320071
0.000321556
0.000323009
0.000324423
0.000325787
0.000327092
0.000328329
0.000329486
0.000330552
0.000331515
0.000332363
0.000333084
0.000333665
0.000334091
0.000334351
0.000334428
0.000334311
0.000333982
0.000333429
0.00033263
0.000331567
0.000330228
0.0003286
0.000326672
0.000324432
0.000321867
0.000318964
0.00031571
0.000312089
0.000308085
0.00030368
0.000298852
0.000293576
0.000287824
0.000281562
0.000274747
0.00026733
0.000259244
0.000250405
0.000240701
0.000229975
0.000218002
0.000204446
0.000188799
0.000170283
0.000147698
0.000119247
8.24838e-05
3.61416e-05
1.30157e-06
7.18518e-07
2.81457e-05
7.07642e-05
0.000108204
0.000139753
0.00016667
0.000189997
0.000210472
0.000228614
0.000244794
0.000259286
0.000272297
0.000283994
0.000294511
0.000303962
0.000312448
0.000320057
0.000326871
0.000332963
0.000338401
0.000343248
0.000347561
0.000351392
0.000354785
0.000357783
0.000360423
0.000362748
0.000364795
0.000366595
0.000368178
0.000369566
0.000370779
0.000371833
0.000372743
0.000373519
0.000374171
0.000374705
0.000375127
0.000375443
0.000375658
0.000375775
0.000375798
0.00037573
0.000375576
0.000375339
0.000375022
0.00037463
0.000374166
0.000373635
0.00037304
0.000372386
0.000371678
0.000370919
0.000370114
0.000369268
0.000368383
0.000367465
0.000366516
0.00036554
0.000364541
0.00036352
0.00036248
0.000361424
0.000360355
0.000359279
0.000358201
0.000357123
0.000356051
0.000354987
0.000353935
0.000352897
0.000351876
0.000350874
0.000349892
0.000348933
0.000347998
0.000347088
0.000346206
0.00034535
0.000344524
0.000343726
0.000342959
0.000342222
0.000341516
0.000340841
0.000340197
0.000339585
0.000339004
0.000338455
0.000337938
0.000337452
0.000336999
0.000336577
0.000336186
0.000335828
0.000335502
0.000335208
0.000334946
0.000334717
0.000334521
0.000334358
0.000334229
0.000334134
0.000334074
0.000334049
0.000334059
0.000334106
0.00033419
0.000334312
0.000334472
0.000334671
0.00033491
0.000335189
0.00033551
0.000335873
0.00033628
0.000336729
0.000337224
0.000337763
0.000338349
0.00033898
0.000339659
0.000340386
0.000341161
0.000341985
0.000342858
0.00034378
0.000344753
0.000345774
0.000346846
0.000347968
0.000349138
0.000350358
0.000351626
0.000352941
0.000354302
0.000355708
0.000357158
0.000358648
0.000360178
0.000361744
0.000363343
0.000364972
0.000366626
0.000368302
0.000369994
0.000371697
0.000373405
0.000375111
0.000376808
0.000378488
0.000380142
0.000381762
0.000383338
0.000384859
0.000386314
0.000387691
0.000388979
0.000390165
0.000391235
0.000392176
0.000392974
0.000393613
0.000394081
0.00039436
0.000394437
0.000394294
0.000393917
0.000393289
0.000392386
0.000391193
0.000389695
0.000387876
0.000385721
0.000383216
0.000380345
0.000377089
0.00037343
0.000369348
0.000364818
0.000359816
0.000354309
0.000348263
0.000341636
0.000334379
0.000326434
0.000317728
0.000308172
0.000297652
0.000286019
0.000273069
0.000258517
0.000241953
0.000222776
0.000200093
0.000172579
0.000138325
9.4893e-05
4.15505e-05
1.67816e-06
7.18498e-07
2.81449e-05
7.07625e-05
0.000108201
0.00013975
0.000166666
0.000189992
0.000210467
0.000228609
0.000244789
0.000259281
0.000272293
0.00028399
0.000294507
0.000303959
0.000312445
0.000320055
0.000326869
0.000332962
0.000338401
0.000343249
0.000347562
0.000351393
0.000354787
0.000357785
0.000360425
0.000362751
0.000364798
0.000366599
0.000368181
0.00036957
0.000370783
0.000371838
0.000372748
0.000373524
0.000374176
0.00037471
0.000375132
0.000375449
0.000375664
0.000375781
0.000375804
0.000375736
0.000375582
0.000375345
0.000375029
0.000374636
0.000374173
0.000373641
0.000373047
0.000372393
0.000371684
0.000370926
0.000370121
0.000369274
0.000368389
0.000367471
0.000366522
0.000365546
0.000364547
0.000363526
0.000362486
0.000361429
0.00036036
0.000359284
0.000358205
0.000357127
0.000356055
0.00035499
0.000353938
0.0003529
0.000351878
0.000350875
0.000349893
0.000348934
0.000347999
0.000347089
0.000346205
0.00034535
0.000344523
0.000343725
0.000342957
0.00034222
0.000341513
0.000340838
0.000340194
0.000339581
0.000339
0.000338451
0.000337933
0.000337448
0.000336994
0.000336571
0.000336181
0.000335822
0.000335496
0.000335202
0.00033494
0.000334711
0.000334515
0.000334352
0.000334222
0.000334127
0.000334067
0.000334042
0.000334052
0.000334099
0.000334183
0.000334304
0.000334464
0.000334663
0.000334902
0.000335182
0.000335503
0.000335866
0.000336273
0.000336723
0.000337217
0.000337757
0.000338342
0.000338974
0.000339653
0.00034038
0.000341155
0.000341979
0.000342852
0.000343775
0.000344747
0.000345769
0.000346841
0.000347962
0.000349133
0.000350353
0.00035162
0.000352936
0.000354297
0.000355703
0.000357153
0.000358644
0.000360173
0.000361739
0.000363338
0.000364967
0.000366622
0.000368298
0.00036999
0.000371693
0.000373401
0.000375107
0.000376804
0.000378484
0.000380139
0.000381758
0.000383334
0.000384855
0.00038631
0.000387688
0.000388976
0.000390161
0.000391231
0.000392173
0.00039297
0.00039361
0.000394078
0.000394358
0.000394434
0.000394292
0.000393915
0.000393287
0.000392385
0.000391192
0.000389694
0.000387875
0.000385721
0.000383216
0.000380345
0.000377089
0.000373431
0.000369349
0.00036482
0.000359817
0.000354311
0.000348265
0.000341638
0.000334382
0.000326436
0.00031773
0.000308175
0.000297655
0.000286022
0.000273072
0.00025852
0.000241956
0.000222779
0.000200096
0.000172581
0.000138327
9.48942e-05
4.15514e-05
1.67816e-06
8.70744e-07
3.12202e-05
7.83379e-05
0.000120569
0.000156728
0.000187898
0.000215096
0.000239083
0.000260411
0.000279487
0.000296615
0.000312031
0.000325924
0.000338447
0.000349733
0.000359896
0.000369038
0.000377252
0.000384622
0.000391226
0.000397136
0.000402418
0.000407131
0.000411329
0.000415062
0.000418373
0.00042131
0.000423911
0.000426214
0.000428249
0.000430043
0.00043162
0.000432997
0.000434191
0.000435215
0.00043608
0.000436796
0.000437369
0.000437807
0.000438116
0.000438301
0.000438367
0.00043832
0.000438164
0.000437903
0.000437544
0.000437092
0.000436551
0.000435926
0.000435224
0.000434449
0.000433608
0.000432705
0.000431745
0.000430734
0.000429677
0.000428579
0.000427444
0.000426277
0.00042508
0.000423859
0.000422616
0.000421355