/*--------------------------------*- C++ -*----------------------------------*\
  =========                 |
  \\      /  F ield         | OpenFOAM: The Open Source CFD Toolbox
   \\    /   O peration     | Website:  https://openfoam.org
    \\  /    A nd           | Version:  8
     \\/     M anipulation  |
\*---------------------------------------------------------------------------*/
FoamFile
{
    version     2.0;
    format      ascii;
    class       surfaceScalarField;
    location    "1400";
    object      phi;
}
// * * * * * * * * * * * * * * * * * * * * * * * * * * * * * * * * * * * * * //

dimensions      [1 0 -1 0 0 0 0];

internalField   nonuniform List<scalar> 
114370
(
-2.63835e-10
-1.73439e-13
2.64007e-10
-7.21193e-10
-1.57693e-15
4.58277e-10
-1.17416e-09
2.54593e-13
4.52737e-10
-1.49603e-09
2.96182e-13
3.23121e-10
-1.6477e-09
1.6782e-13
1.52771e-10
-1.63348e-09
2.034e-14
-1.33664e-11
-1.47557e-09
-8.20613e-14
-1.57069e-10
-1.20274e-09
-1.40425e-13
-2.71773e-10
-8.42808e-10
-1.7202e-13
-3.58557e-10
-4.20871e-10
-1.88962e-13
-4.20252e-10
4.09739e-11
-1.96407e-13
-4.59894e-10
5.23118e-10
-1.96013e-13
-4.8003e-10
1.00893e-09
-1.89027e-13
-4.83672e-10
1.48508e-09
-1.75559e-13
-4.74104e-10
1.94047e-09
-1.54597e-13
-4.53552e-10
2.36602e-09
-1.29623e-13
-4.24015e-10
2.75443e-09
-1.08256e-13
-3.87239e-10
3.09999e-09
-9.76908e-14
-3.44778e-10
3.39842e-09
-1.0056e-13
-2.98029e-10
3.64672e-09
-1.1502e-13
-2.48248e-10
3.84306e-09
-1.37849e-13
-1.96568e-10
3.98665e-09
-1.66512e-13
-1.44014e-10
4.07763e-09
-1.97861e-13
-9.15208e-11
4.117e-09
-2.26122e-13
-3.9963e-11
4.1065e-09
-2.43536e-13
9.93295e-12
4.04813e-09
-2.434e-13
5.78876e-11
3.94412e-09
-2.22829e-13
1.03629e-10
3.79726e-09
-1.81952e-13
1.46627e-10
3.61068e-09
-1.22166e-13
1.86485e-10
3.38786e-09
-4.58687e-14
2.22889e-10
3.13248e-09
4.14941e-14
2.55604e-10
2.84838e-09
1.29377e-13
2.84467e-10
2.53954e-09
2.02695e-13
3.09375e-10
2.20996e-09
2.44951e-13
3.30286e-10
1.86362e-09
2.41575e-13
3.47208e-10
1.50446e-09
1.81774e-13
3.60194e-10
1.1363e-09
5.94604e-14
3.69342e-10
7.62816e-10
-1.25213e-13
3.74787e-10
3.87496e-10
-3.63304e-13
3.76695e-10
1.35951e-11
-6.34371e-13
3.75281e-10
-3.55637e-10
-8.99778e-13
3.70537e-10
-7.1718e-10
-1.11043e-12
3.62699e-10
-1.06853e-09
-1.24301e-12
3.52355e-10
-1.40745e-09
-1.30326e-12
3.39822e-10
-1.73204e-09
-1.30775e-12
3.25404e-10
-2.04083e-09
-1.27424e-12
3.09505e-10
-2.33245e-09
-1.21776e-12
2.92242e-10
-2.60567e-09
-1.1473e-12
2.7371e-10
-2.85962e-09
-1.06731e-12
2.54298e-10
-3.09369e-09
-9.83601e-13
2.34283e-10
-3.30744e-09
-9.0171e-13
2.13812e-10
-3.50059e-09
-8.22586e-13
1.93074e-10
-3.67308e-09
-7.47031e-13
1.72274e-10
-3.825e-09
-6.78627e-13
1.51581e-10
-3.95656e-09
-6.18647e-13
1.31129e-10
-4.06811e-09
-5.66149e-13
1.11041e-10
-4.16008e-09
-5.22347e-13
9.14226e-11
-4.23301e-09
-4.88057e-13
7.2361e-11
-4.28749e-09
-4.61926e-13
5.39269e-11
-4.32418e-09
-4.43513e-13
3.61744e-11
-4.34378e-09
-4.32078e-13
1.91416e-11
-4.34703e-09
-4.24985e-13
2.86155e-12
-4.33473e-09
-4.20352e-13
-1.26145e-11
-4.30766e-09
-4.16917e-13
-2.72963e-11
-4.2666e-09
-4.12387e-13
-4.12195e-11
-4.21228e-09
-4.0599e-13
-5.43804e-11
-4.14548e-09
-3.98784e-13
-6.67857e-11
-4.06692e-09
-3.90084e-13
-7.84522e-11
-3.97731e-09
-3.78337e-13
-8.94047e-11
-3.87737e-09
-3.65614e-13
-9.96705e-11
-3.76774e-09
-3.55991e-13
-1.09279e-10
-3.64908e-09
-3.49301e-13
-1.18262e-10
-3.52202e-09
-3.42738e-13
-1.26651e-10
-3.38712e-09
-3.38327e-13
-1.34484e-10
-3.24494e-09
-3.40615e-13
-1.418e-10
-3.09596e-09
-3.4835e-13
-1.4863e-10
-2.94068e-09
-3.57604e-13
-1.54992e-10
-2.77954e-09
-3.70187e-13
-1.60904e-10
-2.61296e-09
-3.90434e-13
-1.66385e-10
-2.44132e-09
-4.18451e-13
-1.71498e-10
-2.26492e-09
-4.53574e-13
-1.76283e-10
-2.08411e-09
-4.9889e-13
-1.80727e-10
-1.8992e-09
-5.57384e-13
-1.84834e-10
-1.71055e-09
-6.29189e-13
-1.88597e-10
-1.51844e-09
-7.15125e-13
-1.92073e-10
-1.32306e-09
-8.17534e-13
-1.95367e-10
-1.12462e-09
-9.3682e-13
-1.9846e-10
-9.23369e-10
-1.07143e-12
-2.01323e-10
-7.1951e-10
-1.21966e-12
-2.03989e-10
-5.13229e-10
-1.37695e-12
-2.06482e-10
-3.04698e-10
-1.53288e-12
-2.08818e-10
-9.40576e-11
-1.67295e-12
-2.11037e-10
1.18462e-10
-1.77285e-12
-2.13042e-10
3.32587e-10
-1.80794e-12
-2.14767e-10
5.48157e-10
-1.77579e-12
-2.16278e-10
7.6503e-10
-1.69159e-12
-2.1759e-10
9.83053e-10
-1.5764e-12
-2.18719e-10
1.20206e-09
-1.44865e-12
-2.19677e-10
1.42188e-09
-1.32029e-12
-2.20469e-10
1.64234e-09
-1.19844e-12
-2.211e-10
1.8633e-09
-1.08778e-12
-2.21582e-10
2.08459e-09
-9.90356e-13
-2.2192e-10
2.30607e-09
-9.05525e-13
-2.22115e-10
2.5276e-09
-8.31804e-13
-2.22168e-10
2.74903e-09
-7.68463e-13
-2.22081e-10
2.97023e-09
-7.14659e-13
-2.21855e-10
3.19105e-09
-6.68817e-13
-2.21489e-10
3.41136e-09
-6.30064e-13
-2.20981e-10
3.63101e-09
-5.98894e-13
-2.20333e-10
3.84989e-09
-5.75044e-13
-2.1955e-10
4.06786e-09
-5.5553e-13
-2.18636e-10
4.2848e-09
-5.36202e-13
-2.17596e-10
4.50059e-09
-5.14767e-13
-2.16433e-10
4.7151e-09
-4.91323e-13
-2.15153e-10
4.92823e-09
-4.66804e-13
-2.13761e-10
5.13988e-09
-4.42341e-13
-2.12266e-10
5.34997e-09
-4.19513e-13
-2.10679e-10
5.55841e-09
-3.99496e-13
-2.09014e-10
5.76515e-09
-3.81707e-13
-2.07283e-10
5.97014e-09
-3.6456e-13
-2.05492e-10
6.17331e-09
-3.4792e-13
-2.03652e-10
6.37465e-09
-3.33585e-13
-2.01771e-10
6.57411e-09
-3.22783e-13
-1.99861e-10
6.77168e-09
-3.13959e-13
-1.9793e-10
6.96735e-09
-3.03763e-13
-1.95991e-10
7.16112e-09
-2.89562e-13
-1.94061e-10
7.35301e-09
-2.70519e-13
-1.92158e-10
7.54306e-09
-2.47155e-13
-1.90298e-10
7.73131e-09
-2.21243e-13
-1.88491e-10
7.91782e-09
-1.95962e-13
-1.86745e-10
8.10266e-09
-1.74683e-13
-1.85071e-10
8.28591e-09
-1.58671e-13
-1.83482e-10
8.46768e-09
-1.46222e-13
-1.8199e-10
8.64806e-09
-1.34602e-13
-1.8061e-10
8.82717e-09
-1.22458e-13
-1.79356e-10
9.00514e-09
-1.09932e-13
-1.78244e-10
9.18212e-09
-9.6904e-14
-1.77286e-10
9.35826e-09
-8.22705e-14
-1.7649e-10
9.53372e-09
-6.53586e-14
-1.75858e-10
9.70864e-09
-4.76518e-14
-1.75392e-10
9.88319e-09
-3.23884e-14
-1.75091e-10
1.00575e-08
-2.24173e-14
-1.74954e-10
1.02318e-08
-1.8447e-14
-1.74978e-10
1.04063e-08
-1.91275e-14
-1.75155e-10
1.05809e-08
-2.22899e-14
-1.75477e-10
1.0756e-08
-2.59253e-14
-1.75925e-10
1.09316e-08
-2.85212e-14
-1.76476e-10
1.11077e-08
-2.91901e-14
-1.77093e-10
1.12845e-08
-2.79249e-14
-1.77733e-10
1.14619e-08
-2.5628e-14
-1.78342e-10
1.16397e-08
-2.34912e-14
-1.78861e-10
1.1818e-08
-2.19914e-14
-1.79216e-10
1.19964e-08
-2.03044e-14
-1.79325e-10
1.21746e-08
-1.6782e-14
-1.79089e-10
1.23523e-08
-1.0257e-14
-1.78396e-10
1.25287e-08
-1.18353e-15
-1.77116e-10
1.27031e-08
8.53321e-15
-1.75104e-10
1.28748e-08
1.70452e-14
-1.72196e-10
1.30425e-08
2.41649e-14
-1.68214e-10
1.32051e-08
3.14121e-14
-1.62964e-10
1.3361e-08
4.01904e-14
-1.5624e-10
1.35085e-08
4.99313e-14
-1.47814e-10
1.36457e-08
5.84946e-14
-1.37448e-10
1.37704e-08
6.46246e-14
-1.2489e-10
1.38801e-08
6.95461e-14
-1.09889e-10
1.39721e-08
7.54332e-14
-9.21948e-11
1.40434e-08
8.25848e-14
-7.1568e-11
1.4091e-08
8.91251e-14
-4.77904e-11
1.41114e-08
9.39331e-14
-2.06783e-11
1.41013e-08
9.79156e-14
9.91314e-12
1.40566e-08
1.0215e-13
4.44393e-11
1.3973e-08
1.05223e-13
8.33579e-11
1.3846e-08
1.03928e-13
1.26787e-10
1.3671e-08
9.76328e-14
1.74797e-10
1.34435e-08
8.96124e-14
2.27393e-10
1.3159e-08
8.33658e-14
2.84504e-10
1.2813e-08
7.87476e-14
3.4597e-10
1.24016e-08
7.37443e-14
4.11526e-10
1.1921e-08
6.90829e-14
4.80771e-10
1.13681e-08
6.77379e-14
5.53144e-10
1.07405e-08
7.01037e-14
6.27899e-10
1.00368e-08
7.4402e-14
7.04079e-10
9.25677e-09
8.24833e-14
7.80475e-10
8.40167e-09
9.88405e-14
8.55588e-10
7.47463e-09
1.2257e-13
9.27584e-10
6.48099e-09
1.48619e-13
9.94224e-10
5.42887e-09
1.7712e-13
1.05276e-09
4.32976e-09
2.09122e-13
1.09979e-09
3.19934e-09
2.35937e-13
1.13115e-09
2.05857e-09
2.5044e-13
1.14155e-09
9.3525e-10
2.58752e-13
1.12416e-09
-1.33683e-10
2.59331e-13
1.06982e-09
-1.09632e-09
2.29662e-13
9.63567e-10
-1.88735e-09
1.68253e-13
7.91941e-10
-2.42915e-09
1.01457e-13
5.42664e-10
-2.63137e-09
4.90538e-14
2.03015e-10
-2.41014e-09
1.96134e-14
-2.20471e-10
-1.74251e-09
1.20688e-14
-6.66895e-10
-7.80967e-10
2.00715e-14
-9.60803e-10
3.61226e-14
-7.80222e-10
-2.63138e-10
2.6352e-10
-7.20153e-10
4.56747e-10
-1.17395e-09
4.51127e-10
-1.49652e-09
3.2193e-10
-1.64831e-09
1.52107e-10
-1.63394e-09
-1.36303e-11
-1.47585e-09
-1.57082e-10
-1.20289e-09
-2.71627e-10
-8.42893e-10
-3.58293e-10
-4.20907e-10
-4.19882e-10
4.09745e-11
-4.59425e-10
5.2315e-10
-4.79484e-10
1.00899e-09
-4.83082e-10
1.48514e-09
-4.73495e-10
1.94052e-09
-4.52941e-10
2.36607e-09
-4.23409e-10
2.75447e-09
-3.8664e-10
3.10002e-09
-3.44186e-10
3.39845e-09
-2.9744e-10
3.64676e-09
-2.47656e-10
3.84313e-09
-1.95962e-10
3.98674e-09
-1.43389e-10
4.07774e-09
-9.08834e-11
4.11715e-09
-3.93336e-11
4.1067e-09
1.05212e-11
4.04837e-09
5.83905e-11
3.94441e-09
1.03996e-10
3.79759e-09
1.46808e-10
3.61104e-09
1.86439e-10
3.38823e-09
2.22597e-10
3.13283e-09
2.5508e-10
2.84868e-09
2.83764e-10
2.53974e-09
3.08595e-10
2.21001e-09
3.29574e-10
1.86349e-09
3.46746e-10
1.50412e-09
3.60192e-10
1.13576e-09
3.7001e-10
7.62106e-10
3.76309e-10
3.86689e-10
3.79181e-10
1.28099e-11
3.78729e-10
-3.56241e-10
3.74781e-10
-7.17495e-10
3.67463e-10
-1.06857e-09
3.57372e-10
-1.40728e-09
3.44884e-10
-1.73172e-09
3.3036e-10
-2.04042e-09
3.14252e-10
-2.33199e-09
2.96712e-10
-2.60519e-09
2.77865e-10
-2.85913e-09
2.58122e-10
-3.09321e-09
2.37776e-10
-3.30698e-09
2.16984e-10
-3.50017e-09
1.95949e-10
-3.67268e-09
1.74879e-10
-3.82463e-09
1.53949e-10
-3.95622e-09
1.33292e-10
-4.06779e-09
1.13031e-10
-4.15979e-09
9.32715e-11
-4.23274e-09
7.40984e-11
-4.28724e-09
5.55768e-11
-4.32395e-09
3.77555e-11
-4.34356e-09
2.06688e-11
-4.34682e-09
4.34682e-12
-4.33453e-09
-1.11632e-11
-4.30746e-09
-2.58735e-11
-4.26639e-09
-3.98184e-11
-4.21208e-09
-5.29951e-11
-4.14527e-09
-6.5416e-11
-4.0667e-09
-7.7099e-11
-3.9771e-09
-8.80663e-11
-3.87716e-09
-9.83462e-11
-3.76755e-09
-1.07969e-10
-3.64892e-09
-1.16965e-10
-3.52188e-09
-1.25363e-10
-3.38701e-09
-1.33195e-10
-3.24485e-09
-1.40495e-10
-3.09591e-09
-1.47288e-10
-2.94066e-09
-1.53594e-10
-2.77953e-09
-1.59425e-10
-2.61298e-09
-1.64792e-10
-2.44136e-09
-1.69761e-10
-2.26499e-09
-1.74369e-10
-2.0842e-09
-1.78599e-10
-1.89934e-09
-1.82449e-10
-1.71074e-09
-1.859e-10
-1.5187e-09
-1.89004e-10
-1.3234e-09
-1.91863e-10
-1.12503e-09
-1.94465e-10
-9.23834e-10
-1.96789e-10
-7.20006e-10
-1.98885e-10
-5.13723e-10
-2.00808e-10
-3.05136e-10
-2.02628e-10
-9.43559e-11
-2.04459e-10
1.18404e-10
-2.06302e-10
3.32801e-10
-2.08123e-10
5.48577e-10
-2.09928e-10
7.65572e-10
-2.11655e-10
9.83645e-10
-2.13257e-10
1.20265e-09
-2.14697e-10
1.42244e-09
-2.15952e-10
1.64285e-09
-2.17012e-10
1.86374e-09
-2.17876e-10
2.08497e-09
-2.18545e-10
2.30639e-09
-2.19023e-10
2.52787e-09
-2.19314e-10
2.74926e-09
-2.19422e-10
2.97042e-09
-2.19355e-10
3.19122e-09
-2.19118e-10
3.41151e-09
-2.18723e-10
3.63116e-09
-2.18178e-10
3.85003e-09
-2.17492e-10
4.06799e-09
-2.16669e-10
4.28492e-09
-2.15714e-10
4.5007e-09
-2.14634e-10
4.7152e-09
-2.13433e-10
4.92834e-09
-2.12117e-10
5.13999e-09
-2.10696e-10
5.35008e-09
-2.09185e-10
5.55853e-09
-2.07594e-10
5.76528e-09
-2.05934e-10
5.97026e-09
-2.04209e-10
6.17344e-09
-2.02432e-10
6.37477e-09
-2.00612e-10
6.57422e-09
-1.98759e-10
6.77178e-09
-1.96883e-10
6.96743e-09
-1.94996e-10
7.16118e-09
-1.93117e-10
7.35306e-09
-1.91263e-10
7.5431e-09
-1.8945e-10
7.73136e-09
-1.8769e-10
7.91788e-09
-1.85996e-10
8.10275e-09
-1.8438e-10
8.28602e-09
-1.82854e-10
8.46779e-09
-1.81427e-10
8.64817e-09
-1.80111e-10
8.82727e-09
-1.7892e-10
9.00523e-09
-1.77867e-10
9.18219e-09
-1.76961e-10
9.35832e-09
-1.76208e-10
9.53375e-09
-1.75611e-10
9.70867e-09
-1.75172e-10
9.88322e-09
-1.74893e-10
1.00576e-08
-1.74775e-10
1.02319e-08
-1.74817e-10
1.04063e-08
-1.75012e-10
1.0581e-08
-1.75352e-10
1.0756e-08
-1.75819e-10
1.09316e-08
-1.76387e-10
1.11078e-08
-1.77022e-10
1.12845e-08
-1.7768e-10
1.14619e-08
-1.78311e-10
1.16398e-08
-1.78856e-10
1.1818e-08
-1.79241e-10
1.19965e-08
-1.79382e-10
1.21747e-08
-1.79178e-10
1.23523e-08
-1.78513e-10
1.25287e-08
-1.77257e-10
1.27031e-08
-1.75265e-10
1.28748e-08
-1.72374e-10
1.30425e-08
-1.68408e-10
1.32051e-08
-1.63175e-10
1.3361e-08
-1.56466e-10
1.35085e-08
-1.48053e-10
1.36458e-08
-1.37699e-10
1.37704e-08
-1.25156e-10
1.38801e-08
-1.10173e-10
1.39721e-08
-9.24998e-11
1.40435e-08
-7.18927e-11
1.4091e-08
-4.81315e-11
1.41115e-08
-2.10344e-11
1.41013e-08
9.54501e-12
1.40566e-08
4.40649e-11
1.3973e-08
8.29842e-11
1.3846e-08
1.26421e-10
1.36711e-08
1.74439e-10
1.34436e-08
2.27039e-10
1.3159e-08
2.84155e-10
1.28131e-08
3.45631e-10
1.24017e-08
4.11195e-10
1.19211e-08
4.80438e-10
1.13682e-08
5.52798e-10
1.07407e-08
6.27533e-10
1.0037e-08
7.03682e-10
9.25693e-09
7.80026e-10
8.40183e-09
8.55072e-10
7.47477e-09
9.26997e-10
6.48112e-09
9.93557e-10
5.42898e-09
1.052e-09
4.32984e-09
1.09896e-09
3.19938e-09
1.13027e-09
2.05856e-09
1.14064e-09
9.35174e-10
1.12325e-09
-1.33835e-10
1.06901e-09
-1.09656e-09
9.62926e-10
-1.88763e-09
7.91508e-10
-2.42941e-09
5.42419e-10
-2.63156e-09
2.029e-10
-2.41026e-09
-2.20508e-10
-1.74255e-09
-6.66886e-10
-7.80924e-10
-9.60766e-10
-7.80131e-10
-4.49264e-10
-3.37237e-13
7.15396e-10
-9.28976e-10
-3.91322e-13
9.43393e-10
-1.2166e-09
-1.92303e-13
7.42203e-10
-1.30119e-09
-7.77561e-14
4.08886e-10
-1.20669e-09
-3.96984e-14
5.92898e-11
-9.62587e-10
-3.3495e-14
-2.56345e-10
-5.98947e-10
-3.36432e-14
-5.19365e-10
-1.43087e-10
-3.07833e-14
-7.26022e-10
3.79843e-10
-2.26915e-14
-8.79618e-10
9.47221e-10
-1.04114e-14
-9.8556e-10
1.53975e-09
2.89282e-15
-1.05025e-09
2.14108e-09
1.39482e-14
-1.07919e-09
2.73713e-09
2.22268e-14
-1.07768e-09
3.31563e-09
2.94698e-14
-1.05081e-09
3.86625e-09
3.65172e-14
-1.00269e-09
4.38033e-09
4.23831e-14
-9.37002e-10
4.85076e-09
4.53614e-14
-8.5699e-10
5.27185e-09
4.48863e-14
-7.65568e-10
5.63914e-09
4.19821e-14
-6.65373e-10
5.94938e-09
3.80362e-14
-5.58814e-10
6.2004e-09
3.35402e-14
-4.48092e-10
6.39099e-09
2.81592e-14
-3.35215e-10
6.52087e-09
2.16616e-14
-2.22013e-10
6.59052e-09
1.43363e-14
-1.10147e-10
6.60114e-09
6.37919e-15
-1.08652e-12
6.55469e-09
-2.73523e-15
1.0411e-10
6.45375e-09
-1.38706e-14
2.04549e-10
6.30131e-09
-2.71572e-14
2.99244e-10
6.10078e-09
-4.11676e-14
3.87379e-10
5.85592e-09
-5.32703e-14
4.68274e-10
5.57078e-09
-6.06409e-14
5.41391e-10
5.24964e-09
-6.09494e-14
6.06329e-10
4.89695e-09
-5.23062e-14
6.62824e-10
4.51723e-09
-3.30456e-14
7.10742e-10
4.11506e-09
-2.01625e-15
7.50064e-10
3.695e-09
4.05203e-14
7.80876e-10
3.26152e-09
9.20994e-14
8.03362e-10
2.81898e-09
1.47984e-13
8.17796e-10
2.37159e-09
2.01511e-13
8.24523e-10
1.92335e-09
2.443e-13
8.23964e-10
1.47796e-09
2.68348e-13
8.16433e-10
1.03882e-09
2.7421e-13
8.02392e-10
6.0919e-10
2.69192e-13
7.82573e-10
1.91971e-10
2.58295e-13
7.57614e-10
-2.10182e-10
2.44252e-13
7.28079e-10
-5.94749e-10
2.28577e-13
6.94511e-10
-9.59731e-10
2.11686e-13
6.57559e-10
-1.30364e-09
1.93709e-13
6.1783e-10
-1.62519e-09
1.75863e-13
5.75919e-10
-1.92334e-09
1.59004e-13
5.32378e-10
-2.19732e-09
1.42538e-13
4.87595e-10
-2.44659e-09
1.2671e-13
4.4202e-10
-2.67085e-09
1.12921e-13
3.96094e-10
-2.86999e-09
1.01384e-13
3.50197e-10
-3.04409e-09
9.17021e-14
3.04633e-10
-3.19337e-09
8.42497e-14
2.59691e-10
-3.31821e-09
7.88136e-14
2.15617e-10
-3.4191e-09
7.47139e-14
1.72619e-10
-3.49664e-09
7.19598e-14
1.30866e-10
-3.5515e-09
7.00317e-14
9.04854e-11
-3.58442e-09
6.79046e-14
5.15812e-11
-3.59621e-09
6.56408e-14
1.42337e-11
-3.58768e-09
6.36409e-14
-2.14683e-11
-3.55974e-09
6.17049e-14
-5.54811e-11
-3.51329e-09
6.00679e-14
-8.78126e-11
-3.44924e-09
5.94918e-14
-1.18468e-10
-3.36851e-09
5.96785e-14
-1.47473e-10
-3.27195e-09
5.96364e-14
-1.74865e-10
-3.16045e-09
5.9747e-14
-2.00688e-10
-3.03485e-09
6.10452e-14
-2.24993e-10
-2.89598e-09
6.27285e-14
-2.4785e-10
-2.74461e-09
6.33981e-14
-2.69319e-10
-2.58152e-09
6.38203e-14
-2.89455e-10
-2.40745e-09
6.52881e-14
-3.08317e-10
-2.22308e-09
6.73787e-14
-3.25986e-10
-2.02908e-09
6.99971e-14
-3.42514e-10
-1.82608e-09
7.45856e-14
-3.57943e-10
-1.61468e-09
8.15711e-14
-3.72328e-10
-1.39545e-09
8.98639e-14
-3.85716e-10
-1.16891e-09
9.94203e-14
-3.98199e-10
-9.35588e-10
1.11319e-13
-4.09844e-10
-6.95954e-10
1.25682e-13
-4.20675e-10
-4.50452e-10
1.42106e-13
-4.30737e-10
-1.99468e-10
1.6124e-13
-4.4008e-10
5.65835e-11
1.83762e-13
-4.4873e-10
3.17196e-10
2.08877e-13
-4.56698e-10
5.81935e-10
2.35551e-13
-4.64029e-10
8.5045e-10
2.63386e-13
-4.7077e-10
1.12239e-09
2.91173e-13
-4.76948e-10
1.39743e-09
3.16042e-13
-4.82591e-10
1.67525e-09
3.33947e-13
-4.87712e-10
1.95551e-09
3.39848e-13
-4.92329e-10
2.2379e-09
3.2996e-13
-4.96396e-10
2.52217e-09
3.07572e-13
-4.99915e-10
2.80806e-09
2.80029e-13
-5.02968e-10
3.09529e-09
2.52071e-13
-5.05579e-10
3.38361e-09
2.25822e-13
-5.07769e-10
3.67276e-09
2.02071e-13
-5.09552e-10
3.96251e-09
1.81272e-13
-5.10939e-10
4.25262e-09
1.63704e-13
-5.11939e-10
4.54285e-09
1.4907e-13
-5.1256e-10
4.83297e-09
1.3678e-13
-5.12809e-10
5.12277e-09
1.26705e-13
-5.1269e-10
5.41202e-09
1.19122e-13
-5.12212e-10
5.70052e-09
1.13845e-13
-5.11383e-10
5.98806e-09
1.09968e-13
-5.10208e-10
6.27445e-09
1.06541e-13
-5.08691e-10
6.5595e-09
1.03001e-13
-5.0684e-10
6.84303e-09
9.88966e-14
-5.04664e-10
7.12486e-09
9.39263e-14
-5.02174e-10
7.40482e-09
8.85334e-14
-4.99376e-10
7.68275e-09
8.38266e-14
-4.96284e-10
7.95849e-09
8.03803e-14
-4.92913e-10
8.2319e-09
7.74986e-14
-4.89283e-10
8.50285e-09
7.41367e-14
-4.85409e-10
8.77123e-09
7.02227e-14
-4.81306e-10
9.03691e-09
6.65475e-14
-4.76995e-10
9.29979e-09
6.3586e-14
-4.72499e-10
9.55978e-09
6.09883e-14
-4.67846e-10
9.81681e-09
5.82411e-14
-4.63057e-10
1.00708e-08
5.52422e-14
-4.58154e-10
1.03218e-08
5.20594e-14
-4.53164e-10
1.05696e-08
4.85649e-14
-4.48116e-10
1.08143e-08
4.47352e-14
-4.43037e-10
1.10559e-08
4.11541e-14
-4.37957e-10
1.12945e-08
3.88188e-14
-4.32905e-10
1.15299e-08
3.82829e-14
-4.27913e-10
1.17624e-08
3.90745e-14
-4.23012e-10
1.19919e-08
3.99702e-14
-4.18231e-10
1.22185e-08
3.97958e-14
-4.136e-10
1.24423e-08
3.80233e-14
-4.09148e-10
1.26635e-08
3.48045e-14
-4.04905e-10
1.28822e-08
3.06491e-14
-4.00899e-10
1.30985e-08
2.61224e-14
-3.97157e-10
1.33125e-08
2.17856e-14
-3.93702e-10
1.35245e-08
1.82729e-14
-3.9056e-10
1.37345e-08
1.62485e-14
-3.87753e-10
1.39429e-08
1.6055e-14
-3.85298e-10
1.41497e-08
1.73275e-14
-3.83208e-10
1.43552e-08
1.89745e-14
-3.81486e-10
1.45596e-08
1.9711e-14
-3.80131e-10
1.4763e-08
1.87639e-14
-3.79138e-10
1.49657e-08
1.62062e-14
-3.78496e-10
1.51679e-08
1.2739e-14
-3.78185e-10
1.53697e-08
9.21758e-15
-3.78175e-10
1.55712e-08
6.28263e-15
-3.7842e-10
1.57726e-08
4.19449e-15
-3.78859e-10
1.59739e-08
2.76575e-15
-3.79418e-10
1.61752e-08
1.39642e-15
-3.80008e-10
1.63764e-08
-6.91022e-16
-3.8052e-10
1.65774e-08
-3.97371e-15
-3.80825e-10
1.6778e-08
-8.21289e-15
-3.80767e-10
1.6978e-08
-1.24825e-14
-3.80162e-10
1.71769e-08
-1.57526e-14
-3.78799e-10
1.73743e-08
-1.76173e-14
-3.76444e-10
1.75694e-08
-1.85241e-14
-3.72831e-10
1.77614e-08
-1.92206e-14
-3.67657e-10
1.79493e-08
-1.9911e-14
-3.60584e-10
1.8132e-08
-1.99496e-14
-3.51238e-10
1.83079e-08
-1.85212e-14
-3.39215e-10
1.84755e-08
-1.57006e-14
-3.24083e-10
1.86328e-08
-1.27388e-14
-3.05379e-10
1.87778e-08
-1.10772e-14
-2.82604e-10
1.89079e-08
-1.10379e-14
-2.55236e-10
1.90206e-08
-1.17863e-14
-2.22743e-10
1.91128e-08
-1.27134e-14
-1.84592e-10
1.91813e-08
-1.43506e-14
-1.40257e-10
1.92225e-08
-1.73042e-14
-8.92164e-11
1.92326e-08
-2.06629e-14
-3.09754e-11
1.92073e-08
-2.26503e-14
3.49449e-11
1.91424e-08
-2.30357e-14
1.09162e-10
1.90333e-08
-2.36231e-14
1.92256e-10
1.88754e-08
-2.55241e-14
2.84574e-10
1.86638e-08
-2.71983e-14
3.86328e-10
1.83936e-08
-2.66077e-14
4.9758e-10
1.80599e-08
-2.43662e-14
6.18223e-10
1.76581e-08
-2.2742e-14
7.47974e-10
1.71835e-08
-2.21394e-14
8.86325e-10
1.66321e-08
-2.12631e-14
1.03249e-09
1.60003e-08
-2.07338e-14
1.18535e-09
1.52852e-08
-2.28861e-14
1.34346e-09
1.44848e-08
-2.7089e-14
1.50495e-09
1.35985e-08
-2.98258e-14
1.66742e-09
1.26268e-08
-3.11019e-14
1.82793e-09
1.15722e-08
-3.48322e-14
1.98285e-09
1.04394e-08
-4.06161e-14
2.12777e-09
9.23565e-09
-4.3265e-14
2.25732e-09
7.97134e-09
-4.26188e-14
2.36491e-09
6.66087e-09
-4.31414e-14
2.44245e-09
5.32336e-09
-4.37274e-14
2.4799e-09
3.98378e-09
-3.9948e-14
2.46456e-09
2.67402e-09
-3.09717e-14
2.3804e-09
1.43274e-09
-1.78089e-14
2.20564e-09
3.08374e-10
-4.48928e-15
1.91709e-09
-6.37077e-10
4.82044e-15
1.4889e-09
-1.33086e-09
1.0663e-14
8.97593e-10
-1.68714e-09
1.32219e-14
1.36612e-10
-1.60205e-09
1.57292e-14
-7.51135e-10
-9.61483e-10
2.9454e-14
-1.6004e-09
7.24327e-14
-1.74112e-09
-4.49814e-10
7.1636e-10
-9.28583e-10
9.44112e-10
-1.21623e-09
7.42374e-10
-1.30107e-09
4.08834e-10
-1.2067e-09
5.91862e-11
-9.62629e-10
-2.56444e-10
-5.98963e-10
-5.19449e-10
-1.43061e-10
-7.26095e-10
3.79907e-10
-8.79692e-10
9.47315e-10
-9.85644e-10
1.53986e-09
-1.05034e-09
2.14119e-09
-1.07929e-09
2.73723e-09
-1.07779e-09
3.31573e-09
-1.05092e-09
3.86633e-09
-1.00281e-09
4.38041e-09
-9.3713e-10
4.85086e-09
-8.5712e-10
5.27196e-09
-7.65695e-10
5.63927e-09
-6.65498e-10
5.94952e-09
-5.58938e-10
6.20054e-09
-4.48215e-10
6.39114e-09
-3.35331e-10
6.52102e-09
-2.22117e-10
6.59066e-09
-1.10232e-10
6.60127e-09
-1.15001e-12
6.55482e-09
1.04075e-10
6.45387e-09
2.0455e-10
6.30142e-09
2.9929e-10
6.10089e-09
3.87472e-10
5.85603e-09
4.6841e-10
5.57089e-09
5.41555e-10
5.24977e-09
6.06503e-10
4.89711e-09
6.62984e-10
4.51744e-09
7.10857e-10
4.11533e-09
7.501e-10
3.69532e-09
7.808e-10
3.26189e-09
8.03152e-10
2.81938e-09
8.17446e-10
2.37198e-09
8.24048e-10
1.9237e-09
8.23404e-10
1.47824e-09
8.15835e-10
1.03905e-09
8.01792e-10
6.09381e-10
7.8199e-10
1.92135e-10
7.57059e-10
-2.10039e-10
7.27557e-10
-5.9462e-10
6.94024e-10
-9.59612e-10
6.57107e-10
-1.30353e-09
6.17414e-10
-1.62507e-09
5.75536e-10
-1.92322e-09
5.32025e-10
-2.1972e-09
4.87272e-10
-2.44646e-09
4.41726e-10
-2.67071e-09
3.95825e-10
-2.86984e-09
3.49949e-10
-3.04393e-09
3.04406e-10
-3.19321e-09
2.59479e-10
-3.31804e-09
2.15416e-10
-3.41892e-09
1.72426e-10
-3.49646e-09
1.30678e-10
-3.55131e-09
9.02994e-11
-3.58423e-09
5.13973e-11
-3.59601e-09
1.40525e-11
-3.58749e-09
-2.16462e-11
-3.55954e-09
-5.56553e-11
-3.51309e-09
-8.79824e-11
-3.44905e-09
-1.18632e-10
-3.36831e-09
-1.4763e-10
-3.27175e-09
-1.75014e-10
-3.16026e-09
-2.00833e-10
-3.03466e-09
-2.25142e-10
-2.89578e-09
-2.48004e-10
-2.74442e-09
-2.69476e-10
-2.58135e-09
-2.89617e-10
-2.40728e-09
-3.08494e-10
-2.22292e-09
-3.26176e-10
-2.02893e-09
-3.42713e-10
-1.82594e-09
-3.58157e-10
-1.61454e-09
-3.72563e-10
-1.3953e-09
-3.85972e-10
-1.16875e-09
-3.98477e-10
-9.35409e-10
-4.10153e-10
-6.95755e-10
-4.21026e-10
-4.50235e-10
-4.31138e-10
-1.99236e-10
-4.40539e-10
5.6829e-11
-4.49257e-10
3.17451e-10
-4.57298e-10
5.82191e-10
-4.64701e-10
8.50698e-10
-4.71513e-10
1.12263e-09
-4.77758e-10
1.39765e-09
-4.8345e-10
1.67542e-09
-4.8859e-10
1.95561e-09
-4.93191e-10
2.23795e-09
-4.97206e-10
2.5222e-09
-5.00653e-10
2.80808e-09
-5.0363e-10
3.09532e-09
-5.06172e-10
3.38364e-09
-5.08302e-10
3.67281e-09
-5.10034e-10
3.96256e-09
-5.11377e-10
4.25267e-09
-5.12342e-10
4.5429e-09
-5.12937e-10
4.83302e-09
-5.13164e-10
5.12281e-09
-5.13027e-10
5.41206e-09
-5.12535e-10
5.70056e-09
-5.11693e-10
5.9881e-09
-5.10505e-10
6.2745e-09
-5.08975e-10
6.55956e-09
-5.07113e-10
6.8431e-09
-5.04928e-10
7.12494e-09
-5.02426e-10
7.4049e-09
-4.99616e-10
7.68281e-09
-4.96513e-10
7.95854e-09
-4.93134e-10
8.23195e-09
-4.89494e-10
8.50291e-09
-4.85608e-10
8.77128e-09
-4.81493e-10
9.03697e-09
-4.77172e-10
9.29985e-09
-4.72669e-10
9.55985e-09
-4.68007e-10
9.81688e-09
-4.63209e-10
1.00709e-08
-4.583e-10
1.03218e-08
-4.53306e-10
1.05697e-08
-4.48252e-10
1.08144e-08
-4.43166e-10
1.1056e-08
-4.38077e-10
1.12945e-08
-4.33016e-10
1.153e-08
-4.28016e-10
1.17624e-08
-4.23105e-10
1.19919e-08
-4.18313e-10
1.22185e-08
-4.13671e-10
1.24424e-08
-4.0921e-10
1.26636e-08
-4.04959e-10
1.28823e-08
-4.00946e-10
1.30985e-08
-3.97199e-10
1.33126e-08
-3.93744e-10
1.35245e-08
-3.90604e-10
1.37346e-08
-3.878e-10
1.39429e-08
-3.85345e-10
1.41497e-08
-3.83251e-10
1.43552e-08
-3.81526e-10
1.45596e-08
-3.80169e-10
1.47631e-08
-3.79175e-10
1.49658e-08
-3.78532e-10
1.5168e-08
-3.7822e-10
1.53697e-08
-3.7821e-10
1.55713e-08
-3.78456e-10
1.57726e-08
-3.78896e-10
1.59739e-08
-3.79454e-10
1.61752e-08
-3.80041e-10
1.63764e-08
-3.80548e-10
1.65774e-08
-3.80847e-10
1.6778e-08
-3.80781e-10
1.6978e-08
-3.80167e-10
1.7177e-08
-3.78798e-10
1.73743e-08
-3.76438e-10
1.75694e-08
-3.7282e-10
1.77614e-08
-3.6764e-10
1.79494e-08
-3.6056e-10
1.8132e-08
-3.51208e-10
1.83079e-08
-3.39186e-10
1.84755e-08
-3.24058e-10
1.86329e-08
-3.05356e-10
1.87778e-08
-2.82578e-10
1.8908e-08
-2.55206e-10
1.90207e-08
-2.22711e-10
1.91129e-08
-1.84561e-10
1.91813e-08
-1.40223e-10
1.92225e-08
-8.91757e-11
1.92326e-08
-3.09279e-11
1.92073e-08
3.49946e-11
1.91424e-08
1.09211e-10
1.90334e-08
1.92307e-10
1.88754e-08
2.84629e-10
1.86638e-08
3.86384e-10
1.83936e-08
4.97628e-10
1.806e-08
6.18265e-10
1.76582e-08
7.48018e-10
1.71836e-08
8.86374e-10
1.66322e-08
1.03254e-09
1.60004e-08
1.18541e-09
1.52853e-08
1.34353e-09
1.44849e-08
1.50503e-09
1.35985e-08
1.66752e-09
1.26268e-08
1.82804e-09
1.15723e-08
1.98298e-09
1.04395e-08
2.12792e-09
9.23569e-09
2.25748e-09
7.97139e-09
2.36507e-09
6.66094e-09
2.44261e-09
5.32344e-09
2.48005e-09
3.98387e-09
2.46469e-09
2.67411e-09
2.38049e-09
1.4328e-09
2.20569e-09
3.08395e-10
1.9171e-09
-6.37101e-10
1.4889e-09
-1.33092e-09
8.97589e-10
-1.68721e-09
1.36605e-10
-1.60209e-09
-7.51132e-10
-9.61436e-10
-1.60039e-09
-1.7411e-09
-4.26088e-10
-6.06348e-14
1.1408e-09
-6.97951e-10
-1.25964e-13
1.218e-09
-7.42527e-10
-8.46177e-14
7.87778e-10
-6.21306e-10
-5.19185e-14
2.88322e-10
-3.73584e-10
-3.66733e-14
-1.87834e-10
-2.53662e-11
-3.0827e-14
-6.03953e-10
4.02976e-10
-2.82534e-14
-9.47047e-10
8.93508e-10
-2.56627e-14
-1.21582e-09
1.42974e-09
-2.20741e-14
-1.41506e-09
1.9965e-09
-1.71257e-14
-1.55147e-09
2.57967e-09
-1.15874e-14
-1.63255e-09
3.16668e-09
-6.47775e-15
-1.66532e-09
3.74623e-09
-2.32038e-15
-1.6564e-09
4.30813e-09
1.11366e-15
-1.61194e-09
4.8435e-09
3.94924e-15
-1.53738e-09
5.34469e-09
5.82823e-15
-1.43762e-09
5.80525e-09
6.21191e-15
-1.31708e-09
6.21983e-09
4.91193e-15
-1.1798e-09
6.58419e-09
2.30577e-15
-1.02947e-09
6.89505e-09
-9.08781e-16
-8.69494e-10
7.15011e-09
-4.14788e-15
-7.03024e-10
7.34793e-09
-7.08333e-15
-5.3295e-10
7.48791e-09
-9.40022e-15
-3.61924e-10
7.57018e-09
-1.06927e-14
-1.92353e-10
7.59555e-09
-1.07152e-14
-2.63871e-11
7.56557e-09
-9.5912e-15
1.3417e-10
7.48243e-09
-7.7449e-15
2.87771e-10
7.34878e-09
-5.64007e-15
4.3298e-10
7.1677e-09
-3.56343e-15
5.68551e-10
6.94263e-09
-1.62962e-15
6.93436e-10
6.67733e-09
2.11189e-17
8.06787e-10
6.3758e-09
1.09791e-15
9.07962e-10
6.04225e-09
1.30886e-15
9.96513e-10
5.68097e-09
6.27634e-16
1.07218e-09
5.29637e-09
-5.86864e-16
1.13489e-09
4.89282e-09
-1.71966e-15
1.18472e-09
4.47468e-09
-2.0745e-15
1.22188e-09
4.0462e-09
-8.74903e-16
1.24673e-09
3.61148e-09
2.62994e-15
1.25976e-09
3.17448e-09
8.2673e-15
1.26154e-09
2.73885e-09
1.37804e-14
1.25268e-09
2.30795e-09
1.73251e-14
1.23391e-09
1.88503e-09
1.90719e-14
1.20612e-09
1.47305e-09
1.93954e-14
1.1702e-09
1.07468e-09
1.87965e-14
1.12703e-09
6.92271e-10
1.77098e-14
1.07746e-09
3.27907e-10
1.59923e-14
1.02242e-09
-1.6654e-11
1.36299e-14
9.62844e-10
-3.39855e-10
1.10823e-14
8.99526e-10
-6.40425e-10
8.54337e-15
8.33309e-10
-9.17487e-10
6.05126e-15
7.64973e-10
-1.1704e-09
3.97025e-15
6.95206e-10
-1.39872e-09
2.37848e-15
6.24655e-10
-1.60223e-09
9.20777e-16
5.53907e-10
-1.78087e-09
-1.92622e-16
4.83448e-10
-1.93477e-09
-7.1576e-16
4.13735e-10
-2.0642e-09
-1.22939e-15
3.45161e-10
-2.16955e-09
-1.97631e-15
2.78064e-10
-2.25133e-09
-2.61577e-15
2.12722e-10
-2.31013e-09
-3.14766e-15
1.4936e-10
-2.34663e-09
-3.61513e-15
8.81537e-11
-2.36156e-09
-3.90551e-15
2.92477e-11
-2.3557e-09
-3.96652e-15
-2.72308e-11
-2.32986e-09
-3.59738e-15
-8.1197e-11
-2.2849e-09
-2.786e-15
-1.32623e-10
-2.2217e-09
-1.76039e-15
-1.81505e-10
-2.14113e-09
-4.62882e-16
-2.27865e-10
-2.04406e-09
1.11146e-15
-2.71748e-10
-1.93133e-09
2.49628e-15
-3.13213e-10
-1.8038e-09
3.08873e-15
-3.52327e-10
-1.66227e-09
2.67357e-15
-3.89173e-10
-1.50754e-09
1.95001e-15
-4.23838e-10
-1.34038e-09
1.80606e-15
-4.56401e-10
-1.16153e-09
1.63594e-15
-4.86946e-10
-9.71705e-10
3.43845e-16
-5.1558e-10
-7.71595e-10
-1.22835e-15
-5.4239e-10
-5.61849e-10
-1.60352e-15
-5.67452e-10
-3.43085e-10
-1.27521e-15
-5.90852e-10
-1.15875e-10
-1.384e-15
-6.12681e-10
1.19186e-10
-1.62919e-15
-6.33009e-10
3.61502e-10
-1.56294e-15
-6.51898e-10
6.10539e-10
-1.82252e-15
-6.69438e-10
8.65798e-10
-2.81865e-15
-6.85701e-10
1.1268e-09
-4.12306e-15
-7.00758e-10
1.39308e-09
-5.46824e-15
-7.14657e-10
1.66421e-09
-6.74919e-15
-7.27435e-10
1.93977e-09
-7.42039e-15
-7.39158e-10
2.21936e-09
-7.10344e-15
-7.4989e-10
2.50261e-09
-6.00412e-15
-7.59683e-10
2.78913e-09
-3.76764e-15
-7.68581e-10
3.07858e-09
8.09529e-16
-7.76611e-10
3.3706e-09
7.38e-15
-7.83805e-10
3.66489e-09
1.27562e-14
-7.90169e-10
3.96119e-09
1.47918e-14
-7.95725e-10
4.25919e-09
1.45227e-14
-8.00521e-10
4.55859e-09
1.34728e-14
-8.04588e-10
4.85914e-09
1.20477e-14
-8.07959e-10
5.16055e-09
1.02731e-14
-8.10655e-10
5.46257e-09
8.57348e-15
-8.12691e-10
5.76495e-09
7.1941e-15
-8.14082e-10
6.06743e-09
5.78037e-15
-8.14846e-10
6.36979e-09
4.15784e-15
-8.14995e-10
6.67178e-09
2.83234e-15
-8.1454e-10
6.97319e-09
2.15168e-15
-8.13493e-10
7.27378e-09
1.66109e-15
-8.1187e-10
7.57334e-09
8.92873e-16
-8.09687e-10
7.87168e-09
1.95279e-16
-8.06955e-10
8.16859e-09
7.95154e-17
-8.03688e-10
8.46388e-09
2.33935e-16
-7.999e-10
8.75736e-09
-3.42642e-17
-7.95612e-10
9.04886e-09
-6.76564e-16
-7.90843e-10
9.33822e-09
-1.02661e-15
-7.85611e-10
9.62527e-09
-8.55741e-16
-7.79941e-10
9.90986e-09
-5.54334e-16
-7.73859e-10
1.01919e-08
-3.06547e-16
-7.67391e-10
1.04711e-08
1.37043e-16
-7.60567e-10
1.07475e-08
7.47714e-16
-7.5342e-10
1.1021e-08
1.00613e-15
-7.45985e-10
1.12915e-08
7.12583e-16
-7.38295e-10
1.15588e-08
4.21082e-16
-7.30387e-10
1.1823e-08
6.27057e-16
-7.22301e-10
1.20839e-08
9.40964e-16
-7.14081e-10
1.23415e-08
6.13894e-16
-7.05771e-10
1.25959e-08
-3.16365e-16
-6.97413e-10