/*--------------------------------*- C++ -*----------------------------------*\
  =========                 |
  \\      /  F ield         | OpenFOAM: The Open Source CFD Toolbox
   \\    /   O peration     | Website:  https://openfoam.org
    \\  /    A nd           | Version:  8
     \\/     M anipulation  |
\*---------------------------------------------------------------------------*/
FoamFile
{
    version     2.0;
    format      ascii;
    class       volScalarField;
    location    "1400";
    object      T;
}
// * * * * * * * * * * * * * * * * * * * * * * * * * * * * * * * * * * * * * //

dimensions      [0 0 0 1 0 0 0];

internalField   nonuniform List<scalar> 
46000
(
311.504
311.139
310.633
310.177
309.794
309.471
309.193
308.962
308.768
308.606
308.471
308.358
308.265
308.189
308.127
308.079
308.041
308.014
307.996
307.985
307.982
307.985
307.993
308.006
308.023
308.04
308.061
308.083
308.108
308.135
308.163
308.191
308.221
308.25
308.279
308.308
308.336
308.364
308.39
308.415
308.439
308.461
308.482
308.502
308.52
308.536
308.551
308.565
308.577
308.589
308.599
308.608
308.616
308.624
308.631
308.637
308.643
308.648
308.652
308.657
308.661
308.665
308.667
308.67
308.672
308.675
308.677
308.679
308.681
308.683
308.685
308.687
308.69
308.692
308.694
308.695
308.697
308.699
308.701
308.702
308.704
308.705
308.706
308.707
308.708
308.709
308.71
308.71
308.71
308.71
308.71
308.709
308.708
308.707
308.706
308.705
308.703
308.702
308.7
308.698
308.695
308.693
308.69
308.687
308.684
308.68
308.677
308.673
308.669
308.665
308.661
308.656
308.652
308.647
308.642
308.637
308.631
308.626
308.62
308.614
308.608
308.602
308.595
308.588
308.581
308.574
308.566
308.559
308.551
308.542
308.534
308.525
308.516
308.506
308.497
308.487
308.476
308.466
308.455
308.444
308.432
308.421
308.409
308.397
308.385
308.372
308.36
308.348
308.336
308.324
308.312
308.3
308.289
308.278
308.268
308.259
308.251
308.244
308.238
308.233
308.23
308.229
308.23
308.233
308.239
308.248
308.259
308.274
308.292
308.313
308.338
308.367
308.4
308.437
308.48
308.528
308.582
308.642
308.708
308.78
308.859
308.945
309.039
309.139
309.246
309.36
309.48
309.607
309.738
309.874
310.013
310.153
310.296
310.437
310.581
310.735
310.905
311.112
311.391
311.661
311.504
311.139
310.633
310.177
309.794
309.471
309.193
308.962
308.768
308.606
308.471
308.358
308.265
308.189
308.127
308.079
308.041
308.014
307.996
307.985
307.982
307.985
307.993
308.006
308.023
308.04
308.061
308.083
308.108
308.135
308.163
308.191
308.221
308.25
308.279
308.308
308.336
308.364
308.39
308.415
308.439
308.461
308.482
308.502
308.519
308.536
308.551
308.565
308.577
308.589
308.599
308.608
308.616
308.624
308.631
308.637
308.643
308.648
308.652
308.657
308.661
308.665
308.667
308.67
308.672
308.675
308.677
308.679
308.681
308.683
308.685
308.687
308.69
308.692
308.694
308.696
308.697
308.699
308.701
308.702
308.704
308.705
308.706
308.707
308.708
308.709
308.71
308.71
308.71
308.71
308.71
308.709
308.708
308.707
308.706
308.705
308.703
308.702
308.7
308.698
308.695
308.693
308.69
308.687
308.684
308.68
308.677
308.673
308.669
308.665
308.661
308.656
308.652
308.647
308.642
308.637
308.631
308.626
308.62
308.614
308.608
308.602
308.595
308.588
308.581
308.574
308.566
308.559
308.551
308.542
308.534
308.525
308.516
308.506
308.497
308.487
308.476
308.466
308.455
308.444
308.432
308.421
308.409
308.397
308.385
308.372
308.36
308.348
308.336
308.324
308.312
308.3
308.289
308.278
308.268
308.259
308.251
308.244
308.238
308.233
308.23
308.229
308.23
308.233
308.239
308.248
308.259
308.274
308.292
308.313
308.338
308.367
308.4
308.437
308.48
308.528
308.582
308.642
308.708
308.78
308.859
308.945
309.038
309.139
309.246
309.36
309.48
309.607
309.738
309.874
310.013
310.153
310.296
310.437
310.581
310.735
310.905
311.112
311.391
311.661
308.629
308.012
307.315
306.745
306.29
305.923
305.632
305.399
305.211
305.061
304.941
304.846
304.773
304.717
304.676
304.649
304.634
304.628
304.631
304.643
304.661
304.685
304.714
304.748
304.785
304.826
304.868
304.913
304.959
305.006
305.053
305.101
305.148
305.194
305.239
305.283
305.325
305.366
305.404
305.439
305.473
305.503
305.532
305.557
305.581
305.601
305.62
305.636
305.65
305.662
305.672
305.68
305.687
305.693
305.697
305.7
305.703
305.704
305.705
305.705
305.705
305.705
305.704
305.703
305.701
305.7
305.698
305.697
305.696
305.695
305.694
305.693
305.693
305.692
305.692
305.693
305.693
305.694
305.695
305.696
305.697
305.699
305.701
305.703
305.705
305.708
305.711
305.714
305.717
305.72
305.724
305.727
305.731
305.735
305.739
305.744
305.748
305.752
305.757
305.762
305.766
305.771
305.776
305.781
305.786
305.79
305.795
305.8
305.805
305.81
305.815
305.82
305.824
305.829
305.834
305.838
305.842
305.847
305.851
305.855
305.858
305.862
305.865
305.868
305.871
305.874
305.876
305.879
305.88
305.882
305.883
305.884
305.885
305.885
305.885
305.885
305.884
305.883
305.882
305.881
305.879
305.877
305.874
305.872
305.869
305.866
305.863
305.86
305.857
305.854
305.851
305.848
305.846
305.844
305.843
305.842
305.843
305.844
305.847
305.85
305.856
305.862
305.871
305.882
305.895
305.911
305.93
305.951
305.976
306.004
306.036
306.072
306.112
306.157
306.207
306.262
306.323
306.39
306.464
306.544
306.631
306.724
306.826
306.934
307.05
307.173
307.303
307.438
307.578
307.722
307.866
308.011
308.153
308.29
308.424
308.558
308.704
308.875
309.092
309.336
308.629
308.012
307.315
306.745
306.29
305.923
305.632
305.399
305.211
305.061
304.941
304.846
304.773
304.717
304.676
304.649
304.633
304.628
304.631
304.643
304.661
304.685
304.714
304.748
304.785
304.826
304.868
304.913
304.959
305.006
305.053
305.101
305.148
305.194
305.239
305.283
305.325
305.366
305.404
305.439
305.473
305.503
305.532
305.557
305.581
305.601
305.62
305.636
305.65
305.662
305.672
305.68
305.687
305.693
305.697
305.7
305.703
305.704
305.705
305.705
305.705
305.705
305.704
305.703
305.701
305.7
305.698
305.697
305.696
305.695
305.694
305.693
305.693
305.692
305.692
305.693
305.693
305.694
305.695
305.696
305.697
305.699
305.701
305.703
305.705
305.708
305.711
305.714
305.717
305.72
305.724
305.727
305.731
305.735
305.739
305.744
305.748
305.752
305.757
305.762
305.766
305.771
305.776
305.781
305.786
305.79
305.795
305.8
305.805
305.81
305.815
305.82
305.824
305.829
305.834
305.838
305.842
305.847
305.851
305.855
305.858
305.862
305.865
305.868
305.871
305.874
305.876
305.879
305.88
305.882
305.883
305.884
305.885
305.885
305.885
305.885
305.884
305.883
305.882
305.881
305.879
305.877
305.874
305.872
305.869
305.866
305.863
305.86
305.857
305.854
305.851
305.848
305.846
305.844
305.843
305.842
305.843
305.844
305.847
305.85
305.856
305.862
305.871
305.882
305.895
305.911
305.93
305.951
305.976
306.004
306.036
306.072
306.112
306.157
306.207
306.262
306.323
306.39
306.464
306.544
306.63
306.724
306.826
306.934
307.05
307.173
307.303
307.438
307.578
307.722
307.866
308.011
308.153
308.29
308.424
308.558
308.704
308.875
309.092
309.336
306.479
305.96
305.427
304.987
304.626
304.332
304.094
303.903
303.749
303.625
303.528
303.452
303.395
303.354
303.326
303.31
303.305
303.309
303.321
303.34
303.366
303.397
303.433
303.473
303.516
303.563
303.612
303.662
303.714
303.766
303.819
303.872
303.924
303.976
304.026
304.074
304.121
304.166
304.208
304.248
304.285
304.32
304.351
304.38
304.406
304.43
304.45
304.468
304.484
304.498
304.509
304.519
304.527
304.533
304.538
304.541
304.543
304.545
304.545
304.545
304.544
304.543
304.542
304.54
304.538
304.535
304.533
304.531
304.529
304.527
304.525
304.524
304.522
304.521
304.521
304.52
304.52
304.52
304.521
304.522
304.523
304.525
304.527
304.529
304.532
304.535
304.539
304.542
304.546
304.551
304.555
304.56
304.565
304.571
304.576
304.582
304.588
304.595
304.601
304.608
304.615
304.622
304.629
304.636
304.644
304.651
304.659
304.666
304.674
304.682
304.689
304.697
304.705
304.712
304.72
304.728
304.735
304.742
304.75
304.757
304.764
304.771
304.777
304.784
304.79
304.796
304.802
304.807
304.812
304.817
304.822
304.826
304.83
304.834
304.838
304.841
304.843
304.846
304.848
304.85
304.851
304.852
304.853
304.854
304.855
304.855
304.855
304.856
304.856
304.856
304.857
304.858
304.859
304.86
304.862
304.865
304.869
304.873
304.879
304.886
304.894
304.904
304.916
304.93
304.946
304.965
304.986
305.01
305.037
305.068
305.102
305.141
305.183
305.23
305.282
305.34
305.402
305.471
305.545
305.626
305.714
305.808
305.909
306.017
306.132
306.253
306.38
306.512
306.648
306.786
306.924
307.061
307.193
307.319
307.437
307.547
307.65
307.751
307.841
307.907
306.479
305.96
305.427
304.987
304.625
304.332
304.094
303.903
303.748
303.625
303.528
303.452
303.395
303.354
303.326
303.31
303.305
303.309
303.321
303.34
303.366
303.397
303.433
303.473
303.516
303.563
303.612
303.662
303.714
303.766
303.819
303.872
303.924
303.976
304.026
304.074
304.121
304.166
304.208
304.248
304.285
304.32
304.351
304.38
304.406
304.43
304.45
304.468
304.484
304.498
304.509
304.519
304.527
304.533
304.538
304.541
304.543
304.545
304.545
304.545
304.544
304.543
304.542
304.54
304.538
304.535
304.533
304.531
304.529
304.527
304.525
304.524
304.522
304.521
304.521
304.52
304.52
304.52
304.521
304.522
304.523
304.525
304.527
304.529
304.532
304.535
304.539
304.542
304.546
304.551
304.555
304.56
304.565
304.571
304.576
304.582
304.588
304.595
304.601
304.608
304.615
304.622
304.629
304.636
304.644
304.651
304.659
304.666
304.674
304.682
304.689
304.697
304.705
304.712
304.72
304.728
304.735
304.742
304.75
304.757
304.764
304.771
304.777
304.784
304.79
304.796
304.802
304.807
304.812
304.817
304.822
304.826
304.83
304.834
304.838
304.841
304.843
304.846
304.848
304.85
304.851
304.852
304.853
304.854
304.855
304.855
304.855
304.856
304.856
304.856
304.857
304.858
304.859
304.86
304.862
304.865
304.869
304.873
304.879
304.886
304.894
304.904
304.916
304.93
304.946
304.965
304.986
305.01
305.037
305.068
305.102
305.141
305.183
305.23
305.282
305.34
305.402
305.471
305.545
305.626
305.714
305.808
305.909
306.017
306.132
306.253
306.38
306.512
306.648
306.786
306.924
307.061
307.193
307.319
307.437
307.547
307.65
307.751
307.841
307.907
304.921
304.539
304.165
303.846
303.575
303.348
303.161
303.007
302.882
302.782
302.703
302.642
302.597
302.566
302.547
302.538
302.539
302.548
302.565
302.588
302.617
302.652
302.69
302.733
302.779
302.828
302.879
302.932
302.986
303.04
303.095
303.15
303.205
303.258
303.311
303.362
303.41
303.457
303.502
303.544
303.583
303.62
303.654
303.684
303.713
303.738
303.761
303.781
303.798
303.813
303.826
303.837
303.846
303.853
303.859
303.863
303.866
303.868
303.869
303.869
303.869
303.868
303.867
303.865
303.863
303.86
303.858
303.856
303.853
303.851
303.849
303.848
303.846
303.845
303.844
303.843
303.843
303.843
303.844
303.844
303.846
303.847
303.849
303.851
303.854
303.857
303.861
303.865
303.869
303.873
303.878
303.883
303.889
303.894
303.9
303.907
303.913
303.92
303.927
303.934
303.942
303.95
303.957
303.965
303.974
303.982
303.99
303.999
304.007
304.016
304.025
304.033
304.042
304.051
304.059
304.068
304.077
304.085
304.094
304.102
304.11
304.118
304.126
304.134
304.141
304.149
304.156
304.163
304.169
304.176
304.182
304.187
304.193
304.198
304.203
304.208
304.212
304.216
304.219
304.223
304.226
304.229
304.231
304.234
304.236
304.238
304.24
304.242
304.244
304.246
304.248
304.251
304.253
304.257
304.261
304.265
304.271
304.277
304.284
304.293
304.303
304.315
304.329
304.345
304.363
304.383
304.406
304.432
304.461
304.493
304.529
304.569
304.613
304.662
304.715
304.773
304.837
304.907
304.982
305.063
305.151
305.245
305.345
305.452
305.565
305.683
305.807
305.935
306.066
306.198
306.329
306.458
306.582
306.698
306.804
306.898
306.977
307.039
307.072
307.059
304.92
304.539
304.165
303.846
303.575
303.348
303.161
303.007
302.882
302.782
302.703
302.642
302.597
302.566
302.547
302.538
302.539
302.548
302.565
302.588
302.617
302.652
302.69
302.733
302.779
302.828
302.879
302.932
302.986
303.04
303.095
303.15
303.205
303.258
303.311
303.361
303.41
303.457
303.502
303.544
303.583
303.62
303.654
303.684
303.713
303.738
303.76
303.78
303.798
303.813
303.826
303.837
303.846
303.853
303.859
303.863
303.866
303.868
303.869
303.869
303.869
303.868
303.867
303.865
303.863
303.86
303.858
303.856
303.853
303.851
303.849
303.848
303.846
303.845
303.844
303.843
303.843
303.843
303.844
303.844
303.846
303.847
303.849
303.851
303.854
303.857
303.861
303.865
303.869
303.873
303.878
303.883
303.889
303.894
303.9
303.907
303.913
303.92
303.927
303.934
303.942
303.95
303.957
303.965
303.974
303.982
303.99
303.999
304.007
304.016
304.025
304.033
304.042
304.051
304.059
304.068
304.077
304.085
304.094
304.102
304.11
304.118
304.126
304.134
304.141
304.149
304.156
304.163
304.169
304.176
304.182
304.187
304.193
304.198
304.203
304.208
304.212
304.216
304.219
304.223
304.226
304.229
304.231
304.234
304.236
304.238
304.24
304.242
304.244
304.246
304.248
304.251
304.253
304.257
304.261
304.265
304.271
304.277
304.284
304.293
304.303
304.315
304.329
304.345
304.363
304.383
304.406
304.432
304.461
304.493
304.529
304.569
304.613
304.662
304.715
304.773
304.837
304.907
304.982
305.063
305.151
305.245
305.345
305.452
305.565
305.683
305.807
305.935
306.066
306.198
306.329
306.458
306.582
306.698
306.804
306.898
306.977
307.039
307.072
307.059
303.747
303.47
303.209
302.981
302.783
302.613
302.469
302.349
302.25
302.17
302.108
302.06
302.026
302.003
301.991
301.989
301.995
302.008
302.028
302.054
302.086
302.122
302.162
302.206
302.254
302.304
302.356
302.409
302.464
302.52
302.576
302.631
302.687
302.741
302.795
302.847
302.897
302.945
302.99
303.034
303.074
303.112
303.148
303.18
303.21
303.236
303.26
303.282
303.301
303.317
303.331
303.343
303.353
303.362
303.368
303.374
303.377
303.38
303.382
303.383
303.383
303.382
303.381
303.38
303.378
303.376
303.374
303.371
303.369
303.367
303.365
303.363
303.362
303.36
303.359
303.359
303.358
303.358
303.359
303.359
303.36
303.362
303.364
303.366
303.368
303.371
303.375
303.378
303.382
303.387
303.391
303.397
303.402
303.408
303.414
303.42
303.427
303.433
303.441
303.448
303.455
303.463
303.471
303.479
303.488
303.496
303.505
303.513
303.522
303.531
303.54
303.549
303.558
303.567
303.576
303.585
303.595
303.603
303.612
303.621
303.63
303.639
303.647
303.655
303.664
303.672
303.679
303.687
303.694
303.701
303.708
303.715
303.721
303.727
303.733
303.738
303.743
303.748
303.753
303.757
303.761
303.765
303.768
303.772
303.775
303.778
303.781
303.784
303.787
303.791
303.794
303.798
303.802
303.807
303.812
303.818
303.824
303.832
303.841
303.851
303.863
303.876
303.891
303.908
303.928
303.95
303.974
304.001
304.032
304.066
304.103
304.144
304.19
304.24
304.294
304.353
304.418
304.488
304.564
304.645
304.733
304.826
304.925
305.031
305.142
305.257
305.378
305.501
305.627
305.754
305.879
306.002
306.118
306.226
306.323
306.407
306.473
306.517
306.534
306.508
303.747
303.47
303.208
302.981
302.783
302.613
302.469
302.348
302.25
302.17
302.108
302.06
302.026
302.003
301.991
301.989
301.995
302.008
302.028
302.054
302.086
302.122
302.162
302.206
302.254
302.304
302.356
302.409
302.464
302.52
302.576
302.631
302.687
302.741
302.795
302.847
302.897
302.945
302.99
303.034
303.074
303.112
303.148
303.18
303.209
303.236
303.26
303.282
303.301
303.317
303.331
303.343
303.353
303.362
303.368
303.374
303.377
303.38
303.382
303.383
303.383
303.382
303.381
303.38
303.378
303.376
303.374
303.371
303.369
303.367
303.365
303.363
303.362
303.36
303.359
303.359
303.358
303.358
303.359
303.359
303.36
303.362
303.364
303.366
303.368
303.371
303.375
303.378
303.382
303.387
303.391
303.396
303.402
303.408
303.414
303.42
303.427
303.433
303.441
303.448
303.455
303.463
303.471
303.479
303.488
303.496
303.505
303.513
303.522
303.531
303.54
303.549
303.558
303.567
303.576
303.585
303.595
303.603
303.612
303.621
303.63
303.639
303.647
303.655
303.664
303.672
303.679
303.687
303.694
303.701
303.708
303.715
303.721
303.727
303.733
303.738
303.743
303.748
303.753
303.757
303.761
303.765
303.768
303.772
303.775
303.778
303.781
303.784
303.787
303.791
303.794
303.798
303.802
303.807
303.812
303.818
303.824
303.832
303.841
303.851
303.863
303.876
303.891
303.908
303.928
303.949
303.974
304.001
304.032
304.066
304.103
304.144
304.19
304.24
304.294
304.353
304.418
304.488
304.564
304.645
304.733
304.826
304.925
305.031
305.142
305.257
305.378
305.501
305.627
305.754
305.879
306.002
306.118
306.226
306.323
306.407
306.473
306.517
306.534
306.508
302.826
302.625
302.443
302.283
302.142
302.017
301.909
301.818
301.742
301.681
301.634
301.598
301.574
301.559
301.554
301.557
301.567
301.584
301.607
301.635
301.668
301.706
301.747
301.792
301.84
301.891
301.943
301.997
302.052
302.108
302.164
302.22
302.276
302.331
302.384
302.437
302.487
302.536
302.582
302.626
302.668
302.706
302.742
302.776
302.806
302.834
302.859
302.882
302.902
302.919
302.934
302.947
302.958
302.968
302.975
302.981
302.986
302.989
302.992
302.993
302.994
302.994
302.993
302.992
302.99
302.989
302.987
302.985
302.983
302.981
302.979
302.977
302.976
302.974
302.973
302.972
302.972
302.972
302.972
302.973
302.973
302.975
302.976
302.978
302.981
302.983
302.987
302.99
302.994
302.998
303.003
303.008
303.013
303.018
303.024
303.03
303.037
303.043
303.05
303.058
303.065
303.073
303.081
303.089
303.097
303.105
303.114
303.123
303.131
303.14
303.149
303.158
303.168
303.177
303.186
303.195
303.204
303.213
303.223
303.232
303.241
303.25
303.258
303.267
303.275
303.284
303.292
303.3
303.308
303.315
303.322
303.329
303.336
303.343
303.349
303.355
303.361
303.366
303.371
303.376
303.381
303.386
303.39
303.394
303.398
303.402
303.406
303.41
303.414
303.418
303.423
303.427
303.432
303.438
303.444
303.451
303.459
303.468
303.478
303.49
303.502
303.517
303.534
303.552
303.573
303.596
303.622
303.651
303.682
303.718
303.756
303.799
303.846
303.897
303.952
304.012
304.078
304.149
304.225
304.306
304.393
304.486
304.585
304.688
304.797
304.91
305.027
305.147
305.269
305.39
305.51
305.626
305.736
305.838
305.929
306.006
306.066
306.106
306.121
306.104
302.826
302.625
302.443
302.283
302.142
302.017
301.909
301.818
301.742
301.681
301.634
301.598
301.574
301.559
301.554
301.557
301.567
301.584
301.607
301.635
301.668
301.706
301.747
301.792
301.84
301.891
301.943
301.997
302.052
302.108
302.164
302.22
302.276
302.331
302.384
302.437
302.487
302.536
302.582
302.626
302.668
302.706
302.742
302.776
302.806
302.834
302.859
302.882
302.902
302.919
302.934
302.947
302.958
302.968
302.975
302.981
302.986
302.989
302.992
302.993
302.994
302.994
302.993
302.992
302.99
302.989
302.987
302.985
302.983
302.981
302.979
302.977
302.976
302.974
302.973
302.972
302.972
302.972
302.972
302.973
302.973
302.975
302.976
302.978
302.981
302.983
302.987
302.99
302.994
302.998
303.003
303.008
303.013
303.018
303.024
303.03
303.037
303.043
303.05
303.058
303.065
303.073
303.081
303.089
303.097
303.105
303.114
303.123
303.131
303.14
303.149
303.158
303.167
303.177
303.186
303.195
303.204
303.213
303.223
303.232
303.241
303.25
303.258
303.267
303.275
303.284
303.292
303.3
303.308
303.315
303.322
303.329
303.336
303.343
303.349
303.355
303.361
303.366
303.371
303.376
303.381
303.386
303.39
303.394
303.398
303.402
303.406
303.41
303.414
303.418
303.423
303.427
303.432
303.438
303.444
303.451
303.459
303.468
303.478
303.49
303.502
303.517
303.534
303.552
303.573
303.596
303.622
303.651
303.682
303.718
303.756
303.799
303.846
303.897
303.952
304.012
304.078
304.149
304.225
304.306
304.393
304.486
304.585
304.688
304.797
304.91
305.027
305.147
305.269
305.39
305.51
305.626
305.736
305.838
305.929
306.006
306.066
306.106
306.121
306.104
302.08
301.937
301.812
301.704
301.605
301.517
301.439
301.372
301.316
301.272
301.237
301.213
301.197
301.19
301.191
301.198
301.212
301.232
301.258
301.288
301.323
301.361
301.404
301.449
301.497
301.548
301.6
301.654
301.709
301.765
301.821
301.876
301.932
301.986
302.04
302.092
302.143
302.191
302.238
302.282
302.324
302.363
302.4
302.433
302.465
302.493
302.519
302.542
302.563
302.581
302.597
302.611
302.623
302.633
302.641
302.648
302.653
302.657
302.66
302.662
302.664
302.664
302.664
302.663
302.662
302.66
302.659
302.657
302.655
302.653
302.652
302.65
302.648
302.647
302.646
302.645
302.645
302.644
302.644
302.645
302.646
302.647
302.648
302.65
302.652
302.655
302.658
302.661
302.665
302.669
302.673
302.678
302.683
302.688
302.693
302.699
302.706
302.712
302.719
302.726
302.733
302.74
302.748
302.756
302.764
302.772
302.781
302.789
302.798
302.807
302.816
302.825
302.834
302.843
302.852
302.861
302.87
302.88
302.889
302.898
302.907
302.916
302.925
302.934
302.942
302.951
302.959
302.967
302.976
302.983
302.991
302.998
303.005
303.012
303.019
303.025
303.032
303.038
303.043
303.049
303.054
303.059
303.064
303.069
303.074
303.078
303.083
303.087
303.092
303.097
303.102
303.108
303.114
303.121
303.128
303.136
303.145
303.155
303.166
303.179
303.193
303.209
303.226
303.246
303.268
303.293
303.32
303.35
303.383
303.42
303.46
303.504
303.552
303.604
303.66
303.722
303.788
303.859
303.936
304.017
304.104
304.196
304.294
304.396
304.503
304.614
304.727
304.844
304.961
305.078
305.193
305.304
305.41
305.507
305.593
305.667
305.725
305.765
305.784
305.781
302.08
301.937
301.812
301.704
301.605
301.517
301.439
301.372
301.316
301.272
301.237
301.213
301.197
301.19
301.191
301.198
301.212
301.232
301.257
301.288
301.323
301.361
301.404
301.449
301.497
301.548
301.6
301.654
301.709
301.765
301.821
301.876
301.932
301.986
302.04
302.092
302.143
302.191
302.238
302.282
302.324
302.363
302.4
302.433
302.465
302.493
302.519
302.542
302.563
302.581
302.597
302.611
302.623
302.633
302.641
302.648
302.653
302.657
302.66
302.662
302.664
302.664
302.664
302.663
302.662
302.66
302.659
302.657
302.655
302.653
302.652
302.65
302.648
302.647
302.646
302.645
302.645
302.644
302.644
302.645
302.646
302.647
302.648
302.65
302.652
302.655
302.658
302.661
302.665
302.669
302.673
302.678
302.683
302.688
302.693
302.699
302.706
302.712
302.719
302.726
302.733
302.74
302.748
302.756
302.764
302.772
302.781
302.789
302.798
302.807
302.816
302.825
302.834
302.843
302.852
302.861
302.87
302.88
302.889
302.898
302.907
302.916
302.925
302.934
302.942
302.951
302.959
302.967
302.976
302.983
302.991
302.998
303.005
303.012
303.019
303.025
303.032
303.038
303.043
303.049
303.054
303.059
303.064
303.069
303.073
303.078
303.083
303.087
303.092
303.097
303.102
303.108
303.114
303.121
303.128
303.136
303.145
303.155
303.166
303.179
303.193
303.209
303.226
303.246
303.268
303.293
303.32
303.35
303.383
303.42
303.46
303.504
303.552
303.604
303.66
303.722
303.788
303.859
303.936
304.017
304.104
304.196
304.294
304.396
304.503
304.614
304.727
304.844
304.961
305.078
305.193
305.304
305.41
305.507
305.593
305.667
305.725
305.765
305.784
305.781
301.467
301.368
301.287
301.215
301.15
301.089
301.035
300.989
300.95
300.92
300.897
300.882
300.874
300.874
300.879
300.891
300.909
300.932
300.959
300.991
301.027
301.067
301.109
301.155
301.203
301.254
301.306
301.359
301.414
301.469
301.524
301.579
301.634
301.688
301.741
301.793
301.843
301.892
301.938
301.982
302.024
302.063
302.099
302.133
302.165
302.194
302.22
302.244
302.265
302.284
302.3
302.315
302.327
302.338
302.347
302.354
302.36
302.365
302.368
302.371
302.372
302.373
302.373
302.373
302.372
302.371
302.37
302.368
302.367
302.365
302.363
302.362
302.36
302.359
302.358
302.357
302.357
302.356
302.356
302.357
302.357
302.358
302.36
302.361
302.363
302.366
302.368
302.371
302.375
302.379
302.383
302.387
302.392
302.397
302.402
302.408
302.414
302.42
302.426
302.433
302.44
302.447
302.454
302.462
302.47
302.478
302.486
302.494
302.503
302.512
302.52
302.529
302.538
302.547
302.556
302.565
302.575
302.584
302.593
302.602
302.611
302.62
302.629
302.638
302.647
302.655
302.664
302.672
302.681
302.689
302.696
302.704
302.711
302.719
302.726
302.732
302.739
302.745
302.751
302.757
302.763
302.769
302.774
302.779
302.785
302.79
302.795
302.8
302.806
302.812
302.818
302.824
302.831
302.838
302.847
302.856
302.866
302.877
302.889
302.903
302.918
302.935
302.954
302.975
302.998
303.024
303.053
303.084
303.119
303.157
303.198
303.243
303.293
303.346
303.404
303.466
303.533
303.605
303.682
303.763
303.85
303.942
304.038
304.139
304.244
304.352
304.464
304.577
304.69
304.803
304.914
305.021
305.123
305.216
305.3
305.372
305.43
305.473
305.499
305.506
301.467
301.368
301.287
301.215
301.149
301.089
301.035
300.989
300.95
300.919
300.897
300.882
300.874
300.874
300.879
300.891
300.909
300.932
300.959
300.991
301.027
301.067
301.109
301.155
301.203
301.254
301.306
301.359
301.414
301.469
301.524
301.579
301.634
301.688
301.741
301.793
301.843
301.892
301.938
301.982
302.024
302.063
302.099
302.133
302.165
302.194
302.22
302.244
302.265
302.284
302.3
302.315
302.327
302.338
302.347
302.354
302.36
302.365
302.368
302.371
302.372
302.373
302.373
302.373
302.372
302.371
302.37
302.368
302.367
302.365
302.363
302.362
302.36
302.359
302.358
302.357
302.357
302.356
302.356
302.357
302.357
302.358
302.36
302.361
302.363
302.366
302.368
302.371
302.375
302.379
302.383
302.387
302.392
302.397
302.402
302.408
302.414
302.42
302.426
302.433
302.44
302.447
302.454
302.462
302.47
302.478
302.486
302.494
302.503
302.512
302.52
302.529
302.538
302.547
302.556
302.565
302.575
302.584
302.593
302.602
302.611
302.62
302.629
302.638
302.647
302.655
302.664
302.672
302.681
302.689
302.696
302.704
302.711
302.719
302.726
302.732
302.739
302.745
302.751
302.757
302.763
302.769
302.774
302.779
302.785
302.79
302.795
302.8
302.806
302.812
302.818
302.824
302.831
302.838
302.847
302.856
302.866
302.877
302.889
302.903
302.918
302.935
302.954
302.975
302.998
303.024
303.053
303.084
303.119
303.157
303.198
303.243
303.293
303.346
303.404
303.466
303.533
303.605
303.682
303.763
303.85
303.942
304.038
304.139
304.244
304.352
304.464
304.577
304.69
304.803
304.914
305.021
305.123
305.216
305.3
305.372
305.43
305.473
305.499
305.506
300.958
300.893
300.845
300.801
300.76
300.721
300.686
300.656
300.631
300.613
300.6
300.593
300.593
300.598
300.608
300.624
300.644
300.669
300.699
300.732
300.769
300.809
300.852
300.898
300.946
300.996
301.047
301.1
301.154
301.208
301.263
301.317
301.371
301.424
301.477
301.528
301.577
301.625
301.671
301.714
301.755
301.794
301.831
301.865
301.896
301.925
301.952
301.975
301.997
302.016
302.033
302.048
302.061
302.072
302.081
302.089
302.096
302.101
302.105
302.108
302.11
302.111
302.111
302.111
302.111
302.11
302.109
302.108
302.106
302.105
302.103
302.102
302.1
302.099
302.098
302.097
302.097
302.096
302.096
302.097
302.097
302.098
302.099
302.101
302.103
302.105
302.107
302.11
302.113
302.117
302.121
302.125
302.129
302.134
302.139
302.144
302.15
302.156
302.162
302.168
302.175
302.182
302.189
302.197
302.204
302.212
302.22
302.228
302.236
302.245
302.253
302.262
302.271
302.28
302.289
302.298
302.307
302.316
302.325
302.334
302.343
302.352
302.361
302.37
302.379
302.387
302.396
302.404
302.413
302.421
302.429
302.437
302.444
302.452
302.459
302.466
302.473
302.48
302.486
302.492
302.499
302.505
302.51
302.516
302.522
302.528
302.534
302.54
302.546
302.552
302.559
302.566
302.574
302.582
302.591
302.601
302.612
302.624
302.638
302.653
302.669
302.687
302.708
302.73
302.755
302.782
302.812
302.845
302.881
302.92
302.963
303.009
303.06
303.114
303.173
303.236
303.304
303.376
303.454
303.536
303.622
303.713
303.809
303.909
304.012
304.118
304.227
304.337
304.448
304.557
304.665
304.768
304.867
304.958
305.039
305.111
305.17
305.216
305.249
305.264
300.958
300.893
300.845
300.801
300.76
300.721
300.686
300.656
300.631
300.613
300.6
300.593
300.593
300.598
300.608
300.624
300.644
300.669
300.699
300.732
300.769
300.809
300.852
300.898
300.946
300.996
301.047
301.1
301.154
301.208
301.263
301.317
301.371
301.424
301.477
301.528
301.577
301.625
301.671
301.714
301.755
301.794
301.831
301.865
301.896
301.925
301.952
301.975
301.997
302.016
302.033
302.048
302.061
302.072
302.081
302.089
302.096
302.101
302.105
302.108
302.11
302.111
302.111
302.111
302.111
302.11
302.109
302.107
302.106
302.105
302.103
302.102
302.1
302.099
302.098
302.097
302.097
302.096
302.096
302.097
302.097
302.098
302.099
302.101
302.103
302.105
302.107
302.11
302.113
302.117
302.121
302.125
302.129
302.134
302.139
302.144
302.15
302.156
302.162
302.168
302.175
302.182
302.189
302.197
302.204
302.212
302.22
302.228
302.236
302.245
302.253
302.262
302.271
302.28
302.288
302.298
302.307
302.316
302.325
302.334
302.343
302.352
302.361
302.37
302.379
302.387
302.396
302.404
302.413
302.421
302.429
302.437
302.444
302.452
302.459
302.466
302.473
302.48
302.486
302.492
302.499
302.505
302.51
302.516
302.522
302.528
302.534
302.54
302.546
302.552
302.559
302.566
302.574
302.582
302.591
302.601
302.612
302.624
302.638
302.653
302.669
302.687
302.708
302.73
302.755
302.782
302.812
302.845
302.881
302.92
302.963
303.009
303.06
303.114
303.173
303.236
303.304
303.376
303.454
303.536
303.622
303.713
303.809
303.909
304.012
304.118
304.227
304.337
304.448
304.557
304.665
304.768
304.867
304.958
305.039
305.111
305.17
305.216
305.249
305.264
300.536
300.498
300.472
300.449
300.425
300.403
300.383
300.366
300.352
300.343
300.339
300.339
300.344
300.354
300.369
300.388
300.411
300.438
300.469
300.503
300.541
300.581
300.624
300.67
300.717
300.767
300.818
300.87
300.922
300.976
301.029
301.082
301.135
301.188
301.239
301.289
301.337
301.384
301.429
301.472
301.512
301.551
301.587
301.621
301.652
301.68
301.707
301.731
301.752
301.772
301.789
301.804
301.817
301.828
301.838
301.846
301.853
301.858
301.863
301.866
301.868
301.87
301.871
301.871
301.871
301.87
301.869
301.868
301.867
301.865
301.864
301.863
301.861
301.86
301.859
301.859
301.858
301.858
301.858
301.858
301.858
301.859
301.86
301.862
301.863
301.865
301.868
301.87
301.873
301.877
301.88
301.884
301.888
301.893
301.898
301.903
301.908
301.914
301.92
301.926
301.932
301.939
301.946
301.953
301.96
301.968
301.975
301.983
301.991
301.999
302.008