/*--------------------------------*- C++ -*----------------------------------*\
  =========                 |
  \\      /  F ield         | OpenFOAM: The Open Source CFD Toolbox
   \\    /   O peration     | Website:  https://openfoam.org
    \\  /    A nd           | Version:  8
     \\/     M anipulation  |
\*---------------------------------------------------------------------------*/
FoamFile
{
    version     2.0;
    format      ascii;
    class       volVectorField;
    location    "1400";
    object      U;
}
// * * * * * * * * * * * * * * * * * * * * * * * * * * * * * * * * * * * * * //

dimensions      [0 1 -1 0 0 0 0];

internalField   nonuniform List<vector> 
46000
(
(-0.00063584 -1.54476e-06 0.000683125)
(-0.00369302 3.64811e-07 0.00153518)
(-0.00755415 3.03038e-06 0.001952)
(-0.0106913 3.28615e-06 0.00167201)
(-0.0125374 1.75327e-06 0.0010567)
(-0.0130246 1.55284e-07 0.000371084)
(-0.0122859 -8.60357e-07 -0.000266003)
(-0.0105455 -1.41112e-06 -0.000797871)
(-0.00802639 -1.7236e-06 -0.00121823)
(-0.00493824 -1.8963e-06 -0.00153515)
(-0.00146921 -1.96751e-06 -0.00175421)
(0.00224184 -1.99193e-06 -0.001878)
(0.00602057 -2.00355e-06 -0.00191923)
(0.00977735 -1.9482e-06 -0.00189878)
(0.0134101 -1.73165e-06 -0.00182731)
(0.0168435 -1.37421e-06 -0.00171384)
(0.0200145 -1.02791e-06 -0.00156655)
(0.0228731 -8.49607e-07 -0.00139279)
(0.0253808 -8.7894e-07 -0.00119916)
(0.0275101 -1.05068e-06 -0.000991559)
(0.0292421 -1.30058e-06 -0.000775198)
(0.0305666 -1.62447e-06 -0.000554804)
(0.0314805 -2.025e-06 -0.000334766)
(0.0319885 -2.43356e-06 -0.000119238)
(0.0320989 -2.71674e-06 8.86752e-05)
(0.031833 -2.76203e-06 0.000288295)
(0.0311998 -2.54584e-06 0.000478783)
(0.0302215 -2.10228e-06 0.000657808)
(0.0289207 -1.45352e-06 0.00082347)
(0.0273233 -5.91803e-07 0.000974353)
(0.0254574 4.59965e-07 0.00110947)
(0.0233526 1.57976e-06 0.00122819)
(0.0210391 2.55013e-06 0.00133013)
(0.018548 3.1339e-06 0.00141513)
(0.0159105 3.14993e-06 0.00148323)
(0.0131578 2.4938e-06 0.0015347)
(0.0103202 1.11876e-06 0.00157005)
(0.00742691 -9.70953e-07 0.00158993)
(0.00450496 -3.6858e-06 0.00159514)
(0.00158431 -6.79545e-06 0.00158636)
(-0.00132107 -9.84562e-06 0.00156045)
(-0.00417018 -1.22562e-05 0.00151803)
(-0.00695162 -1.3757e-05 0.00146489)
(-0.00964527 -1.44251e-05 0.00140346)
(-0.0122338 -1.44622e-05 0.00133542)
(-0.014705 -1.40881e-05 0.00126348)
(-0.017047 -1.3486e-05 0.00118722)
(-0.0192505 -1.27378e-05 0.0011059)
(-0.0213061 -1.18659e-05 0.00102169)
(-0.0232087 -1.0942e-05 0.000935986)
(-0.0249541 -1.00398e-05 0.00084921)
(-0.0265394 -9.15258e-06 0.000762065)
(-0.0279634 -8.28237e-06 0.000675465)
(-0.029226 -7.49215e-06 0.000590113)
(-0.0303286 -6.80778e-06 0.000506457)
(-0.0312734 -6.20815e-06 0.000424964)
(-0.0320635 -5.70363e-06 0.000346026)
(-0.0327026 -5.31036e-06 0.00026996)
(-0.0331953 -5.01878e-06 0.000197051)
(-0.0335468 -4.83173e-06 0.000127411)
(-0.0337623 -4.74236e-06 6.10296e-05)
(-0.033848 -4.70733e-06 -1.95576e-06)
(-0.033809 -4.694e-06 -6.12931e-05)
(-0.0336523 -4.6841e-06 -0.000117291)
(-0.0333837 -4.64441e-06 -0.000170267)
(-0.0330091 -4.56955e-06 -0.000220073)
(-0.0325343 -4.48834e-06 -0.000266736)
(-0.0319652 -4.38856e-06 -0.000310477)
(-0.0313073 -4.23215e-06 -0.000351425)
(-0.0305662 -4.06011e-06 -0.000389563)
(-0.0297472 -3.95929e-06 -0.000425006)
(-0.0288553 -3.91695e-06 -0.000458043)
(-0.0278956 -3.85588e-06 -0.000488871)
(-0.0268728 -3.80615e-06 -0.000517576)
(-0.0257911 -3.85782e-06 -0.00054437)
(-0.0246544 -3.97538e-06 -0.000569454)
(-0.0234665 -4.06194e-06 -0.000592848)
(-0.0222312 -4.14895e-06 -0.000614562)
(-0.020952 -4.33342e-06 -0.000634743)
(-0.0196319 -4.62069e-06 -0.0006538)
(-0.0182738 -4.98735e-06 -0.00067177)
(-0.01688 -5.485e-06 -0.000688506)
(-0.015453 -6.16336e-06 -0.000704154)
(-0.0139956 -7.00201e-06 -0.000718549)
(-0.0125098 -7.98293e-06 -0.000732131)
(-0.0109975 -9.12549e-06 -0.000745785)
(-0.00946015 -1.04327e-05 -0.000759251)
(-0.0078996 -1.18935e-05 -0.000772066)
(-0.00631772 -1.3513e-05 -0.000784256)
(-0.00471607 -1.52499e-05 -0.000795999)
(-0.0030958 -1.69648e-05 -0.000807575)
(-0.00146035 -1.84821e-05 -0.000819013)
(0.000193938 -1.95592e-05 -0.000828616)
(0.00185932 -1.99484e-05 -0.000835816)
(0.00353695 -1.96038e-05 -0.000842117)
(0.00522499 -1.86624e-05 -0.000847879)
(0.00692236 -1.73589e-05 -0.000853022)
(0.00862785 -1.59191e-05 -0.000857572)
(0.0103401 -1.44865e-05 -0.000861614)
(0.0120578 -1.31423e-05 -0.000865146)
(0.0137795 -1.19431e-05 -0.000868138)
(0.0155043 -1.09097e-05 -0.000870673)
(0.0172312 -1.00165e-05 -0.000872863)
(0.018959 -9.22878e-06 -0.000874684)
(0.0206866 -8.53232e-06 -0.000876017)
(0.022413 -7.91587e-06 -0.000876811)
(0.0241369 -7.36209e-06 -0.000877089)
(0.025857 -6.88129e-06 -0.000876843)
(0.0275723 -6.51781e-06 -0.000876052)
(0.0292818 -6.28959e-06 -0.000874763)
(0.0309847 -6.13928e-06 -0.000873036)
(0.0326803 -5.97489e-06 -0.000870835)
(0.0343674 -5.74585e-06 -0.000868085)
(0.036045 -5.46002e-06 -0.000864819)
(0.0377122 -5.14845e-06 -0.000861154)
(0.0393677 -4.84556e-06 -0.000857117)
(0.0410109 -4.58711e-06 -0.000852639)
(0.0426411 -4.38702e-06 -0.000847741)
(0.0442579 -4.21315e-06 -0.000842606)
(0.0458611 -4.01813e-06 -0.000837386)
(0.0474504 -3.80402e-06 -0.000832035)
(0.0490256 -3.62981e-06 -0.000826425)
(0.0505863 -3.54161e-06 -0.000820573)
(0.0521323 -3.5133e-06 -0.000814637)
(0.0536634 -3.46891e-06 -0.000808725)
(0.0551794 -3.34537e-06 -0.00080281)
(0.0566805 -3.12007e-06 -0.000796873)
(0.0581668 -2.80018e-06 -0.000791018)
(0.0596386 -2.42064e-06 -0.000785392)
(0.0610964 -2.0515e-06 -0.000780056)
(0.0625408 -1.77309e-06 -0.000775)
(0.0639724 -1.61981e-06 -0.000770263)
(0.0653919 -1.55407e-06 -0.000765966)
(0.0668001 -1.50718e-06 -0.000762199)
(0.0681977 -1.43911e-06 -0.000758946)
(0.0695858 -1.34852e-06 -0.000756142)
(0.0709654 -1.23486e-06 -0.000753791)
(0.0723378 -1.07541e-06 -0.000751983)
(0.0737043 -8.50299e-07 -0.000750824)
(0.075066 -5.80858e-07 -0.000750379)
(0.0764242 -3.28813e-07 -0.000750687)
(0.0777798 -1.5742e-07 -0.000751768)
(0.0791343 -9.47194e-08 -0.0007536)
(0.0804888 -1.28102e-07 -0.0007561)
(0.0818445 -2.19449e-07 -0.000759164)
(0.0832025 -3.19756e-07 -0.000762723)
(0.0845638 -3.81348e-07 -0.000766739)
(0.0859294 -3.75661e-07 -0.000771133)
(0.0872996 -3.11997e-07 -0.000775711)
(0.0886747 -2.37021e-07 -0.00078018)
(0.090054 -2.03533e-07 -0.000784225)
(0.0914366 -2.27197e-07 -0.000787547)
(0.092821 -2.6721e-07 -0.000789834)
(0.0942054 -2.53418e-07 -0.000790698)
(0.0955868 -1.43654e-07 -0.000789647)
(0.0969616 3.56113e-08 -0.000786107)
(0.0983247 2.06378e-07 -0.000779439)
(0.0996696 3.05746e-07 -0.000768917)
(0.100989 3.43009e-07 -0.000753701)
(0.102274 3.87726e-07 -0.000732835)
(0.103514 4.93829e-07 -0.00070531)
(0.104697 6.38682e-07 -0.000670121)
(0.105808 7.49599e-07 -0.000626258)
(0.106831 7.91552e-07 -0.000572653)
(0.107748 8.09989e-07 -0.000508154)
(0.10854 8.71493e-07 -0.000431602)
(0.109184 9.78885e-07 -0.000341944)
(0.109657 1.07626e-06 -0.000238291)
(0.109933 1.14049e-06 -0.000119801)
(0.109985 1.21186e-06 1.41261e-05)
(0.109788 1.32789e-06 0.000165537)
(0.109305 1.44079e-06 0.000336792)
(0.108503 1.44636e-06 0.000528613)
(0.107346 1.31822e-06 0.000741304)
(0.1058 1.14607e-06 0.00097481)
(0.103827 1.02626e-06 0.0012286)
(0.101395 9.54242e-07 0.00150177)
(0.0984685 8.72726e-07 0.00179308)
(0.0950175 7.86533e-07 0.00210059)
(0.0910145 7.46583e-07 0.00242134)
(0.0864369 7.43637e-07 0.00275155)
(0.0812687 7.34951e-07 0.0030868)
(0.0755022 7.71962e-07 0.00342154)
(0.0691401 9.52744e-07 0.00374833)
(0.0621978 1.24759e-06 0.0040579)
(0.0547064 1.55755e-06 0.00433948)
(0.0467163 1.90712e-06 0.00458018)
(0.0383014 2.31734e-06 0.00476378)
(0.0295649 2.61114e-06 0.00486996)
(0.0206477 2.70283e-06 0.00487308)
(0.0117338 2.79753e-06 0.00474043)
(0.00309779 2.90021e-06 0.00442183)
(-0.00502195 2.60474e-06 0.00381583)
(-0.0119915 1.84712e-06 0.00288144)
(-0.017393 1.02399e-06 0.00160766)
(-0.0204947 4.64378e-07 -3.65064e-05)
(-0.0205593 2.76887e-07 -0.00194572)
(-0.0170195 3.46736e-07 -0.00366383)
(-0.0101984 5.0239e-07 -0.00408501)
(-0.00248689 5.97453e-07 -0.00261315)
(-0.000634141 -1.54476e-06 0.000681748)
(-0.0036883 3.64811e-07 0.00153029)
(-0.00755116 3.03038e-06 0.00194617)
(-0.0106924 3.28616e-06 0.00166736)
(-0.0125406 1.75328e-06 0.00105396)
(-0.0130275 1.55284e-07 0.000369961)
(-0.0122879 -8.60358e-07 -0.00026602)
(-0.0105466 -1.41112e-06 -0.000797191)
(-0.00802702 -1.7236e-06 -0.0012171)
(-0.00493856 -1.89631e-06 -0.00153366)
(-0.00146932 -1.96752e-06 -0.00175235)
(0.00224188 -1.99194e-06 -0.00187584)
(0.00602072 -2.00356e-06 -0.00191691)
(0.00977758 -1.94821e-06 -0.00189637)
(0.0134103 -1.73166e-06 -0.00182482)
(0.0168438 -1.37422e-06 -0.00171122)
(0.0200148 -1.02791e-06 -0.00156379)
(0.0228734 -8.49608e-07 -0.00138996)
(0.0253812 -8.7894e-07 -0.00119634)
(0.0275106 -1.05068e-06 -0.000988779)
(0.0292428 -1.30057e-06 -0.000772437)
(0.0305674 -1.62447e-06 -0.00055206)
(0.0314815 -2.02499e-06 -0.000332094)
(0.0319896 -2.43355e-06 -0.000116737)
(0.0321002 -2.71674e-06 9.09036e-05)
(0.0318345 -2.76203e-06 0.000290143)
(0.0312015 -2.54584e-06 0.000480119)
(0.0302234 -2.10228e-06 0.000658462)
(0.0289227 -1.45352e-06 0.000823279)
(0.0273255 -5.91803e-07 0.000973236)
(0.0254596 4.59966e-07 0.00110749)
(0.0233546 1.57976e-06 0.00122556)
(0.0210408 2.55013e-06 0.00132723)
(0.018549 3.1339e-06 0.00141249)
(0.0159106 3.14992e-06 0.00148157)
(0.0131568 2.49379e-06 0.0015349)
(0.0103181 1.11875e-06 0.00157307)
(0.00742383 -9.70946e-07 0.00159664)
(0.00450115 -3.68577e-06 0.00160609)
(0.00158029 -6.79539e-06 0.00160159)
(-0.00132448 -9.84561e-06 0.00157925)
(-0.00417227 -1.22563e-05 0.00153914)
(-0.0069521 -1.3757e-05 0.00148713)
(-0.00964435 -1.44252e-05 0.00142588)
(-0.012232 -1.44623e-05 0.00135736)
(-0.0147025 -1.40882e-05 0.00128445)
(-0.0170442 -1.3486e-05 0.00120687)
(-0.0192474 -1.27378e-05 0.00112407)
(-0.021303 -1.18659e-05 0.00103838)
(-0.0232056 -1.0942e-05 0.000951184)
(-0.0249511 -1.00398e-05 0.000862988)
(-0.0265367 -9.15257e-06 0.000774616)
(-0.0279608 -8.28235e-06 0.00068693)
(-0.0292236 -7.49213e-06 0.000600573)
(-0.0303263 -6.80777e-06 0.00051606)
(-0.0312713 -6.20814e-06 0.000433856)
(-0.0320614 -5.70362e-06 0.000354305)
(-0.0327006 -5.31035e-06 0.000277728)
(-0.0331935 -5.01877e-06 0.00020439)
(-0.0335451 -4.83173e-06 0.000134369)
(-0.0337607 -4.74236e-06 6.76801e-05)
(-0.0338465 -4.70733e-06 4.46051e-06)
(-0.0338076 -4.694e-06 -5.50771e-05)
(-0.0336508 -4.6841e-06 -0.00011121)
(-0.0333822 -4.64441e-06 -0.000164236)
(-0.0330076 -4.56955e-06 -0.000214088)
(-0.0325328 -4.48834e-06 -0.000260828)
(-0.0319636 -4.38856e-06 -0.000304578)
(-0.0313058 -4.23215e-06 -0.000345463)
(-0.0305647 -4.06011e-06 -0.000383622)
(-0.0297457 -3.9593e-06 -0.000419208)
(-0.028854 -3.91695e-06 -0.000452331)
(-0.0278946 -3.85589e-06 -0.000483099)
(-0.0268719 -3.80615e-06 -0.000511741)
(-0.0257903 -3.85783e-06 -0.000538539)
(-0.0246538 -3.97538e-06 -0.000563533)
(-0.0234661 -4.06195e-06 -0.00058663)
(-0.0222309 -4.14895e-06 -0.000607917)
(-0.0209517 -4.33343e-06 -0.000627592)
(-0.0196318 -4.6207e-06 -0.000646002)
(-0.0182738 -4.98736e-06 -0.000663154)
(-0.0168802 -5.48503e-06 -0.000678926)
(-0.0154534 -6.16339e-06 -0.000693436)
(-0.0139962 -7.00204e-06 -0.000706458)
(-0.0125108 -7.98298e-06 -0.000718419)
(-0.0109989 -9.12555e-06 -0.000730163)
(-0.00946194 -1.04327e-05 -0.000741378)
(-0.00790176 -1.18936e-05 -0.000751683)
(-0.00632009 -1.35131e-05 -0.000761307)
(-0.00471852 -1.525e-05 -0.00077055)
(-0.00309811 -1.69649e-05 -0.000779765)
(-0.00146215 -1.84822e-05 -0.000789289)
(0.000193226 -1.95593e-05 -0.000798052)
(0.00186006 -1.99485e-05 -0.000805742)
(0.00353901 -1.96038e-05 -0.000813462)
(0.00522796 -1.86625e-05 -0.000821121)
(0.00692583 -1.7359e-05 -0.000828374)
(0.00863145 -1.59192e-05 -0.000835092)
(0.0103436 -1.44866e-05 -0.000841225)
(0.0120609 -1.31423e-05 -0.0008467)
(0.0137823 -1.19432e-05 -0.000851479)
(0.0155067 -1.09097e-05 -0.000855608)
(0.0172332 -1.00166e-05 -0.000859134)
(0.0189606 -9.22882e-06 -0.000862038)
(0.0206881 -8.53236e-06 -0.000864282)
(0.0224143 -7.91591e-06 -0.000865858)
(0.024138 -7.36213e-06 -0.000866757)
(0.0258581 -6.88132e-06 -0.00086698)
(0.0275733 -6.51784e-06 -0.000866598)
(0.0292827 -6.28961e-06 -0.00086574)
(0.0309856 -6.13931e-06 -0.000864461)
(0.032681 -5.97492e-06 -0.000862683)
(0.0343681 -5.74588e-06 -0.000860318)
(0.0360457 -5.46005e-06 -0.000857391)
(0.0377128 -5.14848e-06 -0.000853994)
(0.0393684 -4.84559e-06 -0.000850176)
(0.0410116 -4.58714e-06 -0.000845959)
(0.0426419 -4.38704e-06 -0.000841426)
(0.0442587 -4.21317e-06 -0.000836701)
(0.045862 -4.01814e-06 -0.00083182)
(0.0474513 -3.80404e-06 -0.000826723)
(0.0490265 -3.62982e-06 -0.000821376)
(0.0505871 -3.54162e-06 -0.000815862)
(0.052133 -3.51331e-06 -0.00081029)
(0.0536639 -3.46892e-06 -0.000804674)
(0.0551798 -3.34539e-06 -0.000798968)
(0.0566808 -3.12008e-06 -0.000793195)
(0.0581671 -2.8002e-06 -0.000787486)
(0.0596389 -2.42066e-06 -0.000781984)
(0.0610968 -2.05151e-06 -0.000776777)
(0.0625413 -1.7731e-06 -0.000771925)
(0.063973 -1.61982e-06 -0.000767505)
(0.0653926 -1.55407e-06 -0.000763586)
(0.0668008 -1.50719e-06 -0.000760165)
(0.0681984 -1.43911e-06 -0.000757182)
(0.0695864 -1.34852e-06 -0.000754604)
(0.0709659 -1.23487e-06 -0.000752473)
(0.0723382 -1.07541e-06 -0.000750876)
(0.0737045 -8.50303e-07 -0.000749885)
(0.0750663 -5.80861e-07 -0.000749552)
(0.0764244 -3.28814e-07 -0.000749929)
(0.0777802 -1.57421e-07 -0.000751063)
(0.0791347 -9.47198e-08 -0.000752947)
(0.0804891 -1.28103e-07 -0.00075551)
(0.0818448 -2.19449e-07 -0.00075866)
(0.0832028 -3.19757e-07 -0.000762332)
(0.0845641 -3.81349e-07 -0.00076648)
(0.0859297 -3.75662e-07 -0.000771002)
(0.0872999 -3.11998e-07 -0.000775691)
(0.0886749 -2.37022e-07 -0.000780262)
(0.0900542 -2.03534e-07 -0.000784408)
(0.0914368 -2.27198e-07 -0.000787831)
(0.0928212 -2.67211e-07 -0.000790212)
(0.0942056 -2.53419e-07 -0.000791156)
(0.0955872 -1.43655e-07 -0.000790176)
(0.0969619 3.56114e-08 -0.000786704)
(0.0983249 2.06379e-07 -0.000780105)
(0.0996697 3.05747e-07 -0.00076966)
(0.100989 3.43011e-07 -0.000754532)
(0.102274 3.87728e-07 -0.000733772)
(0.103514 4.93831e-07 -0.000706368)
(0.104697 6.38684e-07 -0.000671304)
(0.105808 7.49601e-07 -0.00062756)
(0.106831 7.91554e-07 -0.000574064)
(0.107749 8.09991e-07 -0.000509666)
(0.10854 8.71495e-07 -0.000433193)
(0.109185 9.78887e-07 -0.00034356)
(0.109657 1.07626e-06 -0.000239865)
(0.109933 1.14049e-06 -0.000121312)
(0.109985 1.21187e-06 1.26583e-05)
(0.109788 1.32789e-06 0.000164092)
(0.109305 1.4408e-06 0.000335388)
(0.108503 1.44637e-06 0.000527297)
(0.107346 1.31822e-06 0.000740035)
(0.1058 1.14607e-06 0.00097347)
(0.103828 1.02626e-06 0.00122714)
(0.101395 9.54242e-07 0.00150028)
(0.0984692 8.72726e-07 0.00179157)
(0.0950184 7.86532e-07 0.00209894)
(0.0910155 7.46582e-07 0.00241949)
(0.086438 7.43637e-07 0.00274961)
(0.0812699 7.3495e-07 0.00308481)
(0.0755034 7.71961e-07 0.00341926)
(0.0691412 9.52744e-07 0.00374562)
(0.0621988 1.24759e-06 0.00405496)
(0.0547073 1.55755e-06 0.00433646)
(0.046717 1.90713e-06 0.00457686)
(0.0383019 2.31734e-06 0.00476001)
(0.0295653 2.61114e-06 0.00486589)
(0.0206479 2.70283e-06 0.00486882)
(0.0117335 2.79754e-06 0.00473629)
(0.00309713 2.90022e-06 0.00441845)
(-0.00502296 2.60474e-06 0.00381331)
(-0.011993 1.84712e-06 0.00287946)
(-0.0173946 1.02399e-06 0.00160616)
(-0.020496 4.64377e-07 -3.7728e-05)
(-0.0205601 2.76886e-07 -0.00194662)
(-0.0170201 3.46734e-07 -0.00366428)
(-0.0101985 5.02386e-07 -0.00408517)
(-0.00248682 5.97451e-07 -0.00261328)
(-0.00139537 -3.36179e-06 0.00387364)
(-0.00568296 -4.13118e-06 0.00612039)
(-0.0086847 -2.13483e-06 0.00547268)
(-0.0100736 -9.82157e-07 0.00352293)
(-0.00997631 -5.71129e-07 0.00126297)
(-0.00859626 -4.43528e-07 -0.000846618)
(-0.00619086 -3.83965e-07 -0.00262617)
(-0.00298166 -3.25428e-07 -0.00403118)
(0.000837588 -2.32867e-07 -0.00508111)
(0.00507305 -9.9229e-08 -0.00581117)
(0.00956699 3.46497e-08 -0.00626594)
(0.0141864 1.18917e-07 -0.00648136)
(0.0188128 1.60263e-07 -0.00649506)
(0.0233481 2.13197e-07 -0.00634472)
(0.027705 3.06643e-07 -0.00605776)
(0.0318118 4.1009e-07 -0.00565881)
(0.0356085 4.67846e-07 -0.00516931)
(0.0390462 4.58881e-07 -0.00460835)
(0.0420863 4.11553e-07 -0.00399303)
(0.0446994 3.63776e-07 -0.00333875)
(0.0468648 3.23352e-07 -0.00265951)
(0.0485693 2.73353e-07 -0.00196811)
(0.0498073 2.05662e-07 -0.00127625)
(0.0505794 1.34481e-07 -0.000594588)
(0.0508914 7.29493e-08 6.76345e-05)
(0.0507561 7.10389e-09 0.000705235)
(0.0501903 -9.64767e-08 0.00131368)
(0.0492155 -2.56318e-07 0.00188647)
(0.0478562 -4.50659e-07 0.0024185)
(0.0461399 -6.28494e-07 0.0029057)
(0.0440968 -7.4136e-07 0.00334491)
(0.0417587 -7.62056e-07 0.00373383)
(0.0391594 -6.76485e-07 0.00407097)
(0.0363333 -4.67372e-07 0.00435558)
(0.0333156 -1.14759e-07 0.00458766)
(0.0301416 3.83608e-07 0.0047679)
(0.0268462 9.93511e-07 0.00489754)
(0.0234636 1.64556e-06 0.00497836)
(0.0200265 2.25065e-06 0.00501243)
(0.0165673 2.71306e-06 0.00500252)
(0.013115 2.95573e-06 0.00494926)
(0.00969788 3.00113e-06 0.00485527)
(0.00634121 2.93732e-06 0.0047267)
(0.00306937 2.81716e-06 0.00456775)
(-9.69307e-05 2.67039e-06 0.00438186)
(-0.00313777 2.51459e-06 0.00417274)
(-0.00603274 2.34721e-06 0.00394418)
(-0.00877151 2.16381e-06 0.00369938)
(-0.0113422 1.98211e-06 0.00344242)
(-0.0137357 1.81053e-06 0.00317662)
(-0.0159453 1.63187e-06 0.00290404)
(-0.0179656 1.44717e-06 0.00262728)
(-0.0197936 1.2816e-06 0.00234902)
(-0.0214275 1.14209e-06 0.0020716)
(-0.0228675 1.02358e-06 0.00179687)
(-0.0241145 9.33685e-07 0.00152653)
(-0.025171 8.72815e-07 0.00126205)
(-0.0260404 8.32863e-07 0.00100461)
(-0.026727 8.13717e-07 0.000755162)
(-0.0272357 8.04024e-07 0.000514458)
(-0.0275722 7.83184e-07 0.000283052)
(-0.0277424 7.53539e-07 6.13169e-05)
(-0.0277525 7.28626e-07 -0.000150134)
(-0.0276092 7.06856e-07 -0.000351082)
(-0.0273196 6.87412e-07 -0.000541796)
(-0.0268907 6.80483e-07 -0.000722356)
(-0.0263295 6.81401e-07 -0.000892875)
(-0.025643 6.74649e-07 -0.00105356)
(-0.0248378 6.70255e-07 -0.00120474)
(-0.0239205 6.87157e-07 -0.00134681)
(-0.0228978 7.06593e-07 -0.00148013)
(-0.0217756 7.02304e-07 -0.00160503)
(-0.0205601 6.93059e-07 -0.00172192)
(-0.0192571 7.0305e-07 -0.00183127)
(-0.017872 7.19229e-07 -0.00193359)
(-0.01641 7.40624e-07 -0.00202919)
(-0.0148762 8.00279e-07 -0.00211832)
(-0.0132753 9.0213e-07 -0.00220124)
(-0.0116118 1.01128e-06 -0.00227822)
(-0.00988992 1.12015e-06 -0.00235011)
(-0.00811379 1.254e-06 -0.00241748)
(-0.00628723 1.41722e-06 -0.00248026)
(-0.00441367 1.59639e-06 -0.00253853)
(-0.00249662 1.79914e-06 -0.00259254)
(-0.000538343 2.04073e-06 -0.00264265)
(0.0014575 2.31409e-06 -0.00268911)
(0.00348626 2.60723e-06 -0.00273199)
(0.00554584 2.91728e-06 -0.00277155)
(0.00763331 3.22773e-06 -0.00280807)
(0.009746 3.50113e-06 -0.00284166)
(0.0118815 3.69557e-06 -0.00287233)
(0.014037 3.76265e-06 -0.00290034)
(0.0162105 3.65868e-06 -0.00292493)
(0.0183993 3.41184e-06 -0.00294589)
(0.0206017 3.10284e-06 -0.00296411)
(0.0228156 2.79024e-06 -0.00297977)
(0.0250388 2.49818e-06 -0.00299307)
(0.0272695 2.23115e-06 -0.00300407)
(0.0295057 1.99412e-06 -0.00301276)
(0.0317456 1.79271e-06 -0.0030192)
(0.0339873 1.62213e-06 -0.00302351)
(0.0362291 1.47478e-06 -0.00302577)
(0.0384692 1.35611e-06 -0.00302597)
(0.0407061 1.27774e-06 -0.00302409)
(0.0429381 1.2367e-06 -0.0030202)
(0.0451636 1.21529e-06 -0.00301435)
(0.047381 1.19853e-06 -0.00300655)
(0.0495887 1.17712e-06 -0.00299679)
(0.0517853 1.13727e-06 -0.00298511)
(0.0539695 1.06816e-06 -0.00297159)
(0.05614 9.83306e-07 -0.0029563)
(0.0582956 9.15952e-07 -0.00293929)
(0.0604349 8.83037e-07 -0.0029206)
(0.0625568 8.66203e-07 -0.0029003)
(0.0646603 8.37636e-07 -0.0028785)
(0.0667442 7.93523e-07 -0.00285539)
(0.0688076 7.50923e-07 -0.00283115)
(0.0708497 7.20999e-07 -0.00280591)
(0.0728698 6.99052e-07 -0.00277974)
(0.0748672 6.77136e-07 -0.00275274)
(0.0768416 6.51241e-07 -0.00272509)
(0.0787924 6.14887e-07 -0.00269699)
(0.0807194 5.58806e-07 -0.00266859)
(0.0826224 4.85234e-07 -0.00264)
(0.0845014 4.16868e-07 -0.00261131)
(0.0863563 3.83343e-07 -0.00258273)
(0.0881875 3.97573e-07 -0.00255449)
(0.089995 4.46013e-07 -0.00252678)
(0.0917792 4.98509e-07 -0.00249979)
(0.0935408 5.25111e-07 -0.0024737)
(0.0952805 5.08447e-07 -0.00244871)
(0.0969991 4.49043e-07 -0.00242498)
(0.0986976 3.63528e-07 -0.00240268)
(0.100377 2.75436e-07 -0.00238194)
(0.102038 2.03883e-07 -0.00236289)
(0.103683 1.58598e-07 -0.00234569)
(0.105312 1.43092e-07 -0.00233043)
(0.106928 1.57533e-07 -0.00231719)
(0.10853 1.9573e-07 -0.00230608)
(0.110122 2.40811e-07 -0.00229718)
(0.111704 2.69116e-07 -0.00229056)
(0.113277 2.62453e-07 -0.0022862)
(0.114845 2.18754e-07 -0.002284)
(0.116407 1.52602e-07 -0.00228383)
(0.117966 8.69721e-08 -0.00228551)
(0.119522 4.2625e-08 -0.00228881)
(0.121076 2.94974e-08 -0.00229339)
(0.12263 4.14295e-08 -0.00229882)
(0.124183 5.70196e-08 -0.00230452)
(0.125736 4.96581e-08 -0.00230986)
(0.127288 4.59951e-09 -0.00231404)
(0.128838 -6.85442e-08 -0.00231615)
(0.130385 -1.40327e-07 -0.0023151)
(0.131925 -1.83418e-07 -0.00230963)
(0.133455 -1.9511e-07 -0.0022983)
(0.134971 -1.98914e-07 -0.00227951)
(0.136468 -2.20411e-07 -0.00225141)
(0.137937 -2.58874e-07 -0.00221193)
(0.139371 -2.83894e-07 -0.0021587)
(0.14076 -2.64822e-07 -0.00208917)
(0.142092 -2.05176e-07 -0.00200065)
(0.143353 -1.43968e-07 -0.00189031)
(0.144528 -1.1827e-07 -0.00175517)
(0.1456 -1.27272e-07 -0.00159204)
(0.146549 -1.42324e-07 -0.00139761)
(0.147353 -1.51592e-07 -0.00116854)
(0.147988 -1.77437e-07 -0.000901609)
(0.148428 -2.36932e-07 -0.000593789)
(0.148645 -3.01793e-07 -0.000242343)
(0.148607 -3.2641e-07 0.000155267)
(0.148281 -3.13845e-07 0.000603891)
(0.147633 -3.16309e-07 0.00110817)
(0.146628 -3.56722e-07 0.00167001)
(0.145229 -3.89038e-07 0.00229069)
(0.143398 -3.64475e-07 0.0029707)
(0.141096 -3.0445e-07 0.00370947)
(0.138287 -2.62118e-07 0.00450522)
(0.134933 -2.39133e-07 0.00535481)
(0.131001 -2.05024e-07 0.0062536)
(0.126461 -1.81611e-07 0.00719495)
(0.121285 -2.19554e-07 0.00816987)
(0.115455 -2.90747e-07 0.00916669)
(0.108958 -3.14356e-07 0.0101707)
(0.101793 -3.02973e-07 0.0111635)
(0.0939693 -3.43219e-07 0.0121224)
(0.0855128 -4.15775e-07 0.0130193)
(0.0764672 -4.20776e-07 0.0138196)
(0.0668983 -3.84853e-07 0.0144806)
(0.0568998 -4.07684e-07 0.0149497)
(0.046599 -4.47585e-07 0.01516)
(0.036163 -4.09643e-07 0.0150246)
(0.0258155 -3.03019e-07 0.014431)
(0.0158182 -1.70252e-07 0.0132091)
(0.00652714 -6.36591e-08 0.0111874)
(-0.00167047 -2.3513e-09 0.00818375)
(-0.00818973 6.02385e-08 0.00403454)
(-0.0124646 1.16687e-07 -0.00124492)
(-0.013692 1.97827e-07 -0.0071166)
(-0.0112385 3.94264e-07 -0.0119017)
(-0.00382564 8.50413e-07 -0.0107288)
(-0.00139707 -3.36179e-06 0.00387485)
(-0.0056833 -4.1312e-06 0.00611884)
(-0.00868288 -2.13485e-06 0.00546967)
(-0.0100724 -9.8217e-07 0.00352024)
(-0.00997602 -5.71137e-07 0.00126124)
(-0.00859641 -4.43534e-07 -0.000847541)
(-0.00619102 -3.8397e-07 -0.00262659)
(-0.00298162 -3.25433e-07 -0.00403133)
(0.000837863 -2.3287e-07 -0.00508111)
(0.00507352 -9.92302e-08 -0.00581109)
(0.00956762 3.46501e-08 -0.00626583)
(0.0141871 1.18918e-07 -0.00648125)
(0.0188135 1.60264e-07 -0.00649494)
(0.0233488 2.13199e-07 -0.00634458)
(0.0277056 3.06646e-07 -0.00605761)
(0.0318124 4.10094e-07 -0.00565867)
(0.0356092 4.6785e-07 -0.00516919)
(0.039047 4.58884e-07 -0.00460826)
(0.0420872 4.11556e-07 -0.00399293)
(0.0447005 3.63778e-07 -0.00333864)
(0.0468659 3.23354e-07 -0.00265937)
(0.0485705 2.73354e-07 -0.0019679)
(0.0498085 2.05663e-07 -0.00127593)
(0.0505806 1.34481e-07 -0.000594126)
(0.0508925 7.29497e-08 6.82279e-05)
(0.0507572 7.10392e-09 0.000705895)
(0.0501913 -9.64771e-08 0.00131431)
(0.0492165 -2.56319e-07 0.00188698)
(0.0478571 -4.50661e-07 0.00241882)
(0.0461408 -6.28496e-07 0.00290575)
(0.0440976 -7.41361e-07 0.00334466)
(0.0417596 -7.62057e-07 0.00373328)
(0.0391603 -6.76486e-07 0.00407017)
(0.0363345 -4.67372e-07 0.00435468)
(0.0333171 -1.14758e-07 0.00458683)
(0.0301435 3.83608e-07 0.00476735)
(0.0268484 9.93509e-07 0.00489747)
(0.0234661 1.64556e-06 0.00497897)
(0.0200292 2.25064e-06 0.00501389)
(0.0165699 2.71305e-06 0.00500492)
(0.0131173 2.95572e-06 0.00495258)
(0.00969983 3.00111e-06 0.0048593)
(0.0063429 2.9373e-06 0.00473116)
(0.00307087 2.81714e-06 0.00457242)
(-9.55886e-05 2.67037e-06 0.00438657)
(-0.00313656 2.51458e-06 0.00417736)
(-0.0060316 2.34719e-06 0.00394863)
(-0.00877041 2.1638e-06 0.0037036)
(-0.0113411 1.98209e-06 0.00344637)
(-0.0137347 1.81052e-06 0.00318027)
(-0.0159442 1.63185e-06 0.00290737)
(-0.0179645 1.44715e-06 0.00263028)
(-0.0197925 1.28158e-06 0.00235171)
(-0.0214264 1.14208e-06 0.00207401)
(-0.0228662 1.02357e-06 0.00179904)
(-0.0241132 9.33675e-07 0.00152849)
(-0.0251697 8.72805e-07 0.00126385)
(-0.026039 8.32854e-07 0.0010063)
(-0.0267256 8.13708e-07 0.000756771)
(-0.0272343 8.04015e-07 0.000516008)
(-0.0275707 7.83175e-07 0.000284552)
(-0.0277409 7.53531e-07 6.27756e-05)
(-0.027751 7.28619e-07 -0.0001487)
(-0.0276077 7.06849e-07 -0.000349669)
(-0.0273181 6.87406e-07 -0.00054039)
(-0.0268892 6.80477e-07 -0.000720933)
(-0.026328 6.81396e-07 -0.000891452)
(-0.0256415 6.74644e-07 -0.00105217)
(-0.0248363 6.7025e-07 -0.00120338)
(-0.0239191 6.87152e-07 -0.00134547)
(-0.0228963 7.06589e-07 -0.0014788)
(-0.0217741 7.02301e-07 -0.00160376)
(-0.0205587 6.93055e-07 -0.00172076)
(-0.0192558 7.03048e-07 -0.0018302)
(-0.0178708 7.19227e-07 -0.00193251)
(-0.0164089 7.40623e-07 -0.00202807)
(-0.0148751 8.00278e-07 -0.0021172)
(-0.0132743 9.0213e-07 -0.00220011)
(-0.0116108 1.01128e-06 -0.00227698)
(-0.0098888 1.12015e-06 -0.00234873)
(-0.0081126 1.254e-06 -0.00241598)
(-0.00628591 1.41723e-06 -0.00247864)
(-0.00441221 1.59639e-06 -0.00253674)
(-0.00249508 1.79915e-06 -0.00259053)
(-0.000536727 2.04074e-06 -0.00264038)
(0.00145921 2.31411e-06 -0.00268651)
(0.00348801 2.60725e-06 -0.00272906)
(0.00554754 2.9173e-06 -0.00276824)
(0.00763492 3.22775e-06 -0.00280425)
(0.00974752 3.50116e-06 -0.00283724)
(0.0118829 3.69561e-06 -0.00286732)
(0.0140381 3.76269e-06 -0.00289486)
(0.0162112 3.65872e-06 -0.00291908)
(0.0183998 3.41188e-06 -0.00293984)
(0.0206022 3.10288e-06 -0.00295812)
(0.022816 2.79028e-06 -0.00297407)
(0.0250393 2.49822e-06 -0.00298781)
(0.02727 2.23118e-06 -0.00299929)
(0.0295062 1.99415e-06 -0.00300848)
(0.0317461 1.79274e-06 -0.00301542)
(0.0339878 1.62215e-06 -0.00302016)
(0.0362295 1.4748e-06 -0.00302274)
(0.0384697 1.35613e-06 -0.00302319)
(0.0407065 1.27776e-06 -0.00302153)
(0.0429385 1.23672e-06 -0.00301781)
(0.0451639 1.21531e-06 -0.00301205)
(0.0473813 1.19855e-06 -0.0030043)
(0.0495891 1.17714e-06 -0.00299462)
(0.0517858 1.13729e-06 -0.00298307)
(0.0539701 1.06817e-06 -0.00296969)
(0.0561406 9.83322e-07 -0.0029545)
(0.0582961 9.15968e-07 -0.00293757)
(0.0604354 8.83052e-07 -0.00291896)
(0.0625573 8.66218e-07 -0.00289873)
(0.0646607 8.37651e-07 -0.002877)
(0.0667446 7.93536e-07 -0.00285395)
(0.0688081 7.50936e-07 -0.00282976)
(0.0708502 7.21011e-07 -0.00280456)
(0.0728703 6.99064e-07 -0.00277843)
(0.0748678 6.77147e-07 -0.0027515)
(0.0768422 6.51252e-07 -0.00272395)
(0.0787931 6.14897e-07 -0.00269595)
(0.08072 5.58814e-07 -0.00266763)
(0.082623 4.85242e-07 -0.00263906)
(0.0845018 4.16874e-07 -0.00261041)
(0.0863567 3.83349e-07 -0.00258185)
(0.0881877 3.97579e-07 -0.0025536)
(0.0899951 4.4602e-07 -0.00252587)
(0.0917794 4.98517e-07 -0.00249888)
(0.0935411 5.25119e-07 -0.00247284)
(0.0952809 5.08454e-07 -0.00244794)
(0.0969996 4.49049e-07 -0.00242432)
(0.0986981 3.63533e-07 -0.00240211)
(0.100377 2.7544e-07 -0.00238145)
(0.102039 2.03885e-07 -0.00236249)
(0.103684 1.586e-07 -0.00234535)
(0.105313 1.43094e-07 -0.00233014)
(0.106928 1.57535e-07 -0.00231694)
(0.10853 1.95732e-07 -0.00230585)
(0.110122 2.40814e-07 -0.00229699)
(0.111704 2.6912e-07 -0.0022904)
(0.113278 2.62456e-07 -0.00228608)
(0.114845 2.18756e-07 -0.00228393)
(0.116407 1.52603e-07 -0.00228381)
(0.117966 8.69731e-08 -0.00228553)
(0.119522 4.26255e-08 -0.00228883)
(0.121077 2.94977e-08 -0.00229339)
(0.12263 4.143e-08 -0.00229878)
(0.124184 5.70203e-08 -0.00230448)
(0.125736 4.96587e-08 -0.00230984)
(0.127289 4.59956e-09 -0.00231405)
(0.128839 -6.8545e-08 -0.00231618)
(0.130385 -1.40329e-07 -0.00231514)
(0.131925 -1.8342e-07 -0.0023097)
(0.133456 -1.95112e-07 -0.00229843)
(0.134972 -1.98916e-07 -0.00227972)
(0.136468 -2.20414e-07 -0.0022517)
(0.137937 -2.58877e-07 -0.00221226)
(0.139371 -2.83896e-07 -0.00215904)
(0.14076 -2.64825e-07 -0.00208952)
(0.142092 -2.05178e-07 -0.00200102)
(0.143353 -1.43969e-07 -0.00189071)
(0.144529 -1.18271e-07 -0.00175558)
(0.1456 -1.27273e-07 -0.00159244)
(0.146549 -1.42325e-07 -0.00139801)
(0.147353 -1.51594e-07 -0.00116897)
(0.147988 -1.77439e-07 -0.000902095)
(0.148429 -2.36934e-07 -0.000594316)
(0.148645 -3.01796e-07 -0.000242892)
(0.148607 -3.26412e-07 0.000154703)
(0.148281 -3.13847e-07 0.000603299)
(0.147634 -3.16311e-07 0.00110755)
(0.146629 -3.56725e-07 0.00166941)
(0.14523 -3.8904e-07 0.00229016)
(0.143398 -3.64477e-07 0.00297024)
(0.141097 -3.04452e-07 0.00370907)
(0.138287 -2.62119e-07 0.00450488)
(0.134934 -2.39134e-07 0.00535456)
(0.131002 -2.05025e-07 0.0062534)
(0.126461 -1.81612e-07 0.00719477)
(0.121286 -2.19555e-07 0.00816971)
(0.115456 -2.90749e-07 0.00916658)
(0.108959 -3.14358e-07 0.0101706)
(0.101794 -3.02974e-07 0.0111634)
(0.0939699 -3.4322e-07 0.0121222)
(0.0855133 -4.15777e-07 0.013019)
(0.0764675 -4.20777e-07 0.0138192)
(0.0668986 -3.84854e-07 0.0144803)
(0.0569002 -4.07685e-07 0.0149493)
(0.0465996 -4.47586e-07 0.0151596)
(0.0361636 -4.09645e-07 0.015024)
(0.0258161 -3.0302e-07 0.0144302)
(0.0158186 -1.70253e-07 0.0132084)
(0.00652728 -6.36594e-08 0.0111869)
(-0.00167058 -2.35131e-09 0.00818341)
(-0.00819009 6.02388e-08 0.00403426)
(-0.012465 1.16688e-07 -0.00124521)
(-0.0136924 1.97827e-07 -0.00711684)
(-0.0112387 3.94263e-07 -0.0119019)
(-0.00382569 8.50414e-07 -0.0107288)
(-0.00170322 -5.72199e-07 0.00771022)
(-0.00485764 -1.45193e-06 0.00918981)