/*--------------------------------*- C++ -*----------------------------------*\
  =========                 |
  \\      /  F ield         | OpenFOAM: The Open Source CFD Toolbox
   \\    /   O peration     | Website:  https://openfoam.org
    \\  /    A nd           | Version:  8
     \\/     M anipulation  |
\*---------------------------------------------------------------------------*/
FoamFile
{
    version     2.0;
    format      ascii;
    class       volScalarField;
    location    "4700";
    object      epsilon;
}
// * * * * * * * * * * * * * * * * * * * * * * * * * * * * * * * * * * * * * //

dimensions      [0 2 -3 0 0 0 0];

internalField   nonuniform List<scalar> 
48000
(
1.76901
6.91489
13.1391
19.5369
26.2243
32.971
39.6995
46.3835
53.0879
59.9048
66.7059
73.5208
80.3365
87.1434
93.9319
100.692
107.413
114.083
120.691
127.226
133.675
140.026
146.268
152.389
158.379
164.226
169.921
175.455
180.82
186.007
191.009
195.821
200.437
204.854
209.067
213.074
216.873
220.463
223.844
227.016
229.981
232.74
235.296
237.649
239.805
241.8
243.628
245.272
246.736
248.024
249.142
250.097
250.896
251.544
252.047
252.413
252.648
252.757
252.747
252.624
252.394
252.062
251.635
251.118
250.515
249.833
249.075
248.248
247.354
246.399
245.386
244.32
243.204
242.041
240.835
239.588
238.305
236.986
235.636
234.255
232.847
231.414
229.956
228.476
226.976
225.456
223.919
222.364
220.794
219.209
217.611
215.999
214.374
212.737
211.089
209.43
207.76
206.08
204.389
202.688
200.977
199.257
197.526
195.786
194.035
192.275
190.504
188.724
186.933
185.131
183.319
181.496
179.663
177.818
175.961
174.094
172.214
170.323
168.42
166.505
164.577
162.637
160.685
158.72
156.743
154.753
152.75
150.735
148.708
146.667
144.615
142.55
140.473
138.385
136.285
134.173
132.05
129.917
127.773
125.619
123.456
121.283
119.102
116.913
114.716
112.513
110.303
108.087
105.867
103.642
101.414
99.1829
96.95
94.7159
92.4814
90.2473
88.0146
85.784
83.5564
81.3327
79.1137
76.9003
74.6933
72.4936
70.3021
68.1195
65.9466
63.7842
61.6331
59.4939
57.3674
55.2542
53.1548
51.0698
48.9997
46.9449
44.9057
42.8827
40.8767
38.8898
36.9297
34.9957
33.0751
31.166
29.2678
27.379
25.4982
23.6234
21.7523
19.8816
18.0077
16.137
14.2659
12.3781
10.4646
8.51403
6.51109
4.4392
2.32682
0.693235
1.76905
6.91493
13.1392
19.5369
26.2244
32.9711
39.6996
46.3836
53.088
59.9049
66.7061
73.5209
80.3367
87.1436
93.932
100.692
107.413
114.083
120.692
127.226
133.675
140.026
146.268
152.389
158.379
164.226
169.921
175.456
180.82
186.007
191.009
195.821
200.437
204.854
209.067
213.074
216.873
220.463
223.844
227.016
229.981
232.74
235.296
237.649
239.805
241.8
243.628
245.272
246.736
248.024
249.142
250.097
250.896
251.544
252.047
252.413
252.648
252.757
252.747
252.624
252.394
252.062
251.635
251.118
250.515
249.833
249.075
248.248
247.354
246.399
245.386
244.32
243.204
242.041
240.835
239.588
238.305
236.986
235.636
234.255
232.847
231.414
229.956
228.476
226.976
225.456
223.919
222.364
220.794
219.209
217.61
215.998
214.374
212.737
211.089
209.43
207.76
206.08
204.389
202.688
200.977
199.257
197.526
195.786
194.035
192.275
190.504
188.724
186.933
185.131
183.319
181.496
179.663
177.818
175.961
174.094
172.214
170.323
168.42
166.505
164.577
162.637
160.685
158.72
156.743
154.753
152.75
150.735
148.708
146.667
144.615
142.55
140.473
138.385
136.285
134.173
132.05
129.917
127.773
125.619
123.456
121.283
119.102
116.913
114.716
112.513
110.303
108.087
105.867
103.642
101.414
99.1829
96.95
94.7159
92.4814
90.2473
88.0146
85.784
83.5564
81.3327
79.1137
76.9003
74.6933
72.4936
70.3021
68.1195
65.9466
63.7842
61.6331
59.4939
57.3674
55.2542
53.1548
51.0698
48.9997
46.9449
44.9057
42.8827
40.8767
38.8898
36.9297
34.9957
33.0751
31.166
29.2678
27.379
25.4982
23.6234
21.7523
19.8816
18.0077
16.137
14.2659
12.3781
10.4646
8.51403
6.51108
4.4392
2.3269
0.693237
8.28527
7.07141
9.03167
11.4228
14.016
16.7139
19.4767
22.2603
25.0729
27.9228
30.7986
33.6983
36.6185
39.5553
42.5044
45.461
48.4199
51.3757
54.3225
57.254
60.1639
63.0458
65.8931
68.6994
71.4584
74.1638
76.8096
79.3903
81.9003
84.3349
86.6893
88.9596
91.1419
93.2331
95.2304
97.1317
98.9351
100.639
102.244
103.747
105.151
106.454
107.659
108.766
109.779
110.707
111.549
112.302
112.968
113.547
114.043
114.458
114.795
115.058
115.249
115.372
115.429
115.426
115.363
115.245
115.075
114.856
114.59
114.281
113.931
113.543
113.12
112.663
112.176
111.66
111.118
110.552
109.962
109.353
108.724
108.077
107.415
106.737
106.047
105.344
104.63
103.906
103.172
102.43
101.681
100.924
100.161
99.3927
98.6188
97.8401
97.057
96.2698
95.4789
94.6845
93.8867
93.0859
92.2822
91.4756
90.6662
89.8543
89.0396
88.2224
87.4026
86.5801
85.755
84.9272
84.0966
83.2632
82.4269
81.5876
80.7453
79.8997
79.0509
78.1988
77.3432
76.484
75.6212
74.7547
73.8844
73.0101
72.1319
71.2497
70.3634
69.4729
68.5782
67.6794
66.7763
65.869
64.9574
64.0416
63.1217
62.1976
61.2694
60.3373
59.4012
58.4613
57.5178
56.5706
55.6201
54.6663
53.7095
52.7498
51.7874
50.8226
49.8555
48.8866
47.9159
46.9438
45.9707
44.9966
44.0221
43.0474
42.0729
41.0988
40.1255
39.1535
38.1829
37.2143
36.2479
35.2841
34.3233
33.3659
32.4121
31.4624
30.5171
29.5765
28.641
27.7109
26.7865
25.868
24.9558
24.0501
23.1512
22.2592
21.3743
20.4968
19.6268
18.7645
17.9101
17.0643
16.2277
15.4
14.5792
13.765
12.9576
12.1564
11.3608
10.5703
9.78454
9.00303
8.22595
7.45548
6.69045
5.92859
5.16958
4.41533
3.67324
2.96821
2.39835
2.83717
8.28534
7.07139
9.03164
11.4227
14.016
16.7138
19.4766
22.2602
25.0728
27.9227
30.7985
33.6982
36.6184
39.5552
42.5043
45.4608
48.4198
51.3756
54.3223
57.2539
60.1638
63.0457
65.893
68.6993
71.4583
74.1636
76.8095
79.3901
81.9002
84.3347
86.6892
88.9594
91.1417
93.2329
95.2302
97.1315
98.9349
100.639
102.243
103.747
105.151
106.454
107.659
108.766
109.779
110.706
111.548
112.302
112.968
113.547
114.043
114.458
114.795
115.057
115.248
115.371
115.429
115.425
115.363
115.245
115.075
114.856
114.59
114.281
113.931
113.543
113.12
112.663
112.176
111.66
111.118
110.551
109.962
109.352
108.723
108.077
107.414
106.737
106.047
105.344
104.63
103.905
103.172
102.43
101.68
100.924
100.161
99.3925
98.6186
97.8399
97.0568
96.2697
95.4787
94.6843
93.8866
93.0858
92.282
91.4754
90.6661
89.8541
89.0395
88.2223
87.4024
86.58
85.7549
84.927
84.0965
83.2631
82.4268
81.5875
80.7451
79.8996
79.0508
78.1986
77.343
76.4839
75.6211
74.7546
73.8842
73.01
72.1318
71.2496
70.3632
69.4728
68.5781
67.6793
66.7762
65.8688
64.9573
64.0415
63.1216
62.1975
61.2693
60.3372
59.4011
58.4612
57.5177
56.5705
55.62
54.6662
53.7094
52.7497
51.7873
50.8225
49.8554
48.8865
47.9158
46.9438
45.9706
44.9966
44.022
43.0473
42.0728
41.0987
40.1255
39.1534
38.1828
37.2142
36.2478
35.284
34.3232
33.3658
32.412
31.4623
30.517
29.5765
28.641
27.7109
26.7864
25.868
24.9558
24.0501
23.1511
22.2591
21.3743
20.4968
19.6267
18.7644
17.9101
17.0642
16.2277
15.4
14.5791
13.7649
12.9576
12.1563
11.3607
10.5703
9.78452
9.00301
8.22594
7.45546
6.69044
5.92858
5.16957
4.41531
3.6732
2.96811
2.39835
2.83705
15.4461
9.48095
9.9967
11.3985
13.1064
14.9705
16.9297
18.9507
21.0195
23.1287
25.2712
27.4424
29.6378
31.8537
34.0862
36.3311
38.5842
40.8411
43.097
45.347
47.5859
49.8086
52.0095
54.1836
56.3253
58.4295
60.4912
62.5053
64.4673
66.3728
68.2176
69.9981
71.7107
73.3526
74.9211
76.414
77.8295
79.1662
80.423
81.5994
82.6951
83.7104
84.6458
85.5025
86.2825
86.989
87.623
88.1848
88.6752
89.0959
89.4487
89.736
89.96
90.1234
90.2288
90.2787
90.2759
90.2231
90.1228
89.9779
89.7908
89.5641
89.3003
89.0017
88.6707
88.3096
87.9204
87.5052
87.0661
86.6048
86.1232
85.6229
85.1055
84.5725
84.0253
83.4652
82.8934
82.311
81.7192
81.1188
80.5109
79.8961
79.2753
78.6491
78.0182
77.3831
76.7443
76.1024
75.4577
74.8106
74.1613
73.5102
72.8576
72.2035
71.5483
70.8919
70.2346
69.5765
68.9175
68.2578
67.5973
66.9362
66.2742
65.6116
64.9481
64.2838
63.6186
62.9525
62.2853
61.617
60.9476
60.2769
59.6049
58.9314
58.2565
57.5799
56.9017
56.2218
55.54
54.8563
54.1706
53.483
52.7932
52.1014
51.4074
50.7112
50.0128
49.3121
48.6093
47.9042
47.1969
46.4875
45.7759
45.0623
44.3466
43.629
42.9095
42.1882
41.4653
40.7408
40.0149
39.2877
38.5594
37.8302
37.1001
36.3695
35.6385
34.9072
34.176
33.4449
32.7144
31.9845
31.2556
30.5278
29.8015
29.0769
28.3542
27.6338
26.9158
26.2005
25.4883
24.7793
24.0739
23.3722
22.6746
21.9812
21.2924
20.6083
19.9292
19.2552
18.5866
17.9236
17.2664
16.615
15.9697
15.3306
14.6979
14.0716
13.452
12.8394
12.2337
11.635
11.0428
10.457
9.87756
9.30423
8.73752
8.17726
7.62362
7.07695
6.53802
6.00819
5.48899
4.98206
4.49162
4.02662
3.60732
3.28794
3.27708
5.45686
15.4462
9.48092
9.99665
11.3985
13.1064
14.9704
16.9296
18.9506
21.0194
23.1286
25.2712
27.4423
29.6377
31.8536
34.0861
36.331
38.5841
40.841
43.0969
45.3469
47.5858
49.8085
52.0094
54.1835
56.3252
58.4294
60.4911
62.5052
64.4672
66.3727
68.2175
69.998
71.7106
73.3525
74.921
76.4139
77.8294
79.1661
80.4229
81.5993
82.695
83.7103
84.6457
85.5024
86.2824
86.9889
87.6229
88.1847
88.6751
89.0958
89.4486
89.7359
89.9599
90.1233
90.2286
90.2786
90.2758
90.223
90.1227
89.9778
89.7907
89.564
89.3002
89.0016
88.6706
88.3095
87.9203
87.5051
87.066
86.6047
86.1231
85.6228
85.1054
84.5724
84.0252
83.4651
82.8933
82.3109
81.7191
81.1188
80.5108
79.896
79.2752
78.649
78.0181
77.383
76.7443
76.1023
75.4576
74.8105
74.1612
73.5102
72.8575
72.2034
71.5482
70.8918
70.2346
69.5764
68.9174
68.2577
67.5973
66.9361
66.2742
65.6115
64.948
64.2837
63.6186
62.9524
62.2852
61.617
60.9476
60.2769
59.6048
58.9314
58.2564
57.5799
56.9017
56.2217
55.5399
54.8562
54.1706
53.4829
52.7932
52.1013
51.4073
50.7111
50.0127
49.3121
48.6092
47.9042
47.1969
46.4875
45.7759
45.0622
44.3466
43.6289
42.9094
42.1882
41.4652
40.7408
40.0149
39.2877
38.5594
37.8301
37.1001
36.3695
35.6384
34.9072
34.1759
33.4449
32.7144
31.9845
31.2556
30.5278
29.8015
29.0769
28.3542
27.6337
26.9158
26.2005
25.4883
24.7793
24.0739
23.3722
22.6746
21.9812
21.2924
20.6083
19.9291
19.2552
18.5866
17.9236
17.2663
16.615
15.9697
15.3306
14.6978
14.0716
13.452
12.8394
12.2337
11.635
11.0428
10.457
9.87755
9.30422
8.73751
8.17725
7.62361
7.07695
6.53802
6.00818
5.48898
4.98206
4.49162
4.02662
3.60732
3.28794
3.27716
5.4569
22.3852
12.3112
11.791
12.6057
13.8705
15.3592
16.982
18.6936
20.4692
22.2939
24.1574
26.0521
27.9723
29.9133
31.8706
33.8401
35.8178
37.7995
39.781
41.758
43.7259
45.6803
47.6165
49.5298
51.4156
53.2692
55.0861
56.8619
58.5925
60.2738
61.902
63.4738
64.9859
66.4354
67.82
69.1373
70.3857
71.5637
72.6702
73.7046
74.6664
75.5557
76.373
77.1191
77.7953
78.4032
78.9441
79.419
79.829
80.1756
80.4606
80.6861
80.8541
80.9669
81.0269
81.0365
80.9981
80.9142
80.7873
80.6197
80.4139
80.1721
79.8968
79.5901
79.2541
78.8911
78.5028
78.0914
77.6586
77.2062
76.7357
76.2489
75.7471
75.2318
74.7042
74.1656
73.6171
73.0598
72.4946
71.9225
71.3442
70.7607
70.1724
69.5802
68.9846
68.386
67.785
67.182
66.5774
65.9715
65.3646
64.7569
64.1487
63.5402
62.9314
62.3226
61.7139
61.1052
60.4967
59.8885
59.2804
58.6726
58.065
57.4576
56.8504
56.2432
55.6362
55.0291
54.422
53.8147
53.2072
52.5995
51.9913
51.3828
50.7737
50.1639
49.5535
48.9424
48.3304
47.7175
47.1036
46.4887
45.8728
45.2557
44.6375
44.0181
43.3975
42.7756
42.1525
41.5282
40.9026
40.2759
39.648
39.0189
38.3887
37.7575
37.1254
36.4924
35.8585
35.224
34.5889
33.9533
33.3173
32.6812
32.045
31.4089
30.773
30.1376
29.5028
28.8687
28.2357
27.6038
26.9733
26.3444
25.7173
25.0923
24.4694
23.849
23.2313
22.6165
22.0048
21.3965
20.7917
20.1907
19.5937
19.0008
18.4124
17.8285
17.2494
16.6753
16.1063
15.5426
14.9844
14.4318
13.8849
13.344
12.8091
12.2804
11.7581
11.2422
10.733
10.2305
9.73462
9.24549
8.76321
8.28796
7.82007
7.35988
6.90814
6.46575
6.03397
5.61478
5.21107
4.82724
4.47111
4.15776
3.91967
3.84235
4.25676
8.07057
22.3853
12.3112
11.7909
12.6056
13.8704
15.3591
16.9819
18.6935
20.4692
22.2938
24.1573
26.052
27.9723
29.9132
31.8705
33.84
35.8177
37.7994
39.7809
41.7579
43.7258
45.6802
47.6164
49.5297
51.4155
53.2691
55.086
56.8618
58.5924
60.2737
61.9019
63.4737
64.9858
66.4353
67.8199
69.1372
70.3856
71.5636
72.6701
73.7045
74.6663
75.5557
76.373
77.119
77.7952
78.4031
78.944
79.4189
79.8289
80.1755
80.4606
80.686
80.854
80.9668
81.0268
81.0364
80.998
80.9142
80.7872
80.6196
80.4138
80.1721
79.8967
79.59
79.2541
78.891
78.5028
78.0914
77.6586
77.2061
76.7357
76.2488
75.7471
75.2317
74.7042
74.1655
73.6171
73.0597
72.4945
71.9224
71.3442
70.7606
70.1724
69.5802
68.9845
68.386
67.785
67.182
66.5774
65.9715
65.3646
64.7569
64.1487
63.5401
62.9314
62.3226
61.7138
61.1052
60.4967
59.8884
59.2804
58.6726
58.065
57.4576
56.8503
56.2432
55.6361
55.0291
54.422
53.8147
53.2072
52.5995
51.9913
51.3827
50.7736
50.1639
49.5535
48.9423
48.3303
47.7174
47.1036
46.4887
45.8728
45.2557
44.6375
44.0181
43.3974
42.7756
42.1525
41.5282
40.9026
40.2759
39.6479
39.0189
38.3887
37.7575
37.1254
36.4923
35.8585
35.224
34.5889
33.9533
33.3173
32.6812
32.045
31.4089
30.773
30.1376
29.5028
28.8687
28.2357
27.6038
26.9733
26.3444
25.7173
25.0922
24.4694
23.849
23.2313
22.6165
22.0048
21.3965
20.7917
20.1907
19.5937
19.0008
18.4124
17.8285
17.2494
16.6753
16.1063
15.5426
14.9844
14.4318
13.8849
13.344
12.8091
12.2804
11.7581
11.2422
10.733
10.2305
9.73462
9.24549
8.76321
8.28796
7.82007
7.35987
6.90814
6.46575
6.03397
5.61478
5.21107
4.82724
4.47111
4.15776
3.91967
3.84236
4.25679
8.07058
29.3675
15.3779
13.9379
14.2954
15.2579
16.5152
17.9457
19.4891
21.1112
22.7907
24.5135
26.2695
28.051
29.8521
31.6677
33.4934
35.3251
37.1588
38.9905
40.8164
42.6324
44.4346
46.2188
47.981
49.717
51.4228
53.0943
54.7277
56.3191
57.8649
59.3617
60.8063
62.1958
63.5274
64.799
66.0082
67.1536
68.2335
69.2471
70.1934
71.0721
71.8831
72.6267
73.3035
73.9144
74.4606
74.9432
75.3633
75.7223
76.0215
76.2626
76.4475
76.5783
76.6569
76.6856
76.6667
76.6024
76.495
76.347
76.1604
75.9377
75.6811
75.3927
75.0747
74.7291
74.3579
73.9631
73.5465
73.1099
72.6549
72.1832
71.6962
71.1954
70.6821
70.1576
69.6231
69.0796
68.5282
67.9699
67.4054
66.8357
66.2615
65.6833
65.102
64.518
63.9318
63.3439
62.7547
62.1646
61.5738
60.9827
60.3916
59.8005
59.2098
58.6195
58.0297
57.4407
56.8524
56.2648
55.6782
55.0923
54.5073
53.9232
53.3399
52.7573
52.1755
51.5944
51.0139
50.434
49.8546
49.2755
48.6969
48.1185
47.5402
46.9621
46.3841
45.8059
45.2277
44.6493
44.0706
43.4916
42.9123
42.3325
41.7522
41.1714
40.5901
40.0082
39.4258
38.8427
38.259
37.6748
37.0899
36.5045
35.9185
35.3321
34.7452
34.1579
33.5703
32.9825
32.3946
31.8065
31.2186
30.6307
30.0432
29.456
28.8694
28.2835
27.6985
27.1144
26.5315
25.9499
25.3698
24.7914
24.2148
23.6403
23.0681
22.4983
21.9311
21.3667
20.8054
20.2473
19.6926
19.1415
18.5942
18.0509
17.5118
16.9771
16.4468
15.9213
15.4007
14.8851
14.3747
13.8697
13.3703
12.8765
12.3885
11.9066
11.4308
10.9613
10.4983
10.042
9.59254
9.15008
8.71486
8.28716
7.8674
7.45608
7.05394
6.66194
6.28144
5.91431
5.56343
5.23288
4.92917
4.66351
4.45672
4.35328
4.4702
5.26129
10.6604
29.3676
15.3778
13.9378
14.2954
15.2578
16.5152
17.9456
19.489
21.1111
22.7906
24.5135
26.2694
28.0509
29.852
31.6676
33.4933
35.325
37.1587
38.9904
40.8163
42.6323
44.4345
46.2187
47.9809
49.7169
51.4227
53.0943
54.7276
56.319
57.8648
59.3616
60.8062
62.1957
63.5274
64.7989
66.0082
67.1535
68.2335
69.247
70.1933
71.072
71.883
72.6266
73.3034
73.9143
74.4605
74.9431
75.3633
75.7222
76.0214
76.2625
76.4475
76.5782
76.6568
76.6855
76.6666
76.6023
76.495
76.3469
76.1604
75.9377
75.681
75.3926
75.0746
74.729
74.3579
73.9631
73.5465
73.1099
72.6549
72.1832
71.6962
71.1954
70.6821
70.1576
69.623
69.0796
68.5282
67.9698
67.4054
66.8357
66.2614
65.6833
65.102
64.518
63.9318
63.3439
62.7547
62.1645
61.5738
60.9827
60.3915
59.8005
59.2097
58.6194
58.0297
57.4406
56.8523
56.2648
55.6781
55.0923
54.5073
53.9232
53.3399
52.7573
52.1755
51.5944
51.0139
50.434
49.8545
49.2755
48.6969
48.1185
47.5402
46.9621
46.384
45.8059
45.2277
44.6493
44.0706
43.4916
42.9122
42.3325
41.7522
41.1714
40.5901
40.0082
39.4258
38.8427
38.259
37.6747
37.0899
36.5045
35.9185
35.3321
34.7452
34.1579
33.5703
32.9825
32.3946
31.8065
31.2185
30.6307
30.0432
29.456
28.8694
28.2835
27.6985
27.1144
26.5314
25.9499
25.3698
24.7914
24.2148
23.6403
23.0681
22.4983
21.9311
21.3667
20.8054
20.2473
19.6926
19.1415
18.5942
18.0509
17.5118
16.9771
16.4468
15.9213
15.4007
14.8851
14.3747
13.8697
13.3703
12.8765
12.3885
11.9066
11.4308
10.9613
10.4983
10.042
9.59254
9.15008
8.71486
8.28716
7.8674
7.45608
7.05394
6.66194
6.28144
5.91431
5.56343
5.23287
4.92917
4.66351
4.45672
4.35328
4.4702
5.26131
10.6604
36.2983
18.5752
16.2898
16.2627
16.9912
18.0836
19.3865
20.8241
22.3536
23.948
25.5893
27.2646
28.9647
30.6823
32.4117
34.148
35.8869
37.6246
39.3574
41.0816
42.7938
44.4904
46.1679
47.8226
49.4511
51.0496
52.6149
54.1433
55.6315
57.0764
58.4748
59.8238
61.1208
62.3633
63.5491
64.6763
65.7432
66.7486
67.6912
68.5704
69.3857
70.1369
70.8242
71.4481
72.0091
72.5083
72.9466
73.3252
73.6453
73.9083
74.1158
74.2695
74.3713
74.4232
74.4273
74.3856
74.3003
74.1737
74.0079
73.8051
73.5676
73.2973
72.9965
72.6672
72.3113
71.9309
71.5277
71.1036
70.6603
70.1995
69.7226
69.2311
68.7265
68.2101
67.683
67.1465
66.6017
66.0495
65.4909
64.9267
64.3577
63.7847
63.2084
62.6293
62.048
61.465
60.8808
60.2957
59.7102
59.1244
58.5388
57.9536
57.3689
56.785
56.202
55.62
55.0391
54.4594
53.881
53.3038
52.7279
52.1534
51.5801
51.0081
50.4373
49.8677
49.2992
48.7319
48.1655
47.6001
47.0356
46.4719
45.909
45.3466
44.7849
44.2237
43.6628
43.1024
42.5422
41.9823
41.4225
40.8628
40.3031
39.7435
39.1838
38.6241
38.0642
37.5042
36.9441
36.3838
35.8234
35.2628
34.7022
34.1414
33.5806
33.0197
32.4589
31.8982
31.3377
30.7774
30.2174
29.6578
29.0988
28.5403
27.9826
27.4258
26.87
26.3153
25.7618
25.2098
24.6593
24.1106
23.5637
23.019
22.4764
21.9362
21.3987
20.8638
20.3319
19.8031
19.2776
18.7556
18.2372
17.7226
17.212
16.7056
16.2035
15.706
15.2131
14.7251
14.2421
13.7642
13.2918
12.8248
12.3635
11.908
11.4586
11.0154
10.5787
10.1485
9.72529
9.30919
8.90053
8.49967
8.10708
7.72333
7.34917
6.9856
6.63392
6.29592
5.97407
5.67195
5.39487
5.15124
4.95543
4.83388
4.84291
5.13096
6.27436
13.2347
36.2984
18.5751
16.2898
16.2626
16.9911
18.0835
19.3864
20.8241
22.3536
23.9479
25.5892
27.2645
28.9646
30.6822
32.4116
34.1479
35.8868
37.6245
39.3573
41.0816
42.7938
44.4904
46.1678
47.8225
49.451
51.0496
52.6148
54.1432
55.6314
57.0763
58.4747
59.8237
61.1207
62.3632
63.549
64.6762
65.7432
66.7485
67.6911
68.5703
69.3856
70.1369
70.8242
71.448
72.009
72.5082
72.9466
73.3252
73.6453
73.9082
74.1157
74.2694
74.3713
74.4232
74.4272
74.3855
74.3003
74.1737
74.0079
73.8051
73.5675
73.2973
72.9965
72.6671
72.3113
71.9308
71.5277
71.1036
70.6603
70.1994
69.7225
69.2311
68.7265
68.21
67.683
67.1465
66.6017
66.0495
65.4908
64.9266
64.3577
63.7847
63.2084
62.6293
62.048
61.465
60.8808
60.2957
59.7101
59.1244
58.5388
57.9536
57.3689
56.785
56.202
55.62
55.0391
54.4594
53.881
53.3038
52.7279
52.1533
51.5801
51.008
50.4373
49.8677
49.2992
48.7319
48.1655
47.6001
47.0356
46.4719
45.9089
45.3466
44.7849
44.2236
43.6628
43.1024
42.5422
41.9823
41.4225
40.8628
40.3031
39.7435
39.1838
38.624
38.0642
37.5042
36.9441
36.3838
35.8234
35.2628
34.7022
34.1414
33.5806
33.0197
32.4589
31.8982
31.3377
30.7774
30.2174
29.6578
29.0988
28.5403
27.9826
27.4258
26.87
26.3153
25.7618
25.2098
24.6593
24.1106
23.5637
23.019
22.4764
21.9362
21.3986
20.8638
20.3319
19.8031
19.2776
18.7555
18.2371
17.7226
17.212
16.7056
16.2035
15.706
15.2131
14.7251
14.2421
13.7642
13.2918
12.8248
12.3635
11.908
11.4586
11.0154
10.5787
10.1485
9.72529
9.30919
8.90053
8.49967
8.10708
7.72333
7.34917
6.9856
6.63392
6.29592
5.97407
5.67195
5.39487
5.15124
4.95543
4.83388
4.84291
5.13096
6.27437
13.2347
43.2661
21.8753
18.7935
18.4258
18.9607
19.9258
21.1363
22.5017
23.9704
25.5102
27.0993
28.7227
30.3693
32.0306
33.7001
35.3727
37.0439
38.7098
40.3671
42.0124
43.6427
45.2548
46.8458
48.4125
49.9521
51.4614
52.9375
54.3773
55.778
57.1368
58.4509
59.7179
60.9352
62.1007
63.2124
64.2686
65.2676
66.2082
67.0893
67.9103
68.6706
69.3699
70.0085
70.5865
71.1045
71.5632
71.9637
72.3068
72.5938
72.826
73.0048
73.1319
73.2091
73.2383
73.2212
73.1601
73.0568
72.9135
72.7324
72.5154
72.2646
71.9822
71.6701
71.3303
70.9648
70.5755
70.164
69.7323
69.2818
68.8144
68.3314
67.8344
67.3246
66.8034
66.2721
65.7316
65.1832
64.6278
64.0663
63.4996
62.9285
62.3537
61.7758
61.1955
60.6133
60.0298
59.4453
58.8603
58.2752
57.6902
57.1056
56.5217
55.9387
55.3568
54.7761
54.1968
53.6188
53.0424
52.4676
51.8944
51.3229
50.7529
50.1846
49.618
49.0529
48.4893
47.9272
47.3666
46.8073
46.2493
45.6926
45.1371
44.5826
44.0292
43.4767
42.925
42.3742
41.824
41.2746
40.7257
40.1773
39.6294
39.0819
38.5348
37.988
37.4415
36.8952
36.3492
35.8034
35.2578
34.7124
34.1672
33.6223
33.0776
32.5331
31.989
31.4452
30.9018
30.3589
29.8165
29.2747
28.7336
28.1933
27.6539
27.1154
26.5781
26.0419
25.5071
24.9738
24.442
23.912
23.3839
22.8578
22.3339
21.8124
21.2933
20.7769
20.2634
19.7528
19.2454
18.7412
18.2406
17.7437
17.2505
16.7614
16.2764
15.7957
15.3196
14.8481
14.3814
13.9197
13.4631
13.0119
12.5663
12.1263
11.6922
11.2642
10.8426
10.4276
10.0194
9.61831
9.22477
8.83914
8.46191
8.09369
7.73524
7.38752
7.05176
6.72961
6.42326
6.13575
5.87144
5.63679
5.44199
5.30428
5.25578
5.36463
5.81068
7.29258
15.8002
43.2663
21.8752
18.7934
18.4257
18.9607
19.9257
21.1362
22.5016
23.9703
25.5101
27.0993
28.7226
30.3692
32.0305
33.7
35.3726
37.0438
38.7097
40.367
42.0123
43.6426
45.2547
46.8457
48.4125
49.952
51.4613
52.9374
54.3772
55.7779
57.1367
58.4508
59.7178
60.9351
62.1006
63.2124
64.2685
65.2675
66.2081
67.0892
67.9102
68.6705
69.3699
70.0084
70.5864
71.1044
71.5632
71.9636
72.3068
72.5937
72.8259
73.0047
73.1319
73.2091
73.2382
73.2212
73.16
73.0568
72.9135
72.7323
72.5153
72.2646
71.9821
71.6701
71.3303
70.9648
70.5754
70.164
69.7322
69.2818
68.8144
68.3314
67.8343
67.3246
66.8034
66.272
65.7316
65.1832
64.6278
64.0663
63.4996
62.9285
62.3536
61.7758
61.1955
60.6133
60.0298
59.4453
58.8603
58.2751
57.6901
57.1056
56.5217
55.9387
55.3568
54.7761
54.1967
53.6188
53.0424
52.4676
51.8944
51.3229
50.7529
50.1846
49.6179
49.0528
48.4893
47.9272
47.3666
46.8073
46.2493
45.6926
45.1371
44.5826
44.0291
43.4766
42.925
42.3742
41.824
41.2746
40.7257
40.1773
39.6294
39.0819
38.5348
37.988
37.4415
36.8952
36.3492
35.8034
35.2578
34.7124
34.1672
33.6223
33.0776
32.5331
31.989
31.4452
30.9018
30.3589
29.8165
29.2747
28.7336
28.1933
27.6539
27.1154
26.5781
26.0419
25.5071
24.9738
24.442
23.912
23.3839
22.8578
22.3339
21.8124
21.2933
20.7769
20.2634
19.7528
19.2453
18.7412
18.2406
17.7437
17.2505
16.7614
16.2764
15.7957
15.3196
14.8481
14.3814
13.9197
13.4631
13.0119
12.5663
12.1263
11.6922
11.2642
10.8426
10.4276
10.0194
9.61831
9.22477
8.83914
8.46191
8.09369
7.73524
7.38752
7.05176
6.72961
6.42326
6.13576
5.87144
5.63679
5.44199
5.30428
5.25578
5.36463
5.81069
7.2926
15.8002
50.4398
25.2754
21.4271
20.7467
21.1138
21.9749
23.1146
24.4274
25.8535
27.3555
28.9085
30.495
32.1022
33.7208
35.3435
36.9648
38.5802
40.1858
41.7785
43.3554
44.9137
46.4509
47.9644
49.4519
50.9108
52.3386
53.7328
55.0911
56.4109
57.6898
58.9256
60.116
61.259
62.3525
63.3949
64.3844
65.3197
66.1996
67.0231
67.7894
68.4982
69.149
69.742
70.2772
70.7552
71.1765
71.5419
71.8524
72.1091
72.3131
72.4659
72.5689
72.6238
72.6324
72.5964
72.5178
72.3984
72.2403
72.0454
71.8157
71.5533
71.26
70.9379
70.5888
70.2146
69.8172
69.3982
68.9594
68.5024
68.0288
67.54
67.0375
66.5226
65.9966
65.4608
64.9161
64.3637
63.8045
63.2396
62.6696
62.0954
61.5178
60.9374
60.3547
59.7704
59.1849
58.5988
58.0123
57.4259
56.8399
56.2545
55.67
55.0867
54.5047
53.9242
53.3452
52.7679
52.1924
51.6187
51.0469
50.477
49.909
49.3428
48.7786
48.2162
47.6556
47.0968
46.5397
45.9842
45.4304
44.878
44.3271
43.7776
43.2294
42.6824
42.1366
41.5918
41.0481
40.5053
39.9634
39.4224
38.882
38.3424
37.8034
37.2651
36.7273
36.1901
35.6534
35.1172
34.5814
34.0462
33.5114
32.9771
32.4434
31.9101
31.3774
30.8453
30.3139
29.7831
29.2531
28.724
28.1957
27.6684
27.1422
26.6171
26.0933
25.5709
25.05
24.5306
24.013
23.4973
22.9835
22.4719
21.9625
21.4556
20.9512
20.4495
19.9506
19.4548
18.9621
18.4728
17.9869
17.5047
17.0263
16.5519
16.0815
15.6155
15.1539
14.697
14.2448
13.7976
13.3556
12.9189
12.4877
12.0623
11.6428
11.2295
10.8227
10.4227
10.0297
9.6442
9.26658
8.89735
8.53713
8.18666
7.84686
7.5189
7.20426
6.90488
6.62338
6.36334
6.12986
5.93054
5.77732
5.69034
5.70728
5.90809
6.50412
8.3165
18.3629
50.4399
25.2753
21.427
20.7467
21.1137
21.9748
23.1145
24.4273
25.8534
27.3555
28.9085
30.4949
32.1021
33.7207
35.3434
36.9647
38.5801
40.1857
41.7784
43.3553
44.9136
46.4508
47.9643
49.4518
50.9107
52.3385
53.7327
55.091
56.4108
57.6897
58.9255
60.116
61.2589
62.3525
63.3948
64.3843
65.3196
66.1995
67.023
67.7894
68.4981
69.149
69.7419
70.2772
70.7551
71.1764
71.5419
71.8524
72.109
72.3131
72.4658
72.5689
72.6238
72.6324
72.5964
72.5178
72.3984
72.2403
72.0454
71.8157
71.5532
71.26
70.9378
70.5888
70.2146
69.8171
69.3982
68.9594
68.5024
68.0287
67.54
67.0375
66.5226
65.9966
65.4607
64.9161
64.3637
63.8045
63.2395
62.6696
62.0954
61.5178
60.9373
60.3547
59.7704
59.1849
58.5987
58.0123
57.4259
56.8398
56.2545
55.67
55.0867
54.5047
53.9241
53.3452
52.7679
52.1924
51.6187
51.0469
50.477
49.909
49.3428
48.7786
48.2162
47.6556
47.0968
46.5397
45.9842
45.4304
44.878
44.3271
43.7776
43.2294
42.6824
42.1366
41.5918
41.0481
40.5053
39.9634
39.4223
38.882
38.3424
37.8034
37.2651
36.7273
36.1901
35.6534
35.1172
34.5814
34.0462
33.5114
32.9771
32.4433
31.9101
31.3774
30.8453
30.3139
29.7831
29.2531
28.724
28.1957
27.6684
27.1422
26.6171
26.0933
25.5709
25.05
24.5306
24.013
23.4973
22.9835
22.4719
21.9625
21.4556
20.9512
20.4495
19.9506
19.4548
18.9621
18.4728
17.9869
17.5047
17.0263
16.5519
16.0815
15.6155
15.1539
14.697
14.2448
13.7976
13.3556
12.9189
12.4877
12.0623
11.6428
11.2295
10.8227
10.4227
10.0297
9.6442
9.26658
8.89735
8.53713
8.18666
7.84686
7.5189
7.20426
6.90489
6.62338
6.36334
6.12986
5.93054
5.77732
5.69034
5.70728
5.9081
6.50413
8.31652
18.3629
57.9247
28.8018
24.1863
23.2079
23.4231
24.1954
25.2778
26.55
27.9441
29.418
30.9432
32.5004
34.0752
35.6573
37.2391
38.8145
40.379
41.929
43.4615
44.9739
46.4641
47.9298
49.3693
50.7805
52.1616
53.5106
54.8255
56.1045
57.3455
58.5466
59.7059
60.8216
61.8918
62.9148
63.8892
64.8134
65.6863
66.5066
67.2736
67.9865
68.6448
69.2482
69.7966
70.2901
70.7292
71.1142
71.4458
71.725
71.9526
72.1297
72.2577
72.338
72.372
72.3613
72.3077
72.2128
72.0786
71.9069
71.6996
71.4584
71.1855
70.8826
70.5515
70.1942
69.8125
69.408
68.9825
68.5376
68.0749
67.5959
67.1022
66.595
66.0757
65.5455
65.0056
64.4572
63.9013
63.3387
62.7705
62.1976
61.6205
61.0402
60.4572
59.8721
59.2855
58.698
58.1099
57.5216
56.9336
56.3461
55.7594
55.1738
54.5895
54.0067
53.4255
52.8461
52.2686
51.693
51.1195
50.548
49.9786
49.4113
48.8461
48.283
47.7219
47.1629
46.6059
46.0508
45.4975
44.9461
44.3965
43.8485
43.3021
42.7573
42.2139
41.6719
41.1312
40.5918
40.0536
39.5165
38.9804
38.4454
37.9112
37.378
36.8456
36.3141
35.7833
35.2532
34.7239
34.1953
33.6674
33.1402
32.6137
32.0879
31.5628
31.0385
30.515
29.9923
29.4704
28.9495
28.4296
27.9108
27.3931
26.8765
26.3613
25.8475
25.3351
24.8244
24.3153
23.808
23.3027
22.7994
22.2983
21.7995
21.3031
20.8093
20.3182
19.83
19.3448
18.8627
18.3839
17.9085
17.4368
16.9688
16.5047
16.0447
15.589
15.1376
14.6908
14.2488
13.8117
13.3797
12.9531
12.532
12.1166
11.7073
11.3043
10.9079
10.5184
10.1363
9.76187
9.39575
9.03851
8.69086
8.3537
8.02808
7.71538
7.41732
7.13614
6.87484
6.63754
6.4301
6.26123
6.14462
6.10339
6.18063
6.46849
7.21024
9.35048
20.9421
57.9248
28.8017
24.1862
23.2078
23.423
24.1953
25.2777
26.5499
27.9441
29.4179
30.9432
32.5003
34.0751
35.6572
37.239
38.8144
40.3789
41.9289
43.4614
44.9738
46.464
47.9297
49.3692
50.7804
52.1615
53.5105
54.8254
56.1044
57.3454
58.5465
59.7058
60.8215
61.8917
62.9147
63.8891
64.8134
65.6862
66.5066
67.2736
67.9864
68.6447
69.2481
69.7965
70.2901
70.7291
71.1141
71.4458
71.7249
71.9525
72.1297
72.2577
72.3379
72.3719
72.3612
72.3076
72.2128
72.0786
71.9069
71.6995
71.4584
71.1855
70.8825
70.5515
70.1942
69.8125
69.408
68.9824
68.5376
68.0749
67.5959
67.1021
66.5949
66.0756
65.5455
65.0056
64.4572
63.9012
63.3387
62.7705
62.1975
61.6205
61.0402
60.4571
59.8721
59.2855
58.698
58.1098
57.5216
56.9335
56.3461
55.7594
55.1738
54.5895
54.0067
53.4255
52.8461
52.2686
51.693
51.1195
50.548
49.9786
49.4113
48.8461
48.283
47.7219
47.1629
46.6059
46.0508
45.4975
44.9461
44.3965
43.8485
43.3021
42.7572
42.2139
41.6719
41.1312
40.5918
40.0536
39.5165
38.9804
38.4454
37.9112
37.378
36.8456
36.3141
35.7833
35.2532
34.7239
34.1953
33.6674
33.1402
32.6137
32.0879
31.5628
31.0385
30.5149
29.9923
29.4704
28.9495
28.4296
27.9108
27.3931
26.8765
26.3613
25.8475
25.3351
24.8244
24.3153
23.808
23.3027
22.7994
22.2983
21.7995
21.3031
20.8093
20.3182
19.83
19.3448
18.8627
18.3839
17.9085
17.4368
16.9688
16.5047
16.0447
15.589
15.1376
14.6908
14.2488
13.8117
13.3797
12.9531
12.532
12.1166
11.7073
11.3043
10.9079
10.5184
10.1363
9.76187
9.39575
9.03851
8.69086
8.3537
8.02809
7.71538
7.41732
7.13614
6.87484
6.63754
6.4301
6.26123
6.14462
6.10339
6.18063
6.46849
7.21025
9.3505
20.9421
65.6135
32.4465
27.0662
25.7997
25.8737
26.567
27.6007
28.8396
30.2079
31.6583
33.1598
34.6907
36.2356
37.7833
39.3255
40.8562
42.3708
43.8658
45.3385
46.7868
48.209
49.6035
50.9689
52.3039
53.607
54.877
56.1124
57.3119
58.4739
59.5969
60.6794
61.72
62.7172
63.6694
64.5756
65.4343
66.2444
67.005
67.7153
68.3746
68.9823
69.5381
70.042
70.494
70.8942
71.2432
71.5414
71.7896
71.9886
72.1394
72.2433
72.3014
72.3151
72.286
72.2155
72.1054
71.9573
71.7729
71.554
71.3025
71.02
70.7085
70.3696
70.0051
69.6168
69.2064
68.7754
68.3254
67.8581
67.3748
66.8771
66.3661
65.8434
65.3099
64.767
64.2157
63.657
63.0919
62.5212
61.9459
61.3667
60.7843
60.1993
59.6123
59.024
58.4348
57.8451
57.2554
56.6661
56.0773
55.4896
54.903
54.3179
53.7343
53.1525
52.5727
51.9948
51.419
50.8454
50.274
49.7049
49.138
48.5734
48.011
47.4508
46.8929
46.3371
45.7834
45.2317
44.6821
44.1344