/*--------------------------------*- C++ -*----------------------------------*\
  =========                 |
  \\      /  F ield         | OpenFOAM: The Open Source CFD Toolbox
   \\    /   O peration     | Website:  https://openfoam.org
    \\  /    A nd           | Version:  8
     \\/     M anipulation  |
\*---------------------------------------------------------------------------*/
FoamFile
{
    version     2.0;
    format      ascii;
    class       volScalarField;
    location    "4700";
    object      k;
}
// * * * * * * * * * * * * * * * * * * * * * * * * * * * * * * * * * * * * * //

dimensions      [0 2 -2 0 0 0 0];

internalField   nonuniform List<scalar> 
48000
(
0.0327506
0.0855481
0.13124
0.170971
0.208044
0.242349
0.27429
0.304272
0.332928
0.36085
0.38767
0.413644
0.438829
0.463279
0.487037
0.510132
0.532587
0.554414
0.575623
0.596217
0.616198
0.635565
0.654315
0.672445
0.689952
0.706832
0.723081
0.738697
0.753678
0.768023
0.781733
0.794808
0.807251
0.819066
0.830258
0.840833
0.850798
0.860162
0.868935
0.877126
0.884747
0.891809
0.898326
0.904307
0.909767
0.914806
0.91941
0.923543
0.927214
0.930438
0.933233
0.935617
0.937608
0.939222
0.940475
0.941385
0.941968
0.94224
0.942215
0.941909
0.941337
0.940512
0.939449
0.938161
0.936659
0.934958
0.933067
0.930998
0.928763
0.92637
0.92383
0.921152
0.918343
0.915414
0.91237
0.909219
0.905968
0.902624
0.899191
0.895676
0.892083
0.888417
0.884682
0.880882
0.877021
0.873102
0.869127
0.8651
0.861023
0.856898
0.852726
0.848509
0.844249
0.839947
0.835603
0.831218
0.826793
0.822329
0.817825
0.813281
0.808698
0.804076
0.799413
0.79471
0.789966
0.78518
0.780353
0.775482
0.770568
0.76561
0.760605
0.755555
0.750457
0.74531
0.740114
0.734867
0.729569
0.724218
0.718812
0.713352
0.707836
0.702263
0.696632
0.690941
0.685191
0.679379
0.673506
0.667569
0.661569
0.655504
0.649374
0.643179
0.636917
0.630587
0.624191
0.617726
0.611194
0.604593
0.597923
0.591185
0.584378
0.577502
0.570557
0.563544
0.556463
0.549314
0.542097
0.534814
0.527464
0.520049
0.512568
0.505023
0.497415
0.489743
0.48201
0.474216
0.466362
0.458449
0.450478
0.44245
0.434365
0.426225
0.418031
0.409783
0.401482
0.393129
0.384724
0.376267
0.367759
0.3592
0.350589
0.341926
0.333209
0.324438
0.31561
0.306724
0.297776
0.288764
0.279687
0.270549
0.26138
0.252173
0.242861
0.233423
0.223846
0.214109
0.204188
0.194052
0.183665
0.172978
0.161931
0.150512
0.13864
0.126122
0.112764
0.0982746
0.0821751
0.0635588
0.040185
0.0251114
0.032751
0.0855485
0.13124
0.170972
0.208045
0.242349
0.274291
0.304273
0.332928
0.360851
0.387671
0.413644
0.438829
0.46328
0.487037
0.510133
0.532587
0.554414
0.575623
0.596217
0.616198
0.635565
0.654315
0.672446
0.689952
0.706832
0.723081
0.738697
0.753678
0.768023
0.781733
0.794808
0.807251
0.819066
0.830258
0.840833
0.850798
0.860163
0.868935
0.877126
0.884747
0.89181
0.898326
0.904307
0.909767
0.914806
0.91941
0.923543
0.927214
0.930438
0.933233
0.935617
0.937608
0.939222
0.940475
0.941385
0.941968
0.94224
0.942215
0.941909
0.941337
0.940512
0.939449
0.938161
0.936659
0.934958
0.933067
0.930998
0.928763
0.92637
0.92383
0.921151
0.918343
0.915414
0.91237
0.909219
0.905968
0.902624
0.899191
0.895676
0.892083
0.888417
0.884682
0.880882
0.877021
0.873102
0.869127
0.8651
0.861023
0.856898
0.852726
0.848509
0.844249
0.839947
0.835603
0.831218
0.826793
0.822329
0.817825
0.813281
0.808698
0.804075
0.799413
0.79471
0.789966
0.78518
0.780353
0.775482
0.770568
0.765609
0.760605
0.755555
0.750457
0.74531
0.740114
0.734867
0.729569
0.724217
0.718812
0.713352
0.707836
0.702263
0.696632
0.690941
0.685191
0.679379
0.673506
0.667569
0.661569
0.655504
0.649374
0.643179
0.636916
0.630587
0.624191
0.617726
0.611194
0.604593
0.597923
0.591185
0.584378
0.577502
0.570557
0.563544
0.556463
0.549314
0.542097
0.534814
0.527464
0.520049
0.512568
0.505023
0.497415
0.489743
0.48201
0.474216
0.466362
0.458449
0.450478
0.44245
0.434365
0.426225
0.418031
0.409783
0.401482
0.393129
0.384724
0.376267
0.367759
0.3592
0.350589
0.341926
0.333209
0.324438
0.31561
0.306724
0.297776
0.288765
0.279688
0.270549
0.26138
0.252173
0.242861
0.233423
0.223847
0.214109
0.204188
0.194052
0.183665
0.172978
0.161931
0.150512
0.13864
0.126122
0.112764
0.0982746
0.0821751
0.0635584
0.0401851
0.02511
0.0874154
0.219984
0.312737
0.394308
0.469279
0.53944
0.606152
0.669634
0.730568
0.789413
0.84641
0.901764
0.955616
1.00807
1.05921
1.10906
1.15768
1.20507
1.25124
1.29619
1.3399
1.38238
1.42359
1.46352
1.50216
1.53949
1.57549
1.61015
1.64344
1.67538
1.70594
1.73512
1.76293
1.78936
1.81442
1.83812
1.86047
1.88148
1.90118
1.91958
1.9367
1.95257
1.96722
1.98067
1.99294
2.00409
2.01414
2.02315
2.03112
2.03811
2.04415
2.04927
2.05352
2.05693
2.05953
2.06137
2.06248
2.0629
2.06266
2.06179
2.06034
2.05832
2.05577
2.05272
2.0492
2.04523
2.04085
2.03607
2.03092
2.02543
2.01961
2.01349
2.00709
2.00042
1.9935
1.98634
1.97897
1.9714
1.96363
1.95569
1.94758
1.93931
1.9309
1.92235
1.91366
1.90486
1.89594
1.8869
1.87777
1.86853
1.85919
1.84976
1.84024
1.83064
1.82095
1.81117
1.80131
1.79138
1.78135
1.77125
1.76107
1.75081
1.74046
1.73004
1.71952
1.70893
1.69824
1.68747
1.67661
1.66566
1.65461
1.64347
1.63223
1.62089
1.60944
1.59789
1.58624
1.57447
1.5626
1.5506
1.5385
1.52627
1.51392
1.50145
1.48885
1.47613
1.46327
1.45029
1.43717
1.42392
1.41053
1.39701
1.38334
1.36954
1.35559
1.3415
1.32728
1.3129
1.29839
1.28373
1.26893
1.25398
1.23889
1.22366
1.20829
1.19278
1.17712
1.16133
1.1454
1.12933
1.11313
1.0968
1.08033
1.06374
1.04702
1.03017
1.0132
0.996105
0.978893
0.961564
0.94412
0.926563
0.908894
0.891116
0.873229
0.855235
0.837136
0.818931
0.800621
0.782206
0.763685
0.745055
0.726317
0.707465
0.688496
0.669405
0.650186
0.63083
0.611329
0.591672
0.571849
0.551838
0.5316
0.511118
0.490372
0.469314
0.447903
0.426079
0.403773
0.380895
0.357331
0.332925
0.307538
0.280926
0.252754
0.222543
0.189564
0.152533
0.10824
0.0418786
0.0874159
0.219984
0.312738
0.394308
0.46928
0.53944
0.606152
0.669634
0.730568
0.789413
0.84641
0.901764
0.955616
1.00807
1.05921
1.10906
1.15768
1.20507
1.25124
1.29619
1.3399
1.38238
1.42359
1.46352
1.50216
1.53949
1.57549
1.61015
1.64344
1.67538
1.70594
1.73512
1.76293
1.78936
1.81442
1.83812
1.86047
1.88148
1.90118
1.91958
1.9367
1.95257
1.96722
1.98066
1.99294
2.00408
2.01414
2.02315
2.03112
2.03811
2.04415
2.04927
2.05352
2.05692
2.05953
2.06137
2.06248
2.0629
2.06266
2.06179
2.06034
2.05832
2.05577
2.05272
2.04919
2.04523
2.04084
2.03607
2.03092
2.02543
2.01961
2.01349
2.00709
2.00042
1.9935
1.98634
1.97897
1.9714
1.96363
1.95569
1.94758
1.93931
1.9309
1.92235
1.91366
1.90486
1.89594
1.8869
1.87776
1.86853
1.85919
1.84976
1.84024
1.83064
1.82095
1.81117
1.80131
1.79137
1.78135
1.77125
1.76107
1.75081
1.74046
1.73003
1.71952
1.70893
1.69824
1.68747
1.67661
1.66566
1.65461
1.64347
1.63223
1.62089
1.60944
1.59789
1.58624
1.57447
1.56259
1.5506
1.53849
1.52627
1.51392
1.50145
1.48885
1.47613
1.46327
1.45029
1.43717
1.42392
1.41053
1.39701
1.38334
1.36954
1.35559
1.3415
1.32727
1.3129
1.29839
1.28373
1.26893
1.25398
1.23889
1.22366
1.20829
1.19278
1.17712
1.16133
1.1454
1.12933
1.11313
1.0968
1.08033
1.06374
1.04702
1.03017
1.0132
0.996105
0.978893
0.961564
0.94412
0.926562
0.908894
0.891115
0.873229
0.855235
0.837136
0.818931
0.800621
0.782206
0.763684
0.745055
0.726316
0.707465
0.688496
0.669405
0.650185
0.630829
0.611328
0.591672
0.571849
0.551838
0.5316
0.511118
0.490371
0.469314
0.447903
0.426079
0.403773
0.380895
0.357331
0.332925
0.307538
0.280926
0.252754
0.222543
0.189564
0.152533
0.10824
0.0418774
0.132413
0.313837
0.429881
0.529064
0.620003
0.705804
0.787788
0.866595
0.942701
1.01646
1.08811
1.15783
1.22577
1.29202
1.35665
1.41971
1.48124
1.54125
1.59974
1.6567
1.71213
1.766
1.81829
1.86899
1.91806
1.96548
2.01124
2.0553
2.09767
2.13831
2.17722
2.21439
2.24981
2.2835
2.31545
2.34567
2.37418
2.40099
2.42612
2.4496
2.47145
2.4917
2.51039
2.52754
2.54321
2.55742
2.57024
2.58169
2.59184
2.60071
2.60835
2.61482
2.62016
2.62442
2.62764
2.62987
2.63116
2.63155
2.63109
2.62983
2.62779
2.62503
2.62159
2.6175
2.6128
2.60753
2.60172
2.5954
2.58861
2.58137
2.57371
2.56567
2.55726
2.5485
2.53943
2.53007
2.52042
2.51052
2.50037
2.49
2.47942
2.46864
2.45768
2.44654
2.43524
2.42379
2.41219
2.40045
2.38859
2.3766
2.36449
2.35227
2.33994
2.3275
2.31495
2.30231
2.28957
2.27673
2.26378
2.25075
2.23761
2.22438
2.21105
2.19761
2.18408
2.17045
2.15671
2.14286
2.1289
2.11484
2.10065
2.08636
2.07194
2.0574
2.04274
2.02795
2.01303
1.99797
1.98278
1.96745
1.95198
1.93636
1.92059
1.90467
1.8886
1.87237
1.85599
1.83944
1.82273
1.80585
1.7888
1.77159
1.75421
1.73665
1.71892
1.70102
1.68294
1.66468
1.64625
1.62764
1.60886
1.5899
1.57076
1.55145
1.53196
1.5123
1.49247
1.47247
1.45229
1.43195
1.41145
1.39078
1.36995
1.34895
1.32781
1.30651
1.28505
1.26345
1.2417
1.21981
1.19778
1.1756
1.1533
1.13085
1.10828
1.08557
1.06273
1.03977
1.01667
0.993449
0.970096
0.946611
0.922993
0.899237
0.875338
0.851291
0.827087
0.802718
0.778172
0.753435
0.728491
0.703316
0.677881
0.652156
0.626103
0.599673
0.572832
0.545509
0.517626
0.489087
0.45977
0.42952
0.398141
0.365402
0.330944
0.294247
0.254456
0.209823
0.15508
0.0661293
0.132414
0.313837
0.429881
0.529064
0.620003
0.705804
0.787788
0.866595
0.942701
1.01646
1.08811
1.15783
1.22577
1.29201
1.35665
1.41971
1.48124
1.54125
1.59974
1.6567
1.71213
1.766
1.81829
1.86899
1.91806
1.96548
2.01124
2.0553
2.09767
2.13831
2.17721
2.21439
2.24981
2.2835
2.31545
2.34567
2.37418
2.40099
2.42612
2.4496
2.47145
2.4917
2.51039
2.52754
2.54321
2.55742
2.57024
2.58169
2.59184
2.60071
2.60835
2.61482
2.62016
2.62442
2.62764
2.62987
2.63116
2.63155
2.63109
2.62982
2.62779
2.62503
2.62159
2.6175
2.6128
2.60753
2.60172
2.5954
2.5886
2.58137
2.57371
2.56566
2.55725
2.5485
2.53943
2.53007
2.52042
2.51052
2.50037
2.49
2.47942
2.46864
2.45768
2.44654
2.43524
2.42378
2.41219
2.40045
2.38859
2.3766
2.36449
2.35227
2.33993
2.3275
2.31495
2.30231
2.28957
2.27672
2.26378
2.25075
2.23761
2.22438
2.21105
2.19761
2.18408
2.17044
2.1567
2.14286
2.1289
2.11483
2.10065
2.08636
2.07194
2.0574
2.04274
2.02795
2.01303
1.99797
1.98278
1.96745
1.95198
1.93636
1.92059
1.90467
1.8886
1.87237
1.85599
1.83944
1.82272
1.80585
1.7888
1.77159
1.75421
1.73665
1.71892
1.70102
1.68294
1.66468
1.64625
1.62764
1.60886
1.5899
1.57076
1.55145
1.53196
1.5123
1.49247
1.47247
1.45229
1.43195
1.41145
1.39078
1.36994
1.34895
1.32781
1.30651
1.28505
1.26345
1.2417
1.21981
1.19778
1.1756
1.15329
1.13085
1.10828
1.08557
1.06273
1.03977
1.01667
0.993448
0.970095
0.946611
0.922993
0.899236
0.875338
0.851291
0.827087
0.802718
0.778171
0.753435
0.72849
0.703316
0.677881
0.652156
0.626103
0.599673
0.572832
0.545509
0.517626
0.489087
0.45977
0.42952
0.398141
0.365401
0.330944
0.294247
0.254456
0.209823
0.15508
0.0661294
0.169573
0.39351
0.528412
0.640129
0.742098
0.838437
0.930772
1.01988
1.10621
1.19008
1.27168
1.35117
1.42868
1.50428
1.57805
1.65003
1.72024
1.7887
1.85541
1.92038
1.98358
2.045
2.10462
2.16242
2.21836
2.27244
2.32462
2.37489
2.42322
2.4696
2.51401
2.55646
2.59693
2.63542
2.67194
2.70649
2.7391
2.76977
2.79854
2.82541
2.85043
2.87362
2.89503
2.91468
2.93263
2.94892
2.9636
2.97672
2.98833
2.99847
3.0072
3.01458
3.02064
3.02546
3.02908
3.03156
3.03294
3.03328
3.03264
3.03106
3.02859
3.02527
3.02117
3.01631
3.01074
3.00451
2.99765
2.9902
2.9822
2.97368
2.96468
2.95523
2.94535
2.93508
2.92444
2.91346
2.90215
2.89055
2.87866
2.86652
2.85414
2.84153
2.8287
2.81568
2.80248
2.78909
2.77555
2.76185
2.748
2.73401
2.71989
2.70564
2.69127
2.67678
2.66217
2.64745
2.63262
2.61768
2.60263
2.58748
2.57221
2.55684
2.54136
2.52577
2.51006
2.49425
2.47832
2.46227
2.4461
2.4298
2.41338
2.39684
2.38016
2.36334
2.34639
2.3293
2.31206
2.29467
2.27713
2.25944
2.24158
2.22357
2.20539
2.18704
2.16852
2.14983
2.13096
2.1119
2.09267
2.07325
2.05365
2.03386
2.01387
1.9937
1.97333
1.95276
1.932
1.91104
1.88989
1.86854
1.84699
1.82524
1.8033
1.78116
1.75882
1.73629
1.71357
1.69066
1.66756
1.64427
1.62079
1.59713
1.57329
1.54927
1.52508
1.50071
1.47617
1.45147
1.4266
1.40158
1.37639
1.35105
1.32556
1.29991
1.27412
1.24818
1.22209
1.19586
1.16949
1.14298
1.11631
1.08951
1.06255
1.03544
1.00818
0.980748
0.953147
0.925363
0.897386
0.8692
0.840788
0.812126
0.783188
0.75394
0.724346
0.694361
0.663932
0.632993
0.601473
0.569278
0.536283
0.502339
0.467242
0.430748
0.392483
0.35186
0.307824
0.258022
0.195097
0.0858969
0.169574
0.393511
0.528412
0.640129
0.742097
0.838437
0.930772
1.01988
1.10621
1.19008
1.27168
1.35117
1.42868
1.50428
1.57805
1.65003
1.72024
1.7887
1.85541
1.92038
1.98358
2.045
2.10462
2.16241
2.21836
2.27244
2.32462
2.37489
2.42322
2.4696
2.51401
2.55646
2.59693
2.63542
2.67194
2.70649
2.7391
2.76977
2.79853
2.82541
2.85043
2.87362
2.89503
2.91468
2.93263
2.94892
2.9636
2.97672
2.98833
2.99847
3.0072
3.01458
3.02064
3.02546
3.02908
3.03155
3.03294
3.03328
3.03264
3.03106
3.02859
3.02527
3.02117
3.01631
3.01074
3.00451
2.99765
2.9902
2.9822
2.97368
2.96468
2.95523
2.94535
2.93508
2.92444
2.91345
2.90215
2.89055
2.87866
2.86652
2.85414
2.84153
2.8287
2.81568
2.80247
2.78909
2.77555
2.76185
2.748
2.73401
2.71989
2.70564
2.69127
2.67678
2.66217
2.64745
2.63262
2.61768
2.60263
2.58748
2.57221
2.55684
2.54136
2.52577
2.51006
2.49425
2.47831
2.46227
2.4461
2.4298
2.41338
2.39684
2.38016
2.36334
2.34639
2.3293
2.31206
2.29467
2.27713
2.25944
2.24158
2.22357
2.20539
2.18704
2.16852
2.14983
2.13095
2.1119
2.09267
2.07325
2.05365
2.03386
2.01387
1.9937
1.97333
1.95276
1.932
1.91104
1.88989
1.86854
1.84699
1.82524
1.8033
1.78116
1.75882
1.73629
1.71357
1.69066
1.66756
1.64426
1.62079
1.59713
1.57329
1.54927
1.52508
1.50071
1.47617
1.45147
1.4266
1.40158
1.37639
1.35105
1.32555
1.29991
1.27412
1.24818
1.22209
1.19586
1.16949
1.14298
1.11631
1.08951
1.06255
1.03544
1.00818
0.980748
0.953146
0.925363
0.897386
0.8692
0.840788
0.812126
0.783187
0.75394
0.724346
0.69436
0.663932
0.632993
0.601473
0.569277
0.536283
0.502339
0.467241
0.430748
0.392483
0.35186
0.307824
0.258022
0.195097
0.0858969
0.203218
0.465053
0.618023
0.741504
0.853179
0.958377
1.05919
1.15657
1.25104
1.34289
1.43232
1.51946
1.60441
1.68725
1.76803
1.84681
1.92361
1.99844
2.07131
2.14223
2.21119
2.27817
2.34317
2.40615
2.46711
2.52602
2.58286
2.63761
2.69026
2.7408
2.7892
2.83546
2.87959
2.92157
2.96141
2.99913
3.03474
3.06824
3.09967
3.12906
3.15642
3.1818
3.20523
3.22676
3.24642
3.26427
3.28036
3.29474
3.30746
3.31857
3.32814
3.33621
3.34284
3.34809
3.35203
3.35469
3.35616
3.35647
3.35569
3.35387
3.35106
3.34732
3.3427
3.33724
3.331
3.32401
3.31633
3.30799
3.29904
3.28951
3.27945
3.26888
3.25783
3.24635
3.23446
3.22219
3.20956
3.19659
3.18332
3.16976
3.15593
3.14185
3.12753
3.113
3.09826
3.08333
3.06821
3.05293
3.03748
3.02189
3.00614
2.99026
2.97424
2.9581
2.94182
2.92543
2.90892
2.89229
2.87554
2.85867
2.84169
2.8246
2.80738
2.79005
2.7726
2.75503
2.73734
2.71951
2.70156
2.68348
2.66527
2.64691
2.62842
2.60978
2.59099
2.57205
2.55295
2.5337
2.51428
2.4947
2.47494
2.45502
2.43491
2.41462
2.39415
2.3735
2.35265
2.33161
2.31037
2.28893
2.26729
2.24545
2.22341
2.20115
2.17869
2.15602
2.13314
2.11004
2.08673
2.06321
2.03948
2.01553
1.99137
1.967
1.94242
1.91762
1.89262
1.86741
1.842
1.81639
1.79057
1.76455
1.73834
1.71194
1.68535
1.65857
1.6316
1.60446
1.57713
1.54964
1.52197
1.49413
1.46612
1.43795
1.40962
1.38114
1.35249
1.32369
1.29473
1.26561
1.23634
1.20692
1.17733
1.14757
1.11765
1.08756
1.05728
1.02681
0.996132
0.965238
0.934107
0.902717
0.871043
0.839053
0.806712
0.773976
0.740794
0.707103
0.672828
0.637874
0.60212
0.565423
0.527572
0.488287
0.447164
0.403506
0.356005
0.301656
0.231179
0.103411
0.203218
0.465054
0.618023
0.741504
0.853179
0.958377
1.05919
1.15657
1.25104
1.34289
1.43232
1.51945
1.60441
1.68725
1.76803
1.84681
1.9236
1.99844
2.07131
2.14223
2.21119
2.27817
2.34317
2.40615
2.46711
2.52602
2.58286
2.63761
2.69026
2.7408
2.7892
2.83546
2.87959
2.92157
2.96141
2.99913
3.03474
3.06824
3.09967
3.12906
3.15642
3.1818
3.20523
3.22676
3.24642
3.26427
3.28036
3.29474
3.30746
3.31857
3.32814
3.3362
3.34284
3.34809
3.35202
3.35469
3.35616
3.35647
3.35569
3.35387
3.35106
3.34732
3.3427
3.33724
3.331
3.32401
3.31633
3.30799
3.29904
3.28951
3.27945
3.26888
3.25783
3.24635
3.23446
3.22219
3.20956
3.19659
3.18332
3.16976
3.15593
3.14185
3.12753
3.113
3.09826
3.08333
3.06821
3.05293
3.03748
3.02189
3.00614
2.99026
2.97424
2.9581
2.94182
2.92543
2.90892
2.89229
2.87554
2.85867
2.84169
2.8246
2.80738
2.79005
2.7726
2.75503
2.73733
2.71951
2.70156
2.68348
2.66526
2.64691
2.62842
2.60978
2.59099
2.57205
2.55295
2.5337
2.51428
2.4947
2.47494
2.45501
2.43491
2.41462
2.39415
2.3735
2.35265
2.33161
2.31037
2.28893
2.26729
2.24545
2.22341
2.20115
2.17869
2.15602
2.13314
2.11004
2.08673
2.06321
2.03948
2.01553
1.99137
1.967
1.94242
1.91762
1.89262
1.86741
1.842
1.81639
1.79057
1.76455
1.73834
1.71194
1.68535
1.65857
1.6316
1.60446
1.57713
1.54964
1.52197
1.49413
1.46612
1.43795
1.40962
1.38114
1.35249
1.32369
1.29473
1.26561
1.23634
1.20692
1.17733
1.14757
1.11765
1.08756
1.05728
1.02681
0.996132
0.965237
0.934106
0.902717
0.871043
0.839053
0.806712
0.773976
0.740794
0.707103
0.672828
0.637874
0.60212
0.565422
0.527572
0.488287
0.447164
0.403506
0.356005
0.301657
0.231179
0.103411
0.234049
0.53202
0.70241
0.83758
0.958602
1.07203
1.18048
1.28516
1.38666
1.48532
1.58134
1.67486
1.76596
1.85473
1.94122
2.02547
2.10751
2.18737
2.26506
2.3406
2.41399
2.48522
2.55428
2.62118
2.68589
2.74841
2.80871
2.86679
2.92264
2.97624
3.02759
3.07668
3.12351
3.16808
3.2104
3.25047
3.28831
3.32395
3.35739
3.38867
3.41782
3.44486
3.46985
3.49282
3.51382
3.53288
3.55008
3.56545
3.57905
3.59095
3.60118
3.60982
3.61692
3.62254
3.62674
3.62959
3.63114
3.63145
3.63059
3.6286
3.62554
3.62148
3.61646
3.61054
3.60376
3.59618
3.58785
3.5788
3.56909
3.55875
3.54783
3.53635
3.52437
3.5119
3.49899
3.48566
3.47194
3.45786
3.44345
3.42871
3.41369
3.39839
3.38284
3.36705
3.35103
3.33481
3.31839
3.30179
3.28501
3.26807
3.25097
3.23372
3.21633
3.19879
3.18113
3.16333
3.14541
3.12736
3.10918
3.09088
3.07246
3.05392
3.03525
3.01646
2.99754
2.97849
2.95931
2.94
2.92056
2.90097
2.88125
2.86137
2.84135
2.82118
2.80085
2.78036
2.75971
2.73889
2.71789
2.69673
2.67538
2.65385
2.63213
2.61022
2.58811
2.56581
2.54331
2.5206
2.49769
2.47456
2.45122
2.42767
2.4039
2.37991
2.3557
2.33127
2.30661
2.28173
2.25663
2.2313
2.20574
2.17996
2.15395
2.12771
2.10126
2.07458
2.04767
2.02055
1.99321
1.96566
1.93789
1.90991
1.88172
1.85332
1.82472
1.79592
1.76693
1.73774
1.70836
1.67879
1.64904
1.61911
1.589
1.55871
1.52825
1.49762
1.46682
1.43585
1.40472
1.37341
1.34194
1.31031
1.2785
1.24651
1.21435
1.182
1.14947
1.11673
1.08378
1.0506
1.01718
0.983499
0.949528
0.915242
0.880604
0.845574
0.810102
0.774127
0.737575
0.700353
0.662338
0.623374
0.583239
0.541615
0.498039
0.451686
0.40097
0.342271
0.264562
0.119452
0.23405
0.53202
0.70241
0.83758
0.958602
1.07203
1.18048
1.28516
1.38666
1.48532
1.58134
1.67486
1.76596
1.85473
1.94122
2.02547
2.10751
2.18737
2.26506
2.3406
2.41399
2.48522
2.55428
2.62118
2.68589
2.74841
2.80871
2.86679
2.92264
2.97624
3.02759
3.07668
3.12351
3.16808
3.21039
3.25047
3.28831
3.32395
3.35739
3.38867
3.41782
3.44486
3.46985
3.49282
3.51381
3.53288
3.55008
3.56545
3.57905
3.59094
3.60118
3.60982
3.61692
3.62254
3.62674
3.62959
3.63114
3.63145
3.63058
3.6286
3.62554
3.62148
3.61646
3.61054
3.60376
3.59618
3.58785
3.5788
3.56909
3.55875
3.54783
3.53635
3.52437
3.5119
3.49899
3.48566
3.47194
3.45786
3.44344
3.42871
3.41369
3.39839
3.38284
3.36705
3.35103
3.33481
3.31839
3.30179
3.28501
3.26807
3.25097
3.23372
3.21633
3.19879
3.18113
3.16333
3.14541
3.12735
3.10918
3.09088
3.07246
3.05392
3.03525
3.01646
2.99754
2.97849
2.95931
2.94
2.92056
2.90097
2.88125
2.86137
2.84135
2.82118
2.80085
2.78036
2.75971
2.73889
2.71789
2.69672
2.67538
2.65385
2.63213
2.61022
2.58811
2.56581
2.54331
2.5206
2.49768
2.47456
2.45122
2.42767
2.4039
2.37991
2.3557
2.33127
2.30661
2.28173
2.25663
2.2313
2.20574
2.17996
2.15395
2.12771
2.10126
2.07458
2.04767
2.02055
1.99321
1.96566
1.93789
1.9099
1.88172
1.85332
1.82472
1.79592
1.76693
1.73774
1.70836
1.67879
1.64904
1.61911
1.589
1.55871
1.52825
1.49762
1.46682
1.43585
1.40472
1.37341
1.34194
1.31031
1.2785
1.24651
1.21435
1.182
1.14947
1.11673
1.08378
1.0506
1.01718
0.983498
0.949528
0.915242
0.880604
0.845574
0.810102
0.774127
0.737575
0.700353
0.662338
0.623374
0.583239
0.541615
0.498039
0.451686
0.40097
0.342271
0.264562
0.119452
0.263117
0.596049
0.783494
0.930316
1.06058
1.18198
1.29765
1.40906
1.51692
1.62164
1.72345
1.82249
1.91886
2.01264
2.10388
2.19264
2.27895
2.36286
2.44439
2.52356
2.60038
2.67488
2.74705
2.81689
2.88441
2.9496
3.01247
3.073
3.13118
3.18703
3.24053
3.29168
3.34048
3.38695
3.43108
3.47289
3.51239
3.54961
3.58455
3.61726
3.64775
3.67607
3.70225
3.72634
3.74837
3.76839
3.78646
3.80262
3.81694
3.82946
3.84025
3.84937
3.85686
3.86281
3.86726
3.87028
3.87193
3.87227
3.87136
3.86927
3.86605
3.86175
3.85644
3.85016
3.84298
3.83495
3.8261
3.8165
3.80618
3.79519
3.78357
3.77137
3.75862
3.74535
3.7316
3.71741
3.7028
3.68779
3.67243
3.65673
3.64071
3.6244
3.60781
3.59097
3.57389
3.55658
3.53907
3.52135
3.50345
3.48537
3.46713
3.44872
3.43016
3.41145
3.3926
3.37361
3.35448
3.33522
3.31583
3.29631
3.27666
3.25688
3.23697
3.21693
3.19676
3.17645
3.156
3.13542
3.11469
3.09382
3.0728
3.05163
3.03031
3.00882
2.98717
2.96535
2.94337
2.9212
2.89886
2.87634
2.85362
2.83072
2.80762
2.78432
2.76081
2.7371
2.71318
2.68905
2.6647
2.64013
2.61534
2.59032
2.56507
2.5396
2.51389
2.48796
2.46178
2.43537
2.40873
2.38185
2.35473
2.32737
2.29978
2.27195
2.24389
2.21559
2.18705
2.15829
2.12929
2.10007
2.07062
2.04095
2.01106
1.98095
1.95062
1.92008
1.88933
1.85838
1.82722
1.79587
1.76431
1.73256
1.70063
1.6685
1.63619
1.6037
1.57102
1.53816
1.50513
1.47191
1.43852
1.40495
1.37119
1.33726
1.30313
1.26881
1.23429
1.19956
1.16461
1.12943
1.094
1.05831
1.02232
0.986025
0.949377
0.91234
0.874866
0.836896
0.798354
0.759144
0.719142
0.678175
0.636004
0.59227
0.546415
0.497487
0.443637
0.380665
0.295952
0.134429
0.263117
0.59605
0.783494
0.930316
1.06058
1.18198
1.29765
1.40906
1.51692
1.62164
1.72345
1.82249
1.91886
2.01264
2.10388
2.19264
2.27895
2.36286
2.44439
2.52356
2.60038
2.67488
2.74705
2.81689
2.88441
2.9496
3.01247
3.073
3.13118
3.18703
3.24053
3.29168
3.34048
3.38695
3.43108
3.47289
3.51239
3.54961
3.58455
3.61726
3.64775
3.67607
3.70225
3.72634
3.74837
3.76839
3.78646
3.80262
3.81694
3.82946
3.84025
3.84937
3.85686
3.86281
3.86726
3.87028
3.87193
3.87227
3.87136
3.86927
3.86604
3.86175
3.85644
3.85016
3.84298
3.83494
3.8261
3.81649
3.80618
3.79519
3.78357
3.77137
3.75862
3.74535
3.7316
3.71741
3.7028
3.68779
3.67243
3.65673
3.64071
3.6244
3.60781
3.59097
3.57389
3.55658
3.53907
3.52135
3.50345
3.48537
3.46713
3.44872
3.43016
3.41145
3.3926
3.37361
3.35448
3.33522
3.31583
3.29631
3.27666
3.25688
3.23697
3.21693
3.19676
3.17645
3.156
3.13542
3.11469
3.09382
3.0728
3.05163
3.03031
3.00882
2.98717
2.96535
2.94337
2.9212
2.89886
2.87634
2.85362
2.83072
2.80762
2.78432
2.76081
2.7371
2.71318
2.68905
2.6647
2.64013
2.61534
2.59032
2.56507
2.5396
2.51389
2.48795
2.46178
2.43537
2.40873
2.38185
2.35473
2.32737
2.29978
2.27195
2.24389
2.21559
2.18705
2.15829
2.12929
2.10007
2.07062
2.04095
2.01106
1.98095
1.95062
1.92008
1.88933
1.85838
1.82722
1.79586
1.76431
1.73256
1.70063
1.6685
1.63619
1.60369
1.57102
1.53816
1.50513
1.47191
1.43852
1.40495
1.37119
1.33726
1.30313
1.26881
1.23429
1.19956
1.16461
1.12943
1.094
1.05831
1.02232
0.986025
0.949377
0.91234
0.874866
0.836896
0.798354
0.759144
0.719142
0.678175
0.636004
0.59227
0.546415
0.497487
0.443637
0.380665
0.295953
0.134429
0.29145
0.657959
0.862324
1.02077
1.16023
1.28946
1.4121
1.52987
1.64364
1.7539
1.8609
1.96482
2.06577
2.16385
2.25912
2.35164
2.44147
2.52865
2.61323
2.69525
2.77473
2.85171
2.9262
2.99823
3.0678
3.13493
3.19962
3.26189
3.32173
3.37915
3.43415
3.48675
3.53694
3.58474
3.63015
3.67319
3.71387
3.75222
3.78825
3.822
3.85349
3.88275
3.90983
3.93475
3.95757
3.97834
3.99709
4.01388
4.02877
4.04181
4.05306
4.06257
4.07041
4.07664
4.08132
4.08451
4.08627
4.08667
4.08577
4.08363
4.0803
4.07585
4.07034
4.06381
4.05633
4.04795
4.03871
4.02868
4.01789
4.00639
3.99423
3.98145
3.96808
3.95417
3.93974
3.92485
3.9095
3.89375
3.8776
3.8611
3.84426
3.82711
3.80966
3.79194
3.77397
3.75576
3.73732
3.71867
3.69982
3.68078
3.66156
3.64218
3.62263
3.60292
3.58306
3.56305
3.5429
3.52261
3.50218
3.48162
3.46092
3.44008
3.4191
3.39799
3.37674
3.35535
3.33381
3.31213
3.29031
3.26833
3.24619
3.2239
3.20145
3.17883
3.15605
3.13309
3.10995
3.08663
3.06312
3.03942
3.01553
2.99144
2.96714
2.94264
2.91793
2.893
2.86786
2.84249
2.8169
2.79108
2.76503
2.73874
2.71222
2.68546
2.65846
2.63122
2.60373
2.576
2.54802
2.51979
2.49132
2.4626
2.43363
2.40441
2.37495
2.34524
2.31529
2.28509
2.25466
2.22398
2.19306
2.16191
2.13053
2.09892
2.06708
2.03501
2.00272
1.97022
1.9375
1.90456
1.87142
1.83807
1.80451
1.77075
1.7368
1.70265
1.6683
1.63376
1.59903
1.56411
1.529
1.49369
1.4582
1.4225
1.38661
1.35051
1.31421
1.27768
1.24094
1.20395
1.16671
1.1292
1.0914
1.05328
1.01481
0.975961
0.936674
0.896893
0.856539
0.815514
0.773681
0.730856
0.686768
0.641016
0.592955
0.541499
0.484543
0.417347
0.325811
0.148598
0.291451
0.657959
0.862324
1.02077
1.16023
1.28946
1.4121
1.52987
1.64364
1.75389
1.8609
1.96482
2.06577
2.16385
2.25912
2.35164
2.44147
2.52865
2.61323
2.69525
2.77473
2.85171
2.9262
2.99823
3.0678
3.13493
3.19962
3.26189
3.32173
3.37915
3.43415
3.48675
3.53694
3.58474
3.63015
3.67319
3.71387
3.75222
3.78825
3.822
3.85349
3.88275
3.90982
3.93475
3.95757
3.97834
3.99709
4.01388
4.02877
4.04181
4.05306
4.06257
4.07041
4.07664
4.08132
4.08451
4.08627
4.08667
4.08577
4.08363
4.0803
4.07585
4.07034
4.06381
4.05633
4.04795
4.03871
4.02868
4.01789
4.00639
3.99423
3.98145
3.96808
3.95417
3.93974
3.92485
3.9095
3.89375
3.8776
3.8611
3.84426
3.82711
3.80966
3.79194
3.77397
3.75576
3.73732
3.71867
3.69982
3.68078
3.66156
3.64218
3.62263
3.60292
3.58306
3.56305
3.5429
3.52261
3.50218
3.48162
3.46091
3.44008
3.4191
3.39799
3.37674
3.35535
3.33381
3.31213
3.29031
3.26833
3.24619
3.2239
3.20145
3.17883
3.15605
3.13309
3.10995
3.08663
3.06312
3.03942
3.01553
2.99144
2.96714
2.94264
2.91793
2.893
2.86786
2.84249
2.8169
2.79108
2.76503
2.73874
2.71222
2.68546
2.65846
2.63122
2.60373
2.576
2.54802
2.51979
2.49132
2.4626
2.43363
2.40441
2.37495
2.34524
2.31529
2.28509
2.25466
2.22398
2.19306
2.16191
2.13053
2.09892
2.06708
2.03501
2.00272
1.97022
1.93749
1.90456
1.87142
1.83806
1.80451
1.77075
1.7368
1.70265
1.6683
1.63376
1.59903
1.56411
1.529
1.49369
1.4582
1.4225
1.38661
1.35051
1.31421
1.27768
1.24094
1.20395
1.16671
1.1292
1.0914
1.05328
1.01481
0.975961
0.936674
0.896893
0.856539
0.815514
0.773681
0.730856
0.686768
0.641016
0.592955
0.541499
0.484543
0.417347
0.325811
0.148598
0.319613
0.718616
0.939618
1.1096
1.2582
1.39515
1.52457
1.64844
1.76777
1.88313
1.99485
2.10314
2.20813
2.30993
2.40862
2.50429
2.597
2.68682
2.77381
2.85802
2.93951
3.01833
3.0945
3.16807
3.23907
3.30751
3.37343
3.43684
3.49776
3.5562
3.61218
3.6657
3.71678
3.76544
3.81168
3.85552
3.89699
3.93609
3.97286
4.00732
4.0395
4.06943
4.09714
4.12269
4.14609
4.16741
4.18668
4.20396
4.2193
4.23276
4.24438
4.25423
4.26237
4.26885
4.27374
4.2771
4.27899
4.27948
4.27862
4.27647
4.2731
4.26857
4.26292
4.25623
4.24854
4.23992
4.2304
4.22005
4.20891
4.19702
4.18444
4.17121
4.15736
4.14294
4.12799
4.11253
4.0966
4.08023
4.06346
4.04631
4.0288
4.01096
3.9928
3.97436
3.95565
3.93668
3.91748
3.89805
3.87841
3.85856
3.83853
3.81832
3.79794
3.77738
3.75667
3.73581
3.71479
3.69362
3.67231
3.65085
3.62925
3.60751
3.58562
3.5636
3.54142
3.5191
3.49664
3.47402
3.45124
3.42831
3.40522
3.38197
3.35855
3.33495
3.31119
3.28724
3.26311
3.23879
3.21427
3.18956
3.16465
3.13954
3.11421
3.08867
3.06291
3.03693
3.01073
2.98429
2.95762
2.93072
2.90358
2.87619
2.84856
2.82068
2.79256
2.76418
2.73555
2.70666
2.67752
2.64812
2.61847
2.58855
2.55838
2.52795
2.49727
2.46633
2.43513
2.40368
2.37197
2.34001
2.30781
2.27535
2.24265
2.20971
2.17653
2.14311
2.10946
2.07557
2.04145
2.00711
1.97254
1.93776
1.90275
1.86753
1.8321
1.79646
1.7606
1.72454
1.68828
1.65181
1.61513
1.57825
1.54116
1.50387
1.46636
1.42864
1.3907
1.35253
1.31413
1.27548
1.23657
1.19739
1.15791
1.11811
1.07796
1.03743
0.996453
0.95498
0.912929
0.87019
0.826619
0.782009
0.736062
0.688328
0.638083
0.584094
0.524026
0.452637
0.354451
0.162205
0.319613
0.718616
0.939618
1.1096
1.2582
1.39515
1.52457
1.64844
1.76777
1.88313
1.99485
2.10314
2.20813
2.30993
2.40862
2.50429
2.597
2.68682
2.77381
2.85802
2.93951
3.01833
3.0945
3.16807
3.23907
3.30751
3.37343
3.43684
3.49776
3.5562
3.61218
3.6657
3.71678
3.76544
3.81168
3.85552
3.89698
3.93609
3.97286
4.00732
4.0395
4.06943
4.09714
4.12268
4.14609
4.16741
4.18668
4.20396
4.2193
4.23276
4.24438
4.25423
4.26237
4.26885
4.27374
4.2771
4.27899
4.27948
4.27862
4.27647
4.2731
4.26857
4.26292
4.25623
4.24854
4.23992
4.2304
4.22005
4.20891
4.19702
4.18444
4.17121
4.15736
4.14294
4.12799
4.11253
4.0966
4.08023
4.06346
4.04631
4.0288
4.01096
3.9928
3.97436
3.95565
3.93668
3.91748
3.89805
3.87841
3.85856
3.83853
3.81832
3.79793
3.77738
3.75667
3.7358
3.71479
3.69362
3.67231
3.65085
3.62925
3.60751
3.58562
3.5636
3.54142
3.5191
3.49663
3.47402
3.45124
3.42831
3.40522
3.38197
3.35855
3.33495
3.31119
3.28724
3.26311
3.23879
3.21427
3.18956
3.16465
3.13954
3.11421
3.08867
3.06291
3.03693
3.01073
2.98429
2.95762
2.93072
2.90358
2.87619
2.84856
2.82068
2.79256
2.76418
2.73555
2.70666
2.67752
2.64812
2.61847
2.58855
2.55838
2.52795
2.49727
2.46633
2.43513
2.40368
2.37197
2.34001
2.30781
2.27535
2.24265
2.20971
2.17653
2.14311
2.10946
2.07557
2.04145
2.00711
1.97254
1.93776
1.90275
1.86753
1.8321
1.79646
1.7606
1.72454
1.68828
1.65181
1.61513
1.57825
1.54116
1.50387
1.46636
1.42864
1.3907
1.35253
1.31413
1.27548
1.23657
1.19739
1.15791
1.11811
1.07796
1.03743
0.996453
0.95498
0.912929
0.87019
0.826619
0.782009
0.736062
0.688328
0.638083
0.584094
0.524027
0.452637
0.354452
0.162205
0.347304
0.778368
1.01581
1.19724
1.3549
1.49947