/*--------------------------------*- C++ -*----------------------------------*\
  =========                 |
  \\      /  F ield         | OpenFOAM: The Open Source CFD Toolbox
   \\    /   O peration     | Website:  https://openfoam.org
    \\  /    A nd           | Version:  8
     \\/     M anipulation  |
\*---------------------------------------------------------------------------*/
FoamFile
{
    version     2.0;
    format      ascii;
    class       surfaceScalarField;
    location    "4700";
    object      phi;
}
// * * * * * * * * * * * * * * * * * * * * * * * * * * * * * * * * * * * * * //

dimensions      [1 0 -1 0 0 0 0];

internalField   nonuniform List<scalar> 
119360
(
-3.48969e-07
1.94088e-12
3.48967e-07
-6.42095e-07
2.46577e-13
2.93085e-07
-7.9887e-07
2.31479e-13
1.56764e-07
-8.24428e-07
1.12464e-13
2.55485e-08
-7.49419e-07
3.86345e-14
-7.50168e-08
-6.03225e-07
-1.5461e-14
-1.46202e-07
-4.08257e-07
-5.13766e-14
-1.94975e-07
-1.80831e-07
-7.52186e-14
-2.27434e-07
6.72284e-08
-9.48139e-14
-2.48066e-07
3.26976e-07
-1.07276e-13
-2.59755e-07
5.91967e-07
-1.06082e-13
-2.64998e-07
8.57906e-07
-9.86439e-14
-2.65946e-07
1.12162e-06
-8.86796e-14
-2.63722e-07
1.38079e-06
-7.71054e-14
-2.59171e-07
1.63367e-06
-6.51427e-14
-2.52888e-07
1.87897e-06
-5.31245e-14
-2.45307e-07
2.11572e-06
-4.16059e-14
-2.36755e-07
2.3432e-06
-3.07812e-14
-2.27483e-07
2.56088e-06
-2.07891e-14
-2.17689e-07
2.7684e-06
-1.1713e-14
-2.07528e-07
2.96552e-06
-3.45569e-15
-1.97125e-07
3.1521e-06
3.95508e-15
-1.86584e-07
3.32809e-06
1.05609e-14
-1.7599e-07
3.4935e-06
1.63758e-14
-1.65413e-07
3.6484e-06
2.16493e-14
-1.54912e-07
3.79293e-06
2.62152e-14
-1.44537e-07
3.92726e-06
3.01426e-14
-1.34332e-07
4.05159e-06
3.35427e-14
-1.24332e-07
4.16615e-06
3.6346e-14
-1.14567e-07
4.27121e-06
3.87191e-14
-1.05063e-07
4.36705e-06
4.0662e-14
-9.58408e-08
4.45396e-06
4.21747e-14
-8.6919e-08
4.53227e-06
4.3396e-14
-7.83116e-08
4.60229e-06
4.42009e-14
-7.00299e-08
4.66437e-06
4.47422e-14
-6.20825e-08
4.71884e-06
4.50475e-14
-5.44755e-08
4.76605e-06
4.49227e-14
-4.7213e-08
4.80634e-06
4.46868e-14
-4.02967e-08
4.84007e-06
4.42427e-14
-3.37269e-08
4.86756e-06
4.36043e-14
-2.7502e-08
4.88918e-06
4.28688e-14
-2.16188e-08
4.90525e-06
4.1939e-14
-1.60733e-08
4.9161e-06
4.09676e-14
-1.08601e-08
4.92207e-06
3.98852e-14
-5.97268e-09
4.92347e-06
3.86501e-14
-1.40236e-09
4.92061e-06
3.75121e-14
2.85966e-09
4.91378e-06
3.62631e-14
6.8219e-09
4.90328e-06
3.5028e-14
1.04945e-08
4.88939e-06
3.38207e-14
1.38882e-08
4.87238e-06
3.2655e-14
1.70138e-08
4.85249e-06
3.14476e-14
1.9882e-08
4.82998e-06
3.03097e-14
2.2504e-08
4.80509e-06
2.92133e-14
2.4891e-08
4.77803e-06
2.8117e-14
2.70544e-08
4.74902e-06
2.7104e-14
2.90055e-08
4.71826e-06
2.61603e-14
3.07558e-08
4.68594e-06
2.53554e-14
3.23166e-08
4.65224e-06
2.45505e-14
3.3699e-08
4.61732e-06
2.38705e-14
3.49141e-08
4.58135e-06
2.32322e-14
3.59727e-08
4.54446e-06
2.26354e-14
3.68851e-08
4.5068e-06
2.21775e-14
3.76616e-08
4.46848e-06
2.17889e-14
3.83122e-08
4.42963e-06
2.14698e-14
3.88462e-08
4.39036e-06
2.11922e-14
3.92729e-08
4.35075e-06
2.0998e-14
3.96011e-08
4.31091e-06
2.08731e-14
3.98391e-08
4.27091e-06
2.0887e-14
3.9995e-08
4.23083e-06
2.09009e-14
4.00764e-08
4.19074e-06
2.10119e-14
4.00905e-08
4.15069e-06
2.11784e-14
4.0044e-08
4.11075e-06
2.13866e-14
3.99435e-08
4.07095e-06
2.16781e-14
3.97949e-08
4.03134e-06
2.2025e-14
3.96038e-08
3.99196e-06
2.23581e-14
3.93757e-08
3.95285e-06
2.27606e-14
3.91153e-08
3.91402e-06
2.32602e-14
3.88272e-08
3.8755e-06
2.38153e-14
3.85157e-08
3.83731e-06
2.42733e-14
3.81848e-08
3.79947e-06
2.48284e-14
3.7838e-08
3.76199e-06
2.54807e-14
3.74787e-08
3.72488e-06
2.60913e-14
3.71099e-08
3.68814e-06
2.67158e-14
3.67345e-08
3.65178e-06
2.73958e-14
3.6355e-08
3.61581e-06
2.80064e-14
3.59738e-08
3.58021e-06
2.87281e-14
3.5593e-08
3.54499e-06
2.9422e-14
3.52145e-08
3.51015e-06
3.0102e-14
3.48401e-08
3.47568e-06
3.08514e-14
3.44714e-08
3.44156e-06
3.16147e-14
3.41099e-08
3.4078e-06
3.23779e-14
3.37568e-08
3.37439e-06
3.31135e-14
3.34132e-08
3.34131e-06
3.38767e-14
3.30804e-08
3.30854e-06
3.46678e-14
3.27591e-08
3.27609e-06
3.5431e-14
3.24502e-08
3.24393e-06
3.61388e-14
3.21546e-08
3.21206e-06
3.69159e-14
3.18729e-08
3.18045e-06
3.76931e-14
3.16056e-08
3.14909e-06
3.84841e-14
3.13535e-08
3.11797e-06
3.92058e-14
3.11169e-08
3.08708e-06
3.99274e-14
3.08963e-08
3.05638e-06
4.07323e-14
3.06921e-08
3.02587e-06
4.14817e-14
3.05047e-08
2.99554e-06
4.2245e-14
3.03343e-08
2.96535e-06
4.29666e-14
3.01814e-08
2.9353e-06
4.37021e-14
3.00462e-08
2.90537e-06
4.44515e-14
2.99288e-08
2.87554e-06
4.5187e-14
2.98297e-08
2.84579e-06
4.59086e-14
2.97488e-08
2.8161e-06
4.66303e-14
2.96865e-08
2.78645e-06
4.73797e-14
2.9643e-08
2.75683e-06
4.80874e-14
2.96183e-08
2.72722e-06
4.8809e-14
2.96126e-08
2.69759e-06
4.94197e-14
2.96261e-08
2.66793e-06
5.01552e-14
2.96588e-08
2.63821e-06
5.08352e-14
2.97109e-08
2.60843e-06
5.14735e-14
2.97825e-08
2.57855e-06
5.22229e-14
2.98736e-08
2.54856e-06
5.2889e-14
2.99844e-08
2.51844e-06
5.35274e-14
3.01147e-08
2.48818e-06
5.41796e-14
3.02648e-08
2.45774e-06
5.47347e-14
3.04346e-08
2.42711e-06
5.54009e-14
3.06241e-08
2.39627e-06
5.60115e-14
3.08332e-08
2.36521e-06
5.66498e-14
3.10621e-08
2.33389e-06
5.72604e-14
3.13104e-08
2.30231e-06
5.79127e-14
3.15783e-08
2.27044e-06
5.85233e-14
3.18656e-08
2.23827e-06
5.91617e-14
3.21721e-08
2.20577e-06
5.97445e-14
3.24977e-08
2.17292e-06
6.04106e-14
3.28421e-08
2.13971e-06
6.09518e-14
3.32052e-08
2.10612e-06
6.15625e-14
3.35867e-08
2.07213e-06
6.21176e-14
3.39862e-08
2.03773e-06
6.27837e-14
3.44034e-08
2.00288e-06
6.33943e-14
3.4838e-08
1.96759e-06
6.40327e-14
3.52895e-08
1.93183e-06
6.47265e-14
3.57573e-08
1.89558e-06
6.53649e-14
3.6241e-08
1.85884e-06
6.60033e-14
3.674e-08
1.82158e-06
6.66416e-14
3.72537e-08
1.7838e-06
6.7391e-14
3.77813e-08
1.74547e-06
6.81126e-14
3.8322e-08
1.70659e-06
6.8862e-14
3.8875e-08
1.66715e-06
6.96947e-14
3.94395e-08
1.62713e-06
7.04718e-14
4.00144e-08
1.58653e-06
7.13878e-14
4.05986e-08
1.54533e-06
7.2387e-14
4.1191e-08
1.50354e-06
7.35249e-14
4.17904e-08
1.46114e-06
7.46074e-14
4.23954e-08
1.41813e-06
7.58564e-14
4.30045e-08
1.37451e-06
7.72441e-14
4.36161e-08
1.33027e-06
7.86319e-14
4.42287e-08
1.28543e-06
7.99919e-14
4.48403e-08
1.23997e-06
8.1574e-14
4.5449e-08
1.19392e-06
8.31005e-14
4.60526e-08
1.14726e-06
8.47381e-14
4.66488e-08
1.10002e-06
8.63202e-14
4.72353e-08
1.05221e-06
8.78467e-14
4.78091e-08
1.00383e-06
8.93178e-14
4.83675e-08
9.54921e-07
9.08165e-14
4.89073e-08
9.0549e-07
9.21766e-14
4.94249e-08
8.55568e-07
9.34533e-14
4.99165e-08
8.05184e-07
9.44803e-14
5.03781e-08
7.54373e-07
9.52852e-14
5.08051e-08
7.03175e-07
9.58125e-14
5.11924e-08
6.51634e-07
9.63121e-14
5.15345e-08
5.99803e-07
9.64786e-14
5.18253e-08
5.47738e-07
9.62843e-14
5.2058e-08
4.95507e-07
9.62288e-14
5.2225e-08
4.43183e-07
9.61733e-14
5.23178e-08
3.90849e-07
9.63398e-14
5.23271e-08
3.386e-07
9.74501e-14
5.22419e-08
2.86543e-07
1.00198e-13
5.20505e-08
2.34797e-07
1.05527e-13
5.17389e-08
1.83498e-07
1.14547e-13
5.12918e-08
1.328e-07
1.29008e-13
5.0691e-08
8.28778e-08
1.50269e-13
4.9915e-08
3.39319e-08
1.79829e-13
4.89383e-08
-1.38025e-08
2.18048e-13
4.77265e-08
-6.00402e-08
2.63012e-13
4.62294e-08
-1.04464e-07
3.13777e-13
4.44146e-08
-1.4673e-07
3.66873e-13
4.22569e-08
-1.8645e-07
4.12587e-13
3.97102e-08
-2.23168e-07
4.37678e-13
3.67067e-08
-2.56349e-07
4.24966e-13
3.31697e-08
-2.85377e-07
3.5641e-13
2.90145e-08
-3.09524e-07
2.20657e-13
2.41334e-08
-3.27941e-07
2.32039e-14
1.84035e-08
-3.39633e-07
-2.00229e-13
1.1678e-08
-3.43433e-07
-3.78197e-13
3.78742e-09
-3.3802e-07
-4.17388e-13
-5.42391e-09
-3.21939e-07
-2.46858e-13
-1.60897e-08
-2.93643e-07
1.05804e-13
-2.83037e-08
-2.51694e-07
4.52694e-13
-4.19581e-08
-1.95311e-07
5.13978e-13
-5.63946e-08
-1.25729e-07
2.10498e-13
-6.95984e-08
-4.93637e-08
-4.30765e-14
-7.63843e-08
8.63015e-09
3.67484e-13
-5.80114e-08
1.26232e-12
8.60512e-09
-3.4898e-07
3.48959e-07
-6.42095e-07
2.93082e-07
-7.98869e-07
1.56762e-07
-8.24426e-07
2.55468e-08
-7.49417e-07
-7.50184e-08
-6.03223e-07
-1.46203e-07
-4.08255e-07
-1.94977e-07
-1.80828e-07
-2.27436e-07
6.72304e-08
-2.48067e-07
3.26978e-07
-2.59756e-07
5.91969e-07
-2.64999e-07
8.57908e-07
-2.65947e-07
1.12162e-06
-2.63723e-07
1.38079e-06
-2.59172e-07
1.63367e-06
-2.52889e-07
1.87897e-06
-2.45308e-07
2.11572e-06
-2.36756e-07
2.3432e-06
-2.27484e-07
2.56088e-06
-2.1769e-07
2.7684e-06
-2.07528e-07
2.96552e-06
-1.97126e-07
3.1521e-06
-1.86585e-07
3.32809e-06
-1.75991e-07
3.4935e-06
-1.65413e-07
3.6484e-06
-1.54912e-07
3.79293e-06
-1.44538e-07
3.92726e-06
-1.34333e-07
4.05159e-06
-1.24332e-07
4.16615e-06
-1.14567e-07
4.27121e-06
-1.05063e-07
4.36704e-06
-9.58414e-08
4.45396e-06
-8.69196e-08
4.53227e-06
-7.83122e-08
4.60229e-06
-7.00305e-08
4.66437e-06
-6.2083e-08
4.71884e-06
-5.44761e-08
4.76605e-06
-4.72135e-08
4.80634e-06
-4.02973e-08
4.84006e-06
-3.37274e-08
4.86756e-06
-2.75025e-08
4.88918e-06
-2.16194e-08
4.90525e-06
-1.60738e-08
4.9161e-06
-1.08606e-08
4.92207e-06
-5.97318e-09
4.92347e-06
-1.40285e-09
4.92061e-06
2.85917e-09
4.91378e-06
6.82141e-09
4.90328e-06
1.0494e-08
4.88939e-06
1.38877e-08
4.87237e-06
1.70133e-08
4.85249e-06
1.98815e-08
4.82998e-06
2.25036e-08
4.80509e-06
2.48905e-08
4.77803e-06
2.70539e-08
4.74902e-06
2.9005e-08
4.71826e-06
3.07553e-08
4.68594e-06
3.23161e-08
4.65224e-06
3.36986e-08
4.61732e-06
3.49137e-08
4.58135e-06
3.59722e-08
4.54446e-06
3.68847e-08
4.50679e-06
3.76612e-08
4.46848e-06
3.83117e-08
4.42963e-06
3.88457e-08
4.39035e-06
3.92725e-08
4.35075e-06
3.96006e-08
4.31091e-06
3.98387e-08
4.27091e-06
3.99946e-08
4.23083e-06
4.0076e-08
4.19074e-06
4.00901e-08
4.15069e-06
4.00436e-08
4.11075e-06
3.99431e-08
4.07095e-06
3.97945e-08
4.03134e-06
3.96034e-08
3.99196e-06
3.93753e-08
3.95285e-06
3.91149e-08
3.91402e-06
3.88268e-08
3.8755e-06
3.85153e-08
3.83731e-06
3.81844e-08
3.79947e-06
3.78376e-08
3.76199e-06
3.74783e-08
3.72488e-06
3.71095e-08
3.68814e-06
3.67341e-08
3.65178e-06
3.63546e-08
3.6158e-06
3.59734e-08
3.58021e-06
3.55926e-08
3.54499e-06
3.52141e-08
3.51015e-06
3.48398e-08
3.47568e-06
3.44711e-08
3.44156e-06
3.41095e-08
3.4078e-06
3.37564e-08
3.37439e-06
3.34129e-08
3.3413e-06
3.308e-08
3.30854e-06
3.27587e-08
3.27609e-06
3.24499e-08
3.24393e-06
3.21542e-08
3.21206e-06
3.18725e-08
3.18045e-06
3.16053e-08
3.14909e-06
3.13531e-08
3.11797e-06
3.11165e-08
3.08708e-06
3.08959e-08
3.05638e-06
3.06917e-08
3.02587e-06
3.05043e-08
2.99554e-06
3.03339e-08
2.96535e-06
3.0181e-08
2.9353e-06
3.00458e-08
2.90537e-06
2.99284e-08
2.87554e-06
2.98293e-08
2.84579e-06
2.97484e-08
2.8161e-06
2.96861e-08
2.78645e-06
2.96426e-08
2.75683e-06
2.96179e-08
2.72722e-06
2.96122e-08
2.69759e-06
2.96257e-08
2.66792e-06
2.96584e-08
2.63821e-06
2.97105e-08
2.60843e-06
2.97821e-08
2.57855e-06
2.98732e-08
2.54856e-06
2.99839e-08
2.51844e-06
3.01143e-08
2.48818e-06
3.02644e-08
2.45774e-06
3.04341e-08
2.42711e-06
3.06236e-08
2.39627e-06
3.08328e-08
2.36521e-06
3.10616e-08
2.33389e-06
3.131e-08
2.30231e-06
3.15778e-08
2.27044e-06
3.18651e-08
2.23827e-06
3.21716e-08
2.20577e-06
3.24972e-08
2.17292e-06
3.28416e-08
2.13971e-06
3.32047e-08
2.10612e-06
3.35862e-08
2.07213e-06
3.39857e-08
2.03773e-06
3.44029e-08
2.00288e-06
3.48375e-08
1.96759e-06
3.52889e-08
1.93183e-06
3.57567e-08
1.89558e-06
3.62405e-08
1.85884e-06
3.67395e-08
1.82158e-06
3.72531e-08
1.7838e-06
3.77807e-08
1.74547e-06
3.83214e-08
1.70659e-06
3.88744e-08
1.66715e-06
3.94389e-08
1.62713e-06
4.00138e-08
1.58653e-06
4.0598e-08
1.54533e-06
4.11904e-08
1.50354e-06
4.17897e-08
1.46114e-06
4.23947e-08
1.41813e-06
4.30038e-08
1.37451e-06
4.36155e-08
1.33027e-06
4.4228e-08
1.28543e-06
4.48396e-08
1.23997e-06
4.54482e-08
1.19392e-06
4.60519e-08
1.14726e-06
4.66481e-08
1.10002e-06
4.72345e-08
1.05221e-06
4.78084e-08
1.00383e-06
4.83668e-08
9.54921e-07
4.89065e-08
9.0549e-07
4.94241e-08
8.55568e-07
4.99157e-08
8.05184e-07
5.03773e-08
7.54373e-07
5.08042e-08
7.03175e-07
5.11915e-08
6.51634e-07
5.15336e-08
5.99803e-07
5.18244e-08
5.47739e-07
5.20571e-08
4.95507e-07
5.22241e-08
4.43183e-07
5.23169e-08
3.90849e-07
5.23261e-08
3.386e-07
5.2241e-08
2.86543e-07
5.20495e-08
2.34797e-07
5.17379e-08
1.83499e-07
5.12908e-08
1.328e-07
5.06899e-08
8.28782e-08
4.99139e-08
3.39323e-08
4.89372e-08
-1.38021e-08
4.77253e-08
-6.00398e-08
4.62282e-08
-1.04463e-07
4.44134e-08
-1.46729e-07
4.22556e-08
-1.8645e-07
3.97088e-08
-2.23168e-07
3.67052e-08
-2.56349e-07
3.31681e-08
-2.85377e-07
2.90128e-08
-3.09524e-07
2.41316e-08
-3.27941e-07
1.84017e-08
-3.39633e-07
1.16762e-08
-3.43433e-07
3.78571e-09
-3.38019e-07
-5.42542e-09
-3.21938e-07
-1.60909e-08
-2.93643e-07
-2.83047e-08
-2.51694e-07
-4.19594e-08
-1.95313e-07
-5.63969e-08
-1.25732e-07
-6.96023e-08
-4.93659e-08
-7.63885e-08
8.62743e-09
-5.80159e-08
8.59859e-09
-2.68486e-07
1.87508e-13
6.17417e-07
-3.40998e-07
1.88714e-14
3.65577e-07
-3.30994e-07
2.83927e-14
1.46752e-07
-2.66238e-07
1.45632e-15
-3.92156e-08
-1.56224e-07
-8.16079e-15
-1.85039e-07
-9.06526e-09
-1.53355e-14
-2.93367e-07
1.67125e-07
-2.08171e-14
-3.71173e-07
3.64744e-07
-2.47861e-14
-4.2506e-07
5.77478e-07
-2.75547e-14
-4.60807e-07
8.00205e-07
-2.87204e-14
-4.82487e-07
1.02876e-06
-2.82624e-14
-4.93562e-07
1.25971e-06
-2.73672e-14
-4.96897e-07
1.49034e-06
-2.60835e-14
-4.94359e-07
1.71854e-06
-2.46194e-14
-4.87372e-07
1.94262e-06
-2.30373e-14
-4.7698e-07
2.16129e-06
-2.1417e-14
-4.63977e-07
2.3735e-06
-1.98419e-14
-4.48974e-07
2.57846e-06
-1.83431e-14
-4.32448e-07
2.77555e-06
-1.6924e-14
-4.1478e-07
2.9643e-06
-1.56022e-14
-3.96278e-07
3.14436e-06
-1.4367e-14
-3.7719e-07
3.31549e-06
-1.32082e-14
-3.57723e-07
3.47754e-06
-1.21604e-14
-3.38049e-07
3.63044e-06
-1.11924e-14
-3.18313e-07
3.77416e-06
-1.03008e-14
-2.98638e-07
3.90875e-06
-9.49932e-15
-2.79126e-07
4.03428e-06
-8.76378e-15
-2.59867e-07
4.15088e-06
-8.11845e-15
-2.40937e-07
4.25871e-06
-7.5321e-15
-2.224e-07
4.35795e-06
-7.0082e-15
-2.04311e-07
4.44882e-06
-6.55716e-15
-1.86716e-07
4.53155e-06
-6.15816e-15
-1.69654e-07
4.60639e-06
-5.82508e-15
-1.53157e-07
4.67361e-06
-5.54404e-15
-1.37251e-07
4.73348e-06
-5.3081e-15
-1.21956e-07
4.78629e-06
-5.11727e-15
-1.07288e-07
4.83233e-06
-4.98195e-15
-9.32567e-08
4.8719e-06
-4.88479e-15
-7.98701e-08
4.9053e-06
-4.81192e-15
-6.71306e-08
4.93283e-06
-4.80497e-15
-5.50379e-08
4.9548e-06
-4.81536e-15
-4.35885e-08
4.97149e-06
-4.84658e-15
-3.2776e-08
4.98322e-06
-4.89513e-15
-2.25919e-08
4.99027e-06
-4.97492e-15
-1.30251e-08
4.99293e-06
-5.04776e-15
-4.06222e-09
4.99147e-06
-5.17265e-15
4.31127e-09
4.98618e-06
-5.31142e-15
1.21116e-08
4.97731e-06
-5.44671e-15
1.93567e-08
4.96513e-06
-5.57854e-15
2.60654e-08
4.94989e-06
-5.71036e-15
3.22571e-08
4.93181e-06
-5.85607e-15
3.79519e-08
4.91115e-06
-5.99136e-15
4.31706e-08
4.8881e-06
-6.14054e-15
4.79341e-08
4.86289e-06
-6.2793e-15
5.22637e-08
4.83571e-06
-6.41807e-15
5.61809e-08
4.80675e-06
-6.54643e-15
5.97071e-08
4.7762e-06
-6.67132e-15
6.28637e-08
4.74423e-06
-6.7858e-15
6.56718e-08
4.71099e-06
-6.89334e-15
6.81524e-08
4.67663e-06
-6.99048e-15
7.03259e-08
4.6413e-06
-7.08414e-15
7.22123e-08
4.60513e-06
-7.17087e-15
7.38312e-08
4.56824e-06
-7.24719e-15
7.52014e-08
4.53074e-06
-7.33044e-15
7.63414e-08
4.49274e-06
-7.39635e-15
7.72687e-08
4.45434e-06
-7.43798e-15
7.80003e-08
4.41562e-06
-7.48654e-15
7.85524e-08
4.37668e-06
-7.53164e-15
7.89406e-08
4.33757e-06
-7.55245e-15
7.91796e-08
4.29837e-06
-7.5802e-15
7.92834e-08
4.25915e-06
-7.60101e-15
7.92653e-08
4.21995e-06
-7.601e-15
7.91377e-08
4.18083e-06
-7.601e-15
7.89126e-08
4.14183e-06
-7.59753e-15
7.86009e-08
4.10299e-06
-7.57324e-15
7.82131e-08
4.06435e-06
-7.55242e-15
7.77588e-08
4.02593e-06
-7.53853e-15
7.7247e-08
3.98775e-06
-7.50384e-15
7.66862e-08
3.94985e-06
-7.47955e-15
7.60842e-08
3.91224e-06
-7.44832e-15
7.5448e-08
3.87493e-06
-7.39975e-15
7.47845e-08
3.83794e-06
-7.36159e-15
7.40996e-08
3.80127e-06
-7.31301e-15
7.33991e-08
3.76494e-06
-7.27138e-15
7.26881e-08
3.72894e-06
-7.2124e-15
7.19714e-08
3.69327e-06
-7.17771e-15
7.12531e-08
3.65795e-06
-7.11873e-15
7.05373e-08
3.62296e-06
-7.06669e-15
6.98276e-08
3.5883e-06
-7.01812e-15
6.91272e-08
3.55397e-06
-6.94526e-15
6.8439e-08
3.51996e-06
-6.89669e-15
6.77657e-08
3.48626e-06
-6.83425e-15
6.71097e-08
3.45286e-06
-6.77527e-15
6.64733e-08
3.41976e-06
-6.72323e-15
6.58583e-08
3.38694e-06
-6.66079e-15
6.52665e-08
3.3544e-06
-6.59834e-15
6.46996e-08
3.32211e-06
-6.53937e-15
6.4159e-08
3.29007e-06
-6.48386e-15
6.36459e-08
3.25826e-06
-6.42835e-15
6.31616e-08
3.22666e-06
-6.36938e-15
6.27071e-08
3.19527e-06
-6.31387e-15
6.22834e-08
3.16407e-06
-6.2549e-15
6.18912e-08
3.13304e-06
-6.21327e-15
6.15315e-08
3.10217e-06
-6.15777e-15
6.12048e-08
3.07144e-06
-6.09186e-15
6.09119e-08
3.04083e-06
-6.05023e-15
6.06532e-08
3.01032e-06
-6.00513e-15
6.04294e-08
2.97991e-06
-5.96004e-15
6.02409e-08
2.94957e-06
-5.91147e-15
6.00881e-08
2.91928e-06
-5.85597e-15
5.99715e-08
2.88903e-06
-5.80741e-15
5.98914e-08
2.8588e-06
-5.76925e-15
5.98481e-08
2.82857e-06
-5.72762e-15
5.98419e-08
2.79832e-06
-5.69641e-15
5.98731e-08
2.76803e-06
-5.6409e-15
5.99419e-08
2.73769e-06
-5.60969e-15
6.00485e-08
2.70728e-06
-5.57153e-15
6.01931e-08
2.67677e-06
-5.53684e-15
6.03758e-08
2.64616e-06
-5.5091e-15
6.05968e-08
2.61541e-06
-5.47788e-15
6.08561e-08
2.58452e-06
-5.45013e-15
6.11537e-08
2.55346e-06
-5.43279e-15
6.14898e-08
2.52222e-06
-5.40504e-15
6.18641e-08
2.49077e-06
-5.39117e-15
6.22767e-08
2.4591e-06
-5.36343e-15
6.27275e-08
2.42719e-06
-5.34609e-15
6.32162e-08
2.39503e-06
-5.31834e-15
6.37427e-08
2.36258e-06
-5.32875e-15
6.43067e-08
2.32984e-06
-5.31488e-15
6.49078e-08
2.29679e-06
-5.29754e-15
6.55458e-08
2.26341e-06
-5.2802e-15
6.62201e-08
2.22968e-06
-5.29062e-15
6.69302e-08
2.19559e-06
-5.30451e-15
6.76755e-08
2.16112e-06
-5.31492e-15
6.84554e-08
2.12625e-06
-5.32187e-15
6.92691e-08
2.09097e-06
-5.34616e-15
7.01158e-08
2.05526e-06
-5.34964e-15
7.09946e-08
2.01911e-06
-5.37046e-15
7.19044e-08
1.9825e-06
-5.38434e-15
7.2844e-08
1.94543e-06
-5.42251e-15
7.38124e-08
1.90787e-06
-5.4364e-15
7.4808e-08
1.86982e-06
-5.46069e-15
7.58295e-08
1.83126e-06
-5.49539e-15
7.68752e-08
1.79219e-06
-5.52315e-15
7.79434e-08
1.75259e-06
-5.56132e-15
7.90322e-08
1.71246e-06
-5.59602e-15
8.01396e-08
1.67179e-06
-5.64113e-15
8.12634e-08
1.63058e-06
-5.66542e-15
8.24012e-08
1.58881e-06
-5.68624e-15
8.35505e-08
1.5465e-06
-5.74176e-15
8.47085e-08
1.50363e-06
-5.75911e-15
8.58723e-08
1.4602e-06
-5.81116e-15
8.70386e-08
1.41622e-06
-5.85627e-15
8.82041e-08
1.37169e-06
-5.91872e-15
8.93651e-08
1.32662e-06
-5.99505e-15
9.05175e-08
1.28101e-06
-6.08526e-15
9.16572e-08
1.23487e-06
-6.17894e-15
9.27795e-08
1.18822e-06
-6.30038e-15
9.38795e-08
1.14108e-06
-6.44957e-15
9.49517e-08
1.09345e-06
-6.6161e-15
9.59904e-08
1.04536e-06
-6.76876e-15
9.69893e-08
9.96839e-07
-6.98734e-15
9.79414e-08
9.47911e-07
-7.21633e-15
9.88395e-08
8.98609e-07
-7.46613e-15
9.96752e-08
8.48969e-07
-7.72634e-15
1.0044e-07
7.99032e-07
-8.01084e-15
1.01124e-07
7.48845e-07
-8.31963e-15
1.01716e-07
6.9846e-07
-8.63188e-15
1.02205e-07
6.47936e-07
-8.95107e-15
1.02577e-07
5.97336e-07
-9.24945e-15
1.02819e-07
5.46734e-07
-9.54782e-15
1.02914e-07
4.96212e-07
-9.76987e-15
1.02844e-07
4.45859e-07
-9.85314e-15
1.02589e-07
3.95776e-07
-9.76293e-15
1.02127e-07
3.46077e-07
-9.38823e-15
1.01432e-07
2.96886e-07
-8.64577e-15
1.00476e-07
2.48346e-07
-7.37596e-15
9.92249e-08
2.00613e-07
-5.55797e-15
9.76408e-08
1.53866e-07
-3.04609e-15
9.56787e-08
1.08301e-07
9.7228e-17
9.32837e-08
6.41368e-08
3.83729e-15
9.03862e-08
2.16154e-08
7.75777e-15
8.69277e-08
-1.89814e-08
1.08941e-14
8.28447e-08
-5.7331e-08
1.17199e-14
7.80501e-08
-9.30829e-08
8.14634e-15
7.24481e-08
-1.25852e-07
-2.49098e-15
6.59273e-08
-1.55205e-07
-2.28358e-14
5.83565e-08
-1.80664e-07
-5.38666e-14
4.95798e-08
-2.01699e-07
-9.25578e-14
3.94271e-08
-2.17741e-07
-1.28959e-13
2.77092e-08
-2.28193e-07
-1.45384e-13
1.42306e-08
-2.32445e-07
-1.21306e-13
-1.17959e-09
-2.29926e-07
-4.81767e-14
-1.86167e-08
-2.20203e-07
4.67682e-14
-3.80348e-08
-2.03114e-07
8.6306e-14
-5.90578e-08
-1.78941e-07
-2.26207e-14
-8.05804e-08
-1.48523e-07
-2.59487e-13
-1.00032e-07
-1.12904e-07
-3.19134e-13
-1.12021e-07
-6.72131e-08
1.37944e-14
-1.03724e-07
9.9298e-13
-5.86271e-08
-2.68489e-07
6.17414e-07
-3.40998e-07
3.65575e-07
-3.30994e-07
1.4675e-07
-2.66237e-07
-3.92165e-08
-1.56223e-07
-1.8504e-07
-9.0642e-09
-2.93368e-07
1.67126e-07
-3.71173e-07
3.64745e-07
-4.2506e-07
5.77479e-07
-4.60807e-07
8.00206e-07
-4.82488e-07
1.02876e-06
-4.93563e-07
1.25971e-06
-4.96898e-07
1.49034e-06
-4.9436e-07
1.71854e-06
-4.87372e-07
1.94263e-06
-4.76981e-07
2.16129e-06
-4.63977e-07
2.3735e-06
-4.48974e-07
2.57846e-06
-4.32448e-07
2.77555e-06
-4.1478e-07
2.9643e-06
-3.96278e-07
3.14436e-06
-3.7719e-07
3.31549e-06
-3.57723e-07
3.47754e-06
-3.38049e-07
3.63044e-06
-3.18313e-07
3.77416e-06
-2.98638e-07
3.90875e-06
-2.79126e-07
4.03428e-06
-2.59867e-07
4.15088e-06
-2.40937e-07
4.25871e-06
-2.224e-07
4.35795e-06
-2.04311e-07
4.44882e-06
-1.86716e-07
4.53155e-06
-1.69654e-07
4.60639e-06
-1.53157e-07
4.67361e-06
-1.37251e-07
4.73348e-06
-1.21956e-07
4.78629e-06
-1.07288e-07
4.83233e-06
-9.32567e-08
4.8719e-06
-7.98701e-08
4.9053e-06
-6.71306e-08
4.93283e-06
-5.50379e-08
4.95479e-06
-4.35885e-08
4.97149e-06
-3.2776e-08
4.98322e-06
-2.25919e-08
4.99027e-06
-1.30251e-08
4.99293e-06
-4.06224e-09
4.99147e-06
4.31124e-09
4.98618e-06
1.21116e-08
4.97731e-06
1.93567e-08
4.96513e-06
2.60653e-08
4.94989e-06
3.2257e-08
4.93181e-06
3.79519e-08
4.91114e-06
4.31705e-08
4.8881e-06
4.7934e-08
4.86289e-06
5.22636e-08
4.83571e-06
5.61808e-08
4.80675e-06
5.9707e-08
4.7762e-06
6.28636e-08
4.74423e-06
6.56717e-08
4.71099e-06
6.81523e-08
4.67663e-06
7.03258e-08
4.6413e-06
7.22122e-08
4.60513e-06
7.38311e-08
4.56824e-06
7.52013e-08
4.53074e-06
7.63413e-08
4.49274e-06
7.72686e-08
4.45434e-06
7.80002e-08
4.41562e-06
7.85523e-08
4.37667e-06
7.89405e-08
4.33757e-06
7.91795e-08
4.29837e-06
7.92833e-08
4.25915e-06
7.92652e-08
4.21995e-06
7.91376e-08
4.18083e-06
7.89125e-08
4.14183e-06
7.86008e-08
4.10299e-06
7.8213e-08
4.06435e-06
7.77587e-08
4.02593e-06
7.72469e-08
3.98775e-06
7.66861e-08
3.94985e-06
7.60841e-08
3.91224e-06
7.54479e-08
3.87493e-06
7.47844e-08
3.83794e-06
7.40995e-08
3.80127e-06
7.3399e-08
3.76494e-06
7.2688e-08
3.72894e-06
7.19713e-08
3.69327e-06
7.1253e-08
3.65795e-06
7.05372e-08
3.62296e-06
6.98275e-08
3.5883e-06
6.91271e-08
3.55397e-06
6.84389e-08
3.51996e-06
6.77656e-08
3.48626e-06
6.71096e-08
3.45286e-06
6.64732e-08
3.41976e-06
6.58582e-08
3.38694e-06
6.52664e-08
3.3544e-06
6.46995e-08
3.32211e-06
6.41589e-08
3.29007e-06
6.36459e-08
3.25825e-06
6.31616e-08
3.22666e-06
6.27071e-08
3.19527e-06
6.22833e-08
3.16407e-06
6.18912e-08
3.13304e-06
6.15314e-08
3.10217e-06
6.12047e-08
3.07144e-06
6.09118e-08
3.04083e-06
6.06531e-08
3.01032e-06
6.04293e-08
2.97991e-06
6.02408e-08
2.94957e-06
6.00881e-08
2.91928e-06
5.99714e-08
2.88903e-06
5.98913e-08
2.8588e-06
5.9848e-08
2.82856e-06
5.98418e-08
2.79832e-06
5.9873e-08
2.76803e-06
5.99418e-08
2.73769e-06
6.00484e-08
2.70728e-06
6.0193e-08
2.67677e-06
6.03758e-08
2.64616e-06
6.05967e-08
2.61541e-06
6.0856e-08
2.58452e-06
6.11537e-08
2.55346e-06
6.14897e-08
2.52222e-06
6.1864e-08
2.49077e-06
6.22766e-08
2.4591e-06
6.27274e-08
2.42719e-06
6.32161e-08
2.39503e-06
6.37426e-08
2.36258e-06
6.43066e-08
2.32984e-06
6.49078e-08
2.29679e-06
6.55457e-08
2.26341e-06
6.622e-08
2.22968e-06
6.69301e-08
2.19559e-06
6.76754e-08
2.16112e-06
6.84553e-08
2.12625e-06
6.92691e-08
2.09097e-06
7.01157e-08
2.05526e-06
7.09945e-08
2.01911e-06
7.19043e-08
1.9825e-06
7.28439e-08
1.94543e-06
7.38123e-08
1.90787e-06
7.48079e-08
1.86982e-06
7.58294e-08
1.83126e-06
7.68751e-08
1.79219e-06
7.79433e-08
1.75259e-06
7.90321e-08
1.71246e-06
8.01395e-08
1.67179e-06
8.12633e-08
1.63058e-06
8.24012e-08
1.58881e-06
8.35504e-08
1.5465e-06
8.47084e-08
1.50363e-06
8.58722e-08
1.4602e-06
8.70385e-08
1.41622e-06
8.8204e-08
1.37169e-06
8.9365e-08
1.32662e-06
9.05174e-08
1.28101e-06
9.16571e-08
1.23487e-06
9.27794e-08
1.18822e-06
9.38794e-08
1.14108e-06
9.49516e-08
1.09345e-06
9.59903e-08
1.04536e-06
9.69892e-08
9.96839e-07
9.79413e-08
9.47911e-07
9.88394e-08
8.98609e-07
9.96751e-08
8.48969e-07
1.0044e-07
7.99032e-07
1.01124e-07
7.48845e-07
1.01716e-07
6.9846e-07
1.02205e-07
6.47936e-07
1.02577e-07
5.97336e-07
1.02819e-07
5.46735e-07
1.02914e-07
4.96212e-07
1.02844e-07
4.45859e-07
1.02589e-07
3.95776e-07
1.02127e-07
3.46077e-07
1.01432e-07
2.96886e-07
1.00476e-07
2.48346e-07
9.92248e-08
2.00613e-07
9.76407e-08
1.53866e-07
9.56786e-08
1.08302e-07
9.32836e-08
6.41369e-08
9.03861e-08
2.16155e-08
8.69276e-08
-1.89813e-08
8.28446e-08
-5.73309e-08
7.805e-08
-9.30828e-08
7.2448e-08
-1.25852e-07
6.59272e-08
-1.55205e-07
5.83563e-08
-1.80664e-07
4.95797e-08
-2.01699e-07
3.9427e-08
-2.17741e-07
2.77091e-08
-2.28193e-07
1.42305e-08
-2.32445e-07
-1.17969e-09
-2.29926e-07
-1.86168e-08
-2.20203e-07
-3.8035e-08
-2.03114e-07
-5.9058e-08
-1.78942e-07
-8.05807e-08
-1.48524e-07
-1.00032e-07
-1.12905e-07
-1.12021e-07
-6.72156e-08
-1.03726e-07
-5.86302e-08
-1.13912e-07
2.91479e-13
7.31318e-07
-8.96022e-08
2.12447e-14
3.41257e-07
-9.93925e-09
3.59078e-14
6.70862e-08
9.75979e-08
2.25161e-14
-1.46755e-07
2.26588e-07
2.01085e-14
-3.1403e-07
3.74789e-07
1.8353e-14
-4.4157e-07
5.39725e-07
1.68439e-14
-5.36111e-07
7.18529e-07
1.54284e-14
-6.03864e-07
9.08035e-07
1.40025e-14
-6.50315e-07
1.10539e-06
1.25662e-14
-6.7984e-07
1.30792e-06
1.13172e-14
-6.96095e-07
1.51309e-06
1.01758e-14
-7.02075e-07
1.71877e-06
9.22168e-15
-7.00034e-07
1.92312e-06
8.45668e-15
-6.9173e-07
2.12466e-06
7.84781e-15
-6.78517e-07
2.32214e-06
7.35169e-15
-6.61459e-07
2.51456e-06
6.95619e-15
-6.41393e-07
2.7011e-06
6.6266e-15
-6.18992e-07
2.88112e-06
6.36987e-15
-5.94799e-07
3.0541e-06
6.15304e-15
-5.69257e-07
3.21964e-06
5.97091e-15
-5.42734e-07
3.37745e-06
5.82347e-15
-5.15535e-07
3.52732e-06
5.69164e-15
-4.87918e-07
3.66911e-06
5.56675e-15
-4.60102e-07
3.80274e-06
5.47655e-15
-4.32271e-07
3.9282e-06
5.38115e-15
-4.04585e-07
4.04551e-06
5.3031e-15
-3.7718e-07
4.15475e-06
5.23371e-15
-3.50174e-07
4.25601e-06
5.15566e-15
-3.23666e-07
4.34944e-06
5.08802e-15
-2.97742e-07
4.4352e-06
5.01517e-15
-2.72476e-07
4.51348e-06
4.94752e-15
-2.47929e-07
4.58447e-06
4.87814e-15
-2.24152e-07
4.64841e-06
4.80355e-15
-2.01189e-07
4.70552e-06
4.7307e-15
-1.79072e-07
4.75606e-06
4.65265e-15
-1.57828e-07
4.80028e-06
4.56939e-15
-1.37477e-07
4.83844e-06
4.47919e-15
-1.18032e-07
4.87081e-06
4.39073e-15
-9.94996e-08
4.89765e-06
4.29359e-15
-8.18835e-08
4.91925e-06
4.18778e-15
-6.51809e-08
4.93585e-06
4.09411e-15
-4.93852e-08
4.94775e-06
3.9883e-15
-3.44862e-08
4.95519e-06
3.87902e-15
-2.04699e-08
4.95845e-06
3.76627e-15
-7.31941e-09
4.95777e-06
3.6622e-15
4.98466e-09
4.95342e-06
3.54251e-15
1.6464e-08
4.94563e-06
3.4367e-15
2.71428e-08
4.93465e-06
3.32395e-15
3.70466e-08
4.92071e-06
3.21814e-15
4.62024e-08
4.90402e-06
3.10885e-15
5.46383e-08
4.88481e-06
3.00825e-15
6.23832e-08
4.86327e-06
2.90764e-15
6.94667e-08
4.83962e-06
2.80356e-15
7.59189e-08
4.81403e-06
2.71163e-15
8.17701e-08
4.78668e-06
2.60408e-15
8.70509e-08
4.75775e-06
2.51908e-15
9.17917e-08
4.7274e-06
2.42541e-15
9.60227e-08
4.69578e-06
2.34736e-15
9.97738e-08
4.66303e-06
2.27103e-15
1.03074e-07
4.62929e-06
2.19124e-15
1.05953e-07
4.59468e-06
2.12012e-15
1.08438e-07
4.55933e-06
2.05074e-15
1.10556e-07
4.52333e-06
1.97962e-15
1.12335e-07
4.4868e-06
1.91023e-15
1.13799e-07
4.44983e-06
1.84952e-15
1.14973e-07
4.4125e-06
1.78881e-15
1.1588e-07
4.3749e-06
1.72983e-15
1.16544e-07
4.33709e-06
1.68299e-15
1.16986e-07
4.29915e-06
1.63269e-15
1.17225e-07
4.26113e-06
1.58585e-15
1.17282e-07
4.22309e-06
1.54075e-15
1.17175e-07
4.18509e-06
1.49912e-15
1.1692e-07
4.14715e-06
1.4679e-15
1.16535e-07
4.10933e-06
1.4332e-15
1.16035e-07
4.07165e-06
1.40372e-15
1.15433e-07
4.03416e-06
1.36902e-15
1.14743e-07
3.99687e-06
1.33953e-15
1.13977e-07
3.9598e-06
1.31698e-15
1.13148e-07
3.92298e-06
1.29616e-15
1.12265e-07
3.88643e-06
1.27361e-15
1.11339e-07
3.85015e-06
1.25626e-15
1.10378e-07
3.81416e-06
1.25279e-15
1.09391e-07
3.77846e-06
1.24412e-15
1.08386e-07
3.74306e-06
1.24065e-15
1.0737e-07
3.70796e-06
1.23544e-15
1.06349e-07
3.67317e-06
1.23717e-15
1.0533e-07
3.63868e-06
1.23197e-15
1.04316e-07
3.60449e-06
1.23197e-15
1.03315e-07
3.5706e-06
1.23543e-15
1.02329e-07
3.53701e-06
1.25451e-15
1.01364e-07
3.50369e-06
1.26318e-15
1.00422e-07
3.47066e-06
1.28573e-15
9.95069e-08
3.43789e-06
1.29961e-15
9.86221e-08
3.40539e-06
1.32736e-15
9.77701e-08
3.37314e-06
1.34817e-15
9.69533e-08
3.34112e-06
1.37245e-15
9.6174e-08
3.30933e-06
1.40888e-15
9.54342e-08
3.27776e-06
1.44704e-15
9.47356e-08
3.24638e-06
1.47653e-15
9.408e-08
3.2152e-06
1.51989e-15
9.34688e-08
3.18419e-06
1.56152e-15
9.29033e-08
3.15333e-06
1.60835e-15
9.23847e-08
3.12262e-06
1.65692e-15
9.19143e-08
3.09204e-06
1.71243e-15
9.14928e-08
3.06157e-06
1.75926e-15
9.11213e-08
3.0312e-06
1.81997e-15
9.08006e-08
3.00091e-06
1.88415e-15
9.05314e-08
2.97068e-06
1.9466e-15
9.03143e-08
2.9405e-06
2.01598e-15
9.01501e-08
2.91036e-06
2.08884e-15
9.00391e-08
2.88022e-06
2.15649e-15
8.99821e-08
2.85008e-06
2.23281e-15
8.99792e-08
2.81992e-06
2.3126e-15
9.00311e-08
2.78973e-06
2.38546e-15
9.0138e-08
2.75948e-06
2.46699e-15
9.03001e-08
2.72915e-06
2.55198e-15
9.05178e-08
2.69873e-06
2.63698e-15
9.07913e-08
2.66821e-06
2.73065e-15
9.11206e-08
2.63756e-06
2.81738e-15
9.15059e-08
2.60677e-06
2.90585e-15
9.19472e-08
2.57581e-06
2.99952e-15
9.24446e-08
2.54468e-06
3.09492e-15
9.29978e-08
2.51335e-06
3.19727e-15
9.36067e-08
2.4818e-06
3.29614e-15
9.42712e-08
2.45003e-06
3.39675e-15
9.4991e-08
2.418e-06
3.49736e-15
9.57656e-08
2.38571e-06
3.5945e-15
9.65947e-08
2.35314e-06
3.70379e-15
9.74776e-08
2.32027e-06
3.80613e-15
9.84139e-08
2.28709e-06
3.91542e-15
9.94026e-08
2.25358e-06
4.01256e-15
1.00443e-07
2.21972e-06
4.11143e-15
1.01534e-07
2.1855e-06
4.22245e-15
1.02675e-07
2.1509e-06
4.33e-15
1.03865e-07
2.11591e-06
4.42888e-15
1.05102e-07
2.08052e-06
4.53296e-15
1.06384e-07
2.04472e-06
4.64918e-15
1.07711e-07
2.00848e-06
4.75152e-15
1.0908e-07
1.9718e-06
4.86428e-15
1.1049e-07
1.93467e-06