/*--------------------------------*- C++ -*----------------------------------*\
  =========                 |
  \\      /  F ield         | OpenFOAM: The Open Source CFD Toolbox
   \\    /   O peration     | Website:  https://openfoam.org
    \\  /    A nd           | Version:  8
     \\/     M anipulation  |
\*---------------------------------------------------------------------------*/
FoamFile
{
    version     2.0;
    format      ascii;
    class       volVectorField;
    location    "4700";
    object      U;
}
// * * * * * * * * * * * * * * * * * * * * * * * * * * * * * * * * * * * * * //

dimensions      [0 1 -1 0 0 0 0];

internalField   nonuniform List<vector> 
48000
(
(-0.0157829 2.66422e-07 0.017356)
(-0.0364037 3.37783e-08 0.0185899)
(-0.0515587 3.16768e-08 0.0104305)
(-0.0575227 1.54423e-08 0.00200322)
(-0.0551922 5.37958e-09 -0.0043426)
(-0.0472322 -1.98759e-09 -0.00875056)
(-0.0352461 -6.86857e-09 -0.0117462)
(-0.0205758 -1.01086e-08 -0.0137566)
(-0.00416136 -1.27737e-08 -0.0150296)
(0.0134666 -1.44642e-08 -0.0156513)
(0.0314642 -1.43004e-08 -0.0158019)
(0.0497387 -1.32762e-08 -0.0157074)
(0.0679417 -1.19018e-08 -0.0154423)
(0.0859044 -1.03179e-08 -0.0150576)
(0.103488 -8.66934e-09 -0.0145882)
(0.120591 -7.01695e-09 -0.0140589)
(0.137136 -5.44452e-09 -0.0134878)
(0.153067 -3.95204e-09 -0.0128884)
(0.16834 -2.58139e-09 -0.012271)
(0.182928 -1.3383e-09 -0.0116433)
(0.196808 -2.07516e-10 -0.0110114)
(0.209968 8.05237e-10 -0.0103803)
(0.222402 1.70948e-09 -0.00975382)
(0.234109 2.50522e-09 -0.00913504)
(0.245093 3.2229e-09 -0.00852654)
(0.255359 3.84159e-09 -0.00793039)
(0.264919 4.37843e-09 -0.00734833)
(0.273786 4.83721e-09 -0.00678176)
(0.281975 5.21795e-09 -0.00623183)
(0.289502 5.53776e-09 -0.00569948)
(0.296386 5.79857e-09 -0.00518546)
(0.302648 6.00036e-09 -0.00469036)
(0.308309 6.15836e-09 -0.0042146)
(0.31339 6.26116e-09 -0.00375851)
(0.317915 6.32589e-09 -0.00332227)
(0.321906 6.35445e-09 -0.00290597)
(0.325387 6.3316e-09 -0.00250962)
(0.328382 6.28782e-09 -0.00213311)
(0.330915 6.22119e-09 -0.00177628)
(0.333008 6.12411e-09 -0.00143889)
(0.334687 6.01179e-09 -0.00112066)
(0.335973 5.87473e-09 -0.000821235)
(0.336891 5.73006e-09 -0.000540246)
(0.337463 5.57015e-09 -0.000277261)
(0.33771 5.39121e-09 -3.14473e-05)
(0.337655 5.22369e-09 0.00019768)
(0.337317 5.04094e-09 0.000410227)
(0.336718 4.862e-09 0.000606806)
(0.335877 4.68306e-09 0.000788195)
(0.334813 4.50411e-09 0.000955061)
(0.333543 4.32898e-09 0.00110802)
(0.332085 4.16146e-09 0.0012477)
(0.330455 3.99965e-09 0.00137471)
(0.32867 3.83975e-09 0.00148969)
(0.326744 3.68936e-09 0.00159324)
(0.324691 3.54849e-09 0.00168601)
(0.322524 3.42476e-09 0.00176861)
(0.320257 3.30483e-09 0.00184163)
(0.317901 3.20203e-09 0.00190569)
(0.315467 3.10495e-09 0.00196135)
(0.312966 3.00977e-09 0.0020092)
(0.310407 2.94124e-09 0.00204977)
(0.307799 2.87652e-09 0.0020836)
(0.305151 2.82322e-09 0.0021112)
(0.30247 2.77943e-09 0.00213307)
(0.299764 2.74517e-09 0.00214968)
(0.297038 2.72043e-09 0.00216148)
(0.294298 2.71281e-09 0.0021689)
(0.291551 2.71091e-09 0.00217235)
(0.2888 2.71853e-09 0.00217221)
(0.286051 2.73376e-09 0.00216885)
(0.283307 2.7566e-09 0.00216262)
(0.280571 2.79087e-09 0.00215383)
(0.277848 2.83084e-09 0.0021428)
(0.275138 2.87463e-09 0.0021298)
(0.272446 2.92793e-09 0.0021151)
(0.269772 2.99075e-09 0.00209894)
(0.267119 3.05928e-09 0.00208155)
(0.264488 3.12401e-09 0.00206315)
(0.261881 3.20015e-09 0.00204392)
(0.259298 3.28582e-09 0.00202404)
(0.256739 3.36577e-09 0.00200369)
(0.254207 3.45143e-09 0.001983)
(0.2517 3.5428e-09 0.00196212)
(0.249219 3.63037e-09 0.00194118)
(0.246765 3.72936e-09 0.00192028)
(0.244337 3.82264e-09 0.00189953)
(0.241934 3.92162e-09 0.00187903)
(0.239557 4.02632e-09 0.00185886)
(0.237205 4.12912e-09 0.00183909)
(0.234878 4.24143e-09 0.0018198)
(0.232574 4.34423e-09 0.00180106)
(0.230294 4.45083e-09 0.0017829)
(0.228036 4.56124e-09 0.0017654)
(0.2258 4.67164e-09 0.00174858)
(0.223584 4.77253e-09 0.0017325)
(0.221389 4.88294e-09 0.00171718)
(0.219212 4.99716e-09 0.00170267)
(0.217053 5.11328e-09 0.001689)
(0.214911 5.21988e-09 0.00167618)
(0.212784 5.32648e-09 0.00166425)
(0.210672 5.4445e-09 0.00165322)
(0.208574 5.55872e-09 0.00164312)
(0.206487 5.66913e-09 0.00163396)
(0.204412 5.77953e-09 0.00162577)
(0.202347 5.89184e-09 0.00161855)
(0.20029 6.00225e-09 0.00161232)
(0.198241 6.11456e-09 0.0016071)
(0.196198 6.22497e-09 0.0016029)
(0.19416 6.33728e-09 0.00159972)
(0.192125 6.44959e-09 0.00159758)
(0.190093 6.5581e-09 0.0015965)
(0.188062 6.67231e-09 0.00159647)
(0.186031 6.76939e-09 0.0015975)
(0.183998 6.8817e-09 0.00159962)
(0.181962 6.9864e-09 0.00160281)
(0.179922 7.08729e-09 0.0016071)
(0.177876 7.1996e-09 0.00161248)
(0.175824 7.3062e-09 0.00161897)
(0.173763 7.40518e-09 0.00162656)
(0.171692 7.51369e-09 0.00163526)
(0.169611 7.60506e-09 0.00164508)
(0.167517 7.70976e-09 0.00165602)
(0.16541 7.80684e-09 0.00166808)
(0.163287 7.90963e-09 0.00168126)
(0.161149 8.00671e-09 0.00169557)
(0.158992 8.1076e-09 0.00171099)
(0.156816 8.20659e-09 0.00172752)
(0.15462 8.30367e-09 0.00174518)
(0.152403 8.39885e-09 0.00176393)
(0.150162 8.50164e-09 0.00178379)
(0.147897 8.5892e-09 0.00180475)
(0.145607 8.68629e-09 0.00182678)
(0.14329 8.77956e-09 0.00184989)
(0.140945 8.88235e-09 0.00187404)
(0.13857 8.97753e-09 0.00189924)
(0.136165 9.07652e-09 0.00192546)
(0.133729 9.18692e-09 0.00195268)
(0.13126 9.28591e-09 0.00198087)
(0.128757 9.38109e-09 0.00201)
(0.12622 9.48008e-09 0.00204006)
(0.123646 9.59429e-09 0.002071)
(0.121037 9.7047e-09 0.00210279)
(0.118389 9.81891e-09 0.00213539)
(0.115704 9.93313e-09 0.00216875)
(0.112979 1.0055e-08 0.00220282)
(0.110214 1.0173e-08 0.00223757)
(0.107409 1.03138e-08 0.00227291)
(0.104563 1.04623e-08 0.0023088)
(0.101676 1.0607e-08 0.00234517)
(0.0987473 1.07707e-08 0.00238194)
(0.0957766 1.09496e-08 0.00241904)
(0.0927638 1.11286e-08 0.00245637)
(0.0897091 1.13113e-08 0.00249383)
(0.0866124 1.15207e-08 0.00253134)
(0.0834742 1.17225e-08 0.00256877)
(0.0802947 1.19471e-08 0.00260601)
(0.0770747 1.2168e-08 0.00264292)
(0.0738147 1.23964e-08 0.00267935)
(0.070516 1.2621e-08 0.00271515)
(0.0671794 1.28571e-08 0.00275014)
(0.0638066 1.30855e-08 0.00278412)
(0.0603991 1.33139e-08 0.0028169)
(0.0569588 1.35119e-08 0.00284823)
(0.0534879 1.37023e-08 0.00287786)
(0.0499891 1.38507e-08 0.0029055)
(0.0464651 1.4003e-08 0.00293084)
(0.0429193 1.41096e-08 0.00295351)
(0.0393554 1.41629e-08 0.00297312)
(0.0357777 1.42315e-08 0.00298923)
(0.0321909 1.42695e-08 0.00300132)
(0.0286004 1.43266e-08 0.00300883)
(0.0250124 1.44713e-08 0.00301112)
(0.0214336 1.47683e-08 0.00300746)
(0.0178718 1.53013e-08 0.002997)
(0.0143357 1.61922e-08 0.00297879)
(0.0108353 1.76009e-08 0.00295171)
(0.00738159 1.96263e-08 0.00291444)
(0.00398826 2.2398e-08 0.00286529)
(0.000669538 2.58968e-08 0.00280043)
(-0.00256161 2.9883e-08 0.00271328)
(-0.00567298 3.43374e-08 0.00260376)
(-0.00865232 3.89632e-08 0.00247413)
(-0.0114705 4.28999e-08 0.00232204)
(-0.0140995 4.50205e-08 0.00214298)
(-0.0165056 4.38403e-08 0.00193203)
(-0.0186493 3.78591e-08 0.00168393)
(-0.020485 2.61633e-08 0.00139177)
(-0.0219588 9.24398e-09 0.00104748)
(-0.0230078 -9.75409e-09 0.000641101)
(-0.0235589 -2.46632e-08 0.000160606)
(-0.0235251 -2.76785e-08 -0.000405539)
(-0.0228106 -1.28912e-08 -0.0010686)
(-0.0213131 1.70412e-08 -0.00183935)
(-0.0189251 4.57858e-08 -0.0027183)
(-0.0155604 4.97909e-08 -0.00367259)
(-0.0112078 2.35058e-08 -0.00458087)
(-0.0061655 2.39858e-09 -0.00506415)
(-0.000571268 3.8423e-08 -0.0033613)
(0.00107345 1.14659e-07 0.00145789)
(-0.0157837 2.66419e-07 0.0173553)
(-0.0364039 3.37781e-08 0.0185896)
(-0.0515587 3.16766e-08 0.0104303)
(-0.0575227 1.54423e-08 0.00200306)
(-0.0551921 5.37957e-09 -0.00434275)
(-0.0472321 -1.98758e-09 -0.00875071)
(-0.0352459 -6.86856e-09 -0.0117463)
(-0.0205756 -1.01086e-08 -0.0137568)
(-0.00416122 -1.27737e-08 -0.0150298)
(0.0134667 -1.44641e-08 -0.0156515)
(0.0314643 -1.43004e-08 -0.015802)
(0.0497389 -1.32762e-08 -0.0157075)
(0.0679418 -1.19018e-08 -0.0154424)
(0.0859045 -1.03179e-08 -0.0150577)
(0.103488 -8.66933e-09 -0.0145883)
(0.120591 -7.01694e-09 -0.014059)
(0.137136 -5.44451e-09 -0.0134879)
(0.153067 -3.95203e-09 -0.0128885)
(0.16834 -2.58139e-09 -0.012271)
(0.182928 -1.3383e-09 -0.0116433)
(0.196808 -2.07516e-10 -0.0110115)
(0.209968 8.05236e-10 -0.0103804)
(0.222402 1.70948e-09 -0.00975391)
(0.234109 2.50521e-09 -0.00913512)
(0.245093 3.2229e-09 -0.00852662)
(0.255359 3.84159e-09 -0.00793047)
(0.264919 4.37842e-09 -0.00734841)
(0.273786 4.83721e-09 -0.00678184)
(0.281974 5.21794e-09 -0.00623191)
(0.289502 5.53776e-09 -0.00569956)
(0.296386 5.79856e-09 -0.00518554)
(0.302648 6.00035e-09 -0.00469043)
(0.308309 6.15836e-09 -0.00421467)
(0.31339 6.26116e-09 -0.00375858)
(0.317915 6.32589e-09 -0.00332234)
(0.321906 6.35444e-09 -0.00290604)
(0.325387 6.3316e-09 -0.00250968)
(0.328382 6.28782e-09 -0.00213317)
(0.330915 6.22119e-09 -0.00177634)
(0.333008 6.12411e-09 -0.00143895)
(0.334687 6.01179e-09 -0.00112072)
(0.335973 5.87473e-09 -0.000821296)
(0.336891 5.73005e-09 -0.000540307)
(0.337463 5.57015e-09 -0.00027732)
(0.33771 5.39121e-09 -3.15064e-05)
(0.337655 5.22369e-09 0.000197622)
(0.337317 5.04094e-09 0.00041017)
(0.336718 4.862e-09 0.00060675)
(0.335877 4.68305e-09 0.000788139)
(0.334813 4.50411e-09 0.000955005)
(0.333543 4.32898e-09 0.00110797)
(0.332085 4.16146e-09 0.00124765)
(0.330455 3.99965e-09 0.00137466)
(0.32867 3.83975e-09 0.00148963)
(0.326744 3.68936e-09 0.00159319)
(0.324691 3.54849e-09 0.00168596)
(0.322524 3.42476e-09 0.00176856)
(0.320257 3.30483e-09 0.00184158)
(0.317901 3.20203e-09 0.00190564)
(0.315467 3.10495e-09 0.0019613)
(0.312966 3.00977e-09 0.00200915)
(0.310407 2.94124e-09 0.00204972)
(0.307799 2.87652e-09 0.00208355)
(0.305151 2.82322e-09 0.00211116)
(0.30247 2.77943e-09 0.00213303)
(0.299764 2.74517e-09 0.00214964)
(0.297038 2.72042e-09 0.00216144)
(0.294298 2.71281e-09 0.00216885)
(0.291551 2.71091e-09 0.0021723)
(0.2888 2.71852e-09 0.00217216)
(0.286051 2.73375e-09 0.00216881)
(0.283307 2.7566e-09 0.00216257)
(0.280571 2.79087e-09 0.00215379)
(0.277848 2.83084e-09 0.00214276)
(0.275138 2.87463e-09 0.00212976)
(0.272446 2.92793e-09 0.00211505)
(0.269772 2.99075e-09 0.0020989)
(0.267119 3.05928e-09 0.00208151)
(0.264488 3.124e-09 0.0020631)
(0.261881 3.20015e-09 0.00204388)
(0.259298 3.28581e-09 0.002024)
(0.256739 3.36577e-09 0.00200365)
(0.254207 3.45143e-09 0.00198296)
(0.2517 3.5428e-09 0.00196208)
(0.249219 3.63037e-09 0.00194114)
(0.246765 3.72936e-09 0.00192024)
(0.244337 3.82263e-09 0.00189949)
(0.241934 3.92162e-09 0.00187899)
(0.239557 4.02632e-09 0.00185882)
(0.237205 4.12912e-09 0.00183905)
(0.234878 4.24143e-09 0.00181977)
(0.232574 4.34422e-09 0.00180102)
(0.230294 4.45082e-09 0.00178286)
(0.228036 4.56123e-09 0.00176536)
(0.2258 4.67164e-09 0.00174854)
(0.223584 4.77253e-09 0.00173246)
(0.221389 4.88294e-09 0.00171715)
(0.219212 4.99716e-09 0.00170264)
(0.217053 5.11328e-09 0.00168896)
(0.214911 5.21988e-09 0.00167614)
(0.212784 5.32648e-09 0.00166421)
(0.210672 5.4445e-09 0.00165318)
(0.208574 5.55871e-09 0.00164308)
(0.206487 5.66912e-09 0.00163392)
(0.204412 5.77953e-09 0.00162573)
(0.202347 5.89184e-09 0.00161851)
(0.20029 6.00225e-09 0.00161228)
(0.198241 6.11456e-09 0.00160706)
(0.196198 6.22497e-09 0.00160286)
(0.19416 6.33728e-09 0.00159968)
(0.192125 6.44959e-09 0.00159754)
(0.190093 6.55809e-09 0.00159645)
(0.188062 6.67231e-09 0.00159642)
(0.186031 6.76939e-09 0.00159746)
(0.183998 6.8817e-09 0.00159957)
(0.181962 6.9864e-09 0.00160277)
(0.179922 7.08729e-09 0.00160705)
(0.177876 7.1996e-09 0.00161244)
(0.175824 7.3062e-09 0.00161892)
(0.173763 7.40518e-09 0.00162651)
(0.171692 7.51369e-09 0.00163522)
(0.169611 7.60506e-09 0.00164504)
(0.167517 7.70975e-09 0.00165597)
(0.16541 7.80683e-09 0.00166803)
(0.163287 7.90963e-09 0.00168121)
(0.161149 8.00671e-09 0.00169551)
(0.158992 8.1076e-09 0.00171093)
(0.156816 8.20658e-09 0.00172747)
(0.15462 8.30366e-09 0.00174512)
(0.152403 8.39884e-09 0.00176388)
(0.150162 8.50164e-09 0.00178374)
(0.147897 8.5892e-09 0.00180469)
(0.145607 8.68628e-09 0.00182672)
(0.14329 8.77956e-09 0.00184983)
(0.140945 8.88235e-09 0.00187399)
(0.13857 8.97753e-09 0.00189918)
(0.136165 9.07651e-09 0.0019254)
(0.133729 9.18692e-09 0.00195261)
(0.13126 9.28591e-09 0.0019808)
(0.128757 9.38109e-09 0.00200994)
(0.12622 9.48007e-09 0.00204)
(0.123646 9.59429e-09 0.00207094)
(0.121037 9.70469e-09 0.00210272)
(0.118389 9.81891e-09 0.00213532)
(0.115704 9.93312e-09 0.00216868)
(0.112979 1.0055e-08 0.00220276)
(0.110214 1.0173e-08 0.0022375)
(0.107409 1.03138e-08 0.00227284)
(0.104563 1.04623e-08 0.00230873)
(0.101676 1.0607e-08 0.0023451)
(0.0987473 1.07707e-08 0.00238187)
(0.0957766 1.09496e-08 0.00241896)
(0.0927639 1.11286e-08 0.00245629)
(0.0897091 1.13113e-08 0.00249376)
(0.0866124 1.15207e-08 0.00253126)
(0.0834742 1.17225e-08 0.00256869)
(0.0802947 1.19471e-08 0.00260593)
(0.0770747 1.21679e-08 0.00264283)
(0.0738148 1.23964e-08 0.00267926)
(0.070516 1.2621e-08 0.00271506)
(0.0671795 1.2857e-08 0.00275005)
(0.0638066 1.30855e-08 0.00278403)
(0.0603991 1.33139e-08 0.00281681)
(0.0569588 1.35119e-08 0.00284814)
(0.053488 1.37022e-08 0.00287777)
(0.0499891 1.38507e-08 0.00290541)
(0.0464651 1.4003e-08 0.00293074)
(0.0429193 1.41096e-08 0.00295341)
(0.0393554 1.41629e-08 0.00297302)
(0.0357777 1.42314e-08 0.00298912)
(0.0321909 1.42695e-08 0.00300122)
(0.0286004 1.43266e-08 0.00300873)
(0.0250124 1.44713e-08 0.00301102)
(0.0214336 1.47683e-08 0.00300735)
(0.0178718 1.53013e-08 0.00299689)
(0.0143358 1.61922e-08 0.00297867)
(0.0108353 1.76008e-08 0.0029516)
(0.00738161 1.96263e-08 0.00291432)
(0.00398828 2.23979e-08 0.00286517)
(0.00066956 2.58968e-08 0.00280031)
(-0.00256158 2.98829e-08 0.00271315)
(-0.00567295 3.43374e-08 0.00260363)
(-0.0086523 3.89632e-08 0.00247399)
(-0.0114705 4.28999e-08 0.0023219)
(-0.0140995 4.50205e-08 0.00214284)
(-0.0165056 4.38402e-08 0.00193188)
(-0.0186493 3.78591e-08 0.00168378)
(-0.020485 2.61633e-08 0.00139161)
(-0.0219588 9.24397e-09 0.00104732)
(-0.0230078 -9.75408e-09 0.000640936)
(-0.0235589 -2.46632e-08 0.000160438)
(-0.0235251 -2.76785e-08 -0.000405706)
(-0.0228106 -1.28912e-08 -0.00106876)
(-0.0213131 1.70412e-08 -0.00183952)
(-0.0189251 4.57857e-08 -0.00271848)
(-0.0155605 4.9791e-08 -0.0036728)
(-0.0112079 2.35059e-08 -0.00458113)
(-0.00616564 2.39857e-09 -0.00506444)
(-0.000571547 3.84221e-08 -0.00336175)
(0.00107314 1.14657e-07 0.0014571)
(-0.0153497 2.57135e-08 0.041122)
(-0.0228132 2.51442e-09 0.0285936)
(-0.0239676 3.83382e-09 0.0141179)
(-0.0213356 1.71214e-10 0.000787973)
(-0.0151575 -1.13087e-09 -0.00978333)
(-0.00621885 -2.10648e-09 -0.0175316)
(0.00501744 -2.8489e-09 -0.0230018)
(0.0179449 -3.38858e-09 -0.0267183)
(0.032108 -3.76455e-09 -0.029139)
(0.0471233 -3.9254e-09 -0.0305556)
(0.062657 -3.86258e-09 -0.0312335)
(0.0784669 -3.73979e-09 -0.0314022)
(0.0943351 -3.56369e-09 -0.0311907)
(0.110101 -3.36333e-09 -0.0306979)
(0.125636 -3.14678e-09 -0.0299936)
(0.140839 -2.92548e-09 -0.0291297)
(0.155631 -2.71084e-09 -0.0281454)
(0.169949 -2.50524e-09 -0.0270711)
(0.183745 -2.31201e-09 -0.0259304)
(0.196984 -2.13116e-09 -0.0247425)
(0.209636 -1.96268e-09 -0.0235226)
(0.221683 -1.80611e-09 -0.0222833)
(0.233111 -1.66285e-09 -0.021035)
(0.243913 -1.53197e-09 -0.0197865)
(0.254085 -1.41014e-09 -0.0185449)
(0.263627 -1.30163e-09 -0.0173165)
(0.272546 -1.20216e-09 -0.0161065)
(0.280847 -1.11506e-09 -0.0149193)
(0.28854 -1.03511e-09 -0.0137588)
(0.295638 -9.64669e-10 -0.0126282)
(0.302154 -9.04702e-10 -0.01153)
(0.308103 -8.51397e-10 -0.0104665)
(0.313503 -8.07135e-10 -0.00943958)
(0.31837 -7.70488e-10 -0.00845061)
(0.322723 -7.40503e-10 -0.00750075)
(0.326582 -7.15278e-10 -0.00659079)
(0.329967 -6.98619e-10 -0.00572131)
(0.332897 -6.87195e-10 -0.00489258)
(0.335394 -6.79102e-10 -0.0041047)
(0.337479 -6.78624e-10 -0.00335755)
(0.339171 -6.81002e-10 -0.00265081)
(0.340492 -6.86711e-10 -0.00198403)
(0.341462 -6.95751e-10 -0.00135661)
(0.3421 -7.07171e-10 -0.000767802)
(0.342428 -7.19067e-10 -0.000216756)
(0.342465 -7.36674e-10 0.000297519)
(0.342229 -7.56184e-10 0.00077616)
(0.341739 -7.75695e-10 0.00122033)
(0.341012 -7.94729e-10 0.00163122)
(0.340068 -8.1424e-10 0.00201005)
(0.338921 -8.34226e-10 0.0023581)
(0.337588 -8.53737e-10 0.00267668)
(0.336085 -8.74675e-10 0.00296711)
(0.334427 -8.92758e-10 0.00323072)
(0.332627 -9.12744e-10 0.00346888)
(0.330699 -9.30827e-10 0.00368292)
(0.328655 -9.47482e-10 0.00387418)
(0.326508 -9.6271e-10 0.004044)
(0.324269 -9.76985e-10 0.00419366)
(0.321948 -9.90309e-10 0.00432445)
(0.319556 -1.00268e-09 0.00443762)
(0.317101 -1.01315e-09 0.00453438)
(0.314594 -1.02362e-09 0.0046159)
(0.312041 -1.03361e-09 0.00468333)
(0.30945 -1.04075e-09 0.00473775)
(0.306828 -1.04693e-09 0.00478021)
(0.304182 -1.05121e-09 0.00481173)
(0.301517 -1.0555e-09 0.00483325)
(0.298839 -1.0574e-09 0.0048457)
(0.296153 -1.05978e-09 0.00484993)
(0.293463 -1.0612e-09 0.00484676)
(0.290772 -1.05978e-09 0.00483697)
(0.288086 -1.05835e-09 0.00482127)
(0.285406 -1.05549e-09 0.00480036)
(0.282736 -1.05121e-09 0.00477486)
(0.280078 -1.04597e-09 0.00474537)
(0.277435 -1.04216e-09 0.00471244)
(0.274807 -1.03597e-09 0.00467659)
(0.272198 -1.03074e-09 0.0046383)
(0.269608 -1.02408e-09 0.00459799)
(0.267039 -1.01646e-09 0.00455609)
(0.26449 -1.0098e-09 0.00451296)
(0.261964 -1.00218e-09 0.00446894)
(0.259461 -9.94568e-10 0.00442435)
(0.25698 -9.84574e-10 0.00437947)
(0.254522 -9.78387e-10 0.00433457)
(0.252088 -9.68393e-10 0.00428988)
(0.249677 -9.59827e-10 0.00424562)
(0.247288 -9.51261e-10 0.00420199)
(0.244922 -9.41267e-10 0.00415916)
(0.242579 -9.31749e-10 0.0041173)
(0.240257 -9.22707e-10 0.00407654)
(0.237956 -9.14141e-10 0.00403702)
(0.235676 -9.05575e-10 0.00399886)
(0.233416 -8.96533e-10 0.00396216)
(0.231174 -8.87491e-10 0.00392702)
(0.228951 -8.77973e-10 0.00389352)
(0.226745 -8.69408e-10 0.00386175)
(0.224556 -8.60366e-10 0.00383176)
(0.222381 -8.52276e-10 0.00380363)
(0.220222 -8.44187e-10 0.00377741)
(0.218076 -8.35621e-10 0.00375315)
(0.215942 -8.29435e-10 0.00373089)
(0.213819 -8.21345e-10 0.00371068)
(0.211707 -8.13256e-10 0.00369256)
(0.209604 -8.06118e-10 0.00367656)
(0.207508 -7.99932e-10 0.00366271)
(0.205419 -7.93746e-10 0.00365104)
(0.203336 -7.8756e-10 0.00364158)
(0.201257 -7.80898e-10 0.00363434)
(0.199182 -7.74237e-10 0.00362936)
(0.197108 -7.69003e-10 0.00362665)
(0.195034 -7.64244e-10 0.00362623)
(0.192961 -7.60438e-10 0.00362812)
(0.190885 -7.54252e-10 0.00363232)
(0.188806 -7.50446e-10 0.00363886)
(0.186723 -7.4664e-10 0.00364775)
(0.184634 -7.4331e-10 0.00365899)
(0.182539 -7.39503e-10 0.00367259)
(0.180435 -7.36649e-10 0.00368855)
(0.178322 -7.33794e-10 0.00370689)
(0.176197 -7.32368e-10 0.0037276)
(0.174061 -7.30465e-10 0.00375069)
(0.171912 -7.2999e-10 0.00377614)
(0.169748 -7.28088e-10 0.00380395)
(0.167568 -7.27137e-10 0.00383412)
(0.165371 -7.24758e-10 0.00386663)
(0.163155 -7.27615e-10 0.00390146)
(0.16092 -7.2714e-10 0.00393861)
(0.158665 -7.26665e-10 0.00397805)
(0.156387 -7.27142e-10 0.00401975)
(0.154086 -7.29998e-10 0.00406368)
(0.15176 -7.3333e-10 0.00410981)
(0.149409 -7.35235e-10 0.00415811)
(0.147032 -7.38091e-10 0.00420852)
(0.144626 -7.42851e-10 0.004261)
(0.142192 -7.44756e-10 0.00431549)
(0.139728 -7.48564e-10 0.00437194)
(0.137233 -7.53324e-10 0.00443027)
(0.134707 -7.59035e-10 0.00449042)
(0.132147 -7.62843e-10 0.0045523)
(0.129555 -7.68079e-10 0.00461583)
(0.126928 -7.73791e-10 0.00468091)
(0.124266 -7.80454e-10 0.00474744)
(0.121568 -7.87593e-10 0.0048153)
(0.118834 -7.93781e-10 0.00488438)
(0.116064 -8.01872e-10 0.00495453)
(0.113256 -8.08535e-10 0.00502563)
(0.11041 -8.14723e-10 0.00509751)
(0.107527 -8.23766e-10 0.00517002)
(0.104606 -8.29477e-10 0.00524296)
(0.101646 -8.3852e-10 0.00531616)
(0.0986489 -8.47563e-10 0.00538939)
(0.0956136 -8.56606e-10 0.00546245)
(0.0925408 -8.68028e-10 0.00553508)
(0.0894309 -8.80402e-10 0.00560702)
(0.0862846 -8.923e-10 0.00567801)
(0.0831026 -9.08957e-10 0.00574772)
(0.0798858 -9.26566e-10 0.00581584)
(0.0766354 -9.44175e-10 0.00588201)
(0.0733527 -9.62736e-10 0.00594584)
(0.0700393 -9.87007e-10 0.0060069)
(0.066697 -1.01366e-09 0.00606474)
(0.0633278 -1.04412e-09 0.00611885)
(0.0599342 -1.07648e-09 0.00616869)
(0.0565187 -1.1136e-09 0.00621365)
(0.0530844 -1.15453e-09 0.00625306)
(0.0496346 -1.19641e-09 0.00628618)
(0.0461731 -1.244e-09 0.0063122)
(0.0427041 -1.28969e-09 0.0063302)
(0.0392324 -1.33632e-09 0.00633918)
(0.0357631 -1.37725e-09 0.006338)
(0.0323022 -1.40295e-09 0.00632539)
(0.0288562 -1.41247e-09 0.0062999)
(0.0254324 -1.39248e-09 0.00625992)
(0.022039 -1.33633e-09 0.00620359)
(0.018685 -1.22687e-09 0.00612877)
(0.0153807 -1.07077e-09 0.00603292)
(0.0121376 -8.52808e-10 0.00591306)
(0.0089686 -5.82495e-10 0.00576523)
(0.00588743 -2.5888e-10 0.00558386)
(0.00291071 7.71077e-11 0.00536541)
(5.50587e-05 3.34096e-10 0.00510657)
(-0.00265802 3.79782e-10 0.00480145)
(-0.00520508 3.61798e-11 0.00444348)
(-0.00756177 -9.17531e-10 0.00402479)
(-0.00969971 -2.70312e-09 0.0035359)
(-0.0115878 -5.39388e-09 0.00296539)
(-0.0131914 -8.72425e-09 0.00230049)
(-0.0144727 -1.183e-08 0.00152651)
(-0.0153913 -1.31968e-08 0.00062744)
(-0.0159062 -1.10943e-08 -0.000411259)
(-0.0159744 -4.86372e-09 -0.00159932)
(-0.0155608 3.05436e-09 -0.00293781)
(-0.0146422 6.03256e-09 -0.00440175)
(-0.0132199 -3.61114e-09 -0.00590276)
(-0.0113366 -2.37285e-08 -0.00721214)
(-0.00904544 -2.998e-08 -0.0078153)
(-0.00630271 -3.09529e-09 -0.00643218)
(-0.00363498 5.09399e-08 -0.00104839)
(-0.01535 2.57134e-08 0.0411217)
(-0.0228133 2.51441e-09 0.0285934)
(-0.0239675 3.8338e-09 0.0141178)
(-0.0213355 1.71213e-10 0.000787882)
(-0.0151574 -1.13086e-09 -0.00978341)
(-0.00621878 -2.10647e-09 -0.0175317)
(0.00501751 -2.84889e-09 -0.0230019)
(0.017945 -3.38857e-09 -0.0267183)
(0.0321081 -3.76454e-09 -0.0291391)
(0.0471233 -3.92539e-09 -0.0305556)
(0.0626571 -3.86257e-09 -0.0312336)
(0.0784669 -3.73978e-09 -0.0314022)
(0.0943351 -3.56368e-09 -0.0311907)
(0.110101 -3.36332e-09 -0.0306979)
(0.125636 -3.14678e-09 -0.0299937)
(0.140839 -2.92547e-09 -0.0291297)
(0.155631 -2.71083e-09 -0.0281454)
(0.169949 -2.50523e-09 -0.0270711)
(0.183745 -2.31201e-09 -0.0259304)
(0.196984 -2.13116e-09 -0.0247425)
(0.209636 -1.96268e-09 -0.0235226)
(0.221683 -1.8061e-09 -0.0222833)
(0.233111 -1.66285e-09 -0.0210351)
(0.243913 -1.53197e-09 -0.0197865)
(0.254084 -1.41013e-09 -0.0185449)
(0.263627 -1.30162e-09 -0.0173165)
(0.272546 -1.20216e-09 -0.0161065)
(0.280847 -1.11506e-09 -0.0149194)
(0.28854 -1.03511e-09 -0.0137589)
(0.295638 -9.64668e-10 -0.0126282)
(0.302154 -9.04701e-10 -0.01153)
(0.308103 -8.51396e-10 -0.0104665)
(0.313502 -8.07134e-10 -0.00943958)
(0.318369 -7.70487e-10 -0.00845062)
(0.322723 -7.40502e-10 -0.00750075)
(0.326582 -7.15277e-10 -0.0065908)
(0.329967 -6.98618e-10 -0.00572131)
(0.332897 -6.87194e-10 -0.00489259)
(0.335394 -6.79101e-10 -0.00410471)
(0.337479 -6.78624e-10 -0.00335756)
(0.339171 -6.81001e-10 -0.00265082)
(0.340492 -6.8671e-10 -0.00198404)
(0.341462 -6.95751e-10 -0.00135662)
(0.3421 -7.0717e-10 -0.000767812)
(0.342428 -7.19066e-10 -0.000216766)
(0.342465 -7.36673e-10 0.000297508)
(0.342229 -7.56184e-10 0.000776149)
(0.341738 -7.75694e-10 0.00122032)
(0.341012 -7.94729e-10 0.00163121)
(0.340068 -8.14239e-10 0.00201004)
(0.338921 -8.34226e-10 0.00235809)
(0.337588 -8.53736e-10 0.00267667)
(0.336085 -8.74674e-10 0.00296709)
(0.334427 -8.92757e-10 0.00323071)
(0.332627 -9.12743e-10 0.00346886)
(0.330698 -9.30826e-10 0.00368291)
(0.328655 -9.47481e-10 0.00387417)
(0.326508 -9.62709e-10 0.00404398)
(0.324268 -9.76984e-10 0.00419365)
(0.321948 -9.90308e-10 0.00432444)
(0.319556 -1.00268e-09 0.00443761)
(0.317101 -1.01315e-09 0.00453437)
(0.314594 -1.02362e-09 0.00461589)
(0.312041 -1.03361e-09 0.00468331)
(0.30945 -1.04075e-09 0.00473773)
(0.306828 -1.04693e-09 0.0047802)
(0.304182 -1.05121e-09 0.00481172)
(0.301517 -1.0555e-09 0.00483324)
(0.298839 -1.0574e-09 0.00484569)
(0.296153 -1.05978e-09 0.00484992)
(0.293462 -1.0612e-09 0.00484675)
(0.290772 -1.05977e-09 0.00483695)
(0.288086 -1.05835e-09 0.00482126)
(0.285406 -1.05549e-09 0.00480034)
(0.282736 -1.05121e-09 0.00477484)
(0.280078 -1.04597e-09 0.00474536)
(0.277435 -1.04216e-09 0.00471243)
(0.274807 -1.03597e-09 0.00467658)
(0.272198 -1.03074e-09 0.00463828)
(0.269608 -1.02408e-09 0.00459798)
(0.267039 -1.01646e-09 0.00455608)
(0.26449 -1.0098e-09 0.00451295)
(0.261964 -1.00218e-09 0.00446893)
(0.259461 -9.94568e-10 0.00442434)
(0.25698 -9.84573e-10 0.00437946)
(0.254522 -9.78387e-10 0.00433456)
(0.252088 -9.68392e-10 0.00428987)
(0.249677 -9.59826e-10 0.00424561)
(0.247288 -9.5126e-10 0.00420198)
(0.244922 -9.41266e-10 0.00415915)
(0.242579 -9.31748e-10 0.00411729)
(0.240257 -9.22706e-10 0.00407653)
(0.237956 -9.1414e-10 0.00403701)
(0.235676 -9.05574e-10 0.00399885)
(0.233416 -8.96532e-10 0.00396215)
(0.231174 -8.8749e-10 0.00392701)
(0.228951 -8.77973e-10 0.00389351)
(0.226745 -8.69407e-10 0.00386174)
(0.224555 -8.60365e-10 0.00383175)
(0.222381 -8.52276e-10 0.00380362)
(0.220222 -8.44186e-10 0.0037774)
(0.218076 -8.3562e-10 0.00375314)
(0.215942 -8.29434e-10 0.00373088)
(0.213819 -8.21345e-10 0.00371067)
(0.211707 -8.13255e-10 0.00369255)
(0.209604 -8.06117e-10 0.00367655)
(0.207508 -7.99931e-10 0.0036627)
(0.205419 -7.93745e-10 0.00365103)
(0.203336 -7.8756e-10 0.00364156)
(0.201257 -7.80898e-10 0.00363433)
(0.199181 -7.74236e-10 0.00362935)
(0.197108 -7.69002e-10 0.00362664)
(0.195034 -7.64244e-10 0.00362622)
(0.192961 -7.60438e-10 0.00362811)
(0.190885 -7.54252e-10 0.00363231)
(0.188806 -7.50446e-10 0.00363885)
(0.186723 -7.46639e-10 0.00364774)
(0.184634 -7.43309e-10 0.00365898)
(0.182539 -7.39503e-10 0.00367258)
(0.180435 -7.36648e-10 0.00368854)
(0.178322 -7.33794e-10 0.00370688)
(0.176197 -7.32367e-10 0.00372759)
(0.174061 -7.30465e-10 0.00375067)
(0.171912 -7.2999e-10 0.00377612)
(0.169748 -7.28087e-10 0.00380394)
(0.167568 -7.27136e-10 0.0038341)
(0.165371 -7.24758e-10 0.00386661)
(0.163155 -7.27614e-10 0.00390145)
(0.16092 -7.27139e-10 0.0039386)
(0.158665 -7.26664e-10 0.00397804)
(0.156387 -7.27141e-10 0.00401974)
(0.154086 -7.29998e-10 0.00406367)
(0.15176 -7.3333e-10 0.0041098)
(0.149409 -7.35234e-10 0.00415809)
(0.147032 -7.38091e-10 0.0042085)
(0.144626 -7.42851e-10 0.00426098)
(0.142192 -7.44755e-10 0.00431548)
(0.139728 -7.48563e-10 0.00437192)
(0.137233 -7.53323e-10 0.00443026)
(0.134707 -7.59035e-10 0.0044904)
(0.132147 -7.62843e-10 0.00455229)
(0.129555 -7.68079e-10 0.00461582)
(0.126928 -7.7379e-10 0.00468089)
(0.124266 -7.80454e-10 0.00474742)
(0.121568 -7.87593e-10 0.00481528)
(0.118834 -7.9378e-10 0.00488436)
(0.116064 -8.01871e-10 0.00495452)
(0.113256 -8.08535e-10 0.00502561)
(0.11041 -8.14722e-10 0.0050975)
(0.107527 -8.23765e-10 0.00517)
(0.104606 -8.29477e-10 0.00524294)
(0.101646 -8.38519e-10 0.00531614)
(0.0986489 -8.47562e-10 0.00538937)
(0.0956136 -8.56605e-10 0.00546243)
(0.0925408 -8.68027e-10 0.00553506)
(0.0894309 -8.80401e-10 0.00560701)
(0.0862846 -8.92299e-10 0.00567799)
(0.0831026 -9.08957e-10 0.00574771)
(0.0798858 -9.26566e-10 0.00581583)
(0.0766354 -9.44174e-10 0.00588199)
(0.0733527 -9.62735e-10 0.00594582)
(0.0700393 -9.87007e-10 0.00600688)
(0.066697 -1.01366e-09 0.00606472)
(0.0633278 -1.04412e-09 0.00611883)
(0.0599342 -1.07648e-09 0.00616867)
(0.0565187 -1.1136e-09 0.00621363)
(0.0530844 -1.15453e-09 0.00625304)
(0.0496346 -1.19641e-09 0.00628616)
(0.0461731 -1.244e-09 0.00631218)
(0.0427041 -1.28968e-09 0.00633018)
(0.0392324 -1.33632e-09 0.00633916)
(0.0357631 -1.37725e-09 0.00633798)
(0.0323022 -1.40295e-09 0.00632537)
(0.0288562 -1.41247e-09 0.00629988)
(0.0254324 -1.39248e-09 0.0062599)
(0.022039 -1.33632e-09 0.00620357)
(0.018685 -1.22687e-09 0.00612874)
(0.0153808 -1.07077e-09 0.0060329)
(0.0121376 -8.52807e-10 0.00591303)
(0.00896861 -5.82494e-10 0.00576521)
(0.00588744 -2.5888e-10 0.00558383)
(0.00291072 7.71076e-11 0.00536538)
(5.50677e-05 3.34095e-10 0.00510654)
(-0.00265802 3.79782e-10 0.00480142)
(-0.00520508 3.61798e-11 0.00444345)
(-0.00756176 -9.1753e-10 0.00402476)
(-0.0096997 -2.70312e-09 0.00353587)
(-0.0115878 -5.39388e-09 0.00296536)
(-0.0131914 -8.72425e-09 0.00230046)
(-0.0144727 -1.183e-08 0.00152648)
(-0.0153913 -1.31968e-08 0.000627408)
(-0.0159062 -1.10942e-08 -0.000411291)
(-0.0159744 -4.86372e-09 -0.00159935)
(-0.0155608 3.05436e-09 -0.00293785)
(-0.0146422 6.03256e-09 -0.00440179)
(-0.0132199 -3.61115e-09 -0.00590281)
(-0.0113366 -2.37286e-08 -0.0072122)
(-0.00904551 -2.998e-08 -0.00781539)
(-0.00630289 -3.09529e-09 -0.00643238)
(-0.00363536 5.09406e-08 -0.00104872)
(-0.00724199 3.98158e-08 0.056177)
(-0.00835486 2.84188e-09 0.0294397)
(-0.00391565 4.86565e-09 0.00927997)
(0.00259094 3.05626e-09 -0.00691849)
(0.0107693 2.73885e-09 -0.0195846)
(0.0203156 2.50518e-09 -0.0291445)
(0.0311041 2.30483e-09 -0.036136)
(0.0429445 2.11494e-09 -0.0410728)
(0.0556264 1.92125e-09 -0.0444063)
(0.0689402 1.72708e-09 -0.046486)
(0.0826971 1.5567e-09 -0.0476)
(0.0967184 1.40156e-09 -0.0479819)
(0.110841 1.27163e-09 -0.0478012)
(0.12493 1.16765e-09 -0.0471875)
(0.138872 1.0846e-09 -0.0462388)
(0.152575 1.01726e-09 -0.0450305)
(0.165961 9.63247e-10 -0.0436213)
(0.178969 9.18512e-10 -0.0420579)
(0.19155 8.83534e-10 -0.0403774)
(0.203663 8.54028e-10 -0.03861)
(0.215278 8.29044e-10 -0.0367805)
(0.226371 8.09057e-10 -0.0349095)
(0.236925 7.91687e-10 -0.0330141)
(0.246929 7.75031e-10 -0.0311088)
(0.256374 7.62183e-10 -0.029206)
(0.265259 7.49572e-10 -0.0273161)
(0.273584 7.38627e-10 -0.0254481)
(0.281351 7.28872e-10 -0.0236097)
(0.288568 7.18165e-10 -0.0218074)
(0.295242 7.08885e-10 -0.0200467)
(0.301384 6.98892e-10 -0.0183325)
(0.307006 6.89137e-10 -0.0166688)
(0.312121 6.79382e-10 -0.0150587)
(0.316744 6.68913e-10 -0.0135051)
(0.320891 6.5773e-10 -0.01201)
(0.324579 6.47022e-10 -0.0105751)
(0.327824 6.35125e-10 -0.00920153)
(0.330644 6.22277e-10 -0.00789015)
(0.333058 6.09428e-10 -0.00664132)
(0.335084 5.95627e-10 -0.00545509)
(0.336741 5.80875e-10 -0.00433121)
(0.338046 5.66836e-10 -0.00326915)