/*--------------------------------*- C++ -*----------------------------------*\
  =========                 |
  \\      /  F ield         | OpenFOAM: The Open Source CFD Toolbox
   \\    /   O peration     | Website:  https://openfoam.org
    \\  /    A nd           | Version:  8
     \\/     M anipulation  |
\*---------------------------------------------------------------------------*/
FoamFile
{
    version     2.0;
    format      ascii;
    class       volScalarField;
    location    "700";
    object      alphat;
}
// * * * * * * * * * * * * * * * * * * * * * * * * * * * * * * * * * * * * * //

dimensions      [1 -1 -1 0 0 0 0];

internalField   nonuniform List<scalar> 
46000
(
1.8149e-07
8.04094e-07
1.66713e-06
2.64661e-06
3.67276e-06
4.67505e-06
5.66732e-06
6.58345e-06
7.4494e-06
8.26601e-06
9.03218e-06
9.74651e-06
1.04076e-05
1.10141e-05
1.15649e-05
1.20592e-05
1.24964e-05
1.28765e-05
1.31996e-05
1.34665e-05
1.36786e-05
1.38373e-05
1.39447e-05
1.40034e-05
1.40204e-05
1.40099e-05
1.39656e-05
1.38873e-05
1.37775e-05
1.364e-05
1.34791e-05
1.32993e-05
1.3105e-05
1.29003e-05
1.26891e-05
1.24751e-05
1.22613e-05
1.20503e-05
1.18446e-05
1.16458e-05
1.14556e-05
1.12749e-05
1.11046e-05
1.09452e-05
1.07969e-05
1.06597e-05
1.05336e-05
1.04183e-05
1.03136e-05
1.02189e-05
1.0134e-05
1.00582e-05
9.99119e-06
9.93245e-06
9.8815e-06
9.83788e-06
9.80115e-06
9.77085e-06
9.74667e-06
9.72971e-06
9.7184e-06
9.71202e-06
9.71018e-06
9.71255e-06
9.71889e-06
9.72894e-06
9.74248e-06
9.75928e-06
9.77914e-06
9.80183e-06
9.82717e-06
9.85496e-06
9.88501e-06
9.91715e-06
9.95122e-06
9.98708e-06
1.00246e-05
1.00636e-05
1.01041e-05
1.01459e-05
1.0189e-05
1.02333e-05
1.02789e-05
1.03256e-05
1.03735e-05
1.04226e-05
1.04729e-05
1.05245e-05
1.05774e-05
1.06316e-05
1.06872e-05
1.07442e-05
1.08027e-05
1.08627e-05
1.09242e-05
1.09872e-05
1.10517e-05
1.11177e-05
1.11851e-05
1.12539e-05
1.1324e-05
1.13952e-05
1.14676e-05
1.1541e-05
1.16152e-05
1.16902e-05
1.17657e-05
1.18416e-05
1.19178e-05
1.19941e-05
1.20704e-05
1.21466e-05
1.22225e-05
1.22981e-05
1.23733e-05
1.24481e-05
1.25223e-05
1.25959e-05
1.2669e-05
1.27416e-05
1.28136e-05
1.28852e-05
1.29563e-05
1.3027e-05
1.30974e-05
1.31676e-05
1.32377e-05
1.33076e-05
1.33776e-05
1.34476e-05
1.35178e-05
1.35883e-05
1.36592e-05
1.37304e-05
1.38023e-05
1.38747e-05
1.39479e-05
1.4022e-05
1.4097e-05
1.41731e-05
1.42505e-05
1.43292e-05
1.44096e-05
1.44917e-05
1.45758e-05
1.46622e-05
1.47509e-05
1.48424e-05
1.49369e-05
1.50345e-05
1.51357e-05
1.52406e-05
1.53496e-05
1.54628e-05
1.55804e-05
1.57026e-05
1.58295e-05
1.59611e-05
1.60973e-05
1.62379e-05
1.63824e-05
1.65305e-05
1.66813e-05
1.68339e-05
1.69869e-05
1.71389e-05
1.72878e-05
1.74314e-05
1.75668e-05
1.76908e-05
1.77999e-05
1.78898e-05
1.79565e-05
1.79978e-05
1.80103e-05
1.79854e-05
1.79161e-05
1.77963e-05
1.76198e-05
1.7381e-05
1.70746e-05
1.66959e-05
1.62411e-05
1.57076e-05
1.50941e-05
1.44008e-05
1.36297e-05
1.27848e-05
1.1872e-05
1.08994e-05
9.87734e-06
8.81786e-06
7.73469e-06
6.64084e-06
5.53376e-06
4.43741e-06
3.37e-06
2.2934e-06
1.25863e-06
3.11636e-07
1.81346e-07
8.04393e-07
1.66781e-06
2.6476e-06
3.67321e-06
4.67503e-06
5.66705e-06
6.58305e-06
7.44898e-06
8.26563e-06
9.03186e-06
9.74625e-06
1.04074e-05
1.1014e-05
1.15648e-05
1.20592e-05
1.24964e-05
1.28765e-05
1.31997e-05
1.34667e-05
1.36787e-05
1.38375e-05
1.39449e-05
1.40036e-05
1.40206e-05
1.40101e-05
1.39658e-05
1.38875e-05
1.37777e-05
1.36402e-05
1.34793e-05
1.32995e-05
1.31051e-05
1.29005e-05
1.26893e-05
1.24753e-05
1.22614e-05
1.20505e-05
1.18447e-05
1.1646e-05
1.14557e-05
1.12751e-05
1.11048e-05
1.09453e-05
1.0797e-05
1.06598e-05
1.05337e-05
1.04185e-05
1.03137e-05
1.02191e-05
1.01341e-05
1.00584e-05
9.99135e-06
9.93261e-06
9.88166e-06
9.83805e-06
9.80131e-06
9.77101e-06
9.74682e-06
9.72985e-06
9.71854e-06
9.71216e-06
9.71031e-06
9.71269e-06
9.71903e-06
9.72908e-06
9.74263e-06
9.75944e-06
9.7793e-06
9.802e-06
9.82734e-06
9.85513e-06
9.88518e-06
9.91733e-06
9.95141e-06
9.98726e-06
1.00248e-05
1.00638e-05
1.01043e-05
1.01461e-05
1.01892e-05
1.02335e-05
1.02791e-05
1.03258e-05
1.03737e-05
1.04228e-05
1.04731e-05
1.05247e-05
1.05776e-05
1.06318e-05
1.06874e-05
1.07444e-05
1.08029e-05
1.08629e-05
1.09244e-05
1.09874e-05
1.10519e-05
1.11178e-05
1.11853e-05
1.1254e-05
1.13241e-05
1.13954e-05
1.14678e-05
1.15412e-05
1.16154e-05
1.16904e-05
1.17658e-05
1.18417e-05
1.19179e-05
1.19942e-05
1.20705e-05
1.21467e-05
1.22227e-05
1.22983e-05
1.23735e-05
1.24482e-05
1.25224e-05
1.25961e-05
1.26692e-05
1.27417e-05
1.28138e-05
1.28853e-05
1.29564e-05
1.30272e-05
1.30976e-05
1.31678e-05
1.32378e-05
1.33077e-05
1.33777e-05
1.34477e-05
1.3518e-05
1.35885e-05
1.36593e-05
1.37306e-05
1.38024e-05
1.38749e-05
1.39481e-05
1.40221e-05
1.40971e-05
1.41733e-05
1.42506e-05
1.43294e-05
1.44098e-05
1.44919e-05
1.4576e-05
1.46623e-05
1.47511e-05
1.48426e-05
1.4937e-05
1.50347e-05
1.51358e-05
1.52408e-05
1.53497e-05
1.54629e-05
1.55806e-05
1.57028e-05
1.58297e-05
1.59613e-05
1.60974e-05
1.6238e-05
1.63826e-05
1.65307e-05
1.66815e-05
1.6834e-05
1.69871e-05
1.7139e-05
1.7288e-05
1.74315e-05
1.75669e-05
1.7691e-05
1.78e-05
1.789e-05
1.79567e-05
1.7998e-05
1.80105e-05
1.79855e-05
1.79163e-05
1.77964e-05
1.762e-05
1.73812e-05
1.70747e-05
1.6696e-05
1.62413e-05
1.57078e-05
1.50943e-05
1.4401e-05
1.36299e-05
1.2785e-05
1.18722e-05
1.08997e-05
9.87757e-06
8.8181e-06
7.73494e-06
6.6411e-06
5.53401e-06
4.43761e-06
3.37014e-06
2.29364e-06
1.2588e-06
3.11671e-07
7.18737e-07
1.75922e-05
3.43008e-05
4.68275e-05
5.6602e-05
6.47896e-05
7.18539e-05
7.81035e-05
8.36236e-05
8.84872e-05
9.27566e-05
9.64841e-05
9.97152e-05
0.00010249
0.000104845
0.000106814
0.000108429
0.000109719
0.000110712
0.000111436
0.000111915
0.000112173
0.000112229
0.000112095
0.000111754
0.000111222
0.000110578
0.000109848
0.000109054
0.000108214
0.000107346
0.000106463
0.000105579
0.000104704
0.000103847
0.000103017
0.000102218
0.000101455
0.000100733
0.000100053
9.94176e-05
9.88263e-05
9.82795e-05
9.77763e-05
9.73156e-05
9.6896e-05
9.65158e-05
9.61731e-05
9.58659e-05
9.55923e-05
9.53505e-05
9.51386e-05
9.49548e-05
9.47975e-05
9.46651e-05
9.45561e-05
9.44691e-05
9.44021e-05
9.43524e-05
9.43128e-05
9.42904e-05
9.42849e-05
9.42958e-05
9.43225e-05
9.43643e-05
9.44204e-05
9.449e-05
9.45723e-05
9.46664e-05
9.47716e-05
9.48871e-05
9.50121e-05
9.5146e-05
9.5288e-05
9.54375e-05
9.55941e-05
9.57571e-05
9.59262e-05
9.6101e-05
9.62811e-05
9.64665e-05
9.66568e-05
9.6852e-05
9.70521e-05
9.7257e-05
9.74669e-05
9.76817e-05
9.79015e-05
9.81266e-05
9.83569e-05
9.85926e-05
9.88337e-05
9.90803e-05
9.93323e-05
9.95897e-05
9.98524e-05
0.00010012
0.000100392
0.000100669
0.00010095
0.000101235
0.000101523
0.000101813
0.000102105
0.000102399
0.000102694
0.000102989
0.000103283
0.000103577
0.00010387
0.00010416
0.000104449
0.000104735
0.000105018
0.000105298
0.000105576
0.00010585
0.000106121
0.000106389
0.000106655
0.000106918
0.000107178
0.000107437
0.000107694
0.000107949
0.000108203
0.000108457
0.00010871
0.000108962
0.000109215
0.000109469
0.000109724
0.00010998
0.000110237
0.000110496
0.000110758
0.000111022
0.00011129
0.000111561
0.000111837
0.000112117
0.000112402
0.000112694
0.000112992
0.000113298
0.000113613
0.000113937
0.000114271
0.000114616
0.000114974
0.000115344
0.000115729
0.000116128
0.000116542
0.000116972
0.000117418
0.000117881
0.000118358
0.000118851
0.000119358
0.000119877
0.000120405
0.000120939
0.000121476
0.000122009
0.000122534
0.000123042
0.000123525
0.000123973
0.000124375
0.000124717
0.000124985
0.000125163
0.000125232
0.000125149
0.000124899
0.000124466
0.000123829
0.000122967
0.00012186
0.000120485
0.000118823
0.000116857
0.000114572
0.000111954
0.000108996
0.000105692
0.000102044
9.80551e-05
9.37341e-05
8.90935e-05
8.41473e-05
7.89068e-05
7.3371e-05
6.75081e-05
6.10714e-05
5.32507e-05
4.19089e-05
2.27367e-05
1.20567e-06
7.18487e-07
1.75963e-05
3.43064e-05
4.68282e-05
5.66019e-05
6.47896e-05
7.18538e-05
7.81033e-05
8.36234e-05
8.84871e-05
9.27565e-05
9.64841e-05
9.97152e-05
0.00010249
0.000104845
0.000106814
0.000108429
0.000109719
0.000110713
0.000111436
0.000111916
0.000112173
0.000112229
0.000112095
0.000111754
0.000111222
0.000110579
0.000109849
0.000109054
0.000108214
0.000107346
0.000106464
0.000105579
0.000104704
0.000103848
0.000103017
0.000102218
0.000101456
0.000100734
0.000100054
9.9418e-05
9.88268e-05
9.82799e-05
9.77767e-05
9.7316e-05
9.68964e-05
9.65162e-05
9.61734e-05
9.58662e-05
9.55927e-05
9.53509e-05
9.5139e-05
9.49552e-05
9.47979e-05
9.46655e-05
9.45565e-05
9.44695e-05
9.44025e-05
9.43528e-05
9.43132e-05
9.42907e-05
9.42851e-05
9.4296e-05
9.43227e-05
9.43645e-05
9.44207e-05
9.44903e-05
9.45726e-05
9.46667e-05
9.47719e-05
9.48874e-05
9.50124e-05
9.51463e-05
9.52883e-05
9.54379e-05
9.55944e-05
9.57574e-05
9.59265e-05
9.61013e-05
9.62815e-05
9.64668e-05
9.66571e-05
9.68523e-05
9.70524e-05
9.72573e-05
9.74672e-05
9.7682e-05
9.79018e-05
9.81269e-05
9.83572e-05
9.85929e-05
9.8834e-05
9.90806e-05
9.93327e-05
9.959e-05
9.98527e-05
0.00010012
0.000100393
0.00010067
0.000100951
0.000101235
0.000101523
0.000101813
0.000102106
0.000102399
0.000102694
0.000102989
0.000103284
0.000103577
0.00010387
0.00010416
0.000104449
0.000104735
0.000105018
0.000105299
0.000105576
0.00010585
0.000106121
0.00010639
0.000106655
0.000106918
0.000107179
0.000107437
0.000107694
0.000107949
0.000108203
0.000108457
0.00010871
0.000108963
0.000109216
0.000109469
0.000109724
0.00010998
0.000110237
0.000110496
0.000110758
0.000111023
0.00011129
0.000111561
0.000111837
0.000112117
0.000112403
0.000112694
0.000112993
0.000113299
0.000113613
0.000113937
0.000114271
0.000114616
0.000114974
0.000115344
0.000115729
0.000116128
0.000116542
0.000116972
0.000117418
0.000117881
0.000118359
0.000118852
0.000119358
0.000119877
0.000120405
0.000120939
0.000121476
0.00012201
0.000122534
0.000123042
0.000123525
0.000123973
0.000124375
0.000124717
0.000124985
0.000125163
0.000125232
0.000125149
0.000124899
0.000124466
0.000123829
0.000122968
0.00012186
0.000120485
0.000118824
0.000116858
0.000114572
0.000111954
0.000108996
0.000105693
0.000102045
9.80558e-05
9.37349e-05
8.90944e-05
8.41484e-05
7.8908e-05
7.33724e-05
6.75095e-05
6.10728e-05
5.32518e-05
4.19096e-05
2.27372e-05
1.20569e-06
1.37087e-06
3.3145e-05
6.78196e-05
9.35197e-05
0.000113908
0.000130852
0.000145259
0.000157656
0.000168344
0.000177531
0.000185381
0.000192029
0.000197594
0.000202183
0.000205896
0.000208826
0.000211057
0.000212672
0.000213743
0.00021434
0.000214526
0.000214355
0.000213876
0.000213123
0.000212115
0.000210857
0.00020946
0.000207966
0.000206412
0.000204829
0.000203243
0.000201678
0.00020015
0.000198674
0.000197262
0.000195924
0.000194664
0.000193487
0.000192396
0.00019139
0.000190469
0.000189631
0.000188872
0.000188189
0.000187577
0.000187033
0.000186551
0.000186127
0.000185756
0.000185435
0.000185159
0.000184924
0.000184728
0.000184567
0.000184439
0.000184341
0.000184271
0.000184225
0.000184201
0.000184192
0.000184203
0.000184234
0.000184286
0.000184356
0.000184446
0.000184554
0.00018468
0.000184822
0.00018498
0.000185153
0.00018534
0.000185541
0.000185753
0.000185977
0.000186212
0.000186457
0.000186712
0.000186977
0.00018725
0.000187532
0.000187822
0.000188121
0.000188428
0.000188743
0.000189067
0.000189399
0.000189739
0.000190089
0.000190447
0.000190814
0.00019119
0.000191575
0.000191968
0.00019237
0.00019278
0.000193198
0.000193624
0.000194055
0.000194493
0.000194936
0.000195383
0.000195833
0.000196285
0.000196739
0.000197193
0.000197646
0.000198098
0.000198547
0.000198993
0.000199435
0.000199873
0.000200306
0.000200734
0.000201156
0.000201573
0.000201984
0.00020239
0.000202791
0.000203187
0.00020358
0.000203968
0.000204353
0.000204736
0.000205116
0.000205495
0.000205873
0.00020625
0.000206628
0.000207007
0.000207387
0.000207769
0.000208154
0.000208541
0.000208932
0.000209327
0.000209726
0.000210131
0.000210542
0.00021096
0.000211386
0.000211821
0.000212265
0.000212721
0.000213188
0.00021367
0.000214167
0.00021468
0.000215212
0.000215764
0.000216337
0.000216933
0.000217554
0.0002182
0.000218873
0.000219573
0.000220301
0.000221057
0.000221841
0.00022265
0.000223483
0.000224336
0.000225206
0.000226087
0.000226973
0.000227854
0.000228721
0.000229562
0.000230363
0.000231107
0.000231777
0.000232351
0.000232806
0.000233117
0.000233247
0.000233151
0.0002328
0.000232166
0.000231215
0.000229916
0.000228236
0.000226141
0.0002236
0.000220582
0.000217058
0.000213003
0.000208393
0.000203204
0.000197417
0.000191012
0.000183966
0.00017625
0.000167819
0.000158589
0.000148395
0.000136881
0.00012324
0.000105702
8.06724e-05
4.21508e-05
2.4832e-06
1.37101e-06
3.31459e-05
6.78207e-05
9.35197e-05
0.000113907
0.000130852
0.000145258
0.000157655
0.000168343
0.000177531
0.000185381
0.000192029
0.000197593
0.000202183
0.000205896
0.000208826
0.000211057
0.000212672
0.000213743
0.000214341
0.000214526
0.000214356
0.000213876
0.000213123
0.000212115
0.000210858
0.000209461
0.000207967
0.000206413
0.00020483
0.000203244
0.000201678
0.00020015
0.000198675
0.000197263
0.000195924
0.000194665
0.000193488
0.000192397
0.000191391
0.00019047
0.000189631
0.000188873
0.000188189
0.000187578
0.000187033
0.000186552
0.000186127
0.000185757
0.000185435
0.000185159
0.000184925
0.000184729
0.000184568
0.00018444
0.000184342
0.000184271
0.000184226
0.000184201
0.000184192
0.000184203
0.000184235
0.000184286
0.000184357
0.000184447
0.000184555
0.000184681
0.000184823
0.000184981
0.000185154
0.000185341
0.000185541
0.000185754
0.000185978
0.000186213
0.000186458
0.000186713
0.000186977
0.000187251
0.000187532
0.000187823
0.000188121
0.000188428
0.000188744
0.000189067
0.000189399
0.00018974
0.000190089
0.000190447
0.000190814
0.00019119
0.000191575
0.000191969
0.000192371
0.000192781
0.000193199
0.000193624
0.000194056
0.000194494
0.000194936
0.000195383
0.000195833
0.000196286
0.000196739
0.000197193
0.000197647
0.000198098
0.000198548
0.000198994
0.000199436
0.000199874
0.000200306
0.000200734
0.000201156
0.000201573
0.000201984
0.00020239
0.000202791
0.000203188
0.00020358
0.000203968
0.000204353
0.000204736
0.000205116
0.000205495
0.000205873
0.000206251
0.000206629
0.000207007
0.000207388
0.00020777
0.000208154
0.000208541
0.000208932
0.000209327
0.000209727
0.000210132
0.000210543
0.000210961
0.000211386
0.000211821
0.000212265
0.000212721
0.000213189
0.00021367
0.000214167
0.000214681
0.000215212
0.000215764
0.000216337
0.000216933
0.000217554
0.0002182
0.000218873
0.000219573
0.000220302
0.000221058
0.000221841
0.00022265
0.000223483
0.000224336
0.000225206
0.000226087
0.000226973
0.000227854
0.000228721
0.000229562
0.000230363
0.000231108
0.000231777
0.000232351
0.000232807
0.000233117
0.000233247
0.000233151
0.000232801
0.000232166
0.000231216
0.000229917
0.000228236
0.000226141
0.0002236
0.000220582
0.000217059
0.000213004
0.000208393
0.000203205
0.000197418
0.000191013
0.000183967
0.000176251
0.00016782
0.00015859
0.000148395
0.000136882
0.00012324
0.000105702
8.06728e-05
4.21512e-05
2.48317e-06
2.03752e-06
4.27443e-05
8.9403e-05
0.000125877
0.000155315
0.000179864
0.000200715
0.000218577
0.0002339
0.000247
0.000258118
0.000267457
0.000275194
0.000281488
0.000286491
0.000290344
0.000293181
0.000295126
0.000296298
0.000296804
0.000296742
0.0002962
0.000295254
0.000293965
0.000292381
0.000290535
0.000288525
0.000286409
0.000284235
0.000282044
0.000279869
0.00027774
0.000275677
0.0002737
0.000271821
0.000270052
0.000268398
0.000266864
0.000265452
0.000264161
0.000262988
0.000261929
0.00026098
0.000260134
0.000259385
0.000258726
0.00025815
0.000257651
0.000257222
0.000256857
0.000256549
0.000256294
0.000256087
0.000255923
0.000255798
0.00025571
0.000255654
0.000255627
0.000255625
0.000255644
0.000255686
0.000255751
0.000255838
0.000255947
0.000256077
0.000256227
0.000256397
0.000256586
0.000256793
0.000257017
0.000257258
0.000257514
0.000257786
0.000258071
0.00025837
0.000258681
0.000259005
0.000259341
0.000259688
0.000260046
0.000260416
0.000260797
0.000261189
0.000261592
0.000262006
0.000262432
0.000262869
0.000263318
0.000263779
0.000264251
0.000264735
0.00026523
0.000265736
0.000266253
0.00026678
0.000267316
0.000267861
0.000268413
0.000268972
0.000269536
0.000270105
0.000270676
0.000271249
0.000271823
0.000272395
0.000272965
0.000273532
0.000274095
0.000274652
0.000275204
0.000275749
0.000276287
0.000276817
0.00027734
0.000277856
0.000278364
0.000278866
0.000279361
0.00027985
0.000280334
0.000280814
0.00028129
0.000281763
0.000282234
0.000282703
0.000283172
0.000283642
0.000284112
0.000284584
0.000285058
0.000285536
0.000286018
0.000286504
0.000286995
0.000287493
0.000287997
0.00028851
0.000289031
0.000289562
0.000290104
0.000290659
0.000291228
0.000291812
0.000292414
0.000293035
0.000293678
0.000294343
0.000295034
0.000295753
0.000296502
0.000297283
0.000298097
0.000298947
0.000299835
0.00030076
0.000301725
0.000302728
0.00030377
0.000304848
0.000305961
0.000307103
0.000308271
0.000309456
0.000310651
0.000311845
0.000313024
0.000314174
0.000315277
0.000316312
0.000317255
0.000318081
0.00031876
0.000319261
0.000319534
0.00031954
0.00031924
0.000318594
0.000317562
0.000316103
0.000314174
0.000311731
0.000308734
0.000305138
0.000300901
0.00029598
0.00029033
0.000283905
0.000276654
0.000268518
0.000259427
0.000249285
0.000237957
0.000225228
0.000210727
0.000193782
0.000173119
0.000146342
0.000109196
5.59932e-05
3.94651e-06
2.03773e-06
4.27457e-05
8.94033e-05
0.000125877
0.000155315
0.000179863
0.000200714
0.000218576
0.000233899
0.000246999
0.000258118
0.000267457
0.000275193
0.000281488
0.000286491
0.000290345
0.000293181
0.000295127
0.000296299
0.000296805
0.000296743
0.000296201
0.000295255
0.000293966
0.000292383
0.000290537
0.000288526
0.00028641
0.000284236
0.000282045
0.000279871
0.000277741
0.000275679
0.000273701
0.000271823
0.000270053
0.0002684
0.000266866
0.000265454
0.000264162
0.000262989
0.00026193
0.000260981
0.000260135
0.000259386
0.000258727
0.000258152
0.000257653
0.000257224
0.000256858
0.000256551
0.000256295
0.000256088
0.000255924
0.0002558
0.000255711
0.000255655
0.000255628
0.000255626
0.000255645
0.000255688
0.000255753
0.00025584
0.000255948
0.000256078
0.000256228
0.000256398
0.000256587
0.000256794
0.000257019
0.000257259
0.000257516
0.000257787
0.000258072
0.000258371
0.000258682
0.000259006
0.000259342
0.000259689
0.000260048
0.000260417
0.000260798
0.00026119
0.000261593
0.000262008
0.000262433
0.000262871
0.00026332
0.00026378
0.000264252
0.000264736
0.000265231
0.000265737
0.000266254
0.000266781
0.000267317
0.000267862
0.000268414
0.000268973
0.000269537
0.000270106
0.000270677
0.00027125
0.000271824
0.000272396
0.000272966
0.000273533
0.000274096
0.000274654
0.000275205
0.00027575
0.000276288
0.000276818
0.000277341
0.000277857
0.000278365
0.000278867
0.000279362
0.000279851
0.000280335
0.000280815
0.000281291
0.000281764
0.000282235
0.000282704
0.000283173
0.000283643
0.000284113
0.000284585
0.000285059
0.000285537
0.000286019
0.000286505
0.000286996
0.000287494
0.000287998
0.000288511
0.000289032
0.000289563
0.000290105
0.00029066
0.000291229
0.000291813
0.000292415
0.000293036
0.000293678
0.000294344
0.000295035
0.000295754
0.000296503
0.000297283
0.000298098
0.000298948
0.000299836
0.000300761
0.000301726
0.000302729
0.000303771
0.000304849
0.000305962
0.000307104
0.000308271
0.000309457
0.000310652
0.000311845
0.000313025
0.000314175
0.000315277
0.000316312
0.000317256
0.000318082
0.000318761
0.000319262
0.000319535
0.000319541
0.000319241
0.000318595
0.000317563
0.000316104
0.000314175
0.000311732
0.000308735
0.000305139
0.000300902
0.000295981
0.000290331
0.000283906
0.000276655
0.000268519
0.000259428
0.000249286
0.000237959
0.000225229
0.000210728
0.000193783
0.000173119
0.000146342
0.000109196
5.59933e-05
3.94646e-06
2.71202e-06
4.93489e-05
0.000104435
0.000149092
0.000185648
0.000216303
0.000242407
0.000264793
0.00028401
0.000300444
0.000314393
0.000326102
0.000335788
0.000343647
0.000349866
0.00035462
0.000358081
0.000360409
0.000361756
0.000362264
0.000362061
0.000361265
0.000359978
0.000358286
0.000356264
0.000353969
0.000351477
0.000348874
0.000346215
0.000343547
0.000340907
0.00033833
0.000335839
0.000333456
0.000331197
0.000329071
0.000327088
0.00032525
0.00032356
0.000322017
0.000320616
0.000319354
0.000318224
0.000317219
0.000316332
0.000315554
0.000314877
0.000314292
0.000313791
0.000313367
0.000313013
0.000312722
0.000312488
0.000312305
0.000312169
0.000312075
0.000312018
0.000311996
0.000312003
0.000312037
0.000312097
0.000312182
0.000312291
0.000312425
0.000312582
0.000312761
0.000312963
0.000313185
0.000313427
0.000313689
0.000313969
0.000314267
0.000314582
0.000314914
0.00031526
0.000315622
0.000315999
0.00031639
0.000316794
0.000317212
0.000317644
0.00031809
0.000318548
0.000319021
0.000319507
0.000320006
0.00032052
0.000321047
0.000321588
0.000322142
0.00032271
0.000323291
0.000323885
0.000324491
0.000325107
0.000325735
0.000326371
0.000327015
0.000327667
0.000328323
0.000328984
0.000329647
0.000330311
0.000330974
0.000331636
0.000332293
0.000332947
0.000333594
0.000334235
0.000334869
0.000335494
0.00033611
0.000336718
0.000337317
0.000337907
0.000338489
0.000339063
0.00033963
0.00034019
0.000340744
0.000341293
0.000341839
0.000342381
0.000342921
0.000343461
0.000344
0.00034454
0.000345081
0.000345625
0.000346173
0.000346725
0.000347282
0.000347845
0.000348414
0.000348992
0.000349579
0.000350175
0.000350783
0.000351403
0.000352038
0.000352688
0.000353356
0.000354044
0.000354753
0.000355487
0.000356247
0.000357037
0.000357858
0.000358714
0.000359607
0.00036054
0.000361516
0.000362536
0.000363603
0.000364718
0.000365882
0.000367095
0.000368357
0.000369666
0.00037102
0.000372414
0.000373842
0.000375297
0.000376768
0.000378245
0.000379711
0.00038115
0.000382541
0.000383861
0.000385083
0.000386177
0.00038711
0.000387844
0.00038833
0.000388525
0.000388386
0.000387867
0.00038692
0.000385498
0.000383551
0.000381027
0.000377873
0.000374034
0.000369451
0.000364064
0.000357805
0.000350598
0.000342358
0.000332982
0.000322342
0.000310273
0.000296542
0.000280805
0.000262509
0.000240731
0.000213864
0.000179121
0.000131924
6.70476e-05
5.39987e-06
2.7122e-06
4.93496e-05
0.000104435
0.000149092
0.000185647
0.000216302
0.000242406
0.000264792
0.000284009
0.000300443
0.000314392
0.000326102
0.000335788
0.000343647
0.000349866
0.000354621
0.000358082
0.00036041
0.000361757
0.000362265
0.000362063
0.000361267
0.000359979
0.000358288
0.000356265
0.000353971
0.000351479
0.000348876
0.000346217
0.000343549
0.00034091
0.000338332
0.000335841
0.000333459
0.000331199
0.000329073
0.00032709
0.000325253
0.000323562
0.000322019
0.000320618
0.000319356
0.000318226
0.000317222
0.000316334
0.000315556
0.000314879
0.000314294
0.000313793
0.000313369
0.000313015
0.000312724
0.00031249
0.000312307
0.000312171
0.000312077
0.00031202
0.000311998
0.000312005
0.000312039
0.000312099
0.000312184
0.000312293
0.000312427
0.000312584
0.000312763
0.000312965
0.000313187
0.000313429
0.000313691
0.000313971
0.000314269
0.000314584
0.000314915
0.000315262
0.000315624
0.000316001
0.000316391
0.000316796
0.000317214
0.000317646
0.000318091
0.00031855
0.000319022
0.000319508
0.000320008
0.000320521
0.000321049
0.000321589
0.000322144
0.000322712
0.000323293
0.000323887
0.000324492
0.000325109
0.000325736
0.000326373
0.000327017
0.000327668
0.000328325
0.000328986
0.000329649
0.000330312
0.000330976
0.000331637
0.000332295
0.000332948
0.000333596
0.000334237
0.00033487
0.000335495
0.000336112
0.00033672
0.000337319
0.000337909
0.000338491
0.000339065
0.000339631
0.000340191
0.000340746
0.000341295
0.00034184
0.000342383
0.000342923
0.000343462
0.000344001
0.000344541
0.000345083
0.000345627
0.000346174
0.000346726
0.000347283
0.000347846
0.000348416
0.000348994
0.00034958
0.000350177
0.000350784
0.000351405
0.000352039
0.00035269
0.000353358
0.000354045
0.000354755
0.000355488
0.000356249
0.000357038
0.000357859
0.000358715
0.000359609
0.000360542
0.000361517
0.000362537
0.000363604
0.000364719
0.000365883
0.000367096
0.000368358
0.000369667
0.000371021
0.000372415
0.000373843
0.000375298
0.000376769
0.000378246
0.000379712
0.000381151
0.000382542
0.000383862
0.000385084
0.000386178
0.000387111
0.000387845
0.000388331
0.000388526
0.000388387
0.000387868
0.000386922
0.0003855
0.000383553
0.000381028
0.000377874
0.000374035
0.000369453
0.000364066
0.000357807
0.0003506
0.00034236
0.000332984
0.000322344
0.000310275
0.000296544
0.000280806
0.000262511
0.000240732
0.000213865
0.000179122
0.000131924
6.70476e-05
5.39977e-06
3.38763e-06
5.47164e-05
0.000116095
0.000166963
0.000209044
0.000244511
0.000274797
0.000300821
0.0003232
0.000342369
0.000358665
0.000372364
0.000383705
0.000392913
0.000400196
0.000405757
0.000409791
0.000412486
0.000414022
0.000414567
0.000414278
0.000413297
0.000411749
0.000409744
0.000407375
0.000404721
0.000401851
0.000398864
0.000395823
0.000392778
0.000389773
0.000386843
0.000384014
0.00038131
0.000378746
0.000376334
0.000374081
0.000371993
0.00037007
0.000368311
0.000366712
0.000365269
0.000363974
0.000362821
0.0003618
0.000360902
0.00036012
0.000359442
0.000358862
0.000358369
0.000357956
0.000357615
0.00035734
0.000357124
0.000356961
0.000356846
0.000356775
0.000356743
0.000356745
0.000356779
0.000356842
0.000356934
0.000357053
0.000357198
0.000357369
0.000357565
0.000357785
0.000358028
0.000358294
0.000358581
0.000358888
0.000359215
0.000359562
0.000359927
0.000360309
0.000360709
0.000361126
0.000361559
0.000362008
0.000362473
0.000362953
0.000363449
0.000363961
0.000364488
0.000365031
0.000365589
0.000366163
0.000366752
0.000367357
0.000367976
0.00036861
0.000369259
0.000369921
0.000370595
0.000371282
0.000371979
0.000372686
0.0003734
0.000374122
0.000374848
0.000375578
0.00037631
0.000377042
0.000377772
0.0003785
0.000379223
0.00037994
0.000380651
0.000381353
0.000382047
0.000382732
0.000383408
0.000384073
0.000384729
0.000385375
0.000386013
0.000386641
0.000387262
0.000387876
0.000388484
0.000389087
0.000389686
0.000390282
0.000390876
0.000391469
0.000392063
0.000392658
0.000393255
0.000393855
0.00039446
0.00039507
0.000395686
0.000396309
0.000396941
0.000397581
0.000398233
0.000398896
0.000399573
0.000400265
0.000400973
0.0004017
0.000402449
0.00040322
0.000404017
0.000404843
0.0004057
0.000406592
0.000407521
0.000408491
0.000409506
0.000410567
0.000411678
0.000412843
0.000414062
0.00041534
0.000416675
0.000418071
0.000419525
0.000421037
0.000422604
0.000424222
0.000425884
0.000427584
0.000429309
0.000431048
0.000432785
0.000434501
0.000436174
0.00043778
0.000439289
0.000440669
0.000441884
0.000442894
0.000443651
0.000444108
0.00044422
0.000443937
0.000443207
0.000441977
0.000440189
0.000437786
0.000434703
0.000430872
0.00042622
0.000420664
0.000414112
0.000406458
0.000397578
0.000387323
0.000375508
0.000361894
0.000346161
0.000327844
0.000306242
0.000280234
0.000247978
0.000206428
0.00015083
7.63824e-05
6.84562e-06
3.38775e-06
5.47168e-05
0.000116095
0.000166962
0.000209043
0.000244509
0.000274795
0.00030082
0.000323199
0.000342368
0.000358664
0.000372363
0.000383705
0.000392913
0.000400196
0.000405757
0.000409791
0.000412487
0.000414023
0.000414568
0.00041428
0.000413299
0.000411751
0.000409746
0.000407377
0.000404723
0.000401853
0.000398867
0.000395825
0.000392781
0.000389776
0.000386845
0.000384017
0.000381313
0.000378749
0.000376336
0.000374084
0.000371996
0.000370072
0.000368313
0.000366715
0.000365271
0.000363977
0.000362823
0.000361802
0.000360905
0.000360122
0.000359445
0.000358864
0.000358371
0.000357958
0.000357617
0.000357342
0.000357126
0.000356963
0.000356849
0.000356777
0.000356745
0.000356748
0.000356782
0.000356844
0.000356936
0.000357055
0.0003572
0.000357372
0.000357568
0.000357788
0.000358031
0.000358296
0.000358583
0.00035889
0.000359218
0.000359564
0.000359929
0.000360312
0.000360711
0.000361128
0.000361561
0.00036201
0.000362475
0.000362955
0.000363451
0.000363963
0.00036449
0.000365033
0.000365591
0.000366165
0.000366754
0.000367359
0.000367978
0.000368613
0.000369261
0.000369923
0.000370598
0.000371284
0.000371981
0.000372688
0.000373402
0.000374124
0.00037485
0.00037558
0.000376312
0.000377044
0.000377774
0.000378501
0.000379225
0.000379942
0.000380652
0.000381355
0.000382049
0.000382734
0.000383409
0.000384075
0.000384731
0.000385377
0.000386014
0.000386643
0.000387264
0.000387878
0.000388486
0.000389089
0.000389688
0.000390284
0.000390878
0.000391471
0.000392065
0.000392659
0.000393257
0.000393857
0.000394462
0.000395071
0.000395688
0.000396311
0.000396942
0.000397583
0.000398235
0.000398898
0.000399575
0.000400266
0.000400975
0.000401702
0.00040245
0.000403222
0.000404019
0.000404845
0.000405702
0.000406594
0.000407523
0.000408493
0.000409507
0.000410568
0.00041168
0.000412844
0.000414064
0.000415341
0.000416677
0.000418072
0.000419526
0.000421038
0.000422606
0.000424223
0.000425886
0.000427585
0.00042931
0.000431049
0.000432786
0.000434502
0.000436176
0.000437781
0.00043929
0.000440671
0.000441886
0.000442896
0.000443652
0.00044411
0.000444222
0.000443938
0.000443209
0.000441978
0.000440191
0.000437788
0.000434705
0.000430874
0.000426222
0.000420666
0.000414114
0.00040646
0.000397581
0.000387325
0.00037551
0.000361896
0.000346163
0.000327846
0.000306243
0.000280235
0.000247979
0.000206428
0.00015083
7.63824e-05
6.84548e-06
4.0795e-06
5.95076e-05
0.000125884
0.000181581
0.000227975
0.000267216
0.000300794
0.000329692
0.000354574
0.000375918
0.000394088
0.000409381
0.000422058
0.000432358
0.000440508
0.000446727
0.000451229
0.000454222
0.000455907
0.000456475
0.000456104
0.000454957
0.000453181
0.000450904
0.000448238
0.000445274
0.000442091
0.000438788
0.000435433
0.000432084
0.000428784
0.000425572
0.000422475
0.000419516
0.00041671
0.000414069
0.000411601
0.00040931
0.000407195
0.000405257
0.00040349
0.00040189
0.00040045
0.000399162
0.000398017
0.000397007
0.000396121
0.00039535
0.000394685
0.000394117
0.000393637
0.000393238
0.000392911
0.000392651
0.00039245
0.000392303
0.000392205
0.00039215
0.000392136
0.000392157
0.000392211
0.000392297
0.000392413
0.000392558