/*--------------------------------*- C++ -*----------------------------------*\
  =========                 |
  \\      /  F ield         | OpenFOAM: The Open Source CFD Toolbox
   \\    /   O peration     | Website:  https://openfoam.org
    \\  /    A nd           | Version:  8
     \\/     M anipulation  |
\*---------------------------------------------------------------------------*/
FoamFile
{
    version     2.0;
    format      ascii;
    class       volScalarField;
    location    "700";
    object      epsilon;
}
// * * * * * * * * * * * * * * * * * * * * * * * * * * * * * * * * * * * * * //

dimensions      [0 2 -3 0 0 0 0];

internalField   nonuniform List<scalar> 
46000
(
3.33528
13.3031
27.49
43.5297
60.2718
76.6009
92.7372
107.631
121.705
134.976
147.428
159.04
169.789
179.655
188.621
196.672
203.801
210.004
215.287
219.661
223.146
225.767
227.556
228.554
228.878
228.754
228.078
226.847
225.103
222.908
220.33
217.442
214.317
211.021
207.618
204.166
200.715
197.309
193.986
190.775
187.701
184.78
182.027
179.45
177.051
174.833
172.795
170.931
169.238
167.708
166.335
165.112
164.03
163.083
162.261
161.559
160.968
160.482
160.096
159.827
159.649
159.551
159.526
159.57
159.679
159.847
160.073
160.351
160.679
161.053
161.47
161.926
162.42
162.947
163.505
164.092
164.706
165.344
166.006
166.69
167.394
168.118
168.861
169.623
170.405
171.206
172.027
172.868
173.729
174.613
175.519
176.448
177.401
178.378
179.38
180.406
181.457
182.531
183.629
184.75
185.891
187.052
188.231
189.426
190.634
191.854
193.083
194.319
195.559
196.801
198.043
199.283
200.518
201.749
202.972
204.188
205.395
206.593
207.782
208.962
210.133
211.297
212.453
213.603
214.748
215.888
217.027
218.164
219.301
220.439
221.58
222.726
223.877
225.036
226.203
227.38
228.57
229.773
230.991
232.227
233.484
234.763
236.067
237.401
238.766
240.167
241.608
243.092
244.625
246.209
247.85
249.553
251.32
253.156
255.064
257.047
259.105
261.24
263.449
265.73
268.076
270.479
272.927
275.404
277.89
280.359
282.78
285.115
287.319
289.341
291.121
292.592
293.688
294.374
294.592
294.205
293.099
291.173
288.328
284.47
279.513
273.38
266.008
257.353
247.392
236.126
223.587
209.836
194.968
179.111
162.429
145.117
127.395
109.471
91.3039
73.2675
55.6866
37.9219
20.8369
5.72227
3.33516
13.3049
27.4941
43.5353
60.2767
76.6054
92.7418
107.636
121.71
134.982
147.433
159.045
169.794
179.66
188.626
196.677
203.805
210.008
215.291
219.665
223.149
225.77
227.559
228.557
228.881
228.757
228.081
226.85
225.106
222.91
220.332
217.445
214.319
211.023
207.62
204.168
200.717
197.311
193.988
190.777
187.703
184.783
182.03
179.452
177.054
174.836
172.797
170.934
169.24
167.711
166.338
165.115
164.033
163.085
162.264
161.562
160.971
160.485
160.099
159.829
159.651
159.553
159.529
159.573
159.681
159.85
160.076
160.354
160.682
161.056
161.472
161.929
162.422
162.949
163.508
164.095
164.709
165.347
166.009
166.692
167.396
168.12
168.864
169.626
170.408
171.208
172.029
172.87
173.732
174.616
175.522
176.451
177.404
178.381
179.382
180.409
181.459
182.534
183.632
184.752
185.894
187.055
188.234
189.428
190.637
191.857
193.086
194.321
195.561
196.803
198.045
199.285
200.521
201.751
202.975
204.19
205.397
206.595
207.784
208.964
210.136
211.299
212.455
213.605
214.75
215.891
217.029
218.166
219.303
220.441
221.583
222.728
223.88
225.038
226.205
227.383
228.572
229.775
230.993
232.23
233.486
234.765
236.07
237.403
238.768
240.169
241.61
243.094
244.627
246.211
247.852
249.555
251.322
253.158
255.066
257.049
259.107
261.242
263.451
265.731
268.078
270.481
272.929
275.406
277.892
280.361
282.782
285.117
287.321
289.343
291.123
292.594
293.69
294.376
294.594
294.207
293.101
291.175
288.33
284.472
279.515
273.382
266.01
257.355
247.394
236.128
223.589
209.837
194.969
179.112
162.431
145.118
127.395
109.471
91.3036
73.267
55.6859
37.9207
20.8358
5.72185
14.0552
12.3215
17.771
24.3491
31.4217
38.5501
45.6956
52.7176
59.6124
66.3654
72.9538
79.3502
85.5231
91.4381
97.0583
102.346
107.264
111.776
115.849
119.456
122.573
125.185
127.285
128.877
129.999
130.71
130.989
130.843
130.298
129.387
128.153
126.643
124.905
122.988
120.938
118.8
116.611
114.41
112.226
110.086
108.011
106.02
104.124
102.335
100.657
99.0953
97.6509
96.3235
95.111
94.0103
93.0178
92.1287
91.3384
90.6417
90.0334
89.5085
89.0619
88.6889
88.3865
88.1558
87.9881
87.8771
87.8179
87.8066
87.8397
87.9142
88.0271
88.1758
88.3578
88.5704
88.8116
89.0789
89.3704
89.6841
90.0181
90.3707
90.7404
91.1258
91.5255
91.9387
92.3643
92.8017
93.2503
93.7099
94.1802
94.6612
95.153
95.6559
96.1702
96.6964
97.2349
97.7862
98.3508
98.9291
99.5217
100.129
100.75
101.387
102.038
102.704
103.383
104.076
104.782
105.5
106.228
106.966
107.712
108.465
109.224
109.988
110.754
111.521
112.289
113.057
113.822
114.584
115.343
116.098
116.848
117.593
118.334
119.069
119.8
120.527
121.25
121.969
122.686
123.401
124.115
124.829
125.543
126.259
126.977
127.698
128.423
129.154
129.89
130.635
131.387
132.149
132.923
133.709
134.509
135.325
136.16
137.014
137.891
138.792
139.72
140.678
141.668
142.692
143.754
144.855
145.997
147.183
148.412
149.687
151.005
152.366
153.767
155.203
156.668
158.153
159.646
161.134
162.599
164.019
165.37
166.62
167.737
168.684
169.42
169.915
170.129
169.999
169.46
168.453
166.92
164.806
162.061
158.642
154.514
149.655
144.053
137.714
130.656
122.916
114.547
105.616
96.2076
86.416
76.3475
66.1137
55.8233
45.6759
35.9376
27.0045
20.3466
23.7684
14.0554
12.3189
17.7698
24.35
31.4233
38.5522
45.6982
52.7204
59.6153
66.3683
72.9567
79.353
85.5259
91.4407
97.0608
102.348
107.266
111.778
115.851
119.458
122.575
125.187
127.286
128.878
130
130.711
130.989
130.844
130.299
129.388
128.154
126.644
124.906
122.989
120.939
118.8
116.612
114.411
112.227
110.087
108.012
106.021
104.125
102.336
100.658
99.0964
97.6521
96.3247
95.1122
94.0116
93.019
92.13
91.3396
90.6429
90.0346
89.5097
89.063
88.6901
88.3877
88.1571
87.9894
87.8784
87.8192
87.8079
87.8411
87.9155
88.0285
88.1771
88.359
88.5717
88.8128
89.0802
89.3717
89.6853
90.0193
90.3719
90.7416
91.127
91.5267
91.9399
92.3655
92.8028
93.2515
93.7111
94.1813
94.6623
95.1542
95.6571
96.1714
96.6975
97.236
97.7873
98.3519
98.9303
99.5228
100.13
100.752
101.388
102.039
102.705
103.384
104.077
104.783
105.501
106.229
106.967
107.713
108.466
109.225
109.989
110.755
111.523
112.291
113.058
113.823
114.585
115.344
116.099
116.849
117.595
118.335
119.071
119.802
120.528
121.251
121.971
122.688
123.403
124.116
124.83
125.544
126.26
126.978
127.699
128.424
129.155
129.892
130.636
131.388
132.15
132.924
133.71
134.51
135.327
136.161
137.015
137.892
138.793
139.721
140.679
141.668
142.693
143.755
144.856
145.998
147.184
148.413
149.688
151.006
152.367
153.768
155.204
156.669
158.153
159.647
161.135
162.6
164.02
165.371
166.621
167.738
168.685
169.421
169.915
170.13
170
169.461
168.454
166.921
164.807
162.062
158.642
154.515
149.656
144.054
137.714
130.656
122.916
114.547
105.616
96.2076
86.4157
76.347
66.113
55.8226
45.6752
35.9369
27.0039
20.3458
23.7677
26.1901
17.008
20.0157
24.6248
29.8209
35.2843
40.8811
46.5197
52.1511
57.742
63.2648
68.6933
74.0001
79.156
84.1295
88.8867
93.3923
97.6104
101.506
105.045
108.199
110.942
113.255
115.131
116.574
117.601
118.214
118.423
118.246
117.711
116.852
115.708
114.323
112.737
110.995
109.138
107.203
105.226
103.239
101.269
99.34
97.4702
95.6755
93.9677
92.3555
90.8447
89.4388
88.1392
86.9457
85.8567
84.8696
83.9811
83.1871
82.4835
81.8657
81.3291
80.8692
80.4817
80.1628
79.9097
79.7178
79.5819
79.4978
79.4616
79.4698
79.5192
79.607
79.7302
79.8863
80.0728
80.2874
80.5277
80.7917
81.0774
81.3829
81.7064
82.0465
82.4016
82.7705
83.1521
83.5453
83.9495
84.3641
84.7885
85.2225
85.666
86.119
86.5817
87.0543
87.5372
88.0308
88.5355
89.0519
89.5803
90.1213
90.6752
91.2422
91.8226
92.4164
93.0235
93.6437
94.2766
94.9217
95.5783
96.2456
96.9226
97.6083
98.3015
99.0011
99.7058
100.414
101.126
101.838
102.551
103.264
103.974
104.682
105.387
106.089
106.786
107.479
108.168
108.853
109.533
110.21
110.883
111.554
112.222
112.888
113.554
114.219
114.885
115.553
116.222
116.895
117.571
118.253
118.941
119.635
120.338
121.05
121.773
122.508
123.257
124.021
124.802
125.603
126.424
127.269
128.14
129.038
129.966
130.926
131.921
132.951
134.018
135.124
136.269
137.451
138.671
139.925
141.209
142.517
143.842
145.175
146.501
147.807
149.072
150.275
151.389
152.385
153.23
153.89
154.328
154.505
154.369
153.871
152.96
151.588
149.708
147.28
144.269
140.647
136.399
131.517
126.009
119.893
113.201
105.977
98.2757
90.1654
81.7259
73.0535
64.2695
55.5388
47.1143
39.387
33.0591
30.1779
48.388
26.1913
17.0078
20.0162
24.6259
29.8222
35.2859
40.8829
46.5215
52.1529
57.7439
63.2667
68.6951
74.0018
79.1577
84.1311
88.8882
93.3937
97.6118
101.507
105.046
108.2
110.942
113.256
115.132
116.574
117.601
118.215
118.423
118.246
117.711
116.852
115.709
114.323
112.738
110.996
109.138
107.203
105.227
103.24
101.27
99.3404
97.4706
95.6759
93.9682
92.356
90.8452
89.4394
88.1398
86.9463
85.8574
84.8703
83.9817
83.1878
82.4842
81.8663
81.3298
80.8699
80.4823
80.1635
79.9104
79.7185
79.5826
79.4985
79.4623
79.4705
79.52
79.6077
79.731
79.8871
80.0736
80.2881
80.5284
80.7924
81.0781
81.3836
81.7072
82.0472
82.4023
82.7712
83.1528
83.546
83.9502
84.3647
84.7892
85.2232
85.6667
86.1197
86.5824
87.055
87.5379
88.0314
88.5362
89.0525
89.581
90.122
90.6758
91.2429
91.8233
92.4171
93.0242
93.6444
94.2773
94.9224
95.579
96.2462
96.9232
97.6089
98.3022
99.0017
99.7064
100.415
101.126
101.839
102.552
103.264
103.975
104.683
105.388
106.089
106.787
107.48
108.169
108.853
109.534
110.211
110.884
111.554
112.223
112.889
113.555
114.22
114.886
115.553
116.223
116.895
117.572
118.254
118.941
119.636
120.339
121.051
121.774
122.509
123.257
124.021
124.803
125.603
126.425
127.27
128.14
129.038
129.966
130.927
131.921
132.951
134.019
135.125
136.269
137.452
138.671
139.925
141.209
142.518
143.843
145.175
146.502
147.807
149.072
150.275
151.389
152.386
153.231
153.89
154.329
154.505
154.37
153.872
152.961
151.588
149.709
147.281
144.269
140.648
136.399
131.518
126.009
119.893
113.201
105.977
98.276
90.1657
81.7261
73.0536
64.2695
55.5388
47.1142
39.3868
33.0587
30.1771
48.387
38.283
22.8825
24.2346
27.9202
32.4187
37.3076
42.3959
47.571
52.7629
57.9255
63.0258
68.0385
72.9414
77.7126
82.3297
86.7678
91.0005
94.9989
98.7334
102.174
105.292
108.061
110.459
112.471
114.087
115.307
116.134
116.572
116.637
116.35
115.74
114.839
113.684
112.313
110.767
109.084
107.302
105.454
103.574
101.69
99.8256
98.0029
96.2388
94.5475
92.9395
91.4228
90.0026
88.6821
87.4626
86.3439
85.3246
84.4023
83.574
82.8361
82.1845
81.6153
81.1242
80.7069
80.3596
80.0786
79.8597
79.6987
79.5915
79.5343
79.5237
79.5563
79.6291
79.7392
79.8838
80.0603
80.2662
80.4993
80.7571
81.0377
81.3391
81.6595
81.9971
82.3505
82.7183
83.0992
83.4923
83.8967
84.3117
84.7367
85.1715
85.6157
86.0694
86.5327
87.0056
87.4885
87.9818
88.4859
89.0012
89.5281
90.0671
90.6186
91.1827
91.7599
92.35
92.9531
93.5691
94.1975
94.838
95.49
96.1527
96.8252
97.5066
98.1959
98.8919
99.5935
100.299
101.009
101.72
102.432
103.144
103.855
104.564
105.271
105.974
106.674
107.37
108.062
108.75
109.434
110.114
110.791
111.465
112.136
112.806
113.475
114.143
114.811
115.48
116.151
116.824
117.501
118.183
118.87
119.564
120.265
120.975
121.695
122.427
123.171
123.931
124.707
125.501
126.316
127.153
128.015
128.903
129.82
130.768
131.749
132.764
133.815
134.903
136.027
137.189
138.385
139.614
140.871
142.152
143.448
144.749
146.045
147.318
148.551
149.722
150.807
151.777
152.599
153.24
153.662
153.826
153.685
153.196
152.312
150.99
149.189
146.873
144.012
140.584
136.576
131.983
126.812
121.08
114.812
108.045
100.825
93.2092
85.2709
77.1064
68.8513
60.7063
52.9832
46.1948
41.3707
41.9401
76.435
38.285
22.8832
24.2358
27.9215
32.4201
37.3091
42.3974
47.5726
52.7645
57.927
63.0273
68.0399
72.9427
77.7139
82.3308
86.7688
91.0013
94.9997
98.7341
102.175
105.292
108.061
110.46
112.471
114.087
115.307
116.134
116.572
116.637
116.35
115.74
114.838
113.683
112.313
110.767
109.084
107.301
105.454
103.574
101.69
99.8255
98.0028
96.2388
94.5474
92.9395
91.4228
90.0026
88.6822
87.4627
86.344
85.3247
84.4024
83.5741
82.8362
82.1847
81.6155
81.1243
80.7071
80.3598
80.0787
79.8599
79.6989
79.5917
79.5345
79.5239
79.5565
79.6293
79.7394
79.884
80.0605
80.2664
80.4994
80.7573
81.0379
81.3393
81.6596
81.9973
82.3507
82.7184
83.0994
83.4925
83.8969
84.3119
84.7369
85.1716
85.6159
86.0696
86.5328
87.0057
87.4887
87.9819
88.486
89.0013
89.5282
90.0672
90.6187
91.1829
91.76
92.3501
92.9532
93.5692
94.1976
94.8381
95.4901
96.1528
96.8253
97.5068
98.196
98.892
99.5936
100.3
101.009
101.72
102.432
103.144
103.855
104.564
105.271
105.974
106.674
107.37
108.062
108.75
109.434
110.114
110.791
111.465
112.137
112.806
113.475
114.143
114.811
115.48
116.151
116.824
117.501
118.183
118.87
119.564
120.265
120.975
121.695
122.427
123.171
123.931
124.707
125.501
126.316
127.153
128.015
128.903
129.82
130.768
131.749
132.764
133.815
134.903
136.027
137.189
138.385
139.614
140.871
142.152
143.448
144.75
146.045
147.318
148.551
149.723
150.807
151.777
152.599
153.24
153.662
153.826
153.685
153.196
152.312
150.99
149.189
146.873
144.012
140.584
136.576
131.983
126.812
121.08
114.812
108.045
100.825
93.209
85.2707
77.1062
68.8511
60.7061
52.9829
46.1944
41.3702
41.9393
76.4335
50.2895
29.3023
29.2537
32.3239
36.4403
41.0403
45.8743
50.8006
55.7307
60.6081
65.3961
70.071
74.6164
79.0194
83.2682
87.3497
91.2486
94.947
98.4243
101.658
104.624
107.298
109.659
111.688
113.37
114.695
115.659
116.263
116.516
116.433
116.036
115.351
114.409
113.243
111.889
110.383
108.759
107.051
105.291
103.506
101.723
99.9638
98.2468
96.5876
94.9988
93.4899
92.068
90.7379
89.5024
88.3627
87.3186
86.3688
85.5113
84.7433
84.0615
83.4622
82.9418
82.4963
82.1218
81.8145
81.5705
81.386
81.2571
81.1801
81.1517
81.1685
81.2275
81.3256
81.46
81.628
81.8271
82.0548
82.3087
82.5867
82.8868
83.207
83.5456
83.901
84.2717
84.6565
85.0541
85.4638
85.8847
86.3162
86.7578
87.2093
87.6706
88.1415
88.6224
89.1132
89.6144
90.1263
90.6492
91.1836
91.7297
92.288
92.8587
93.442
94.0379
94.6464
95.2675
95.9007
96.5457
97.202
97.8688
98.5453
99.2307
99.924
100.624
101.33
102.04
102.754
103.471
104.188
104.906
105.624
106.34
107.053
107.765
108.473
109.177
109.878
110.576
111.269
111.959
112.646
113.33
114.012
114.692
115.37
116.048
116.726
117.404
118.084
118.767
119.453
120.143
120.838
121.54
122.249
122.967
123.695
124.434
125.185
125.952
126.735
127.536
128.357
129.201
130.068
130.963
131.886
132.839
133.825
134.845
135.901
136.993
138.122
139.287
140.487
141.719
142.979
144.262
145.56
146.863
148.16
149.434
150.669
151.843
152.932
153.907
154.737
155.388
155.823
156.004
155.889
155.436
154.605
153.355
151.651
149.461
146.76
143.528
139.754
135.434
130.572
125.18
119.277
112.889
106.051
98.8083
91.2261
83.3991
75.4726
67.6733
60.3661
54.1822
50.482
54.0559
104.13
50.2914
29.3035
29.2552
32.3254
36.4418
41.0418
45.8759
50.8021
55.7322
60.6094
65.3974
70.0722
74.6174
79.0204
83.269
87.3503
91.2491
94.9474
98.4245
101.658
104.624
107.298
109.659
111.688
113.369
114.695
115.659
116.263
116.516
116.433
116.035
115.35
114.408
113.242
111.888
110.382
108.758
107.05
105.29
103.506
101.723
99.9633
98.2463
96.5871
94.9983
93.4895
92.0676
90.7375
89.5021
88.3623
87.3183
86.3685
85.5111
84.743
84.0612
83.462
82.9416
82.4961
82.1216
81.8143
81.5703
81.3858
81.2569
81.1799
81.1515
81.1683
81.2273
81.3254
81.4598
81.6278
81.8269
82.0546
82.3085
82.5865
82.8866
83.2068
83.5454
83.9008
84.2715
84.6562
85.0539
85.4636
85.8845
86.3159
86.7576
87.2091
87.6703
88.1413
88.6221
89.113
89.6142
90.126
90.649
91.1833
91.7295
92.2878
92.8584
93.4417
94.0376
94.6462
95.2672
95.9005
96.5455
97.2017
97.8685
98.5451
99.2305
99.9237
100.624
101.33
102.04
102.754
103.47
104.188
104.906
105.623
106.339
107.053
107.764
108.472
109.177
109.878
110.575
111.269
111.959
112.646
113.33
114.012
114.691
115.37
116.047
116.725
117.404
118.084
118.767
119.453
120.143
120.838
121.54
122.249
122.967
123.694
124.433
125.185
125.952
126.734
127.535
128.357
129.2
130.068
130.962
131.885
132.839
133.825
134.845
135.901
136.993
138.122
139.287
140.487
141.718
142.979
144.261
145.559
146.863
148.159
149.434
150.669
151.843
152.931
153.906
154.736
155.387
155.823
156.004
155.888
155.436
154.604
153.355
151.651
149.461
146.76
143.528
139.753
135.433
130.571
125.179
119.277
112.889
106.05
98.8078
91.2256
83.3987
75.4721
67.6728
60.3656
54.1816
50.4812
54.0548
104.128
62.2018
35.8337
34.6254
37.2325
41.0854
45.4864
50.1302
54.8469
59.5324
64.1223
68.5781
72.8794
77.0169
80.9878
84.7923
88.4301
91.8992
95.1939
98.3048
101.219
103.918
106.385
108.6
110.542
112.195
113.544
114.579
115.292
115.688
115.775
115.567
115.083
114.349
113.391
112.239
110.926
109.482
107.939
106.326
104.672
103.002
101.338
99.6992
98.103
96.563
95.0901
93.6929
92.3776
91.1485
90.0082
88.9577
87.9969
87.1247
86.3393
85.6381
85.0183
84.4765
84.0093
83.6131
83.2843
83.0191
82.8141
82.6656
82.5702
82.5247
82.5258
82.5704
82.6556
82.7786
82.9365
83.1268
83.3471
83.5949
83.868
84.1643
84.4819
84.819
85.1739
85.5451
85.9312
86.3312
86.7439
87.1685
87.6044
88.051
88.508
88.975
89.4521
89.9392
90.4364
90.944
91.4622
91.9912
92.5314
93.0831
93.6464
94.2217
94.8091
95.4086
96.0201
96.6436
97.2787
97.9251
98.5822
99.2494
99.9259
100.611
101.304
102.003
102.708
103.418
104.131
104.847
105.565
106.283
107.001
107.718
108.433
109.147
109.857
110.565
111.269
111.97
112.668
113.363
114.054
114.743
115.43
116.115
116.799
117.482
118.166
118.85
119.535
120.223
120.914
121.609
122.309
123.015
123.728
124.45
125.182
125.926
126.682
127.452
128.239
129.044
129.87
130.717
131.589
132.488
133.415
134.373
135.364
136.389
137.449
138.546
139.68
140.851
142.056
143.294
144.56
145.85
147.155
148.466
149.772
151.058
152.305
153.494
154.601
155.598
156.455
157.139
157.615
157.846
157.795
157.424
156.696
155.577
154.034
152.04
149.574
146.619
143.164
139.204
134.74
129.775
124.319
118.385
111.994
105.177
97.9882
90.5158
82.9086
75.4124
68.4379
62.7298
59.974
66.2966
131.553
62.2037
35.8351
34.6271
37.2342
41.087
45.488
50.1317
54.8484
59.5338
64.1235
68.5792
72.8804
77.0177
80.9885
84.7928
88.4305
91.8995
95.1941
98.3048
101.218
103.918
106.385
108.599
110.542
112.195
113.544
114.578
115.291
115.687
115.774
115.566
115.082
114.348
113.39
112.238
110.925
109.481
107.938
106.326
104.672
103.001
101.337
99.6984
98.1023
96.5623
95.0894
93.6922
92.377
91.1479
90.0076
88.9571
87.9963
87.1242
86.3388
85.6376
85.0177
84.476
84.0088
83.6126
83.2838
83.0186
82.8136
82.6651
82.5697
82.5242
82.5253
82.57
82.6552
82.7781
82.936
83.1264
83.3466
83.5944
83.8675
84.1638
84.4814
84.8185
85.1734
85.5446
85.9307
86.3307
86.7434
87.168
87.6039
88.0505
88.5074
88.9745
89.4516
89.9387
90.4359
90.9435
91.4616
91.9907
92.5309
93.0825
93.6459
94.2212
94.8086
95.408
96.0196
96.6431
97.2782
97.9245
98.5816
99.2488
99.9254
100.611
101.303
102.003
102.708
103.418
104.131
104.847
105.564
106.282
107
107.717
108.433
109.146
109.857
110.564
111.268
111.97
112.667
113.362
114.054
114.743
115.43
116.115
116.799
117.482
118.165
118.849
119.534
120.222
120.913
121.608
122.308
123.014
123.728
124.45
125.182
125.925
126.681
127.452
128.239
129.044
129.869
130.717
131.589
132.487
133.415
134.373
135.363
136.388
137.449
138.546
139.68
140.85
142.055
143.293
144.56
145.849
147.154
148.466
149.772
151.057
152.305
153.494
154.6
155.597
156.454
157.138
157.614
157.846
157.795
157.424
156.696
155.576
154.033
152.04
149.574
146.618
143.164
139.204
134.739
129.775
124.319
118.385
111.993
105.177
97.9875
90.5151
82.908
75.4117
68.4371
62.7289
59.9729
66.2952
131.55
74.3758
42.412
40.1254
42.3384
45.972
50.1939
54.6465
59.1343
63.5407
67.7961
71.8628
75.7253
79.3827
82.8436
86.1208
89.2278
92.1762
94.9735
97.6223
100.119
102.456
104.621
106.596
108.363
109.905
111.204
112.244
113.012
113.505
113.725
113.678
113.378
112.84
112.087
111.142
110.031
108.782
107.424
105.983
104.485
102.955
101.415
99.8845
98.3809
96.9186
95.5098
94.1641
92.889
91.6901
90.5712
89.5346
88.5811
87.7109
86.9229
86.2155
85.5865
85.0333
84.5529
84.1422
83.798
83.5167
83.295
83.1299
83.0182
82.9567
82.9425
82.9724
83.0437
83.1536
83.2993
83.4783
83.6882
83.9265
84.1911
84.4799
84.7909
85.1223
85.4724
85.8396
86.2227
86.6203
87.0315
87.4552
87.8908
88.3377
88.7953
89.2634
89.7418
90.2303
90.7291
91.2381
91.7574
92.2874
92.8281
93.3798
93.9426
94.5167
95.1022
95.699
96.3071
96.9263
97.5563
98.1968
98.8472
99.5071
100.176
100.852
101.536
102.226
102.922
103.622
104.326
105.032
105.74
106.449
107.158
107.867
108.574
109.28
109.984
110.685
111.384
112.079
112.772
113.463
114.15
114.836
115.519
116.201
116.882
117.562
118.243
118.924
119.606
120.291
120.979
121.671
122.368
123.071
123.781
124.5
125.228
125.968
126.72
127.487
128.271
129.072
129.894
130.738
131.607
132.502
133.426
134.381
135.368
136.39
137.448
138.543
139.675
140.844
142.048
143.286
144.553
145.845
147.154
148.471
149.785
151.082
152.345
153.554
154.686
155.717
156.617
157.354
157.897
158.213
158.268
158.028
157.461
156.538
155.232
153.52
151.384
148.808
145.782
142.299
138.352
133.937
129.051
123.693
117.865
111.584
104.886
97.852
90.6271
83.4691
76.8279
71.5525
69.6329
78.4094
157.113
74.3777
42.4136
40.1272
42.3402
45.9737
50.1956
54.648
59.1357
63.542
67.7973
71.8638
75.7261
79.3834
82.8442
86.1212
89.228
92.1763
94.9735
97.6221
100.119
102.456
104.62
106.595
108.363
109.904
111.203
112.243
113.011
113.504
113.724
113.677
113.377
112.839
112.086
111.14
110.03
108.781
107.423
105.982
104.484
102.954
101.414
99.8836
98.3799
96.9177
95.5089
94.1632
92.8882
91.6893
90.5704
89.5338
88.5804
87.7101
86.9221
86.2147
85.5857
85.0325
84.5522
84.1415
83.7973
83.5159
83.2943
83.1292
83.0175
82.956
82.9418
82.9717
83.043
83.1529
83.2986
83.4776
83.6875
83.9258
84.1904
84.4792
84.7902
85.1216
85.4716
85.8389
86.222
86.6196
87.0307
87.4545
87.8901
88.3369
88.7946
89.2627
89.741
90.2296
90.7283
91.2373
91.7567
92.2866
92.8274
93.3791
93.9419
94.516
95.1014
95.6982
96.3063
96.9255
97.5555
98.196
98.8465
99.5063
100.175
100.852
101.535
102.226
102.921
103.621
104.325
105.031
105.739
106.448
107.157
107.866
108.574
109.279
109.983
110.684
111.383
112.078
112.771
113.462
114.149
114.835
115.518
116.2
116.881
117.561
118.242
118.923
119.606
120.29
120.978
121.67
122.367
123.07
123.78
124.499
125.227
125.967
126.72
127.487
128.27
129.071
129.893
130.737
131.606
132.501
133.425
134.38
135.367
136.389
137.447
138.542
139.674
140.843
142.047
143.285
144.552
145.844
147.153
148.47
149.784
151.081
152.344
153.553
154.685
155.716
156.616
157.353
157.897
158.212
158.267
158.027
157.46
156.537
155.231
153.52
151.383
148.807
145.781
142.298
138.351
133.936
129.05
123.692
117.864
111.583
104.885
97.8512
90.6263
83.4682
76.827
71.5514
69.6315
78.4076
157.11
86.2725
48.8887
45.5948
47.4482
50.8733
54.9074
59.143
63.3628
67.4406
71.3046
74.9198
78.2775
81.3869
84.2681
86.9473
89.4521
91.8076
94.0346
96.1475
98.1537
100.053
101.84
103.502
105.023
106.384
107.567
108.554
109.324
109.868
110.181
110.262
110.118
109.758
109.196
108.45
107.542
106.493
105.327
104.07
102.744
101.373
99.9778
98.5772
97.1887
95.8271
94.5052
93.2335
92.0205
90.8726
89.7949
88.7905
87.8616
87.0091
86.2329
85.5322
84.9055
84.3511
83.8664
83.449
83.0958
82.8039
82.5703
82.3922
82.2667
82.191
82.1623
82.1777
82.2345
82.3301
82.4619
82.6273
82.8241
83.0498
83.3024
83.5797
83.88
84.2012
84.5419
84.9004
85.2753
85.6655
86.0698
86.4873
86.9171
87.3586
87.8113
88.2747
88.7485
89.2325
89.7267
90.2309
90.7451
91.2696
91.8042
92.3492
92.9045
93.4703
94.0466
94.6332
95.2301
95.8371
96.454
97.0803
97.7156
98.3595
99.0113
99.6704
100.336
101.008
101.684
102.365
103.049
103.736
104.425
105.115
105.805
106.495
107.185
107.873
108.56
109.245
109.928
110.608
111.287
111.963
112.637
113.309
113.979
114.649
115.317
115.985
116.654
117.323
117.993
118.666
119.342
120.022
120.707
121.398
122.095
122.802
123.518
124.245
124.985
125.739
126.509
127.298
128.107
128.938
129.793
130.676
131.586
132.528
133.503
134.512
135.557
136.64
137.76
138.918
140.112
141.341
142.601
143.887
145.192
146.509
147.827
149.132
150.409
151.64
152.804
153.877
154.832
155.642
156.277
156.709
156.908
156.847
156.498
155.837
154.842
153.495
151.781
149.686
147.199
144.308
141.001
137.262
133.075
128.422
123.287
117.667
111.581
105.094
98.3449
91.5973
85.3329
80.4949
79.3544
90.3633
181.218
86.2746
48.8905
45.5968
47.4501
50.8751
54.909
59.1445
63.3642
67.4419
71.3056
74.9207
78.2783
81.3874
84.2685
86.9475
89.4521
91.8075
94.0343
96.1471
98.1532
100.053
101.839
103.501
105.022
106.383
107.566
108.552
109.322
109.866
110.179
110.261
110.117
109.757
109.195
108.449
107.54
106.491
105.326
104.069
102.743
101.372
99.9766
98.5761
97.1875
95.826
94.5041
93.2325
92.0194
90.8716
89.7939
88.7895
87.8607
87.0081
86.2319
85.5312
84.9046
84.3502
83.8655
83.4481
83.0949
82.803
82.5694
82.3913
82.2658
82.1901
82.1614
82.1768
82.2336
82.3292
82.461
82.6264
82.8232
83.0489
83.3015
83.5788
83.8791
84.2003
84.541
84.8995
85.2744
85.6646
86.0689
86.4864
86.9162
87.3577
87.8104
88.2738
88.7476
89.2316
89.7257
90.2299
90.7442
91.2686
91.8033
92.3482
92.9036
93.4694
94.0456
94.6323
95.2292
95.8362
96.453
97.0793
97.7147
98.3585
99.0103
99.6695
100.335
101.007
101.683
102.364
103.048
103.735
104.424
105.114
105.804
106.494
107.184
107.872
108.559
109.244
109.927
110.607
111.286
111.962
112.636
113.308
113.978
114.648
115.316
115.984
116.653
117.322
117.992
118.665
119.341
120.021
120.706
121.397
122.094
122.801
123.517
124.244
124.983
125.738
126.508
127.297
128.106
128.937
129.792
130.674
131.585
132.527
133.502
134.511
135.556
136.639
137.759
138.917
140.111
141.34
142.6
143.886
145.191
146.508
147.826
149.131
150.408
151.639
152.803
153.876
154.831
155.641
156.276
156.708
156.907
156.846
156.497
155.836
154.841
153.494
151.78
149.685
147.198
144.307
141
137.261
133.074
128.421
123.287
117.666
111.58
105.093
98.344
91.5962
85.3318
80.4936
79.3527
90.3613
181.214
97.9861
55.1994
50.9293
52.4346
55.6456
59.4712
63.457
67.3668
71.0673
74.4871
77.5963
80.3945
82.9016
85.1503
87.1803
89.0326
90.7459
92.3534
93.881
95.3459
96.7566
98.113
99.4077
100.627
101.754
102.767
103.647
104.37
104.92
105.284
105.458
105.438
105.228
104.835
104.271
103.552
102.695
101.72
100.648
99.4993
98.2949
97.0544
95.7962
94.5368
93.2911
92.0721
90.8908
89.7561
88.6755
87.6546
86.6977
85.8077
84.9863
84.2344
83.552
82.9383
82.3921
81.9116
81.4947
81.1392
80.8423
80.6014
80.4142
80.278
80.1903
80.1486
80.1503
80.1927
80.2735
80.3901
80.5403
80.7218
80.9323
81.1698
81.4324
81.7181
82.0253
82.3522
82.6974
83.0595
83.4373
83.8296
84.2355
84.6541
85.0847
85.5266
85.9794
86.4427
86.916
87.3993
87.8924
88.395
88.9073
89.4291
89.9605
90.5013
91.0516
91.6114
92.1804
92.7586
93.3457
93.9414
94.5456
95.1577
95.7773
96.4039
97.0369
97.6758
98.32
98.9687
99.6213
100.277
100.936
101.596
102.257
102.92
103.582
104.245
104.906
105.567
106.226
106.884
107.54
108.195
108.847
109.499
110.148
110.797
111.445
112.092
112.739
113.386
114.034
114.684
115.336
115.991
116.651
117.314
117.984
118.661
119.346
120.04
120.746
121.464
122.197
122.945
123.712
124.498
125.307
126.14
126.999
127.887
128.806
129.758
130.744
131.767
132.827
133.925
135.062
136.236
137.446
138.688
139.96
141.254
142.564
143.879
145.189
146.478
147.731
148.929
150.05
151.073
151.97
152.719
153.294
153.672
153.83
153.748
153.406
152.789
151.881
150.671
149.147
147.295
145.101
142.543
139.595
136.227
132.401
128.083
123.248
117.895
112.07
105.903
99.6546
93.8331
89.465
89.0795
102.151
204.066
97.9886
55.2014
50.9315
52.4367
55.6475
59.4729
63.4586
67.3681
71.0685
74.4881
77.5971
80.3951
82.902
85.1506
87.1803
89.0325
90.7456
92.353
93.8805
95.3453
96.7558
98.1121
99.4067
100.626
101.753
102.766
103.645
104.369
104.918
105.283
105.456
105.436
105.226
104.833
104.27
103.551
102.694
101.719
100.647
99.498
98.2936
97.0531
95.7949
94.5355
93.2899
92.0709
90.8896
89.755
88.6744
87.6535
86.6966
85.8066
84.9853
84.2334
83.551
82.9373
82.391
81.9105
81.4937
81.1382
80.8413
80.6004
80.4132
80.277
80.1893
80.1476
80.1492
80.1917
80.2725
80.3891
80.5393
80.7208
80.9313
81.1688
81.4314
81.7171
82.0242
82.3512
82.6964
83.0585
83.4363
83.8286
84.2345
84.6531
85.0837
85.5256
85.9784
86.4416
86.915
87.3983
87.8913
88.394
88.9063
89.4281
89.9594
90.5003
91.0506
91.6103
92.1793
92.7575
93.3446
93.9404
94.5445
95.1566
95.7762
96.4028
97.0358
97.6748
98.3189
98.9676
99.6202
100.276
100.934
101.595
102.256
102.919
103.581
104.244
104.905
105.566
106.225
106.883
107.539
108.194
108.846
109.498
110.147
110.796
111.444
112.091
112.738
113.385
114.033
114.683
115.335
115.99
116.649
117.313
117.983
118.66
119.345
120.039
120.745
121.463
122.196
122.944
123.711
124.497
125.306
126.139
126.998
127.886
128.805
129.757
130.743
131.766
132.826
133.924
135.06
136.235
137.444
138.687
139.959
141.253
142.563
143.878
145.188
146.477
147.73
148.928
150.049
151.072
151.969
152.717
153.293
153.671
153.829
153.747
153.405
152.788
151.88
150.67
149.146
147.294
145.1
142.542
139.594
136.226
132.4
128.082
123.247
117.894
112.069
105.902
99.6535
93.8318
89.4635
89.0776
102.148
204.061
109.364
61.2671
56.0485
57.2094
60.1952
63.7898
67.4951
71.0578
74.3408
77.2751
79.8375
82.0372
83.9059
85.489
86.8393
88.0112
89.0559
90.0183
90.9346
91.8311
92.7236
93.6181
94.5112
95.3921
96.244
97.0461
97.7755
98.4092
98.9219
99.2976
99.5236
99.5918
99.499
99.2465
98.8402
98.2898
97.6083
96.811
95.9149
94.9379
93.8983
92.8138
91.7014
90.5768
89.4545
88.3472
87.2659
86.2202
85.2178
84.265
83.3666
82.5264
81.7468
81.0293
80.3747
79.7827
79.2529
78.784
78.3746
78.0226
77.726
77.4825
77.29
77.1464
77.0493
76.9965
76.9856
77.0143
77.0803
77.1814
77.3154
77.4801
77.6736
77.8938
78.1388
78.407
78.6967
79.0063
79.3343
79.6794
80.0403
80.4161
80.8056
81.208
81.6224
82.0483
82.485
82.9321
83.3891
83.8556
84.3315
84.8165
85.3104
85.8131
86.3245
86.8443
87.3726
87.9092
88.4539
89.0065
89.5668
90.1346
90.7095
91.2913
91.8795
92.4737
93.0735
93.6783
94.2877
94.9011
95.5181
96.1379
96.7603