/*--------------------------------*- C++ -*----------------------------------*\
  =========                 |
  \\      /  F ield         | OpenFOAM: The Open Source CFD Toolbox
   \\    /   O peration     | Website:  https://openfoam.org
    \\  /    A nd           | Version:  8
     \\/     M anipulation  |
\*---------------------------------------------------------------------------*/
FoamFile
{
    version     2.0;
    format      ascii;
    class       volScalarField;
    location    "700";
    object      k;
}
// * * * * * * * * * * * * * * * * * * * * * * * * * * * * * * * * * * * * * //

dimensions      [0 2 -2 0 0 0 0];

internalField   nonuniform List<scalar> 
46000
(
0.00263587
0.011063
0.0228604
0.0361965
0.0501238
0.0637064
0.0771346
0.089528
0.10124
0.112283
0.122646
0.132309
0.141255
0.149467
0.15693
0.163632
0.169566
0.174731
0.17913
0.182773
0.185675
0.187859
0.189351
0.190184
0.190455
0.190354
0.189794
0.188772
0.187322
0.185496
0.183352
0.18095
0.178349
0.175605
0.172773
0.169899
0.167025
0.164188
0.16142
0.158745
0.156183
0.15375
0.151455
0.149307
0.147307
0.145458
0.143758
0.142204
0.140791
0.139515
0.13837
0.137349
0.136446
0.135655
0.13497
0.134383
0.13389
0.133484
0.133161
0.132935
0.132786
0.132704
0.132683
0.132719
0.132809
0.132949
0.133136
0.133368
0.133641
0.133953
0.1343
0.13468
0.135092
0.135531
0.135997
0.136487
0.136999
0.137532
0.138084
0.138654
0.139242
0.139846
0.140467
0.141103
0.141756
0.142425
0.14311
0.143812
0.144532
0.14527
0.146027
0.146803
0.147598
0.148414
0.14925
0.150107
0.150984
0.151881
0.152798
0.153733
0.154685
0.155654
0.156638
0.157636
0.158644
0.159662
0.160688
0.161719
0.162754
0.163791
0.164827
0.165862
0.166894
0.167921
0.168942
0.169957
0.170965
0.171965
0.172958
0.173943
0.174922
0.175893
0.176859
0.177819
0.178775
0.179728
0.180679
0.181628
0.182578
0.183529
0.184482
0.185439
0.186401
0.187369
0.188343
0.189327
0.19032
0.191325
0.192343
0.193376
0.194425
0.195494
0.196584
0.197698
0.198838
0.200009
0.201213
0.202453
0.203733
0.205057
0.206428
0.20785
0.209327
0.210861
0.212455
0.214111
0.215831
0.217614
0.219459
0.221364
0.223323
0.22533
0.227374
0.229442
0.231517
0.233578
0.235598
0.237546
0.239384
0.24107
0.242553
0.243778
0.24469
0.245259
0.245437
0.24511
0.244184
0.242573
0.240195
0.236974
0.232836
0.227718
0.221569
0.214351
0.206045
0.196654
0.186203
0.174744
0.162356
0.149146
0.135251
0.120834
0.106075
0.0911507
0.0760224
0.0610082
0.0463686
0.0315781
0.0173477
0.00452561
0.00263478
0.0110657
0.0228668
0.0362056
0.0501289
0.0637081
0.0771347
0.0895273
0.101239
0.112283
0.122646
0.13231
0.141256
0.149468
0.156931
0.163634
0.169568
0.174733
0.179132
0.182775
0.185678
0.187861
0.189353
0.190187
0.190458
0.190357
0.189796
0.188774
0.187324
0.185498
0.183354
0.180952
0.178351
0.175608
0.172775
0.169901
0.167027
0.164191
0.161422
0.158747
0.156185
0.153752
0.151457
0.149309
0.147309
0.14546
0.14376
0.142206
0.140793
0.139517
0.138372
0.137351
0.136448
0.135657
0.134972
0.134385
0.133892
0.133486
0.133163
0.132937
0.132788
0.132706
0.132685
0.132721
0.132811
0.132951
0.133138
0.13337
0.133643
0.133955
0.134302
0.134683
0.135094
0.135534
0.135999
0.136489
0.137001
0.137534
0.138086
0.138657
0.139244
0.139849
0.140469
0.141106
0.141758
0.142427
0.143113
0.143815
0.144535
0.145273
0.146029
0.146805
0.147601
0.148416
0.149253
0.150109
0.150986
0.151883
0.1528
0.153735
0.154688
0.155657
0.156641
0.157638
0.158646
0.159665
0.16069
0.161721
0.162756
0.163793
0.16483
0.165864
0.166896
0.167923
0.168944
0.169959
0.170967
0.171967
0.17296
0.173945
0.174924
0.175895
0.176861
0.177821
0.178777
0.17973
0.180681
0.18163
0.18258
0.183531
0.184484
0.185441
0.186403
0.187371
0.188345
0.189329
0.190322
0.191327
0.192345
0.193378
0.194427
0.195496
0.196586
0.1977
0.19884
0.200011
0.201214
0.202455
0.203735
0.205059
0.20643
0.207852
0.209329
0.210863
0.212457
0.214113
0.215833
0.217616
0.219461
0.221366
0.223325
0.225332
0.227376
0.229444
0.231519
0.23358
0.2356
0.237548
0.239386
0.241072
0.242555
0.24378
0.244692
0.24526
0.245439
0.245112
0.244186
0.242575
0.240197
0.236976
0.232838
0.22772
0.221571
0.214353
0.206047
0.196656
0.186205
0.174746
0.162358
0.149148
0.135254
0.120836
0.106077
0.0911525
0.0760239
0.0610093
0.0463693
0.0315793
0.0173483
0.0045257
0.0107096
0.0495116
0.082891
0.113236
0.14131
0.167367
0.191823
0.214751
0.236251
0.256388
0.2752
0.292709
0.308923
0.323844
0.337469
0.349795
0.36082
0.370542
0.378971
0.386118
0.392005
0.396661
0.400121
0.402425
0.403613
0.403803
0.403118
0.401618
0.399384
0.396505
0.393077
0.389197
0.384961
0.380459
0.375776
0.37099
0.366173
0.361386
0.356682
0.352106
0.347696
0.343481
0.339482
0.335715
0.332191
0.328915
0.325888
0.323109
0.320572
0.318273
0.316202
0.31435
0.312709
0.311267
0.310014
0.308941
0.308036
0.30729
0.306692
0.306235
0.305914
0.305718
0.305639
0.305668
0.305799
0.306024
0.306338
0.306735
0.307208
0.307753
0.308363
0.309034
0.309761
0.310539
0.311365
0.312233
0.313141
0.314085
0.315063
0.316072
0.317111
0.318177
0.31927
0.320389
0.321534
0.322704
0.3239
0.325122
0.326371
0.327649
0.328955
0.330291
0.331658
0.333056
0.334485
0.335947
0.33744
0.338965
0.340521
0.342106
0.34372
0.34536
0.347024
0.348709
0.350413
0.352133
0.353866
0.355608
0.357357
0.359108
0.36086
0.362609
0.364352
0.366088
0.367815
0.369529
0.371232
0.372921
0.374596
0.376257
0.377904
0.379538
0.38116
0.382771
0.384371
0.385963
0.387549
0.38913
0.390707
0.392283
0.39386
0.39544
0.397024
0.398615
0.400215
0.401827
0.403451
0.405092
0.406751
0.408432
0.410137
0.411871
0.413636
0.415437
0.417279
0.419165
0.421101
0.423092
0.425144
0.427261
0.42945
0.431715
0.434062
0.436496
0.439019
0.441635
0.444345
0.447149
0.450045
0.453027
0.456089
0.459218
0.462399
0.465611
0.468827
0.472015
0.475135
0.47814
0.480973
0.483569
0.485855
0.487749
0.489165
0.490021
0.490176
0.48951
0.487901
0.485222
0.481349
0.47616
0.469541
0.461386
0.451608
0.440135
0.426918
0.411933
0.395186
0.376711
0.356569
0.334852
0.311676
0.287172
0.26148
0.234724
0.206965
0.178122
0.147575
0.113511
0.0725845
0.0180666
0.0107078
0.0495122
0.082895
0.113238
0.141314
0.167372
0.191828
0.214756
0.236257
0.256394
0.275206
0.292714
0.308928
0.323848
0.337474
0.3498
0.360823
0.370546
0.378974
0.386121
0.392008
0.396663
0.400123
0.402428
0.403615
0.403806
0.40312
0.40162
0.399386
0.396507
0.393079
0.389199
0.384963
0.380461
0.375778
0.370992
0.366175
0.361388
0.356684
0.352108
0.347698
0.343483
0.339484
0.335717
0.332193
0.328917
0.32589
0.323111
0.320575
0.318275
0.316204
0.314353
0.312711
0.31127
0.310017
0.308944
0.308039
0.307293
0.306695
0.306238
0.305917
0.305721
0.305641
0.305671
0.305801
0.306027
0.306341
0.306738
0.307211
0.307755
0.308366
0.309037
0.309764
0.310542
0.311367
0.312236
0.313144
0.314088
0.315066
0.316075
0.317114
0.31818
0.319273
0.320392
0.321536
0.322706
0.323902
0.325124
0.326374
0.327651
0.328958
0.330294
0.33166
0.333058
0.334488
0.335949
0.337443
0.338968
0.340523
0.342109
0.343722
0.345362
0.347026
0.348711
0.350416
0.352136
0.353868
0.35561
0.357359
0.35911
0.360862
0.362611
0.364355
0.366091
0.367817
0.369532
0.371234
0.372923
0.374598
0.376259
0.377906
0.37954
0.381162
0.382773
0.384373
0.385966
0.387551
0.389132
0.390709
0.392285
0.393862
0.395442
0.397026
0.398617
0.400217
0.401829
0.403453
0.405094
0.406753
0.408434
0.410139
0.411873
0.413638
0.415439
0.417281
0.419167
0.421103
0.423094
0.425146
0.427263
0.429452
0.431717
0.434064
0.436497
0.43902
0.441636
0.444346
0.44715
0.450046
0.453029
0.456091
0.45922
0.462401
0.465612
0.468829
0.472017
0.475137
0.478141
0.480974
0.48357
0.485856
0.48775
0.489167
0.490022
0.490177
0.489512
0.487903
0.485224
0.481351
0.476162
0.469543
0.461388
0.45161
0.440137
0.426919
0.411935
0.395188
0.376712
0.356571
0.334854
0.311677
0.287173
0.261481
0.234725
0.206965
0.178123
0.147575
0.11351
0.0725839
0.0180665
0.0201141
0.0795783
0.123344
0.160528
0.194853
0.227082
0.257462
0.286069
0.312947
0.338134
0.361659
0.383547
0.403816
0.422481
0.439551
0.455037
0.468946
0.481288
0.492078
0.501333
0.509078
0.515345
0.520172
0.523605
0.525697
0.526511
0.526203
0.524858
0.522575
0.51946
0.515626
0.511186
0.506255
0.500942
0.495351
0.489579
0.483715
0.477839
0.47202
0.46632
0.460789
0.455468
0.45039
0.445581
0.441057
0.43683
0.432906
0.429286
0.425969
0.422949
0.420218
0.417766
0.415584
0.413658
0.411978
0.41053
0.409303
0.408282
0.407457
0.406814
0.406347
0.406045
0.405896
0.40589
0.406018
0.406271
0.40664
0.407119
0.407698
0.408371
0.40913
0.409969
0.410882
0.411862
0.412903
0.414001
0.41515
0.416348
0.417588
0.41887
0.420189
0.421544
0.422932
0.424354
0.425807
0.427293
0.428811
0.430361
0.431944
0.433561
0.435213
0.436901
0.438626
0.440389
0.442189
0.444029
0.445907
0.447823
0.449777
0.451766
0.45379
0.455846
0.457932
0.460044
0.46218
0.464335
0.466507
0.468692
0.470884
0.473082
0.475281
0.477477
0.479668
0.48185
0.484021
0.486179
0.488322
0.490449
0.49256
0.494653
0.496729
0.498789
0.500834
0.502864
0.504881
0.506887
0.508883
0.510873
0.512858
0.51484
0.516822
0.518806
0.520795
0.522791
0.524797
0.526816
0.528851
0.530905
0.532981
0.535083
0.537215
0.539382
0.541587
0.543836
0.546134
0.548487
0.550902
0.553384
0.55594
0.558577
0.561301
0.56412
0.567038
0.570062
0.573196
0.576444
0.579806
0.583284
0.586874
0.59057
0.594362
0.598236
0.602173
0.606147
0.610126
0.61407
0.617931
0.621651
0.625162
0.628385
0.631233
0.633606
0.635399
0.636492
0.636738
0.635998
0.634127
0.630979
0.626408
0.620271
0.612436
0.602781
0.591198
0.577602
0.561928
0.544137
0.524216
0.502177
0.478055
0.451908
0.42381
0.393845
0.3621
0.328648
0.293517
0.256591
0.217324
0.173967
0.120153
0.0369242
0.0201156
0.0795789
0.123346
0.160531
0.194857
0.227086
0.257467
0.286074
0.312952
0.338139
0.361664
0.383552
0.403821
0.422485
0.439555
0.455041
0.468949
0.481292
0.492081
0.501336
0.509081
0.515348
0.520174
0.523607
0.525699
0.526513
0.526205
0.52486
0.522577
0.519462
0.515627
0.511188
0.506257
0.500944
0.495352
0.489581
0.483717
0.47784
0.472022
0.466322
0.460791
0.45547
0.450392
0.445583
0.441059
0.436832
0.432908
0.429289
0.425972
0.422951
0.42022
0.417769
0.415586
0.413661
0.411981
0.410533
0.409305
0.408285
0.407459
0.406816
0.40635
0.406047
0.405898
0.405892
0.40602
0.406273
0.406643
0.407121
0.4077
0.408373
0.409133
0.409972
0.410884
0.411864
0.412905
0.414003
0.415153
0.41635
0.417591
0.418872
0.420191
0.421546
0.422935
0.424356
0.42581
0.427295
0.428813
0.430363
0.431946
0.433563
0.435215
0.436903
0.438628
0.440391
0.442192
0.444031
0.445909
0.447825
0.449779
0.451768
0.453792
0.455848
0.457934
0.460046
0.462182
0.464337
0.466509
0.468694
0.470886
0.473084
0.475283
0.477479
0.47967
0.481852
0.484023
0.486181
0.488324
0.490451
0.492562
0.494655
0.496731
0.498791
0.500835
0.502865
0.504882
0.506888
0.508885
0.510875
0.51286
0.514842
0.516824
0.518808
0.520797
0.522793
0.524799
0.526818
0.528853
0.530907
0.532983
0.535085
0.537217
0.539383
0.541588
0.543837
0.546136
0.548489
0.550903
0.553385
0.555941
0.558578
0.561303
0.564121
0.567039
0.570063
0.573197
0.576445
0.579808
0.583285
0.586875
0.590571
0.594363
0.598237
0.602174
0.606148
0.610127
0.614072
0.617933
0.621652
0.625163
0.628387
0.631234
0.633608
0.635401
0.636494
0.63674
0.635999
0.634129
0.630981
0.626409
0.620273
0.612438
0.602782
0.5912
0.577604
0.56193
0.544139
0.524218
0.502178
0.478057
0.45191
0.423812
0.393847
0.362101
0.328649
0.293517
0.256591
0.217324
0.173966
0.120152
0.0369236
0.029564
0.104577
0.155534
0.197992
0.236898
0.273409
0.307831
0.340234
0.370635
0.39905
0.425504
0.450028
0.47266
0.49344
0.512405
0.529594
0.545039
0.558776
0.570835
0.581249
0.590053
0.597283
0.602981
0.607192
0.609967
0.611363
0.611505
0.610491
0.608422
0.60541
0.601569
0.597018
0.591876
0.586261
0.580283
0.574051
0.567662
0.561208
0.55477
0.548417
0.542213
0.536207
0.530442
0.52495
0.519757
0.514881
0.510331
0.506115
0.502234
0.498684
0.495459
0.492552
0.489952
0.487648
0.485627
0.483876
0.482381
0.481128
0.480104
0.479295
0.478692
0.478281
0.478052
0.477992
0.478091
0.478339
0.478726
0.479242
0.479878
0.480626
0.481477
0.482424
0.483458
0.484572
0.48576
0.487016
0.488334
0.489709
0.491136
0.492612
0.494133
0.495697
0.497301
0.498943
0.500623
0.50234
0.504094
0.505886
0.507715
0.509582
0.511488
0.513435
0.515423
0.517453
0.519525
0.521639
0.523797
0.525996
0.528236
0.530516
0.532833
0.535186
0.537572
0.539988
0.54243
0.544894
0.547376
0.549873
0.552379
0.554892
0.557407
0.559919
0.562427
0.564925
0.567413
0.569886
0.572344
0.574785
0.577207
0.579612
0.581998
0.584365
0.586716
0.589051
0.591371
0.593679
0.595977
0.598266
0.600549
0.602829
0.605108
0.607388
0.609674
0.611968
0.614272
0.616591
0.618927
0.621284
0.623667
0.626078
0.628524
0.631009
0.633538
0.636117
0.638752
0.64145
0.644218
0.647064
0.649994
0.653016
0.656139
0.659369
0.662713
0.666178
0.669769
0.67349
0.677342
0.681326
0.685439
0.689673
0.694018
0.698457
0.70297
0.707526
0.712091
0.71662
0.721057
0.725339
0.72939
0.733122
0.736437
0.739225
0.741368
0.742722
0.743142
0.742477
0.740572
0.737269
0.732414
0.725855
0.717451
0.707069
0.694597
0.679937
0.663012
0.643765
0.622161
0.59818
0.57182
0.543092
0.512013
0.478612
0.442919
0.404968
0.364761
0.322174
0.276645
0.22618
0.163083
0.0584449
0.0295663
0.10458
0.155538
0.197996
0.236903
0.273414
0.307836
0.340239
0.37064
0.399055
0.425508
0.450032
0.472664
0.493444
0.512409
0.529597
0.545042
0.558778
0.570837
0.581252
0.590055
0.597285
0.602982
0.607193
0.609968
0.611364
0.611507
0.610492
0.608423
0.605411
0.60157
0.597019
0.591877
0.586262
0.580284
0.574052
0.567664
0.56121
0.554771
0.548419
0.542214
0.536208
0.530443
0.524952
0.519759
0.514882
0.510333
0.506117
0.502236
0.498685
0.495461
0.492554
0.489954
0.48765
0.485629
0.483877
0.482382
0.48113
0.480106
0.479297
0.478693
0.478283
0.478054
0.477994
0.478093
0.478341
0.478728
0.479244
0.47988
0.480628
0.481479
0.482425
0.483459
0.484574
0.485762
0.487018
0.488336
0.489711
0.491138
0.492614
0.494135
0.495699
0.497302
0.498945
0.500625
0.502342
0.504096
0.505887
0.507716
0.509583
0.51149
0.513437
0.515425
0.517454
0.519526
0.521641
0.523798
0.525997
0.528237
0.530517
0.532835
0.535188
0.537574
0.539989
0.542431
0.544895
0.547378
0.549874
0.552381
0.554893
0.557408
0.559921
0.562428
0.564927
0.567414
0.569887
0.572345
0.574786
0.577209
0.579613
0.581999
0.584367
0.586717
0.589052
0.591373
0.59368
0.595978
0.598267
0.60055
0.60283
0.605109
0.60739
0.609675
0.611969
0.614273
0.616592
0.618928
0.621285
0.623668
0.62608
0.628525
0.63101
0.633539
0.636118
0.638753
0.641451
0.644219
0.647065
0.649995
0.653017
0.65614
0.65937
0.662714
0.666179
0.66977
0.673491
0.677343
0.681327
0.68544
0.689674
0.694018
0.698458
0.70297
0.707527
0.712092
0.716621
0.721058
0.72534
0.729391
0.733123
0.736438
0.739226
0.741369
0.742723
0.743143
0.742478
0.740573
0.73727
0.732415
0.725857
0.717452
0.707071
0.694598
0.679938
0.663013
0.643766
0.622162
0.598181
0.571821
0.543093
0.512014
0.478612
0.44292
0.404968
0.364761
0.322174
0.276644
0.226179
0.163081
0.058444
0.0390071
0.126932
0.184428
0.23157
0.274307
0.314173
0.351593
0.386666
0.419413
0.449846
0.478
0.503927
0.527696
0.549384
0.56907
0.586835
0.602753
0.616893
0.629317
0.640081
0.649237
0.656832
0.662911
0.667521
0.67071
0.672529
0.673056
0.672397
0.670646
0.667907
0.664288
0.659901
0.654862
0.649284
0.64328
0.636959
0.630421
0.623762
0.617069
0.610419
0.60388
0.59751
0.591359
0.585466
0.579863
0.574573
0.569613
0.564993
0.560719
0.556792
0.553208
0.549961
0.547044
0.544445
0.542153
0.540155
0.538438
0.536988
0.53579
0.534831
0.534098
0.53358
0.533264
0.533137
0.533189
0.533409
0.533785
0.534307
0.534965
0.535749
0.536651
0.537661
0.538771
0.539973
0.541259
0.542623
0.544058
0.545559
0.54712
0.548737
0.550406
0.552123
0.553887
0.555695
0.557546
0.559438
0.561372
0.563347
0.565363
0.56742
0.569521
0.571664
0.573851
0.576082
0.578358
0.580678
0.583043
0.585452
0.587903
0.590396
0.592928
0.595496
0.598099
0.600732
0.603392
0.606076
0.608779
0.611496
0.614225
0.61696
0.619697
0.622433
0.625165
0.627887
0.630599
0.633297
0.635979
0.638644
0.641292
0.64392
0.64653
0.649122
0.651696
0.654254
0.656797
0.659327
0.661846
0.664356
0.66686
0.669361
0.67186
0.674362
0.676869
0.679384
0.68191
0.684452
0.687013
0.689597
0.692208
0.694852
0.697533
0.700256
0.703028
0.705856
0.708745
0.711704
0.71474
0.717861
0.721076
0.724393
0.727821
0.731367
0.735039
0.738845
0.74279
0.746879
0.751114
0.755496
0.76002
0.76468
0.769464
0.774356
0.779331
0.784361
0.789406
0.794418
0.799339
0.804101
0.808623
0.812813
0.816565
0.819763
0.822279
0.823964
0.824672
0.824248
0.822533
0.81937
0.814598
0.808068
0.799633
0.789162
0.776533
0.761642
0.744397
0.724721
0.702545
0.677812
0.650466
0.620456
0.587732
0.55225
0.513976
0.472882
0.428924
0.381925
0.33121
0.274406
0.202446
0.079739
0.0390091
0.126935
0.184432
0.231574
0.274312
0.314178
0.351598
0.386671
0.419417
0.449851
0.478004
0.503931
0.5277
0.549387
0.569073
0.586838
0.602755
0.616895
0.629319
0.640083
0.649238
0.656833
0.662912
0.667522
0.670711
0.67253
0.673056
0.672397
0.670647
0.667908
0.664288
0.659902
0.654862
0.649284
0.643281
0.636959
0.630421
0.623763
0.617069
0.610419
0.60388
0.597511
0.59136
0.585467
0.579863
0.574573
0.569613
0.564994
0.56072
0.556793
0.553209
0.549962
0.547045
0.544446
0.542154
0.540156
0.538439
0.536989
0.535791
0.534832
0.534099
0.533581
0.533265
0.533138
0.53319
0.53341
0.533786
0.534308
0.534966
0.53575
0.536652
0.537662
0.538772
0.539974
0.54126
0.542624
0.544059
0.54556
0.547121
0.548738
0.550406
0.552124
0.553888
0.555696
0.557547
0.559439
0.561373
0.563347
0.565363
0.567421
0.569521
0.571665
0.573852
0.576083
0.578359
0.580679
0.583044
0.585453
0.587904
0.590397
0.592928
0.595497
0.598099
0.600733
0.603393
0.606077
0.608779
0.611497
0.614226
0.616961
0.619698
0.622434
0.625165
0.627888
0.630599
0.633297
0.63598
0.638645
0.641292
0.643921
0.64653
0.649122
0.651696
0.654254
0.656797
0.659327
0.661846
0.664356
0.666861
0.669361
0.671861
0.674362
0.676869
0.679384
0.681911
0.684453
0.687013
0.689597
0.692209
0.694852
0.697533
0.700256
0.703028
0.705856
0.708745
0.711704
0.71474
0.717861
0.721076
0.724393
0.727821
0.731367
0.735039
0.738845
0.742791
0.746879
0.751115
0.755496
0.76002
0.76468
0.769464
0.774356
0.779331
0.784361
0.789406
0.794418
0.799339
0.804101
0.808623
0.812813
0.816565
0.819763
0.822279
0.823965
0.824672
0.824248
0.822534
0.81937
0.814599
0.808068
0.799634
0.789162
0.776534
0.761643
0.744398
0.724721
0.702546
0.677812
0.650466
0.620456
0.587733
0.552251
0.513976
0.472881
0.428923
0.381924
0.331209
0.274405
0.202444
0.0797375
0.0484047
0.147612
0.211325
0.262763
0.308825
0.351403
0.391063
0.427963
0.462147
0.49365
0.522529
0.54887
0.572785
0.594399
0.613846
0.631257
0.646758
0.660464
0.672476
0.682883
0.691759
0.699167
0.70516
0.709786
0.713088
0.715109
0.715896
0.715539
0.71412
0.711725
0.70845
0.704393
0.699658
0.694349
0.68857
0.682426
0.676015
0.669431
0.662762
0.656088
0.649479
0.643
0.636704
0.630636
0.624833
0.619325
0.614132
0.60927
0.60475
0.600575
0.596746
0.593261
0.590113
0.587293
0.584793
0.582601
0.580703
0.579088
0.577741
0.576647
0.575795
0.575172
0.574766
0.574565
0.574556
0.57473
0.575074
0.575577
0.576229
0.57702
0.577939
0.578978
0.580127
0.581378
0.582723
0.584154
0.585665
0.587249
0.588902
0.590616
0.59239
0.594217
0.596097
0.598026
0.600002
0.602024
0.604091
0.606202
0.608358
0.610558
0.612802
0.615091
0.617425
0.619805
0.62223
0.6247
0.627215
0.629774
0.632375
0.635017
0.637698
0.640416
0.643167
0.645948
0.648755
0.651586
0.654436
0.6573
0.660175
0.663057
0.665941
0.668824
0.671703
0.674574
0.677434
0.680281
0.683114
0.68593
0.688729
0.69151
0.694273
0.697018
0.699747
0.70246
0.705158
0.707844
0.71052
0.713187
0.715847
0.718505
0.721162
0.723821
0.726486
0.72916
0.731846
0.734549
0.737271
0.740019
0.742795
0.745606
0.748457
0.751355
0.754304
0.757313
0.76039
0.763541
0.766775
0.770102
0.77353
0.777068
0.780725
0.784511
0.788434
0.792502
0.796721
0.801096
0.80563
0.810323
0.815174
0.820174
0.825313
0.830573
0.83593
0.841354
0.846805
0.852233
0.85758
0.862774
0.867733
0.872363
0.876556
0.880192
0.883139
0.885253
0.886386
0.886388
0.885102
0.882374
0.878049
0.871979
0.864023
0.854048
0.841929
0.827552
0.810808
0.791592
0.769798
0.745317
0.718028
0.687807
0.654519
0.618034
0.578232
0.535003
0.488224
0.437617
0.382337
0.319607
0.239153
0.100856
0.0484063
0.147615
0.21133
0.262768
0.30883
0.351408
0.391068
0.427968
0.462152
0.493654
0.522532
0.548873
0.572788
0.594402
0.613848
0.631259
0.646759
0.660465
0.672477
0.682884
0.691759
0.699167
0.70516
0.709786
0.713087
0.715108
0.715895
0.715539
0.714119
0.711725
0.70845
0.704393
0.699657
0.694348
0.68857
0.682425
0.676014
0.669431
0.662762
0.656087
0.649479
0.643
0.636704
0.630636
0.624833
0.619325
0.614132
0.60927
0.60475
0.600575
0.596747
0.593261
0.590113
0.587294
0.584793
0.582601
0.580704
0.579088
0.577741
0.576648
0.575795
0.575172
0.574766
0.574565
0.574557
0.57473
0.575074
0.575577
0.576229
0.57702
0.577939
0.578978
0.580127
0.581378
0.582723
0.584154
0.585665
0.58725
0.588902
0.590616
0.59239
0.594218
0.596097
0.598026
0.600002
0.602024
0.604091
0.606202
0.608358
0.610558
0.612802
0.615091
0.617425
0.619805
0.62223
0.6247
0.627215
0.629774
0.632375
0.635017
0.637698
0.640416
0.643166
0.645948
0.648755
0.651586
0.654436
0.6573
0.660175
0.663057
0.665941
0.668824
0.671703
0.674573
0.677434
0.680281
0.683114
0.68593
0.688729
0.69151
0.694273
0.697018
0.699747
0.70246
0.705158
0.707844
0.710519
0.713186
0.715847
0.718505
0.721162
0.723821
0.726486
0.72916
0.731846
0.734548
0.737271
0.740018
0.742795
0.745606
0.748457
0.751354
0.754304
0.757313
0.760389
0.76354
0.766775
0.770101
0.773529
0.777067
0.780725
0.784511
0.788434
0.792501
0.79672
0.801095
0.805629
0.810323
0.815173
0.820174
0.825312
0.830572
0.83593
0.841354
0.846804
0.852233
0.857579
0.862774
0.867733
0.872363
0.876556
0.880192
0.883139
0.885253
0.886386
0.886387
0.885102
0.882374
0.878049
0.871979
0.864023
0.854048
0.841929
0.827552
0.810808
0.791592
0.769798
0.745316
0.718028
0.687807
0.654519
0.618034
0.578231
0.535003
0.488223
0.437616
0.382336
0.319605
0.239151
0.100854
0.0580162
0.167319
0.236701
0.292008
0.340934
0.38568
0.426952
0.464981
0.499854
0.531642
0.560441
0.586381
0.609626
0.630359
0.648773
0.665061
0.679407
0.691977
0.70292
0.712362
0.720404
0.727131
0.732606
0.73688
0.73999
0.741971
0.742852
0.74269
0.741549
0.739498
0.736609
0.732963
0.728646
0.723747
0.718358
0.712573
0.706481
0.700173
0.693733
0.687239
0.680764
0.674371
0.668119
0.662057
0.656224
0.650655
0.645376
0.640408
0.635763
0.631451
0.627477
0.62384
0.620537
0.617564
0.614913
0.612573
0.610534
0.608785
0.607312
0.606102
0.605141
0.604419
0.603924
0.603644
0.603568
0.603683
0.603979
0.604444
0.605068
0.605841
0.606751
0.60779
0.608948
0.610217
0.611587
0.613052
0.614603
0.616235
0.617942
0.619717
0.621557
0.623457
0.625414
0.627425
0.629487
0.631599
0.633759
0.635966
0.63822
0.64052
0.642865
0.645256
0.647693
0.650174
0.652701
0.655272
0.657886
0.660543
0.663241
0.665978
0.668753
0.671561
0.674402
0.677271
0.680165
0.68308
0.686013
0.68896
0.691917
0.694881
0.697847
0.700811
0.703772
0.706726
0.70967
0.712602
0.715521
0.718425
0.721312
0.724184
0.727039
0.729878
0.732701
0.73551
0.738305
0.741089
0.743864
0.746631
0.749392
0.752151
0.75491
0.757672
0.76044
0.763218
0.766009
0.768817
0.771646
0.774502
0.777389
0.780312
0.783278
0.786292
0.789362
0.792496
0.7957
0.798985
0.802358
0.805829
0.809408
0.813104
0.816928
0.820889
0.824996
0.829257
0.833681
0.838273
0.843036
0.847971
0.853078
0.858348
0.863773
0.869334
0.875008
0.880766
0.886567
0.892364
0.898096
0.903694
0.909077
0.914149
0.918805
0.922926
0.926382
0.929033
0.930741
0.931361
0.930745
0.928747
0.925221
0.920026
0.913027
0.904091
0.893093
0.879905
0.864399
0.846434
0.825861
0.802507
0.77618
0.746667
0.713737
0.67716
0.63671
0.592178
0.543326
0.489746
0.430392
0.362089
0.273497
0.120573
0.0580176
0.167323
0.236706
0.292014
0.340939
0.385685
0.426957
0.464986
0.499859
0.531646
0.560444
0.586384
0.609629
0.630361
0.648775
0.665062
0.679407
0.691978
0.702921
0.712362
0.720404
0.727131
0.732606
0.736879
0.739989
0.74197
0.742851
0.742689
0.741548
0.739496
0.736607
0.732962
0.728645
0.723746
0.718357
0.712571
0.70648
0.700172
0.693732
0.687238
0.680763
0.67437
0.668119
0.662056
0.656223
0.650654
0.645376
0.640407
0.635762
0.631451
0.627476
0.623839
0.620537
0.617564
0.614912
0.612572
0.610534
0.608784
0.607311
0.606101
0.605141
0.604419
0.603924
0.603644
0.603567
0.603682
0.603978
0.604444
0.605068
0.60584
0.606751
0.60779
0.608948
0.610216
0.611586
0.613051
0.614603
0.616235
0.617941
0.619717
0.621557
0.623457
0.625414
0.627424
0.629487
0.631598
0.633758
0.635965
0.638219
0.640519
0.642864
0.645255
0.647692
0.650174
0.6527
0.655271
0.657886
0.660543
0.663241
0.665978
0.668752
0.671561
0.674401
0.67727
0.680164
0.683079
0.686012
0.68896
0.691917
0.69488
0.697846
0.700811
0.703771
0.706725
0.709669
0.712601
0.71552
0.718424
0.721312
0.724183
0.727038
0.729877
0.7327
0.735509
0.738304
0.741088
0.743863
0.74663
0.749391
0.75215
0.754909
0.757671
0.760439
0.763217
0.766008
0.768816
0.771645
0.774501
0.777388
0.780311
0.783276
0.786291
0.789361
0.792495
0.795699
0.798984
0.802357
0.805828
0.809407
0.813103
0.816927
0.820887
0.824994
0.829256
0.83368
0.838271
0.843034
0.84797
0.853077
0.858347
0.863771
0.869332
0.875007
0.880765
0.886566
0.892363
0.898095
0.903693
0.909076
0.914148
0.918804
0.922925
0.926381
0.929033
0.930741
0.93136
0.930745
0.928746
0.92522
0.920025
0.913026
0.904091
0.893093
0.879905
0.864398
0.846434
0.82586
0.802507
0.77618
0.746666
0.713736
0.677159
0.636709
0.592176
0.543324
0.489744
0.43039
0.362086
0.273494
0.120571
0.067391
0.186161
0.260668
0.319404
0.370749
0.417172
0.459513
0.498078
0.533012
0.564434
0.592487
0.617358
0.639268
0.658463
0.675202
0.689743
0.702332
0.713193
0.722524
0.730492
0.737232
0.742849
0.747422
0.751004
0.753632
0.755328
0.756109
0.755999
0.755037
0.75327
0.750747
0.747526
0.74367
0.73925
0.734341
0.729021
0.723371
0.71747
0.711397
0.705227
0.699028
0.692867
0.6868
0.680879
0.675147
0.669643
0.664395
0.659427
0.654759
0.650402
0.646364
0.642651
0.639261
0.636192
0.633439
0.630995
0.628852
0.626998
0.625423
0.624114
0.623059
0.622247
0.621666
0.621307
0.621157
0.621206
0.621443
0.621857
0.622436
0.623171
0.624051
0.625067
0.626209
0.627469
0.628837
0.630306
0.631868
0.633517
0.635246
0.63705
0.638924
0.640863
0.642864
0.644922
0.647035
0.649201
0.651418
0.653685
0.655999
0.658361
0.660768
0.663222
0.66572
0.668262
0.670848
0.673476
0.676145
0.678854
0.681602
0.684386
0.687204
0.690054
0.692932
0.695836
0.698763
0.70171
0.704672
0.707646
0.71063
0.713619
0.71661
0.7196
0.722587
0.725567
0.728539
0.7315
0.734449
0.737385
0.740308
0.743215
0.746109
0.748988
0.751853
0.754706
0.757547
0.760379
0.763202
0.766018
0.768831
0.771642
0.774454
0.777269
0.780092
0.782925
0.785772
0.788638
0.791526
0.794441
0.797389
0.800375
0.803406
0.806488
0.809628
0.812835
0.816117
0.819483
0.822942
0.826504
0.83018
0.833979
0.837913
0.841992
0.846225
0.850622
0.855192
0.85994
0.864872
0.86999
0.875292
0.880774
0.886425
0.892232
0.898171
0.904213
0.910322
0.91645
0.922541
0.928527
0.934329
0.939857
0.945008
0.94967
0.953717
0.957022
0.959455
0.960882
0.961169
0.96018
0.957783
0.953848
0.948245
0.940846
0.931519
0.920124
0.906507
0.890491
0.871872
0.85041
0.82583
0.797821
0.766048
0.730167
0.689836
0.64472
0.594453
0.538469
0.475508
0.402013
0.305705
0.139188
0.0673927
0.186165
0.260674
0.319409
0.370754
0.417177
0.459517
0.498082
0.533016
0.564437
0.59249
0.617361
0.63927
0.658464
0.675203
0.689744
0.702332
0.713193
0.722524
0.730491
0.737231
0.742848
0.747421
0.751002
0.75363
0.755327
0.756108
0.755997
0.755036
0.753268
0.750745
0.747524
0.743668
0.739248
0.734339
0.729019
0.723369
0.717469
0.711396
0.705225
0.699027
0.692865
0.686799
0.680878
0.675146
0.669641
0.664393
0.659426
0.654758
0.650401
0.646363
0.642649
0.639259
0.636191
0.633438
0.630994
0.628851
0.626997
0.625422
0.624113
0.623058
0.622245
0.621665
0.621306
0.621156
0.621205
0.621442
0.621855
0.622435
0.62317
0.62405
0.625066
0.626208
0.627467
0.628835
0.630304
0.631867
0.633516
0.635245
0.637049
0.638923
0.640862
0.642862
0.644921
0.647034
0.6492
0.651417
0.653683
0.655998
0.658359
0.660767
0.66322
0.665718
0.668261
0.670846
0.673474
0.676144
0.678853
0.681601
0.684385
0.687203
0.690052
0.692931
0.695835
0.698762
0.701708
0.70467
0.707645
0.710628
0.713617
0.716608
0.719599
0.722585
0.725565
0.728537
0.731498
0.734448
0.737384
0.740306
0.743214
0.746107
0.748986
0.751852
0.754704
0.757546
0.760377
0.7632
0.766017
0.768829
0.77164
0.774452
0.777268
0.78009
0.782923
0.785771
0.788636
0.791524
0.794439
0.797387
0.800373
0.803404
0.806486
0.809627
0.812834
0.816115
0.819481
0.82294
0.826502
0.830178
0.833977
0.837911
0.84199
0.846223
0.850621
0.85519
0.859938
0.86487
0.869988
0.87529
0.880772
0.886424
0.89223
0.898169
0.904212
0.910321
0.916449
0.922539
0.928525
0.934327
0.939855
0.945007
0.949669
0.953716
0.957021
0.959454
0.960881
0.961168
0.960179
0.957782
0.953847
0.948244
0.940845
0.931518
0.920123
0.906506
0.890491
0.871871
0.850409
0.825829
0.79782
0.766047
0.730166
0.689834
0.644718
0.594451
0.538466
0.475505
0.40201
0.305701
0.139185
0.0766072
0.204097
0.283211
0.344943
0.398288
0.445948
0.488884
0.527486
0.561961
0.592482
0.619253
0.642519
0.662564
0.679702
0.694262
0.706566
0.716927
0.725625
0.732912
0.738998
0.744051
0.748201
0.751541
0.754132
0.756009
0.757186
0.757664
0.757441
0.75653
0.754949
0.752724
0.749887
0.746477
0.742543
0.738141
0.733332
0.728183
0.722761
0.717136
0.711376
0.705548
0.699713
0.693928
0.688245
0.682709
0.67736
0.672231
0.667349
0.662735
0.658406
0.654373
0.650644
0.647222
0.644107
0.641298
0.638788
0.636573
0.634643
0.632988
0.631599
0.630462
0.62957
0.62891
0.628474
0.628251
0.62823
0.6284
0.628752
0.629275
0.629957
0.630791
0.631765
0.632871
0.634099
0.635442
0.636891
0.638438
0.640078
0.641803
0.643607
0.645486
0.647435
0.649448
0.651523
0.653656
0.655845
0.658086
0.660379
0.66272
0.665109