/*--------------------------------*- C++ -*----------------------------------*\
  =========                 |
  \\      /  F ield         | OpenFOAM: The Open Source CFD Toolbox
   \\    /   O peration     | Website:  https://openfoam.org
    \\  /    A nd           | Version:  8
     \\/     M anipulation  |
\*---------------------------------------------------------------------------*/
FoamFile
{
    version     2.0;
    format      ascii;
    class       volScalarField;
    location    "700";
    object      nut;
}
// * * * * * * * * * * * * * * * * * * * * * * * * * * * * * * * * * * * * * //

dimensions      [0 2 -1 0 0 0 0];

internalField   nonuniform List<scalar> 
46000
(
1.87481e-07
8.28002e-07
1.71095e-06
2.70889e-06
3.75161e-06
4.76842e-06
5.77414e-06
6.70227e-06
7.57939e-06
8.40651e-06
9.18263e-06
9.90643e-06
1.05765e-05
1.11917e-05
1.17507e-05
1.22528e-05
1.26974e-05
1.30844e-05
1.34141e-05
1.36871e-05
1.39047e-05
1.40685e-05
1.41804e-05
1.42431e-05
1.42635e-05
1.4256e-05
1.42142e-05
1.41378e-05
1.40294e-05
1.38927e-05
1.37322e-05
1.35523e-05
1.33575e-05
1.3152e-05
1.29398e-05
1.27244e-05
1.25091e-05
1.22965e-05
1.20889e-05
1.18884e-05
1.16963e-05
1.15137e-05
1.13416e-05
1.11804e-05
1.10304e-05
1.08916e-05
1.0764e-05
1.06474e-05
1.05414e-05
1.04456e-05
1.03595e-05
1.02829e-05
1.02151e-05
1.01557e-05
1.01041e-05
1.00601e-05
1.0023e-05
9.99245e-06
9.96811e-06
9.95112e-06
9.93988e-06
9.93365e-06
9.93203e-06
9.9347e-06
9.9414e-06
9.95189e-06
9.96592e-06
9.98328e-06
1.00038e-05
1.00271e-05
1.00532e-05
1.00817e-05
1.01126e-05
1.01456e-05
1.01805e-05
1.02173e-05
1.02557e-05
1.02957e-05
1.03372e-05
1.03801e-05
1.04242e-05
1.04696e-05
1.05163e-05
1.05641e-05
1.06131e-05
1.06634e-05
1.07149e-05
1.07677e-05
1.08218e-05
1.08772e-05
1.09341e-05
1.09924e-05
1.10522e-05
1.11135e-05
1.11763e-05
1.12407e-05
1.13066e-05
1.1374e-05
1.14428e-05
1.15131e-05
1.15846e-05
1.16574e-05
1.17313e-05
1.18062e-05
1.1882e-05
1.19585e-05
1.20355e-05
1.2113e-05
1.21907e-05
1.22686e-05
1.23464e-05
1.24242e-05
1.25017e-05
1.25788e-05
1.26556e-05
1.27318e-05
1.28076e-05
1.28827e-05
1.29574e-05
1.30314e-05
1.31049e-05
1.31779e-05
1.32505e-05
1.33227e-05
1.33946e-05
1.34662e-05
1.35377e-05
1.36091e-05
1.36805e-05
1.37519e-05
1.38236e-05
1.38955e-05
1.39678e-05
1.40406e-05
1.41138e-05
1.41878e-05
1.42625e-05
1.4338e-05
1.44145e-05
1.44922e-05
1.45711e-05
1.46514e-05
1.47334e-05
1.48171e-05
1.49029e-05
1.49909e-05
1.50814e-05
1.51747e-05
1.52709e-05
1.53705e-05
1.54736e-05
1.55805e-05
1.56916e-05
1.58069e-05
1.59268e-05
1.60513e-05
1.61806e-05
1.63146e-05
1.64533e-05
1.65965e-05
1.67438e-05
1.68946e-05
1.70482e-05
1.72036e-05
1.73595e-05
1.75143e-05
1.7666e-05
1.78122e-05
1.79502e-05
1.80767e-05
1.81879e-05
1.82797e-05
1.8348e-05
1.83904e-05
1.84036e-05
1.83787e-05
1.83089e-05
1.81876e-05
1.80088e-05
1.77667e-05
1.74558e-05
1.70715e-05
1.66098e-05
1.6068e-05
1.54448e-05
1.47402e-05
1.39562e-05
1.30968e-05
1.21679e-05
1.11775e-05
1.01359e-05
9.05521e-06
7.94914e-06
6.83067e-06
5.69686e-06
4.57201e-06
3.47488e-06
2.3666e-06
1.29984e-06
3.22128e-07
1.87333e-07
8.28308e-07
1.71165e-06
2.70989e-06
3.75205e-06
4.7684e-06
5.77386e-06
6.70186e-06
7.57896e-06
8.40612e-06
9.18231e-06
9.90617e-06
1.05763e-05
1.11915e-05
1.17506e-05
1.22528e-05
1.26975e-05
1.30845e-05
1.34142e-05
1.36872e-05
1.39048e-05
1.40686e-05
1.41806e-05
1.42433e-05
1.42637e-05
1.42562e-05
1.42144e-05
1.4138e-05
1.40295e-05
1.38929e-05
1.37324e-05
1.35525e-05
1.33577e-05
1.31522e-05
1.294e-05
1.27246e-05
1.25092e-05
1.22966e-05
1.20891e-05
1.18885e-05
1.16964e-05
1.15139e-05
1.13418e-05
1.11806e-05
1.10306e-05
1.08918e-05
1.07642e-05
1.06475e-05
1.05415e-05
1.04457e-05
1.03597e-05
1.0283e-05
1.02152e-05
1.01558e-05
1.01043e-05
1.00602e-05
1.00232e-05
9.99261e-06
9.96827e-06
9.95128e-06
9.94002e-06
9.93379e-06
9.93217e-06
9.93484e-06
9.94154e-06
9.95203e-06
9.96607e-06
9.98344e-06
1.00039e-05
1.00273e-05
1.00533e-05
1.00819e-05
1.01127e-05
1.01457e-05
1.01807e-05
1.02175e-05
1.02559e-05
1.02959e-05
1.03374e-05
1.03803e-05
1.04244e-05
1.04698e-05
1.05165e-05
1.05643e-05
1.06133e-05
1.06636e-05
1.07151e-05
1.07679e-05
1.0822e-05
1.08774e-05
1.09343e-05
1.09926e-05
1.10524e-05
1.11137e-05
1.11765e-05
1.12409e-05
1.13068e-05
1.13742e-05
1.1443e-05
1.15133e-05
1.15848e-05
1.16576e-05
1.17315e-05
1.18064e-05
1.18822e-05
1.19586e-05
1.20357e-05
1.21131e-05
1.21909e-05
1.22688e-05
1.23466e-05
1.24244e-05
1.25018e-05
1.2579e-05
1.26557e-05
1.2732e-05
1.28077e-05
1.28829e-05
1.29575e-05
1.30316e-05
1.31051e-05
1.31781e-05
1.32507e-05
1.33229e-05
1.33947e-05
1.34664e-05
1.35378e-05
1.36092e-05
1.36806e-05
1.37521e-05
1.38237e-05
1.38957e-05
1.3968e-05
1.40407e-05
1.4114e-05
1.41879e-05
1.42626e-05
1.43381e-05
1.44147e-05
1.44923e-05
1.45712e-05
1.46516e-05
1.47335e-05
1.48173e-05
1.4903e-05
1.4991e-05
1.50815e-05
1.51748e-05
1.52711e-05
1.53706e-05
1.54737e-05
1.55807e-05
1.56917e-05
1.58071e-05
1.59269e-05
1.60514e-05
1.61807e-05
1.63148e-05
1.64535e-05
1.65967e-05
1.67439e-05
1.68947e-05
1.70483e-05
1.72037e-05
1.73596e-05
1.75144e-05
1.76661e-05
1.78124e-05
1.79503e-05
1.80768e-05
1.8188e-05
1.82799e-05
1.83481e-05
1.83906e-05
1.84038e-05
1.83789e-05
1.8309e-05
1.81878e-05
1.8009e-05
1.77669e-05
1.7456e-05
1.70717e-05
1.661e-05
1.60682e-05
1.54449e-05
1.47404e-05
1.39564e-05
1.3097e-05
1.21681e-05
1.11777e-05
1.01361e-05
9.05546e-06
7.9494e-06
6.83094e-06
5.69712e-06
4.5722e-06
3.47503e-06
2.36685e-06
1.30001e-06
3.22164e-07
7.34428e-07
1.79058e-05
3.47973e-05
4.73942e-05
5.71953e-05
6.5397e-05
7.24717e-05
7.87329e-05
8.42663e-05
8.91451e-05
9.34313e-05
9.71775e-05
0.000100429
0.000103225
0.000105604
0.000107597
0.000109237
0.000110553
0.000111573
0.000112325
0.000112831
0.000113117
0.000113201
0.000113094
0.00011278
0.000112273
0.000111654
0.000110948
0.000110176
0.000109357
0.00010851
0.000107647
0.000106781
0.000105924
0.000105084
0.000104268
0.000103484
0.000102735
0.000102026
0.000101358
0.000100733
0.000100152
9.96146e-05
9.91201e-05
9.86674e-05
9.82552e-05
9.78819e-05
9.75455e-05
9.72443e-05
9.69764e-05
9.67398e-05
9.65329e-05
9.63539e-05
9.62012e-05
9.60733e-05
9.59686e-05
9.58858e-05
9.5823e-05
9.57774e-05
9.57417e-05
9.57231e-05
9.57214e-05
9.57362e-05
9.57668e-05
9.58126e-05
9.58727e-05
9.59463e-05
9.60327e-05
9.6131e-05
9.62404e-05
9.63602e-05
9.64896e-05
9.66278e-05
9.67743e-05
9.69284e-05
9.70895e-05
9.72571e-05
9.74309e-05
9.76103e-05
9.77952e-05
9.79853e-05
9.81804e-05
9.83805e-05
9.85854e-05
9.87951e-05
9.90098e-05
9.92295e-05
9.94542e-05
9.96841e-05
9.99193e-05
0.00010016
0.000100406
0.000100657
0.000100914
0.000101176
0.000101444
0.000101716
0.000101993
0.000102275
0.00010256
0.000102849
0.000103142
0.000103437
0.000103733
0.000104032
0.000104331
0.00010463
0.000104929
0.000105227
0.000105524
0.000105818
0.000106111
0.000106401
0.000106689
0.000106973
0.000107255
0.000107533
0.000107808
0.00010808
0.00010835
0.000108617
0.000108881
0.000109144
0.000109404
0.000109664
0.000109922
0.000110179
0.000110436
0.000110693
0.00011095
0.000111207
0.000111466
0.000111726
0.000111987
0.00011225
0.000112516
0.000112784
0.000113055
0.000113331
0.00011361
0.000113894
0.000114184
0.00011448
0.000114782
0.000115092
0.000115411
0.000115739
0.000116078
0.000116428
0.00011679
0.000117165
0.000117554
0.000117958
0.000118378
0.000118813
0.000119265
0.000119733
0.000120216
0.000120715
0.000121228
0.000121753
0.000122287
0.000122828
0.000123371
0.000123911
0.000124442
0.000124957
0.000125446
0.000125901
0.000126308
0.000126656
0.000126929
0.000127112
0.000127186
0.000127106
0.000126859
0.000126427
0.00012579
0.000124927
0.000123816
0.000122437
0.000120769
0.000118795
0.000116499
0.000113869
0.000110897
0.000107577
0.000103908
9.98958e-05
9.55472e-05
9.08737e-05
8.58878e-05
8.05981e-05
7.50007e-05
6.90588e-05
6.25162e-05
5.45403e-05
4.29417e-05
2.33044e-05
1.23593e-06
7.34172e-07
1.79099e-05
3.4803e-05
4.73947e-05
5.71953e-05
6.53969e-05
7.24716e-05
7.87328e-05
8.42662e-05
8.91449e-05
9.34312e-05
9.71774e-05
0.000100429
0.000103225
0.000105604
0.000107597
0.000109237
0.000110553
0.000111574
0.000112325
0.000112832
0.000113117
0.000113201
0.000113094
0.00011278
0.000112273
0.000111654
0.000110948
0.000110176
0.000109358
0.00010851
0.000107647
0.000106782
0.000105924
0.000105084
0.000104269
0.000103485
0.000102736
0.000102026
0.000101359
0.000100734
0.000100153
9.9615e-05
9.91205e-05
9.86678e-05
9.82556e-05
9.78822e-05
9.75459e-05
9.72447e-05
9.69767e-05
9.67402e-05
9.65333e-05
9.63543e-05
9.62016e-05
9.60737e-05
9.5969e-05
9.58862e-05
9.58234e-05
9.57777e-05
9.5742e-05
9.57234e-05
9.57217e-05
9.57365e-05
9.57671e-05
9.58128e-05
9.58729e-05
9.59466e-05
9.6033e-05
9.61313e-05
9.62407e-05
9.63605e-05
9.64899e-05
9.66282e-05
9.67746e-05
9.69287e-05
9.70898e-05
9.72575e-05
9.74312e-05
9.76107e-05
9.77956e-05
9.79857e-05
9.81808e-05
9.83808e-05
9.85857e-05
9.87955e-05
9.90101e-05
9.92298e-05
9.94545e-05
9.96844e-05
9.99196e-05
0.00010016
0.000100406
0.000100658
0.000100914
0.000101177
0.000101444
0.000101716
0.000101993
0.000102275
0.000102561
0.00010285
0.000103142
0.000103437
0.000103734
0.000104032
0.000104331
0.00010463
0.000104929
0.000105227
0.000105524
0.000105819
0.000106111
0.000106402
0.000106689
0.000106973
0.000107255
0.000107533
0.000107808
0.000108081
0.00010835
0.000108617
0.000108882
0.000109144
0.000109405
0.000109664
0.000109922
0.000110179
0.000110436
0.000110693
0.00011095
0.000111208
0.000111466
0.000111726
0.000111987
0.00011225
0.000112516
0.000112784
0.000113056
0.000113331
0.00011361
0.000113894
0.000114184
0.00011448
0.000114782
0.000115092
0.000115411
0.000115739
0.000116078
0.000116428
0.00011679
0.000117165
0.000117554
0.000117958
0.000118378
0.000118813
0.000119265
0.000119733
0.000120216
0.000120715
0.000121228
0.000121753
0.000122287
0.000122828
0.000123371
0.000123911
0.000124442
0.000124957
0.000125446
0.000125901
0.000126308
0.000126656
0.00012693
0.000127113
0.000127187
0.000127106
0.000126859
0.000126427
0.00012579
0.000124927
0.000123816
0.000122437
0.000120769
0.000118795
0.0001165
0.00011387
0.000110897
0.000107577
0.000103909
9.98965e-05
9.5548e-05
9.08746e-05
8.58888e-05
8.05994e-05
7.5002e-05
6.90602e-05
6.25175e-05
5.45415e-05
4.29423e-05
2.3305e-05
1.23595e-06
1.39029e-06
3.35104e-05
6.8408e-05
9.41825e-05
0.000114588
0.00013153
0.000145931
0.000158324
0.000169014
0.000178209
0.000186071
0.000192737
0.000198325
0.000202942
0.000206687
0.000209652
0.000211922
0.000213578
0.000214694
0.000215337
0.000215571
0.000215449
0.000215019
0.000214317
0.000213359
0.000212152
0.000210804
0.000209359
0.000207852
0.000206315
0.000204775
0.000203252
0.000201767
0.000200332
0.000198959
0.000197658
0.000196433
0.000195291
0.000194231
0.000193256
0.000192363
0.000191552
0.000190818
0.000190159
0.00018957
0.000189046
0.000188583
0.000188178
0.000187824
0.000187519
0.000187257
0.000187037
0.000186854
0.000186706
0.00018659
0.000186504
0.000186444
0.000186409
0.000186395
0.000186395
0.000186416
0.000186456
0.000186516
0.000186596
0.000186694
0.00018681
0.000186944
0.000187095
0.000187261
0.000187442
0.000187637
0.000187845
0.000188066
0.000188298
0.000188541
0.000188794
0.000189057
0.00018933
0.000189611
0.000189901
0.000190199
0.000190506
0.000190821
0.000191145
0.000191476
0.000191816
0.000192165
0.000192522
0.000192889
0.000193264
0.000193647
0.00019404
0.000194441
0.000194851
0.000195268
0.000195694
0.000196126
0.000196565
0.00019701
0.000197459
0.000197913
0.000198369
0.000198828
0.000199288
0.000199748
0.000200208
0.000200665
0.000201121
0.000201572
0.00020202
0.000202464
0.000202902
0.000203335
0.000203763
0.000204185
0.000204602
0.000205013
0.00020542
0.000205821
0.000206219
0.000206613
0.000207003
0.000207391
0.000207777
0.000208161
0.000208544
0.000208927
0.00020931
0.000209695
0.00021008
0.000210467
0.000210857
0.00021125
0.000211646
0.000212046
0.000212451
0.000212861
0.000213278
0.000213701
0.000214132
0.000214573
0.000215023
0.000215484
0.000215957
0.000216445
0.000216947
0.000217467
0.000218004
0.000218562
0.000219142
0.000219744
0.000220371
0.000221024
0.000221704
0.000222412
0.000223147
0.000223911
0.000224702
0.000225519
0.00022636
0.000227222
0.000228101
0.000228991
0.000229885
0.000230776
0.000231652
0.000232503
0.000233314
0.000234068
0.000234747
0.000235331
0.000235796
0.000236117
0.000236256
0.000236169
0.000235827
0.000235201
0.000234258
0.000232966
0.000231292
0.000229203
0.000226668
0.000223654
0.000220135
0.000216083
0.000211474
0.000206286
0.000200496
0.000194083
0.000187024
0.000179286
0.000170818
0.000161532
0.000151252
0.000139608
0.000125769
0.000107921
8.23919e-05
4.30547e-05
2.53586e-06
1.39043e-06
3.35113e-05
6.84091e-05
9.41825e-05
0.000114587
0.00013153
0.00014593
0.000158323
0.000169013
0.000178208
0.000186071
0.000192737
0.000198325
0.000202942
0.000206687
0.000209652
0.000211922
0.000213578
0.000214694
0.000215337
0.000215571
0.000215449
0.00021502
0.000214317
0.00021336
0.000212152
0.000210805
0.00020936
0.000207853
0.000206316
0.000204775
0.000203253
0.000201767
0.000200333
0.00019896
0.000197658
0.000196434
0.000195291
0.000194232
0.000193257
0.000192364
0.000191553
0.000190819
0.00019016
0.00018957
0.000189047
0.000188584
0.000188178
0.000187825
0.000187519
0.000187258
0.000187038
0.000186855
0.000186707
0.000186591
0.000186504
0.000186445
0.00018641
0.000186395
0.000186396
0.000186416
0.000186457
0.000186517
0.000186596
0.000186694
0.000186811
0.000186945
0.000187095
0.000187261
0.000187442
0.000187637
0.000187846
0.000188066
0.000188298
0.000188541
0.000188795
0.000189058
0.00018933
0.000189612
0.000189902
0.0001902
0.000190507
0.000190822
0.000191145
0.000191477
0.000191817
0.000192166
0.000192523
0.000192889
0.000193264
0.000193648
0.00019404
0.000194442
0.000194851
0.000195269
0.000195694
0.000196127
0.000196565
0.00019701
0.00019746
0.000197913
0.00019837
0.000198829
0.000199289
0.000199749
0.000200208
0.000200666
0.000201121
0.000201573
0.000202021
0.000202464
0.000202903
0.000203336
0.000203763
0.000204186
0.000204602
0.000205014
0.00020542
0.000205822
0.000206219
0.000206613
0.000207003
0.000207391
0.000207777
0.000208161
0.000208544
0.000208927
0.000209311
0.000209695
0.00021008
0.000210468
0.000210857
0.00021125
0.000211646
0.000212046
0.000212451
0.000212862
0.000213278
0.000213702
0.000214133
0.000214573
0.000215023
0.000215484
0.000215957
0.000216445
0.000216947
0.000217467
0.000218005
0.000218563
0.000219142
0.000219745
0.000220372
0.000221025
0.000221704
0.000222412
0.000223148
0.000223911
0.000224702
0.000225519
0.00022636
0.000227222
0.000228101
0.000228991
0.000229885
0.000230776
0.000231653
0.000232503
0.000233314
0.000234068
0.000234747
0.000235331
0.000235797
0.000236117
0.000236256
0.000236169
0.000235827
0.000235201
0.000234258
0.000232966
0.000231293
0.000229204
0.000226668
0.000223655
0.000220136
0.000216084
0.000211475
0.000206286
0.000200496
0.000194084
0.000187025
0.000179286
0.000170819
0.000161533
0.000151252
0.000139609
0.000125769
0.000107922
8.23923e-05
4.30551e-05
2.53584e-06
2.05477e-06
4.30142e-05
8.98373e-05
0.000126362
0.000155801
0.000180331
0.000201161
0.000219006
0.000234318
0.000247416
0.000258542
0.000267896
0.000275656
0.000281981
0.000287021
0.000290917
0.000293802
0.0002958
0.000297029
0.000297596
0.000297597
0.000297121
0.000296242
0.000295022
0.000293508
0.000291732
0.000289791
0.000287744
0.000285637
0.000283513
0.000281404
0.000279337
0.000277336
0.000275418
0.000273597
0.000271882
0.000270281
0.000268798
0.000267434
0.000266188
0.000265057
0.000264039
0.000263128
0.000262318
0.000261603
0.000260976
0.000260431
0.000259959
0.000259557
0.000259216
0.000258931
0.000258698
0.000258511
0.000258367
0.000258261
0.000258189
0.00025815
0.000258139
0.000258152
0.000258186
0.000258242
0.00025832
0.00025842
0.000258541
0.000258683
0.000258845
0.000259027
0.000259227
0.000259446
0.000259681
0.000259933
0.0002602
0.000260482
0.000260779
0.000261088
0.00026141
0.000261745
0.000262091
0.000262449
0.000262819
0.000263199
0.000263591
0.000263993
0.000264407
0.000264832
0.000265268
0.000265716
0.000266175
0.000266646
0.000267128
0.000267622
0.000268127
0.000268642
0.000269169
0.000269705
0.00027025
0.000270804
0.000271365
0.000271933
0.000272505
0.000273082
0.000273661
0.000274242
0.000274823
0.000275403
0.00027598
0.000276554
0.000277123
0.000277688
0.000278246
0.000278797
0.000279341
0.000279878
0.000280407
0.000280929
0.000281444
0.000281952
0.000282453
0.000282948
0.000283439
0.000283924
0.000284406
0.000284886
0.000285363
0.000285838
0.000286314
0.000286789
0.000287266
0.000287744
0.000288225
0.000288709
0.000289197
0.000289689
0.000290187
0.000290691
0.000291201
0.00029172
0.000292248
0.000292785
0.000293334
0.000293895
0.00029447
0.000295061
0.000295669
0.000296297
0.000296946
0.000297619
0.000298317
0.000299043
0.000299799
0.000300587
0.000301409
0.000302268
0.000303163
0.000304097
0.00030507
0.000306082
0.000307133
0.000308221
0.000309343
0.000310495
0.000311673
0.000312869
0.000314075
0.00031528
0.000316472
0.000317634
0.000318749
0.000319797
0.000320755
0.000321595
0.000322289
0.000322804
0.000323093
0.000323115
0.000322831
0.000322203
0.000321189
0.000319748
0.000317838
0.000315417
0.00031244
0.000308867
0.000304653
0.000299755
0.000294128
0.000287724
0.000280491
0.000272369
0.000263282
0.000253131
0.000241773
0.000228982
0.000214374
0.000197253
0.000176313
0.000149106
0.00011129
5.70728e-05
4.02201e-06
2.05498e-06
4.30155e-05
8.98375e-05
0.000126362
0.0001558
0.00018033
0.00020116
0.000219005
0.000234318
0.000247415
0.000258541
0.000267896
0.000275655
0.000281981
0.000287021
0.000290917
0.000293802
0.000295801
0.00029703
0.000297597
0.000297598
0.000297122
0.000296243
0.000295023
0.000293509
0.000291733
0.000289792
0.000287745
0.000285639
0.000283515
0.000281405
0.000279339
0.000277338
0.00027542
0.000273599
0.000271884
0.000270283
0.0002688
0.000267435
0.000266189
0.000265059
0.000264041
0.00026313
0.00026232
0.000261605
0.000260978
0.000260432
0.000259961
0.000259558
0.000259217
0.000258933
0.000258699
0.000258513
0.000258368
0.000258262
0.000258191
0.000258151
0.00025814
0.000258153
0.000258187
0.000258243
0.000258321
0.000258421
0.000258542
0.000258684
0.000258846
0.000259028
0.000259229
0.000259447
0.000259682
0.000259934
0.000260202
0.000260484
0.00026078
0.000261089
0.000261412
0.000261746
0.000262093
0.000262451
0.00026282
0.0002632
0.000263592
0.000263994
0.000264408
0.000264833
0.000265269
0.000265717
0.000266176
0.000266647
0.000267129
0.000267623
0.000268128
0.000268644
0.00026917
0.000269706
0.000270252
0.000270805
0.000271366
0.000271934
0.000272506
0.000273083
0.000273662
0.000274243
0.000274824
0.000275404
0.000275981
0.000276555
0.000277125
0.000277689
0.000278247
0.000278798
0.000279342
0.000279879
0.000280408
0.00028093
0.000281445
0.000281953
0.000282454
0.000282949
0.00028344
0.000283925
0.000284407
0.000284887
0.000285364
0.000285839
0.000286315
0.00028679
0.000287267
0.000287745
0.000288226
0.00028871
0.000289198
0.00028969
0.000290188
0.000290692
0.000291202
0.000291721
0.000292249
0.000292786
0.000293335
0.000293896
0.000294471
0.000295062
0.00029567
0.000296298
0.000296947
0.00029762
0.000298318
0.000299044
0.0002998
0.000300588
0.00030141
0.000302268
0.000303164
0.000304098
0.000305071
0.000306083
0.000307134
0.000308221
0.000309344
0.000310496
0.000311674
0.00031287
0.000314076
0.000315281
0.000316472
0.000317635
0.00031875
0.000319798
0.000320755
0.000321595
0.000322289
0.000322805
0.000323094
0.000323116
0.000322832
0.000322204
0.00032119
0.000319749
0.00031784
0.000315418
0.000312442
0.000308868
0.000304654
0.000299756
0.000294129
0.000287725
0.000280493
0.00027237
0.000263284
0.000253133
0.000241774
0.000228983
0.000214375
0.000197254
0.000176314
0.000149106
0.00011129
5.70729e-05
4.02196e-06
2.72304e-06
4.9486e-05
0.000104644
0.000149307
0.000185838
0.000216456
0.000242523
0.000264878
0.000284074
0.000300497
0.000314447
0.000326167
0.000335874
0.000343764
0.000350022
0.000354825
0.00035834
0.000360729
0.000362142
0.000362721
0.000362593
0.000361875
0.000360669
0.00035906
0.000357121
0.000354912
0.000352504
0.000349986
0.000347411
0.000344824
0.000342265
0.000339766
0.000337352
0.000335044
0.000332855
0.000330799
0.000328881
0.000327107
0.000325477
0.00032399
0.000322644
0.000321433
0.000320352
0.000319392
0.000318548
0.00031781
0.000317171
0.000316621
0.000316154
0.000315762
0.000315437
0.000315174
0.000314966
0.000314807
0.000314694
0.000314622
0.000314587
0.000314584
0.000314611
0.000314662
0.00031474
0.000314841
0.000314967
0.000315116
0.000315288
0.000315482
0.000315698
0.000315934
0.00031619
0.000316465
0.000316759
0.00031707
0.000317398
0.000317743
0.000318103
0.000318477
0.000318867
0.00031927
0.000319687
0.000320118
0.000320563
0.00032102
0.000321492
0.000321976
0.000322474
0.000322986
0.000323512
0.000324051
0.000324604
0.00032517
0.000325749
0.000326342
0.000326946
0.000327563
0.00032819
0.000328828
0.000329474
0.000330129
0.000330789
0.000331455
0.000332125
0.000332796
0.000333469
0.00033414
0.00033481
0.000335475
0.000336136
0.000336791
0.000337439
0.000338079
0.000338711
0.000339335
0.000339949
0.000340555
0.000341152
0.00034174
0.000342321
0.000342894
0.000343461
0.000344022
0.000344578
0.00034513
0.000345679
0.000346226
0.000346772
0.000347318
0.000347864
0.000348413
0.000348964
0.000349518
0.000350077
0.000350641
0.000351211
0.000351787
0.000352372
0.000352965
0.000353569
0.000354183
0.000354811
0.000355452
0.000356109
0.000356784
0.000357479
0.000358196
0.000358936
0.000359704
0.000360501
0.00036133
0.000362193
0.000363094
0.000364035
0.000365019
0.000366048
0.000367123
0.000368247
0.00036942
0.000370643
0.000371914
0.000373234
0.000374598
0.000376003
0.000377443
0.00037891
0.000380394
0.000381883
0.000383363
0.000384817
0.000386224
0.00038756
0.000388799
0.000389912
0.000390864
0.000391619
0.000392127
0.000392346
0.000392232
0.00039174
0.000390823
0.000389432
0.000387519
0.000385031
0.000381915
0.000378117
0.000373578
0.000368236
0.000362022
0.000354859
0.00034666
0.000337318
0.000326701
0.000314636
0.000300882
0.00028508
0.00026666
0.000244673
0.000217474
0.000182219
0.000134244
6.82366e-05
5.49553e-06
2.72321e-06
4.94867e-05
0.000104644
0.000149307
0.000185837
0.000216455
0.000242522
0.000264877
0.000284073
0.000300496
0.000314446
0.000326167
0.000335874
0.000343764
0.000350022
0.000354825
0.000358341
0.00036073
0.000362143
0.000362722
0.000362594
0.000361877
0.00036067
0.000359062
0.000357123
0.000354914
0.000352506
0.000349988
0.000347413
0.000344826
0.000342268
0.000339769
0.000337355
0.000335046
0.000332858
0.000330801
0.000328884
0.000327109
0.000325479
0.000323993
0.000322646
0.000321435
0.000320354
0.000319395
0.00031855
0.000317812
0.000317173
0.000316623
0.000316156
0.000315764
0.000315439
0.000315176
0.000314968
0.000314809
0.000314696
0.000314624
0.000314589
0.000314586
0.000314613
0.000314664
0.000314741
0.000314843
0.000314969
0.000315118
0.00031529
0.000315484
0.0003157
0.000315936
0.000316192
0.000316467
0.000316761
0.000317072
0.0003174
0.000317745
0.000318104
0.000318479
0.000318868
0.000319272
0.000319689
0.00032012
0.000320564
0.000321022
0.000321493
0.000321978
0.000322476
0.000322988
0.000323514
0.000324053
0.000324605
0.000325172
0.000325751
0.000326343
0.000326948
0.000327565
0.000328192
0.00032883
0.000329476
0.00033013
0.000330791
0.000331457
0.000332126
0.000332798
0.00033347
0.000334142
0.000334811
0.000335477
0.000336138
0.000336793
0.000337441
0.000338081
0.000338713
0.000339336
0.000339951
0.000340557
0.000341154
0.000341742
0.000342323
0.000342896
0.000343463
0.000344023
0.000344579
0.000345131
0.00034568
0.000346227
0.000346773
0.000347319
0.000347866
0.000348414
0.000348965
0.00034952
0.000350078
0.000350642
0.000351212
0.000351789
0.000352373
0.000352967
0.00035357
0.000354185
0.000354812
0.000355453
0.000356111
0.000356786
0.00035748
0.000358197
0.000358938
0.000359705
0.000360502
0.000361331
0.000362195
0.000363096
0.000364037
0.00036502
0.000366049
0.000367124
0.000368248
0.000369421
0.000370644
0.000371916
0.000373235
0.000374599
0.000376004
0.000377444
0.000378911
0.000380395
0.000381884
0.000383364
0.000384818
0.000386225
0.000387561
0.000388801
0.000389913
0.000390865
0.00039162
0.000392128
0.000392347
0.000392233
0.000391741
0.000390824
0.000389434
0.00038752
0.000385032
0.000381917
0.000378119
0.00037358
0.000368237
0.000362023
0.000354861
0.000346662
0.00033732
0.000326703
0.000314638
0.000300883
0.000285081
0.000266662
0.000244674
0.000217475
0.000182219
0.000134244
6.82366e-05
5.49543e-06
3.39012e-06
5.47261e-05
0.000116078
0.000166897
0.000208919
0.000244327
0.000274559
0.00030054
0.000322886
0.000342036
0.000358325
0.000372029
0.000383389
0.000392626
0.000399949
0.000405559
0.000409651
0.000412412
0.00041402
0.000414644
0.000414438
0.000413544
0.000412086
0.000410174
0.000407899
0.000405341
0.000402567
0.000399677
0.000396731
0.00039378
0.000390867
0.000388027
0.000385286
0.000382667
0.000380185
0.000377852
0.000375676
0.00037366
0.000371806
0.000370113
0.000368577
0.000367192
0.000365954
0.000364853
0.000363882
0.000363031
0.000362292
0.000361656
0.000361114
0.000360658
0.000360279
0.00035997
0.000359725
0.000359538
0.000359402
0.000359313
0.000359266
0.000359256
0.000359281
0.000359336
0.000359418
0.000359529
0.000359666
0.000359829
0.000360018
0.00036023
0.000360467
0.000360726
0.000361006
0.000361309
0.000361631
0.000361973
0.000362334
0.000362714
0.000363111
0.000363525
0.000363955
0.000364402
0.000364866
0.000365344
0.000365839
0.000366349
0.000366874
0.000367415
0.000367971
0.000368543
0.00036913
0.000369732
0.000370349
0.000370981
0.000371628
0.000372289
0.000372963
0.000373649
0.000374347
0.000375055
0.000375772
0.000376497
0.000377229
0.000377965
0.000378704
0.000379445
0.000380185
0.000380924
0.00038166
0.000382391
0.000383116
0.000383834
0.000384545
0.000385246
0.000385938
0.00038662
0.000387293
0.000387955
0.000388609
0.000389253
0.000389888
0.000390516
0.000391137
0.000391752
0.000392362
0.000392967
0.00039357
0.000394171
0.000394772
0.000395372
0.000395974
0.000396578
0.000397186
0.000397798
0.000398415
0.000399038
0.000399668
0.000400307
0.000400955
0.000401613
0.000402284
0.000402968
0.000403667
0.000404382
0.000405117
0.000405872
0.000406651
0.000407455
0.000408289
0.000409153
0.000410053
0.00041099
0.000411968
0.00041299
0.000414059
0.000415179
0.000416352
0.00041758
0.000418867
0.000420212
0.000421617
0.000423081
0.000424604
0.000426182
0.000427811
0.000429486
0.000431198
0.000432937
0.000434691
0.000436443
0.000438176
0.000439867
0.000441492
0.000443022
0.000444425
0.000445665
0.000446701
0.000447486
0.000447975
0.000448121
0.000447875
0.000447186
0.000446001
0.000444262
0.000441911
0.000438884
0.000435114
0.000430525
0.000425036
0.000418552
0.000410965
0.000402148
0.000391947
0.000380172
0.000366577
0.000350828
0.000332447
0.00031071
0.000284471
0.000251846
0.000209731
0.00015329
7.76432e-05
6.95897e-06
3.39024e-06
5.47265e-05
0.000116078
0.000166896
0.000208918
0.000244326
0.000274558
0.000300539
0.000322885
0.000342035
0.000358324
0.000372029
0.000383389
0.000392626
0.000399949
0.00040556
0.000409652
0.000412413
0.000414021
0.000414645
0.00041444
0.000413546
0.000412088
0.000410176
0.000407902
0.000405344
0.00040257
0.000399679
0.000396733
0.000393783
0.00039087
0.000388029
0.000385289
0.000382669
0.000380188
0.000377855
0.000375678
0.000373662
0.000371809
0.000370115
0.000368579
0.000367195
0.000365956
0.000364856
0.000363884
0.000363034
0.000362295
0.000361659
0.000361117
0.00036066
0.000360281
0.000359973
0.000359728
0.00035954
0.000359404
0.000359315
0.000359268
0.000359259
0.000359283
0.000359338
0.000359421
0.000359531
0.000359668
0.000359832
0.00036002
0.000360233
0.000360469
0.000360728
0.000361009
0.000361311
0.000361633
0.000361975
0.000362336
0.000362716
0.000363113
0.000363527
0.000363958
0.000364405
0.000364868
0.000365347
0.000365841
0.000366351
0.000366876
0.000367417
0.000367973
0.000368545
0.000369132
0.000369734
0.000370351
0.000370984
0.00037163
0.000372291
0.000372965
0.000373651
0.000374349
0.000375057
0.000375774
0.000376499
0.000377231
0.000377967
0.000378706
0.000379447
0.000380187
0.000380926
0.000381662
0.000382393
0.000383118
0.000383836
0.000384547
0.000385248
0.00038594
0.000386622
0.000387295
0.000387957
0.000388611
0.000389255
0.00038989
0.000390518
0.000391139
0.000391754
0.000392363
0.000392969
0.000393572
0.000394173
0.000394773
0.000395374
0.000395976
0.00039658
0.000397188
0.000397799
0.000398416
0.00039904
0.00039967
0.000400309
0.000400957
0.000401615
0.000402286
0.00040297
0.000403668
0.000404384
0.000405119
0.000405874
0.000406653
0.000407457
0.00040829
0.000409155
0.000410054
0.000410991
0.000411969
0.000412991
0.000414061
0.00041518
0.000416353
0.000417582
0.000418868
0.000420213
0.000421618
0.000423083
0.000424605
0.000426183
0.000427813
0.000429488
0.0004312
0.000432939
0.000434692
0.000436445
0.000438177
0.000439869
0.000441494
0.000443024
0.000444426
0.000445666
0.000446703
0.000447488
0.000447977
0.000448123
0.000447877
0.000447188
0.000446002
0.000444264
0.000441913
0.000438886
0.000435116
0.000430527
0.000425038
0.000418554
0.000410967
0.00040215
0.000391949
0.000380174
0.000366579
0.00035083
0.000332448
0.000310712
0.000284472
0.000251847
0.000209732
0.00015329
7.76432e-05
6.95883e-06
4.07295e-06
5.94082e-05
0.000125668
0.000181258
0.000227557
0.000266713
0.00030022
0.000329059
0.000353898
0.000375212
0.000393367
0.00040866
0.000421351
0.000431677
0.000439866
0.000446134
0.000450696
0.000453757
0.000455518
0.000456169
0.000455886
0.000454832
0.000453152
0.000450975
0.000448411
0.00044555
0.000442471
0.000439272
0.000436021
0.000432773
0.000429574
0.00042646
0.000423459
0.000420593
0.000417877
0.000415323
0.000412938
0.000410726
0.000408688
0.000406821
0.000405123
0.000403588
0.00040221
0.000400979
0.000399889
0.00039893
0.000398092
0.000397366
0.000396744
0.000396216
0.000395774
0.00039541
0.000395116
0.000394887
0.000394715
0.000394596
0.000394524
0.000394495
0.000394504
0.000394548
0.000394624
0.00039473
0.000394866