/*--------------------------------*- C++ -*----------------------------------*\
  =========                 |
  \\      /  F ield         | OpenFOAM: The Open Source CFD Toolbox
   \\    /   O peration     | Website:  https://openfoam.org
    \\  /    A nd           | Version:  8
     \\/     M anipulation  |
\*---------------------------------------------------------------------------*/
FoamFile
{
    version     2.0;
    format      ascii;
    class       surfaceScalarField;
    location    "700";
    object      phi;
}
// * * * * * * * * * * * * * * * * * * * * * * * * * * * * * * * * * * * * * //

dimensions      [1 0 -1 0 0 0 0];

internalField   nonuniform List<scalar> 
114370
(
-2.26294e-09
1.67047e-13
2.26277e-09
-4.19655e-09
2.30223e-12
1.92163e-09
-4.82537e-09
2.58032e-12
6.30456e-10
-4.12317e-09
1.71265e-12
-6.98508e-10
-2.39349e-09
7.78089e-13
-1.72818e-09
4.05022e-11
1.15435e-13
-2.43362e-09
2.90687e-09
-3.24088e-13
-2.86629e-09
5.99415e-09
-5.51068e-13
-3.08732e-09
9.1652e-09
-6.17687e-13
-3.17113e-09
1.23192e-08
-5.98693e-13
-3.1541e-09
1.53822e-08
-5.43566e-13
-3.06299e-09
1.8299e-08
-4.78093e-13
-2.91689e-09
2.1029e-08
-4.14026e-13
-2.73001e-09
2.35424e-08
-3.54891e-13
-2.51337e-09
2.58182e-08
-3.00165e-13
-2.27585e-09
2.7843e-08
-2.48696e-13
-2.02485e-09
2.96097e-08
-1.99957e-13
-1.76665e-09
3.11163e-08
-1.54101e-13
-1.50669e-09
3.2366e-08
-1.11935e-13
-1.24967e-09
3.33656e-08
-7.46774e-14
-9.99687e-10
3.41258e-08
-4.32501e-14
-7.60256e-10
3.46602e-08
-1.78073e-14
-5.34432e-10
3.4985e-08
2.14186e-15
-3.24866e-10
3.51188e-08
1.7429e-14
-1.33898e-10
3.50817e-08
2.87535e-14
3.70803e-11
3.48928e-08
3.67471e-14
1.88817e-10
3.45707e-08
4.21952e-14
3.22106e-10
3.41339e-08
4.59025e-14
4.36682e-10
3.36011e-08
4.86558e-14
5.32743e-10
3.29903e-08
5.10174e-14
6.10779e-10
3.23187e-08
5.33299e-14
6.71538e-10
3.16026e-08
5.57869e-14
7.15994e-10
3.08572e-08
5.83917e-14
7.45314e-10
3.00963e-08
6.0932e-14
7.6081e-10
2.93323e-08
6.30337e-14
7.63898e-10
2.85762e-08
6.43043e-14
7.56055e-10
2.78373e-08
6.45177e-14
7.38782e-10
2.71237e-08
6.36342e-14
7.13569e-10
2.64417e-08
6.16647e-14
6.81861e-10
2.57966e-08
5.84781e-14
6.45038e-10
2.51921e-08
5.37618e-14
6.04387e-10
2.46309e-08
4.71693e-14
5.6109e-10
2.41146e-08
3.85736e-14
5.16211e-10
2.36438e-08
2.82595e-14
4.70688e-10
2.32184e-08
1.69651e-14
4.2533e-10
2.28375e-08
5.75283e-15
3.80816e-10
2.24996e-08
-4.17032e-15
3.37703e-10
2.22031e-08
-1.16575e-14
2.96427e-10
2.19456e-08
-1.58049e-14
2.57315e-10
2.17249e-08
-1.61146e-14
2.20595e-10
2.15384e-08
-1.2613e-14
1.86405e-10
2.13834e-08
-5.95433e-15
1.54808e-10
2.12575e-08
2.62208e-15
1.258e-10
2.1158e-08
1.14604e-14
9.93234e-11
2.10826e-08
1.87937e-14
7.52749e-11
2.10289e-08
2.30769e-14
5.35129e-11
2.09949e-08
2.33317e-14
3.38608e-11
2.09787e-08
1.94928e-14
1.61163e-11
2.09785e-08
1.21119e-14
4.69063e-14
2.09926e-08
2.3854e-15
-1.42954e-11
2.10193e-08
-7.98923e-15
-2.68808e-11
2.10571e-08
-1.7428e-14
-3.79486e-11
2.11046e-08
-2.45531e-14
-4.76691e-11
2.11606e-08
-2.85109e-14
-5.6192e-11
2.12241e-08
-2.90151e-14
-6.36476e-11
2.12941e-08
-2.62812e-14
-7.01471e-11
2.13697e-08
-2.09585e-14
-7.57849e-11
2.14502e-08
-1.41139e-14
-8.06406e-11
2.15348e-08
-7.00832e-15
-8.47823e-11
2.16229e-08
-5.58483e-16
-8.82697e-11
2.17138e-08
4.93987e-15
-9.11549e-11
2.18071e-08
9.34039e-15
-9.34842e-11
2.19022e-08
1.23928e-14
-9.53013e-11
2.19987e-08
1.43476e-14
-9.66493e-11
2.20961e-08
1.61134e-14
-9.75709e-11
2.2194e-08
1.81887e-14
-9.81087e-11
2.22921e-08
2.02238e-14
-9.83076e-11
2.23901e-08
2.2055e-14
-9.82167e-11
2.24878e-08
2.40457e-14
-9.78875e-11
2.2585e-08
2.60333e-14
-9.73743e-11
2.26816e-08
2.72616e-14
-9.67339e-11
2.27774e-08
2.76285e-14
-9.60259e-11
2.28726e-08
2.77009e-14
-9.53114e-11
2.2967e-08
2.75712e-14
-9.46508e-11
2.3061e-08
2.70538e-14
-9.41029e-11
2.31545e-08
2.6772e-14
-9.37236e-11
2.32479e-08
2.76283e-14
-9.35645e-11
2.33414e-08
2.94244e-14
-9.36721e-11
2.34353e-08
3.1233e-14
-9.40855e-11
2.353e-08
3.27527e-14
-9.48356e-11
2.36257e-08
3.41948e-14
-9.5944e-11
2.3723e-08
3.52639e-14
-9.74225e-11
2.38221e-08
3.53337e-14
-9.92717e-11
2.39234e-08
3.43423e-14
-1.0148e-10
2.40273e-08
3.27101e-14
-1.04025e-10
2.4134e-08
3.0687e-14
-1.06873e-10
2.42438e-08
2.84275e-14
-1.09978e-10
2.43569e-08
2.6355e-14
-1.13287e-10
2.44735e-08
2.48326e-14
-1.16737e-10
2.45936e-08
2.37213e-14
-1.20261e-10
2.47172e-08
2.27804e-14
-1.23788e-10
2.48443e-08
2.22034e-14
-1.27242e-10
2.49746e-08
2.23274e-14
-1.30549e-10
2.51081e-08
2.3015e-14
-1.33638e-10
2.52444e-08
2.37349e-14
-1.36443e-10
2.53831e-08
2.41206e-14
-1.38904e-10
2.5524e-08
2.40584e-14
-1.40968e-10
2.56664e-08
2.336e-14
-1.42595e-10
2.581e-08
2.17602e-14
-1.43756e-10
2.59543e-08
1.92871e-14
-1.44434e-10
2.60987e-08
1.63806e-14
-1.44624e-10
2.62429e-08
1.35726e-14
-1.44333e-10
2.63863e-08
1.12051e-14
-1.43581e-10
2.65286e-08
9.45677e-15
-1.42399e-10
2.66693e-08
8.37215e-15
-1.40827e-10
2.6808e-08
7.73096e-15
-1.38913e-10
2.69446e-08
7.0542e-15
-1.36713e-10
2.70787e-08
5.93573e-15
-1.34289e-10
2.72102e-08
4.36992e-15
-1.31704e-10
2.73391e-08
2.71912e-15
-1.29023e-10
2.74652e-08
1.3951e-15
-1.26308e-10
2.75886e-08
6.26203e-16
-1.23621e-10
2.77095e-08
4.3909e-16
-1.21014e-10
2.78278e-08
6.71993e-16
-1.18536e-10
2.79438e-08
9.69073e-16
-1.16229e-10
2.80578e-08
9.10091e-16
-1.14123e-10
2.81698e-08
3.04663e-16
-1.12245e-10
2.82802e-08
-5.93287e-16
-1.10611e-10
2.83892e-08
-1.23103e-15
-1.09229e-10
2.84971e-08
-1.16469e-15
-1.081e-10
2.86041e-08
-4.00979e-16
-1.07221e-10
2.87105e-08
6.24237e-16
-1.0658e-10
2.88164e-08
1.36019e-15
-1.06164e-10
2.89221e-08
1.52411e-15
-1.05955e-10
2.90278e-08
1.2743e-15
-1.05935e-10
2.91336e-08
1.12966e-15
-1.06087e-10
2.92398e-08
1.62991e-15
-1.06393e-10
2.93464e-08
2.97886e-15
-1.06842e-10
2.94536e-08
4.88032e-15
-1.07425e-10
2.95614e-08
6.74946e-15
-1.08138e-10
2.96702e-08
8.13829e-15
-1.0898e-10
2.97799e-08
9.03316e-15
-1.09957e-10
2.98907e-08
9.7884e-15
-1.11079e-10
3.00028e-08
1.07592e-14
-1.1236e-10
3.01164e-08
1.19757e-14
-1.13817e-10
3.02316e-08
1.31711e-14
-1.1547e-10
3.03487e-08
1.41289e-14
-1.17339e-10
3.04679e-08
1.50409e-14
-1.19442e-10
3.05895e-08
1.64293e-14
-1.21793e-10
3.07136e-08
1.85818e-14
-1.24404e-10
3.08407e-08
2.10048e-14
-1.27281e-10
3.09709e-08
2.25354e-14
-1.30422e-10
3.11045e-08
2.21425e-14
-1.33814e-10
3.12417e-08
1.97453e-14
-1.37432e-10
3.13827e-08
1.63732e-14
-1.41237e-10
3.15277e-08
1.36027e-14
-1.4517e-10
3.16766e-08
1.26658e-14
-1.49159e-10
3.18295e-08
1.37505e-14
-1.53107e-10
3.19862e-08
1.60165e-14
-1.56892e-10
3.21463e-08
1.85515e-14
-1.60364e-10
3.23094e-08
2.12967e-14
-1.63342e-10
3.24748e-08
2.46074e-14
-1.65611e-10
3.26414e-08
2.77995e-14
-1.66916e-10
3.28081e-08
2.88488e-14
-1.66953e-10
3.29732e-08
2.62643e-14
-1.65364e-10
3.31347e-08
2.09734e-14
-1.61729e-10
3.329e-08
1.56056e-14
-1.55563e-10
3.34361e-08
1.20527e-14
-1.46302e-10
3.35691e-08
1.05861e-14
-1.333e-10
3.36847e-08
1.13223e-14
-1.15824e-10
3.37775e-08
1.51608e-14
-9.30548e-11
3.38413e-08
2.22545e-14
-6.40749e-11
3.38689e-08
3.03656e-14
-2.78641e-11
3.38519e-08
3.58779e-14
1.66863e-11
3.37804e-08
3.71586e-14
7.12869e-11
3.36423e-08
3.55925e-14
1.3787e-10
3.3424e-08
3.27105e-14
2.18045e-10
3.31102e-08
2.81737e-14
3.1346e-10
3.26842e-08
2.15434e-14
4.2577e-10
3.21274e-08
1.54557e-14
5.56561e-10
3.14199e-08
1.46022e-14
7.07261e-10
3.05406e-08
2.11251e-14
8.79011e-10
2.94678e-08
3.32261e-14
1.0725e-09
2.81798e-08
4.89289e-14
1.28778e-09
2.66555e-08
6.8123e-14
1.52398e-09
2.48762e-08
8.9424e-14
1.77901e-09
2.28267e-08
1.09166e-13
2.04915e-09
2.04979e-08
1.26629e-13
2.32856e-09
1.78889e-08
1.46178e-13
2.60859e-09
1.50117e-08
1.71669e-13
2.87686e-09
1.18954e-08
2.05013e-13
3.1159e-09
8.59401e-09
2.51722e-13
3.30103e-09
5.19688e-09
3.18368e-13
3.39669e-09
1.84481e-09
4.03518e-13
3.35162e-09
-1.2327e-09
4.8439e-13
3.07708e-09
-3.68448e-09
5.03857e-13
2.45143e-09
-5.06189e-09
4.61832e-13
1.37706e-09
-4.87029e-09
4.52947e-13
-1.92028e-10
-2.92236e-09
5.41067e-13
-1.9485e-09
6.2441e-13
-2.92321e-09
-2.25149e-09
2.25172e-09
-4.19226e-09
1.90596e-09
-4.8279e-09
6.19836e-10
-4.12714e-09
-7.03978e-10
-2.39655e-09
-1.73007e-09
3.85867e-11
-2.43336e-09
2.90589e-09
-2.8649e-09
5.99389e-09
-3.08555e-09
9.16533e-09
-3.16935e-09
1.23195e-08
-3.15247e-09
1.53826e-08
-3.06156e-09
1.82995e-08
-2.91567e-09
2.10294e-08
-2.72897e-09
2.35428e-08
-2.51251e-09
2.58186e-08
-2.27515e-09
2.78434e-08
-2.02429e-09
2.961e-08
-1.76622e-09
3.11166e-08
-1.50637e-09
3.23662e-08
-1.24945e-09
3.33658e-08
-9.99546e-10
3.4126e-08
-7.60185e-10
3.46604e-08
-5.34419e-10
3.49852e-08
-3.24902e-10
3.5119e-08
-1.33975e-10
3.50818e-08
3.69713e-11
3.4893e-08
1.88683e-10
3.45708e-08
3.21953e-10
3.4134e-08
4.36513e-10
3.36012e-08
5.32563e-10
3.29904e-08
6.1059e-10
3.23188e-08
6.71342e-10
3.16027e-08
7.15793e-10
3.08573e-08
7.4511e-10
3.00964e-08
7.60606e-10
2.93324e-08
7.63696e-10
2.85763e-08
7.55858e-10
2.78374e-08
7.38593e-10
2.71238e-08
7.13389e-10
2.64418e-08
6.81694e-10
2.57967e-08
6.44886e-10
2.51922e-08
6.04253e-10
2.46311e-08
5.60977e-10
2.41148e-08
5.16119e-10
2.3644e-08
4.70617e-10
2.32185e-08
4.25279e-10
2.28376e-08
3.80782e-10
2.24998e-08
3.37681e-10
2.22032e-08
2.96412e-10
2.19458e-08
2.57302e-10
2.17251e-08
2.20578e-10
2.15385e-08
1.86382e-10
2.13836e-08
1.54776e-10
2.12576e-08
1.25761e-10
2.11582e-08
9.928e-11
2.10828e-08
7.52309e-11
2.10291e-08
5.34727e-11
2.09951e-08
3.38285e-11
2.09788e-08
1.6094e-11
2.09787e-08
3.61575e-14
2.09928e-08
-1.42943e-11
2.10195e-08
-2.68702e-11
2.10573e-08
-3.79322e-11
2.11048e-08
-4.76512e-11
2.11609e-08
-5.6177e-11
2.12243e-08
-6.36391e-11
2.12943e-08
-7.01476e-11
2.13699e-08
-7.57955e-11
2.14503e-08
-8.06616e-11
2.15349e-08
-8.48138e-11
2.1623e-08
-8.83106e-11
2.1714e-08
-9.1204e-11
2.18073e-08
-9.3541e-11
2.19024e-08
-9.53663e-11
2.19988e-08
-9.67224e-11
2.20962e-08
-9.76513e-11
2.21941e-08
-9.81966e-11
2.22923e-08
-9.84037e-11
2.23903e-08
-9.83201e-11
2.2488e-08
-9.79965e-11
2.25852e-08
-9.74873e-11
2.26817e-08
-9.685e-11
2.27776e-08
-9.61435e-11
2.28727e-08
-9.54287e-11
2.29672e-08
-9.47669e-11
2.30611e-08
-9.42176e-11
2.31546e-08
-9.3837e-11
2.3248e-08
-9.3677e-11
2.33415e-08
-9.37842e-11
2.34355e-08
-9.41978e-11
2.35301e-08
-9.49482e-11
2.36259e-08
-9.60571e-11
2.37231e-08
-9.75363e-11
2.38222e-08
-9.93858e-11
2.39235e-08
-1.01594e-10
2.40274e-08
-1.04137e-10
2.41341e-08
-1.06983e-10
2.42439e-08
-1.10086e-10
2.4357e-08
-1.13392e-10
2.44736e-08
-1.16841e-10
2.45937e-08
-1.20364e-10
2.47173e-08
-1.23889e-10
2.48444e-08
-1.27342e-10
2.49748e-08
-1.30649e-10
2.51083e-08
-1.33736e-10
2.52445e-08
-1.36539e-10
2.53833e-08
-1.38996e-10
2.55241e-08
-1.41056e-10
2.56665e-08
-1.42679e-10
2.58101e-08
-1.43836e-10
2.59544e-08
-1.44509e-10
2.60989e-08
-1.44694e-10
2.62431e-08
-1.44399e-10
2.63865e-08
-1.43643e-10
2.65287e-08
-1.42456e-10
2.66694e-08
-1.4088e-10
2.68081e-08
-1.38963e-10
2.69447e-08
-1.36761e-10
2.70788e-08
-1.34336e-10
2.72103e-08
-1.3175e-10
2.73392e-08
-1.29068e-10
2.74653e-08
-1.26352e-10
2.75888e-08
-1.23662e-10
2.77096e-08
-1.21053e-10
2.78279e-08
-1.18573e-10
2.7944e-08
-1.16263e-10
2.80579e-08
-1.14157e-10
2.81699e-08
-1.12279e-10
2.82804e-08
-1.10646e-10
2.83894e-08
-1.09266e-10
2.84972e-08
-1.0814e-10
2.86042e-08
-1.07262e-10
2.87106e-08
-1.06623e-10
2.88165e-08
-1.06208e-10
2.89222e-08
-1.06e-10
2.90279e-08
-1.05982e-10
2.91338e-08
-1.06134e-10
2.92399e-08
-1.06442e-10
2.93465e-08
-1.06892e-10
2.94537e-08
-1.07477e-10
2.95615e-08
-1.08192e-10
2.96703e-08
-1.09037e-10
2.978e-08
-1.10017e-10
2.98908e-08
-1.11141e-10
3.00029e-08
-1.12423e-10
3.01164e-08
-1.13882e-10
3.02317e-08
-1.15536e-10
3.03488e-08
-1.17406e-10
3.0468e-08
-1.19509e-10
3.05895e-08
-1.2186e-10
3.07137e-08
-1.24469e-10
3.08408e-08
-1.27344e-10
3.0971e-08
-1.30483e-10
3.11046e-08
-1.33873e-10
3.12418e-08
-1.37489e-10
3.13828e-08
-1.4129e-10
3.15278e-08
-1.45222e-10
3.16767e-08
-1.49209e-10
3.18296e-08
-1.53155e-10
3.19863e-08
-1.5694e-10
3.21464e-08
-1.60414e-10
3.23095e-08
-1.63396e-10
3.24749e-08
-1.65668e-10
3.26415e-08
-1.66976e-10
3.28082e-08
-1.67016e-10
3.29733e-08
-1.65429e-10
3.31348e-08
-1.61796e-10
3.32901e-08
-1.55632e-10
3.34362e-08
-1.46375e-10
3.35692e-08
-1.33379e-10
3.36848e-08
-1.15908e-10
3.37776e-08
-9.31408e-11
3.38414e-08
-6.4162e-11
3.3869e-08
-2.79536e-11
3.3852e-08
1.65939e-11
3.37805e-08
7.11919e-11
3.36424e-08
1.37772e-10
3.34241e-08
2.17944e-10
3.31104e-08
3.13356e-10
3.26844e-08
4.25659e-10
3.21275e-08
5.56441e-10
3.142e-08
7.07126e-10
3.05407e-08
8.78854e-10
2.9468e-08
1.07232e-09
2.81799e-08
1.28756e-09
2.66556e-08
1.52372e-09
2.48763e-08
1.7787e-09
2.28269e-08
2.04878e-09
2.0498e-08
2.32811e-09
1.78891e-08
2.60805e-09
1.50118e-08
2.8762e-09
1.18956e-08
3.11508e-09
8.59411e-09
3.30002e-09
5.19694e-09
3.39546e-09
1.84477e-09
3.35019e-09
-1.23291e-09
3.07558e-09
-3.68487e-09
2.45007e-09
-5.06224e-09
1.37584e-09
-4.87046e-09
-1.93222e-10
-2.92244e-09
-1.94959e-09
-2.92371e-09
-1.73552e-09
-2.31152e-12
4.01009e-09
-2.08731e-09
-1.08147e-12
2.27867e-09
-1.15756e-09
-1.37925e-13
-2.98996e-10
6.17862e-10
1.26877e-13
-2.47424e-09
2.96903e-09
1.82683e-13
-4.07991e-09
5.71221e-09
1.92316e-13
-5.17733e-09
8.70838e-09
1.77954e-13
-5.86287e-09
1.18489e-08
1.47951e-13
-6.22815e-09
1.5038e-08
1.19482e-13
-6.36034e-09
1.82e-08
9.65765e-14
-6.31623e-09
2.12755e-08
7.83752e-14
-6.13864e-09
2.42179e-08
6.35396e-14
-5.85934e-09
2.69907e-08
5.08572e-14
-5.50285e-09
2.9566e-08
3.94135e-14
-5.08875e-09
3.19233e-08
2.88637e-14
-4.63318e-09
3.40482e-08
1.93373e-14
-4.14981e-09
3.5932e-08
1.1143e-14
-3.65044e-09
3.75707e-08
4.49105e-15
-3.14537e-09
3.89646e-08
-6.19279e-16
-2.64362e-09
4.0118e-08
-4.334e-15
-2.1531e-09
4.10384e-08
-6.83346e-15
-1.68065e-09
4.17361e-08
-8.33249e-15
-1.23213e-09
4.22237e-08
-9.11571e-15
-8.12504e-10
4.25155e-08
-9.50512e-15
-4.25787e-10
4.26275e-08
-9.73622e-15
-7.49257e-11
4.25774e-08
-9.89964e-15
2.38899e-10
4.23838e-08
-1.00078e-14
5.15596e-10
4.20653e-08
-1.00448e-14
7.55146e-10
4.164e-08
-1.00673e-14
9.57983e-10
4.11257e-08
-1.01828e-14
1.12502e-09
4.05395e-08
-1.04714e-14
1.25765e-09
3.98977e-08
-1.08976e-14
1.35768e-09
3.92157e-08
-1.13141e-14
1.4273e-09
3.85075e-08
-1.15371e-14
1.46896e-09
3.77859e-08
-1.14156e-14
1.48535e-09
3.70626e-08
-1.08585e-14
1.47928e-09
3.63477e-08
-9.8275e-15
1.45366e-09
3.56498e-08
-8.31507e-15
1.41137e-09
3.49763e-08
-6.33913e-15
1.35524e-09
3.43332e-08
-3.96648e-15
1.288e-09
3.37253e-08
-1.33666e-15
1.21222e-09
3.3156e-08
1.34553e-15
1.13027e-09
3.26278e-08
3.84162e-15
1.0443e-09
3.21421e-08
5.91379e-15
9.56249e-10
3.16995e-08
7.34965e-15
8.67783e-10
3.12998e-08
7.98575e-15
7.8033e-10
3.09423e-08
7.74091e-15
6.9507e-10
3.06256e-08
6.65624e-15
6.1295e-10
3.03481e-08
4.91841e-15
5.34697e-10
3.01077e-08
2.85498e-15
4.60837e-10
2.99023e-08
8.77053e-16
3.91715e-10
2.97294e-08
-6.11373e-16
3.27518e-10
2.95868e-08
-1.30108e-15
2.68301e-10
2.94719e-08
-1.04428e-15
2.14003e-10
2.93826e-08
1.24777e-16
1.64473e-10
2.93164e-08
1.98471e-15
1.1949e-10
2.92714e-08
4.17805e-15
7.8774e-11
2.92453e-08
6.30409e-15
4.20167e-11
2.92362e-08
8.00566e-15
8.89315e-12
2.92425e-08
8.97757e-15
-2.07651e-11
2.92626e-08
9.03269e-15
-4.71129e-11
2.92949e-08
8.1994e-15
-7.04475e-11
2.93381e-08
6.6812e-15
-9.10507e-11
2.93909e-08
4.76856e-15
-1.09185e-10
2.94521e-08
2.74953e-15
-1.25089e-10
2.95207e-08
8.84562e-16
-1.38974e-10
2.95958e-08
-5.65822e-16
-1.51024e-10
2.96764e-08
-1.4238e-15
-1.61402e-10
2.97616e-08
-1.77675e-15
-1.70247e-10
2.98509e-08
-1.89031e-15
-1.77685e-10
2.99433e-08
-1.85337e-15
-1.83825e-10
3.00384e-08
-1.62147e-15
-1.88768e-10
3.01355e-08
-1.42351e-15
-1.92612e-10
3.02341e-08
-1.64967e-15
-1.95451e-10
3.03338e-08
-2.26713e-15
-1.97377e-10
3.04339e-08
-2.92633e-15
-1.98486e-10
3.05343e-08
-3.58998e-15
-1.9888e-10
3.06346e-08
-4.43404e-15
-1.98664e-10
3.07345e-08
-5.28114e-15
-1.97946e-10
3.08337e-08
-5.79811e-15
-1.96842e-10
3.09323e-08
-6.036e-15
-1.95475e-10
3.10301e-08
-6.19832e-15
-1.93967e-10
3.1127e-08
-6.1607e-15
-1.92444e-10
3.12232e-08
-5.76486e-15
-1.91029e-10
3.13188e-08
-5.23316e-15
-1.89844e-10
3.14139e-08
-4.84674e-15
-1.89005e-10
3.15087e-08
-4.54804e-15
-1.88617e-10
3.16037e-08
-4.20233e-15
-1.88774e-10
3.1699e-08
-3.922e-15
-1.89557e-10
3.1795e-08
-3.84101e-15
-1.9103e-10
3.18921e-08
-3.87706e-15
-1.93234e-10
3.19907e-08
-3.92281e-15
-1.96192e-10
3.20911e-08
-4.01193e-15
-1.99902e-10
3.21938e-08
-4.14523e-15
-2.04343e-10
3.22991e-08
-4.20068e-15
-2.09465e-10
3.24072e-08
-4.14217e-15
-2.15199e-10
3.25185e-08
-4.12069e-15
-2.21455e-10
3.26332e-08
-4.27425e-15
-2.28124e-10
3.27514e-08
-4.57662e-15
-2.35082e-10
3.28731e-08
-4.94546e-15
-2.4219e-10
3.29985e-08
-5.33566e-15
-2.49303e-10
3.31273e-08
-5.66395e-15
-2.56272e-10
3.32596e-08
-5.76857e-15
-2.62948e-10
3.33949e-08
-5.53129e-15
-2.69188e-10
3.35332e-08
-4.98604e-15
-2.74859e-10
3.3674e-08
-4.25728e-15
-2.79841e-10
3.38169e-08
-3.46482e-15
-2.84031e-10
3.39614e-08
-2.71503e-15
-2.87349e-10
3.41072e-08
-2.11464e-15
-2.89734e-10
3.42538e-08
-1.71016e-15
-2.91151e-10
3.44006e-08
-1.42853e-15
-2.9159e-10
3.45471e-08
-1.13908e-15
-2.91066e-10
3.4693e-08
-7.66158e-16
-2.89617e-10
3.48377e-08
-3.32899e-16
-2.87305e-10
3.49809e-08
8.47978e-17
-2.8421e-10
3.51223e-08
4.05184e-16
-2.80429e-10
3.52614e-08
5.61961e-16
-2.76075e-10
3.53982e-08
5.3762e-16
-2.71266e-10
3.55325e-08
4.12233e-16
-2.66127e-10
3.5664e-08
3.61659e-16
-2.60784e-10
3.57929e-08
5.54329e-16
-2.55363e-10
3.5919e-08
1.03995e-15
-2.49979e-10
3.60425e-08
1.71092e-15
-2.44743e-10
3.61635e-08
2.36265e-15
-2.39749e-10
3.62822e-08
2.7805e-15
-2.35081e-10
3.63986e-08
2.81482e-15
-2.30803e-10
3.65131e-08
2.4438e-15
-2.26966e-10
3.66258e-08
1.80536e-15
-2.23601e-10
3.67371e-08
1.15218e-15
-2.20728e-10
3.68471e-08
7.09066e-16
-2.1835e-10
3.69561e-08
5.24372e-16
-2.16458e-10
3.70643e-08
4.56175e-16
-2.15036e-10
3.71719e-08
3.09481e-16
-2.14054e-10
3.72792e-08
1.9942e-17
-2.13481e-10
3.73862e-08
-2.99954e-16
-2.13281e-10
3.74933e-08
-4.88552e-16
-2.1342e-10
3.76005e-08
-5.11593e-16
-2.13868e-10
3.7708e-08
-5.19566e-16
-2.14601e-10
3.78159e-08
-7.33651e-16
-2.15604e-10
3.79243e-08
-1.25338e-15
-2.16867e-10
3.80335e-08
-1.96083e-15
-2.18389e-10
3.81434e-08
-2.5867e-15
-2.2018e-10
3.82543e-08
-2.89359e-15
-2.22257e-10
3.83663e-08
-2.83922e-15
-2.24648e-10
3.84796e-08
-2.60877e-15
-2.27385e-10
3.85944e-08
-2.49704e-15
-2.30505e-10
3.87109e-08
-2.70716e-15
-2.34043e-10
3.88292e-08
-3.18417e-15
-2.3803e-10
3.89497e-08
-3.61699e-15
-2.42494e-10
3.90725e-08
-3.6807e-15
-2.47456e-10
3.91979e-08
-3.34348e-15
-2.52923e-10
3.93261e-08
-2.89625e-15
-2.58887e-10
3.94574e-08
-2.61231e-15
-2.65316e-10
3.95919e-08
-2.41698e-15
-2.7215e-10
3.97297e-08
-1.99874e-15
-2.79304e-10
3.9871e-08
-1.22806e-15
-2.86658e-10
4.00156e-08
-3.47607e-16
-2.94059e-10
4.01636e-08
2.4742e-16
-3.01307e-10
4.03146e-08
3.08089e-16
-3.08148e-10
4.04683e-08
-1.41852e-16
-3.14276e-10
4.0624e-08
-8.13676e-16
-3.19316e-10
4.07809e-08
-1.32097e-15
-3.22825e-10
4.0938e-08
-1.54296e-15
-3.24275e-10
4.10938e-08
-1.79541e-15
-3.23041e-10
4.12466e-08
-2.3756e-15
-3.18385e-10
4.1394e-08
-2.971e-15
-3.09442e-10
4.15333e-08
-2.97047e-15
-2.95203e-10
4.16613e-08
-2.52627e-15
-2.74512e-10
4.17737e-08
-2.74935e-15
-2.46035e-10
4.18659e-08
-4.34711e-15
-2.08248e-10
4.1932e-08
-6.40393e-15
-1.59409e-10
4.19652e-08
-7.21972e-15
-9.75501e-11
4.19575e-08
-6.301e-15
-2.04875e-11
4.18996e-08
-4.76573e-15
7.43244e-11
4.17807e-08
-3.68021e-15
1.89917e-10
4.15888e-08
-2.8672e-15
3.29522e-10
4.13102e-08
-1.93908e-15
4.96363e-10
4.09297e-08
-1.67435e-15
6.93682e-10
4.04305e-08
-3.23439e-15
9.2466e-10
3.97945e-08
-6.4407e-15
1.19229e-09
3.90023e-08
-9.99157e-15
1.4992e-09
3.80337e-08
-1.3196e-14
1.84736e-09
3.68682e-08
-1.62639e-14
2.23781e-09
3.54855e-08
-1.91687e-14
2.67026e-09
3.38666e-08
-2.16925e-14
3.14259e-09
3.19951e-08
-2.42714e-14
3.65028e-09
2.98583e-08
-2.74093e-14
4.18569e-09
2.74496e-08
-3.12874e-14
4.7371e-09
2.47704e-08
-3.71856e-14
5.28758e-09
2.18336e-08
-4.69107e-14
5.81339e-09
1.86675e-08
-6.02484e-14
6.28183e-09
1.53203e-08
-7.62146e-14
6.64806e-09
1.18666e-08
-9.32637e-14
6.85017e-09
8.41478e-09
-1.03263e-13
6.80321e-09
5.10646e-09
-9.63363e-14
6.38504e-09
2.11793e-09
-8.331e-14
5.43953e-09
-3.1639e-10
-8.82502e-14
3.81087e-09
-1.86888e-09
-1.08526e-13
1.35979e-09
-1.95171e-09
-6.2218e-14
-1.86666e-09
3.00494e-13
-4.87476e-09
-1.73293e-09
4.01783e-09
-2.08321e-09
2.27948e-09
-1.15565e-09
-3.00101e-10
6.18563e-10
-2.47544e-09
2.96935e-09
-4.0809e-09
5.71242e-09
-5.17814e-09
8.70856e-09
-5.86352e-09
1.18492e-08
-6.22867e-09
1.50382e-08
-6.36076e-09
1.82002e-08
-6.31658e-09
2.12758e-08
-6.13893e-09
2.42181e-08
-5.85957e-09
2.69909e-08
-5.50304e-09
2.95662e-08
-5.08891e-09
3.19235e-08
-4.63331e-09
3.40484e-08
-4.14991e-09
3.59322e-08
-3.65051e-09
3.75708e-08
-3.14541e-09
3.89647e-08
-2.64364e-09
4.01181e-08
-2.1531e-09
4.10385e-08
-1.68064e-09
4.17361e-08
-1.23211e-09
4.22237e-08
-8.12474e-10
4.25156e-08
-4.25752e-10
4.26275e-08
-7.4888e-11
4.25774e-08
2.38939e-10
4.23839e-08
5.15636e-10
4.20653e-08
7.55186e-10
4.164e-08
9.58022e-10
4.11257e-08
1.12506e-09
4.05395e-08
1.25769e-09
3.98978e-08
1.35772e-09
3.92157e-08
1.42734e-09
3.85075e-08
1.469e-09
3.7786e-08
1.48538e-09
3.70627e-08
1.47932e-09
3.63477e-08
1.4537e-09
3.56498e-08
1.4114e-09
3.49764e-08
1.35527e-09
3.43333e-08
1.28803e-09
3.37254e-08
1.21224e-09
3.31561e-08
1.13028e-09
3.26279e-08
1.04431e-09
3.21422e-08
9.56249e-10
3.16996e-08
8.67777e-10
3.12999e-08
7.80318e-10
3.09424e-08
6.95055e-10
3.06257e-08
6.12934e-10
3.03482e-08
5.34683e-10
3.01078e-08
4.60826e-10
2.99024e-08
3.91709e-10
2.97295e-08
3.27518e-10
2.95869e-08
2.68305e-10
2.9472e-08
2.1401e-10
2.93827e-08
1.64481e-10
2.93166e-08
1.19496e-10
2.92715e-08
7.87763e-11
2.92454e-08
4.20129e-11
2.92364e-08
8.8826e-12
2.92427e-08
-2.07818e-11
2.92627e-08
-4.71342e-11
2.9295e-08
-7.04715e-11
2.93382e-08
-9.1075e-11
2.9391e-08
-1.09208e-10
2.94522e-08
-1.25108e-10
2.95209e-08
-1.38988e-10
2.95959e-08
-1.51034e-10
2.96765e-08
-1.61407e-10
2.97617e-08
-1.70249e-10
2.9851e-08
-1.77684e-10
2.99434e-08
-1.83822e-10
3.00385e-08
-1.88765e-10
3.01356e-08
-1.92609e-10
3.02343e-08
-1.95448e-10
3.03339e-08
-1.97372e-10
3.04341e-08
-1.9848e-10
3.05344e-08
-1.98873e-10
3.06347e-08
-1.98655e-10
3.07346e-08
-1.97935e-10
3.08338e-08
-1.9683e-10
3.09324e-08
-1.95462e-10
3.10302e-08
-1.93954e-10
3.11271e-08
-1.9243e-10
3.12233e-08
-1.91015e-10
3.13189e-08
-1.8983e-10
3.1414e-08
-1.8899e-10
3.15088e-08
-1.886e-10
3.16038e-08
-1.88757e-10
3.16991e-08
-1.8954e-10
3.17951e-08
-1.91012e-10
3.18922e-08
-1.93215e-10
3.19908e-08
-1.96173e-10
3.20912e-08
-1.99885e-10
3.21939e-08
-2.04326e-10
3.22992e-08
-2.0945e-10
3.24074e-08
-2.15186e-10
3.25187e-08
-2.21445e-10
3.26333e-08
-2.28115e-10
3.27515e-08
-2.35073e-10
3.28732e-08
-2.42181e-10
3.29986e-08
-2.49294e-10
3.31274e-08
-2.56263e-10
3.32597e-08
-2.62939e-10
3.3395e-08
-2.69179e-10
3.35333e-08
-2.74851e-10
3.36741e-08
-2.79833e-10
3.38169e-08
-2.84025e-10
3.39615e-08
-2.87344e-10
3.41073e-08
-2.89731e-10
3.42539e-08
-2.9115e-10
3.44007e-08
-2.9159e-10
3.45472e-08
-2.91067e-10
3.46931e-08
-2.8962e-10
3.48378e-08
-2.87308e-10
3.4981e-08
-2.84214e-10
3.51224e-08
-2.80434e-10
3.52615e-08
-2.76081e-10
3.53983e-08
-2.71272e-10
3.55326e-08
-2.66134e-10
3.56641e-08
-2.60793e-10
3.5793e-08
-2.55373e-10
3.59191e-08
-2.4999e-10
3.60426e-08
-2.44754e-10
3.61636e-08
-2.39762e-10
3.62822e-08
-2.35093e-10
3.63987e-08
-2.30816e-10
3.65132e-08
-2.26978e-10
3.66259e-08
-2.23613e-10
3.67372e-08
-2.20738e-10
3.68472e-08
-2.1836e-10
3.69562e-08
-2.16469e-10
3.70643e-08
-2.15046e-10
3.7172e-08
-2.14065e-10
3.72792e-08
-2.13491e-10
3.73863e-08
-2.1329e-10
3.74934e-08
-2.13428e-10
3.76005e-08
-2.13875e-10
3.7708e-08
-2.14607e-10
3.78159e-08
-2.15608e-10
3.79244e-08
-2.16869e-10
3.80335e-08
-2.1839e-10
3.81435e-08
-2.20179e-10
3.82544e-08
-2.22255e-10
3.83664e-08
-2.24646e-10
3.84797e-08
-2.27384e-10
3.85945e-08
-2.30504e-10
3.87109e-08
-2.3404e-10
3.88293e-08
-2.38025e-10
3.89497e-08
-2.42486e-10
3.90725e-08
-2.47445e-10
3.91979e-08
-2.52912e-10
3.93262e-08
-2.58876e-10
3.94575e-08
-2.65306e-10
3.95919e-08
-2.72141e-10
3.97298e-08
-2.79297e-10
3.9871e-08
-2.86654e-10
4.00157e-08
-2.94057e-10
4.01637e-08
-3.01303e-10
4.03147e-08
-3.08143e-10
4.04683e-08
-3.14267e-10
4.0624e-08
-3.19304e-10
4.0781e-08
-3.2281e-10
4.09381e-08
-3.24259e-10
4.10939e-08
-3.23026e-10
4.12466e-08
-3.18373e-10
4.13941e-08
-3.09431e-10
4.15334e-08
-2.95197e-10
4.16614e-08
-2.74511e-10
4.17738e-08
-2.46036e-10
4.1866e-08
-2.08243e-10
4.1932e-08
-1.59397e-10
4.19652e-08
-9.75335e-11
4.19576e-08
-2.04736e-11
4.18997e-08
7.43334e-11
4.17808e-08
1.89924e-10
4.15889e-08
3.29527e-10
4.13103e-08
4.96365e-10
4.09298e-08
6.9368e-10
4.04306e-08
9.24658e-10
3.97946e-08
1.1923e-09
3.90024e-08
1.49921e-09
3.80338e-08
1.84739e-09
3.68682e-08
2.23785e-09
3.54855e-08
2.67031e-09
3.38667e-08
3.14266e-09
3.19951e-08
3.65037e-09
2.98584e-08
4.1858e-09
2.74496e-08
4.73723e-09
2.47704e-08
5.28773e-09
2.18336e-08
5.81357e-09
1.86675e-08
6.28204e-09
1.53203e-08
6.64831e-09
1.18666e-08
6.85045e-09
8.41477e-09
6.80349e-09
5.10644e-09
6.38529e-09
2.11782e-09
5.43976e-09
-3.16568e-10
3.8111e-09
-1.86889e-09
1.36001e-09
-1.95099e-09
-1.86656e-09
-4.87516e-09
-4.20788e-10
-1.63412e-13
4.42025e-09
5.88899e-10
-3.35298e-13
1.26767e-09
2.32842e-09
-9.35088e-14
-2.03935e-09
4.46072e-09
-8.0109e-15
-4.60672e-09
6.8781e-09
1.61792e-14
-6.49722e-09
9.51121e-09
2.60791e-14
-7.81029e-09
1.22981e-08
3.03728e-14
-8.64955e-09
1.518e-08
2.87517e-14
-9.10986e-09
1.80955e-08
2.48171e-14
-9.27574e-09
2.09906e-08
2.03856e-14
-9.21111e-09
2.38181e-08
1.63324e-14
-8.96608e-09
2.65389e-08
1.29983e-14
-8.57994e-09
2.91203e-08
1.01284e-14
-8.08421e-09
3.15365e-08
7.54495e-15
-7.50487e-09
3.37673e-08
5.35073e-15
-6.86389e-09
3.57977e-08
3.621e-15
-6.1802e-09
3.76177e-08
2.30946e-15
-5.47039e-09
3.92215e-08
1.35822e-15
-4.74912e-09
4.06072e-08
7.31718e-16
-4.02935e-09
4.17766e-08
3.73619e-16
-3.32248e-09
4.27344e-08
2.02666e-16
-2.63849e-09
4.34882e-08
1.35703e-16
-1.98593e-09
4.40477e-08
1.01929e-16
-1.37201e-09
4.44244e-08
5.01157e-17
-8.02548e-10
4.46314e-08
-4.67345e-17
-2.81933e-10
4.46833e-08
-1.61193e-16
1.86924e-10
4.45963e-08
-2.57694e-16
6.02527e-10
4.43868e-08
-3.36021e-16
9.64583e-10
4.40712e-08
-4.1694e-16
1.27353e-09
4.36657e-08
-5.15683e-16
1.5305e-09
4.3186e-08
-6.32904e-16
1.73733e-09
4.26471e-08
-7.50065e-16
1.89649e-09
4.20634e-08
-8.38328e-16
2.01097e-09
4.14481e-08
-8.82354e-16
2.08419e-09
4.08134e-08
-8.816e-16
2.11994e-09
4.01705e-08
-8.29127e-16
2.12219e-09
3.9529e-08
-7.03903e-16
2.09506e-09
3.88976e-08
-4.73023e-16
2.04271e-09
3.82836e-08
-1.15563e-16
1.96922e-09
3.76931e-08
3.50422e-16
1.87852e-09
3.71309e-08
8.63134e-16
1.77437e-09
3.66008e-08
1.3366e-15
1.66025e-09
3.61057e-08
1.69529e-15
1.53933e-09
3.56475e-08
1.89765e-15
1.41447e-09
3.52271e-08
1.93976e-15
1.28816e-09
3.48448e-08
1.84542e-15
1.16256e-09
3.45004e-08
1.65415e-15
1.03944e-09
3.4193e-08
1.41344e-15
9.20279e-10
3.39214e-08
1.1764e-15
8.06201e-10
3.36842e-08
9.99042e-16
6.98052e-10
3.34794e-08
9.31232e-16
5.96409e-10
3.33053e-08
9.97746e-16
5.0162e-10
3.31597e-08
1.18569e-15
4.13828e-10
3.30406e-08
1.45277e-15
3.33014e-10
3.2946e-08
1.73476e-15
2.59021e-10
3.28739e-08
1.95556e-15
1.91585e-10
3.28222e-08
2.05656e-15
1.30368e-10
3.27892e-08
2.02214e-15
7.49855e-11
3.2773e-08
1.83827e-15
2.50391e-11
3.2772e-08
1.50451e-15
-1.98146e-11
3.27847e-08
1.06987e-15
-5.98953e-11
3.28098e-08
5.94618e-16
-9.55658e-11
3.28459e-08
1.29665e-16
-1.27197e-10
3.28918e-08
-2.7241e-16
-1.5514e-10
3.29464e-08
-5.62058e-16
-1.79724e-10
3.30086e-08
-7.27569e-16
-2.01243e-10
3.30775e-08
-7.69159e-16
-2.19962e-10
3.31521e-08
-6.55329e-16
-2.36115e-10
3.32317e-08
-4.0283e-16
-2.4991e-10
3.33155e-08
-1.14603e-16
-2.61534e-10
3.34027e-08
1.60019e-16
-2.71155e-10
3.34928e-08
4.59039e-16
-2.78931e-10
3.35852e-08
7.39958e-16
-2.8501e-10
3.36792e-08
9.02482e-16
-2.89541e-10
3.37744e-08
9.75451e-16
-2.92669e-10
3.38704e-08
1.02403e-15
-2.94544e-10
3.39667e-08
9.81851e-16
-2.95323e-10
3.40632e-08
8.17865e-16
-2.95168e-10
3.41594e-08
6.54257e-16
-2.94249e-10
3.42552e-08
5.26481e-16
-2.92744e-10
3.43505e-08
3.3902e-16
-2.90836e-10
3.44452e-08
1.36761e-16
-2.88711e-10
3.45392e-08
5.39845e-17
-2.86559e-10
3.46327e-08
2.0704e-17
-2.84566e-10
3.47257e-08
-7.14464e-17
-2.82912e-10
3.48184e-08
-5.10552e-17
-2.81769e-10
3.4911e-08
2.4982e-16
-2.81293e-10
3.50037e-08
5.97641e-16
-2.81624e-10
3.5097e-08
6.79888e-16
-2.8288e-10
3.5191e-08
5.95546e-16
-2.85151e-10
3.52862e-08
6.27918e-16
-2.88498e-10
3.53829e-08
7.63668e-16
-2.92952e-10
3.54815e-08
8.03304e-16
-2.98511e-10
3.55822e-08
7.09748e-16
-3.05136e-10
3.56854e-08
5.4404e-16
-3.12757e-10
3.57914e-08
2.73111e-16
-3.2127e-10
3.59004e-08
-7.98907e-17
-3.3054e-10
3.60126e-08
-3.16775e-16
-3.40407e-10
3.61282e-08
-3.29123e-16
-3.50684e-10
3.62471e-08
-2.94363e-16
-3.61172e-10
3.63694e-08
-3.93396e-16
-3.71658e-10
3.64949e-08
-5.20673e-16
-3.81923e-10
3.66237e-08
-4.74423e-16
-3.91748e-10
3.67553e-08
-2.82511e-16
-4.00927e-10
3.68897e-08
-1.21336e-16
-4.09266e-10
3.70264e-08
-3.58929e-17
-4.16592e-10
3.7165e-08
5.52965e-17
-4.22755e-10
3.73053e-08
1.46973e-16
-4.27638e-10
3.74466e-08
1.40096e-16
-4.31156e-10
3.75887e-08
3.35804e-17
-4.33259e-10
3.77309e-08
-5.51547e-17
-4.33934e-10
3.7873e-08
-6.84296e-17
-4.33201e-10
3.80145e-08
-6.86948e-17
-4.31119e-10
3.81549e-08
-9.08077e-17
-4.27776e-10
3.82939e-08
-6.91744e-17
-4.23291e-10
3.84312e-08
3.34476e-17
-4.17805e-10
3.85665e-08
1.24576e-16
-4.11479e-10
3.86997e-08
9.45993e-17
-4.04485e-10
3.88305e-08
-2.3794e-17
-3.97006e-10
3.89589e-08
-9.4915e-17
-3.89224e-10
3.90848e-08
-5.2573e-17
-3.81317e-10
3.92082e-08
5.24366e-17
-3.73455e-10
3.93292e-08
1.66337e-16
-3.65797e-10
3.94478e-08
3.02354e-16
-3.5848e-10
3.95643e-08
4.5821e-16
-3.51622e-10
3.96787e-08
5.37575e-16
-3.45321e-10
3.97913e-08
4.32896e-16
-3.39648e-10
3.99023e-08
1.70899e-16
-3.34652e-10
4.00118e-08
-8.45922e-17
-3.3036e-10
4.01202e-08
-2.0201e-16
-3.26779e-10
4.02275e-08
-2.09163e-16
-3.23899e-10
4.03341e-08