/*--------------------------------*- C++ -*----------------------------------*\
  =========                 |
  \\      /  F ield         | OpenFOAM: The Open Source CFD Toolbox
   \\    /   O peration     | Website:  https://openfoam.org
    \\  /    A nd           | Version:  8
     \\/     M anipulation  |
\*---------------------------------------------------------------------------*/
FoamFile
{
    version     2.0;
    format      ascii;
    class       volScalarField;
    location    "700";
    object      T;
}
// * * * * * * * * * * * * * * * * * * * * * * * * * * * * * * * * * * * * * //

dimensions      [0 0 0 1 0 0 0];

internalField   nonuniform List<scalar> 
46000
(
310.653
309.625
308.537
307.663
307.005
306.527
306.166
305.91
305.717
305.571
305.462
305.381
305.325
305.289
305.27
305.267
305.277
305.298
305.33
305.372
305.421
305.478
305.541
305.609
305.681
305.754
305.829
305.906
305.984
306.063
306.143
306.223
306.302
306.381
306.457
306.532
306.604
306.672
306.738
306.8
306.859
306.914
306.966
307.014
307.058
307.099
307.137
307.171
307.203
307.232
307.259
307.283
307.306
307.326
307.345
307.362
307.378
307.392
307.405
307.417
307.427
307.437
307.446
307.454
307.461
307.468
307.474
307.479
307.484
307.489
307.493
307.497
307.501
307.504
307.507
307.51
307.513
307.515
307.517
307.519
307.521
307.523
307.524
307.525
307.526
307.527
307.527
307.527
307.527
307.527
307.526
307.525
307.524
307.522
307.52
307.518
307.515
307.512
307.509
307.505
307.501
307.497
307.493
307.488
307.483
307.478
307.473
307.468
307.463
307.458
307.453
307.448
307.444
307.439
307.434
307.43
307.425
307.421
307.417
307.413
307.409
307.405
307.402
307.398
307.394
307.391
307.387
307.384
307.38
307.377
307.373
307.37
307.366
307.362
307.359
307.355
307.351
307.347
307.343
307.338
307.334
307.329
307.325
307.32
307.315
307.309
307.304
307.298
307.292
307.286
307.279
307.272
307.265
307.257
307.249
307.24
307.232
307.222
307.213
307.203
307.193
307.183
307.173
307.163
307.153
307.144
307.135
307.127
307.12
307.115
307.111
307.11
307.112
307.116
307.123
307.134
307.151
307.172
307.201
307.236
307.281
307.335
307.399
307.477
307.568
307.674
307.798
307.941
308.105
308.292
308.503
308.737
308.993
309.264
309.543
309.813
310.061
310.311
310.568
310.857
310.652
309.624
308.536
307.662
307.005
306.527
306.166
305.909
305.717
305.571
305.461
305.381
305.325
305.289
305.27
305.267
305.277
305.298
305.33
305.372
305.421
305.478
305.541
305.609
305.681
305.754
305.829
305.906
305.984
306.063
306.143
306.223
306.303
306.381
306.457
306.532
306.604
306.672
306.738
306.8
306.859
306.914
306.966
307.014
307.058
307.099
307.137
307.171
307.203
307.232
307.259
307.283
307.306
307.326
307.345
307.362
307.378
307.392
307.405
307.417
307.427
307.437
307.446
307.454
307.461
307.468
307.474
307.479
307.484
307.489
307.493
307.497
307.501
307.504
307.507
307.51
307.513
307.515
307.517
307.519
307.521
307.523
307.524
307.525
307.526
307.527
307.527
307.527
307.527
307.527
307.526
307.525
307.524
307.522
307.52
307.518
307.515
307.512
307.509
307.505
307.501
307.497
307.493
307.488
307.483
307.478
307.473
307.468
307.463
307.458
307.453
307.448
307.444
307.439
307.434
307.43
307.425
307.421
307.417
307.413
307.409
307.405
307.402
307.398
307.394
307.391
307.387
307.384
307.38
307.377
307.373
307.37
307.366
307.362
307.359
307.355
307.351
307.347
307.343
307.338
307.334
307.329
307.325
307.32
307.315
307.309
307.304
307.298
307.292
307.286
307.279
307.272
307.265
307.257
307.249
307.24
307.232
307.222
307.213
307.203
307.193
307.183
307.173
307.163
307.153
307.144
307.135
307.127
307.12
307.115
307.111
307.11
307.112
307.116
307.123
307.134
307.151
307.172
307.201
307.236
307.281
307.334
307.399
307.476
307.567
307.674
307.798
307.941
308.105
308.292
308.503
308.737
308.993
309.264
309.543
309.813
310.061
310.311
310.568
310.857
307.122
305.839
304.756
303.985
303.458
303.096
302.842
302.665
302.543
302.46
302.407
302.378
302.369
302.375
302.394
302.425
302.466
302.515
302.573
302.637
302.707
302.782
302.862
302.945
303.032
303.121
303.212
303.303
303.394
303.485
303.576
303.665
303.753
303.839
303.922
304.002
304.08
304.154
304.224
304.291
304.354
304.413
304.468
304.519
304.567
304.611
304.652
304.69
304.725
304.757
304.787
304.815
304.84
304.864
304.886
304.906
304.925
304.943
304.959
304.975
304.989
305.003
305.015
305.027
305.039
305.049
305.059
305.069
305.078
305.087
305.096
305.104
305.112
305.12
305.127
305.134
305.141
305.148
305.154
305.161
305.167
305.173
305.179
305.184
305.19
305.195
305.199
305.204
305.208
305.212
305.216
305.219
305.222
305.225
305.227
305.229
305.23
305.231
305.232
305.232
305.233
305.232
305.232
305.231
305.231
305.23
305.229
305.227
305.226
305.225
305.223
305.222
305.221
305.22
305.219
305.218
305.217
305.216
305.215
305.214
305.214
305.213
305.213
305.213
305.212
305.212
305.212
305.211
305.211
305.21
305.21
305.21
305.209
305.209
305.208
305.207
305.206
305.205
305.204
305.203
305.202
305.2
305.199
305.197
305.195
305.193
305.191
305.189
305.186
305.183
305.18
305.177
305.173
305.169
305.165
305.161
305.156
305.151
305.146
305.141
305.136
305.13
305.125
305.12
305.115
305.111
305.107
305.104
305.103
305.102
305.104
305.107
305.113
305.121
305.133
305.149
305.17
305.196
305.228
305.267
305.314
305.37
305.437
305.516
305.608
305.715
305.838
305.98
306.142
306.325
306.53
306.755
306.995
307.243
307.485
307.703
307.882
308.017
308.121
308.161
307.121
305.838
304.756
303.985
303.458
303.096
302.842
302.665
302.543
302.46
302.407
302.378
302.369
302.375
302.394
302.425
302.466
302.515
302.573
302.637
302.707
302.782
302.862
302.945
303.032
303.121
303.212
303.303
303.394
303.485
303.576
303.665
303.753
303.839
303.922
304.002
304.08
304.154
304.224
304.291
304.354
304.413
304.468
304.519
304.567
304.611
304.652
304.69
304.725
304.757
304.787
304.815
304.84
304.864
304.886
304.906
304.925
304.943
304.959
304.975
304.989
305.003
305.015
305.027
305.039
305.049
305.059
305.069
305.078
305.087
305.096
305.104
305.112
305.12
305.127
305.134
305.141
305.148
305.154
305.161
305.167
305.173
305.179
305.184
305.19
305.195
305.199
305.204
305.208
305.212
305.216
305.219
305.222
305.225
305.227
305.229
305.23
305.231
305.232
305.232
305.233
305.232
305.232
305.231
305.231
305.23
305.229
305.227
305.226
305.225
305.223
305.222
305.221
305.22
305.219
305.218
305.217
305.216
305.215
305.214
305.214
305.213
305.213
305.213
305.212
305.212
305.212
305.211
305.211
305.21
305.21
305.21
305.209
305.209
305.208
305.207
305.206
305.205
305.204
305.203
305.202
305.2
305.199
305.197
305.195
305.193
305.191
305.189
305.186
305.183
305.18
305.177
305.173
305.169
305.165
305.161
305.156
305.151
305.146
305.141
305.136
305.13
305.125
305.12
305.115
305.111
305.107
305.104
305.103
305.102
305.104
305.107
305.113
305.121
305.133
305.149
305.17
305.196
305.228
305.267
305.314
305.37
305.437
305.516
305.608
305.714
305.838
305.98
306.142
306.325
306.53
306.755
306.995
307.243
307.485
307.703
307.882
308.017
308.121
308.161
304.656
303.635
302.867
302.346
301.978
301.718
301.535
301.407
301.322
301.267
301.236
301.225
301.229
301.247
301.276
301.314
301.361
301.415
301.476
301.543
301.615
301.692
301.773
301.857
301.944
302.034
302.125
302.217
302.309
302.401
302.493
302.583
302.672
302.758
302.843
302.924
303.003
303.078
303.15
303.218
303.282
303.343
303.4
303.454
303.503
303.55
303.593
303.633
303.67
303.704
303.736
303.766
303.793
303.819
303.843
303.865
303.886
303.905
303.923
303.94
303.957
303.972
303.986
304
304.013
304.025
304.037
304.048
304.059
304.07
304.08
304.089
304.099
304.108
304.117
304.126
304.134
304.143
304.151
304.159
304.166
304.174
304.181
304.188
304.195
304.202
304.208
304.214
304.22
304.225
304.23
304.235
304.239
304.243
304.247
304.25
304.253
304.256
304.258
304.26
304.261
304.262
304.263
304.264
304.265
304.265
304.265
304.265
304.265
304.265
304.265
304.265
304.265
304.265
304.265
304.265
304.265
304.265
304.266
304.266
304.267
304.267
304.268
304.268
304.269
304.27
304.271
304.271
304.272
304.273
304.273
304.274
304.274
304.275
304.275
304.275
304.275
304.275
304.275
304.275
304.275
304.275
304.274
304.274
304.273
304.272
304.271
304.269
304.268
304.266
304.264
304.262
304.26
304.257
304.254
304.251
304.248
304.245
304.241
304.237
304.234
304.23
304.226
304.223
304.22
304.218
304.216
304.215
304.216
304.218
304.221
304.227
304.235
304.246
304.26
304.278
304.301
304.329
304.364
304.405
304.454
304.512
304.58
304.659
304.751
304.858
304.979
305.118
305.275
305.45
305.643
305.852
306.073
306.296
306.511
306.703
306.856
306.957
306.998
306.923
304.655
303.635
302.867
302.346
301.978
301.718
301.535
301.407
301.322
301.267
301.236
301.225
301.229
301.247
301.276
301.314
301.361
301.415
301.476
301.543
301.615
301.692
301.773
301.857
301.944
302.034
302.125
302.217
302.309
302.401
302.493
302.583
302.672
302.758
302.843
302.924
303.003
303.078
303.15
303.218
303.283
303.343
303.4
303.454
303.503
303.55
303.593
303.633
303.67
303.704
303.736
303.766
303.793
303.819
303.843
303.865
303.886
303.905
303.923
303.94
303.957
303.972
303.986
304
304.013
304.025
304.037
304.048
304.059
304.07
304.08
304.089
304.099
304.108
304.117
304.126
304.134
304.143
304.151
304.159
304.166
304.174
304.181
304.188
304.195
304.202
304.208
304.214
304.22
304.225
304.23
304.235
304.239
304.243
304.247
304.25
304.253
304.256
304.258
304.26
304.261
304.262
304.263
304.264
304.265
304.265
304.265
304.265
304.265
304.265
304.265
304.265
304.265
304.265
304.265
304.265
304.265
304.266
304.266
304.266
304.267
304.267
304.268
304.268
304.269
304.27
304.271
304.271
304.272
304.273
304.273
304.274
304.274
304.275
304.275
304.275
304.275
304.275
304.275
304.275
304.275
304.275
304.274
304.274
304.273
304.272
304.271
304.269
304.268
304.266
304.264
304.262
304.26
304.257
304.254
304.251
304.248
304.245
304.241
304.237
304.234
304.23
304.226
304.223
304.22
304.218
304.216
304.215
304.216
304.218
304.221
304.227
304.235
304.246
304.26
304.278
304.301
304.329
304.364
304.405
304.454
304.512
304.58
304.659
304.751
304.857
304.979
305.118
305.275
305.45
305.643
305.852
306.073
306.296
306.511
306.703
306.856
306.957
306.998
306.923
302.798
302.091
301.611
301.28
301.039
300.864
300.739
300.652
300.595
300.561
300.546
300.546
300.559
300.582
300.615
300.656
300.705
300.76
300.82
300.887
300.958
301.033
301.112
301.194
301.28
301.367
301.456
301.546
301.637
301.727
301.817
301.906
301.994
302.08
302.163
302.245
302.323
302.398
302.47
302.538
302.603
302.664
302.722
302.776
302.827
302.874
302.918
302.96
302.998
303.034
303.067
303.098
303.126
303.153
303.178
303.201
303.223
303.244
303.263
303.281
303.298
303.315
303.33
303.344
303.358
303.372
303.384
303.396
303.408
303.419
303.43
303.441
303.451
303.461
303.471
303.48
303.49
303.499
303.507
303.516
303.525
303.533
303.541
303.549
303.556
303.564
303.571
303.577
303.584
303.59
303.596
303.601
303.606
303.611
303.616
303.619
303.623
303.626
303.629
303.632
303.634
303.636
303.638
303.639
303.64
303.641
303.642
303.643
303.643
303.644
303.644
303.645
303.646
303.646
303.647
303.647
303.648
303.649
303.65
303.651
303.652
303.653
303.654
303.655
303.656
303.657
303.658
303.66
303.661
303.662
303.663
303.664
303.665
303.666
303.667
303.668
303.668
303.669
303.669
303.67
303.67
303.67
303.67
303.67
303.67
303.669
303.669
303.668
303.667
303.666
303.665
303.663
303.661
303.659
303.657
303.655
303.652
303.65
303.647
303.644
303.641
303.639
303.636
303.634
303.632
303.631
303.631
303.631
303.633
303.637
303.642
303.649
303.659
303.672
303.688
303.709
303.734
303.764
303.8
303.844
303.895
303.955
304.024
304.105
304.198
304.304
304.425
304.561
304.713
304.881
305.065
305.261
305.465
305.67
305.866
306.04
306.179
306.272
306.305
306.258
302.797
302.091
301.611
301.279
301.039
300.864
300.739
300.652
300.595
300.561
300.546
300.546
300.559
300.582
300.615
300.656
300.705
300.76
300.82
300.887
300.958
301.033
301.112
301.194
301.28
301.367
301.456
301.546
301.637
301.727
301.817
301.906
301.994
302.08
302.163
302.245
302.323
302.398
302.47
302.538
302.603
302.664
302.722
302.776
302.827
302.874
302.918
302.96
302.998
303.034
303.067
303.098
303.126
303.153
303.178
303.201
303.223
303.244
303.263
303.281
303.298
303.315
303.33
303.344
303.358
303.372
303.384
303.396
303.408
303.419
303.43
303.441
303.451
303.461
303.471
303.48
303.49
303.499
303.508
303.516
303.525
303.533
303.541
303.549
303.556
303.564
303.571
303.577
303.584
303.59
303.596
303.601
303.606
303.611
303.616
303.62
303.623
303.626
303.629
303.632
303.634
303.636
303.638
303.639
303.64
303.641
303.642
303.643
303.643
303.644
303.644
303.645
303.646
303.646
303.647
303.647
303.648
303.649
303.65
303.651
303.652
303.653
303.654
303.655
303.656
303.657
303.658
303.66
303.661
303.662
303.663
303.664
303.665
303.666
303.667
303.668
303.668
303.669
303.669
303.67
303.67
303.67
303.67
303.67
303.67
303.669
303.669
303.668
303.667
303.666
303.665
303.663
303.661
303.659
303.657
303.655
303.652
303.65
303.647
303.644
303.641
303.639
303.636
303.634
303.632
303.631
303.631
303.631
303.633
303.637
303.642
303.649
303.659
303.672
303.688
303.708
303.733
303.764
303.8
303.844
303.895
303.955
304.024
304.105
304.198
304.304
304.425
304.561
304.713
304.881
305.065
305.261
305.465
305.67
305.866
306.04
306.18
306.272
306.305
306.258
301.348
300.924
300.666
300.48
300.34
300.235
300.159
300.107
300.075
300.059
300.057
300.066
300.085
300.113
300.149
300.192
300.241
300.295
300.355
300.42
300.489
300.562
300.639
300.718
300.801
300.885
300.972
301.059
301.147
301.235
301.323
301.41
301.495
301.579
301.661
301.741
301.818
301.892
301.963
302.031
302.095
302.156
302.214
302.268
302.319
302.366
302.411
302.452
302.491
302.528
302.561
302.593
302.622
302.649
302.675
302.699
302.722
302.743
302.763
302.781
302.799
302.816
302.832
302.847
302.861
302.875
302.888
302.901
302.913
302.924
302.936
302.947
302.958
302.968
302.978
302.988
302.998
303.007
303.017
303.026
303.035
303.043
303.052
303.06
303.068
303.076
303.083
303.09
303.097
303.104
303.11
303.116
303.121
303.126
303.131
303.136
303.14
303.143
303.147
303.15
303.152
303.155
303.157
303.158
303.16
303.161
303.163
303.164
303.165
303.166
303.167
303.168
303.169
303.169
303.17
303.171
303.172
303.174
303.175
303.176
303.177
303.179
303.18
303.182
303.183
303.185
303.186
303.188
303.189
303.19
303.192
303.193
303.195
303.196
303.197
303.198
303.199
303.2
303.201
303.202
303.202
303.203
303.203
303.203
303.203
303.203
303.203
303.203
303.202
303.201
303.2
303.199
303.198
303.196
303.194
303.193
303.191
303.188
303.186
303.184
303.182
303.18
303.178
303.177
303.176
303.176
303.176
303.178
303.181
303.186
303.193
303.202
303.213
303.228
303.246
303.269
303.296
303.328
303.367
303.413
303.466
303.528
303.6
303.682
303.776
303.882
304.002
304.136
304.285
304.447
304.622
304.807
304.998
305.189
305.37
305.533
305.666
305.761
305.808
305.802
301.348
300.923
300.666
300.48
300.34
300.235
300.159
300.107
300.075
300.059
300.057
300.066
300.085
300.113
300.149
300.192
300.241
300.295
300.355
300.42
300.489
300.562
300.639
300.718
300.801
300.885
300.972
301.059
301.147
301.235
301.323
301.41
301.495
301.579
301.661
301.741
301.818
301.892
301.963
302.031
302.095
302.156
302.214
302.268
302.319
302.366
302.411
302.453
302.491
302.528
302.561
302.593
302.622
302.65
302.675
302.699
302.722
302.743
302.763
302.781
302.799
302.816
302.832
302.847
302.861
302.875
302.888
302.901
302.913
302.924
302.936
302.947
302.958
302.968
302.978
302.988
302.998
303.007
303.017
303.026
303.035
303.043
303.052
303.06
303.068
303.076
303.083
303.09
303.097
303.104
303.11
303.116
303.121
303.126
303.131
303.136
303.14
303.143
303.147
303.15
303.152
303.155
303.157
303.158
303.16
303.161
303.163
303.164
303.165
303.166
303.167
303.168
303.169
303.169
303.17
303.171
303.172
303.174
303.175
303.176
303.177
303.179
303.18
303.182
303.183
303.185
303.186
303.188
303.189
303.19
303.192
303.193
303.195
303.196
303.197
303.198
303.199
303.2
303.201
303.202
303.202
303.203
303.203
303.203
303.203
303.203
303.203
303.203
303.202
303.201
303.2
303.199
303.198
303.196
303.194
303.193
303.191
303.188
303.186
303.184
303.182
303.18
303.178
303.177
303.176
303.176
303.176
303.178
303.181
303.186
303.193
303.202
303.213
303.228
303.246
303.269
303.296
303.328
303.367
303.413
303.466
303.528
303.6
303.682
303.776
303.882
304.002
304.136
304.285
304.447
304.622
304.808
304.998
305.189
305.37
305.533
305.666
305.761
305.808
305.802
300.245
300.059
299.951
299.868
299.801
299.749
299.712
299.688
299.676
299.675
299.684
299.7
299.725
299.756
299.794
299.838
299.887
299.94
299.999
300.062
300.129
300.199
300.273
300.349
300.429
300.51
300.593
300.678
300.763
300.848
300.933
301.017
301.1
301.182
301.262
301.339
301.414
301.487
301.556
301.623
301.686
301.746
301.803
301.857
301.907
301.955
301.999
302.04
302.079
302.115
302.149
302.181
302.21
302.238
302.264
302.288
302.311
302.332
302.352
302.371
302.389
302.406
302.422
302.438
302.452
302.466
302.479
302.492
302.505
302.517
302.528
302.539
302.55
302.561
302.571
302.582
302.592
302.601
302.611
302.62
302.629
302.638
302.647
302.655
302.663
302.671
302.679
302.686
302.694
302.7
302.707
302.713
302.719
302.724
302.729
302.734
302.738
302.742
302.745
302.749
302.751
302.754
302.756
302.759
302.76
302.762
302.764
302.765
302.766
302.768
302.769
302.77
302.771
302.772
302.773
302.775
302.776
302.777
302.779
302.78
302.782
302.783
302.785
302.787
302.788
302.79
302.792
302.794
302.795
302.797
302.799
302.8
302.802
302.803
302.805
302.806
302.807
302.808
302.809
302.81
302.811
302.812
302.812
302.813
302.813
302.813
302.813
302.813
302.813
302.812
302.811
302.811
302.809
302.808
302.807
302.805
302.804
302.802
302.8
302.798
302.797
302.795
302.794
302.794
302.793
302.794
302.796
302.799
302.803
302.809
302.817
302.827
302.841
302.857
302.877
302.902
302.931
302.966
303.008
303.056
303.111
303.176
303.249
303.333
303.429
303.536
303.655
303.787
303.932
304.09
304.258
304.434
304.615
304.794
304.965
305.12
305.25
305.35
305.413
305.429
300.245
300.059
299.951
299.868
299.801
299.749
299.712
299.688
299.676
299.675
299.684
299.7
299.725
299.756
299.794
299.838
299.887
299.94
299.999
300.062
300.129
300.199
300.273
300.349
300.429
300.51
300.593
300.678
300.763
300.848
300.933
301.017
301.1
301.182
301.262
301.339
301.414
301.487
301.556
301.623
301.686
301.746
301.803
301.857
301.907
301.955
301.999
302.04
302.079
302.115
302.149
302.181
302.21
302.238
302.264
302.288
302.311
302.332
302.352
302.371
302.389
302.406
302.422
302.438
302.452
302.466
302.479
302.492
302.505
302.517
302.528
302.539
302.55
302.561
302.571
302.582
302.592
302.601
302.611
302.62
302.629
302.638
302.647
302.655
302.663
302.671
302.679
302.686
302.694
302.7
302.707
302.713
302.719
302.724
302.729
302.734
302.738
302.742
302.745
302.749
302.752
302.754
302.756
302.759
302.76
302.762
302.764
302.765
302.766
302.768
302.769
302.77
302.771
302.772
302.773
302.775
302.776
302.777
302.779
302.78
302.782
302.783
302.785
302.787
302.788
302.79
302.792
302.794
302.795
302.797
302.799
302.8
302.802
302.803
302.805
302.806
302.807
302.808
302.809
302.81
302.811
302.812
302.812
302.813
302.813
302.813
302.813
302.813
302.813
302.812
302.811
302.811
302.809
302.808
302.807
302.805
302.804
302.802
302.8
302.798
302.797
302.795
302.794
302.794
302.793
302.794
302.796
302.799
302.803
302.809
302.817
302.827
302.841
302.857
302.877
302.902
302.931
302.966
303.008
303.056
303.111
303.176
303.249
303.333
303.429
303.536
303.655
303.787
303.933
304.09
304.258
304.434
304.615
304.794
304.965
305.12
305.25
305.35
305.413
305.429
299.464
299.442
299.426
299.406
299.387
299.372
299.362
299.359
299.363
299.373
299.389
299.412
299.441
299.475
299.513
299.557
299.606
299.658
299.715
299.776
299.84
299.908
299.979
300.052
300.129
300.207
300.286
300.368
300.449
300.531
300.613
300.694
300.775
300.854
300.931
301.006
301.079
301.15
301.217
301.282
301.344
301.403
301.458
301.511
301.56
301.607
301.651
301.692
301.73
301.766
301.799
301.831
301.86
301.887
301.913
301.937
301.96
301.981
302.001
302.02
302.038
302.055
302.071
302.086
302.101
302.115
302.128
302.141
302.154
302.166
302.177
302.189
302.2
302.21
302.221
302.231
302.241
302.251
302.26
302.27
302.279
302.288
302.297
302.305
302.314
302.322
302.329
302.337
302.344
302.351
302.357
302.364
302.37
302.375
302.38
302.385
302.389
302.393
302.397
302.4
302.403
302.406
302.409
302.411
302.413
302.415
302.417
302.418
302.42
302.421
302.422
302.424
302.425
302.427
302.428
302.429
302.431
302.432
302.434
302.436
302.437
302.439
302.441
302.443
302.445
302.447
302.449
302.45
302.452
302.454
302.456
302.458
302.459
302.461
302.462
302.464
302.465
302.467
302.468
302.469
302.47
302.471
302.472
302.472
302.473
302.473
302.473
302.473
302.473
302.473
302.472
302.471
302.47
302.469
302.468
302.467
302.465
302.464
302.463
302.461
302.46
302.459
302.459
302.459
302.459
302.461
302.463
302.467
302.472
302.48
302.489
302.501
302.516
302.535
302.557
302.584
302.615
302.653
302.696
302.747
302.805
302.872
302.948
303.034
303.13
303.238
303.357
303.488
303.631
303.784
303.946
304.115
304.288
304.458
304.622
304.771
304.901
305.006
305.084
305.129
299.464
299.442
299.426
299.406
299.387
299.372
299.362
299.359
299.363
299.373
299.389
299.412
299.441
299.475
299.514
299.557
299.606
299.658
299.715
299.776
299.84
299.908
299.979
300.053
300.129
300.207
300.287
300.368
300.449
300.531
300.613
300.695
300.775
300.854
300.931
301.006
301.079
301.15
301.217
301.282
301.344
301.403
301.458
301.511
301.56
301.607
301.651
301.692
301.73
301.766
301.799
301.831
301.86
301.888
301.913
301.937
301.96
301.981
302.001
302.02
302.038
302.055
302.071
302.086
302.101
302.115
302.128
302.141
302.154
302.166
302.177
302.189
302.2
302.21
302.221
302.231
302.241
302.251
302.26
302.27
302.279
302.288
302.297
302.305
302.314
302.322
302.329
302.337
302.344
302.351
302.357
302.364
302.37
302.375
302.38
302.385
302.389
302.393
302.397
302.4
302.403
302.406
302.409
302.411
302.413
302.415
302.417
302.418
302.42
302.421
302.423
302.424
302.425
302.427
302.428
302.429
302.431
302.432
302.434
302.436
302.437
302.439
302.441
302.443
302.445
302.447
302.449
302.45
302.452
302.454
302.456
302.458
302.459
302.461
302.462
302.464
302.465
302.467
302.468
302.469
302.47
302.471
302.472
302.472
302.473
302.473
302.473
302.473
302.473
302.473
302.472
302.471
302.47
302.469
302.468
302.467
302.465
302.464
302.463
302.461
302.46
302.459
302.459
302.459
302.459
302.461
302.463
302.467
302.472
302.48
302.489
302.501
302.516
302.535
302.557
302.584
302.615
302.653
302.696
302.747
302.805
302.872
302.948
303.034
303.13
303.238
303.357
303.488
303.631
303.784
303.946
304.115
304.288
304.458
304.622
304.771
304.901
305.007
305.084
305.129
298.994
299.028
299.053
299.066
299.075
299.082
299.09
299.1
299.114
299.132
299.155
299.181
299.213
299.248
299.287
299.331
299.378
299.429
299.484
299.543
299.605
299.67
299.737
299.808
299.88
299.955
300.031
300.109
300.187
300.266
300.345
300.423
300.5
300.576
300.651
300.723
300.794
300.862
300.927
300.99
301.05
301.107
301.161
301.212
301.261
301.306
301.349
301.389
301.426
301.462
301.494
301.525
301.554
301.581
301.606
301.63
301.652
301.673
301.693
301.712
301.729
301.746
301.762
301.777
301.791
301.805
301.819
301.831
301.844
301.855
301.867
301.878
301.889
301.9
301.91
301.92
301.93
301.94
301.95
301.959
301.968
301.977
301.986
301.994
302.003
302.011
302.018
302.026
302.033
302.04
302.046
302.053
302.059
302.064
302.069
302.074
302.078
302.083
302.086
302.09
302.093
302.096
302.098
302.101
302.103
302.105
302.107
302.108
302.11
302.112
302.113
302.115
302.116
302.118
302.119
302.121
302.122
302.124
302.126
302.128
302.13
302.131
302.133
302.135
302.137
302.139
302.141
302.143
302.145
302.147
302.149
302.151
302.153
302.155
302.156
302.158
302.159
302.161
302.162
302.163
302.164
302.165
302.166
302.167
302.168
302.168
302.168
302.168
302.168
302.168
302.168
302.167
302.166
302.165
302.164
302.163
302.162
302.161
302.16
302.159
302.158
302.157
302.157
302.158
302.159
302.162
302.165
302.17
302.176
302.185
302.196
302.21
302.226
302.247
302.271
302.3
302.334
302.374
302.42
302.474
302.535
302.604
302.682
302.77
302.868
302.976
303.095
303.225
303.366
303.516
303.673
303.837
304.003
304.167
304.325
304.471
304.601
304.712
304.802
304.871
298.994
299.028
299.053
299.066
299.075
299.082
299.09
299.1
299.114
299.132
299.155
299.182
299.213
299.248
299.287
299.331
299.378
299.43
299.484
299.543
299.605
299.67
299.737
299.808
299.88
299.955
300.031
300.109
300.187
300.266
300.345
300.423
300.5
300.576
300.651
300.723
300.794
300.862
300.927
300.99
301.05
301.107
301.161
301.212
301.261
301.306
301.349
301.389
301.426
301.462
301.494
301.525
301.554
301.581
301.606
301.63
301.652
301.673
301.693
301.712
301.729
301.746
301.762
301.777
301.791
301.805
301.819
301.831
301.844
301.855
301.867
301.878
301.889
301.9
301.91
301.92
301.93
301.94
301.95
301.959
301.968
301.977
301.986
301.994
302.003
302.011
302.018
302.026
302.033
302.04
302.046
302.053
302.059
302.064
302.069
302.074
302.078
302.083
302.086
302.09
302.093
302.096
302.098
302.101
302.103
302.105
302.107
302.108
302.11
302.112
302.113
302.115
302.116
302.118
302.119
302.121
302.122
302.124
302.126
302.128
302.13
302.131
302.133
302.135
302.137
302.139
302.141
302.143
302.145
302.147
302.149
302.151
302.153
302.155
302.156
302.158
302.159
302.161
302.162
302.163
302.164
302.165
302.166
302.167
302.168
302.168
302.168
302.168
302.168
302.168
302.168
302.167
302.166
302.165
302.164
302.163
302.162
302.161
302.16
302.159
302.158
302.157
302.157
302.158
302.159
302.162
302.165
302.17
302.176
302.185
302.196
302.21
302.226
302.247
302.271
302.3
302.334
302.374
302.42
302.474
302.535
302.604
302.682
302.77
302.868
302.976
303.095
303.225
303.366
303.516
303.673
303.837
304.003
304.167
304.325
304.471
304.601
304.712
304.802
304.871
298.709
298.756
298.794
298.821
298.843
298.861
298.879
298.898
298.918
298.941
298.967
298.996
299.028
299.064
299.103
299.146
299.192
299.241
299.294
299.35
299.409
299.471
299.536
299.603
299.672
299.743
299.816
299.89
299.965
300.041
300.116
300.191
300.265
300.338
300.409
300.479
300.547
300.612
300.675
300.736
300.794
300.849
300.901
300.95
300.997
301.041
301.083
301.122
301.158
301.192
301.224
301.254
301.282
301.309
301.333
301.356
301.378
301.398
301.418
301.436
301.453
301.469
301.485
301.5
301.514
301.527
301.54
301.553
301.565
301.576
301.587
301.598
301.609
301.62
301.63
301.64
301.65
301.659
301.669
301.678
301.687
301.696
301.704
301.713
301.721
301.729
301.737
301.744
301.751
301.758
301.764
301.771
301.776
301.782
301.787
301.792
301.796
301.8
301.804
301.808
301.811
301.814
301.816
301.819
301.821
301.823
301.825
301.827
301.828
301.83
301.832
301.833
301.835
301.837
301.838
301.84
301.842
301.843
301.845
301.847
301.849
301.851
301.853
301.855
301.857
301.86
301.862
301.864
301.866
301.868
301.87
301.872
301.874
301.876
301.877
301.879
301.881
301.882
301.884
301.885
301.886
301.887
301.888
301.889
301.889
301.89
301.89
301.89
301.89
301.89
301.89
301.889
301.889
301.888
301.887
301.886
301.885
301.884
301.883
301.883
301.882
301.882
301.882
301.884
301.886
301.889
301.893
301.899
301.907
301.917
301.929
301.944
301.963
301.986
302.012
302.044
302.08
302.123
302.172
302.228
302.291
302.363
302.443
302.533
302.633
302.742
302.861
302.991
303.13
303.277
303.431
303.59
303.75
303.91
304.063
304.207
304.338
304.453
304.554
304.642
298.709
298.756
298.794
298.821
298.843
298.861
298.879
298.898
298.918
298.941
298.967
298.996
299.028
299.064
299.103
299.146
299.192
299.241
299.294
299.35
299.409
299.471
299.536
299.603
299.672
299.743
299.816
299.89
299.965
300.041
300.116
300.191
300.265
300.338
300.409
300.479
300.547
300.612
300.675
300.736
300.794
300.849
300.901
300.95
300.997
301.041
301.083
301.122
301.158
301.192
301.224
301.254
301.282
301.309
301.333
301.356
301.378
301.398
301.418
301.436
301.453
301.469
301.485
301.5
301.514
301.527
301.54
301.553
301.565
301.576
301.587
301.598
301.609
301.62
301.63
301.64
301.65
301.659
301.669
301.678
301.687
301.696
301.704
301.713
301.721
301.729
301.737
301.744
301.751
301.758
301.764
301.771
301.776
301.782
301.787
301.792
301.796
301.8
301.804
301.808
301.811
301.814
301.816
301.819
301.821
301.823
301.825
301.827
301.828
301.83
301.832
301.833
301.835
301.837
301.838
301.84
301.842
301.843
301.845
301.847
301.849
301.851
301.853
301.855
301.857
301.86
301.862
301.864
301.866
301.868
301.87
301.872
301.874
301.876
301.877
301.879
301.881
301.882
301.884
301.885
301.886
301.887
301.888
301.889
301.889
301.89
301.89
301.89
301.89
301.89
301.89
301.889
301.889
301.888
301.887
301.886
301.885
301.884
301.883
301.883
301.882
301.882
301.883
301.884
301.886
301.889
301.893
301.899
301.907
301.917
301.929
301.944
301.963
301.986
302.012
302.044
302.08
302.123
302.172
302.228
302.291
302.363
302.443
302.533
302.633
302.742
302.861
302.991
303.13
303.277
303.431
303.59
303.75
303.91
304.063
304.207
304.338
304.453
304.554
304.642
298.534
298.578
298.616
298.646
298.672
298.695
298.718
298.74
298.764
298.789
298.816
298.846
298.878
298.914
298.952
298.993
299.038
299.085
299.136
299.189
299.245
299.304
299.366
299.429
299.495
299.563
299.633
299.703
299.774
299.846
299.918
299.99
300.06
300.13
300.199
300.265
300.33
300.393
300.454
300.512
300.567
300.62
300.67
300.718
300.763
300.805
300.845
300.883
300.918
300.951
300.982
301.011
301.038
301.063
301.087
301.109
301.13
301.15
301.168
301.186
301.202
301.218
301.233
301.247
301.261
301.274
301.286
301.299
301.31
301.322
301.332
301.343
301.354
301.364
301.374
301.383
301.393
301.402
301.412
301.421
301.429
301.438
301.447
301.455
301.463
301.471
301.478
301.485
301.492
301.499
301.505
301.511
301.517
301.523
301.528
301.532
301.537
301.541
301.544
301.548
301.551
301.554
301.556
301.559
301.561
301.563
301.565
301.567
301.569
301.571
301.572
301.574
301.576
301.577
301.579
301.581
301.583