/*--------------------------------*- C++ -*----------------------------------*\
  =========                 |
  \\      /  F ield         | OpenFOAM: The Open Source CFD Toolbox
   \\    /   O peration     | Website:  https://openfoam.org
    \\  /    A nd           | Version:  8
     \\/     M anipulation  |
\*---------------------------------------------------------------------------*/
FoamFile
{
    version     2.0;
    format      ascii;
    class       volVectorField;
    location    "700";
    object      U;
}
// * * * * * * * * * * * * * * * * * * * * * * * * * * * * * * * * * * * * * //

dimensions      [0 1 -1 0 0 0 0];

internalField   nonuniform List<vector> 
46000
(
(-0.00865666 2.94056e-06 0.00928745)
(-0.0275222 2.45625e-05 0.0100851)
(-0.0377343 2.68287e-05 0.00495975)
(-0.0368328 1.76999e-05 -0.00170876)
(-0.0265888 8.11151e-06 -0.00733592)
(-0.0101697 1.34244e-06 -0.0113939)
(0.0110505 -3.2504e-06 -0.0138995)
(0.0341231 -5.71944e-06 -0.0150438)
(0.0584771 -6.50224e-06 -0.0154399)
(0.0829931 -6.36062e-06 -0.0153091)
(0.107052 -5.82131e-06 -0.0147997)
(0.130167 -5.16511e-06 -0.0140177)
(0.151977 -4.52186e-06 -0.0130401)
(0.172218 -3.92795e-06 -0.0119254)
(0.1907 -3.3701e-06 -0.0107195)
(0.207294 -2.8256e-06 -0.00945963)
(0.221923 -2.28203e-06 -0.00817678)
(0.234555 -1.74273e-06 -0.00689711)
(0.245196 -1.22636e-06 -0.00564288)
(0.253883 -7.5984e-07 -0.00443305)
(0.260686 -3.65963e-07 -0.00328376)
(0.265696 -5.51108e-08 -0.00220894)
(0.26903 1.7489e-07 -0.00122088)
(0.270819 3.36167e-07 -0.000329798)
(0.271208 4.42325e-07 0.000461477)
(0.270368 5.08673e-07 0.00115838)
(0.26842 5.51634e-07 0.00176454)
(0.265517 5.81566e-07 0.00228063)
(0.2618 6.05022e-07 0.00270865)
(0.257411 6.25681e-07 0.00305171)
(0.252485 6.4741e-07 0.00331383)
(0.247152 6.75452e-07 0.00349997)
(0.241533 7.12924e-07 0.00361591)
(0.23574 7.56985e-07 0.00366803)
(0.229874 7.98443e-07 0.00366318)
(0.224024 8.26241e-07 0.00360843)
(0.218271 8.34046e-07 0.0035109)
(0.21268 8.22823e-07 0.00337764)
(0.207307 7.97198e-07 0.00321543)
(0.202199 7.58887e-07 0.00303074)
(0.197389 7.03177e-07 0.00282959)
(0.192902 6.21294e-07 0.00261746)
(0.188756 5.06844e-07 0.00239931)
(0.184958 3.61458e-07 0.00217947)
(0.181511 1.96268e-07 0.00196164)
(0.17841 2.90013e-08 0.00174896)
(0.175648 -1.20282e-07 0.00154393)
(0.173211 -2.32955e-07 0.00134851)
(0.171084 -2.944e-07 0.00116412)
(0.16925 -2.95848e-07 0.000991722)
(0.16769 -2.36279e-07 0.000831872)
(0.166383 -1.24663e-07 0.000684756)
(0.165309 1.97324e-08 0.000550266)
(0.16445 1.6961e-07 0.000428038)
(0.163786 2.94808e-07 0.00031749)
(0.163298 3.68619e-07 0.000217847)
(0.162969 3.74515e-07 0.000128143)
(0.162785 3.12098e-07 4.72509e-05)
(0.162729 1.90772e-07 -2.58407e-05)
(0.162794 3.03065e-08 -9.07607e-05)
(0.162961 -1.40858e-07 -0.000147376)
(0.163219 -2.96337e-07 -0.000196818)
(0.163557 -4.13564e-07 -0.00023997)
(0.163965 -4.78742e-07 -0.000277589)
(0.164435 -4.86739e-07 -0.00031033)
(0.164958 -4.39756e-07 -0.000338746)
(0.165528 -3.4812e-07 -0.000363288)
(0.166138 -2.31876e-07 -0.000384326)
(0.166783 -1.15042e-07 -0.000402184)
(0.167457 -1.28854e-08 -0.000417153)
(0.168155 7.14905e-08 -0.000429472)
(0.168874 1.34604e-07 -0.000439334)
(0.169608 1.69798e-07 -0.00044694)
(0.170354 1.83788e-07 -0.000452504)
(0.171109 1.98128e-07 -0.000456199)
(0.171869 2.22521e-07 -0.000458172)
(0.172632 2.46622e-07 -0.000458618)
(0.173395 2.66526e-07 -0.000457786)
(0.174156 2.92852e-07 -0.000455886)
(0.174914 3.24628e-07 -0.000453111)
(0.175667 3.44838e-07 -0.000449727)
(0.176414 3.48323e-07 -0.000446057)
(0.177156 3.45261e-07 -0.000442375)
(0.177892 3.37312e-07 -0.000438913)
(0.178623 3.20453e-07 -0.000435958)
(0.17935 3.0772e-07 -0.000433826)
(0.180075 3.18613e-07 -0.000432756)
(0.1808 3.49338e-07 -0.000432912)
(0.181526 3.80066e-07 -0.000434475)
(0.182256 4.04988e-07 -0.000437627)
(0.182994 4.30723e-07 -0.000442476)
(0.183741 4.5288e-07 -0.000449054)
(0.1845 4.57752e-07 -0.000457375)
(0.185276 4.42387e-07 -0.000467416)
(0.18607 4.15208e-07 -0.00047906)
(0.186884 3.82155e-07 -0.00049212)
(0.187722 3.46686e-07 -0.000506398)
(0.188584 3.16871e-07 -0.000521682)
(0.189473 2.98851e-07 -0.000537682)
(0.190388 2.87757e-07 -0.000554049)
(0.191331 2.76465e-07 -0.000570442)
(0.192301 2.68199e-07 -0.000586546)
(0.193297 2.71089e-07 -0.000602025)
(0.194318 2.84198e-07 -0.000616512)
(0.195362 2.98221e-07 -0.000629664)
(0.196426 3.0729e-07 -0.000641201)
(0.197508 3.10813e-07 -0.000650888)
(0.198604 3.05393e-07 -0.000658517)
(0.199711 2.83676e-07 -0.000663935)
(0.200825 2.43292e-07 -0.000667069)
(0.201943 1.91601e-07 -0.000667913)
(0.20306 1.40199e-07 -0.000666499)
(0.204173 9.82911e-08 -0.000662899)
(0.205279 7.15946e-08 -0.000657249)
(0.206374 6.16501e-08 -0.00064974)
(0.207456 6.23358e-08 -0.000640598)
(0.208521 6.01545e-08 -0.000630079)
(0.209569 4.26797e-08 -0.000618477)
(0.210597 7.94687e-09 -0.000606115)
(0.211605 -3.46284e-08 -0.000593318)
(0.212592 -7.16203e-08 -0.000580381)
(0.213558 -9.28912e-08 -0.00056757)
(0.214503 -9.47236e-08 -0.000555132)
(0.215429 -8.1092e-08 -0.000543302)
(0.216336 -6.35679e-08 -0.000532283)
(0.217226 -5.67304e-08 -0.000522245)
(0.2181 -6.89332e-08 -0.000513319)
(0.218961 -9.51423e-08 -0.000505597)
(0.21981 -1.19447e-07 -0.000499118)
(0.220649 -1.26279e-07 -0.000493862)
(0.221481 -1.11669e-07 -0.00048977)
(0.222306 -8.56242e-08 -0.000486775)
(0.223128 -6.47039e-08 -0.000484822)
(0.223947 -6.00471e-08 -0.000483854)
(0.224765 -6.94564e-08 -0.000483799)
(0.225583 -7.83574e-08 -0.000484562)
(0.226404 -7.01378e-08 -0.000486043)
(0.227227 -3.85377e-08 -0.000488162)
(0.228054 6.64915e-09 -0.000490868)
(0.228886 4.62402e-08 -0.000494145)
(0.229724 6.59859e-08 -0.000498001)
(0.230569 6.70442e-08 -0.000502461)
(0.231421 6.40725e-08 -0.000507556)
(0.232283 7.22086e-08 -0.000513328)
(0.233155 9.43077e-08 -0.00051984)
(0.234039 1.19713e-07 -0.000527194)
(0.234937 1.36334e-07 -0.000535519)
(0.23585 1.4549e-07 -0.000544939)
(0.236779 1.63661e-07 -0.000555542)
(0.237728 2.06239e-07 -0.000567358)
(0.238698 2.67177e-07 -0.000580391)
(0.239691 3.15976e-07 -0.000594634)
(0.240709 3.18249e-07 -0.000610063)
(0.241754 2.63431e-07 -0.000626595)
(0.242827 1.76757e-07 -0.000644064)
(0.24393 1.05349e-07 -0.000662224)
(0.245064 8.66253e-08 -0.000680746)
(0.246229 1.21133e-07 -0.000699215)
(0.247423 1.75643e-07 -0.000717122)
(0.248645 2.20372e-07 -0.000733853)
(0.249893 2.61435e-07 -0.000748642)
(0.251161 3.23824e-07 -0.000760498)
(0.252443 4.0025e-07 -0.000768227)
(0.253731 4.37296e-07 -0.00077049)
(0.255013 3.8985e-07 -0.000765788)
(0.256276 2.77751e-07 -0.0007523)
(0.257503 1.66538e-07 -0.000727781)
(0.258672 9.76233e-08 -0.000689647)
(0.259756 6.49422e-08 -0.000635102)
(0.260725 6.33348e-08 -0.000561063)
(0.261541 1.22961e-07 -0.000463929)
(0.26216 2.65287e-07 -0.000339408)
(0.26253 4.43348e-07 -0.00018221)
(0.262591 5.60536e-07 1.27542e-05)
(0.262276 5.69293e-07 0.000252718)
(0.261496 5.11889e-07 0.000547211)
(0.260154 4.4313e-07 0.000905022)
(0.258139 3.58917e-07 0.00133472)
(0.255326 2.31455e-07 0.0018447)
(0.25158 9.94063e-08 0.00244318)
(0.246749 5.81105e-08 0.00313803)
(0.240676 1.49871e-07 0.00393618)
(0.233193 3.27564e-07 0.0048426)
(0.224128 5.48189e-07 0.00585928)
(0.213314 8.2234e-07 0.00698413)
(0.200591 1.12779e-06 0.00820959)
(0.185821 1.3732e-06 0.00952048)
(0.168902 1.525e-06 0.010891)
(0.149784 1.67071e-06 0.0122812)
(0.128496 1.88815e-06 0.0136316)
(0.105178 2.19092e-06 0.0148562)
(0.0801313 2.647e-06 0.0158276)
(0.05386 3.36188e-06 0.0163554)
(0.0273258 4.33797e-06 0.016142)
(0.00162643 5.33922e-06 0.0145499)
(-0.0208598 5.66651e-06 0.0107355)
(-0.0366081 5.22922e-06 0.00449212)
(-0.042057 5.13969e-06 -0.00382545)
(-0.0337175 6.13516e-06 -0.0114946)
(-0.0118654 7.01609e-06 -0.0128191)
(-0.00861351 2.94046e-06 0.00923525)
(-0.027472 2.45634e-05 0.00999879)
(-0.0377306 2.68302e-05 0.00489508)
(-0.0368519 1.77005e-05 -0.0017458)
(-0.0266089 8.11162e-06 -0.00735307)
(-0.0101834 1.34243e-06 -0.0113994)
(0.0110432 -3.25038e-06 -0.013899)
(0.0341204 -5.71939e-06 -0.015041)
(0.0584773 -6.50218e-06 -0.0154366)
(0.0829948 -6.36056e-06 -0.0153059)
(0.107055 -5.82125e-06 -0.0147969)
(0.130169 -5.16506e-06 -0.0140152)
(0.151979 -4.52182e-06 -0.0130381)
(0.17222 -3.92792e-06 -0.0119237)
(0.190702 -3.37008e-06 -0.0107181)
(0.207296 -2.82558e-06 -0.00945853)
(0.221926 -2.28201e-06 -0.00817588)
(0.234557 -1.74272e-06 -0.00689637)
(0.245197 -1.22635e-06 -0.00564227)
(0.253885 -7.59837e-07 -0.00443257)
(0.260687 -3.65961e-07 -0.00328343)
(0.265697 -5.51106e-08 -0.00220878)
(0.269031 1.7489e-07 -0.0012209)
(0.27082 3.36166e-07 -0.00033001)
(0.271209 4.42323e-07 0.00046109)
(0.270369 5.08671e-07 0.00115785)
(0.268421 5.51632e-07 0.00176388)
(0.265517 5.81564e-07 0.00227987)
(0.261801 6.0502e-07 0.00270782)
(0.257411 6.25678e-07 0.00305082)
(0.252486 6.47407e-07 0.00331292)
(0.247153 6.7545e-07 0.00349907)
(0.241534 7.12921e-07 0.00361503)
(0.235741 7.56982e-07 0.00366721)
(0.229874 7.9844e-07 0.00366241)
(0.224025 8.26238e-07 0.00360771)
(0.218271 8.34043e-07 0.00351021)
(0.21268 8.22819e-07 0.00337697)
(0.207308 7.97195e-07 0.00321477)
(0.2022 7.58883e-07 0.00303008)
(0.19739 7.03173e-07 0.00282892)
(0.192903 6.21291e-07 0.00261678)
(0.188757 5.06841e-07 0.0023986)
(0.184959 3.61456e-07 0.00217872)
(0.181512 1.96267e-07 0.00196087)
(0.178411 2.90011e-08 0.00174817)
(0.175649 -1.20282e-07 0.00154315)
(0.173212 -2.32954e-07 0.00134775)
(0.171085 -2.94398e-07 0.00116342)
(0.169251 -2.95846e-07 0.000991109)
(0.167691 -2.36278e-07 0.00083135)
(0.166384 -1.24662e-07 0.000684328)
(0.165311 1.97323e-08 0.000549924)
(0.164451 1.69609e-07 0.000427761)
(0.163787 2.94806e-07 0.000317249)
(0.163299 3.68617e-07 0.000217607)
(0.16297 3.74512e-07 0.000127868)
(0.162786 3.12096e-07 4.6911e-05)
(0.162731 1.90771e-07 -2.6257e-05)
(0.162796 3.03063e-08 -9.12448e-05)
(0.162963 -1.40857e-07 -0.000147913)
(0.163221 -2.96335e-07 -0.000197385)
(0.163559 -4.13561e-07 -0.000240543)
(0.163967 -4.78739e-07 -0.000278147)
(0.164437 -4.86736e-07 -0.000310858)
(0.16496 -4.39753e-07 -0.000339229)
(0.16553 -3.48118e-07 -0.000363722)
(0.16614 -2.31875e-07 -0.000384726)
(0.166784 -1.15042e-07 -0.000402574)
(0.167458 -1.28854e-08 -0.000417547)
(0.168157 7.14901e-08 -0.000429877)
(0.168875 1.34604e-07 -0.000439769)
(0.169609 1.69797e-07 -0.000447431)
(0.170355 1.83787e-07 -0.000453045)
(0.17111 1.98126e-07 -0.000456761)
(0.17187 2.2252e-07 -0.000458743)
(0.172633 2.46621e-07 -0.000459213)
(0.173396 2.66525e-07 -0.000458394)
(0.174157 2.92851e-07 -0.000456484)
(0.174915 3.24626e-07 -0.000453699)
(0.175668 3.44836e-07 -0.000450323)
(0.176415 3.48321e-07 -0.000446661)
(0.177157 3.45259e-07 -0.000442979)
(0.177893 3.3731e-07 -0.000439537)
(0.178624 3.20451e-07 -0.000436622)
(0.179351 3.07718e-07 -0.000434504)
(0.180076 3.18611e-07 -0.000433404)
(0.180801 3.49336e-07 -0.000433529)
(0.181527 3.80065e-07 -0.000435087)
(0.182257 4.04986e-07 -0.00043824)
(0.182995 4.30721e-07 -0.00044307)
(0.183742 4.52878e-07 -0.000449622)
(0.184501 4.57749e-07 -0.000457928)
(0.185277 4.42385e-07 -0.000467965)
(0.186071 4.15206e-07 -0.000479617)
(0.186885 3.82153e-07 -0.000492702)
(0.187723 3.46684e-07 -0.000507011)
(0.188585 3.1687e-07 -0.000522298)
(0.189474 2.98849e-07 -0.000538268)
(0.19039 2.87756e-07 -0.000554598)
(0.191332 2.76464e-07 -0.000570974)
(0.192302 2.68197e-07 -0.000587067)
(0.193298 2.71088e-07 -0.000602527)
(0.194319 2.84196e-07 -0.000616994)
(0.195363 2.9822e-07 -0.000630142)
(0.196427 3.07289e-07 -0.000641688)
(0.197509 3.10811e-07 -0.00065138)
(0.198605 3.05392e-07 -0.000659009)
(0.199712 2.83674e-07 -0.00066443)
(0.200827 2.4329e-07 -0.000667573)
(0.201944 1.916e-07 -0.000668423)
(0.203061 1.40198e-07 -0.000667009)
(0.204174 9.82906e-08 -0.000663412)
(0.20528 7.15943e-08 -0.000657765)
(0.206375 6.16498e-08 -0.000650253)
(0.207457 6.23355e-08 -0.000641098)
(0.208523 6.01542e-08 -0.000630567)
(0.20957 4.26795e-08 -0.000618965)
(0.210598 7.94683e-09 -0.000606615)
(0.211606 -3.46282e-08 -0.000593831)
(0.212593 -7.162e-08 -0.000580901)
(0.213559 -9.28908e-08 -0.000568091)
(0.214504 -9.47232e-08 -0.000555652)
(0.21543 -8.10916e-08 -0.000543815)
(0.216337 -6.35677e-08 -0.000532786)
(0.217227 -5.67301e-08 -0.000522741)
(0.218101 -6.89329e-08 -0.000513818)
(0.218962 -9.5142e-08 -0.000506105)
(0.219811 -1.19446e-07 -0.000499628)
(0.22065 -1.26278e-07 -0.000494361)
(0.221482 -1.11669e-07 -0.000490251)
(0.222307 -8.5624e-08 -0.000487241)
(0.223129 -6.47037e-08 -0.000485283)
(0.223948 -6.00469e-08 -0.000484319)
(0.224766 -6.94562e-08 -0.000484274)
(0.225584 -7.83572e-08 -0.000485047)
(0.226405 -7.01376e-08 -0.000486536)
(0.227228 -3.85376e-08 -0.00048865)
(0.228055 6.64913e-09 -0.000491338)
(0.228887 4.62401e-08 -0.000494587)
(0.229725 6.59857e-08 -0.000498419)
(0.230569 6.7044e-08 -0.000502865)
(0.231422 6.40724e-08 -0.000507954)
(0.232284 7.22084e-08 -0.00051372)
(0.233156 9.43075e-08 -0.000520221)
(0.23404 1.19712e-07 -0.000527557)
(0.234938 1.36334e-07 -0.000535858)
(0.23585 1.4549e-07 -0.000545249)
(0.23678 1.6366e-07 -0.000555811)
(0.237729 2.06239e-07 -0.000567582)
(0.238699 2.67176e-07 -0.000580577)
(0.239692 3.15975e-07 -0.000594806)
(0.24071 3.18248e-07 -0.000610246)
(0.241755 2.6343e-07 -0.000626814)
(0.242828 1.76757e-07 -0.000644336)
(0.243931 1.05349e-07 -0.000662544)
(0.245065 8.66251e-08 -0.000681087)
(0.246229 1.21133e-07 -0.000699541)
(0.247424 1.75643e-07 -0.000717418)
(0.248646 2.20371e-07 -0.000734126)
(0.249893 2.61434e-07 -0.000748889)
(0.251161 3.23823e-07 -0.000760711)
(0.252444 4.00249e-07 -0.000768414)
(0.253732 4.37295e-07 -0.000770692)
(0.255014 3.89848e-07 -0.000766051)
(0.256277 2.77751e-07 -0.000752651)
(0.257504 1.66537e-07 -0.000728233)
(0.258673 9.76231e-08 -0.000690205)
(0.259757 6.49421e-08 -0.000635723)
(0.260726 6.33346e-08 -0.000561631)
(0.261542 1.2296e-07 -0.000464326)
(0.262161 2.65287e-07 -0.000339633)
(0.26253 4.43347e-07 -0.000182394)
(0.262591 5.60534e-07 1.24877e-05)
(0.262276 5.69292e-07 0.000252349)
(0.261496 5.11887e-07 0.000546772)
(0.260155 4.43129e-07 0.000904513)
(0.25814 3.58916e-07 0.00133409)
(0.255328 2.31455e-07 0.00184394)
(0.251581 9.94059e-08 0.00244233)
(0.24675 5.81103e-08 0.00313718)
(0.240677 1.49871e-07 0.00393536)
(0.233194 3.27563e-07 0.00484182)
(0.224129 5.48188e-07 0.00585852)
(0.213315 8.22337e-07 0.00698339)
(0.200592 1.12779e-06 0.00820885)
(0.185822 1.37319e-06 0.0095196)
(0.168903 1.52499e-06 0.0108897)
(0.149785 1.67071e-06 0.0122794)
(0.128497 1.88814e-06 0.0136295)
(0.105178 2.19092e-06 0.0148536)
(0.0801318 2.647e-06 0.0158245)
(0.0538603 3.36188e-06 0.0163518)
(0.0273257 4.33798e-06 0.0161382)
(0.00162529 5.3392e-06 0.0145463)
(-0.0208617 5.66648e-06 0.0107333)
(-0.0366102 5.22919e-06 0.00449126)
(-0.042059 5.13964e-06 -0.00382557)
(-0.033719 6.13511e-06 -0.0114941)
(-0.0118666 7.01606e-06 -0.0128185)
(-0.00864262 -2.3927e-05 0.0280275)
(-0.0179703 -1.14341e-05 0.0206685)
(-0.0142677 -1.44716e-06 0.00376426)
(-0.00330725 1.31889e-06 -0.0118125)
(0.012931 1.95899e-06 -0.0234668)
(0.0326649 2.1105e-06 -0.0313618)
(0.0548418 1.97546e-06 -0.0361964)
(0.0784457 1.64942e-06 -0.0386993)
(0.102768 1.33157e-06 -0.0396017)
(0.127132 1.07538e-06 -0.039319)
(0.15104 8.71495e-07 -0.0381616)
(0.174094 7.04153e-07 -0.0363507)
(0.195982 5.59661e-07 -0.034053)
(0.216462 4.27735e-07 -0.0313981)
(0.235353 3.04078e-07 -0.0284911)
(0.252523 1.89726e-07 -0.0254198)
(0.267885 8.87244e-08 -0.0222588)
(0.281392 5.40706e-09 -0.019073)
(0.293029 -5.75351e-08 -0.0159187)
(0.302814 -9.98152e-08 -0.0128449)
(0.310792 -1.23605e-07 -0.00989381)
(0.31703 -1.33602e-07 -0.00710203)
(0.321616 -1.35889e-07 -0.00450075)
(0.324652 -1.35709e-07 -0.00211648)
(0.326252 -1.34898e-07 3.24235e-05)
(0.326541 -1.32636e-07 0.0019463)
(0.325662 -1.2804e-07 0.00363099)
(0.323755 -1.21379e-07 0.00508526)
(0.32096 -1.15393e-07 0.00631149)
(0.317413 -1.13598e-07 0.00731535)
(0.313248 -1.17946e-07 0.0081056)
(0.308593 -1.2725e-07 0.00869375)
(0.303569 -1.3783e-07 0.00909363)
(0.298286 -1.45564e-07 0.0093209)
(0.29285 -1.47574e-07 0.00939249)
(0.287354 -1.4259e-07 0.00932622)
(0.28188 -1.303e-07 0.00914024)
(0.276501 -1.10454e-07 0.00885271)
(0.271278 -8.27227e-08 0.00848135)
(0.266264 -4.74686e-08 0.00804317)
(0.261499 -6.63296e-09 0.00755414)
(0.257014 3.63009e-08 0.00702904)
(0.252834 7.71442e-08 0.00648122)
(0.248973 1.11838e-07 0.00592256)
(0.245438 1.36816e-07 0.00536337)
(0.242233 1.49097e-07 0.00481239)
(0.239352 1.46719e-07 0.00427683)
(0.236789 1.29574e-07 0.0037624)
(0.234531 1.0021e-07 0.00327347)
(0.232565 6.39983e-08 0.00281314)
(0.230875 2.81445e-08 0.0023834)
(0.229443 -8.33288e-11 0.00198523)
(0.228251 -1.51172e-08 0.00161883)
(0.227281 -1.41925e-08 0.00128364)
(0.226514 2.37208e-09 0.000978581)
(0.225934 3.12188e-08 0.000702059)
(0.225523 6.68481e-08 0.000452107)
(0.225265 1.02894e-07 0.000226517)
(0.225144 1.33442e-07 2.27966e-05)
(0.225147 1.53027e-07 -0.000159347)
(0.225262 1.57791e-07 -0.00032018)
(0.225475 1.47632e-07 -0.000462059)
(0.225777 1.25754e-07 -0.000586948)
(0.226158 9.69163e-08 -0.000696616)
(0.226607 6.58444e-08 -0.000792627)
(0.227117 3.70817e-08 -0.000876338)
(0.227679 1.53626e-08 -0.000948922)
(0.228287 3.31703e-09 -0.00101139)
(0.228934 -1.71998e-09 -0.00106461)
(0.229614 -4.51035e-09 -0.00110936)
(0.230321 -5.13071e-09 -0.00114632)
(0.23105 -1.82003e-09 -0.00117609)
(0.231798 5.05321e-10 -0.00119926)
(0.232558 -5.48903e-09 -0.00121638)
(0.233328 -1.75349e-08 -0.00122799)
(0.234103 -2.81429e-08 -0.00123467)
(0.234882 -3.81014e-08 -0.00123699)
(0.23566 -5.2508e-08 -0.00123558)
(0.236436 -6.78325e-08 -0.0012311)
(0.237209 -7.67064e-08 -0.00122426)
(0.237976 -8.01251e-08 -0.00121579)
(0.238736 -8.27986e-08 -0.00120644)
(0.239491 -8.29672e-08 -0.00119699)
(0.240239 -7.76131e-08 -0.00118824)
(0.240981 -7.00679e-08 -0.00118092)
(0.241719 -6.38994e-08 -0.00117572)
(0.242454 -5.68784e-08 -0.00117331)
(0.243188 -4.75903e-08 -0.00117429)
(0.243923 -4.04201e-08 -0.00117915)
(0.244663 -3.86758e-08 -0.00118827)
(0.245408 -3.98252e-08 -0.00120192)
(0.246164 -4.11174e-08 -0.00122025)
(0.246932 -4.35368e-08 -0.00124326)
(0.247716 -4.74184e-08 -0.00127081)
(0.248518 -5.01493e-08 -0.0013026)
(0.249341 -5.05672e-08 -0.00133822)
(0.250188 -5.10476e-08 -0.00137709)
(0.251059 -5.36346e-08 -0.00141854)
(0.251956 -5.79472e-08 -0.00146176)
(0.252881 -6.37572e-08 -0.00150594)
(0.253833 -7.15969e-08 -0.00155019)
(0.254812 -7.97633e-08 -0.00159356)
(0.255818 -8.39771e-08 -0.0016351)
(0.256849 -8.14149e-08 -0.00167392)
(0.257903 -7.30543e-08 -0.00170919)
(0.258978 -6.13236e-08 -0.00174015)
(0.260071 -4.78516e-08 -0.00176615)
(0.261179 -3.43972e-08 -0.00178669)
(0.262297 -2.36619e-08 -0.00180141)
(0.263424 -1.72458e-08 -0.0018101)
(0.264554 -1.36266e-08 -0.00181269)
(0.265684 -9.56449e-09 -0.00180925)
(0.26681 -2.99401e-09 -0.00180005)
(0.26793 5.97951e-09 -0.00178544)
(0.269039 1.58955e-08 -0.00176593)
(0.270135 2.43666e-08 -0.00174213)
(0.271216 2.83288e-08 -0.00171474)
(0.272279 2.58638e-08 -0.00168453)
(0.273323 1.87463e-08 -0.0016523)
(0.274347 1.25882e-08 -0.00161884)
(0.27535 1.33921e-08 -0.00158491)
(0.276332 2.36255e-08 -0.00155125)
(0.277293 4.09511e-08 -0.00151854)
(0.278235 5.97004e-08 -0.00148738)
(0.279158 7.32081e-08 -0.0014583)
(0.280064 7.61826e-08 -0.00143173)
(0.280953 6.73615e-08 -0.001408)
(0.281828 5.11824e-08 -0.0013873)
(0.282691 3.60937e-08 -0.00136973)
(0.283543 2.92253e-08 -0.00135528)
(0.284386 3.12707e-08 -0.00134387)
(0.285222 3.63902e-08 -0.0013354)
(0.286054 3.74671e-08 -0.0013297)
(0.286881 3.22214e-08 -0.00132659)
(0.287706 2.46353e-08 -0.00132584)
(0.288531 2.07591e-08 -0.00132724)
(0.289356 2.29448e-08 -0.00133057)
(0.290182 2.75285e-08 -0.00133565)
(0.291012 2.7555e-08 -0.0013424)
(0.291844 1.82635e-08 -0.00135076)
(0.292682 1.03694e-09 -0.00136076)
(0.293525 -1.69255e-08 -0.00137246)
(0.294374 -2.71817e-08 -0.00138593)
(0.295232 -2.59868e-08 -0.00140133)
(0.296098 -1.74534e-08 -0.00141888)
(0.296975 -1.12037e-08 -0.00143882)
(0.297864 -1.52107e-08 -0.00146144)
(0.298767 -2.87718e-08 -0.00148696)
(0.299684 -4.21114e-08 -0.00151556)
(0.300619 -4.49644e-08 -0.00154731)
(0.301572 -3.69753e-08 -0.00158228)
(0.302546 -2.83087e-08 -0.00162044)
(0.303543 -2.82133e-08 -0.00166165)
(0.304563 -3.40168e-08 -0.00170561)
(0.305609 -3.38164e-08 -0.00175178)
(0.30668 -1.97753e-08 -0.0017994)
(0.307778 3.35571e-09 -0.00184752)
(0.308901 2.2318e-08 -0.00189497)
(0.310049 2.61005e-08 -0.00194026)
(0.311219 1.43688e-08 -0.0019815)
(0.312407 -1.78659e-09 -0.00201638)
(0.313609 -9.45009e-09 -0.00204217)
(0.314816 -8.0273e-09 -0.00205565)
(0.31602 -1.08229e-08 -0.002053)
(0.317208 -2.61889e-08 -0.00202974)
(0.318365 -4.1003e-08 -0.00198058)
(0.319472 -3.54036e-08 -0.00189939)
(0.320506 -1.52845e-08 -0.0017791)
(0.321439 -1.38027e-08 -0.00161154)
(0.322237 -4.97879e-08 -0.00138741)
(0.32286 -9.704e-08 -0.0010962)
(0.32326 -1.12554e-07 -0.000726125)
(0.32338 -8.92487e-08 -0.00026426)
(0.323156 -5.88719e-08 0.000304343)
(0.322508 -4.38524e-08 0.00100006)
(0.321351 -3.13756e-08 0.00184498)
(0.319585 -7.86895e-09 0.00285926)
(0.317101 5.3764e-09 0.00406338)
(0.313776 -2.12093e-08 0.00547789)
(0.309474 -7.97093e-08 0.00712244)
(0.304052 -1.36036e-07 0.00901459)
(0.297355 -1.77149e-07 0.0111682)
(0.289226 -2.14107e-07 0.0135918)
(0.279505 -2.4795e-07 0.016286)
(0.268038 -2.70234e-07 0.0192403)
(0.254685 -2.87225e-07 0.0224295)
(0.239326 -3.08188e-07 0.0258086)
(0.221881 -3.33496e-07 0.0293071)
(0.202319 -3.84108e-07 0.0328203)
(0.180683 -4.92941e-07 0.0361988)
(0.157116 -6.54899e-07 0.0392313)
(0.131896 -8.5341e-07 0.0416212)
(0.105471 -1.07368e-06 0.0429423)
(0.0785433 -1.20706e-06 0.0425884)
(0.0520549 -1.12753e-06 0.0396026)
(0.0272355 -9.74967e-07 0.0326934)
(0.0056716 -1.02787e-06 0.0206046)
(-0.0104146 -1.25578e-06 0.00238773)
(-0.0187057 -7.30579e-07 -0.0199621)
(-0.0104041 3.09136e-06 -0.0359312)
(-0.00863042 -2.39261e-05 0.0280179)
(-0.0179486 -1.14339e-05 0.0206326)
(-0.0142498 -1.44716e-06 0.00373724)
(-0.00329973 1.31891e-06 -0.0118286)
(0.0129339 1.959e-06 -0.0234755)
(0.0326665 2.11051e-06 -0.0313662)
(0.0548433 1.97547e-06 -0.0361983)
(0.0784474 1.64942e-06 -0.0387)
(0.10277 1.33157e-06 -0.0396018)
(0.127134 1.07538e-06 -0.0393189)
(0.151042 8.71494e-07 -0.0381613)
(0.174096 7.04152e-07 -0.0363504)
(0.195984 5.5966e-07 -0.0340526)
(0.216464 4.27734e-07 -0.0313977)
(0.235355 3.04077e-07 -0.0284908)
(0.252525 1.89725e-07 -0.0254195)
(0.267887 8.87243e-08 -0.0222586)
(0.281393 5.40705e-09 -0.0190729)
(0.29303 -5.7535e-08 -0.0159186)
(0.302815 -9.9815e-08 -0.0128448)
(0.310793 -1.23604e-07 -0.00989385)
(0.317031 -1.33602e-07 -0.00710211)
(0.321617 -1.35888e-07 -0.00450086)
(0.324653 -1.35708e-07 -0.00211661)
(0.326252 -1.34898e-07 3.22801e-05)
(0.326541 -1.32636e-07 0.00194615)
(0.325662 -1.2804e-07 0.00363084)
(0.323755 -1.21379e-07 0.0050851)
(0.32096 -1.15393e-07 0.00631133)
(0.317413 -1.13598e-07 0.00731518)
(0.313249 -1.17946e-07 0.00810542)
(0.308594 -1.27249e-07 0.00869355)
(0.303569 -1.3783e-07 0.00909343)
(0.298287 -1.45564e-07 0.00932067)
(0.292851 -1.47573e-07 0.00939226)
(0.287354 -1.42589e-07 0.00932599)
(0.28188 -1.30299e-07 0.00914002)
(0.276501 -1.10453e-07 0.0088525)
(0.271279 -8.27225e-08 0.00848116)
(0.266264 -4.74684e-08 0.00804299)
(0.261499 -6.63294e-09 0.00755399)
(0.257015 3.63008e-08 0.00702892)
(0.252835 7.7144e-08 0.00648113)
(0.248973 1.11838e-07 0.0059225)
(0.245439 1.36816e-07 0.00536335)
(0.242233 1.49096e-07 0.0048124)
(0.239353 1.46719e-07 0.00427685)
(0.23679 1.29573e-07 0.00376243)
(0.234532 1.00209e-07 0.0032735)
(0.232566 6.3998e-08 0.00281315)
(0.230876 2.81444e-08 0.00238338)
(0.229444 -8.33286e-11 0.00198519)
(0.228252 -1.51172e-08 0.00161876)
(0.227281 -1.41925e-08 0.00128356)
(0.226515 2.37207e-09 0.000978492)
(0.225935 3.12187e-08 0.000701976)
(0.225524 6.68479e-08 0.00045204)
(0.225266 1.02893e-07 0.00022647)
(0.225145 1.33442e-07 2.27747e-05)
(0.225148 1.53027e-07 -0.000159339)
(0.225263 1.5779e-07 -0.000320147)
(0.225477 1.47632e-07 -0.00046201)
(0.225779 1.25754e-07 -0.000586891)
(0.226159 9.6916e-08 -0.000696562)
(0.226608 6.58442e-08 -0.000792583)
(0.227118 3.70816e-08 -0.00087631)
(0.22768 1.53625e-08 -0.000948913)
(0.228288 3.31702e-09 -0.0010114)
(0.228935 -1.71997e-09 -0.00106465)
(0.229615 -4.51034e-09 -0.00110942)
(0.230322 -5.13069e-09 -0.00114639)
(0.231051 -1.82002e-09 -0.00117619)
(0.231798 5.05319e-10 -0.00119937)
(0.232559 -5.48901e-09 -0.0012165)
(0.233329 -1.75349e-08 -0.00122812)
(0.234104 -2.81428e-08 -0.00123481)
(0.234883 -3.81012e-08 -0.00123715)
(0.235661 -5.25078e-08 -0.00123574)
(0.236437 -6.78323e-08 -0.00123127)
(0.237209 -7.67062e-08 -0.00122444)
(0.237976 -8.01249e-08 -0.00121598)
(0.238737 -8.27983e-08 -0.00120664)
(0.239491 -8.29669e-08 -0.00119718)
(0.240239 -7.76128e-08 -0.00118842)
(0.240982 -7.00677e-08 -0.00118108)
(0.24172 -6.38992e-08 -0.00117587)
(0.242455 -5.68782e-08 -0.00117345)
(0.243189 -4.75902e-08 -0.00117442)
(0.243924 -4.042e-08 -0.00117927)
(0.244663 -3.86757e-08 -0.00118837)
(0.245409 -3.98251e-08 -0.00120202)
(0.246165 -4.11173e-08 -0.00122037)
(0.246933 -4.35367e-08 -0.00124341)
(0.247717 -4.74183e-08 -0.00127097)
(0.248519 -5.01492e-08 -0.00130277)
(0.249342 -5.05671e-08 -0.00133838)
(0.250188 -5.10475e-08 -0.00137724)
(0.251059 -5.36345e-08 -0.00141868)
(0.251957 -5.7947e-08 -0.00146192)
(0.252882 -6.3757e-08 -0.00150613)
(0.253834 -7.15967e-08 -0.00155039)
(0.254813 -7.97631e-08 -0.00159375)
(0.255819 -8.39769e-08 -0.00163528)
(0.25685 -8.14147e-08 -0.0016741)
(0.257904 -7.30541e-08 -0.00170936)
(0.258979 -6.13235e-08 -0.00174031)
(0.260072 -4.78515e-08 -0.0017663)
(0.261179 -3.43971e-08 -0.00178683)
(0.262298 -2.36618e-08 -0.00180154)
(0.263424 -1.72458e-08 -0.00181022)
(0.264554 -1.36266e-08 -0.00181279)
(0.265684 -9.56447e-09 -0.00180935)
(0.266811 -2.99401e-09 -0.00180014)
(0.26793 5.9795e-09 -0.00178551)
(0.26904 1.58954e-08 -0.00176599)
(0.270136 2.43665e-08 -0.00174218)
(0.271217 2.83288e-08 -0.0017148)
(0.27228 2.58637e-08 -0.0016846)
(0.273324 1.87463e-08 -0.00165237)
(0.274347 1.25882e-08 -0.0016189)
(0.27535 1.33921e-08 -0.00158497)
(0.276332 2.36254e-08 -0.00155129)
(0.277294 4.0951e-08 -0.00151856)
(0.278236 5.97003e-08 -0.00148738)
(0.279159 7.3208e-08 -0.0014583)
(0.280064 7.61825e-08 -0.00143173)
(0.280954 6.73614e-08 -0.001408)
(0.281829 5.11823e-08 -0.00138731)
(0.282691 3.60937e-08 -0.00136974)
(0.283543 2.92253e-08 -0.00135528)
(0.284387 3.12707e-08 -0.00134387)
(0.285223 3.63901e-08 -0.0013354)
(0.286054 3.74671e-08 -0.00132971)
(0.286882 3.22213e-08 -0.00132661)
(0.287707 2.46353e-08 -0.00132587)
(0.288531 2.07591e-08 -0.00132726)
(0.289356 2.29448e-08 -0.00133058)
(0.290183 2.75285e-08 -0.00133566)
(0.291012 2.7555e-08 -0.00134241)
(0.291845 1.82635e-08 -0.00135079)
(0.292682 1.03694e-09 -0.0013608)
(0.293525 -1.69255e-08 -0.00137251)
(0.294375 -2.71817e-08 -0.00138599)
(0.295232 -2.59867e-08 -0.00140139)
(0.296099 -1.74534e-08 -0.00141893)
(0.296976 -1.12036e-08 -0.00143889)
(0.297865 -1.52107e-08 -0.00146151)
(0.298767 -2.87718e-08 -0.00148704)
(0.299685 -4.21113e-08 -0.00151563)
(0.300619 -4.49643e-08 -0.00154738)
(0.301573 -3.69753e-08 -0.00158236)
(0.302547 -2.83087e-08 -0.00162053)
(0.303543 -2.82132e-08 -0.00166176)
(0.304564 -3.40167e-08 -0.00170571)
(0.305609 -3.38164e-08 -0.00175185)
(0.30668 -1.97753e-08 -0.00179944)
(0.307778 3.3557e-09 -0.00184755)
(0.308901 2.2318e-08 -0.00189499)
(0.310049 2.61004e-08 -0.00194028)
(0.311219 1.43688e-08 -0.00198152)
(0.312408 -1.78659e-09 -0.00201641)
(0.313609 -9.45008e-09 -0.0020422)
(0.314817 -8.02729e-09 -0.0020557)
(0.316021 -1.08229e-08 -0.00205308)
(0.317209 -2.61888e-08 -0.00202983)
(0.318366 -4.10029e-08 -0.00198067)
(0.319473 -3.54035e-08 -0.00189947)
(0.320507 -1.52845e-08 -0.00177917)
(0.32144 -1.38027e-08 -0.00161162)
(0.322238 -4.97879e-08 -0.00138751)
(0.322861 -9.70399e-08 -0.00109634)
(0.32326 -1.12554e-07 -0.000726288)
(0.323381 -8.92486e-08 -0.000264445)
(0.323157 -5.88718e-08 0.000304148)
(0.322509 -4.38523e-08 0.00099986)
(0.321351 -3.13756e-08 0.00184477)
(0.319586 -7.86894e-09 0.00285904)
(0.317102 5.3764e-09 0.00406319)
(0.313777 -2.12092e-08 0.00547773)
(0.309475 -7.97092e-08 0.0071223)
(0.304052 -1.36036e-07 0.00901443)
(0.297356 -1.77149e-07 0.0111681)
(0.289226 -2.14106e-07 0.0135917)
(0.279505 -2.4795e-07 0.0162858)
(0.268038 -2.70233e-07 0.0192401)
(0.254685 -2.87224e-07 0.0224293)
(0.239327 -3.08187e-07 0.0258084)
(0.221881 -3.33496e-07 0.0293069)
(0.202319 -3.84107e-07 0.0328201)
(0.180683 -4.9294e-07 0.0361986)
(0.157116 -6.54898e-07 0.0392311)
(0.131896 -8.53408e-07 0.0416209)
(0.105471 -1.07368e-06 0.0429418)
(0.078543 -1.20706e-06 0.0425878)
(0.0520546 -1.12753e-06 0.0396017)
(0.0272349 -9.74968e-07 0.0326925)
(0.00567058 -1.02787e-06 0.0206039)
(-0.0104156 -1.25577e-06 0.00238734)
(-0.018706 -7.30577e-07 -0.0199626)
(-0.0104045 3.09136e-06 -0.0359326)
(-0.0039238 -4.50536e-07 0.036691)
(-0.00137072 -2.85425e-06 0.0162343)
(0.0103652 -4.99586e-07 -0.00850747)
(0.0252966 1.94401e-07 -0.0281303)
(0.0428133 3.35453e-07 -0.0425004)
(0.0621524 3.95182e-07 -0.0523827)
(0.0828871 4.21032e-07 -0.0586276)
(0.104559 3.87071e-07 -0.0620124)
(0.126718 3.29236e-07 -0.0632318)
(0.148915 2.69345e-07 -0.062789)
(0.170769 2.16165e-07 -0.0610678)
(0.191952 1.7224e-07 -0.0583607)
(0.212196 1.34476e-07 -0.0548974)
(0.231278 1.00867e-07 -0.0508638)
(0.249025 7.18268e-08 -0.0464148)
(0.265304 4.68579e-08 -0.0416826)
(0.280021 2.44681e-08 -0.036782)
(0.293117 4.36198e-09 -0.031814)
(0.304561 -1.21736e-08 -0.0268671)
(0.314353 -2.37923e-08 -0.0220194)
(0.322517 -3.03446e-08 -0.0173386)
(0.329101 -3.29816e-08 -0.0128827)
(0.334169 -3.34006e-08 -0.0087006)
(0.337802 -3.29185e-08 -0.00483147)
(0.340092 -3.19555e-08 -0.00130482)
(0.341142 -3.00131e-08 0.00186154)
(0.341071 -2.69778e-08 0.00466056)
(0.340002 -2.38569e-08 0.00709188)
(0.33806 -2.21853e-08 0.00915929)
(0.335369 -2.29881e-08 0.0108712)
(0.332048 -2.62631e-08 0.0122408)
(0.328217 -3.10575e-08 0.0132852)
(0.323986 -3.60143e-08 0.0140254)
(0.31946 -4.00197e-08 0.0144851)