/*--------------------------------*- C++ -*----------------------------------*\
  =========                 |
  \\      /  F ield         | OpenFOAM: The Open Source CFD Toolbox
   \\    /   O peration     | Website:  https://openfoam.org
    \\  /    A nd           | Version:  8
     \\/     M anipulation  |
\*---------------------------------------------------------------------------*/
FoamFile
{
    version     2.0;
    format      ascii;
    class       volScalarField;
    location    "4800";
    object      alphat;
}
// * * * * * * * * * * * * * * * * * * * * * * * * * * * * * * * * * * * * * //

dimensions      [1 -1 -1 0 0 0 0];

internalField   nonuniform List<scalar> 
48000
(
5.5082e-05
9.62071e-05
0.000119166
0.00013601
0.000150023
0.00016192
0.00017226
0.000181432
0.000189778
0.000197577
0.000204787
0.000211537
0.000217883
0.000223872
0.000229543
0.000234925
0.000240043
0.000244915
0.00024956
0.000253989
0.000258214
0.000262245
0.000266091
0.000269758
0.000273252
0.000276581
0.000279748
0.000282759
0.000285619
0.000288331
0.0002909
0.00029333
0.000295625
0.000297788
0.000299823
0.000301734
0.000303524
0.000305197
0.000306756
0.000308206
0.000309548
0.000310788
0.000311928
0.000312971
0.00031392
0.00031479
0.000315586
0.0003163
0.000316933
0.000317488
0.000317969
0.000318378
0.00031872
0.000318997
0.000319213
0.000319369
0.00031947
0.000319517
0.000319514
0.000319462
0.000319365
0.000319225
0.000319044
0.000318824
0.000318568
0.000318277
0.000317953
0.000317598
0.000317214
0.000316802
0.000316365
0.000315902
0.000315417
0.00031491
0.000314382
0.000313835
0.000313269
0.000312686
0.000312087
0.000311472
0.000310842
0.000310198
0.00030954
0.00030887
0.000308188
0.000307494
0.000306788
0.000306072
0.000305345
0.000304608
0.000303861
0.000303104
0.000302338
0.000301562
0.000300777
0.000299982
0.000299179
0.000298366
0.000297543
0.000296712
0.000295871
0.00029502
0.00029416
0.000293289
0.000292409
0.000291519
0.000290618
0.000289707
0.000288784
0.000287851
0.000286905
0.000285949
0.00028498
0.000283998
0.000283004
0.000281997
0.000280977
0.000279942
0.000278894
0.000277831
0.000276753
0.000275659
0.00027455
0.000273425
0.000272284
0.000271126
0.00026995
0.000268757
0.000267545
0.000266315
0.000265067
0.000263799
0.000262511
0.000261203
0.000259874
0.000258525
0.000257154
0.000255762
0.000254347
0.00025291
0.00025145
0.000249967
0.00024846
0.000246929
0.000245373
0.000243793
0.000242187
0.000240555
0.000238897
0.000237213
0.000235502
0.000233764
0.000231997
0.000230203
0.00022838
0.000226527
0.000224645
0.000222733
0.00022079
0.000218815
0.000216809
0.00021477
0.000212697
0.00021059
0.000208449
0.000206271
0.000204056
0.000201803
0.000199511
0.000197178
0.000194802
0.000192383
0.000189917
0.000187403
0.000184839
0.00018222
0.000179545
0.00017681
0.000174011
0.000171148
0.000168227
0.00016524
0.000162161
0.000158981
0.000155687
0.000152265
0.000148697
0.00014496
0.000141029
0.000136865
0.000132423
0.000127671
0.000122533
0.00011687
0.000110507
0.000103162
9.43333e-05
8.3052e-05
6.70759e-05
5.40165e-05
5.50823e-05
9.62072e-05
0.000119166
0.00013601
0.000150023
0.00016192
0.00017226
0.000181432
0.000189778
0.000197577
0.000204787
0.000211537
0.000217883
0.000223873
0.000229543
0.000234925
0.000240043
0.000244915
0.00024956
0.000253989
0.000258214
0.000262245
0.000266091
0.000269758
0.000273252
0.000276581
0.000279748
0.000282759
0.000285619
0.000288331
0.0002909
0.00029333
0.000295625
0.000297788
0.000299823
0.000301734
0.000303524
0.000305197
0.000306756
0.000308206
0.000309548
0.000310788
0.000311928
0.000312971
0.00031392
0.00031479
0.000315586
0.0003163
0.000316933
0.000317488
0.000317969
0.000318378
0.00031872
0.000318997
0.000319213
0.000319369
0.00031947
0.000319517
0.000319514
0.000319462
0.000319365
0.000319225
0.000319044
0.000318824
0.000318568
0.000318277
0.000317953
0.000317598
0.000317214
0.000316802
0.000316365
0.000315902
0.000315417
0.00031491
0.000314382
0.000313835
0.000313269
0.000312686
0.000312087
0.000311472
0.000310842
0.000310198
0.00030954
0.00030887
0.000308188
0.000307494
0.000306788
0.000306072
0.000305345
0.000304608
0.000303861
0.000303104
0.000302338
0.000301562
0.000300777
0.000299982
0.000299179
0.000298366
0.000297543
0.000296712
0.000295871
0.00029502
0.00029416
0.000293289
0.000292409
0.000291519
0.000290618
0.000289707
0.000288784
0.000287851
0.000286905
0.000285949
0.00028498
0.000283998
0.000283004
0.000281997
0.000280977
0.000279942
0.000278894
0.000277831
0.000276753
0.000275659
0.00027455
0.000273425
0.000272284
0.000271126
0.00026995
0.000268757
0.000267545
0.000266315
0.000265067
0.000263798
0.000262511
0.000261203
0.000259874
0.000258525
0.000257154
0.000255762
0.000254347
0.00025291
0.00025145
0.000249967
0.00024846
0.000246929
0.000245373
0.000243793
0.000242187
0.000240555
0.000238897
0.000237213
0.000235502
0.000233764
0.000231997
0.000230203
0.00022838
0.000226527
0.000224645
0.000222733
0.00022079
0.000218815
0.000216809
0.00021477
0.000212697
0.00021059
0.000208449
0.000206271
0.000204056
0.000201803
0.000199511
0.000197178
0.000194802
0.000192383
0.000189917
0.000187403
0.000184839
0.00018222
0.000179545
0.00017681
0.000174011
0.000171148
0.000168227
0.00016524
0.000162161
0.000158981
0.000155687
0.000152265
0.000148697
0.00014496
0.000141029
0.000136865
0.000132423
0.000127671
0.000122533
0.00011687
0.000110507
0.000103162
9.43341e-05
8.30543e-05
6.7072e-05
5.40172e-05
8.3858e-05
0.000622298
0.000984628
0.00123748
0.00142863
0.00158301
0.0017152
0.0018315
0.00193545
0.00202915
0.00211493
0.00219404
0.00226744
0.00233588
0.00239994
0.0024601
0.00251672
0.00257013
0.00262057
0.00266827
0.00271342
0.00275618
0.00279671
0.00283512
0.00287152
0.00290603
0.00293873
0.00296971
0.00299904
0.00302679
0.00305303
0.00307783
0.00310123
0.0031233
0.00314409
0.00316364
0.00318201
0.00319922
0.00321534
0.0032304
0.00324444
0.00325749
0.00326958
0.00328074
0.00329093
0.00330003
0.00330812
0.00331539
0.00332191
0.00332775
0.00333295
0.00333754
0.00334154
0.00334499
0.00334791
0.00335032
0.00335224
0.0033537
0.00335472
0.00335531
0.0033555
0.0033553
0.00335474
0.00335382
0.00335256
0.00335098
0.00334909
0.00334691
0.00334445
0.00334173
0.00333874
0.00333551
0.00333205
0.00332836
0.00332446
0.00332036
0.00331605
0.00331156
0.00330688
0.00330203
0.00329701
0.00329183
0.00328649
0.003281
0.00327536
0.00326958
0.00326365
0.00325759
0.00325139
0.00324506
0.00323861
0.00323202
0.00322531
0.00321847
0.00321151
0.00320442
0.00319721
0.00318987
0.00318241
0.00317482
0.00316711
0.00315927
0.00315131
0.00314321
0.00313498
0.00312662
0.00311812
0.00310948
0.0031007
0.00309178
0.00308271
0.0030735
0.00306413
0.00305461
0.00304493
0.00303509
0.00302508
0.00301491
0.00300456
0.00299404
0.00298334
0.00297245
0.00296138
0.00295012
0.00293866
0.00292701
0.00291515
0.00290308
0.00289081
0.00287832
0.00286561
0.00285268
0.00283952
0.00282613
0.0028125
0.00279864
0.00278453
0.00277017
0.00275556
0.0027407
0.00272557
0.00271018
0.00269453
0.00267859
0.00266239
0.00264589
0.00262912
0.00261205
0.00259469
0.00257702
0.00255905
0.00254077
0.00252217
0.00250326
0.00248401
0.00246444
0.00244452
0.00242426
0.00240364
0.00238266
0.00236132
0.00233959
0.00231748
0.00229497
0.00227206
0.00224871
0.00222494
0.00220071
0.00217602
0.00215084
0.00212515
0.00209893
0.00207215
0.00204479
0.0020168
0.00198815
0.00195879
0.00192866
0.00189767
0.00186573
0.00183266
0.00179837
0.00176287
0.00172605
0.00168778
0.00164785
0.00160605
0.00156205
0.00151544
0.00146564
0.00141176
0.00135211
0.0012857
0.00121067
0.00112392
0.00102018
0.000889947
0.000714109
0.000448843
5.87642e-05
8.38582e-05
0.000622302
0.000984634
0.00123748
0.00142863
0.00158302
0.00171521
0.00183151
0.00193546
0.00202915
0.00211494
0.00219404
0.00226744
0.00233588
0.00239995
0.00246011
0.00251673
0.00257013
0.00262057
0.00266827
0.00271342
0.00275619
0.00279671
0.00283512
0.00287153
0.00290603
0.00293873
0.00296971
0.00299904
0.00302679
0.00305304
0.00307783
0.00310124
0.00312331
0.00314409
0.00316365
0.00318201
0.00319923
0.00321535
0.00323041
0.00324444
0.00325749
0.00326958
0.00328074
0.00329094
0.00330003
0.00330813
0.00331539
0.00332191
0.00332776
0.00333295
0.00333754
0.00334155
0.00334499
0.00334791
0.00335032
0.00335224
0.0033537
0.00335472
0.00335532
0.0033555
0.00335531
0.00335474
0.00335382
0.00335256
0.00335098
0.0033491
0.00334692
0.00334446
0.00334173
0.00333875
0.00333552
0.00333205
0.00332837
0.00332447
0.00332036
0.00331606
0.00331156
0.00330689
0.00330204
0.00329702
0.00329184
0.0032865
0.003281
0.00327536
0.00326958
0.00326365
0.00325759
0.0032514
0.00324507
0.00323861
0.00323202
0.00322531
0.00321847
0.00321151
0.00320442
0.00319721
0.00318987
0.00318241
0.00317483
0.00316712
0.00315928
0.00315131
0.00314321
0.00313498
0.00312662
0.00311812
0.00310948
0.0031007
0.00309178
0.00308272
0.0030735
0.00306413
0.00305461
0.00304493
0.00303509
0.00302508
0.00301491
0.00300456
0.00299404
0.00298334
0.00297245
0.00296138
0.00295012
0.00293866
0.00292701
0.00291515
0.00290309
0.00289081
0.00287832
0.00286561
0.00285268
0.00283952
0.00282613
0.0028125
0.00279864
0.00278453
0.00277017
0.00275557
0.0027407
0.00272558
0.00271019
0.00269453
0.0026786
0.00266239
0.0026459
0.00262912
0.00261205
0.00259469
0.00257702
0.00255905
0.00254077
0.00252218
0.00250326
0.00248402
0.00246444
0.00244452
0.00242426
0.00240364
0.00238267
0.00236132
0.0023396
0.00231749
0.00229498
0.00227206
0.00224872
0.00222494
0.00220071
0.00217602
0.00215084
0.00212515
0.00209893
0.00207215
0.00204479
0.0020168
0.00198815
0.00195879
0.00192866
0.00189768
0.00186573
0.00183266
0.00179838
0.00176287
0.00172605
0.00168778
0.00164786
0.00160605
0.00156205
0.00151544
0.00146565
0.00141176
0.00135211
0.0012857
0.00121068
0.00112392
0.00102018
0.000889943
0.000714092
0.000448848
5.87707e-05
0.000103218
0.000944737
0.00168119
0.0022333
0.00266743
0.00302636
0.00333391
0.003604
0.00384505
0.00406258
0.00426079
0.00444266
0.00461047
0.004766
0.00491064
0.00504555
0.00517168
0.00528983
0.00540067
0.0055048
0.00560273
0.00569492
0.00578175
0.0058636
0.00594078
0.00601358
0.00608228
0.0061471
0.00620828
0.00626601
0.00632049
0.00637188
0.00642034
0.00646603
0.00650909
0.00654963
0.00658779
0.00662367
0.00665738
0.00668901
0.00671865
0.00674639
0.00677229
0.00679639
0.00681871
0.00683918
0.00685794
0.00687514
0.00689093
0.0069054
0.00691863
0.0069307
0.00694165
0.00695155
0.00696044
0.00696837
0.00697538
0.0069815
0.00698677
0.00699123
0.00699492
0.00699785
0.00700007
0.0070016
0.00700247
0.0070027
0.00700232
0.00700135
0.00699982
0.00699774
0.00699514
0.00699203
0.00698843
0.00698436
0.00697984
0.00697487
0.00696948
0.00696368
0.00695748
0.00695088
0.00694391
0.00693658
0.00692888
0.00692083
0.00691243
0.0069037
0.00689464
0.00688526
0.00687555
0.00686553
0.00685519
0.00684454
0.00683358
0.00682232
0.00681075
0.00679888
0.0067867
0.00677421
0.00676142
0.00674832
0.00673491
0.00672118
0.00670714
0.00669279
0.0066781
0.00666309
0.00664776
0.00663208
0.00661606
0.0065997
0.00658299
0.00656592
0.00654848
0.00653067
0.00651249
0.00649392
0.00647497
0.00645561
0.00643585
0.00641568
0.00639508
0.00637406
0.00635259
0.00633069
0.00630833
0.0062855
0.00626221
0.00623843
0.00621417
0.00618941
0.00616414
0.00613836
0.00611205
0.0060852
0.00605781
0.00602987
0.00600136
0.00597228
0.00594262
0.00591236
0.0058815
0.00585002
0.00581791
0.00578517
0.00575178
0.00571773
0.00568301
0.00564761
0.0056115
0.00557469
0.00553715
0.00549888
0.00545985
0.00542006
0.00537948
0.00533809
0.00529589
0.00525285
0.00520894
0.00516415
0.00511846
0.00507183
0.00502424
0.00497566
0.00492605
0.00487539
0.00482362
0.00477071
0.00471661
0.00466127
0.00460462
0.0045466
0.00448713
0.00442613
0.0043635
0.00429913
0.00423288
0.00416459
0.00409407
0.00402109
0.00394537
0.00386665
0.0037847
0.00369914
0.00360952
0.00351526
0.00341568
0.00330984
0.00319656
0.00307423
0.00294063
0.00279269
0.00262651
0.0024374
0.00221767
0.00195557
0.00163244
0.001218
0.000668212
7.29683e-05
0.000103218
0.000944742
0.0016812
0.00223332
0.00266745
0.00302638
0.00333392
0.00360402
0.00384506
0.0040626
0.0042608
0.00444267
0.00461048
0.00476601
0.00491065
0.00504556
0.00517169
0.00528984
0.00540068
0.00550481
0.00560274
0.00569492
0.00578176
0.00586361
0.00594079
0.00601359
0.00608228
0.00614711
0.00620829
0.00626602
0.00632049
0.00637188
0.00642035
0.00646604
0.00650909
0.00654964
0.00658779
0.00662367
0.00665738
0.00668901
0.00671866
0.0067464
0.00677229
0.0067964
0.00681871
0.00683919
0.00685794
0.00687515
0.00689093
0.0069054
0.00691863
0.0069307
0.00694166
0.00695156
0.00696045
0.00696837
0.00697538
0.0069815
0.00698677
0.00699123
0.00699492
0.00699785
0.00700007
0.0070016
0.00700247
0.0070027
0.00700232
0.00700135
0.00699982
0.00699774
0.00699514
0.00699203
0.00698843
0.00698436
0.00697984
0.00697487
0.00696948
0.00696368
0.00695748
0.00695089
0.00694392
0.00693658
0.00692888
0.00692083
0.00691244
0.00690371
0.00689464
0.00688526
0.00687555
0.00686553
0.00685519
0.00684454
0.00683359
0.00682232
0.00681075
0.00679888
0.0067867
0.00677422
0.00676142
0.00674832
0.00673491
0.00672119
0.00670715
0.00669279
0.0066781
0.0066631
0.00664776
0.00663208
0.00661606
0.0065997
0.00658299
0.00656592
0.00654848
0.00653068
0.00651249
0.00649393
0.00647497
0.00645561
0.00643585
0.00641568
0.00639508
0.00637406
0.0063526
0.00633069
0.00630833
0.0062855
0.00626221
0.00623843
0.00621417
0.00618941
0.00616414
0.00613836
0.00611205
0.0060852
0.00605781
0.00602987
0.00600136
0.00597228
0.00594262
0.00591236
0.0058815
0.00585002
0.00581791
0.00578517
0.00575178
0.00571773
0.00568301
0.00564761
0.0056115
0.00557469
0.00553715
0.00549888
0.00545985
0.00542006
0.00537948
0.00533809
0.00529589
0.00525285
0.00520894
0.00516415
0.00511846
0.00507183
0.00502424
0.00497566
0.00492605
0.00487539
0.00482362
0.00477071
0.00471661
0.00466127
0.00460462
0.0045466
0.00448713
0.00442613
0.0043635
0.00429913
0.00423288
0.00416459
0.00409407
0.00402109
0.00394537
0.00386665
0.0037847
0.00369914
0.00360952
0.00351526
0.00341568
0.00330984
0.00319656
0.00307423
0.00294063
0.00279269
0.00262651
0.0024374
0.00221767
0.00195557
0.00163244
0.001218
0.000668221
7.2967e-05
0.000116798
0.00114403
0.00215402
0.00295695
0.00361171
0.00416347
0.00464068
0.00506158
0.0054382
0.00577883
0.00608948
0.00637462
0.00663767
0.00688131
0.0071077
0.00731861
0.0075155
0.00769963
0.00787208
0.00803377
0.00818554
0.00832813
0.00846217
0.00858827
0.00870696
0.00881873
0.00892402
0.00902325
0.00911678
0.00920497
0.00928813
0.00936656
0.00944054
0.00951031
0.0095761
0.00963815
0.00969664
0.00975178
0.00980372
0.00985262
0.00989864
0.00994191
0.00998252
0.0100206
0.0100562
0.0100893
0.0101201
0.0101488
0.0101755
0.0102003
0.0102234
0.0102448
0.0102646
0.0102829
0.0102998
0.0103153
0.0103295
0.0103425
0.0103542
0.0103648
0.0103743
0.0103828
0.0103902
0.0103966
0.010402
0.0104066
0.0104103
0.0104131
0.0104151
0.0104163
0.0104167
0.0104164
0.0104153
0.0104136
0.0104111
0.010408
0.0104043
0.0103999
0.0103949
0.0103893
0.0103832
0.0103764
0.0103691
0.0103612
0.0103528
0.0103439
0.0103344
0.0103244
0.0103139
0.0103029
0.0102913
0.0102793
0.0102668
0.0102537
0.0102402
0.0102261
0.0102116
0.0101965
0.010181
0.0101649
0.0101483
0.0101312
0.0101136
0.0100955
0.0100768
0.0100576
0.0100378
0.0100175
0.00999664
0.0099752
0.00995319
0.00993059
0.00990739
0.00988359
0.00985917
0.00983413
0.00980846
0.00978213
0.00975515
0.00972749
0.00969915
0.00967012
0.00964038
0.00960992
0.00957872
0.00954678
0.00951407
0.00948059
0.00944632
0.00941125
0.00937536
0.00933864
0.00930107
0.00926263
0.00922331
0.0091831
0.00914198
0.00909993
0.00905693
0.00901297
0.00896802
0.00892208
0.00887512
0.00882712
0.00877806
0.00872793
0.00867669
0.00862433
0.00857083
0.00851615
0.00846028
0.00840319
0.00834486
0.00828524
0.00822432
0.00816206
0.00809842
0.00803337
0.00796687
0.00789888
0.00782936
0.00775825
0.00768551
0.00761107
0.00753488
0.00745688
0.00737698
0.0072951
0.00721117
0.00712508
0.00703671
0.00694596
0.00685267
0.0067567
0.00665787
0.00655596
0.00645075
0.00634196
0.00622925
0.00611227
0.00599056
0.00586366
0.00573102
0.00559196
0.00544565
0.00529108
0.00512694
0.00495162
0.00476311
0.00455875
0.00433509
0.00408759
0.00381029
0.00349579
0.00313342
0.00270812
0.00219858
0.00157583
0.00081333
8.31375e-05
0.000116798
0.00114404
0.00215403
0.00295696
0.00361173
0.00416349
0.0046407
0.0050616
0.00543822
0.00577884
0.00608949
0.00637464
0.00663769
0.00688133
0.00710772
0.00731862
0.00751551
0.00769965
0.00787209
0.00803379
0.00818556
0.00832814
0.00846218
0.00858828
0.00870697
0.00881874
0.00892403
0.00902326
0.00911679
0.00920498
0.00928814
0.00936657
0.00944055
0.00951031
0.00957611
0.00963816
0.00969665
0.00975178
0.00980372
0.00985263
0.00989865
0.00994191
0.00998253
0.0100206
0.0100562
0.0100893
0.0101201
0.0101488
0.0101755
0.0102003
0.0102234
0.0102448
0.0102646
0.0102829
0.0102998
0.0103153
0.0103295
0.0103425
0.0103542
0.0103648
0.0103743
0.0103828
0.0103902
0.0103966
0.010402
0.0104066
0.0104103
0.0104131
0.0104151
0.0104163
0.0104167
0.0104164
0.0104153
0.0104136
0.0104111
0.010408
0.0104043
0.0103999
0.0103949
0.0103893
0.0103832
0.0103764
0.0103691
0.0103612
0.0103528
0.0103439
0.0103344
0.0103244
0.0103139
0.0103029
0.0102913
0.0102793
0.0102668
0.0102537
0.0102402
0.0102261
0.0102116
0.0101965
0.010181
0.0101649
0.0101483
0.0101312
0.0101136
0.0100955
0.0100768
0.0100576
0.0100378
0.0100175
0.00999664
0.0099752
0.00995319
0.00993058
0.00990739
0.00988359
0.00985917
0.00983413
0.00980845
0.00978213
0.00975515
0.00972749
0.00969915
0.00967012
0.00964038
0.00960992
0.00957872
0.00954678
0.00951407
0.00948059
0.00944632
0.00941125
0.00937536
0.00933864
0.00930106
0.00926263
0.00922331
0.0091831
0.00914198
0.00909992
0.00905693
0.00901296
0.00896802
0.00892208
0.00887512
0.00882712
0.00877806
0.00872792
0.00867669
0.00862433
0.00857082
0.00851615
0.00846028
0.00840319
0.00834485
0.00828524
0.00822432
0.00816205
0.00809842
0.00803337
0.00796687
0.00789888
0.00782936
0.00775825
0.00768551
0.00761107
0.00753488
0.00745688
0.00737698
0.0072951
0.00721117
0.00712508
0.00703671
0.00694596
0.00685267
0.0067567
0.00665787
0.00655596
0.00645075
0.00634196
0.00622925
0.00611226
0.00599056
0.00586366
0.00573102
0.00559196
0.00544565
0.00529108
0.00512694
0.00495162
0.00476311
0.00455875
0.00433509
0.00408759
0.00381028
0.00349579
0.00313342
0.00270812
0.00219858
0.00157583
0.000813331
8.31372e-05
0.000127859
0.00127928
0.002493
0.0034992
0.00434051
0.00506
0.00568788
0.00624486
0.00674526
0.00719929
0.00761441
0.00799624
0.00834912
0.00867644
0.00898096
0.00926495
0.00953029
0.0097786
0.0100113
0.0102295
0.0104344
0.0106269
0.0108079
0.0109782
0.0111384
0.0112893
0.0114315
0.0115655
0.0116917
0.0118108
0.0119232
0.0120292
0.0121292
0.0122236
0.0123127
0.0123969
0.0124764
0.0125514
0.0126222
0.0126891
0.0127523
0.0128118
0.0128679
0.0129208
0.0129705
0.0130172
0.0130611
0.0131022
0.0131408
0.0131771
0.013211
0.0132429
0.0132727
0.0133007
0.0133268
0.0133511
0.0133738
0.013395
0.0134145
0.0134327
0.0134494
0.0134647
0.0134788
0.0134916
0.0135031
0.0135135
0.0135228
0.013531
0.0135381
0.0135442
0.0135493
0.0135535
0.0135566
0.0135589
0.0135603
0.0135608
0.0135605
0.0135593
0.0135573
0.0135545
0.0135509
0.0135466
0.0135415
0.0135357
0.0135291
0.0135218
0.0135137
0.013505
0.0134956
0.0134854
0.0134746
0.013463
0.0134508
0.0134378
0.0134242
0.0134099
0.0133948
0.0133791
0.0133627
0.0133455
0.0133277
0.0133091
0.0132898
0.0132697
0.0132489
0.0132274
0.0132051
0.013182
0.0131581
0.0131335
0.013108
0.0130817
0.0130546
0.0130267
0.0129979
0.0129682
0.0129376
0.0129061
0.0128737
0.0128404
0.0128061
0.0127709
0.0127347
0.0126975
0.0126592
0.0126199
0.0125796
0.0125381
0.0124956
0.012452
0.0124072
0.0123613
0.0123141
0.0122658
0.0122163
0.0121655
0.0121134
0.01206
0.0120054
0.0119493
0.0118919
0.0118331
0.0117729
0.0117112
0.011648
0.0115833
0.0115171
0.0114492
0.0113798
0.0113087
0.0112359
0.0111613
0.011085
0.0110069
0.0109269
0.010845
0.0107611
0.0106752
0.0105872
0.0104971
0.0104047
0.0103101
0.0102131
0.0101137
0.0100117
0.00990706
0.00979967
0.0096894
0.00957613
0.00945969
0.00933992
0.00921665
0.00908965
0.00895871
0.00882354
0.00868385
0.00853929
0.00838945
0.00823388
0.00807202
0.00790326
0.00772688
0.00754204
0.00734774
0.00714275
0.0069256
0.00669447
0.00644708
0.00618064
0.00589159
0.00557545
0.00522655
0.00483757
0.00439921
0.00389954
0.00332256
0.00264775
0.00185131
0.000923834
9.12216e-05
0.000127859
0.00127928
0.00249301
0.00349921
0.00434053
0.00506002
0.00568791
0.00624488
0.00674528
0.00719931
0.00761443
0.00799626
0.00834914
0.00867646
0.00898098
0.00926497
0.00953031
0.00977862
0.0100113
0.0102295
0.0104344
0.0106269
0.0108079
0.0109782
0.0111384
0.0112894
0.0114315
0.0115655
0.0116918
0.0118108
0.0119232
0.0120292
0.0121292
0.0122236
0.0123127
0.0123969
0.0124764
0.0125514
0.0126223
0.0126891
0.0127523
0.0128118
0.0128679
0.0129208
0.0129705
0.0130172
0.0130611
0.0131022
0.0131408
0.0131771
0.013211
0.0132429
0.0132727
0.0133007
0.0133268
0.0133511
0.0133739
0.013395
0.0134145
0.0134327
0.0134494
0.0134647
0.0134788
0.0134916
0.0135031
0.0135136
0.0135228
0.013531
0.0135381
0.0135442
0.0135493
0.0135535
0.0135566
0.0135589
0.0135603
0.0135608
0.0135605
0.0135593
0.0135573
0.0135545
0.0135509
0.0135466
0.0135415
0.0135357
0.0135291
0.0135218
0.0135137
0.013505
0.0134956
0.0134854
0.0134746
0.013463
0.0134508
0.0134378
0.0134242
0.0134099
0.0133948
0.0133791
0.0133627
0.0133455
0.0133277
0.0133091
0.0132898
0.0132697
0.0132489
0.0132274
0.0132051
0.013182
0.0131581
0.0131335
0.013108
0.0130817
0.0130546
0.0130267
0.0129979
0.0129682
0.0129376
0.0129061
0.0128737
0.0128404
0.0128061
0.0127709
0.0127347
0.0126974
0.0126592
0.0126199
0.0125796
0.0125381
0.0124956
0.012452
0.0124072
0.0123613
0.0123141
0.0122658
0.0122163
0.0121655
0.0121134
0.01206
0.0120054
0.0119493
0.0118919
0.0118331
0.0117729
0.0117112
0.011648
0.0115833
0.011517
0.0114492
0.0113798
0.0113087
0.0112359
0.0111613
0.011085
0.0110069
0.0109269
0.010845
0.0107611
0.0106752
0.0105872
0.0104971
0.0104047
0.0103101
0.0102131
0.0101137
0.0100117
0.00990706
0.00979967
0.0096894
0.00957612
0.00945968
0.00933992
0.00921664
0.00908965
0.0089587
0.00882354
0.00868385
0.00853929
0.00838945
0.00823387
0.00807201
0.00790325
0.00772687
0.00754203
0.00734773
0.00714275
0.0069256
0.00669446
0.00644708
0.00618064
0.00589159
0.00557545
0.00522655
0.00483757
0.00439921
0.00389954
0.00332256
0.00264775
0.00185131
0.000923833
9.12215e-05
0.000137211
0.00138607
0.00275554
0.00392504
0.0049211
0.00578303
0.00654118
0.00721745
0.00782762
0.00838317
0.00889265
0.00936252
0.00979782
0.0102025
0.0105798
0.0109323
0.0112623
0.0115716
0.0118619
0.0121345
0.0123909
0.012632
0.0128589
0.0130726
0.013274
0.0134637
0.0136426
0.0138113
0.0139705
0.0141207
0.0142626
0.0143965
0.014523
0.0146426
0.0147556
0.0148624
0.0149634
0.015059
0.0151493
0.0152348
0.0153157
0.0153921
0.0154645
0.0155328
0.0155974
0.0156584
0.0157159
0.0157702
0.0158215
0.0158698
0.0159155
0.0159586
0.0159993
0.0160376
0.0160738
0.0161078
0.0161398
0.0161699
0.0161982
0.0162247
0.0162495
0.0162727
0.0162943
0.0163144
0.0163331
0.0163503
0.0163662
0.0163807
0.016394
0.016406
0.0164168
0.0164265
0.016435
0.0164424
0.0164487
0.0164539
0.0164581
0.0164613
0.0164634
0.0164646
0.0164648
0.0164641
0.0164624
0.0164598
0.0164563
0.0164519
0.0164466
0.0164404
0.0164332
0.0164252
0.0164164
0.0164066
0.016396
0.0163844
0.016372
0.0163587
0.0163445
0.0163295
0.0163135
0.0162966
0.0162788
0.0162601
0.0162404
0.0162198
0.0161983
0.0161757
0.0161522
0.0161278
0.0161023
0.0160758
0.0160482
0.0160197
0.01599
0.0159593
0.0159275
0.0158945
0.0158604
0.0158252
0.0157888
0.0157512
0.0157123
0.0156723
0.0156309
0.0155883
0.0155444
0.0154991
0.0154525
0.0154045
0.0153551
0.0153043
0.015252
0.0151982
0.0151429
0.015086
0.0150276
0.0149676
0.0149059
0.0148425
0.0147775
0.0147107
0.0146421
0.0145718
0.0144996
0.0144255
0.0143494
0.0142714
0.0141914
0.0141093
0.0140252
0.0139388
0.0138503
0.0137595
0.0136664
0.0135709
0.0134729
0.0133725
0.0132694
0.0131637
0.0130553
0.0129441
0.0128299
0.0127127
0.0125924
0.0124688
0.0123419
0.0122115
0.0120774
0.0119395
0.0117976
0.0116515
0.0115009
0.0113457
0.0111856
0.0110201
0.0108491
0.010672
0.0104884
0.0102977
0.0100995
0.00989284
0.00967706
0.00945115
0.00921401
0.00896431
0.00870048
0.00842059
0.00812236
0.00780295
0.00745893
0.00708603
0.00667902
0.00623133
0.00573481
0.00517928
0.00455238
0.0038385
0.00301923
0.00207641
0.00101451
9.80412e-05
0.000137211
0.00138607
0.00275555
0.00392506
0.00492112
0.00578305
0.0065412
0.00721748
0.00782765
0.0083832
0.00889267
0.00936255
0.00979784
0.0102025
0.0105798
0.0109323
0.0112623
0.0115716
0.0118619
0.0121346
0.0123909
0.012632
0.012859
0.0130727
0.013274
0.0134637
0.0136426
0.0138113
0.0139705
0.0141208
0.0142626
0.0143965
0.014523
0.0146426
0.0147556
0.0148624
0.0149634
0.015059
0.0151493
0.0152348
0.0153157
0.0153921
0.0154645
0.0155328
0.0155974
0.0156584
0.0157159
0.0157702
0.0158215
0.0158699
0.0159155
0.0159586
0.0159993
0.0160376
0.0160738
0.0161078
0.0161398
0.01617
0.0161982
0.0162247
0.0162495
0.0162727
0.0162943
0.0163144
0.0163331
0.0163503
0.0163662
0.0163807
0.016394
0.016406
0.0164168
0.0164265
0.016435
0.0164424
0.0164487
0.0164539
0.0164581
0.0164613
0.0164634
0.0164646
0.0164648
0.0164641
0.0164624
0.0164598
0.0164563
0.0164519
0.0164466
0.0164404
0.0164332
0.0164252
0.0164164
0.0164066
0.016396
0.0163844
0.016372
0.0163587
0.0163445
0.0163295
0.0163135
0.0162966
0.0162788
0.0162601
0.0162404
0.0162198
0.0161983
0.0161757
0.0161522
0.0161278
0.0161023
0.0160758
0.0160482
0.0160197
0.01599
0.0159593
0.0159275
0.0158945
0.0158604
0.0158252
0.0157888
0.0157512
0.0157123
0.0156722
0.0156309
0.0155883
0.0155444
0.0154991
0.0154525
0.0154045
0.0153551
0.0153043
0.015252
0.0151982
0.0151429
0.015086
0.0150276
0.0149676
0.0149059
0.0148425
0.0147775
0.0147107
0.0146421
0.0145718
0.0144996
0.0144255
0.0143494
0.0142714
0.0141914
0.0141093
0.0140252
0.0139388
0.0138503
0.0137595
0.0136664
0.0135709
0.0134729
0.0133725
0.0132694
0.0131637
0.0130553
0.0129441
0.0128299
0.0127127
0.0125924
0.0124688
0.0123419
0.0122115
0.0120774
0.0119395
0.0117976
0.0116515
0.0115009
0.0113457
0.0111856
0.0110201
0.0108491
0.010672
0.0104884
0.0102977
0.0100995
0.00989284
0.00967705
0.00945115
0.00921401
0.00896431
0.00870047
0.00842059
0.00812235
0.00780295
0.00745892
0.00708603
0.00667901
0.00623133
0.00573481
0.00517928
0.00455238
0.0038385
0.00301923
0.00207641
0.00101451
9.80411e-05
0.000145478
0.00147731
0.00297183
0.00427418
0.00539867
0.00638092
0.0072507
0.00803046
0.0087368
0.0093821
0.00997565
0.0105246
0.0110344
0.0115096
0.0119536
0.0123695
0.0127596
0.013126
0.0134706
0.0137948
0.0141002
0.014388
0.0146593
0.0149152
0.0151566
0.0153844
0.0155995
0.0158026
0.0159944
0.0161757
0.0163471
0.0165091
0.0166623
0.0168073
0.0169445
0.0170743
0.0171973
0.0173138
0.0174242
0.0175287
0.0176278
0.0177218
0.0178108
0.0178952
0.0179751
0.0180509
0.0181227
0.0181907
0.0182551
0.0183162
0.0183741
0.018429
0.018481
0.0185304
0.0185771
0.0186214
0.0186633
0.018703
0.0187406
0.0187761
0.0188096
0.0188412
0.018871
0.018899
0.0189254
0.0189501
0.0189732
0.0189947
0.0190148
0.0190334
0.0190507
0.0190665
0.019081
0.0190942
0.0191062
0.0191169
0.0191264
0.0191346
0.0191417
0.0191477
0.0191525
0.0191561
0.0191587
0.0191602
0.0191606
0.0191598
0.0191581
0.0191552
0.0191513
0.0191464
0.0191403
0.0191332
0.0191251
0.0191159
0.0191056
0.0190943
0.0190819
0.0190684
0.0190538
0.0190381
0.0190214
0.0190035
0.0189844
0.0189643
0.0189429
0.0189204
0.0188967
0.0188719
0.0188458
0.0188184
0.0187898
0.0187599
0.0187288
0.0186963
0.0186625
0.0186273
0.0185907
0.0185528
0.0185134
0.0184725
0.0184302
0.0183863
0.0183409
0.018294
0.0182454
0.0181953
0.0181434
0.0180899
0.0180347
0.0179777
0.017919
0.0178584
0.0177959
0.0177316
0.0176654
0.0175971
0.0175269
0.0174546
0.0173803
0.0173038
0.0172251
0.0171442
0.017061
0.0169756
0.0168877
0.0167974
0.0167046
0.0166093
0.0165114
0.0164109
0.0163076
0.0162015
0.0160925
0.0159806
0.0158657
0.0157476
0.0156264
0.0155018
0.0153739
0.0152424
0.0151073
0.0149684
0.0148257
0.0146789
0.0145279
0.0143725
0.0142126
0.0140478
0.0138781
0.0137031
0.0135226
0.0133362
0.0131436
0.0129445
0.0127382
0.0125244
0.0123025
0.0120718
0.0118316
0.0115809
0.0113188
0.0110441
0.0107554
0.0104512
0.0101295
0.00978798
0.00942399
0.00903422
0.00861472
0.0081607
0.00766635
0.00712457
0.00652677
0.0058625
0.0051193
0.0042826
0.00333647
0.0022679
0.00109225
0.000104005
0.000145478
0.00147732
0.00297184
0.0042742
0.00539868
0.00638094
0.00725073
0.00803048
0.00873683
0.00938212
0.00997567
0.0105246
0.0110345
0.0115096
0.0119537
0.0123695
0.0127596
0.013126
0.0134706
0.0137949
0.0141003
0.014388
0.0146593
0.0149152
0.0151566
0.0153844
0.0155995
0.0158026
0.0159945
0.0161757
0.0163471
0.0165091
0.0166623
0.0168073
0.0169445
0.0170744
0.0171973
0.0173138
0.0174242
0.0175287
0.0176278
0.0177218
0.0178108
0.0178952
0.0179752
0.0180509
0.0181227
0.0181907
0.0182551
0.0183162
0.0183741
0.018429
0.0184811
0.0185304
0.0185771
0.0186214
0.0186634
0.018703
0.0187406
0.0187761
0.0188096
0.0188412
0.018871
0.018899
0.0189254
0.0189501
0.0189732
0.0189947
0.0190148
0.0190334
0.0190507
0.0190665
0.019081
0.0190942
0.0191062
0.0191169
0.0191264
0.0191346
0.0191417
0.0191477
0.0191525
0.0191561
0.0191587
0.0191602
0.0191606
0.0191598
0.0191581
0.0191552
0.0191513
0.0191464
0.0191403
0.0191332
0.0191251
0.0191159
0.0191056
0.0190943
0.0190819
0.0190684
0.0190538
0.0190381
0.0190214
0.0190035
0.0189844
0.0189643
0.0189429
0.0189204
0.0188967
0.0188719
0.0188458
0.0188184
0.0187898
0.0187599
0.0187288
0.0186963
0.0186625
0.0186273
0.0185907
0.0185528
0.0185134
0.0184725
0.0184302
0.0183863
0.0183409
0.018294
0.0182454
0.0181953
0.0181434
0.0180899
0.0180347
0.0179777
0.017919
0.0178584
0.0177959
0.0177316
0.0176654
0.0175971
0.0175269
0.0174546
0.0173803
0.0173038
0.0172251
0.0171442
0.017061
0.0169756
0.0168877
0.0167974