/*--------------------------------*- C++ -*----------------------------------*\
  =========                 |
  \\      /  F ield         | OpenFOAM: The Open Source CFD Toolbox
   \\    /   O peration     | Website:  https://openfoam.org
    \\  /    A nd           | Version:  8
     \\/     M anipulation  |
\*---------------------------------------------------------------------------*/
FoamFile
{
    version     2.0;
    format      ascii;
    class       volScalarField;
    location    "4800";
    object      k;
}
// * * * * * * * * * * * * * * * * * * * * * * * * * * * * * * * * * * * * * //

dimensions      [0 2 -2 0 0 0 0];

internalField   nonuniform List<scalar> 
48000
(
0.0330036
0.0863163
0.132429
0.172513
0.209892
0.244502
0.276725
0.306977
0.335869
0.364042
0.391098
0.417304
0.442717
0.467391
0.491369
0.51468
0.537347
0.559384
0.5808
0.601598
0.62178
0.641345
0.66029
0.678613
0.696308
0.713374
0.729805
0.7456
0.760756
0.775272
0.789148
0.802385
0.814986
0.826954
0.838293
0.849011
0.859113
0.868608
0.877506
0.885816
0.893551
0.900721
0.907338
0.913414
0.918962
0.924063
0.928741
0.932946
0.936682
0.939964
0.942811
0.945241
0.94727
0.948917
0.950197
0.951128
0.951726
0.952007
0.951987
0.95168
0.951102
0.950267
0.949189
0.947881
0.946356
0.944626
0.942704
0.940601
0.938327
0.935894
0.93331
0.930585
0.927727
0.924746
0.921649
0.918444
0.915136
0.911733
0.90824
0.904664
0.901009
0.89728
0.893481
0.889617
0.88569
0.881706
0.877665
0.873572
0.869428
0.865236
0.860998
0.856715
0.852388
0.84802
0.843609
0.839159
0.834669
0.830139
0.825569
0.820961
0.816314
0.811627
0.8069
0.802134
0.797327
0.792479
0.787589
0.782657
0.777681
0.772661
0.767596
0.762485
0.757326
0.75212
0.746864
0.741558
0.7362
0.73079
0.725326
0.719807
0.714232
0.708601
0.702911
0.697163
0.691354
0.685484
0.679552
0.673558
0.667499
0.661377
0.655188
0.648935
0.642614
0.636227
0.629771
0.623248
0.616657
0.609997
0.603268
0.59647
0.589603
0.582668
0.575663
0.56859
0.561448
0.554238
0.54696
0.539615
0.532204
0.524726
0.517183
0.509576
0.501904
0.494169
0.486373
0.478514
0.470596
0.462617
0.454581
0.446487
0.438336
0.430129
0.421867
0.413552
0.405182
0.39676
0.388285
0.379759
0.37118
0.362549
0.353866
0.34513
0.33634
0.327494
0.318591
0.309629
0.300604
0.291515
0.282359
0.273142
0.263898
0.254609
0.245212
0.235688
0.226023
0.216195
0.206181
0.19595
0.185464
0.174674
0.16352
0.151995
0.140006
0.127365
0.113874
0.0992403
0.0829811
0.0642149
0.0409113
0.0207463
0.033004
0.0863166
0.13243
0.172513
0.209892
0.244502
0.276726
0.306978
0.33587
0.364042
0.391099
0.417305
0.442718
0.467392
0.491369
0.514681
0.537348
0.559385
0.5808
0.601598
0.62178
0.641345
0.66029
0.678613
0.696309
0.713374
0.729806
0.7456
0.760756
0.775272
0.789148
0.802386
0.814986
0.826954
0.838293
0.849011
0.859113
0.868608
0.877506
0.885817
0.893551
0.900721
0.907338
0.913414
0.918962
0.924063
0.928741
0.932946
0.936682
0.939964
0.942811
0.945241
0.94727
0.948917
0.950197
0.951128
0.951726
0.952007
0.951987
0.95168
0.951102
0.950267
0.949189
0.947881
0.946356
0.944626
0.942704
0.940601
0.938327
0.935894
0.93331
0.930585
0.927727
0.924746
0.921649
0.918444
0.915136
0.911733
0.90824
0.904664
0.901009
0.89728
0.893481
0.889617
0.88569
0.881706
0.877665
0.873572
0.869428
0.865236
0.860998
0.856715
0.852388
0.848019
0.843609
0.839159
0.834668
0.830139
0.825569
0.820961
0.816314
0.811627
0.8069
0.802134
0.797327
0.792479
0.787589
0.782657
0.777681
0.772661
0.767596
0.762485
0.757326
0.75212
0.746864
0.741558
0.7362
0.73079
0.725326
0.719807
0.714232
0.708601
0.702911
0.697163
0.691354
0.685484
0.679552
0.673558
0.667499
0.661376
0.655188
0.648935
0.642614
0.636226
0.629771
0.623248
0.616657
0.609997
0.603268
0.59647
0.589603
0.582667
0.575663
0.568589
0.561448
0.554238
0.54696
0.539615
0.532204
0.524726
0.517183
0.509576
0.501904
0.494169
0.486372
0.478514
0.470596
0.462617
0.454581
0.446487
0.438336
0.430129
0.421867
0.413552
0.405182
0.39676
0.388285
0.379759
0.37118
0.362549
0.353866
0.34513
0.33634
0.327494
0.318591
0.309629
0.300604
0.291515
0.282359
0.273142
0.263898
0.254609
0.245212
0.235688
0.226023
0.216195
0.206181
0.19595
0.185464
0.174674
0.16352
0.151995
0.140006
0.127365
0.113874
0.0992404
0.0829814
0.0642155
0.0409103
0.0207457
0.0882425
0.222035
0.315608
0.39788
0.473515
0.544284
0.611565
0.675607
0.737073
0.796433
0.853931
0.909773
0.964105
1.01703
1.06863
1.11894
1.16801
1.21584
1.26245
1.30784
1.35198
1.39488
1.43651
1.47686
1.51591
1.55364
1.59004
1.62508
1.65876
1.69107
1.722
1.75154
1.7797
1.80647
1.83186
1.85588
1.87854
1.89985
1.91983
1.9385
1.95588
1.97199
1.98687
2.00054
2.01302
2.02435
2.03458
2.04375
2.05187
2.05899
2.06515
2.07037
2.07471
2.07819
2.08086
2.08275
2.0839
2.08434
2.08411
2.08325
2.08178
2.07973
2.07715
2.07406
2.07048
2.06646
2.062
2.05715
2.05192
2.04634
2.04042
2.0342
2.02768
2.0209
2.01386
2.00658
1.99908
1.99138
1.98348
1.9754
1.96715
1.95874
1.95018
1.94148
1.93265
1.9237
1.91463
1.90545
1.89616
1.88677
1.87729
1.86771
1.85804
1.84829
1.83845
1.82853
1.81852
1.80844
1.79827
1.78802
1.7777
1.76729
1.7568
1.74623
1.73558
1.72485
1.71402
1.70311
1.69212
1.68103
1.66984
1.65857
1.64719
1.63572
1.62414
1.61246
1.60067
1.58878
1.57677
1.56465
1.55241
1.54006
1.52758
1.51498
1.50225
1.4894
1.47642
1.46331
1.45006
1.43668
1.42317
1.40951
1.39572
1.38179
1.36772
1.3535
1.33914
1.32464
1.31
1.29521
1.28028
1.2652
1.24998
1.23462
1.21912
1.20347
1.18769
1.17176
1.1557
1.1395
1.12316
1.10669
1.09009
1.07336
1.0565
1.03951
1.0224
1.00517
0.987812
0.970341
0.952754
0.935052
0.917238
0.899314
0.88128
0.863138
0.844889
0.826533
0.808071
0.789502
0.770825
0.75204
0.733143
0.714131
0.695
0.675746
0.65636
0.636837
0.617165
0.597336
0.577339
0.557148
0.536727
0.51606
0.495125
0.473874
0.452264
0.430236
0.407719
0.384624
0.360834
0.336193
0.310561
0.283689
0.255241
0.224736
0.191442
0.154086
0.109458
0.042541
0.0882429
0.222036
0.315608
0.39788
0.473516
0.544285
0.611565
0.675607
0.737073
0.796433
0.853931
0.909773
0.964105
1.01703
1.06863
1.11894
1.16801
1.21584
1.26245
1.30784
1.35198
1.39488
1.43651
1.47686
1.51591
1.55364
1.59004
1.62508
1.65876
1.69107
1.722
1.75154
1.7797
1.80647
1.83186
1.85588
1.87853
1.89984
1.91983
1.9385
1.95588
1.97199
1.98687
2.00054
2.01302
2.02435
2.03458
2.04375
2.05187
2.05899
2.06515
2.07037
2.07471
2.07819
2.08086
2.08275
2.0839
2.08434
2.08411
2.08324
2.08177
2.07973
2.07715
2.07406
2.07048
2.06646
2.062
2.05715
2.05192
2.04634
2.04042
2.0342
2.02768
2.0209
2.01386
2.00658
1.99908
1.99138
1.98348
1.9754
1.96715
1.95874
1.95018
1.94148
1.93265
1.9237
1.91463
1.90545
1.89616
1.88677
1.87729
1.86771
1.85804
1.84829
1.83845
1.82853
1.81852
1.80844
1.79827
1.78802
1.7777
1.76729
1.7568
1.74623
1.73558
1.72485
1.71402
1.70311
1.69212
1.68103
1.66984
1.65857
1.64719
1.63572
1.62414
1.61246
1.60067
1.58878
1.57677
1.56465
1.55241
1.54005
1.52758
1.51498
1.50225
1.4894
1.47642
1.46331
1.45006
1.43668
1.42317
1.40951
1.39572
1.38179
1.36772
1.3535
1.33914
1.32464
1.31
1.29521
1.28028
1.2652
1.24998
1.23462
1.21912
1.20347
1.18768
1.17176
1.1557
1.13949
1.12316
1.10669
1.09009
1.07336
1.05649
1.03951
1.0224
1.00516
0.987812
0.970341
0.952753
0.935052
0.917238
0.899314
0.88128
0.863138
0.844888
0.826533
0.808071
0.789502
0.770825
0.752039
0.733142
0.714131
0.695
0.675745
0.65636
0.636836
0.617165
0.597336
0.577338
0.557148
0.536727
0.51606
0.495124
0.473874
0.452264
0.430236
0.407719
0.384624
0.360834
0.336193
0.31056
0.283689
0.255241
0.224736
0.191442
0.154087
0.109459
0.0425424
0.133688
0.316776
0.433838
0.533869
0.625595
0.712129
0.794811
0.874292
0.951051
1.02544
1.09771
1.16804
1.23658
1.30342
1.36863
1.43227
1.49437
1.55494
1.61398
1.67149
1.72746
1.78187
1.83469
1.88591
1.9355
1.98343
2.02969
2.07426
2.1171
2.15822
2.1976
2.23523
2.2711
2.30522
2.3376
2.36823
2.39713
2.42432
2.44982
2.47364
2.49583
2.51639
2.53538
2.55282
2.56875
2.58321
2.59625
2.60792
2.61826
2.6273
2.6351
2.64171
2.64717
2.65153
2.65483
2.65713
2.65847
2.6589
2.65846
2.65719
2.65515
2.65236
2.64888
2.64474
2.63997
2.63463
2.62873
2.62231
2.61541
2.60805
2.60027
2.59209
2.58354
2.57464
2.56542
2.55589
2.54608
2.53601
2.52569
2.51514
2.50438
2.49341
2.48226
2.47094
2.45945
2.4478
2.43601
2.42408
2.41202
2.39984
2.38754
2.37512
2.3626
2.34996
2.33723
2.32439
2.31146
2.29843
2.2853
2.27207
2.25875
2.24533
2.23181
2.2182
2.20448
2.19067
2.17675
2.16272
2.14859
2.13435
2.11999
2.10552
2.09093
2.07622
2.06139
2.04643
2.03134
2.01611
2.00075
1.98526
1.96962
1.95383
1.9379
1.92182
1.90558
1.88919
1.87264
1.85593
1.83905
1.82201
1.8048
1.78743
1.76988
1.75216
1.73427
1.7162
1.69796
1.67954
1.66094
1.64217
1.62322
1.6041
1.58479
1.56531
1.54566
1.52583
1.50583
1.48566
1.46532
1.44481
1.42413
1.40329
1.38228
1.36112
1.3398
1.31832
1.29669
1.27491
1.25299
1.23091
1.2087
1.18635
1.16385
1.14123
1.11846
1.09557
1.07254
1.04939
1.0261
1.00269
0.979137
0.955456
0.931638
0.907681
0.883579
0.859326
0.834914
0.810333
0.785574
0.76062
0.735456
0.710057
0.684394
0.658437
0.632146
0.605475
0.578386
0.550809
0.522665
0.493856
0.46426
0.433719
0.402039
0.368983
0.33419
0.297135
0.256958
0.211901
0.156644
0.0667821
0.133689
0.316776
0.433838
0.533869
0.625595
0.712129
0.794811
0.874292
0.951051
1.02544
1.09771
1.16804
1.23658
1.30342
1.36863
1.43227
1.49437
1.55494
1.61398
1.67149
1.72746
1.78187
1.83469
1.88591
1.9355
1.98343
2.02969
2.07426
2.1171
2.15822
2.1976
2.23523
2.2711
2.30522
2.3376
2.36823
2.39713
2.42432
2.44982
2.47364
2.49583
2.51639
2.53538
2.55282
2.56875
2.58321
2.59625
2.60792
2.61826
2.6273
2.6351
2.64171
2.64717
2.65152
2.65483
2.65713
2.65847
2.6589
2.65846
2.65719
2.65515
2.65236
2.64888
2.64474
2.63997
2.63462
2.62873
2.62231
2.61541
2.60805
2.60027
2.59209
2.58354
2.57464
2.56542
2.55589
2.54608
2.53601
2.52569
2.51514
2.50438
2.49341
2.48226
2.47094
2.45945
2.4478
2.43601
2.42408
2.41202
2.39984
2.38754
2.37512
2.36259
2.34996
2.33723
2.32439
2.31146
2.29843
2.2853
2.27207
2.25875
2.24533
2.23181
2.2182
2.20448
2.19067
2.17675
2.16272
2.14859
2.13434
2.11999
2.10552
2.09093
2.07622
2.06139
2.04643
2.03134
2.01611
2.00075
1.98526
1.96962
1.95383
1.9379
1.92182
1.90558
1.88919
1.87264
1.85593
1.83905
1.82201
1.8048
1.78743
1.76988
1.75216
1.73427
1.7162
1.69796
1.67954
1.66094
1.64217
1.62322
1.60409
1.58479
1.56531
1.54566
1.52583
1.50583
1.48566
1.46532
1.44481
1.42413
1.40329
1.38228
1.36112
1.3398
1.31832
1.29669
1.27491
1.25298
1.23091
1.2087
1.18634
1.16385
1.14122
1.11846
1.09557
1.07254
1.04939
1.0261
1.00268
0.979137
0.955455
0.931638
0.90768
0.883578
0.859325
0.834913
0.810333
0.785573
0.76062
0.735455
0.710057
0.684394
0.658437
0.632146
0.605475
0.578386
0.550809
0.522664
0.493856
0.46426
0.433719
0.402039
0.368983
0.334189
0.297135
0.256958
0.211901
0.156644
0.0667816
0.171183
0.397183
0.533253
0.645928
0.748759
0.845908
0.939018
1.02888
1.11594
1.20052
1.28282
1.363
1.44119
1.51747
1.5919
1.66452
1.73538
1.80448
1.87183
1.93742
2.00124
2.06328
2.12351
2.1819
2.23844
2.2931
2.34586
2.39669
2.44558
2.4925
2.53745
2.58042
2.6214
2.66039
2.69739
2.73242
2.76548
2.79659
2.82577
2.85305
2.87845
2.90201
2.92376
2.94375
2.962
2.97858
2.99353
3.00689
3.01872
3.02907
3.03799
3.04552
3.05173
3.05667
3.06039
3.06295
3.06439
3.06478
3.06416
3.06259
3.06011
3.05677
3.05262
3.0477
3.04206
3.03575
3.02879
3.02123
3.01311
3.00445
2.99531
2.9857
2.97566
2.96522
2.9544
2.94323
2.93174
2.91994
2.90785
2.8955
2.88291
2.87008
2.85704
2.8438
2.83038
2.81677
2.803
2.78907
2.775
2.76079
2.74644
2.73196
2.71736
2.70265
2.68782
2.67287
2.65782
2.64266
2.62739
2.61201
2.59653
2.58094
2.56524
2.54944
2.53352
2.5175
2.50135
2.4851
2.46872
2.45222
2.4356
2.41885
2.40197
2.38496
2.36781
2.35051
2.33308
2.3155
2.29776
2.27987
2.26183
2.24362
2.22525
2.20671
2.188
2.16912
2.15006
2.13082
2.1114
2.09179
2.072
2.05202
2.03185
2.01148
1.99092
1.97017
1.94922
1.92808
1.90673
1.88519
1.86345
1.84152
1.81938
1.79705
1.77452
1.7518
1.72889
1.70578
1.68248
1.659
1.63532
1.61147
1.58743
1.56321
1.53882
1.51425
1.48952
1.46461
1.43954
1.41431
1.38891
1.36336
1.33766
1.3118
1.2858
1.25965
1.23335
1.2069
1.18031
1.15357
1.12669
1.09966
1.07247
1.04514
1.01764
0.989975
0.962137
0.934113
0.905893
0.877461
0.848799
0.819883
0.790686
0.761176
0.731313
0.701055
0.670347
0.63912
0.607307
0.57481
0.541503
0.507236
0.471802
0.434957
0.396321
0.355302
0.310837
0.26055
0.197013
0.086731
0.171183
0.397183
0.533253
0.645928
0.748759
0.845908
0.939018
1.02888
1.11594
1.20052
1.28282
1.363
1.44119
1.51747
1.5919
1.66452
1.73538
1.80448
1.87183
1.93742
2.00124
2.06328
2.12351
2.1819
2.23844
2.2931
2.34586
2.39669
2.44558
2.4925
2.53745
2.58042
2.6214
2.66039
2.69739
2.73242
2.76548
2.79659
2.82577
2.85305
2.87845
2.90201
2.92376
2.94375
2.962
2.97858
2.99353
3.00689
3.01872
3.02907
3.03799
3.04552
3.05173
3.05667
3.06039
3.06295
3.06439
3.06478
3.06416
3.06259
3.06011
3.05677
3.05262
3.0477
3.04206
3.03575
3.02879
3.02123
3.0131
3.00445
2.99531
2.9857
2.97566
2.96522
2.9544
2.94323
2.93174
2.91994
2.90785
2.8955
2.88291
2.87008
2.85704
2.8438
2.83037
2.81677
2.803
2.78907
2.775
2.76079
2.74644
2.73196
2.71736
2.70265
2.68782
2.67287
2.65782
2.64266
2.62739
2.61201
2.59653
2.58094
2.56524
2.54944
2.53352
2.51749
2.50135
2.4851
2.46872
2.45222
2.4356
2.41885
2.40197
2.38496
2.3678
2.35051
2.33308
2.31549
2.29776
2.27987
2.26183
2.24362
2.22525
2.20671
2.188
2.16912
2.15006
2.13082
2.1114
2.09179
2.072
2.05202
2.03184
2.01148
1.99092
1.97017
1.94922
1.92807
1.90673
1.88519
1.86345
1.84152
1.81938
1.79705
1.77452
1.7518
1.72889
1.70578
1.68248
1.659
1.63532
1.61147
1.58743
1.56321
1.53882
1.51425
1.48952
1.46461
1.43954
1.41431
1.38891
1.36336
1.33766
1.3118
1.2858
1.25965
1.23335
1.2069
1.18031
1.15357
1.12669
1.09966
1.07247
1.04514
1.01764
0.989975
0.962136
0.934113
0.905893
0.877461
0.848798
0.819883
0.790686
0.761175
0.731313
0.701054
0.670347
0.63912
0.607307
0.574809
0.541503
0.507236
0.471802
0.434957
0.396321
0.355302
0.310837
0.26055
0.197013
0.0867308
0.20514
0.469371
0.623659
0.748181
0.860785
0.966853
1.0685
1.1667
1.26195
1.35458
1.44477
1.53266
1.61835
1.70193
1.78344
1.86294
1.94044
2.01598
2.08955
2.16116
2.2308
2.29845
2.36411
2.42775
2.48936
2.54891
2.60638
2.66175
2.71501
2.76614
2.81512
2.86196
2.90664
2.94917
2.98954
3.02777
3.06387
3.09786
3.12975
3.15957
3.18736
3.21314
3.23695
3.25884
3.27885
3.29701
3.3134
3.32805
3.34102
3.35236
3.36213
3.37038
3.37718
3.38257
3.38662
3.38938
3.39092
3.39128
3.39054
3.38873
3.38592
3.38215
3.37749
3.37197
3.36565
3.35857
3.35078
3.34233
3.33324
3.32357
3.31334
3.30261
3.29139
3.27972
3.26763
3.25515
3.24231
3.22913
3.21564
3.20185
3.18778
3.17346
3.15891
3.14413
3.12914
3.11396
3.0986
3.08306
3.06737
3.05152
3.03552
3.01938
3.00311
2.98672
2.97019
2.95355
2.93679
2.91991
2.90291
2.8858
2.86858
2.85124
2.83379
2.81622
2.79853
2.78072
2.76279
2.74474
2.72656
2.70825
2.68981
2.67123
2.65251
2.63365
2.61464
2.59548
2.57616
2.55669
2.53706
2.51726
2.49729
2.47715
2.45683
2.43633
2.41565
2.39478
2.37373
2.35248
2.33103
2.30938
2.28754
2.26549
2.24324
2.22077
2.1981
2.17522
2.15213
2.12883
2.10531
2.08158
2.05764
2.03348
2.00911
1.98453
1.95973
1.93473
1.90952
1.88409
1.85847
1.83264
1.8066
1.78037
1.75394
1.72732
1.70051
1.67351
1.64632
1.61895
1.59141
1.56368
1.53578
1.50772
1.47948
1.45108
1.42252
1.3938
1.36491
1.33587
1.30667
1.27732
1.2478
1.21813
1.18829
1.15829
1.12811
1.09776
1.06722
1.03649
1.00554
0.974381
0.942977
0.91131
0.879354
0.847079
0.814446
0.781413
0.747927
0.713926
0.679333
0.644052
0.607962
0.570917
0.532705
0.493044
0.451524
0.407444
0.359479
0.304601
0.233436
0.104414
0.20514
0.469372
0.623659
0.748181
0.860785
0.966853
1.0685
1.16669
1.26195
1.35458
1.44477
1.53266
1.61835
1.70193
1.78344
1.86294
1.94044
2.01598
2.08955
2.16116
2.2308
2.29845
2.36411
2.42775
2.48936
2.54891
2.60638
2.66175
2.71501
2.76614
2.81512
2.86196
2.90664
2.94916
2.98954
3.02777
3.06387
3.09785
3.12975
3.15957
3.18736
3.21314
3.23695
3.25884
3.27884
3.29701
3.3134
3.32805
3.34102
3.35236
3.36213
3.37038
3.37718
3.38257
3.38662
3.38938
3.39092
3.39128
3.39054
3.38873
3.38592
3.38215
3.37748
3.37197
3.36565
3.35857
3.35078
3.34232
3.33324
3.32357
3.31334
3.30261
3.29139
3.27972
3.26763
3.25515
3.24231
3.22913
3.21563
3.20184
3.18778
3.17346
3.15891
3.14413
3.12914
3.11396
3.0986
3.08306
3.06737
3.05152
3.03552
3.01938
3.00311
2.98672
2.97019
2.95355
2.93679
2.91991
2.90291
2.8858
2.86858
2.85124
2.83379
2.81622
2.79853
2.78072
2.76279
2.74474
2.72656
2.70825
2.68981
2.67123
2.65251
2.63365
2.61464
2.59548
2.57616
2.55669
2.53706
2.51726
2.49729
2.47715
2.45683
2.43633
2.41565
2.39478
2.37373
2.35248
2.33103
2.30938
2.28754
2.26549
2.24323
2.22077
2.1981
2.17522
2.15213
2.12883
2.10531
2.08158
2.05764
2.03348
2.00911
1.98453
1.95973
1.93473
1.90951
1.88409
1.85847
1.83264
1.8066
1.78037
1.75394
1.72732
1.70051
1.67351
1.64632
1.61895
1.59141
1.56368
1.53578
1.50772
1.47948
1.45108
1.42252
1.3938
1.36491
1.33587
1.30667
1.27732
1.2478
1.21813
1.18829
1.15829
1.12811
1.09776
1.06722
1.03649
1.00554
0.974381
0.942977
0.91131
0.879354
0.847078
0.814446
0.781413
0.747927
0.713926
0.679333
0.644052
0.607962
0.570917
0.532705
0.493044
0.451524
0.407444
0.359479
0.304601
0.233436
0.104414
0.236248
0.536913
0.708767
0.845062
0.967077
1.08143
1.19077
1.29631
1.39865
1.49814
1.59498
1.6893
1.78121
1.87077
1.95804
2.04306
2.12586
2.20648
2.28492
2.3612
2.43531
2.50726
2.57704
2.64464
2.71004
2.77324
2.83421
2.89295
2.94945
3.00368
3.05565
3.10535
3.15277
3.19792
3.2408
3.28142
3.31979
3.35593
3.38986
3.42162
3.45121
3.47869
3.50409
3.52744
3.5488
3.56821
3.58573
3.60139
3.61527
3.62741
3.63787
3.64671
3.65398
3.65976
3.66409
3.66705
3.66868
3.66905
3.66823
3.66626
3.6632
3.65912
3.65406
3.64808
3.64122
3.63355
3.62511
3.61594
3.60608
3.59559
3.5845
3.57285
3.56067
3.54801
3.53489
3.52134
3.50739
3.49308
3.47842
3.46345
3.44817
3.43262
3.41681
3.40075
3.38447
3.36798
3.35129
3.33442
3.31737
3.30015
3.28278
3.26525
3.24758
3.22978
3.21184
3.19377
3.17557
3.15725
3.13881
3.12024
3.10156
3.08275
3.06382
3.04477
3.02559
3.00629
2.98686
2.96729
2.9476
2.92776
2.90779
2.88767
2.86741
2.84699
2.82642
2.80569
2.7848
2.76375
2.74252
2.72112
2.69954
2.67777
2.65582
2.63368
2.61135
2.58882
2.56609
2.54316
2.52002
2.49666
2.4731
2.44932
2.42533
2.40112
2.37668
2.35202
2.32714
2.30204
2.27671
2.25115
2.22537
2.19936
2.17312
2.14666
2.11997
2.09306
2.06593
2.03858
2.01101
1.98322
1.95522
1.92701
1.89858
1.86995
1.84111
1.81208
1.78284
1.75341
1.72379
1.69398
1.66399
1.63381
1.60345
1.57291
1.5422
1.51132
1.48026
1.44904
1.41765
1.38608
1.35435
1.32245
1.29037
1.25812
1.22568
1.19306
1.16024
1.12722
1.09399
1.06052
1.02681
0.99283
0.958559
0.923966
0.889018
0.853671
0.817877
0.781572
0.744683
0.707115
0.668745
0.629413
0.588897
0.546876
0.502882
0.456081
0.404874
0.345603
0.267137
0.120609
0.236249
0.536913
0.708767
0.845061
0.967076
1.08143
1.19077
1.29631
1.39865
1.49814
1.59498
1.6893
1.78121
1.87077
1.95804
2.04306
2.12586
2.20648
2.28492
2.3612
2.43531
2.50726
2.57704
2.64464
2.71004
2.77324
2.83421
2.89295
2.94945
3.00368
3.05565
3.10535
3.15277
3.19792
3.2408
3.28142
3.31979
3.35593
3.38986
3.42162
3.45121
3.47869
3.50409
3.52744
3.5488
3.56821
3.58573
3.60139
3.61527
3.62741
3.63787
3.6467
3.65398
3.65976
3.66409
3.66704
3.66868
3.66905
3.66823
3.66626
3.6632
3.65912
3.65406
3.64807
3.64122
3.63355
3.62511
3.61594
3.60608
3.59559
3.5845
3.57285
3.56067
3.54801
3.53489
3.52134
3.50739
3.49308
3.47842
3.46345
3.44817
3.43262
3.4168
3.40075
3.38447
3.36798
3.35129
3.33442
3.31737
3.30015
3.28277
3.26525
3.24758
3.22978
3.21184
3.19377
3.17557
3.15725
3.13881
3.12024
3.10156
3.08275
3.06382
3.04477
3.02559
3.00629
2.98686
2.96729
2.9476
2.92776
2.90779
2.88767
2.86741
2.84699
2.82642
2.80569
2.7848
2.76375
2.74252
2.72112
2.69954
2.67777
2.65582
2.63368
2.61135
2.58882
2.56609
2.54316
2.52001
2.49666
2.4731
2.44932
2.42533
2.40111
2.37668
2.35202
2.32714
2.30204
2.27671
2.25115
2.22537
2.19936
2.17312
2.14666
2.11997
2.09306
2.06593
2.03858
2.01101
1.98322
1.95522
1.927
1.89858
1.86995
1.84111
1.81208
1.78284
1.75341
1.72379
1.69398
1.66399
1.63381
1.60345
1.57291
1.5422
1.51132
1.48026
1.44904
1.41765
1.38608
1.35435
1.32245
1.29037
1.25812
1.22568
1.19306
1.16024
1.12722
1.09399
1.06052
1.02681
0.99283
0.958559
0.923966
0.889018
0.853671
0.817876
0.781572
0.744683
0.707115
0.668745
0.629413
0.588897
0.546876
0.502882
0.456081
0.404874
0.345603
0.267137
0.120609
0.265572
0.601492
0.790524
0.938551
1.06987
1.19225
1.30886
1.42117
1.52993
1.63552
1.7382
1.83809
1.93531
2.02993
2.122
2.21158
2.2987
2.38341
2.46573
2.54568
2.62328
2.69853
2.77145
2.84203
2.91028
2.97619
3.03975
3.10097
3.15984
3.21634
3.27049
3.32227
3.3717
3.41876
3.46348
3.50586
3.54591
3.58366
3.61912
3.65232
3.68328
3.71205
3.73866
3.76315
3.78557
3.80595
3.82436
3.84083
3.85544
3.86823
3.87926
3.88858
3.89627
3.90238
3.90698
3.91011
3.91186
3.91227
3.91141
3.90935
3.90613
3.90181
3.89646
3.89014
3.88288
3.87475
3.86579
3.85606
3.8456
3.83445
3.82266
3.81028
3.79733
3.78385
3.76988
3.75546
3.74061
3.72536
3.70975
3.69379
3.6775
3.66092
3.64406
3.62694
3.60958
3.59199
3.57418
3.55618
3.53799
3.51961
3.50108
3.48238
3.46352
3.44452
3.42538
3.4061
3.38668
3.36714
3.34746
3.32765
3.30772
3.28766
3.26747
3.24715
3.2267
3.20612
3.1854
3.16454
3.14355
3.12241
3.10113
3.07969
3.05811
3.03636
3.01446
2.99238
2.97014
2.94773
2.92513
2.90236
2.8794
2.85624
2.8329
2.80935
2.7856
2.76165
2.73749
2.71311
2.68852
2.66371
2.63868
2.61342
2.58793
2.56222
2.53627
2.5101
2.48368
2.45704
2.43015
2.40303
2.37567
2.34807
2.32024
2.29217
2.26386
2.23532
2.20654
2.17753
2.14829
2.11882
2.08913
2.0592
2.02906
1.9987
1.96812
1.93733
1.90633
1.87512
1.84371
1.81209
1.78028
1.74827
1.71607
1.68368
1.6511
1.61833
1.58539
1.55226
1.51895
1.48546
1.45179
1.41793
1.38389
1.34967
1.31525
1.28064
1.24582
1.2108
1.17555
1.14006
1.10432
1.06832
1.03201
0.995393
0.958417
0.921047
0.883234
0.844917
0.806022
0.76645
0.726075
0.684725
0.642155
0.598006
0.551713
0.502314
0.447944
0.384361
0.298825
0.135728
0.265573
0.601493
0.790524
0.938551
1.06987
1.19225
1.30886
1.42117
1.52993
1.63552
1.7382
1.83809
1.93531
2.02992
2.122
2.21158
2.2987
2.38341
2.46573
2.54568
2.62328
2.69853
2.77145
2.84203
2.91028
2.97619
3.03975
3.10097
3.15983
3.21634
3.27049
3.32227
3.3717
3.41876
3.46348
3.50586
3.54591
3.58366
3.61912
3.65231
3.68328
3.71205
3.73866
3.76315
3.78557
3.80595
3.82435
3.84083
3.85544
3.86823
3.87926
3.88858
3.89627
3.90238
3.90698
3.91011
3.91186
3.91227
3.91141
3.90934
3.90613
3.90181
3.89646
3.89013
3.88288
3.87475
3.86579
3.85606
3.8456
3.83445
3.82266
3.81028
3.79733
3.78385
3.76988
3.75546
3.74061
3.72536
3.70975
3.69379
3.6775
3.66092
3.64406
3.62694
3.60958
3.59198
3.57418
3.55618
3.53798
3.51961
3.50108
3.48238
3.46352
3.44452
3.42538
3.4061
3.38668
3.36714
3.34746
3.32765
3.30772
3.28766
3.26747
3.24715
3.2267
3.20612
3.1854
3.16454
3.14355
3.12241
3.10113
3.07969
3.05811
3.03636
3.01446
2.99238
2.97014
2.94773
2.92513
2.90236
2.8794
2.85624
2.8329
2.80935
2.7856
2.76165
2.73749
2.71311
2.68852
2.66371
2.63868
2.61342
2.58793
2.56222
2.53627
2.5101
2.48368
2.45704
2.43015
2.40303
2.37567
2.34807
2.32024
2.29217
2.26386
2.23532
2.20654
2.17753
2.14829
2.11882
2.08912
2.0592
2.02906
1.9987
1.96812
1.93733
1.90633
1.87512
1.84371
1.81209
1.78028
1.74827
1.71607
1.68368
1.6511
1.61833
1.58539
1.55226
1.51895
1.48546
1.45179
1.41793
1.38389
1.34967
1.31525
1.28064
1.24582
1.2108
1.17555
1.14006
1.10432
1.06832
1.03201
0.995393
0.958417
0.921047
0.883234
0.844917
0.806022
0.76645
0.726075
0.684725
0.642155
0.598006
0.551713
0.502314
0.447944
0.384361
0.298825
0.135728
0.294116
0.663905
0.869983
1.02972
1.17029
1.30056
1.42418
1.54291
1.65762
1.76879
1.8767
1.98152
2.08336
2.18232
2.27846
2.37185
2.46252
2.55055
2.63596
2.71879
2.79908
2.87685
2.95212
3.02492
3.09524
3.16311
3.22853
3.29151
3.35205
3.41015
3.46583
3.51907
3.5699
3.61832
3.66433
3.70795
3.7492
3.7881
3.82466
3.85891
3.89089
3.92062
3.94813
3.97348
3.9967
4.01784
4.03694
4.05406
4.06926
4.08257
4.09407
4.10382
4.11186
4.11827
4.1231
4.12642
4.12829
4.12877
4.12793
4.12582
4.1225
4.11804
4.11249
4.10592
4.09836
4.08989
4.08055
4.07038
4.05945
4.04779
4.03546
4.02249
4.00892
3.99479
3.98014
3.96501
3.94942
3.93341
3.91701
3.90023
3.88312
3.86568
3.84795
3.82994
3.81167
3.79316
3.77442
3.75547
3.73631
3.71697
3.69744
3.67775
3.65789
3.63788
3.61771
3.5974
3.57694
3.55635
3.53561
3.51475
3.49375
3.47261
3.45134
3.42993
3.40839
3.38671
3.36489
3.34292
3.32081
3.29855
3.27614
3.25357
3.23084
3.20795
3.18489
3.16166
3.13825
3.11466
3.09089
3.06693
3.04277
3.01842
2.99387
2.96911
2.94414
2.91896
2.89355
2.86793
2.84209
2.81601
2.78971
2.76317
2.73639
2.70938
2.68213
2.65463
2.62689
2.59891
2.57067
2.54219
2.51347
2.48449
2.45527
2.4258
2.39608
2.36612
2.33591
2.30545
2.27476
2.24382
2.21265
2.18123
2.14959
2.11771
2.08561
2.05327
2.02072
1.98794
1.95495
1.92174
1.88833
1.8547
1.82087
1.78683
1.7526
1.71816
1.68353
1.6487
1.61368
1.57847
1.54306
1.50746
1.47167
1.43567
1.39947
1.36307
1.32645
1.28962
1.25255
1.21524
1.17768
1.13984
1.10171
1.06325
1.02444
0.985244
0.945603
0.90546
0.864739
0.823336
0.781117
0.737891
0.69339
0.647205
0.598687
0.546739
0.489234
0.421388
0.328964
0.15003
0.294116
0.663905
0.869982
1.02972
1.17029
1.30056
1.42418
1.54291
1.65762
1.76879
1.8767
1.98152
2.08336
2.18232
2.27846
2.37184
2.46252
2.55055
2.63596
2.71879
2.79908
2.87685
2.95212
3.02492
3.09524
3.16311
3.22853
3.29151
3.35205
3.41015
3.46583
3.51907
3.5699
3.61831
3.66433
3.70795
3.7492
3.7881
3.82466
3.85891
3.89089
3.92061
3.94813
3.97348
3.9967
4.01784
4.03694
4.05406
4.06926
4.08257
4.09407
4.10382
4.11186
4.11827
4.1231
4.12642
4.12829
4.12877
4.12793
4.12582
4.1225
4.11804
4.11249
4.10592
4.09836
4.08989
4.08054
4.07038
4.05945
4.04779
4.03546
4.02249
4.00892
3.99479
3.98014
3.96501
3.94942
3.93341
3.91701
3.90023
3.88312
3.86568
3.84795
3.82994
3.81167
3.79316
3.77442
3.75547
3.73631
3.71697
3.69744
3.67775
3.65789
3.63787
3.61771
3.5974
3.57694
3.55635
3.53561
3.51475
3.49375
3.47261
3.45134
3.42993
3.40839
3.38671
3.36489
3.34292
3.32081
3.29855
3.27614
3.25357
3.23084
3.20795
3.18489
3.16166
3.13825
3.11466
3.09089
3.06693
3.04277
3.01842
2.99387
2.96911
2.94414
2.91895
2.89355
2.86793
2.84209
2.81601
2.78971
2.76317
2.73639
2.70938
2.68213
2.65463
2.62689
2.59891
2.57067
2.54219
2.51347
2.48449
2.45527
2.4258
2.39608
2.36612
2.33591
2.30545
2.27476
2.24382
2.21265
2.18123
2.14959
2.11771
2.08561
2.05327
2.02072
1.98794
1.95495
1.92174
1.88832
1.8547
1.82087
1.78683
1.7526
1.71816
1.68353
1.6487
1.61368
1.57847
1.54306
1.50746
1.47167
1.43567
1.39947
1.36307
1.32645
1.28962
1.25255
1.21524
1.17768
1.13984
1.10171
1.06325
1.02444
0.985244
0.945603
0.90546
0.864739
0.823336
0.781117
0.737891
0.69339
0.647205
0.598687
0.546739
0.489234
0.421389
0.328964
0.15003
0.322501
0.725036
0.947873
1.11923
1.269
1.40704
1.53749
1.66235
1.78266
1.89899
2.01166
2.12089
2.22681
2.32953
2.42913
2.52569
2.61929
2.70999
2.79784
2.8829
2.96523
3.04486
3.12184
3.1962
3.26797
3.33718
3.40384
3.46798
3.52961
3.58875
3.6454
3.69959
3.75132
3.8006
3.84745
3.89189
3.93393
3.97359
4.0109
4.04587
4.07855
4.10895
4.13712
4.1631
4.18691
4.20862
4.22825
4.24587
4.26153
4.27527
4.28716
4.29725
4.3056
4.31227
4.31733
4.32083
4.32284
4.32341
4.32262
4.32052
4.31717
4.31263
4.30696
4.30022
4.29247
4.28375
4.27413
4.26365
4.25237
4.24033
4.22757
4.21415
4.2001
4.18546
4.17028
4.15458
4.1384
4.12178
4.10474
4.08731
4.06951
4.05138
4.03293
4.01419
3.99517
3.9759
3.95638
3.93663
3.91668
3.89652
3.87617
3.85563
3.83493
3.81406
3.79302
3.77184
3.7505
3.72902
3.70739
3.68562
3.6637
3.64165
3.61946
3.59712
3.57464
3.55202
3.52925
3.50633
3.48326
3.46003
3.43665
3.41311
3.3894
3.36552
3.34146
3.31723
3.29282
3.26822
3.24343
3.21844
3.19326
3.16787
3.14227
3.11646
3.09043
3.06418
3.03771
3.01101
2.98407
2.9569
2.92949
2.90184
2.87395
2.84581
2.81742
2.78877
2.75988
2.73073
2.70132
2.67166
2.64174
2.61156
2.58113
2.55043
2.51948
2.48827
2.4568
2.42508
2.39311
2.36088
2.3284
2.29567
2.2627
2.22948
2.19602
2.16232
2.12839
2.09422
2.05982
2.02519
1.99034
1.95527
1.91997
1.88446
1.84873
1.81279
1.77664
1.74028
1.70371
1.66694
1.62995
1.59276
1.55536
1.51775
1.47993
1.44189
1.40362
1.36512
1.32639
1.28741
1.24816
1.20863
1.16881
1.12866
1.08816
1.04726
1.00592
0.964071
0.921637
0.878508
0.834536
0.789512
0.743137
0.694953
0.644232
0.589729
0.529086
0.457009
0.357875
0.163763
0.322501
0.725036
0.947873
1.11922
1.269
1.40704
1.53749
1.66235
1.78266
1.89899
2.01166
2.12089
2.22681
2.32952
2.42913
2.52569
2.61929
2.70999
2.79784
2.8829
2.96523
3.04486
3.12184
3.1962
3.26797
3.33717
3.40384
3.46798
3.52961
3.58875
3.6454
3.69959
3.75132
3.8006
3.84745
3.89189
3.93393
3.97359
4.0109
4.04587
4.07855
4.10895
4.13712
4.1631
4.18691
4.20862
4.22825
4.24587
4.26153
4.27527
4.28716
4.29725
4.3056
4.31227
4.31733
4.32083
4.32284
4.32341
4.32262
4.32052
4.31717
4.31263
4.30696
4.30022
4.29247
4.28375
4.27413
4.26365
4.25237
4.24033
4.22757
4.21415
4.2001
4.18546
4.17028
4.15458
4.1384
4.12178
4.10474
4.08731
4.06951
4.05138
4.03293
4.01419
3.99517
3.9759
3.95638
3.93663
3.91668
3.89652
3.87617
3.85563
3.83493
3.81406
3.79302
3.77184
3.7505
3.72902
3.70739
3.68562
3.6637
3.64165
3.61946
3.59712
3.57464
3.55202
3.52925
3.50633
3.48326
3.46003
3.43665
3.41311
3.3894
3.36552
3.34146
3.31723
3.29282
3.26822
3.24343
3.21844
3.19326
3.16787
3.14227
3.11646
3.09043
3.06418
3.03771
3.01101
2.98407
2.9569
2.92949
2.90184
2.87395
2.84581
2.81742
2.78877
2.75988
2.73073
2.70132
2.67166
2.64174
2.61156
2.58113
2.55043
2.51948
2.48827
2.4568
2.42508
2.39311
2.36088
2.3284
2.29567
2.2627
2.22948
2.19602
2.16232
2.12839
2.09422
2.05982
2.02519
1.99034
1.95527
1.91997
1.88446
1.84873
1.81279
1.77664
1.74028
1.70371
1.66694
1.62995
1.59276
1.55536
1.51775
1.47993
1.44189
1.40362
1.36512
1.32639
1.28741
1.24816
1.20863
1.16881
1.12866
1.08816
1.04726
1.00592
0.964071
0.921637
0.878508
0.834536
0.789512
0.743137
0.694953
0.644232
0.589729
0.529086
0.457009
0.357875
0.163763
0.350403