/*--------------------------------*- C++ -*----------------------------------*\
  =========                 |
  \\      /  F ield         | OpenFOAM: The Open Source CFD Toolbox
   \\    /   O peration     | Website:  https://openfoam.org
    \\  /    A nd           | Version:  8
     \\/     M anipulation  |
\*---------------------------------------------------------------------------*/
FoamFile
{
    version     2.0;
    format      ascii;
    class       surfaceScalarField;
    location    "4800";
    object      phi;
}
// * * * * * * * * * * * * * * * * * * * * * * * * * * * * * * * * * * * * * //

dimensions      [1 0 -1 0 0 0 0];

internalField   nonuniform List<scalar> 
119360
(
-3.47936e-07
1.72839e-12
3.47934e-07
-6.42084e-07
2.19432e-13
2.94112e-07
-8.00499e-07
2.08276e-13
1.58405e-07
-8.27803e-07
1.01917e-13
2.72953e-08
-7.54405e-07
3.64973e-14
-7.34052e-08
-6.09571e-07
-1.19915e-14
-1.44842e-07
-4.15714e-07
-4.37993e-14
-1.93864e-07
-1.89156e-07
-6.47825e-14
-2.26564e-07
5.82839e-08
-8.18243e-14
-2.47447e-07
3.17648e-07
-9.27044e-14
-2.5937e-07
5.82447e-07
-9.09835e-14
-2.64805e-07
8.48369e-07
-8.34616e-14
-2.65928e-07
1.11222e-06
-7.3414e-14
-2.63861e-07
1.37167e-06
-6.20897e-14
-2.59454e-07
1.62497e-06
-5.00992e-14
-2.53301e-07
1.8708e-06
-3.8303e-14
-2.4584e-07
2.1082e-06
-2.68677e-14
-2.37398e-07
2.33642e-06
-1.61817e-14
-2.28227e-07
2.55494e-06
-6.30072e-15
-2.18524e-07
2.76338e-06
2.70599e-15
-2.08446e-07
2.96149e-06
1.07968e-14
-1.98119e-07
3.14913e-06
1.80271e-14
-1.87644e-07
3.32624e-06
2.45636e-14
-1.77109e-07
3.49281e-06
3.03507e-14
-1.66582e-07
3.64893e-06
3.54855e-14
-1.56125e-07
3.79471e-06
3.98986e-14
-1.45786e-07
3.93032e-06
4.37012e-14
-1.35608e-07
4.05594e-06
4.69486e-14
-1.25628e-07
4.17181e-06
4.97242e-14
-1.15876e-07
4.27819e-06
5.18891e-14
-1.06378e-07
4.37534e-06
5.36239e-14
-9.71548e-08
4.46356e-06
5.4859e-14
-8.82251e-08
4.54316e-06
5.57889e-14
-7.96034e-08
4.61445e-06
5.63579e-14
-7.13012e-08
4.67777e-06
5.65105e-14
-6.33275e-08
4.73346e-06
5.6455e-14
-5.56888e-08
4.78184e-06
5.60249e-14
-4.83893e-08
4.82327e-06
5.53587e-14
-4.14315e-08
4.85808e-06
5.44845e-14
-3.48158e-08
4.88662e-06
5.33465e-14
-2.8541e-08
4.90922e-06
5.21392e-14
-2.26046e-08
4.92622e-06
5.07236e-14
-1.70028e-08
4.93795e-06
4.92249e-14
-1.17306e-08
4.94472e-06
4.75179e-14
-6.78203e-09
4.94687e-06
4.57277e-14
-2.14919e-09
4.94469e-06
4.39375e-14
2.17659e-09
4.93848e-06
4.21195e-14
6.20365e-09
4.92854e-06
4.02738e-14
9.94142e-09
4.91513e-06
3.84558e-14
1.34003e-08
4.89854e-06
3.65962e-14
1.65907e-08
4.87901e-06
3.47505e-14
1.95232e-08
4.8568e-06
3.29048e-14
2.22085e-08
4.83214e-06
3.11562e-14
2.46575e-08
4.80525e-06
2.94631e-14
2.68813e-08
4.77636e-06
2.78117e-14
2.8891e-08
4.74566e-06
2.62574e-14
3.06978e-08
4.71334e-06
2.47447e-14
3.23128e-08
4.67959e-06
2.33015e-14
3.3747e-08
4.64458e-06
2.19553e-14
3.50113e-08
4.60846e-06
2.06925e-14
3.61162e-08
4.57138e-06
1.95406e-14
3.70723e-08
4.53349e-06
1.84859e-14
3.78895e-08
4.49491e-06
1.75006e-14
3.85778e-08
4.45576e-06
1.66402e-14
3.91466e-08
4.41615e-06
1.58492e-14
3.96051e-08
4.37619e-06
1.51692e-14
3.99622e-08
4.33596e-06
1.45447e-14
4.02262e-08
4.29555e-06
1.40729e-14
4.04052e-08
4.25504e-06
1.36982e-14
4.05069e-08
4.2145e-06
1.33374e-14
4.05385e-08
4.17399e-06
1.30183e-14
4.05071e-08
4.13357e-06
1.28101e-14
4.04191e-08
4.09329e-06
1.26852e-14
4.02806e-08
4.05319e-06
1.26575e-14
4.00975e-08
4.01331e-06
1.26991e-14
3.98751e-08
3.97369e-06
1.27963e-14
3.96185e-08
3.93435e-06
1.29628e-14
3.93325e-08
3.89533e-06
1.31294e-14
3.90213e-08
3.85664e-06
1.3282e-14
3.8689e-08
3.8183e-06
1.35873e-14
3.83395e-08
3.78032e-06
1.39621e-14
3.79762e-08
3.74271e-06
1.43229e-14
3.76022e-08
3.70549e-06
1.46976e-14
3.72206e-08
3.66865e-06
1.51417e-14
3.6834e-08
3.63221e-06
1.55997e-14
3.64449e-08
3.59615e-06
1.60437e-14
3.60556e-08
3.56048e-06
1.65156e-14
3.5668e-08
3.52519e-06
1.70985e-14
3.5284e-08
3.49029e-06
1.75981e-14
3.49054e-08
3.45575e-06
1.8056e-14
3.45337e-08
3.42158e-06
1.86389e-14
3.41702e-08
3.38776e-06
1.92079e-14
3.38162e-08
3.35428e-06
1.97907e-14
3.34728e-08
3.32114e-06
2.03875e-14
3.3141e-08
3.28832e-06
2.09842e-14
3.28217e-08
3.2558e-06
2.14838e-14
3.25158e-08
3.22357e-06
2.21083e-14
3.2224e-08
3.19162e-06
2.27744e-14
3.19469e-08
3.15994e-06
2.34128e-14
3.16851e-08
3.12849e-06
2.3954e-14
3.14392e-08
3.09728e-06
2.45369e-14
3.12096e-08
3.06628e-06
2.52169e-14
3.09967e-08
3.03548e-06
2.57998e-14
3.0801e-08
3.00486e-06
2.63826e-14
3.06228e-08
2.97439e-06
2.70349e-14
3.04623e-08
2.94407e-06
2.76455e-14
3.03199e-08
2.91387e-06
2.82839e-14
3.01958e-08
2.88378e-06
2.88667e-14
3.00902e-08
2.85377e-06
2.94496e-14
3.00034e-08
2.82384e-06
3.00602e-14
2.99355e-08
2.79395e-06
3.06708e-14
2.98867e-08
2.76409e-06
3.13092e-14
2.98572e-08
2.73424e-06
3.19753e-14
2.98471e-08
2.70438e-06
3.25165e-14
2.98565e-08
2.67449e-06
3.31687e-14
2.98855e-08
2.64455e-06
3.38071e-14
2.99342e-08
2.61455e-06
3.44455e-14
3.00027e-08
2.58446e-06
3.51116e-14
3.0091e-08
2.55425e-06
3.57083e-14
3.01993e-08
2.52392e-06
3.63745e-14
3.03275e-08
2.49345e-06
3.70267e-14
3.04757e-08
2.4628e-06
3.76651e-14
3.06438e-08
2.43197e-06
3.83728e-14
3.08319e-08
2.40092e-06
3.90528e-14
3.10398e-08
2.36965e-06
3.96773e-14
3.12676e-08
2.33814e-06
4.04406e-14
3.15152e-08
2.30635e-06
4.10651e-14
3.17824e-08
2.27428e-06
4.17451e-14
3.20692e-08
2.2419e-06
4.2425e-14
3.23753e-08
2.2092e-06
4.31467e-14
3.27006e-08
2.17615e-06
4.39238e-14
3.30449e-08
2.14274e-06
4.45622e-14
3.34079e-08
2.10895e-06
4.53255e-14
3.37893e-08
2.07476e-06
4.61442e-14
3.41888e-08
2.04015e-06
4.67965e-14
3.4606e-08
2.0051e-06
4.76291e-14
3.50405e-08
1.96961e-06
4.84618e-14
3.5492e-08
1.93365e-06
4.92667e-14
3.59598e-08
1.8972e-06
5.00993e-14
3.64434e-08
1.86025e-06
5.09598e-14
3.69422e-08
1.8228e-06
5.17924e-14
3.74555e-08
1.78481e-06
5.27361e-14
3.79827e-08
1.74628e-06
5.35965e-14
3.85228e-08
1.70721e-06
5.45124e-14
3.90752e-08
1.66756e-06
5.54561e-14
3.96388e-08
1.62735e-06
5.6483e-14
4.02126e-08
1.58655e-06
5.74545e-14
4.07955e-08
1.54516e-06
5.84537e-14
4.13865e-08
1.50317e-06
5.94806e-14
4.19841e-08
1.46058e-06
6.04521e-14
4.2587e-08
1.41738e-06
6.14512e-14
4.31939e-08
1.37358e-06
6.24782e-14
4.38029e-08
1.32916e-06
6.33941e-14
4.44126e-08
1.28413e-06
6.42545e-14
4.5021e-08
1.2385e-06
6.50039e-14
4.5626e-08
1.19228e-06
6.56423e-14
4.62257e-08
1.14545e-06
6.62807e-14
4.68176e-08
1.09805e-06
6.67803e-14
4.73993e-08
1.05008e-06
6.72521e-14
4.7968e-08
1.00155e-06
6.76684e-14
4.85208e-08
9.52494e-07
6.80847e-14
4.90545e-08
9.02924e-07
6.87786e-14
4.95656e-08
8.52869e-07
6.98056e-14
5.00503e-08
8.02361e-07
7.11101e-14
5.05043e-08
7.51433e-07
7.3164e-14
5.09233e-08
7.00126e-07
7.5884e-14
5.1302e-08
6.48486e-07
7.97143e-14
5.16351e-08
5.96565e-07
8.44883e-14
5.19162e-08
5.44421e-07
9.03447e-14
5.21387e-08
4.92122e-07
9.76166e-14
5.22949e-08
4.3974e-07
1.05666e-13
5.23764e-08
3.87361e-07
1.14048e-13
5.23735e-08
3.3508e-07
1.22125e-13
5.22758e-08
2.83003e-07
1.28675e-13
5.2071e-08
2.31252e-07
1.32256e-13
5.17454e-08
1.79962e-07
1.31395e-13
5.12835e-08
1.29288e-07
1.24428e-13
5.06672e-08
7.94068e-08
1.09718e-13
4.98747e-08
3.05192e-08
8.62646e-14
4.88809e-08
-1.71369e-08
5.32354e-14
4.76492e-08
-6.32753e-08
1.20462e-14
4.61316e-08
-1.07579e-07
-3.29734e-14
4.42968e-08
-1.49704e-07
-7.61888e-14
4.21191e-08
-1.89262e-07
-1.10162e-13
3.95519e-08
-2.25794e-07
-1.24039e-13
3.65266e-08
-2.58767e-07
-1.04777e-13
3.29678e-08
-2.87562e-07
-3.9718e-14
2.87909e-08
-3.11455e-07
7.8604e-14
2.38887e-08
-3.29599e-07
2.43084e-13
1.81391e-08
-3.41e-07
4.22884e-13
1.13958e-08
-3.44496e-07
5.58387e-13
3.48968e-09
-3.38771e-07
5.71154e-13
-5.73296e-09
-3.22377e-07
4.0723e-13
-1.64052e-08
-2.93769e-07
9.87546e-14
-2.86195e-08
-2.51518e-07
-1.97286e-13
-4.22633e-08
-1.94856e-07
-2.65399e-13
-5.66734e-08
-1.25023e-07
-6.5614e-14
-6.98429e-08
-4.83444e-08
2.47026e-14
-7.66901e-08
1.05621e-08
-3.98348e-13
-5.89248e-08
-1.77236e-12
1.05392e-08
-3.47946e-07
3.47927e-07
-6.42085e-07
2.94109e-07
-8.00499e-07
1.58403e-07
-8.27802e-07
2.72937e-08
-7.54403e-07
-7.34066e-08
-6.09569e-07
-1.44843e-07
-4.15711e-07
-1.93865e-07
-1.89154e-07
-2.26565e-07
5.82858e-08
-2.47448e-07
3.17649e-07
-2.59371e-07
5.82448e-07
-2.64806e-07
8.4837e-07
-2.65929e-07
1.11223e-06
-2.63862e-07
1.37167e-06
-2.59455e-07
1.62497e-06
-2.53302e-07
1.8708e-06
-2.45841e-07
2.1082e-06
-2.37399e-07
2.33642e-06
-2.28228e-07
2.55494e-06
-2.18525e-07
2.76338e-06
-2.08447e-07
2.96149e-06
-1.98119e-07
3.14913e-06
-1.87645e-07
3.32624e-06
-1.7711e-07
3.49281e-06
-1.66583e-07
3.64893e-06
-1.56125e-07
3.79471e-06
-1.45786e-07
3.93032e-06
-1.35609e-07
4.05594e-06
-1.25629e-07
4.17181e-06
-1.15877e-07
4.27818e-06
-1.06378e-07
4.37534e-06
-9.71553e-08
4.46356e-06
-8.82257e-08
4.54315e-06
-7.9604e-08
4.61445e-06
-7.13018e-08
4.67777e-06
-6.3328e-08
4.73346e-06
-5.56893e-08
4.78184e-06
-4.83898e-08
4.82327e-06
-4.1432e-08
4.85808e-06
-3.48163e-08
4.88662e-06
-2.85415e-08
4.90922e-06
-2.26051e-08
4.92622e-06
-1.70033e-08
4.93794e-06
-1.17311e-08
4.94472e-06
-6.78253e-09
4.94687e-06
-2.14968e-09
4.94469e-06
2.1761e-09
4.93848e-06
6.20316e-09
4.92854e-06
9.94094e-09
4.91513e-06
1.33998e-08
4.89854e-06
1.65903e-08
4.87901e-06
1.95228e-08
4.8568e-06
2.2208e-08
4.83214e-06
2.4657e-08
4.80525e-06
2.68808e-08
4.77636e-06
2.88905e-08
4.74566e-06
3.06973e-08
4.71334e-06
3.23123e-08
4.67959e-06
3.37466e-08
4.64458e-06
3.50108e-08
4.60846e-06
3.61158e-08
4.57138e-06
3.70718e-08
4.53349e-06
3.78891e-08
4.49491e-06
3.85774e-08
4.45576e-06
3.91462e-08
4.41615e-06
3.96047e-08
4.37619e-06
3.99617e-08
4.33596e-06
4.02257e-08
4.29555e-06
4.04048e-08
4.25504e-06
4.05065e-08
4.2145e-06
4.05381e-08
4.17399e-06
4.05067e-08
4.13357e-06
4.04187e-08
4.09329e-06
4.02803e-08
4.05319e-06
4.00971e-08
4.01331e-06
3.98747e-08
3.97369e-06
3.96182e-08
3.93435e-06
3.93321e-08
3.89533e-06
3.90209e-08
3.85664e-06
3.86886e-08
3.8183e-06
3.83391e-08
3.78032e-06
3.79758e-08
3.74271e-06
3.76019e-08
3.70549e-06
3.72203e-08
3.66865e-06
3.68337e-08
3.63221e-06
3.64446e-08
3.59615e-06
3.60552e-08
3.56048e-06
3.56676e-08
3.52519e-06
3.52837e-08
3.49028e-06
3.49051e-08
3.45575e-06
3.45333e-08
3.42158e-06
3.41698e-08
3.38776e-06
3.38158e-08
3.35428e-06
3.34724e-08
3.32114e-06
3.31406e-08
3.28832e-06
3.28214e-08
3.2558e-06
3.25155e-08
3.22357e-06
3.22237e-08
3.19162e-06
3.19466e-08
3.15994e-06
3.16848e-08
3.12849e-06
3.14389e-08
3.09728e-06
3.12093e-08
3.06628e-06
3.09964e-08
3.03548e-06
3.08007e-08
3.00486e-06
3.06224e-08
2.97439e-06
3.04619e-08
2.94407e-06
3.03195e-08
2.91387e-06
3.01954e-08
2.88378e-06
3.00899e-08
2.85377e-06
3.00031e-08
2.82384e-06
2.99352e-08
2.79395e-06
2.98864e-08
2.76409e-06
2.98569e-08
2.73424e-06
2.98467e-08
2.70438e-06
2.98561e-08
2.67449e-06
2.98851e-08
2.64455e-06
2.99338e-08
2.61455e-06
3.00023e-08
2.58446e-06
3.00907e-08
2.55425e-06
3.0199e-08
2.52392e-06
3.03272e-08
2.49345e-06
3.04753e-08
2.4628e-06
3.06434e-08
2.43197e-06
3.08315e-08
2.40092e-06
3.10394e-08
2.36965e-06
3.12672e-08
2.33814e-06
3.15148e-08
2.30635e-06
3.1782e-08
2.27428e-06
3.20688e-08
2.2419e-06
3.23749e-08
2.2092e-06
3.27002e-08
2.17615e-06
3.30445e-08
2.14274e-06
3.34074e-08
2.10895e-06
3.37888e-08
2.07476e-06
3.41883e-08
2.04015e-06
3.46056e-08
2.0051e-06
3.50401e-08
1.96961e-06
3.54915e-08
1.93365e-06
3.59593e-08
1.8972e-06
3.64429e-08
1.86025e-06
3.69417e-08
1.8228e-06
3.74551e-08
1.78481e-06
3.79822e-08
1.74628e-06
3.85224e-08
1.70721e-06
3.90747e-08
1.66756e-06
3.96383e-08
1.62735e-06
4.02121e-08
1.58655e-06
4.07951e-08
1.54516e-06
4.1386e-08
1.50317e-06
4.19836e-08
1.46058e-06
4.25865e-08
1.41738e-06
4.31933e-08
1.37358e-06
4.38024e-08
1.32916e-06
4.4412e-08
1.28413e-06
4.50204e-08
1.2385e-06
4.56255e-08
1.19228e-06
4.62251e-08
1.14545e-06
4.68171e-08
1.09805e-06
4.73987e-08
1.05008e-06
4.79674e-08
1.00155e-06
4.85202e-08
9.52494e-07
4.90539e-08
9.02924e-07
4.9565e-08
8.5287e-07
5.00496e-08
8.02361e-07
5.05037e-08
7.51433e-07
5.09226e-08
7.00126e-07
5.13014e-08
6.48486e-07
5.16344e-08
5.96565e-07
5.19155e-08
5.44422e-07
5.2138e-08
4.92122e-07
5.22942e-08
4.3974e-07
5.23756e-08
3.87361e-07
5.23728e-08
3.3508e-07
5.2275e-08
2.83003e-07
5.20701e-08
2.31252e-07
5.17446e-08
1.79962e-07
5.12827e-08
1.29288e-07
5.06663e-08
7.9407e-08
4.98738e-08
3.05193e-08
4.88799e-08
-1.71367e-08
4.76483e-08
-6.32751e-08
4.61307e-08
-1.07579e-07
4.42959e-08
-1.49704e-07
4.21182e-08
-1.89262e-07
3.9551e-08
-2.25794e-07
3.65258e-08
-2.58766e-07
3.29671e-08
-2.87562e-07
2.87901e-08
-3.11454e-07
2.3888e-08
-3.29598e-07
1.81384e-08
-3.40999e-07
1.13949e-08
-3.44496e-07
3.48866e-09
-3.38772e-07
-5.73425e-09
-3.22378e-07
-1.64068e-08
-2.93771e-07
-2.86213e-08
-2.51519e-07
-4.22651e-08
-1.94856e-07
-5.66746e-08
-1.25024e-07
-6.98434e-08
-4.83482e-08
-7.6691e-08
1.05571e-08
-5.89275e-08
1.05321e-08
-2.69698e-07
1.65303e-13
6.17599e-07
-3.43124e-07
1.80665e-14
3.6752e-07
-3.34099e-07
2.62833e-14
1.49372e-07
-2.70316e-07
2.08083e-15
-3.64946e-08
-1.61201e-07
-6.37056e-15
-1.82528e-07
-1.48502e-08
-1.29069e-14
-2.91198e-07
1.60672e-07
-1.8e-14
-3.69392e-07
3.5778e-07
-2.174e-14
-4.23678e-07
5.70151e-07
-2.4453e-14
-4.59823e-07
7.92656e-07
-2.57228e-14
-4.81881e-07
1.02114e-06
-2.5473e-14
-4.93293e-07
1.25214e-06
-2.4786e-14
-4.96939e-07
1.48297e-06
-2.37347e-14
-4.94687e-07
1.71147e-06
-2.24822e-14
-4.87963e-07
1.93598e-06
-2.1143e-14
-4.77815e-07
2.15517e-06
-1.97899e-14
-4.65037e-07
2.36801e-06
-1.84611e-14
-4.5024e-07
2.57368e-06
-1.72155e-14
-4.33905e-07
2.77156e-06
-1.60532e-14
-4.16412e-07
2.96118e-06
-1.49638e-14
-3.98068e-07
3.14218e-06
-1.39542e-14
-3.79124e-07
3.31432e-06
-1.30417e-14
-3.59785e-07
3.47743e-06
-1.22125e-14
-3.40225e-07
3.63143e-06
-1.14665e-14
-3.20587e-07
3.7763e-06
-1.07796e-14
-3.00995e-07
3.91206e-06
-1.01724e-14
-2.81552e-07
4.03879e-06
-9.63116e-15
-2.62348e-07
4.15662e-06
-9.1593e-15
-2.43457e-07
4.26568e-06
-8.73602e-15
-2.24945e-07
4.36617e-06
-8.37518e-15
-2.06868e-07
4.45828e-06
-8.06986e-15
-1.89271e-07
4.54225e-06
-7.81657e-15
-1.72195e-07
4.61831e-06
-7.60839e-15
-1.55671e-07
4.68673e-06
-7.43491e-15
-1.39725e-07
4.74778e-06
-7.31e-15
-1.2438e-07
4.80173e-06
-7.21978e-15
-1.09651e-07
4.84889e-06
-7.14691e-15
-9.55487e-08
4.88954e-06
-7.12261e-15
-8.20818e-08
4.92397e-06
-7.11566e-15
-6.92538e-08
4.95249e-06
-7.12605e-15
-5.70648e-08
4.9754e-06
-7.15379e-15
-4.55123e-08
4.99298e-06
-7.19888e-15
-3.4591e-08
5.00554e-06
-7.25785e-15
-2.42928e-08
5.01336e-06
-7.32376e-15
-1.46078e-08
5.01673e-06
-7.38967e-15
-5.52346e-09
5.01593e-06
-7.46598e-15
2.97405e-09
5.01123e-06
-7.57352e-15
1.09001e-08
5.0029e-06
-7.6429e-15
1.82719e-08
4.99119e-06
-7.71574e-15
2.51075e-08
4.97635e-06
-7.78512e-15
3.14255e-08
4.95862e-06
-7.84409e-15
3.72456e-08
4.93824e-06
-7.89959e-15
4.25876e-08
4.91542e-06
-7.94815e-15
4.7472e-08
4.89038e-06
-7.98283e-15
5.19195e-08
4.86332e-06
-8.01752e-15
5.59511e-08
4.83443e-06
-8.03138e-15
5.95877e-08
4.80389e-06
-8.04178e-15
6.28504e-08
4.77187e-06
-8.02789e-15
6.576e-08
4.73854e-06
-8.02441e-15
6.8337e-08
4.70405e-06
-7.98971e-15
7.06016e-08
4.66855e-06
-7.95847e-15
7.25738e-08
4.63216e-06
-7.90989e-15
7.42728e-08
4.59502e-06
-7.85437e-15
7.57175e-08
4.55724e-06
-7.78844e-15
7.69263e-08
4.51892e-06
-7.71557e-15
7.79166e-08
4.48018e-06
-7.63924e-15
7.87055e-08
4.44109e-06
-7.55596e-15
7.93093e-08
4.40175e-06
-7.45881e-15
7.97436e-08
4.36223e-06
-7.35125e-15
8.00234e-08
4.32261e-06
-7.24716e-15
8.01627e-08
4.28294e-06
-7.14654e-15
8.0175e-08
4.24328e-06
-7.04245e-15
8.00731e-08
4.20369e-06
-6.92101e-15
7.9869e-08
4.16421e-06
-6.78917e-15
7.95739e-08
4.12489e-06
-6.66774e-15
7.91986e-08
4.08575e-06
-6.54283e-15
7.87528e-08
4.04683e-06
-6.43181e-15
7.82461e-08
4.00817e-06
-6.32078e-15
7.76869e-08
3.96977e-06
-6.20282e-15
7.70833e-08
3.93166e-06
-6.07444e-15
7.64429e-08
3.89386e-06
-5.95995e-15
7.57725e-08
3.85639e-06
-5.83505e-15
7.50785e-08
3.81924e-06
-5.71362e-15
7.43668e-08
3.78243e-06
-5.61647e-15
7.36428e-08
3.74596e-06
-5.50545e-15
7.29114e-08
3.70983e-06
-5.41525e-15
7.21772e-08
3.67406e-06
-5.31116e-15
7.14444e-08
3.63862e-06
-5.21055e-15
7.07166e-08
3.60353e-06
-5.12035e-15
6.99973e-08
3.56877e-06
-5.03014e-15
6.92898e-08
3.53434e-06
-4.94341e-15
6.85967e-08
3.50023e-06
-4.85321e-15
6.79206e-08
3.46644e-06
-4.76647e-15
6.7264e-08
3.43295e-06
-4.69709e-15
6.66288e-08
3.39975e-06
-4.61036e-15
6.60169e-08
3.36684e-06
-4.55138e-15
6.54301e-08
3.33419e-06
-4.47159e-15
6.48699e-08
3.3018e-06
-4.40914e-15
6.43377e-08
3.26965e-06
-4.34323e-15
6.38347e-08
3.23772e-06
-4.29119e-15
6.3362e-08
3.20601e-06
-4.22528e-15
6.29206e-08
3.17449e-06
-4.1663e-15
6.25115e-08
3.14315e-06
-4.11426e-15
6.21354e-08
3.11198e-06
-4.0657e-15
6.17931e-08
3.08096e-06
-4.00672e-15
6.14852e-08
3.05006e-06
-3.96163e-15
6.12124e-08
3.01928e-06
-3.93041e-15
6.09751e-08
2.9886e-06
-3.88878e-15
6.07739e-08
2.95799e-06
-3.84022e-15
6.06091e-08
2.92744e-06
-3.809e-15
6.04813e-08
2.89693e-06
-3.76737e-15
6.03907e-08
2.86645e-06
-3.73269e-15
6.03376e-08
2.83597e-06
-3.68412e-15
6.03224e-08
2.80548e-06
-3.67719e-15
6.03453e-08
2.77496e-06
-3.62862e-15
6.04064e-08
2.74439e-06
-3.60088e-15
6.0506e-08
2.71374e-06
-3.58701e-15
6.06442e-08
2.68301e-06
-3.54885e-15
6.08212e-08
2.65217e-06
-3.5211e-15
6.10369e-08
2.6212e-06
-3.49682e-15
6.12915e-08
2.59009e-06
-3.47948e-15
6.1585e-08
2.55882e-06
-3.45867e-15
6.19174e-08
2.52736e-06
-3.4344e-15
6.22885e-08
2.4957e-06
-3.41706e-15
6.26983e-08
2.46382e-06
-3.39278e-15
6.31467e-08
2.4317e-06
-3.38238e-15
6.36334e-08
2.39932e-06
-3.37891e-15
6.41581e-08
2.36666e-06
-3.37892e-15
6.47206e-08
2.33372e-06
-3.37546e-15
6.53206e-08
2.30046e-06
-3.36506e-15
6.59575e-08
2.26687e-06
-3.3616e-15
6.6631e-08
2.23293e-06
-3.35466e-15
6.73404e-08
2.19863e-06
-3.35467e-15
6.80852e-08
2.16396e-06
-3.36509e-15
6.88646e-08
2.12888e-06
-3.3755e-15
6.96778e-08
2.0934e-06
-3.39979e-15
7.0524e-08
2.05748e-06
-3.39633e-15
7.14022e-08
2.02113e-06
-3.39981e-15
7.23113e-08
1.98432e-06
-3.41716e-15
7.32503e-08
1.94704e-06
-3.45186e-15
7.42177e-08
1.90928e-06
-3.46575e-15
7.52123e-08
1.87103e-06
-3.49004e-15
7.62324e-08
1.83227e-06
-3.52127e-15
7.72766e-08
1.793e-06
-3.56638e-15
7.83429e-08
1.75321e-06
-3.59067e-15
7.94295e-08
1.71288e-06
-3.63578e-15
8.05344e-08
1.67202e-06
-3.68089e-15
8.16552e-08
1.63061e-06
-3.72253e-15
8.27896e-08
1.58866e-06
-3.78845e-15
8.3935e-08
1.54615e-06
-3.85437e-15
8.50886e-08
1.5031e-06
-3.93418e-15
8.62475e-08
1.45949e-06
-4.01745e-15
8.74083e-08
1.41533e-06
-4.10419e-15
8.85677e-08
1.37063e-06
-4.19093e-15
8.97219e-08
1.32538e-06
-4.32277e-15
9.0867e-08
1.2796e-06
-4.45809e-15
9.19986e-08
1.23331e-06
-4.60728e-15
9.31121e-08
1.1865e-06
-4.74259e-15
9.42024e-08
1.1392e-06
-4.89178e-15
9.52643e-08
1.09142e-06
-5.03403e-15
9.62918e-08
1.0432e-06
-5.14506e-15
9.72786e-08
9.94541e-07
-5.25955e-15
9.82178e-08
9.45485e-07
-5.30119e-15
9.9102e-08
8.96062e-07
-5.3116e-15
9.9923e-08
8.46309e-07
-5.23528e-15
1.00672e-07
7.96268e-07
-5.0965e-15
1.01339e-07
7.45986e-07
-4.86405e-15
1.01913e-07
6.95514e-07
-4.56568e-15
1.02384e-07
6.44912e-07
-4.23956e-15
1.02736e-07
5.94245e-07
-3.85792e-15
1.02957e-07
5.43587e-07
-3.52485e-15
1.0303e-07
4.93019e-07
-3.34444e-15
1.02937e-07
4.42633e-07
-3.37914e-15
1.02658e-07
3.92528e-07
-3.82323e-15
1.0217e-07
3.4282e-07
-4.79468e-15
1.01449e-07
2.93633e-07
-6.4392e-15
1.00464e-07
2.45111e-07
-8.8123e-15
9.9184e-08
1.97411e-07
-1.19973e-14
9.75692e-08
1.5071e-07
-1.589e-14
9.55752e-08
1.05208e-07
-2.02615e-14
9.31458e-08
6.11207e-08
-2.45844e-14
9.02129e-08
1.86928e-08
-2.84147e-14
8.67193e-08
-2.17931e-08
-3.0989e-14
8.26e-08
-6.00145e-08
-3.11972e-14
7.77685e-08
-9.56217e-08
-2.74571e-14
7.21295e-08
-1.28229e-07
-1.79578e-14
6.55715e-08
-1.57406e-07
-1.01299e-15
5.79631e-08
-1.82671e-07
2.37797e-14
4.91498e-08
-2.03499e-07
5.34573e-14
3.89621e-08
-2.19321e-07
7.95476e-14
2.72119e-08
-2.29545e-07
8.73816e-14
1.37054e-08
-2.33562e-07
6.02852e-14
-1.72532e-09
-2.30805e-07
-7.24411e-15
-1.91726e-08
-2.20847e-07
-9.05733e-14
-3.85874e-08
-2.03533e-07
-1.26274e-13
-5.95871e-08
-1.79156e-07
-4.62962e-14
-8.10595e-08
-1.48585e-07
1.17809e-13
-1.00425e-07
-1.13011e-07
1.37959e-13
-1.12277e-07
-6.82399e-08
-5.61219e-14
-1.03718e-07
-1.46394e-12
-5.77231e-08
-2.69701e-07
6.17597e-07
-3.43124e-07
3.67518e-07
-3.34099e-07
1.49371e-07
-2.70316e-07
-3.64954e-08
-1.612e-07
-1.82529e-07
-1.48492e-08
-2.91199e-07
1.60673e-07
-3.69393e-07
3.57781e-07
-4.23679e-07
5.70152e-07
-4.59823e-07
7.92657e-07
-4.81881e-07
1.02114e-06
-4.93293e-07
1.25214e-06
-4.96939e-07
1.48297e-06
-4.94687e-07
1.71147e-06
-4.87963e-07
1.93598e-06
-4.77815e-07
2.15517e-06
-4.65037e-07
2.36801e-06
-4.5024e-07
2.57368e-06
-4.33905e-07
2.77156e-06
-4.16412e-07
2.96118e-06
-3.98068e-07
3.14218e-06
-3.79124e-07
3.31432e-06
-3.59785e-07
3.47743e-06
-3.40225e-07
3.63143e-06
-3.20587e-07
3.7763e-06
-3.00995e-07
3.91206e-06
-2.81552e-07
4.03879e-06
-2.62348e-07
4.15662e-06
-2.43457e-07
4.26568e-06
-2.24945e-07
4.36617e-06
-2.06868e-07
4.45828e-06
-1.89271e-07
4.54225e-06
-1.72195e-07
4.61831e-06
-1.5567e-07
4.68673e-06
-1.39725e-07
4.74778e-06
-1.2438e-07
4.80173e-06
-1.09651e-07
4.84889e-06
-9.55487e-08
4.88954e-06
-8.20818e-08
4.92397e-06
-6.92537e-08
4.95249e-06
-5.70648e-08
4.97539e-06
-4.55123e-08
4.99298e-06
-3.4591e-08
5.00554e-06
-2.42928e-08
5.01336e-06
-1.46078e-08
5.01673e-06
-5.52347e-09
5.01593e-06
2.97403e-09
5.01123e-06
1.09001e-08
5.0029e-06
1.82719e-08
4.99119e-06
2.51074e-08
4.97635e-06
3.14255e-08
4.95862e-06
3.72455e-08
4.93824e-06
4.25875e-08
4.91542e-06
4.74719e-08
4.89038e-06
5.19194e-08
4.86332e-06
5.5951e-08
4.83442e-06
5.95876e-08
4.80388e-06
6.28503e-08
4.77187e-06
6.57599e-08
4.73854e-06
6.83369e-08
4.70405e-06
7.06015e-08
4.66855e-06
7.25737e-08
4.63216e-06
7.42727e-08
4.59502e-06
7.57174e-08
4.55724e-06
7.69262e-08
4.51892e-06
7.79165e-08
4.48018e-06
7.87054e-08
4.44109e-06
7.93092e-08
4.40175e-06
7.97435e-08
4.36223e-06
8.00233e-08
4.32261e-06
8.01626e-08
4.28294e-06
8.01749e-08
4.24328e-06
8.0073e-08
4.20369e-06
7.98689e-08
4.16421e-06
7.95738e-08
4.12488e-06
7.91985e-08
4.08575e-06
7.87527e-08
4.04683e-06
7.8246e-08
4.00816e-06
7.76868e-08
3.96977e-06
7.70832e-08
3.93166e-06
7.64428e-08
3.89386e-06
7.57724e-08
3.85639e-06
7.50784e-08
3.81924e-06
7.43667e-08
3.78243e-06
7.36427e-08
3.74596e-06
7.29114e-08
3.70983e-06
7.21772e-08
3.67406e-06
7.14443e-08
3.63862e-06
7.07165e-08
3.60353e-06
6.99973e-08
3.56877e-06
6.92897e-08
3.53434e-06
6.85966e-08
3.50023e-06
6.79205e-08
3.46644e-06
6.72639e-08
3.43295e-06
6.66287e-08
3.39975e-06
6.60168e-08
3.36684e-06
6.543e-08
3.33419e-06
6.48698e-08
3.3018e-06
6.43376e-08
3.26965e-06
6.38346e-08
3.23772e-06
6.33619e-08
3.20601e-06
6.29205e-08
3.17449e-06
6.25114e-08
3.14315e-06
6.21353e-08
3.11198e-06
6.1793e-08
3.08096e-06
6.14851e-08
3.05006e-06
6.12123e-08
3.01928e-06
6.0975e-08
2.9886e-06
6.07738e-08
2.95799e-06
6.06091e-08
2.92744e-06
6.04812e-08
2.89693e-06
6.03906e-08
2.86645e-06
6.03376e-08
2.83597e-06
6.03224e-08
2.80548e-06
6.03452e-08
2.77496e-06
6.04063e-08
2.74439e-06
6.05059e-08
2.71374e-06
6.06441e-08
2.68301e-06
6.08211e-08
2.65217e-06
6.10369e-08
2.6212e-06
6.12915e-08
2.59009e-06
6.1585e-08
2.55882e-06
6.19173e-08
2.52736e-06
6.22885e-08
2.4957e-06
6.26983e-08
2.46382e-06
6.31466e-08
2.4317e-06
6.36333e-08
2.39932e-06
6.4158e-08
2.36666e-06
6.47206e-08
2.33372e-06
6.53205e-08
2.30046e-06
6.59575e-08
2.26687e-06
6.66309e-08
2.23293e-06
6.73404e-08
2.19863e-06
6.80851e-08
2.16396e-06
6.88645e-08
2.12888e-06
6.96777e-08
2.0934e-06
7.05239e-08
2.05748e-06
7.14021e-08
2.02113e-06
7.23113e-08
1.98432e-06
7.32502e-08
1.94704e-06
7.42176e-08
1.90928e-06
7.52122e-08
1.87103e-06
7.62324e-08
1.83227e-06
7.72765e-08
1.793e-06
7.83428e-08
1.75321e-06
7.94295e-08
1.71288e-06
8.05343e-08
1.67202e-06
8.16551e-08
1.63061e-06
8.27895e-08
1.58866e-06
8.39349e-08
1.54615e-06
8.50885e-08
1.5031e-06
8.62474e-08
1.45949e-06
8.74082e-08
1.41533e-06
8.85676e-08
1.37063e-06
8.97218e-08
1.32538e-06
9.08669e-08
1.2796e-06
9.19985e-08
1.23331e-06
9.3112e-08
1.1865e-06
9.42024e-08
1.1392e-06
9.52642e-08
1.09142e-06
9.62917e-08
1.0432e-06
9.72785e-08
9.94541e-07
9.82177e-08
9.45485e-07
9.91019e-08
8.96062e-07
9.99229e-08
8.4631e-07
1.00672e-07
7.96268e-07
1.01339e-07
7.45986e-07
1.01913e-07
6.95514e-07
1.02383e-07
6.44912e-07
1.02736e-07
5.94246e-07
1.02957e-07
5.43587e-07
1.0303e-07
4.9302e-07
1.02937e-07
4.42633e-07
1.02657e-07
3.92528e-07
1.0217e-07
3.4282e-07
1.01448e-07
2.93634e-07
1.00464e-07
2.45111e-07
9.91839e-08
1.97411e-07
9.75692e-08
1.5071e-07
9.55751e-08
1.05208e-07
9.31458e-08
6.11208e-08
9.02128e-08
1.86929e-08
8.67192e-08
-2.1793e-08
8.25999e-08
-6.00143e-08
7.77684e-08
-9.56216e-08
7.21294e-08
-1.28229e-07
6.55714e-08
-1.57405e-07
5.7963e-08
-1.82671e-07
4.91496e-08
-2.03499e-07
3.8962e-08
-2.19321e-07
2.72118e-08
-2.29545e-07
1.37053e-08
-2.33562e-07
-1.72549e-09
-2.30805e-07
-1.91728e-08
-2.20847e-07
-3.85875e-08
-2.03533e-07
-5.95873e-08
-1.79156e-07
-8.10597e-08
-1.48586e-07
-1.00426e-07
-1.13014e-07
-1.12278e-07
-6.82455e-08
-1.03718e-07
-5.77228e-08
-1.15655e-07
2.62947e-13
7.33244e-07
-9.2409e-08
1.98847e-14
3.44265e-07
-1.35337e-08
3.27159e-14
7.04943e-08
9.33554e-08
2.08022e-14
-1.43385e-07
2.21785e-07
1.89081e-14
-3.10959e-07
3.69502e-07
1.73955e-14
-4.38917e-07
5.34043e-07
1.60043e-14
-5.33935e-07
7.12548e-07
1.46582e-14
-6.02184e-07
9.01853e-07
1.32635e-14
-6.49129e-07
1.0991e-06
1.18653e-14
-6.79132e-07
1.30164e-06
1.06268e-14
-6.95834e-07
1.50694e-06
9.50615e-15
-7.02234e-07
1.71283e-06
8.57289e-15
-7.00585e-07
1.91752e-06
7.79922e-15
-6.92647e-07
2.11948e-06
7.16606e-15
-6.79775e-07
2.31747e-06
6.64392e-15
-6.63034e-07
2.51049e-06
6.20331e-15
-6.43263e-07
2.69772e-06
5.83556e-15
-6.21134e-07
2.8785e-06
5.52506e-15
-5.9719e-07
3.05231e-06
5.25271e-15
-5.71877e-07
3.21874e-06
5.00986e-15
-5.4556e-07
3.3775e-06
4.79477e-15
-5.18547e-07
3.52837e-06
4.60049e-15
-4.91094e-07
3.6712e-06
4.41488e-15
-4.6342e-07
3.80592e-06
4.2605e-15
-4.35711e-07
3.93249e-06
4.11132e-15
-4.08125e-07
4.05094e-06
3.96735e-15
-3.80799e-07
4.16133e-06
3.83031e-15
-3.53851e-07
4.26377e-06
3.70369e-15
-3.2738e-07
4.35837e-06
3.584e-15
-3.01474e-07
4.44531e-06
3.45911e-15
-2.76206e-07
4.52475e-06
3.33421e-15
-2.51639e-07
4.5969e-06
3.22147e-15
-2.27823e-07
4.66198e-06
3.11219e-15
-2.04803e-07
4.72021e-06
3.00117e-15
-1.82613e-07
4.77184e-06
2.89189e-15
-1.61281e-07
4.81712e-06
2.79128e-15
-1.40827e-07
4.8563e-06
2.68027e-15
-1.21265e-07
4.88965e-06
2.57793e-15
-1.02605e-07
4.91743e-06
2.47385e-15
-8.48488e-08
4.93992e-06
2.37498e-15
-6.79965e-08
4.95737e-06
2.28999e-15
-5.20424e-08
4.97005e-06
2.20326e-15
-3.69776e-08
4.97823e-06
2.11653e-15
-2.27892e-08
4.98217e-06
2.02633e-15
-9.46173e-09
4.98212e-06
1.95174e-15
3.02313e-09
4.97833e-06
1.86675e-15
1.46859e-08
4.97106e-06
1.79737e-15
2.55495e-08
4.96052e-06
1.74013e-15
3.56385e-08
4.94697e-06
1.68636e-15
4.49789e-08
4.93062e-06
1.63259e-15
5.35977e-08
4.91168e-06
1.59617e-15
6.15229e-08
4.89037e-06
1.56148e-15
6.87832e-08
4.86688e-06
1.53199e-15
7.54079e-08
4.8414e-06
1.50945e-15
8.14267e-08
4.81412e-06
1.48864e-15
8.68693e-08
4.7852e-06
1.4765e-15
9.17657e-08
4.75482e-06
1.46956e-15
9.61455e-08
4.72312e-06
1.4713e-15
1.00038e-07
4.69024e-06
1.47131e-15
1.03473e-07
4.65634e-06
1.47652e-15
1.06478e-07
4.62153e-06
1.49387e-15
1.09081e-07
4.58594e-06
1.51469e-15
1.11309e-07
4.54968e-06
1.53204e-15
1.13189e-07
4.51285e-06
1.55286e-15
1.14746e-07
4.47555e-06
1.5893e-15
1.16005e-07
4.43787e-06
1.61012e-15
1.1699e-07
4.39989e-06
1.64481e-15
1.17722e-07
4.36168e-06
1.67951e-15
1.18225e-07
4.32333e-06
1.71594e-15
1.18517e-07
4.28488e-06
1.74197e-15
1.1862e-07
4.24641e-06
1.77666e-15
1.18552e-07
4.20794e-06
1.80789e-15
1.18329e-07
4.16955e-06
1.85126e-15
1.1797e-07
4.13126e-06
1.88769e-15
1.17489e-07
4.09311e-06
1.92585e-15
1.16901e-07
4.05513e-06
1.95881e-15
1.1622e-07
4.01736e-06
1.99351e-15
1.15458e-07
3.97982e-06
2.0178e-15
1.14628e-07
3.94252e-06
2.05769e-15
1.1374e-07
3.90549e-06
2.09412e-15
1.12804e-07
3.86873e-06
2.12361e-15
1.11831e-07
3.83227e-06
2.15657e-15
1.10829e-07
3.79611e-06
2.18086e-15
1.09806e-07
3.76025e-06
2.21208e-15
1.0877e-07
3.7247e-06
2.2381e-15
1.07726e-07
3.68946e-06
2.26586e-15
1.06683e-07
3.65453e-06
2.29361e-15
1.05644e-07
3.61991e-06
2.31616e-15
1.04615e-07
3.5856e-06
2.33351e-15
1.03602e-07
3.55159e-06
2.36299e-15
1.02608e-07
3.51787e-06
2.38207e-15
1.01637e-07
3.48444e-06
2.40462e-15
1.00693e-07
3.45129e-06
2.42891e-15
9.9779e-08
3.41841e-06
2.45492e-15
9.88978e-08
3.38579e-06
2.46706e-15
9.80522e-08
3.35342e-06
2.49308e-15
9.72444e-08
3.32128e-06
2.51216e-15
9.64766e-08
3.28936e-06
2.53471e-15
9.57507e-08
3.25765e-06
2.55552e-15
9.50684e-08
3.22614e-06
2.57633e-15
9.44313e-08
3.19481e-06
2.60235e-15
9.38409e-08
3.16365e-06
2.62837e-15
9.32983e-08
3.13264e-06
2.65959e-15
9.28048e-08
3.10176e-06
2.69255e-15
9.23613e-08
3.071e-06
2.71683e-15
9.19688e-08
3.04035e-06
2.74284e-15
9.16281e-08
3.00978e-06
2.77233e-15
9.134e-08
2.97929e-06
2.80876e-15
9.11051e-08
2.94884e-06
2.84345e-15
9.09241e-08
2.91844e-06
2.87467e-15
9.07974e-08
2.88805e-06
2.90762e-15
9.07257e-08
2.85766e-06
2.94752e-15
9.07092e-08
2.82726e-06
2.98047e-15
9.07484e-08
2.79682e-06
3.02904e-15
9.08436e-08
2.76633e-06
3.07414e-15
9.0995e-08
2.73577e-06
3.11403e-15
9.12029e-08
2.70512e-06
3.15913e-15
9.14674e-08
2.67437e-06
3.2077e-15
9.17886e-08
2.6435e-06
3.258e-15
9.21666e-08
2.61248e-06
3.31004e-15
9.26013e-08
2.5813e-06
3.36381e-15
9.30927e-08
2.54995e-06
3.41759e-15
9.36407e-08
2.5184e-06
3.47309e-15
9.42451e-08
2.48665e-06
3.53033e-15
9.49055e-08
2.45466e-06
3.58758e-15
9.56217e-08
2.42242e-06
3.64829e-15
9.63932e-08
2.38992e-06
3.70206e-15
9.72196e-08
2.35714e-06
3.76624e-15
9.81002e-08
2.32406e-06
3.83563e-15
9.90344e-08
2.29067e-06
3.90328e-15
1.00021e-07
2.25695e-06
3.96919e-15
1.0106e-07
2.22289e-06
4.03511e-15
1.0215e-07
2.18846e-06
4.1097e-15
1.0329e-07
2.15366e-06
4.18082e-15
1.04478e-07
2.11847e-06
4.24673e-15
1.05713e-07
2.08288e-06
4.31959e-15
1.06995e-07
2.04687e-06
4.39765e-15
1.0832e-07
2.01043e-06
4.47224e-15
1.09687e-07
1.97355e-06
4.54509e-15
1.11095e-07