/*--------------------------------*- C++ -*----------------------------------*\
  =========                 |
  \\      /  F ield         | OpenFOAM: The Open Source CFD Toolbox
   \\    /   O peration     | Website:  https://openfoam.org
    \\  /    A nd           | Version:  8
     \\/     M anipulation  |
\*---------------------------------------------------------------------------*/
FoamFile
{
    version     2.0;
    format      ascii;
    class       volVectorField;
    location    "4800";
    object      U;
}
// * * * * * * * * * * * * * * * * * * * * * * * * * * * * * * * * * * * * * //

dimensions      [0 1 -1 0 0 0 0];

internalField   nonuniform List<vector> 
48000
(
(-0.0156988 2.36085e-07 0.0172711)
(-0.0363554 3.00242e-08 0.0186564)
(-0.0516123 2.85471e-08 0.0105381)
(-0.0576951 1.3927e-08 0.00211448)
(-0.0554847 4.93032e-09 -0.00424159)
(-0.0476246 -1.74011e-09 -0.00866606)
(-0.0357245 -6.13375e-09 -0.0116765)
(-0.0211168 -9.02351e-09 -0.0137007)
(-0.0047633 -1.13802e-08 -0.014992)
(0.01284 -1.28727e-08 -0.0156326)
(0.0308144 -1.26442e-08 -0.0157952)
(0.0490827 -1.16048e-08 -0.0157112)
(0.06729 -1.02266e-08 -0.0154553)
(0.0852674 -8.67316e-09 -0.0150788)
(0.102875 -7.03219e-09 -0.0146166)
(0.120011 -5.41407e-09 -0.0140938)
(0.136596 -3.84925e-09 -0.0135286)
(0.152574 -2.38723e-09 -0.0129345)
(0.167903 -1.02801e-09 -0.0123217)
(0.18255 2.07475e-10 -0.0116982)
(0.196496 1.32303e-09 -0.0110701)
(0.209727 2.32055e-09 -0.0104422)
(0.222236 3.22099e-09 -0.00981855)
(0.234022 4.01672e-09 -0.00920215)
(0.245087 4.72869e-09 -0.00859562)
(0.255438 5.33977e-09 -0.00800104)
(0.265085 5.86709e-09 -0.00742014)
(0.27404 6.32016e-09 -0.00685435)
(0.282318 6.70851e-09 -0.00630482)
(0.289935 7.0169e-09 -0.00577251)
(0.29691 7.26248e-09 -0.00525817)
(0.303262 7.44523e-09 -0.00476241)
(0.309012 7.5861e-09 -0.00428567)
(0.314181 7.67367e-09 -0.00382828)
(0.318792 7.70794e-09 -0.00339045)
(0.322868 7.71365e-09 -0.00297229)
(0.326431 7.66606e-09 -0.00257381)
(0.329505 7.59182e-09 -0.00219494)
(0.332114 7.48522e-09 -0.00183554)
(0.334281 7.34244e-09 -0.00149538)
(0.336029 7.19015e-09 -0.0011742)
(0.337381 7.0074e-09 -0.000871682)
(0.338361 6.81704e-09 -0.00058746)
(0.33899 6.60002e-09 -0.000321134)
(0.33929 6.36778e-09 -7.1981e-05)
(0.339284 6.13553e-09 0.000160597)
(0.338991 5.89758e-09 0.000376727)
(0.338432 5.65962e-09 0.000576856)
(0.337627 5.42357e-09 0.000761774)
(0.336594 5.1761e-09 0.000932147)
(0.335351 4.93243e-09 0.00108858)
(0.333915 4.69257e-09 0.00123168)
(0.332304 4.46033e-09 0.00136204)
(0.330532 4.2357e-09 0.00148028)
(0.328616 4.01869e-09 0.00158701)
(0.326569 3.81309e-09 0.00168284)
(0.324404 3.61131e-09 0.00176837)
(0.322136 3.42095e-09 0.0018442)
(0.319775 3.24391e-09 0.00191091)
(0.317333 3.07449e-09 0.0019691)
(0.31482 2.91839e-09 0.00201931)
(0.312247 2.77752e-09 0.00206209)
(0.309622 2.64046e-09 0.00209797)
(0.306954 2.52053e-09 0.00212746)
(0.304252 2.41393e-09 0.00215107)
(0.301521 2.31875e-09 0.00216925)
(0.298769 2.23689e-09 0.00218246)
(0.296003 2.16456e-09 0.00219114)
(0.293226 2.11126e-09 0.00219569)
(0.290446 2.05796e-09 0.00219652)
(0.287665 2.01417e-09 0.00219398)
(0.284889 1.97991e-09 0.00218843)
(0.28212 1.95707e-09 0.0021802)
(0.279363 1.94755e-09 0.0021696)
(0.27662 1.94184e-09 0.00215692)
(0.273893 1.94755e-09 0.00214243)
(0.271184 1.96278e-09 0.00212638)
(0.268497 1.9742e-09 0.00210901)
(0.265831 1.99134e-09 0.00209054)
(0.263189 2.0218e-09 0.00207117)
(0.260572 2.06558e-09 0.00205107)
(0.25798 2.10365e-09 0.00203044)
(0.255413 2.14553e-09 0.00200942)
(0.252874 2.19693e-09 0.00198815)
(0.25036 2.25214e-09 0.00196678)
(0.247874 2.30163e-09 0.00194542)
(0.245414 2.35874e-09 0.00192417)
(0.242981 2.42537e-09 0.00190315)
(0.240574 2.48819e-09 0.00188244)
(0.238192 2.5472e-09 0.00186212)
(0.235836 2.61382e-09 0.00184226)
(0.233505 2.68235e-09 0.00182294)
(0.231197 2.75659e-09 0.00180422)
(0.228913 2.83083e-09 0.00178614)
(0.226651 2.90317e-09 0.00176876)
(0.22441 2.96599e-09 0.00175212)
(0.22219 3.04213e-09 0.00173626)
(0.21999 3.12208e-09 0.00172121)
(0.217808 3.20775e-09 0.00170701)
(0.215643 3.27437e-09 0.00169369)
(0.213495 3.35052e-09 0.00168127)
(0.211362 3.43427e-09 0.00166977)
(0.209242 3.50851e-09 0.00165923)
(0.207136 3.58466e-09 0.00164964)
(0.205042 3.66841e-09 0.00164104)
(0.202957 3.74836e-09 0.00163344)
(0.200882 3.83022e-09 0.00162685)
(0.198815 3.91017e-09 0.00162129)
(0.196754 3.99012e-09 0.00161677)
(0.194699 4.07197e-09 0.00161329)
(0.192648 4.15382e-09 0.00161088)
(0.190599 4.23568e-09 0.00160954)
(0.188552 4.32705e-09 0.00160928)
(0.186505 4.40129e-09 0.0016101)
(0.184456 4.49076e-09 0.00161202)
(0.182405 4.57642e-09 0.00161504)
(0.18035 4.66588e-09 0.00161918)
(0.178289 4.75535e-09 0.00162442)
(0.176222 4.84101e-09 0.00163079)
(0.174146 4.93619e-09 0.00163828)
(0.172061 5.02376e-09 0.00164689)
(0.169965 5.11513e-09 0.00165664)
(0.167857 5.21221e-09 0.00166752)
(0.165736 5.30548e-09 0.00167953)
(0.163599 5.39686e-09 0.00169267)
(0.161446 5.50155e-09 0.00170695)
(0.159276 5.59863e-09 0.00172235)
(0.157086 5.69191e-09 0.00173888)
(0.154877 5.79089e-09 0.00175653)
(0.152645 5.89369e-09 0.0017753)
(0.150391 6.006e-09 0.00179517)
(0.148112 6.10118e-09 0.00181614)
(0.145808 6.20968e-09 0.00183819)
(0.143477 6.3239e-09 0.00186132)
(0.141118 6.42669e-09 0.0018855)
(0.138729 6.5409e-09 0.00191072)
(0.136311 6.65893e-09 0.00193696)
(0.13386 6.78076e-09 0.0019642)
(0.131378 6.89878e-09 0.00199241)
(0.128861 7.02822e-09 0.00202156)
(0.12631 7.14624e-09 0.00205163)
(0.123723 7.2795e-09 0.00208258)
(0.121099 7.40513e-09 0.00211436)
(0.118438 7.53458e-09 0.00214695)
(0.115739 7.66783e-09 0.00218029)
(0.113 7.81631e-09 0.00221434)
(0.110222 7.95337e-09 0.00224904)
(0.107404 8.09804e-09 0.00228433)
(0.104545 8.25033e-09 0.00232016)
(0.101645 8.395e-09 0.00235644)
(0.0987027 8.55109e-09 0.00239312)
(0.0957192 8.69958e-09 0.0024301)
(0.0926938 8.85567e-09 0.00246729)
(0.0896266 9.00034e-09 0.00250461)
(0.0865177 9.1336e-09 0.00254195)
(0.0833675 9.26304e-09 0.00257919)
(0.0801764 9.38487e-09 0.00261621)
(0.076945 9.49528e-09 0.00265287)
(0.0736741 9.60569e-09 0.00268904)
(0.0703647 9.70848e-09 0.00272455)
(0.0670179 9.81127e-09 0.00275922)
(0.0636353 9.9293e-09 0.00279286)
(0.0602184 1.00854e-08 0.00282527)
(0.0567693 1.02567e-08 0.00285619)
(0.0532901 1.04852e-08 0.00288538)
(0.0497835 1.07745e-08 0.00291255)
(0.0462524 1.11628e-08 0.00293738)
(0.0427001 1.16311e-08 0.00295951)
(0.0391305 1.21794e-08 0.00297854)
(0.0355477 1.28647e-08 0.00299403)
(0.0319565 1.36147e-08 0.00300546)
(0.0283626 1.44028e-08 0.00301228)
(0.0247719 1.51871e-08 0.00301382)
(0.0211913 1.58533e-08 0.00300937)
(0.0176287 1.63178e-08 0.00299807)
(0.0140928 1.64549e-08 0.00297898)
(0.0105936 1.61503e-08 0.00295097)
(0.00714203 1.52975e-08 0.0029127)
(0.00375249 1.38241e-08 0.00286249)
(0.000437632 1.16349e-08 0.00279605)
(-0.00278659 8.829e-09 0.00270735)
(-0.00589088 5.81748e-09 0.00259667)
(-0.00886137 3.03059e-09 0.00246595)
(-0.0116694 9.51839e-10 0.00231273)
(-0.0142868 2.74152e-10 0.00213242)
(-0.0166797 1.8275e-09 0.00192022)
(-0.0188088 6.32765e-09 0.00167084)
(-0.0206283 1.42086e-08 0.00137741)
(-0.0220846 2.48536e-08 0.0010319)
(-0.0231147 3.61382e-08 0.00062435)
(-0.0236458 4.41943e-08 0.000142801)
(-0.0235908 4.39354e-08 -0.00042412)
(-0.0228549 3.2232e-08 -0.00108759)
(-0.0213357 1.18024e-08 -0.00185827)
(-0.0189266 -6.89867e-09 -0.00273626)
(-0.0155425 -1.05841e-08 -0.00368801)
(-0.011174 1.59907e-09 -0.00459058)
(-0.00612834 1.97979e-09 -0.00506333)
(-0.000542869 -3.12037e-08 -0.0034126)
(0.00122672 -1.26214e-07 0.00165062)
(-0.0156996 2.36082e-07 0.0172704)
(-0.0363557 3.00241e-08 0.0186561)
(-0.0516123 2.8547e-08 0.0105379)
(-0.057695 1.3927e-08 0.00211433)
(-0.0554846 4.93031e-09 -0.00424173)
(-0.0476245 -1.7401e-09 -0.0086662)
(-0.0357244 -6.13374e-09 -0.0116767)
(-0.0211167 -9.02349e-09 -0.0137009)
(-0.00476316 -1.13802e-08 -0.0149921)
(0.0128401 -1.28727e-08 -0.0156327)
(0.0308145 -1.26442e-08 -0.0157954)
(0.0490828 -1.16048e-08 -0.0157113)
(0.0672901 -1.02265e-08 -0.0154554)
(0.0852675 -8.67315e-09 -0.0150789)
(0.102875 -7.03218e-09 -0.0146167)
(0.120011 -5.41406e-09 -0.0140939)
(0.136596 -3.84924e-09 -0.0135287)
(0.152574 -2.38723e-09 -0.0129346)
(0.167903 -1.02801e-09 -0.0123218)
(0.18255 2.07475e-10 -0.0116983)
(0.196496 1.32303e-09 -0.0110702)
(0.209727 2.32055e-09 -0.0104423)
(0.222236 3.22098e-09 -0.00981863)
(0.234022 4.01672e-09 -0.00920223)
(0.245087 4.72869e-09 -0.00859569)
(0.255438 5.33977e-09 -0.00800111)
(0.265085 5.86708e-09 -0.00742021)
(0.27404 6.32016e-09 -0.00685442)
(0.282318 6.70851e-09 -0.00630489)
(0.289935 7.0169e-09 -0.00577258)
(0.29691 7.26247e-09 -0.00525824)
(0.303262 7.44523e-09 -0.00476247)
(0.309012 7.5861e-09 -0.00428573)
(0.314181 7.67367e-09 -0.00382834)
(0.318792 7.70794e-09 -0.00339051)
(0.322868 7.71365e-09 -0.00297235)
(0.326431 7.66606e-09 -0.00257387)
(0.329505 7.59182e-09 -0.002195)
(0.332114 7.48521e-09 -0.0018356)
(0.334281 7.34244e-09 -0.00149544)
(0.336029 7.19015e-09 -0.00117426)
(0.337381 7.0074e-09 -0.000871741)
(0.33836 6.81704e-09 -0.000587518)
(0.33899 6.60002e-09 -0.000321191)
(0.33929 6.36778e-09 -7.20376e-05)
(0.339284 6.13553e-09 0.000160541)
(0.338991 5.89758e-09 0.000376672)
(0.338432 5.65962e-09 0.000576802)
(0.337627 5.42357e-09 0.00076172)
(0.336594 5.1761e-09 0.000932094)
(0.335351 4.93243e-09 0.00108853)
(0.333915 4.69257e-09 0.00123163)
(0.332304 4.46033e-09 0.00136199)
(0.330532 4.2357e-09 0.00148023)
(0.328616 4.01868e-09 0.00158696)
(0.326569 3.81309e-09 0.00168279)
(0.324404 3.61131e-09 0.00176832)
(0.322136 3.42094e-09 0.00184415)
(0.319775 3.24391e-09 0.00191087)
(0.317333 3.07448e-09 0.00196905)
(0.31482 2.91839e-09 0.00201926)
(0.312247 2.77752e-09 0.00206204)
(0.309622 2.64046e-09 0.00209792)
(0.306954 2.52053e-09 0.00212742)
(0.304252 2.41393e-09 0.00215102)
(0.301521 2.31875e-09 0.0021692)
(0.298769 2.23689e-09 0.00218241)
(0.296003 2.16456e-09 0.00219109)
(0.293226 2.11126e-09 0.00219565)
(0.290446 2.05795e-09 0.00219647)
(0.287665 2.01417e-09 0.00219394)
(0.284889 1.97991e-09 0.00218839)
(0.28212 1.95707e-09 0.00218016)
(0.279363 1.94755e-09 0.00216956)
(0.276619 1.94184e-09 0.00215688)
(0.273893 1.94755e-09 0.00214239)
(0.271184 1.96278e-09 0.00212634)
(0.268497 1.9742e-09 0.00210897)
(0.265831 1.99134e-09 0.0020905)
(0.263189 2.0218e-09 0.00207113)
(0.260572 2.06558e-09 0.00205103)
(0.25798 2.10365e-09 0.0020304)
(0.255413 2.14553e-09 0.00200938)
(0.252874 2.19693e-09 0.00198811)
(0.25036 2.25214e-09 0.00196674)
(0.247874 2.30163e-09 0.00194538)
(0.245414 2.35874e-09 0.00192413)
(0.242981 2.42537e-09 0.00190311)
(0.240574 2.48818e-09 0.0018824)
(0.238192 2.5472e-09 0.00186208)
(0.235836 2.61382e-09 0.00184223)
(0.233505 2.68235e-09 0.00182291)
(0.231197 2.75659e-09 0.00180418)
(0.228913 2.83083e-09 0.0017861)
(0.226651 2.90317e-09 0.00176872)
(0.22441 2.96599e-09 0.00175208)
(0.22219 3.04213e-09 0.00173622)
(0.21999 3.12208e-09 0.00172117)
(0.217808 3.20775e-09 0.00170698)
(0.215643 3.27437e-09 0.00169365)
(0.213495 3.35051e-09 0.00168123)
(0.211362 3.43427e-09 0.00166974)
(0.209242 3.50851e-09 0.00165919)
(0.207136 3.58465e-09 0.00164961)
(0.205042 3.66841e-09 0.00164101)
(0.202957 3.74836e-09 0.0016334)
(0.200882 3.83022e-09 0.00162681)
(0.198815 3.91017e-09 0.00162125)
(0.196754 3.99012e-09 0.00161673)
(0.194699 4.07197e-09 0.00161326)
(0.192648 4.15382e-09 0.00161084)
(0.190599 4.23568e-09 0.0016095)
(0.188552 4.32705e-09 0.00160924)
(0.186504 4.40129e-09 0.00161006)
(0.184456 4.49075e-09 0.00161198)
(0.182405 4.57641e-09 0.00161501)
(0.180349 4.66588e-09 0.00161914)
(0.178289 4.75535e-09 0.00162438)
(0.176222 4.84101e-09 0.00163075)
(0.174146 4.93619e-09 0.00163824)
(0.172061 5.02375e-09 0.00164685)
(0.169965 5.11512e-09 0.0016566)
(0.167857 5.21221e-09 0.00166748)
(0.165736 5.30548e-09 0.00167949)
(0.163599 5.39685e-09 0.00169263)
(0.161446 5.50155e-09 0.0017069)
(0.159276 5.59863e-09 0.00172231)
(0.157086 5.69191e-09 0.00173884)
(0.154877 5.79089e-09 0.00175649)
(0.152645 5.89369e-09 0.00177525)
(0.150391 6.006e-09 0.00179513)
(0.148112 6.10118e-09 0.00181609)
(0.145808 6.20968e-09 0.00183815)
(0.143477 6.32389e-09 0.00186127)
(0.141118 6.42669e-09 0.00188546)
(0.138729 6.5409e-09 0.00191068)
(0.136311 6.65892e-09 0.00193692)
(0.13386 6.78075e-09 0.00196415)
(0.131378 6.89878e-09 0.00199236)
(0.128861 7.02822e-09 0.00202152)
(0.12631 7.14624e-09 0.00205158)
(0.123723 7.27949e-09 0.00208253)
(0.121099 7.40513e-09 0.00211431)
(0.118438 7.53457e-09 0.0021469)
(0.115739 7.66782e-09 0.00218024)
(0.113 7.8163e-09 0.00221429)
(0.110222 7.95336e-09 0.00224898)
(0.107404 8.09804e-09 0.00228428)
(0.104545 8.25032e-09 0.0023201)
(0.101645 8.395e-09 0.00235639)
(0.0987028 8.55109e-09 0.00239306)
(0.0957192 8.69957e-09 0.00243004)
(0.0926938 8.85567e-09 0.00246723)
(0.0896266 9.00034e-09 0.00250455)
(0.0865177 9.13359e-09 0.00254188)
(0.0833675 9.26303e-09 0.00257912)
(0.0801764 9.38486e-09 0.00261614)
(0.076945 9.49527e-09 0.00265281)
(0.0736741 9.60568e-09 0.00268898)
(0.0703647 9.70848e-09 0.00272448)
(0.0670179 9.81127e-09 0.00275915)
(0.0636353 9.92929e-09 0.00279279)
(0.0602184 1.00854e-08 0.0028252)
(0.0567693 1.02567e-08 0.00285612)
(0.0532901 1.04851e-08 0.00288531)
(0.0497835 1.07745e-08 0.00291248)
(0.0462524 1.11628e-08 0.00293731)
(0.0427002 1.16311e-08 0.00295943)
(0.0391305 1.21794e-08 0.00297846)
(0.0355477 1.28647e-08 0.00299395)
(0.0319566 1.36147e-08 0.00300538)
(0.0283626 1.44028e-08 0.00301219)
(0.0247719 1.51871e-08 0.00301374)
(0.0211913 1.58533e-08 0.00300928)
(0.0176287 1.63178e-08 0.00299798)
(0.0140928 1.64549e-08 0.00297889)
(0.0105936 1.61503e-08 0.00295088)
(0.00714205 1.52975e-08 0.0029126)
(0.0037525 1.38241e-08 0.00286239)
(0.000437647 1.16349e-08 0.00279595)
(-0.00278658 8.82899e-09 0.00270725)
(-0.00589086 5.81747e-09 0.00259657)
(-0.00886135 3.03058e-09 0.00246584)
(-0.0116694 9.51839e-10 0.00231262)
(-0.0142867 2.74152e-10 0.00213231)
(-0.0166797 1.8275e-09 0.00192011)
(-0.0188088 6.32764e-09 0.00167073)
(-0.0206283 1.42086e-08 0.00137729)
(-0.0220846 2.48536e-08 0.00103178)
(-0.0231147 3.61382e-08 0.000624225)
(-0.0236458 4.41943e-08 0.000142672)
(-0.0235908 4.39354e-08 -0.000424256)
(-0.0228549 3.2232e-08 -0.00108773)
(-0.0213358 1.18024e-08 -0.00185842)
(-0.0189267 -6.89866e-09 -0.00273642)
(-0.0155426 -1.0584e-08 -0.00368818)
(-0.0111741 1.59906e-09 -0.00459075)
(-0.0061285 1.97977e-09 -0.00506355)
(-0.000543115 -3.12043e-08 -0.00341294)
(0.00122651 -1.2622e-07 0.00165004)
(-0.0154142 2.25991e-08 0.0410775)
(-0.022924 2.52585e-09 0.0287042)
(-0.0241461 3.64346e-09 0.0142902)
(-0.0215837 3.11134e-10 0.000973947)
(-0.0154694 -8.55788e-10 -0.0096096)
(-0.00658956 -1.75716e-09 -0.0173817)
(0.0045944 -2.45865e-09 -0.0228784)
(0.0174828 -2.97454e-09 -0.026622)
(0.0316151 -3.34765e-09 -0.0290706)
(0.0466109 -3.52087e-09 -0.0305134)
(0.0621342 -3.4866e-09 -0.0312136)
(0.0779437 -3.39142e-09 -0.0314026)
(0.0938205 -3.24816e-09 -0.0312095)
(0.109604 -3.07635e-09 -0.0307336)
(0.125164 -2.89264e-09 -0.0300447)
(0.1404 -2.7056e-09 -0.029195)
(0.155231 -2.52475e-09 -0.0282237)
(0.169595 -2.35247e-09 -0.0271612)
(0.183443 -2.19161e-09 -0.0260315)
(0.196739 -2.04169e-09 -0.0248534)
(0.209454 -1.9032e-09 -0.0236424)
(0.221567 -1.77755e-09 -0.022411)
(0.233066 -1.66285e-09 -0.0211697)
(0.243942 -1.5591e-09 -0.0199272)
(0.254191 -1.46439e-09 -0.0186908)
(0.263814 -1.37968e-09 -0.0174665)
(0.272814 -1.30496e-09 -0.0162598)
(0.281198 -1.2388e-09 -0.0150751)
(0.288976 -1.18026e-09 -0.0139161)
(0.296159 -1.12934e-09 -0.0127861)
(0.30276 -1.0865e-09 -0.0116878)
(0.308795 -1.05081e-09 -0.0106234)
(0.314278 -1.0213e-09 -0.00959471)
(0.319228 -9.9655e-10 -0.00860329)
(0.323663 -9.79415e-10 -0.00765027)
(0.327603 -9.66563e-10 -0.00673652)
(0.331065 -9.56567e-10 -0.00586261)
(0.334071 -9.52758e-10 -0.00502891)
(0.336641 -9.51804e-10 -0.00423553)
(0.338794 -9.54658e-10 -0.00348241)
(0.340553 -9.58463e-10 -0.0027693)
(0.341936 -9.656e-10 -0.00209578)
(0.342965 -9.7464e-10 -0.00146131)
(0.343659 -9.84156e-10 -0.000865187)
(0.344038 -9.93673e-10 -0.000306623)
(0.344121 -1.00652e-09 0.000215307)
(0.343927 -1.02222e-09 0.000701696)
(0.343476 -1.03412e-09 0.00115368)
(0.342784 -1.04602e-09 0.00157239)
(0.341869 -1.05791e-09 0.00195901)
(0.340749 -1.06743e-09 0.00231477)
(0.339438 -1.07694e-09 0.00264095)
(0.337953 -1.08646e-09 0.00293882)
(0.336308 -1.0936e-09 0.0032097)
(0.334517 -1.10121e-09 0.00345489)
(0.332595 -1.10549e-09 0.00367573)
(0.330554 -1.1093e-09 0.00387352)
(0.328406 -1.11072e-09 0.00404957)
(0.326162 -1.11167e-09 0.00420515)
(0.323834 -1.11024e-09 0.00434154)
(0.321431 -1.10881e-09 0.00445997)
(0.318963 -1.105e-09 0.00456164)
(0.31644 -1.09977e-09 0.00464773)
(0.313868 -1.09358e-09 0.00471936)
(0.311257 -1.08644e-09 0.00477764)
(0.308613 -1.07835e-09 0.00482361)
(0.305942 -1.0693e-09 0.00485828)
(0.303251 -1.05788e-09 0.00488261)
(0.300545 -1.04455e-09 0.00489754)
(0.29783 -1.03313e-09 0.00490392)
(0.295109 -1.02123e-09 0.0049026)
(0.292388 -1.00791e-09 0.00489435)
(0.28967 -9.93627e-10 0.00487991)
(0.286957 -9.77445e-10 0.00485998)
(0.284254 -9.62691e-10 0.00483522)
(0.281563 -9.46985e-10 0.00480622)
(0.278885 -9.32707e-10 0.00477357)
(0.276224 -9.17477e-10 0.00473779)
(0.273581 -9.01771e-10 0.00469937)
(0.270957 -8.84638e-10 0.00465878)
(0.268354 -8.69409e-10 0.00461642)
(0.265772 -8.53227e-10 0.0045727)
(0.263213 -8.36094e-10 0.00452796)
(0.260677 -8.23244e-10 0.00448255)
(0.258163 -8.07063e-10 0.00443675)
(0.255674 -7.94214e-10 0.00439084)
(0.253208 -7.78984e-10 0.00434508)
(0.250766 -7.64707e-10 0.00429969)
(0.248347 -7.51382e-10 0.00425489)
(0.245952 -7.38056e-10 0.00421085)
(0.243579 -7.24255e-10 0.00416775)
(0.241229 -7.11882e-10 0.00412574)
(0.238901 -6.98557e-10 0.00408497)
(0.236594 -6.86659e-10 0.00404556)
(0.234307 -6.73334e-10 0.00400761)
(0.23204 -6.63817e-10 0.00397124)
(0.229792 -6.51444e-10 0.00393654)
(0.227562 -6.40498e-10 0.00390358)
(0.225348 -6.30029e-10 0.00387244)
(0.223151 -6.20987e-10 0.00384319)
(0.220969 -6.10518e-10 0.00381588)
(0.218801 -6.00524e-10 0.00379058)
(0.216646 -5.91483e-10 0.00376732)
(0.214502 -5.82441e-10 0.00374615)
(0.21237 -5.72924e-10 0.00372712)
(0.210247 -5.64359e-10 0.00371025)
(0.208132 -5.56745e-10 0.00369558)
(0.206024 -5.49131e-10 0.00368314)
(0.203923 -5.41042e-10 0.00367295)
(0.201826 -5.33904e-10 0.00366503)
(0.199732 -5.2629e-10 0.00365942)
(0.197641 -5.19629e-10 0.00365612)
(0.195551 -5.11539e-10 0.00365515)
(0.193461 -5.07733e-10 0.00365654)
(0.191368 -5.00595e-10 0.00366029)
(0.189274 -4.94885e-10 0.00366641)
(0.187175 -4.90127e-10 0.00367491)
(0.18507 -4.84893e-10 0.00368581)
(0.182959 -4.78707e-10 0.0036991)
(0.18084 -4.73949e-10 0.0037148)
(0.178711 -4.69667e-10 0.00373289)
(0.176572 -4.65861e-10 0.00375339)
(0.174421 -4.62055e-10 0.00377629)
(0.172257 -4.58248e-10 0.00380159)
(0.170078 -4.54442e-10 0.00382927)
(0.167884 -4.52064e-10 0.00385933)
(0.165672 -4.49685e-10 0.00389175)
(0.163442 -4.4921e-10 0.00392651)
(0.161193 -4.47307e-10 0.0039636)
(0.158923 -4.44929e-10 0.004003)
(0.156631 -4.44454e-10 0.00404466)
(0.154316 -4.43503e-10 0.00408857)
(0.151976 -4.43028e-10 0.00413468)
(0.149611 -4.43505e-10 0.00418296)
(0.147219 -4.43982e-10 0.00423336)
(0.1448 -4.48266e-10 0.00428583)
(0.142351 -4.47791e-10 0.00434031)
(0.139873 -4.48743e-10 0.00439673)
(0.137365 -4.516e-10 0.00445504)
(0.134824 -4.55408e-10 0.00451515)
(0.132251 -4.57312e-10 0.00457699)
(0.129645 -4.6112e-10 0.00464045)
(0.127004 -4.66356e-10 0.00470545)
(0.124328 -4.73019e-10 0.00477188)
(0.121617 -4.77779e-10 0.00483963)
(0.11887 -4.84443e-10 0.00490857)
(0.116086 -4.9063e-10 0.00497856)
(0.113265 -4.96817e-10 0.00504946)
(0.110406 -5.05384e-10 0.00512113)
(0.10751 -5.15379e-10 0.00519338)
(0.104576 -5.25374e-10 0.00526603)
(0.101604 -5.37272e-10 0.00533891)
(0.098594 -5.47267e-10 0.00541178)
(0.0955466 -5.58689e-10 0.00548444)
(0.0924619 -5.76298e-10 0.00555662)
(0.0893404 -5.92955e-10 0.00562809)
(0.0861827 -6.12468e-10 0.00569854)
(0.0829897 -6.30553e-10 0.00576768)
(0.0797623 -6.50541e-10 0.00583517)
(0.0765016 -6.7053e-10 0.00590065)
(0.073209 -6.87663e-10 0.00596374)
(0.0698861 -7.06223e-10 0.00602402)
(0.0665348 -7.20501e-10 0.00608101)
(0.0631572 -7.30495e-10 0.00613422)
(0.0597555 -7.33827e-10 0.00618309)
(0.0563326 -7.32876e-10 0.00622701)
(0.0528914 -7.22406e-10 0.00626532)
(0.0494353 -7.06226e-10 0.00629728)
(0.0459682 -6.90045e-10 0.00632207)
(0.0424943 -6.66251e-10 0.00633877)
(0.0390183 -6.48167e-10 0.00634637)
(0.0355455 -6.42456e-10 0.00634374)
(0.0320819 -6.51974e-10 0.0063296)
(0.028634 -6.9671e-10 0.00630251)
(0.0252092 -7.81421e-10 0.00626085)
(0.0218155 -9.21336e-10 0.00620275)
(0.0184623 -1.11551e-09 0.00612608)
(0.0151598 -1.37154e-09 0.00602828)
(0.0119194 -1.67898e-09 0.00590639)
(0.00875406 -2.01496e-09 0.00575627)
(0.00567772 -2.33287e-09 0.00557254)
(0.00270686 -2.60033e-09 0.00535185)
(-0.000141902 -2.7688e-09 0.00509068)
(-0.00284671 -2.76689e-09 0.00478322)
(-0.00538451 -2.50039e-09 0.00442287)
(-0.00773076 -1.85601e-09 0.00400177)
(-0.00985718 -7.45253e-10 0.00351044)
(-0.0117327 8.37603e-10 0.00293752)
(-0.0133226 2.67459e-09 0.00227032)
(-0.0145894 4.19368e-09 0.0014942)
(-0.0154926 4.43829e-09 0.000593276)
(-0.0159915 2.3624e-09 -0.00044672)
(-0.0160434 -2.27481e-09 -0.00163533)
(-0.0156134 -7.72961e-09 -0.00297334)
(-0.0146789 -9.88927e-09 -0.00443517)
(-0.0132417 -4.71144e-09 -0.00593154)
(-0.0113453 5.27114e-09 -0.00723234)
(-0.00904391 5.65187e-09 -0.00782132)
(-0.0062951 -5.33394e-09 -0.00641932)
(-0.00367547 -1.26826e-07 -0.00102446)
(-0.0154145 2.2599e-08 0.0410772)
(-0.022924 2.52583e-09 0.028704)
(-0.0241461 3.64344e-09 0.0142901)
(-0.0215837 3.11133e-10 0.000973863)
(-0.0154693 -8.55785e-10 -0.00960967)
(-0.00658949 -1.75715e-09 -0.0173818)
(0.00459447 -2.45864e-09 -0.0228785)
(0.0174829 -2.97453e-09 -0.0266221)
(0.0316151 -3.34764e-09 -0.0290707)
(0.0466109 -3.52086e-09 -0.0305135)
(0.0621342 -3.48659e-09 -0.0312136)
(0.0779437 -3.39141e-09 -0.0314027)
(0.0938206 -3.24815e-09 -0.0312096)
(0.109604 -3.07634e-09 -0.0307336)
(0.125164 -2.89264e-09 -0.0300448)
(0.1404 -2.7056e-09 -0.029195)
(0.155231 -2.52475e-09 -0.0282237)
(0.169595 -2.35247e-09 -0.0271613)
(0.183443 -2.1916e-09 -0.0260315)
(0.196739 -2.04169e-09 -0.0248534)
(0.209454 -1.90319e-09 -0.0236424)
(0.221567 -1.77755e-09 -0.0224111)
(0.233066 -1.66285e-09 -0.0211698)
(0.243942 -1.5591e-09 -0.0199272)
(0.254191 -1.46439e-09 -0.0186908)
(0.263814 -1.37968e-09 -0.0174666)
(0.272814 -1.30496e-09 -0.0162598)
(0.281198 -1.2388e-09 -0.0150751)
(0.288976 -1.18026e-09 -0.0139161)
(0.296159 -1.12934e-09 -0.0127861)
(0.30276 -1.0865e-09 -0.0116878)
(0.308795 -1.05081e-09 -0.0106234)
(0.314278 -1.0213e-09 -0.00959472)
(0.319228 -9.96549e-10 -0.0086033)
(0.323663 -9.79414e-10 -0.00765028)
(0.327602 -9.66562e-10 -0.00673652)
(0.331065 -9.56566e-10 -0.00586262)
(0.334071 -9.52757e-10 -0.00502891)
(0.33664 -9.51803e-10 -0.00423554)
(0.338794 -9.54657e-10 -0.00348242)
(0.340553 -9.58462e-10 -0.00276931)
(0.341936 -9.65599e-10 -0.00209579)
(0.342965 -9.74639e-10 -0.00146132)
(0.343658 -9.84156e-10 -0.000865196)
(0.344037 -9.93672e-10 -0.000306632)
(0.344121 -1.00652e-09 0.000215298)
(0.343927 -1.02222e-09 0.000701686)
(0.343476 -1.03412e-09 0.00115367)
(0.342784 -1.04601e-09 0.00157238)
(0.341869 -1.05791e-09 0.001959)
(0.340749 -1.06743e-09 0.00231476)
(0.339438 -1.07694e-09 0.00264094)
(0.337953 -1.08646e-09 0.00293881)
(0.336308 -1.0936e-09 0.00320968)
(0.334517 -1.10121e-09 0.00345488)
(0.332595 -1.10549e-09 0.00367572)
(0.330554 -1.1093e-09 0.00387351)
(0.328406 -1.11072e-09 0.00404955)
(0.326162 -1.11167e-09 0.00420514)
(0.323834 -1.11024e-09 0.00434153)
(0.321431 -1.10881e-09 0.00445996)
(0.318963 -1.105e-09 0.00456163)
(0.31644 -1.09977e-09 0.00464772)
(0.313868 -1.09358e-09 0.00471935)
(0.311257 -1.08644e-09 0.00477763)
(0.308613 -1.07835e-09 0.00482359)
(0.305942 -1.0693e-09 0.00485826)
(0.303251 -1.05788e-09 0.0048826)
(0.300545 -1.04455e-09 0.00489752)
(0.29783 -1.03313e-09 0.00490391)
(0.295109 -1.02123e-09 0.00490258)
(0.292388 -1.0079e-09 0.00489433)
(0.28967 -9.93626e-10 0.0048799)
(0.286957 -9.77444e-10 0.00485997)
(0.284254 -9.6269e-10 0.00483521)
(0.281563 -9.46984e-10 0.00480621)
(0.278885 -9.32706e-10 0.00477356)
(0.276224 -9.17476e-10 0.00473778)
(0.273581 -9.01771e-10 0.00469936)
(0.270957 -8.84637e-10 0.00465876)
(0.268354 -8.69408e-10 0.00461641)
(0.265772 -8.53227e-10 0.00457269)
(0.263213 -8.36094e-10 0.00452795)
(0.260676 -8.23244e-10 0.00448253)
(0.258163 -8.07063e-10 0.00443674)
(0.255674 -7.94213e-10 0.00439083)
(0.253208 -7.78984e-10 0.00434507)
(0.250766 -7.64707e-10 0.00429968)
(0.248347 -7.51381e-10 0.00425487)
(0.245952 -7.38056e-10 0.00421084)
(0.243579 -7.24255e-10 0.00416774)
(0.241229 -7.11881e-10 0.00412573)
(0.238901 -6.98556e-10 0.00408496)
(0.236594 -6.86659e-10 0.00404555)
(0.234307 -6.73334e-10 0.0040076)
(0.23204 -6.63816e-10 0.00397123)
(0.229792 -6.51443e-10 0.00393653)
(0.227561 -6.40498e-10 0.00390357)
(0.225348 -6.30028e-10 0.00387243)
(0.223151 -6.20987e-10 0.00384318)
(0.220969 -6.10517e-10 0.00381587)
(0.218801 -6.00524e-10 0.00379057)
(0.216646 -5.91482e-10 0.00376731)
(0.214502 -5.82441e-10 0.00374614)
(0.21237 -5.72924e-10 0.00372711)
(0.210247 -5.64358e-10 0.00371024)
(0.208132 -5.56744e-10 0.00369557)
(0.206024 -5.49131e-10 0.00368313)
(0.203923 -5.41041e-10 0.00367294)
(0.201826 -5.33904e-10 0.00366502)
(0.199732 -5.2629e-10 0.00365941)
(0.197641 -5.19628e-10 0.00365611)
(0.195551 -5.11539e-10 0.00365514)
(0.193461 -5.07732e-10 0.00365653)
(0.191368 -5.00595e-10 0.00366028)
(0.189274 -4.94885e-10 0.0036664)
(0.187175 -4.90127e-10 0.0036749)
(0.18507 -4.84893e-10 0.0036858)
(0.182959 -4.78707e-10 0.00369909)
(0.18084 -4.73949e-10 0.00371479)
(0.178711 -4.69667e-10 0.00373288)
(0.176572 -4.65861e-10 0.00375338)
(0.174421 -4.62054e-10 0.00377628)
(0.172257 -4.58248e-10 0.00380158)
(0.170078 -4.54442e-10 0.00382926)
(0.167884 -4.52063e-10 0.00385932)
(0.165672 -4.49685e-10 0.00389174)
(0.163442 -4.4921e-10 0.0039265)
(0.161193 -4.47307e-10 0.00396359)
(0.158923 -4.44929e-10 0.00400298)
(0.156631 -4.44454e-10 0.00404465)
(0.154316 -4.43503e-10 0.00408856)
(0.151976 -4.43028e-10 0.00413467)
(0.149611 -4.43505e-10 0.00418295)
(0.147219 -4.43981e-10 0.00423335)
(0.1448 -4.48265e-10 0.00428582)
(0.142351 -4.4779e-10 0.0043403)
(0.139873 -4.48743e-10 0.00439672)
(0.137365 -4.51599e-10 0.00445503)
(0.134824 -4.55407e-10 0.00451514)
(0.132251 -4.57312e-10 0.00457697)
(0.129645 -4.6112e-10 0.00464044)
(0.127004 -4.66356e-10 0.00470544)
(0.124328 -4.73019e-10 0.00477187)
(0.121617 -4.77779e-10 0.00483962)
(0.11887 -4.84442e-10 0.00490855)
(0.116086 -4.9063e-10 0.00497855)
(0.113265 -4.96817e-10 0.00504945)
(0.110406 -5.05384e-10 0.00512111)
(0.10751 -5.15379e-10 0.00519336)
(0.104576 -5.25373e-10 0.00526602)
(0.101604 -5.37272e-10 0.00533889)
(0.098594 -5.47266e-10 0.00541177)
(0.0955466 -5.58689e-10 0.00548442)
(0.0924619 -5.76298e-10 0.00555661)
(0.0893404 -5.92955e-10 0.00562807)
(0.0861827 -6.12467e-10 0.00569853)
(0.0829897 -6.30552e-10 0.00576766)
(0.0797623 -6.50541e-10 0.00583515)
(0.0765016 -6.70529e-10 0.00590064)
(0.073209 -6.87662e-10 0.00596373)
(0.0698862 -7.06223e-10 0.006024)
(0.0665348 -7.205e-10 0.00608099)
(0.0631572 -7.30495e-10 0.0061342)
(0.0597555 -7.33827e-10 0.00618307)
(0.0563326 -7.32875e-10 0.006227)
(0.0528914 -7.22406e-10 0.00626531)
(0.0494353 -7.06225e-10 0.00629726)
(0.0459682 -6.90045e-10 0.00632205)
(0.0424943 -6.6625e-10 0.00633875)
(0.0390183 -6.48166e-10 0.00634635)
(0.0355456 -6.42455e-10 0.00634372)
(0.0320819 -6.51974e-10 0.00632958)
(0.028634 -6.96709e-10 0.00630249)
(0.0252092 -7.8142e-10 0.00626083)
(0.0218156 -9.21336e-10 0.00620273)
(0.0184624 -1.1155e-09 0.00612606)
(0.0151598 -1.37154e-09 0.00602826)
(0.0119194 -1.67897e-09 0.00590637)
(0.00875407 -2.01496e-09 0.00575625)
(0.00567773 -2.33287e-09 0.00557252)
(0.00270686 -2.60032e-09 0.00535183)
(-0.000141894 -2.76879e-09 0.00509066)
(-0.0028467 -2.76689e-09 0.0047832)
(-0.0053845 -2.50038e-09 0.00442285)
(-0.00773076 -1.85601e-09 0.00400175)
(-0.00985718 -7.45252e-10 0.00351041)
(-0.0117327 8.37602e-10 0.0029375)
(-0.0133226 2.67459e-09 0.00227029)
(-0.0145894 4.19367e-09 0.00149417)
(-0.0154926 4.43829e-09 0.000593248)
(-0.0159915 2.3624e-09 -0.00044675)
(-0.0160434 -2.2748e-09 -0.00163536)
(-0.0156134 -7.72961e-09 -0.00297337)
(-0.0146789 -9.88925e-09 -0.0044352)
(-0.0132417 -4.71142e-09 -0.00593158)
(-0.0113453 5.27109e-09 -0.00723239)
(-0.00904399 5.65179e-09 -0.00782139)
(-0.00629527 -5.33395e-09 -0.00641945)
(-0.0036758 -1.26828e-07 -0.0010247)
(-0.00733813 3.60389e-08 0.0562561)
(-0.00851704 2.76383e-09 0.0296357)
(-0.00413671 4.51632e-09 0.00952101)
(0.00232014 2.87065e-09 -0.00667327)
(0.0104579 2.60702e-09 -0.0193594)
(0.0199682 2.3962e-09 -0.0289496)
(0.0307262 2.20393e-09 -0.0359759)
(0.0425429 2.01833e-09 -0.0409488)
(0.0552076 1.82702e-09 -0.044318)
(0.068511 1.63475e-09 -0.046432)
(0.0822646 1.46533e-09 -0.0475776)
(0.0962902 1.31161e-09 -0.0479888)
(0.110424 1.18287e-09 -0.0478354)
(0.124533 1.07675e-09 -0.047247)
(0.138501 9.90608e-10 -0.0463218)
(0.152235 9.18508e-10 -0.0451352)
(0.16566 8.58544e-10 -0.0437461)
(0.178712 8.08337e-10 -0.0422012)
(0.191342 7.65982e-10 -0.0405377)
(0.20351 7.28623e-10 -0.0387858)
(0.215184 6.95549e-10 -0.0369704)
(0.226341 6.66281e-10 -0.0351119)
(0.236962 6.40107e-10 -0.0332276)
(0.247036 6.14884e-10 -0.031332)
(0.256555 5.93945e-10 -0.0294373)
(0.265515 5.73482e-10 -0.0275542)
(0.273917 5.54208e-10 -0.0256915)
(0.281763 5.35411e-10 -0.023857)
(0.28906 5.18517e-10 -0.0220572)
(0.295814 5.02337e-10 -0.0202977)
(0.302037 4.85681e-10 -0.0185834)
(0.307739 4.69025e-10 -0.0169182)
(0.312934 4.53796e-10 -0.0153055)
(0.317636 4.39044e-10 -0.013748)
(0.321861 4.23578e-10 -0.012248)
(0.325624 4.08825e-10 -0.0108071)
(0.328943 3.94787e-10 -0.00942665)
(0.331835 3.79558e-10 -0.00810742)
(0.334318 3.6552e-10 -0.00684991)
(0.33641 3.50768e-10 -0.00565426)
(0.338129 3.37205e-10 -0.00452029)