/*--------------------------------*- C++ -*----------------------------------*\
  =========                 |
  \\      /  F ield         | OpenFOAM: The Open Source CFD Toolbox
   \\    /   O peration     | Website:  https://openfoam.org
    \\  /    A nd           | Version:  8
     \\/     M anipulation  |
\*---------------------------------------------------------------------------*/
FoamFile
{
    version     2.0;
    format      ascii;
    class       volScalarField;
    location    "400";
    object      epsilon;
}
// * * * * * * * * * * * * * * * * * * * * * * * * * * * * * * * * * * * * * //

dimensions      [0 2 -3 0 0 0 0];

internalField   nonuniform List<scalar> 
48000
(
0.0756759
0.097843
0.129987
0.158266
0.180534
0.191665
0.175088
0.840836
0.948591
0.917982
1.01736
1.18467
0.908443
0.983479
1.07665
1.17165
1.26808
1.36618
1.46608
1.56785
1.67148
1.77699
1.88434
1.99349
2.10438
2.21694
2.33111
2.44678
2.56385
2.68221
2.80174
2.9223
3.04376
3.16596
3.28877
3.41201
3.53555
3.6592
3.78282
3.90625
4.02931
4.15185
4.27373
4.39477
4.51484
4.63379
4.75147
4.86775
4.9825
5.09559
5.2069
5.31633
5.42374
5.52906
5.63217
5.73298
5.8314
5.92737
6.02079
6.11159
6.19972
6.2851
6.36768
6.44741
6.52424
6.59813
6.66903
6.7369
6.80172
6.86346
6.92208
6.97756
7.02989
7.07903
7.12499
7.16773
7.20726
7.24357
7.27664
7.30648
7.33308
7.35645
7.37659
7.39352
7.40723
7.41775
7.42509
7.42928
7.43039
7.42877
7.42409
7.41631
7.40547
7.39161
7.37478
7.35501
7.33237
7.3069
7.27864
7.24766
7.21402
7.17775
7.13893
7.09761
7.05385
7.0077
6.95922
6.90847
6.85551
6.8004
6.74319
6.68394
6.62271
6.55953
6.49447
6.42755
6.35884
6.28838
6.21622
6.1424
6.06696
5.98995
5.91139
5.83133
5.7498
5.66686
5.58256
5.49693
5.41002
5.32188
5.23253
5.14204
5.05044
4.9578
4.86417
4.76961
4.67418
4.57792
4.48091
4.3832
4.28486
4.18596
4.08658
3.98679
3.88665
3.78625
3.68565
3.58494
3.4842
3.38352
3.28297
3.18264
3.08263
2.983
2.88385
2.78528
2.68737
2.5902
2.49388
2.39849
2.30411
2.21083
2.11873
2.0279
1.93841
1.85036
1.7638
1.67883
1.59551
1.5139
1.43406
1.35606
1.27993
1.20571
1.13339
1.0629
0.994026
0.927303
0.880213
1.19413
1.18835
1.10979
1.01644
0.884
0.185671
0.183897
0.178151
0.194557
0.170949
0.167764
0.186369
0.179914
0.166006
0.149192
0.130855
0.111555
0.091521
0.0707488
0.0487997
0.030545
0.0756806
0.0978475
0.129992
0.158271
0.180529
0.191632
0.175119
0.841239
0.948216
0.917639
1.01799
1.18535
0.908412
0.98346
1.07667
1.17169
1.26812
1.36622
1.46612
1.56788
1.67152
1.77703
1.88437
1.99352
2.1044
2.21697
2.33113
2.4468
2.56387
2.68223
2.80176
2.92232
3.04377
3.16597
3.28878
3.41202
3.53555
3.6592
3.78282
3.90624
4.0293
4.15184
4.27371
4.39476
4.51482
4.63377
4.75145
4.86773
4.98247
5.09556
5.20687
5.31629
5.42371
5.52902
5.63213
5.73294
5.83136
5.92732
6.02074
6.11154
6.19967
6.28505
6.36763
6.44736
6.52418
6.59807
6.66896
6.73684
6.80166
6.86339
6.92201
6.97749
7.02981
7.07896
7.12491
7.16766
7.20718
7.24349
7.27656
7.30639
7.333
7.35637
7.37651
7.39343
7.40714
7.41766
7.42499
7.42918
7.4303
7.42867
7.42399
7.41621
7.40537
7.39151
7.37467
7.35491
7.33226
7.30679
7.27853
7.24756
7.21391
7.17764
7.13882
7.0975
7.05374
7.00759
6.95911
6.90836
6.8554
6.80029
6.74308
6.68383
6.6226
6.55942
6.49436
6.42744
6.35874
6.28828
6.21612
6.1423
6.06686
5.98984
5.91128
5.83121
5.74969
5.66676
5.58246
5.49684
5.40993
5.32178
5.23243
5.14194
5.05034
4.95771
4.86408
4.76953
4.67409
4.57784
4.48082
4.38311
4.28477
4.18588
4.08651
3.98672
3.88658
3.78618
3.68559
3.58488
3.48414
3.38346
3.28291
3.18259
3.08257
2.98294
2.8838
2.78522
2.68731
2.59015
2.49384
2.39845
2.30407
2.21079
2.11869
2.02786
1.93837
1.85032
1.76377
1.6788
1.59547
1.51386
1.43403
1.35603
1.2799
1.20568
1.13336
1.06287
0.993991
0.927266
0.880223
1.19429
1.18823
1.10954
1.01586
0.881021
0.183344
0.178129
0.191568
0.874913
0.188664
0.195299
0.191609
0.18088
0.166164
0.149204
0.130843
0.111544
0.0915125
0.0707427
0.048795
0.0305408
0.120033
0.0952246
0.105866
0.122794
0.1428
0.169134
0.217705
0.30603
0.349803
0.368678
0.407042
0.452355
0.438198
0.467124
0.50575
0.54719
0.590156
0.634375
0.679777
0.726339
0.774046
0.82288
0.872822
0.923844
0.975913
1.02899
1.08303
1.13799
1.19381
1.25042
1.30777
1.36579
1.42439
1.48351
1.54307
1.60298
1.66316
1.72354
1.78402
1.84453
1.90497
1.96527
2.02535
2.08511
2.1445
2.20342
2.26181
2.31958
2.37668
2.43304
2.48859
2.54326
2.59701
2.64977
2.70149
2.75212
2.80162
2.84993
2.89703
2.94286
2.98739
3.0306
3.07244
3.11288
3.15191
3.1895
3.22562
3.26025
3.29337
3.32498
3.35505
3.38357
3.41052
3.43591
3.45971
3.48193
3.50255
3.52157
3.53899
3.55481
3.56902
3.58163
3.59264
3.60205
3.60987
3.61611
3.62077
3.62388
3.62546
3.62559
3.62423
3.62136
3.61699
3.61111
3.60376
3.59495
3.58471
3.57306
3.56001
3.54561
3.52987
3.51282
3.4945
3.47492
3.45412
3.43212
3.40897
3.38467
3.35928
3.33281
3.30529
3.27675
3.24722
3.21673
3.1853
3.15295
3.11972
3.08562
3.05068
3.01493
2.97837
2.94104
2.90295
2.86413
2.82459
2.78435
2.74345
2.70189
2.65971
2.61691
2.57352
2.52957
2.48508
2.44006
2.39456
2.34859
2.30218
2.25536
2.20815
2.16059
2.11272
2.06455
2.01613
1.96748
1.91865
1.86967
1.82058
1.77141
1.72221
1.673
1.62385
1.57478
1.52583
1.47706
1.42849
1.38019
1.33218
1.28451
1.23724
1.1904
1.14403
1.09817
1.05288
1.00819
0.964147
0.920785
0.878149
0.836276
0.795204
0.75497
0.715609
0.677155
0.63964
0.603098
0.567564
0.533092
0.499875
0.469021
0.447487
0.46848
0.456237
0.429128
0.396016
0.353264
0.273523
0.245845
0.222013
0.196737
0.189013
0.173137
0.145377
0.127701
0.113721
0.100805
0.0882782
0.0762015
0.064904
0.0551464
0.049262
0.0638421
0.120037
0.0952125
0.105853
0.122788
0.142832
0.169254
0.217186
0.305355
0.350013
0.369054
0.406645
0.452486
0.438863
0.467289
0.505752
0.547158
0.590116
0.634333
0.679734
0.726295
0.774
0.822833
0.872773
0.923794
0.975862
1.02894
1.08298
1.13794
1.19375
1.25037
1.30771
1.36573
1.42433
1.48345
1.543
1.60291
1.6631
1.72347
1.78395
1.84446
1.9049
1.9652
2.02527
2.08504
2.14442
2.20335
2.26173
2.31951
2.37661
2.43296
2.48851
2.54318
2.59692
2.64968
2.7014
2.75204
2.80153
2.84985
2.89694
2.94277
2.98731
3.03051
3.07235
3.11279
3.15182
3.18941
3.22552
3.26015
3.29328
3.32489
3.35496
3.38347
3.41043
3.43581
3.45962
3.48183
3.50245
3.52148
3.5389
3.55471
3.56893
3.58154
3.59255
3.60196
3.60978
3.61601
3.62067
3.62378
3.62536
3.6255
3.62414
3.62127
3.61689
3.61102
3.60367
3.59486
3.58462
3.57296
3.55992
3.54552
3.52978
3.51273
3.49441
3.47483
3.45403
3.43204
3.40888
3.38459
3.35919
3.33272
3.3052
3.27667
3.24714
3.21665
3.18522
3.15288
3.11964
3.08555
3.05061
3.01485
2.97829
2.94096
2.90288
2.86405
2.82452
2.78429
2.74338
2.70183
2.65964
2.61684
2.57346
2.52951
2.48501
2.44
2.3945
2.34853
2.30212
2.2553
2.2081
2.16054
2.11266
2.0645
2.01607
1.96743
1.91861
1.86963
1.82053
1.77137
1.72216
1.67296
1.62381
1.57473
1.52579
1.47702
1.42845
1.38015
1.33214
1.28448
1.23721
1.19036
1.144
1.09814
1.05285
1.00816
0.964119
0.920759
0.878124
0.836252
0.795181
0.754948
0.715588
0.677135
0.639621
0.603081
0.567548
0.533074
0.499832
0.468823
0.446725
0.467757
0.456235
0.429409
0.396392
0.35364
0.272775
0.24122
0.218925
0.257191
0.184197
0.157055
0.139988
0.126164
0.113312
0.100693
0.0882411
0.0761846
0.0648939
0.05514
0.0492595
0.0638393
0.162574
0.113696
0.114191
0.12585
0.143034
0.165629
0.193347
0.225727
0.255748
0.282814
0.309722
0.337571
0.361041
0.389312
0.420414
0.453257
0.48743
0.52277
0.559203
0.596694
0.63522
0.674763
0.715303
0.756816
0.799275
0.842649
0.886903
0.931994
0.977878
1.0245
1.07182
1.11976
1.16828
1.2173
1.26675
1.31658
1.36671
1.41706
1.46758
1.51817
1.56878
1.61933
1.66975
1.71997
1.76993
1.81954
1.86876
1.91751
1.96574
2.01338
2.06038
2.10668
2.15223
2.19699
2.2409
2.28392
2.32601
2.36712
2.40723
2.44628
2.48426
2.52113
2.55686
2.59143
2.62481
2.65697
2.68791
2.71759
2.74601
2.77315
2.79898
2.82351
2.84673
2.86861
2.88915
2.90836
2.92621
2.94271
2.95786
2.97164
2.98408
2.99515
3.00487
3.01323
3.02025
3.02593
3.03028
3.03331
3.03504
3.0355
3.03468
3.03258
3.02921
3.02458
3.0187
3.01159
3.00327
2.99375
2.98305
2.97121
2.95823
2.94414
2.92897
2.91274
2.89548
2.87721
2.85795
2.83773
2.81658
2.79452
2.77158
2.74777
2.72313
2.69768
2.67143
2.64442
2.61666
2.58817
2.55897
2.52909
2.49854
2.46734
2.4355
2.40305
2.37001
2.33638
2.30219
2.26745
2.23219
2.19641
2.16015
2.12341
2.08622
2.04859
2.01055
1.97212
1.93332
1.89418
1.85471
1.81494
1.7749
1.73462
1.69412
1.65343
1.61258
1.57159
1.53051
1.48936
1.44817
1.40698
1.36582
1.32473
1.28373
1.24287
1.20218
1.1617
1.12147
1.08151
1.04187
1.00259
0.963703
0.925243
0.887248
0.849754
0.812798
0.776414
0.740638
0.705503
0.671044
0.637295
0.604288
0.572059
0.540645
0.510089
0.480445
0.451783
0.424184
0.397708
0.372655
0.3537
0.334053
0.313107
0.291611
0.269981
0.245043
0.224235
0.203399
0.183643
0.168306
0.151358
0.132721
0.117403
0.104581
0.0932076
0.0828692
0.07362
0.0658922
0.0608767
0.0625513
0.0959417
0.162579
0.113683
0.114173
0.125824
0.143
0.16562
0.193214
0.22584
0.256095
0.283042
0.309852
0.338
0.361272
0.389361
0.420398
0.453225
0.487395
0.522733
0.559166
0.596657
0.635184
0.674727
0.715266
0.756778
0.799238
0.842612
0.886865
0.931957
0.977841
1.02447
1.07178
1.11973
1.16824
1.21726
1.26672
1.31654
1.36667
1.41703
1.46754
1.51814
1.56875
1.6193
1.66972
1.71994
1.76989
1.81951
1.86873
1.91748
1.9657
2.01335
2.06035
2.10665
2.1522
2.19696
2.24087
2.28389
2.32598
2.3671
2.4072
2.44626
2.48424
2.52111
2.55684
2.59141
2.62478
2.65695
2.68789
2.71757
2.74599
2.77312
2.79896
2.82349
2.8467
2.86859
2.88913
2.90834
2.92619
2.94269
2.95784
2.97163
2.98406
2.99513
3.00485
3.01322
3.02023
3.02591
3.03026
3.03329
3.03503
3.03549
3.03467
3.03257
3.0292
3.02457
3.01869
3.01158
3.00325
2.99374
2.98304
2.97119
2.95822
2.94413
2.92896
2.91273
2.89547
2.8772
2.85794
2.83772
2.81657
2.79451
2.77157
2.74776
2.72312
2.69767
2.67142
2.64441
2.61665
2.58816
2.55897
2.52908
2.49853
2.46733
2.4355
2.40305
2.37
2.33638
2.30219
2.26745
2.23219
2.19641
2.16015
2.12341
2.08622
2.04859
2.01055
1.97212
1.93332
1.89418
1.85471
1.81494
1.77491
1.73462
1.69412
1.65343
1.61258
1.5716
1.53052
1.48936
1.44818
1.40699
1.36583
1.32473
1.28373
1.24287
1.20219
1.16171
1.12147
1.08151
1.04188
1.0026
0.963708
0.925247
0.887252
0.849758
0.812802
0.776418
0.740641
0.705507
0.671048
0.637298
0.604292
0.572062
0.540648
0.510093
0.480451
0.451794
0.424205
0.397738
0.372671
0.354041
0.334616
0.313715
0.292165
0.270396
0.244684
0.222314
0.200724
0.187873
0.165442
0.146331
0.130231
0.11649
0.104287
0.0931161
0.0828385
0.0736075
0.0658857
0.0608731
0.0625517
0.0959388
0.206305
0.138396
0.131672
0.13971
0.154382
0.173602
0.196058
0.22051
0.245835
0.271571
0.297561
0.324033
0.350843
0.37903
0.408596
0.439404
0.471345
0.504352
0.538383
0.57341
0.609414
0.64638
0.68429
0.723126
0.762866
0.803484
0.84495
0.887228
0.930279
0.974059
1.01852
1.06361
1.10926
1.15544
1.20206
1.24907
1.2964
1.34398
1.39176
1.43964
1.48758
1.5355
1.58333
1.63101
1.67847
1.72564
1.77246
1.81886
1.8648
1.91021
1.95504
1.99923
2.04272
2.08548
2.12746
2.1686
2.20887
2.24824
2.28665
2.32408
2.36049
2.39585
2.43014
2.46332
2.49538
2.52629
2.55602
2.58457
2.61191
2.63803
2.66291
2.68654
2.70892
2.73003
2.74986
2.7684
2.78566
2.80162
2.81629
2.82966
2.84173
2.8525
2.86197
2.87015
2.87705
2.88266
2.88699
2.89007
2.8919
2.89248
2.89184
2.88997
2.88689
2.8826
2.87711
2.87045
2.86263
2.85367
2.84359
2.8324
2.82013
2.8068
2.79244
2.77706
2.76069
2.74336
2.72509
2.7059
2.68581
2.66486
2.64306
2.62044
2.59702
2.57282
2.54787
2.52219
2.49579
2.4687
2.44093
2.41251
2.38345
2.35377
2.32349
2.29263
2.2612
2.22921
2.19669
2.16365
2.13011
2.09609
2.0616
2.02666
1.99129
1.95551
1.91933
1.88278
1.84589
1.80866
1.77113
1.73331
1.69523
1.65692
1.6184
1.5797
1.54085
1.50186
1.46278
1.42364
1.38445
1.34526
1.3061
1.267
1.22799
1.1891
1.15038
1.11185
1.07354
1.03551
0.997773
0.960373
0.923344
0.886722
0.850541
0.814836
0.779643
0.744994
0.710926
0.677471
0.644662
0.612534
0.58112
0.550457
0.520583
0.491543
0.463393
0.4362
0.410041
0.384965
0.360942
0.338533
0.317054
0.296046
0.275402
0.255257
0.235307
0.216241
0.19759
0.179729
0.163434
0.147658
0.132429
0.118788
0.10675
0.0960919
0.086753
0.0789356
0.0732416
0.0712466
0.0784082
0.127319
0.206311
0.138383
0.131657
0.13969
0.154361
0.173595
0.196025
0.220525
0.245908
0.271636
0.297596
0.324111
0.350873
0.379018
0.408567
0.439369
0.47131
0.504317
0.538348
0.573375
0.60938
0.646345
0.684256
0.723092
0.762832
0.80345
0.844916
0.887195
0.930246
0.974026
1.01849
1.06357
1.10923
1.1554
1.20203
1.24904
1.29637
1.34396
1.39173
1.43962
1.48756
1.53548
1.58331
1.63099
1.67844
1.72561
1.77243
1.81884
1.86478
1.91019
1.95502
1.99921
2.04271
2.08547
2.12744
2.16859
2.20886
2.24822
2.28664
2.32407
2.36048
2.39584
2.43013
2.46331
2.49537
2.52628
2.55602
2.58456
2.6119
2.63802
2.66291
2.68654
2.70892
2.73002
2.74985
2.7684
2.78566
2.80162
2.81629
2.82966
2.84173
2.8525
2.86198
2.87016
2.87705
2.88266
2.887
2.89008
2.8919
2.89249
2.89185
2.88998
2.88689
2.8826
2.87712
2.87046
2.86264
2.85368
2.8436
2.83241
2.82014
2.80681
2.79245
2.77707
2.7607
2.74337
2.7251
2.70591
2.68582
2.66487
2.64307
2.62045
2.59703
2.57284
2.54789
2.5222
2.4958
2.46871
2.44095
2.41253
2.38347
2.35379
2.32351
2.29265
2.26122
2.22923
2.19671
2.16367
2.13013
2.09611
2.06162
2.02668
1.99131
1.95553
1.91935
1.8828
1.84591
1.80868
1.77115
1.73333
1.69525
1.65694
1.61842
1.57972
1.54086
1.50188
1.4628
1.42366
1.38447
1.34528
1.30612
1.26701
1.228
1.18912
1.15039
1.11186
1.07356
1.03553
0.997789
0.960389
0.92336
0.886737
0.850555
0.81485
0.779656
0.745008
0.710939
0.677483
0.644674
0.612546
0.581132
0.550468
0.520594
0.491554
0.463404
0.436212
0.410053
0.384972
0.360931
0.338574
0.317138
0.296148
0.275513
0.255385
0.235315
0.215892
0.19695
0.179859
0.162676
0.146469
0.131689
0.118457
0.106623
0.0960463
0.0867362
0.0789286
0.0732381
0.0712451
0.0784111
0.127318
0.250038
0.166114
0.153729
0.159248
0.172423
0.190094
0.210842
0.23368
0.257973
0.283358
0.309589
0.336593
0.364402
0.393179
0.422975
0.453785
0.485583
0.518344
0.55205
0.586684
0.622237
0.658696
0.696052
0.734291
0.773397
0.81335
0.854125
0.895693
0.938019
0.981065
1.02479
1.06914
1.11406
1.15951
1.20541
1.25172
1.29837
1.34529
1.39242
1.43968
1.48702
1.53437
1.58165
1.62881
1.67577
1.72247
1.76885
1.81484
1.86039
1.90544
1.94993
1.9938
2.03702
2.07951
2.12125
2.16217
2.20225
2.24143
2.27968
2.31697
2.35326
2.38852
2.42271
2.45582
2.48781
2.51867
2.54837
2.57688
2.60421
2.63032
2.6552
2.67884
2.70123
2.72236
2.74222
2.7608
2.7781
2.7941
2.80882
2.82225
2.83438
2.84521
2.85475
2.86301
2.86998
2.87567
2.88008
2.88324
2.88515
2.88581
2.88525
2.88345
2.88044
2.87624
2.87084
2.86427
2.85654
2.84768
2.83769
2.82661
2.81445
2.80123
2.78698
2.77172
2.75547
2.73826
2.72011
2.70104
2.68108
2.66025
2.63858
2.61609
2.5928
2.56874
2.54392
2.51837
2.49211
2.46515
2.43753
2.40924
2.38033
2.35079
2.32066
2.28994
2.25866
2.22682
2.19446
2.16157
2.12819
2.09433
2.06
2.02523
1.99003
1.95442
1.91842
1.88204
1.84532
1.80828
1.77093
1.73329
1.6954
1.65727
1.61894
1.58042
1.54175
1.50295
1.46406
1.4251
1.38609
1.34709
1.3081
1.26918
1.23034
1.19163
1.15308
1.11472
1.07659
1.03871
1.00114
0.963897
0.927024
0.890554
0.854523
0.818966
0.783918
0.749413
0.715486
0.682172
0.649503
0.617514
0.586239
0.555714
0.525976
0.497067
0.469032
0.44192
0.41578
0.39064
0.36648
0.343326
0.321055
0.299519
0.27863
0.258398
0.238821
0.220006
0.201909
0.184621
0.168357
0.153019
0.138671
0.125572
0.113821
0.103458
0.0946163
0.0876408
0.0833314
0.0837199
0.095642
0.158533
0.250043
0.166103
0.153713
0.159226
0.172398
0.190074
0.210818
0.233661
0.257966
0.283353
0.309577
0.336583
0.364381
0.393149
0.42294
0.453749
0.485546
0.518308
0.552014
0.586649
0.622202
0.658661
0.696017
0.734256
0.773362
0.813315
0.854091
0.895659
0.937985
0.981031
1.02475
1.0691
1.11403
1.15947
1.20538
1.25169
1.29834
1.34526
1.39239
1.43965
1.487
1.53434
1.58163
1.62878
1.67574
1.72244
1.76882
1.81482
1.86037
1.90542
1.94991
1.99379
2.037
2.0795
2.12123
2.16216
2.20223
2.24142
2.27967
2.31696
2.35325
2.38851
2.42271
2.45581
2.48781
2.51866
2.54836
2.57688
2.6042
2.63031
2.6552
2.67884
2.70123
2.72236
2.74222
2.7608
2.7781
2.79411
2.80883
2.82225
2.83438
2.84522
2.85476
2.86301
2.86998
2.87567
2.88009
2.88325
2.88516
2.88583
2.88526
2.88346
2.88046
2.87625
2.87085
2.86428
2.85656
2.84769
2.83771
2.82663
2.81447
2.80125
2.787
2.77174
2.75549
2.73828
2.72012
2.70106
2.6811
2.66027
2.6386
2.61611
2.59283
2.56876
2.54394
2.51839
2.49213
2.46518
2.43755
2.40927
2.38035
2.35082
2.32068
2.28996
2.25868
2.22685
2.19448
2.1616
2.12822
2.09436
2.06003
2.02525
1.99005
1.95444
1.91844
1.88207
1.84535
1.8083
1.77095
1.73331
1.69542
1.6573
1.61896
1.58044
1.54177
1.50298
1.46408
1.42512
1.38612
1.34711
1.30813
1.2692
1.23037
1.19166
1.1531
1.11474
1.07661
1.03873
1.00116
0.963916
0.927043
0.890572
0.854541
0.818983
0.783935
0.74943
0.715502
0.682187
0.649518
0.617529
0.586253
0.555728
0.525989
0.49708
0.469044
0.441932
0.41579
0.390647
0.366477
0.343326
0.321061
0.299528
0.278646
0.258426
0.238841
0.219958
0.201785
0.184581
0.168197
0.152772
0.138489
0.125476
0.113779
0.103442
0.0946099
0.0876383
0.0833304
0.0837204
0.0956475
0.158532
0.292296
0.195511
0.179085
0.183069
0.195492
0.212726
0.23322
0.256066
0.280683
0.306693
0.333835
0.361953
0.39098
0.420905
0.451725
0.483432
0.516013
0.549459
0.583761
0.618912
0.65491
0.691751
0.72943
0.767941
0.807275
0.847419
0.888354
0.930057
0.972499
1.01565
1.05946
1.1039
1.14892
1.19446
1.24046
1.28688
1.33365
1.38071
1.42798
1.47542
1.52294
1.57049
1.61799
1.66539
1.7126
1.75958
1.80625
1.85255
1.89843
1.94382
1.98866
2.0329
2.07649
2.11937
2.1615
2.20284
2.24332
2.28292
2.3216
2.35931
2.39602
2.4317
2.46632
2.49985
2.53226
2.56352
2.59362
2.62254
2.65025
2.67674
2.70199
2.72599
2.74872
2.77018
2.79036
2.80924
2.82683
2.84311
2.85809
2.87176
2.88411
2.89516
2.90489
2.91332
2.92045
2.92628
2.93082
2.93408
2.93606
2.93679
2.93626
2.93448
2.93148
2.92725
2.92182
2.9152
2.90741
2.89847
2.88838
2.87719
2.8649
2.85154
2.83712
2.82169
2.80525
2.78783
2.76945
2.75015
2.72994
2.70884
2.68689
2.6641
2.6405
2.61612
2.59096
2.56506
2.53843
2.5111
2.48308
2.4544
2.42507
2.39511
2.36454
2.33338
2.30164
2.26935
2.23651
2.20314
2.16927
2.13492
2.10008
2.0648
2.02908
1.99295
1.95642
1.91951
1.88225
1.84466
1.80676
1.76857
1.73012
1.69143
1.65253
1.61345
1.57421
1.53484
1.49537
1.45583
1.41625
1.37666
1.3371
1.2976
1.25818
1.21889
1.17976
1.14082
1.10212
1.06367
1.02553
0.987727
0.950295
0.913272
0.876694
0.840597
0.805016
0.769987
0.735545
0.701724
0.668558
0.636083
0.604331
0.573338
0.543138
0.513768
0.485263
0.457659
0.430984
0.405253
0.380456
0.356572
0.333555
0.311351
0.289921
0.26926
0.249379
0.230316
0.212088
0.194738
0.178345
0.162957
0.14865
0.135547
0.123764
0.113441
0.104817
0.0983636
0.0950849
0.0974772
0.113781
0.18955
0.292301
0.195517
0.179079
0.183047
0.195467
0.212701
0.233194
0.25604
0.280659
0.306669
0.333809
0.361925
0.390948
0.42087
0.451689
0.483395
0.515976
0.549422
0.583724
0.618876
0.654873
0.691714
0.729393
0.767904
0.807239
0.847383
0.888318
0.930021
0.972464
1.01561
1.05943
1.10387
1.14888
1.19442
1.24043
1.28685
1.33362
1.38067
1.42795
1.47539
1.52291
1.57046
1.61797
1.66536
1.71258
1.75955
1.80623
1.85253
1.89841
1.94379
1.98864
2.03288
2.07647
2.11936
2.16149
2.20282
2.24331
2.28291
2.32158
2.3593
2.39601
2.43169
2.46631
2.49984
2.53225
2.56351
2.59362
2.62253
2.65024
2.67673
2.70198
2.72598
2.74872
2.77018
2.79036
2.80924
2.82683
2.84312
2.85809
2.87176
2.88412
2.89516
2.9049
2.91333
2.92045
2.92628
2.93082
2.93408
2.93607
2.9368
2.93627
2.9345
2.93149
2.92727
2.92184
2.91522
2.90743
2.89848
2.8884
2.8772
2.86491
2.85155
2.83714
2.8217
2.80526
2.78784
2.76947
2.75017
2.72996
2.70886
2.68691
2.66412
2.64053
2.61614
2.59098
2.56508
2.53845
2.51112
2.48311
2.45442
2.42509
2.39514
2.36457
2.33341
2.30167
2.26937
2.23653
2.20317
2.1693
2.13494
2.10011
2.06483
2.02911
1.99297
1.95644
1.91954
1.88228
1.84468
1.80678
1.7686
1.73015
1.69146
1.65256
1.61347
1.57423
1.53486
1.49539
1.45585
1.41627
1.37669
1.33713
1.29762
1.25821
1.21891
1.17978
1.14085
1.10214
1.0637
1.02555
0.987747
0.950315
0.913291
0.876713
0.840615
0.805034
0.770004
0.735561
0.70174
0.668574
0.636098
0.604346
0.573352
0.543152
0.513781
0.485276
0.457671
0.430995
0.405262
0.380462
0.356576
0.333559
0.311355
0.289926
0.269268
0.249387
0.230311
0.212066
0.194723
0.178315
0.16291
0.148611
0.135525
0.123754
0.113437
0.104816
0.0983642
0.0950859
0.0974795
0.113789
0.18955
0.329251
0.225344
0.207605
0.211141
0.223325
0.24068
0.261623
0.285213
0.310833
0.33806
0.36659
0.396214
0.426795
0.458251
0.490532
0.523607
0.557457
0.59207
0.627442
0.663572
0.700464
0.73812
0.776545
0.815739
0.8557
0.896424
0.937898
0.980106
1.02303
1.06663
1.11089
1.15576
1.2012
1.24716
1.29359
1.34044
1.38764
1.43514
1.48288
1.53078
1.57879
1.62683
1.67484
1.72276
1.77051
1.81804
1.86528
1.91216
1.95862
2.00461
2.05006
2.09492
2.13914
2.18265
2.22542
2.26739
2.30852
2.34876
2.38807
2.42642
2.46376
2.50007
2.53531
2.56945
2.60245
2.63431
2.66499
2.69447
2.72272
2.74974
2.77551
2.8
2.82321
2.84513
2.86574
2.88504
2.90302
2.91967
2.93499
2.94897
2.96163
2.97294
2.98292
2.99157
2.99889
3.00488
3.00956
3.01293
3.015
3.01578
3.01528
3.0135
3.01047
3.00619
3.00068
2.99395
2.98603
2.97692
2.96666
2.95526
2.94274
2.92912
2.91443
2.89869
2.88192
2.86415
2.84541
2.8257
2.80507
2.78354
2.76112
2.73785
2.71374
2.68882
2.66311
2.63664
2.60942
2.58148
2.55283
2.5235
2.4935
2.46286
2.43159
2.39971
2.36724
2.33419
2.30059
2.26645
2.23179
2.19662
2.16098
2.12486
2.08831
2.05132
2.01393
1.97616
1.93802
1.89954
1.86074
1.82165
1.78229
1.74269
1.70287
1.66286
1.62269
1.58239
1.54198
1.50151
1.46099
1.42046
1.37995
1.33951
1.29915
1.25892
1.21886
1.17899
1.13936
1.09999
1.06094
1.02222
0.983892
0.945979
0.908521
0.871555
0.835117
0.799244
0.76397
0.729333
0.695365
0.662101
0.629575
0.59782
0.566869
0.536752
0.5075
0.47914
0.45169
0.425161
0.39955
0.374842
0.351015
0.328049
0.305926
0.284643
0.264209
0.244645
0.225975
0.208233
0.191472
0.17575
0.161149
0.147774
0.13576
0.125298
0.116705
0.110565
0.108088
0.112248
0.13272
0.220524
0.329255
0.225408
0.207631
0.211122
0.2233
0.240655
0.261597
0.285186
0.310806
0.338031
0.36656
0.396182
0.426761
0.458215
0.490495
0.523569
0.557418
0.592031
0.627403
0.663534
0.700425
0.738081
0.776506
0.8157
0.855661
0.896385
0.937859
0.980067
1.02299
1.06659
1.11085
1.15572
1.20116
1.24712
1.29356
1.3404
1.38761
1.43511
1.48284
1.53075
1.57875
1.6268
1.67481
1.72273
1.77048
1.81801
1.86525
1.91213
1.9586
2.00459
2.05004
2.0949
2.13912
2.18263
2.2254
2.26737
2.3085
2.34874
2.38806
2.4264
2.46375
2.50006
2.53529
2.56943
2.60244
2.6343
2.66498
2.69446
2.72271
2.74973
2.7755
2.8
2.82321
2.84512
2.86574
2.88504
2.90302
2.91967
2.93499
2.94898
2.96163
2.97294
2.98292
2.99157
2.99889
3.00489
3.00957
3.01294
3.01501
3.01579
3.01528
3.01351
3.01048
3.0062
3.00069
2.99396
2.98604
2.97694
2.96668
2.95527
2.94275
2.92914
2.91445
2.89871
2.88194
2.86417
2.84542
2.82572
2.80509
2.78356
2.76114
2.73787
2.71376
2.68884
2.66313
2.63666
2.60944
2.5815
2.55285
2.52352
2.49353
2.46288
2.43161
2.39973
2.36726
2.33422
2.30061
2.26647
2.23181
2.19665
2.161
2.12489
2.08833
2.05135
2.01396
1.97618
1.93804
1.89956
1.86077
1.82168
1.78232
1.74272
1.7029
1.66289
1.62272
1.58241
1.54201
1.50153
1.46101
1.42048
1.37998
1.33953
1.29918
1.25895
1.21888
1.17901
1.13938
1.10001
1.06096
1.02224
0.983911
0.945998
0.908539
0.871573
0.835134
0.79926
0.763987
0.729348
0.69538
0.662116
0.629589
0.597834
0.566882
0.536765
0.507512
0.479151
0.451701
0.425171
0.399558
0.374849
0.351022
0.328054
0.305931
0.284648
0.264214
0.244647
0.225973
0.208232
0.191469
0.175745
0.161145
0.147772
0.13576
0.1253
0.116707
0.110568
0.108091
0.112252
0.132728
0.220521
0.353905
0.255067
0.240325
0.2441
0.25611
0.273746
0.295464
0.320207
0.347251
0.37609
0.406358
0.437791
0.4702
0.503456
0.537472
0.572194
0.607588
0.643639
0.680341
0.717696
0.755714
0.794405
0.83378
0.873848
0.914615
0.956085
0.998254
1.04111
1.08465
1.12884
1.17366
1.21907
1.26504
1.31152
1.35847
1.40583
1.45356
1.50158
1.54985
1.59829
1.64685
1.69545
1.74404
1.79254
1.84089
1.88903
1.93689
1.98441
2.03152
2.07816
2.12427
2.1698
2.21469
2.25889
2.30235
2.345
2.38682
2.42775
2.46775
2.50678
2.54481
2.58179
2.61769
2.65248
2.68614
2.71862
2.74992
2.78
2.80885
2.83644
2.86276
2.88778
2.91151
2.93391
2.95499
2.97474
2.99313
3.01018
3.02587
3.0402
3.05317
3.06477
3.07501
3.08389
3.09141
3.09758
3.10241
3.10589
3.10804
3.10887
3.10839
3.10661
3.10353
3.09918
3.09357
3.08672
3.07864
3.06935
3.05888
3.04723
3.03444
3.02053
3.00551
2.98942
2.97227
2.95409
2.9349
2.91474
2.89362
2.87157
2.84861
2.82476
2.80006
2.77453
2.74817
2.72103
2.69312
2.66446
2.63508
2.60499
2.57421
2.54276
2.51067
2.47794
2.44461
2.41068
2.37618
2.34112
2.30553
2.26942
2.23281
2.19572
2.15817
2.12018
2.08177
2.04297
2.00379
1.96426
1.92441
1.88425
1.84381
1.80313
1.76222
1.72111
1.67984
1.63843
1.59691
1.55532
1.51369
1.47204
1.43042
1.38886
1.34739
1.30605
1.26488
1.22391
1.18318
1.14272
1.10258
1.0628
1.0234
0.984437
0.945939
0.907945
0.870494
0.833622
0.797365
0.761759
0.72684
0.692641
0.659195
0.626535
0.59469
0.563689
0.533558
0.504319
0.475989
0.448575
0.422079
0.396495
0.371815
0.348028
0.325128
0.303115
0.281996
0.261787
0.242512
0.224202
0.206904
0.190679
0.175609
0.161806
0.149425
0.138695
0.129997
0.124015
0.122157
0.127864
0.152181
0.251429
0.353923
0.255248
0.24037
0.244059
0.256074
0.273719
0.295438
0.320179
0.347222
0.376059
0.406325
0.437757
0.470164
0.503419
0.537434
0.572155
0.607549
0.643599
0.6803
0.717656
0.755673
0.794364
0.833738
0.873806
0.914574
0.956044
0.998213
1.04107
1.08461
1.1288
1.17361
1.21903
1.265
1.31148
1.35843
1.4058
1.45352
1.50155
1.54981
1.59826
1.64681
1.69542
1.744
1.79251
1.84086
1.889
1.93686
1.98438
2.03149
2.07813
2.12424
2.16978
2.21467
2.25887
2.30232
2.34498
2.3868
2.42773
2.46773
2.50677
2.54479
2.58177
2.61767
2.65247
2.68612
2.71861
2.74991
2.77999
2.80884
2.83643
2.86275
2.88777
2.9115
2.93391
2.95499
2.97473
2.99313
3.01018
3.02587
3.0402
3.05317
3.06477
3.07501
3.08389
3.09142
3.09759
3.10241
3.10589
3.10805
3.10888
3.1084
3.10661
3.10354
3.09919
3.09358
3.08673
3.07865
3.06937
3.05889
3.04725
3.03446
3.02054
3.00552
2.98943
2.97228
2.9541
2.93492
2.91476
2.89364
2.87158
2.84862
2.82478
2.80008
2.77454
2.74819
2.72105
2.69314
2.66448
2.6351
2.60501
2.57423
2.54278
2.51069
2.47797
2.44463
2.4107
2.3762
2.34115
2.30555
2.26944
2.23283
2.19574
2.15819
2.1202
2.0818
2.04299
2.00381
1.96429
1.92443
1.88427
1.84384
1.80315
1.76224
1.72113
1.67986
1.63845
1.59694
1.55534
1.51371
1.47206
1.43044
1.38888
1.34741
1.30607
1.2649
1.22393
1.1832
1.14274
1.1026
1.06282
1.02342
0.984455
0.945957
0.907963
0.870511
0.833638
0.797381
0.761775
0.726855
0.692655
0.659209
0.626548
0.594702
0.563701
0.53357
0.50433
0.475999
0.448584
0.422087
0.396503
0.371822
0.348034
0.325134
0.303121
0.282002
0.261792
0.242516
0.224206
0.206907
0.190682
0.175612
0.161809
0.149428
0.138699
0.130001
0.124019
0.12216
0.127865
0.152183
0.251409
0.355138
0.28816
0.278903
0.282283
0.293814
0.31176
0.334461
0.360644
0.389422
0.420174
0.452456
0.485944
0.520401
0.555658
0.591598
0.628144
0.66525
0.702892
0.741065
0.779774
0.819031
0.858855
0.899264
0.940277
0.981909
1.02417
1.06707
1.1106
1.15476
1.19954
1.24492
1.29086
1.33734
1.38432
1.43176
1.4796
1.52781
1.57631
1.62506
1.67399
1.72305
1.77216
1.82126
1.87029
1.91919
1.96788
2.0163
2.06439
2.11208
2.15932
2.20604
2.25219
2.2977
2.34253
2.38661
2.42991
2.47237
2.51394
2.55459
2.59426
2.63292
2.67053
2.70706
2.74248
2.77674
2.80983
2.84172
2.87238
2.90179
2.92992
2.95677
2.98231
3.00653
3.02941
3.05094
3.07112
3.08992
3.10735
3.1234
3.13807
3.15134
3.16323
3.17372
3.18283
3.19055
3.19689
3.20185
3.20544
3.20768
3.20855
3.20809
3.20629
3.20318
3.19876
3.19305
3.18606
3.17782
3.16834
3.15765
3.14575
3.13268
3.11846
3.1031
3.08664
3.0691
3.05049
3.03085
3.01021
2.98858
2.96599
2.94246
2.91802
2.8927
2.86652
2.83949
2.81165
2.78301
2.7536
2.72344
2.69255
2.66095
2.62866
2.5957
2.56208
2.52784
2.49298
2.45753
2.42151
2.38493
2.34781
2.31018
2.27205
2.23345
2.1944
2.15491
2.11502
2.07473
2.03409
1.99311
1.95181
1.91023
1.86839
1.82632
1.78405
1.7416
1.69902
1.65632
1.61354
1.57072
1.52789
1.48508
1.44233
1.39967
1.35715
1.3148
1.27266
1.23076
1.18914
1.14785
1.10693
1.0664
1.02631
0.98671
0.947624
0.909094
0.87116
0.833856
0.79722
0.761287
0.726091
0.691664
0.658038
0.62524
0.593299
0.562236
0.532072
0.502821
0.474493
0.447092
0.420616
0.395062
0.370428
0.34671
0.323912
0.302039
0.281105
0.261134
0.242156
0.224219
0.207385
0.191743
0.177415
0.164576
0.153491
0.14459
0.138649
0.137252
0.144261
0.171992
0.281602
0.355145
0.28826
0.278788
0.282144
0.29374
0.311721
0.334432
0.360616
0.389392
0.420142
0.452422
0.485908
0.520364
0.555619
0.591558
0.628103
0.665208
0.70285
0.741022
0.77973
0.818987
0.858811
0.89922
0.940232
0.981864
1.02413
1.06702
1.11056
1.15472
1.1995
1.24487
1.29082
1.3373
1.38428
1.43172
1.47956
1.52777
1.57627
1.62502
1.67395
1.72301
1.77212
1.82123
1.87026
1.91915
1.96784
2.01626
2.06436
2.11205
2.15929
2.20601
2.25216
2.29767
2.3425
2.38659
2.42989
2.47234
2.51392
2.55456
2.59424
2.6329
2.67051
2.70704
2.74246
2.77672
2.80981
2.8417
2.87236
2.90177
2.92991
2.95676
2.9823
3.00652
3.0294
3.05093
3.07111
3.08991
3.10735
3.1234
3.13806
3.15134
3.16322
3.17372
3.18283
3.19055
3.19689
3.20185
3.20545
3.20768
3.20856
3.20809
3.2063
3.20318
3.19876
3.19305
3.18607
3.17783
3.16835
3.15765
3.14576
3.13269
3.11847
3.10311
3.08665
3.06911
3.05051
3.03087
3.01022
2.98859
2.966
2.94248
2.91804
2.89272
2.86653
2.83951
2.81167
2.78303
2.75362
2.72346
2.69257
2.66097
2.62868
2.59572
2.5621
2.52786
2.493
2.45755
2.42153
2.38495
2.34783
2.3102
2.27208
2.23347
2.19442
2.15493
2.11504
2.07476
2.03411
1.99313
1.95184
1.91026
1.86842
1.82635
1.78407
1.74163
1.69904
1.65634
1.61356
1.57074
1.52791
1.4851
1.44235
1.39969
1.35717
1.31482
1.27268
1.23078
1.18916
1.14787
1.10694
1.06642
1.02633
0.986727
0.94764
0.90911
0.871175
0.833871