/*--------------------------------*- C++ -*----------------------------------*\
  =========                 |
  \\      /  F ield         | OpenFOAM: The Open Source CFD Toolbox
   \\    /   O peration     | Website:  https://openfoam.org
    \\  /    A nd           | Version:  8
     \\/     M anipulation  |
\*---------------------------------------------------------------------------*/
FoamFile
{
    version     2.0;
    format      ascii;
    class       volScalarField;
    location    "400";
    object      nut;
}
// * * * * * * * * * * * * * * * * * * * * * * * * * * * * * * * * * * * * * //

dimensions      [0 2 -1 0 0 0 0];

internalField   nonuniform List<scalar> 
48000
(
5.60996e-05
9.94428e-05
0.000131869
0.00016013
0.000182014
0.000194836
0.000197308
3.76671e-05
3.65301e-05
3.35061e-05
3.68079e-05
4.39493e-05
5.0065e-05
5.02209e-05
5.15548e-05
5.29904e-05
5.43964e-05
5.57609e-05
5.70862e-05
5.83761e-05
5.96336e-05
6.08614e-05
6.20616e-05
6.32359e-05
6.43859e-05
6.55126e-05
6.66169e-05
6.76995e-05
6.8761e-05
6.98017e-05
7.0822e-05
7.1822e-05
7.28021e-05
7.37622e-05
7.47024e-05
7.56227e-05
7.65232e-05
7.74038e-05
7.82645e-05
7.91053e-05
7.99262e-05
8.07272e-05
8.15083e-05
8.22696e-05
8.3011e-05
8.37326e-05
8.44344e-05
8.51166e-05
8.57793e-05
8.64225e-05
8.70463e-05
8.7651e-05
8.82365e-05
8.88031e-05
8.93509e-05
8.98801e-05
9.03908e-05
9.08832e-05
9.13575e-05
9.18138e-05
9.22523e-05
9.26733e-05
9.30768e-05
9.34631e-05
9.38323e-05
9.41847e-05
9.45203e-05
9.48394e-05
9.51422e-05
9.54287e-05
9.56992e-05
9.59538e-05
9.61927e-05
9.6416e-05
9.66239e-05
9.68165e-05
9.69939e-05
9.71562e-05
9.73037e-05
9.74364e-05
9.75544e-05
9.76578e-05
9.77468e-05
9.78215e-05
9.7882e-05
9.79283e-05
9.79607e-05
9.79792e-05
9.7984e-05
9.79768e-05
9.79564e-05
9.79224e-05
9.7875e-05
9.78142e-05
9.77402e-05
9.76532e-05
9.75532e-05
9.74405e-05
9.73151e-05
9.71772e-05
9.70269e-05
9.68644e-05
9.66898e-05
9.65032e-05
9.63048e-05
9.60946e-05
9.58729e-05
9.56398e-05
9.53952e-05
9.51394e-05
9.48723e-05
9.4594e-05
9.43046e-05
9.40041e-05
9.36927e-05
9.33703e-05
9.3037e-05
9.26926e-05
9.23372e-05
9.19706e-05
9.15928e-05
9.12039e-05
9.08038e-05
9.03925e-05
8.99699e-05
8.95359e-05
8.90901e-05
8.86326e-05
8.81633e-05
8.7682e-05
8.71889e-05
8.66838e-05
8.61666e-05
8.56371e-05
8.50951e-05
8.45405e-05
8.39732e-05
8.33932e-05
8.28005e-05
8.21948e-05
8.15762e-05
8.09443e-05
8.02992e-05
7.96407e-05
7.89687e-05
7.82832e-05
7.75843e-05
7.68718e-05
7.61456e-05
7.54056e-05
7.46519e-05
7.38843e-05
7.31029e-05
7.23077e-05
7.14986e-05
7.06757e-05
6.98388e-05
6.8988e-05
6.81232e-05
6.72445e-05
6.63519e-05
6.54454e-05
6.45251e-05
6.35911e-05
6.26433e-05
6.16818e-05
6.07065e-05
5.97174e-05
5.87146e-05
5.76981e-05
5.66678e-05
5.56237e-05
5.45654e-05
5.34929e-05
5.24064e-05
5.13096e-05
5.02282e-05
4.93673e-05
5.06013e-05
4.65759e-05
4.63194e-05
4.55631e-05
4.43691e-05
4.4905e-05
0.000232559
0.000229545
0.000222888
0.000214803
0.00020343
0.000188931
0.000187144
0.000180443
0.000167573
0.000151035
0.0001326
0.000113096
9.28352e-05
7.18219e-05
4.96195e-05
2.26902e-05
5.61044e-05
9.94495e-05
0.000131878
0.000160147
0.000182056
0.00019493
0.000197201
3.7623e-05
3.65477e-05
3.35366e-05
3.6772e-05
4.39227e-05
5.01026e-05
5.02345e-05
5.15593e-05
5.29922e-05
5.43976e-05
5.57619e-05
5.70871e-05
5.83769e-05
5.96343e-05
6.08621e-05
6.20622e-05
6.32366e-05
6.43865e-05
6.55132e-05
6.66174e-05
6.77e-05
6.87614e-05
6.98021e-05
7.08223e-05
7.18224e-05
7.28024e-05
7.37625e-05
7.47027e-05
7.5623e-05
7.65234e-05
7.7404e-05
7.82647e-05
7.91055e-05
7.99264e-05
8.07274e-05
8.15085e-05
8.22697e-05
8.30111e-05
8.37327e-05
8.44345e-05
8.51168e-05
8.57794e-05
8.64226e-05
8.70464e-05
8.7651e-05
8.82366e-05
8.88031e-05
8.93509e-05
8.98801e-05
9.03908e-05
9.08832e-05
9.13575e-05
9.18138e-05
9.22523e-05
9.26732e-05
9.30768e-05
9.3463e-05
9.38323e-05
9.41846e-05
9.45203e-05
9.48394e-05
9.51421e-05
9.54286e-05
9.56991e-05
9.59538e-05
9.61926e-05
9.64159e-05
9.66238e-05
9.68163e-05
9.69937e-05
9.71561e-05
9.73035e-05
9.74362e-05
9.75542e-05
9.76576e-05
9.77466e-05
9.78212e-05
9.78817e-05
9.7928e-05
9.79603e-05
9.79788e-05
9.79837e-05
9.79764e-05
9.7956e-05
9.7922e-05
9.78746e-05
9.78138e-05
9.77398e-05
9.76528e-05
9.75528e-05
9.74401e-05
9.73147e-05
9.71768e-05
9.70265e-05
9.6864e-05
9.66894e-05
9.65027e-05
9.63043e-05
9.60942e-05
9.58724e-05
9.56393e-05
9.53947e-05
9.51389e-05
9.48718e-05
9.45935e-05
9.43041e-05
9.40036e-05
9.36922e-05
9.33698e-05
9.30364e-05
9.2692e-05
9.23366e-05
9.197e-05
9.15923e-05
9.12035e-05
9.08034e-05
9.03921e-05
8.99695e-05
8.95353e-05
8.90895e-05
8.8632e-05
8.81627e-05
8.76815e-05
8.71885e-05
8.66834e-05
8.61661e-05
8.56365e-05
8.50945e-05
8.45399e-05
8.39727e-05
8.33928e-05
8.28001e-05
8.21945e-05
8.15758e-05
8.09439e-05
8.02988e-05
7.96402e-05
7.89682e-05
7.82828e-05
7.75839e-05
7.68714e-05
7.61452e-05
7.54052e-05
7.46514e-05
7.38839e-05
7.31025e-05
7.23073e-05
7.14983e-05
7.06754e-05
6.98385e-05
6.89877e-05
6.81228e-05
6.7244e-05
6.63514e-05
6.54449e-05
6.45247e-05
6.35906e-05
6.26428e-05
6.16813e-05
6.07059e-05
5.97169e-05
5.87141e-05
5.76976e-05
5.66674e-05
5.56233e-05
5.45651e-05
5.34925e-05
5.24059e-05
5.13087e-05
5.02254e-05
4.93574e-05
5.05692e-05
4.65453e-05
4.63182e-05
4.55697e-05
4.43865e-05
4.50125e-05
0.000234261
0.000233651
0.000221459
3.80106e-05
0.00020642
0.000202772
0.000195214
0.000183617
0.00016858
0.000151321
0.000132675
0.000113113
9.28379e-05
7.18213e-05
4.9618e-05
2.26886e-05
6.73965e-05
0.000190887
0.000281579
0.000346511
0.000390293
0.000406094
0.000378512
0.000311057
0.000319187
0.000360303
0.000382937
0.000390749
0.000470161
0.000501048
0.000520325
0.000536818
0.000552201
0.000566856
0.000580925
0.000594486
0.000607596
0.000620298
0.000632629
0.000644617
0.000656286
0.000667656
0.000678742
0.000689559
0.000700118
0.000710427
0.000720495
0.000730328
0.000739932
0.00074931
0.000758467
0.000767405
0.000776128
0.000784637
0.000792934
0.000801022
0.000808901
0.000816575
0.000824044
0.000831309
0.000838374
0.000845238
0.000851904
0.000858374
0.000864648
0.00087073
0.000876621
0.000882323
0.000887837
0.000893166
0.000898311
0.000903274
0.000908058
0.000912665
0.000917095
0.000921352
0.000925438
0.000929353
0.0009331
0.000936681
0.000940097
0.000943351
0.000946444
0.000949378
0.000952154
0.000954774
0.000957239
0.000959551
0.000961711
0.000963721
0.000965581
0.000967294
0.00096886
0.000970281
0.000971557
0.00097269
0.00097368
0.00097453
0.000975239
0.000975809
0.000976241
0.000976535
0.000976693
0.000976716
0.000976604
0.000976327
0.000975903
0.000975342
0.000974648
0.000973823
0.000972871
0.000971793
0.000970589
0.000969263
0.000967814
0.000966245
0.000964556
0.00096275
0.000960827
0.000958788
0.000956634
0.000954368
0.000951988
0.000949498
0.000946896
0.000944183
0.000941361
0.000938429
0.000935387
0.000932235
0.000928974
0.000925603
0.000922122
0.00091853
0.000914827
0.000911012
0.000907084
0.000903043
0.000898888
0.000894618
0.000890232
0.00088573
0.000881109
0.000876369
0.000871509
0.000866529
0.000861428
0.000856204
0.000850857
0.000845386
0.00083979
0.000834067
0.000828218
0.000822242
0.000816138
0.000809905
0.000803542
0.00079705
0.000790426
0.000783672
0.000776786
0.000769768
0.000762618
0.000755335
0.000747921
0.000740374
0.000732694
0.000724882
0.000716939
0.000708863
0.000700656
0.000692319
0.000683851
0.000675254
0.000666527
0.000657672
0.00064869
0.000639582
0.000630349
0.000620992
0.000611511
0.000601908
0.000592183
0.000582337
0.000572369
0.00056228
0.000552069
0.000541733
0.000531266
0.000520661
0.000509898
0.000498939
0.000487599
0.000474711
0.000452223
0.00038575
0.000360254
0.000346863
0.000338986
0.000344122
0.000415616
0.000420328
0.000419278
0.000424988
0.000400041
0.000389325
0.000415772
0.000419187
0.00040397
0.000378597
0.000347155
0.000310355
0.000266253
0.000210446
0.000134004
3.58695e-05
6.74015e-05
0.000190929
0.000281638
0.000346563
0.000390247
0.000405856
0.000379437
0.000311787
0.000319058
0.000359893
0.000383275
0.000390662
0.000469474
0.000500867
0.000520318
0.000536849
0.000552237
0.000566892
0.000580959
0.000594519
0.000607627
0.000620329
0.000632659
0.000644646
0.000656314
0.000667683
0.000678769
0.000689585
0.000700142
0.000710451
0.000720518
0.000730351
0.000739954
0.000749331
0.000758487
0.000767425
0.000776147
0.000784655
0.000792952
0.000801039
0.000808919
0.000816592
0.00082406
0.000831325
0.000838389
0.000845253
0.000851919
0.000858388
0.000864662
0.000870744
0.000876634
0.000882336
0.000887849
0.000893178
0.000898323
0.000903286
0.00090807
0.000912676
0.000917106
0.000921363
0.000925448
0.000929363
0.00093311
0.000936691
0.000940107
0.000943361
0.000946454
0.000949387
0.000952163
0.000954783
0.000957248
0.00095956
0.00096172
0.000963729
0.00096559
0.000967302
0.000968868
0.000970289
0.000971565
0.000972698
0.000973688
0.000974537
0.000975247
0.000975816
0.000976248
0.000976542
0.0009767
0.000976723
0.000976611
0.000976334
0.00097591
0.000975349
0.000974655
0.00097383
0.000972878
0.000971799
0.000970596
0.000969269
0.000967821
0.000966251
0.000964562
0.000962756
0.000960832
0.000958793
0.00095664
0.000954373
0.000951994
0.000949503
0.000946901
0.000944188
0.000941366
0.000938433
0.000935391
0.00093224
0.000928978
0.000925607
0.000922126
0.000918535
0.000914831
0.000911016
0.000907088
0.000903047
0.000898892
0.000894622
0.000890236
0.000885733
0.000881112
0.000876372
0.000871512
0.000866532
0.000861431
0.000856207
0.00085086
0.000845388
0.000839792
0.00083407
0.000828221
0.000822244
0.00081614
0.000809907
0.000803544
0.000797052
0.000790428
0.000783673
0.000776787
0.000769769
0.000762619
0.000755337
0.000747922
0.000740375
0.000732696
0.000724884
0.00071694
0.000708864
0.000700658
0.00069232
0.000683852
0.000675255
0.000666528
0.000657673
0.000648691
0.000639583
0.00063035
0.000620992
0.000611511
0.000601908
0.000592183
0.000582337
0.000572369
0.00056228
0.000552069
0.000541733
0.000531266
0.00052066
0.000509897
0.000498941
0.000487632
0.00047492
0.000453019
0.000386375
0.000360296
0.000346667
0.000338687
0.000343798
0.00041643
0.000426697
0.000419836
0.000317357
0.000409698
0.000437104
0.00043989
0.000428009
0.000406748
0.00037941
0.000347391
0.000310429
0.000266283
0.000210459
0.000134003
3.58693e-05
9.11239e-05
0.000261418
0.000406639
0.00051651
0.000598252
0.000654488
0.000694285
0.000718172
0.00075545
0.000806276
0.00085679
0.000900955
0.000961844
0.00100859
0.00104788
0.00108344
0.00111663
0.00114803
0.00117794
0.00120656
0.00123402
0.00126045
0.00128594
0.00131056
0.00133438
0.00135745
0.00137983
0.00140154
0.00142263
0.00144313
0.00146305
0.00148243
0.00150128
0.00151963
0.00153747
0.00155483
0.00157172
0.00158815
0.00160412
0.00161966
0.00163475
0.00164942
0.00166366
0.00167749
0.00169091
0.00170392
0.00171654
0.00172876
0.0017406
0.00175206
0.00176314
0.00177384
0.00178419
0.00179417
0.00180379
0.00181307
0.00182199
0.00183058
0.00183883
0.00184674
0.00185433
0.00186159
0.00186853
0.00187516
0.00188147
0.00188747
0.00189316
0.00189856
0.00190365
0.00190845
0.00191295
0.00191716
0.00192108
0.00192472
0.00192807
0.00193114
0.00193394
0.00193645
0.00193869
0.00194066
0.00194235
0.00194378
0.00194493
0.00194582
0.00194645
0.00194681
0.00194691
0.00194674
0.00194632
0.00194561
0.00194463
0.00194339
0.00194189
0.00194014
0.00193814
0.0019359
0.00193342
0.0019307
0.00192774
0.00192456
0.00192114
0.00191749
0.00191361
0.00190952
0.0019052
0.00190065
0.00189589
0.00189091
0.00188572
0.0018803
0.00187467
0.00186883
0.00186277
0.00185649
0.00185
0.00184329
0.00183636
0.00182922
0.00182185
0.00181426
0.00180645
0.00179841
0.00179015
0.00178166
0.00177294
0.00176399
0.0017548
0.00174538
0.00173572
0.00172583
0.00171569
0.00170531
0.00169469
0.00168382
0.0016727
0.00166134
0.00164973
0.00163787
0.00162575
0.00161339
0.00160077
0.00158789
0.00157476
0.00156137
0.00154773
0.00153383
0.00151968
0.00150526
0.00149059
0.00147567
0.00146049
0.00144505
0.00142936
0.00141342
0.00139723
0.00138078
0.00136409
0.00134715
0.00132997
0.00131255
0.00129489
0.00127698
0.00125885
0.00124048
0.00122188
0.00120305
0.00118399
0.0011647
0.00114518
0.00112543
0.00110544
0.00108519
0.00106467
0.00104383
0.0010226
0.00100087
0.000978495
0.000955302
0.000929976
0.000889243
0.000854841
0.000825742
0.000800094
0.000778792
0.000774367
0.000758224
0.000744906
0.000731324
0.000708044
0.000692226
0.000688042
0.000673212
0.000644491
0.000604547
0.000554811
0.000494095
0.000418362
0.000320713
0.000193652
5.38291e-05
9.11272e-05
0.000261459
0.000406711
0.000516621
0.00059838
0.000654489
0.000694744
0.000717806
0.000754366
0.000805556
0.00085641
0.000899833
0.00096121
0.00100844
0.0010479
0.0010835
0.0011167
0.0011481
0.001178
0.00120661
0.00123408
0.0012605
0.00128599
0.00131061
0.00133442
0.00135749
0.00137987
0.00140158
0.00142266
0.00144316
0.00146308
0.00148246
0.00150131
0.00151965
0.00153749
0.00155485
0.00157174
0.00158816
0.00160414
0.00161967
0.00163476
0.00164943
0.00166367
0.0016775
0.00169091
0.00170393
0.00171654
0.00172876
0.0017406
0.00175205
0.00176313
0.00177384
0.00178418
0.00179416
0.00180379
0.00181306
0.00182199
0.00183057
0.00183882
0.00184673
0.00185432
0.00186158
0.00186852
0.00187514
0.00188145
0.00188746
0.00189315
0.00189854
0.00190364
0.00190843
0.00191293
0.00191714
0.00192107
0.0019247
0.00192805
0.00193112
0.00193392
0.00193643
0.00193867
0.00194064
0.00194233
0.00194376
0.00194491
0.0019458
0.00194643
0.00194679
0.00194689
0.00194672
0.0019463
0.00194559
0.00194461
0.00194336
0.00194186
0.00194011
0.00193812
0.00193588
0.00193339
0.00193067
0.00192772
0.00192453
0.00192111
0.00191746
0.00191359
0.00190949
0.00190517
0.00190063
0.00189587
0.00189089
0.00188569
0.00188028
0.00187465
0.0018688
0.00186274
0.00185646
0.00184997
0.00184326
0.00183633
0.00182919
0.00182182
0.00181423
0.00180642
0.00179838
0.00179012
0.00178163
0.00177291
0.00176396
0.00175477
0.00174535
0.00173569
0.00172579
0.00171566
0.00170528
0.00169466
0.00168379
0.00167267
0.00166131
0.0016497
0.00163784
0.00162572
0.00161336
0.00160073
0.00158786
0.00157473
0.00156134
0.0015477
0.0015338
0.00151964
0.00150523
0.00149056
0.00147563
0.00146045
0.00144502
0.00142933
0.00141339
0.00139719
0.00138075
0.00136406
0.00134712
0.00132994
0.00131252
0.00129485
0.00127695
0.00125882
0.00124045
0.00122185
0.00120302
0.00118396
0.00116467
0.00114515
0.0011254
0.00110541
0.00108516
0.00106464
0.00104379
0.00102256
0.00100082
0.000978434
0.000955236
0.000929944
0.000888392
0.00085338
0.000824098
0.000798518
0.000777559
0.0007754
0.000764083
0.00075207
0.000711625
0.000717863
0.00071492
0.000702591
0.000679666
0.000646859
0.000605326
0.000555052
0.000494169
0.000418387
0.00032072
0.000193644
5.38288e-05
0.000115506
0.000317993
0.000505394
0.000656592
0.000778313
0.000876752
0.000959946
0.00103368
0.00110452
0.00117484
0.00124407
0.00131041
0.0013763
0.00143701
0.00149304
0.00154538
0.00159468
0.00164141
0.0016859
0.00172839
0.00176909
0.00180816
0.00184573
0.00188193
0.00191684
0.00195057
0.00198317
0.00201473
0.00204528
0.00207489
0.0021036
0.00213145
0.00215846
0.00218468
0.00221013
0.00223483
0.0022588
0.00228207
0.00230465
0.00232656
0.00234782
0.00236843
0.00238842
0.0024078
0.00242657
0.00244475
0.00246235
0.00247938
0.00249585
0.00251177
0.00252715
0.002542
0.00255633
0.00257014
0.00258345
0.00259626
0.00260859
0.00262043
0.00263179
0.00264269
0.00265313
0.00266311
0.00267265
0.00268174
0.0026904
0.00269862
0.00270642
0.0027138
0.00272076
0.00272731
0.00273345
0.00273918
0.00274452
0.00274945
0.00275399
0.00275815
0.00276191
0.00276529
0.00276828
0.00277089
0.00277313
0.00277499
0.00277648
0.0027776
0.00277834
0.00277872
0.00277873
0.00277838
0.00277766
0.00277657
0.0027751
0.00277327
0.00277109
0.00276856
0.00276568
0.00276245
0.00275889
0.002755
0.00275078
0.00274622
0.00274135
0.00273615
0.00273063
0.0027248
0.00271866
0.0027122
0.00270543
0.00269835
0.00269097
0.00268327
0.00267528
0.00266697
0.00265836
0.00264944
0.00264022
0.00263069
0.00262084
0.00261069
0.00260022
0.00258943
0.00257833
0.00256691
0.00255517
0.0025431
0.00253071
0.00251798
0.00250493
0.00249154
0.00247781
0.00246374
0.00244933
0.00243458
0.00241949
0.00240404
0.00238825
0.0023721
0.0023556
0.00233875
0.00232154
0.00230397
0.00228604
0.00226776
0.00224911
0.00223011
0.00221074
0.00219101
0.00217092
0.00215047
0.00212966
0.00210849
0.00208696
0.00206508
0.00204285
0.00202026
0.00199732
0.00197403
0.0019504
0.00192643
0.00190212
0.00187748
0.0018525
0.0018272
0.00180157
0.00177563
0.00174936
0.00172277
0.00169587
0.00166865
0.00164111
0.00161323
0.00158501
0.00155643
0.00152744
0.00149797
0.00146794
0.00143717
0.00140549
0.00137273
0.00133883
0.00130135
0.00126349
0.00122649
0.00119082
0.00115659
0.00112599
0.00109493
0.00106592
0.00103711
0.00100525
0.000974255
0.000943782
0.000906626
0.000859495
0.000801403
0.000730978
0.000645227
0.000539073
0.000405654
0.000240874
7.13826e-05
0.000115508
0.00031803
0.000505457
0.000656681
0.000778407
0.00087677
0.000960095
0.00103358
0.00110414
0.00117452
0.0012439
0.00131007
0.00137615
0.00143702
0.00149313
0.00154547
0.00159478
0.00164151
0.00168599
0.00172847
0.00176917
0.00180823
0.0018458
0.00188199
0.0019169
0.00195062
0.00198323
0.00201478
0.00204533
0.00207494
0.00210364
0.00213148
0.0021585
0.00218471
0.00221015
0.00223485
0.00225882
0.00228209
0.00230467
0.00232658
0.00234783
0.00236844
0.00238843
0.0024078
0.00242657
0.00244475
0.00246235
0.00247938
0.00249584
0.00251176
0.00252714
0.00254199
0.00255632
0.00257013
0.00258344
0.00259625
0.00260857
0.00262041
0.00263178
0.00264267
0.00265311
0.00266309
0.00267263
0.00268172
0.00269037
0.0026986
0.0027064
0.00271377
0.00272073
0.00272728
0.00273342
0.00273915
0.00274448
0.00274942
0.00275396
0.00275811
0.00276187
0.00276525
0.00276825
0.00277086
0.00277309
0.00277495
0.00277644
0.00277756
0.0027783
0.00277868
0.00277869
0.00277834
0.00277762
0.00277652
0.00277506
0.00277323
0.00277105
0.00276851
0.00276563
0.00276241
0.00275885
0.00275496
0.00275073
0.00274618
0.0027413
0.00273611
0.00273059
0.00272476
0.00271861
0.00271215
0.00270538
0.0026983
0.00269092
0.00268322
0.00267523
0.00266692
0.00265831
0.00264939
0.00264017
0.00263063
0.00262079
0.00261064
0.00260017
0.00258938
0.00257828
0.00256686
0.00255512
0.00254305
0.00253065
0.00251793
0.00250487
0.00249148
0.00247775
0.00246369
0.00244928
0.00243453
0.00241943
0.00240399
0.00238819
0.00237204
0.00235555
0.00233869
0.00232148
0.00230391
0.00228599
0.0022677
0.00224905
0.00223005
0.00221068
0.00219095
0.00217086
0.00215041
0.0021296
0.00210843
0.00208691
0.00206502
0.00204279
0.0020202
0.00199726
0.00197397
0.00195034
0.00192637
0.00190206
0.00187742
0.00185245
0.00182714
0.00180152
0.00177557
0.0017493
0.00172271
0.00169581
0.00166859
0.00164105
0.00161318
0.00158496
0.00155637
0.00152738
0.00149792
0.00146788
0.00143711
0.00140543
0.00137269
0.00133884
0.00130114
0.00126308
0.00122599
0.00119027
0.001156
0.001126
0.00109659
0.00106864
0.00103555
0.00100915
0.000981425
0.000949105
0.000909367
0.000860643
0.000801822
0.000731114
0.000645268
0.000539084
0.000405654
0.000240861
7.13826e-05
0.000139941
0.00036609
0.000585131
0.000769852
0.000925027
0.00105726
0.00117301
0.00127746
0.00137428
0.00146558
0.0015525
0.00163531
0.00171433
0.00178901
0.00185949
0.00192615
0.00198937
0.0020495
0.00210685
0.00216168
0.0022142
0.0022646
0.00231304
0.00235967
0.0024046
0.00244794
0.00248979
0.00253022
0.00256931
0.00260713
0.00264374
0.00267918
0.00271351
0.00274676
0.00277899
0.00281021
0.00284047
0.00286979
0.0028982
0.00292572
0.00295238
0.0029782
0.00300321
0.00302741
0.00305083
0.00307348
0.00309539
0.00311656
0.00313702
0.00315678
0.00317585
0.00319424
0.00321197
0.00322905
0.0032455
0.00326132
0.00327652
0.00329112
0.00330513
0.00331855
0.00333139
0.00334367
0.0033554
0.00336657
0.0033772
0.0033873
0.00339686
0.00340591
0.00341444
0.00342246
0.00342997
0.00343699
0.0034435
0.00344953
0.00345508
0.00346013
0.00346471
0.00346882
0.00347245
0.00347561
0.00347831
0.00348054
0.00348231
0.00348362
0.00348448
0.00348488
0.00348483
0.00348432
0.00348337
0.00348196
0.0034801
0.0034778
0.00347505
0.00347188
0.00346828
0.00346425
0.00345981
0.00345495
0.00344967
0.003444
0.00343792
0.00343143
0.00342456
0.00341728
0.00340962
0.00340157
0.00339313
0.0033843
0.00337509
0.00336549
0.00335552
0.00334516
0.00333441
0.00332329
0.00331177
0.00329987
0.00328759
0.00327491
0.00326184
0.00324837
0.00323451
0.00322025
0.00320558
0.00319051
0.00317503
0.00315914
0.00314283
0.00312611
0.00310897
0.0030914
0.0030734
0.00305498
0.00303612
0.00301683
0.0029971
0.00297694
0.00295634
0.00293529
0.0029138
0.00289186
0.00286948
0.00284665
0.00282337
0.00279965
0.00277547
0.00275085
0.00272578
0.00270027
0.0026743
0.0026479
0.00262105
0.00259376
0.00256604
0.00253788
0.00250929
0.00248027
0.00245083
0.00242097
0.0023907
0.00236002
0.00232893
0.00229744
0.00226555
0.00223326
0.00220059
0.00216752
0.00213407
0.00210022
0.00206597
0.00203131
0.00199622
0.00196067
0.00192461
0.00188799
0.00185069
0.0018126
0.00177357
0.00173348
0.00169235
0.0016499
0.00160669
0.00156326
0.00152007
0.00147729
0.00143516
0.00139305
0.0013512
0.00130888
0.00126462
0.00121831
0.00116873
0.00111279
0.0010478
0.000971395
0.000880695
0.000771606
0.000638595
0.000475562
0.000281285
8.88465e-05
0.00013994
0.000366111
0.000585187
0.00076995
0.000925141
0.00105735
0.00117312
0.00127753
0.00137429
0.00146558
0.00155253
0.00163533
0.0017144
0.00178912
0.00185962
0.00192628
0.00198949
0.00204962
0.00210696
0.00216178
0.0022143
0.00226469
0.00231313
0.00235976
0.00240468
0.00244802
0.00248986
0.00253029
0.00256938
0.00260719
0.0026438
0.00267923
0.00271356
0.00274681
0.00277903
0.00281025
0.0028405
0.00286982
0.00289823
0.00292575
0.00295241
0.00297822
0.00300322
0.00302742
0.00305084
0.00307349
0.0030954
0.00311657
0.00313703
0.00315678
0.00317585
0.00319424
0.00321197
0.00322905
0.00324549
0.00326131
0.00327651
0.00329111
0.00330511
0.00331853
0.00333138
0.00334366
0.00335538
0.00336655
0.00337718
0.00338727
0.00339684
0.00340588
0.00341441
0.00342243
0.00342994
0.00343696
0.00344347
0.0034495
0.00345504
0.0034601
0.00346468
0.00346878
0.00347241
0.00347557
0.00347827
0.0034805
0.00348227
0.00348358
0.00348443
0.00348483
0.00348478
0.00348428
0.00348332
0.00348191
0.00348005
0.00347775
0.00347501
0.00347183
0.00346823
0.0034642
0.00345976
0.0034549
0.00344962
0.00344395
0.00343786
0.00343138
0.0034245
0.00341723
0.00340957
0.00340151
0.00339307
0.00338425
0.00337503
0.00336544
0.00335546
0.0033451
0.00333436
0.00332323
0.00331171
0.00329981
0.00328753
0.00327485
0.00326178
0.00324831
0.00323445
0.00322019
0.00320552
0.00319045
0.00317497
0.00315908
0.00314277
0.00312605
0.0031089
0.00309133
0.00307334
0.00305491
0.00303606
0.00301677
0.00299704
0.00297687
0.00295627
0.00293522
0.00291373
0.00289179
0.00286941
0.00284658
0.0028233
0.00279958
0.0027754
0.00275078
0.00272571
0.0027002
0.00267423
0.00264783
0.00262098
0.00259369
0.00256597
0.00253781
0.00250922
0.0024802
0.00245076
0.0024209
0.00239063
0.00235995
0.00232886
0.00229737
0.00226548
0.00223319
0.00220052
0.00216746
0.002134
0.00210015
0.0020659
0.00203124
0.00199615
0.0019606
0.00192455
0.00188792
0.00185063
0.00181254
0.00177351
0.00173343
0.00169234
0.00164987
0.00160661
0.00156316
0.00151994
0.00147711
0.00143506
0.00139333
0.00135186
0.00130898
0.00126565
0.0012201
0.00117022
0.00111365
0.00104819
0.000971545
0.00088074
0.000771615
0.000638594
0.000475557
0.000281268
8.88467e-05
0.000163832
0.00040749
0.000649383
0.000860619
0.0010434
0.001203
0.00134463
0.00147267
0.00159037
0.00169998
0.00180299
0.00190035
0.00199264
0.00208016
0.00216325
0.00224222
0.00231743
0.00238918
0.00245776
0.00252342
0.00258639
0.00264686
0.00270501
0.00276097
0.0028149
0.00286689
0.00291707
0.00296551
0.00301232
0.00305756
0.0031013
0.00314361
0.00318454
0.00322415
0.00326248
0.00329958
0.00333549
0.00337025
0.00340388
0.00343643
0.00346793
0.00349839
0.00352786
0.00355635
0.0035839
0.00361052
0.00363623
0.00366107
0.00368504
0.00370817
0.00373047
0.00375197
0.00377268
0.00379262
0.0038118
0.00383024
0.00384795
0.00386495
0.00388125
0.00389686
0.00391179
0.00392606
0.00393968
0.00395265
0.00396499
0.0039767
0.0039878
0.00399828
0.00400817
0.00401746
0.00402616
0.00403428
0.00404183
0.0040488
0.00405521
0.00406105
0.00406634
0.00407108
0.00407527
0.00407891
0.00408202
0.00408458
0.00408661
0.0040881
0.00408906
0.0040895
0.00408941
0.0040888
0.00408767
0.00408601
0.00408383
0.00408114
0.00407795
0.00407425
0.00407005
0.00406536
0.00406019
0.00405453
0.00404839
0.00404178
0.00403469
0.00402714
0.00401912
0.00401065
0.00400171
0.00399232
0.00398248
0.00397218
0.00396143
0.00395024
0.00393859
0.0039265
0.00391395
0.00390096
0.00388752
0.00387362
0.00385926
0.00384445
0.00382918
0.00381345
0.00379725
0.00378059
0.00376345
0.00374584
0.00372775
0.00370917
0.00369012
0.00367057
0.00365053
0.00363
0.00360897
0.00358743
0.0035654
0.00354285
0.0035198
0.00349624
0.00347216
0.00344756
0.00342245
0.00339682
0.00337067
0.003344
0.00331681
0.00328909
0.00326086
0.0032321
0.00320282
0.00317303
0.00314271
0.00311189
0.00308055
0.0030487
0.00301634
0.00298349
0.00295013
0.00291628
0.00288195
0.00284713
0.00281183
0.00277607
0.00273983
0.00270313
0.00266597
0.00262836
0.0025903
0.00255179
0.00251282
0.0024734
0.00243351
0.00239315
0.00235228
0.00231089
0.00226892
0.00222631
0.00218299
0.00213887
0.00209383
0.00204782
0.00200084
0.00195288
0.00190411
0.00185473
0.00180492
0.00175473
0.00170413
0.00165281
0.00160052
0.00154671
0.00149043
0.00143073
0.00136616
0.00129456
0.00121347
0.00112
0.00101057
0.000880532
0.000724213
0.000536274
0.000317923
0.000106193
0.000163822
0.00040745
0.000649386
0.000860705
0.00104351
0.00120312
0.00134475
0.00147279
0.00159049
0.00170008
0.0018031
0.00190047
0.00199277
0.00208031
0.00216339
0.00224237
0.00231757
0.00238931
0.00245789
0.00252355
0.00258651
0.00264698
0.00270512
0.00276108
0.002815
0.00286699
0.00291716
0.0029656
0.0030124
0.00305764
0.00310138
0.00314368
0.00318461
0.00322422
0.00326254
0.00329964
0.00333554
0.0033703
0.00340393
0.00343647
0.00346796
0.00349843
0.00352789
0.00355638
0.00358393
0.00361054
0.00363625
0.00366108
0.00368505
0.00370818
0.00373048
0.00375198
0.00377269
0.00379262
0.0038118
0.00383024
0.00384795
0.00386495
0.00388124
0.00389685
0.00391178
0.00392605
0.00393967
0.00395264
0.00396497
0.00397668
0.00398778
0.00399826
0.00400815
0.00401744
0.00402614
0.00403426
0.0040418
0.00404877
0.00405518
0.00406103
0.00406632
0.00407105
0.00407524
0.00407888
0.00408198
0.00408454
0.00408657
0.00408806
0.00408903
0.00408946
0.00408937
0.00408876
0.00408763
0.00408597
0.00408379
0.0040811
0.0040779
0.0040742
0.00407001
0.00406532
0.00406014
0.00405448
0.00404834
0.00404173
0.00403464
0.00402709
0.00401907
0.00401059
0.00400166
0.00399227
0.00398242
0.00397212
0.00396138
0.00395018
0.00393854
0.00392644
0.0039139
0.0039009
0.00388746
0.00387356
0.0038592
0.00384439
0.00382912
0.00381339
0.00379719
0.00378053
0.00376339
0.00374577
0.00372768
0.00370911
0.00369005
0.0036705
0.00365047
0.00362993
0.0036089
0.00358737
0.00356533
0.00354279
0.00351973
0.00349617
0.00347209
0.00344749
0.00342238
0.00339675
0.0033706
0.00334393
0.00331674
0.00328902
0.00326078
0.00323203
0.00320275
0.00317295
0.00314264
0.00311181
0.00308047
0.00304862
0.00301627
0.00298341
0.00295006
0.00291621
0.00288187
0.00284706
0.00281176
0.00277599
0.00273975
0.00270306
0.0026659
0.00262829
0.00259023
0.00255171
0.00251275
0.00247332
0.00243344
0.00239307
0.00235221
0.00231081
0.00226885
0.00222624
0.00218292
0.0021388
0.00209377
0.00204777
0.00200079
0.00195284
0.00190407
0.00185468
0.00180486
0.00175466
0.00170406
0.00165282
0.00160064
0.00154677
0.00149065
0.0014311
0.00136649
0.00129477
0.00121356
0.00112003
0.00101057
0.000880522
0.000724203
0.000536263
0.000317902
0.000106192
0.000185987
0.000441923
0.000699517
0.000932115
0.00113894
0.00132218
0.00148569
0.00163347
0.00176882
0.00189419
0.00201141
0.00212173
0.00222606
0.00232504
0.00241915
0.00250882
0.0025944
0.00267623
0.00275459
0.00282974
0.00290189
0.00297124
0.00303797
0.00310224
0.00316417
0.0032239
0.00328154
0.00333719
0.00339093
0.00344285
0.00349303
0.00354154
0.00358843
0.00363378
0.00367763
0.00372003
0.00376104
0.0038007
0.00383905
0.00387612
0.00391196
0.0039466
0.00398008
0.00401242
0.00404366
0.00407382
0.00410294
0.00413103
0.00415813
0.00418426
0.00420944
0.00423369
0.00425704
0.00427951
0.00430111
0.00432186
0.00434178
0.00436089
0.00437921
0.00439674
0.00441351
0.00442953
0.00444481
0.00445935
0.00447319
0.00448632
0.00449875
0.0045105
0.00452157
0.00453197
0.00454171
0.0045508
0.00455925
0.00456705
0.00457422
0.00458076
0.00458667
0.00459197
0.00459665
0.00460073
0.00460419
0.00460705
0.00460932
0.00461098
0.00461206
0.00461254
0.00461244
0.00461175
0.00461048
0.00460862
0.00460619
0.00460319
0.00459962
0.00459549
0.0045908
0.00458556
0.00457977
0.00457345
0.00456658
0.00455918
0.00455125
0.0045428
0.00453382
0.00452433
0.00451432
0.00450379
0.00449276
0.00448122
0.00446917
0.00445661
0.00444355
0.00442998
0.0044159
0.00440132
0.00438623
0.00437063
0.00435451
0.00433788
0.00432074
0.00430307
0.00428488
0.00426616
0.00424691
0.00422713
0.00420681
0.00418595
0.00416455
0.00414259
0.00412009
0.00409702
0.0040734
0.00404922
0.00402447
0.00399915
0.00397326
0.0039468
0.00391976
0.00389215
0.00386395
0.00383517
0.00380581
0.00377587
0.00374534
0.00371424
0.00368254
0.00365027
0.00361741
0.00358398
0.00354997
0.00351539
0.00348023
0.00344451
0.00340823
0.00337138
0.00333399
0.00329605
0.00325756
0.00321854
0.00317899
0.00313892
0.00309833
0.00305723
0.00301562
0.00297351
0.00293089
0.00288778
0.00284416
0.00280003
0.00275538
0.0027102
0.00266447
0.00261815
0.0025712
0.00252357
0.00247519
0.00242599
0.00237589
0.00232485
0.00227284
0.00221984
0.0021659
0.00211104
0.00205528
0.00199855
0.00194069
0.0018814
0.00182027
0.00175671
0.00168985
0.00161857
0.00154137
0.00145627
0.00136078
0.0012518
0.0011254
0.000976689
0.00080004
0.000590787
0.000352075
0.000123504
0.000185961
0.00044173
0.000699409