/*--------------------------------*- C++ -*----------------------------------*\
  =========                 |
  \\      /  F ield         | OpenFOAM: The Open Source CFD Toolbox
   \\    /   O peration     | Website:  https://openfoam.org
    \\  /    A nd           | Version:  8
     \\/     M anipulation  |
\*---------------------------------------------------------------------------*/
FoamFile
{
    version     2.0;
    format      ascii;
    class       volVectorField;
    location    "400";
    object      U;
}
// * * * * * * * * * * * * * * * * * * * * * * * * * * * * * * * * * * * * * //

dimensions      [0 1 -1 0 0 0 0];

internalField   nonuniform List<vector> 
48000
(
(-0.00247111 1.70012e-07 0.00246153)
(-0.00605062 1.36709e-07 0.00318105)
(-0.0100854 1.72222e-07 0.00276252)
(-0.0130163 2.28619e-07 0.00191886)
(-0.0147931 2.41678e-07 0.00120272)
(-0.0155839 1.69524e-07 0.00104898)
(-0.0158568 1.77087e-07 0.000358876)
(-0.0148748 2.32746e-07 -0.000653916)
(-0.0131199 3.15446e-07 -0.00129547)
(-0.0114212 3.63114e-07 -0.00128268)
(-0.00785999 1.10159e-07 -0.00218933)
(-0.0048664 8.69187e-08 -0.00269153)
(-0.00170662 3.05049e-07 -0.00308472)
(0.00275538 3.28476e-07 -0.00349947)
(0.00680416 1.4091e-07 -0.00358317)
(0.011099 1.02711e-07 -0.0035804)
(0.0153759 1.36351e-07 -0.00353322)
(0.0196126 1.75748e-07 -0.00345917)
(0.0237816 1.70509e-07 -0.00336903)
(0.0278613 1.2709e-07 -0.00326903)
(0.0318389 8.35947e-08 -0.00316314)
(0.0357058 6.91418e-08 -0.00305411)
(0.0394562 9.03709e-08 -0.00294391)
(0.0430869 1.32213e-07 -0.00283403)
(0.0465966 1.68344e-07 -0.00272552)
(0.0499854 1.80016e-07 -0.00261918)
(0.0532545 1.67574e-07 -0.00251561)
(0.056406 1.45354e-07 -0.00241525)
(0.0594425 1.30079e-07 -0.0023184)
(0.062367 1.30475e-07 -0.00222523)
(0.0651831 1.44615e-07 -0.00213583)
(0.0678941 1.64938e-07 -0.00205018)
(0.0705038 1.84378e-07 -0.00196821)
(0.0730159 1.99081e-07 -0.0018898)
(0.075434 2.093e-07 -0.00181482)
(0.0777615 2.17912e-07 -0.00174312)
(0.0800018 2.28481e-07 -0.00167452)
(0.0821582 2.44052e-07 -0.00160888)
(0.0842338 2.64444e-07 -0.00154602)
(0.0862316 2.84653e-07 -0.00148576)
(0.0881543 2.98717e-07 -0.00142794)
(0.0900048 3.04709e-07 -0.00137239)
(0.0917854 3.05897e-07 -0.00131896)
(0.0934987 3.07412e-07 -0.00126753)
(0.0951467 3.13192e-07 -0.00121797)
(0.0967318 3.24309e-07 -0.00117018)
(0.0982558 3.37931e-07 -0.00112408)
(0.0997207 3.48523e-07 -0.00107957)
(0.101128 3.5134e-07 -0.00103656)
(0.102481 3.4569e-07 -0.000994973)
(0.103779 3.34862e-07 -0.000954733)
(0.105026 3.23303e-07 -0.000915774)
(0.106222 3.14318e-07 -0.000878034)
(0.107368 3.09308e-07 -0.000841461)
(0.108467 3.07077e-07 -0.000806006)
(0.10952 3.03879e-07 -0.000771619)
(0.110527 2.95822e-07 -0.00073825)
(0.111491 2.8201e-07 -0.000705846)
(0.112412 2.65631e-07 -0.000674364)
(0.113291 2.51651e-07 -0.000643767)
(0.11413 2.43709e-07 -0.000614019)
(0.11493 2.42955e-07 -0.000585082)
(0.115691 2.48293e-07 -0.000556925)
(0.116415 2.56874e-07 -0.000529519)
(0.117103 2.64017e-07 -0.000502835)
(0.117755 2.64519e-07 -0.000476843)
(0.118373 2.55062e-07 -0.000451514)
(0.118956 2.36308e-07 -0.000426824)
(0.119507 2.12253e-07 -0.000402748)
(0.120026 1.87849e-07 -0.000379264)
(0.120513 1.66947e-07 -0.000356345)
(0.12097 1.51619e-07 -0.000333958)
(0.121396 1.42497e-07 -0.00031207)
(0.121794 1.38987e-07 -0.000290648)
(0.122162 1.39276e-07 -0.000269659)
(0.122502 1.40715e-07 -0.000249071)
(0.122815 1.40594e-07 -0.000228852)
(0.1231 1.36893e-07 -0.000208975)
(0.123359 1.28707e-07 -0.000189414)
(0.123591 1.16265e-07 -0.000170143)
(0.123797 1.00709e-07 -0.000151139)
(0.123978 8.38353e-08 -0.000132378)
(0.124134 6.79134e-08 -0.000113839)
(0.124265 5.48089e-08 -9.55023e-05)
(0.124371 4.57401e-08 -7.7351e-05)
(0.124453 4.11942e-08 -5.9374e-05)
(0.12451 4.09353e-08 -4.15654e-05)
(0.124544 4.3905e-08 -2.39184e-05)
(0.124554 4.77731e-08 -6.43317e-06)
(0.12454 4.91209e-08 1.08827e-05)
(0.124503 4.46283e-08 2.8053e-05)
(0.124443 3.25975e-08 4.51115e-05)
(0.12436 1.43e-08 6.20627e-05)
(0.124253 -6.06872e-09 7.88999e-05)
(0.124124 -2.29728e-08 9.56125e-05)
(0.123973 -3.17904e-08 0.000112188)
(0.123799 -3.09223e-08 0.000128614)
(0.123603 -2.27596e-08 0.000144875)
(0.123385 -1.30969e-08 0.00016095)
(0.123146 -9.39625e-09 0.000176809)
(0.122886 -1.84498e-08 0.000192412)
(0.122605 -4.42172e-08 0.000207714)
(0.122304 -8.62338e-08 0.000222665)
(0.121984 -1.38286e-07 0.000237229)
(0.121643 -1.88595e-07 0.000251388)
(0.121285 -2.21832e-07 0.000265159)
(0.120907 -2.24162e-07 0.000278591)
(0.120512 -1.89585e-07 0.000291749)
(0.120099 -1.25159e-07 0.00030468)
(0.11967 -5.18468e-08 0.000317386)
(0.119223 1.41629e-09 0.000329815)
(0.118761 8.49012e-09 0.00034189)
(0.118282 -4.19328e-08 0.000353568)
(0.117787 -1.38994e-07 0.000364901)
(0.117278 -2.50774e-07 0.000376042)
(0.116753 -3.34846e-07 0.000387194)
(0.116212 -3.54552e-07 0.000398518)
(0.115657 -2.95265e-07 0.000410046)
(0.115086 -1.73015e-07 0.000421681)
(0.114499 -3.09984e-08 0.000433264)
(0.113897 7.64111e-08 0.000444702)
(0.113279 1.06321e-07 0.000456056)
(0.112644 4.68289e-08 0.000467536)
(0.111994 -7.60152e-08 0.000479412)
(0.111326 -2.07829e-07 0.000491882)
(0.110642 -2.89364e-07 0.000504983)
(0.10994 -2.83646e-07 0.000518597)
(0.109219 -1.9346e-07 0.000532538)
(0.10848 -6.06719e-08 0.000546665)
(0.107722 5.39332e-08 0.000560969)
(0.106943 1.00541e-07 0.000575566)
(0.106144 6.50275e-08 0.00059063)
(0.105325 -2.40693e-08 0.000606291)
(0.104484 -1.10387e-07 0.000622566)
(0.103622 -1.38857e-07 0.000639356)
(0.102737 -8.44823e-08 0.000656506)
(0.101828 3.48361e-08 0.000673893)
(0.100896 1.68348e-07 0.000691493)
(0.0999388 2.60285e-07 0.000709392)
(0.0989572 2.79466e-07 0.000727734)
(0.0979504 2.34251e-07 0.00074663)
(0.096918 1.65424e-07 0.000766098)
(0.0958593 1.21725e-07 0.000786055)
(0.0947738 1.32042e-07 0.00080637)
(0.093661 1.89311e-07 0.000826951)
(0.0925203 2.56759e-07 0.000847804)
(0.0913513 2.92524e-07 0.000869025)
(0.0901536 2.7629e-07 0.000890732)
(0.0889269 2.21405e-07 0.000912988)
(0.0876705 1.65348e-07 0.000935762)
(0.0863838 1.47058e-07 0.000958963)
(0.0850663 1.83554e-07 0.000982504)
(0.0837171 2.59531e-07 0.00100637)
(0.0823358 3.35417e-07 0.00103064)
(0.0809217 3.69788e-07 0.00105548)
(0.0794743 3.41455e-07 0.00108101)
(0.0779928 2.5912e-07 0.00110734)
(0.0764767 1.54375e-07 0.00113446)
(0.0749249 6.42584e-08 0.00116236)
(0.0733366 1.17948e-08 0.00119102)
(0.0717108 -5.30727e-09 0.00122047)
(0.0700464 -9.69319e-09 0.00125081)
(0.0683422 -2.69247e-08 0.00128218)
(0.0665973 -7.10809e-08 0.00131475)
(0.0648101 -1.41035e-07 0.00134871)
(0.0629793 -2.21954e-07 0.0013842)
(0.0611032 -2.88846e-07 0.00142133)
(0.0591798 -3.17781e-07 0.00146025)
(0.0572071 -2.98951e-07 0.00150116)
(0.0551826 -2.41462e-07 0.00154424)
(0.0531037 -1.68873e-07 0.0015896)
(0.0509678 -1.09054e-07 0.00163717)
(0.0487725 -8.20228e-08 0.00168645)
(0.0465146 -8.0241e-08 0.0017361)
(0.0441983 -5.65143e-08 0.00178385)
(0.0418188 4.25645e-08 0.00182802)
(0.03938 2.22717e-07 0.00188683)
(0.0370019 4.59867e-07 0.00201608)
(0.0339479 6.0959e-07 0.00415683)
(0.0311794 4.70553e-07 0.00355376)
(0.0286121 2.36941e-07 0.0018653)
(0.0261459 -7.46506e-07 0.00160964)
(0.023648 -2.38784e-06 0.00164365)
(0.0210534 -3.41376e-06 0.0017039)
(0.0182191 -3.94113e-05 0.00109147)
(0.0150877 3.58439e-05 0.00178985)
(0.0122327 0.000133827 0.00210961)
(0.00996773 4.22068e-05 0.0021077)
(0.00735607 6.68765e-05 0.00124487)
(0.00413433 7.36276e-05 0.00196703)
(0.00194167 -3.09526e-05 0.00204496)
(-0.000375345 -3.96124e-05 0.00180594)
(-0.00263878 -2.38406e-05 0.00165913)
(-0.00463197 -1.30245e-05 0.00142081)
(-0.00622735 -7.27119e-06 0.00103955)
(-0.00723172 -4.24165e-06 0.000472692)
(-0.00742765 -2.52464e-06 -0.000300696)
(-0.00655621 -1.43205e-06 -0.00122381)
(-0.00458172 -7.27558e-07 -0.00200199)
(-0.00189247 -4.57949e-07 -0.00203698)
(-0.00247085 1.70005e-07 0.00246149)
(-0.00605028 1.36699e-07 0.00318107)
(-0.0100851 1.72207e-07 0.00276247)
(-0.013016 2.28593e-07 0.00191872)
(-0.0147926 2.41635e-07 0.00120248)
(-0.0155829 1.69464e-07 0.00104779)
(-0.0158558 1.77117e-07 0.000357087)
(-0.0148735 2.3284e-07 -0.000654551)
(-0.013118 3.15389e-07 -0.0012963)
(-0.0114185 3.63071e-07 -0.00128509)
(-0.00785899 1.10183e-07 -0.00218875)
(-0.00486493 8.691e-08 -0.00269155)
(-0.00170491 3.04847e-07 -0.00308566)
(0.00275668 3.28388e-07 -0.00350105)
(0.00680497 1.40895e-07 -0.00358441)
(0.0110999 1.02705e-07 -0.00358147)
(0.015377 1.36345e-07 -0.00353417)
(0.0196138 1.75741e-07 -0.00346006)
(0.0237829 1.70502e-07 -0.00336991)
(0.0278625 1.27085e-07 -0.00326993)
(0.03184 8.35919e-08 -0.00316403)
(0.0357067 6.91397e-08 -0.00305498)
(0.039457 9.03683e-08 -0.00294475)
(0.0430877 1.32209e-07 -0.00283479)
(0.0465974 1.68339e-07 -0.00272619)
(0.0499863 1.80012e-07 -0.00261978)
(0.0532555 1.6757e-07 -0.00251618)
(0.056407 1.45351e-07 -0.00241581)
(0.0594434 1.30077e-07 -0.00231896)
(0.0623678 1.30473e-07 -0.0022258)
(0.0651838 1.44613e-07 -0.00213641)
(0.0678947 1.64936e-07 -0.00205076)
(0.0705044 1.84375e-07 -0.0019688)
(0.0730164 1.99079e-07 -0.00189039)
(0.0754344 2.09297e-07 -0.00181541)
(0.0777619 2.17909e-07 -0.0017437)
(0.0800021 2.28478e-07 -0.00167511)
(0.0821585 2.44049e-07 -0.00160947)
(0.0842341 2.64441e-07 -0.0015466)
(0.0862319 2.8465e-07 -0.00148633)
(0.0881547 2.98713e-07 -0.00142849)
(0.0900051 3.04706e-07 -0.00137292)
(0.0917858 3.05894e-07 -0.00131949)
(0.093499 3.07409e-07 -0.00126805)
(0.095147 3.13189e-07 -0.0012185)
(0.096732 3.24306e-07 -0.00117073)
(0.098256 3.37928e-07 -0.00112464)
(0.099721 3.4852e-07 -0.00108013)
(0.101129 3.51337e-07 -0.00103712)
(0.102481 3.45687e-07 -0.000995541)
(0.10378 3.3486e-07 -0.00095531)
(0.105026 3.23301e-07 -0.000916363)
(0.106222 3.14316e-07 -0.00087864)
(0.107368 3.09306e-07 -0.000842085)
(0.108467 3.07075e-07 -0.000806647)
(0.10952 3.03877e-07 -0.00077227)
(0.110527 2.95821e-07 -0.000738903)
(0.111491 2.82008e-07 -0.000706502)
(0.112412 2.65629e-07 -0.000675027)
(0.113291 2.51649e-07 -0.000644439)
(0.11413 2.43708e-07 -0.000614698)
(0.11493 2.42954e-07 -0.000585767)
(0.115691 2.48292e-07 -0.000557612)
(0.116415 2.56873e-07 -0.0005302)
(0.117103 2.64015e-07 -0.000503503)
(0.117755 2.64518e-07 -0.000477491)
(0.118373 2.55061e-07 -0.00045214)
(0.118957 2.36306e-07 -0.000427429)
(0.119507 2.12252e-07 -0.000403337)
(0.120026 1.87848e-07 -0.000379837)
(0.120513 1.66947e-07 -0.000356901)
(0.12097 1.51619e-07 -0.000334495)
(0.121397 1.42497e-07 -0.000312586)
(0.121794 1.38986e-07 -0.00029114)
(0.122162 1.39276e-07 -0.000270125)
(0.122502 1.40715e-07 -0.000249509)
(0.122815 1.40593e-07 -0.000229262)
(0.1231 1.36892e-07 -0.000209357)
(0.123359 1.28707e-07 -0.000189769)
(0.123591 1.16265e-07 -0.000170473)
(0.123798 1.00709e-07 -0.000151448)
(0.123978 8.3835e-08 -0.000132672)
(0.124134 6.79132e-08 -0.000114124)
(0.124265 5.48088e-08 -9.57832e-05)
(0.124371 4.574e-08 -7.76326e-05)
(0.124452 4.11942e-08 -5.96576e-05)
(0.12451 4.09353e-08 -4.18481e-05)
(0.124544 4.39049e-08 -2.41936e-05)
(0.124553 4.77731e-08 -6.68997e-06)
(0.12454 4.91208e-08 1.06569e-05)
(0.124503 4.46283e-08 2.78696e-05)
(0.124443 3.25975e-08 4.49787e-05)
(0.124359 1.42999e-08 6.19846e-05)
(0.124253 -6.06872e-09 7.88769e-05)
(0.124124 -2.29728e-08 9.5642e-05)
(0.123973 -3.17903e-08 0.000112267)
(0.123799 -3.09223e-08 0.00012874)
(0.123603 -2.27596e-08 0.000145044)
(0.123386 -1.30969e-08 0.00016116)
(0.123147 -9.39623e-09 0.000177055)
(0.122886 -1.84498e-08 0.000192691)
(0.122606 -4.42171e-08 0.000208025)
(0.122305 -8.62336e-08 0.000223012)
(0.121984 -1.38286e-07 0.000237617)
(0.121644 -1.88595e-07 0.000251824)
(0.121284 -2.21832e-07 0.000265638)
(0.120907 -2.24162e-07 0.000279092)
(0.120512 -1.89585e-07 0.000292232)
(0.120099 -1.25159e-07 0.000305099)
(0.119669 -5.18468e-08 0.000317715)
(0.119223 1.41629e-09 0.000330077)
(0.118761 8.49011e-09 0.000342166)
(0.118282 -4.19328e-08 0.000353974)
(0.117788 -1.38994e-07 0.000365523)
(0.117278 -2.50774e-07 0.000376875)
(0.116752 -3.34846e-07 0.000388118)
(0.116212 -3.54552e-07 0.00039934)
(0.115656 -2.95266e-07 0.0004106)
(0.115085 -1.73016e-07 0.000421926)
(0.114499 -3.09985e-08 0.000433327)
(0.113897 7.6411e-08 0.000444828)
(0.113279 1.06321e-07 0.000456484)
(0.112645 4.68289e-08 0.00046838)
(0.111994 -7.6015e-08 0.000480598)
(0.111327 -2.07829e-07 0.000493184)
(0.110642 -2.89365e-07 0.000506136)
(0.10994 -2.83646e-07 0.000519423)
(0.109219 -1.93461e-07 0.000533024)
(0.10848 -6.0672e-08 0.00054696)
(0.107721 5.39332e-08 0.000561296)
(0.106943 1.00541e-07 0.000576103)
(0.106145 6.50274e-08 0.000591415)
(0.105325 -2.40693e-08 0.000607206)
(0.104484 -1.10387e-07 0.000623407)
(0.103622 -1.38857e-07 0.00063995)
(0.102736 -8.44824e-08 0.00065681)
(0.101827 3.48362e-08 0.000674016)
(0.100895 1.68348e-07 0.00069163)
(0.0999387 2.60285e-07 0.000709707)
(0.0989574 2.79466e-07 0.000728264)
(0.0979508 2.34251e-07 0.000747276)
(0.0969184 1.65424e-07 0.00076669)
(0.0958596 1.21725e-07 0.000786455)
(0.094774 1.32042e-07 0.000806546)
(0.093661 1.89311e-07 0.000826979)
(0.0925202 2.56759e-07 0.000847799)
(0.0913513 2.92525e-07 0.000869057)
(0.0901537 2.7629e-07 0.000890781)
(0.0889269 2.21406e-07 0.000912962)
(0.0876704 1.65348e-07 0.000935568)
(0.0863835 1.47058e-07 0.000958561)
(0.0850658 1.83554e-07 0.000981935)
(0.0837166 2.59531e-07 0.00100574)
(0.0823353 3.35417e-07 0.00103006)
(0.0809215 3.69788e-07 0.001055)
(0.0794743 3.41455e-07 0.00108063)
(0.077993 2.5912e-07 0.00110699)
(0.0764768 1.54375e-07 0.00113407)
(0.0749249 6.42584e-08 0.00116187)
(0.0733364 1.17948e-08 0.00119042)
(0.0717104 -5.30728e-09 0.00121981)
(0.0700459 -9.69321e-09 0.00125016)
(0.0683418 -2.69247e-08 0.00128161)
(0.0665969 -7.1081e-08 0.00131429)
(0.0648098 -1.41035e-07 0.00134833)
(0.0629791 -2.21954e-07 0.00138386)
(0.061103 -2.88847e-07 0.00142102)
(0.0591796 -3.17782e-07 0.00145999)
(0.0572069 -2.98951e-07 0.00150096)
(0.0551825 -2.41462e-07 0.00154415)
(0.0531038 -1.68874e-07 0.00158968)
(0.0509679 -1.09054e-07 0.00163743)
(0.0487727 -8.2023e-08 0.00168681)
(0.0465149 -8.02412e-08 0.00173652)
(0.0441986 -5.65146e-08 0.0017843)
(0.0418192 4.25651e-08 0.00182841)
(0.0393807 2.22729e-07 0.00188692)
(0.037003 4.59959e-07 0.00201576)
(0.033949 6.09865e-07 0.00415745)
(0.0311814 4.70731e-07 0.00355461)
(0.0286151 2.3699e-07 0.00186625)
(0.0261481 -7.46643e-07 0.00161257)
(0.0236428 -2.3892e-06 0.00164724)
(0.0210095 -3.41705e-06 0.0016734)
(0.0183253 -3.92678e-05 0.000900874)
(0.0150027 2.73126e-05 0.00254857)
(0.0124428 7.94724e-05 0.00232528)
(0.0100764 3.09973e-05 0.00195434)
(0.00734668 3.33221e-05 0.00168619)
(0.00472855 3.55436e-05 0.00202621)
(0.00218633 -2.59763e-05 0.00190241)
(-0.000317862 -3.88783e-05 0.00180825)
(-0.00260143 -2.37484e-05 0.00166455)
(-0.00461043 -1.30144e-05 0.00142281)
(-0.00621472 -7.27019e-06 0.0010401)
(-0.00722394 -4.24162e-06 0.000472948)
(-0.00742275 -2.52469e-06 -0.0003003)
(-0.00655313 -1.43208e-06 -0.00122309)
(-0.00457975 -7.27595e-07 -0.00200069)
(-0.00189121 -4.57978e-07 -0.00203483)
(-0.00294257 4.17465e-08 0.00708136)
(-0.00586032 5.67664e-08 0.00677638)
(-0.00813537 6.19088e-08 0.00543308)
(-0.00954392 6.904e-08 0.00364254)
(-0.0100877 5.9777e-08 0.00185489)
(-0.00976428 4.30827e-08 0.000213817)
(-0.00845183 1.0426e-07 -0.00124136)
(-0.00654192 1.22895e-07 -0.0025643)
(-0.00419049 4.77478e-08 -0.00373072)
(-0.00131303 4.4743e-08 -0.0047467)
(0.00206409 1.07977e-08 -0.00540539)
(0.00543557 2.78978e-08 -0.00601118)
(0.00925832 -2.01787e-08 -0.0067913)
(0.0131093 -8.2322e-08 -0.00721143)
(0.0170273 -8.84628e-08 -0.00741401)
(0.0210174 -8.96321e-08 -0.00748849)
(0.0250294 -8.26752e-08 -0.00746731)
(0.0290336 -7.59894e-08 -0.00738268)
(0.0330026 -7.81348e-08 -0.00725496)
(0.0369142 -8.72933e-08 -0.00709715)
(0.0407526 -9.48489e-08 -0.00691856)
(0.0445059 -9.41426e-08 -0.00672594)
(0.0481655 -8.57304e-08 -0.00652438)
(0.0517259 -7.60218e-08 -0.00631781)
(0.0551833 -7.08991e-08 -0.00610927)
(0.0585357 -7.14511e-08 -0.00590112)
(0.0617823 -7.50528e-08 -0.00569517)
(0.0649235 -7.82985e-08 -0.00549278)
(0.0679601 -7.87573e-08 -0.00529497)
(0.0708939 -7.54487e-08 -0.00510244)
(0.0737268 -6.89973e-08 -0.00491566)
(0.0764612 -6.1495e-08 -0.00473491)
(0.0790997 -5.51502e-08 -0.00456029)
(0.081645 -5.08308e-08 -0.0043918)
(0.0840998 -4.81429e-08 -0.00422936)
(0.0864669 -4.60812e-08 -0.00407282)
(0.088749 -4.33514e-08 -0.00392198)
(0.0909488 -3.92947e-08 -0.00377662)
(0.093069 -3.49944e-08 -0.00363651)
(0.095112 -3.25406e-08 -0.0035014)
(0.0970803 -3.29214e-08 -0.00337102)
(0.0989762 -3.53751e-08 -0.00324515)
(0.100802 -3.81487e-08 -0.00312353)
(0.10256 -3.95764e-08 -0.00300596)
(0.104252 -3.86855e-08 -0.00289222)
(0.10588 -3.58929e-08 -0.00278213)
(0.107446 -3.30051e-08 -0.00267551)
(0.108952 -3.19866e-08 -0.0025722)
(0.1104 -3.35381e-08 -0.00247205)
(0.111791 -3.68808e-08 -0.0023749)
(0.113126 -4.06119e-08 -0.00228062)
(0.114408 -4.34959e-08 -0.00218909)
(0.115638 -4.47789e-08 -0.00210019)
(0.116818 -4.4539e-08 -0.00201382)
(0.117948 -4.39242e-08 -0.00192986)
(0.11903 -4.44781e-08 -0.00184823)
(0.120065 -4.69909e-08 -0.00176883)
(0.121055 -5.06991e-08 -0.00169157)
(0.122 -5.404e-08 -0.00161637)
(0.122903 -5.56561e-08 -0.00154314)
(0.123763 -5.50241e-08 -0.00147182)
(0.124582 -5.2302e-08 -0.00140233)
(0.125362 -4.81977e-08 -0.0013346)
(0.126102 -4.40612e-08 -0.00126857)
(0.126805 -4.16207e-08 -0.00120418)
(0.12747 -4.22451e-08 -0.00114137)
(0.128099 -4.61152e-08 -0.00108009)
(0.128693 -5.21573e-08 -0.00102027)
(0.129253 -5.87552e-08 -0.000961858)
(0.129779 -6.45422e-08 -0.000904783)
(0.130272 -6.86654e-08 -0.000848983)
(0.130732 -7.06966e-08 -0.000794394)
(0.131161 -7.06014e-08 -0.000740952)
(0.13156 -6.86902e-08 -0.000688596)
(0.131928 -6.57034e-08 -0.000637261)
(0.132266 -6.25738e-08 -0.000586887)
(0.132575 -6.01619e-08 -0.000537407)
(0.132855 -5.89341e-08 -0.000488759)
(0.133108 -5.89703e-08 -0.000440881)
(0.133333 -5.9884e-08 -0.000393713)
(0.13353 -6.0971e-08 -0.000347202)
(0.133701 -6.13326e-08 -0.000301296)
(0.133845 -6.01962e-08 -0.00025595)
(0.133963 -5.71999e-08 -0.000211123)
(0.134055 -5.2458e-08 -0.000166779)
(0.134121 -4.65206e-08 -0.000122886)
(0.134163 -4.02158e-08 -7.94164e-05)
(0.134179 -3.45697e-08 -3.63522e-05)
(0.13417 -3.07282e-08 6.2869e-06)
(0.134137 -2.96146e-08 4.85574e-05)
(0.13408 -3.14382e-08 9.05453e-05)
(0.133998 -3.55043e-08 0.00013225)
(0.133893 -4.01663e-08 0.000173658)
(0.133764 -4.32711e-08 0.000214744)
(0.133612 -4.29475e-08 0.000255471)
(0.133436 -3.83959e-08 0.000295789)
(0.133238 -3.03189e-08 0.000335639)
(0.133018 -2.08617e-08 0.000374953)
(0.132775 -1.30874e-08 0.000413665)
(0.13251 -1.0211e-08 0.000451712)
(0.132225 -1.47702e-08 0.000489043)
(0.131918 -2.77966e-08 0.000525628)
(0.13159 -4.8013e-08 0.000561456)
(0.131243 -7.12028e-08 0.000596536)
(0.130875 -9.02637e-08 0.000630884)
(0.130489 -9.65647e-08 0.000664509)
(0.130083 -8.30185e-08 0.000697401)
(0.129659 -4.82109e-08 0.000729524)
(0.129217 3.06483e-10 0.000760835)
(0.128758 4.61608e-08 0.000791313)
(0.128281 6.93639e-08 0.000820998)
(0.127787 5.56084e-08 0.000850004)
(0.127276 5.43482e-09 0.000878505)
(0.12675 -6.23586e-08 0.000906682)
(0.126207 -1.16789e-07 0.000934675)
(0.125648 -1.2893e-07 0.000962552)
(0.125073 -8.74311e-08 0.000990328)
(0.124483 -6.44183e-09 0.00101801)
(0.123876 7.95939e-08 0.00104565)
(0.123254 1.3244e-07 0.00107337)
(0.122614 1.29065e-07 0.00110137)
(0.121959 7.28894e-08 0.00112988)
(0.121287 -8.63289e-09 0.00115906)
(0.120598 -7.81338e-08 0.001189)
(0.119892 -1.06144e-07 0.00121968)
(0.119168 -8.3896e-08 0.00125106)
(0.118425 -2.56417e-08 0.00128309)
(0.117665 3.95e-08 0.00131582)
(0.116884 8.17678e-08 0.00134934)
(0.116084 8.45319e-08 0.00138381)
(0.115264 5.1468e-08 0.00141931)
(0.114424 3.78819e-09 0.00145585)
(0.113562 -3.11088e-08 0.00149337)
(0.112679 -3.4008e-08 0.00153176)
(0.111774 -3.81103e-09 0.00157096)
(0.110846 4.25457e-08 0.001611)
(0.109894 8.03229e-08 0.00165192)
(0.108919 9.12401e-08 0.00169378)
(0.10792 7.31939e-08 0.00173661)
(0.106896 3.96789e-08 0.00178038)
(0.105847 1.02338e-08 0.00182503)
(0.104772 -1.26019e-09 0.0018705)
(0.103671 6.54843e-09 0.00191677)
(0.102543 2.36257e-08 0.00196386)
(0.101388 3.60449e-08 0.0020118)
(0.100206 3.49579e-08 0.00206064)
(0.0989946 2.13738e-08 0.00211041)
(0.0977548 4.18795e-09 0.00216113)
(0.0964857 -6.22861e-09 0.00221279)
(0.0951868 -3.96141e-09 0.00226537)
(0.0938575 9.91591e-09 0.0023189)
(0.0924972 2.82515e-08 0.00237342)
(0.0911052 4.14321e-08 0.00242903)
(0.0896812 4.20945e-08 0.00248582)
(0.0882245 2.83962e-08 0.00254388)
(0.0867344 4.30026e-09 0.00260328)
(0.0852102 -2.23807e-08 0.00266406)
(0.083651 -4.2955e-08 0.0027263)
(0.082056 -5.16811e-08 0.00279009)
(0.0804243 -4.94501e-08 0.00285558)
(0.0787549 -4.35279e-08 0.00292295)
(0.0770468 -4.20755e-08 0.00299239)
(0.075299 -4.83669e-08 0.00306408)
(0.0735104 -5.97296e-08 0.0031382)
(0.0716797 -7.03898e-08 0.00321497)
(0.0698057 -7.55524e-08 0.00329459)
(0.0678868 -7.28416e-08 0.00337734)
(0.0659217 -6.09536e-08 0.00346355)
(0.0639085 -4.17785e-08 0.00355355)
(0.0618454 -2.33706e-08 0.00364773)
(0.0597304 -1.3211e-08 0.00374642)
(0.0575613 -1.11076e-08 0.00384981)
(0.0553355 -1.50499e-08 0.00395795)
(0.0530493 -2.14993e-08 0.00407049)
(0.0506992 -1.26285e-08 0.00418793)
(0.0482782 2.60143e-08 0.0043106)
(0.0457654 7.31781e-08 0.00444861)
(0.0431262 1.21034e-07 0.00459409)
(0.0405648 2.33916e-07 0.00470736)
(0.0381099 3.45089e-07 0.00457571)
(0.0354973 5.23728e-07 0.00446485)
(0.0325817 7.92852e-07 0.00454921)
(0.029683 1.16913e-06 0.00467275)
(0.0268337 2.3752e-06 0.00473879)
(0.0240195 4.06291e-06 0.00478072)
(0.0210868 -3.5881e-05 0.0047688)
(0.0180863 -2.6374e-05 0.00481151)
(0.0151179 -3.55399e-06 0.00470954)
(0.0123543 -1.98301e-05 0.00462584)
(0.00939494 -1.62117e-05 0.00457608)
(0.00673109 -3.55393e-06 0.00433097)
(0.00432034 -1.05291e-05 0.00402988)
(0.00206014 -8.05424e-06 0.00363504)
(5.28239e-05 -4.80017e-06 0.00306118)
(-0.0016276 -2.76528e-06 0.00223954)
(-0.00288956 -1.63195e-06 0.00111456)
(-0.00365023 -9.80726e-07 -0.000341187)
(-0.00378356 -5.67421e-07 -0.00207204)
(-0.00326078 -2.92956e-07 -0.0038669)
(-0.00172375 -7.96769e-08 -0.0053585)
(-0.0029426 4.17432e-08 0.00708115)
(-0.00586023 5.67568e-08 0.00677617)
(-0.00813523 6.18923e-08 0.00543287)
(-0.00954369 6.90043e-08 0.00364233)
(-0.0100873 5.97168e-08 0.00185466)
(-0.00976389 4.30361e-08 0.000213161)
(-0.0084524 1.04361e-07 -0.00124232)
(-0.00654178 1.23028e-07 -0.002564)
(-0.00418958 4.76979e-08 -0.00373099)
(-0.00131365 4.47108e-08 -0.00474731)
(0.00206405 1.08107e-08 -0.00540548)
(0.00543658 2.79212e-08 -0.00601063)
(0.00925991 -2.01731e-08 -0.00679124)
(0.01311 -8.22909e-08 -0.00721206)
(0.017028 -8.84478e-08 -0.0074146)
(0.0210181 -8.96242e-08 -0.00748897)
(0.0250301 -8.26699e-08 -0.0074677)
(0.0290342 -7.59851e-08 -0.00738301)
(0.0330032 -7.81307e-08 -0.00725524)
(0.0369148 -8.72891e-08 -0.00709742)
(0.0407531 -9.48446e-08 -0.00691882)
(0.0445063 -9.41386e-08 -0.00672619)
(0.048166 -8.57269e-08 -0.00652462)
(0.0517263 -7.60189e-08 -0.00631804)
(0.0551837 -7.08965e-08 -0.00610948)
(0.0585361 -7.14487e-08 -0.0059013)
(0.0617828 -7.50504e-08 -0.00569533)
(0.0649239 -7.82961e-08 -0.00549294)
(0.0679605 -7.8755e-08 -0.00529512)
(0.0708942 -7.54466e-08 -0.00510259)
(0.0737271 -6.89955e-08 -0.00491582)
(0.0764615 -6.14935e-08 -0.00473506)
(0.0790999 -5.51489e-08 -0.00456043)
(0.0816452 -5.08297e-08 -0.00439194)
(0.0841 -4.81418e-08 -0.00422949)
(0.0864671 -4.60803e-08 -0.00407294)
(0.0887492 -4.33506e-08 -0.0039221)
(0.090949 -3.9294e-08 -0.00377674)
(0.0930691 -3.49938e-08 -0.00363662)
(0.0951121 -3.25401e-08 -0.0035015)
(0.0970804 -3.29208e-08 -0.00337112)
(0.0989764 -3.53746e-08 -0.00324523)
(0.100802 -3.81481e-08 -0.0031236)
(0.10256 -3.95759e-08 -0.00300602)
(0.104252 -3.8685e-08 -0.00289229)
(0.10588 -3.58924e-08 -0.0027822)
(0.107446 -3.30047e-08 -0.00267558)
(0.108952 -3.19862e-08 -0.00257227)
(0.1104 -3.35377e-08 -0.00247211)
(0.111791 -3.68804e-08 -0.00237496)
(0.113126 -4.06115e-08 -0.00228069)
(0.114408 -4.34955e-08 -0.00218916)
(0.115638 -4.47785e-08 -0.00210027)
(0.116818 -4.45386e-08 -0.0020139)
(0.117948 -4.39238e-08 -0.00192995)
(0.11903 -4.44777e-08 -0.00184832)
(0.120065 -4.69905e-08 -0.00176892)
(0.121055 -5.06987e-08 -0.00169166)
(0.122 -5.40396e-08 -0.00161646)
(0.122903 -5.56558e-08 -0.00154324)
(0.123763 -5.50238e-08 -0.00147192)
(0.124582 -5.23016e-08 -0.00140244)
(0.125362 -4.81974e-08 -0.00133471)
(0.126102 -4.40609e-08 -0.00126868)
(0.126805 -4.16205e-08 -0.00120429)
(0.12747 -4.22449e-08 -0.00114149)
(0.128099 -4.61149e-08 -0.0010802)
(0.128694 -5.2157e-08 -0.00102038)
(0.129253 -5.87549e-08 -0.00096197)
(0.129779 -6.45418e-08 -0.000904896)
(0.130272 -6.86651e-08 -0.000849098)
(0.130732 -7.06962e-08 -0.000794511)
(0.131161 -7.06011e-08 -0.000741073)
(0.13156 -6.86898e-08 -0.00068872)
(0.131928 -6.57031e-08 -0.000637388)
(0.132266 -6.25735e-08 -0.000587013)
(0.132575 -6.01617e-08 -0.000537529)
(0.132855 -5.89338e-08 -0.000488874)
(0.133108 -5.897e-08 -0.000440985)
(0.133333 -5.98838e-08 -0.000393807)
(0.13353 -6.09707e-08 -0.000347285)
(0.133701 -6.13324e-08 -0.00030137)
(0.133845 -6.0196e-08 -0.000256019)
(0.133963 -5.71997e-08 -0.000211187)
(0.134055 -5.24578e-08 -0.000166839)
(0.134121 -4.65204e-08 -0.000122939)
(0.134163 -4.02157e-08 -7.94589e-05)
(0.134179 -3.45696e-08 -3.63814e-05)
(0.13417 -3.07281e-08 6.27304e-06)
(0.134137 -2.96145e-08 4.85598e-05)
(0.13408 -3.14381e-08 9.05628e-05)
(0.133998 -3.55042e-08 0.000132279)
(0.133893 -4.01662e-08 0.000173692)
(0.133764 -4.3271e-08 0.000214777)
(0.133612 -4.29474e-08 0.000255495)
(0.133436 -3.83958e-08 0.000295802)
(0.133238 -3.03188e-08 0.000335642)
(0.133018 -2.08617e-08 0.000374952)
(0.132775 -1.30873e-08 0.000413667)
(0.13251 -1.0211e-08 0.000451729)
(0.132225 -1.47701e-08 0.000489088)
(0.131918 -2.77965e-08 0.000525712)
(0.13159 -4.80129e-08 0.000561585)
(0.131243 -7.12027e-08 0.000596704)
(0.130875 -9.02636e-08 0.000631073)
(0.130488 -9.65645e-08 0.000664687)
(0.130083 -8.30184e-08 0.00069753)
(0.129659 -4.82109e-08 0.000729578)
(0.129217 3.06483e-10 0.000760815)
(0.128757 4.61607e-08 0.000791258)
(0.128281 6.93638e-08 0.000820978)
(0.127787 5.56083e-08 0.000850092)
(0.127277 5.43481e-09 0.000878734)
(0.12675 -6.23585e-08 0.000907021)
(0.126207 -1.16789e-07 0.00093503)
(0.125648 -1.2893e-07 0.000962809)
(0.125073 -8.74311e-08 0.000990411)
(0.124482 -6.44182e-09 0.00101792)
(0.123876 7.95939e-08 0.00104547)
(0.123253 1.3244e-07 0.00107325)
(0.122614 1.29065e-07 0.00110143)
(0.121959 7.28893e-08 0.00113014)
(0.121287 -8.63289e-09 0.00115948)
(0.120598 -7.81338e-08 0.00118945)
(0.119892 -1.06144e-07 0.00122003)
(0.119167 -8.38961e-08 0.00125123)
(0.118425 -2.56417e-08 0.0012831)
(0.117664 3.95e-08 0.00131576)
(0.116884 8.17678e-08 0.00134935)
(0.116084 8.45319e-08 0.00138396)
(0.115265 5.1468e-08 0.00141959)
(0.114424 3.78819e-09 0.00145618)
(0.113562 -3.11089e-08 0.00149363)
(0.112679 -3.40081e-08 0.00153187)
(0.111773 -3.81103e-09 0.00157094)
(0.110845 4.25458e-08 0.00161092)
(0.109894 8.0323e-08 0.0016519)
(0.108919 9.12403e-08 0.00169388)
(0.10792 7.3194e-08 0.00173681)
(0.106896 3.96789e-08 0.00178061)
(0.105847 1.02338e-08 0.0018252)
(0.104772 -1.26019e-09 0.00187057)
(0.103671 6.54844e-09 0.00191676)
(0.102543 2.36258e-08 0.00196383)
(0.101388 3.6045e-08 0.00201181)
(0.100206 3.4958e-08 0.0020607)
(0.0989945 2.13738e-08 0.00211049)
(0.0977547 4.18796e-09 0.00216117)
(0.0964856 -6.22863e-09 0.00221274)
(0.0951866 -3.96142e-09 0.00226523)
(0.0938572 9.91594e-09 0.00231871)
(0.0924969 2.82516e-08 0.00237324)
(0.091105 4.14322e-08 0.00242889)
(0.0896811 4.20947e-08 0.00248573)
(0.0882244 2.83962e-08 0.00254382)
(0.0867344 4.30027e-09 0.00260321)
(0.0852102 -2.23808e-08 0.00266396)
(0.083651 -4.29551e-08 0.00272615)
(0.0820559 -5.16813e-08 0.00278991)
(0.0804242 -4.94503e-08 0.00285539)
(0.0787547 -4.35281e-08 0.00292278)
(0.0770466 -4.20757e-08 0.00299224)
(0.0752988 -4.83671e-08 0.00306395)
(0.0735102 -5.97298e-08 0.0031381)
(0.0716796 -7.03901e-08 0.00321486)
(0.0698056 -7.55527e-08 0.00329447)
(0.0678867 -7.28419e-08 0.00337722)
(0.0659216 -6.09538e-08 0.00346344)
(0.0639084 -4.17787e-08 0.00355347)
(0.0618454 -2.33707e-08 0.0036477)
(0.0597305 -1.32111e-08 0.00374644)
(0.0575614 -1.11076e-08 0.00384988)
(0.0553356 -1.505e-08 0.00395803)
(0.0530494 -2.14995e-08 0.00407054)
(0.0506993 -1.26287e-08 0.00418795)
(0.0482783 2.60152e-08 0.00431055)
(0.0457656 7.31869e-08 0.00444842)
(0.0431267 1.21082e-07 0.00459372)
(0.0405654 2.34121e-07 0.00470707)
(0.0381106 3.45352e-07 0.00457593)
(0.0354989 5.23709e-07 0.00446592)
(0.0325859 7.92249e-07 0.00455102)
(0.0296949 1.16718e-06 0.00467578)
(0.0268554 2.36575e-06 0.00473814)
(0.0239919 4.01321e-06 0.00477912)
(0.0210139 -3.3925e-05 0.00482766)
(0.0180559 -2.22337e-05 0.0047616)
(0.0151594 -3.13754e-06 0.00466463)
(0.0122721 -1.51677e-05 0.00463008)
(0.00940435 -1.21167e-05 0.00452112)
(0.00681864 -3.20027e-06 0.00430474)
(0.00434503 -1.02493e-05 0.00403249)
(0.00207304 -8.00505e-06 0.00363876)
(6.03236e-05 -4.7936e-06 0.00306255)
(-0.00162349 -2.76437e-06 0.00223965)
(-0.00288739 -1.63178e-06 0.00111437)
(-0.00364921 -9.80681e-07 -0.000341246)
(-0.00378319 -5.67407e-07 -0.00207183)
(-0.00326066 -2.92961e-07 -0.00386637)
(-0.00172334 -7.96785e-08 -0.00535751)
(-0.00215439 4.08536e-08 0.0116161)
(-0.00421036 7.05944e-08 0.00942351)
(-0.00522903 6.41013e-08 0.00678137)
(-0.00545784 4.25762e-08 0.00401013)
(-0.00494091 1.44401e-08 0.0013537)
(-0.00375266 3.51628e-08 -0.00109648)
(-0.00192806 8.54322e-08 -0.00333783)
(0.000371881 2.85479e-08 -0.00531403)
(0.00304397 -1.03369e-08 -0.00699362)
(0.00604578 2.06007e-08 -0.00836135)
(0.00931843 1.45037e-08 -0.00945118)
(0.0127706 -4.90147e-08 -0.010289)
(0.016354 -7.73604e-08 -0.0109734)
(0.0199758 -4.6169e-08 -0.0114342)
(0.0236649 -3.54465e-08 -0.0117062)
(0.0274085 -3.46462e-08 -0.0118263)
(0.0311797 -3.38465e-08 -0.0118246)
(0.0349554 -3.33715e-08 -0.0117301)
(0.0387124 -3.48669e-08 -0.011566)
(0.0424309 -3.74025e-08 -0.0113503)