/*--------------------------------*- C++ -*----------------------------------*\
  =========                 |
  \\      /  F ield         | OpenFOAM: The Open Source CFD Toolbox
   \\    /   O peration     | Website:  https://openfoam.org
    \\  /    A nd           | Version:  8
     \\/     M anipulation  |
\*---------------------------------------------------------------------------*/
FoamFile
{
    version     2.0;
    format      ascii;
    class       volScalarField;
    location    "3800";
    object      alphat;
}
// * * * * * * * * * * * * * * * * * * * * * * * * * * * * * * * * * * * * * //

dimensions      [1 -1 -1 0 0 0 0];

internalField   nonuniform List<scalar> 
46000
(
1.42533e-06
5.78952e-06
1.05091e-05
1.48786e-05
1.89987e-05
2.29795e-05
2.68706e-05
3.06829e-05
3.44375e-05
3.81497e-05
4.1832e-05
4.54946e-05
4.91159e-05
5.27109e-05
5.62829e-05
5.98324e-05
6.33587e-05
6.68601e-05
7.03346e-05
7.37796e-05
7.71922e-05
8.05692e-05
8.39072e-05
8.72025e-05
9.04514e-05
9.36501e-05
9.67946e-05
9.9881e-05
0.000102905
0.000105864
0.000108752
0.000111567
0.000114304
0.00011696
0.000119531
0.000122014
0.000124406
0.000126704
0.000128904
0.000131005
0.000133003
0.000134896
0.000136683
0.000138362
0.000139931
0.000141388
0.000142733
0.000143965
0.000145082
0.000146086
0.000146975
0.00014775
0.000148412
0.00014896
0.000149395
0.00014972
0.000149935
0.000150041
0.000150041
0.000149936
0.00014973
0.000149425
0.000149027
0.000148534
0.000147949
0.000147273
0.00014651
0.000145663
0.000144735
0.000143728
0.000142648
0.000141496
0.000140277
0.000138993
0.000137649
0.000136249
0.000134794
0.00013329
0.00013174
0.000130147
0.000128515
0.000126847
0.000125146
0.000123417
0.000121662
0.000119885
0.000118088
0.000116276
0.00011445
0.000112613
0.000110769
0.00010892
0.000107069
0.000105218
0.000103369
0.000101526
9.96884e-05
9.78601e-05
9.60425e-05
9.42374e-05
9.24463e-05
9.06709e-05
8.89126e-05
8.71726e-05
8.54522e-05
8.37524e-05
8.20742e-05
8.04185e-05
7.87861e-05
7.71776e-05
7.55936e-05
7.40346e-05
7.25009e-05
7.09929e-05
6.95109e-05
6.80548e-05
6.66249e-05
6.52211e-05
6.38434e-05
6.24916e-05
6.11656e-05
5.9865e-05
5.85897e-05
5.73393e-05
5.61134e-05
5.49116e-05
5.37334e-05
5.25784e-05
5.14461e-05
5.03359e-05
4.92472e-05
4.81796e-05
4.71324e-05
4.6105e-05
4.50968e-05
4.41072e-05
4.31356e-05
4.21814e-05
4.1244e-05
4.03228e-05
3.94171e-05
3.85264e-05
3.76501e-05
3.67876e-05
3.59385e-05
3.51021e-05
3.42779e-05
3.34654e-05
3.26642e-05
3.18738e-05
3.10938e-05
3.03236e-05
2.9563e-05
2.88116e-05
2.8069e-05
2.73348e-05
2.66089e-05
2.58914e-05
2.51817e-05
2.44794e-05
2.37843e-05
2.30961e-05
2.24147e-05
2.17398e-05
2.10713e-05
2.04102e-05
1.97558e-05
1.91075e-05
1.84651e-05
1.78283e-05
1.71971e-05
1.65713e-05
1.59509e-05
1.53356e-05
1.47253e-05
1.41197e-05
1.35192e-05
1.29235e-05
1.2332e-05
1.1745e-05
1.1162e-05
1.05829e-05
1.00073e-05
9.43485e-06
8.86518e-06
8.29778e-06
7.73203e-06
7.16719e-06
6.60241e-06
6.0377e-06
5.47217e-06
4.90346e-06
4.32949e-06
3.7477e-06
3.1548e-06
2.54639e-06
1.91697e-06
1.26207e-06
6.0043e-07
1.16446e-07
1.42541e-06
5.78974e-06
1.05093e-05
1.48788e-05
1.89989e-05
2.29797e-05
2.68707e-05
3.0683e-05
3.44376e-05
3.81498e-05
4.18321e-05
4.54947e-05
4.9116e-05
5.27109e-05
5.62829e-05
5.98325e-05
6.33587e-05
6.68601e-05
7.03346e-05
7.37796e-05
7.71922e-05
8.05692e-05
8.39071e-05
8.72024e-05
9.04514e-05
9.36501e-05
9.67946e-05
9.9881e-05
0.000102905
0.000105864
0.000108752
0.000111566
0.000114304
0.000116959
0.000119531
0.000122014
0.000124406
0.000126703
0.000128904
0.000131004
0.000133003
0.000134896
0.000136683
0.000138362
0.00013993
0.000141388
0.000142733
0.000143964
0.000145082
0.000146086
0.000146975
0.00014775
0.000148411
0.000148959
0.000149395
0.00014972
0.000149934
0.000150041
0.00015004
0.000149936
0.000149729
0.000149425
0.000149027
0.000148534
0.000147948
0.000147273
0.00014651
0.000145663
0.000144734
0.000143728
0.000142648
0.000141496
0.000140276
0.000138993
0.000137649
0.000136248
0.000134794
0.00013329
0.00013174
0.000130147
0.000128514
0.000126846
0.000125146
0.000123417
0.000121662
0.000119885
0.000118088
0.000116275
0.000114449
0.000112613
0.000110769
0.00010892
0.000107069
0.000105218
0.000103369
0.000101525
9.96882e-05
9.78599e-05
9.60423e-05
9.42372e-05
9.24461e-05
9.06707e-05
8.89124e-05
8.71724e-05
8.5452e-05
8.37522e-05
8.2074e-05
8.04183e-05
7.87859e-05
7.71774e-05
7.55934e-05
7.40344e-05
7.25008e-05
7.09928e-05
6.95107e-05
6.80547e-05
6.66248e-05
6.5221e-05
6.38433e-05
6.24915e-05
6.11654e-05
5.98649e-05
5.85896e-05
5.73392e-05
5.61132e-05
5.49114e-05
5.37333e-05
5.25783e-05
5.14459e-05
5.03357e-05
4.92471e-05
4.81795e-05
4.71322e-05
4.61048e-05
4.50967e-05
4.41071e-05
4.31355e-05
4.21813e-05
4.12439e-05
4.03226e-05
3.9417e-05
3.85263e-05
3.765e-05
3.67875e-05
3.59384e-05
3.5102e-05
3.42778e-05
3.34654e-05
3.26642e-05
3.18738e-05
3.10937e-05
3.03236e-05
2.9563e-05
2.88115e-05
2.80689e-05
2.73348e-05
2.66088e-05
2.58913e-05
2.51816e-05
2.44793e-05
2.37842e-05
2.30961e-05
2.24146e-05
2.17397e-05
2.10713e-05
2.04101e-05
1.97557e-05
1.91075e-05
1.8465e-05
1.78283e-05
1.71971e-05
1.65713e-05
1.59509e-05
1.53356e-05
1.47252e-05
1.41197e-05
1.35192e-05
1.29234e-05
1.2332e-05
1.17449e-05
1.1162e-05
1.05828e-05
1.00072e-05
9.43482e-06
8.86516e-06
8.29776e-06
7.73201e-06
7.16717e-06
6.60239e-06
6.03769e-06
5.47217e-06
4.90346e-06
4.32948e-06
3.7477e-06
3.1548e-06
2.54639e-06
1.91697e-06
1.26207e-06
6.00431e-07
1.16446e-07
5.32991e-06
5.22634e-05
8.88647e-05
0.000114206
0.000133839
0.000150124
0.000164137
0.000176677
0.000188172
0.000198882
0.000208966
0.000218548
0.000227726
0.000236552
0.000245068
0.000253307
0.000261293
0.000269047
0.000276583
0.000283914
0.000291048
0.000297992
0.000304752
0.000311331
0.000317732
0.000323956
0.000330006
0.00033588
0.000341579
0.000347103
0.00035245
0.00035762
0.000362611
0.000367423
0.000372054
0.000376502
0.000380766
0.000384846
0.000388739
0.000392444
0.000395962
0.00039929
0.000402428
0.000405376
0.000408133
0.000410699
0.000413075
0.00041526
0.000417255
0.00041906
0.000420677
0.000422107
0.000423351
0.00042441
0.000425287
0.000425984
0.000426502
0.000426844
0.000427012
0.000427009
0.000426837
0.000426499
0.000425996
0.000425335
0.000424519
0.000423554
0.000422443
0.00042119
0.0004198
0.000418278
0.000416627
0.000414852
0.000412959
0.000410951
0.000408833
0.000406611
0.000404288
0.00040187
0.000399361
0.000396767
0.000394092
0.000391341
0.000388518
0.000385629
0.000382677
0.000379669
0.000376607
0.000373497
0.000370343
0.000367149
0.00036392
0.000360659
0.00035737
0.000354058
0.000350726
0.000347378
0.000344017
0.000340647
0.000337271
0.000333892
0.000330513
0.000327137
0.000323766
0.000320404
0.000317052
0.000313712
0.000310388
0.000307081
0.000303793
0.000300525
0.000297279
0.000294056
0.000290858
0.000287686
0.00028454
0.000281423
0.000278333
0.000275273
0.000272242
0.00026924
0.000266269
0.000263328
0.000260417
0.000257536
0.000254685
0.000251864
0.000249071
0.000246308
0.000243572
0.000240864
0.000238183
0.000235528
0.000232898
0.000230292
0.00022771
0.00022515
0.000222612
0.000220094
0.000217595
0.000215114
0.00021265
0.000210201
0.000207768
0.000205347
0.000202939
0.000200542
0.000198154
0.000195775
0.000193404
0.000191038
0.000188678
0.000186321
0.000183967
0.000181614
0.000179263
0.000176911
0.000174558
0.000172201
0.00016984
0.000167473
0.0001651
0.000162719
0.000160328
0.000157926
0.00015551
0.000153074
0.000150623
0.000148155
0.000145671
0.000143168
0.000140645
0.0001381
0.000135531
0.000132936
0.000130313
0.000127658
0.000124969
0.00012224
0.000119469
0.00011665
0.000113778
0.000110846
0.000107847
0.000104771
0.000101608
9.83434e-05
9.49612e-05
9.144e-05
8.77502e-05
8.38435e-05
7.96876e-05
7.52308e-05
7.03939e-05
6.50625e-05
5.90623e-05
5.21076e-05
4.36801e-05
3.26982e-05
1.67118e-05
5.44889e-07
5.32997e-06
5.22651e-05
8.88673e-05
0.000114209
0.000133842
0.000150127
0.00016414
0.00017668
0.000188176
0.000198885
0.000208969
0.000218552
0.000227729
0.000236556
0.000245072
0.000253311
0.000261297
0.000269051
0.000276587
0.000283918
0.000291052
0.000297996
0.000304756
0.000311335
0.000317736
0.000323961
0.00033001
0.000335884
0.000341583
0.000347107
0.000352454
0.000357624
0.000362616
0.000367428
0.000372058
0.000376507
0.000380771
0.00038485
0.000388744
0.000392449
0.000395967
0.000399295
0.000402433
0.000405381
0.000408138
0.000410704
0.00041308
0.000415265
0.00041726
0.000419065
0.000420682
0.000422112
0.000423356
0.000424415
0.000425292
0.000425989
0.000426507
0.000426849
0.000427017
0.000427014
0.000426842
0.000426504
0.000426001
0.00042534
0.000424524
0.000423559
0.000422447
0.000421195
0.000419805
0.000418282
0.000416632
0.000414857
0.000412963
0.000410955
0.000408838
0.000406615
0.000404292
0.000401874
0.000399366
0.000396772
0.000394096
0.000391345
0.000388522
0.000385633
0.000382682
0.000379673
0.000376611
0.000373501
0.000370347
0.000367153
0.000363923
0.000360662
0.000357374
0.000354062
0.00035073
0.000347382
0.000344021
0.000340651
0.000337274
0.000333895
0.000330516
0.00032714
0.000323769
0.000320407
0.000317055
0.000313716
0.000310391
0.000307084
0.000303796
0.000300528
0.000297281
0.000294059
0.000290861
0.000287689
0.000284543
0.000281425
0.000278336
0.000275275
0.000272244
0.000269243
0.000266272
0.00026333
0.000260419
0.000257538
0.000254687
0.000251866
0.000249073
0.00024631
0.000243574
0.000240866
0.000238185
0.00023553
0.0002329
0.000230294
0.000227712
0.000225152
0.000222614
0.000220095
0.000217596
0.000215115
0.000212651
0.000210203
0.000207769
0.000205349
0.00020294
0.000200543
0.000198156
0.000195777
0.000193405
0.000191039
0.000188679
0.000186322
0.000183968
0.000181616
0.000179264
0.000176912
0.000174559
0.000172202
0.000169841
0.000167474
0.000165101
0.000162719
0.000160329
0.000157927
0.000155511
0.000153075
0.000150623
0.000148156
0.000145672
0.000143169
0.000140646
0.000138101
0.000135532
0.000132937
0.000130313
0.000127659
0.000124969
0.000122241
0.00011947
0.000116651
0.000113779
0.000110847
0.000107848
0.000104772
0.000101608
9.83439e-05
9.49617e-05
9.14404e-05
8.77506e-05
8.38438e-05
7.96879e-05
7.52311e-05
7.03942e-05
6.50628e-05
5.90626e-05
5.21078e-05
4.36802e-05
3.26983e-05
1.67117e-05
5.4489e-07
9.88846e-06
8.6237e-05
0.000159964
0.000215146
0.00025799
0.000292686
0.000321855
0.00034716
0.000369648
0.000390016
0.000408736
0.000426136
0.000442457
0.000457869
0.000472497
0.000486438
0.000499768
0.000512547
0.000524823
0.000536636
0.000548015
0.000558988
0.000569575
0.000579794
0.000589659
0.000599183
0.000608374
0.000617243
0.000625796
0.000634038
0.000641975
0.000649612
0.000656951
0.000663996
0.00067075
0.000677214
0.000683392
0.000689285
0.000694895
0.000700224
0.000705273
0.000710044
0.000714538
0.000718758
0.000722705
0.00072638
0.000729786
0.000732926
0.0007358
0.000738411
0.000740763
0.000742856
0.000744695
0.000746282
0.000747619
0.000748711
0.00074956
0.000750169
0.000750541
0.000750681
0.000750589
0.000750269
0.000749723
0.000748959
0.000747983
0.000746802
0.000745421
0.000743846
0.000742083
0.000740137
0.000738012
0.000735716
0.000733253
0.000730629
0.000727851
0.000724922
0.00072185
0.00071864
0.000715298
0.000711829
0.00070824
0.000704537
0.000700724
0.000696808
0.000692794
0.000688689
0.000684497
0.000680225
0.000675877
0.00067146
0.000666978
0.000662436
0.00065784
0.000653196
0.000648506
0.000643777
0.000639014
0.000634219
0.000629399
0.000624557
0.000619697
0.000614823
0.000609939
0.000605049
0.000600156
0.000595262
0.000590372
0.000585488
0.000580613
0.00057575
0.0005709
0.000566066
0.000561251
0.000556455
0.000551681
0.000546929
0.000542202
0.000537501
0.000532825
0.000528177
0.000523556
0.000518963
0.000514399
0.000509863
0.000505356
0.000500877
0.000496425
0.000492001
0.000487604
0.000483233
0.000478887
0.000474566
0.000470268
0.000465991
0.000461736
0.0004575
0.000453282
0.000449081
0.000444894
0.000440721
0.00043656
0.000432409
0.000428266
0.00042413
0.000419999
0.00041587
0.000411743
0.000407614
0.000403483
0.000399348
0.000395206
0.000391056
0.000386896
0.000382724
0.000378538
0.000374337
0.000370117
0.000365876
0.000361612
0.000357322
0.000353004
0.000348655
0.000344273
0.000339854
0.000335392
0.00033088
0.00032632
0.000321711
0.00031705
0.000312334
0.000307559
0.000302721
0.000297813
0.000292831
0.000287767
0.000282615
0.000277365
0.000272007
0.00026653
0.00026092
0.00025516
0.000249233
0.000243117
0.000236786
0.000230208
0.000223346
0.000216151
0.000208563
0.000200503
0.000191867
0.000182522
0.000172322
0.000161039
0.000148347
0.000133759
0.000116513
9.53368e-05
6.80385e-05
3.16975e-05
1.15213e-06
9.88858e-06
8.62394e-05
0.000159969
0.000215152
0.000257996
0.000292692
0.000321861
0.000347166
0.000369655
0.000390023
0.000408742
0.000426142
0.000442463
0.000457875
0.000472503
0.000486444
0.000499774
0.000512553
0.000524829
0.000536642
0.000548021
0.000558994
0.000569581
0.0005798
0.000589665
0.000599189
0.000608381
0.000617249
0.000625802
0.000634044
0.000641982
0.000649618
0.000656957
0.000664002
0.000670756
0.000677221
0.000683399
0.000689292
0.000694902
0.000700231
0.00070528
0.00071005
0.000714545
0.000718765
0.000722711
0.000726387
0.000729793
0.000732932
0.000735806
0.000738418
0.000740769
0.000742863
0.000744702
0.000746288
0.000747626
0.000748717
0.000749566
0.000750175
0.000750548
0.000750687
0.000750595
0.000750275
0.000749729
0.000748965
0.000747989
0.000746808
0.000745427
0.000743852
0.000742089
0.000740142
0.000738018
0.000735722
0.000733259
0.000730635
0.000727856
0.000724927
0.000721855
0.000718645
0.000715303
0.000711834
0.000708245
0.000704541
0.000700729
0.000696813
0.000692799
0.000688693
0.000684502
0.000680229
0.000675882
0.000671464
0.000666982
0.00066244
0.000657844
0.000653199
0.00064851
0.000643781
0.000639017
0.000634223
0.000629403
0.00062456
0.0006197
0.000614827
0.000609943
0.000605052
0.000600159
0.000595265
0.000590375
0.000585491
0.000580616
0.000575753
0.000570903
0.000566069
0.000561253
0.000556457
0.000551683
0.000546932
0.000542205
0.000537503
0.000532827
0.000528179
0.000523558
0.000518965
0.000514401
0.000509865
0.000505358
0.000500878
0.000496427
0.000492003
0.000487606
0.000483235
0.000478889
0.000474567
0.000470269
0.000465993
0.000461737
0.000457501
0.000453283
0.000449082
0.000444895
0.000440722
0.000436561
0.00043241
0.000428267
0.000424131
0.000419999
0.000415871
0.000411743
0.000407615
0.000403484
0.000399348
0.000395206
0.000391056
0.000386896
0.000382724
0.000378539
0.000374338
0.000370118
0.000365876
0.000361612
0.000357322
0.000353004
0.000348655
0.000344273
0.000339854
0.000335392
0.00033088
0.00032632
0.000321711
0.00031705
0.000312334
0.00030756
0.000302721
0.000297813
0.000292831
0.000287768
0.000282615
0.000277365
0.000272007
0.00026653
0.00026092
0.00025516
0.000249233
0.000243117
0.000236786
0.000230208
0.000223346
0.000216151
0.000208563
0.000200503
0.000191867
0.000182522
0.000172322
0.000161039
0.000148347
0.00013376
0.000116513
9.53369e-05
6.80386e-05
3.16973e-05
1.15213e-06
1.42458e-05
0.000110435
0.000212616
0.000295133
0.000361653
0.000416448
0.000462762
0.00050283
0.000538187
0.000569907
0.000598753
0.000625278
0.00064989
0.000672894
0.000694521
0.000714947
0.000734315
0.000752737
0.000770302
0.000787085
0.000803147
0.000818537
0.000833298
0.000847466
0.00086107
0.000874135
0.000886685
0.000898738
0.00091031
0.000921417
0.000932069
0.00094228
0.000952059
0.000961415
0.000970356
0.000978889
0.000987021
0.000994759
0.00100211
0.00100907
0.00101566
0.00102187
0.00102772
0.0010332
0.00103832
0.00104309
0.00104751
0.00105158
0.00105531
0.0010587
0.00106176
0.00106449
0.00106689
0.00106898
0.00107075
0.00107222
0.00107337
0.00107423
0.00107478
0.00107505
0.00107502
0.00107471
0.00107412
0.00107326
0.00107213
0.00107074
0.0010691
0.00106722
0.0010651
0.00106275
0.00106018
0.00105739
0.00105439
0.00105118
0.00104778
0.00104419
0.00104041
0.00103645
0.00103233
0.00102804
0.00102359
0.001019
0.00101425
0.00100938
0.00100437
0.000999233
0.000993982
0.00098862
0.000983153
0.000977589
0.000971932
0.000966189
0.000960367
0.000954471
0.000948507
0.00094248
0.000936397
0.000930263
0.000924082
0.000917861
0.000911605
0.000905317
0.000899003
0.000892666
0.000886313
0.000879945
0.000873569
0.000867186
0.0008608
0.000854415
0.000848034
0.00084166
0.000835294
0.00082894
0.0008226
0.000816276
0.000809969
0.00080368
0.000797412
0.000791165
0.00078494
0.000778738
0.000772559
0.000766403
0.000760271
0.000754161
0.000748075
0.000742011
0.000735968
0.000729947
0.000723945
0.000717961
0.000711995
0.000706045
0.000700109
0.000694185
0.000688272
0.000682369
0.000676472
0.00067058
0.00066469
0.000658801
0.000652911
0.000647016
0.000641115
0.000635206
0.000629285
0.00062335
0.000617399
0.00061143
0.000605439
0.000599424
0.000593384
0.000587314
0.000581213
0.000575077
0.000568901
0.000562683
0.000556419
0.000550106
0.00054374
0.000537317
0.000530832
0.00052428
0.000517654
0.000510946
0.000504154
0.000497274
0.000490302
0.000483232
0.000476056
0.000468765
0.000461352
0.000453805
0.000446113
0.000438261
0.000430234
0.000422014
0.00041358
0.000404908
0.000395968
0.000386729
0.000377149
0.000367181
0.00035677
0.000345846
0.000334325
0.0003221
0.000309038
0.000294967
0.000279666
0.000262866
0.000244193
0.000223127
0.000198927
0.00017051
0.000136267
9.39095e-05
4.19726e-05
1.76167e-06
1.4246e-05
0.000110437
0.000212622
0.000295141
0.000361661
0.000416457
0.000462771
0.000502839
0.000538196
0.000569916
0.000598762
0.000625287
0.000649899
0.000672903
0.000694529
0.000714956
0.000734324
0.000752745
0.000770311
0.000787094
0.000803155
0.000818546
0.000833307
0.000847474
0.000861078
0.000874144
0.000886694
0.000898746
0.000910319
0.000921425
0.000932078
0.000942289
0.000952068
0.000961423
0.000970364
0.000978897
0.000987029
0.000994767
0.00100212
0.00100908
0.00101567
0.00102188
0.00102773
0.00103321
0.00103833
0.0010431
0.00104752
0.00105159
0.00105531
0.00105871
0.00106177
0.0010645
0.0010669
0.00106899
0.00107076
0.00107222
0.00107338
0.00107423
0.00107479
0.00107505
0.00107503
0.00107472
0.00107413
0.00107326
0.00107213
0.00107075
0.00106911
0.00106723
0.00106511
0.00106276
0.00106019
0.00105739
0.00105439
0.00105119
0.00104779
0.00104419
0.00104041
0.00103646
0.00103233
0.00102804
0.0010236
0.001019
0.00101426
0.00100938
0.00100437
0.000999237
0.000993986
0.000988624
0.000983158
0.000977593
0.000971936
0.000966193
0.000960371
0.000954474
0.00094851
0.000942484
0.0009364
0.000930266
0.000924086
0.000917864
0.000911608
0.00090532
0.000899005
0.000892669
0.000886315
0.000879948
0.000873571
0.000867188
0.000860802
0.000854417
0.000848036
0.000841662
0.000835296
0.000828942
0.000822602
0.000816277
0.00080997
0.000803682
0.000797414
0.000791167
0.000784942
0.000778739
0.00077256
0.000766404
0.000760272
0.000754162
0.000748076
0.000742012
0.000735969
0.000729947
0.000723945
0.000717962
0.000711996
0.000706045
0.000700109
0.000694186
0.000688273
0.000682369
0.000676472
0.00067058
0.00066469
0.000658801
0.000652911
0.000647016
0.000641115
0.000635206
0.000629285
0.00062335
0.000617399
0.000611429
0.000605439
0.000599424
0.000593383
0.000587314
0.000581213
0.000575076
0.0005689
0.000562682
0.000556418
0.000550105
0.000543739
0.000537316
0.000530831
0.000524279
0.000517653
0.000510945
0.000504153
0.000497273
0.000490302
0.000483231
0.000476055
0.000468765
0.000461351
0.000453804
0.000446112
0.00043826
0.000430233
0.000422013
0.000413579
0.000404907
0.000395968
0.000386728
0.000377148
0.00036718
0.000356769
0.000345845
0.000334324
0.0003221
0.000309038
0.000294967
0.000279666
0.000262865
0.000244192
0.000223126
0.000198926
0.00017051
0.000136267
9.39096e-05
4.19724e-05
1.76167e-06
1.84515e-05
0.000129926
0.000254221
0.000359857
0.000447853
0.000521917
0.000585285
0.000640413
0.000689119
0.000732743
0.000772279
0.000808471
0.000841882
0.000872943
0.000901989
0.000929281
0.000955028
0.000979397
0.00100252
0.00102452
0.00104548
0.00106548
0.00108459
0.00110285
0.00112033
0.00113705
0.00115306
0.00116838
0.00118304
0.00119708
0.00121049
0.00122332
0.00123557
0.00124725
0.00125839
0.001269
0.00127909
0.00128866
0.00129774
0.00130632
0.00131443
0.00132206
0.00132923
0.00133594
0.0013422
0.00134803
0.00135342
0.00135838
0.00136293
0.00136706
0.00137078
0.00137411
0.00137705
0.00137959
0.00138176
0.00138356
0.00138499
0.00138605
0.00138677
0.00138713
0.00138715
0.00138683
0.00138617
0.00138519
0.0013839
0.0013823
0.0013804
0.00137822
0.00137575
0.001373
0.00136999
0.00136672
0.0013632
0.00135943
0.00135543
0.0013512
0.00134675
0.00134208
0.00133721
0.00133214
0.00132688
0.00132144
0.00131582
0.00131003
0.00130408
0.00129798
0.00129173
0.00128535
0.00127883
0.00127219
0.00126543
0.00125857
0.0012516
0.00124453
0.00123737
0.00123013
0.00122282
0.00121543
0.00120798
0.00120047
0.00119291
0.0011853
0.00117765
0.00116996
0.00116224
0.0011545
0.00114673
0.00113895
0.00113115
0.00112334
0.00111552
0.0011077
0.00109988
0.00109206
0.00108425
0.00107645
0.00106865
0.00106087
0.0010531
0.00104534
0.0010376
0.00102987
0.00102216
0.00101447
0.00100679
0.000999129
0.000991484
0.000983854
0.000976239
0.000968637
0.000961047
0.000953468
0.000945898
0.000938335
0.000930777
0.000923224
0.000915671
0.000908117
0.00090056
0.000892997
0.000885426
0.000877843
0.000870246
0.000862633
0.000855
0.000847344
0.000839662
0.000831952
0.00082421
0.000816433
0.000808618
0.000800762
0.000792861
0.000784911
0.00077691
0.000768851
0.000760731
0.000752546
0.00074429
0.000735959
0.000727547
0.00071905
0.00071046
0.00070177
0.000692973
0.000684061
0.000675024
0.000665859
0.000656557
0.000647109
0.000637504
0.000627729
0.000617772
0.000607615
0.000597241
0.00058663
0.000575758
0.000564598
0.000553119
0.000541285
0.000529054
0.000516375
0.000503192
0.000489433
0.000475016
0.000459841
0.000443786
0.0004267
0.000408397
0.000388642
0.000367139
0.000343506
0.000317263
0.000287749
0.000254073
0.000215018
0.000168941
0.000113901
4.99654e-05
2.35913e-06
1.84516e-05
0.000129929
0.000254227
0.000359865
0.000447863
0.000521928
0.000585296
0.000640424
0.000689131
0.000732755
0.000772291
0.000808482
0.000841893
0.000872954
0.000902
0.000929292
0.000955039
0.000979408
0.00100254
0.00102453
0.00104549
0.00106549
0.0010846
0.00110286
0.00112034
0.00113706
0.00115307
0.00116839
0.00118306
0.00119709
0.0012105
0.00122333
0.00123558
0.00124726
0.0012584
0.00126901
0.0012791
0.00128867
0.00129775
0.00130633
0.00131444
0.00132207
0.00132924
0.00133595
0.00134221
0.00134804
0.00135343
0.00135839
0.00136293
0.00136707
0.00137079
0.00137412
0.00137705
0.0013796
0.00138177
0.00138357
0.00138499
0.00138606
0.00138677
0.00138714
0.00138715
0.00138683
0.00138618
0.0013852
0.00138391
0.00138231
0.00138041
0.00137822
0.00137575
0.00137301
0.00137
0.00136672
0.0013632
0.00135944
0.00135543
0.0013512
0.00134675
0.00134209
0.00133721
0.00133215
0.00132688
0.00132144
0.00131582
0.00131003
0.00130409
0.00129799
0.00129174
0.00128535
0.00127884
0.0012722
0.00126544
0.00125857
0.0012516
0.00124453
0.00123738
0.00123014
0.00122282
0.00121543
0.00120798
0.00120047
0.00119291
0.0011853
0.00117765
0.00116997
0.00116225
0.0011545
0.00114673
0.00113895
0.00113115
0.00112334
0.00111552
0.0011077
0.00109988
0.00109207
0.00108425
0.00107645
0.00106865
0.00106087
0.0010531
0.00104534
0.0010376
0.00102987
0.00102216
0.00101447
0.00100679
0.00099913
0.000991485
0.000983855
0.00097624
0.000968637
0.000961047
0.000953468
0.000945898
0.000938335
0.000930778
0.000923224
0.000915671
0.000908117
0.00090056
0.000892997
0.000885425
0.000877843
0.000870246
0.000862632
0.000854999
0.000847343
0.000839662
0.000831952
0.00082421
0.000816433
0.000808618
0.000800761
0.00079286
0.000784911
0.000776909
0.000768851
0.000760731
0.000752545
0.000744289
0.000735958
0.000727546
0.000719049
0.000710459
0.000701769
0.000692972
0.00068406
0.000675023
0.000665858
0.000656556
0.000647108
0.000637503
0.000627728
0.00061777
0.000607614
0.00059724
0.000586629
0.000575757
0.000564597
0.000553118
0.000541284
0.000529053
0.000516375
0.000503191
0.000489432
0.000475015
0.00045984
0.000443785
0.000426699
0.000408397
0.000388642
0.000367138
0.000343506
0.000317262
0.000287749
0.000254074
0.000215018
0.000168942
0.000113901
4.99651e-05
2.35914e-06
2.25806e-05
0.000146581
0.000288739
0.000413963
0.000521009
0.000612769
0.000692233
0.000761884
0.000823671
0.000879099
0.000929326
0.000975243
0.00101754
0.00105677
0.00109334
0.00112761
0.00115984
0.00119025
0.00121902
0.00124631
0.00127224
0.00129691
0.00132041
0.00134282
0.0013642
0.00138461
0.0014041
0.00142271
0.00144048
0.00145744
0.00147363
0.00148906
0.00150377
0.00151778
0.00153111
0.00154377
0.00155579
0.00156718
0.00157795
0.00158813
0.00159771
0.00160673
0.00161519
0.00162309
0.00163046
0.0016373
0.00164362
0.00164944
0.00165475
0.00165959
0.00166394
0.00166782
0.00167125
0.00167422
0.00167674
0.00167884
0.0016805
0.00168175
0.00168259
0.00168302
0.00168305
0.0016827
0.00168197
0.00168086
0.00167939
0.00167756
0.0016754
0.0016729
0.00167007
0.00166693
0.00166349
0.00165974
0.00165571
0.0016514
0.00164681
0.00164196
0.00163686
0.0016315
0.00162592
0.0016201
0.00161406
0.0016078
0.00160135
0.0015947
0.00158785
0.00158083
0.00157364
0.00156629
0.00155878
0.00155112
0.00154333
0.0015354
0.00152735
0.00151918
0.0015109
0.00150253
0.00149405
0.00148549
0.00147685
0.00146814
0.00145935
0.00145051
0.00144161
0.00143266
0.00142366
0.00141463
0.00140556
0.00139647
0.00138735
0.00137821
0.00136905
0.00135988
0.0013507
0.00134151
0.00133233
0.00132314
0.00131395
0.00130477
0.00129559
0.00128642
0.00127725
0.0012681
0.00125895
0.00124982
0.00124069
0.00123157
0.00122246
0.00121335
0.00120426
0.00119516
0.00118608
0.00117699
0.0011679
0.00115881
0.00114972
0.00114062
0.00113151
0.00112239
0.00111326
0.0011041
0.00109493
0.00108573
0.00107651
0.00106725
0.00105796
0.00104864
0.00103927
0.00102986
0.00102039
0.00101088
0.00100131
0.00099168
0.000981985
0.000972222
0.000962384
0.000952467
0.000942465
0.000932373
0.000922184
0.000911893
0.000901493
0.000890977
0.000880336
0.000869563
0.000858647
0.000847577
0.000836344
0.00082494
0.000813351
0.000801567
0.000789571
0.000777347
0.000764877
0.000752138
0.000739108
0.000725758
0.000712057
0.000697969
0.000683452
0.000668457
0.00065293
0.000636804
0.000620002
0.000602434
0.00058399
0.000564542
0.000543932
0.000521969
0.000498421
0.000472999
0.000445341
0.000414994
0.000381389
0.000343786
0.000301223
0.000252464
0.000195982
0.000130279
5.66695e-05
2.9482e-06
2.25807e-05
0.000146584
0.000288745
0.000413972
0.000521019
0.000612781
0.000692246
0.000761897
0.000823685
0.000879113
0.000929339
0.000975257
0.00101756
0.00105678
0.00109336
0.00112762
0.00115985
0.00119026
0.00121903
0.00124632
0.00127225
0.00129692
0.00132042
0.00134283
0.00136421
0.00138462
0.00140411
0.00142272
0.00144049
0.00145745
0.00147364
0.00148907
0.00150378
0.00151779
0.00153112
0.00154378
0.0015558
0.00156719
0.00157796
0.00158814
0.00159773
0.00160674
0.0016152
0.0016231
0.00163047
0.00163731
0.00164363
0.00164945
0.00165476
0.0016596
0.00166395
0.00166783
0.00167125
0.00167423
0.00167675
0.00167885
0.00168051
0.00168176
0.0016826
0.00168303
0.00168306
0.00168271
0.00168197
0.00168086
0.00167939
0.00167757
0.0016754
0.0016729
0.00167008
0.00166694
0.00166349
0.00165975
0.00165572
0.0016514
0.00164682
0.00164197
0.00163686
0.00163151
0.00162592
0.0016201
0.00161406
0.00160781
0.00160135
0.0015947
0.00158786
0.00158084
0.00157365
0.00156629
0.00155878
0.00155113
0.00154333
0.0015354
0.00152735
0.00151918
0.00151091
0.00150253
0.00149406
0.0014855
0.00147685
0.00146814
0.00145935
0.00145051
0.00144161
0.00143266
0.00142367
0.00141463
0.00140556
0.00139647
0.00138735
0.00137821
0.00136905
0.00135988
0.0013507
0.00134152
0.00133233
0.00132314
0.00131395
0.00130477
0.00129559
0.00128642
0.00127726
0.0012681
0.00125895
0.00124982
0.00124069
0.00123157
0.00122246
0.00121335
0.00120426
0.00119516
0.00118608
0.00117699
0.0011679
0.00115881
0.00114972
0.00114062
0.00113151
0.00112239
0.00111326
0.0011041
0.00109493
0.00108573
0.00107651
0.00106725
0.00105796
0.00104864
0.00103927
0.00102986
0.00102039
0.00101088
0.00100131
0.000991679
0.000981985
0.000972221
0.000962383
0.000952466
0.000942464
0.000932372
0.000922183
0.000911892
0.000901492
0.000890976
0.000880336
0.000869562
0.000858646
0.000847577
0.000836343
0.000824939
0.00081335
0.000801566
0.00078957
0.000777346
0.000764876
0.000752137
0.000739107
0.000725757
0.000712056
0.000697968
0.000683451
0.000668456
0.000652929
0.000636803
0.000620001
0.000602433
0.00058399
0.000564541
0.000543931
0.000521969
0.000498421
0.000472998
0.000445341
0.000414994
0.000381389
0.000343786
0.000301224
0.000252464
0.000195982
0.000130279
5.66692e-05
2.94821e-06
2.6651e-05
0.000161306
0.000318519
0.000460569
0.000584442
0.000692209
0.000786535
0.000869822
0.00094406
0.00101085
0.00107145
0.00112686
0.00117789
0.00122515
0.00126917
0.00131033
0.00134898
0.00138539
0.00141977
0.00145232
0.00148318
0.00151249
0.00154037
0.00156689
0.00159216
0.00161623
0.00163917
0.00166105
0.00168189
0.00170176
0.00172068
0.0017387
0.00175584
0.00177214
0.00178762
0.0018023
0.00181622
0.00182939
0.00184182
0.00185355
0.00186459
0.00187495
0.00188466
0.00189372
0.00190215
0.00190997
0.00191718
0.00192381
0.00192987
0.00193536
0.0019403
0.0019447
0.00194858
0.00195194
0.00195479
0.00195715
0.00195902
0.00196042
0.00196135
0.00196182
0.00196185
0.00196145
0.00196061
0.00195935
0.00195769
0.00195563
0.00195318
0.00195036
0.00194718
0.00194364
0.00193976
0.00193554
0.001931
0.00192614
0.00192098
0.00191553
0.00190978
0.00190376
0.00189748
0.00189093
0.00188414
0.0018771
0.00186984
0.00186235
0.00185466
0.00184675
0.00183866
0.00183038
0.00182192
0.0018133
0.00180451
0.00179558
0.0017865
0.00177729
0.00176795
0.00175849
0.00174892
0.00173925
0.00172949
0.00171964
0.0017097
0.00169969
0.00168962
0.00167948
0.00166929
0.00165904
0.00164876
0.00163843
0.00162807
0.00161768
0.00160727
0.00159683
0.00158638
0.00157592
0.00156544
0.00155496
0.00154447
0.00153397
0.00152348
0.00151298
0.00150249
0.001492
0.00148151
0.00147102
0.00146053
0.00145005