/*--------------------------------*- C++ -*----------------------------------*\
  =========                 |
  \\      /  F ield         | OpenFOAM: The Open Source CFD Toolbox
   \\    /   O peration     | Website:  https://openfoam.org
    \\  /    A nd           | Version:  8
     \\/     M anipulation  |
\*---------------------------------------------------------------------------*/
FoamFile
{
    version     2.0;
    format      ascii;
    class       volScalarField;
    location    "3800";
    object      epsilon;
}
// * * * * * * * * * * * * * * * * * * * * * * * * * * * * * * * * * * * * * //

dimensions      [0 2 -3 0 0 0 0];

internalField   nonuniform List<scalar> 
46000
(
25.8354
94.7574
171.6
242.577
309.408
373.91
436.903
498.574
559.272
619.249
678.711
737.827
796.25
854.224
911.807
969.007
1025.81
1082.2
1138.14
1193.59
1248.5
1302.83
1356.52
1409.51
1461.75
1513.16
1563.7
1613.29
1661.88
1709.4
1755.78
1800.98
1844.92
1887.56
1928.83
1968.67
2007.05
2043.91
2079.21
2112.9
2144.94
2175.3
2203.94
2230.84
2255.98
2279.32
2300.86
2320.58
2338.46
2354.52
2368.74
2381.12
2391.68
2400.42
2407.35
2412.5
2415.89
2417.53
2417.47
2415.73
2412.36
2407.42
2400.96
2392.99
2383.54
2372.64
2360.33
2346.68
2331.72
2315.52
2298.12
2279.58
2259.96
2239.31
2217.69
2195.15
2171.76
2147.57
2122.64
2097.02
2070.78
2043.96
2016.63
1988.83
1960.61
1932.04
1903.17
1874.03
1844.68
1815.16
1785.52
1755.8
1726.05
1696.29
1666.58
1636.94
1607.42
1578.03
1548.81
1519.8
1491.01
1462.47
1434.21
1406.24
1378.59
1351.26
1324.29
1297.67
1271.43
1245.57
1220.1
1195.04
1170.38
1146.14
1122.31
1098.89
1075.9
1053.33
1031.18
1009.44
988.113
967.198
946.687
926.576
906.859
887.528
868.577
849.998
831.783
813.923
796.408
779.231
762.382
745.85
729.627
713.702
698.066
682.709
667.62
652.791
638.211
623.872
609.763
595.875
582.201
568.73
555.455
542.367
529.459
516.723
504.153
491.741
479.48
467.366
455.391
443.552
431.843
420.269
408.818
397.484
386.264
375.154
364.15
353.249
342.45
331.767
321.191
310.71
300.321
290.022
279.809
269.682
259.639
249.676
239.791
229.979
220.248
210.589
200.998
191.475
182.016
172.615
163.269
153.97
144.714
135.491
126.291
117.103
107.912
98.7178
89.5064
80.2387
70.8803
61.389
51.7098
41.7696
31.4754
20.749
9.88832
2.13025
25.8362
94.7596
171.603
242.58
309.411
373.913
436.905
498.576
559.274
619.251
678.712
737.829
796.251
854.225
911.808
969.008
1025.81
1082.2
1138.14
1193.59
1248.5
1302.83
1356.52
1409.51
1461.74
1513.16
1563.7
1613.29
1661.88
1709.39
1755.78
1800.98
1844.92
1887.55
1928.82
1968.67
2007.05
2043.91
2079.21
2112.89
2144.94
2175.29
2203.94
2230.84
2255.97
2279.32
2300.85
2320.57
2338.46
2354.51
2368.73
2381.12
2391.67
2400.41
2407.35
2412.5
2415.88
2417.53
2417.46
2415.73
2412.36
2407.41
2400.96
2392.99
2383.53
2372.63
2360.33
2346.67
2331.72
2315.52
2298.12
2279.58
2259.95
2239.3
2217.68
2195.15
2171.76
2147.57
2122.63
2097.02
2070.77
2043.96
2016.62
1988.82
1960.61
1932.04
1903.16
1874.02
1844.67
1815.15
1785.52
1755.8
1726.04
1696.29
1666.58
1636.94
1607.41
1578.03
1548.81
1519.8
1491.01
1462.47
1434.21
1406.24
1378.58
1351.26
1324.28
1297.67
1271.42
1245.56
1220.1
1195.04
1170.38
1146.13
1122.3
1098.89
1075.9
1053.33
1031.17
1009.44
988.11
967.195
946.685
926.574
906.857
887.526
868.575
849.996
831.781
813.92
796.406
779.229
762.38
745.848
729.625
713.7
698.064
682.707
667.619
652.789
638.21
623.87
609.761
595.874
582.199
568.728
555.453
542.366
529.458
516.722
504.152
491.739
479.479
467.364
455.39
443.551
431.842
420.268
408.817
397.483
386.263
375.153
364.149
353.249
342.45
331.766
321.19
310.709
300.321
290.021
279.809
269.682
259.638
249.676
239.79
229.979
220.247
210.589
200.998
191.475
182.015
172.615
163.268
153.97
144.714
135.491
126.291
117.103
107.912
98.7176
89.5062
80.2386
70.8802
61.389
51.7098
41.7696
31.4755
20.7491
9.88834
2.13025
102.813
87.3482
110.523
138.389
167.521
197.277
227.492
257.983
288.715
319.675
350.793
382.091
413.511
445.061
476.735
508.515
540.376
572.287
604.215
636.121
667.964
699.701
731.286
762.671
793.808
824.647
855.136
885.224
914.858
943.988
972.562
1000.53
1027.84
1054.44
1080.29
1105.33
1129.53
1152.85
1175.23
1196.65
1217.07
1236.45
1254.76
1271.98
1288.08
1303.05
1316.85
1329.48
1340.92
1351.17
1360.22
1368.07
1374.71
1380.16
1384.41
1387.48
1389.38
1390.13
1389.74
1388.25
1385.68
1382.07
1377.46
1371.85
1365.26
1357.73
1349.28
1339.95
1329.78
1318.8
1307.05
1294.58
1281.41
1267.6
1253.19
1238.21
1222.71
1206.73
1190.3
1173.48
1156.3
1138.8
1121.01
1102.98
1084.74
1066.33
1047.79
1029.14
1010.41
991.651
972.876
954.118
935.403
916.758
898.205
879.767
861.466
843.321
825.35
807.57
789.997
772.644
755.525
738.65
722.03
705.674
689.589
673.782
658.259
643.024
628.081
613.431
599.077
585.02
571.258
557.793
544.621
531.741
519.149
506.844
494.821
483.075
471.602
460.396
449.454
438.767
428.332
418.141
408.188
398.466
388.97
379.692
370.625
361.763
353.099
344.627
336.338
328.227
320.288
312.513
304.896
297.432
290.114
282.936
275.893
268.979
262.188
255.516
248.958
242.509
236.164
229.92
223.772
217.716
211.749
205.869
200.075
194.363
188.73
183.173
177.688
172.274
166.929
161.651
156.441
151.302
146.229
141.218
136.268
131.375
126.539
121.76
117.035
112.364
107.745
103.178
98.6624
94.1969
89.7786
85.41
81.0888
76.8136
72.5829
68.3949
64.2475
60.1385
56.0652
52.0249
48.0152
44.0376
40.0861
36.1515
32.2257
28.2999
24.3657
20.417
16.4632
12.5791
9.18613
10.7271
102.816
87.347
110.521
138.386
167.518
197.273
227.488
257.978
288.71
319.67
350.788
382.085
413.505
445.054
476.727
508.506
540.367
572.278
604.205
636.11
667.953
699.689
731.273
762.658
793.795
824.633
855.121
885.209
914.843
943.973
972.546
1000.51
1027.82
1054.42
1080.27
1105.31
1129.51
1152.83
1175.21
1196.63
1217.04
1236.42
1254.74
1271.96
1288.06
1303.02
1316.83
1329.46
1340.9
1351.15
1360.2
1368.05
1374.69
1380.13
1384.38
1387.45
1389.35
1390.1
1389.72
1388.23
1385.66
1382.05
1377.43
1371.82
1365.24
1357.71
1349.26
1339.93
1329.76
1318.78
1307.03
1294.55
1281.39
1267.58
1253.17
1238.19
1222.69
1206.71
1190.28
1173.46
1156.28
1138.78
1120.99
1102.96
1084.73
1066.32
1047.77
1029.12
1010.4
991.635
972.86
954.102
935.388
916.743
898.19
879.753
861.452
843.307
825.337
807.557
789.984
772.632
755.513
738.638
722.018
705.663
689.578
673.772
658.249
643.014
628.071
613.422
599.068
585.01
571.249
557.784
544.612
531.732
519.141
506.836
494.813
483.067
471.594
460.389
449.447
438.761
428.325
418.134
408.182
398.46
388.964
379.686
370.62
361.758
353.094
344.622
336.333
328.223
320.283
312.508
304.892
297.428
290.11
282.932
275.889
268.975
262.184
255.513
248.955
242.506
236.161
229.917
223.769
217.713
211.746
205.867
200.073
194.361
188.728
183.17
177.685
172.272
166.927
161.649
156.439
151.3
146.227
141.217
136.266
131.373
126.538
121.758
117.033
112.362
107.743
103.177
98.6612
94.1957
89.7775
85.4089
81.0879
76.8127
72.582
68.394
64.2467
60.1378
56.0646
52.0243
48.0146
44.0371
40.0857
36.1511
32.2253
28.2997
24.3655
20.4169
16.4631
12.579
9.18615
10.7271
188.058
116.157
118.64
132.443
150.002
169.399
189.911
211.167
232.966
255.204
277.8
300.705
323.874
347.276
370.885
394.673
418.612
442.672
466.819
491.021
515.241
539.442
563.587
587.634
611.545
635.276
658.785
682.029
704.966
727.551
749.742
771.496
792.771
813.524
833.716
853.306
872.258
890.533
908.098
924.919
940.965
956.207
970.619
984.174
996.853
1008.63
1019.5
1029.44
1038.44
1046.49
1053.58
1059.72
1064.9
1069.12
1072.38
1074.7
1076.09
1076.55
1076.1
1074.77
1072.57
1069.53
1065.68
1061.03
1055.6
1049.41
1042.49
1034.87
1026.57
1017.63
1008.08
997.96
987.291
976.112
964.457
952.359
939.853
926.973
913.753
900.224
886.421
872.376
858.119
843.682
829.095
814.386
799.584
784.715
769.806
754.881
739.965
725.079
710.245
695.484
680.814
666.252
651.816
637.521
623.38
609.407
595.615
582.012
568.61
555.416
542.438
529.683
517.155
504.861
492.803
480.985
469.408
458.074
446.984
436.137
425.533
415.171
405.049
395.165
385.515
376.098
366.909
357.944
349.199
340.67
332.353
324.241
316.331
308.616
301.092
293.753
286.594
279.608
272.791
266.137
259.64
253.294
247.095
241.036
235.113
229.32
223.652
218.104
212.671
207.349
202.132
197.017
191.999
187.073
182.237
177.486
172.817
168.225
163.709
159.263
154.889
150.582
146.341
142.163
138.046
133.987
129.984
126.036
122.141
118.298
114.507
110.767
107.077
103.435
99.8395
96.2885
92.7813
89.3173
85.8957
82.5158
79.177
75.8787
72.6207
69.4023
66.2228
63.0822
59.9797
56.9153
53.8887
50.8994
47.9465
45.0297
42.1482
39.3018
36.4906
33.7157
30.9777
28.2759
25.6119
22.9911
20.4261
17.9468
15.6281
13.6905
13.0784
22.3261
188.061
116.155
118.637
132.439
149.998
169.395
189.906
211.162
232.962
255.199
277.795
300.7
323.868
347.27
370.879
394.667
418.605
442.664
466.812
491.013
515.232
539.434
563.578
587.625
611.535
635.266
658.775
682.019
704.955
727.541
749.731
771.485
792.759
813.512
833.704
853.294
872.245
890.521
908.085
924.906
940.952
956.194
970.605
984.161
996.839
1008.62
1019.49
1029.43
1038.43
1046.48
1053.57
1059.71
1064.88
1069.1
1072.37
1074.69
1076.07
1076.53
1076.09
1074.76
1072.56
1069.52
1065.67
1061.02
1055.58
1049.4
1042.48
1034.85
1026.56
1017.62
1008.07
997.947
987.279
976.1
964.445
952.347
939.842
926.962
913.741
900.213
886.41
872.365
858.109
843.672
829.085
814.376
799.574
784.706
769.797
754.872
739.956
725.071
710.237
695.476
680.806
666.244
651.808
637.513
623.373
609.401
595.608
582.005
568.603
555.409
542.432
529.677
517.15
504.855
492.798
480.98
469.403
458.069
446.979
436.132
425.529
415.167
405.045
395.161
385.511
376.094
366.905
357.94
349.196
340.667
332.349
324.238
316.328
308.613
301.089
293.75
286.591
279.606
272.789
266.134
259.637
253.292
247.093
241.034
235.111
229.318
223.65
218.102
212.67
207.347
202.131
197.015
191.997
187.072
182.236
177.485
172.815
168.224
163.707
159.262
154.887
150.581
146.34
142.162
138.045
133.986
129.983
126.035
122.14
118.297
114.506
110.766
107.077
103.435
99.8388
96.2878
92.7807
89.3167
85.8951
82.5152
79.1764
75.8782
72.6202
69.4018
66.2224
63.0818
59.9793
56.9149
53.8884
50.899
47.9462
45.0294
42.1479
39.3016
36.4904
33.7155
30.9775
28.2757
25.6118
22.991
20.426
17.9468
15.6281
13.6905
13.0785
22.3261
268.925
148.988
136.699
141.859
152.904
166.775
182.309
198.946
216.379
234.423
252.957
271.895
291.175
310.747
330.571
350.609
370.829
391.197
411.68
432.243
452.855
473.479
494.08
514.622
535.069
555.383
575.525
595.459
615.145
634.544
653.619
672.33
690.642
708.515
725.915
742.806
759.154
774.925
790.088
804.614
818.475
831.643
844.095
855.808
866.762
876.938
886.322
894.899
902.659
909.593
915.695
920.961
925.389
928.981
931.741
933.674
934.788
935.095
934.608
933.343
931.317
928.551
925.067
920.879
916.008
910.474
904.3
897.512
890.135
882.196
873.725
864.75
855.3
845.405
835.096
824.401
813.353
801.98
790.312
778.379
766.209
753.832
741.275
728.566
715.73
702.793
689.78
676.716
663.622
650.521
637.433
624.379
611.377
598.444
585.598
572.854
560.226
547.728
535.372
523.169
511.13
499.263
487.577
476.08
464.777
453.674
442.776
432.087
421.61
411.347
401.3
391.469
381.856
372.46
363.28
354.315
345.563
337.022
328.69
320.563
312.638
304.912
297.381
290.041
282.887
275.915
269.121
262.5
256.047
249.757
243.625
237.646
231.815
226.128
220.578
215.163
209.875
204.711
199.666
194.735
189.914
185.198
180.583
176.065
171.639
167.301
163.049
158.878
154.784
150.765
146.817
142.937
139.122
135.37
131.679
128.047
124.472
120.952
117.484
114.066
110.697
107.375
104.099
100.868
97.6812
94.5379
91.4371
88.3773
85.3574
82.3764
79.4335
76.528
73.6595
70.8274
68.0314
65.2711
62.5464
59.857
57.2027
54.5836
51.9994
49.4504
46.9365
44.4581
42.0157
39.6096
37.2407
34.9099
32.619
30.3709
28.1691
26.019
23.9292
21.9154
20.0069
18.2619
16.8122
16.0226
17.4098
33.8104
268.928
148.985
136.695
141.855
152.9
166.771
182.304
198.941
216.374
234.418
252.952
271.89
291.17
310.742
330.565
350.604
370.823
391.191
411.673
432.237
452.848
473.472
494.073
514.615
535.062
555.375
575.518
595.451
615.136
634.535
653.61
672.322
690.633
708.506
725.906
742.797
759.144
774.915
790.079
804.605
818.465
831.633
844.085
855.798
866.751
876.928
886.312
894.889
902.649
909.583
915.684
920.95
925.379
928.971
931.73
933.663
934.778
935.085
934.598
933.333
931.307
928.541
925.057
920.87
915.999
910.465
904.291
897.503
890.126
882.188
873.716
864.741
855.291
845.397
835.087
824.393
813.345
801.972
790.304
778.371
766.202
753.825
741.268
728.559
715.723
702.787
689.774
676.71
663.616
650.515
637.427
624.373
611.371
598.439
585.593
572.849
560.222
547.724
535.368
523.165
511.126
499.259
487.573
476.076
464.773
453.671
442.773
432.084
421.607
411.344
401.297
391.467
381.853
372.457
363.277
354.312
345.56
337.02
328.687
320.561
312.636
304.91
297.379
290.039
282.885
275.914
269.12
262.498
256.045
249.755
243.623
237.644
231.814
226.126
220.577
215.161
209.874
204.71
199.665
194.734
189.913
185.197
180.582
176.064
171.638
167.301
163.048
158.877
154.783
150.764
146.816
142.936
139.121
135.369
131.678
128.047
124.472
120.951
117.483
114.065
110.696
107.375
104.099
100.868
97.6808
94.5376
91.4368
88.377
85.3571
82.3761
79.4332
76.5277
73.6592
70.8271
68.0311
65.2709
62.5462
59.8568
57.2025
54.5834
51.9992
49.4502
46.9364
44.4579
42.0156
39.6095
37.2405
34.9098
32.6189
30.3708
28.169
26.0189
23.9291
21.9154
20.0068
18.2619
16.8122
16.0226
17.41
33.8105
346.677
182.923
158.02
156.421
162.695
172.744
184.992
198.685
213.405
228.901
245.006
261.605
278.612
295.963
313.604
331.489
349.578
367.835
386.222
404.705
423.25
441.824
460.39
478.915
497.365
515.703
533.894
551.903
569.695
587.233
604.482
621.406
637.973
654.146
669.893
685.181
699.978
714.255
727.983
741.133
753.679
765.598
776.866
787.462
797.369
806.568
815.046
822.788
829.786
836.031
841.516
846.238
850.196
853.39
855.822
857.499
858.428
858.618
858.08
856.829
854.881
852.252
848.962
845.026
840.463
835.293
829.536
823.217
816.358
808.986
801.126
792.804
784.048
774.885
765.342
755.447
745.229
734.714
723.931
712.905
701.664
690.235
678.642
666.911
655.066
643.131
631.129
619.081
607.008
594.932
582.87
570.842
558.864
546.953
535.124
523.391
511.768
500.266
488.898
477.673
466.601
455.69
444.948
434.381
423.996
413.797
403.789
393.975
384.358
374.94
365.722
356.706
347.891
339.278
330.865
322.652
314.637
306.817
299.19
291.754
284.505
277.44
270.556
263.849
257.314
250.948
244.746
238.704
232.818
227.083
221.494
216.046
210.736
205.558
200.509
195.582
190.774
186.081
181.497
177.019
172.642
168.363
164.177
160.08
156.068
152.139
148.288
144.512
140.807
137.172
133.602
130.095
126.648
123.26
119.928
116.651
113.425
110.25
107.123
104.042
101.007
98.0144
95.0644
92.1557
89.2875
86.4588
83.6691
80.917
78.2016
75.5223
72.8783
70.2691
67.6943
65.1535
62.6466
60.1733
57.7336
55.3275
52.9551
50.6166
48.3123
46.0426
43.808
41.6094
39.4476
37.3241
35.2408
33.1999
31.2048
29.2601
27.3724
25.5512
23.8116
22.1785
20.6956
19.4474
18.6194
18.718
21.8184
44.99
346.679
182.919
158.016
156.417
162.691
172.739
184.988
198.68
213.401
228.896
245.001
261.6
278.607
295.958
313.598
331.484
349.573
367.829
386.216
404.699
423.244
441.817
460.384
478.909
497.358
515.696
533.887
551.896
569.688
587.225
604.474
621.399
637.965
654.138
669.885
685.173
699.97
714.247
727.975
741.125
753.671
765.59
776.858
787.454
797.361
806.56
815.037
822.78
829.778
836.023
841.508
846.23
850.188
853.382
855.814
857.491
858.42
858.61
858.072
856.822
854.873
852.245
848.954
845.019
840.456
835.285
829.529
823.21
816.351
808.979
801.119
792.798
784.041
774.878
765.336
755.441
745.223
734.709
723.925
712.9
701.659
690.23
678.637
666.906
655.061
643.126
631.124
619.076
607.004
594.928
582.866
570.838
558.86
546.949
535.12
523.388
511.765
500.263
488.895
477.67
466.598
455.687
444.945
434.379
423.993
413.795
403.787
393.973
384.356
374.938
365.72
356.704
347.889
339.276
330.864
322.65
314.635
306.815
299.189
291.752
284.504
277.439
270.555
263.847
257.313
250.947
244.745
238.703
232.817
227.082
221.493
216.045
210.735
205.558
200.508
195.581
190.773
186.08
181.496
177.018
172.642
168.362
164.176
160.079
156.068
152.138
148.287
144.511
140.807
137.171
133.601
130.094
126.647
123.259
119.928
116.65
113.425
110.25
107.123
104.042
101.006
98.0141
95.0642
92.1555
89.2873
86.4586
83.6689
80.9168
78.2015
75.5221
72.8781
70.269
67.6941
65.1534
62.6465
60.1732
57.7335
55.3274
52.955
50.6165
48.3122
46.0425
43.8079
41.6093
39.4476
37.324
35.2407
33.1999
31.2048
29.2601
27.3723
25.5512
23.8116
22.1784
20.6956
19.4474
18.6194
18.7181
21.8187
44.9901
422.804
217.567
181.024
173.52
175.861
182.912
192.689
204.24
217.042
230.778
245.238
260.278
275.792
291.696
307.927
324.43
341.158
358.068
375.121
392.28
409.51
426.775
444.041
461.274
478.44
495.506
512.436
529.198
545.757
562.079
578.132
593.882
609.297
624.344
638.992
653.212
666.972
680.246
693.005
705.224
716.879
727.946
738.405
748.235
757.419
765.942
773.789
780.948
787.41
793.166
798.212
802.542
806.157
809.055
811.241
812.718
813.493
813.576
812.976
811.706
809.78
807.214
804.025
800.23
795.845
790.889
785.383
779.348
772.807
765.784
758.302
750.387
742.063
733.357
724.295
714.902
705.204
695.228
685
674.544
663.886
653.05
642.061
630.943
619.718
608.408
597.036
585.621
574.184
562.743
551.317
539.924
528.578
517.296
506.092
494.98
483.971
473.079
462.312
451.682
441.197
430.865
420.692
410.687
400.853
391.197
381.721
372.43
363.325
354.409
345.683
337.149
328.806
320.653
312.692
304.919
297.335
289.936
282.72
275.685
268.829
262.147
255.637
249.294
243.116
237.098
231.236
225.526
219.964
214.545
209.266
204.121
199.107
194.218
189.452
184.802
180.266
175.838
171.515
167.293
163.167
159.134
155.19
151.33
147.553
143.853
140.228
136.675
133.19
129.771
126.414
123.118
119.879
116.697
113.569
110.492
107.465
104.486
101.553
98.6647
95.819
93.015
90.2515
87.5274
84.8419
82.1942
79.5835
77.0089
74.4697
71.9651
69.4946
67.0578
64.6543
62.284
59.9466
57.6422
55.3709
53.1327
50.9282
48.7575
46.6215
44.5207
42.4563
40.4293
38.4415
36.4949
34.5922
32.7368
30.9337
29.1895
27.5132
25.9184
24.4258
23.0686
21.9044
21.0424
20.7203
21.5839
26.2541
55.967
422.806
217.563
181.02
173.516
175.856
182.908
192.684
204.235
217.038
230.773
245.234
260.274
275.787
291.691
307.922
324.425
341.153
358.063
375.116
392.275
409.504
426.769
444.035
461.268
478.434
495.499
512.43
529.191
545.75
562.073
578.126
593.875
609.29
624.337
638.986
653.205
666.965
680.239
692.998
705.217
716.872
727.939
738.398
748.228
757.412
765.935
773.782
780.941
787.403
793.159
798.205
802.535
806.15
809.049
811.234
812.711
813.487
813.569
812.969
811.699
809.773
807.208
804.019
800.224
795.838
790.883
785.377
779.342
772.802
765.778
758.296
750.381
742.058
733.352
724.29
714.897
705.2
695.224
684.995
674.539
663.881
653.046
642.057
630.939
619.714
608.405
597.032
585.617
574.18
562.74
551.314
539.92
528.575
517.293
506.089
494.977
483.969
473.076
462.31
451.68
441.194
430.862
420.69
410.685
400.851
391.195
381.719
372.428
363.323
354.407
345.682
337.147
328.804
320.652
312.69
304.918
297.333
289.934
282.719
275.684
268.828
262.146
255.636
249.293
243.115
237.097
231.235
225.525
219.963
214.544
209.265
204.12
199.106
194.218
189.451
184.802
180.265
175.838
171.515
167.293
163.167
159.133
155.189
151.33
147.552
143.853
140.228
136.674
133.19
129.77
126.414
123.117
119.879
116.697
113.569
110.492
107.465
104.486
101.553
98.6645
95.8188
93.0148
90.2513
87.5272
84.8417
82.194
79.5833
77.0088
74.4695
71.965
69.4945
67.0577
64.6542
62.2839
59.9465
57.6421
55.3708
53.1327
50.9281
48.7575
46.6214
44.5207
42.4562
40.4293
38.4415
36.4949
34.5921
32.7367
30.9337
29.1894
27.5132
25.9184
24.4258
23.0686
21.9044
21.0424
20.7203
21.584
26.2544
55.9672
497.673
252.813
205.159
192.213
191.098
195.624
203.394
213.262
224.599
237.023
250.284
264.207
278.666
293.563
308.821
324.377
340.176
356.171
372.319
388.58
404.916
421.291
437.67
454.019
470.304
486.491
502.548
518.441
534.138
549.607
564.816
579.732
594.326
608.566
622.424
635.871
648.878
661.418
673.468
685.001
695.995
706.428
716.281
725.535
734.173
742.181
749.545
756.254
762.3
767.674
772.371
776.389
779.724
782.379
784.355
785.657
786.291
786.266
785.59
784.276
782.338
779.789
776.646
772.923
768.639
763.811
758.458
752.602
746.264
739.465
732.229
724.58
716.542
708.139
699.395
690.336
680.986
671.37
661.512
651.437
641.168
630.73
620.144
609.435
598.623
587.729
576.775
565.78
554.763
543.742
532.735
521.758
510.827
499.956
489.16
478.45
467.84
457.341
446.962
436.713
426.604
416.64
406.83
397.179
387.694
378.377
369.235
360.269
351.482
342.877
334.454
326.215
318.16
310.289
302.6
295.094
287.769
280.622
273.652
266.856
260.232
253.776
247.485
241.357
235.386
229.571
223.906
218.388
213.012
207.775
202.673
197.701
192.855
188.131
183.525
179.032
174.649
170.371
166.194
162.115
158.13
154.234
150.425
146.698
143.051
139.479
135.981
132.552
129.19
125.891
122.654
119.476
116.355
113.288
110.274
107.311
104.396
101.528
98.7056
95.9263
93.1891
90.4929
87.8363
85.2186
82.6386
80.0957
77.5892
75.1182
72.6821
70.2803
67.9122
65.5776
63.2762
61.0079
58.7725
56.5703
54.4014
52.2661
50.165
48.0988
46.0681
44.0743
42.1185
40.2026
38.3286
36.4994
34.7184
32.9903
31.3214
29.7198
28.1975
26.7716
25.4678
24.3275
23.4215
22.883
23.0014
24.561
30.7221
66.8361
497.675
252.809
205.154
192.208
191.094
195.619
203.389
213.258
224.595
237.019
250.28
264.203
278.661
293.558
308.816
324.372
340.171
356.166
372.314
388.575
404.911
421.286
437.665
454.014
470.298
486.486
502.542
518.435
534.132
549.601
564.809
579.726
594.32
608.56
622.418
635.864
648.871
661.412
673.461
684.994
695.988
706.422
716.274
725.528
734.166
742.174
749.538
756.248
762.293
767.668
772.365
776.382
779.718
782.373
784.349
785.651
786.285
786.26
785.584
784.271
782.332
779.784
776.64
772.918
768.634
763.806
758.453
752.597
746.259
739.46
732.225
724.576
716.538
708.134
699.391
690.332
680.982
671.366
661.508
651.433
641.165
630.726
620.141
609.431
598.619
587.726
576.772
565.777
554.76
543.739
532.732
521.756
510.824
499.954
489.157
478.448
467.838
457.339
446.96
436.711
426.601
416.638
406.828
397.177
387.692
378.376
369.233
360.267
351.48
342.875
334.453
326.214
318.159
310.287
302.599
295.093
287.768
280.621
273.651
266.855
260.231
253.775
247.484
241.356
235.386
229.57
223.905
218.387
213.011
207.775
202.672
197.7
192.854
188.13
183.524
179.031
174.648
170.37
166.194
162.114
158.129
154.234
150.424
146.698
143.05
139.479
135.98
132.552
129.189
125.891
122.654
119.476
116.354
113.288
110.274
107.311
104.396
101.528
98.7054
95.9261
93.189
90.4927
87.8362
85.2184
82.6385
80.0956
77.589
75.1181
72.682
70.2802
67.9121
65.5775
63.2761
61.0078
58.7724
56.5702
54.4013
52.2661
50.165
48.0987
46.0681
44.0742
42.1185
40.2025
38.3286
36.4993
34.7184
32.9903
31.3213
29.7198
28.1975
26.7716
25.4678
24.3275
23.4215
22.883
23.0014
24.5611
30.7225
66.8364
571.584
288.602
230.191
212.097
207.825
210.125
216.184
224.662
234.823
246.221
258.564
271.65
285.332
299.497
314.057
328.938
344.081
359.431
374.942
390.571
406.276
422.022
437.771
453.488
469.14
484.694
500.116
515.374
530.437
545.274
559.853
574.145
588.119
601.747
615.001
627.854
640.278
652.249
663.742
674.735
685.206
695.135
704.502
713.291
721.485
729.072
736.039
742.375
748.072
753.124
757.524
761.27
764.361
766.798
768.583
769.72
770.215
770.076
769.313
767.937
765.959
763.395
760.259
756.565
752.331
747.575
742.314
736.569
730.36
723.709
716.637
709.167
701.323
693.127
684.602
675.774
666.665
657.299
647.699
637.889
627.892
617.73
607.426
597
586.475
575.87
565.206
554.501
543.773
533.041
522.32
511.627
500.978
490.385
479.863
469.425
459.081
448.843
438.72
428.722
418.858
409.134
399.558
390.136
380.873
371.773
362.84
354.078
345.49
337.076
328.84
320.781
312.9
305.197
297.672
290.324
283.15
276.15
269.322
262.663
256.171
249.843
243.675
237.665
231.809
226.104
220.546
215.131
209.855
204.715
199.705
194.823
190.065
185.425
180.901
176.488
172.182
167.979
163.876
159.868
155.953
152.125
148.383
144.722
141.138
137.63
134.193
130.826
127.524
124.285
121.107
117.987
114.924
111.916
108.959
106.053
103.195
100.383
97.6166
94.8934
92.2123
89.5721
86.9716
84.4098
81.8858
79.3989
76.9484
74.5336
72.1538
69.8086
67.4975
65.2201
62.9764
60.7663
58.5897
56.447
54.3384
52.2645
50.2258
48.2234
46.2581
44.3316
42.4454
40.6018
38.8034
37.0537
35.357
33.719
32.1473
30.6518
29.247
27.9531
26.801
25.8399
25.1534
24.8988
25.4172
27.6316
35.239
77.6709
571.585
288.597
230.187
212.093
207.821
210.12
216.18
224.658
234.819
246.216
258.559
271.645
285.327
299.492
314.052
328.934
344.076
359.426
374.937
390.565
406.271
422.016
437.765
453.483
469.135
484.688
500.11
515.369
530.432
545.268
559.847
574.139
588.113
601.742
614.995
627.848
640.272
652.243
663.736
674.729
685.2
695.129
704.496
713.285
721.48
729.067
736.033
742.37
748.067
753.118
757.518
761.265
764.356
766.793
768.577
769.714
770.21
770.071
769.308
767.932
765.954
763.39
760.254
756.561
752.327
747.57
742.31
736.565
730.356
723.705
716.633
709.163
701.319
693.123
684.599
675.77
666.661
657.295
647.696
637.886
627.889
617.727
607.423
596.997
586.472
575.867
565.203
554.498
543.77
533.038
522.318
511.625
500.975
490.383
479.861
469.423
459.079
448.841
438.718
428.721
418.856
409.133
399.557
390.134
380.871
371.771
362.839
354.077
345.488
337.075
328.838
320.78
312.899
305.196
297.671
290.322
283.149
276.149
269.321
262.662
256.17
249.842
243.674
237.664
231.809
226.103
220.545
215.13
209.854
204.714
199.705
194.823
190.064
185.425
180.9
176.487
172.181
167.979
163.876
159.868
155.952
152.125
148.382
144.721
141.138
137.63
134.193
130.825
127.523
124.284
121.106
117.987
114.924
111.915
108.959
106.053
103.194
100.383
97.6164
94.8932
92.2122
89.5719
86.9714
84.4096
81.8857
79.3988
76.9483
74.5335
72.1537
69.8085
67.4974
65.22
62.9763
60.7662
58.5897
56.4469
54.3384
52.2644
50.2258
48.2233
46.2581
44.3316
42.4454
40.6018
38.8034
37.0537
35.357
33.719
32.1472
30.6518
29.247
27.9531
26.8009
25.8399
25.1534
24.8988
25.4173
27.6318
35.2395
77.6712
645.013
325.03
256.041
232.991
225.759
226.033
230.585
237.874
247.057
257.624
269.244
281.685
294.78
308.401
322.449
336.842
351.512
366.4
381.454
396.629
411.881
427.171
442.461
457.716
472.901
487.982
502.928
517.706
532.286
546.636
560.727
574.53
588.016
601.158
613.928
626.302
638.253
649.758
660.794
671.34
681.374
690.878
699.835
708.228
716.042
723.265
729.886
735.895
741.283
746.046
750.177
753.676
756.54
758.772
760.372
761.347
761.7
761.442
760.579
759.124
757.087
754.483
751.325
747.629
743.411
738.687
733.475
727.796
721.667
715.111
708.147
700.799
693.087
685.034
676.664
667.998
659.06
649.872
640.456
630.836
621.034
611.07
600.967
590.745
580.424
570.025
559.566
549.066
538.543
528.013
517.493
506.998
496.543
486.142
475.808
465.553
455.389
445.326
435.373
425.541
415.837
406.268
396.842
387.564
378.44
369.474
360.67
352.032
343.562
335.261
327.133
319.177
311.394
303.785
296.348
289.084
281.99
275.066
268.31
261.719
255.29
249.022
242.912
236.956
231.151
225.493
219.98
214.607
209.371
204.268
199.294
194.445
189.717
185.107
180.61
176.224
171.942
167.763
163.682
159.696
155.801
151.993
148.269
144.626
141.06
137.569
134.15
130.798
127.513
124.291
121.129
118.027
114.981
111.989
109.05
106.161
103.32
100.527
97.7784
95.0739
92.412
89.7914
87.211
84.6698
82.167
79.7018
77.2735
74.8816
72.5253
70.2042
67.918
65.6664
63.4493
61.2667
59.1186
57.0055
54.9278
52.886
50.8811
48.914
46.9862
45.0993
43.2554
41.4571
39.7076
38.0109
36.3723
34.7984
33.298
31.883
30.57
29.3825
28.3564
27.5482
27.0547
27.0573
27.9494
30.7935
39.8237
88.5315
645.014
325.025
256.037
232.987
225.754
226.029
230.581
237.87
247.052
257.62
269.239
281.68
294.775
308.397
322.445
336.837
351.507
366.395
381.449
396.624
411.876
427.166
442.456
457.711
472.895
487.977
502.923
517.701
532.28
546.63
560.721
574.524
588.01
601.152
613.923
626.296
638.248
649.753
660.789
671.334
681.368
690.873
699.829
708.222
716.037
723.26
729.881
735.889
741.278
746.04
750.172
753.671
756.535
758.767
760.367
761.342
761.696
761.437
760.574
759.119
757.083
754.479
751.321
747.625
743.407
738.683
733.471
727.792
721.663
715.107
708.143
700.795
693.083
685.031
676.66
667.995
659.057
649.868
640.453
630.833
621.031
611.067
600.964
590.742
580.421
570.022
559.564
549.064
538.54
528.011
517.491
506.996
496.541
486.14
475.806
465.551
455.387
445.324
435.372
425.539
415.835
406.267
396.841
387.563
378.439
369.473
360.669
352.031
343.56
335.26
327.131
319.176
311.393
303.784
296.347
289.083
281.989
275.065
268.309
261.718
255.289
249.022
242.911
236.955
231.15
225.492
219.979
214.606
209.37
204.267
199.293
194.444
189.717
185.107
180.61
176.223
171.942
167.763
163.682
159.695
155.8
151.992
148.269
144.626
141.06
137.569
134.149
130.798
127.513
124.29
121.129
118.026
114.98
111.989
109.049
106.16
103.32
100.526
97.7782
95.0737
92.4118
89.7912
87.2108
84.6697
82.1669
79.7017
77.2734
74.8814
72.5252
70.2041
67.9179
65.6663
63.4492
61.2666
59.1186
57.0054
54.9277
52.8859
50.881
48.914
46.9862
45.0993
43.2554
41.4571
39.7075
38.0109
36.3723
34.7983
33.298
31.883
30.5699
29.3825
28.3563
27.5481
27.0546
27.0573
27.9494
30.7936
39.8243
88.5319
718.349
362.17
282.713
254.822
244.761
243.15
246.338
252.582
260.932
270.812
281.849
293.784
306.43
319.645
333.316
347.354
361.683
376.239
390.966
405.815
420.739
435.697
450.649
465.56
480.394
495.118
509.698
524.103
538.302
552.267
565.967
579.375
592.462
605.204
617.573
629.546
641.097
652.206
662.85
673.009
682.663
691.795
700.39
708.43
715.904
722.8
729.106
734.815
739.918
744.412
748.291
751.554
754.2
756.231
757.649
758.459
758.666
758.279
757.306
755.757
753.644
750.981
747.781
744.058
739.828
735.107
729.914
724.266
718.183
711.684
704.789
697.521
689.899
681.946
673.684
665.134
656.318
647.258
637.976
628.493
618.832
609.013
599.056
588.981
578.809
568.559
558.248
547.895
537.518
527.132
516.753
506.397
496.077
485.808
475.602
465.471
455.426
445.478
435.636
425.91
416.307
406.834
397.499
388.307
379.264
370.375
361.642
353.07
344.662
336.418
328.342
320.435
312.696
305.126
297.725