/*--------------------------------*- C++ -*----------------------------------*\
  =========                 |
  \\      /  F ield         | OpenFOAM: The Open Source CFD Toolbox
   \\    /   O peration     | Website:  https://openfoam.org
    \\  /    A nd           | Version:  8
     \\/     M anipulation  |
\*---------------------------------------------------------------------------*/
FoamFile
{
    version     2.0;
    format      ascii;
    class       volScalarField;
    location    "3800";
    object      k;
}
// * * * * * * * * * * * * * * * * * * * * * * * * * * * * * * * * * * * * * //

dimensions      [0 2 -2 0 0 0 0];

internalField   nonuniform List<scalar> 
46000
(
0.0205385
0.0791356
0.143302
0.202569
0.258374
0.312234
0.364834
0.416329
0.467012
0.517094
0.566745
0.616107
0.66489
0.713299
0.761381
0.809143
0.856576
0.90366
0.950369
0.996669
1.04252
1.08789
1.13272
1.17696
1.22058
1.26351
1.30571
1.34712
1.38769
1.42736
1.4661
1.50383
1.54053
1.57613
1.61059
1.64386
1.67591
1.70668
1.73616
1.76429
1.79104
1.81639
1.84031
1.86277
1.88376
1.90325
1.92123
1.9377
1.95264
1.96604
1.97792
1.98826
1.99707
2.00437
2.01016
2.01447
2.01729
2.01867
2.01862
2.01717
2.01436
2.01023
2.00484
1.99819
1.9903
1.9812
1.97093
1.95953
1.94704
1.93352
1.91899
1.90351
1.88713
1.86989
1.85184
1.83302
1.81349
1.7933
1.77248
1.7511
1.72918
1.70679
1.68397
1.66076
1.63721
1.61335
1.58924
1.56491
1.54041
1.51576
1.49101
1.4662
1.44136
1.41652
1.39171
1.36696
1.34231
1.31777
1.29337
1.26915
1.24511
1.22128
1.19768
1.17433
1.15124
1.12842
1.10589
1.08367
1.06176
1.04017
1.0189
0.997972
0.977382
0.957136
0.937238
0.917689
0.898489
0.87964
0.86114
0.842987
0.82518
0.807714
0.790586
0.773792
0.757327
0.741184
0.725358
0.709843
0.694631
0.679716
0.66509
0.650746
0.636674
0.622869
0.609321
0.596022
0.582964
0.570139
0.557538
0.545154
0.532978
0.521003
0.50922
0.497622
0.486202
0.474952
0.463866
0.452936
0.442156
0.431521
0.421023
0.410657
0.400418
0.390301
0.380301
0.370414
0.360636
0.35097
0.341407
0.331942
0.322572
0.313294
0.304105
0.295002
0.285984
0.277062
0.26823
0.259477
0.250802
0.242201
0.233673
0.225216
0.216829
0.208509
0.200254
0.19206
0.183934
0.175868
0.167859
0.159906
0.152006
0.144156
0.136351
0.128586
0.120856
0.113154
0.105471
0.0977978
0.0901221
0.082444
0.0747513
0.0670116
0.059196
0.0512695
0.043186
0.0348844
0.0262873
0.0173291
0.00825868
0.00168949
0.0205394
0.079138
0.143304
0.202571
0.258376
0.312236
0.364836
0.416331
0.467014
0.517096
0.566746
0.616108
0.664891
0.7133
0.761381
0.809143
0.856576
0.903661
0.95037
0.996669
1.04252
1.08789
1.13271
1.17696
1.22058
1.26351
1.30571
1.34712
1.38769
1.42736
1.4661
1.50383
1.54053
1.57612
1.61058
1.64386
1.6759
1.70668
1.73615
1.76428
1.79104
1.81639
1.84031
1.86277
1.88376
1.90325
1.92123
1.9377
1.95263
1.96604
1.97791
1.98825
1.99707
2.00437
2.01016
2.01446
2.01729
2.01867
2.01861
2.01716
2.01435
2.01023
2.00484
1.99819
1.99029
1.98119
1.97092
1.95952
1.94704
1.93351
1.91899
1.90351
1.88713
1.86989
1.85183
1.83302
1.81349
1.7933
1.77248
1.75109
1.72918
1.70679
1.68397
1.66076
1.6372
1.61335
1.58924
1.56491
1.5404
1.51576
1.49101
1.4662
1.44135
1.41651
1.3917
1.36696
1.3423
1.31777
1.29337
1.26914
1.24511
1.22128
1.19768
1.17433
1.15123
1.12842
1.10589
1.08367
1.06176
1.04016
1.0189
0.997969
0.97738
0.957134
0.937236
0.917686
0.898487
0.879638
0.861138
0.842985
0.825177
0.807712
0.790584
0.77379
0.757325
0.741182
0.725357
0.709841
0.69463
0.679715
0.665089
0.650744
0.636673
0.622867
0.609319
0.59602
0.582962
0.570137
0.557537
0.545152
0.532977
0.521001
0.509218
0.497621
0.486201
0.474951
0.463865
0.452935
0.442155
0.431519
0.421022
0.410656
0.400417
0.3903
0.3803
0.370413
0.360635
0.350969
0.341406
0.331941
0.322572
0.313293
0.304104
0.295001
0.285983
0.277061
0.268229
0.259477
0.250801
0.2422
0.233672
0.225215
0.216828
0.208509
0.200253
0.19206
0.183933
0.175867
0.167858
0.159906
0.152006
0.144156
0.136351
0.128586
0.120856
0.113153
0.105471
0.0977976
0.090122
0.0824439
0.0747512
0.0670115
0.059196
0.0512695
0.043186
0.0348845
0.0262873
0.0173292
0.0082587
0.00168949
0.078806
0.227312
0.333242
0.422557
0.503122
0.578083
0.64895
0.716836
0.782467
0.846313
0.908604
0.969628
1.02953
1.08845
1.14647
1.20367
1.26008
1.31572
1.3706
1.42471
1.47803
1.53055
1.58224
1.63306
1.68299
1.73197
1.77997
1.82695
1.87286
1.91765
1.96129
2.00372
2.04491
2.0848
2.12335
2.16054
2.19631
2.23062
2.26345
2.29476
2.32452
2.35271
2.37929
2.40424
2.42756
2.44922
2.4692
2.48751
2.50413
2.51906
2.5323
2.54385
2.55373
2.56193
2.56848
2.57339
2.57668
2.57838
2.5785
2.57707
2.57414
2.56974
2.56392
2.55668
2.54807
2.53813
2.52688
2.51438
2.50067
2.4858
2.46981
2.45275
2.43467
2.41562
2.39565
2.37482
2.35316
2.33074
2.3076
2.28379
2.25936
2.23437
2.20886
2.18288
2.15647
2.12969
2.10258
2.07519
2.04754
2.0197
1.9917
1.96357
1.93536
1.9071
1.87883
1.85058
1.82238
1.79427
1.76626
1.73839
1.71068
1.68316
1.65584
1.62876
1.60192
1.57534
1.54905
1.52305
1.49736
1.47198
1.44694
1.42223
1.39787
1.37385
1.35019
1.32689
1.30395
1.28138
1.25917
1.23732
1.21583
1.19469
1.17392
1.1535
1.13342
1.11368
1.09428
1.07521
1.05646
1.03803
1.0199
1.00207
0.984532
0.967275
0.95029
0.933568
0.917101
0.900877
0.884889
0.869127
0.853581
0.838242
0.823101
0.808147
0.793373
0.77877
0.764327
0.750038
0.735894
0.721886
0.708007
0.69425
0.680606
0.667069
0.653631
0.640292
0.627046
0.613886
0.600803
0.587793
0.57485
0.561968
0.549142
0.536368
0.523642
0.510958
0.49832
0.485718
0.473148
0.460605
0.448085
0.435582
0.423092
0.41061
0.39813
0.385647
0.373154
0.360643
0.348102
0.335531
0.322915
0.310243
0.297501
0.284673
0.27174
0.258679
0.245462
0.232056
0.21842
0.204498
0.190241
0.175569
0.160376
0.144519
0.127797
0.109916
0.0904027
0.0684054
0.0418198
0.00816691
0.0788074
0.227314
0.333243
0.422558
0.503122
0.578084
0.648951
0.716836
0.782467
0.846313
0.908603
0.969627
1.02953
1.08845
1.14647
1.20367
1.26008
1.31572
1.3706
1.42471
1.47803
1.53055
1.58224
1.63306
1.68298
1.73197
1.77997
1.82695
1.87285
1.91765
1.96129
2.00372
2.0449
2.08479
2.12335
2.16053
2.1963
2.23062
2.26345
2.29476
2.32452
2.3527
2.37928
2.40424
2.42755
2.44921
2.4692
2.4875
2.50412
2.51905
2.53229
2.54385
2.55372
2.56193
2.56848
2.57339
2.57668
2.57837
2.57849
2.57707
2.57414
2.56974
2.56391
2.55667
2.54807
2.53812
2.52688
2.51438
2.50067
2.48579
2.4698
2.45274
2.43467
2.41562
2.39565
2.37481
2.35315
2.33073
2.30759
2.28378
2.25936
2.23436
2.20885
2.18287
2.15647
2.12969
2.10258
2.07518
2.04754
2.0197
1.99169
1.96357
1.93536
1.9071
1.87883
1.85058
1.82238
1.79426
1.76625
1.73838
1.71068
1.68315
1.65584
1.62875
1.60191
1.57534
1.54905
1.52305
1.49735
1.47198
1.44693
1.42222
1.39786
1.37385
1.35019
1.32689
1.30395
1.28137
1.25916
1.23731
1.21582
1.19469
1.17392
1.15349
1.13341
1.11368
1.09428
1.07521
1.05646
1.03802
1.0199
1.00207
0.984529
0.967271
0.950287
0.933565
0.917097
0.900874
0.884886
0.869124
0.853578
0.838239
0.823098
0.808144
0.79337
0.778767
0.764325
0.750036
0.735891
0.721884
0.708005
0.694247
0.680603
0.667066
0.653629
0.64029
0.627044
0.613884
0.600801
0.587791
0.574848
0.561966
0.54914
0.536366
0.52364
0.510956
0.498318
0.485716
0.473146
0.460604
0.448083
0.43558
0.423091
0.410609
0.398129
0.385646
0.373153
0.360642
0.348101
0.335529
0.322913
0.310241
0.2975
0.284672
0.271739
0.258678
0.245461
0.232056
0.218419
0.204497
0.19024
0.175568
0.160375
0.144518
0.127797
0.109916
0.0904026
0.0684054
0.0418197
0.00816692
0.144827
0.336085
0.462498
0.566584
0.660147
0.747073
0.829343
0.908108
0.984093
1.05784
1.12971
1.19997
1.26882
1.33641
1.40283
1.46818
1.53249
1.59579
1.65811
1.71944
1.77978
1.83911
1.89741
1.95464
2.01078
2.06578
2.11961
2.17223
2.22358
2.27363
2.32234
2.36965
2.41552
2.45992
2.50279
2.5441
2.58381
2.62187
2.65827
2.69295
2.7259
2.75709
2.78648
2.81407
2.83983
2.86374
2.8858
2.906
2.92433
2.94079
2.95537
2.9681
2.97896
2.98799
2.99518
3.00056
3.00415
3.00597
3.00606
3.00444
3.00115
2.99622
2.98971
2.98162
2.97202
2.96093
2.9484
2.93448
2.91921
2.90264
2.88483
2.86583
2.84569
2.82446
2.80219
2.77895
2.75479
2.72976
2.70392
2.67732
2.65001
2.62206
2.5935
2.56441
2.53482
2.5048
2.47438
2.44362
2.41256
2.38126
2.34975
2.31809
2.2863
2.25444
2.22254
2.19064
2.15877
2.12697
2.09527
2.0637
2.03228
2.00106
1.97004
1.93926
1.90874
1.87849
1.84854
1.8189
1.78958
1.76061
1.73199
1.70373
1.67584
1.64833
1.62121
1.59448
1.56814
1.54219
1.51665
1.4915
1.46675
1.44239
1.41843
1.39485
1.37165
1.34883
1.32639
1.30431
1.28258
1.26121
1.24017
1.21947
1.19909
1.17902
1.15925
1.13978
1.12059
1.10167
1.08301
1.0646
1.04644
1.0285
1.01078
0.993264
0.975948
0.95882
0.941868
0.925083
0.908456
0.891977
0.875636
0.859426
0.843336
0.827359
0.81149
0.795724
0.780053
0.764467
0.74896
0.733524
0.718152
0.702839
0.687578
0.672364
0.657191
0.642054
0.62695
0.611873
0.596817
0.581775
0.566743
0.551714
0.536682
0.52164
0.506581
0.491498
0.476383
0.461226
0.446017
0.430744
0.415394
0.399953
0.384405
0.368729
0.352903
0.336899
0.320683
0.304216
0.287448
0.27032
0.252757
0.234673
0.215944
0.196404
0.175823
0.153852
0.129904
0.102746
0.0685697
0.0170872
0.144829
0.336086
0.462498
0.566584
0.660146
0.747072
0.829342
0.908106
0.984091
1.05784
1.12971
1.19997
1.26882
1.33641
1.40283
1.46817
1.53248
1.59579
1.65811
1.71944
1.77978
1.83911
1.89741
1.95464
2.01078
2.06578
2.11961
2.17222
2.22358
2.27363
2.32233
2.36964
2.41552
2.45991
2.50279
2.54409
2.5838
2.62187
2.65826
2.69295
2.7259
2.75708
2.78648
2.81406
2.83982
2.86374
2.8858
2.90599
2.92432
2.94078
2.95537
2.96809
2.97896
2.98798
2.99517
3.00055
3.00414
3.00597
3.00605
3.00443
3.00114
2.99622
2.9897
2.98162
2.97201
2.96092
2.94839
2.93447
2.9192
2.90264
2.88483
2.86582
2.84568
2.82445
2.80219
2.77895
2.75478
2.72975
2.70391
2.67731
2.65
2.62205
2.5935
2.5644
2.53482
2.50479
2.47437
2.44361
2.41256
2.38125
2.34975
2.31808
2.2863
2.25443
2.22253
2.19063
2.15876
2.12696
2.09526
2.06369
2.03228
2.00105
1.97004
1.93926
1.90873
1.87849
1.84853
1.81889
1.78958
1.7606
1.73198
1.70372
1.67584
1.64833
1.6212
1.59447
1.56813
1.54219
1.51664
1.4915
1.46674
1.44239
1.41842
1.39484
1.37165
1.34883
1.32638
1.3043
1.28258
1.2612
1.24017
1.21946
1.19908
1.17901
1.15925
1.13978
1.12059
1.10167
1.08301
1.0646
1.04643
1.02849
1.01077
0.993261
0.975945
0.958816
0.941865
0.92508
0.908453
0.891974
0.875633
0.859423
0.843333
0.827356
0.811487
0.795722
0.78005
0.764464
0.748957
0.733521
0.71815
0.702837
0.687576
0.672362
0.657189
0.642051
0.626948
0.611871
0.596815
0.581773
0.566741
0.551712
0.53668
0.521638
0.506579
0.491497
0.476382
0.461225
0.446015
0.430743
0.415392
0.399951
0.384403
0.368728
0.352902
0.336898
0.320682
0.304215
0.287447
0.27032
0.252756
0.234672
0.215943
0.196404
0.175822
0.153851
0.129904
0.102746
0.0685697
0.0170873
0.207615
0.430253
0.571784
0.68617
0.788476
0.883523
0.973633
1.06007
1.14361
1.22477
1.30392
1.38133
1.45718
1.53163
1.60477
1.67668
1.7474
1.81698
1.88542
1.95273
2.0189
2.08391
2.14774
2.21035
2.27172
2.33181
2.39057
2.44796
2.50394
2.55847
2.61149
2.66296
2.71284
2.76108
2.80763
2.85247
2.89554
2.93681
2.97624
3.0138
3.04946
3.0832
3.11498
3.14479
3.17261
3.19842
3.22222
3.24398
3.26372
3.28143
3.2971
3.31076
3.3224
3.33204
3.3397
3.34539
3.34914
3.35098
3.35093
3.34903
3.34532
3.33983
3.3326
3.32368
3.3131
3.30091
3.28716
3.27189
3.25516
3.23702
3.21752
3.19672
3.17468
3.15145
3.12709
3.10166
3.07523
3.04784
3.01955
2.99044
2.96055
2.92994
2.89867
2.8668
2.83438
2.80147
2.76813
2.7344
2.70033
2.66598
2.6314
2.59662
2.56171
2.5267
2.49164
2.45656
2.4215
2.38651
2.35161
2.31684
2.28224
2.24783
2.21364
2.17969
2.14601
2.11263
2.07956
2.04682
2.01442
1.9824
1.95075
1.91949
1.88863
1.85818
1.82814
1.79853
1.76934
1.74058
1.71225
1.68436
1.65689
1.62986
1.60325
1.57706
1.55129
1.52593
1.50098
1.47642
1.45226
1.42847
1.40506
1.38201
1.35932
1.33696
1.31494
1.29324
1.27185
1.25076
1.22995
1.20941
1.18914
1.16912
1.14934
1.12979
1.11045
1.09131
1.07237
1.05362
1.03503
1.0166
0.99833
0.980197
0.962195
0.944317
0.926557
0.908907
0.891357
0.873898
0.856523
0.839222
0.82199
0.804818
0.787701
0.770631
0.753602
0.736609
0.719646
0.702709
0.685789
0.66888
0.651975
0.635069
0.618152
0.60122
0.584263
0.567273
0.550241
0.533157
0.51601
0.498786
0.481472
0.464053
0.446507
0.428816
0.410956
0.392897
0.374604
0.356035
0.33714
0.317858
0.298109
0.277802
0.25681
0.234961
0.212007
0.187559
0.160908
0.13043
0.0909119
0.0259599
0.207618
0.430254
0.571784
0.686169
0.788474
0.883521
0.973631
1.06007
1.14361
1.22477
1.30392
1.38133
1.45718
1.53163
1.60476
1.67667
1.7474
1.81698
1.88542
1.95273
2.01889
2.0839
2.14773
2.21035
2.27172
2.3318
2.39056
2.44796
2.50394
2.55846
2.61148
2.66295
2.71283
2.76107
2.80763
2.85246
2.89553
2.9368
2.97623
3.0138
3.04946
3.08319
3.11498
3.14479
3.1726
3.19841
3.22221
3.24398
3.26371
3.28142
3.2971
3.31075
3.32239
3.33203
3.33969
3.34538
3.34913
3.35097
3.35092
3.34902
3.34531
3.33982
3.3326
3.32367
3.3131
3.30091
3.28715
3.27188
3.25515
3.23701
3.21751
3.19671
3.17467
3.15144
3.12708
3.10166
3.07522
3.04783
3.01955
2.99043
2.96054
2.92993
2.89867
2.86679
2.83438
2.80147
2.76812
2.73439
2.70032
2.66597
2.63139
2.59662
2.56171
2.5267
2.49163
2.45655
2.4215
2.3865
2.35161
2.31684
2.28223
2.24782
2.21363
2.17968
2.14601
2.11262
2.07955
2.04681
2.01442
1.98239
1.95074
1.91948
1.88862
1.85817
1.82814
1.79852
1.76934
1.74058
1.71225
1.68435
1.65689
1.62985
1.60324
1.57706
1.55128
1.52593
1.50097
1.47642
1.45225
1.42847
1.40506
1.38201
1.35931
1.33696
1.31494
1.29324
1.27185
1.25075
1.22994
1.20941
1.18914
1.16912
1.14934
1.12978
1.11044
1.09131
1.07237
1.05361
1.03503
1.0166
0.998327
0.980194
0.962192
0.944314
0.926555
0.908905
0.891355
0.873896
0.85652
0.83922
0.821988
0.804816
0.787699
0.770629
0.7536
0.736607
0.719645
0.702707
0.685787
0.668878
0.651974
0.635067
0.618151
0.601218
0.584261
0.567271
0.55024
0.533156
0.516008
0.498785
0.481471
0.464051
0.446506
0.428815
0.410955
0.392896
0.374603
0.356034
0.33714
0.317857
0.298109
0.277801
0.25681
0.234961
0.212007
0.187559
0.160908
0.13043
0.0909121
0.0259599
0.268061
0.516707
0.671745
0.795096
0.904522
1.00606
1.10239
1.19493
1.2845
1.37164
1.45672
1.53998
1.62162
1.70176
1.7805
1.85791
1.93404
2.0089
2.08252
2.15489
2.226
2.29582
2.36435
2.43153
2.49734
2.56174
2.62469
2.68613
2.74603
2.80434
2.86101
2.91599
2.96925
3.02072
3.07037
3.11816
3.16405
3.20799
3.24996
3.28991
3.32783
3.36367
3.39741
3.42905
3.45854
3.48589
3.51109
3.53411
3.55497
3.57365
3.59017
3.60453
3.61675
3.62682
3.63479
3.64065
3.64445
3.64621
3.64595
3.64372
3.63956
3.6335
3.62559
3.61586
3.60436
3.59115
3.57627
3.55977
3.5417
3.52213
3.50111
3.4787
3.45496
3.42995
3.40373
3.37637
3.34792
3.31844
3.28801
3.25668
3.22452
3.19158
3.15793
3.12363
3.08874
3.05331
3.01741
2.98108
2.94439
2.90739
2.87013
2.83266
2.79503
2.75729
2.71947
2.68164
2.64382
2.60606
2.56839
2.53086
2.49349
2.45632
2.41938
2.3827
2.3463
2.3102
2.27443
2.23902
2.20397
2.16931
2.13505
2.1012
2.06777
2.03479
2.00224
1.97014
1.9385
1.90732
1.87659
1.84633
1.81653
1.78718
1.7583
1.72986
1.70187
1.67433
1.64722
1.62054
1.59427
1.56842
1.54296
1.5179
1.49322
1.4689
1.44494
1.42133
1.39805
1.37509
1.35243
1.33008
1.308
1.2862
1.26466
1.24336
1.22229
1.20144
1.18081
1.16037
1.14011
1.12003
1.10011
1.08035
1.06072
1.04124
1.02187
1.00263
0.983494
0.964455
0.945506
0.926637
0.907841
0.889111
0.870437
0.851815
0.833237
0.814696
0.796186
0.777702
0.759235
0.740779
0.722326
0.703869
0.685401
0.666914
0.648399
0.629847
0.611249
0.592594
0.573871
0.555066
0.536165
0.517151
0.498005
0.478706
0.459228
0.439542
0.419614
0.399403
0.378857
0.357914
0.336498
0.314507
0.291817
0.268245
0.243518
0.217188
0.188397
0.155121
0.110935
0.0346168
0.268063
0.516707
0.671744
0.795094
0.90452
1.00605
1.10238
1.19492
1.2845
1.37164
1.45672
1.53998
1.62161
1.70175
1.7805
1.85791
1.93403
2.0089
2.08252
2.15488
2.22599
2.29582
2.36434
2.43153
2.49734
2.56174
2.62468
2.68613
2.74603
2.80434
2.861
2.91599
2.96924
3.02072
3.07037
3.11816
3.16405
3.20799
3.24995
3.28991
3.32782
3.36366
3.39741
3.42904
3.45854
3.48589
3.51108
3.53411
3.55496
3.57365
3.59017
3.60453
3.61674
3.62682
3.63478
3.64065
3.64444
3.6462
3.64595
3.64372
3.63955
3.63349
3.62558
3.61585
3.60436
3.59114
3.57626
3.55976
3.5417
3.52213
3.50111
3.4787
3.45496
3.42995
3.40373
3.37636
3.34791
3.31844
3.28801
3.25668
3.22451
3.19158
3.15793
3.12363
3.08873
3.05331
3.0174
2.98108
2.94439
2.90739
2.87013
2.83265
2.79502
2.75728
2.71947
2.68163
2.64381
2.60605
2.56839
2.53086
2.49349
2.45632
2.41938
2.38269
2.34629
2.3102
2.27443
2.23901
2.20397
2.1693
2.13504
2.10119
2.06777
2.03478
2.00224
1.97014
1.9385
1.90731
1.87659
1.84632
1.81652
1.78718
1.75829
1.72986
1.70187
1.67433
1.64722
1.62053
1.59427
1.56841
1.54296
1.5179
1.49321
1.4689
1.44494
1.42132
1.39804
1.37508
1.35243
1.33008
1.308
1.2862
1.26465
1.24335
1.22229
1.20144
1.18081
1.16037
1.14011
1.12003
1.10011
1.08034
1.06072
1.04123
1.02187
1.00263
0.983492
0.964453
0.945504
0.926635
0.90784
0.889109
0.870436
0.851814
0.833235
0.814694
0.796185
0.7777
0.759233
0.740777
0.722325
0.703868
0.6854
0.666913
0.648398
0.629846
0.611248
0.592593
0.57387
0.555065
0.536164
0.51715
0.498004
0.478705
0.459227
0.439541
0.419614
0.399402
0.378856
0.357914
0.336497
0.314507
0.291817
0.268245
0.243518
0.217188
0.188397
0.155122
0.110935
0.0346169
0.327298
0.598203
0.765814
0.897707
1.01381
1.12121
1.22302
1.32086
1.41564
1.50794
1.59813
1.68645
1.77309
1.85817
1.94178
2.02399
2.10482
2.18429
2.26242
2.3392
2.4146
2.48862
2.56122
2.63237
2.70203
2.77015
2.83671
2.90164
2.9649
3.02645
3.08623
3.14421
3.20032
3.25454
3.3068
3.35708
3.40533
3.4515
3.49557
3.53751
3.57727
3.61484
3.65019
3.6833
3.71415
3.74273
3.76902
3.79303
3.81475
3.83418
3.85133
3.8662
3.8788
3.88916
3.89728
3.9032
3.90695
3.90854
3.90802
3.90541
3.90077
3.89414
3.88554
3.87504
3.86268
3.84851
3.83258
3.81495
3.79567
3.7748
3.75241
3.72855
3.70328
3.67668
3.6488
3.6197
3.58947
3.55815
3.52581
3.49253
3.45836
3.42337
3.38762
3.35118
3.31411
3.27647
3.23832
3.19972
3.16072
3.12139
3.08178
3.04194
3.00192
2.96178
2.92156
2.8813
2.84106
2.80087
2.76078
2.72081
2.68102
2.64143
2.60207
2.56298
2.52418
2.48569
2.44756
2.40978
2.37239
2.33541
2.29884
2.26271
2.22702
2.19179
2.15702
2.12273
2.08891
2.05558
2.02273
1.99037
1.95849
1.9271
1.89619
1.86576
1.8358
1.80631
1.77728
1.7487
1.72056
1.69286
1.66558
1.63872
1.61226
1.58619
1.5605
1.53517
1.5102
1.48557
1.46127
1.43728
1.41359
1.39019
1.36706
1.3442
1.32158
1.2992
1.27705
1.2551
1.23335
1.21178
1.19039
1.16917
1.14809
1.12717
1.10638
1.08571
1.06516
1.04471
1.02436
1.0041
0.983909
0.963794
0.943741
0.923742
0.903791
0.883881
0.864004
0.844155
0.824325
0.804507
0.784693
0.764876
0.745047
0.725198
0.705321
0.685406
0.665444
0.645423
0.625332
0.605157
0.584883
0.564495
0.543973
0.523296
0.502437
0.481369
0.460057
0.438457
0.416523
0.39419
0.371381
0.347991
0.323886
0.298869
0.272633
0.244657
0.213922
0.178027
0.129503
0.0431285
0.3273
0.598203
0.765813
0.897705
1.01381
1.1212
1.22302
1.32086
1.41564
1.50794
1.59812
1.68644
1.77309
1.85817
1.94178
2.02398
2.10481
2.18429
2.26242
2.33919
2.4146
2.48862
2.56122
2.63237
2.70202
2.77015
2.8367
2.90163
2.96489
3.02644
3.08623
3.1442
3.20032
3.25453
3.3068
3.35708
3.40532
3.4515
3.49557
3.5375
3.57727
3.61483
3.65018
3.68329
3.71414
3.74272
3.76902
3.79303
3.81475
3.83418
3.85132
3.86619
3.87879
3.88915
3.89728
3.9032
3.90694
3.90853
3.90801
3.90541
3.90077
3.89413
3.88554
3.87504
3.86268
3.84851
3.83258
3.81494
3.79566
3.7748
3.7524
3.72854
3.70328
3.67667
3.64879
3.6197
3.58946
3.55814
3.52581
3.49252
3.45835
3.42336
3.38762
3.35117
3.3141
3.27646
3.23831
3.19971
3.16072
3.12139
3.08178
3.04194
3.00192
2.96178
2.92155
2.8813
2.84106
2.80087
2.76077
2.72081
2.68101
2.64142
2.60206
2.56297
2.52417
2.48569
2.44755
2.40978
2.37239
2.3354
2.29884
2.2627
2.22702
2.19178
2.15702
2.12272
2.08891
2.05557
2.02273
1.99036
1.95849
1.9271
1.89619
1.86575
1.8358
1.8063
1.77727
1.74869
1.72056
1.69286
1.66558
1.63872
1.61226
1.58619
1.56049
1.53517
1.5102
1.48557
1.46126
1.43728
1.41359
1.39019
1.36706
1.3442
1.32158
1.2992
1.27704
1.2551
1.23335
1.21178
1.19039
1.16916
1.14809
1.12717
1.10637
1.08571
1.06516
1.04471
1.02436
1.00409
0.983908
0.963792
0.943739
0.923741
0.90379
0.88388
0.864003
0.844154
0.824324
0.804506
0.784692
0.764874
0.745046
0.725197
0.70532
0.685405
0.665443
0.645422
0.625331
0.605156
0.584883
0.564494
0.543972
0.523295
0.502437
0.481369
0.460056
0.438457
0.416522
0.39419
0.37138
0.347991
0.323886
0.298869
0.272633
0.244657
0.213922
0.178027
0.129504
0.0431287
0.385602
0.676147
0.855896
0.996163
1.11884
1.23189
1.33888
1.44164
1.54119
1.63817
1.73297
1.82585
1.917
2.00652
2.09451
2.181
2.26605
2.34965
2.4318
2.51251
2.59174
2.66948
2.7457
2.82034
2.89339
2.96479
3.0345
3.10247
3.16865
3.233
3.29548
3.35602
3.41458
3.47113
3.52561
3.57798
3.62821
3.67625
3.72206
3.76563
3.80691
3.84588
3.88252
3.91681
3.94873
3.97826
4.00541
4.03017
4.05253
4.07249
4.09007
4.10527
4.11811
4.1286
4.13676
4.14263
4.14622
4.14758
4.14673
4.14371
4.13856
4.13134
4.12207
4.11082
4.09763
4.08255
4.06564
4.04696
4.02656
4.0045
3.98086
3.95568
3.92903
3.90099
3.87162
3.84098
3.80914
3.77618
3.74215
3.70712
3.67117
3.63435
3.59675
3.55841
3.51941
3.47981
3.43967
3.39905
3.35802
3.31663
3.27494
3.233
3.19087
3.1486
3.10625
3.06385
3.02145
2.97911
2.93685
2.89473
2.85278
2.81103
2.76952
2.72828
2.68735
2.64674
2.60648
2.5666
2.52711
2.48804
2.44941
2.41122
2.3735
2.33625
2.29949
2.26321
2.22744
2.19216
2.15739
2.12313
2.08937
2.05612
2.02338
1.99113
1.95937
1.92811
1.89732
1.86701
1.83717
1.80778
1.77883
1.75031
1.72222
1.69454
1.66726
1.64036
1.61383
1.58766
1.56183
1.53634
1.51116
1.48628
1.4617
1.43738
1.41334
1.38953
1.36597
1.34262
1.31949
1.29655
1.2738
1.25122
1.22881
1.20655
1.18443
1.16245
1.14059
1.11884
1.09719
1.07564
1.05417
1.03278
1.01146
0.990191
0.968978
0.947809
0.926677
0.905576
0.884496
0.863431
0.842372
0.821312
0.800241
0.779152
0.758035
0.73688
0.715679
0.694419
0.673088
0.651675
0.630163
0.608536
0.586776
0.564861
0.542766
0.520463
0.497916
0.475084
0.451917
0.428349
0.404302
0.379665
0.35429
0.327961
0.300329
0.270794
0.238178
0.199738
0.147093
0.051565
0.385603
0.676147
0.855894
0.99616
1.11884
1.23189
1.33888
1.44163
1.54119
1.63816
1.73296
1.82585
1.91699
2.00652
2.0945
2.181
2.26604
2.34964
2.4318
2.51251
2.59174
2.66948
2.74569
2.82034
2.89338
2.96478
3.03449
3.10246
3.16865
3.233
3.29547
3.35601
3.41458
3.47113
3.52561
3.57798
3.6282
3.67624
3.72206
3.76562
3.8069
3.84587
3.88251
3.9168
3.94872
3.97826
4.00541
4.03016
4.05252
4.07249
4.09006
4.10526
4.1181
4.12859
4.13676
4.14262
4.14622
4.14757
4.14672
4.1437
4.13856
4.13133
4.12207
4.11082
4.09763
4.08255
4.06564
4.04695
4.02655
4.0045
3.98085
3.95567
3.92903
3.90099
3.87161
3.84098
3.80914
3.77617
3.74214
3.70712
3.67116
3.63435
3.59674
3.5584
3.5194
3.4798
3.43966
3.39904
3.35801
3.31662
3.27493
3.23299
3.19087
3.1486
3.10624
3.06384
3.02145
2.9791
2.93685
2.89473
2.85278
2.81103
2.76952
2.72828
2.68734
2.64673
2.60647
2.56659
2.52711
2.48804
2.44941
2.41122
2.3735
2.33625
2.29948
2.26321
2.22743
2.19216
2.15739
2.12313
2.08937
2.05612
2.02337
1.99113
1.95937
1.92811
1.89732
1.86701
1.83716
1.80777
1.77883
1.75031
1.72222
1.69454
1.66726
1.64036
1.61383
1.58766
1.56183
1.53634
1.51116
1.48628
1.46169
1.43738
1.41333
1.38953
1.36597
1.34262
1.31949
1.29655
1.2738
1.25122
1.2288
1.20655
1.18443
1.16245
1.14059
1.11884
1.09719
1.07564
1.05417
1.03278
1.01145
0.99019
0.968977
0.947808
0.926676
0.905575
0.884495
0.86343
0.842372
0.821311
0.80024
0.779151
0.758034
0.736879
0.715678
0.694418
0.673088
0.651674
0.630162
0.608536
0.586776
0.564861
0.542766
0.520462
0.497915
0.475084
0.451916
0.428349
0.404301
0.379665
0.35429
0.327961
0.300329
0.270794
0.238179
0.199738
0.147093
0.0515652
0.443198
0.751637
0.943136
1.09173
1.22101
1.33969
1.45176
1.55927
1.66337
1.76477
1.8639
1.96103
2.05635
2.14998
2.242
2.33244
2.42135
2.50872
2.59455
2.67882
2.76153
2.84263
2.92209
2.99988
3.07595
3.15026
3.22277
3.29342
3.36217
3.42897
3.49377
3.55654
3.61721
3.67574
3.7321
3.78624
3.83812
3.88771
3.93496
3.97986
4.02237
4.06246
4.10012
4.13533
4.16807
4.19833
4.22611
4.25139
4.27419
4.29451
4.31235
4.32772
4.34065
4.35115
4.35924
4.36494
4.3683
4.36934
4.36811
4.36463
4.35895
4.35112
4.34119
4.3292
4.3152
4.29926
4.28142
4.26175
4.24031
4.21715
4.19235
4.16597
4.13807
4.10872
4.078
4.04596
4.01269
3.97824
3.94269
3.90611
3.86856
3.83012
3.79085
3.75082
3.7101
3.66876
3.62685
3.58444
3.54159
3.49836
3.45482
3.41102
3.36701
3.32284
3.27858
3.23427
3.18995
3.14568
3.1015
3.05744
3.01355
2.96987
2.92643
2.88326
2.8404
2.79786
2.75569
2.71391
2.67253
2.63157
2.59106
2.55101
2.51144
2.47235
2.43376
2.39568
2.35811
2.32105
2.28452
2.24851
2.21303
2.17806
2.14362
2.10969
2.07628
2.04337
2.01096
1.97904
1.9476
1.91663
1.88613
1.85607
1.82646
1.79727
1.76849
1.74011
1.71212
1.6845
1.65724
1.63032
1.60374
1.57747
1.5515
1.52582
1.50041
1.47527
1.45037
1.4257
1.40125
1.37701
1.35297
1.32911
1.30542
1.2819
1.25853
1.2353
1.2122
1.18922
1.16634
1.14357
1.12089
1.09829
1.07576
1.0533
1.03089
1.00854
0.986221
0.963939
0.941683
0.919445
0.897215
0.874987
0.85275
0.830497
0.808218
0.785903
0.763543
0.741125
0.718639
0.69607
0.673405
0.650626
0.627715
0.604651
0.58141
0.557961
0.534271
0.510298
0.485988
0.461277
0.436077
0.410272
0.383697
0.35611
0.327122
0.29605
0.261567
0.220616
0.164003
0.0599817
0.443199
0.751637
0.943134
1.09173
1.22101
1.33969
1.45176
1.55927
1.66337
1.76477
1.8639
1.96103
2.05635
2.14998
2.24199
2.33244
2.42134
2.50871
2.59454
2.67882
2.76152
2.84263
2.92209
2.99988
3.07595
3.15026
3.22276
3.29341
3.36216
3.42896
3.49377
3.55653
3.6172
3.67574
3.7321
3.78624
3.83812
3.8877
3.93496
3.97985
4.02236
4.06246
4.10012
4.13532
4.16806
4.19832
4.2261
4.25139
4.27419
4.2945
4.31234
4.32772
4.34064
4.35114
4.35923
4.36494
4.3683
4.36934
4.3681
4.36462
4.35894
4.35112
4.34118
4.32919
4.3152
4.29926
4.28142
4.26175
4.2403
4.21715
4.19235
4.16596
4.13807
4.10872
4.07799
4.04596
4.01268
3.97824
3.94269
3.9061
3.86856
3.83012
3.79085
3.75082
3.7101
3.66875
3.62684
3.58443
3.54158
3.49836
3.45482
3.41101
3.367
3.32284
3.27858
3.23427
3.18995
3.14568
3.10149
3.05744
3.01355
2.96987
2.92642
2.88326
2.84039
2.79786
2.75569
2.7139
2.67252
2.63157
2.59106
2.55101
2.51144
2.47235
2.43376
2.39568
2.3581
2.32105
2.28452
2.24851
2.21302
2.17806
2.14362
2.10969
2.07628
2.04337
2.01096
1.97904
1.9476
1.91663
1.88613
1.85607
1.82645
1.79726
1.76849
1.74011
1.71212
1.6845
1.65724
1.63032
1.60373
1.57747
1.5515
1.52582
1.50041
1.47527
1.45037
1.4257
1.40125
1.37701
1.35297
1.32911
1.30542
1.2819
1.25853
1.2353
1.2122
1.18921
1.16634
1.14357
1.12089
1.09829
1.07576
1.0533
1.03089
1.00854
0.98622
0.963938
0.941682
0.919444
0.897215
0.874986
0.85275
0.830496
0.808217
0.785903
0.763542
0.741125
0.718638
0.69607
0.673404
0.650625
0.627715
0.604651
0.58141
0.557961
0.534271
0.510297
0.485988
0.461277
0.436077
0.410272
0.383697
0.356111
0.327122
0.29605
0.261567
0.220617
0.164004
0.059982
0.500454
0.82547
1.02833
1.18528
1.32123
1.4456
1.56276
1.67498
1.78355
1.88925
1.99254
2.09373
2.19302
2.29052
2.38633
2.48048
2.57299
2.66386
2.7531
2.84068
2.92658
3.01076
3.09319
3.17383
3.25263
3.32956
3.40457
3.47761
3.54863
3.61758
3.68443
3.74911
3.8116
3.87184
3.92979
3.98541
4.03867
4.08953
4.13796
4.18392
4.22741
4.26838
4.30682
4.34272
4.37606
4.40684
4.43504
4.46067
4.48374
4.50424
4.52218
4.53759
4.55047
4.56085
4.56876
4.57422
4.57726
4.57792
4.57624
4.57225
4.56601
4.55756
4.54695
4.53423
4.51945
4.50267
4.48395
4.46335
4.44092
4.41674
4.39087
4.36338
4.33433
4.30379
4.27184
4.23854
4.20396
4.16818
4.13126
4.09327
4.0543
4.0144
3.97364
3.9321
3.88984
3.84694
3.80344
3.75943
3.71496
3.6701
3.6249
3.57942
3.53373
3.48787
3.4419
3.39587
3.34983
3.30382
3.2579
3.2121
3.16647
3.12104
3.07585
3.03093
2.98632
2.94205
2.89813
2.85461
2.8115
2.76882
2.7266
2.68484
2.64356
2.60278
2.56251
2.52276
2.48353
2.44483
2.40666
2.36903
2.33193
2.29537
2.25935
2.22385
2.18888
2.15443
2.12049
2.08705
2.05411
2.02166
1.98968
1.95816
1.9271
1.89647
1.86627
1.83648
1.8071
1.77809
1.74946
1.72118
1.69325
1.66564
1.63835
1.61136
1.58465
1.5582
1.53202
1.50608
1.48037
1.45487
1.42958
1.40448
1.37957
1.35483
1.33024
1.30581
1.28151
1.25734
1.23328
1.20933
1.18548
1.16171
1.13803
1.11441
1.09086
1.06736
1.0439
1.02049
0.9971
0.973734
0.950382
0.927033
0.903679
0.880311
0.85692
0.833495
0.810027
0.786503
0.762913
0.739242
0.715476
0.691599
0.667592
0.643434
0.6191
0.594561
0.569781
0.544717
0.519315
0.493505
0.467194
0.440255
0.412507
0.383678
0.353333
0.320716
0.284357
0.240912
0.180443
0.0684245
0.500455
0.825469
1.02833
1.18528
1.32122
1.4456
1.56276
1.67498
1.78355
1.88924
1.99253
2.09372
2.19301
2.29052
2.38633
2.48047
2.57298
2.66386
2.7531
2.84068
2.92657
3.01075
3.09318
3.17382
3.25263
3.32956
3.40457
3.4776
3.54862
3.61758
3.68442
3.74911
3.81159
3.87183
3.92978
3.98541
4.03866
4.08952
4.13795
4.18392
4.2274
4.26837
4.30682
4.34272
4.37606
4.40683
4.43504
4.46067
4.48373
4.50423
4.52218
4.53758
4.55047
4.56085
4.56875
4.57421
4.57725
4.57791
4.57623
4.57225
4.56601
4.55756
4.54695
4.53423
4.51945
4.50267
4.48395
4.46334
4.44092
4.41674
4.39087
4.36338
4.33433
4.30379
4.27184
4.23853
4.20396
4.16817
4.13125
4.09327
4.05429
4.01439
3.97364
3.9321
3.88984
3.84693
3.80344
3.75943
3.71496
3.67009
3.62489
3.57942
3.53372
3.48787
3.4419
3.39587
3.34982
3.30382
3.2579
3.2121
3.16646
3.12103
3.07584
3.03093
2.98632
2.94204
2.89813
2.85461
2.8115
2.76882
2.72659
2.68483
2.64356
2.60278
2.56251
2.52276
2.48353
2.44483
2.40666
2.36903
2.33193
2.29537
2.25935
2.22385
2.18888
2.15443
2.12049
2.08705
2.05411
2.02165
1.98967
1.95816
1.92709
1.89647
1.86627
1.83648
1.80709
1.77809
1.74946
1.72118
1.69325
1.66564
1.63835
1.61135
1.58464
1.5582
1.53202
1.50608
1.48037
1.45487
1.42958
1.40448
1.37957
1.35483
1.33024
1.30581
1.28151
1.25733
1.23328
1.20933
1.18548
1.16171
1.13802
1.11441
1.09086
1.06736
1.0439
1.02049
0.997099
0.973734
0.950381
0.927032
0.903678
0.88031
0.856919
0.833494
0.810026
0.786503
0.762912
0.739241