/*--------------------------------*- C++ -*----------------------------------*\
  =========                 |
  \\      /  F ield         | OpenFOAM: The Open Source CFD Toolbox
   \\    /   O peration     | Website:  https://openfoam.org
    \\  /    A nd           | Version:  8
     \\/     M anipulation  |
\*---------------------------------------------------------------------------*/
FoamFile
{
    version     2.0;
    format      ascii;
    class       volScalarField;
    location    "3800";
    object      nut;
}
// * * * * * * * * * * * * * * * * * * * * * * * * * * * * * * * * * * * * * //

dimensions      [0 2 -1 0 0 0 0];

internalField   nonuniform List<scalar> 
46000
(
1.46949e-06
5.94802e-06
1.07703e-05
1.52243e-05
1.94181e-05
2.34658e-05
2.74187e-05
3.12887e-05
3.50975e-05
3.88612e-05
4.25925e-05
4.63021e-05
4.99681e-05
5.3606e-05
5.72194e-05
6.08087e-05
6.43733e-05
6.79117e-05
7.14219e-05
7.49013e-05
7.83472e-05
8.17562e-05
8.51251e-05
8.84503e-05
9.17279e-05
9.49542e-05
9.81253e-05
0.000101237
0.000104286
0.000107268
0.000110179
0.000113015
0.000115772
0.000118447
0.000121037
0.000123537
0.000125946
0.000128259
0.000130473
0.000132587
0.000134598
0.000136503
0.0001383
0.000139989
0.000141566
0.000143031
0.000144382
0.00014562
0.000146742
0.00014775
0.000148642
0.000149419
0.000150082
0.00015063
0.000151066
0.000151389
0.000151602
0.000151705
0.000151702
0.000151593
0.000151382
0.000151072
0.000150667
0.000150167
0.000149574
0.000148891
0.000148119
0.000147262
0.000146324
0.000145308
0.000144217
0.000143054
0.000141823
0.000140527
0.000139171
0.000137757
0.00013629
0.000134772
0.000133208
0.000131601
0.000129955
0.000128272
0.000126557
0.000124813
0.000123043
0.000121251
0.000119439
0.000117611
0.000115769
0.000113917
0.000112058
0.000110193
0.000108326
0.000106459
0.000104595
0.000102735
0.000100883
9.90389e-05
9.72057e-05
9.53851e-05
9.35787e-05
9.17881e-05
9.00146e-05
8.82595e-05
8.65242e-05
8.48096e-05
8.31168e-05
8.14466e-05
7.97998e-05
7.81771e-05
7.65791e-05
7.50062e-05
7.34588e-05
7.19373e-05
7.04419e-05
6.89727e-05
6.75297e-05
6.61131e-05
6.47228e-05
6.33585e-05
6.20202e-05
6.07075e-05
5.94203e-05
5.81581e-05
5.69206e-05
5.57073e-05
5.45179e-05
5.33518e-05
5.22085e-05
5.10875e-05
4.99882e-05
4.89101e-05
4.78525e-05
4.68149e-05
4.57966e-05
4.47971e-05
4.38156e-05
4.28517e-05
4.19046e-05
4.09738e-05
4.00587e-05
3.91586e-05
3.8273e-05
3.74013e-05
3.65429e-05
3.56974e-05
3.48641e-05
3.40426e-05
3.32324e-05
3.2433e-05
3.1644e-05
3.08649e-05
3.00953e-05
2.93349e-05
2.85833e-05
2.78402e-05
2.71053e-05
2.63788e-05
2.566e-05
2.49487e-05
2.42444e-05
2.35471e-05
2.28565e-05
2.21723e-05
2.14945e-05
2.08239e-05
2.01601e-05
1.95023e-05
1.88503e-05
1.82039e-05
1.75629e-05
1.69273e-05
1.62969e-05
1.56717e-05
1.50512e-05
1.44354e-05
1.38246e-05
1.32184e-05
1.26165e-05
1.20188e-05
1.1425e-05
1.0835e-05
1.02484e-05
9.6648e-06
9.08381e-06
8.50492e-06
7.92749e-06
7.35076e-06
6.77386e-06
6.19677e-06
5.61858e-06
5.03684e-06
4.44941e-06
3.85363e-06
3.24605e-06
2.62208e-06
1.97589e-06
1.30256e-06
6.20786e-07
1.20593e-07
1.46957e-06
5.94826e-06
1.07705e-05
1.52245e-05
1.94183e-05
2.3466e-05
2.74189e-05
3.12888e-05
3.50976e-05
3.88613e-05
4.25926e-05
4.63022e-05
4.99682e-05
5.36061e-05
5.72194e-05
6.08088e-05
6.43733e-05
6.79117e-05
7.14219e-05
7.49013e-05
7.83472e-05
8.17562e-05
8.51251e-05
8.84502e-05
9.17279e-05
9.49542e-05
9.81253e-05
0.000101237
0.000104286
0.000107268
0.000110178
0.000113014
0.000115772
0.000118447
0.000121037
0.000123537
0.000125945
0.000128258
0.000130473
0.000132587
0.000134598
0.000136503
0.0001383
0.000139988
0.000141566
0.00014303
0.000144382
0.000145619
0.000146742
0.000147749
0.000148642
0.000149419
0.000150082
0.00015063
0.000151066
0.000151389
0.000151602
0.000151705
0.000151701
0.000151593
0.000151381
0.000151071
0.000150667
0.000150167
0.000149574
0.00014889
0.000148119
0.000147262
0.000146324
0.000145308
0.000144216
0.000143053
0.000141822
0.000140527
0.000139171
0.000137757
0.000136289
0.000134772
0.000133208
0.000131601
0.000129954
0.000128272
0.000126557
0.000124813
0.000123043
0.00012125
0.000119439
0.00011761
0.000115769
0.000113917
0.000112057
0.000110193
0.000108326
0.000106459
0.000104595
0.000102735
0.000100883
9.90386e-05
9.72055e-05
9.53849e-05
9.35785e-05
9.17879e-05
9.00144e-05
8.82593e-05
8.6524e-05
8.48094e-05
8.31166e-05
8.14464e-05
7.97996e-05
7.81769e-05
7.65789e-05
7.5006e-05
7.34587e-05
7.19371e-05
7.04417e-05
6.89725e-05
6.75296e-05
6.6113e-05
6.47226e-05
6.33583e-05
6.202e-05
6.07074e-05
5.94201e-05
5.81579e-05
5.69204e-05
5.57072e-05
5.45178e-05
5.33517e-05
5.22084e-05
5.10874e-05
4.99881e-05
4.891e-05
4.78524e-05
4.68148e-05
4.57965e-05
4.4797e-05
4.38155e-05
4.28516e-05
4.19045e-05
4.09737e-05
4.00586e-05
3.91585e-05
3.82729e-05
3.74012e-05
3.65428e-05
3.56973e-05
3.4864e-05
3.40425e-05
3.32323e-05
3.24329e-05
3.16439e-05
3.08648e-05
3.00953e-05
2.93349e-05
2.85833e-05
2.78402e-05
2.71052e-05
2.63787e-05
2.566e-05
2.49486e-05
2.42444e-05
2.35471e-05
2.28564e-05
2.21722e-05
2.14944e-05
2.08239e-05
2.01601e-05
1.95023e-05
1.88502e-05
1.82038e-05
1.75628e-05
1.69272e-05
1.62969e-05
1.56716e-05
1.50511e-05
1.44354e-05
1.38246e-05
1.32184e-05
1.26164e-05
1.20187e-05
1.1425e-05
1.0835e-05
1.02484e-05
9.66478e-06
9.08379e-06
8.5049e-06
7.92747e-06
7.35075e-06
6.77384e-06
6.19676e-06
5.61857e-06
5.03684e-06
4.4494e-06
3.85363e-06
3.24605e-06
2.62208e-06
1.97589e-06
1.30256e-06
6.20787e-07
1.20593e-07
5.4364e-06
5.32393e-05
9.04293e-05
0.000116121
0.000135994
0.000152457
0.000166609
0.000179263
0.000190856
0.000201649
0.000211807
0.000221455
0.000230692
0.000239573
0.000248139
0.000256423
0.000264451
0.000272244
0.000279816
0.000287181
0.000294346
0.000301319
0.000308106
0.000314711
0.000321136
0.000327382
0.000333452
0.000339346
0.000345063
0.000350603
0.000355966
0.00036115
0.000366155
0.000370979
0.00037562
0.000380078
0.000384352
0.000388439
0.000392339
0.00039605
0.000399573
0.000402905
0.000406046
0.000408996
0.000411755
0.000414321
0.000416696
0.00041888
0.000420873
0.000422675
0.000424289
0.000425714
0.000426953
0.000428007
0.000428877
0.000429566
0.000430076
0.000430409
0.000430568
0.000430555
0.000430373
0.000430023
0.000429508
0.000428835
0.000428006
0.000427027
0.000425902
0.000424635
0.00042323
0.000421693
0.000420027
0.000418236
0.000416327
0.000414302
0.000412168
0.000409929
0.000407589
0.000405154
0.000402628
0.000400016
0.000397323
0.000394554
0.000391714
0.000388806
0.000385837
0.00038281
0.000379731
0.000376603
0.00037343
0.000370219
0.000366971
0.000363692
0.000360386
0.000357057
0.000353707
0.000350342
0.000346964
0.000343576
0.000340183
0.000336787
0.000333392
0.000329999
0.000326612
0.000323234
0.000319866
0.000316512
0.000313172
0.00030985
0.000306547
0.000303264
0.000300004
0.000296767
0.000293555
0.00029037
0.000287211
0.000284081
0.000280979
0.000277906
0.000274863
0.00027185
0.000268867
0.000265915
0.000262993
0.000260101
0.00025724
0.000254408
0.000251606
0.000248833
0.000246088
0.000243371
0.000240681
0.000238017
0.000235379
0.000232765
0.000230175
0.000227607
0.000225061
0.000222535
0.000220029
0.000217541
0.00021507
0.000212615
0.000210174
0.000207747
0.000205332
0.000202928
0.000200534
0.000198149
0.00019577
0.000193398
0.000191031
0.000188667
0.000186306
0.000183947
0.000181588
0.000179229
0.000176868
0.000174503
0.000172134
0.000169759
0.000167376
0.000164986
0.000162585
0.000160173
0.000157747
0.000155299
0.000152836
0.000150356
0.000147858
0.000145341
0.000142803
0.000140242
0.000137657
0.000135044
0.000132403
0.000129729
0.000127018
0.000124268
0.000121474
0.000118631
0.000115733
0.000112774
0.000109745
0.000106638
0.000103441
0.000100141
9.67204e-05
9.31577e-05
8.94228e-05
8.54665e-05
8.12558e-05
7.67379e-05
7.18319e-05
6.64209e-05
6.03265e-05
5.32562e-05
4.46778e-05
3.34792e-05
1.71346e-05
5.59597e-07
5.43646e-06
5.3241e-05
9.04319e-05
0.000116124
0.000135997
0.00015246
0.000166612
0.000179266
0.000190859
0.000201652
0.00021181
0.000221458
0.000230696
0.000239576
0.000248142
0.000256427
0.000264455
0.000272248
0.00027982
0.000287184
0.00029435
0.000301323
0.00030811
0.000314715
0.00032114
0.000327387
0.000333457
0.00033935
0.000345067
0.000350608
0.000355971
0.000361155
0.00036616
0.000370983
0.000375625
0.000380083
0.000384356
0.000388444
0.000392344
0.000396055
0.000399578
0.00040291
0.000406051
0.000409001
0.00041176
0.000414327
0.000416702
0.000418885
0.000420878
0.000422681
0.000424294
0.000425719
0.000426958
0.000428012
0.000428882
0.000429571
0.000430081
0.000430414
0.000430573
0.00043056
0.000430378
0.000430028
0.000429513
0.00042884
0.000428011
0.000427032
0.000425907
0.00042464
0.000423235
0.000421698
0.000420031
0.000418241
0.000416331
0.000414307
0.000412173
0.000409933
0.000407594
0.000405158
0.000402632
0.00040002
0.000397328
0.000394558
0.000391718
0.000388811
0.000385841
0.000382814
0.000379735
0.000376607
0.000373434
0.000370223
0.000366975
0.000363696
0.00036039
0.00035706
0.000353711
0.000350345
0.000346967
0.00034358
0.000340187
0.000336791
0.000333395
0.000330002
0.000326615
0.000323237
0.000319869
0.000316515
0.000313175
0.000309853
0.00030655
0.000303267
0.000300007
0.00029677
0.000293558
0.000290373
0.000287214
0.000284083
0.000280981
0.000277908
0.000274865
0.000271852
0.000268869
0.000265917
0.000262995
0.000260103
0.000257242
0.00025441
0.000251608
0.000248835
0.00024609
0.000243373
0.000240683
0.000238019
0.000235381
0.000232767
0.000230177
0.000227609
0.000225063
0.000222537
0.000220031
0.000217543
0.000215072
0.000212616
0.000210176
0.000207749
0.000205334
0.00020293
0.000200536
0.00019815
0.000195772
0.000193399
0.000191032
0.000188669
0.000186308
0.000183948
0.000181589
0.00017923
0.000176869
0.000174504
0.000172135
0.000169759
0.000167377
0.000164987
0.000162586
0.000160174
0.000157748
0.0001553
0.000152836
0.000150356
0.000147859
0.000145341
0.000142804
0.000140243
0.000137657
0.000135045
0.000132403
0.000129729
0.000127019
0.000124269
0.000121475
0.000118632
0.000115733
0.000112774
0.000109746
0.000106638
0.000103442
0.000100141
9.67209e-05
9.31582e-05
8.94232e-05
8.54669e-05
8.12561e-05
7.67382e-05
7.18321e-05
6.64211e-05
6.03268e-05
5.32564e-05
4.46779e-05
3.34793e-05
1.71345e-05
5.59598e-07
1.00381e-05
8.75176e-05
0.000162267
0.000218144
0.000261473
0.000296522
0.000325958
0.000351472
0.000374129
0.000394635
0.00041347
0.000430968
0.000447373
0.000462857
0.000477547
0.000491543
0.000504921
0.000517742
0.000530055
0.0005419
0.000553309
0.000564307
0.000574916
0.000585154
0.000595036
0.000604574
0.000613779
0.000622658
0.00063122
0.000639469
0.000647413
0.000655053
0.000662396
0.000669443
0.000676198
0.000682662
0.000688839
0.00069473
0.000700337
0.000705661
0.000710705
0.00071547
0.000719958
0.00072417
0.000728108
0.000731775
0.000735171
0.0007383
0.000741163
0.000743763
0.000746102
0.000748182
0.000750007
0.000751579
0.000752902
0.000753978
0.000754811
0.000755404
0.00075576
0.000755881
0.000755772
0.000755434
0.000754869
0.000754085
0.00075309
0.000751889
0.000750488
0.000748893
0.000747109
0.000745142
0.000742997
0.00074068
0.000738196
0.000735551
0.000732751
0.000729801
0.000726708
0.000723476
0.000720113
0.000716623
0.000713013
0.000709288
0.000705454
0.000701518
0.000697483
0.000693358
0.000689146
0.000684853
0.000680485
0.000676048
0.000671547
0.000666986
0.000662371
0.000657708
0.000653
0.000648254
0.000643472
0.00063866
0.000633823
0.000628964
0.000624088
0.000619199
0.000614299
0.000609394
0.000604486
0.000599578
0.000594674
0.000589777
0.000584889
0.000580013
0.000575151
0.000570305
0.000565479
0.000560672
0.000555887
0.000551126
0.00054639
0.000541679
0.000536995
0.000532339
0.000527711
0.000523111
0.00051854
0.000513998
0.000509485
0.000505
0.000500544
0.000496116
0.000491715
0.00048734
0.000482991
0.000478667
0.000474366
0.000470088
0.000465831
0.000461593
0.000457374
0.000453172
0.000448986
0.000444813
0.000440651
0.000436501
0.000432358
0.000428223
0.000424092
0.000419964
0.000415838
0.000411711
0.000407581
0.000403446
0.000399305
0.000395156
0.000390996
0.000386824
0.000382639
0.000378438
0.000374217
0.000369975
0.000365709
0.000361417
0.000357096
0.000352744
0.000348358
0.000343933
0.000339465
0.000334945
0.000330377
0.000325758
0.000321086
0.000316358
0.000311569
0.000306715
0.00030179
0.000296788
0.000291703
0.000286528
0.000281251
0.000275865
0.000270357
0.000264712
0.000258916
0.000252948
0.000246787
0.000240406
0.000233774
0.000226852
0.000219591
0.00021193
0.000203789
0.00019506
0.000185609
0.000175288
0.000163863
0.000151003
0.000136209
0.000118702
9.7181e-05
6.9399e-05
3.23557e-05
1.17699e-06
1.00382e-05
8.752e-05
0.000162272
0.000218149
0.000261479
0.000296528
0.000325964
0.000351479
0.000374136
0.000394642
0.000413477
0.000430974
0.000447379
0.000462863
0.000477553
0.000491549
0.000504927
0.000517748
0.000530062
0.000541907
0.000553315
0.000564313
0.000574922
0.000585161
0.000595043
0.000604581
0.000613785
0.000622665
0.000631226
0.000639476
0.000647419
0.00065506
0.000662403
0.00066945
0.000676204
0.000682669
0.000688846
0.000694737
0.000700343
0.000705668
0.000710712
0.000715477
0.000719964
0.000724176
0.000728115
0.000731781
0.000735178
0.000738307
0.00074117
0.000743769
0.000746108
0.000748189
0.000750014
0.000751586
0.000752909
0.000753985
0.000754818
0.00075541
0.000755766
0.000755888
0.000755778
0.00075544
0.000754875
0.000754091
0.000753096
0.000751895
0.000750494
0.000748899
0.000747115
0.000745148
0.000743003
0.000740685
0.000738201
0.000735556
0.000732756
0.000729806
0.000726713
0.000723482
0.000720118
0.000716628
0.000713018
0.000709293
0.000705459
0.000701522
0.000697488
0.000693362
0.00068915
0.000684857
0.00068049
0.000676052
0.000671551
0.00066699
0.000662376
0.000657712
0.000653004
0.000648257
0.000643476
0.000638664
0.000633827
0.000628968
0.000624092
0.000619202
0.000614302
0.000609397
0.000604489
0.000599581
0.000594677
0.00058978
0.000584892
0.000580015
0.000575153
0.000570308
0.000565481
0.000560674
0.00055589
0.000551129
0.000546392
0.000541681
0.000536997
0.000532341
0.000527713
0.000523113
0.000518542
0.000514
0.000509486
0.000505002
0.000500546
0.000496117
0.000491716
0.000487341
0.000482992
0.000478668
0.000474367
0.000470089
0.000465832
0.000461594
0.000457375
0.000453173
0.000448987
0.000444813
0.000440652
0.000436502
0.000432359
0.000428224
0.000424093
0.000419965
0.000415839
0.000411711
0.000407581
0.000403447
0.000399305
0.000395156
0.000390996
0.000386825
0.00038264
0.000378438
0.000374218
0.000369975
0.000365709
0.000361417
0.000357096
0.000352744
0.000348358
0.000343933
0.000339465
0.000334946
0.000330377
0.000325758
0.000321087
0.000316358
0.000311569
0.000306715
0.00030179
0.000296788
0.000291703
0.000286528
0.000281251
0.000275865
0.000270357
0.000264713
0.000258916
0.000252948
0.000246787
0.000240406
0.000233774
0.000226852
0.000219591
0.00021193
0.000203789
0.00019506
0.000185609
0.000175288
0.000163863
0.000151003
0.000136209
0.000118702
9.71811e-05
6.93991e-05
3.23555e-05
1.177e-06
1.44255e-05
0.000111825
0.00021525
0.00029871
0.000365932
0.000421257
0.000467979
0.000508367
0.000543981
0.000575908
0.000604925
0.000631591
0.000656322
0.000679426
0.000701136
0.000721634
0.000741062
0.000759534
0.000777142
0.000793961
0.000810052
0.000825467
0.000840248
0.000854431
0.000868047
0.000881121
0.000893677
0.000905733
0.000917307
0.000928412
0.000939062
0.000949269
0.000959042
0.00096839
0.000977322
0.000985845
0.000993966
0.00100169
0.00100903
0.00101598
0.00102255
0.00102875
0.00103458
0.00104004
0.00104514
0.00104989
0.00105429
0.00105834
0.00106205
0.00106542
0.00106846
0.00107116
0.00107355
0.00107561
0.00107736
0.0010788
0.00107993
0.00108076
0.00108129
0.00108153
0.00108148
0.00108115
0.00108053
0.00107964
0.00107848
0.00107707
0.0010754
0.0010735
0.00107135
0.00106897
0.00106637
0.00106356
0.00106053
0.0010573
0.00105387
0.00105025
0.00104645
0.00104247
0.00103832
0.001034
0.00102953
0.00102491
0.00102014
0.00101524
0.00101021
0.00100505
0.000999779
0.000994395
0.000988907
0.000983321
0.000977643
0.00097188
0.000966038
0.000960123
0.00095414
0.000948095
0.000941994
0.000935843
0.000929646
0.000923409
0.000917137
0.000910834
0.000904506
0.000898156
0.000891789
0.00088541
0.000879021
0.000872627
0.000866231
0.000859836
0.000853446
0.000847063
0.000840689
0.000834328
0.000827982
0.000821651
0.000815339
0.000809046
0.000802774
0.000796524
0.000790296
0.000784092
0.000777912
0.000771755
0.000765623
0.000759514
0.000753429
0.000747367
0.000741327
0.000735308
0.00072931
0.000723331
0.000717369
0.000711424
0.000705494
0.000699577
0.000693671
0.000687774
0.000681885
0.000676001
0.00067012
0.00066424
0.000658358
0.000652473
0.000646581
0.000640681
0.00063477
0.000628845
0.000622904
0.000616944
0.000610963
0.000604958
0.000598927
0.000592866
0.000586774
0.000580645
0.000574477
0.000568266
0.000562008
0.0005557
0.000549339
0.000542919
0.000536436
0.000529885
0.000523258
0.000516548
0.000509751
0.000502866
0.000495886
0.000488805
0.000481616
0.000474311
0.00046688
0.000459312
0.000451596
0.000443716
0.000435658
0.000427403
0.00041893
0.000410213
0.000401224
0.000391929
0.000382287
0.00037225
0.000361761
0.000350751
0.000339132
0.000326798
0.000313612
0.0002994
0.000283936
0.000266946
0.00024805
0.000226717
0.000202192
0.000173369
0.000138603
9.55574e-05
4.27259e-05
1.79389e-06
1.44256e-05
0.000111827
0.000215255
0.000298717
0.00036594
0.000421266
0.000467988
0.000508376
0.00054399
0.000575917
0.000604934
0.0006316
0.000656331
0.000679435
0.000701145
0.000721642
0.00074107
0.000759542
0.00077715
0.000793969
0.00081006
0.000825475
0.000840256
0.000854439
0.000868055
0.00088113
0.000893686
0.000905742
0.000917315
0.000928421
0.000939071
0.000949277
0.00095905
0.000968398
0.00097733
0.000985853
0.000993974
0.0010017
0.00100903
0.00101599
0.00102256
0.00102876
0.00103458
0.00104005
0.00104515
0.0010499
0.0010543
0.00105835
0.00106206
0.00106543
0.00106846
0.00107117
0.00107356
0.00107562
0.00107737
0.00107881
0.00107994
0.00108077
0.0010813
0.00108154
0.00108149
0.00108115
0.00108054
0.00107965
0.00107849
0.00107707
0.00107541
0.0010735
0.00107136
0.00106898
0.00106638
0.00106356
0.00106054
0.0010573
0.00105388
0.00105026
0.00104645
0.00104247
0.00103832
0.00103401
0.00102954
0.00102491
0.00102015
0.00101525
0.00101021
0.00100506
0.000999783
0.000994399
0.000988911
0.000983325
0.000977647
0.000971884
0.000966042
0.000960126
0.000954143
0.000948099
0.000941998
0.000935846
0.000929649
0.000923412
0.00091714
0.000910837
0.000904508
0.000898159
0.000891792
0.000885412
0.000879023
0.000872629
0.000866233
0.000859838
0.000853448
0.000847065
0.000840691
0.00083433
0.000827983
0.000821653
0.00081534
0.000809048
0.000802775
0.000796525
0.000790298
0.000784093
0.000777913
0.000771756
0.000765624
0.000759515
0.00075343
0.000747368
0.000741327
0.000735309
0.00072931
0.000723331
0.00071737
0.000711425
0.000705494
0.000699577
0.000693671
0.000687774
0.000681885
0.000676001
0.00067012
0.00066424
0.000658358
0.000652473
0.000646581
0.000640681
0.00063477
0.000628845
0.000622904
0.000616944
0.000610963
0.000604958
0.000598926
0.000592866
0.000586773
0.000580645
0.000574477
0.000568265
0.000562008
0.0005557
0.000549338
0.000542918
0.000536436
0.000529884
0.000523257
0.000516547
0.000509751
0.000502865
0.000495885
0.000488804
0.000481616
0.00047431
0.000466879
0.000459311
0.000451595
0.000443716
0.000435658
0.000427402
0.000418929
0.000410212
0.000401223
0.000391928
0.000382286
0.000372249
0.000361761
0.00035075
0.000339132
0.000326798
0.000313612
0.000299399
0.000283935
0.000266945
0.00024805
0.000226717
0.000202192
0.000173369
0.000138603
9.55574e-05
4.27256e-05
1.7939e-06
1.86546e-05
0.00013136
0.000257003
0.000363736
0.000452593
0.000527332
0.000591232
0.000646785
0.000695834
0.000739737
0.000779502
0.000815883
0.000849451
0.000880643
0.000909798
0.00093718
0.000963003
0.000987434
0.00101061
0.00103265
0.00105364
0.00107367
0.0010928
0.00111108
0.00112856
0.00114529
0.0011613
0.00117662
0.00119127
0.0012053
0.0012187
0.00123152
0.00124375
0.00125542
0.00126654
0.00127713
0.0012872
0.00129675
0.0013058
0.00131436
0.00132244
0.00133005
0.00133719
0.00134388
0.00135011
0.00135591
0.00136127
0.0013662
0.00137072
0.00137482
0.00137851
0.00138181
0.00138471
0.00138723
0.00138936
0.00139113
0.00139252
0.00139356
0.00139424
0.00139457
0.00139455
0.0013942
0.00139351
0.0013925
0.00139117
0.00138954
0.00138761
0.00138539
0.00138289
0.00138011
0.00137706
0.00137376
0.00137021
0.00136641
0.00136238
0.00135812
0.00135364
0.00134894
0.00134404
0.00133894
0.00133365
0.00132818
0.00132254
0.00131672
0.00131075
0.00130462
0.00129835
0.00129194
0.0012854
0.00127874
0.00127196
0.00126507
0.00125808
0.001251
0.00124382
0.00123656
0.00122923
0.00122183
0.00121436
0.00120684
0.00119926
0.00119164
0.00118398
0.00117628
0.00116855
0.00116079
0.00115302
0.00114522
0.00113741
0.0011296
0.00112178
0.00111395
0.00110613
0.00109831
0.00109049
0.00108269
0.00107489
0.00106711
0.00105934
0.00105158
0.00104384
0.00103612
0.00102842
0.00102073
0.00101306
0.0010054
0.000997767
0.000990146
0.00098254
0.000974948
0.000967369
0.000959802
0.000952244
0.000944695
0.000937152
0.000929612
0.000922075
0.000914537
0.000906996
0.00089945
0.000891896
0.000884331
0.000876752
0.000869157
0.000861543
0.000853906
0.000846244
0.000838553
0.00083083
0.000823072
0.000815276
0.000807439
0.000799556
0.000791625
0.000783641
0.000775599
0.000767496
0.000759325
0.000751084
0.000742766
0.000734366
0.000725879
0.000717298
0.000708616
0.000699824
0.000690915
0.000681878
0.000672712
0.000663405
0.00065395
0.000644334
0.000634545
0.000624569
0.00061439
0.00060399
0.000593347
0.000582439
0.000571237
0.00055971
0.000547821
0.000535527
0.000522778
0.000509515
0.000495666
0.000481148
0.000465858
0.000449674
0.000432442
0.000413972
0.000394025
0.000372301
0.000348411
0.000321866
0.000291994
0.000257885
0.0002183
0.000171564
0.000115698
5.0764e-05
2.39718e-06
1.86548e-05
0.000131363
0.000257009
0.000363744
0.000452602
0.000527342
0.000591243
0.000646797
0.000695846
0.000739749
0.000779514
0.000815895
0.000849462
0.000880654
0.000909809
0.000937192
0.000963014
0.000987445
0.00101062
0.00103266
0.00105366
0.00107368
0.00109281
0.00111109
0.00112857
0.0011453
0.00116131
0.00117663
0.00119128
0.00120531
0.00121871
0.00123153
0.00124376
0.00125543
0.00126655
0.00127714
0.00128721
0.00129676
0.00130581
0.00131437
0.00132245
0.00133006
0.0013372
0.00134389
0.00135012
0.00135592
0.00136128
0.00136621
0.00137072
0.00137483
0.00137852
0.00138182
0.00138472
0.00138724
0.00138937
0.00139114
0.00139253
0.00139357
0.00139424
0.00139457
0.00139456
0.00139421
0.00139352
0.00139251
0.00139118
0.00138955
0.00138762
0.0013854
0.00138289
0.00138011
0.00137707
0.00137377
0.00137022
0.00136642
0.00136239
0.00135812
0.00135364
0.00134895
0.00134405
0.00133895
0.00133366
0.00132819
0.00132254
0.00131673
0.00131076
0.00130463
0.00129836
0.00129195
0.00128541
0.00127874
0.00127197
0.00126508
0.00125809
0.001251
0.00124382
0.00123657
0.00122923
0.00122183
0.00121436
0.00120684
0.00119926
0.00119164
0.00118398
0.00117628
0.00116855
0.00116079
0.00115302
0.00114522
0.00113742
0.0011296
0.00112178
0.00111395
0.00110613
0.00109831
0.0010905
0.00108269
0.00107489
0.00106711
0.00105934
0.00105158
0.00104385
0.00103612
0.00102842
0.00102073
0.00101306
0.0010054
0.000997767
0.000990146
0.00098254
0.000974949
0.00096737
0.000959802
0.000952245
0.000944695
0.000937152
0.000929612
0.000922075
0.000914537
0.000906996
0.00089945
0.000891896
0.000884331
0.000876752
0.000869157
0.000861543
0.000853906
0.000846243
0.000838552
0.00083083
0.000823072
0.000815276
0.000807438
0.000799555
0.000791624
0.00078364
0.000775599
0.000767495
0.000759324
0.000751083
0.000742765
0.000734365
0.000725878
0.000717297
0.000708615
0.000699823
0.000690914
0.000681877
0.000672711
0.000663404
0.000653948
0.000644333
0.000634544
0.000624568
0.000614389
0.000603989
0.000593346
0.000582438
0.000571236
0.000559709
0.00054782
0.000535526
0.000522777
0.000509514
0.000495665
0.000481147
0.000465858
0.000449673
0.000432441
0.000413971
0.000394025
0.0003723
0.000348411
0.000321866
0.000291994
0.000257886
0.0002183
0.000171564
0.000115698
5.07638e-05
2.39719e-06
2.28029e-05
0.000148029
0.000291576
0.000417987
0.000526001
0.000618544
0.00069864
0.000768805
0.000831011
0.000886783
0.000937293
0.000983446
0.00102594
0.00106533
0.00110204
0.00113641
0.00116873
0.00119922
0.00122805
0.00125539
0.00128136
0.00130606
0.00132958
0.001352
0.00137339
0.0013938
0.00141329
0.00143189
0.00144965
0.0014666
0.00148277
0.00149818
0.00151287
0.00152685
0.00154015
0.00155279
0.00156478
0.00157613
0.00158688
0.00159702
0.00160657
0.00161555
0.00162397
0.00163184
0.00163917
0.00164597
0.00165226
0.00165803
0.00166331
0.00166811
0.00167242
0.00167626
0.00167965
0.00168258
0.00168506
0.00168712
0.00168874
0.00168995
0.00169074
0.00169113
0.00169113
0.00169074
0.00168996
0.00168881
0.0016873
0.00168544
0.00168323
0.00168069
0.00167783
0.00167465
0.00167117
0.00166739
0.00166332
0.00165897
0.00165435
0.00164946
0.00164432
0.00163894
0.00163332
0.00162747
0.0016214
0.00161511
0.00160863
0.00160195
0.00159508
0.00158803
0.00158081
0.00157343
0.0015659
0.00155822
0.0015504
0.00154245
0.00153438
0.00152619
0.0015179
0.0015095
0.00150101
0.00149244
0.00148378
0.00147505
0.00146626
0.0014574
0.00144849
0.00143953
0.00143053
0.00142149
0.00141241
0.00140331
0.00139419
0.00138504
0.00137588
0.00136671
0.00135754
0.00134835
0.00133917
0.00132998
0.0013208
0.00131162
0.00130245
0.00129329
0.00128413
0.00127499
0.00126585
0.00125673
0.00124761
0.00123851
0.00122941
0.00122032
0.00121124
0.00120217
0.0011931
0.00118403
0.00117497
0.0011659
0.00115683
0.00114775
0.00113867
0.00112957
0.00112046
0.00111134
0.00110219
0.00109302
0.00108382
0.0010746
0.00106533
0.00105604
0.0010467
0.00103731
0.00102788
0.00101839
0.00100885
0.000999252
0.000989585
0.000979849
0.000970039
0.000960148
0.000950171
0.000940103
0.000929937
0.000919667
0.000909287
0.000898789
0.000888164
0.000877405
0.0008665
0.000855439
0.000844212
0.00083281
0.000821221
0.000809431
0.000797427
0.00078519
0.000772702
0.00075994
0.000746881
0.000733496
0.000719754
0.000705617
0.000691043
0.000675984
0.000660382
0.00064417
0.000627272
0.000609593
0.000591025
0.000571435
0.000550665
0.000528519
0.000504763
0.000479102
0.00045117
0.000420504
0.000386526
0.000348484
0.0003054
0.000256013
0.000198773
0.000132155
5.7492e-05
2.99116e-06
2.28031e-05
0.000148032
0.000291582
0.000417995
0.000526011
0.000618555
0.000698653
0.000768818
0.000831025
0.000886797
0.000937307
0.00098346
0.00102595
0.00106534
0.00110205
0.00113643
0.00116875
0.00119923
0.00122807
0.0012554
0.00128137
0.00130607
0.00132959
0.00135201
0.0013734
0.00139382
0.0014133
0.0014319
0.00144966
0.00146661
0.00148278
0.00149819
0.00151288
0.00152686
0.00154016
0.0015528
0.00156479
0.00157614
0.00158689
0.00159703
0.00160658
0.00161556
0.00162398
0.00163185
0.00163918
0.00164598
0.00165227
0.00165804
0.00166332
0.00166812
0.00167243
0.00167627
0.00167965
0.00168259
0.00168507
0.00168713
0.00168875
0.00168996
0.00169075
0.00169114
0.00169114
0.00169074
0.00168997
0.00168882
0.00168731
0.00168545
0.00168324
0.0016807
0.00167784
0.00167466
0.00167118
0.00166739
0.00166332
0.00165897
0.00165435
0.00164947
0.00164433
0.00163895
0.00163332
0.00162747
0.0016214
0.00161512
0.00160863
0.00160195
0.00159508
0.00158804
0.00158082
0.00157344
0.0015659
0.00155822
0.00155041
0.00154246
0.00153438
0.0015262
0.0015179
0.00150951
0.00150102
0.00149244
0.00148378
0.00147505
0.00146626
0.0014574
0.00144849
0.00143953
0.00143053
0.00142149
0.00141242
0.00140331
0.00139419
0.00138505
0.00137589
0.00136672
0.00135754
0.00134835
0.00133917
0.00132998
0.0013208
0.00131162
0.00130245
0.00129329
0.00128413
0.00127499
0.00126585
0.00125673
0.00124761
0.00123851
0.00122941
0.00122032
0.00121124
0.00120217
0.0011931
0.00118403
0.00117497
0.0011659
0.00115683
0.00114775
0.00113867
0.00112957
0.00112046
0.00111134
0.00110219
0.00109302
0.00108382
0.0010746
0.00106533
0.00105604
0.0010467
0.00103731
0.00102788
0.00101839
0.00100885
0.000999251
0.000989585
0.000979849
0.000970038
0.000960147
0.00095017
0.000940102
0.000929936
0.000919667
0.000909286
0.000898788
0.000888164
0.000877404
0.000866499
0.000855438
0.000844211
0.000832809
0.00082122
0.00080943
0.000797426
0.000785189
0.000772701
0.000759939
0.00074688
0.000733495
0.000719753
0.000705616
0.000691042
0.000675983
0.000660381
0.000644169
0.000627271
0.000609592
0.000591024
0.000571434
0.000550664
0.000528519
0.000504763
0.000479102
0.00045117
0.000420503
0.000386526
0.000348484
0.0003054
0.000256014
0.000198773
0.000132155
5.74917e-05
2.99117e-06
2.68891e-05
0.000162751
0.000321362
0.000464644
0.000589553
0.000698178
0.000793211
0.000877081
0.000951801
0.00101899
0.00107992
0.00113561
0.00118686
0.00123432
0.00127849
0.00131979
0.00135855
0.00139504
0.0014295
0.0014621
0.00149301
0.00152235
0.00155024
0.00157678
0.00160205
0.00162613
0.00164907
0.00167093
0.00169176
0.0017116
0.0017305
0.00174849
0.00176561
0.00178187
0.00179732
0.00181197
0.00182584
0.00183897
0.00185137
0.00186306
0.00187405
0.00188437
0.00189403
0.00190304
0.00191143
0.0019192
0.00192637
0.00193295
0.00193896
0.0019444
0.0019493
0.00195365
0.00195748
0.00196079
0.00196359
0.0019659
0.00196773
0.00196907
0.00196996
0.00197039
0.00197037
0.00196991
0.00196903
0.00196772
0.00196601
0.00196391
0.00196142
0.00195855
0.00195532
0.00195174
0.00194782
0.00194356
0.00193898
0.00193408
0.00192888
0.00192338
0.0019176
0.00191155
0.00190522
0.00189864
0.00189182
0.00188475
0.00187745
0.00186994
0.00186221
0.00185428
0.00184616
0.00183785
0.00182937
0.00182072
0.00181191
0.00180295
0.00179385
0.00178462
0.00177527
0.00176579
0.00175621
0.00174653
0.00173675
0.00172688
0.00171694
0.00170692
0.00169683
0.00168669
0.00167649
0.00166624
0.00165595
0.00164563
0.00163527
0.00162488
0.00161447
0.00160404
0.00159359
0.00158313
0.00157266
0.00156219
0.00155171
0.00154122
0.00153074
0.00152026
0.00150978
0.00149931
0.00148883
0.00147836
0.0014679