/*--------------------------------*- C++ -*----------------------------------*\
  =========                 |
  \\      /  F ield         | OpenFOAM: The Open Source CFD Toolbox
   \\    /   O peration     | Website:  https://openfoam.org
    \\  /    A nd           | Version:  8
     \\/     M anipulation  |
\*---------------------------------------------------------------------------*/
FoamFile
{
    version     2.0;
    format      ascii;
    class       surfaceScalarField;
    location    "3800";
    object      phi;
}
// * * * * * * * * * * * * * * * * * * * * * * * * * * * * * * * * * * * * * //

dimensions      [1 0 -1 0 0 0 0];

internalField   nonuniform List<scalar> 
114370
(
6.36873e-10
-1.07713e-14
-6.36862e-10
1.62435e-09
7.78168e-14
-9.88057e-10
2.47119e-09
6.10944e-14
-8.46711e-10
2.98762e-09
2.68569e-14
-5.16401e-10
3.16894e-09
5.67071e-15
-1.81336e-10
3.0583e-09
-2.58843e-15
1.10636e-10
2.7088e-09
-3.89555e-15
3.49501e-10
2.16973e-09
-2.85857e-15
5.39075e-10
1.48213e-09
-1.63896e-15
6.87617e-10
6.78709e-10
-7.02309e-16
8.03437e-10
-2.14316e-10
2.77682e-18
8.93049e-10
-1.17537e-09
4.63603e-16
9.61084e-10
-2.18731e-09
7.19529e-16
1.01197e-09
-3.23703e-09
8.95341e-16
1.04975e-09
-4.31393e-09
1.06671e-15
1.07694e-09
-5.40943e-09
1.22031e-15
1.09553e-09
-6.51647e-09
1.33326e-15
1.10708e-09
-7.62922e-09
1.41683e-15
1.11278e-09
-8.74279e-09
1.49682e-15
1.1136e-09
-9.85307e-09
1.58332e-15
1.11032e-09
-1.09566e-08
1.66288e-15
1.10355e-09
-1.20503e-08
1.71155e-15
1.09379e-09
-1.31318e-08
1.715e-15
1.08145e-09
-1.41986e-08
1.6739e-15
1.06688e-09
-1.5249e-08
1.60287e-15
1.05035e-09
-1.6281e-08
1.51938e-15
1.03209e-09
-1.72933e-08
1.43859e-15
1.01229e-09
-1.82844e-08
1.36985e-15
9.91129e-10
-1.92531e-08
1.31704e-15
9.68742e-10
-2.01984e-08
1.2806e-15
9.45252e-10
-2.11191e-08
1.25777e-15
9.20766e-10
-2.20145e-08
1.2473e-15
8.95378e-10
-2.28837e-08
1.24789e-15
8.69172e-10
-2.37259e-08
1.25759e-15
8.42223e-10
-2.45405e-08
1.27548e-15
8.14599e-10
-2.53269e-08
1.30035e-15
7.86365e-10
-2.60844e-08
1.32778e-15
7.57579e-10
-2.68127e-08
1.35342e-15
7.28297e-10
-2.75113e-08
1.37206e-15
6.9857e-10
-2.81798e-08
1.3778e-15
6.68451e-10
-2.88178e-08
1.36859e-15
6.37987e-10
-2.9425e-08
1.34375e-15
6.07225e-10
-3.00012e-08
1.30651e-15
5.76211e-10
-3.05462e-08
1.26119e-15
5.4499e-10
-3.10598e-08
1.21288e-15
5.13605e-10
-3.1542e-08
1.16702e-15
4.82102e-10
-3.19925e-08
1.12679e-15
4.50522e-10
-3.24114e-08
1.09318e-15
4.18907e-10
-3.27988e-08
1.06618e-15
3.87299e-10
-3.31545e-08
1.04347e-15
3.5574e-10
-3.34788e-08
1.02303e-15
3.2427e-10
-3.37718e-08
1.00199e-15
2.9293e-10
-3.40336e-08
9.78625e-16
2.61759e-10
-3.42644e-08
9.5206e-16
2.30796e-10
-3.44645e-08
9.21322e-16
2.00081e-10
-3.46342e-08
8.87168e-16
1.69651e-10
-3.47737e-08
8.51605e-16
1.39544e-10
-3.48836e-08
8.15716e-16
1.09796e-10
-3.4964e-08
7.81725e-16
8.04435e-11
-3.50156e-08
7.50607e-16
5.15173e-11
-3.50387e-08
7.23013e-16
2.30468e-11
-3.50338e-08
6.99918e-16
-4.93773e-12
-3.50014e-08
6.79805e-16
-3.24024e-11
-3.49421e-08
6.61589e-16
-5.93199e-11
-3.48565e-08
6.44891e-16
-8.56703e-11
-3.47451e-08
6.29061e-16
-1.1143e-10
-3.46085e-08
6.1426e-16
-1.36573e-10
-3.44475e-08
6.00327e-16
-1.61073e-10
-3.42626e-08
5.87857e-16
-1.84907e-10
-3.40546e-08
5.77123e-16
-2.08052e-10
-3.38242e-08
5.68231e-16
-2.30491e-10
-3.3572e-08
5.60369e-16
-2.52204e-10
-3.32989e-08
5.537e-16
-2.73176e-10
-3.30055e-08
5.4779e-16
-2.93394e-10
-3.26927e-08
5.42801e-16
-3.12844e-10
-3.23612e-08
5.37813e-16
-3.31517e-10
-3.20118e-08
5.33854e-16
-3.49403e-10
-3.16454e-08
5.30601e-16
-3.66496e-10
-3.12626e-08
5.28594e-16
-3.82788e-10
-3.08644e-08
5.28321e-16
-3.98277e-10
-3.04515e-08
5.29675e-16
-4.1296e-10
-3.00247e-08
5.32927e-16
-4.26836e-10
-2.95848e-08
5.38184e-16
-4.39905e-10
-2.91327e-08
5.44633e-16
-4.5217e-10
-2.86691e-08
5.52493e-16
-4.63634e-10
-2.81949e-08
5.61816e-16
-4.74302e-10
-2.77107e-08
5.71193e-16
-4.84181e-10
-2.72175e-08
5.80732e-16
-4.93278e-10
-2.67159e-08
5.90977e-16
-5.01602e-10
-2.62068e-08
6.00896e-16
-5.09163e-10
-2.56909e-08
6.10707e-16
-5.15973e-10
-2.51689e-08
6.20084e-16
-5.22045e-10
-2.46416e-08
6.29082e-16
-5.27391e-10
-2.41096e-08
6.37321e-16
-5.32026e-10
-2.35737e-08
6.45234e-16
-5.35966e-10
-2.30345e-08
6.52877e-16
-5.39226e-10
-2.24927e-08
6.60032e-16
-5.41824e-10
-2.1949e-08
6.66265e-16
-5.43778e-10
-2.1404e-08
6.72227e-16
-5.45106e-10
-2.08582e-08
6.78189e-16
-5.45826e-10
-2.03123e-08
6.83501e-16
-5.45959e-10
-1.97668e-08
6.88921e-16
-5.45524e-10
-1.92223e-08
6.93474e-16
-5.44541e-10
-1.86794e-08
6.97918e-16
-5.4303e-10
-1.81384e-08
7.0258e-16
-5.41013e-10
-1.76e-08
7.06807e-16
-5.3851e-10
-1.70645e-08
7.11361e-16
-5.35542e-10
-1.65324e-08
7.15588e-16
-5.32129e-10
-1.60042e-08
7.19708e-16
-5.28292e-10
-1.54802e-08
7.24153e-16
-5.24051e-10
-1.49609e-08
7.28164e-16
-5.19426e-10
-1.44465e-08
7.3185e-16
-5.14437e-10
-1.39375e-08
7.35536e-16
-5.09104e-10
-1.34341e-08
7.39005e-16
-5.03444e-10
-1.29367e-08
7.42258e-16
-4.97477e-10
-1.24455e-08
7.45077e-16
-4.9122e-10
-1.19609e-08
7.46811e-16
-4.8469e-10
-1.14831e-08
7.48221e-16
-4.77902e-10
-1.10123e-08
7.48004e-16
-4.70874e-10
-1.05488e-08
7.47028e-16
-4.63618e-10
-1.00927e-08
7.45727e-16
-4.5615e-10
-9.64428e-09
7.42692e-16
-4.48481e-10
-9.20373e-09
7.39114e-16
-4.40624e-10
-8.77122e-09
7.34452e-16
-4.32591e-10
-8.34692e-09
7.28814e-16
-4.24389e-10
-7.93097e-09
7.23176e-16
-4.1603e-10
-7.52353e-09
7.16021e-16
-4.07521e-10
-7.12474e-09
7.07889e-16
-3.98869e-10
-6.73475e-09
6.99757e-16
-3.9008e-10
-6.35368e-09
6.91083e-16
-3.81159e-10
-5.98165e-09
6.81759e-16
-3.72111e-10
-5.6188e-09
6.72434e-16
-3.62939e-10
-5.26524e-09
6.62242e-16
-3.53646e-10
-4.92109e-09
6.52591e-16
-3.44234e-10
-4.58648e-09
6.42399e-16
-3.34702e-10
-4.26151e-09
6.32856e-16
-3.25053e-10
-3.94632e-09
6.22446e-16
-3.15286e-10
-3.64101e-09
6.1312e-16
-3.05401e-10
-3.3457e-09
6.03468e-16
-2.95396e-10
-3.06052e-09
5.95008e-16
-2.85271e-10
-2.78559e-09
5.86982e-16
-2.75024e-10
-2.52102e-09
5.77437e-16
-2.64654e-10
-2.26696e-09
5.68976e-16
-2.54161e-10
-2.0235e-09
5.60298e-16
-2.43543e-10
-1.7908e-09
5.52486e-16
-2.32801e-10
-1.56895e-09
5.44891e-16
-2.21935e-10
-1.3581e-09
5.37294e-16
-2.10946e-10
-1.15836e-09
5.29697e-16
-1.99837e-10
-9.6984e-10
5.221e-16
-1.8861e-10
-7.92662e-10
5.14284e-16
-1.77271e-10
-6.2693e-10
5.06468e-16
-1.65827e-10
-4.72739e-10
4.99952e-16
-1.54285e-10
-3.30175e-10
4.93001e-16
-1.42657e-10
-1.9931e-10
4.84964e-16
-1.30959e-10
-8.01921e-11
4.78661e-16
-1.19212e-10
2.71355e-11
4.71707e-16
-1.07422e-10
1.22627e-10
4.62368e-16
-9.55854e-11
2.06266e-10
4.55196e-16
-8.3733e-11
2.78068e-10
4.50407e-16
-7.18967e-11
3.38079e-10
4.46702e-16
-6.01042e-11
3.86371e-10
4.44946e-16
-4.8386e-11
4.23052e-10
4.46876e-16
-3.67755e-11
4.48268e-10
4.5184e-16
-2.53092e-11
4.62201e-10
4.59621e-16
-1.40275e-11
4.65081e-10
4.70652e-16
-2.97455e-12
4.57179e-10
4.86006e-16
7.80745e-12
4.38813e-10
5.05273e-16
1.82715e-11
4.10355e-10
5.24756e-16
2.83619e-11
3.72238e-10
5.4272e-16
3.80209e-11
3.24953e-10
5.58297e-16
4.71875e-11
2.69059e-10
5.69535e-16
5.57961e-11
2.05182e-10
5.74917e-16
6.37778e-11
1.34022e-10
5.74659e-16
7.10593e-11
5.63575e-11
5.73533e-16
7.75626e-11
-2.69502e-11
5.72188e-16
8.32044e-11
-1.14941e-10
5.77997e-16
8.78865e-11
-2.06562e-10
5.99638e-16
9.15145e-11
-3.00663e-10
6.40578e-16
9.39941e-11
-3.96e-10
7.03419e-16
9.52275e-11
-4.91211e-10
7.81004e-16
9.51005e-11
-5.84807e-10
8.70083e-16
9.34824e-11
-6.75169e-10
9.56994e-16
9.02463e-11
-7.60536e-10
1.03784e-15
8.52483e-11
-8.38992e-10
1.11629e-15
7.83333e-11
-9.08452e-10
1.2043e-15
6.93354e-11
-9.66657e-10
1.31789e-15
5.80758e-11
-1.01116e-09
1.46401e-15
4.43678e-11
-1.03932e-09
1.6379e-15
2.80212e-11
-1.04832e-09
1.82177e-15
8.85815e-12
-1.03522e-09
2.0044e-15
-1.32411e-11
-9.97083e-10
2.1909e-15
-3.82945e-11
-9.31098e-10
2.4043e-15
-6.61465e-11
-8.35006e-10
2.66457e-15
-9.62631e-11
-7.07812e-10
2.96001e-15
-1.27373e-10
-5.51178e-10
3.27719e-15
-1.56827e-10
-3.71969e-10
3.66036e-15
-1.79416e-10
-1.86834e-10
4.20366e-15
-1.85362e-10
-3.01606e-11
4.86375e-15
-1.56928e-10
4.12717e-11
6.16932e-15
-7.17292e-11
4.2614e-15
4.09251e-11
6.37247e-10
-6.3729e-10
1.62434e-09
-9.88397e-10
2.47108e-09
-8.46877e-10
2.98755e-09
-5.16469e-10
3.16891e-09
-1.8136e-10
3.05828e-09
1.10629e-10
2.70879e-09
3.495e-10
2.16972e-09
5.39075e-10
1.48212e-09
6.87618e-10
6.787e-10
8.03437e-10
-2.14323e-10
8.93049e-10
-1.17538e-09
9.61083e-10
-2.18732e-09
1.01197e-09
-3.23703e-09
1.04975e-09
-4.31393e-09
1.07694e-09
-5.40943e-09
1.09554e-09
-6.51647e-09
1.10708e-09
-7.62921e-09
1.11278e-09
-8.74277e-09
1.1136e-09
-9.85306e-09
1.11032e-09
-1.09566e-08
1.10355e-09
-1.20503e-08
1.09379e-09
-1.31318e-08
1.08146e-09
-1.41986e-08
1.06688e-09
-1.52489e-08
1.05035e-09
-1.6281e-08
1.03209e-09
-1.72933e-08
1.01229e-09
-1.82844e-08
9.91129e-10
-1.92531e-08
9.68742e-10
-2.01984e-08
9.45252e-10
-2.11191e-08
9.20766e-10
-2.20145e-08
8.95378e-10
-2.28836e-08
8.69171e-10
-2.37259e-08
8.42222e-10
-2.45404e-08
8.14598e-10
-2.53268e-08
7.86364e-10
-2.60844e-08
7.57578e-10
-2.68127e-08
7.28295e-10
-2.75113e-08
6.98569e-10
-2.81797e-08
6.68449e-10
-2.88177e-08
6.37985e-10
-2.94249e-08
6.07223e-10
-3.00012e-08
5.76208e-10
-3.05462e-08
5.44987e-10
-3.10598e-08
5.13603e-10
-3.15419e-08
4.82099e-10
-3.19924e-08
4.50518e-10
-3.24114e-08
4.18903e-10
-3.27987e-08
3.87295e-10
-3.31545e-08
3.55736e-10
-3.34788e-08
3.24266e-10
-3.37717e-08
2.92926e-10
-3.40335e-08
2.61755e-10
-3.42643e-08
2.30792e-10
-3.44644e-08
2.00077e-10
-3.46341e-08
1.69647e-10
-3.47737e-08
1.3954e-10
-3.48835e-08
1.09792e-10
-3.4964e-08
8.0439e-11
-3.50155e-08
5.15127e-11
-3.50386e-08
2.30422e-11
-3.50337e-08
-4.94235e-12
-3.50013e-08
-3.2407e-11
-3.49421e-08
-5.93245e-11
-3.48564e-08
-8.5675e-11
-3.4745e-08
-1.11435e-10
-3.46085e-08
-1.36578e-10
-3.44474e-08
-1.61078e-10
-3.42626e-08
-1.84912e-10
-3.40546e-08
-2.08057e-10
-3.38241e-08
-2.30496e-10
-3.35719e-08
-2.52209e-10
-3.32988e-08
-2.73181e-10
-3.30054e-08
-2.93399e-10
-3.26926e-08
-3.1285e-10
-3.23612e-08
-3.31523e-10
-3.20118e-08
-3.49409e-10
-3.16453e-08
-3.66501e-10
-3.12626e-08
-3.82794e-10
-3.08644e-08
-3.98283e-10
-3.04514e-08
-4.12966e-10
-3.00246e-08
-4.26841e-10
-2.95848e-08
-4.39911e-10
-2.91327e-08
-4.52176e-10
-2.86691e-08
-4.6364e-10
-2.81948e-08
-4.74308e-10
-2.77107e-08
-4.84187e-10
-2.72174e-08
-4.93284e-10
-2.67159e-08
-5.01608e-10
-2.62068e-08
-5.0917e-10
-2.56908e-08
-5.1598e-10
-2.51689e-08
-5.22052e-10
-2.46415e-08
-5.27398e-10
-2.41095e-08
-5.32033e-10
-2.35736e-08
-5.35973e-10
-2.30345e-08
-5.39233e-10
-2.24927e-08
-5.41832e-10
-2.1949e-08
-5.43785e-10
-2.14039e-08
-5.45113e-10
-2.08581e-08
-5.45834e-10
-2.03122e-08
-5.45967e-10
-1.97668e-08
-5.45532e-10
-1.92223e-08
-5.44549e-10
-1.86793e-08
-5.43039e-10
-1.81384e-08
-5.41022e-10
-1.75999e-08
-5.38519e-10
-1.70645e-08
-5.35551e-10
-1.65324e-08
-5.32138e-10
-1.60042e-08
-5.28301e-10
-1.54802e-08
-5.2406e-10
-1.49608e-08
-5.19435e-10
-1.44465e-08
-5.14447e-10
-1.39374e-08
-5.09113e-10
-1.34341e-08
-5.03454e-10
-1.29367e-08
-4.97487e-10
-1.24455e-08
-4.9123e-10
-1.19609e-08
-4.84699e-10
-1.14831e-08
-4.77912e-10
-1.10123e-08
-4.70884e-10
-1.05487e-08
-4.63628e-10
-1.00927e-08
-4.5616e-10
-9.64425e-09
-4.48492e-10
-9.20371e-09
-4.40635e-10
-8.7712e-09
-4.32601e-10
-8.34689e-09
-4.244e-10
-7.93094e-09
-4.16041e-10
-7.5235e-09
-4.07532e-10
-7.12472e-09
-3.9888e-10
-6.73472e-09
-3.90091e-10
-6.35365e-09
-3.81171e-10
-5.98163e-09
-3.72123e-10
-5.61877e-09
-3.62951e-10
-5.26521e-09
-3.53658e-10
-4.92107e-09
-3.44246e-10
-4.58645e-09
-3.34715e-10
-4.26149e-09
-3.25066e-10
-3.94629e-09
-3.15299e-10
-3.64098e-09
-3.05414e-10
-3.34568e-09
-2.95409e-10
-3.0605e-09
-2.85284e-10
-2.78556e-09
-2.75037e-10
-2.521e-09
-2.64668e-10
-2.26693e-09
-2.54175e-10
-2.02348e-09
-2.43557e-10
-1.79077e-09
-2.32815e-10
-1.56893e-09
-2.21949e-10
-1.35808e-09
-2.1096e-10
-1.15833e-09
-1.99851e-10
-9.69816e-10
-1.88624e-10
-7.92639e-10
-1.77286e-10
-6.26906e-10
-1.65841e-10
-4.72715e-10
-1.543e-10
-3.30152e-10
-1.42672e-10
-1.99287e-10
-1.30974e-10
-8.01685e-11
-1.19227e-10
2.71591e-11
-1.07437e-10
1.2265e-10
-9.56005e-11
2.06289e-10
-8.37481e-11
2.78092e-10
-7.19119e-11
3.38102e-10
-6.01194e-11
3.86394e-10
-4.84013e-11
4.23075e-10
-3.67908e-11
4.48291e-10
-2.53246e-11
4.62224e-10
-1.40429e-11
4.65104e-10
-2.98999e-12
4.57201e-10
7.79196e-12
4.38834e-10
1.8256e-11
4.10376e-10
2.83462e-11
3.72259e-10
3.80052e-11
3.24973e-10
4.71717e-11
2.69079e-10
5.57803e-11
2.05201e-10
6.37619e-11
1.3404e-10
7.10432e-11
5.6375e-11
7.75464e-11
-2.69334e-11
8.31881e-11
-1.14925e-10
8.78701e-11
-2.06546e-10
9.14979e-11
-3.00649e-10
9.39774e-11
-3.95986e-10
9.52107e-11
-4.91199e-10
9.50834e-11
-5.84795e-10
9.34652e-11
-6.75159e-10
9.02287e-11
-7.60527e-10
8.52303e-11
-8.38983e-10
7.83149e-11
-9.08445e-10
6.93165e-11
-9.6665e-10
5.80564e-11
-1.01115e-09
4.43477e-11
-1.03931e-09
2.80003e-11
-1.04831e-09
8.83625e-12
-1.03522e-09
-1.32642e-11
-9.97081e-10
-3.8319e-11
-9.31097e-10
-6.61726e-11
-8.35006e-10
-9.62911e-11
-7.07814e-10
-1.27404e-10
-5.51181e-10
-1.56861e-10
-3.71975e-10
-1.79453e-10
-1.86843e-10
-1.85403e-10
-3.01771e-11
-1.56973e-10
4.12421e-11
-7.17799e-11
4.08748e-11
9.98304e-10
-8.92827e-14
-1.63474e-09
1.60471e-09
-1.00972e-14
-1.59454e-09
1.91125e-09
3.50069e-15
-1.15326e-09
1.9908e-09
3.15139e-15
-5.95973e-10
1.86523e-09
1.1233e-15
-5.57725e-11
1.55638e-09
-2.73004e-17
4.19488e-10
1.08806e-09
-2.83135e-16
8.17833e-10
4.84016e-10
-1.49452e-16
1.14314e-09
-2.33096e-10
2.09442e-17
1.40475e-09
-1.04247e-09
1.45649e-16
1.61284e-09
-1.92603e-09
2.50898e-16
1.77664e-09
-2.8688e-09
3.40051e-16
1.90388e-09
-3.85806e-09
4.1495e-16
2.00127e-09
-4.88287e-09
4.87277e-16
2.07459e-09
-5.93406e-09
5.61963e-16
2.12816e-09
-7.00392e-09
6.30742e-16
2.16544e-09
-8.08597e-09
6.87895e-16
2.18916e-09
-9.1747e-09
7.33773e-16
2.20154e-09
-1.02654e-08
7.70598e-16
2.20435e-09
-1.13541e-08
7.97531e-16
2.19904e-09
-1.24373e-08
8.09286e-16
2.18677e-09
-1.3512e-08
8.01743e-16
2.16852e-09
-1.45756e-08
7.74522e-16
2.14509e-09
-1.56258e-08
7.32285e-16
2.11712e-09
-1.66606e-08
6.81782e-16
2.08517e-09
-1.76782e-08
6.30195e-16
2.04971e-09
-1.8677e-08
5.82918e-16
2.01112e-09
-1.96556e-08
5.43068e-16
1.96973e-09
-2.06127e-08
5.12027e-16
1.92585e-09
-2.15472e-08
4.89932e-16
1.8797e-09
-2.24579e-08
4.75887e-16
1.83151e-09
-2.3344e-08
4.68266e-16
1.78148e-09
-2.42046e-08
4.65118e-16
1.72976e-09
-2.50389e-08
4.63135e-16
1.67653e-09
-2.58462e-08
4.59499e-16
1.62191e-09
-2.66259e-08
4.51012e-16
1.56603e-09
-2.73773e-08
4.35342e-16
1.50902e-09
-2.81e-08
4.11757e-16
1.45099e-09
-2.87935e-08
3.80773e-16
1.39205e-09
-2.94573e-08
3.44098e-16
1.33229e-09
-3.00912e-08
3.04494e-16
1.27182e-09
-3.06947e-08
2.64946e-16
1.21073e-09
-3.12676e-08
2.28026e-16
1.14912e-09
-3.18097e-08
1.95498e-16
1.08707e-09
-3.23208e-08
1.68608e-16
1.02467e-09
-3.28008e-08
1.47193e-16
9.62019e-10
-3.32494e-08
1.30521e-16
8.9919e-10
-3.36668e-08
1.17373e-16
8.36274e-10
-3.40529e-08
1.06259e-16
7.73352e-10
-3.44077e-08
9.60114e-17
7.10507e-10
-3.47313e-08
8.5466e-17
6.47821e-10
-3.50238e-08
7.39178e-17
5.85375e-10
-3.52853e-08
6.15566e-17
5.23248e-10
-3.5516e-08
4.83551e-17
4.61516e-10
-3.57163e-08
3.46929e-17
4.00258e-10
-3.58862e-08
2.15187e-17
3.39548e-10
-3.60261e-08
9.32028e-18
2.7946e-10
-3.61364e-08
-1.11625e-18
2.20066e-10
-3.62175e-08
-9.46564e-18
1.61434e-10
-3.62696e-08
-1.58363e-17
1.03631e-10
-3.62933e-08
-2.02283e-17
4.67196e-11
-3.62891e-08
-2.34005e-17
-9.23743e-12
-3.62573e-08
-2.56512e-17
-6.41826e-11
-3.61986e-08
-2.72783e-17
-1.18061e-10
-3.61135e-08
-2.8526e-17
-1.7082e-10
-3.60026e-08
-2.93942e-17
-2.22408e-10
-3.58664e-08
-3.0181e-17
-2.72775e-10
-3.57057e-08
-3.04529e-17
-3.21873e-10
-3.55209e-08
-3.00742e-17
-3.69658e-10
-3.53129e-08
-2.92076e-17
-4.16087e-10
-3.50824e-08
-2.78802e-17
-4.61123e-10
-3.48299e-08
-2.63901e-17
-5.04731e-10
-3.45562e-08
-2.47374e-17
-5.4688e-10
-3.42621e-08
-2.30576e-17
-5.87541e-10
-3.39483e-08
-2.15947e-17
-6.26691e-10
-3.36156e-08
-2.0213e-17
-6.64308e-10
-3.32646e-08
-1.88042e-17
-7.00374e-10
-3.28963e-08
-1.7287e-17
-7.34874e-10
-3.25113e-08
-1.5553e-17
-7.67797e-10
-3.21105e-08
-1.36021e-17
-7.99135e-10
-3.16946e-08
-1.13531e-17
-8.28881e-10
-3.12645e-08
-8.94141e-18
-8.57035e-10
-3.08208e-08
-6.23157e-18
-8.83597e-10
-3.03645e-08
-3.57594e-18
-9.0857e-10
-2.98962e-08
-8.66096e-19
-9.31962e-10
-2.94168e-08
1.73533e-18
-9.53781e-10
-2.8927e-08
3.90309e-18
-9.7404e-10
-2.84276e-08
5.85401e-18
-9.92754e-10
-2.79193e-08
7.28994e-18
-1.00994e-09
-2.74029e-08
8.69878e-18
-1.02561e-09
-2.68791e-08
9.61973e-18
-1.0398e-09
-2.63487e-08
1.02154e-17
-1.05253e-09
-2.58123e-08
1.04859e-17
-1.06382e-09
-2.52707e-08
1.04311e-17
-1.0737e-09
-2.47245e-08
1.02408e-17
-1.08219e-09
-2.41745e-08
9.77942e-18
-1.08934e-09
-2.36212e-08
9.34518e-18
-1.09518e-09
-2.30653e-08
8.69413e-18
-1.09973e-09
-2.25074e-08
8.09729e-18
-1.10304e-09
-2.19482e-08
7.44627e-18
-1.10513e-09
-2.13881e-08
6.63263e-18
-1.10605e-09
-2.08279e-08
6.03585e-18
-1.10584e-09
-2.0268e-08
5.24935e-18
-1.10453e-09
-1.97089e-08
4.51708e-18
-1.10217e-09
-1.91512e-08
3.92036e-18
-1.09878e-09
-1.85953e-08
3.26944e-18
-1.09442e-09
-1.80418e-08
2.61854e-18
-1.08912e-09
-1.74911e-08
1.94055e-18
-1.08293e-09
-1.69436e-08
1.28969e-18
-1.07587e-09
-1.63997e-08
7.20158e-19
-1.068e-09
-1.58599e-08
9.64304e-20
-1.05934e-09
-1.53245e-08
-7.98335e-19
-1.04994e-09
-1.47938e-08
-1.85572e-18
-1.03983e-09
-1.42683e-08
-2.99441e-18
-1.02905e-09
-1.37482e-08
-4.1331e-18
-1.01764e-09
-1.32339e-08
-5.48862e-18
-1.00562e-09
-1.27256e-08
-7.25072e-18
-9.93039e-10
-1.22237e-08
-9.06704e-18
-9.79915e-10
-1.17283e-08
-1.11544e-17
-9.66283e-10
-1.12399e-08
-1.354e-17
-9.52171e-10
-1.07585e-08
-1.61695e-17
-9.37604e-10
-1.02844e-08
-1.89346e-17
-9.22608e-10
-9.81794e-09
-2.18894e-17
-9.07206e-10
-9.3592e-09
-2.50341e-17
-8.91418e-10
-8.90841e-09
-2.83956e-17
-8.75264e-10
-8.46577e-09
-3.16217e-17
-8.58761e-10
-8.03145e-09
-3.50647e-17
-8.41925e-10
-7.60564e-09
-3.83994e-17
-8.24769e-10
-7.1885e-09
-4.18155e-17
-8.07306e-10
-6.78021e-09
-4.52317e-17
-7.89544e-10
-6.38091e-09
-4.86751e-17
-7.71494e-10
-5.99078e-09
-5.20374e-17
-7.5316e-10
-5.60997e-09
-5.53457e-17
-7.34548e-10
-5.23864e-09
-5.85186e-17
-7.15661e-10
-4.87693e-09
-6.16104e-17
-6.96502e-10
-4.525e-09
-6.47025e-17
-6.77072e-10
-4.18301e-09
-6.76322e-17
-6.57369e-10
-3.85111e-09
-7.05079e-17
-6.37395e-10
-3.52945e-09
-7.28961e-17
-6.17146e-10
-3.2182e-09
-7.53388e-17
-5.96621e-10
-2.9175e-09
-7.75108e-17
-5.75818e-10
-2.62751e-09
-7.97917e-17
-5.54734e-10
-2.3484e-09
-8.17477e-17
-5.33369e-10
-2.08032e-09
-8.365e-17
-5.1172e-10
-1.82342e-09
-8.50106e-17
-4.89787e-10
-1.57788e-09
-8.62634e-17
-4.67573e-10
-1.34384e-09
-8.72457e-17
-4.45079e-10
-1.12147e-09
-8.79575e-17
-4.2231e-10
-9.10896e-10
-8.85074e-17
-3.99275e-10
-7.12281e-10
-8.85158e-17
-3.75982e-10
-5.25758e-10
-8.78203e-17
-3.52445e-10
-3.51457e-10
-8.66918e-17
-3.28681e-10
-1.89495e-10
-8.51847e-17
-3.04715e-10
-3.9975e-11
-8.31905e-17
-2.80574e-10
9.69986e-11
-8.07631e-17
-2.56281e-10
2.21335e-10
-7.77398e-17
-2.31853e-10
3.32978e-10
-7.30917e-17
-2.07324e-10
4.31892e-10
-6.79027e-17
-1.82742e-10
5.18061e-10
-6.18473e-17
-1.58161e-10
5.915e-10
-5.48173e-17
-1.33637e-10
6.5225e-10
-4.64332e-17
-1.09231e-10
7.00389e-10
-3.69119e-17
-8.50098e-11
7.36031e-10
-2.64159e-17
-6.10468e-11
7.59331e-10
-1.50538e-17
-3.74228e-11
7.70486e-10
-3.15063e-18
-1.4225e-11
7.69742e-10
9.8375e-18
8.45525e-12
7.57397e-10
2.24971e-17
3.05193e-11
7.33804e-10
3.53176e-17
5.1858e-11
6.99372e-10
4.75403e-17
7.23546e-11
6.54575e-10
5.85146e-17
9.18848e-11
5.99954e-10
6.82947e-17
1.10317e-10
5.36121e-10
7.6176e-17
1.2751e-10
4.63762e-10
8.30801e-17
1.43316e-10
3.83644e-10
8.95488e-17
1.57576e-10
2.96619e-10
9.72083e-17
1.70124e-10
2.03624e-10
1.07414e-16
1.80775e-10
1.05688e-10
1.21088e-16
1.89341e-10
3.94028e-12
1.38339e-16
1.95632e-10
-1.00377e-10
1.58462e-16
1.99433e-10
-2.05911e-10
1.7853e-16
2.0052e-10
-3.11206e-10
1.95995e-16
1.98661e-10
-4.14687e-10
2.0793e-16
1.93607e-10
-5.14651e-10
2.14336e-16
1.85089e-10
-6.09266e-10
2.16351e-16
1.72822e-10
-6.96567e-10
2.19233e-16
1.56506e-10
-7.74456e-10
2.24935e-16
1.3583e-10
-8.40701e-10
2.32807e-16
1.10474e-10
-8.92957e-10
2.3732e-16
8.01326e-11
-9.28785e-10
2.31751e-16
4.45355e-11
-9.45691e-10
2.16418e-16
3.5077e-12
-9.41219e-10
1.96006e-16
-4.29311e-11
-9.13099e-10
1.7745e-16
-9.44409e-11
-8.59448e-10
1.55769e-16
-1.501e-10
-7.79112e-10
1.21432e-16
-2.07908e-10
-6.72182e-10
8.24814e-17
-2.63974e-10
-5.407e-10
7.65776e-17
-3.11137e-10
-3.89618e-10
1.55956e-16
-3.36714e-10
-2.27952e-10
3.55996e-16
-3.18915e-10
-7.67137e-11
1.16369e-15
-2.23379e-10
3.92709e-16
-3.6084e-11
9.98477e-10
-1.63467e-09
1.60476e-09
-1.59459e-09
1.91125e-09
-1.1533e-09
1.99079e-09
-5.95995e-10
1.86522e-09
-5.57832e-11
1.55637e-09
4.19485e-10
1.08805e-09
8.17832e-10
4.84011e-10
1.14314e-09
-2.331e-10
1.40475e-09
-1.04247e-09
1.61284e-09
-1.92603e-09
1.77664e-09
-2.8688e-09
1.90388e-09
-3.85806e-09
2.00127e-09
-4.88286e-09
2.07459e-09
-5.93405e-09
2.12816e-09
-7.00391e-09
2.16544e-09
-8.08596e-09
2.18916e-09
-9.17468e-09
2.20154e-09
-1.02654e-08
2.20435e-09
-1.13541e-08
2.19904e-09
-1.24373e-08
2.18677e-09
-1.3512e-08
2.16852e-09
-1.45756e-08
2.14509e-09
-1.56258e-08
2.11712e-09
-1.66606e-08
2.08517e-09
-1.76782e-08
2.04971e-09
-1.8677e-08
2.01112e-09
-1.96556e-08
1.96973e-09
-2.06127e-08
1.92585e-09
-2.15471e-08
1.8797e-09
-2.24579e-08
1.83151e-09
-2.3344e-08
1.78148e-09
-2.42045e-08
1.72976e-09
-2.50388e-08
1.67653e-09
-2.58461e-08
1.6219e-09
-2.66258e-08
1.56603e-09
-2.73773e-08
1.50902e-09
-2.81e-08
1.45099e-09
-2.87934e-08
1.39205e-09
-2.94573e-08
1.33229e-09
-3.00911e-08
1.27182e-09
-3.06947e-08
1.21073e-09
-3.12676e-08
1.14912e-09
-3.18097e-08
1.08707e-09
-3.23208e-08
1.02467e-09
-3.28007e-08
9.62018e-10
-3.32494e-08
8.9919e-10
-3.36668e-08
8.36273e-10
-3.40529e-08
7.73351e-10
-3.44077e-08
7.10506e-10
-3.47312e-08
6.47821e-10
-3.50237e-08
5.85374e-10
-3.52852e-08
5.23247e-10
-3.5516e-08
4.61516e-10
-3.57162e-08
4.00257e-10
-3.58861e-08
3.39548e-10
-3.60261e-08
2.7946e-10
-3.61364e-08
2.20065e-10
-3.62174e-08
1.61433e-10
-3.62696e-08
1.0363e-10
-3.62933e-08
4.67189e-11
-3.6289e-08
-9.23815e-12
-3.62573e-08
-6.41834e-11
-3.61986e-08
-1.18062e-10
-3.61135e-08
-1.7082e-10
-3.60025e-08
-2.22408e-10
-3.58664e-08
-2.72775e-10
-3.57056e-08
-3.21874e-10
-3.55209e-08
-3.69658e-10
-3.53129e-08
-4.16088e-10
-3.50823e-08
-4.61124e-10
-3.48298e-08
-5.04732e-10
-3.45562e-08
-5.4688e-10
-3.42621e-08
-5.87542e-10
-3.39483e-08
-6.26692e-10
-3.36155e-08
-6.64309e-10
-3.32646e-08
-7.00375e-10
-3.28962e-08
-7.34875e-10
-3.25113e-08
-7.67798e-10
-3.21105e-08
-7.99135e-10
-3.16946e-08
-8.28882e-10
-3.12644e-08
-8.57036e-10
-3.08208e-08
-8.83598e-10
-3.03644e-08
-9.08571e-10
-2.98962e-08
-9.31963e-10
-2.94167e-08
-9.53782e-10
-2.89269e-08
-9.74041e-10
-2.84275e-08
-9.92755e-10
-2.79192e-08
-1.00994e-09
-2.74028e-08
-1.02562e-09
-2.68791e-08
-1.0398e-09
-2.63486e-08
-1.05253e-09
-2.58123e-08
-1.06382e-09
-2.52706e-08
-1.0737e-09
-2.47245e-08
-1.0822e-09
-2.41744e-08
-1.08935e-09
-2.36211e-08
-1.09518e-09
-2.30652e-08
-1.09973e-09
-2.25074e-08
-1.10304e-09
-2.19481e-08
-1.10513e-09
-2.13881e-08
-1.10605e-09
-2.08278e-08
-1.10584e-09
-2.02679e-08
-1.10453e-09
-1.97089e-08
-1.10217e-09
-1.91512e-08
-1.09878e-09
-1.85953e-08
-1.09442e-09
-1.80418e-08
-1.08913e-09
-1.74911e-08
-1.08293e-09
-1.69436e-08
-1.07587e-09
-1.63997e-08
-1.068e-09
-1.58599e-08
-1.05934e-09
-1.53244e-08
-1.04994e-09
-1.47938e-08
-1.03983e-09
-1.42682e-08
-1.02905e-09
-1.37482e-08
-1.01764e-09
-1.32338e-08
-1.00563e-09
-1.27256e-08
-9.9304e-10
-1.22236e-08
-9.79917e-10
-1.17283e-08
-9.66285e-10
-1.12398e-08
-9.52173e-10
-1.07585e-08
-9.37606e-10
-1.02844e-08
-9.2261e-10
-9.81792e-09
-9.07208e-10
-9.35918e-09
-8.9142e-10
-8.90839e-09
-8.75266e-10
-8.46574e-09
-8.58763e-10
-8.03143e-09
-8.41927e-10
-7.60562e-09
-8.24771e-10
-7.18848e-09
-8.07308e-10
-6.78018e-09
-7.89547e-10
-6.38089e-09
-7.71496e-10
-5.99076e-09
-7.53162e-10
-5.60995e-09
-7.3455e-10
-5.23861e-09
-7.15664e-10
-4.87691e-09
-6.96505e-10
-4.52498e-09
-6.77074e-10
-4.18299e-09
-6.57372e-10
-3.85109e-09
-6.37398e-10
-3.52943e-09
-6.17149e-10
-3.21817e-09
-5.96624e-10
-2.91747e-09
-5.75821e-10
-2.62749e-09
-5.54737e-10
-2.34838e-09
-5.33372e-10
-2.08029e-09
-5.11723e-10
-1.8234e-09
-4.8979e-10
-1.57786e-09
-4.67576e-10
-1.34382e-09
-4.45082e-10
-1.12144e-09
-4.22313e-10
-9.10874e-10
-3.99278e-10
-7.12259e-10
-3.75985e-10
-5.25736e-10
-3.52448e-10
-3.51435e-10
-3.28685e-10
-1.89473e-10
-3.04718e-10
-3.99533e-11
-2.80578e-10
9.70202e-11
-2.56284e-10
2.21356e-10
-2.31856e-10
3.32999e-10
-2.07327e-10
4.31913e-10
-1.82745e-10
5.18083e-10
-1.58164e-10
5.91521e-10
-1.3364e-10
6.52271e-10
-1.09234e-10
7.0041e-10
-8.50126e-11
7.36052e-10
-6.10496e-11
7.59352e-10
-3.74255e-11
7.70506e-10
-1.42277e-11
7.69762e-10
8.45257e-12
7.57417e-10
3.05167e-11
7.33823e-10
5.18554e-11
6.99391e-10
7.2352e-11
6.54593e-10
9.18823e-11
5.99972e-10
1.10314e-10
5.36138e-10
1.27507e-10
4.63778e-10
1.43313e-10
3.8366e-10
1.57574e-10
2.96634e-10
1.70122e-10
2.03639e-10
1.80772e-10
1.05703e-10
1.89339e-10
3.95372e-12
1.9563e-10
-1.00365e-10
1.99431e-10
-2.05899e-10
2.00517e-10
-3.11195e-10
1.98658e-10
-4.14677e-10
1.93605e-10
-5.14642e-10
1.85086e-10
-6.09258e-10
1.72819e-10
-6.9656e-10
1.56504e-10
-7.74449e-10
1.35827e-10
-8.40695e-10
1.10472e-10
-8.92952e-10
8.01297e-11
-9.28781e-10
4.45323e-11
-9.45687e-10
3.50412e-12
-9.41217e-10
-4.29352e-11
-9.13097e-10
-9.44455e-11
-8.59447e-10
-1.50105e-10
-7.79112e-10
-2.07915e-10
-6.72183e-10
-2.63982e-10
-5.40702e-10
-3.11146e-10
-3.89623e-10
-3.36726e-10
-2.27963e-10
-3.18929e-10
-7.67417e-11
-2.23396e-10
-3.61017e-11
8.25235e-10
-3.95833e-14
-2.4602e-09
1.12992e-09
-7.77502e-15
-1.8993e-09
1.14337e-09
-9.11712e-16
-1.16673e-09
9.81732e-10
4.802e-16
-4.34342e-10
6.82336e-10
4.82218e-16
2.4362e-10
2.6198e-10
2.63365e-16
8.39844e-10
-2.67566e-10
2.03542e-16
1.34738e-09
-8.94622e-10
2.4152e-16
1.77019e-09
-1.60696e-09
2.5855e-16
2.1171e-09
-2.39241e-09
2.84474e-16
2.3983e-09
-3.23941e-09
3.44905e-16
2.62364e-09
-4.13746e-09
3.99212e-16
2.80194e-09
-5.07707e-09
4.28936e-16
2.94089e-09
-6.0496e-09
4.56465e-16
3.04713e-09
-7.04746e-09
4.9931e-16
3.12603e-09
-8.06404e-09
5.50003e-16
3.18203e-09
-9.09358e-09
5.92659e-16
3.21871e-09
-1.01311e-08
6.19446e-16
3.23903e-09
-1.11721e-08
6.32071e-16
3.24541e-09
-1.22129e-08
6.34424e-16
3.23984e-09
-1.32501e-08
6.28374e-16
3.22397e-09
-1.42807e-08
6.12757e-16
3.19917e-09
-1.53022e-08
5.87043e-16
3.16658e-09
-1.63123e-08
5.5252e-16
3.12715e-09
-1.73088e-08
5.12699e-16
3.08169e-09
-1.82899e-08
4.72024e-16
3.03086e-09
-1.92541e-08
4.34425e-16
2.97527e-09
-2.01997e-08
4.03034e-16
2.91539e-09
-2.11255e-08
3.79232e-16
2.85166e-09
-2.20303e-08
3.63156e-16
2.78446e-09
-2.29129e-08
3.54018e-16
2.71411e-09
-2.37723e-08
3.49543e-16
2.64091e-09
-2.46077e-08
3.46667e-16
2.56511e-09
-2.54181e-08
3.41677e-16
2.48695e-09
-2.62028e-08
3.31388e-16
2.40664e-09
-2.69612e-08
3.13673e-16
2.32439e-09
-2.76925e-08
2.88463e-16
2.24037e-09
-2.83963e-08
2.57452e-16
2.15476e-09
-2.9072e-08
2.23921e-16
2.06772e-09
-2.97191e-08
1.90973e-16
1.97941e-09
-3.03372e-08
1.61739e-16
1.88998e-09
-3.09261e-08
1.37884e-16
1.79957e-09
-3.14853e-08
1.19885e-16
1.70832e-09
-3.20146e-08
1.07117e-16
1.61637e-09
-3.25138e-08
9.84554e-17
1.52386e-09
-3.29827e-08
9.22605e-17
1.43092e-09
-3.34212e-08
8.72989e-17
1.33767e-09
-3.38292e-08
8.2473e-17
1.24425e-09
-3.42066e-08
7.70915e-17
1.15079e-09
-3.45535e-08
7.08698e-17
1.05739e-09
-3.48699e-08
6.3984e-17
9.64201e-10
-3.51559e-08
5.64478e-17
8.71328e-10
-3.54115e-08
4.86677e-17
7.78894e-10
-3.5637e-08
4.11723e-17
6.87016e-10
-3.58326e-08
3.42868e-17
5.95809e-10
-3.59985e-08
2.84855e-17
5.05385e-10
-3.61349e-08
2.39582e-17
4.15855e-10
-3.62421e-08
2.05965e-17
3.27325e-10
-3.63206e-08
1.84139e-17
2.399e-10
-3.63707e-08
1.70038e-17
1.53678e-10
-3.63927e-08
1.60681e-17
6.87558e-11
-3.63872e-08
1.54306e-17
-1.47739e-11
-3.63546e-08
1.48473e-17
-9.68222e-11
-3.62953e-08
1.4386e-17
-1.77303e-10
-3.621e-08
1.40196e-17
-2.56135e-10
-3.60992e-08
1.38158e-17
-3.33241e-10
-3.59635e-08
1.39645e-17
-4.08546e-10
-3.58034e-08
1.4479e-17
-4.81979e-10
-3.56196e-08
1.53731e-17
-5.53474e-10
-3.54127e-08
1.6728e-17
-6.22969e-10
-3.51834e-08
1.8381e-17
-6.90408e-10
-3.49324e-08
2.01696e-17
-7.55738e-10
-3.46604e-08
2.21073e-17
-8.18912e-10
-3.43681e-08
2.40043e-17
-8.79889e-10
-3.40562e-08
2.58471e-17
-9.3863e-10
-3.37254e-08
2.76222e-17
-9.95105e-10
-3.33765e-08
2.93702e-17
-1.04929e-09
-3.30102e-08
3.10639e-17
-1.10115e-09
-3.26274e-08
3.27171e-17
-1.15068e-09
-3.22287e-08
3.43973e-17
-1.19786e-09
-3.18149e-08
3.61318e-17
-1.24268e-09
-3.13868e-08
3.77985e-17
-1.28514e-09
-3.09452e-08
3.94788e-17
-1.32525e-09
-3.04907e-08
4.10643e-17
-1.363e-09
-3.00243e-08
4.246e-17
-1.3984e-09
-2.95467e-08
4.37608e-17
-1.43147e-09
-2.90585e-08
4.47906e-17
-1.46222e-09
-2.85606e-08
4.56171e-17
-1.49068e-09
-2.80537e-08
4.61726e-17
-1.51687e-09
-2.75385e-08
4.64707e-17
-1.54082e-09
-2.70158e-08
4.65925e-17
-1.56255e-09
-2.64862e-08
4.64433e-17
-1.58211e-09
-2.59505e-08
4.61179e-17
-1.59954e-09
-2.54093e-08
4.56706e-17
-1.61486e-09
-2.48634e-08
4.51826e-17
-1.62813e-09
-2.43134e-08
4.45456e-17
-1.63939e-09
-2.37599e-08
4.39493e-17
-1.64869e-09
-2.32036e-08
4.33123e-17
-1.65607e-09
-2.26451e-08
4.27159e-17
-1.66159e-09
-2.20849e-08
4.22416e-17
-1.66531e-09
-2.15237e-08
4.17808e-17
-1.66727e-09
-2.0962e-08
4.1415e-17
-1.66753e-09
-2.04004e-08
4.1144e-17
-1.66615e-09
-1.98394e-08
4.08459e-17
-1.66318e-09
-1.92796e-08
4.07647e-17
-1.65869e-09
-1.87213e-08
4.06699e-17
-1.65272e-09
-1.81651e-08
4.06701e-17
-1.64534e-09
-1.76114e-08
4.06973e-17
-1.63661e-09
-1.70607e-08
4.08059e-17
-1.62658e-09
-1.65134e-08
4.105e-17
-1.61531e-09
-1.59699e-08
4.13348e-17
-1.60286e-09
-1.54306e-08
4.16603e-17
-1.58928e-09
-1.48959e-08
4.1918e-17
-1.57462e-09
-1.4366e-08
4.23248e-17
-1.55894e-09
-1.38414e-08
4.27858e-17
-1.54228e-09
-1.33223e-08
4.32197e-17
-1.52471e-09