/*--------------------------------*- C++ -*----------------------------------*\
  =========                 |
  \\      /  F ield         | OpenFOAM: The Open Source CFD Toolbox
   \\    /   O peration     | Website:  https://openfoam.org
    \\  /    A nd           | Version:  8
     \\/     M anipulation  |
\*---------------------------------------------------------------------------*/
FoamFile
{
    version     2.0;
    format      ascii;
    class       volScalarField;
    location    "3800";
    object      T;
}
// * * * * * * * * * * * * * * * * * * * * * * * * * * * * * * * * * * * * * //

dimensions      [0 0 0 1 0 0 0];

internalField   nonuniform List<scalar> 
46000
(
310.017
308.883
308.084
307.57
307.2
306.908
306.664
306.454
306.269
306.103
305.952
305.813
305.685
305.566
305.456
305.352
305.254
305.162
305.075
304.992
304.914
304.84
304.769
304.702
304.639
304.578
304.52
304.465
304.413
304.363
304.316
304.271
304.228
304.187
304.147
304.11
304.075
304.041
304.009
303.979
303.95
303.923
303.897
303.873
303.85
303.828
303.808
303.788
303.77
303.754
303.738
303.723
303.71
303.697
303.686
303.675
303.666
303.657
303.65
303.643
303.637
303.633
303.628
303.625
303.623
303.621
303.62
303.621
303.622
303.623
303.626
303.629
303.633
303.638
303.644
303.65
303.658
303.665
303.674
303.684
303.694
303.704
303.716
303.728
303.741
303.755
303.769
303.784
303.799
303.815
303.832
303.85
303.868
303.887
303.906
303.926
303.946
303.967
303.989
304.011
304.034
304.057
304.081
304.105
304.13
304.155
304.181
304.208
304.234
304.262
304.29
304.318
304.347
304.376
304.406
304.436
304.466
304.497
304.529
304.561
304.593
304.626
304.659
304.693
304.727
304.762
304.797
304.832
304.868
304.904
304.941
304.979
305.017
305.055
305.094
305.133
305.173
305.214
305.255
305.296
305.339
305.381
305.425
305.469
305.514
305.559
305.605
305.652
305.699
305.747
305.796
305.845
305.896
305.947
305.999
306.051
306.105
306.159
306.214
306.27
306.327
306.384
306.443
306.502
306.562
306.623
306.685
306.748
306.812
306.877
306.943
307.01
307.078
307.147
307.218
307.29
307.363
307.438
307.515
307.594
307.674
307.757
307.843
307.931
308.023
308.119
308.219
308.325
308.437
308.557
308.686
308.827
308.984
309.162
309.37
309.621
309.939
310.363
310.93
311.464
310.017
308.883
308.084
307.57
307.2
306.908
306.664
306.454
306.269
306.103
305.952
305.813
305.685
305.566
305.456
305.352
305.254
305.162
305.075
304.992
304.914
304.84
304.769
304.702
304.639
304.578
304.52
304.465
304.413
304.363
304.316
304.271
304.228
304.187
304.147
304.11
304.075
304.041
304.009
303.979
303.95
303.923
303.897
303.873
303.85
303.828
303.808
303.788
303.77
303.754
303.738
303.723
303.71
303.697
303.686
303.675
303.666
303.657
303.65
303.643
303.637
303.633
303.628
303.625
303.623
303.621
303.62
303.621
303.622
303.623
303.626
303.629
303.633
303.638
303.644
303.65
303.658
303.666
303.674
303.684
303.694
303.704
303.716
303.728
303.741
303.755
303.769
303.784
303.799
303.815
303.832
303.85
303.868
303.887
303.906
303.926
303.946
303.967
303.989
304.011
304.034
304.057
304.081
304.105
304.13
304.155
304.181
304.208
304.234
304.262
304.29
304.318
304.347
304.376
304.406
304.436
304.466
304.497
304.529
304.561
304.593
304.626
304.659
304.693
304.727
304.762
304.797
304.832
304.868
304.904
304.941
304.979
305.017
305.055
305.094
305.133
305.173
305.214
305.255
305.296
305.339
305.381
305.425
305.469
305.514
305.559
305.605
305.652
305.699
305.747
305.796
305.845
305.896
305.947
305.999
306.051
306.105
306.159
306.214
306.27
306.327
306.384
306.443
306.502
306.562
306.623
306.685
306.748
306.812
306.877
306.943
307.01
307.078
307.147
307.218
307.29
307.363
307.438
307.515
307.594
307.674
307.757
307.843
307.931
308.023
308.119
308.219
308.325
308.437
308.557
308.686
308.827
308.984
309.162
309.37
309.621
309.939
310.363
310.93
311.464
306.529
306.11
305.767
305.499
305.282
305.101
304.946
304.809
304.686
304.574
304.471
304.375
304.286
304.203
304.124
304.05
303.981
303.914
303.851
303.792
303.735
303.681
303.629
303.58
303.533
303.488
303.445
303.404
303.365
303.328
303.293
303.258
303.226
303.195
303.165
303.137
303.109
303.083
303.059
303.035
303.012
302.991
302.97
302.951
302.932
302.914
302.897
302.881
302.866
302.851
302.838
302.825
302.812
302.801
302.79
302.78
302.77
302.761
302.753
302.745
302.738
302.732
302.726
302.72
302.715
302.711
302.707
302.704
302.702
302.7
302.698
302.697
302.697
302.697
302.697
302.698
302.7
302.702
302.704
302.707
302.711
302.715
302.719
302.724
302.73
302.735
302.742
302.749
302.756
302.764
302.772
302.781
302.79
302.799
302.809
302.82
302.83
302.842
302.854
302.866
302.878
302.891
302.905
302.919
302.933
302.948
302.963
302.979
302.995
303.011
303.028
303.045
303.063
303.081
303.1
303.119
303.138
303.158
303.178
303.199
303.221
303.242
303.264
303.287
303.31
303.334
303.358
303.382
303.408
303.433
303.459
303.486
303.513
303.541
303.569
303.598
303.627
303.657
303.688
303.719
303.751
303.784
303.817
303.851
303.885
303.92
303.956
303.993
304.03
304.068
304.106
304.146
304.186
304.227
304.268
304.311
304.354
304.398
304.442
304.488
304.534
304.581
304.628
304.677
304.726
304.776
304.827
304.878
304.93
304.983
305.037
305.092
305.148
305.204
305.262
305.32
305.38
305.44
305.502
305.565
305.63
305.696
305.764
305.835
305.908
305.983
306.063
306.146
306.235
306.33
306.433
306.546
306.673
306.817
306.985
307.189
307.444
307.776
308.225
308.761
306.529
306.11
305.767
305.499
305.282
305.101
304.946
304.809
304.686
304.574
304.471
304.375
304.286
304.203
304.124
304.05
303.981
303.914
303.851
303.792
303.735
303.681
303.629
303.58
303.533
303.488
303.445
303.404
303.365
303.328
303.293
303.258
303.226
303.195
303.165
303.137
303.109
303.083
303.059
303.035
303.012
302.991
302.97
302.951
302.932
302.914
302.897
302.881
302.866
302.851
302.838
302.825
302.812
302.801
302.79
302.78
302.77
302.761
302.753
302.745
302.738
302.732
302.726
302.72
302.715
302.711
302.707
302.704
302.702
302.7
302.698
302.697
302.697
302.697
302.697
302.698
302.7
302.702
302.704
302.707
302.711
302.715
302.719
302.724
302.73
302.735
302.742
302.749
302.756
302.764
302.772
302.781
302.79
302.799
302.809
302.82
302.83
302.842
302.854
302.866
302.878
302.891
302.905
302.919
302.933
302.948
302.963
302.979
302.995
303.011
303.028
303.045
303.063
303.081
303.1
303.119
303.138
303.158
303.178
303.199
303.221
303.242
303.264
303.287
303.31
303.334
303.358
303.382
303.408
303.433
303.459
303.486
303.513
303.541
303.569
303.598
303.627
303.657
303.688
303.719
303.751
303.784
303.817
303.851
303.885
303.92
303.956
303.993
304.03
304.068
304.106
304.146
304.186
304.227
304.268
304.311
304.354
304.398
304.442
304.488
304.534
304.581
304.628
304.677
304.726
304.776
304.827
304.878
304.93
304.983
305.037
305.092
305.148
305.204
305.262
305.32
305.38
305.44
305.502
305.565
305.63
305.696
305.764
305.835
305.908
305.983
306.063
306.146
306.235
306.33
306.433
306.546
306.673
306.817
306.985
307.189
307.444
307.776
308.225
308.761
304.969
304.877
304.73
304.58
304.44
304.312
304.196
304.09
303.992
303.901
303.817
303.737
303.663
303.592
303.525
303.462
303.402
303.345
303.29
303.238
303.189
303.142
303.097
303.053
303.012
302.973
302.935
302.899
302.864
302.831
302.8
302.769
302.74
302.712
302.686
302.66
302.636
302.612
302.59
302.568
302.548
302.528
302.509
302.491
302.474
302.457
302.442
302.426
302.412
302.398
302.385
302.373
302.361
302.35
302.339
302.329
302.319
302.31
302.302
302.294
302.286
302.279
302.272
302.266
302.261
302.255
302.251
302.246
302.243
302.239
302.236
302.234
302.232
302.23
302.229
302.228
302.228
302.228
302.229
302.23
302.231
302.233
302.235
302.238
302.241
302.244
302.248
302.253
302.257
302.262
302.268
302.274
302.28
302.287
302.294
302.302
302.31
302.318
302.327
302.336
302.345
302.355
302.366
302.377
302.388
302.399
302.411
302.424
302.437
302.45
302.464
302.478
302.492
302.507
302.522
302.538
302.555
302.571
302.588
302.606
302.624
302.643
302.662
302.681
302.701
302.722
302.743
302.764
302.786
302.809
302.832
302.856
302.88
302.905
302.93
302.956
302.982
303.01
303.037
303.066
303.095
303.124
303.155
303.186
303.217
303.25
303.283
303.316
303.351
303.386
303.422
303.458
303.496
303.534
303.572
303.612
303.652
303.693
303.735
303.777
303.82
303.864
303.908
303.954
303.999
304.046
304.093
304.141
304.19
304.24
304.29
304.341
304.392
304.444
304.498
304.551
304.606
304.662
304.718
304.776
304.835
304.895
304.957
305.02
305.085
305.153
305.223
305.297
305.374
305.456
305.545
305.64
305.746
305.863
305.995
306.148
306.326
306.535
306.781
307.042
304.969
304.877
304.73
304.58
304.44
304.312
304.196
304.09
303.992
303.901
303.817
303.737
303.663
303.592
303.525
303.462
303.402
303.345
303.29
303.238
303.189
303.142
303.097
303.053
303.012
302.973
302.935
302.899
302.864
302.831
302.8
302.769
302.74
302.712
302.686
302.66
302.636
302.612
302.59
302.568
302.548
302.528
302.509
302.491
302.474
302.457
302.442
302.426
302.412
302.398
302.385
302.373
302.361
302.35
302.339
302.329
302.319
302.31
302.302
302.294
302.286
302.279
302.272
302.266
302.261
302.255
302.251
302.246
302.243
302.239
302.236
302.234
302.232
302.23
302.229
302.228
302.228
302.228
302.229
302.23
302.231
302.233
302.235
302.238
302.241
302.244
302.248
302.253
302.257
302.262
302.268
302.274
302.28
302.287
302.294
302.302
302.31
302.318
302.327
302.336
302.345
302.355
302.366
302.377
302.388
302.399
302.411
302.424
302.437
302.45
302.464
302.478
302.492
302.507
302.522
302.538
302.555
302.571
302.588
302.606
302.624
302.643
302.662
302.681
302.701
302.722
302.743
302.764
302.786
302.809
302.832
302.856
302.88
302.905
302.93
302.956
302.982
303.01
303.037
303.066
303.095
303.124
303.155
303.186
303.217
303.25
303.283
303.316
303.351
303.386
303.422
303.458
303.496
303.534
303.572
303.612
303.652
303.693
303.735
303.777
303.82
303.864
303.908
303.954
304
304.046
304.093
304.142
304.19
304.24
304.29
304.341
304.392
304.445
304.498
304.551
304.606
304.662
304.718
304.776
304.835
304.895
304.957
305.02
305.085
305.153
305.223
305.297
305.374
305.456
305.545
305.64
305.746
305.863
305.995
306.148
306.326
306.535
306.781
307.042
304.152
304.143
304.078
303.991
303.898
303.805
303.716
303.631
303.55
303.474
303.401
303.332
303.267
303.204
303.145
303.089
303.035
302.983
302.934
302.886
302.841
302.798
302.757
302.717
302.679
302.643
302.608
302.574
302.542
302.512
302.482
302.454
302.427
302.401
302.376
302.352
302.329
302.307
302.286
302.265
302.246
302.227
302.209
302.192
302.175
302.16
302.145
302.13
302.116
302.103
302.09
302.078
302.066
302.055
302.044
302.034
302.025
302.016
302.007
301.999
301.991
301.984
301.977
301.97
301.964
301.958
301.953
301.948
301.944
301.94
301.936
301.933
301.931
301.928
301.926
301.925
301.923
301.923
301.922
301.922
301.922
301.923
301.924
301.926
301.928
301.93
301.933
301.936
301.939
301.943
301.947
301.952
301.957
301.962
301.968
301.974
301.981
301.988
301.995
302.003
302.011
302.019
302.028
302.037
302.047
302.057
302.068
302.078
302.09
302.101
302.114
302.126
302.139
302.153
302.166
302.181
302.195
302.211
302.226
302.242
302.259
302.276
302.294
302.312
302.33
302.349
302.369
302.389
302.409
302.43
302.452
302.474
302.497
302.52
302.544
302.569
302.594
302.62
302.646
302.673
302.701
302.729
302.758
302.788
302.818
302.849
302.88
302.913
302.946
302.979
303.014
303.049
303.085
303.122
303.159
303.197
303.236
303.275
303.315
303.356
303.397
303.439
303.482
303.526
303.57
303.615
303.66
303.707
303.753
303.801
303.849
303.897
303.947
303.997
304.047
304.098
304.15
304.203
304.257
304.311
304.366
304.423
304.48
304.539
304.599
304.661
304.726
304.792
304.862
304.935
305.012
305.095
305.183
305.279
305.383
305.497
305.619
305.748
305.877
305.988
304.152
304.143
304.078
303.991
303.898
303.805
303.716
303.631
303.55
303.474
303.401
303.332
303.267
303.204
303.145
303.089
303.035
302.983
302.934
302.886
302.841
302.798
302.757
302.717
302.679
302.643
302.608
302.574
302.542
302.512
302.482
302.454
302.427
302.401
302.376
302.352
302.329
302.307
302.286
302.265
302.246
302.227
302.209
302.192
302.175
302.16
302.145
302.13
302.116
302.103
302.09
302.078
302.066
302.055
302.044
302.034
302.025
302.016
302.007
301.999
301.991
301.984
301.977
301.97
301.964
301.958
301.953
301.948
301.944
301.94
301.936
301.933
301.931
301.928
301.926
301.925
301.923
301.923
301.922
301.922
301.922
301.923
301.924
301.926
301.928
301.93
301.933
301.936
301.939
301.943
301.947
301.952
301.957
301.962
301.968
301.974
301.981
301.988
301.995
302.003
302.011
302.019
302.028
302.037
302.047
302.057
302.068
302.078
302.09
302.101
302.114
302.126
302.139
302.153
302.166
302.181
302.196
302.211
302.226
302.242
302.259
302.276
302.294
302.312
302.33
302.349
302.369
302.389
302.409
302.43
302.452
302.474
302.497
302.52
302.544
302.569
302.594
302.62
302.646
302.673
302.701
302.729
302.758
302.788
302.818
302.849
302.88
302.913
302.946
302.979
303.014
303.049
303.085
303.122
303.159
303.197
303.236
303.275
303.315
303.356
303.397
303.439
303.482
303.526
303.57
303.615
303.66
303.707
303.753
303.801
303.849
303.897
303.947
303.997
304.047
304.098
304.15
304.203
304.257
304.311
304.366
304.423
304.48
304.539
304.599
304.661
304.726
304.792
304.862
304.935
305.012
305.095
305.183
305.279
305.383
305.497
305.619
305.748
305.877
305.988
303.63
303.639
303.607
303.554
303.491
303.422
303.353
303.284
303.217
303.152
303.089
303.028
302.97
302.914
302.861
302.81
302.76
302.713
302.668
302.624
302.582
302.542
302.504
302.467
302.431
302.397
302.364
302.333
302.303
302.274
302.246
302.219
302.193
302.168
302.145
302.122
302.1
302.079
302.059
302.039
302.02
302.002
301.985
301.968
301.952
301.937
301.922
301.908
301.895
301.882
301.869
301.857
301.846
301.835
301.824
301.814
301.804
301.795
301.786
301.778
301.77
301.763
301.756
301.749
301.743
301.737
301.731
301.726
301.721
301.717
301.713
301.709
301.706
301.703
301.701
301.698
301.697
301.695
301.694
301.694
301.693
301.693
301.694
301.695
301.696
301.697
301.699
301.702
301.704
301.707
301.711
301.714
301.719
301.723
301.728
301.733
301.739
301.745
301.751
301.758
301.765
301.773
301.781
301.789
301.798
301.807
301.817
301.827
301.837
301.848
301.859
301.871
301.883
301.895
301.908
301.921
301.935
301.949
301.964
301.979
301.995
302.011
302.027
302.045
302.062
302.08
302.099
302.118
302.138
302.158
302.179
302.2
302.222
302.244
302.267
302.291
302.315
302.34
302.365
302.391
302.418
302.446
302.474
302.502
302.532
302.562
302.592
302.624
302.656
302.689
302.722
302.756
302.791
302.827
302.863
302.9
302.938
302.976
303.015
303.055
303.095
303.136
303.178
303.22
303.263
303.307
303.351
303.396
303.441
303.487
303.533
303.58
303.628
303.676
303.725
303.774
303.824
303.874
303.925
303.977
304.029
304.083
304.137
304.192
304.248
304.306
304.365
304.426
304.489
304.554
304.622
304.693
304.768
304.846
304.927
305.011
305.096
305.176
305.244
305.291
303.63
303.639
303.607
303.554
303.491
303.422
303.353
303.284
303.217
303.152
303.089
303.028
302.97
302.914
302.861
302.81
302.76
302.713
302.668
302.624
302.582
302.542
302.504
302.467
302.431
302.397
302.364
302.333
302.303
302.274
302.246
302.219
302.193
302.168
302.145
302.122
302.1
302.079
302.059
302.039
302.02
302.002
301.985
301.968
301.952
301.937
301.922
301.908
301.895
301.882
301.869
301.857
301.846
301.835
301.824
301.814
301.804
301.795
301.786
301.778
301.77
301.763
301.756
301.749
301.743
301.737
301.731
301.726
301.721
301.717
301.713
301.709
301.706
301.703
301.701
301.698
301.697
301.695
301.694
301.694
301.693
301.693
301.694
301.695
301.696
301.697
301.699
301.702
301.704
301.707
301.711
301.714
301.719
301.723
301.728
301.733
301.739
301.745
301.751
301.758
301.765
301.773
301.781
301.789
301.798
301.807
301.817
301.827
301.837
301.848
301.859
301.871
301.883
301.895
301.908
301.921
301.935
301.949
301.964
301.979
301.995
302.011
302.027
302.045
302.062
302.08
302.099
302.118
302.138
302.158
302.179
302.2
302.222
302.244
302.267
302.291
302.315
302.34
302.365
302.391
302.418
302.446
302.474
302.502
302.532
302.562
302.592
302.624
302.656
302.689
302.722
302.756
302.791
302.827
302.863
302.9
302.938
302.976
303.015
303.055
303.095
303.136
303.178
303.22
303.263
303.307
303.351
303.396
303.441
303.487
303.533
303.58
303.628
303.676
303.725
303.774
303.824
303.874
303.925
303.977
304.029
304.083
304.137
304.192
304.248
304.306
304.365
304.426
304.489
304.554
304.622
304.693
304.768
304.846
304.927
305.011
305.096
305.176
305.244
305.291
303.25
303.261
303.244
303.209
303.164
303.112
303.057
303.001
302.944
302.888
302.834
302.78
302.728
302.678
302.63
302.583
302.538
302.494
302.452
302.411
302.372
302.335
302.299
302.264
302.23
302.198
302.167
302.137
302.109
302.081
302.054
302.029
302.004
301.981
301.958
301.936
301.915
301.894
301.875
301.856
301.838
301.82
301.804
301.787
301.772
301.757
301.743
301.729
301.715
301.703
301.69
301.678
301.667
301.656
301.646
301.636
301.626
301.617
301.608
301.6
301.592
301.584
301.577
301.57
301.564
301.557
301.552
301.546
301.541
301.537
301.532
301.528
301.525
301.522
301.519
301.516
301.514
301.512
301.511
301.51
301.509
301.509
301.508
301.509
301.509
301.51
301.512
301.514
301.516
301.518
301.521
301.524
301.528
301.532
301.536
301.541
301.546
301.551
301.557
301.563
301.569
301.576
301.584
301.591
301.599
301.608
301.617
301.626
301.636
301.646
301.656
301.667
301.679
301.69
301.703
301.715
301.728
301.742
301.756
301.77
301.785
301.801
301.817
301.833
301.85
301.867
301.885
301.904
301.923
301.942
301.962
301.983
302.004
302.026
302.048
302.071
302.095
302.119
302.144
302.169
302.195
302.222
302.249
302.277
302.306
302.336
302.366
302.396
302.428
302.46
302.492
302.526
302.56
302.595
302.63
302.666
302.703
302.741
302.779
302.818
302.857
302.897
302.938
302.979
303.021
303.064
303.107
303.15
303.194
303.239
303.284
303.329
303.376
303.422
303.469
303.517
303.565
303.613
303.662
303.711
303.761
303.812
303.863
303.915
303.967
304.021
304.076
304.131
304.188
304.246
304.306
304.367
304.43
304.494
304.558
304.621
304.68
304.731
304.769
304.788
303.25
303.261
303.244
303.209
303.164
303.112
303.057
303.001
302.944
302.888
302.834
302.78
302.728
302.678
302.63
302.583
302.538
302.494
302.452
302.411
302.372
302.335
302.299
302.264
302.23
302.198
302.167
302.137
302.109
302.081
302.054
302.029
302.004
301.981
301.958
301.936
301.915
301.894
301.875
301.856
301.838
301.82
301.804
301.787
301.772
301.757
301.743
301.729
301.715
301.703
301.69
301.678
301.667
301.656
301.646
301.636
301.626
301.617
301.608
301.6
301.592
301.584
301.577
301.57
301.564
301.557
301.552
301.546
301.541
301.537
301.532
301.528
301.525
301.522
301.519
301.516
301.514
301.512
301.511
301.51
301.509
301.509
301.508
301.509
301.509
301.51
301.512
301.514
301.516
301.518
301.521
301.524
301.528
301.532
301.536
301.541
301.546
301.551
301.557
301.563
301.569
301.576
301.584
301.591
301.599
301.608
301.617
301.626
301.636
301.646
301.656
301.667
301.679
301.69
301.703
301.715
301.728
301.742
301.756
301.77
301.785
301.801
301.817
301.833
301.85
301.867
301.885
301.904
301.923
301.942
301.962
301.983
302.004
302.026
302.048
302.071
302.095
302.119
302.144
302.169
302.195
302.222
302.249
302.277
302.306
302.336
302.366
302.396
302.428
302.46
302.492
302.526
302.56
302.595
302.63
302.666
302.703
302.741
302.779
302.818
302.857
302.897
302.938
302.979
303.021
303.064
303.107
303.15
303.194
303.239
303.284
303.329
303.376
303.422
303.469
303.517
303.565
303.613
303.662
303.711
303.761
303.812
303.863
303.915
303.967
304.021
304.076
304.131
304.188
304.246
304.306
304.367
304.43
304.494
304.558
304.621
304.68
304.731
304.769
304.788
302.951
302.959
302.948
302.924
302.89
302.85
302.805
302.759
302.711
302.663
302.615
302.568
302.521
302.476
302.432
302.389
302.347
302.307
302.268
302.23
302.193
302.158
302.124
302.091
302.059
302.029
301.999
301.971
301.944
301.917
301.892
301.867
301.844
301.821
301.799
301.778
301.757
301.738
301.719
301.7
301.683
301.666
301.649
301.634
301.618
301.604
301.59
301.576
301.563
301.55
301.538
301.527
301.515
301.505
301.494
301.484
301.475
301.465
301.457
301.448
301.44
301.433
301.425
301.418
301.412
301.405
301.399
301.394
301.389
301.384
301.379
301.375
301.371
301.368
301.365
301.362
301.359
301.357
301.355
301.354
301.353
301.352
301.352
301.352
301.352
301.353
301.354
301.355
301.357
301.359
301.361
301.364
301.367
301.37
301.374
301.378
301.383
301.388
301.393
301.399
301.405
301.411
301.418
301.425
301.433
301.441
301.449
301.458
301.467
301.476
301.486
301.497
301.508
301.519
301.531
301.543
301.555
301.568
301.582
301.596
301.61
301.625
301.64
301.656
301.673
301.69
301.707
301.725
301.743
301.762
301.782
301.802
301.823
301.844
301.866
301.888
301.911
301.935
301.959
301.984
302.009
302.036
302.062
302.09
302.118
302.147
302.176
302.206
302.237
302.268
302.301
302.333
302.367
302.401
302.436
302.471
302.507
302.544
302.582
302.62
302.658
302.697
302.737
302.778
302.819
302.86
302.902
302.945
302.988
303.031
303.075
303.119
303.164
303.209
303.255
303.3
303.347
303.393
303.44
303.488
303.535
303.583
303.632
303.681
303.73
303.78
303.83
303.881
303.933
303.985
304.037
304.09
304.143
304.195
304.246
304.294
304.336
304.37
304.392
304.398
302.951
302.959
302.948
302.924
302.89
302.85
302.805
302.759
302.711
302.663
302.615
302.568
302.521
302.476
302.432
302.389
302.347
302.307
302.268
302.23
302.193
302.158
302.124
302.091
302.059
302.029
301.999
301.971
301.944
301.917
301.892
301.867
301.844
301.821
301.799
301.778
301.757
301.738
301.719
301.7
301.683
301.666
301.649
301.634
301.618
301.604
301.59
301.576
301.563
301.55
301.538
301.527
301.515
301.505
301.494
301.484
301.475
301.465
301.457
301.448
301.44
301.433
301.425
301.418
301.412
301.405
301.399
301.394
301.389
301.384
301.379
301.375
301.371
301.368
301.365
301.362
301.359
301.357
301.355
301.354
301.353
301.352
301.352
301.352
301.352
301.353
301.354
301.355
301.357
301.359
301.361
301.364
301.367
301.37
301.374
301.378
301.383
301.388
301.393
301.399
301.405
301.411
301.418
301.425
301.433
301.441
301.449
301.458
301.467
301.476
301.486
301.497
301.508
301.519
301.531
301.543
301.555
301.568
301.582
301.596
301.61
301.625
301.64
301.656
301.673
301.69
301.707
301.725
301.743
301.762
301.782
301.802
301.823
301.844
301.866
301.888
301.911
301.935
301.959
301.984
302.009
302.036
302.062
302.09
302.118
302.147
302.176
302.206
302.237
302.268
302.301
302.333
302.367
302.401
302.436
302.471
302.507
302.544
302.582
302.62
302.658
302.697
302.737
302.778
302.819
302.86
302.902
302.945
302.988
303.031
303.075
303.119
303.164
303.209
303.255
303.3
303.347
303.393
303.44
303.488
303.535
303.583
303.632
303.681
303.73
303.78
303.83
303.881
303.933
303.985
304.037
304.09
304.143
304.195
304.246
304.294
304.336
304.37
304.392
304.398
302.703
302.708
302.7
302.681
302.655
302.622
302.586
302.547
302.506
302.464
302.422
302.38
302.338
302.297
302.256
302.217
302.179
302.141
302.105
302.069
302.035
302.002
301.97
301.939
301.909
301.879
301.851
301.824
301.798
301.773
301.748
301.725
301.702
301.68
301.659
301.638
301.619
301.6
301.581
301.563
301.546
301.53
301.514
301.498
301.484
301.469
301.455
301.442
301.429
301.417
301.405
301.393
301.382
301.371
301.361
301.351
301.342
301.333
301.324
301.315
301.307
301.299
301.292
301.285
301.278
301.272
301.266
301.26
301.255
301.25
301.245
301.241
301.237
301.233
301.23
301.227
301.224
301.222
301.22
301.218
301.216
301.215
301.215
301.214
301.214
301.215
301.215
301.216
301.217
301.219
301.221
301.223
301.226
301.229
301.233
301.236
301.241
301.245
301.25
301.255
301.261
301.267
301.273
301.28
301.287
301.295
301.303
301.311
301.32
301.329
301.338
301.348
301.359
301.37
301.381
301.393
301.405
301.417
301.43
301.444
301.458
301.472
301.487
301.503
301.519
301.535
301.552
301.569
301.587
301.606
301.625
301.645
301.665
301.686
301.707
301.729
301.752
301.775
301.799
301.823
301.848
301.874
301.9
301.927
301.955
301.983
302.012
302.041
302.072
302.103
302.134
302.166
302.199
302.233
302.267
302.302
302.337
302.373
302.41
302.447
302.485
302.524
302.563
302.602
302.643
302.683
302.724
302.766
302.808
302.85
302.893
302.936
302.979
303.023
303.067
303.112
303.156
303.201
303.246
303.292
303.337
303.383
303.429
303.475
303.521
303.568
303.614
303.661
303.708
303.754
303.801
303.847
303.891
303.935
303.976
304.012
304.044
304.067
304.08
304.08
302.703
302.708
302.7
302.681
302.655
302.622
302.586
302.547
302.506
302.464
302.422
302.38
302.338
302.297
302.256
302.217
302.179
302.141
302.105
302.069
302.035
302.002
301.97
301.939
301.909
301.879
301.851
301.824
301.798
301.773
301.748
301.725
301.702
301.68
301.659
301.638
301.619
301.6
301.581
301.563
301.546
301.53
301.514
301.498
301.484
301.469
301.455
301.442
301.429
301.417
301.405
301.393
301.382
301.371
301.361
301.351
301.342
301.333
301.324
301.315
301.307
301.299
301.292
301.285
301.278
301.272
301.266
301.26
301.255
301.25
301.245
301.241
301.237
301.233
301.23
301.227
301.224
301.222
301.22
301.218
301.216
301.215
301.215
301.214
301.214
301.214
301.215
301.216
301.217
301.219
301.221
301.223
301.226
301.229
301.233
301.236
301.241
301.245
301.25
301.255
301.261
301.267
301.273
301.28
301.287
301.295
301.303
301.311
301.32
301.329
301.338
301.348
301.359
301.37
301.381
301.393
301.405
301.417
301.43
301.444
301.458
301.472
301.487
301.503
301.519
301.535
301.552
301.569
301.587
301.606
301.625
301.645
301.665
301.686
301.707
301.729
301.752
301.775
301.799
301.823
301.848
301.874
301.9
301.927
301.955
301.983
302.012
302.041
302.072
302.103
302.134
302.166
302.199
302.233
302.267
302.302
302.337
302.373
302.41
302.447
302.485
302.524
302.563
302.602
302.643
302.683
302.724
302.766
302.808
302.85
302.893
302.936
302.979
303.023
303.067
303.112
303.156
303.201
303.246
303.292
303.337
303.383
303.429
303.475
303.521
303.568
303.614
303.661
303.708
303.754
303.801
303.847
303.891
303.935
303.976
304.012
304.044
304.067
304.08
304.08
302.49
302.492
302.485
302.47
302.448
302.421
302.39
302.357
302.322
302.285
302.248
302.21
302.172
302.135
302.098
302.062
302.026
301.991
301.957
301.924
301.892
301.861
301.83
301.801
301.772
301.745
301.718
301.692
301.667
301.642
301.619
301.596
301.574
301.553
301.533
301.513
301.494
301.475
301.457
301.44
301.424
301.407
301.392
301.377
301.362
301.348
301.335
301.321
301.309
301.297
301.285
301.273
301.262
301.252
301.241
301.232
301.222
301.213
301.204
301.196
301.188
301.18
301.172
301.165
301.159
301.152
301.146
301.14
301.135
301.13
301.125
301.12
301.116
301.112
301.109
301.105
301.102
301.1
301.098
301.096
301.094
301.093
301.092
301.091
301.091
301.091
301.091
301.092
301.093
301.094
301.096
301.098
301.1
301.103
301.106
301.11
301.113
301.118
301.122
301.127
301.132
301.138
301.144
301.15
301.157
301.164
301.172
301.18
301.188
301.197
301.206
301.216
301.226
301.236
301.247
301.258
301.27
301.282
301.295
301.308
301.322
301.336
301.35
301.366
301.381
301.397
301.414
301.431
301.448
301.467
301.485
301.505
301.524
301.545
301.566
301.587
301.61
301.632
301.656
301.68
301.704
301.73
301.755
301.782
301.809
301.837
301.865
301.894
301.924
301.955
301.986
302.017
302.05
302.083
302.116
302.151
302.186
302.221
302.257
302.294
302.331
302.369
302.407
302.446
302.485
302.525
302.565
302.606
302.647
302.688
302.73
302.772
302.814
302.857
302.9
302.943
302.986
303.029
303.072
303.116
303.159
303.203
303.246
303.29
303.333
303.377
303.42
303.463
303.505
303.547
303.588
303.628
303.666
303.703
303.736
303.765
303.789
303.805
303.813
303.811
302.49
302.492
302.485
302.47
302.448
302.421
302.39
302.357
302.322
302.285
302.248
302.21
302.172
302.135
302.098
302.062
302.026
301.991
301.957
301.924
301.892
301.861
301.83
301.801
301.772
301.745
301.718
301.692
301.667
301.642
301.619
301.596
301.574
301.553
301.533
301.513
301.494
301.475
301.457
301.44
301.424
301.407
301.392
301.377
301.362
301.348
301.335
301.321
301.309
301.297
301.285
301.273
301.262
301.252
301.241
301.232
301.222
301.213
301.204
301.196
301.188
301.18
301.172
301.165
301.159
301.152
301.146
301.14
301.135
301.13
301.125
301.12
301.116
301.112
301.109
301.105
301.102
301.1
301.098
301.096
301.094
301.093
301.092
301.091
301.091
301.091
301.091
301.092
301.093
301.094
301.096
301.098
301.1
301.103
301.106
301.11
301.113
301.118
301.122
301.127
301.132
301.138
301.144
301.15
301.157
301.164
301.172
301.18
301.188
301.197
301.206
301.216
301.226
301.236
301.247
301.258
301.27
301.282
301.295
301.308
301.322
301.336
301.35
301.366
301.381
301.397
301.414
301.431
301.448
301.467
301.485
301.505
301.524
301.545
301.566
301.587
301.61
301.632
301.656
301.68
301.704
301.73
301.755
301.782
301.809
301.837
301.865
301.894
301.924
301.955
301.986
302.017
302.05
302.083
302.116
302.151
302.186
302.221
302.257
302.294
302.331
302.369
302.407
302.446
302.485
302.525
302.565
302.606
302.647
302.688
302.73
302.772
302.814
302.857
302.9
302.943
302.986
303.029
303.072
303.116
303.159
303.203
303.246
303.29
303.333
303.377
303.42
303.463
303.505
303.547
303.588
303.628
303.666
303.703
303.736
303.765
303.789
303.805
303.813
303.811
302.302
302.302
302.295
302.282
302.263
302.241
302.214
302.185
302.154
302.122
302.089
302.055
302.021
301.986
301.953
301.919
301.886
301.854
301.822
301.791
301.76
301.731
301.702
301.674
301.647
301.621
301.595
301.57
301.546
301.523
301.5
301.478
301.457
301.437
301.417
301.398
301.379
301.361
301.344
301.327
301.311
301.295
301.28
301.265
301.251
301.237
301.224
301.211
301.198
301.186
301.175
301.163
301.153
301.142
301.132
301.122
301.113
301.104
301.095
301.086
301.078
301.071
301.063
301.056
301.049
301.043
301.036
301.03
301.025
301.02
301.015
301.01
301.006
301.002
300.998
300.994
300.991
300.989
300.986
300.984
300.982
300.981
300.979
300.979
300.978
300.978
300.978
300.978
300.979
300.98
300.982
300.983
300.986
300.988
300.991
300.994
300.998
301.001
301.006
301.01
301.015
301.021
301.026
301.032
301.039
301.046
301.053
301.061
301.069
301.077
301.086
301.095
301.105
301.115
301.126
301.137