/*--------------------------------*- C++ -*----------------------------------*\
  =========                 |
  \\      /  F ield         | OpenFOAM: The Open Source CFD Toolbox
   \\    /   O peration     | Website:  https://openfoam.org
    \\  /    A nd           | Version:  8
     \\/     M anipulation  |
\*---------------------------------------------------------------------------*/
FoamFile
{
    version     2.0;
    format      ascii;
    class       volVectorField;
    location    "3800";
    object      U;
}
// * * * * * * * * * * * * * * * * * * * * * * * * * * * * * * * * * * * * * //

dimensions      [0 1 -1 0 0 0 0];

internalField   nonuniform List<vector> 
46000
(
(0.00172534 -6.65895e-08 -0.00176041)
(0.00890366 6.03692e-07 -0.00520847)
(0.016464 4.37504e-07 -0.00503913)
(0.0218228 1.7519e-07 -0.00321306)
(0.0244358 2.4529e-08 -0.00125972)
(0.024599 -2.84091e-08 0.000439302)
(0.0227059 -3.00263e-08 0.00181111)
(0.0191758 -1.64421e-08 0.00287993)
(0.0143583 -3.9378e-09 0.00370072)
(0.00853813 5.1181e-09 0.00432857)
(0.00194426 1.18343e-08 0.0048031)
(-0.00525859 1.61041e-08 0.00514696)
(-0.0128913 1.85035e-08 0.00538764)
(-0.0208622 2.03564e-08 0.00555555)
(-0.0290733 2.22488e-08 0.00566642)
(-0.0374533 2.38829e-08 0.0057319)
(-0.0459424 2.49868e-08 0.00576093)
(-0.054492 2.56979e-08 0.00576046)
(-0.0630612 2.62921e-08 0.00573593)
(-0.0716163 2.68797e-08 0.00569164)
(-0.0801283 2.73455e-08 0.00563099)
(-0.0885729 2.74777e-08 0.00555673)
(-0.0969291 2.71945e-08 0.00547104)
(-0.105179 2.65447e-08 0.00537571)
(-0.113306 2.56953e-08 0.0052722)
(-0.121297 2.48114e-08 0.0051617)
(-0.12914 2.40081e-08 0.00504519)
(-0.136823 2.33462e-08 0.00492351)
(-0.144337 2.28239e-08 0.00479733)
(-0.151673 2.24228e-08 0.00466724)
(-0.158824 2.20995e-08 0.00453374)
(-0.165782 2.18447e-08 0.00439727)
(-0.172541 2.16543e-08 0.00425818)
(-0.179095 2.15124e-08 0.00411682)
(-0.185439 2.14182e-08 0.00397346)
(-0.191567 2.13732e-08 0.00382838)
(-0.197477 2.13309e-08 0.00368181)
(-0.203163 2.12546e-08 0.00353396)
(-0.208622 2.10926e-08 0.00338504)
(-0.213852 2.07884e-08 0.00323525)
(-0.218849 2.03288e-08 0.00308475)
(-0.223611 1.97186e-08 0.00293373)
(-0.228136 1.9003e-08 0.00278234)
(-0.232422 1.82401e-08 0.00263075)
(-0.236468 1.74916e-08 0.00247912)
(-0.240274 1.68097e-08 0.0023276)
(-0.243838 1.62271e-08 0.00217633)
(-0.247159 1.57444e-08 0.00202546)
(-0.250239 1.53459e-08 0.00187515)
(-0.253077 1.50023e-08 0.00172552)
(-0.255673 1.46797e-08 0.00157674)
(-0.258029 1.43479e-08 0.00142893)
(-0.260146 1.39897e-08 0.00128225)
(-0.262025 1.35999e-08 0.00113682)
(-0.263669 1.31686e-08 0.000992781)
(-0.265078 1.27065e-08 0.000850279)
(-0.266256 1.22304e-08 0.000709441)
(-0.267205 1.17519e-08 0.000570395)
(-0.267928 1.12943e-08 0.000433245)
(-0.268428 1.08616e-08 0.000298055)
(-0.268708 1.04647e-08 0.000164832)
(-0.268773 1.01128e-08 3.3653e-05)
(-0.268626 9.79499e-09 -9.50203e-05)
(-0.268271 9.50051e-09 -0.000220907)
(-0.267712 9.23017e-09 -0.000344142)
(-0.266954 8.97899e-09 -0.000464722)
(-0.266001 8.75277e-09 -0.000582568)
(-0.264859 8.5482e-09 -0.00069758)
(-0.263532 8.37192e-09 -0.000809662)
(-0.262025 8.22227e-09 -0.000918725)
(-0.260345 8.10008e-09 -0.00102469)
(-0.258495 7.99038e-09 -0.00112748)
(-0.256482 7.89566e-09 -0.00122703)
(-0.254312 7.81177e-09 -0.00132328)
(-0.25199 7.73788e-09 -0.00141617)
(-0.249523 7.66732e-09 -0.00150566)
(-0.246916 7.61175e-09 -0.0015917)
(-0.244175 7.572e-09 -0.00167426)
(-0.241306 7.55388e-09 -0.00175331)
(-0.238316 7.56572e-09 -0.00182882)
(-0.235211 7.60086e-09 -0.00190077)
(-0.231996 7.66847e-09 -0.00196915)
(-0.228678 7.76354e-09 -0.00203395)
(-0.225263 7.87942e-09 -0.00209517)
(-0.221758 8.0178e-09 -0.00215281)
(-0.218167 8.17367e-09 -0.00220689)
(-0.214499 8.33373e-09 -0.00225742)
(-0.210757 8.49632e-09 -0.00230442)
(-0.206949 8.66892e-09 -0.00234791)
(-0.203079 8.84072e-09 -0.00238793)
(-0.199155 9.01256e-09 -0.00242451)
(-0.195181 9.1836e-09 -0.0024577)
(-0.191164 9.35634e-09 -0.00248754)
(-0.187108 9.52413e-09 -0.00251408)
(-0.183019 9.69362e-09 -0.00253738)
(-0.178902 9.86314e-09 -0.0025575)
(-0.174763 1.00319e-08 -0.00257449)
(-0.170606 1.01948e-08 -0.00258843)
(-0.166436 1.03578e-08 -0.00259939)
(-0.162258 1.05217e-08 -0.00260743)
(-0.158076 1.06822e-08 -0.00261264)
(-0.153896 1.08512e-08 -0.00261509)
(-0.14972 1.10035e-08 -0.00261487)
(-0.145554 1.11625e-08 -0.00261206)
(-0.141401 1.13199e-08 -0.00260673)
(-0.137265 1.1479e-08 -0.00259899)
(-0.13315 1.16415e-08 -0.00258891)
(-0.129059 1.1799e-08 -0.00257659)
(-0.124995 1.19583e-08 -0.0025621)
(-0.120962 1.21242e-08 -0.00254554)
(-0.116962 1.22836e-08 -0.002527)
(-0.112999 1.24429e-08 -0.00250656)
(-0.109075 1.26007e-08 -0.0024843)
(-0.105193 1.27585e-08 -0.00246032)
(-0.101355 1.2913e-08 -0.00243469)
(-0.0975637 1.30642e-08 -0.0024075)
(-0.0938209 1.32005e-08 -0.00237881)
(-0.0901287 1.33335e-08 -0.00234871)
(-0.0864891 1.34498e-08 -0.00231726)
(-0.0829039 1.35529e-08 -0.00228455)
(-0.0793747 1.36576e-08 -0.00225062)
(-0.0759032 1.37424e-08 -0.00221554)
(-0.0724909 1.38155e-08 -0.00217938)
(-0.0691391 1.3882e-08 -0.00214217)
(-0.0658493 1.39302e-08 -0.00210397)
(-0.0626226 1.39801e-08 -0.00206483)
(-0.0594602 1.40082e-08 -0.00202479)
(-0.0563633 1.40265e-08 -0.00198387)
(-0.053333 1.40413e-08 -0.00194212)
(-0.0503702 1.40446e-08 -0.00189955)
(-0.0474761 1.40378e-08 -0.0018562)
(-0.0446516 1.40277e-08 -0.00181207)
(-0.0418976 1.40059e-08 -0.00176719)
(-0.039215 1.39875e-08 -0.00172156)
(-0.0366049 1.3954e-08 -0.00167518)
(-0.0340681 1.3929e-08 -0.00162808)
(-0.0316056 1.38855e-08 -0.00158024)
(-0.0292182 1.38571e-08 -0.00153167)
(-0.026907 1.38137e-08 -0.00148236)
(-0.0246728 1.37803e-08 -0.00143231)
(-0.0225166 1.37519e-08 -0.00138152)
(-0.0204394 1.37018e-08 -0.00132998)
(-0.0184422 1.36584e-08 -0.0012777)
(-0.0165258 1.36201e-08 -0.00122467)
(-0.0146913 1.35783e-08 -0.00117089)
(-0.0129398 1.35433e-08 -0.00111637)
(-0.0112721 1.35116e-08 -0.00106112)
(-0.00968918 1.34699e-08 -0.00100516)
(-0.00819207 1.34349e-08 -0.000948507)
(-0.00678165 1.33966e-08 -0.000891192)
(-0.00545879 1.33583e-08 -0.000833253)
(-0.00422432 1.333e-08 -0.00077474)
(-0.00307897 1.33017e-08 -0.000715715)
(-0.0020234 1.32667e-08 -0.000656271)
(-0.0010581 1.32384e-08 -0.000596591)
(-0.00018342 1.31968e-08 -0.000536622)
(0.00060033 1.31183e-08 -0.000476232)
(0.00129255 1.30598e-08 -0.000415697)
(0.00189348 1.30316e-08 -0.000355286)
(0.00240321 1.30134e-08 -0.000295154)
(0.00282216 1.30254e-08 -0.000235465)
(0.00315098 1.30777e-08 -0.000176393)
(0.00339059 1.31602e-08 -0.000118134)
(0.00354222 1.32796e-08 -6.09003e-05)
(0.00360738 1.34327e-08 -4.92076e-06)
(0.00358802 1.36426e-08 4.95903e-05)
(0.00348633 1.39066e-08 0.000102384)
(0.00330491 1.41673e-08 0.000153165)
(0.00304684 1.44181e-08 0.000201636)
(0.00271564 1.46455e-08 0.00024748)
(0.00231533 1.48125e-08 0.000290358)
(0.00185044 1.49191e-08 0.000329913)
(0.00132607 1.49351e-08 0.000365768)
(0.000747905 1.49073e-08 0.000397523)
(0.00012228 1.48392e-08 0.000424719)
(-0.000544035 1.47846e-08 0.000446746)
(-0.00124282 1.48815e-08 0.000463107)
(-0.00196592 1.51602e-08 0.000473412)
(-0.00270398 1.56949e-08 0.000477227)
(-0.00344691 1.64017e-08 0.000473993)
(-0.00418369 1.7257e-08 0.000463024)
(-0.00490226 1.81096e-08 0.000443706)
(-0.00558954 1.88988e-08 0.000415347)
(-0.00623124 1.96279e-08 0.000377197)
(-0.00681182 2.04487e-08 0.000328467)
(-0.0073144 2.15064e-08 0.000268308)
(-0.00772061 2.29293e-08 0.000195847)
(-0.00801062 2.47046e-08 0.000110207)
(-0.0081631 2.66234e-08 1.05933e-05)
(-0.00815537 2.85385e-08 -0.000103397)
(-0.00796413 3.03945e-08 -0.000231561)
(-0.00756645 3.24157e-08 -0.000372694)
(-0.00694147 3.47721e-08 -0.000523372)
(-0.00607459 3.7303e-08 -0.000675819)
(-0.00496491 3.98208e-08 -0.000814119)
(-0.0036399 4.27823e-08 -0.000907163)
(-0.00217948 4.74686e-08 -0.0008966)
(-0.000765454 5.42614e-08 -0.000677209)
(0.000266061 7.4939e-08 -0.000151293)
(0.000288475 5.31254e-08 0.000310502)
(0.00172605 -6.65893e-08 -0.0017621)
(0.00890399 6.03687e-07 -0.00521016)
(0.0164637 4.37499e-07 -0.00504002)
(0.0218225 1.75188e-07 -0.0032135)
(0.0244357 2.45287e-08 -0.00125995)
(0.0245989 -2.84088e-08 0.000439168)
(0.0227058 -3.0026e-08 0.00181102)
(0.0191757 -1.64419e-08 0.00287986)
(0.0143582 -3.93777e-09 0.00370066)
(0.00853805 5.11807e-09 0.00432852)
(0.00194419 1.18342e-08 0.00480306)
(-0.00525864 1.6104e-08 0.00514692)
(-0.0128913 1.85034e-08 0.00538761)
(-0.0208622 2.03563e-08 0.00555552)
(-0.0290733 2.22486e-08 0.0056664)
(-0.0374533 2.38828e-08 0.00573188)
(-0.0459424 2.49867e-08 0.00576091)
(-0.0544919 2.56978e-08 0.00576044)
(-0.0630612 2.6292e-08 0.00573592)
(-0.0716162 2.68796e-08 0.00569162)
(-0.0801282 2.73454e-08 0.00563098)
(-0.0885727 2.74776e-08 0.00555671)
(-0.0969289 2.71944e-08 0.00547103)
(-0.105179 2.65446e-08 0.0053757)
(-0.113306 2.56952e-08 0.00527219)
(-0.121297 2.48113e-08 0.00516169)
(-0.129139 2.4008e-08 0.00504518)
(-0.136823 2.33461e-08 0.0049235)
(-0.144337 2.28238e-08 0.00479732)
(-0.151673 2.24227e-08 0.00466723)
(-0.158824 2.20994e-08 0.00453374)
(-0.165782 2.18447e-08 0.00439726)
(-0.172541 2.16543e-08 0.00425817)
(-0.179095 2.15124e-08 0.00411681)
(-0.185438 2.14181e-08 0.00397345)
(-0.191567 2.13732e-08 0.00382837)
(-0.197476 2.13308e-08 0.00368179)
(-0.203162 2.12545e-08 0.00353394)
(-0.208622 2.10926e-08 0.00338503)
(-0.213851 2.07884e-08 0.00323523)
(-0.218848 2.03287e-08 0.00308473)
(-0.22361 1.97186e-08 0.00293371)
(-0.228135 1.90029e-08 0.00278232)
(-0.232422 1.82401e-08 0.00263073)
(-0.236468 1.74915e-08 0.0024791)
(-0.240273 1.68097e-08 0.00232757)
(-0.243837 1.62271e-08 0.0021763)
(-0.247159 1.57444e-08 0.00202543)
(-0.250239 1.53458e-08 0.00187512)
(-0.253076 1.50023e-08 0.00172549)
(-0.255673 1.46796e-08 0.00157671)
(-0.258029 1.43479e-08 0.0014289)
(-0.260146 1.39896e-08 0.00128221)
(-0.262025 1.35998e-08 0.00113678)
(-0.263668 1.31685e-08 0.000992744)
(-0.265078 1.27065e-08 0.000850241)
(-0.266255 1.22304e-08 0.000709403)
(-0.267204 1.17519e-08 0.000570355)
(-0.267927 1.12942e-08 0.000433204)
(-0.268427 1.08616e-08 0.000298013)
(-0.268708 1.04647e-08 0.00016479)
(-0.268773 1.01128e-08 3.36102e-05)
(-0.268625 9.79497e-09 -9.50637e-05)
(-0.26827 9.50049e-09 -0.000220951)
(-0.267711 9.23015e-09 -0.000344186)
(-0.266953 8.97897e-09 -0.000464767)
(-0.266001 8.75276e-09 -0.000582614)
(-0.264858 8.54819e-09 -0.000697627)
(-0.263531 8.37191e-09 -0.00080971)
(-0.262025 8.22226e-09 -0.000918774)
(-0.260344 8.10006e-09 -0.00102474)
(-0.258495 7.99036e-09 -0.00112753)
(-0.256482 7.89565e-09 -0.00122708)
(-0.254312 7.81176e-09 -0.00132333)
(-0.25199 7.73786e-09 -0.00141622)
(-0.249523 7.66731e-09 -0.00150572)
(-0.246915 7.61174e-09 -0.00159176)
(-0.244174 7.57198e-09 -0.00167432)
(-0.241306 7.55387e-09 -0.00175337)
(-0.238316 7.56571e-09 -0.00182888)
(-0.23521 7.60085e-09 -0.00190083)
(-0.231995 7.66845e-09 -0.00196921)
(-0.228678 7.76352e-09 -0.00203401)
(-0.225263 7.87941e-09 -0.00209523)
(-0.221757 8.01778e-09 -0.00215288)
(-0.218167 8.17365e-09 -0.00220696)
(-0.214498 8.33371e-09 -0.00225749)
(-0.210757 8.4963e-09 -0.00230449)
(-0.206948 8.6689e-09 -0.00234798)
(-0.203079 8.8407e-09 -0.002388)
(-0.199155 9.01254e-09 -0.00242459)
(-0.195181 9.18358e-09 -0.00245778)
(-0.191163 9.35633e-09 -0.00248762)
(-0.187107 9.52411e-09 -0.00251416)
(-0.183018 9.6936e-09 -0.00253746)
(-0.178902 9.86313e-09 -0.00255758)
(-0.174762 1.00319e-08 -0.00257457)
(-0.170605 1.01948e-08 -0.00258851)
(-0.166435 1.03578e-08 -0.00259947)
(-0.162258 1.05216e-08 -0.00260752)
(-0.158076 1.06822e-08 -0.00261273)
(-0.153896 1.08511e-08 -0.00261518)
(-0.14972 1.10035e-08 -0.00261496)
(-0.145554 1.11625e-08 -0.00261215)
(-0.141401 1.13199e-08 -0.00260683)
(-0.137265 1.1479e-08 -0.00259908)
(-0.13315 1.16415e-08 -0.00258901)
(-0.129059 1.1799e-08 -0.00257668)
(-0.124995 1.19583e-08 -0.0025622)
(-0.120962 1.21242e-08 -0.00254564)
(-0.116962 1.22835e-08 -0.0025271)
(-0.112999 1.24429e-08 -0.00250666)
(-0.109075 1.26007e-08 -0.00248441)
(-0.105193 1.27585e-08 -0.00246043)
(-0.101355 1.2913e-08 -0.0024348)
(-0.0975635 1.30642e-08 -0.0024076)
(-0.0938206 1.32005e-08 -0.00237892)
(-0.0901285 1.33335e-08 -0.00234882)
(-0.0864889 1.34498e-08 -0.00231738)
(-0.0829036 1.35529e-08 -0.00228466)
(-0.0793745 1.36576e-08 -0.00225074)
(-0.075903 1.37424e-08 -0.00221566)
(-0.0724907 1.38155e-08 -0.0021795)
(-0.069139 1.3882e-08 -0.00214229)
(-0.0658491 1.39302e-08 -0.0021041)
(-0.0626224 1.398e-08 -0.00206496)
(-0.05946 1.40082e-08 -0.00202492)
(-0.0563631 1.40264e-08 -0.001984)
(-0.0533328 1.40413e-08 -0.00194225)
(-0.0503701 1.40445e-08 -0.00189969)
(-0.0474759 1.40378e-08 -0.00185633)
(-0.0446514 1.40277e-08 -0.00181221)
(-0.0418974 1.40059e-08 -0.00176733)
(-0.0392149 1.39875e-08 -0.0017217)
(-0.0366047 1.3954e-08 -0.00167533)
(-0.034068 1.39289e-08 -0.00162822)
(-0.0316054 1.38855e-08 -0.00158039)
(-0.0292181 1.38571e-08 -0.00153182)
(-0.0269068 1.38137e-08 -0.00148251)
(-0.0246726 1.37803e-08 -0.00143246)
(-0.0225165 1.37519e-08 -0.00138167)
(-0.0204393 1.37018e-08 -0.00133014)
(-0.018442 1.36584e-08 -0.00127786)
(-0.0165256 1.362e-08 -0.00122482)
(-0.0146912 1.35783e-08 -0.00117105)
(-0.0129396 1.35433e-08 -0.00111653)
(-0.0112719 1.35116e-08 -0.00106129)
(-0.009689 1.34699e-08 -0.00100533)
(-0.00819189 1.34349e-08 -0.000948675)
(-0.00678147 1.33966e-08 -0.000891362)
(-0.00545861 1.33582e-08 -0.000833425)
(-0.00422413 1.333e-08 -0.000774913)
(-0.00307878 1.33017e-08 -0.000715889)
(-0.00202321 1.32667e-08 -0.000656447)
(-0.00105792 1.32384e-08 -0.000596769)
(-0.000183237 1.31968e-08 -0.000536802)
(0.000600512 1.31182e-08 -0.000476413)
(0.00129273 1.30598e-08 -0.00041588)
(0.00189366 1.30316e-08 -0.000355469)
(0.00240339 1.30134e-08 -0.000295339)
(0.00282234 1.30254e-08 -0.000235651)
(0.00315116 1.30776e-08 -0.000176581)
(0.00339077 1.31601e-08 -0.000118324)
(0.00354239 1.32796e-08 -6.10916e-05)
(0.00360755 1.34326e-08 -5.11367e-06)
(0.0035882 1.36426e-08 4.93957e-05)
(0.0034865 1.39066e-08 0.000102188)
(0.00330507 1.41673e-08 0.000152967)
(0.003047 1.44181e-08 0.000201436)
(0.0027158 1.46455e-08 0.000247277)
(0.00231548 1.48125e-08 0.000290153)
(0.00185059 1.49191e-08 0.000329706)
(0.00132622 1.4935e-08 0.000365558)
(0.000748043 1.49073e-08 0.000397311)
(0.000122413 1.48392e-08 0.000424505)
(-0.000543908 1.47846e-08 0.00044653)
(-0.0012427 1.48815e-08 0.000462889)
(-0.00196581 1.51602e-08 0.000473191)
(-0.00270388 1.56949e-08 0.000477003)
(-0.00344681 1.64016e-08 0.000473767)
(-0.00418359 1.7257e-08 0.000462795)
(-0.00490218 1.81096e-08 0.000443474)
(-0.00558946 1.88988e-08 0.000415111)
(-0.00623117 1.96279e-08 0.000376958)
(-0.00681176 2.04487e-08 0.000328224)
(-0.00731434 2.15063e-08 0.000268061)
(-0.00772057 2.29293e-08 0.000195596)
(-0.00801058 2.47045e-08 0.00010995)
(-0.00816307 2.66234e-08 1.03295e-05)
(-0.00815535 2.85385e-08 -0.000103668)
(-0.00796411 3.03945e-08 -0.000231841)
(-0.00756644 3.24157e-08 -0.000372986)
(-0.00694147 3.4772e-08 -0.000523677)
(-0.0060746 3.73029e-08 -0.00067614)
(-0.00496494 3.98207e-08 -0.00081446)
(-0.00363994 4.27822e-08 -0.000907528)
(-0.00217954 4.74685e-08 -0.000896993)
(-0.000765533 5.42613e-08 -0.000677629)
(0.000265853 7.49389e-08 -0.000151723)
(0.000288301 5.31255e-08 0.000310162)
(0.00498469 -7.12244e-07 -0.00941192)
(0.0107982 -8.65922e-08 -0.0112957)
(0.0139726 2.07057e-08 -0.00897903)
(0.015467 1.74334e-08 -0.00523319)
(0.0152318 3.54959e-09 -0.00146653)
(0.0135048 -3.79355e-09 0.00184492)
(0.0104605 -4.35306e-09 0.00458584)
(0.0062849 -2.24317e-09 0.0067887)
(0.00115932 -2.63323e-10 0.00853331)
(-0.0047501 1.15731e-09 0.00990185)
(-0.0112869 2.37622e-09 0.0109646)
(-0.0183301 3.41281e-09 0.0117767)
(-0.0257706 4.3098e-09 0.0123881)
(-0.0335203 5.19601e-09 0.0128424)
(-0.0415012 6.09314e-09 0.0131694)
(-0.0496496 6.88006e-09 0.0133927)
(-0.0579115 7.49026e-09 0.0135306)
(-0.0662413 7.94093e-09 0.0135977)
(-0.0746003 8.27293e-09 0.0136055)
(-0.0829557 8.49342e-09 0.0135635)
(-0.091279 8.56835e-09 0.013479)
(-0.0995459 8.47367e-09 0.0133582)
(-0.107735 8.21778e-09 0.013206)
(-0.115828 7.85477e-09 0.0130267)
(-0.123809 7.44496e-09 0.0128235)
(-0.131663 7.04488e-09 0.0125993)
(-0.139377 6.68733e-09 0.0123565)
(-0.14694 6.38643e-09 0.012097)
(-0.154342 6.1409e-09 0.0118228)
(-0.161574 5.94697e-09 0.0115351)
(-0.168627 5.79466e-09 0.0112353)
(-0.175494 5.67397e-09 0.0109246)
(-0.182169 5.56952e-09 0.010604)
(-0.188644 5.45268e-09 0.0102744)
(-0.194915 5.30266e-09 0.00993657)
(-0.200976 5.09125e-09 0.00959136)
(-0.206823 4.80185e-09 0.00923945)
(-0.212451 4.43615e-09 0.00888152)
(-0.217858 4.00701e-09 0.00851821)
(-0.223039 3.53977e-09 0.00815013)
(-0.227991 3.06846e-09 0.00777785)
(-0.232713 2.62545e-09 0.00740197)
(-0.237201 2.23644e-09 0.00702303)
(-0.241455 1.91346e-09 0.00664157)
(-0.245472 1.66438e-09 0.00625813)
(-0.249251 1.4784e-09 0.00587324)
(-0.252792 1.34098e-09 0.00548742)
(-0.256093 1.23303e-09 0.00510117)
(-0.259155 1.13546e-09 0.00471502)
(-0.261978 1.03583e-09 0.00432946)
(-0.264562 9.20874e-10 0.00394498)
(-0.266909 7.84773e-10 0.00356207)
(-0.269018 6.33754e-10 0.00318123)
(-0.270891 4.68647e-10 0.00280292)
(-0.27253 2.94844e-10 0.00242761)
(-0.273937 1.23542e-10 0.00205577)
(-0.275114 -3.94553e-11 0.00168785)
(-0.276063 -1.8627e-10 0.0013243)
(-0.276787 -3.11513e-10 0.000965536)
(-0.277289 -4.16846e-10 0.000611991)
(-0.277572 -4.98954e-10 0.000264061)
(-0.27764 -5.66132e-10 -7.78696e-05)
(-0.277497 -6.18795e-10 -0.000413538)
(-0.277145 -6.58188e-10 -0.000742673)
(-0.27659 -6.85971e-10 -0.00106492)
(-0.275836 -7.02145e-10 -0.00137996)
(-0.274886 -7.11271e-10 -0.00168747)
(-0.273747 -7.08789e-10 -0.00198713)
(-0.272422 -6.95942e-10 -0.00227868)
(-0.270918 -6.76463e-10 -0.00256186)
(-0.269238 -6.5118e-10 -0.00283643)
(-0.267388 -6.25898e-10 -0.00310218)
(-0.265375 -6.00203e-10 -0.00335893)
(-0.263202 -5.76167e-10 -0.0036065)
(-0.260876 -5.55863e-10 -0.00384474)
(-0.258403 -5.38462e-10 -0.00407354)
(-0.255789 -5.20647e-10 -0.00429278)
(-0.253038 -5.01588e-10 -0.00450237)
(-0.250158 -4.80043e-10 -0.00470225)
(-0.247154 -4.5601e-10 -0.00489237)
(-0.244032 -4.28245e-10 -0.0050727)
(-0.240798 -3.98822e-10 -0.00524324)
(-0.237458 -3.66911e-10 -0.00540399)
(-0.234018 -3.35829e-10 -0.00555497)
(-0.230484 -3.06404e-10 -0.00569624)
(-0.226862 -2.78638e-10 -0.00582785)
(-0.223158 -2.5792e-10 -0.00594988)
(-0.219378 -2.40519e-10 -0.00606243)
(-0.215527 -2.30167e-10 -0.00616561)
(-0.211612 -2.194e-10 -0.00625953)
(-0.207637 -2.15683e-10 -0.00634434)
(-0.203609 -2.15283e-10 -0.00642019)
(-0.199532 -2.17787e-10 -0.00648724)
(-0.195413 -2.24023e-10 -0.00654566)
(-0.191257 -2.30674e-10 -0.00659564)
(-0.187068 -2.4023e-10 -0.00663738)
(-0.182852 -2.48542e-10 -0.00667109)
(-0.178614 -2.60172e-10 -0.00669697)
(-0.174358 -2.71389e-10 -0.00671524)
(-0.170089 -2.83437e-10 -0.00672614)
(-0.165812 -2.97144e-10 -0.00672989)
(-0.161531 -3.08364e-10 -0.00672674)
(-0.15725 -3.23319e-10 -0.00671692)
(-0.152974 -3.3786e-10 -0.00670068)
(-0.148706 -3.49913e-10 -0.00667826)
(-0.14445 -3.63627e-10 -0.00664992)
(-0.14021 -3.77757e-10 -0.0066159)
(-0.13599 -3.91474e-10 -0.00657645)
(-0.131792 -4.05608e-10 -0.0065318)
(-0.12762 -4.18083e-10 -0.00648221)
(-0.123478 -4.3056e-10 -0.00642791)
(-0.119367 -4.47189e-10 -0.00636913)
(-0.115292 -4.65065e-10 -0.00630611)
(-0.111254 -4.83358e-10 -0.00623907)
(-0.107256 -5.02485e-10 -0.00616823)
(-0.103301 -5.22029e-10 -0.00609378)
(-0.0993909 -5.47389e-10 -0.00601595)
(-0.0955279 -5.73168e-10 -0.00593491)
(-0.0917142 -6.02272e-10 -0.00585085)
(-0.0879517 -6.33873e-10 -0.00576394)
(-0.0842423 -6.6797e-10 -0.00567434)
(-0.0805879 -7.02489e-10 -0.00558222)
(-0.07699 -7.40336e-10 -0.0054877)
(-0.0734504 -7.79436e-10 -0.00539091)
(-0.0699707 -8.21867e-10 -0.00529198)
(-0.0665522 -8.62644e-10 -0.00519101)
(-0.0631965 -9.05507e-10 -0.00508809)
(-0.0599048 -9.47133e-10 -0.00498331)
(-0.0566787 -9.91261e-10 -0.00487673)
(-0.0535192 -1.03457e-09 -0.00476841)
(-0.0504277 -1.07955e-09 -0.00465841)
(-0.0474055 -1.12288e-09 -0.00454675)
(-0.0444537 -1.16663e-09 -0.00443347)
(-0.0415736 -1.20874e-09 -0.00431859)
(-0.0387662 -1.24919e-09 -0.0042021)
(-0.0360329 -1.29174e-09 -0.00408402)
(-0.0333748 -1.33097e-09 -0.00396435)
(-0.030793 -1.37022e-09 -0.00384306)
(-0.0282889 -1.40449e-09 -0.00372015)
(-0.0258635 -1.43961e-09 -0.00359559)
(-0.023518 -1.47142e-09 -0.00346938)
(-0.0212538 -1.5024e-09 -0.00334149)
(-0.019072 -1.53008e-09 -0.0032119)
(-0.0169738 -1.55777e-09 -0.00308061)
(-0.0149605 -1.57799e-09 -0.00294761)
(-0.0130334 -1.59739e-09 -0.00281289)
(-0.0111936 -1.61348e-09 -0.00267648)
(-0.00944229 -1.62626e-09 -0.0025384)
(-0.00778077 -1.63655e-09 -0.00239868)
(-0.00621014 -1.63937e-09 -0.00225738)
(-0.00473153 -1.6372e-09 -0.00211459)
(-0.00334599 -1.62922e-09 -0.00197039)
(-0.00205449 -1.61709e-09 -0.00182494)
(-0.000857938 -1.60164e-09 -0.00167844)
(0.000242998 -1.58203e-09 -0.00153102)
(0.00124729 -1.55576e-09 -0.00138276)
(0.00215448 -1.51118e-09 -0.0012338)
(0.00296415 -1.45994e-09 -0.00108446)
(0.00367607 -1.39786e-09 -0.00093512)
(0.00429018 -1.32662e-09 -0.000786117)
(0.00480667 -1.24204e-09 -0.000637829)
(0.00522595 -1.14411e-09 -0.000490669)
(0.00554871 -1.03784e-09 -0.000345092)
(0.00577594 -9.2154e-10 -0.000201595)
(0.00590894 -7.97717e-10 -6.07256e-05)
(0.00594937 -6.62166e-10 7.69658e-05)
(0.00589929 -5.30796e-10 0.000210879)
(0.00576114 -3.96076e-10 0.000340328)
(0.0055378 -2.65512e-10 0.000464583)
(0.00523263 -1.5163e-10 0.00058287)
(0.0048495 -4.94266e-11 0.000694363)
(0.00439278 2.94008e-11 0.000798184)
(0.00386743 9.31946e-11 0.0008934)
(0.00327901 1.47795e-10 0.000979017)
(0.00263371 2.10741e-10 0.00105397)
(0.00193838 3.02944e-10 0.00111703)
(0.00120056 4.41979e-10 0.00116702)
(0.000428573 6.23689e-10 0.00120273)
(-0.000368646 8.49772e-10 0.00122279)
(-0.00118086 1.09518e-09 0.00122575)
(-0.00199742 1.32645e-09 0.00121008)
(-0.00280663 1.51347e-09 0.00117414)
(-0.00359584 1.64867e-09 0.00111613)
(-0.00435143 1.73706e-09 0.00103408)
(-0.00505873 1.83724e-09 0.000925952)
(-0.00570204 1.97768e-09 0.000789529)
(-0.0062646 2.16348e-09 0.000622526)
(-0.00672867 2.34272e-09 0.000422641)
(-0.00707563 2.4316e-09 0.000187761)
(-0.00728633 2.41315e-09 -8.36249e-05)
(-0.00734122 2.31449e-09 -0.000391724)
(-0.0072217 2.19927e-09 -0.000734626)
(-0.00691107 2.0088e-09 -0.00110613)
(-0.00639667 1.60043e-09 -0.00149174)
(-0.00567301 1.00772e-09 -0.00186168)
(-0.00474674 5.80545e-10 -0.00215855)
(-0.00364076 8.89137e-10 -0.00227621)
(-0.00240636 2.5963e-09 -0.00202746)
(-0.00113385 1.45203e-08 -0.00114438)
(-0.000169989 5.71371e-09 0.000257716)
(0.0049852 -7.12233e-07 -0.00941272)
(0.0107985 -8.65902e-08 -0.0112964)
(0.0139727 2.07052e-08 -0.00897941)
(0.015467 1.74331e-08 -0.00523339)
(0.0152318 3.54953e-09 -0.00146664)
(0.0135048 -3.79348e-09 0.00184487)
(0.0104605 -4.35299e-09 0.00458582)
(0.00628485 -2.24313e-09 0.0067887)
(0.00115928 -2.63319e-10 0.00853331)
(-0.00475013 1.15729e-09 0.00990185)
(-0.0112869 2.37619e-09 0.0109646)
(-0.0183301 3.41277e-09 0.0117767)
(-0.0257706 4.30974e-09 0.0123881)
(-0.0335203 5.19595e-09 0.0128424)
(-0.0415012 6.09307e-09 0.0131694)
(-0.0496495 6.87998e-09 0.0133927)
(-0.0579114 7.49017e-09 0.0135306)
(-0.0662411 7.94083e-09 0.0135977)
(-0.0746002 8.27284e-09 0.0136055)
(-0.0829555 8.49333e-09 0.0135635)
(-0.0912789 8.56826e-09 0.013479)
(-0.0995458 8.47358e-09 0.0133582)
(-0.107735 8.21769e-09 0.013206)
(-0.115828 7.85468e-09 0.0130267)
(-0.123809 7.44488e-09 0.0128235)
(-0.131662 7.0448e-09 0.0125993)
(-0.139376 6.68726e-09 0.0123565)
(-0.14694 6.38637e-09 0.012097)
(-0.154342 6.14084e-09 0.0118228)
(-0.161573 5.94691e-09 0.0115351)
(-0.168627 5.7946e-09 0.0112353)
(-0.175494 5.67391e-09 0.0109246)
(-0.182168 5.56947e-09 0.010604)
(-0.188644 5.45262e-09 0.0102744)
(-0.194914 5.3026e-09 0.00993657)
(-0.200975 5.0912e-09 0.00959135)
(-0.206822 4.8018e-09 0.00923944)
(-0.212451 4.4361e-09 0.00888151)
(-0.217857 4.00697e-09 0.0085182)
(-0.223038 3.53974e-09 0.00815012)
(-0.227991 3.06843e-09 0.00777785)
(-0.232712 2.62542e-09 0.00740196)
(-0.237201 2.23642e-09 0.00702302)
(-0.241454 1.91345e-09 0.00664156)
(-0.245471 1.66437e-09 0.00625812)
(-0.24925 1.47838e-09 0.00587323)
(-0.252791 1.34096e-09 0.0054874)
(-0.256093 1.23301e-09 0.00510116)
(-0.259155 1.13545e-09 0.00471501)
(-0.261978 1.03582e-09 0.00432944)
(-0.264562 9.20865e-10 0.00394496)
(-0.266908 7.84765e-10 0.00356206)
(-0.269017 6.33748e-10 0.00318121)
(-0.27089 4.68642e-10 0.0028029)
(-0.27253 2.94841e-10 0.0024276)
(-0.273936 1.2354e-10 0.00205576)
(-0.275113 -3.9455e-11 0.00168784)
(-0.276062 -1.86268e-10 0.00132428)
(-0.276786 -3.1151e-10 0.000965521)
(-0.277288 -4.16842e-10 0.000611975)
(-0.277572 -4.98949e-10 0.000264045)
(-0.27764 -5.66127e-10 -7.78857e-05)
(-0.277496 -6.18789e-10 -0.000413554)
(-0.277145 -6.58182e-10 -0.000742689)
(-0.27659 -6.85965e-10 -0.00106494)
(-0.275835 -7.02139e-10 -0.00137998)
(-0.274886 -7.11265e-10 -0.00168748)
(-0.273747 -7.08782e-10 -0.00198715)
(-0.272422 -6.95936e-10 -0.0022787)
(-0.270917 -6.76457e-10 -0.00256188)
(-0.269238 -6.51174e-10 -0.00283645)
(-0.267388 -6.25893e-10 -0.0031022)
(-0.265374 -6.00197e-10 -0.00335895)
(-0.263202 -5.76161e-10 -0.00360652)
(-0.260876 -5.55858e-10 -0.00384476)
(-0.258403 -5.38457e-10 -0.00407356)
(-0.255788 -5.20642e-10 -0.0042928)
(-0.253038 -5.01584e-10 -0.00450239)
(-0.250158 -4.80038e-10 -0.00470227)
(-0.247153 -4.56006e-10 -0.00489239)
(-0.244031 -4.28241e-10 -0.00507272)
(-0.240797 -3.98819e-10 -0.00524326)
(-0.237458 -3.66908e-10 -0.00540401)
(-0.234018 -3.35826e-10 -0.00555499)
(-0.230484 -3.06402e-10 -0.00569626)
(-0.226862 -2.78636e-10 -0.00582787)
(-0.223158 -2.57918e-10 -0.00594991)
(-0.219378 -2.40517e-10 -0.00606246)
(-0.215527 -2.30165e-10 -0.00616563)
(-0.211611 -2.19398e-10 -0.00625955)
(-0.207637 -2.15681e-10 -0.00634436)
(-0.203608 -2.15281e-10 -0.00642021)
(-0.199532 -2.17785e-10 -0.00648726)
(-0.195413 -2.24021e-10 -0.00654568)
(-0.191256 -2.30673e-10 -0.00659567)
(-0.187068 -2.40228e-10 -0.00663741)
(-0.182852 -2.4854e-10 -0.00667111)
(-0.178613 -2.6017e-10 -0.00669699)
(-0.174357 -2.71387e-10 -0.00671527)
(-0.170089 -2.83434e-10 -0.00672616)
(-0.165812 -2.97142e-10 -0.00672992)
(-0.16153 -3.08362e-10 -0.00672676)
(-0.15725 -3.23316e-10 -0.00671695)
(-0.152973 -3.37857e-10 -0.00670071)
(-0.148705 -3.4991e-10 -0.00667829)
(-0.14445 -3.63624e-10 -0.00664995)
(-0.14021 -3.77755e-10 -0.00661593)
(-0.135989 -3.91472e-10 -0.00657647)
(-0.131792 -4.05605e-10 -0.00653183)
(-0.12762 -4.1808e-10 -0.00648224)
(-0.123477 -4.30557e-10 -0.00642794)
(-0.119367 -4.47185e-10 -0.00636916)
(-0.115292 -4.65062e-10 -0.00630615)
(-0.111254 -4.83355e-10 -0.0062391)
(-0.107256 -5.02482e-10 -0.00616826)
(-0.103301 -5.22026e-10 -0.00609382)
(-0.0993907 -5.47385e-10 -0.00601598)
(-0.0955277 -5.73164e-10 -0.00593494)
(-0.091714 -6.02268e-10 -0.00585088)
(-0.0879515 -6.33869e-10 -0.00576397)
(-0.0842421 -6.67966e-10 -0.00567438)
(-0.0805877 -7.02484e-10 -0.00558225)
(-0.0769898 -7.40331e-10 -0.00548774)
(-0.0734502 -7.79431e-10 -0.00539095)
(-0.0699705 -8.21862e-10 -0.00529202)
(-0.066552 -8.62639e-10 -0.00519105)
(-0.0631963 -9.05502e-10 -0.00508813)
(-0.0599047 -9.47127e-10 -0.00498335)
(-0.0566785 -9.91255e-10 -0.00487677)
(-0.053519 -1.03456e-09 -0.00476846)
(-0.0504276 -1.07954e-09 -0.00465845)
(-0.0474053 -1.12287e-09 -0.0045468)
(-0.0444536 -1.16663e-09 -0.00443352)
(-0.0415734 -1.20873e-09 -0.00431863)
(-0.0387661 -1.24919e-09 -0.00420215)
(-0.0360328 -1.29173e-09 -0.00408407)
(-0.0333746 -1.33097e-09 -0.00396439)
(-0.0307929 -1.37021e-09 -0.0038431)
(-0.0282887 -1.40449e-09 -0.00372019)
(-0.0258633 -1.4396e-09 -0.00359564)
(-0.0235179 -1.47141e-09 -0.00346943)
(-0.0212536 -1.5024e-09 -0.00334153)
(-0.0190718 -1.53007e-09 -0.00321195)
(-0.0169736 -1.55777e-09 -0.00308066)
(-0.0149604 -1.57798e-09 -0.00294766)
(-0.0130332 -1.59739e-09 -0.00281294)
(-0.0111934 -1.61347e-09 -0.00267653)
(-0.00944212 -1.62625e-09 -0.00253845)
(-0.0077806 -1.63654e-09 -0.00239873)
(-0.00620998 -1.63936e-09 -0.00225744)
(-0.00473137 -1.6372e-09 -0.00211464)
(-0.00334582 -1.62922e-09 -0.00197045)
(-0.00205432 -1.61708e-09 -0.001825)
(-0.000857771 -1.60163e-09 -0.00167849)
(0.000243165 -1.58203e-09 -0.00153107)
(0.00124746 -1.55576e-09 -0.00138282)
(0.00215464 -1.51117e-09 -0.00123385)
(0.00296431 -1.45993e-09 -0.00108451)
(0.00367623 -1.39786e-09 -0.000935174)
(0.00429035 -1.32662e-09 -0.000786171)
(0.00480684 -1.24204e-09 -0.000637883)
(0.00522611 -1.14411e-09 -0.000490723)
(0.00554887 -1.03783e-09 -0.000345145)
(0.0057761 -9.21537e-10 -0.000201648)
(0.0059091 -7.97715e-10 -6.07788e-05)
(0.00594952 -6.62163e-10 7.69127e-05)
(0.00589944 -5.30795e-10 0.000210826)
(0.00576129 -3.96075e-10 0.000340275)
(0.00553794 -2.65511e-10 0.00046453)
(0.00523278 -1.5163e-10 0.000582817)
(0.00484964 -4.94264e-11 0.00069431)
(0.00439291 2.94007e-11 0.000798131)
(0.00386756 9.31943e-11 0.000893347)
(0.00327913 1.47794e-10 0.000978963)
(0.00263384 2.1074e-10 0.00105391)
(0.0019385 3.02943e-10 0.00111698)
(0.00120068 4.41977e-10 0.00116697)
(0.00042868 6.23687e-10 0.00120267)
(-0.000368545 8.4977e-10 0.00122274)
(-0.00118076 1.09517e-09 0.0012257)
(-0.00199733 1.32645e-09 0.00121003)
(-0.00280655 1.51346e-09 0.00117409)
(-0.00359576 1.64867e-09 0.00111607)
(-0.00435136 1.73706e-09 0.00103403)
(-0.00505867 1.83723e-09 0.000925894)
(-0.00570198 1.97768e-09 0.000789469)
(-0.00626455 2.16347e-09 0.000622464)
(-0.00672863 2.34272e-09 0.000422576)
(-0.00707559 2.43159e-09 0.000187691)
(-0.0072863 2.41314e-09 -8.36988e-05)
(-0.0073412 2.31449e-09 -0.000391804)
(-0.00722168 2.19926e-09 -0.000734713)
(-0.00691106 2.0088e-09 -0.00110623)
(-0.00639667 1.60042e-09 -0.00149184)
(-0.00567301 1.00771e-09 -0.00186181)
(-0.00474676 5.80543e-10 -0.00215869)
(-0.00364079 8.89135e-10 -0.00227638)
(-0.00240641 2.5963e-09 -0.00202766)
(-0.001134 1.45203e-08 -0.00114464)
(-0.000170214 5.71372e-09 0.000257395)
(0.00456337 -2.70804e-07 -0.0172888)
(0.00831847 -4.92433e-08 -0.0146394)
(0.00907004 -1.46605e-09 -0.00976265)