/*--------------------------------*- C++ -*----------------------------------*\
  =========                 |
  \\      /  F ield         | OpenFOAM: The Open Source CFD Toolbox
   \\    /   O peration     | Website:  https://openfoam.org
    \\  /    A nd           | Version:  8
     \\/     M anipulation  |
\*---------------------------------------------------------------------------*/
FoamFile
{
    version     2.0;
    format      ascii;
    class       volScalarField;
    location    "2500";
    object      epsilon;
}
// * * * * * * * * * * * * * * * * * * * * * * * * * * * * * * * * * * * * * //

dimensions      [0 2 -3 0 0 0 0];

internalField   nonuniform List<scalar> 
48000
(
0.804459
3.19456
6.05932
9.07387
12.2219
15.3674
18.4929
21.6478
24.8472
28.0467
31.2609
34.4863
37.7202
40.9594
44.2002
47.4387
50.6705
53.8908
57.0947
60.277
63.4325
66.5558
69.6418
72.6852
75.6811
78.6246
81.5111
84.3362
87.0958
89.7863
92.4041
94.9461
97.4097
99.7924
102.092
104.307
106.436
108.479
110.433
112.299
114.076
115.765
117.366
118.879
120.305
121.644
122.91
124.1
125.207
126.234
127.181
128.051
128.845
129.566
130.215
130.795
131.308
131.755
132.14
132.464
132.728
132.936
133.089
133.189
133.238
133.238
133.191
133.098
132.962
132.784
132.566
132.309
132.014
131.685
131.321
130.924
130.496
130.038
129.551
129.036
128.494
127.927
127.336
126.721
126.083
125.424
124.744
124.044
123.324
122.587
121.831
121.058
120.268
119.463
118.641
117.805
116.955
116.09
115.212
114.32
113.416
112.498
111.569
110.628
109.675
108.71
107.734
106.748
105.75
104.742
103.723
102.694
101.655
100.606
99.5466
98.4778
97.3993
96.3113
95.2139
94.1071
92.9911
91.8661
90.7321
89.5892
88.4375
87.2773
86.1085
84.9314
83.7461
82.5528
81.3516
80.1427
78.9263
77.7027
76.4719
75.2344
73.9903
72.74
71.4836
70.2215
68.9541
67.6817
66.4046
65.1233
63.8381
62.5494
61.2577
59.9635
58.6672
57.3692
56.0702
54.7707
53.471
52.1719
50.8739
49.5775
48.2834
46.9921
45.7041
44.4202
43.1409
41.8668
40.5985
39.3366
38.0817
36.8344
35.5952
34.3647
33.1434
31.9318
30.7304
29.5398
28.3602
27.1922
26.036
24.892
23.7605
22.6417
21.5357
20.4428
19.3632
18.2973
17.2462
16.216
15.2018
14.1971
13.2012
12.213
11.231
10.2536
9.27855
8.30326
7.32863
6.35756
5.37612
4.37645
3.34792
2.27646
1.16917
0.205009
0.804498
3.19467
6.0595
9.0741
12.2222
15.3677
18.4932
21.6482
24.8475
28.047
31.2612
34.4867
37.7206
40.9597
44.2005
47.439
50.6708
53.8911
57.095
60.2773
63.4327
66.5561
69.642
72.6855
75.6814
78.6248
81.5113
84.3364
87.096
89.7864
92.4042
94.9463
97.4099
99.7926
102.092
104.307
106.437
108.479
110.433
112.299
114.076
115.765
117.366
118.879
120.305
121.644
122.91
124.1
125.207
126.234
127.181
128.051
128.845
129.566
130.215
130.795
131.308
131.755
132.14
132.464
132.728
132.936
133.089
133.189
133.238
133.238
133.191
133.098
132.962
132.784
132.566
132.309
132.014
131.685
131.321
130.924
130.496
130.038
129.551
129.036
128.494
127.927
127.336
126.721
126.083
125.424
124.744
124.044
123.324
122.586
121.831
121.058
120.268
119.463
118.641
117.805
116.955
116.09
115.212
114.32
113.416
112.498
111.569
110.628
109.675
108.71
107.734
106.747
105.75
104.742
103.723
102.694
101.655
100.606
99.5466
98.4777
97.3993
96.3112
95.2138
94.1071
92.9911
91.8661
90.732
89.5891
88.4375
87.2772
86.1085
84.9314
83.7461
82.5527
81.3515
80.1426
78.9263
77.7026
76.4719
75.2344
73.9903
72.7399
71.4835
70.2215
68.9541
67.6817
66.4046
65.1232
63.838
62.5494
61.2577
59.9634
58.6671
57.3692
56.0702
54.7706
53.471
52.1719
50.8739
49.5775
48.2834
46.992
45.7041
44.4202
43.1409
41.8668
40.5985
39.3366
38.0817
36.8344
35.5952
34.3647
33.1434
31.9318
30.7304
29.5398
28.3602
27.1921
26.036
24.892
23.7605
22.6417
21.5357
20.4428
19.3632
18.2973
17.2462
16.216
15.2018
14.1971
13.2012
12.213
11.231
10.2536
9.27856
8.30327
7.32864
6.35757
5.37614
4.37652
3.34805
2.27664
1.16925
0.20505
3.77845
3.24385
4.16803
5.30403
6.54007
7.82375
9.12553
10.4484
11.793
13.1544
14.5322
15.9253
17.3323
18.7513
20.1805
21.6176
23.0601
24.5053
25.9503
27.3922
28.8278
30.2542
31.6682
33.0667
34.4469
35.8058
37.1408
38.4492
39.7286
40.9769
42.192
43.372
44.5154
45.6208
46.6869
47.7127
48.6974
49.6404
50.5412
51.3996
52.2154
52.9886
53.7193
54.408
55.0551
55.6618
56.2313
56.763
57.2562
57.711
58.1281
58.5082
58.8524
59.1615
59.4366
59.6788
59.889
60.0684
60.218
60.3388
60.4319
60.4983
60.5391
60.5551
60.5475
60.5171
60.4648
60.3916
60.2984
60.186
60.0552
59.9068
59.7416
59.5604
59.3637
59.1524
58.9271
58.6884
58.4369
58.1732
57.8978
57.6113
57.3141
57.0068
56.6898
56.3635
56.0283
55.6846
55.3329
54.9733
54.6062
54.232
53.851
53.4633
53.0693
52.6692
52.2632
51.8515
51.4344
51.0119
50.5843
50.1517
49.7143
49.2721
48.8254
48.3742
47.9186
47.4588
46.9947
46.5266
46.0545
45.5783
45.0983
44.6145
44.1269
43.6356
43.1406
42.642
42.1398
41.6341
41.1249
40.6123
40.0963
39.5769
39.0543
38.5284
37.9994
37.4673
36.9321
36.3939
35.8528
35.3088
34.7621
34.2128
33.6609
33.1065
32.5498
31.9908
31.4297
30.8667
30.3018
29.7352
29.1671
28.5977
28.027
27.4554
26.8829
26.3098
25.7363
25.1626
24.5889
24.0155
23.4426
22.8703
22.2991
21.729
21.1605
20.5936
20.0287
19.4661
18.906
18.3486
17.7942
17.2432
16.6956
16.1519
15.6121
15.0766
14.5456
14.0194
13.498
12.9817
12.4707
11.9651
11.4652
10.971
10.4826
10.0001
9.52371
9.05336
8.58918
8.13132
7.68001
7.23573
6.7977
6.36457
5.9367
5.51372
5.09505
4.68037
4.26932
3.86189
3.45907
3.06167
2.66792
2.2787
1.90004
1.56191
1.44075
2.5447
3.7786
3.24383
4.16795
5.30393
6.53994
7.8236
9.12537
10.4483
11.7928
13.1542
14.532
15.9251
17.332
18.7511
20.1803
21.6174
23.0599
24.505
25.95
27.3919
28.8276
30.2539
31.6679
33.0664
34.4466
35.8055
37.1405
38.4489
39.7283
40.9766
42.1917
43.3717
44.5151
45.6205
46.6866
47.7124
48.6971
49.6401
50.5409
51.3993
52.215
52.9882
53.719
54.4077
55.0547
55.6614
56.2309
56.7626
57.2558
57.7107
58.1277
58.5079
58.852
59.1612
59.4363
59.6784
59.8887
60.0681
60.2177
60.3385
60.4316
60.498
60.5387
60.5548
60.5471
60.5167
60.4645
60.3913
60.2981
60.1857
60.0549
59.9065
59.7413
59.5601
59.3634
59.1521
58.9268
58.6881
58.4366
58.1729
57.8975
57.611
57.3138
57.0065
56.6895
56.3632
56.028
55.6844
55.3326
54.973
54.6059
54.2318
53.8507
53.463
53.069
52.6689
52.2629
51.8513
51.4341
51.0116
50.584
50.1515
49.714
49.2719
48.8251
48.3739
47.9184
47.4585
46.9945
46.5264
46.0542
45.5781
45.0981
44.6143
44.1267
43.6353
43.1404
42.6417
42.1396
41.6339
41.1247
40.6121
40.0961
39.5767
39.0541
38.5282
37.9992
37.4671
36.9319
36.3937
35.8526
35.3086
34.7619
34.2126
33.6607
33.1063
32.5496
31.9906
31.4295
30.8665
30.3016
29.7351
29.167
28.5975
28.0269
27.4552
26.8828
26.3097
25.7362
25.1625
24.5888
24.0154
23.4424
22.8702
22.299
21.7289
21.1603
20.5935
20.0286
19.466
18.9058
18.3485
17.7941
17.2431
16.6955
16.1518
15.612
15.0765
14.5456
14.0193
13.4979
12.9816
12.4706
11.9651
11.4651
10.9709
10.4825
10.0001
9.52364
9.0533
8.58912
8.13126
7.67996
7.23568
6.79765
6.36453
5.93666
5.51368
5.09502
4.68034
4.2693
3.86186
3.45905
3.06165
2.6679
2.27862
1.89959
1.5601
1.44075
2.54477
6.93545
4.35509
4.65067
5.33937
6.16922
7.0718
8.01787
8.99535
9.99785
11.0209
12.0617
13.1183
14.1886
15.271
16.3635
17.4644
18.5713
19.6822
20.7946
21.9061
23.0143
24.1165
25.2102
26.2929
27.3621
28.4153
29.4504
30.4651
31.4574
32.4253
33.3673
34.2816
35.167
36.0222
36.8462
37.638
38.3971
39.1228
39.8147
40.4727
41.0966
41.6864
42.2422
42.7645
43.2536
43.7102
44.1357
44.5302
44.8939
45.2273
45.5307
45.8049
46.0506
46.2686
46.4597
46.6248
46.7647
46.8802
46.9723
47.0418
47.0896
47.1164
47.1232
47.1107
47.0797
47.0311
46.9655
46.8837
46.7865
46.6745
46.5483
46.4087
46.2563
46.0917
45.9153
45.7279
45.5299
45.3219
45.1042
44.8775
44.642
44.3984
44.1468
43.8879
43.6218
43.3489
43.0696
42.7842
42.4929
42.1961
41.894
41.5868
41.2747
40.958
40.6369
40.3115
39.9821
39.6487
39.3116
38.9709
38.6267
38.2791
37.9282
37.5742
37.2172
36.8571
36.4942
36.1285
35.76
35.3888
35.015
34.6386
34.2597
33.8783
33.4945
33.1082
32.7197
32.3287
31.9355
31.5401
31.1424
30.7426
30.3406
29.9365
29.5303
29.1221
28.7119
28.2997
27.8857
27.4698
27.0521
26.6327
26.2116
25.7889
25.3647
24.939
24.512
24.0837
23.6542
23.2236
22.792
22.3596
21.9264
21.4926
21.0583
20.6237
20.1889
19.754
19.3192
18.8846
18.4505
18.017
17.5842
17.1524
16.7217
16.2924
15.8645
15.4384
15.0142
14.592
14.1722
13.7548
13.3401
12.9283
12.5195
12.1139
11.7118
11.3133
10.9186
10.5278
10.141
9.75851
9.38037
9.00672
8.63768
8.27335
7.91382
7.55918
7.2095
6.86486
6.52532
6.19097
5.86191
5.53818
5.21961
4.90595
4.59718
4.2932
3.99402
3.69998
3.41122
3.12828
2.85221
2.58458
2.32732
2.08492
1.86779
1.70477
1.72264
2.86326
6.93567
4.35502
4.65054
5.33921
6.16904
7.0716
8.01766
8.99513
9.99763
11.0207
12.0615
13.118
14.1883
15.2707
16.3633
17.4641
18.5711
19.6819
20.7943
21.9059
23.014
24.1162
25.2099
26.2926
27.3618
28.4151
29.4502
30.4649
31.4571
32.4251
33.3671
34.2814
35.1668
36.022
36.8459
37.6378
38.3969
39.1226
39.8145
40.4725
41.0964
41.6862
42.242
42.7643
43.2534
43.7101
44.1355
44.53
44.8938
45.2271
45.5305
45.8047
46.0504
46.2684
46.4596
46.6246
46.7645
46.8801
46.9722
47.0417
47.0894
47.1162
47.123
47.1105
47.0796
47.0309
46.9653
46.8836
46.7863
46.6743
46.5482
46.4086
46.2562
46.0915
45.9152
45.7278
45.5298
45.3217
45.1041
44.8773
44.6419
44.3982
44.1467
43.8877
43.6217
43.3488
43.0695
42.7841
42.4928
42.196
41.8939
41.5866
41.2746
40.9579
40.6368
40.3114
39.982
39.6486
39.3115
38.9708
38.6266
38.279
37.9281
37.5741
37.2171
36.8571
36.4941
36.1284
35.7599
35.3887
35.0149
34.6385
34.2596
33.8782
33.4944
33.1082
32.7196
32.3287
31.9355
31.54
31.1424
30.7425
30.3405
29.9364
29.5302
29.122
28.7118
28.2997
27.8856
27.4697
27.0521
26.6326
26.2116
25.7889
25.3646
24.939
24.5119
24.0836
23.6541
23.2235
22.792
22.3595
21.9264
21.4926
21.0583
20.6237
20.1888
19.7539
19.3191
18.8846
18.4504
18.0169
17.5842
17.1524
16.7217
16.2923
15.8645
15.4384
15.0141
14.592
14.1721
13.7548
13.3401
12.9282
12.5195
12.1139
11.7118
11.3133
10.9185
10.5277
10.141
9.75849
9.38035
9.0067
8.63765
8.27332
7.9138
7.55916
7.20948
6.86484
6.5253
6.19096
5.86189
5.53816
5.21959
4.90594
4.59717
4.29319
3.99401
3.69997
3.41121
3.12827
2.8522
2.58458
2.32733
2.08495
1.86782
1.70471
1.72382
2.8631
10.1255
5.70251
5.53198
5.95979
6.59473
7.33347
8.13437
8.97708
9.85024
10.7468
11.6621
12.5928
13.5365
14.4909
15.4541
16.4242
17.3992
18.3772
19.3561
20.3337
21.308
22.2767
23.2376
24.1885
25.1272
26.0517
26.9599
27.8498
28.7198
29.568
30.393
31.1933
31.9677
32.7151
33.4345
34.1252
34.7865
35.4179
36.019
36.5897
37.1299
37.6394
38.1186
38.5676
38.9869
39.3769
39.7385
40.0719
40.3777
40.6563
40.9082
41.134
41.3344
41.5101
41.6618
41.7903
41.8964
41.9809
42.0445
42.088
42.1122
42.1179
42.1058
42.0766
42.0311
41.97
41.894
41.8037
41.6998
41.583
41.4537
41.3127
41.1605
40.9976
40.8245
40.6419
40.45
40.2495
40.0407
39.824
39.6
39.3688
39.131
38.8868
38.6366
38.3807
38.1193
37.8528
37.5814
37.3054
37.025
36.7403
36.4517
36.1593
35.8632
35.5637
35.2609
34.9549
34.6459
34.334
34.0193
33.702
33.3821
33.0597
32.7349
32.4077
32.0784
31.7468
31.4131
31.0773
30.7396
30.3998
30.0581
29.7146
29.3692
29.0219
28.6729
28.3222
27.9697
27.6156
27.2598
26.9024
26.5434
26.1828
25.8207
25.4571
25.0921
24.7256
24.3578
23.9886
23.6182
23.2466
22.8737
22.4998
22.1248
21.7489
21.372
20.9943
20.6159
20.2368
19.8571
19.477
19.0965
18.7158
18.3349
17.954
17.5732
17.1927
16.8125
16.4328
16.0538
15.6756
15.2983
14.9221
14.5472
14.1738
13.8019
13.4318
13.0636
12.6975
12.3337
11.9722
11.6134
11.2573
10.9042
10.5541
10.2073
9.86379
9.52385
9.18758
8.85512
8.52659
8.20211
7.8818
7.56576
7.2541
6.9469
6.64427
6.34627
6.053
5.76455
5.48098
5.2024
4.92888
4.66042
4.39708
4.13895
3.88618
3.63905
3.398
3.16364
2.93707
2.71987
2.5145
2.32509
2.15944
2.03431
1.99374
2.21163
4.18149
10.1258
5.70243
5.53183
5.95961
6.59453
7.33325
8.13414
8.97685
9.85
10.7465
11.6618
12.5926
13.5362
14.4907
15.4539
16.424
17.399
18.377
19.3558
20.3335
21.3078
22.2764
23.2373
24.1882
25.127
26.0515
26.9597
27.8496
28.7196
29.5678
30.3928
31.1931
31.9675
32.7149
33.4343
34.125
34.7863
35.4177
36.0189
36.5896
37.1297
37.6393
38.1184
38.5675
38.9867
39.3768
39.7383
40.0718
40.3776
40.6562
40.9081
41.1339
41.3343
41.51
41.6617
41.7902
41.8963
41.9808
42.0444
42.0879
42.1121
42.1178
42.1057
42.0765
42.031
41.9699
41.8939
41.8036
41.6997
41.5829
41.4536
41.3126
41.1604
40.9975
40.8245
40.6418
40.45
40.2494
40.0406
39.824
39.5999
39.3688
39.1309
38.8868
38.6365
38.3806
38.1193
37.8528
37.5814
37.3054
37.0249
36.7403
36.4516
36.1592
35.8632
35.5636
35.2608
34.9549
34.6459
34.334
34.0193
33.702
33.382
33.0596
32.7348
32.4077
32.0783
31.7468
31.4131
31.0773
30.7395
30.3998
30.0581
29.7145
29.3691
29.0219
28.6729
28.3222
27.9697
27.6156
27.2598
26.9023
26.5433
26.1828
25.8207
25.4571
25.092
24.7256
24.3578
23.9886
23.6182
23.2465
22.8737
22.4998
22.1248
21.7489
21.372
20.9943
20.6159
20.2368
19.8571
19.477
19.0965
18.7158
18.3349
17.954
17.5732
17.1927
16.8125
16.4328
16.0538
15.6756
15.2983
14.9221
14.5472
14.1738
13.8019
13.4318
13.0636
12.6975
12.3336
11.9722
11.6134
11.2573
10.9042
10.5541
10.2072
9.86378
9.52384
9.18758
8.85511
8.52658
8.2021
7.88179
7.56575
7.25409
6.9469
6.64426
6.34627
6.053
5.76454
5.48098
5.2024
4.92887
4.66042
4.39708
4.13894
3.88618
3.63905
3.398
3.16363
2.93707
2.71987
2.5145
2.32509
2.15944
2.03431
1.9937
2.21187
4.18147
13.3113
7.16792
6.58789
6.81886
7.3259
7.96821
8.68977
9.46275
10.2714
11.1058
11.9596
12.8283
13.7085
14.5977
15.4938
16.3947
17.2986
18.2037
19.1082
20.0102
20.9079
21.7993
22.6827
23.5559
24.4173
25.2648
26.0968
26.9116
27.7074
28.4829
29.2365
29.9672
30.6737
31.3549
32.0102
32.6387
33.2398
33.8132
34.3584
34.8752
35.3636
35.8236
36.2554
36.659
37.035
37.3836
37.7055
38.0011
38.2709
38.5153
38.7349
38.9302
39.102
39.2508
39.3773
39.4824
39.5666
39.6307
39.6755
39.7017
39.71
39.7011
39.6757
39.6345
39.5782
39.5075
39.423
39.3253
39.215
39.0928
38.9592
38.8148
38.66
38.4955
38.3216
38.1389
37.9479
37.7489
37.5423
37.3287
37.1082
36.8814
36.6485
36.4098
36.1657
35.9165
35.6624
35.4037
35.1406
34.8734
34.6023
34.3275
34.0491
33.7674
33.4825
33.1946
32.9038
32.6103
32.3142
32.0155
31.7145
31.4112
31.1057
30.7981
30.4885
30.1769
29.8634
29.5481
29.231
28.9122
28.5917
28.2696
27.9459
27.6207
27.294
26.9658
26.6361
26.305
25.9726
25.6388
25.3036
24.9672
24.6295
24.2906
23.9505
23.6092
23.2667
22.9232
22.5786
22.233
21.8864
21.5389
21.1906
20.8414
20.4914
20.1408
19.7895
19.4377
19.0854
18.7328
18.3798
18.0266
17.6732
17.3199
16.9666
16.6136
16.2608
15.9084
15.5566
15.2055
14.8552
14.5058
14.1575
13.8104
13.4647
13.1205
12.778
12.4372
12.0985
11.7618
11.4274
11.0954
10.7659
10.4392
10.1153
9.79445
9.47671
9.16226
8.85123
8.54374
8.23991
7.93988
7.64375
7.35165
7.06366
6.77991
6.50049
6.2255
5.95504
5.68921
5.42812
5.17189
4.92063
4.67449
4.4336
4.19814
3.96835
3.74459
3.52732
3.31725
3.11535
2.92307
2.74261
2.57739
2.43329
2.32121
2.26419
2.32285
2.73323
5.53169
13.3116
7.16782
6.58771
6.81866
7.32568
7.96798
8.68952
9.4625
10.2711
11.1055
11.9593
12.828
13.7082
14.5975
15.4935
16.3944
17.2983
18.2034
19.1079
20.0099
20.9076
21.7991
22.6824
23.5557
24.417
25.2646
26.0966
26.9113
27.7072
28.4827
29.2364
29.967
30.6735
31.3548
32.01
32.6385
33.2397
33.813
34.3582
34.8751
35.3635
35.8235
36.2552
36.6589
37.0348
37.3835
37.7054
38.001
38.2708
38.5152
38.7348
38.9301
39.1019
39.2507
39.3773
39.4823
39.5665
39.6307
39.6755
39.7016
39.7099
39.701
39.6756
39.6344
39.5781
39.5074
39.4229
39.3252
39.215
39.0928
38.9592
38.8147
38.66
38.4954
38.3216
38.1389
37.9478
37.7488
37.5423
37.3286
37.1082
36.8813
36.6484
36.4098
36.1657
35.9165
35.6624
35.4037
35.1406
34.8734
34.6023
34.3274
34.0491
33.7674
33.4825
33.1946
32.9038
32.6103
32.3141
32.0155
31.7145
31.4112
31.1057
30.7981
30.4884
30.1768
29.8634
29.548
29.231
28.9122
28.5917
28.2696
27.9459
27.6207
27.294
26.9657
26.6361
26.305
25.9726
25.6388
25.3036
24.9672
24.6295
24.2906
23.9505
23.6092
23.2667
22.9232
22.5786
22.233
21.8864
21.5389
21.1905
20.8414
20.4914
20.1408
19.7895
19.4377
19.0854
18.7328
18.3798
18.0266
17.6732
17.3199
16.9666
16.6135
16.2608
15.9084
15.5566
15.2055
14.8552
14.5058
14.1575
13.8104
13.4647
13.1205
12.778
12.4372
12.0985
11.7618
11.4274
11.0954
10.7659
10.4392
10.1153
9.79445
9.47671
9.16226
8.85123
8.54374
8.23991
7.93988
7.64376
7.35165
7.06367
6.77991
6.50049
6.2255
5.95504
5.68921
5.42812
5.17189
4.92063
4.67449
4.4336
4.19814
3.96835
3.74459
3.52733
3.31725
3.11535
2.92308
2.74261
2.57739
2.43329
2.32121
2.26419
2.32284
2.73327
5.53169
16.5004
8.7052
7.75453
7.82287
8.23448
8.81148
9.48349
10.2155
10.9877
11.7875
12.6069
13.4401
14.2833
15.1332
15.9877
16.8445
17.702
18.5586
19.4126
20.2624
21.1064
21.9432
22.7709
23.588
24.3929
25.184
25.9598
26.7188
27.4594
28.1806
28.8809
29.5593
30.2147
30.8462
31.4532
32.0348
32.5906
33.1201
33.6232
34.0994
34.5489
34.9715
35.3675
35.737
36.0803
36.3978
36.6899
36.9572
37.1999
37.4187
37.6141
37.7866
37.9368
38.0654
38.173
38.2602
38.3278
38.3765
38.4069
38.4197
38.4156
38.3953
38.3594
38.3087
38.2437
38.165
38.0734
37.9693
37.8534
37.7262
37.5882
37.4401
37.2823
37.1152
36.9394
36.7553
36.5633
36.3639
36.1574
35.9442
35.7247
35.4992
35.2681
35.0316
34.79
34.5437
34.2928
34.0377
33.7786
33.5156
33.249
32.979
32.7058
32.4295
32.1503
31.8684
31.5838
31.2968
31.0074
30.7158
30.422
30.1262
29.8284
29.5288
29.2273
28.9242
28.6193
28.3129
28.0049
27.6955
27.3846
27.0722
26.7585
26.4435
26.1272
25.8097
25.4909
25.1709
24.8497
24.5274
24.204
23.8795
23.554
23.2274
22.8999
22.5713
22.2419
21.9116
21.5804
21.2484
20.9157
20.5822
20.2481
19.9133
19.578
19.2422
18.906
18.5694
18.2325
17.8954
17.5581
17.2209
16.8836
16.5465
16.2096
15.8731
15.537
15.2014
14.8665
14.5324
14.1993
13.8671
13.5362
13.2065
12.8782
12.5515
12.2266
11.9034
11.5823
11.2632
10.9465
10.6321
10.3203
10.0111
9.70478
9.40139
9.1011
8.80401
8.51026
8.21998
7.93329
7.65029
7.37112
7.09588
6.82469
6.55766
6.29489
6.0365
5.78262
5.53337
5.28888
5.04931
4.81484
4.58565
4.36198
4.14413
3.93247
3.72751
3.52992
3.34062
3.16092
2.99268
2.8387
2.70337
2.59411
2.52471
2.52453
2.67072
3.26327
6.87951
16.5007
8.70508
7.75433
7.82265
8.23423
8.81123
9.48323
10.2153
10.9874
11.7872
12.6066
13.4399
14.283
15.133
15.9874
16.8442
17.7018
18.5583
19.4123
20.2621
21.1062
21.9429
22.7706
23.5878
24.3927
25.1838
25.9596
26.7185
27.4592
28.1804
28.8807
29.5591
30.2145
30.8461
31.453
32.0346
32.5904
33.12
33.623
34.0993
34.5487
34.9714
35.3674
35.7369
36.0802
36.3977
36.6898
36.9571
37.1998
37.4187
37.614
37.7865
37.9367
38.0653
38.1729
38.2601
38.3278
38.3764
38.4068
38.4196
38.4155
38.3952
38.3594
38.3086
38.2436
38.165
38.0733
37.9692
37.8533
37.7261
37.5882
37.4401
37.2822
37.1152
36.9394
36.7552
36.5633
36.3638
36.1574
35.9442
35.7247
35.4992
35.268
35.0316
34.79
34.5437
34.2928
34.0377
33.7785
33.5156
33.249
32.979
32.7058
32.4295
32.1503
31.8683
31.5838
31.2968
31.0074
30.7158
30.422
30.1262
29.8284
29.5288
29.2273
28.9242
28.6193
28.3129
28.0049
27.6955
27.3845
27.0722
26.7585
26.4435
26.1272
25.8096
25.4908
25.1709
24.8497
24.5274
24.204
23.8795
23.554
23.2274
22.8999
22.5713
22.2419
21.9116
21.5804
21.2484
20.9157
20.5822
20.2481
19.9133
19.578
19.2422
18.906
18.5694
18.2325
17.8954
17.5581
17.2209
16.8836
16.5465
16.2096
15.8731
15.537
15.2014
14.8665
14.5324
14.1993
13.8671
13.5362
13.2065
12.8782
12.5515
12.2266
11.9034
11.5823
11.2632
10.9465
10.6321
10.3203
10.0111
9.70478
9.4014
9.1011
8.80401
8.51027
8.21998
7.93329
7.6503
7.37113
7.09589
6.82469
6.55766
6.29489
6.03651
5.78262
5.53337
5.28888
5.04932
4.81484
4.58565
4.36198
4.14413
3.93247
3.72751
3.52992
3.34062
3.16092
2.99268
2.8387
2.70338
2.59411
2.52471
2.52453
2.67072
3.2633
6.87952
19.8021
10.307
9.00925
8.936
9.27138
9.80082
10.4397
11.1462
11.8965
12.6757
13.474
14.2849
15.1035
15.9264
16.7512
17.5757
18.3982
19.2173
20.0316
20.8398
21.6405
22.4325
23.2144
23.9848
24.7426
25.4863
26.2146
26.9263
27.6201
28.2949
28.9496
29.5833
30.195
30.784
31.3495
31.8909
32.4079
32.8999
33.3668
33.8083
34.2244
34.6152
34.9806
35.321
35.6365
35.9275
36.1944
36.4376
36.6576
36.8549
37.0299
37.1831
37.3152
37.4268
37.5185
37.5908
37.6445
37.6802
37.6985
37.7001
37.6856
37.6557
37.611
37.5521
37.4797
37.3943
37.2965
37.1868
37.0659
36.9342
36.7923
36.6407
36.4799
36.3103
36.1323
35.9464
35.7531
35.5527
35.3455
35.132
34.9125
34.6873
34.4567
34.221
33.9806
33.7356
33.4864
33.2331
32.976
32.7153
32.4512
32.1839
31.9136
31.6404
31.3645
31.086
30.8051
30.5219
30.2364
29.949
29.6595
29.3681
29.075
28.7801
28.4836
28.1856
27.886
27.5849
27.2825
26.9787
26.6736
26.3673
26.0598
25.751
25.4412
25.1302
24.8181
24.505
24.1909
23.8757
23.5597
23.2426
22.9247
22.6059
22.2863
21.9658
21.6446
21.3227
21
20.6767
20.3527
20.0282
19.7031
19.3776
19.0517
18.7254
18.3988
18.0719
17.7449
17.4179
17.0908
16.7637
16.4369
16.1102
15.784
15.4581
15.1328
14.8082
14.4843
14.1612
13.8392
13.5182
13.1985
12.8801
12.5632
12.2479
11.9343
11.6225
11.3128
11.0052
10.6998
10.3968
10.0963
9.7985
9.50345
9.2113
8.92219
8.63622
8.35354
8.07425
7.79849
7.52636
7.25799
6.99349
6.73299
6.4766
6.22445
5.97667
5.73341
5.49481
5.26105
5.03231
4.80883
4.59086
4.37873
4.17281
3.97362
3.78181
3.59821
3.424
3.26077
3.11079
2.97748
2.86615
2.78577
2.75296
2.80334
3.03058
3.79893
8.22734
19.8025
10.3069
9.00903
8.93575
9.27112
9.80055
10.4395
11.146
11.8962
12.6754
13.4737
14.2846
15.1032
15.9261
16.7509
17.5754
18.3979
19.217
20.0313
20.8395
21.6402
22.4322
23.2141
23.9846
24.7424
25.4861
26.2144
26.926
27.6199
28.2947
28.9494
29.5831
30.1949
30.7838
31.3493
31.8908
32.4077
32.8998
33.3667
33.8082
34.2243
34.6151
34.9805
35.3208
35.6364
35.9274
36.1943
36.4375
36.6575
36.8548
37.0298
37.183
37.3152
37.4267
37.5184
37.5907
37.6444
37.6801
37.6984
37.7
37.6856
37.6557
37.611
37.5521
37.4796
37.3942
37.2964
37.1868
37.0658
36.9342
36.7923
36.6407
36.4798
36.3102
36.1323
35.9464
35.7531
35.5526
35.3455
35.132
34.9124
34.6872
34.4567
34.221
33.9806
33.7356
33.4864
33.2331
32.976
32.7153
32.4512
32.1839
31.9136
31.6404
31.3645
31.086
30.8051
30.5218
30.2364
29.9489
29.6595
29.3681
29.075
28.7801
28.4836
28.1855
27.886
27.5849
27.2825
26.9787
26.6736
26.3673
26.0598
25.751
25.4411
25.1302
24.8181
24.505
24.1909
23.8757
23.5597
23.2426
22.9247
22.6059
22.2863
21.9658
21.6446
21.3226
21
20.6767
20.3527
20.0282
19.7031
19.3776
19.0517
18.7254
18.3988
18.0719
17.7449
17.4179
17.0908
16.7637
16.4369
16.1102
15.784
15.4581
15.1328
14.8082
14.4843
14.1612
13.8392
13.5182
13.1985
12.8801
12.5632
12.2479
11.9343
11.6225
11.3128
11.0052
10.6998
10.3968
10.0963
9.7985
9.50345
9.2113
8.92219
8.63623
8.35354
8.07426
7.79849
7.52636
7.25799
6.9935
6.73299
6.4766
6.22445
5.97668
5.73341
5.49481
5.26105
5.03232
4.80883
4.59087
4.37873
4.17282
3.97363
3.78181
3.59822
3.424
3.26077
3.11079
2.97748
2.86615
2.78577
2.75296
2.80335
3.03059
3.79896
8.22735
23.2729
11.9867
10.3468
10.1438
10.4151
10.9081
11.5241
12.2142
12.9509
13.717
14.5014
15.2964
16.0967
16.8986
17.6993
18.4969
19.2896
20.0763
20.8557
21.6269
22.3889
23.1405
23.8808
24.6088
25.3234
26.0235
26.7081
27.3761
28.0266
28.6585
29.271
29.8632
30.4343
30.9837
31.5107
32.0148
32.4957
32.9529
33.3862
33.7956
34.1808
34.542
34.8793
35.1927
35.4826
35.7493
35.9931
36.2144
36.4136
36.5912
36.7476
36.8835
36.9993
37.0955
37.1728
37.2317
37.2729
37.297
37.3045
37.2961
37.2724
37.234
37.1815
37.1154
37.0364
36.945
36.8417
36.7272
36.6018
36.4662
36.3208
36.1661
36.0025
35.8306
35.6506
35.4631
35.2684
35.0669
34.859
34.645
34.4252
34.2
33.9696
33.7344
33.4946
33.2504
33.0021
32.75
32.4943
32.235
31.9726
31.7071
31.4387
31.1675
30.8938
30.6177
30.3392
30.0585
29.7758
29.4911
29.2046
28.9162
28.6262
28.3346
28.0414
27.7468
27.4508
27.1534
26.8547
26.5548
26.2537
25.9514
25.648
25.3436
25.0381
24.7315
24.4241
24.1156
23.8063
23.496
23.185
22.873
22.5603
22.2468
21.9326
21.6177
21.3021
20.9858
20.669
20.3516
20.0337
19.7153
19.3965
19.0774
18.7579
18.4381
18.1182
17.7981
17.4779
17.1578
16.8377
16.5177
16.1981
15.8787
15.5597
15.2413
14.9234
14.6063
14.29
13.9746
13.6602
13.3469
13.0349
12.7243
12.4151
12.1076
11.8018
11.4978
11.1959
10.896
10.5983
10.3031
10.0102
9.72003
9.43255
9.14792
8.86626
8.58769
8.31234
8.04033
7.77177
7.50679
7.24551
6.98805
6.73454
6.48511
6.23991
5.99909
5.7628
5.53124
5.3046
5.08312
4.86707
4.65678
4.45265
4.25516
4.06491
3.8827
3.70956
3.54685
3.39646
3.26108
3.14472
3.05361
2.99829
2.99831
3.09551
3.40053
4.34291
9.58865
23.2734
11.9865
10.3465
10.1436
10.4148
10.9078
11.5238
12.2139
12.9506
13.7167
14.5011
15.2961
16.0964
16.8983
17.699
18.4966
19.2893
20.076
20.8555
21.6267
22.3886
23.1402
23.8806
24.6085
25.3231
26.0232
26.7078
27.3759
28.0264
28.6583
29.2708
29.863
30.4341
30.9835
31.5105
32.0147
32.4955
32.9528
33.3861
33.7954
34.1807
34.5419
34.8791
35.1926
35.4825
35.7492
35.993
36.2143
36.4135
36.5911
36.7476
36.8834
36.9992
37.0954
37.1727
37.2317
37.2729
37.2969
37.3045
37.2961
37.2724
37.234
37.1814
37.1154
37.0364
36.9449
36.8417
36.7271
36.6018
36.4662
36.3208
36.1661
36.0025
35.8305
35.6506
35.4631
35.2684
35.0669
34.859
34.645
34.4252
34.2
33.9696
33.7344
33.4945
33.2504
33.0021
32.75
32.4942
32.235
31.9726
31.7071
31.4387
31.1675
30.8938
30.6176
30.3392
30.0585
29.7758
29.4911
29.2046
28.9162
28.6262
28.3346
28.0414
27.7468
27.4508
27.1534
26.8547
26.5548
26.2537
25.9514
25.648
25.3436
25.038
24.7315
24.4241
24.1156
23.8063
23.496
23.1849
22.873
22.5603
22.2468
21.9326
21.6177
21.3021
20.9858
20.669
20.3516
20.0337
19.7153
19.3965
19.0774
18.7579
18.4381
18.1182
17.7981
17.4779
17.1578
16.8377
16.5177
16.1981
15.8787
15.5597
15.2413
14.9234
14.6063
14.29
13.9746
13.6602
13.3469
13.0349
12.7243
12.4151
12.1076
11.8018
11.4978
11.1959
10.896
10.5983
10.3031
10.0102
9.72003
9.43255
9.14792
8.86626
8.5877
8.31235
8.04033
7.77177
7.50679
7.24551
6.98805
6.73454
6.48512
6.23992
5.99909
5.76281
5.53124
5.3046
5.08312
4.86707
4.65679
4.45265
4.25516
4.06492
3.88271
3.70956
3.54685
3.39646
3.26109
3.14472
3.05361
2.99829
2.99831
3.09552
3.40054
4.34294
9.58866
26.8688
13.7432
11.7654
11.4409
11.6562
12.1204
12.7199
13.3993
14.1273
14.8846
15.6586
16.4409
17.2257
18.0089
18.7879
19.5605
20.3253
21.0813
21.8276
22.5634
23.288
24.0007
24.7008
25.3876
26.0603
26.718
27.3601
27.9857
28.5939
29.184
29.7553
30.3071
30.8386
31.3494
31.8389
32.3067
32.7524
33.1757
33.5764
33.9544
34.3097
34.6422
34.9521
35.2395
35.5046
35.7478
35.9693
36.1695
36.3488
36.5076
36.6464
36.7657
36.8659
36.9476
37.0114
37.0577
37.0872
37.1004
37.0978
37.0801
37.0479
37.0016
36.9418
36.8692
36.7842
36.6873
36.5792
36.4602
36.3309
36.1918
36.0433
35.8858
35.7199
35.5459
35.3643
35.1754
34.9796
34.7772
34.5687
34.3543
34.1343
33.9091
33.6789
33.4441
33.2048
32.9614
32.714
32.4629
32.2082
31.9503
31.6892
31.4252
31.1583
30.8889
30.617
30.3427
30.0662
29.7876
29.507
29.2245
28.9403
28.6543
28.3667
28.0776
27.787
27.4951
27.2018
26.9072
26.6114
26.3144
26.0164
25.7172
25.4169
25.1157
24.8135
24.5104
24.2063
23.9014
23.5957
23.2891
22.9817
22.6736
22.3648
22.0553
21.7451
21.4343
21.1228
20.8109
20.4984
20.1854
19.872
19.5581
19.244
18.9295
18.6148
18.2999
17.9848
17.6697
17.3546
17.0396
16.7246
16.4099
16.0955
15.7815
15.4679
15.1548
14.8424
14.5308
14.22
13.9101
13.6013
13.2936
12.9871
12.6821
12.3785
12.0765
11.7763
11.4778
11.1814
10.8869
10.5947
10.3048
10.0173
9.73238
9.4501
9.17061
8.89403
8.62047
8.35006
8.08291
7.81915
7.5589
7.30229
7.04945
6.80053
6.55566
6.315
6.07872
5.84702
5.62009
5.39819
5.18159
4.9706
4.76563
4.56713
4.37568
4.19199
4.01699
3.85187
3.69821
3.55818
3.43488
3.3329
3.25941
3.22654
3.2568
3.39828
3.77872
4.89352
10.9556
26.8692
13.743
11.7651
11.4406
11.6559
12.1201
12.7196
13.399
14.127
14.8843
15.6583
16.4406
17.2254
18.0086
18.7876
19.5602
20.325
21.0811
21.8273
22.5631
23.2877
24.0005
24.7006
25.3874
26.06
26.7178
27.3599
27.9854
28.5937
29.1838
29.7551
30.3069
30.8385
31.3493
31.8388
32.3066
32.7522
33.1756
33.5763
33.9543
34.3096
34.6421
34.952
35.2394
35.5045
35.7477
35.9692
36.1694
36.3487
36.5076
36.6464
36.7656
36.8659
36.9476
37.0113
37.0577
37.0871
37.1003
37.0978
37.0801
37.0478
37.0015
36.9418
36.8692
36.7842
36.6873
36.5791
36.4602
36.3309
36.1917
36.0432
35.8858
35.7199
35.5459
35.3643
35.1754
34.9795
34.7772
34.5686
34.3542
34.1343
33.9091
33.6789
33.4441
33.2048
32.9614
32.714
32.4628
32.2082
31.9503
31.6892
31.4251
31.1583
30.8889
30.6169
30.3427
30.0662
29.7876
29.507
29.2245
28.9402
28.6543
28.3667
28.0776
27.787
27.4951
27.2018
26.9072
26.6114
26.3144
26.0163
25.7172
25.4169
25.1157
24.8135
24.5104
24.2063
23.9014
23.5957
23.2891
22.9817
22.6736
22.3648
22.0553
21.7451
21.4342
21.1228
20.8109
20.4984
20.1854
19.872
19.5581
19.244
18.9295
18.6148
18.2999
17.9848
17.6697
17.3546
17.0395
16.7246
16.4099
16.0955
15.7815
15.4679
15.1548
14.8424
14.5308
14.22
13.9101
13.6013
13.2936
12.9871
12.6821
12.3785
12.0765
11.7763
11.4778
11.1814
10.8869
10.5947
10.3048
10.0173
9.73238
9.45011
9.17062
8.89403
8.62047
8.35006
8.08291
7.81915
7.5589
7.30229
7.04946
6.80053
6.55566
6.315
6.07873
5.84702
5.6201
5.39819
5.18159
4.97061
4.76563
4.56713
4.37568
4.192
4.017
3.85187
3.69821
3.55818
3.43489
3.3329
3.25941
3.22654
3.2568
3.39828
3.77874
4.89356
10.9556
30.6026
15.5815
13.2669
12.8265
12.9919
13.4325
14.0201
14.6922
15.4142
16.1645
16.9296
17.7001
18.4699
19.2349
19.9921
20.7398
21.4765
22.2016
22.9145
23.6146
24.3015
24.975
25.6346
26.2799
26.9104
27.5255
28.1248
28.7077
29.2735
29.8217
30.3516
30.8628
31.3547
31.8268
32.2787
32.71
33.1204
33.5098
33.8779
34.2246
34.5499
34.8538
35.1363
35.3978
35.6383
35.8581
36.0575
36.2368
36.3964
36.5367
36.6581
36.7611
36.8461
36.9136
36.9641
36.9982
37.0162
37.0189
37.0067
36.9801
36.9396
36.8858
36.8193
36.7405
36.6498
36.5479
36.4352
36.3122
36.1794
36.0371
35.8858
35.726
35.5581
35.3824
35.1994
35.0094
34.8127
34.6098
34.4009
34.1863
33.9664
33.7414
33.5117
33.2774
33.0388
32.7962
32.5498
32.2997
32.0463
31.7897
31.53
31.2674
31.0022
30.7344
30.4642
30.1917
29.9171
29.6404
29.3618
29.0814
28.7992
28.5154
28.23
27.9432
27.6549
27.3653
27.0744
26.7823
26.489
26.1946
25.8991
25.6026
25.305
25.0066
24.7071
24.4068