/*--------------------------------*- C++ -*----------------------------------*\
  =========                 |
  \\      /  F ield         | OpenFOAM: The Open Source CFD Toolbox
   \\    /   O peration     | Website:  https://openfoam.org
    \\  /    A nd           | Version:  8
     \\/     M anipulation  |
\*---------------------------------------------------------------------------*/
FoamFile
{
    version     2.0;
    format      ascii;
    class       surfaceScalarField;
    location    "2500";
    object      phi;
}
// * * * * * * * * * * * * * * * * * * * * * * * * * * * * * * * * * * * * * //

dimensions      [1 0 -1 0 0 0 0];

internalField   nonuniform List<scalar> 
119360
(
-3.25068e-07
-1.58284e-11
3.25084e-07
-5.47241e-07
-2.42359e-12
2.22327e-07
-6.32898e-07
-1.33352e-12
8.57124e-08
-6.01346e-07
-1.33425e-12
-3.15067e-08
-4.87317e-07
-1.5392e-12
-1.13988e-07
-3.19086e-07
-1.71584e-12
-1.68192e-07
-1.16785e-07
-1.78983e-12
-2.02262e-07
1.05417e-07
-1.73538e-12
-2.22163e-07
3.37356e-07
-1.56279e-12
-2.31903e-07
5.72236e-07
-1.37603e-12
-2.34846e-07
8.05668e-07
-1.23203e-12
-2.33401e-07
1.03462e-06
-1.10769e-12
-2.2892e-07
1.257e-06
-1.00111e-12
-2.22354e-07
1.47138e-06
-9.08738e-13
-2.14357e-07
1.67679e-06
-8.29053e-13
-2.05393e-07
1.87261e-06
-7.59359e-13
-1.95802e-07
2.05846e-06
-6.96437e-13
-1.85834e-07
2.23416e-06
-6.3668e-13
-1.75679e-07
2.39966e-06
-5.77255e-13
-1.65483e-07
2.55503e-06
-5.16859e-13
-1.55354e-07
2.70042e-06
-4.55492e-13
-1.4538e-07
2.83607e-06
-3.94513e-13
-1.35627e-07
2.96222e-06
-3.35255e-13
-1.26144e-07
3.0792e-06
-2.78245e-13
-1.16969e-07
3.18734e-06
-2.25426e-13
-1.0813e-07
3.287e-06
-1.80768e-13
-9.96468e-08
3.37854e-06
-1.47433e-13
-9.15321e-08
3.46235e-06
-1.267e-13
-8.37928e-08
3.53879e-06
-1.19012e-13
-7.64314e-08
3.60824e-06
-1.25007e-13
-6.94465e-08
3.67108e-06
-1.44408e-13
-6.28334e-08
3.72767e-06
-1.74912e-13
-5.6585e-08
3.77837e-06
-2.12299e-13
-5.06921e-08
3.82352e-06
-2.51531e-13
-4.51437e-08
3.86346e-06
-2.90722e-13
-3.99278e-08
3.8985e-06
-3.29608e-13
-3.50314e-08
3.92895e-06
-3.68868e-13
-3.04409e-08
3.9551e-06
-4.06227e-13
-2.61424e-08
3.97723e-06
-4.37883e-13
-2.21216e-08
3.9956e-06
-4.61669e-13
-1.83645e-08
4.01047e-06
-4.77462e-13
-1.48571e-08
4.02207e-06
-4.89758e-13
-1.15858e-08
4.03061e-06
-5.03608e-13
-8.53724e-09
4.03632e-06
-5.22995e-13
-5.69885e-09
4.0394e-06
-5.47948e-13
-3.05837e-09
4.04001e-06
-5.7605e-13
-6.03225e-10
4.03835e-06
-6.03792e-13
1.67766e-09
4.03457e-06
-6.28827e-13
3.79446e-09
4.02882e-06
-6.51518e-13
5.75792e-09
4.02126e-06
-6.72057e-13
7.57787e-09
4.01201e-06
-6.90056e-13
9.26344e-09
4.00121e-06
-7.02588e-13
1.08231e-08
3.98896e-06
-7.0467e-13
1.22647e-08
3.97538e-06
-6.90709e-13
1.35959e-08
3.96058e-06
-6.56639e-13
1.48235e-08
3.94464e-06
-6.01669e-13
1.59543e-08
3.92766e-06
-5.282e-13
1.69943e-08
3.90973e-06
-4.42838e-13
1.79495e-08
3.89093e-06
-3.53271e-13
1.88253e-08
3.87132e-06
-2.67048e-13
1.96267e-08
3.85097e-06
-1.90609e-13
2.03584e-08
3.82996e-06
-1.27271e-13
2.10251e-08
3.80835e-06
-7.83934e-14
2.16308e-08
3.78618e-06
-4.27969e-14
2.21796e-08
3.76351e-06
-1.80112e-14
2.26752e-08
3.7404e-06
-1.48277e-15
2.31212e-08
3.71689e-06
9.07819e-15
2.35208e-08
3.69302e-06
1.49068e-14
2.38773e-08
3.66884e-06
1.6697e-14
2.41935e-08
3.64437e-06
1.40602e-14
2.44724e-08
3.61966e-06
6.44126e-15
2.47166e-08
3.59474e-06
-6.39573e-15
2.49286e-08
3.56964e-06
-2.53251e-14
2.51108e-08
3.54438e-06
-5.01108e-14
2.52654e-08
3.51899e-06
-7.98093e-14
2.53947e-08
3.49349e-06
-1.13546e-13
2.55006e-08
3.46791e-06
-1.49476e-13
2.55851e-08
3.44226e-06
-1.86141e-13
2.56501e-08
3.41657e-06
-2.21724e-13
2.56972e-08
3.39085e-06
-2.54808e-13
2.57282e-08
3.36511e-06
-2.84424e-13
2.57446e-08
3.33937e-06
-3.09765e-13
2.57479e-08
3.31363e-06
-3.30914e-13
2.57396e-08
3.28792e-06
-3.48164e-13
2.5721e-08
3.26223e-06
-3.62126e-13
2.56933e-08
3.23658e-06
-3.73936e-13
2.56578e-08
3.21097e-06
-3.84691e-13
2.56155e-08
3.18541e-06
-3.9528e-13
2.55677e-08
3.15991e-06
-4.06909e-13
2.55153e-08
3.13446e-06
-4.20399e-13
2.54593e-08
3.10906e-06
-4.36386e-13
2.54005e-08
3.08373e-06
-4.55149e-13
2.53399e-08
3.05846e-06
-4.76354e-13
2.52782e-08
3.03326e-06
-4.99835e-13
2.52164e-08
3.00811e-06
-5.25051e-13
2.5155e-08
2.98303e-06
-5.5085e-13
2.50948e-08
2.958e-06
-5.76538e-13
2.50364e-08
2.93304e-06
-6.00893e-13
2.49806e-08
2.90812e-06
-6.23223e-13
2.49278e-08
2.88325e-06
-6.42374e-13
2.48788e-08
2.85843e-06
-6.57806e-13
2.4834e-08
2.83366e-06
-6.68687e-13
2.4794e-08
2.80891e-06
-6.74487e-13
2.47593e-08
2.7842e-06
-6.74876e-13
2.47305e-08
2.75951e-06
-6.69408e-13
2.47079e-08
2.73483e-06
-6.57834e-13
2.46921e-08
2.71017e-06
-6.40376e-13
2.46835e-08
2.6855e-06
-6.17256e-13
2.46825e-08
2.66083e-06
-5.88667e-13
2.46897e-08
2.63614e-06
-5.55055e-13
2.47054e-08
2.61143e-06
-5.17585e-13
2.47301e-08
2.58668e-06
-4.76702e-13
2.47641e-08
2.56189e-06
-4.33431e-13
2.48079e-08
2.53705e-06
-3.89188e-13
2.48619e-08
2.51214e-06
-3.45029e-13
2.49264e-08
2.48716e-06
-3.02147e-13
2.50019e-08
2.46208e-06
-2.6154e-13
2.50886e-08
2.43691e-06
-2.23959e-13
2.51871e-08
2.41163e-06
-1.8957e-13
2.52976e-08
2.38622e-06
-1.58345e-13
2.54204e-08
2.36068e-06
-1.29924e-13
2.55561e-08
2.33499e-06
-1.03112e-13
2.57048e-08
2.30913e-06
-7.64386e-14
2.5867e-08
2.2831e-06
-4.86275e-14
2.6043e-08
2.25688e-06
-1.81797e-14
2.62332e-08
2.23045e-06
1.65703e-14
2.64378e-08
2.20381e-06
5.6233e-14
2.66572e-08
2.17692e-06
1.00753e-13
2.68918e-08
2.14979e-06
1.49603e-13
2.71419e-08
2.12239e-06
2.00284e-13
2.74076e-08
2.0947e-06
2.50217e-13
2.76894e-08
2.06672e-06
2.95375e-13
2.79874e-08
2.03842e-06
3.32845e-13
2.8302e-08
2.00979e-06
3.59268e-13
2.86332e-08
1.98081e-06
3.73507e-13
2.89813e-08
1.95146e-06
3.76532e-13
2.93464e-08
1.92173e-06
3.71953e-13
2.97288e-08
1.8916e-06
3.64597e-13
3.01285e-08
1.86105e-06
3.61072e-13
3.05458e-08
1.83007e-06
3.66235e-13
3.09805e-08
1.79863e-06
3.82694e-13
3.14329e-08
1.76672e-06
4.08951e-13
3.19029e-08
1.73432e-06
4.38316e-13
3.23904e-08
1.70142e-06
4.60937e-13
3.28952e-08
1.668e-06
4.66099e-13
3.34172e-08
1.63403e-06
4.45893e-13
3.3956e-08
1.59951e-06
3.99375e-13
3.45112e-08
1.56442e-06
3.33539e-13
3.50826e-08
1.52874e-06
2.63206e-13
3.56695e-08
1.49246e-06
2.06751e-13
3.62715e-08
1.45556e-06
1.79301e-13
3.68881e-08
1.41803e-06
1.85352e-13
3.75185e-08
1.37986e-06
2.17465e-13
3.81618e-08
1.34104e-06
2.5549e-13
3.88171e-08
1.30154e-06
2.77417e-13
3.94831e-08
1.26137e-06
2.67814e-13
4.01586e-08
1.22052e-06
2.26513e-13
4.0842e-08
1.17898e-06
1.70447e-13
4.15317e-08
1.13675e-06
1.2404e-13
4.22258e-08
1.09381e-06
1.0586e-13
4.29225e-08
1.05019e-06
1.15269e-13
4.36194e-08
1.00586e-06
1.29535e-13
4.43139e-08
9.60853e-07
1.17129e-13
4.5003e-08
9.15162e-07
5.92304e-14
4.56835e-08
8.68803e-07
-3.3834e-14
4.63516e-08
8.21793e-07
-1.21431e-13
4.70033e-08
7.74153e-07
-1.58679e-13
4.76342e-08
7.25909e-07
-1.2923e-13
4.82392e-08
6.77093e-07
-6.53644e-14
4.88124e-08
6.27743e-07
-3.03091e-14
4.93473e-08
5.77904e-07
-7.43294e-14
4.9836e-08
5.27631e-07
-1.88405e-13
5.027e-08
4.7699e-07
-3.04951e-13
5.06398e-08
4.26055e-07
-3.49776e-13
5.09344e-08
3.74915e-07
-3.10085e-13
5.11411e-08
3.23671e-07
-2.54047e-13
5.12454e-08
2.72444e-07
-2.70617e-13
5.12299e-08
2.21371e-07
-3.75755e-13
5.1075e-08
1.70618e-07
-4.81171e-13
5.07575e-08
1.20372e-07
-4.76952e-13
5.02504e-08
7.08588e-08
-3.57603e-13
4.952e-08
2.23389e-08
-2.39697e-13
4.8527e-08
-2.48624e-08
-2.28428e-13
4.72087e-08
-7.03496e-08
-2.81886e-13
4.54948e-08
-1.13674e-07
-2.71894e-13
4.33332e-08
-1.54334e-07
-1.84963e-13
4.06688e-08
-1.91736e-07
-1.72751e-13
3.74113e-08
-2.25159e-07
-3.18967e-13
3.34322e-08
-2.53741e-07
-4.53193e-13
2.8591e-08
-2.7645e-07
-3.79585e-13
2.27176e-08
-2.92041e-07
-2.26152e-13
1.56005e-08
-2.99029e-07
-2.57905e-13
6.99653e-09
-2.95682e-07
-3.53828e-13
-3.33865e-09
-2.80097e-07
-1.83853e-13
-1.55762e-08
-2.50332e-07
1.00697e-13
-2.97556e-08
-2.04864e-07
2.97873e-13
-4.54608e-08
-1.43915e-07
1.0304e-12
-6.09404e-08
-7.25773e-08
1.69442e-12
-7.13262e-08
-1.08093e-08
7.48068e-13
-6.17554e-08
1.44806e-12
-1.07973e-08
-3.25037e-07
3.25103e-07
-5.47235e-07
2.22332e-07
-6.32892e-07
8.57153e-08
-6.01339e-07
-3.15042e-08
-4.87309e-07
-1.13985e-07
-3.19077e-07
-1.6819e-07
-1.16776e-07
-2.02259e-07
1.05425e-07
-2.22161e-07
3.37363e-07
-2.31901e-07
5.72242e-07
-2.34844e-07
8.05673e-07
-2.334e-07
1.03462e-06
-2.28918e-07
1.257e-06
-2.22352e-07
1.47138e-06
-2.14355e-07
1.67679e-06
-2.05392e-07
1.87261e-06
-1.958e-07
2.05846e-06
-1.85833e-07
2.23416e-06
-1.75678e-07
2.39966e-06
-1.65481e-07
2.55503e-06
-1.55353e-07
2.70042e-06
-1.45379e-07
2.83606e-06
-1.35625e-07
2.96222e-06
-1.26142e-07
3.0792e-06
-1.16967e-07
3.18734e-06
-1.08129e-07
3.287e-06
-9.96457e-08
3.37854e-06
-9.15311e-08
3.46234e-06
-8.37919e-08
3.53878e-06
-7.64305e-08
3.60824e-06
-6.94456e-08
3.67108e-06
-6.28326e-08
3.72767e-06
-5.65842e-08
3.77837e-06
-5.06912e-08
3.82352e-06
-4.51428e-08
3.86345e-06
-3.99269e-08
3.89849e-06
-3.50305e-08
3.92894e-06
-3.04399e-08
3.95509e-06
-2.61413e-08
3.97722e-06
-2.21205e-08
3.9956e-06
-1.83634e-08
4.01047e-06
-1.48559e-08
4.02206e-06
-1.15846e-08
4.03061e-06
-8.53602e-09
4.03632e-06
-5.69759e-09
4.03939e-06
-3.05707e-09
4.04001e-06
-6.0187e-10
4.03834e-06
1.67907e-09
4.03456e-06
3.79594e-09
4.02882e-06
5.75946e-09
4.02126e-06
7.57946e-09
4.01201e-06
9.26507e-09
4.00121e-06
1.08247e-08
3.98896e-06
1.22664e-08
3.97538e-06
1.35976e-08
3.96057e-06
1.48252e-08
3.94464e-06
1.5956e-08
3.92766e-06
1.6996e-08
3.90973e-06
1.79512e-08
3.89092e-06
1.88269e-08
3.87131e-06
1.96281e-08
3.85097e-06
2.03598e-08
3.82996e-06
2.10264e-08
3.80834e-06
2.1632e-08
3.78618e-06
2.21807e-08
3.76351e-06
2.26763e-08
3.7404e-06
2.31221e-08
3.71689e-06
2.35217e-08
3.69302e-06
2.38781e-08
3.66884e-06
2.41943e-08
3.64437e-06
2.44731e-08
3.61966e-06
2.47173e-08
3.59474e-06
2.49292e-08
3.56964e-06
2.51114e-08
3.54438e-06
2.5266e-08
3.51899e-06
2.53953e-08
3.49349e-06
2.55012e-08
3.46791e-06
2.55857e-08
3.44226e-06
2.56506e-08
3.41657e-06
2.56978e-08
3.39085e-06
2.57288e-08
3.36511e-06
2.57452e-08
3.33937e-06
2.57485e-08
3.31363e-06
2.57402e-08
3.28792e-06
2.57216e-08
3.26223e-06
2.56939e-08
3.23658e-06
2.56584e-08
3.21097e-06
2.56162e-08
3.18541e-06
2.55684e-08
3.15991e-06
2.5516e-08
3.13446e-06
2.546e-08
3.10906e-06
2.54013e-08
3.08373e-06
2.53407e-08
3.05846e-06
2.52791e-08
3.03326e-06
2.52173e-08
3.00811e-06
2.5156e-08
2.98303e-06
2.50959e-08
2.958e-06
2.50376e-08
2.93303e-06
2.49819e-08
2.90812e-06
2.49292e-08
2.88325e-06
2.48802e-08
2.85843e-06
2.48355e-08
2.83366e-06
2.47956e-08
2.80891e-06
2.4761e-08
2.7842e-06
2.47322e-08
2.75951e-06
2.47096e-08
2.73483e-06
2.46939e-08
2.71017e-06
2.46853e-08
2.6855e-06
2.46844e-08
2.66083e-06
2.46916e-08
2.63614e-06
2.47073e-08
2.61143e-06
2.47319e-08
2.58668e-06
2.47659e-08
2.56189e-06
2.48097e-08
2.53705e-06
2.48637e-08
2.51214e-06
2.49281e-08
2.48716e-06
2.50036e-08
2.46208e-06
2.50903e-08
2.43691e-06
2.51887e-08
2.41163e-06
2.52991e-08
2.38622e-06
2.54219e-08
2.36068e-06
2.55575e-08
2.33499e-06
2.57062e-08
2.30913e-06
2.58683e-08
2.2831e-06
2.60442e-08
2.25688e-06
2.62343e-08
2.23045e-06
2.64388e-08
2.20381e-06
2.66582e-08
2.17692e-06
2.68927e-08
2.14979e-06
2.71426e-08
2.12239e-06
2.74082e-08
2.0947e-06
2.76899e-08
2.06672e-06
2.79878e-08
2.03842e-06
2.83021e-08
2.00979e-06
2.86332e-08
1.98081e-06
2.89812e-08
1.95146e-06
2.93463e-08
1.92173e-06
2.97286e-08
1.8916e-06
3.01282e-08
1.86105e-06
3.05453e-08
1.83007e-06
3.098e-08
1.79863e-06
3.14324e-08
1.76672e-06
3.19023e-08
1.73433e-06
3.23897e-08
1.70142e-06
3.28944e-08
1.668e-06
3.34163e-08
1.63403e-06
3.3955e-08
1.59951e-06
3.45102e-08
1.56442e-06
3.50815e-08
1.52874e-06
3.56684e-08
1.49246e-06
3.62704e-08
1.45556e-06
3.6887e-08
1.41803e-06
3.75174e-08
1.37986e-06
3.81608e-08
1.34104e-06
3.88161e-08
1.30154e-06
3.94821e-08
1.26137e-06
4.01575e-08
1.22052e-06
4.08409e-08
1.17898e-06
4.15306e-08
1.13675e-06
4.22248e-08
1.09382e-06
4.29216e-08
1.05019e-06
4.36185e-08
1.00586e-06
4.43131e-08
9.60854e-07
4.50022e-08
9.15162e-07
4.56827e-08
8.68803e-07
4.63508e-08
8.21794e-07
4.70027e-08
7.74154e-07
4.76337e-08
7.2591e-07
4.82388e-08
6.77094e-07
4.88122e-08
6.27743e-07
4.9347e-08
5.77904e-07
4.98358e-08
5.27632e-07
5.02699e-08
4.7699e-07
5.06398e-08
4.26056e-07
5.09345e-08
3.74916e-07
5.11414e-08
3.23672e-07
5.12457e-08
2.72444e-07
5.12303e-08
2.21372e-07
5.10754e-08
1.70619e-07
5.0758e-08
1.20374e-07
5.02512e-08
7.08599e-08
4.9521e-08
2.23398e-08
4.85279e-08
-2.48617e-08
4.72096e-08
-7.03488e-08
4.54958e-08
-1.13673e-07
4.33344e-08
-1.54333e-07
4.06699e-08
-1.91736e-07
3.74122e-08
-2.25159e-07
3.34328e-08
-2.53741e-07
2.85918e-08
-2.76449e-07
2.27187e-08
-2.9204e-07
1.56017e-08
-2.99029e-07
6.99758e-09
-2.95681e-07
-3.33756e-09
-2.80096e-07
-1.55755e-08
-2.50333e-07
-2.9756e-08
-2.04863e-07
-4.54621e-08
-1.43912e-07
-6.09419e-08
-7.25785e-08
-7.13282e-08
-1.08085e-08
-6.17632e-08
-1.08014e-08
-1.96079e-07
-2.942e-12
5.21305e-07
-2.27164e-07
4.7101e-13
2.5351e-07
-1.85812e-07
4.56232e-13
4.44055e-08
-9.82688e-08
3.81274e-13
-1.1901e-07
2.58698e-08
3.1377e-13
-2.3809e-07
1.78338e-07
2.67029e-13
-3.20625e-07
3.51166e-07
2.43179e-13
-3.75057e-07
5.3768e-07
2.31715e-13
-4.08645e-07
7.32514e-07
2.21092e-13
-4.26709e-07
9.31335e-07
2.08386e-13
-4.33641e-07
1.1307e-06
1.93682e-13
-4.32738e-07
1.32799e-06
1.78167e-13
-4.26196e-07
1.52128e-06
1.62131e-13
-4.15618e-07
1.7091e-06
1.46407e-13
-4.02159e-07
1.89039e-06
1.31787e-13
-3.86672e-07
2.0644e-06
1.18554e-13
-3.69797e-07
2.23061e-06
1.07535e-13
-3.5202e-07
2.38866e-06
9.93542e-14
-3.33716e-07
2.53836e-06
9.39001e-14
-3.15177e-07
2.67965e-06
9.04931e-14
-2.96629e-07
2.81254e-06
8.86889e-14
-2.78251e-07
2.9371e-06
8.81962e-14
-2.60183e-07
3.0535e-06
8.86298e-14
-2.42533e-07
3.16193e-06
8.90808e-14
-2.25385e-07
3.26261e-06
8.87685e-14
-2.08803e-07
3.35581e-06
8.72453e-14
-1.92833e-07
3.44179e-06
8.44663e-14
-1.77507e-07
3.52085e-06
8.03064e-14
-1.62846e-07
3.59329e-06
7.46268e-14
-1.48862e-07
3.6594e-06
6.75665e-14
-1.35557e-07
3.71951e-06
5.98608e-14
-1.22929e-07
3.7739e-06
5.28663e-14
-1.10968e-07
3.82287e-06
4.76656e-14
-9.96607e-08
3.86673e-06
4.46228e-14
-8.89905e-08
3.90574e-06
4.33807e-14
-7.89376e-08
3.9402e-06
4.34605e-14
-6.94803e-08
3.97036e-06
4.48933e-14
-6.05952e-08
3.99649e-06
4.81823e-14
-5.22581e-08
4.01882e-06
5.39138e-14
-4.44442e-08
4.03759e-06
6.1779e-14
-3.71283e-08
4.05303e-06
7.06781e-14
-3.02855e-08
4.06534e-06
7.91331e-14
-2.38909e-08
4.07474e-06
8.61275e-14
-1.79206e-08
4.0814e-06
9.1408e-14
-1.23508e-08
4.08551e-06
9.55227e-14
-7.15892e-09
4.08725e-06
9.94605e-14
-2.32283e-09
4.08676e-06
1.03346e-13
2.17799e-09
4.0842e-06
1.0718e-13
6.36331e-09
4.07972e-06
1.10812e-13
1.02526e-08
4.07345e-06
1.1399e-13
1.38639e-08
4.06552e-06
1.16853e-13
1.72144e-08
4.05603e-06
1.2009e-13
2.03201e-08
4.04512e-06
1.24739e-13
2.31961e-08
4.03287e-06
1.31466e-13
2.58567e-08
4.0194e-06
1.40386e-13
2.83151e-08
4.00479e-06
1.50735e-13
3.0584e-08
3.98912e-06
1.61067e-13
3.26752e-08
3.97249e-06
1.69709e-13
3.45999e-08
3.95496e-06
1.75011e-13
3.63684e-08
3.93661e-06
1.75954e-13
3.79907e-08
3.9175e-06
1.72162e-13
3.9476e-08
3.89771e-06
1.64058e-13
4.08331e-08
3.87728e-06
1.52497e-13
4.20701e-08
3.85628e-06
1.38755e-13
4.31947e-08
3.83475e-06
1.23989e-13
4.42144e-08
3.81274e-06
1.09285e-13
4.51359e-08
3.7903e-06
9.54041e-14
4.59659e-08
3.76748e-06
8.27163e-14
4.67103e-08
3.7443e-06
7.14198e-14
4.73752e-08
3.72081e-06
6.13896e-14
4.79659e-08
3.69705e-06
5.25251e-14
4.84877e-08
3.67304e-06
4.4698e-14
4.89456e-08
3.64881e-06
3.78389e-14
4.93442e-08
3.62439e-06
3.18783e-14
4.9688e-08
3.59981e-06
2.68962e-14
4.99812e-08
3.57508e-06
2.30624e-14
5.02278e-08
3.55024e-06
2.04187e-14
5.04316e-08
3.5253e-06
1.90725e-14
5.05962e-08
3.50028e-06
1.9069e-14
5.0725e-08
3.47519e-06
2.03666e-14
5.08213e-08
3.45005e-06
2.28125e-14
5.08881e-08
3.42488e-06
2.61744e-14
5.09285e-08
3.39968e-06
3.02197e-14
5.09451e-08
3.37446e-06
3.45981e-14
5.09407e-08
3.34924e-06
3.9039e-14
5.09177e-08
3.32403e-06
4.32682e-14
5.08784e-08
3.29883e-06
4.71193e-14
5.08253e-08
3.27364e-06
5.03736e-14
5.07603e-08
3.24848e-06
5.30069e-14
5.06856e-08
3.22334e-06
5.51198e-14
5.06031e-08
3.19824e-06
5.67781e-14
5.05146e-08
3.17316e-06
5.81277e-14
5.04217e-08
3.14812e-06
5.9453e-14
5.03263e-08
3.12312e-06
6.09379e-14
5.02298e-08
3.09815e-06
6.28669e-14
5.01337e-08
3.07322e-06
6.54378e-14
5.00394e-08
3.04832e-06
6.88239e-14
4.99482e-08
3.02345e-06
7.3126e-14
4.98615e-08
2.99861e-06
7.8344e-14
4.97804e-08
2.97379e-06
8.44364e-14
4.97061e-08
2.949e-06
9.13822e-14
4.96398e-08
2.92422e-06
9.89907e-14
4.95824e-08
2.89946e-06
1.07127e-13
4.9535e-08
2.87471e-06
1.15571e-13
4.94987e-08
2.84996e-06
1.24172e-13
4.94743e-08
2.8252e-06
1.32675e-13
4.94628e-08
2.80044e-06
1.40898e-13
4.94652e-08
2.77565e-06
1.48618e-13
4.94822e-08
2.75085e-06
1.55619e-13
4.95149e-08
2.726e-06
1.61777e-13
4.95639e-08
2.70112e-06
1.66888e-13
4.96302e-08
2.67618e-06
1.70839e-13
4.97146e-08
2.65119e-06
1.73539e-13
4.98179e-08
2.62613e-06
1.74812e-13
4.99408e-08
2.60098e-06
1.74715e-13
5.00842e-08
2.57575e-06
1.73216e-13
5.02487e-08
2.55042e-06
1.70385e-13
5.04352e-08
2.52497e-06
1.66315e-13
5.06444e-08
2.49941e-06
1.61246e-13
5.0877e-08
2.47371e-06
1.55424e-13
5.11337e-08
2.44786e-06
1.49131e-13
5.14152e-08
2.42185e-06
1.42688e-13
5.17222e-08
2.39567e-06
1.36318e-13
5.20554e-08
2.36931e-06
1.30351e-13
5.24153e-08
2.34275e-06
1.24866e-13
5.28027e-08
2.31598e-06
1.19994e-13
5.32182e-08
2.28898e-06
1.15557e-13
5.36623e-08
2.26174e-06
1.11338e-13
5.41357e-08
2.23425e-06
1.0697e-13
5.46389e-08
2.20649e-06
1.01887e-13
5.51725e-08
2.17845e-06
9.54931e-14
5.5737e-08
2.1501e-06
8.72671e-14
5.63327e-08
2.12145e-06
7.6824e-14
5.69603e-08
2.09246e-06
6.41605e-14
5.762e-08
2.06313e-06
4.95819e-14
5.83122e-08
2.03344e-06
3.38341e-14
5.90371e-08
2.00337e-06
1.81522e-14
5.97951e-08
1.97291e-06
3.84419e-15
6.05863e-08
1.94204e-06
-7.96581e-15
6.14108e-08
1.91075e-06
-1.65353e-14
6.22686e-08
1.87901e-06
-2.19893e-14
6.31596e-08
1.84683e-06
-2.5379e-14
6.40838e-08
1.81417e-06
-2.85882e-14
6.50408e-08
1.78103e-06
-3.38132e-14
6.60303e-08
1.74739e-06
-4.27574e-14
6.70518e-08
1.71323e-06
-5.61634e-14
6.81046e-08
1.67854e-06
-7.29e-14
6.9188e-08
1.64332e-06
-9.02056e-14
7.03012e-08
1.60753e-06
-1.04243e-13
7.1443e-08
1.57119e-06
-1.1164e-13
7.26122e-08
1.53426e-06
-1.10675e-13
7.38073e-08
1.49674e-06
-1.02619e-13
7.50267e-08
1.45863e-06
-9.14685e-14
7.62685e-08
1.41991e-06
-8.26422e-14
7.75306e-08
1.38057e-06
-8.06161e-14
7.88104e-08
1.34061e-06
-8.65974e-14
8.01054e-08
1.30004e-06
-9.76649e-14
8.14124e-08
1.25883e-06
-1.07928e-13
8.27281e-08
1.217e-06
-1.1157e-13
8.40486e-08
1.17455e-06
-1.06637e-13
8.53697e-08
1.13147e-06
-9.67421e-14
8.66867e-08
1.08778e-06
-8.9366e-14
8.79942e-08
1.04349e-06
-9.1184e-14
8.92864e-08
9.98615e-07
-1.0273e-13
9.05567e-08
9.53163e-07
-1.16573e-13
9.17979e-08
9.0716e-07
-1.21146e-13
9.30017e-08
8.60632e-07
-1.0901e-13
9.4159e-08
8.13608e-07
-8.37316e-14
9.52598e-08
7.66125e-07
-5.95496e-14
9.62923e-08
7.18226e-07
-5.17017e-14
9.72439e-08
6.6996e-07
-6.38101e-14
9.81e-08
6.21385e-07
-8.30447e-14
9.88442e-08
5.72567e-07
-8.86791e-14
9.9458e-08
5.23582e-07
-7.06796e-14
9.99204e-08
4.74518e-07
-4.09117e-14
1.00207e-07
4.25474e-07
-2.37796e-14
1.00291e-07
3.76567e-07
-3.20785e-14
1.0014e-07
3.27927e-07
-5.01682e-14
9.97185e-08
2.79705e-07
-4.70457e-14
9.89835e-08
2.32076e-07
-1.04292e-14
9.78858e-08
1.85236e-07
3.57214e-14
9.63661e-08
1.39414e-07
5.68434e-14
9.43554e-08
9.48672e-08
5.13895e-14
9.17618e-08
5.18873e-08
5.32421e-14
8.8482e-08
1.08068e-08
7.91658e-14
8.44216e-08
-2.79775e-08
9.31685e-14
7.94609e-08
-6.4011e-08
5.69822e-14
7.34523e-08
-9.67963e-08
5.71765e-15
6.62249e-08
-1.25773e-07
1.34615e-14
5.75757e-08
-1.50316e-07
7.32678e-14
4.72681e-08
-1.69739e-07
9.87266e-14
3.5031e-08
-1.8332e-07
7.16927e-14
2.05846e-08
-1.90323e-07
4.95298e-14
3.67217e-09
-1.90057e-07
1.70697e-15
-1.58344e-08
-1.82001e-07
-1.15269e-13
-3.78052e-08
-1.65912e-07
-1.95094e-13
-6.15441e-08
-1.41805e-07
-2.2185e-13
-8.50409e-08
-1.09204e-07
-5.1914e-13
-1.03922e-07
-6.55287e-08
-3.13194e-13
-1.05426e-07
8.40105e-13
-7.63207e-08
-1.96067e-07
5.21303e-07
-2.2716e-07
2.53507e-07
-1.85807e-07
4.44027e-08
-9.82646e-08
-1.19013e-07
2.5874e-08
-2.38092e-07
1.78342e-07
-3.20627e-07
3.5117e-07
-3.75059e-07
5.37682e-07
-4.08646e-07
7.32516e-07
-4.26709e-07
9.31337e-07
-4.33641e-07
1.1307e-06
-4.32739e-07
1.32799e-06
-4.26196e-07
1.52128e-06
-4.15619e-07
1.7091e-06
-4.0216e-07
1.89039e-06
-3.86672e-07
2.0644e-06
-3.69797e-07
2.2306e-06
-3.5202e-07
2.38866e-06
-3.33716e-07
2.53836e-06
-3.15177e-07
2.67965e-06
-2.96629e-07
2.81253e-06
-2.78251e-07
2.9371e-06
-2.60183e-07
3.0535e-06
-2.42533e-07
3.16193e-06
-2.25385e-07
3.26261e-06
-2.08803e-07
3.3558e-06
-1.92832e-07
3.44179e-06
-1.77506e-07
3.52085e-06
-1.62846e-07
3.59328e-06
-1.48862e-07
3.6594e-06
-1.35557e-07
3.7195e-06
-1.22929e-07
3.77389e-06
-1.10968e-07
3.82287e-06
-9.96607e-08
3.86672e-06
-8.89905e-08
3.90574e-06
-7.89376e-08
3.9402e-06
-6.94803e-08
3.97036e-06
-6.05952e-08
3.99648e-06
-5.22582e-08
4.01881e-06
-4.44442e-08
4.03759e-06
-3.71284e-08
4.05303e-06
-3.02856e-08
4.06534e-06
-2.3891e-08
4.07474e-06
-1.79207e-08
4.0814e-06
-1.23509e-08
4.08551e-06
-7.15908e-09
4.08724e-06
-2.323e-09
4.08676e-06
2.17781e-09
4.0842e-06
6.36311e-09
4.07972e-06
1.02524e-08
4.07345e-06
1.38637e-08
4.06551e-06
1.72142e-08
4.05603e-06
2.03199e-08
4.04512e-06
2.31959e-08
4.03287e-06
2.58564e-08
4.0194e-06
2.83148e-08
4.00478e-06
3.05837e-08
3.98912e-06
3.2675e-08
3.97248e-06
3.45996e-08
3.95496e-06
3.63682e-08
3.93661e-06
3.79905e-08
3.9175e-06
3.94758e-08
3.89771e-06
4.08329e-08
3.87728e-06
4.20699e-08
3.85627e-06
4.31946e-08
3.83474e-06
4.42142e-08
3.81274e-06
4.51358e-08
3.7903e-06
4.59658e-08
3.76748e-06
4.67103e-08
3.7443e-06
4.73751e-08
3.72081e-06
4.79659e-08
3.69705e-06
4.84877e-08
3.67303e-06
4.89456e-08
3.64881e-06
4.93442e-08
3.62439e-06
4.9688e-08
3.59981e-06
4.99812e-08
3.57508e-06
5.02277e-08
3.55024e-06
5.04315e-08
3.5253e-06
5.05961e-08
3.50028e-06
5.07249e-08
3.47519e-06
5.08212e-08
3.45005e-06
5.0888e-08
3.42487e-06
5.09284e-08
3.39968e-06
5.0945e-08
3.37446e-06
5.09405e-08
3.34924e-06
5.09175e-08
3.32403e-06
5.08783e-08
3.29883e-06
5.08251e-08
3.27364e-06
5.07602e-08
3.24848e-06
5.06855e-08
3.22334e-06
5.06029e-08
3.19824e-06
5.05144e-08
3.17316e-06
5.04216e-08
3.14812e-06
5.03262e-08
3.12312e-06
5.02297e-08
3.09815e-06
5.01336e-08
3.07322e-06
5.00393e-08
3.04832e-06
4.99481e-08
3.02345e-06
4.98614e-08
2.99861e-06
4.97803e-08
2.97379e-06
4.97061e-08
2.949e-06
4.96397e-08
2.92422e-06
4.95823e-08
2.89946e-06
4.95349e-08
2.87471e-06
4.94986e-08
2.84996e-06
4.94742e-08
2.8252e-06
4.94627e-08
2.80044e-06
4.94651e-08
2.77565e-06
4.94821e-08
2.75085e-06
4.95147e-08
2.726e-06
4.95638e-08
2.70112e-06
4.96301e-08
2.67618e-06
4.97145e-08
2.65119e-06
4.98177e-08
2.62613e-06
4.99407e-08
2.60098e-06
5.00841e-08
2.57575e-06
5.02486e-08
2.55042e-06
5.04352e-08
2.52497e-06
5.06444e-08
2.49941e-06
5.0877e-08
2.47371e-06
5.11337e-08
2.44786e-06
5.14152e-08
2.42185e-06
5.17222e-08
2.39567e-06
5.20553e-08
2.36931e-06
5.24153e-08
2.34275e-06
5.28027e-08
2.31598e-06
5.32181e-08
2.28898e-06
5.36623e-08
2.26174e-06
5.41357e-08
2.23425e-06
5.46389e-08
2.20649e-06
5.51725e-08
2.17845e-06
5.57369e-08
2.1501e-06
5.63327e-08
2.12145e-06
5.69602e-08
2.09246e-06
5.76199e-08
2.06313e-06
5.83121e-08
2.03344e-06
5.90371e-08
2.00337e-06
5.97951e-08
1.97291e-06
6.05863e-08
1.94204e-06
6.14108e-08
1.91075e-06
6.22686e-08
1.87901e-06
6.31596e-08
1.84683e-06
6.40838e-08
1.81417e-06
6.50408e-08
1.78103e-06
6.60303e-08
1.74739e-06
6.70517e-08
1.71323e-06
6.81046e-08
1.67854e-06
6.9188e-08
1.64332e-06
7.03012e-08
1.60754e-06
7.1443e-08
1.57119e-06
7.26121e-08
1.53426e-06
7.38073e-08
1.49674e-06
7.50267e-08
1.45863e-06
7.62685e-08
1.41991e-06
7.75305e-08
1.38057e-06
7.88104e-08
1.34061e-06
8.01053e-08
1.30004e-06
8.14124e-08
1.25883e-06
8.27281e-08
1.217e-06
8.40486e-08
1.17455e-06
8.53697e-08
1.13147e-06
8.66867e-08
1.08778e-06
8.79942e-08
1.04349e-06
8.92864e-08
9.98615e-07
9.05567e-08
9.53163e-07
9.17979e-08
9.0716e-07
9.30017e-08
8.60632e-07
9.41591e-08
8.13608e-07
9.52598e-08
7.66126e-07
9.62923e-08
7.18227e-07
9.72439e-08
6.69961e-07
9.81e-08
6.21386e-07
9.88442e-08
5.72567e-07
9.94581e-08
5.23582e-07
9.99204e-08
4.74518e-07
1.00207e-07
4.25475e-07
1.00291e-07
3.76567e-07
1.0014e-07
3.27927e-07
9.97185e-08
2.79706e-07
9.89835e-08
2.32076e-07
9.78859e-08
1.85236e-07
9.63661e-08
1.39414e-07
9.43553e-08
9.48675e-08
9.17618e-08
5.18877e-08
8.8482e-08
1.08071e-08
8.44217e-08
-2.79774e-08
7.94609e-08
-6.4011e-08
7.34523e-08
-9.67961e-08
6.62249e-08
-1.25773e-07
5.75758e-08
-1.50316e-07
4.72681e-08
-1.69739e-07
3.5031e-08
-1.8332e-07
2.05847e-08
-1.90323e-07
3.67238e-09
-1.90058e-07
-1.58341e-08
-1.82002e-07
-3.78047e-08
-1.65913e-07
-6.15432e-08
-1.41806e-07
-8.504e-08
-1.09202e-07
-1.03922e-07
-6.55272e-08
-1.05428e-07
-7.63262e-08
-4.53471e-08
-1.56964e-12
5.66705e-07
1.11938e-08
4.41059e-13
1.97021e-07
1.06936e-07
2.83332e-13
-5.13241e-08
2.21569e-07
2.23931e-13
-2.33633e-07
3.5167e-07
1.94828e-13
-3.68182e-07
4.95521e-07
1.76751e-13
-4.6447e-07
6.50891e-07
1.65766e-13
-5.3042e-07
8.15037e-07
1.577e-13
-5.72785e-07
9.85301e-07
1.49366e-13
-5.96967e-07
1.15907e-06
1.40852e-13
-6.07402e-07
1.3339e-06
1.31345e-13
-6.0757e-07
1.50778e-06
1.20489e-13
-6.00066e-07
1.67903e-06
1.09071e-13
-5.86864e-07
1.84634e-06
9.77815e-14
-5.69461e-07
2.00867e-06
8.65959e-14
-5.49e-07
2.16524e-06
7.62569e-14
-5.26369e-07
2.31548e-06
6.7611e-14
-5.02256e-07
2.45898e-06
6.0339e-14
-4.77205e-07
2.59545e-06
5.42327e-14
-4.51644e-07
2.72473e-06
4.99028e-14
-4.25914e-07
2.84677e-06
4.77691e-14
-4.00287e-07
2.96157e-06
4.68323e-14
-3.74978e-07
3.0692e-06
4.58643e-14
-3.50155e-07
3.16977e-06
4.46881e-14
-3.25954e-07
3.26344e-06
4.38727e-14
-3.02477e-07
3.35041e-06
4.35119e-14
-2.798e-07
3.43089e-06
4.28422e-14
-2.57982e-07
3.50511e-06
4.11023e-14
-2.37059e-07
3.5733e-06
3.83163e-14
-2.17056e-07
3.63573e-06
3.5225e-14
-1.97985e-07
3.69265e-06
3.25882e-14
-1.79847e-07
3.74432e-06
3.07216e-14
-1.62633e-07
3.79099e-06
2.95558e-14
-1.46331e-07
3.83292e-06
2.90926e-14
-1.3092e-07
3.87036e-06
2.95159e-14
-1.16376e-07
3.90355e-06
3.10146e-14
-1.02671e-07
3.93273e-06
3.37138e-14
-8.97749e-08
3.95813e-06
3.75042e-14
-7.7655e-08
3.97997e-06
4.21289e-14
-6.62782e-08
3.99845e-06
4.71405e-14
-5.56107e-08
4.01379e-06
5.21521e-14
-4.56183e-08
4.02617e-06
5.67734e-14
-3.62671e-08
4.03577e-06
6.07372e-14
-2.75236e-08
4.04278e-06
6.39291e-14
-1.93552e-08
4.04735e-06
6.6349e-14
-1.17303e-08
4.04965e-06
6.8101e-14
-4.61803e-09
4.04982e-06
6.91956e-14
2.01052e-09
4.048e-06
6.97455e-14
8.18326e-09
4.04433e-06
6.98409e-14
1.39272e-08
4.03893e-06
6.96449e-14
1.9268e-08
4.03191e-06
6.94245e-14
2.42299e-08
4.0234e-06
6.95442e-14
2.88356e-08
4.01349e-06
7.03404e-14
3.31069e-08
4.00229e-06
7.1919e-14
3.70639e-08
3.98988e-06
7.42054e-14
4.0726e-08
3.97636e-06
7.68022e-14
4.41111e-08
3.9618e-06
7.90747e-14
4.72363e-08
3.94629e-06
8.03705e-14
5.01176e-08
3.92989e-06
8.00773e-14
5.27701e-08
3.91268e-06
7.78742e-14
5.5208e-08
3.89471e-06
7.37178e-14
5.74448e-08
3.87605e-06
6.78804e-14
5.9493e-08
3.85676e-06
6.08114e-14
6.13647e-08
3.83689e-06
5.30884e-14
6.30709e-08
3.81648e-06
4.52891e-14
6.46224e-08
3.79559e-06
3.79286e-14
6.60292e-08
3.77426e-06
3.13558e-14
6.73008e-08
3.75252e-06
2.57613e-14
6.84461e-08
3.73043e-06
2.12024e-14
6.94737e-08
3.708e-06
1.76167e-14
7.03916e-08
3.68529e-06
1.48949e-14
7.12074e-08
3.6623e-06
1.29208e-14
7.19284e-08
3.63909e-06
1.1559e-14
7.25614e-08
3.61566e-06
1.07038e-14
7.3113e-08
3.59206e-06
1.02736e-14
7.35894e-08
3.56829e-06
1.02493e-14
7.39964e-08
3.54438e-06
1.06187e-14
7.43395e-08
3.52036e-06
1.13941e-14
7.46242e-08
3.49623e-06
1.2487e-14
7.48553e-08
3.47201e-06
1.39181e-14
7.50378e-08
3.44772e-06
1.56112e-14
7.51761e-08
3.42338e-06
1.75073e-14
7.52745e-08
3.39899e-06
1.94779e-14
7.53372e-08
3.37456e-06
2.14676e-14
7.53681e-08
3.35011e-06
2.33654e-14
7.53707e-08
3.32564e-06
2.51157e-14
7.53487e-08
3.30116e-06
2.66457e-14
7.53053e-08
3.27668e-06
2.79398e-14
7.52438e-08
3.2522e-06
2.90344e-14
7.51672e-08
3.22773e-06
2.9985e-14
7.50782e-08
3.20326e-06
3.08662e-14
7.49796e-08
3.17881e-06
3.18203e-14
7.48739e-08
3.15438e-06
3.29201e-14
7.47637e-08
3.12996e-06
3.43166e-14
7.46512e-08
3.10555e-06
3.60929e-14
7.45386e-08
3.08117e-06
3.8381e-14
7.44281e-08
3.0568e-06
4.11791e-14
7.43215e-08
3.03244e-06
4.45306e-14
7.42209e-08
3.00809e-06
4.83851e-14
7.4128e-08
2.98376e-06
5.26838e-14
7.40447e-08
2.95943e-06
5.73259e-14
7.39724e-08
2.9351e-06
6.22022e-14
7.3913e-08
2.91077e-06
6.71808e-14
7.38678e-08
2.88643e-06
7.20987e-14
7.38384e-08
2.86208e-06
7.68449e-14
7.38263e-08
2.83772e-06
8.12355e-14
7.38328e-08
2.81333e-06
8.51699e-14
7.38592e-08
2.7889e-06
8.85161e-14
7.3907e-08
2.76444e-06
9.11911e-14
7.39774e-08
2.73994e-06
9.31357e-14
7.40717e-08
2.71538e-06
9.43222e-14
7.4191e-08
2.69076e-06
9.47143e-14
7.43367e-08
2.66607e-06
9.43396e-14
7.45098e-08
2.64131e-06
9.32259e-14
7.47116e-08
2.61645e-06
9.142e-14
7.49432e-08
2.5915e-06
8.9033e-14
7.52056e-08
2.56643e-06
8.61447e-14
7.55001e-08
2.54125e-06
8.28852e-14
7.58277e-08
2.51594e-06
7.93481e-14
7.61894e-08
2.49049e-06
7.57225e-14
7.65862e-08
2.46489e-06
7.20778e-14
7.70192e-08
2.43913e-06
6.85719e-14
7.74894e-08
2.41319e-06
6.52673e-14
7.79977e-08
2.38706e-06
6.22124e-14
7.8545e-08
2.36073e-06
5.94161e-14
7.91323e-08
2.33419e-06
5.68313e-14
7.97605e-08
2.30742e-06
5.43628e-14
8.04304e-08
2.28042e-06
5.18318e-14
8.11428e-08
2.25316e-06
4.90476e-14
8.18985e-08
2.22563e-06
4.57117e-14
8.26982e-08
2.19783e-06
4.15605e-14
8.35427e-08
2.16973e-06
3.63668e-14
8.44325e-08
2.14132e-06
3.00038e-14
8.53683e-08
2.11259e-06
2.25271e-14
8.63504e-08
2.08353e-06
1.4145e-14
8.73794e-08
2.05411e-06
5.32562e-15
8.84556e-08
2.02432e-06
-3.29769e-15
8.95792e-08
1.99416e-06
-1.09964e-14
9.07504e-08
1.9636e-06
-1.71651e-14
9.19692e-08
1.93263e-06
-2.1436e-14
9.32355e-08
1.90124e-06
-2.38177e-14
9.45492e-08
1.86941e-06
-2.49193e-14