/*--------------------------------*- C++ -*----------------------------------*\
  =========                 |
  \\      /  F ield         | OpenFOAM: The Open Source CFD Toolbox
   \\    /   O peration     | Website:  https://openfoam.org
    \\  /    A nd           | Version:  8
     \\/     M anipulation  |
\*---------------------------------------------------------------------------*/
FoamFile
{
    version     2.0;
    format      ascii;
    class       volVectorField;
    location    "2500";
    object      U;
}
// * * * * * * * * * * * * * * * * * * * * * * * * * * * * * * * * * * * * * //

dimensions      [0 1 -1 0 0 0 0];

internalField   nonuniform List<vector> 
48000
(
(-0.0164951 -1.17316e-06 0.0180515)
(-0.0314957 -1.77267e-07 0.0144351)
(-0.0427716 -1.08956e-07 0.00584858)
(-0.04375 -1.20584e-07 -0.00162635)
(-0.0382391 -1.46665e-07 -0.00680484)
(-0.0282113 -1.69304e-07 -0.0101633)
(-0.0153111 -1.8266e-07 -0.0122843)
(-0.000564882 -1.8518e-07 -0.0134967)
(0.0151735 -1.75502e-07 -0.013972)
(0.0312075 -1.61392e-07 -0.0139824)
(0.047328 -1.49414e-07 -0.0137484)
(0.0632206 -1.37661e-07 -0.0133564)
(0.0787245 -1.26079e-07 -0.0128626)
(0.093721 -1.14383e-07 -0.0123042)
(0.10813 -1.02713e-07 -0.011707)
(0.121898 -9.12837e-08 -0.0110888)
(0.134992 -8.03338e-08 -0.0104624)
(0.147393 -6.9997e-08 -0.00983715)
(0.159093 -6.04177e-08 -0.00921969)
(0.170096 -5.18094e-08 -0.00861502)
(0.180407 -4.43584e-08 -0.00802675)
(0.190041 -3.8084e-08 -0.00745751)
(0.199014 -3.27728e-08 -0.00690917)
(0.207347 -2.80631e-08 -0.00638299)
(0.215062 -2.37418e-08 -0.00587979)
(0.222183 -1.9866e-08 -0.00540001)
(0.228734 -1.64965e-08 -0.00494376)
(0.234741 -1.35649e-08 -0.00451097)
(0.24023 -1.11016e-08 -0.00410131)
(0.245228 -9.35021e-09 -0.00371434)
(0.249759 -8.57924e-09 -0.00334947)
(0.253849 -8.90287e-09 -0.00300603)
(0.257523 -1.01498e-08 -0.00268327)
(0.260804 -1.19887e-08 -0.00238038)
(0.263717 -1.43188e-08 -0.00209651)
(0.266283 -1.71704e-08 -0.00183079)
(0.268524 -2.05856e-08 -0.00158235)
(0.27046 -2.42615e-08 -0.00135029)
(0.272112 -2.7671e-08 -0.00113376)
(0.273496 -3.04027e-08 -0.000931891)
(0.274632 -3.22759e-08 -0.000743845)
(0.275536 -3.35913e-08 -0.000568817)
(0.276223 -3.47982e-08 -0.000406036)
(0.276708 -3.62754e-08 -0.000254771)
(0.277005 -3.80439e-08 -0.000114319)
(0.277128 -3.99513e-08 1.62002e-05)
(0.277089 -4.17883e-08 0.000137367)
(0.276899 -4.34464e-08 0.000249528)
(0.276569 -4.50911e-08 0.000353315)
(0.27611 -4.68425e-08 0.000449355)
(0.27553 -4.87385e-08 0.000538179)
(0.27484 -5.05184e-08 0.000620258)
(0.274046 -5.16948e-08 0.000696025)
(0.273158 -5.17329e-08 0.000765886)
(0.272181 -5.02042e-08 0.000830223)
(0.271124 -4.69833e-08 0.000889394)
(0.269993 -4.22089e-08 0.000943734)
(0.268793 -3.63705e-08 0.000993557)
(0.267531 -3.00314e-08 0.00103916)
(0.266211 -2.3757e-08 0.00108081)
(0.264839 -1.80099e-08 0.00111877)
(0.263419 -1.303e-08 0.00115328)
(0.261955 -8.94295e-09 0.00118457)
(0.260452 -5.68584e-09 0.00121285)
(0.258913 -3.11404e-09 0.00123832)
(0.257342 -1.10381e-09 0.00126117)
(0.255741 4.64776e-10 0.00128158)
(0.254115 1.62408e-09 0.00129971)
(0.252466 2.40646e-09 0.00131573)
(0.250797 2.75292e-09 0.00132978)
(0.24911 2.61014e-09 0.00134201)
(0.247407 1.97242e-09 0.00135254)
(0.245691 7.6742e-10 0.00136151)
(0.243963 -9.87728e-10 0.00136903)
(0.242226 -3.20546e-09 0.00137523)
(0.24048 -5.81914e-09 0.0013802)
(0.238728 -8.67077e-09 0.00138405)
(0.236972 -1.16518e-08 0.00138688)
(0.235211 -1.46063e-08 0.00138878)
(0.233447 -1.74084e-08 0.00138985)
(0.231683 -1.99764e-08 0.00139015)
(0.229917 -2.22284e-08 0.00138977)
(0.228152 -2.41548e-08 0.00138879)
(0.226387 -2.57539e-08 0.00138728)
(0.224624 -2.70522e-08 0.0013853)
(0.222864 -2.81315e-08 0.00138292)
(0.221106 -2.90414e-08 0.0013802)
(0.219351 -2.98486e-08 0.00137719)
(0.2176 -3.06424e-08 0.00137395)
(0.215852 -3.14876e-08 0.00137053)
(0.214108 -3.24451e-08 0.00136697)
(0.212369 -3.35511e-08 0.00136334)
(0.210633 -3.47961e-08 0.00135966)
(0.208902 -3.62067e-08 0.00135598)
(0.207175 -3.77753e-08 0.00135234)
(0.205452 -3.94371e-08 0.00134877)
(0.203734 -4.11694e-08 0.00134532)
(0.202019 -4.2896e-08 0.00134201)
(0.200308 -4.46035e-08 0.00133889)
(0.1986 -4.62102e-08 0.00133597)
(0.196896 -4.76779e-08 0.0013333)
(0.195195 -4.89419e-08 0.0013309)
(0.193496 -4.99508e-08 0.0013288)
(0.191799 -5.06475e-08 0.00132703)
(0.190105 -5.09597e-08 0.00132562)
(0.188411 -5.08265e-08 0.00132458)
(0.186718 -5.02173e-08 0.00132395)
(0.185026 -4.91018e-08 0.00132374)
(0.183334 -4.74533e-08 0.00132399)
(0.18164 -4.52679e-08 0.00132472)
(0.179946 -4.26105e-08 0.00132594)
(0.178249 -3.9519e-08 0.00132769)
(0.176549 -3.60544e-08 0.00132998)
(0.174847 -3.23614e-08 0.00133284)
(0.17314 -2.85542e-08 0.00133628)
(0.171428 -2.47546e-08 0.00134033)
(0.169711 -2.10882e-08 0.00134502)
(0.167988 -1.76579e-08 0.00135036)
(0.166257 -1.45017e-08 0.00135637)
(0.164518 -1.16539e-08 0.00136308)
(0.16277 -9.10305e-09 0.00137051)
(0.161013 -6.77683e-09 0.00137868)
(0.159245 -4.54199e-09 0.00138761)
(0.157465 -2.3376e-09 0.00139732)
(0.155673 -5.32674e-11 0.00140783)
(0.153867 2.4595e-09 0.00141916)
(0.152047 5.22355e-09 0.00143134)
(0.150211 8.2503e-09 0.00144438)
(0.148358 1.15435e-08 0.0014583)
(0.146488 1.49396e-08 0.00147311)
(0.144598 1.83204e-08 0.00148885)
(0.142689 2.14043e-08 0.00150552)
(0.140759 2.40655e-08 0.00152313)
(0.138807 2.60491e-08 0.00154172)
(0.136831 2.72712e-08 0.00156128)
(0.134831 2.77814e-08 0.00158185)
(0.132806 2.77776e-08 0.00160342)
(0.130753 2.75415e-08 0.00162602)
(0.128673 2.75034e-08 0.00164965)
(0.126563 2.79641e-08 0.00167433)
(0.124423 2.91139e-08 0.00170005)
(0.122251 3.08576e-08 0.00172683)
(0.120046 3.27232e-08 0.00175467)
(0.117807 3.40024e-08 0.00178356)
(0.115534 3.38996e-08 0.00181351)
(0.113223 3.1798e-08 0.0018445)
(0.110875 2.75834e-08 0.00187653)
(0.108489 2.17736e-08 0.00190959)
(0.106063 1.55411e-08 0.00194366)
(0.103596 1.03671e-08 0.00197871)
(0.101087 7.54594e-09 0.00201473)
(0.098536 7.50786e-09 0.00205168)
(0.0959409 9.72748e-09 0.00208953)
(0.0933013 1.25524e-08 0.00212823)
(0.0906164 1.41515e-08 0.00216773)
(0.0878855 1.31464e-08 0.00220798)
(0.085108 9.49143e-09 0.00224889)
(0.0822835 4.61437e-09 0.00229041)
(0.0794114 6.32003e-10 0.00233243)
(0.0764916 -7.46214e-10 0.00237487)
(0.0735241 4.72099e-10 0.0024176)
(0.0705088 2.36048e-09 0.00246049)
(0.067446 2.14347e-09 0.00250339)
(0.0643362 -1.96072e-09 0.00254615)
(0.0611801 -9.18304e-09 0.00258855)
(0.0579786 -1.6097e-08 0.0026304)
(0.0547331 -1.87963e-08 0.00267145)
(0.0514452 -1.58723e-08 0.0027114)
(0.0481167 -1.00511e-08 0.00274995)
(0.0447502 -6.70453e-09 0.00278673)
(0.0413484 -1.00625e-08 0.0028213)
(0.0379148 -1.92456e-08 0.00285319)
(0.0344535 -2.84438e-08 0.00288184)
(0.0309692 -3.14553e-08 0.00290661)
(0.0274676 -2.73892e-08 0.00292674)
(0.023955 -2.21543e-08 0.00294136)
(0.020439 -2.30947e-08 0.00294945)
(0.0169286 -3.12574e-08 0.00294982)
(0.013434 -3.92297e-08 0.00294106)
(0.00996721 -3.82551e-08 0.00292148)
(0.00654174 -2.83867e-08 0.00288898)
(0.00317745 -1.89829e-08 0.00284091)
(-0.00011335 -1.78483e-08 0.00276981)
(-0.00330011 -2.10083e-08 0.00266852)
(-0.00635135 -1.88458e-08 0.00253759)
(-0.00924117 -1.13151e-08 0.00237725)
(-0.0119287 -1.02338e-08 0.00218217)
(-0.0143704 -2.11606e-08 0.00194381)
(-0.0165119 -3.11965e-08 0.00165315)
(-0.0182889 -2.66735e-08 0.00129915)
(-0.0196238 -1.66528e-08 0.000867542)
(-0.0204237 -1.85717e-08 0.000341236)
(-0.0205785 -2.4016e-08 -0.00029788)
(-0.0199583 -1.28837e-08 -0.00106457)
(-0.0184332 3.83768e-09 -0.00196758)
(-0.0158748 1.40713e-08 -0.00298911)
(-0.0121811 6.16115e-08 -0.00402187)
(-0.00772247 1.08011e-07 -0.00470637)
(-0.00208763 5.89072e-08 -0.00369481)
(7.71032e-05 1.00818e-07 -0.000300269)
(-0.0164945 -1.1731e-06 0.0180519)
(-0.0314952 -1.77263e-07 0.0144352)
(-0.0427712 -1.08954e-07 0.00584859)
(-0.0437495 -1.20582e-07 -0.00162637)
(-0.0382385 -1.46663e-07 -0.00680486)
(-0.0282108 -1.69301e-07 -0.0101634)
(-0.0153106 -1.82657e-07 -0.0122843)
(-0.000564324 -1.85178e-07 -0.0134967)
(0.015174 -1.755e-07 -0.013972)
(0.0312079 -1.6139e-07 -0.0139824)
(0.0473284 -1.49412e-07 -0.0137484)
(0.0632209 -1.3766e-07 -0.0133565)
(0.0787247 -1.26078e-07 -0.0128626)
(0.0937212 -1.14382e-07 -0.0123042)
(0.10813 -1.02713e-07 -0.011707)
(0.121898 -9.12831e-08 -0.0110888)
(0.134992 -8.03333e-08 -0.0104624)
(0.147393 -6.99965e-08 -0.00983711)
(0.159093 -6.04174e-08 -0.00921965)
(0.170096 -5.18091e-08 -0.00861497)
(0.180407 -4.43582e-08 -0.0080267)
(0.190041 -3.80838e-08 -0.00745746)
(0.199014 -3.27726e-08 -0.00690912)
(0.207347 -2.8063e-08 -0.00638294)
(0.215062 -2.37417e-08 -0.00587975)
(0.222182 -1.98659e-08 -0.00539996)
(0.228733 -1.64965e-08 -0.00494372)
(0.234741 -1.35648e-08 -0.00451093)
(0.24023 -1.11015e-08 -0.00410127)
(0.245227 -9.35018e-09 -0.0037143)
(0.249758 -8.57921e-09 -0.00334943)
(0.253849 -8.90284e-09 -0.00300599)
(0.257522 -1.01497e-08 -0.00268323)
(0.260804 -1.19887e-08 -0.00238034)
(0.263717 -1.43187e-08 -0.00209647)
(0.266283 -1.71704e-08 -0.00183076)
(0.268524 -2.05855e-08 -0.00158232)
(0.27046 -2.42615e-08 -0.00135027)
(0.272111 -2.76709e-08 -0.00113374)
(0.273496 -3.04026e-08 -0.000931873)
(0.274632 -3.22758e-08 -0.000743831)
(0.275535 -3.35912e-08 -0.000568806)
(0.276222 -3.47981e-08 -0.000406028)
(0.276708 -3.62753e-08 -0.000254764)
(0.277005 -3.80438e-08 -0.000114313)
(0.277128 -3.99513e-08 1.62057e-05)
(0.277089 -4.17883e-08 0.000137373)
(0.276899 -4.34463e-08 0.000249535)
(0.276569 -4.50911e-08 0.000353323)
(0.27611 -4.68424e-08 0.000449363)
(0.27553 -4.87384e-08 0.000538187)
(0.27484 -5.05183e-08 0.000620266)
(0.274046 -5.16947e-08 0.000696032)
(0.273157 -5.17328e-08 0.000765894)
(0.272181 -5.02042e-08 0.000830231)
(0.271124 -4.69832e-08 0.000889403)
(0.269993 -4.22089e-08 0.000943744)
(0.268793 -3.63704e-08 0.000993569)
(0.267531 -3.00313e-08 0.00103917)
(0.266211 -2.3757e-08 0.00108082)
(0.264839 -1.80099e-08 0.00111879)
(0.263419 -1.303e-08 0.0011533)
(0.261955 -8.94293e-09 0.0011846)
(0.260452 -5.68583e-09 0.00121288)
(0.258913 -3.11403e-09 0.00123835)
(0.257341 -1.10381e-09 0.00126121)
(0.255741 4.64775e-10 0.00128162)
(0.254115 1.62408e-09 0.00129976)
(0.252466 2.40646e-09 0.00131578)
(0.250797 2.75292e-09 0.00132983)
(0.24911 2.61014e-09 0.00134205)
(0.247407 1.97242e-09 0.00135258)
(0.245691 7.67419e-10 0.00136155)
(0.243963 -9.87727e-10 0.00136907)
(0.242226 -3.20545e-09 0.00137526)
(0.24048 -5.81913e-09 0.00138023)
(0.238728 -8.67076e-09 0.00138408)
(0.236971 -1.16518e-08 0.0013869)
(0.235211 -1.46063e-08 0.0013888)
(0.233447 -1.74084e-08 0.00138986)
(0.231682 -1.99764e-08 0.00139016)
(0.229917 -2.22284e-08 0.00138978)
(0.228152 -2.41548e-08 0.00138879)
(0.226387 -2.57539e-08 0.00138728)
(0.224624 -2.70521e-08 0.00138529)
(0.222864 -2.81315e-08 0.00138291)
(0.221106 -2.90414e-08 0.00138018)
(0.219351 -2.98485e-08 0.00137717)
(0.2176 -3.06424e-08 0.00137393)
(0.215852 -3.14876e-08 0.00137051)
(0.214108 -3.24451e-08 0.00136696)
(0.212369 -3.35511e-08 0.00136333)
(0.210633 -3.47961e-08 0.00135965)
(0.208902 -3.62066e-08 0.00135597)
(0.207175 -3.77752e-08 0.00135233)
(0.205452 -3.94371e-08 0.00134877)
(0.203734 -4.11694e-08 0.00134532)
(0.202019 -4.28959e-08 0.00134202)
(0.200308 -4.46035e-08 0.00133889)
(0.1986 -4.62101e-08 0.00133598)
(0.196896 -4.76778e-08 0.00133331)
(0.195195 -4.89418e-08 0.00133092)
(0.193496 -4.99507e-08 0.00132882)
(0.191799 -5.06475e-08 0.00132705)
(0.190105 -5.09597e-08 0.00132563)
(0.188411 -5.08264e-08 0.00132459)
(0.186718 -5.02173e-08 0.00132396)
(0.185026 -4.91017e-08 0.00132376)
(0.183334 -4.74532e-08 0.00132401)
(0.18164 -4.52679e-08 0.00132474)
(0.179946 -4.26104e-08 0.00132596)
(0.178249 -3.95189e-08 0.00132771)
(0.176549 -3.60544e-08 0.00133)
(0.174847 -3.23614e-08 0.00133286)
(0.17314 -2.85541e-08 0.00133631)
(0.171428 -2.47545e-08 0.00134036)
(0.169711 -2.10882e-08 0.00134505)
(0.167988 -1.76579e-08 0.00135039)
(0.166257 -1.45017e-08 0.00135641)
(0.164518 -1.16539e-08 0.00136312)
(0.16277 -9.10303e-09 0.00137055)
(0.161013 -6.77682e-09 0.00137872)
(0.159245 -4.54198e-09 0.00138765)
(0.157465 -2.3376e-09 0.00139736)
(0.155673 -5.32673e-11 0.00140787)
(0.153867 2.4595e-09 0.0014192)
(0.152047 5.22354e-09 0.00143137)
(0.150211 8.25029e-09 0.00144441)
(0.148358 1.15435e-08 0.00145833)
(0.146488 1.49396e-08 0.00147314)
(0.144598 1.83204e-08 0.00148887)
(0.142689 2.14042e-08 0.00150553)
(0.140759 2.40655e-08 0.00152315)
(0.138807 2.60491e-08 0.00154173)
(0.136831 2.72712e-08 0.0015613)
(0.134831 2.77813e-08 0.00158186)
(0.132806 2.77775e-08 0.00160344)
(0.130753 2.75415e-08 0.00162603)
(0.128673 2.75034e-08 0.00164966)
(0.126563 2.79641e-08 0.00167434)
(0.124423 2.91139e-08 0.00170006)
(0.122251 3.08576e-08 0.00172684)
(0.120046 3.27231e-08 0.00175467)
(0.117807 3.40023e-08 0.00178356)
(0.115534 3.38995e-08 0.00181351)
(0.113223 3.1798e-08 0.0018445)
(0.110876 2.75834e-08 0.00187653)
(0.108489 2.17735e-08 0.00190958)
(0.106063 1.55411e-08 0.00194365)
(0.103596 1.03671e-08 0.0019787)
(0.101087 7.54592e-09 0.00201472)
(0.098536 7.50785e-09 0.00205167)
(0.0959409 9.72746e-09 0.00208952)
(0.0933013 1.25524e-08 0.00212822)
(0.0906164 1.41515e-08 0.00216772)
(0.0878855 1.31464e-08 0.00220797)
(0.0851081 9.49141e-09 0.00224889)
(0.0822835 4.61436e-09 0.00229041)
(0.0794114 6.32002e-10 0.00233243)
(0.0764917 -7.46213e-10 0.00237487)
(0.0735241 4.72098e-10 0.0024176)
(0.0705088 2.36048e-09 0.00246049)
(0.067446 2.14347e-09 0.0025034)
(0.0643362 -1.96072e-09 0.00254616)
(0.0611801 -9.18302e-09 0.00258857)
(0.0579787 -1.60969e-08 0.00263042)
(0.0547332 -1.87963e-08 0.00267147)
(0.0514452 -1.58723e-08 0.00271143)
(0.0481168 -1.00511e-08 0.00274998)
(0.0447502 -6.70452e-09 0.00278675)
(0.0413485 -1.00625e-08 0.00282133)
(0.0379149 -1.92455e-08 0.00285323)
(0.0344536 -2.84438e-08 0.00288188)
(0.0309693 -3.14553e-08 0.00290664)
(0.0274676 -2.73892e-08 0.00292677)
(0.023955 -2.21542e-08 0.0029414)
(0.0204391 -2.30946e-08 0.00294949)
(0.0169287 -3.12573e-08 0.00294986)
(0.013434 -3.92296e-08 0.0029411)
(0.00996726 -3.8255e-08 0.00292152)
(0.0065418 -2.83866e-08 0.00288902)
(0.00317751 -1.89828e-08 0.00284095)
(-0.000113287 -1.78483e-08 0.00276985)
(-0.00330005 -2.10083e-08 0.00266856)
(-0.00635129 -1.88458e-08 0.00253762)
(-0.00924111 -1.13151e-08 0.00237728)
(-0.0119287 -1.02338e-08 0.00218221)
(-0.0143703 -2.11605e-08 0.00194384)
(-0.0165119 -3.11964e-08 0.00165317)
(-0.0182889 -2.66734e-08 0.00129917)
(-0.0196237 -1.66528e-08 0.000867563)
(-0.0204236 -1.85716e-08 0.000341264)
(-0.0205785 -2.4016e-08 -0.000297843)
(-0.0199583 -1.28836e-08 -0.00106451)
(-0.0184332 3.83769e-09 -0.00196751)
(-0.0158748 1.40717e-08 -0.00298906)
(-0.0121811 6.16208e-08 -0.00402177)
(-0.00772229 1.08057e-07 -0.00470605)
(-0.00208756 5.88732e-08 -0.00369496)
(7.7119e-05 1.00752e-07 -0.000300284)
(-0.0117264 -2.10932e-07 0.0356068)
(-0.0161219 3.59756e-08 0.0210897)
(-0.0150009 3.36172e-08 0.00685411)
(-0.0104045 2.82806e-08 -0.00510207)
(-0.00301336 2.28738e-08 -0.0138266)
(0.00662339 1.838e-08 -0.0197783)
(0.0178906 1.54748e-08 -0.0236235)
(0.0303125 1.34464e-08 -0.0259416)
(0.0434711 1.16216e-08 -0.0271348)
(0.0570311 9.96443e-09 -0.0275505)
(0.070736 8.46715e-09 -0.0274463)
(0.0843754 7.28017e-09 -0.0269767)
(0.0977976 6.40922e-09 -0.0262529)
(0.110887 5.87045e-09 -0.0253521)
(0.123561 5.61439e-09 -0.0243296)
(0.135756 5.52585e-09 -0.0232265)
(0.14743 5.57724e-09 -0.0220732)
(0.158554 5.73427e-09 -0.020893)
(0.16911 5.89988e-09 -0.0197034)
(0.17909 5.96078e-09 -0.0185184)
(0.188491 5.8951e-09 -0.0173484)
(0.197318 5.77039e-09 -0.0162017)
(0.205579 5.65997e-09 -0.0150847)
(0.213285 5.56763e-09 -0.0140021)
(0.220452 5.49195e-09 -0.0129576)
(0.227096 5.44245e-09 -0.0119536)
(0.233236 5.44815e-09 -0.0109919)
(0.238891 5.49145e-09 -0.0100735)
(0.244081 5.50286e-09 -0.00919883)
(0.248827 5.4091e-09 -0.00836792)
(0.25315 5.19065e-09 -0.00758034)
(0.257072 4.91651e-09 -0.00683535)
(0.260611 4.65666e-09 -0.00613196)
(0.26379 4.43916e-09 -0.00546899)
(0.266627 4.23546e-09 -0.0048451)
(0.269142 4.01843e-09 -0.0042588)
(0.271353 3.82235e-09 -0.00370858)
(0.273279 3.74334e-09 -0.00319282)
(0.274937 3.88801e-09 -0.0027099)
(0.276342 4.27445e-09 -0.0022582)
(0.277512 4.82745e-09 -0.00183611)
(0.27846 5.41519e-09 -0.00144203)
(0.279201 5.93869e-09 -0.00107443)
(0.279748 6.35748e-09 -0.000731799)
(0.280115 6.70442e-09 -0.000412706)
(0.280312 7.04659e-09 -0.000115766)
(0.280352 7.37543e-09 0.000160331)
(0.280245 7.66288e-09 0.000416873)
(0.280001 7.8756e-09 0.000655093)
(0.27963 7.986e-09 0.000876122)
(0.27914 8.01408e-09 0.00108103)
(0.278541 8.03596e-09 0.0012708)
(0.277839 8.16778e-09 0.0014464)
(0.277043 8.48235e-09 0.0016087)
(0.276159 9.0087e-09 0.00175853)
(0.275194 9.69162e-09 0.00189669)
(0.274154 1.04136e-08 0.0020239)
(0.273044 1.10479e-08 0.00214086)
(0.271871 1.14601e-08 0.00224822)
(0.270639 1.15752e-08 0.00234659)
(0.269353 1.1363e-08 0.00243653)
(0.268018 1.08514e-08 0.0025186)
(0.266637 1.0098e-08 0.0025933)
(0.265215 9.19234e-09 0.00266111)
(0.263756 8.20815e-09 0.00272247)
(0.262262 7.22016e-09 0.00277782)
(0.260737 6.27977e-09 0.00282756)
(0.259184 5.40933e-09 0.00287206)
(0.257605 4.62883e-09 0.00291168)
(0.256004 3.9302e-09 0.00294677)
(0.254383 3.31009e-09 0.00297765)
(0.252744 2.76184e-09 0.00300462)
(0.251089 2.2845e-09 0.00302797)
(0.249421 1.87379e-09 0.00304797)
(0.24774 1.53494e-09 0.00306488)
(0.246049 1.28366e-09 0.00307896)
(0.244348 1.1228e-09 0.00309043)
(0.242641 1.06235e-09 0.00309952)
(0.240927 1.10566e-09 0.00310644)
(0.239208 1.25128e-09 0.00311138)
(0.237486 1.48637e-09 0.00311454)
(0.23576 1.79476e-09 0.0031161)
(0.234032 2.15835e-09 0.00311623)
(0.232303 2.55096e-09 0.00311508)
(0.230574 2.95167e-09 0.00311282)
(0.228844 3.33906e-09 0.00310958)
(0.227115 3.70122e-09 0.00310551)
(0.225387 4.01816e-09 0.00310074)
(0.22366 4.2861e-09 0.00309538)
(0.221935 4.51072e-09 0.00308957)
(0.220212 4.69156e-09 0.0030834)
(0.218492 4.83433e-09 0.00307698)
(0.216773 4.95615e-09 0.00307042)
(0.215057 5.06704e-09 0.0030638)
(0.213343 5.18363e-09 0.00305722)
(0.211632 5.31878e-09 0.00305077)
(0.209923 5.48487e-09 0.00304452)
(0.208216 5.69236e-09 0.00303856)
(0.206511 5.9403e-09 0.00303295)
(0.204808 6.23489e-09 0.00302777)
(0.203107 6.58087e-09 0.0030231)
(0.201407 6.97444e-09 0.00301899)
(0.199708 7.41464e-09 0.00301551)
(0.19801 7.89626e-09 0.00301271)
(0.196313 8.41927e-09 0.00301067)
(0.194615 8.9737e-09 0.00300944)
(0.192917 9.54811e-09 0.00300907)
(0.191217 1.01297e-08 0.00300962)
(0.189517 1.07017e-08 0.00301113)
(0.187814 1.1248e-08 0.00301367)
(0.186109 1.17458e-08 0.00301728)
(0.1844 1.2176e-08 0.00302202)
(0.182688 1.25201e-08 0.00302792)
(0.180972 1.27505e-08 0.00303504)
(0.17925 1.28618e-08 0.00304342)
(0.177522 1.28418e-08 0.00305311)
(0.175788 1.269e-08 0.00306417)
(0.174047 1.24116e-08 0.00307662)
(0.172298 1.20261e-08 0.00309052)
(0.17054 1.15564e-08 0.00310591)
(0.168772 1.10329e-08 0.00312283)
(0.166994 1.0487e-08 0.00314133)
(0.165205 9.94023e-09 0.00316146)
(0.163403 9.42196e-09 0.00318324)
(0.161588 8.94368e-09 0.00320672)
(0.159759 8.51156e-09 0.00323195)
(0.157915 8.1137e-09 0.00325895)
(0.156056 7.73488e-09 0.00328777)
(0.154179 7.3532e-09 0.00331844)
(0.152285 6.93013e-09 0.00335099)
(0.150371 6.42852e-09 0.00338546)
(0.148438 5.81794e-09 0.00342188)
(0.146483 5.07267e-09 0.00346027)
(0.144507 4.19463e-09 0.00350066)
(0.142507 3.20046e-09 0.00354308)
(0.140483 2.12968e-09 0.00358754)
(0.138434 1.06127e-09 0.00363406)
(0.136359 7.85307e-11 0.00368266)
(0.134256 -7.52874e-10 0.00373333)
(0.132124 -1.37345e-09 0.0037861)
(0.129963 -1.79272e-09 0.00384095)
(0.127772 -2.0716e-09 0.00389788)
(0.125548 -2.34049e-09 0.00395688)
(0.123292 -2.75548e-09 0.00401793)
(0.121003 -3.44078e-09 0.00408101)
(0.118678 -4.46398e-09 0.00414608)
(0.116317 -5.74606e-09 0.0042131)
(0.11392 -7.07954e-09 0.00428202)
(0.111486 -8.15889e-09 0.00435278)
(0.109012 -8.70333e-09 0.00442531)
(0.1065 -8.55485e-09 0.00449953)
(0.103947 -7.80197e-09 0.00457534)
(0.101354 -6.7664e-09 0.00465264)
(0.0987192 -5.90597e-09 0.00473129)
(0.0960427 -5.62328e-09 0.00481115)
(0.0933239 -6.04112e-09 0.00489207)
(0.0905624 -6.92059e-09 0.00497387)
(0.087758 -7.75723e-09 0.00505634)
(0.0849107 -8.02279e-09 0.00513925)
(0.0820204 -7.51071e-09 0.00522235)
(0.0790875 -6.52559e-09 0.00530536)
(0.0761122 -5.72608e-09 0.00538795)
(0.0730953 -5.73179e-09 0.00546978)
(0.0700373 -6.63696e-09 0.00555044)
(0.0669395 -7.81529e-09 0.00562949)
(0.063803 -8.25217e-09 0.00570643)
(0.0606295 -7.27181e-09 0.0057807)
(0.0574209 -5.15404e-09 0.00585168)
(0.0541795 -3.12859e-09 0.00591865)
(0.050908 -2.51658e-09 0.00598082)
(0.0476094 -3.62544e-09 0.00603729)
(0.0442876 -5.33203e-09 0.00608703)
(0.0409466 -5.8441e-09 0.00612887)
(0.0375914 -4.32692e-09 0.0061615)
(0.0342275 -1.82652e-09 0.00618338)
(0.0308613 -4.25458e-10 0.00619277)
(0.0275003 -1.16692e-09 0.00618765)
(0.0241528 -2.70028e-09 0.00616568)
(0.0208285 -2.46423e-09 0.00612414)
(0.0175384 4.63531e-10 0.0060598)
(0.0142951 4.06422e-09 0.00596868)
(0.0111135 5.63851e-09 0.00584624)
(0.0080098 5.23399e-09 0.00568547)
(0.0050029 5.55856e-09 0.00547856)
(0.0021146 7.71536e-09 0.00521998)
(-0.000632074 8.74617e-09 0.00490229)
(-0.00320558 5.85172e-09 0.00451537)
(-0.0055744 1.85507e-09 0.00404687)
(-0.00770247 2.14728e-09 0.00348198)
(-0.00954891 6.103e-09 0.00280274)
(-0.0110687 7.66586e-09 0.00198802)
(-0.0122128 5.56618e-09 0.00101493)
(-0.0129314 3.92906e-09 -0.000138424)
(-0.0131736 1.29446e-09 -0.00148417)
(-0.0128958 -6.3942e-09 -0.00301532)
(-0.0120727 -1.39569e-08 -0.0046746)
(-0.0106921 -1.781e-08 -0.00627411)
(-0.00880916 -4.57795e-08 -0.00737363)
(-0.00593778 -3.11706e-08 -0.00672826)
(-0.00375206 5.02971e-08 -0.00289925)
(-0.0117261 -2.10926e-07 0.0356069)
(-0.0161216 3.59745e-08 0.0210896)
(-0.0150006 3.36161e-08 0.00685392)
(-0.0104042 2.82797e-08 -0.00510224)
(-0.00301307 2.28732e-08 -0.0138267)
(0.00662367 1.83795e-08 -0.0197784)
(0.0178908 1.54745e-08 -0.0236236)
(0.0303127 1.34461e-08 -0.0259417)
(0.0434712 1.16214e-08 -0.0271348)
(0.0570312 9.96426e-09 -0.0275505)
(0.0707361 8.46701e-09 -0.0274463)
(0.0843755 7.28007e-09 -0.0269767)
(0.0977976 6.40913e-09 -0.026253)
(0.110887 5.87038e-09 -0.0253521)
(0.123561 5.61432e-09 -0.0243297)
(0.135756 5.52579e-09 -0.0232265)
(0.14743 5.57718e-09 -0.0220732)
(0.158554 5.73422e-09 -0.0208929)
(0.16911 5.89982e-09 -0.0197034)
(0.17909 5.96073e-09 -0.0185183)
(0.188491 5.89504e-09 -0.0173484)
(0.197318 5.77035e-09 -0.0162017)
(0.205578 5.65993e-09 -0.0150847)
(0.213285 5.56759e-09 -0.0140021)
(0.220452 5.49191e-09 -0.0129576)
(0.227096 5.44241e-09 -0.0119536)
(0.233236 5.44812e-09 -0.0109919)
(0.23889 5.49142e-09 -0.0100735)
(0.244081 5.50283e-09 -0.00919882)
(0.248827 5.40907e-09 -0.00836791)
(0.25315 5.19062e-09 -0.00758033)
(0.257071 4.91649e-09 -0.00683534)
(0.260611 4.65663e-09 -0.00613195)
(0.26379 4.43913e-09 -0.00546899)
(0.266627 4.23544e-09 -0.00484509)
(0.269142 4.01842e-09 -0.0042588)
(0.271353 3.82233e-09 -0.00370857)
(0.273279 3.74333e-09 -0.00319281)
(0.274937 3.888e-09 -0.0027099)
(0.276342 4.27443e-09 -0.0022582)
(0.277512 4.82743e-09 -0.00183611)
(0.27846 5.41517e-09 -0.00144204)
(0.279201 5.93867e-09 -0.00107443)
(0.279748 6.35746e-09 -0.000731805)
(0.280114 6.70439e-09 -0.000412713)
(0.280312 7.04656e-09 -0.000115773)
(0.280352 7.37541e-09 0.000160323)
(0.280245 7.66285e-09 0.000416864)
(0.280001 7.87558e-09 0.000655085)
(0.27963 7.98598e-09 0.000876113)
(0.27914 8.01405e-09 0.00108102)
(0.27854 8.03594e-09 0.00127079)
(0.277839 8.16776e-09 0.00144639)
(0.277043 8.48233e-09 0.00160869)
(0.276159 9.00867e-09 0.00175853)
(0.275193 9.69159e-09 0.00189668)
(0.274153 1.04135e-08 0.00202389)
(0.273044 1.10479e-08 0.00214085)
(0.271871 1.146e-08 0.00224821)
(0.270639 1.15752e-08 0.00234658)
(0.269353 1.13629e-08 0.00243653)
(0.268018 1.08513e-08 0.0025186)
(0.266637 1.0098e-08 0.0025933)
(0.265215 9.19231e-09 0.0026611)
(0.263756 8.20813e-09 0.00272247)
(0.262262 7.22015e-09 0.00277782)
(0.260737 6.27975e-09 0.00282756)
(0.259183 5.40931e-09 0.00287206)
(0.257605 4.62882e-09 0.00291169)
(0.256004 3.93019e-09 0.00294678)
(0.254383 3.31008e-09 0.00297766)
(0.252744 2.76183e-09 0.00300462)
(0.251089 2.28449e-09 0.00302797)
(0.249421 1.87378e-09 0.00304797)
(0.24774 1.53494e-09 0.00306489)
(0.246048 1.28365e-09 0.00307896)
(0.244348 1.12279e-09 0.00309044)
(0.242641 1.06235e-09 0.00309952)
(0.240927 1.10565e-09 0.00310644)
(0.239208 1.25128e-09 0.00311138)
(0.237486 1.48637e-09 0.00311454)
(0.23576 1.79475e-09 0.0031161)
(0.234032 2.15834e-09 0.00311622)
(0.232303 2.55096e-09 0.00311507)
(0.230574 2.95167e-09 0.00311281)
(0.228844 3.33905e-09 0.00310957)
(0.227115 3.70121e-09 0.0031055)
(0.225387 4.01816e-09 0.00310073)
(0.22366 4.28609e-09 0.00309537)
(0.221935 4.51071e-09 0.00308956)
(0.220212 4.69155e-09 0.00308339)
(0.218491 4.83432e-09 0.00307697)
(0.216773 4.95614e-09 0.00307041)
(0.215057 5.06703e-09 0.0030638)
(0.213343 5.18362e-09 0.00305722)
(0.211632 5.31877e-09 0.00305077)
(0.209923 5.48486e-09 0.00304452)
(0.208216 5.69235e-09 0.00303855)
(0.206511 5.94029e-09 0.00303295)
(0.204808 6.23487e-09 0.00302777)
(0.203107 6.58085e-09 0.0030231)
(0.201407 6.97442e-09 0.00301899)
(0.199708 7.41463e-09 0.00301551)
(0.19801 7.89624e-09 0.00301271)
(0.196313 8.41926e-09 0.00301067)
(0.194615 8.97368e-09 0.00300944)
(0.192917 9.54809e-09 0.00300907)
(0.191217 1.01296e-08 0.00300961)
(0.189517 1.07017e-08 0.00301113)
(0.187814 1.1248e-08 0.00301367)
(0.186109 1.17458e-08 0.00301728)
(0.1844 1.2176e-08 0.00302201)
(0.182688 1.25201e-08 0.00302792)
(0.180971 1.27504e-08 0.00303504)
(0.17925 1.28618e-08 0.00304342)
(0.177522 1.28418e-08 0.00305312)
(0.175788 1.269e-08 0.00306417)
(0.174047 1.24116e-08 0.00307662)
(0.172298 1.20261e-08 0.00309052)
(0.17054 1.15564e-08 0.00310591)
(0.168772 1.10329e-08 0.00312284)
(0.166994 1.0487e-08 0.00314134)
(0.165204 9.94021e-09 0.00316146)
(0.163403 9.42195e-09 0.00318324)
(0.161588 8.94366e-09 0.00320673)
(0.159759 8.51154e-09 0.00323195)
(0.157915 8.11368e-09 0.00325895)
(0.156056 7.73486e-09 0.00328777)
(0.154179 7.35319e-09 0.00331844)
(0.152285 6.93011e-09 0.00335099)
(0.150371 6.42851e-09 0.00338546)
(0.148438 5.81792e-09 0.00342188)
(0.146483 5.07266e-09 0.00346027)
(0.144507 4.19462e-09 0.00350066)
(0.142507 3.20046e-09 0.00354308)
(0.140483 2.12967e-09 0.00358754)
(0.138434 1.06127e-09 0.00363406)
(0.136359 7.85305e-11 0.00368266)
(0.134256 -7.52872e-10 0.00373333)
(0.132124 -1.37345e-09 0.0037861)
(0.129963 -1.79272e-09 0.00384095)
(0.127772 -2.0716e-09 0.00389788)
(0.125548 -2.34049e-09 0.00395688)
(0.123292 -2.75547e-09 0.00401793)
(0.121003 -3.44077e-09 0.00408101)
(0.118678 -4.46397e-09 0.00414607)
(0.116317 -5.74605e-09 0.00421309)
(0.11392 -7.07953e-09 0.00428201)
(0.111486 -8.15888e-09 0.00435277)
(0.109012 -8.70331e-09 0.00442531)
(0.1065 -8.55483e-09 0.00449953)
(0.103947 -7.80195e-09 0.00457534)
(0.101354 -6.76639e-09 0.00465263)
(0.0987192 -5.90595e-09 0.00473128)
(0.0960427 -5.62327e-09 0.00481115)
(0.0933239 -6.04111e-09 0.00489207)
(0.0905624 -6.92058e-09 0.00497386)
(0.087758 -7.75722e-09 0.00505633)
(0.0849107 -8.02277e-09 0.00513924)
(0.0820205 -7.5107e-09 0.00522235)
(0.0790875 -6.52558e-09 0.00530535)
(0.0761123 -5.72606e-09 0.00538795)
(0.0730953 -5.73177e-09 0.00546978)
(0.0700373 -6.63694e-09 0.00555044)
(0.0669395 -7.81528e-09 0.00562949)
(0.063803 -8.25215e-09 0.00570643)
(0.0606295 -7.27179e-09 0.0057807)
(0.057421 -5.15403e-09 0.00585168)
(0.0541795 -3.12858e-09 0.00591866)
(0.050908 -2.51657e-09 0.00598083)
(0.0476095 -3.62543e-09 0.00603729)
(0.0442876 -5.33201e-09 0.00608703)
(0.0409466 -5.84409e-09 0.00612888)
(0.0375914 -4.32691e-09 0.0061615)
(0.0342275 -1.82651e-09 0.00618338)
(0.0308613 -4.25457e-10 0.00619277)
(0.0275003 -1.16691e-09 0.00618765)
(0.0241528 -2.70027e-09 0.00616569)
(0.0208285 -2.46422e-09 0.00612415)
(0.0175384 4.6353e-10 0.0060598)
(0.0142951 4.06421e-09 0.00596869)
(0.0111135 5.6385e-09 0.00584624)
(0.00800982 5.23398e-09 0.00568548)
(0.00500292 5.55854e-09 0.00547857)
(0.00211462 7.71533e-09 0.00521998)
(-0.000632055 8.74614e-09 0.0049023)
(-0.00320556 5.8517e-09 0.00451537)
(-0.00557439 1.85507e-09 0.00404688)
(-0.00770247 2.14727e-09 0.00348199)
(-0.0095489 6.10298e-09 0.00280274)
(-0.0110687 7.66584e-09 0.00198802)
(-0.0122128 5.56616e-09 0.00101494)
(-0.0129314 3.92905e-09 -0.000138412)
(-0.0131736 1.29446e-09 -0.00148416)
(-0.0128958 -6.39427e-09 -0.0030153)
(-0.0120727 -1.39577e-08 -0.00467457)
(-0.0106923 -1.78142e-08 -0.00627407)
(-0.00880914 -4.57996e-08 -0.00737368)
(-0.00593768 -3.1169e-08 -0.00672866)
(-0.00375229 5.02896e-08 -0.00289932)
(-0.00340749 -8.99239e-08 0.0459135)
(-0.00215952 3.34777e-08 0.0191104)
(0.00369428 1.9539e-08 0.000322275)
(0.0109722 1.72226e-08 -0.0136987)
(0.019408 1.66789e-08 -0.0239805)
(0.0288416 1.5942e-08 -0.0312426)
(0.0391472 1.50971e-08 -0.0361398)
(0.0501512 1.41e-08 -0.0392327)
(0.0616642 1.29206e-08 -0.0409602)
(0.0735046 1.17765e-08 -0.0416777)
(0.0854969 1.06652e-08 -0.041658)
(0.097486 9.59721e-09 -0.041098)
(0.109346 8.65725e-09 -0.0401438)
(0.120976 7.86959e-09 -0.0389036)
(0.132296 7.16189e-09 -0.0374587)
(0.143243 6.54889e-09 -0.0358711)
(0.153773 6.05726e-09 -0.0341883)
(0.163852 5.58799e-09 -0.0324473)
(0.173456 5.08161e-09 -0.0306772)
(0.182572 4.5995e-09 -0.0289006)
(0.191191 4.22399e-09 -0.0271357)
(0.199312 3.90036e-09 -0.0253965)
(0.206938 3.55722e-09 -0.0236942)
(0.214075 3.22455e-09 -0.0220375)
(0.220734 3.00395e-09 -0.0204328)
(0.226925 2.93399e-09 -0.0188852)
(0.232664 2.94231e-09 -0.017398)
(0.237964 2.93231e-09 -0.0159738)
(0.242844 2.86806e-09 -0.0146138)
(0.247319 2.77882e-09 -0.0133185)
(0.251407 2.69505e-09 -0.0120878)
(0.255127 2.61366e-09 -0.0109211)
(0.258495 2.51277e-09 -0.00981716)
(0.261529 2.3945e-09 -0.00877454)
(0.264246 2.28884e-09 -0.00779143)
(0.266664 2.23458e-09 -0.00686582)
(0.268799 2.26361e-09 -0.00599555)
(0.270667 2.38734e-09 -0.00517835)
(0.272283 2.6053e-09 -0.00441186)
(0.273662 2.8987e-09 -0.00369372)