/*--------------------------------*- C++ -*----------------------------------*\
  =========                 |
  \\      /  F ield         | OpenFOAM: The Open Source CFD Toolbox
   \\    /   O peration     | Website:  https://openfoam.org
    \\  /    A nd           | Version:  8
     \\/     M anipulation  |
\*---------------------------------------------------------------------------*/
FoamFile
{
    version     2.0;
    format      ascii;
    class       volScalarField;
    location    "3600";
    object      epsilon;
}
// * * * * * * * * * * * * * * * * * * * * * * * * * * * * * * * * * * * * * //

dimensions      [0 2 -3 0 0 0 0];

internalField   nonuniform List<scalar> 
48000
(
1.43836
5.48278
10.4012
15.4793
20.839
26.2027
31.5403
36.8515
42.2421
47.6565
53.0734
58.4956
63.9149
69.3236
74.7138
80.077
85.4045
90.6869
95.9149
101.079
106.169
111.176
116.091
120.905
125.609
130.196
134.658
138.989
143.182
147.232
151.134
154.885
158.481
161.919
165.197
168.315
171.272
174.067
176.701
179.175
181.491
183.651
185.655
187.509
189.25
190.85
192.309
193.629
194.814
195.87
196.802
197.613
198.308
198.893
199.373
199.75
200.032
200.221
200.322
200.339
200.278
200.14
199.932
199.656
199.315
198.914
198.456
197.944
197.381
196.769
196.112
195.412
194.671
193.893
193.078
192.229
191.348
190.437
189.498
188.531
187.539
186.522
185.483
184.421
183.339
182.237
181.116
179.977
178.821
177.648
176.459
175.255
174.035
172.801
171.554
170.292
169.017
167.729
166.427
165.114
163.787
162.448
161.097
159.734
158.358
156.971
155.571
154.159
152.735
151.3
149.852
148.392
146.919
145.435
143.939
142.43
140.909
139.376
137.831
136.273
134.703
133.121
131.526
129.92
128.301
126.67
125.027
123.372
121.706
120.027
118.338
116.637
114.925
113.202
111.468
109.724
107.971
106.207
104.435
102.653
100.863
99.0655
97.2601
95.4477
93.6288
91.804
89.9739
88.139
86.3
84.4575
82.6123
80.765
78.9162
77.0668
75.2175
73.369
71.5221
69.6776
67.8361
65.9986
64.1658
62.3384
60.5173
58.7031
56.8968
55.0989
53.3102
51.5314
49.7633
48.0063
46.2612
44.5286
42.8089
41.1027
39.4103
37.7322
36.0688
34.4202
32.7869
31.1694
29.5695
27.9929
26.4404
24.9004
23.371
21.8517
20.3407
18.8369
17.3381
15.8419
14.345
12.8455
11.3536
9.85086
8.32898
6.77814
5.18518
3.53344
1.80829
0.19374
1.43855
5.48301
10.4014
15.4797
20.8394
26.203
31.5406
36.8518
42.2424
47.6568
53.0737
58.4959
63.9151
69.3238
74.714
80.0773
85.4047
90.6872
95.9151
101.079
106.169
111.176
116.091
120.905
125.609
130.196
134.658
138.989
143.182
147.232
151.134
154.885
158.481
161.919
165.197
168.315
171.272
174.067
176.701
179.175
181.492
183.651
185.655
187.509
189.25
190.85
192.309
193.629
194.814
195.87
196.802
197.613
198.308
198.893
199.373
199.75
200.032
200.221
200.322
200.339
200.278
200.14
199.932
199.656
199.315
198.914
198.456
197.944
197.381
196.769
196.112
195.412
194.671
193.893
193.078
192.229
191.348
190.437
189.498
188.531
187.539
186.522
185.483
184.421
183.339
182.237
181.116
179.977
178.821
177.648
176.459
175.255
174.035
172.801
171.554
170.292
169.017
167.729
166.427
165.113
163.787
162.448
161.097
159.734
158.358
156.971
155.571
154.159
152.735
151.299
149.852
148.392
146.919
145.435
143.939
142.43
140.909
139.376
137.831
136.273
134.703
133.121
131.526
129.92
128.301
126.67
125.027
123.372
121.706
120.027
118.338
116.637
114.925
113.202
111.468
109.724
107.971
106.207
104.435
102.653
100.863
99.0655
97.2601
95.4477
93.6288
91.804
89.9739
88.139
86.3
84.4575
82.6123
80.765
78.9162
77.0668
75.2175
73.369
71.5221
69.6776
67.8361
65.9986
64.1658
62.3384
60.5173
58.7031
56.8968
55.0989
53.3102
51.5314
49.7633
48.0063
46.2613
44.5286
42.8089
41.1027
39.4103
37.7322
36.0688
34.4202
32.7869
31.1694
29.5695
27.9929
26.4404
24.9004
23.371
21.8517
20.3407
18.8369
17.3381
15.8419
14.345
12.8455
11.3536
9.85087
8.32899
6.77816
5.18521
3.53348
1.80821
0.193739
6.50644
5.5826
7.14913
9.05929
11.1429
13.3071
15.5125
17.7382
19.9941
22.2758
24.5784
26.8998
29.2368
31.5861
33.9438
36.3058
38.6676
41.0244
43.3711
45.7026
48.0134
50.2982
52.5518
54.7688
56.9441
59.073
61.1507
63.173
65.1359
67.0357
68.8693
70.6337
72.3265
73.9457
75.4897
76.9571
78.3472
79.6595
80.8939
82.0505
83.1299
84.133
85.0613
85.9182
86.7115
87.437
88.094
88.6836
89.2075
89.6678
90.0668
90.4068
90.6902
90.9195
91.097
91.2253
91.3066
91.3433
91.3377
91.2921
91.2085
91.0891
90.936
90.751
90.5361
90.293
90.0234
89.729
89.4113
89.0717
88.7117
88.3325
87.9354
87.5215
87.092
86.6478
86.1899
85.7192
85.2364
84.7425
84.238
83.7236
83.2
82.6677
82.1272
81.579
81.0235
80.4612
79.8923
79.3172
78.7362
78.1496
77.5575
76.9603
76.358
75.7508
75.139
74.5225
73.9015
73.2762
72.6465
72.0125
71.3743
70.7318
70.0852
69.4345
68.7796
68.1205
67.4572
66.7898
66.1182
65.4424
64.7623
64.078
63.3895
62.6966
61.9994
61.2978
60.5919
59.8817
59.167
58.448
57.7246
56.9968
56.2646
55.5281
54.7873
54.0422
53.2928
52.5393
51.7817
51.02
50.2544
49.485
48.7117
47.9349
47.1545
46.3708
45.5839
44.794
44.0012
43.2058
42.4078
41.6077
40.8055
40.0015
39.196
38.3893
37.5815
36.773
35.9641
35.155
34.3461
33.5377
32.73
31.9235
31.1184
30.3151
29.5139
28.7151
27.9191
27.1262
26.3367
25.551
24.7693
23.9921
23.2194
22.4518
21.6894
20.9326
20.1815
19.4364
18.6976
17.9652
17.2394
16.5203
15.8082
15.1031
14.4052
13.7146
13.0319
12.3576
11.6914
11.0315
10.3776
9.7301
9.08802
8.45106
7.81871
7.19056
6.56637
5.94685
5.33431
4.72537
4.11954
3.51813
2.92669
2.36397
1.90373
2.22131
6.50655
5.5826
7.1491
9.05923
11.1428
13.307
15.5125
17.738
19.994
22.2756
24.5783
26.8997
29.2367
31.5859
33.9436
36.3056
38.6674
41.0242
43.3709
45.7024
48.0132
50.298
52.5516
54.7685
56.9439
59.0727
61.1505
63.1728
65.1356
67.0355
68.869
70.6334
72.3263
73.9455
75.4894
76.9569
78.347
79.6593
80.8936
82.0502
83.1296
84.1327
85.061
85.9179
86.7112
87.4367
88.0937
88.6833
89.2072
89.6675
90.0665
90.4065
90.6899
90.9192
91.0968
91.225
91.3063
91.343
91.3374
91.2918
91.2082
91.0889
90.9357
90.7508
90.5358
90.2927
90.0231
89.7287
89.411
89.0714
88.7114
88.3322
87.9351
87.5213
87.0918
86.6476
86.1897
85.7189
85.2362
84.7422
84.2377
83.7234
83.1998
82.6674
82.127
81.5788
81.0233
80.4609
79.8921
79.317
78.736
78.1493
77.5573
76.96
76.3578
75.7506
75.1387
74.5223
73.9013
73.276
72.6463
72.0123
71.3741
70.7316
70.085
69.4343
68.7794
68.1203
67.457
66.7896
66.118
65.4422
64.7622
64.0779
63.3893
62.6964
61.9992
61.2977
60.5918
59.8815
59.1668
58.4478
57.7244
56.9966
56.2644
55.5279
54.7871
54.042
53.2927
52.5392
51.7816
51.0199
50.2543
49.4848
48.7116
47.9347
47.1544
46.3707
45.5838
44.7939
44.0011
43.2056
42.4077
41.6076
40.8054
40.0014
39.1959
38.3892
37.5814
36.7729
35.964
35.1549
34.346
33.5376
32.7299
31.9234
31.1183
30.315
29.5138
28.715
27.919
27.1261
26.3366
25.5509
24.7693
23.992
23.2194
22.4517
21.6894
20.9325
20.1814
19.4364
18.6975
17.9651
17.2393
16.5203
15.8081
15.103
14.4051
13.7146
13.0319
12.3575
11.6913
11.0314
10.3776
9.73006
9.08799
8.45102
7.81869
7.19053
6.56635
5.94683
5.33429
4.72536
4.11953
3.51812
2.92669
2.36395
1.90376
2.22159
12.0897
7.48699
7.9356
9.07664
10.4596
11.9661
13.5466
15.1766
16.8455
18.5459
20.2723
22.0207
23.7874
25.5692
27.3626
29.1641
30.9699
32.7763
34.579
36.3738
38.1565
39.9225
41.6676
43.3872
45.0772
46.7333
48.3516
49.9284
51.4601
52.9435
54.3756
55.7539
57.0761
58.3402
59.5446
60.6882
61.7699
62.7892
63.7458
64.6398
65.4715
66.2416
66.9514
67.6026
68.1979
68.7374
69.2216
69.6515
70.0285
70.3542
70.6304
70.8591
71.0421
71.1816
71.2794
71.3377
71.3583
71.3433
71.2945
71.2139
71.1032
70.9641
70.7985
70.6079
70.3938
70.1579
69.9014
69.6258
69.3323
69.0222
68.6966
68.3566
68.0031
67.6373
67.2598
66.8717
66.4736
66.0664
65.6506
65.2269
64.7959
64.358
63.9139
63.464
63.0086
62.5481
62.083
61.6134
61.1398
60.6623
60.1811
59.6966
59.2088
58.7179
58.2241
57.7275
57.2282
56.7263
56.2219
55.715
55.2056
54.6939
54.1799
53.6635
53.1448
52.6238
52.1004
51.5748
51.0468
50.5165
49.9839
49.4488
48.9114
48.3715
47.8292
47.2845
46.7372
46.1874
45.6352
45.0803
44.5229
43.963
43.4004
42.8353
42.2677
41.6974
41.1247
40.5494
39.9717
39.3915
38.8089
38.224
37.6368
37.0473
36.4558
35.8621
35.2666
34.6692
34.07
33.4692
32.867
32.2634
31.6586
31.0529
30.4462
29.8389
29.231
28.6229
28.0146
27.4065
26.7987
26.1914
25.5848
24.9793
24.375
23.7721
23.171
22.5718
21.9747
21.3802
20.7883
20.1993
19.6135
19.0311
18.4524
17.8775
17.3067
16.7402
16.1782
15.6209
15.0685
14.5212
13.9791
13.4424
12.9112
12.3856
11.8659
11.352
10.8441
10.3424
9.84694
9.35793
8.87524
8.39854
7.92771
7.46267
7.00323
6.54986
6.10248
5.66129
5.22682
4.80007
4.38268
3.97602
3.5833
3.21157
2.87695
2.62249
2.61421
4.35109
12.0897
7.48691
7.9355
9.07653
10.4594
11.9659
13.5465
15.1765
16.8454
18.5457
20.2721
22.0205
23.7873
25.569
27.3624
29.1639
30.9698
32.7761
34.5788
36.3736
38.1563
39.9223
41.6674
43.387
45.077
46.7331
48.3515
49.9282
51.4599
52.9433
54.3754
55.7537
57.0759
58.34
59.5445
60.688
61.7697
62.789
63.7457
64.6397
65.4714
66.2415
66.9512
67.6024
68.1978
68.7373
69.2215
69.6514
70.0283
70.354
70.6303
70.8589
71.042
71.1815
71.2793
71.3376
71.3582
71.3432
71.2944
71.2137
71.103
70.964
70.7984
70.6078
70.3937
70.1578
69.9013
69.6257
69.3322
69.0221
68.6965
68.3564
68.003
67.6371
67.2597
66.8716
66.4735
66.0663
65.6505
65.2268
64.7958
64.358
63.9138
63.4639
63.0085
62.548
62.0829
61.6134
61.1397
60.6622
60.1811
59.6965
59.2087
58.7179
58.2241
57.7275
57.2282
56.7262
56.2218
55.7149
55.2056
54.6938
54.1798
53.6634
53.1447
52.6237
52.1004
51.5747
51.0468
50.5165
49.9838
49.4488
48.9113
48.3715
47.8292
47.2844
46.7372
46.1874
45.6351
45.0802
44.5229
43.9629
43.4004
42.8353
42.2676
41.6974
41.1246
40.5494
39.9716
39.3914
38.8088
38.2239
37.6367
37.0473
36.4557
35.8621
35.2665
34.6691
34.07
33.4692
32.8669
32.2634
31.6586
31.0528
30.4462
29.8388
29.231
28.6228
28.0146
27.4064
26.7986
26.1913
25.5848
24.9792
24.3749
23.7721
23.1709
22.5717
21.9747
21.3801
20.7883
20.1993
19.6135
19.0311
18.4524
17.8775
17.3067
16.7402
16.1782
15.6209
15.0685
14.5212
13.9791
13.4424
12.9112
12.3856
11.8659
11.352
10.8441
10.3424
9.84693
9.35791
8.87522
8.39853
7.92769
7.46266
7.00322
6.54985
6.10247
5.66128
5.22681
4.80006
4.38268
3.97602
3.5833
3.21157
2.87695
2.62249
2.61423
4.35107
17.5732
9.75396
9.39425
10.0776
11.1169
12.3335
13.6557
15.0478
16.4901
17.9702
19.4797
21.0125
22.564
24.13
25.7068
27.2911
28.8792
30.4678
32.0531
33.6315
35.1991
36.7523
38.2872
39.7998
41.2866
42.7437
44.1678
45.5552
46.9031
48.2082
49.4681
50.6802
51.8424
52.9529
54.0102
55.0129
55.9603
56.8516
57.6865
58.4651
59.1875
59.8543
60.4664
61.025
61.5317
61.9872
62.3924
62.7484
63.0567
63.3185
63.5357
63.7099
63.8428
63.9363
63.9923
64.0125
63.9988
63.9529
63.8767
63.7719
63.6401
63.4829
63.302
63.0989
62.8749
62.6315
62.37
62.0916
61.7976
61.489
61.167
60.8325
60.4864
60.1297
59.7632
59.3876
59.0037
58.6122
58.2135
57.8084
57.3974
56.9809
56.5594
56.1334
55.7031
55.2689
54.8312
54.3902
53.9462
53.4994
53.0501
52.5983
52.1444
51.6883
51.2303
50.7704
50.3088
49.8455
49.3806
48.9142
48.4462
47.9768
47.5059
47.0336
46.5598
46.0846
45.608
45.1299
44.6504
44.1694
43.687
43.203
42.7175
42.2304
41.7418
41.2516
40.7597
40.2662
39.771
39.2742
38.7757
38.2754
37.7735
37.2698
36.7645
36.2574
35.7486
35.2382
34.7261
34.2124
33.6971
33.1803
32.662
32.1422
31.6212
31.0988
30.5752
30.0505
29.5247
28.9981
28.4706
27.9425
27.4138
26.8847
26.3553
25.8257
25.2963
24.767
24.238
23.7096
23.182
22.6552
22.1296
21.6052
21.0824
20.5612
20.042
19.5248
19.01
18.4977
17.9881
17.4815
16.978
16.4779
15.9813
15.4884
14.9994
14.5146
14.034
13.5579
13.0864
12.6197
12.1579
11.7012
11.2496
10.8034
10.3626
9.92744
9.49792
9.07422
8.65647
8.24475
7.83914
7.43963
7.04628
6.65923
6.27865
5.90492
5.53843
5.17997
4.8306
4.49185
4.1661
3.85697
3.57067
3.31921
3.12852
3.06685
3.39846
6.44135
17.5732
9.75387
9.39413
10.0774
11.1168
12.3334
13.6556
15.0477
16.4899
17.97
19.4795
21.0124
22.5638
24.1298
25.7067
27.2909
28.8791
30.4676
32.0529
33.6313
35.199
36.7522
38.287
39.7997
41.2864
42.7436
44.1676
45.5551
46.9029
48.2081
49.468
50.6801
51.8423
52.9528
54.01
55.0128
55.9602
56.8515
57.6864
58.465
59.1874
59.8542
60.4663
61.0249
61.5316
61.9871
62.3923
62.7483
63.0566
63.3185
63.5356
63.7098
63.8427
63.9363
63.9922
64.0124
63.9987
63.9529
63.8767
63.7718
63.64
63.4829
63.302
63.0988
62.8748
62.6314
62.3699
62.0915
61.7975
61.489
61.1669
60.8324
60.4864
60.1297
59.7632
59.3876
59.0037
58.6121
58.2135
57.8084
57.3974
56.9809
56.5594
56.1333
55.703
55.2689
54.8311
54.3902
53.9462
53.4994
53.05
52.5983
52.1443
51.6883
51.2303
50.7704
50.3088
49.8455
49.3806
48.9142
48.4462
47.9767
47.5059
47.0335
46.5598
46.0846
45.6079
45.1299
44.6504
44.1694
43.6869
43.203
42.7174
42.2304
41.7418
41.2515
40.7597
40.2662
39.771
39.2742
38.7756
38.2754
37.7735
37.2698
36.7644
36.2574
35.7486
35.2382
34.7261
34.2124
33.6971
33.1803
32.662
32.1422
31.6211
31.0987
30.5751
30.0504
29.5247
28.9981
28.4706
27.9425
27.4138
26.8846
26.3552
25.8257
25.2962
24.7669
24.238
23.7096
23.182
22.6552
22.1296
21.6052
21.0824
20.5612
20.0419
19.5248
19.01
18.4977
17.9881
17.4815
16.978
16.4778
15.9812
15.4884
14.9994
14.5146
14.034
13.5579
13.0864
12.6197
12.1579
11.7012
11.2496
10.8034
10.3626
9.92743
9.49792
9.07422
8.65646
8.24475
7.83913
7.43962
7.04628
6.65923
6.27865
5.90492
5.53843
5.17996
4.8306
4.49185
4.1661
3.85697
3.57067
3.31921
3.12852
3.06685
3.39847
6.44134
23.0712
12.2118
11.1383
11.4715
12.2806
13.3222
14.4997
15.7652
17.0915
18.4612
19.8631
21.2888
22.7322
24.1885
25.6536
27.1237
28.5955
30.0656
31.5308
32.9878
34.4334
35.8641
37.2767
38.6677
40.034
41.3723
42.6794
43.9523
45.1883
46.3846
47.5387
48.6485
49.712
50.7275
51.6934
52.6087
53.4724
54.2839
55.0429
55.7492
56.403
57.0047
57.5552
58.0552
58.5059
58.9083
59.2633
59.572
59.8359
60.0562
60.2345
60.3724
60.4716
60.5338
60.5607
60.554
60.5154
60.4466
60.3494
60.2253
60.076
59.903
59.7077
59.4917
59.2563
59.0029
58.7326
58.4468
58.1465
57.8328
57.5067
57.1693
56.8213
56.4637
56.0972
55.7226
55.3406
54.9517
54.5567
54.156
53.7501
53.3396
52.9248
52.5062
52.084
51.6587
51.2305
50.7997
50.3665
49.9312
49.494
49.055
48.6143
48.1722
47.7287
47.284
46.8381
46.391
45.943
45.4939
45.0439
44.593
44.1411
43.6884
43.2348
42.7803
42.3249
41.8687
41.4115
40.9534
40.4943
40.0343
39.5733
39.1113
38.6482
38.1841
37.7189
37.2526
36.7852
36.3166
35.8469
35.376
34.904
34.4307
33.9563
33.4807
33.0039
32.526
32.047
31.5668
31.0856
30.6034
30.1201
29.6359
29.1509
28.665
28.1784
27.6912
27.2033
26.715
26.2263
25.7373
25.2482
24.7591
24.27
23.7812
23.2927
22.8048
22.3175
21.831
21.3456
20.8613
20.3783
19.8968
19.4171
18.9391
18.4633
17.9896
17.5184
17.0498
16.5839
16.1211
15.6613
15.205
14.7521
14.3029
13.8576
13.4163
12.9792
12.5464
12.1181
11.6945
11.2757
10.8618
10.453
10.0493
9.65108
9.2583
8.87114
8.48976
8.1143
7.74493
7.38179
7.02507
6.67499
6.33184
5.99603
5.66813
5.3489
5.03942
4.74122
4.45645
4.18857
3.94277
3.728
3.56091
3.47703
3.56984
4.20196
8.51302
23.0713
12.2117
11.1382
11.4714
12.2805
13.322
14.4995
15.7651
17.0913
18.4611
19.8629
21.2886
22.732
24.1883
25.6534
27.1235
28.5953
30.0654
31.5307
32.9877
34.4332
35.8639
37.2765
38.6676
40.0339
41.3721
42.6792
43.9522
45.1881
46.3844
47.5386
48.6484
49.7119
50.7274
51.6933
52.6086
53.4723
54.2838
55.0428
55.749
56.4029
57.0046
57.5551
58.0551
58.5058
58.9082
59.2632
59.572
59.8358
60.0561
60.2344
60.3724
60.4716
60.5337
60.5606
60.5539
60.5153
60.4466
60.3494
60.2253
60.076
59.9029
59.7077
59.4917
59.2563
59.0028
58.7326
58.4467
58.1464
57.8327
57.5067
57.1692
56.8213
56.4636
56.0972
55.7226
55.3405
54.9517
54.5566
54.1559
53.7501
53.3396
52.9248
52.5061
52.084
51.6587
51.2305
50.7997
50.3665
49.9312
49.494
49.0549
48.6143
48.1722
47.7287
47.284
46.838
46.391
45.9429
45.4939
45.0439
44.5929
44.1411
43.6884
43.2348
42.7803
42.3249
41.8686
41.4115
40.9534
40.4943
40.0343
39.5733
39.1113
38.6482
38.1841
37.7189
37.2526
36.7852
36.3166
35.8469
35.376
34.9039
34.4307
33.9563
33.4807
33.0039
32.526
32.047
31.5668
31.0856
30.6033
30.1201
29.6359
29.1509
28.665
28.1784
27.6911
27.2033
26.715
26.2263
25.7373
25.2482
24.759
24.27
23.7812
23.2927
22.8047
22.3175
21.831
21.3456
20.8613
20.3783
19.8968
19.4171
18.9391
18.4633
17.9896
17.5184
17.0498
16.5839
16.1211
15.6613
15.205
14.7521
14.3029
13.8576
13.4163
12.9791
12.5464
12.1181
11.6945
11.2757
10.8618
10.453
10.0493
9.65108
9.25829
8.87114
8.48975
8.1143
7.74493
7.38179
7.02507
6.67499
6.33184
5.99603
5.66813
5.3489
5.03942
4.74122
4.45645
4.18857
3.94277
3.728
3.56091
3.47703
3.56985
4.20197
8.51301
28.5564
14.7922
13.0588
13.0978
13.7312
14.6505
15.7344
16.9227
18.181
19.4876
20.8281
22.1922
23.5724
24.963
26.3594
27.7577
29.1545
30.5467
31.9312
33.3052
34.6658
36.0101
37.3354
38.6386
39.9171
41.1679
42.3884
43.576
44.7282
45.8425
46.9168
47.949
48.9375
49.8805
50.7768
51.6252
52.4249
53.1753
53.876
54.5269
55.1281
55.6799
56.183
56.638
57.0458
57.4076
57.7241
57.9965
58.2262
58.4143
58.5625
58.6721
58.7448
58.7821
58.7858
58.7574
58.6985
58.6109
58.4961
58.3556
58.1911
58.004
57.7957
57.5676
57.3211
57.0574
56.7778
56.4835
56.1754
55.8548
55.5225
55.1795
54.8267
54.4649
54.0948
53.7172
53.3328
52.9421
52.5458
52.1444
51.7383
51.3281
50.9141
50.4968
50.0764
49.6533
49.2278
48.8001
48.3705
47.9392
47.5064
47.0722
46.6369
46.2004
45.763
45.3248
44.8857
44.446
44.0056
43.5646
43.1231
42.681
42.2384
41.7952
41.3516
40.9075
40.4629
40.0178
39.5721
39.1259
38.6791
38.2318
37.7838
37.3352
36.8859
36.436
35.9853
35.534
35.0819
34.629
34.1753
33.7209
33.2657
32.8096
32.3528
31.8951
31.4367
30.9774
30.5174
30.0567
29.5953
29.1331
28.6704
28.207
27.7431
27.2788
26.814
26.3489
25.8835
25.418
24.9524
24.4868
24.0213
23.5561
23.0912
22.6268
22.163
21.7
21.2378
20.7767
20.3167
19.8581
19.4009
18.9454
18.4917
18.04
17.5904
17.1432
16.6984
16.2562
15.8169
15.3806
14.9474
14.5176
14.0913
13.6686
13.2497
12.8348
12.4241
12.0176
11.6156
11.2181
10.8254
10.4376
10.0547
9.67712
9.30481
8.93801
8.57686
8.22157
7.87232
7.52934
7.19288
6.86323
6.54074
6.22588
5.91925
5.62162
5.33404
5.05793
4.7953
4.54898
4.32326
4.12487
3.96517
3.86549
3.87077
4.09968
5.01291
10.574
28.5565
14.7921
13.0586
13.0977
13.731
14.6504
15.7343
16.9226
18.1808
19.4874
20.8279
22.192
23.5723
24.9629
26.3593
27.7576
29.1544
30.5465
31.931
33.305
34.6656
36.01
37.3352
38.6385
39.9169
41.1678
42.3883
43.5759
44.728
45.8423
46.9166
47.9489
48.9373
49.8804
50.7767
51.6251
52.4248
53.1752
53.8759
54.5268
55.128
55.6798
56.1829
56.6379
57.0458
57.4075
57.724
57.9965
58.2261
58.4143
58.5624
58.672
58.7447
58.7821
58.7857
58.7573
58.6985
58.6108
58.496
58.3556
58.1911
58.0039
57.7956
57.5676
57.3211
57.0574
56.7778
56.4834
56.1754
55.8548
55.5225
55.1795
54.8267
54.4648
54.0948
53.7172
53.3328
52.9421
52.5458
52.1444
51.7383
51.3281
50.9141
50.4967
50.0763
49.6533
49.2277
48.8001
48.3705
47.9392
47.5064
47.0722
46.6369
46.2004
45.763
45.3248
44.8857
44.446
44.0056
43.5646
43.123
42.6809
42.2383
41.7952
41.3516
40.9075
40.4629
40.0177
39.5721
39.1259
38.6791
38.2317
37.7838
37.3352
36.8859
36.436
35.9853
35.534
35.0819
34.629
34.1753
33.7209
33.2656
32.8096
32.3527
31.8951
31.4367
30.9774
30.5174
30.0567
29.5953
29.1331
28.6704
28.207
27.7431
27.2788
26.814
26.3489
25.8835
25.418
24.9524
24.4868
24.0213
23.5561
23.0912
22.6268
22.163
21.7
21.2378
20.7766
20.3167
19.858
19.4009
18.9454
18.4917
18.04
17.5904
17.1431
16.6984
16.2562
15.8169
15.3806
14.9474
14.5176
14.0913
13.6686
13.2497
12.8348
12.4241
12.0176
11.6156
11.2181
10.8254
10.4376
10.0548
9.67712
9.30482
8.93801
8.57686
8.22157
7.87232
7.52935
7.19288
6.86323
6.54074
6.22588
5.91925
5.62162
5.33404
5.05794
4.7953
4.54898
4.32326
4.12487
3.96517
3.86549
3.87078
4.09968
5.01293
10.574
34.09
17.4543
15.1106
14.8923
15.3824
16.2095
17.2278
18.3651
19.5804
20.8477
22.1499
23.4746
24.8132
26.1591
27.5072
28.8534
30.1943
31.527
32.8488
34.1571
35.4495
36.7236
37.977
39.2073
40.4123
41.5895
42.7366
43.8514
44.9318
45.9757
46.9812
47.9464
48.8699
49.7502
50.586
51.3764
52.1205
52.8177
53.4678
54.0705
54.6259
55.1344
55.5963
56.0123
56.3832
56.7099
56.9933
57.2345
57.4348
57.5953
57.7174
57.8027
57.8525
57.8684
57.8519
57.8046
57.7281
57.6239
57.4936
57.3387
57.1606
56.9607
56.7406
56.5014
56.2445
55.9712
55.6826
55.3799
55.0641
54.7362
54.3972
54.0481
53.6896
53.3227
52.9479
52.5661
52.1778
51.7837
51.3844
50.9803
50.572
50.1599
49.7444
49.3259
48.9047
48.4811
48.0554
47.628
47.1989
46.7684
46.3367
45.9039
45.4703
45.0359
44.6008
44.1652
43.7291
43.2925
42.8556
42.4184
41.981
41.5432
41.1053
40.6671
40.2287
39.7901
39.3512
38.9121
38.4728
38.0333
37.5934
37.1532
36.7127
36.2719
35.8307
35.3891
34.9471
34.5046
34.0617
33.6183
33.1744
32.73
32.2851
31.8396
31.3937
30.9472
30.5002
30.0527
29.6047
29.1562
28.7073
28.258
27.8083
27.3583
26.908
26.4575
26.0068
25.556
25.1052
24.6544
24.2038
23.7534
23.3033
22.8537
22.4046
21.9562
21.5086
21.0619
20.6162
20.1716
19.7284
19.2866
18.8464
18.408
17.9714
17.5369
17.1046
16.6746
16.2472
15.8224
15.4005
14.9815
14.5658
14.1533
13.7443
13.3389
12.9373
12.5396
12.146
11.7566
11.3716
10.9912
10.6155
10.2446
9.87871
9.51802
9.16269
8.8129
8.46886
8.1308
7.79897
7.47365
7.15518
6.84394
6.54044
6.24526
5.95919
5.6832
5.41862
5.16721
4.93139
4.71467
4.52223
4.36222
4.24838
4.20644
4.29087
4.64552
5.82909
12.6301
34.0902
17.4542
15.1104
14.8922
15.3823
16.2094
17.2276
18.365
19.5802
20.8476
22.1497
23.4744
24.813
26.1589
27.507
28.8532
30.1942
31.5269
32.8486
34.1569
35.4493
36.7234
37.9768
39.2072
40.4121
41.5893
42.7364
43.8513
44.9317
45.9756
46.981
47.9463
48.8698
49.7501
50.5859
51.3763
52.1204
52.8176
53.4677
54.0704
54.6259
55.1343
55.5962
56.0122
56.3831
56.7098
56.9932
57.2345
57.4347
57.5952
57.7174
57.8026
57.8524
57.8683
57.8518
57.8046
57.7281
57.6239
57.4936
57.3386
57.1605
56.9607
56.7405
56.5014
56.2445
55.9712
55.6826
55.3798
55.064
54.7362
54.3972
54.0481
53.6896
53.3226
52.9479
52.566
52.1778
51.7837
51.3844
50.9803
50.572
50.1599
49.7444
49.3259
48.9047
48.4811
48.0554
47.6279
47.1988
46.7684
46.3367
45.9039
45.4703
45.0359
44.6008
44.1652
43.7291
43.2925
42.8556
42.4184
41.9809
41.5432
41.1052
40.6671
40.2287
39.79
39.3512
38.9121
38.4728
38.0332
37.5934
37.1532
36.7127
36.2719
35.8307
35.3891
34.9471
34.5046
34.0617
33.6183
33.1744
32.73
32.2851
31.8396
31.3937
30.9472
30.5002
30.0527
29.6047
29.1562
28.7073
28.258
27.8083
27.3583
26.908
26.4575
26.0068
25.556
25.1052
24.6544
24.2038
23.7534
23.3033
22.8537
22.4046
21.9562
21.5086
21.0619
20.6162
20.1716
19.7284
19.2866
18.8464
18.408
17.9714
17.5369
17.1046
16.6746
16.2472
15.8224
15.4005
14.9815
14.5658
14.1533
13.7443
13.3389
12.9373
12.5396
12.146
11.7566
11.3716
10.9912
10.6155
10.2446
9.87871
9.51802
9.16269
8.8129
8.46886
8.1308
7.79897
7.47365
7.15518
6.84395
6.54044
6.24527
5.95919
5.6832
5.41862
5.16721
4.9314
4.71467
4.52223
4.36222
4.24838
4.20644
4.29087
4.64553
5.82912
12.6301
39.9196
20.2287
17.2831
16.8275
17.1943
17.9478
18.9173
20.0192
21.2056
22.4467
23.7227
25.0195
26.3273
27.6386
28.9482
30.2516
31.5456
32.8273
34.0945
35.3448
36.5764
37.7873
38.9757
40.1396
41.2771
42.3865
43.4658
44.5131
45.5268
46.505
47.4462
48.3489
49.2115
50.0329
50.812
51.5479
52.2398
52.8872
53.4897
54.0473
54.5598
55.0276
55.4511
55.8307
56.1672
56.4615
56.7143
56.9267
57.0999
57.235
57.3333
57.3961
57.425
57.4213
57.3864
57.3219
57.2293
57.1101
56.9656
56.7975
56.607
56.3955
56.1645
55.9151
55.6487
55.3665
55.0695
54.759
54.4358
54.1011
53.7558
53.4007
53.0367
52.6645
52.285
51.8987
51.5063
51.1085
50.7057
50.2985
49.8874
49.4727
49.055
48.6344
48.2115
47.7864
47.3595
46.9311
46.5013
46.0703
45.6383
45.2056
44.7721
44.3382
43.9038
43.469
43.034
42.5988
42.1635
41.7281
41.2926
40.8571
40.4215
39.986
39.5505
39.1149
38.6794
38.2439
37.8083
37.3727
36.937
36.5013
36.0654
35.6294
35.1933
34.757
34.3204
33.8837
33.4467
33.0095
32.572
32.1342
31.6962
31.2578
30.8191
30.3801
29.9408
29.5012
29.0613
28.6212
28.1809
27.7403
27.2996
26.8587
26.4177
25.9768
25.5358
25.0949
24.6542
24.2137
23.7735
23.3337
22.8944
22.4556
22.0175
21.5803
21.1439
20.7085
20.2743
19.8414
19.4098
18.9797
18.5513
18.1247
17.7001
17.2775
16.8571
16.4392
16.0237
15.6109
15.2009
14.7939
14.3901
13.9895
13.5923
13.1987
12.8088
12.4228
12.0408
11.6631
11.2896
10.9207
10.5564
10.197
9.84253
9.49329
9.14945
8.81123
8.47886
8.15262
7.83281
7.51979
7.21396
6.91581
6.62595
6.34512
6.07425
5.81454
5.56754
5.33535
5.12085
4.92813
4.76329
4.63589
4.56205
4.5718
4.72927
5.20357
6.65154
14.689
39.9198
20.2285
17.283
16.8273
17.1942
17.9476
18.9171
20.019
21.2054
22.4466
23.7225
25.0193
26.3271
27.6385
28.948
30.2514
31.5454
32.8272
34.0943
35.3446
36.5763
37.7872
38.9755
40.1394
41.277
42.3863
43.4656
44.513
45.5267
46.5049
47.4461
48.3487
49.2114
50.0328
50.8119
51.5478
52.2397
52.8871
53.4896
54.0472
54.5598
55.0276
55.451
55.8306
56.1672
56.4614
56.7142
56.9267
57.0998
57.2349
57.3332
57.3961
57.4249
57.4212
57.3864
57.3219
57.2293
57.11
56.9656
56.7974
56.6069
56.3955
56.1644
55.9151
55.6487
55.3664
55.0695
54.7589
54.4358
54.1011
53.7558
53.4007
53.0367
52.6645
52.2849
51.8987
51.5063
51.1085
50.7057
50.2985
49.8874
49.4727
49.0549
48.6344
48.2115
47.7864
47.3595
46.9311
46.5012
46.0703
45.6383
45.2056
44.7721
44.3382
43.9038
43.469
43.034
42.5988
42.1635
41.728
41.2926
40.857
40.4215
39.986
39.5505
39.1149
38.6794
38.2439
37.8083
37.3727
36.937
36.5013
36.0654
35.6294
35.1933
34.757
34.3204
33.8837
33.4467
33.0095
32.572
32.1342
31.6961
31.2578
30.8191
30.3801
29.9408
29.5012
29.0613
28.6212
28.1809
27.7403
27.2996
26.8587
26.4177
25.9767
25.5358
25.0949
24.6542
24.2137
23.7735
23.3337
22.8943
22.4556
22.0175
21.5803
21.1439
20.7085
20.2743
19.8413
19.4098
18.9797
18.5513
18.1247
17.7001
17.2775
16.8571
16.4392
16.0237
15.6109
15.2009
14.7939
14.3901
13.9895
13.5923
13.1987
12.8088
12.4228
12.0408
11.6631
11.2896
10.9207
10.5564
10.197
9.84253
9.49329
9.14945
8.81123
8.47886
8.15262
7.83281
7.51979
7.21396
6.91581
6.62596
6.34513
6.07425
5.81454
5.56754
5.33535
5.12085
4.92813
4.76329
4.63589
4.56205
4.5718
4.72928
5.20358
6.65157
14.689
45.9399
23.1123
19.5707
18.8902
19.1468
19.8386
20.7702
21.846
23.0118
24.2339
25.4899
26.7643
28.0462
29.3276
30.6026
31.867
33.1174
34.3513
35.5667
36.7619
37.9352
39.0854
40.2109
41.3104
42.3825
43.4259
44.439
45.4205
46.369
47.2831
48.1613
49.0026
49.8056
50.5693
51.2928
51.9752
52.6159
53.2144
53.7704
54.2837
54.7543
55.1824
55.5683
55.9125
56.2156
56.4784
56.7017
56.8863
57.0334
57.1441
57.2196
57.2612
57.2701
57.2477
57.1955
57.1148
57.0071
56.8737
56.7161
56.5356
56.3336
56.1114
55.8703
55.6116
55.3365
55.046
54.7414
54.4237
54.0939
53.753
53.4018
53.0413
52.6722
52.2953
51.9113
51.521
51.1248
50.7235
50.3174
49.9072
49.4933
49.0762
48.6561
48.2335
47.8087
47.3821
46.9537
46.524
46.0932
45.6613
45.2287
44.7955
44.3618
43.9277
43.4934
43.0589
42.6243
42.1897
41.7551
41.3206
40.8862
40.452
40.0179
39.584
39.1502
38.7167
38.2833
37.85
37.4169
36.984
36.5511
36.1184
35.6857
35.253
34.8204
34.3878
33.9551
33.5224
33.0897
32.6569
32.2239
31.7909
31.3577
30.9244
30.491
30.0574
29.6237
29.1899
28.756
28.322
27.8879
27.4537
27.0196
26.5855
26.1514
25.7174
25.2836
24.8501
24.4168
23.9838
23.5513
23.1193
22.6879
22.2572
21.8273
21.3982
20.9701
20.5431
20.1173
19.6928
19.2698
18.8483
18.4285
18.0106
17.5945
17.1806
16.7689
16.3595
15.9526
15.5484
15.147
14.7485
14.353
13.9608
13.5719
13.1866
12.8049
12.427
12.0531
11.6834
11.3179
10.9568
10.6004
10.2488
9.90223
9.56085
9.22491
8.89466
8.57038
8.25238
7.94102
7.63672
7.33997
7.05135
6.77157
6.50149
6.24221
5.99512
5.76202
5.54533
5.34835
5.17579
5.03463
4.93585
4.89797
4.95541
5.18204
5.77278
7.48449
16.7647
45.9402
23.1121
19.5706
18.89
19.1466
19.8385
20.77
21.8458
23.0116
24.2337
25.4897
26.7642
28.046
29.3274
30.6024
31.8668
33.1172
34.3512
35.5666
36.7617
37.9351
39.0852
40.2107
41.3102
42.3824
43.4257
44.4389
45.4204
46.3689
47.2829
48.1612
49.0024
49.8055
50.5692
51.2927
51.9751
52.6158
53.2143
53.7703
54.2836
54.7542
55.1823
55.5682
55.9124
56.2156
56.4783
56.7016
56.8863
57.0334
57.1441
57.2196
57.2611
57.27
57.2477
57.1955
57.1148
57.007
56.8737
56.716
56.5355
56.3335
56.1114
55.8703
55.6116
55.3364
55.046
54.7414
54.4237
54.0939
53.7529
53.4018
53.0412
52.6721
52.2953
51.9113
51.5209
51.1248
50.7234
50.3174
49.9072
49.4933
49.0762
48.6561
48.2335
47.8087
47.382
46.9537
46.524
46.0932
45.6613
45.2287
44.7955
44.3618
43.9277
43.4933
43.0588
42.6243
42.1896
41.7551
41.3206
40.8862
40.452
40.0179
39.584
39.1502
38.7167
38.2833
37.85
37.4169
36.984
36.5511
36.1184
35.6857
35.253
34.8204
34.3878
33.9551
33.5224
33.0897
32.6568
32.2239
31.7909
31.3577
30.9244
30.491
30.0574
29.6237
29.1899
28.756
28.322
27.8879
27.4537
27.0196
26.5854
26.1514
25.7174
25.2836
24.8501
24.4168
23.9838
23.5513
23.1193
22.6879
22.2572
21.8273
21.3982
20.9701
20.5431
20.1173
19.6928
19.2698
18.8483
18.4285
18.0105
17.5945
17.1806
16.7689
16.3595
15.9526
15.5484
15.147
14.7485
14.353
13.9608
13.5719
13.1866
12.8049
12.427
12.0531
11.6834
11.3179
10.9568
10.6004
10.2488
9.90223
9.56085
9.22491
8.89466
8.57038
8.25238
7.94102
7.63673
7.33997
7.05135
6.77157
6.50149
6.24221
5.99512
5.76202
5.54533
5.34835
5.17579
5.03463
4.93585
4.89797
4.95541
5.18204
5.77279
7.48452
16.7647
52.1691
26.1102
21.9725
21.075
21.2301
21.8683
22.7688
23.824
24.9736
26.1801
27.4189
28.6729
29.9302
31.1825
32.4236
33.6492
34.8562
36.0423
37.2058
38.3455
39.4603
40.5493
41.6116
42.6464
43.6527
44.6297
45.5763
46.4916
47.3745
48.224
49.039
49.8185
50.5616
51.2673
51.9349
52.5636
53.153
53.7024
54.2117
54.6806
55.1091
55.4975
55.8459
56.1547
56.4246
56.6561
56.85
57.0072
57.1286
57.2153
57.2684
57.2891
57.2786
57.2381
57.1691
57.0728
56.9505
56.8036
56.6334
56.4413
56.2285
55.9963
55.7459
55.4785
55.1953
54.8974
54.5858
54.2617
53.9259
53.5794
53.223
52.8577
52.4842
52.1032
51.7154
51.3215
50.9221
50.5178
50.109
49.6963
49.2801
48.8608
48.4388
48.0145
47.5882
47.1602
46.7307
46.3
45.8683
45.4357
45.0026
44.569
44.135
43.7008
43.2665
42.8322
42.3979
41.9637
41.5297
41.096
40.6625
40.2292
39.7963
39.3636
38.9313
38.4993
38.0676
37.6361
37.205
36.7741
36.3435
35.9131
35.4829
35.0529
34.6231
34.1934
33.7638