/*--------------------------------*- C++ -*----------------------------------*\
  =========                 |
  \\      /  F ield         | OpenFOAM: The Open Source CFD Toolbox
   \\    /   O peration     | Website:  https://openfoam.org
    \\  /    A nd           | Version:  8
     \\/     M anipulation  |
\*---------------------------------------------------------------------------*/
FoamFile
{
    version     2.0;
    format      ascii;
    class       volScalarField;
    location    "3600";
    object      nut;
}
// * * * * * * * * * * * * * * * * * * * * * * * * * * * * * * * * * * * * * //

dimensions      [0 2 -1 0 0 0 0];

internalField   nonuniform List<scalar> 
48000
(
5.09454e-05
8.81833e-05
0.000109164
0.000124633
0.000137618
0.000148535
0.000158005
0.000166418
0.000174165
0.000181309
0.000187934
0.000194127
0.000199946
0.000205434
0.000210626
0.00021555
0.000220228
0.000224678
0.000228915
0.000232951
0.000236798
0.000240463
0.000243956
0.000247282
0.000250448
0.00025346
0.000256323
0.000259042
0.000261621
0.000264065
0.000266378
0.000268563
0.000270625
0.000272568
0.000274395
0.000276111
0.000277718
0.00027922
0.000280621
0.000281925
0.000283134
0.000284252
0.000285283
0.000286229
0.000287111
0.000287918
0.000288649
0.000289308
0.000289897
0.000290419
0.000290878
0.000291277
0.000291618
0.000291904
0.000292138
0.000292322
0.000292458
0.00029255
0.000292599
0.000292607
0.000292576
0.000292509
0.000292407
0.000292271
0.000292105
0.000291908
0.000291684
0.000291432
0.000291155
0.000290853
0.000290529
0.000290182
0.000289815
0.000289427
0.000289021
0.000288596
0.000288154
0.000287696
0.000287222
0.000286732
0.000286228
0.000285709
0.000285177
0.000284632
0.000284074
0.000283503
0.00028292
0.000282326
0.00028172
0.000281102
0.000280473
0.000279834
0.000279183
0.000278521
0.000277849
0.000277166
0.000276472
0.000275768
0.000275053
0.000274327
0.000273591
0.000272843
0.000272084
0.000271314
0.000270533
0.000269741
0.000268937
0.000268121
0.000267292
0.000266452
0.0002656
0.000264734
0.000263856
0.000262964
0.000262059
0.00026114
0.000260208
0.000259261
0.000258299
0.000257322
0.00025633
0.000255323
0.000254299
0.000253259
0.000252203
0.00025113
0.00025004
0.000248932
0.000247806
0.000246662
0.000245499
0.000244317
0.000243116
0.000241895
0.000240654
0.000239392
0.00023811
0.000236807
0.000235482
0.000234136
0.000232767
0.000231376
0.000229962
0.000228524
0.000227064
0.000225579
0.00022407
0.000222536
0.000220978
0.000219394
0.000217785
0.000216149
0.000214488
0.000212799
0.000211083
0.00020934
0.000207569
0.000205769
0.00020394
0.000202082
0.000200194
0.000198275
0.000196326
0.000194344
0.00019233
0.000190283
0.000188201
0.000186084
0.000183931
0.000181741
0.000179512
0.000177242
0.000174931
0.000172575
0.000170174
0.000167724
0.000165222
0.000162665
0.000160051
0.000157375
0.000154635
0.000151836
0.000148976
0.000146026
0.000142973
0.000139805
0.000136506
0.000133055
0.000129429
0.000125593
0.000121506
0.000117115
0.000112394
0.000107199
0.000101368
9.46432e-05
8.6578e-05
7.63296e-05
6.34265e-05
0.000196597
5.09465e-05
8.8184e-05
0.000109165
0.000124634
0.000137618
0.000148536
0.000158005
0.000166418
0.000174165
0.00018131
0.000187934
0.000194128
0.000199946
0.000205434
0.000210626
0.00021555
0.000220228
0.000224678
0.000228915
0.000232951
0.000236798
0.000240463
0.000243956
0.000247282
0.000250448
0.000253461
0.000256324
0.000259042
0.000261621
0.000264065
0.000266378
0.000268563
0.000270625
0.000272568
0.000274395
0.000276111
0.000277718
0.00027922
0.000280621
0.000281925
0.000283134
0.000284252
0.000285283
0.000286229
0.000287111
0.000287918
0.000288649
0.000289308
0.000289897
0.000290419
0.000290878
0.000291277
0.000291618
0.000291904
0.000292138
0.000292322
0.000292458
0.00029255
0.000292599
0.000292607
0.000292576
0.000292509
0.000292407
0.000292271
0.000292105
0.000291908
0.000291684
0.000291432
0.000291155
0.000290853
0.000290529
0.000290182
0.000289815
0.000289427
0.000289021
0.000288596
0.000288154
0.000287696
0.000287222
0.000286732
0.000286228
0.000285709
0.000285177
0.000284632
0.000284074
0.000283503
0.00028292
0.000282326
0.00028172
0.000281102
0.000280473
0.000279834
0.000279183
0.000278521
0.000277849
0.000277166
0.000276472
0.000275768
0.000275053
0.000274327
0.00027359
0.000272843
0.000272084
0.000271314
0.000270533
0.000269741
0.000268937
0.000268121
0.000267292
0.000266452
0.0002656
0.000264734
0.000263856
0.000262964
0.000262059
0.00026114
0.000260208
0.000259261
0.000258299
0.000257322
0.00025633
0.000255323
0.000254299
0.000253259
0.000252203
0.00025113
0.00025004
0.000248932
0.000247806
0.000246662
0.000245499
0.000244317
0.000243116
0.000241895
0.000240654
0.000239392
0.00023811
0.000236807
0.000235482
0.000234136
0.000232767
0.000231376
0.000229962
0.000228524
0.000227064
0.000225579
0.00022407
0.000222536
0.000220978
0.000219394
0.000217785
0.000216149
0.000214488
0.000212799
0.000211083
0.00020934
0.000207569
0.000205769
0.00020394
0.000202082
0.000200194
0.000198275
0.000196326
0.000194344
0.00019233
0.000190283
0.000188201
0.000186084
0.000183931
0.000181741
0.000179512
0.000177242
0.000174931
0.000172575
0.000170174
0.000167724
0.000165222
0.000162665
0.000160051
0.000157375
0.000154635
0.000151837
0.000148976
0.000146026
0.000142973
0.000139805
0.000136506
0.000133055
0.000129429
0.000125593
0.000121506
0.000117115
0.000112394
0.000107199
0.000101368
9.4643e-05
8.65772e-05
7.63284e-05
6.34317e-05
0.000196606
7.65993e-05
0.000567498
0.000899274
0.00113165
0.00130449
0.00144574
0.00156689
0.00167343
0.0017683
0.00185409
0.00193259
0.00200495
0.00207207
0.00213462
0.00219314
0.00224806
0.00229973
0.00234844
0.00239442
0.00243789
0.00247903
0.00251798
0.00255489
0.00258986
0.00262301
0.00265443
0.00268422
0.00271243
0.00273916
0.00276446
0.0027884
0.00281104
0.00283242
0.0028526
0.00287163
0.00288956
0.00290642
0.00292226
0.00293712
0.00295102
0.00296402
0.00297613
0.00298736
0.00299768
0.00300692
0.00301534
0.00302306
0.00303012
0.00303656
0.00304241
0.00304771
0.00305246
0.00305671
0.00306047
0.00306376
0.0030666
0.00306901
0.003071
0.0030726
0.00307382
0.00307468
0.0030752
0.00307537
0.00307524
0.00307479
0.00307405
0.00307303
0.00307175
0.0030702
0.00306841
0.00306637
0.00306411
0.00306163
0.00305893
0.00305604
0.00305294
0.00304965
0.00304618
0.00304253
0.00303871
0.00303472
0.00303057
0.00302626
0.00302179
0.00301717
0.00301241
0.00300749
0.00300244
0.00299724
0.00299191
0.00298644
0.00298083
0.00297508
0.00296921
0.00296319
0.00295705
0.00295077
0.00294436
0.00293781
0.00293114
0.00292432
0.00291737
0.00291028
0.00290306
0.00289569
0.00288818
0.00288053
0.00287274
0.0028648
0.0028567
0.00284846
0.00284007
0.00283151
0.0028228
0.00281393
0.00280489
0.00279569
0.00278631
0.00277677
0.00276704
0.00275714
0.00274706
0.00273679
0.00272633
0.00271568
0.00270483
0.00269378
0.00268254
0.00267108
0.00265942
0.00264754
0.00263545
0.00262313
0.00261059
0.00259783
0.00258483
0.0025716
0.00255813
0.00254442
0.00253047
0.00251626
0.00250181
0.00248709
0.00247212
0.00245688
0.00244138
0.0024256
0.00240955
0.00239322
0.00237661
0.00235971
0.00234252
0.00232503
0.00230724
0.00228914
0.00227074
0.00225202
0.00223298
0.00221361
0.0021939
0.00217386
0.00215346
0.00213271
0.0021116
0.00209011
0.00206823
0.00204596
0.00202327
0.00200016
0.00197661
0.0019526
0.00192811
0.00190312
0.0018776
0.00185151
0.00182484
0.00179752
0.00176953
0.00174078
0.00171122
0.00168072
0.00164912
0.00161631
0.00158227
0.0015469
0.00151005
0.00147149
0.00143097
0.00138811
0.00134242
0.00129315
0.00123908
0.00117817
0.00110941
0.00102991
0.000934829
0.000815416
0.000654
0.000410421
5.51449e-05
7.65998e-05
0.000567508
0.00089929
0.00113167
0.00130451
0.00144575
0.00156691
0.00167345
0.00176831
0.00185411
0.0019326
0.00200496
0.00207208
0.00213463
0.00219315
0.00224807
0.00229974
0.00234845
0.00239443
0.0024379
0.00247904
0.00251799
0.0025549
0.00258987
0.00262302
0.00265444
0.00268422
0.00271244
0.00273917
0.00276447
0.00278841
0.00281105
0.00283243
0.00285261
0.00287164
0.00288957
0.00290643
0.00292227
0.00293712
0.00295103
0.00296403
0.00297614
0.00298737
0.00299769
0.00300692
0.00301535
0.00302306
0.00303012
0.00303656
0.00304242
0.00304771
0.00305247
0.00305672
0.00306048
0.00306376
0.0030666
0.00306901
0.00307101
0.00307261
0.00307383
0.00307469
0.0030752
0.00307538
0.00307524
0.0030748
0.00307406
0.00307304
0.00307175
0.00307021
0.00306841
0.00306638
0.00306412
0.00306163
0.00305894
0.00305604
0.00305294
0.00304966
0.00304619
0.00304254
0.00303872
0.00303473
0.00303057
0.00302626
0.0030218
0.00301718
0.00301241
0.0030075
0.00300244
0.00299725
0.00299191
0.00298644
0.00298083
0.00297509
0.00296921
0.0029632
0.00295705
0.00295078
0.00294437
0.00293782
0.00293114
0.00292433
0.00291737
0.00291029
0.00290306
0.0028957
0.00288819
0.00288054
0.00287274
0.0028648
0.00285671
0.00284847
0.00284007
0.00283152
0.00282281
0.00281393
0.0028049
0.00279569
0.00278632
0.00277677
0.00276705
0.00275715
0.00274706
0.00273679
0.00272633
0.00271568
0.00270484
0.00269379
0.00268254
0.00267109
0.00265942
0.00264754
0.00263545
0.00262314
0.0026106
0.00259783
0.00258484
0.00257161
0.00255814
0.00254443
0.00253047
0.00251627
0.00250181
0.0024871
0.00247213
0.00245689
0.00244138
0.00242561
0.00240956
0.00239323
0.00237661
0.00235971
0.00234252
0.00232503
0.00230724
0.00228915
0.00227074
0.00225202
0.00223298
0.00221361
0.00219391
0.00217386
0.00215347
0.00213272
0.0021116
0.00209011
0.00206824
0.00204596
0.00202328
0.00200017
0.00197662
0.00195261
0.00192812
0.00190312
0.0018776
0.00185152
0.00182484
0.00179753
0.00176953
0.00174079
0.00171122
0.00168072
0.00164912
0.00161631
0.00158227
0.0015469
0.00151005
0.00147149
0.00143097
0.00138812
0.00134242
0.00129315
0.00123908
0.00117817
0.00110941
0.00102991
0.000934829
0.000815416
0.000654005
0.000410417
5.51359e-05
9.41707e-05
0.000860528
0.00153044
0.00203199
0.00242644
0.00275325
0.0030337
0.00328009
0.00349989
0.00369831
0.00387909
0.00404494
0.00419793
0.00433969
0.0044715
0.00459443
0.00470936
0.00481701
0.00491803
0.00501297
0.00510229
0.00518643
0.00526574
0.00534058
0.00541123
0.00547796
0.00554101
0.00560061
0.00565696
0.00571024
0.00576062
0.00580825
0.00585328
0.00589585
0.00593607
0.00597405
0.0060099
0.00604373
0.00607561
0.00610563
0.00613386
0.00616036
0.00618517
0.00620827
0.00622962
0.00624943
0.00626783
0.00628494
0.00630082
0.00631555
0.00632917
0.00634174
0.00635331
0.00636391
0.00637359
0.00638238
0.00639032
0.00639744
0.00640378
0.00640936
0.00641422
0.00641837
0.00642185
0.00642468
0.00642689
0.00642849
0.00642952
0.00642998
0.00642991
0.00642931
0.00642821
0.00642661
0.00642455
0.00642203
0.00641906
0.00641567
0.00641185
0.00640763
0.00640301
0.00639801
0.00639262
0.00638687
0.00638076
0.00637429
0.00636747
0.00636031
0.00635281
0.00634498
0.00633682
0.00632834
0.00631953
0.0063104
0.00630095
0.00629118
0.0062811
0.0062707
0.00625998
0.00624895
0.0062376
0.00622593
0.00621394
0.00620162
0.00618898
0.00617602
0.00616272
0.00614909
0.00613513
0.00612082
0.00610616
0.00609116
0.0060758
0.00606009
0.006044
0.00602755
0.00601073
0.00599352
0.00597593
0.00595794
0.00593955
0.00592076
0.00590156
0.00588193
0.00586189
0.0058414
0.00582048
0.00579911
0.00577729
0.005755
0.00573224
0.00570901
0.00568529
0.00566108
0.00563636
0.00561114
0.0055854
0.00555913
0.00553233
0.00550499
0.00547709
0.00544864
0.00541961
0.00539001
0.00535982
0.00532903
0.00529764
0.00526563
0.00523299
0.00519972
0.0051658
0.00513122
0.00509597
0.00506004
0.00502341
0.00498607
0.00494802
0.00490922
0.00486967
0.00482935
0.00478824
0.00474632
0.00470358
0.00465998
0.00461551
0.00457014
0.00452384
0.00447658
0.00442832
0.00437902
0.00432865
0.00427715
0.00422448
0.00417057
0.00411536
0.00405876
0.00400071
0.00394108
0.00387977
0.00381665
0.00375154
0.00368425
0.00361454
0.00354211
0.00346668
0.00338797
0.0033056
0.00321903
0.00312763
0.0030306
0.00292684
0.00281493
0.00269291
0.00255797
0.00240617
0.00223321
0.00203211
0.00179207
0.00149594
0.00111592
0.000611612
6.70486e-05
9.4171e-05
0.00086054
0.00153047
0.00203202
0.00242647
0.00275328
0.00303373
0.00328012
0.00349992
0.00369834
0.00387912
0.00404496
0.00419796
0.00433971
0.00447153
0.00459446
0.00470938
0.00481703
0.00491805
0.00501299
0.00510231
0.00518644
0.00526576
0.0053406
0.00541124
0.00547797
0.00554102
0.00560062
0.00565697
0.00571025
0.00576063
0.00580826
0.0058533
0.00589586
0.00593608
0.00597406
0.00600991
0.00604374
0.00607562
0.00610564
0.00613387
0.00616037
0.00618518
0.00620828
0.00622962
0.00624943
0.00626784
0.00628495
0.00630083
0.00631555
0.00632917
0.00634174
0.00635331
0.00636391
0.00637359
0.00638238
0.00639033
0.00639745
0.00640379
0.00640937
0.00641422
0.00641837
0.00642185
0.00642469
0.00642689
0.0064285
0.00642952
0.00642999
0.00642991
0.00642931
0.00642821
0.00642662
0.00642455
0.00642203
0.00641907
0.00641567
0.00641186
0.00640763
0.00640302
0.00639801
0.00639263
0.00638687
0.00638076
0.00637429
0.00636747
0.00636031
0.00635281
0.00634498
0.00633682
0.00632834
0.00631953
0.0063104
0.00630095
0.00629118
0.0062811
0.0062707
0.00625998
0.00624895
0.0062376
0.00622593
0.00621394
0.00620162
0.00618899
0.00617602
0.00616272
0.00614909
0.00613513
0.00612082
0.00610617
0.00609116
0.0060758
0.00606009
0.00604401
0.00602756
0.00601073
0.00599352
0.00597593
0.00595794
0.00593955
0.00592076
0.00590156
0.00588194
0.00586189
0.0058414
0.00582048
0.00579911
0.00577729
0.005755
0.00573224
0.00570901
0.00568529
0.00566108
0.00563636
0.00561114
0.0055854
0.00555913
0.00553233
0.00550499
0.00547709
0.00544864
0.00541961
0.00539001
0.00535982
0.00532903
0.00529764
0.00526563
0.00523299
0.00519972
0.0051658
0.00513122
0.00509597
0.00506004
0.00502341
0.00498607
0.00494802
0.00490922
0.00486967
0.00482935
0.00478824
0.00474632
0.00470358
0.00465998
0.00461551
0.00457014
0.00452384
0.00447658
0.00442832
0.00437902
0.00432865
0.00427715
0.00422448
0.00417057
0.00411536
0.00405876
0.00400071
0.00394108
0.00387977
0.00381665
0.00375154
0.00368425
0.00361454
0.00354211
0.00346668
0.00338797
0.0033056
0.00321903
0.00312763
0.0030306
0.00292684
0.00281493
0.00269291
0.00255797
0.00240617
0.00223321
0.00203211
0.00179207
0.00149594
0.00111591
0.000611607
6.70497e-05
0.000106674
0.00103935
0.00195509
0.00268196
0.00327504
0.00377528
0.00420835
0.00459059
0.00493278
0.00524242
0.0055249
0.00578427
0.00602361
0.00624536
0.00645147
0.00664356
0.00682298
0.00699087
0.00714823
0.00729592
0.00743469
0.00756523
0.00768813
0.00780394
0.00791315
0.00801621
0.00811351
0.00820543
0.00829231
0.00837445
0.00845214
0.00852563
0.00859518
0.008661
0.00872329
0.00878224
0.00883802
0.0088908
0.00894071
0.00898789
0.00903246
0.00907452
0.00911414
0.00915138
0.00918628
0.00921903
0.00924976
0.0092786
0.00930566
0.00933102
0.00935478
0.00937701
0.00939777
0.00941713
0.00943514
0.00945186
0.00946734
0.00948163
0.00949476
0.0095068
0.00951776
0.0095277
0.00953665
0.00954464
0.00955171
0.00955788
0.00956319
0.00956767
0.00957133
0.00957421
0.00957633
0.00957771
0.00957837
0.00957834
0.00957763
0.00957625
0.00957423
0.00957158
0.00956832
0.00956445
0.00955999
0.00955495
0.00954934
0.00954318
0.00953646
0.00952919
0.00952139
0.00951306
0.0095042
0.00949482
0.00948492
0.00947451
0.00946358
0.00945213
0.00944018
0.00942772
0.00941474
0.00940125
0.00938725
0.00937273
0.00935769
0.00934213
0.00932604
0.00930942
0.00929227
0.00927458
0.00925634
0.00923756
0.00921821
0.00919831
0.00917783
0.00915677
0.00913513
0.00911289
0.00909005
0.0090666
0.00904253
0.00901784
0.0089925
0.00896651
0.00893986
0.00891255
0.00888455
0.00885586
0.00882647
0.00879637
0.00876554
0.00873398
0.00870167
0.00866859
0.00863474
0.00860011
0.00856467
0.00852842
0.00849135
0.00845344
0.00841467
0.00837504
0.00833452
0.0082931
0.00825077
0.00820752
0.00816332
0.00811816
0.00807202
0.00802488
0.00797673
0.00792755
0.00787731
0.00782601
0.0077736
0.00772008
0.00766542
0.0076096
0.00755258
0.00749434
0.00743485
0.00737408
0.007312
0.00724856
0.00718373
0.00711747
0.00704973
0.00698046
0.00690961
0.00683712
0.00676292
0.00668694
0.00660911
0.00652933
0.00644751
0.00636353
0.00627728
0.00618861
0.00609737
0.00600337
0.0059064
0.00580622
0.00570254
0.00559503
0.00548327
0.00536682
0.00524515
0.00511767
0.00498362
0.00484209
0.00469193
0.00453166
0.00435942
0.00417281
0.0039687
0.00374291
0.00348989
0.00320243
0.00287101
0.00248173
0.00201496
0.00144411
0.000745025
7.63448e-05
0.000106674
0.00103936
0.00195511
0.00268199
0.00327508
0.00377533
0.0042084
0.00459064
0.00493283
0.00524246
0.00552494
0.00578431
0.00602365
0.0062454
0.00645151
0.0066436
0.00682301
0.0069909
0.00714826
0.00729594
0.00743472
0.00756525
0.00768815
0.00780397
0.00791318
0.00801623
0.00811353
0.00820545
0.00829233
0.00837447
0.00845215
0.00852565
0.0085952
0.00866101
0.0087233
0.00878225
0.00883803
0.00889081
0.00894072
0.0089879
0.00903247
0.00907453
0.00911415
0.00915139
0.00918629
0.00921904
0.00924977
0.00927861
0.00930566
0.00933103
0.00935479
0.00937701
0.00939777
0.00941713
0.00943514
0.00945186
0.00946734
0.00948163
0.00949477
0.0095068
0.00951776
0.0095277
0.00953665
0.00954464
0.00955171
0.00955788
0.00956319
0.00956767
0.00957133
0.00957421
0.00957633
0.00957771
0.00957837
0.00957834
0.00957762
0.00957625
0.00957423
0.00957158
0.00956831
0.00956445
0.00955999
0.00955495
0.00954934
0.00954318
0.00953646
0.00952919
0.00952139
0.00951306
0.0095042
0.00949482
0.00948492
0.0094745
0.00946357
0.00945213
0.00944018
0.00942771
0.00941474
0.00940125
0.00938724
0.00937272
0.00935769
0.00934212
0.00932604
0.00930942
0.00929227
0.00927458
0.00925634
0.00923756
0.00921821
0.0091983
0.00917783
0.00915677
0.00913513
0.00911289
0.00909005
0.0090666
0.00904253
0.00901783
0.00899249
0.00896651
0.00893986
0.00891254
0.00888455
0.00885586
0.00882647
0.00879637
0.00876554
0.00873398
0.00870166
0.00866859
0.00863474
0.0086001
0.00856467
0.00852842
0.00849135
0.00845343
0.00841467
0.00837503
0.00833451
0.0082931
0.00825077
0.00820752
0.00816331
0.00811815
0.00807201
0.00802488
0.00797673
0.00792755
0.00787731
0.007826
0.0077736
0.00772008
0.00766542
0.00760959
0.00755257
0.00749434
0.00743485
0.00737408
0.00731199
0.00724855
0.00718373
0.00711747
0.00704973
0.00698046
0.00690961
0.00683712
0.00676292
0.00668694
0.00660911
0.00652933
0.0064475
0.00636353
0.00627728
0.00618861
0.00609737
0.00600337
0.0059064
0.00580622
0.00570254
0.00559502
0.00548327
0.00536682
0.00524515
0.00511766
0.00498362
0.00484209
0.00469193
0.00453166
0.00435941
0.00417281
0.0039687
0.00374291
0.00348989
0.00320243
0.00287101
0.00248173
0.00201496
0.00144411
0.000745024
7.63452e-05
0.000116806
0.0011611
0.00225844
0.0031668
0.00392615
0.00457584
0.00514325
0.00564702
0.00610002
0.00651139
0.00688783
0.00723435
0.00755484
0.00785237
0.0081294
0.00838799
0.00862984
0.00885643
0.009069
0.00926868
0.00945645
0.00963317
0.00979965
0.0099566
0.0101047
0.0102444
0.0103765
0.0105013
0.0106193
0.0107309
0.0108366
0.0109367
0.0110314
0.0111212
0.0112063
0.011287
0.0113635
0.011436
0.0115047
0.0115699
0.0116316
0.0116901
0.0117454
0.0117977
0.0118471
0.0118937
0.0119377
0.0119793
0.0120186
0.0120556
0.0120906
0.0121236
0.0121546
0.0121839
0.0122114
0.0122372
0.0122614
0.0122841
0.0123052
0.012325
0.0123433
0.0123603
0.012376
0.0123905
0.0124038
0.0124159
0.0124268
0.0124367
0.0124455
0.0124533
0.0124601
0.0124659
0.0124707
0.0124746
0.0124776
0.0124798
0.0124811
0.0124815
0.0124811
0.0124799
0.0124779
0.0124751
0.0124716
0.0124672
0.0124622
0.0124564
0.0124498
0.0124426
0.0124346
0.0124259
0.0124165
0.0124064
0.0123955
0.012384
0.0123718
0.0123588
0.0123452
0.0123308
0.0123157
0.0123
0.0122835
0.0122662
0.0122483
0.0122296
0.0122102
0.01219
0.0121691
0.0121474
0.012125
0.0121017
0.0120777
0.0120529
0.0120273
0.0120008
0.0119736
0.0119455
0.0119165
0.0118867
0.0118559
0.0118243
0.0117918
0.0117584
0.011724
0.0116887
0.0116524
0.0116151
0.0115768
0.0115375
0.0114972
0.0114559
0.0114134
0.0113699
0.0113253
0.0112796
0.0112327
0.0111846
0.0111354
0.011085
0.0110334
0.0109805
0.0109263
0.0108709
0.0108141
0.0107561
0.0106966
0.0106358
0.0105735
0.0105098
0.0104446
0.010378
0.0103097
0.0102399
0.0101685
0.0100955
0.0100207
0.00994427
0.00986602
0.00978595
0.009704
0.00962011
0.00953423
0.00944629
0.00935622
0.00926395
0.00916939
0.00907245
0.00897303
0.00887103
0.00876632
0.00865878
0.00854824
0.00843455
0.00831752
0.00819694
0.00807257
0.00794413
0.00781132
0.00767377
0.00753106
0.00738271
0.00722814
0.0070667
0.0068976
0.00671994
0.00653261
0.00633427
0.00612327
0.00589754
0.00565452
0.00539097
0.00510276
0.00478459
0.00442976
0.0040295
0.00357281
0.00304497
0.00242706
0.00169718
0.000846817
8.3775e-05
0.000116807
0.00116111
0.00225846
0.00316684
0.0039262
0.00457589
0.0051433
0.00564708
0.00610007
0.00651145
0.00688788
0.0072344
0.00755489
0.00785241
0.00812945
0.00838804
0.00862989
0.00885647
0.00906904
0.00926872
0.00945648
0.00963321
0.00979969
0.00995663
0.0101047
0.0102445
0.0103765
0.0105013
0.0106193
0.010731
0.0108366
0.0109367
0.0110315
0.0111213
0.0112064
0.011287
0.0113635
0.011436
0.0115048
0.0115699
0.0116316
0.0116901
0.0117454
0.0117977
0.0118471
0.0118937
0.0119377
0.0119793
0.0120186
0.0120556
0.0120906
0.0121236
0.0121546
0.0121839
0.0122114
0.0122372
0.0122614
0.0122841
0.0123052
0.012325
0.0123433
0.0123603
0.012376
0.0123905
0.0124038
0.0124159
0.0124268
0.0124367
0.0124455
0.0124533
0.0124601
0.0124659
0.0124707
0.0124746
0.0124776
0.0124798
0.0124811
0.0124815
0.0124811
0.0124799
0.0124779
0.0124751
0.0124716
0.0124672
0.0124622
0.0124564
0.0124498
0.0124426
0.0124346
0.0124259
0.0124165
0.0124064
0.0123955
0.012384
0.0123718
0.0123588
0.0123452
0.0123308
0.0123157
0.0122999
0.0122834
0.0122662
0.0122483
0.0122296
0.0122102
0.01219
0.0121691
0.0121474
0.012125
0.0121017
0.0120777
0.0120529
0.0120273
0.0120008
0.0119736
0.0119455
0.0119165
0.0118866
0.0118559
0.0118243
0.0117918
0.0117584
0.011724
0.0116887
0.0116524
0.0116151
0.0115768
0.0115375
0.0114972
0.0114559
0.0114134
0.0113699
0.0113253
0.0112796
0.0112327
0.0111846
0.0111354
0.011085
0.0110334
0.0109805
0.0109263
0.0108709
0.0108141
0.0107561
0.0106966
0.0106358
0.0105735
0.0105098
0.0104446
0.010378
0.0103097
0.0102399
0.0101685
0.0100955
0.0100207
0.00994427
0.00986602
0.00978594
0.00970399
0.0096201
0.00953422
0.00944628
0.00935621
0.00926394
0.00916938
0.00907244
0.00897303
0.00887103
0.00876632
0.00865877
0.00854823
0.00843454
0.00831751
0.00819693
0.00807256
0.00794412
0.00781131
0.00767377
0.00753106
0.00738271
0.00722814
0.00706669
0.00689759
0.00671993
0.00653261
0.00633427
0.00612327
0.00589754
0.00565452
0.00539097
0.00510276
0.00478459
0.00442976
0.0040295
0.00357281
0.00304497
0.00242706
0.00169718
0.000846815
8.37751e-05
0.000125413
0.00125781
0.00249357
0.00354662
0.00444275
0.00521827
0.00590086
0.00651032
0.00706083
0.00756266
0.00802342
0.0084489
0.00884354
0.00921091
0.00955385
0.00987471
0.0101755
0.0104579
0.0107233
0.0109731
0.0112084
0.0114302
0.0116395
0.011837
0.0120236
0.0122
0.0123668
0.0125246
0.0126739
0.0128154
0.0129495
0.0130766
0.0131971
0.0133114
0.0134199
0.0135229
0.0136206
0.0137135
0.0138017
0.0138854
0.013965
0.0140405
0.0141122
0.0141802
0.0142446
0.0143058
0.0143638
0.0144188
0.0144709
0.0145204
0.0145673
0.0146117
0.0146538
0.0146936
0.0147314
0.014767
0.0148007
0.0148325
0.0148625
0.0148907
0.0149172
0.0149421
0.0149654
0.0149872
0.0150075
0.0150264
0.0150439
0.01506
0.0150748
0.0150884
0.0151008
0.0151119
0.0151219
0.0151307
0.0151384
0.015145
0.0151505
0.015155
0.0151585
0.015161
0.0151625
0.0151629
0.0151625
0.015161
0.0151587
0.0151554
0.0151512
0.015146
0.01514
0.0151331
0.0151252
0.0151165
0.0151068
0.0150963
0.0150849
0.0150726
0.0150594
0.0150453
0.0150303
0.0150143
0.0149975
0.0149798
0.0149611
0.0149415
0.014921
0.0148995
0.014877
0.0148536
0.0148292
0.0148038
0.0147775
0.0147501
0.0147217
0.0146922
0.0146617
0.0146301
0.0145974
0.0145636
0.0145287
0.0144927
0.0144555
0.0144172
0.0143776
0.0143369
0.0142949
0.0142517
0.0142072
0.0141614
0.0141143
0.0140658
0.014016
0.0139649
0.0139123
0.0138583
0.0138028
0.0137459
0.0136874
0.0136274
0.0135659
0.0135027
0.013438
0.0133715
0.0133034
0.0132336
0.013162
0.0130887
0.0130135
0.0129364
0.0128575
0.0127766
0.0126937
0.0126087
0.0125217
0.0124325
0.0123411
0.0122475
0.0121515
0.0120532
0.0119524
0.011849
0.0117431
0.0116344
0.0115229
0.0114086
0.0112912
0.0111706
0.0110468
0.0109196
0.0107888
0.0106542
0.0105156
0.0103729
0.0102257
0.0100737
0.00991674
0.00975434
0.0095861
0.00941154
0.00923011
0.00904117
0.00884398
0.00863765
0.00842118
0.00819336
0.00795274
0.0076976
0.00742582
0.00713483
0.00682148
0.00648184
0.00611108
0.00570314
0.00525049
0.00474365
0.0041709
0.0035181
0.00276813
0.0019042
0.000930455
9.00528e-05
0.000125413
0.00125782
0.00249359
0.00354666
0.00444279
0.00521832
0.00590091
0.00651038
0.00706089
0.00756272
0.00802348
0.00844895
0.0088436
0.00921096
0.0095539
0.00987477
0.0101755
0.0104579
0.0107234
0.0109732
0.0112085
0.0114303
0.0116395
0.0118371
0.0120236
0.0122
0.0123668
0.0125246
0.012674
0.0128155
0.0129495
0.0130766
0.0131971
0.0133114
0.0134199
0.0135229
0.0136207
0.0137135
0.0138017
0.0138854
0.013965
0.0140405
0.0141122
0.0141802
0.0142446
0.0143058
0.0143638
0.0144188
0.0144709
0.0145204
0.0145673
0.0146117
0.0146538
0.0146937
0.0147314
0.014767
0.0148007
0.0148325
0.0148625
0.0148907
0.0149172
0.0149421
0.0149654
0.0149872
0.0150075
0.0150264
0.0150439
0.01506
0.0150748
0.0150884
0.0151008
0.0151119
0.0151219
0.0151307
0.0151384
0.015145
0.0151505
0.015155
0.0151585
0.015161
0.0151624
0.0151629
0.0151625
0.015161
0.0151587
0.0151554
0.0151512
0.015146
0.01514
0.0151331
0.0151252
0.0151165
0.0151068
0.0150963
0.0150849
0.0150726
0.0150594
0.0150453
0.0150303
0.0150143
0.0149975
0.0149798
0.0149611
0.0149415
0.014921
0.0148995
0.014877
0.0148536
0.0148292
0.0148038
0.0147775
0.0147501
0.0147216
0.0146922
0.0146617
0.0146301
0.0145974
0.0145636
0.0145287
0.0144927
0.0144555
0.0144172
0.0143776
0.0143369
0.0142949
0.0142516
0.0142071
0.0141614
0.0141143
0.0140658
0.014016
0.0139648
0.0139123
0.0138583
0.0138028
0.0137459
0.0136874
0.0136274
0.0135659
0.0135027
0.013438
0.0133715
0.0133034
0.0132336
0.013162
0.0130887
0.0130135
0.0129364
0.0128575
0.0127766
0.0126937
0.0126087
0.0125217
0.0124325
0.0123411
0.0122475
0.0121515
0.0120532
0.0119524
0.011849
0.0117431
0.0116344
0.0115229
0.0114086
0.0112912
0.0111706
0.0110468
0.0109196
0.0107888
0.0106542
0.0105156
0.0103729
0.0102257
0.0100737
0.00991673
0.00975433
0.00958609
0.00941153
0.00923011
0.00904117
0.00884397
0.00863765
0.00842118
0.00819335
0.00795274
0.00769759
0.00742582
0.00713483
0.00682147
0.00648184
0.00611108
0.00570314
0.00525049
0.00474365
0.0041709
0.0035181
0.00276813
0.0019042
0.000930452
9.00528e-05
0.00013304
0.00134062
0.00268761
0.00385767
0.0048665
0.00574751
0.00652804
0.00722849
0.00786381
0.00844506
0.00898051
0.0094765
0.00993792
0.0103687
0.0107719
0.0111502
0.0115057
0.0118402
0.0121555
0.0124528
0.0127335
0.0129986
0.0132492
0.0134862
0.0137105
0.0139228
0.0141239
0.0143144
0.014495
0.0146663
0.0148288
0.0149831
0.0151296
0.0152687
0.0154009
0.0155266
0.015646
0.0157596
0.0158677
0.0159705
0.0160683
0.0161614
0.0162499
0.0163341
0.0164141
0.0164903
0.0165627
0.0166316
0.0166971
0.0167594
0.0168187
0.0168751
0.0169287
0.0169797
0.0170282
0.0170742
0.0171179
0.0171593
0.0171986
0.0172358
0.017271
0.0173043
0.0173358
0.0173654
0.0173933
0.0174195
0.0174441
0.0174671
0.0174885
0.0175085
0.017527
0.0175441
0.0175597
0.0175741
0.0175871
0.0175988
0.0176093
0.0176185
0.0176265
0.0176333
0.0176389
0.0176434
0.0176467
0.0176489
0.0176499
0.0176498
0.0176487
0.0176464
0.017643
0.0176386
0.0176331
0.0176265
0.0176188
0.0176101
0.0176002
0.0175893
0.0175774
0.0175643
0.0175501
0.0175349
0.0175186
0.0175011
0.0174825
0.0174629
0.017442
0.0174201
0.0173969
0.0173727
0.0173472
0.0173205
0.0172926
0.0172635
0.0172332
0.0172016
0.0171687
0.0171345
0.0170991
0.0170622
0.0170241
0.0169845
0.0169436
0.0169012
0.0168575
0.0168122
0.0167655
0.0167172
0.0166674
0.0166161
0.0165631
0.0165085
0.0164523
0.0163945
0.0163349
0.0162735
0.0162104
0.0161456
0.0160788
0.0160102
0.0159397
0.0158673
0.0157929
0.0157164
0.0156379
0.0155573
0.0154746
0.0153896
0.0153025
0.015213
0.0151212
0.015027
0.0149303
0.0148312
0.0147294
0.014625
0.0145179
0.014408
0.0142953
0.0141795
0.0140608
0.0139389
0.0138137
0.0136852
0.0135532
0.0134176
0.0132782
0.0131349
0.0129875
0.0128359
0.0126798
0.0125189
0.0123531
0.0121821
0.0120055
0.011823
0.0116341
0.0114385
0.0112356
0.0110248
0.0108054
0.0105766
0.0103376
0.0100872
0.00982417
0.00954708
0.00925417
0.00894336
0.00861214
0.00825753
0.00787587
0.00746275
0.00701278
0.00651942
0.00597468
0.00536885
0.00469026
0.00392549
0.00305957
0.0020804
0.0010022
9.55473e-05
0.000133041
0.00134063
0.00268763
0.00385771
0.00486655
0.00574756
0.0065281
0.00722855
0.00786387
0.00844512
0.00898058
0.00947656
0.00993798
0.0103687
0.0107719
0.0111502
0.0115057
0.0118403
0.0121556
0.0124529
0.0127336
0.0129987
0.0132493
0.0134863
0.0137105
0.0139228
0.0141239
0.0143144
0.014495
0.0146663
0.0148289
0.0149831
0.0151296
0.0152687
0.0154009
0.0155266
0.015646
0.0157597
0.0158677
0.0159705
0.0160683
0.0161614
0.0162499
0.0163341
0.0164142
0.0164903
0.0165627
0.0166316
0.0166971
0.0167595
0.0168187
0.0168751
0.0169288
0.0169797
0.0170282
0.0170742
0.0171179
0.0171593
0.0171986
0.0172358
0.017271
0.0173043
0.0173358
0.0173654
0.0173933
0.0174195
0.0174441
0.0174671
0.0174885
0.0175085
0.017527
0.0175441
0.0175597
0.0175741
0.0175871
0.0175988
0.0176093
0.0176185
0.0176265
0.0176333
0.0176389
0.0176434
0.0176467
0.0176489
0.0176499
0.0176498
0.0176487
0.0176464
0.017643
0.0176386
0.0176331
0.0176265
0.0176188
0.0176101
0.0176002
0.0175893
0.0175773
0.0175643
0.0175501
0.0175349
0.0175186
0.0175011
0.0174825
0.0174629
0.017442
0.0174201
0.0173969
0.0173727
0.0173472
0.0173205
0.0172926
0.0172635
0.0172332
0.0172016
0.0171687
0.0171345
0.0170991
0.0170622
0.0170241
0.0169845
0.0169436
0.0169012
0.0168574
0.0168122
0.0167655
0.0167172