/*--------------------------------*- C++ -*----------------------------------*\
  =========                 |
  \\      /  F ield         | OpenFOAM: The Open Source CFD Toolbox
   \\    /   O peration     | Website:  https://openfoam.org
    \\  /    A nd           | Version:  8
     \\/     M anipulation  |
\*---------------------------------------------------------------------------*/
FoamFile
{
    version     2.0;
    format      ascii;
    class       volScalarField;
    location    "2600";
    object      alphat;
}
// * * * * * * * * * * * * * * * * * * * * * * * * * * * * * * * * * * * * * //

dimensions      [1 -1 -1 0 0 0 0];

internalField   nonuniform List<scalar> 
46000
(
3.1337e-07
1.52445e-06
3.0326e-06
4.4769e-06
5.85407e-06
7.19386e-06
8.50465e-06
9.79227e-06
1.10631e-05
1.23212e-05
1.35746e-05
1.48151e-05
1.6048e-05
1.72746e-05
1.84952e-05
1.97096e-05
2.09174e-05
2.21181e-05
2.3311e-05
2.4495e-05
2.56694e-05
2.68328e-05
2.79842e-05
2.91223e-05
3.02457e-05
3.13531e-05
3.24431e-05
3.35141e-05
3.45649e-05
3.55938e-05
3.65993e-05
3.75801e-05
3.85344e-05
3.9461e-05
4.03583e-05
4.1225e-05
4.20596e-05
4.28607e-05
4.36272e-05
4.43578e-05
4.50513e-05
4.57067e-05
4.63229e-05
4.6899e-05
4.74341e-05
4.79277e-05
4.83789e-05
4.87874e-05
4.91525e-05
4.94742e-05
4.9752e-05
4.99861e-05
5.01763e-05
5.03228e-05
5.04258e-05
5.04858e-05
5.05031e-05
5.04784e-05
5.04124e-05
5.03059e-05
5.01599e-05
4.99758e-05
4.97564e-05
4.95027e-05
4.92139e-05
4.8891e-05
4.85353e-05
4.81481e-05
4.77308e-05
4.72851e-05
4.68124e-05
4.63143e-05
4.57923e-05
4.52482e-05
4.46836e-05
4.41e-05
4.34991e-05
4.28826e-05
4.2252e-05
4.16089e-05
4.0955e-05
4.02917e-05
3.96206e-05
3.89432e-05
3.82608e-05
3.75749e-05
3.68868e-05
3.61978e-05
3.55092e-05
3.4822e-05
3.41375e-05
3.34568e-05
3.27807e-05
3.21103e-05
3.14465e-05
3.07901e-05
3.01419e-05
2.95025e-05
2.88726e-05
2.82528e-05
2.76437e-05
2.70457e-05
2.64592e-05
2.58846e-05
2.53222e-05
2.47723e-05
2.4235e-05
2.37106e-05
2.31992e-05
2.27008e-05
2.22155e-05
2.17432e-05
2.1284e-05
2.08377e-05
2.04043e-05
1.99836e-05
1.95754e-05
1.91796e-05
1.87958e-05
1.8424e-05
1.80637e-05
1.77148e-05
1.73769e-05
1.70497e-05
1.67328e-05
1.6426e-05
1.61288e-05
1.58408e-05
1.55618e-05
1.52912e-05
1.50288e-05
1.47741e-05
1.45266e-05
1.42862e-05
1.4052e-05
1.38241e-05
1.36022e-05
1.33855e-05
1.31736e-05
1.29661e-05
1.27626e-05
1.25626e-05
1.23657e-05
1.21716e-05
1.19797e-05
1.17898e-05
1.16014e-05
1.14141e-05
1.12276e-05
1.10415e-05
1.08555e-05
1.06693e-05
1.04824e-05
1.02947e-05
1.01059e-05
9.91564e-06
9.72373e-06
9.52997e-06
9.33413e-06
9.13606e-06
8.93559e-06
8.7326e-06
8.52696e-06
8.31865e-06
8.10887e-06
7.89724e-06
7.6831e-06
7.46637e-06
7.24708e-06
7.02533e-06
6.80124e-06
6.57493e-06
6.3466e-06
6.11641e-06
5.88458e-06
5.65133e-06
5.4169e-06
5.18154e-06
4.9455e-06
4.70904e-06
4.47242e-06
4.23589e-06
3.9997e-06
3.76408e-06
3.52921e-06
3.29525e-06
3.06202e-06
2.82946e-06
2.59864e-06
2.36858e-06
2.1391e-06
1.90984e-06
1.67982e-06
1.44799e-06
1.21624e-06
9.79967e-07
7.35274e-07
4.79922e-07
2.24979e-07
4.29188e-08
3.13389e-07
1.52453e-06
3.03273e-06
4.47704e-06
5.85422e-06
7.19401e-06
8.5048e-06
9.79242e-06
1.10633e-05
1.23214e-05
1.35748e-05
1.48152e-05
1.60482e-05
1.72748e-05
1.84953e-05
1.97097e-05
2.09176e-05
2.21183e-05
2.33111e-05
2.44952e-05
2.56695e-05
2.68329e-05
2.79843e-05
2.91224e-05
3.02458e-05
3.13532e-05
3.24431e-05
3.35142e-05
3.4565e-05
3.55939e-05
3.65994e-05
3.75801e-05
3.85345e-05
3.94611e-05
4.03584e-05
4.1225e-05
4.20596e-05
4.28608e-05
4.36273e-05
4.43579e-05
4.50514e-05
4.57067e-05
4.63229e-05
4.6899e-05
4.74342e-05
4.79277e-05
4.83789e-05
4.87874e-05
4.91526e-05
4.94742e-05
4.9752e-05
4.99861e-05
5.01763e-05
5.03227e-05
5.04258e-05
5.04858e-05
5.05031e-05
5.04784e-05
5.04124e-05
5.03059e-05
5.01599e-05
4.99758e-05
4.97564e-05
4.95027e-05
4.92139e-05
4.8891e-05
4.85353e-05
4.8148e-05
4.77308e-05
4.72851e-05
4.68123e-05
4.63142e-05
4.57923e-05
4.52482e-05
4.46835e-05
4.40999e-05
4.34991e-05
4.28825e-05
4.22519e-05
4.16089e-05
4.09549e-05
4.02917e-05
3.96206e-05
3.89431e-05
3.82608e-05
3.75749e-05
3.68868e-05
3.61978e-05
3.55091e-05
3.4822e-05
3.41375e-05
3.34567e-05
3.27807e-05
3.21103e-05
3.14465e-05
3.07901e-05
3.01418e-05
2.95024e-05
2.88726e-05
2.82528e-05
2.76437e-05
2.70456e-05
2.64591e-05
2.58846e-05
2.53222e-05
2.47722e-05
2.4235e-05
2.37106e-05
2.31991e-05
2.27007e-05
2.22154e-05
2.17432e-05
2.12839e-05
2.08377e-05
2.04043e-05
1.99835e-05
1.95754e-05
1.91795e-05
1.87958e-05
1.84239e-05
1.80637e-05
1.77148e-05
1.73768e-05
1.70496e-05
1.67328e-05
1.64259e-05
1.61287e-05
1.58408e-05
1.55617e-05
1.52912e-05
1.50287e-05
1.4774e-05
1.45266e-05
1.42861e-05
1.4052e-05
1.38241e-05
1.36021e-05
1.33854e-05
1.31736e-05
1.29661e-05
1.27625e-05
1.25625e-05
1.23657e-05
1.21715e-05
1.19797e-05
1.17897e-05
1.16013e-05
1.1414e-05
1.12275e-05
1.10415e-05
1.08555e-05
1.06692e-05
1.04824e-05
1.02947e-05
1.01058e-05
9.91559e-06
9.72369e-06
9.52992e-06
9.33409e-06
9.13602e-06
8.93555e-06
8.73256e-06
8.52692e-06
8.31861e-06
8.10884e-06
7.8972e-06
7.68307e-06
7.46634e-06
7.24705e-06
7.0253e-06
6.80121e-06
6.57491e-06
6.34657e-06
6.11638e-06
5.88456e-06
5.65131e-06
5.41688e-06
5.18152e-06
4.94548e-06
4.70902e-06
4.4724e-06
4.23588e-06
3.99969e-06
3.76406e-06
3.5292e-06
3.29524e-06
3.06201e-06
2.82945e-06
2.59863e-06
2.36857e-06
2.13909e-06
1.90984e-06
1.67982e-06
1.44799e-06
1.21624e-06
9.79968e-07
7.35276e-07
4.79923e-07
2.2498e-07
4.2919e-08
1.39323e-06
2.72872e-05
4.9989e-05
6.54595e-05
7.73086e-05
8.70056e-05
9.53123e-05
0.000102701
0.000109428
0.000115648
0.000121464
0.00012696
0.000132185
0.000137173
0.000141954
0.000146549
0.000150977
0.00015525
0.000159381
0.000163378
0.000167248
0.000170997
0.00017463
0.000178151
0.000181563
0.000184868
0.000188068
0.000191165
0.00019416
0.000197053
0.000199846
0.000202538
0.000205129
0.00020762
0.00021001
0.000212299
0.000214487
0.000216574
0.000218558
0.000220441
0.00022222
0.000223896
0.000225468
0.000226937
0.000228301
0.000229561
0.000230717
0.000231768
0.000232715
0.000233558
0.000234297
0.000234933
0.000235465
0.000235896
0.000236225
0.000236453
0.000236582
0.000236613
0.000236546
0.000236383
0.000236125
0.000235772
0.000235321
0.000234776
0.000234144
0.000233426
0.000232627
0.000231749
0.000230795
0.000229767
0.000228669
0.000227502
0.00022627
0.000224975
0.000223622
0.000222212
0.000220749
0.000219235
0.000217675
0.00021607
0.000214424
0.000212741
0.000211022
0.000209272
0.000207493
0.000205688
0.00020386
0.000202013
0.000200148
0.00019827
0.000196379
0.00019448
0.000192575
0.000190666
0.000188757
0.000186848
0.000184943
0.000183044
0.000181153
0.000179272
0.000177403
0.000175547
0.000173707
0.000171885
0.000170081
0.000168298
0.000166535
0.000164796
0.000163081
0.000161391
0.000159726
0.000158088
0.000156478
0.000154895
0.000153341
0.000151816
0.000150319
0.000148852
0.000147414
0.000146006
0.000144626
0.000143276
0.000141954
0.000140659
0.000139393
0.000138153
0.00013694
0.000135752
0.000134589
0.000133449
0.000132332
0.000131237
0.000130163
0.000129109
0.000128073
0.000127054
0.00012605
0.000125059
0.000124081
0.000123113
0.000122155
0.000121203
0.000120258
0.000119316
0.000118377
0.000117439
0.0001165
0.000115558
0.000114611
0.000113658
0.000112698
0.000111727
0.000110746
0.000109751
0.000108742
0.000107717
0.000106674
0.000105612
0.000104529
0.000103424
0.000102295
0.000101141
9.99601e-05
9.87476e-05
9.7493e-05
9.62058e-05
9.48857e-05
9.35325e-05
9.21456e-05
9.07244e-05
8.92681e-05
8.7776e-05
8.62473e-05
8.46813e-05
8.30771e-05
8.14337e-05
7.97501e-05
7.80252e-05
7.62576e-05
7.44457e-05
7.25875e-05
7.06807e-05
6.87223e-05
6.67087e-05
6.46354e-05
6.2497e-05
6.02871e-05
5.79961e-05
5.56057e-05
5.30976e-05
5.04465e-05
4.76147e-05
4.4542e-05
4.11276e-05
3.71584e-05
3.2536e-05
2.68914e-05
1.94936e-05
9.00488e-06
2.00372e-07
1.39331e-06
2.72894e-05
4.99924e-05
6.54633e-05
7.73125e-05
8.70095e-05
9.53163e-05
0.000102705
0.000109433
0.000115652
0.000121468
0.000126965
0.000132189
0.000137177
0.000141958
0.000146554
0.000150981
0.000155255
0.000159386
0.000163382
0.000167252
0.000171002
0.000174635
0.000178156
0.000181568
0.000184873
0.000188073
0.00019117
0.000194165
0.000197059
0.000199851
0.000202543
0.000205135
0.000207626
0.000210016
0.000212305
0.000214493
0.00021658
0.000218565
0.000220447
0.000222226
0.000223902
0.000225474
0.000226943
0.000228307
0.000229568
0.000230723
0.000231775
0.000232722
0.000233564
0.000234303
0.000234939
0.000235472
0.000235902
0.000236231
0.00023646
0.000236589
0.000236619
0.000236553
0.00023639
0.000236131
0.000235778
0.000235327
0.000234782
0.00023415
0.000233432
0.000232633
0.000231755
0.000230801
0.000229773
0.000228674
0.000227507
0.000226275
0.000224981
0.000223627
0.000222217
0.000220754
0.000219241
0.00021768
0.000216075
0.000214429
0.000212746
0.000211027
0.000209277
0.000207498
0.000205693
0.000203865
0.000202018
0.000200153
0.000198274
0.000196384
0.000194485
0.000192579
0.000190671
0.000188761
0.000186852
0.000184947
0.000183048
0.000181157
0.000179275
0.000177406
0.000175551
0.000173711
0.000171888
0.000170084
0.000168301
0.000166539
0.000164799
0.000163084
0.000161393
0.000159729
0.000158091
0.00015648
0.000154898
0.000153344
0.000151818
0.000150322
0.000148855
0.000147417
0.000146008
0.000144628
0.000143278
0.000141956
0.000140661
0.000139395
0.000138155
0.000136942
0.000135754
0.00013459
0.000133451
0.000132334
0.000131239
0.000130164
0.00012911
0.000128074
0.000127055
0.000126051
0.000125061
0.000124082
0.000123114
0.000122155
0.000121204
0.000120259
0.000119317
0.000118378
0.00011744
0.0001165
0.000115558
0.000114612
0.000113659
0.000112698
0.000111728
0.000110746
0.000109752
0.000108742
0.000107717
0.000106674
0.000105612
0.000104529
0.000103424
0.000102295
0.000101141
9.99602e-05
9.87477e-05
9.74932e-05
9.62059e-05
9.48858e-05
9.35326e-05
9.21457e-05
9.07244e-05
8.92681e-05
8.7776e-05
8.62474e-05
8.46814e-05
8.30771e-05
8.14337e-05
7.97502e-05
7.80253e-05
7.62577e-05
7.44457e-05
7.25875e-05
7.06807e-05
6.87223e-05
6.67087e-05
6.46355e-05
6.2497e-05
6.02872e-05
5.79962e-05
5.56058e-05
5.30977e-05
5.04466e-05
4.76148e-05
4.45422e-05
4.11277e-05
3.71584e-05
3.2536e-05
2.68915e-05
1.94936e-05
9.00484e-06
2.00372e-07
2.83012e-06
4.85908e-05
9.76644e-05
0.000134131
0.000162247
0.000184932
0.00020398
0.000220482
0.000235125
0.000248355
0.000260473
0.000271696
0.000282176
0.000292025
0.000301328
0.000310153
0.00031855
0.000326564
0.000334228
0.000341569
0.00034861
0.000355371
0.000361868
0.000368113
0.000374117
0.000379892
0.000385444
0.000390781
0.000395908
0.000400831
0.000405554
0.000410081
0.000414416
0.00041856
0.000422518
0.000426291
0.000429881
0.00043329
0.00043652
0.000439572
0.000442447
0.000445147
0.000447673
0.000450027
0.000452209
0.00045422
0.000456063
0.000457738
0.000459246
0.000460589
0.000461768
0.000462785
0.000463641
0.000464337
0.000464876
0.00046526
0.000465489
0.000465566
0.000465493
0.00046527
0.0004649
0.000464381
0.000463714
0.000462901
0.00046195
0.000460866
0.000459655
0.000458321
0.000456867
0.000455297
0.000453616
0.000451827
0.000449934
0.000447941
0.000445853
0.000443673
0.000441406
0.000439055
0.000436626
0.000434122
0.000431549
0.000428909
0.000426208
0.000423449
0.000420638
0.000417779
0.000414875
0.000411931
0.000408952
0.000405942
0.000402904
0.000399843
0.000396763
0.000393667
0.00039056
0.000387446
0.000384327
0.000381208
0.000378092
0.000374983
0.000371882
0.000368795
0.000365723
0.000362669
0.000359636
0.000356626
0.000353643
0.000350687
0.000347762
0.000344868
0.000342008
0.000339184
0.000336396
0.000333645
0.000330934
0.000328262
0.00032563
0.000323039
0.000320489
0.000317981
0.000315513
0.000313087
0.000310701
0.000308355
0.000306049
0.00030378
0.00030155
0.000299355
0.000297196
0.000295071
0.000292977
0.000290915
0.000288882
0.000286876
0.000284894
0.000282933
0.000280991
0.000279065
0.000277153
0.000275252
0.00027336
0.000271474
0.000269591
0.000267708
0.000265822
0.000263931
0.00026203
0.000260118
0.000258191
0.000256247
0.000254281
0.000252292
0.000250277
0.000248232
0.000246155
0.000244043
0.000241894
0.000239704
0.000237471
0.000235193
0.000232866
0.000230488
0.000228053
0.000225557
0.000222989
0.000220353
0.000217649
0.000214877
0.000212037
0.000209126
0.000206143
0.000203085
0.000199951
0.000196736
0.000193439
0.000190055
0.00018658
0.000183009
0.000179338
0.000175559
0.000171665
0.000167646
0.000163493
0.00015919
0.000154723
0.000150071
0.000145208
0.0001401
0.0001347
0.000128948
0.000122757
0.000116
0.0001085
9.99904e-05
9.00441e-05
7.80996e-05
6.3267e-05
4.39786e-05
1.87279e-05
4.33513e-07
2.83024e-06
4.8594e-05
9.7671e-05
0.000134139
0.000162256
0.000184941
0.000203989
0.000220491
0.000235134
0.000248364
0.000260482
0.000271705
0.000282185
0.000292034
0.000301337
0.000310162
0.00031856
0.000326573
0.000334237
0.000341578
0.000348619
0.00035538
0.000361877
0.000368122
0.000374127
0.000379901
0.000385453
0.00039079
0.000395917
0.00040084
0.000405563
0.00041009
0.000414425
0.00041857
0.000422528
0.000426301
0.000429891
0.0004333
0.000436529
0.000439581
0.000442456
0.000445157
0.000447683
0.000450036
0.000452218
0.00045423
0.000456073
0.000457747
0.000459255
0.000460598
0.000461777
0.000462794
0.00046365
0.000464347
0.000464886
0.000465269
0.000465498
0.000465575
0.000465502
0.000465279
0.000464909
0.00046439
0.000463722
0.000462909
0.000461958
0.000460875
0.000459664
0.000458329
0.000456875
0.000455305
0.000453624
0.000451835
0.000449942
0.000447949
0.00044586
0.00044368
0.000441413
0.000439063
0.000436633
0.000434129
0.000431555
0.000428915
0.000426214
0.000423456
0.000420644
0.000417785
0.000414881
0.000411937
0.000408958
0.000405947
0.000402909
0.000399848
0.000396768
0.000393673
0.000390566
0.000387451
0.000384332
0.000381213
0.000378097
0.000374987
0.000371887
0.000368799
0.000365727
0.000362673
0.00035964
0.00035663
0.000353646
0.000350691
0.000347765
0.000344871
0.000342011
0.000339187
0.000336398
0.000333648
0.000330936
0.000328264
0.000325632
0.000323041
0.000320491
0.000317983
0.000315515
0.000313089
0.000310703
0.000308357
0.00030605
0.000303782
0.000301551
0.000299357
0.000297197
0.000295072
0.000292978
0.000290916
0.000288883
0.000286877
0.000284895
0.000282934
0.000280992
0.000279066
0.000277153
0.000275253
0.000273361
0.000271474
0.000269591
0.000267708
0.000265822
0.00026393
0.00026203
0.000260118
0.000258191
0.000256246
0.000254281
0.000252292
0.000250276
0.000248232
0.000246155
0.000244043
0.000241893
0.000239703
0.000237471
0.000235192
0.000232865
0.000230487
0.000228052
0.000225556
0.000222988
0.000220352
0.000217648
0.000214876
0.000212036
0.000209125
0.000206142
0.000203085
0.00019995
0.000196735
0.000193438
0.000190054
0.000186579
0.000183008
0.000179337
0.000175558
0.000171664
0.000167646
0.000163492
0.00015919
0.000154723
0.00015007
0.000145207
0.000140099
0.0001347
0.000128948
0.000122756
0.000116
0.0001085
9.99904e-05
9.0044e-05
7.80996e-05
6.3267e-05
4.39786e-05
1.87278e-05
4.33513e-07
4.25491e-06
6.34335e-05
0.000132675
0.000188366
0.000233
0.000269726
0.000300779
0.00032766
0.000351389
0.000372673
0.000392011
0.000409768
0.000426212
0.000441543
0.000455917
0.000469455
0.000482254
0.000494391
0.000505929
0.000516919
0.000527404
0.00053742
0.000546996
0.000556157
0.000564927
0.000573322
0.000581359
0.000589052
0.000596412
0.000603452
0.000610179
0.000616603
0.00062273
0.000628567
0.000634122
0.000639398
0.000644401
0.000649135
0.000653606
0.000657817
0.000661772
0.000665474
0.000668926
0.000672134
0.000675098
0.000677823
0.000680311
0.000682566
0.000684591
0.000686387
0.00068796
0.00068931
0.000690442
0.000691358
0.000692061
0.000692554
0.00069284
0.000692922
0.000692803
0.000692484
0.000691968
0.000691257
0.000690352
0.000689256
0.000687977
0.000686522
0.000684898
0.000683108
0.00068116
0.000679057
0.000676805
0.00067441
0.000671876
0.000669208
0.000666412
0.000663493
0.000660455
0.000657306
0.000654049
0.000650691
0.000647237
0.000643692
0.000640062
0.000636352
0.000632569
0.000628717
0.000624803
0.00062083
0.000616806
0.000612736
0.000608624
0.000604476
0.000600297
0.000596093
0.000591868
0.000587627
0.000583375
0.000579117
0.000574858
0.000570601
0.00056635
0.000562111
0.000557887
0.000553681
0.000549498
0.000545339
0.00054121
0.000537112
0.000533049
0.000529022
0.000525035
0.000521089
0.000517186
0.000513328
0.000509516
0.000505751
0.000502035
0.000498367
0.000494749
0.00049118
0.00048766
0.000484189
0.000480767
0.000477393
0.000474065
0.000470783
0.000467545
0.00046435
0.000461196
0.000458081
0.000455004
0.000451962
0.000448952
0.000445971
0.000443015
0.00044008
0.000437164
0.000434262
0.000431373
0.000428491
0.000425613
0.000422736
0.000419856
0.000416968
0.000414069
0.000411155
0.000408222
0.000405265
0.000402281
0.000399266
0.000396215
0.000393125
0.000389992
0.000386813
0.000383583
0.000380298
0.000376956
0.000373553
0.000370085
0.000366548
0.000362938
0.000359252
0.000355484
0.000351627
0.000347673
0.000343622
0.000339474
0.000335225
0.000330874
0.000326418
0.000321854
0.000317177
0.000312382
0.000307464
0.000302418
0.000297234
0.000291906
0.000286423
0.000280775
0.000274947
0.000268925
0.00026269
0.00025622
0.000249488
0.000242462
0.000235102
0.000227356
0.000219161
0.000210429
0.000201048
0.000190864
0.000179664
0.000167154
0.000152911
0.000136327
0.000116556
9.24177e-05
6.22707e-05
2.57005e-05
6.77219e-07
4.25504e-06
6.3437e-05
0.000132683
0.000188377
0.000233013
0.00026974
0.000300793
0.000327674
0.000351403
0.000372687
0.000392025
0.000409782
0.000426225
0.000441556
0.00045593
0.000469469
0.000482268
0.000494405
0.000505942
0.000516932
0.000527417
0.000537433
0.000547009
0.00055617
0.00056494
0.000573335
0.000581372
0.000589065
0.000596425
0.000603465
0.000610192
0.000616615
0.000622742
0.00062858
0.000634134
0.00063941
0.000644413
0.000649148
0.000653619
0.000657829
0.000661784
0.000665486
0.000668939
0.000672146
0.00067511
0.000677835
0.000680323
0.000682578
0.000684602
0.000686399
0.000687971
0.000689321
0.000690453
0.000691369
0.000692072
0.000692565
0.000692851
0.000692933
0.000692814
0.000692495
0.000691979
0.000691267
0.000690362
0.000689266
0.000687987
0.000686532
0.000684907
0.000683118
0.000681169
0.000679066
0.000676815
0.000674419
0.000671885
0.000669217
0.00066642
0.000663501
0.000660464
0.000657314
0.000654057
0.000650699
0.000647244
0.000643699
0.000640069
0.000636359
0.000632576
0.000628724
0.000624809
0.000620837
0.000616812
0.000612742
0.000608629
0.000604481
0.000600302
0.000596098
0.000591873
0.000587632
0.00058338
0.000579122
0.000574862
0.000570605
0.000566355
0.000562115
0.000557891
0.000553685
0.000549501
0.000545343
0.000541213
0.000537115
0.000533052
0.000529025
0.000525038
0.000521092
0.000517189
0.00051333
0.000509518
0.000505753
0.000502037
0.000498369
0.00049475
0.000491181
0.000487661
0.00048419
0.000480768
0.000477394
0.000474066
0.000470784
0.000467546
0.000464351
0.000461197
0.000458082
0.000455004
0.000451962
0.000448952
0.000445971
0.000443014
0.00044008
0.000437163
0.000434262
0.000431372
0.00042849
0.000425612
0.000422735
0.000419855
0.000416967
0.000414068
0.000411154
0.00040822
0.000405264
0.00040228
0.000399264
0.000396213
0.000393123
0.000389991
0.000386811
0.000383581
0.000380296
0.000376954
0.000373551
0.000370083
0.000366546
0.000362936
0.00035925
0.000355482
0.000351624
0.000347671
0.00034362
0.000339472
0.000335223
0.000330872
0.000326416
0.000321852
0.000317175
0.00031238
0.000307463
0.000302416
0.000297233
0.000291904
0.000286422
0.000280773
0.000274946
0.000268924
0.000262688
0.000256218
0.000249487
0.000242461
0.000235101
0.000227355
0.00021916
0.000210428
0.000201047
0.000190863
0.000179664
0.000167153
0.00015291
0.000136327
0.000116556
9.24178e-05
6.22707e-05
2.57004e-05
6.7722e-07
5.65497e-06
7.51888e-05
0.000160011
0.000231865
0.000291448
0.000341527
0.000384382
0.000421699
0.000454701
0.000484281
0.000511097
0.00053564
0.000558284
0.000579315
0.000598956
0.000617384
0.000634741
0.000651139
0.000666672
0.000681418
0.00069544
0.000708792
0.000721518
0.000733657
0.000745242
0.000756301
0.000766859
0.000776937
0.000786553
0.000795725
0.000804467
0.000812792
0.000820713
0.000828239
0.000835381
0.000842148
0.000848548
0.000854588
0.000860277
0.000865621
0.000870627
0.0008753
0.000879646
0.000883672
0.000887382
0.000890782
0.000893877
0.000896672
0.000899172
0.000901382
0.000903306
0.00090495
0.000906317
0.000907413
0.000908241
0.000908807
0.000909114
0.000909167
0.000908969
0.000908526
0.000907839
0.000906912
0.00090575
0.000904356
0.000902739
0.000900905
0.000898862
0.000896616
0.000894176
0.000891545
0.000888732
0.000885743
0.000882583
0.000879259
0.000875777
0.000872143
0.000868365
0.000864449
0.0008604
0.000856226
0.000851933
0.000847529
0.000843018
0.000838409
0.000833708
0.000828921
0.000824055
0.000819117
0.000814113
0.000809049
0.000803933
0.00079877
0.000793567
0.000788329
0.000783064
0.000777776
0.000772472
0.000767157
0.000761837
0.000756517
0.000751202
0.000745896
0.000740606
0.000735335
0.000730087
0.000724867
0.000719678
0.000714524
0.000709408
0.000704333
0.000699303
0.000694318
0.000689382
0.000684497
0.000679664
0.000674884
0.000670158
0.000665487
0.000660872
0.000656312
0.000651808
0.000647358
0.000642963
0.000638621
0.00063433
0.000630089
0.000625897
0.000621751
0.00061765
0.00061359
0.00060957
0.000605586
0.000601634
0.00059771
0.00059381
0.000589929
0.000586064
0.00058221
0.000578363
0.000574518
0.000570672
0.000566818
0.000562953
0.000559072
0.00055517
0.000551241
0.000547281
0.000543286
0.00053925
0.000535168
0.000531036
0.000526849
0.000522602
0.000518292
0.000513912
0.00050946
0.00050493
0.000500319
0.000495622
0.000490834
0.00048595
0.000480966
0.000475876
0.000470673
0.00046535
0.000459904
0.000454331
0.000448628
0.000442792
0.000436817
0.000430697
0.000424427
0.000417999
0.000411404
0.000404633
0.000397673
0.000390512
0.000383135
0.000375523
0.000367655
0.000359508
0.000351053
0.000342255
0.000333073
0.000323457
0.000313345
0.000302661
0.000291308
0.000279159
0.000266052
0.000251773
0.000236033
0.000218446
0.000198486
0.000175432
0.000148311
0.000115829
7.6604e-05
3.12609e-05
9.22294e-07
5.65511e-06
7.51924e-05
0.000160019
0.000231877
0.000291463
0.000341544
0.0003844
0.000421717
0.000454719
0.000484299
0.000511115
0.000535658
0.000558302
0.000579333
0.000598974
0.000617402
0.000634758
0.000651156
0.00066669
0.000681436
0.000695457
0.000708809
0.000721535
0.000733674
0.000745259
0.000756318
0.000766876
0.000776953
0.00078657
0.000795741
0.000804483
0.000812808
0.000820728
0.000828255
0.000835396
0.000842163
0.000848563
0.000854604
0.000860292
0.000865636
0.000870641
0.000875314
0.000879661
0.000883686
0.000887396
0.000890796
0.000893891
0.000896686
0.000899186
0.000901396
0.00090332
0.000904963
0.00090633
0.000907426
0.000908254
0.00090882
0.000909127
0.000909179
0.000908982
0.000908538
0.000907851
0.000906924
0.000905762
0.000904368
0.00090275
0.000900916
0.000898872
0.000896627
0.000894186
0.000891556
0.000888743
0.000885753
0.000882592
0.000879268
0.000875786
0.000872152
0.000868374
0.000864457
0.000860409
0.000856234
0.000851942
0.000847537
0.000843026
0.000838417
0.000833715
0.000828928
0.000824062
0.000819124
0.000814119
0.000809056
0.000803939
0.000798776
0.000793573
0.000788335
0.000783069
0.000777782
0.000772477
0.000767162
0.000761842
0.000756521
0.000751206
0.000745901
0.00074061
0.000735339
0.000730091
0.00072487
0.000719681
0.000714527
0.000709411
0.000704336
0.000699305
0.000694321
0.000689385
0.000684499
0.000679666
0.000674886
0.00067016
0.000665489
0.000660874
0.000656314
0.000651809
0.00064736
0.000642964
0.000638622
0.000634331
0.00063009
0.000625898
0.000621752
0.00061765
0.00061359
0.00060957
0.000605586
0.000601634
0.00059771
0.000593809
0.000589929
0.000586063
0.000582209
0.000578362
0.000574517
0.000570671
0.000566817
0.000562952
0.000559071
0.000555168
0.000551239
0.00054728
0.000543284
0.000539248
0.000535166
0.000531034
0.000526847
0.0005226
0.000518289
0.00051391
0.000509458
0.000504928
0.000500316
0.000495619
0.000490831
0.000485948
0.000480964
0.000475874
0.000470671
0.000465348
0.000459901
0.000454329
0.000448626
0.000442789
0.000436814
0.000430695
0.000424425
0.000417997
0.000411402
0.000404631
0.000397671
0.00039051
0.000383133
0.000375521
0.000367653
0.000359506
0.000351051
0.000342253
0.000333071
0.000323455
0.000313344
0.00030266
0.000291307
0.000279158
0.000266052
0.000251772
0.000236033
0.000218446
0.000198485
0.000175432
0.000148311
0.000115829
7.66041e-05
3.12608e-05
9.22296e-07
7.0505e-06
8.50662e-05
0.000182509
0.000268024
0.000340785
0.000403029
0.000456917
0.000504181
0.00054615
0.000583837
0.000618012
0.00064927
0.00067807
0.000704772
0.00072966
0.000752962
0.000774862
0.000795508
0.000815024
0.000833511
0.000851055
0.000867726
0.000883584
0.000898682
0.000913063
0.000926766
0.000939823
0.000952264
0.000964113
0.000975394
0.000986126
0.000996328
0.00100602
0.0010152
0.00102391
0.00103214
0.00103991
0.00104723
0.0010541
0.00106055
0.00106658
0.00107219
0.0010774
0.00108221
0.00108664
0.00109068
0.00109435
0.00109765
0.0011006
0.00110319
0.00110543
0.00110734
0.00110891
0.00111016
0.00111109
0.0011117
0.001112
0.001112
0.0011117
0.00111111
0.00111024
0.00110908
0.00110764
0.00110594
0.00110398
0.00110176
0.00109929
0.00109659
0.00109366
0.0010905
0.00108714
0.00108356
0.00107979
0.00107582
0.00107167
0.00106734
0.00106285
0.00105819
0.00105338
0.00104842
0.00104332
0.00103809
0.00103274
0.00102727
0.0010217
0.00101602
0.00101025
0.0010044
0.000998467
0.000992466
0.000986403
0.000980284
0.000974118
0.000967911
0.00096167
0.000955402
0.000949114
0.000942812
0.000936502
0.000930191
0.000923884
0.000917588
0.000911307
0.000905046
0.000898811
0.000892607
0.000886436
0.000880305
0.000874215
0.000868172
0.000862177
0.000856233
0.000850343
0.000844509
0.000838733
0.000833016
0.000827358
0.000821762
0.000816226
0.000810751
0.000805337
0.000799982
0.000794686
0.000789447
0.000784264
0.000779135
0.000774057
0.000769027
0.000764044
0.000759104
0.000754204
0.00074934
0.000744506
0.000739698
0.000734912
0.000730143
0.000725385
0.000720633
0.000715883
0.000711129
0.000706366
0.000701588
0.00069679
0.000691965
0.000687109
0.000682216
0.000677279
0.000672294
0.000667255
0.000662156
0.000656992
0.000651758
0.000646447
0.000641055
0.000635577
0.000630008
0.000624343
0.000618576
0.000612703
0.000606718
0.000600616
0.000594391
0.000588037
0.000581546
0.000574912
0.00056813
0.000561194
0.000554099
0.000546839
0.000539407
0.000531796
0.000523995
0.000515996
0.000507786
0.00049935
0.000490674
0.000481739
0.000472522
0.000463001
0.000453147
0.000442925
0.000432297
0.000421216
0.000409627
0.000397462
0.000384638
0.000371055
0.000356585
0.000341066
0.000324295
0.000306003
0.000285846
0.000263369
0.000237976
0.000208885
0.000175087
0.000135338
8.84995e-05
3.59942e-05
1.16825e-06
7.05063e-06
8.50698e-05
0.000182518
0.000268037
0.000340801
0.000403047
0.000456937
0.000504202
0.000546172
0.000583858
0.000618034
0.000649292
0.000678092
0.000704794
0.000729682
0.000752984
0.000774883
0.00079553
0.000815045
0.000833533
0.000851076
0.000867746
0.000883605
0.000898703
0.000913084
0.000926786
0.000939843
0.000952283
0.000964133
0.000975413
0.000986146
0.000996347
0.00100604
0.00101522
0.00102393
0.00103216
0.00103993
0.00104724
0.00105412
0.00106057
0.00106659
0.00107221
0.00107742
0.00108223
0.00108665
0.0010907
0.00109437
0.00109767
0.00110061
0.00110321
0.00110545
0.00110736
0.00110893
0.00111017
0.0011111
0.00111171
0.00111201
0.00111201
0.00111171
0.00111112
0.00111025
0.00110909
0.00110766
0.00110595
0.00110399
0.00110177
0.0010993
0.0010966
0.00109367
0.00109052
0.00108715
0.00108357
0.0010798
0.00107583
0.00107168
0.00106735
0.00106286
0.0010582
0.00105339
0.00104843
0.00104333
0.0010381
0.00103275
0.00102728
0.0010217
0.00101603
0.00101026
0.00100441
0.000998474
0.000992473
0.00098641
0.000980291
0.000974125
0.000967917
0.000961676
0.000955408
0.00094912
0.000942817
0.000936507
0.000930196
0.000923889
0.000917592
0.000911311
0.000905051
0.000898816
0.000892611
0.000886441
0.000880309
0.000874219
0.000868175
0.00086218
0.000856236
0.000850346
0.000844512
0.000838736
0.000833018
0.000827361
0.000821764
0.000816228
0.000810753
0.000805339
0.000799984
0.000794688
0.000789449
0.000784266
0.000779136
0.000774058
0.000769028
0.000764045
0.000759105
0.000754205
0.00074934
0.000744506
0.000739699
0.000734912
0.000730143
0.000725385
0.000720633
0.000715883
0.000711129
0.000706365
0.000701587
0.000696789
0.000691964
0.000687108
0.000682214
0.000677278
0.000672293
0.000667254
0.000662155
0.00065699
0.000651756
0.000646445
0.000641053
0.000635575
0.000630006
0.000624341
0.000618574
0.000612701
0.000606716
0.000600614
0.000594389
0.000588034
0.000581544
0.00057491
0.000568128
0.000561191
0.000554096
0.000546836
0.000539405
0.000531793
0.000523993
0.000515994
0.000507784
0.000499348
0.000490672
0.000481736
0.00047252
0.000462999
0.000453145
0.000442923
0.000432296
0.000421215
0.000409625
0.00039746
0.000384637
0.000371054
0.000356583
0.000341065
0.000324294
0.000306003
0.000285846
0.000263369
0.000237976
0.000208885
0.000175087
0.000135338
8.84997e-05
3.59941e-05
1.16825e-06
8.44432e-06
9.37742e-05
0.000201833
0.000299058
0.000383398
0.000456573
0.000520563
0.000577074
0.00062748
0.000672866
0.000714082
0.000751798
0.000786543
0.000818737
0.000848719
0.00087676
0.000903082
0.000927867
0.000951266
0.000973402
0.000994381
0.00101429
0.00103321
0.00105119
0.0010683
0.00108459
0.00110009
0.00111483
0.00112886
0.0011422
0.00115488
0.00116691
0.00117832
0.00118913
0.00119936
0.00120901
0.00121811
0.00122668
0.00123471
0.00124223
0.00124924
0.00125577
0.00126181
0.00126738
0.00127249
0.00127715
0.00128137
0.00128515
0.00128852
0.00129147
0.00129401
0.00129615
0.00129791
0.00129929
0.00130029
0.00130092
0.0013012
0.00130113
0.00130072
0.00129997
0.00129889
0.00129749
0.00129578
0.00129376
0.00129144
0.00128883
0.00128594
0.00128278
0.00127936
0.00127569
0.00127177
0.00126762
0.00126324
0.00125864
0.00125384
0.00124883
0.00124364
0.00123826
0.0012327