/*--------------------------------*- C++ -*----------------------------------*\
  =========                 |
  \\      /  F ield         | OpenFOAM: The Open Source CFD Toolbox
   \\    /   O peration     | Website:  https://openfoam.org
    \\  /    A nd           | Version:  8
     \\/     M anipulation  |
\*---------------------------------------------------------------------------*/
FoamFile
{
    version     2.0;
    format      ascii;
    class       volScalarField;
    location    "2600";
    object      epsilon;
}
// * * * * * * * * * * * * * * * * * * * * * * * * * * * * * * * * * * * * * //

dimensions      [0 2 -3 0 0 0 0];

internalField   nonuniform List<scalar> 
46000
(
5.69821
24.9899
49.6092
73.1282
95.5189
117.276
138.543
159.418
180.007
200.378
220.661
240.726
260.662
280.487
300.209
319.824
339.329
358.713
377.966
397.074
416.02
434.788
453.358
471.711
489.826
507.68
525.25
542.515
559.449
576.03
592.233
608.034
623.409
638.336
652.789
666.747
680.187
693.088
705.429
717.19
728.353
738.901
748.817
758.086
766.695
774.633
781.889
788.455
794.323
799.49
803.951
807.705
810.753
813.098
814.742
815.692
815.956
815.542
814.463
812.731
810.364
807.384
803.834
799.731
795.065
789.849
784.105
777.853
771.119
763.926
756.299
748.263
739.844
731.068
721.961
712.549
702.86
692.919
682.751
672.383
661.84
651.147
640.328
629.407
618.406
607.349
596.257
585.15
574.048
562.971
551.937
540.963
530.065
519.258
508.557
497.975
487.524
477.217
467.062
457.07
447.25
437.609
428.153
418.889
409.821
400.955
392.293
383.837
375.591
367.555
359.729
352.115
344.71
337.514
330.526
323.742
317.16
310.778
304.591
298.595
292.786
287.161
281.712
276.437
271.328
266.381
261.59
256.949
252.45
248.09
243.86
239.754
235.766
231.891
228.118
224.445
220.869
217.377
213.963
210.62
207.341
204.119
200.946
197.818
194.727
191.666
188.63
185.611
182.605
179.606
176.607
173.604
170.591
167.563
164.517
161.447
158.349
155.221
152.058
148.859
145.62
142.339
139.014
135.645
132.251
128.826
125.359
121.849
118.296
114.702
111.068
107.397
103.692
99.9553
96.1903
92.4006
88.59
84.7627
80.9225
77.0738
73.2208
69.3675
65.5178
61.6755
57.8438
54.0249
50.2163
46.4163
42.6432
38.8806
35.1255
31.3721
27.6043
23.8047
20.0042
16.1271
12.1088
7.91086
3.71292
0.787149
5.69861
24.9914
49.6113
73.1306
95.5214
117.279
138.546
159.42
180.009
200.38
220.664
240.729
260.664
280.49
300.211
319.826
339.331
358.715
377.968
397.075
416.022
434.79
453.36
471.713
489.827
507.681
525.252
542.516
559.45
576.031
592.234
608.035
623.411
638.337
652.79
666.748
680.188
693.089
705.43
717.191
728.354
738.902
748.817
758.087
766.696
774.633
781.889
788.455
794.323
799.49
803.951
807.705
810.753
813.098
814.742
815.692
815.956
815.542
814.463
812.731
810.364
807.384
803.834
799.731
795.065
789.849
784.104
777.853
771.119
763.926
756.298
748.262
739.843
731.067
721.96
712.549
702.859
692.918
682.75
672.383
661.84
651.146
640.327
629.406
618.406
607.348
596.256
585.149
574.048
562.971
551.937
540.962
530.064
519.257
508.556
497.974
487.523
477.216
467.061
457.07
447.249
437.608
428.152
418.888
409.821
400.954
392.292
383.837
375.59
367.554
359.729
352.114
344.709
337.514
330.525
323.741
317.159
310.777
304.59
298.594
292.786
287.16
281.712
276.436
271.328
266.381
261.589
256.948
252.45
248.089
243.859
239.753
235.765
231.891
228.117
224.445
220.868
217.376
213.963
210.619
207.34
204.118
200.946
197.817
194.726
191.665
188.629
185.611
182.605
179.605
176.606
173.603
170.59
167.563
164.516
161.446
158.348
155.22
152.058
148.858
145.619
142.338
139.013
135.644
132.25
128.825
125.358
121.848
118.295
114.701
111.068
107.397
103.692
99.9549
96.1899
92.4002
88.5897
84.7623
80.9222
77.0736
73.2205
69.3672
65.5176
61.6753
57.8436
54.0247
50.2161
46.4162
42.6431
38.8805
35.1254
31.3721
27.6043
23.8047
20.0042
16.1272
12.1088
7.91089
3.71294
0.787155
27.0458
23.2027
30.754
39.5379
48.6006
57.79
67.048
76.3495
85.6882
95.0521
104.458
113.892
123.358
132.859
142.391
151.948
161.525
171.113
180.704
190.287
199.85
209.384
218.874
228.307
237.67
246.947
256.125
265.188
274.12
282.905
291.527
299.971
308.219
316.256
324.066
331.633
338.941
345.976
352.723
359.168
365.298
371.1
376.562
381.674
386.426
390.807
394.812
398.432
401.663
404.499
406.938
408.977
410.616
411.856
412.698
413.144
413.2
412.871
412.164
411.088
409.653
407.873
405.769
403.351
400.619
397.58
394.247
390.634
386.753
382.62
378.251
373.66
368.864
363.879
358.72
353.403
347.945
342.361
336.666
330.877
325.007
319.071
313.084
307.06
301.011
294.95
288.89
282.841
276.816
270.824
264.875
258.979
253.143
247.377
241.687
236.079
230.561
225.137
219.813
214.592
209.479
204.477
199.589
194.817
190.162
185.626
181.211
176.916
172.741
168.688
164.754
160.939
157.243
153.663
150.197
146.845
143.604
140.472
137.445
134.522
131.7
128.976
126.346
123.808
121.359
118.996
116.714
114.511
112.382
110.326
108.338
106.414
104.551
102.746
100.998
99.3021
97.6549
96.0523
94.4907
92.9664
91.476
90.0162
88.5834
87.1746
85.7864
84.4156
83.0593
81.7144
80.3779
79.0471
77.7191
76.3914
75.0614
73.7268
72.3853
71.0348
69.6733
68.2991
66.9105
65.5062
64.0848
62.6456
61.1879
59.7128
58.2253
56.7224
55.2016
53.6618
52.1031
50.5257
48.9304
47.3183
45.6905
44.0483
42.3934
40.7275
39.0523
37.37
35.6824
33.9917
32.2999
30.6092
28.9215
27.2388
25.5628
23.8948
22.2355
20.5858
18.9477
17.3184
15.7003
14.0955
12.5008
10.917
9.35358
7.79447
6.23682
4.70618
3.38148
3.97165
27.0474
23.2022
30.7527
39.5362
48.5986
57.7877
67.0455
76.3466
85.685
95.0486
104.454
113.888
123.354
132.854
142.386
151.943
161.519
171.107
180.697
190.28
199.843
209.376
218.866
228.299
237.661
246.939
256.116
265.179
274.11
282.895
291.517
299.96
308.208
316.245
324.054
331.621
338.929
345.964
352.71
359.155
365.285
371.087
376.549
381.661
386.412
390.793
394.798
398.418
401.648
404.484
406.923
408.962
410.602
411.841
412.683
413.129
413.185
412.857
412.15
411.073
409.638
407.859
405.755
403.337
400.604
397.566
394.233
390.62
386.739
382.607
378.238
373.647
368.851
363.866
358.707
353.391
347.933
342.349
336.654
330.865
324.995
319.06
313.073
307.049
301
294.94
288.88
282.831
276.806
270.815
264.866
258.97
253.135
247.369
241.679
236.072
230.553
225.13
219.806
214.585
209.473
204.471
199.583
194.81
190.156
185.62
181.205
176.91
172.736
168.682
164.749
160.934
157.238
153.658
150.193
146.841
143.6
140.467
137.441
134.518
131.696
128.972
126.343
123.805
121.356
118.992
116.711
114.508
112.38
110.323
108.335
106.411
104.548
102.744
100.996
99.2999
97.6528
96.0503
94.4888
92.9646
91.4743
90.0144
88.5818
87.173
85.7848
84.4142
83.0579
81.7131
80.3766
79.0458
77.7179
76.3903
75.0604
73.7258
72.3843
71.0339
69.6725
68.2983
66.9098
65.5054
64.0841
62.6449
61.1873
59.7122
58.2248
56.7219
55.2011
53.6613
52.1026
50.5253
48.93
47.3179
45.6901
44.0479
42.3931
40.7271
39.052
37.3697
35.6821
33.9914
32.2997
30.609
28.9213
27.2386
25.5626
23.8946
22.2353
20.5856
18.9476
17.3182
15.7002
14.0954
12.5007
10.9169
9.35352
7.79443
6.23679
4.70616
3.38148
3.97165
54.025
32.2403
33.4677
37.9167
43.3759
49.3109
55.5176
61.9014
68.4159
75.0329
81.7375
88.5164
95.3614
102.266
109.223
116.225
123.265
130.335
137.426
144.53
151.638
158.738
165.822
172.878
179.894
186.86
193.763
200.591
207.331
213.971
220.497
226.898
233.158
239.267
245.21
250.975
256.549
261.921
267.077
272.007
276.7
281.145
285.332
289.252
292.898
296.26
299.333
302.111
304.589
306.762
308.628
310.185
311.432
312.369
312.997
313.319
313.336
313.055
312.48
311.617
310.475
309.064
307.395
305.477
303.314
300.914
298.286
295.44
292.388
289.141
285.711
282.111
278.352
274.448
270.412
266.255
261.991
257.632
253.19
248.678
244.106
239.488
234.832
230.152
225.456
220.756
216.059
211.376
206.715
202.084
197.491
192.943
188.445
184.005
179.628
175.32
171.083
166.924
162.845
158.85
154.941
151.121
147.392
143.755
140.212
136.764
133.41
130.152
126.99
123.922
120.949
118.069
115.282
112.586
109.981
107.463
105.032
102.686
100.422
98.2395
96.1348
94.1063
92.1514
90.2676
88.4526
86.7036
85.0182
83.3936
81.8271
80.3161
78.8577
77.4489
76.0885
74.774
73.5027
72.2718
71.0785
69.9199
68.7932
67.6957
66.6248
65.5778
64.5523
63.5457
62.5555
61.5793
60.6148
59.6596
58.7115
57.7683
56.8279
55.8882
54.9474
54.0034
53.0546
52.0993
51.136
50.1631
49.1795
48.184
47.1757
46.1538
45.1181
44.0686
43.0066
41.9313
40.8418
39.7374
38.618
37.4839
36.3355
35.1734
33.9987
32.8122
31.6152
30.4091
29.1953
27.9753
26.7507
25.5232
24.2947
23.0667
21.8411
20.6195
19.4036
18.1949
16.9949
15.805
14.6268
13.4614
12.311
11.1776
10.0644
8.97762
7.92505
6.91765
5.98226
5.20405
4.96044
8.46756
54.0273
32.239
33.4657
37.9143
43.3733
49.3082
55.5147
61.8983
68.4127
75.0295
81.7339
88.5126
95.3575
102.262
109.218
116.22
123.26
130.33
137.421
144.525
151.632
158.733
165.816
172.872
179.888
186.853
193.756
200.584
207.324
213.963
220.49
226.89
233.151
239.259
245.202
250.967
256.541
261.912
267.068
271.998
276.691
281.136
285.323
289.243
292.888
296.251
299.324
302.101
304.579
306.752
308.619
310.176
311.423
312.36
312.988
313.309
313.327
313.045
312.47
311.607
310.466
309.055
307.386
305.468
303.305
300.905
298.277
295.431
292.379
289.132
285.702
282.102
278.344
274.44
270.404
266.248
261.984
257.625
253.183
248.671
244.099
239.481
234.826
230.146
225.45
220.749
216.053
211.37
206.71
202.079
197.486
192.937
188.44
184.001
179.624
175.315
171.079
166.92
162.841
158.846
154.937
151.117
147.388
143.752
140.209
136.76
133.407
130.149
126.987
123.919
120.946
118.067
115.28
112.584
109.978
107.461
105.03
102.684
100.42
98.2375
96.133
94.1045
92.1496
90.266
88.451
86.7021
85.0167
83.3922
81.8258
80.3148
78.8565
77.4478
76.0873
74.7729
73.5017
72.2708
71.0776
69.919
68.7923
67.6949
66.624
65.5771
64.5516
63.545
62.5549
61.5788
60.6143
59.6591
58.7111
57.7679
56.8275
55.8879
54.947
54.0031
53.0543
52.099
51.1357
50.1629
49.1793
48.1839
47.1755
46.1537
45.1179
44.0685
43.0064
41.9312
40.8417
39.7373
38.6179
37.4838
36.3354
35.1734
33.9986
32.8122
31.6152
30.4091
29.1952
27.9752
26.7506
25.5232
24.2946
23.0667
21.841
20.6194
19.4036
18.1949
16.9949
15.805
14.6268
13.4614
12.311
11.1776
10.0643
8.97759
7.92503
6.91763
5.98225
5.20405
4.96047
8.46756
80.4608
42.397
39.0845
40.9436
44.4509
48.7299
53.4523
58.4637
63.6816
69.057
74.5588
80.1653
85.8608
91.6329
97.4711
103.366
109.308
115.29
121.301
127.333
133.377
139.423
145.462
151.484
157.478
163.434
169.342
175.19
180.966
186.661
192.262
197.757
203.135
208.385
213.496
218.454
223.251
227.874
232.314
236.559
240.6
244.429
248.035
251.412
254.551
257.446
260.091
262.48
264.609
266.474
268.073
269.403
270.465
271.257
271.78
272.037
272.029
271.762
271.238
270.465
269.447
268.194
266.713
265.013
263.098
260.976
258.657
256.147
253.458
250.6
247.582
244.417
241.113
237.684
234.139
230.489
226.747
222.922
219.026
215.07
211.062
207.014
202.936
198.836
194.724
190.609
186.499
182.402
178.325
174.276
170.261
166.286
162.357
158.479
154.658
150.898
147.202
143.574
140.018
136.536
133.131
129.804
126.558
123.394
120.312
117.315
114.401
111.571
108.825
106.164
103.585
101.089
98.675
96.3411
94.0864
91.9095
89.8089
87.7828
85.8295
83.9471
82.1336
80.3871
78.7054
77.0863
75.5276
74.0271
72.5824
71.1913
69.8513
68.5601
67.3152
66.115
64.9576
63.8405
62.7615
61.7179
60.7074
59.7277
58.7762
57.8506
56.9487
56.0681
55.2067
54.3622
53.5325
52.7154
51.909
51.1111
50.3198
49.5331
48.7492
47.9664
47.1828
46.3968
45.6069
44.8116
44.0095
43.1994
42.38
41.5505
40.7099
39.8576
38.9931
38.1165
37.2277
36.3266
35.4126
34.4855
33.5451
32.5916
31.6254
30.647
29.6573
28.657
27.6472
26.6291
25.6038
24.5728
23.5376
22.4996
21.4604
20.4216
19.385
18.3521
17.3248
16.3047
15.2938
14.2939
13.3073
12.3364
11.3845
10.4555
9.55514
8.69202
7.87924
7.14164
6.53105
6.19195
6.73567
13.1044
80.4633
42.3953
39.082
40.9409
44.4481
48.727
53.4493
58.4606
63.6784
69.0537
74.5554
80.1618
85.8572
91.6292
97.4673
103.362
109.304
115.285
121.296
127.328
133.372
139.418
145.457
151.479
157.473
163.429
169.336
175.184
180.961
186.655
192.256
197.751
203.129
208.379
213.489
218.448
223.244
227.868
232.307
236.552
240.594
244.422
248.028
251.405
254.544
257.439
260.084
262.473
264.602
266.467
268.066
269.396
270.457
271.249
271.773
272.03
272.022
271.755
271.231
270.458
269.44
268.187
266.707
265.006
263.091
260.97
258.65
256.141
253.452
250.594
247.577
244.411
241.108
237.678
234.133
230.484
226.742
222.917
219.021
215.065
211.057
207.01
202.931
198.832
194.72
190.605
186.495
182.398
178.322
174.272
170.257
166.282
162.354
158.476
154.655
150.895
147.199
143.571
140.015
136.533
133.128
129.802
126.556
123.392
120.31
117.313
114.399
111.569
108.824
106.162
103.584
101.088
98.6734
96.3396
94.085
91.9082
89.8076
87.7815
85.8283
83.946
82.1326
80.3861
78.7044
77.0853
75.5267
74.0262
72.5816
71.1905
69.8506
68.5594
67.3146
66.1144
64.957
63.84
62.7609
61.7174
60.707
59.7272
58.7758
57.8502
56.9483
56.0678
55.2064
54.3619
53.5323
52.7152
51.9088
51.1109
50.3196
49.5329
48.7491
47.9663
47.1827
46.3967
45.6068
44.8115
44.0095
43.1993
42.38
41.5505
40.7099
39.8576
38.9932
38.1165
37.2277
36.3266
35.4127
34.4855
33.5451
32.5916
31.6254
30.6471
29.6573
28.657
27.6472
26.6291
25.6039
24.5729
23.5376
22.4996
21.4604
20.4216
19.385
18.3521
17.3248
16.3048
15.2938
14.2939
13.3073
12.3364
11.3845
10.4555
9.55514
8.69201
7.87924
7.14163
6.53105
6.19196
6.73571
13.1045
106.288
52.8829
45.6625
45.5016
47.6037
50.7658
54.5349
58.6975
63.1378
67.7865
72.5989
77.5441
82.5997
87.7484
92.976
98.2703
103.62
109.016
114.448
119.906
125.381
130.863
136.342
141.81
147.255
152.668
158.039
163.357
168.611
173.791
178.887
183.886
188.78
193.556
198.205
202.715
207.077
211.28
215.316
219.173
222.844
226.32
229.593
232.656
235.501
238.122
240.514
242.673
244.593
246.272
247.707
248.896
249.839
250.535
250.985
251.191
251.156
250.881
250.373
249.635
248.674
247.495
246.107
244.515
242.727
240.749
238.589
236.255
233.757
231.103
228.304
225.368
222.306
219.129
215.845
212.466
209.002
205.462
201.856
198.195
194.487
190.742
186.97
183.178
179.375
175.569
171.768
167.979
164.209
160.465
156.752
153.077
149.444
145.859
142.327
138.85
135.434
132.08
128.793
125.575
122.428
119.354
116.354
113.43
110.584
107.814
105.122
102.509
99.9734
97.5156
95.1351
92.8311
90.6028
88.4493
86.3692
84.3614
82.4243
80.5565
78.7562
77.0219
75.3516
73.7435
72.1956
70.7059
69.2724
67.8931
66.5657
65.2881
64.0581
62.8735
61.7327
60.6338
59.5747
58.5532
57.567
56.614
55.6918
54.7984
53.9314
53.0888
52.2685
51.4682
50.686
49.9199
49.1678
48.4277
47.6979
46.9763
46.2612
45.5507
44.8433
44.1371
43.4306
42.7224
42.0108
41.2947
40.5726
39.8435
39.1063
38.36
37.6039
36.8373
36.0598
35.2711
34.471
33.6595
32.8362
32.0009
31.1535
30.2943
29.4236
28.5418
27.6496
26.7479
25.8374
24.9193
23.9946
23.0646
22.1307
21.1942
20.2566
19.3196
18.3846
17.4535
16.5281
15.6104
14.7025
13.8068
12.9262
12.0642
11.225
10.4143
9.64021
8.91445
8.25603
7.69952
7.31872
7.3183
8.54472
17.7357
106.291
52.8808
45.6599
45.4987
47.6007
50.7628
54.5318
58.6944
63.1346
67.7833
72.5956
77.5408
82.5963
87.7449
92.9724
98.2666
103.617
109.012
114.444
119.902
125.376
130.858
136.338
141.805
147.251
152.664
158.034
163.352
168.606
173.786
178.882
183.881
188.774
193.551
198.199
202.709
207.071
211.275
215.31
219.168
222.839
226.315
229.588
232.65
235.495
238.116
240.509
242.667
244.587
246.266
247.701
248.89
249.833
250.529
250.979
251.185
251.15
250.876
250.368
249.63
248.669
247.49
246.102
244.51
242.722
240.744
238.584
236.251
233.752
231.099
228.299
225.364
222.302
219.124
215.841
212.462
208.998
205.458
201.852
198.191
194.483
190.739
186.966
183.174
179.371
175.566
171.765
167.976
164.206
160.462
156.749
153.074
149.442
145.857
142.324
138.848
135.432
132.078
128.791
125.573
122.426
119.352
116.353
113.429
110.582
107.813
105.121
102.508
99.9721
97.5144
95.1339
92.83
90.6017
88.4482
86.3682
84.3604
82.4234
80.5556
78.7554
77.0211
75.3508
73.7427
72.1949
70.7052
69.2718
67.8925
66.5651
65.2875
64.0576
62.8731
61.7322
60.6334
59.5743
58.5528
57.5667
56.6136
55.6915
54.7981
53.9312
53.0886
52.2682
51.468
50.6858
49.9197
49.1676
48.4276
47.6978
46.9762
46.2611
45.5507
44.8432
44.1371
43.4306
42.7223
42.0108
41.2947
40.5726
39.8435
39.1063
38.36
37.6039
36.8373
36.0598
35.2711
34.4711
33.6596
32.8363
32.0009
31.1536
30.2944
29.4236
28.5419
27.6497
26.7479
25.8375
24.9193
23.9947
23.0647
22.1308
21.1943
20.2567
19.3196
18.3847
17.4536
16.5282
15.6104
14.7025
13.8068
12.9263
12.0642
11.225
10.4143
9.64021
8.91445
8.25603
7.69951
7.31872
7.31831
8.54478
17.7358
131.935
63.6415
52.7791
50.8539
51.8089
54.1089
57.1757
60.737
64.6449
68.8106
73.1763
77.7024
82.3599
87.1267
91.9851
96.9201
101.919
106.969
112.06
117.182
122.324
127.476
132.628
137.77
142.893
147.986
153.039
158.041
162.983
167.855
172.645
177.343
181.94
186.425
190.788
195.018
199.108
203.046
206.823
210.432
213.864
217.11
220.163
223.017
225.665
228.101
230.321
232.319
234.093
235.638
236.954
238.038
238.889
239.508
239.896
240.053
239.983
239.689
239.173
238.442
237.5
236.353
235.007
233.47
231.747
229.845
227.772
225.535
223.143
220.605
217.929
215.125
212.202
209.17
206.038
202.815
199.512
196.138
192.701
189.212
185.679
182.11
178.515
174.902
171.278
167.651
164.028
160.417
156.823
153.254
149.714
146.209
142.745
139.326
135.956
132.64
129.38
126.18
123.043
119.971
116.966
114.031
111.166
108.374
105.654
103.008
100.437
97.9392
95.5159
93.1667
90.891
88.6883
86.5578
84.4984
82.5092
80.5889
78.7362
76.9496
75.2276
73.5686
71.9708
70.4324
68.9517
67.5268
66.1556
64.8362
63.5667
62.3449
61.1688
60.0365
58.9466
57.8969
56.8854
55.91
54.9686
54.059
53.1791
52.3269
51.5003
50.6973
49.9157
49.1537
48.4093
47.6806
46.9655
46.2624
45.5694
44.8846
44.2064
43.5331
42.863
42.1946
41.5264
40.8569
40.1849
39.5089
38.8278
38.1406
37.4462
36.7438
36.0326
35.3121
34.5817
33.8411
33.0901
32.3286
31.5564
30.7732
29.9792
29.1745
28.3594
27.5343
26.6999
25.8567
25.0057
24.1477
23.2839
22.4152
21.543
20.6685
19.7932
18.9186
18.0462
17.178
16.3157
15.4617
14.6182
13.7883
12.9754
12.1836
11.4185
10.6872
9.99996
9.37183
8.82728
8.4108
8.21726
8.50896
10.3685
22.3651
131.937
63.6391
52.7762
50.8509
51.806
54.1059
57.1726
60.7339
64.6418
68.8074
73.1731
77.6991
82.3565
87.1233
91.9816
96.9165
101.915
106.965
112.057
117.178
122.32
127.472
132.624
137.766
142.889
147.981
153.034
158.037
162.979
167.85
172.64
177.339
181.935
186.42
190.783
195.013
199.103
203.041
206.818
210.427
213.859
217.105
220.158
223.012
225.66
228.096
230.316
232.314
234.088
235.633
236.949
238.033
238.884
239.503
239.891
240.048
239.978
239.684
239.169
238.437
237.495
236.348
235.003
233.466
231.743
229.841
227.767
225.531
223.139
220.601
217.925
215.121
212.198
209.166
206.034
202.812
199.509
196.135
192.698
189.209
185.676
182.107
178.512
174.899
171.275
167.648
164.025
160.414
156.821
153.251
149.712
146.207
142.743
139.324
135.955
132.638
129.378
126.178
123.041
119.969
116.965
114.029
111.165
108.373
105.653
103.007
100.436
97.9381
95.5149
93.1657
90.89
88.6874
86.5569
84.4976
82.5084
80.5881
78.7355
76.9489
75.2269
73.5679
71.9701
70.4318
68.9512
67.5262
66.1551
64.8357
63.5662
62.3444
61.1684
60.0361
58.9462
57.8966
56.8851
55.9097
54.9683
54.0587
53.1789
52.3267
51.5001
50.6971
49.9155
49.1536
48.4092
47.6804
46.9654
46.2623
45.5693
44.8845
44.2063
43.533
42.863
42.1946
41.5264
40.8569
40.1849
39.5089
38.8278
38.1406
37.4462
36.7439
36.0327
35.3121
34.5817
33.8411
33.0902
32.3287
31.5564
30.7733
29.9793
29.1746
28.3594
27.5344
26.6999
25.8568
25.0058
24.1478
23.2839
22.4153
21.543
20.6686
19.7932
18.9186
18.0463
17.178
16.3158
15.4617
14.6183
13.7884
12.9754
12.1836
11.4185
10.6872
9.99996
9.37183
8.82728
8.41079
8.21726
8.50897
10.3686
22.3652
157.471
74.6579
60.2991
56.7523
56.706
58.2891
60.7974
63.8996
67.4159
71.2382
75.2964
79.5422
83.9402
88.4636
93.0911
97.8049
102.59
107.433
112.32
117.242
122.186
127.142
132.099
137.047
141.976
146.876
151.735
156.545
161.294
165.972
170.57
175.077
179.484
183.779
187.954
192
195.906
199.664
203.265
206.702
209.965
213.048
215.944
218.646
221.149
223.447
225.535
227.41
229.069
230.508
231.726
232.721
233.493
234.042
234.369
234.476
234.364
234.038
233.501
232.756
231.81
230.668
229.335
227.818
226.123
224.257
222.228
220.041
217.707
215.232
212.626
209.897
207.054
204.107
201.063
197.933
194.725
191.449
188.113
184.726
181.297
177.833
174.343
170.836
167.318
163.797
160.279
156.772
153.282
149.814
146.374
142.969
139.601
136.277
132.999
129.773
126.6
123.486
120.431
117.439
114.512
111.652
108.86
106.137
103.484
100.903
98.3925
95.9542
93.5876
91.2926
89.0687
86.9154
84.8321
82.8177
80.8713
78.9918
77.1778
75.428
73.741
72.1152
70.5489
69.0405
67.5882
66.1902
64.8446
63.5495
62.303
61.1031
59.9478
58.8358
57.7652
56.734
55.7401
54.7814
53.856
52.9618
52.0968
51.2589
50.4462
49.6567
48.8884
48.1395
47.408
46.692
45.9898
45.2995
44.6194
43.9478
43.283
42.6235
41.9675
41.3138
40.6607
40.007
39.3514
38.6926
38.0297
37.3614
36.6869
36.0055
35.3163
34.6189
33.9127
33.1975
32.4729
31.7389
30.9954
30.2421
29.4791
28.7067
27.925
27.1345
26.3357
25.5292
24.7158
23.8962
23.0714
22.2425
21.4104
20.5766
19.7422
18.9088
18.0779
17.2515
16.4315
15.6202
14.8204
14.0354
13.2692
12.5267
11.8145
11.1412
10.519
9.96626
9.51287
9.21331
9.18427
9.74479
12.2139
27.0308
157.473
74.6551
60.296
56.7493
56.7029
58.286
60.7943
63.8964
67.4127
71.235
75.2932
79.5389
83.9368
88.4602
93.0876
97.8014
102.586
107.429
112.317
117.238
122.182
127.138
132.095
137.043
141.972
146.871
151.731
156.54
161.289
165.968
170.566
175.073
179.479
183.775
187.95
191.995
195.901
199.659
203.261
206.697
209.96
213.044
215.939
218.642
221.144
223.442
225.531
227.406
229.064
230.503
231.721
232.716
233.488
234.037
234.365
234.471
234.36
234.034
233.497
232.752
231.806
230.664
229.331
227.814
226.12
224.254
222.224
220.038
217.703
215.229
212.623
209.894
207.051
204.104
201.06
197.93
194.723
191.446
188.11
184.723
181.294
177.831
174.341
170.834
167.316
163.794
160.277
156.77
153.28
149.812
146.373
142.967
139.599
136.275
132.998
129.771
126.599
123.484
120.43
117.438
114.511
111.651
108.859
106.136
103.483
100.902
98.3915
95.9532
93.5867
91.2917
89.0678
86.9146
84.8312
82.8169
80.8706
78.991
77.1771
75.4274
73.7404
72.1146
70.5484
69.04
67.5877
66.1897
64.8441
63.549
62.3025
61.1026
59.9474
58.8355
57.7649
56.7337
55.7398
54.7811
53.8557
52.9615
52.0965
51.2587
50.446
49.6565
48.8882
48.1393
47.4078
46.6919
45.9897
45.2994
44.6193
43.9477
43.283
42.6234
41.9675
41.3137
40.6607
40.007
39.3514
38.6926
38.0296
37.3614
36.687
36.0055
35.3164
34.6189
33.9127
33.1975
32.4729
31.739
30.9954
30.2421
29.4792
28.7067
27.9251
27.1346
26.3358
25.5293
24.7158
23.8963
23.0715
22.2425
21.4105
20.5766
19.7422
18.9088
18.078
17.2515
16.4315
15.6202
14.8205
14.0355
13.2692
12.5267
11.8145
11.1412
10.519
9.96626
9.51287
9.2133
9.18426
9.74481
12.214
27.0309
183.091
85.9765
68.1886
63.1048
62.1471
63.1057
65.1482
67.8837
71.1002
74.6705
78.5122
82.5682
86.7972
91.1676
95.6545
100.237
104.899
109.623
114.396
119.206
124.04
128.887
133.735
138.574
143.392
148.18
152.926
157.621
162.253
166.813
171.291
175.676
179.959
184.13
188.18
192.098
195.878
199.509
202.984
206.294
209.433
212.394
215.169
217.754
220.142
222.329
224.31
226.083
227.644
228.99
230.121
231.036
231.733
232.214
232.479
232.531
232.372
232.004
231.433
230.66
229.693
228.536
227.194
225.675
223.983
222.126
220.111
217.945
215.635
213.19
210.618
207.927
205.126
202.223
199.228
196.148
192.994
189.772
186.493
183.164
179.793
176.389
172.959
169.511
166.053
162.591
159.132
155.683
152.249
148.837
145.452
142.098
138.782
135.507
132.277
129.096
125.968
122.895
119.88
116.927
114.035
111.209
108.449
105.756
103.131
100.576
98.0897
95.6738
93.3279
91.0518
88.8452
86.7076
84.6384
82.6368
80.7017
78.8322
77.0269
75.2847
73.6041
71.9836
70.4217
68.9166
67.4668
66.0705
64.7258
63.4309
62.1839
60.9829
59.8264
58.7128
57.6401
56.6063
55.6094
54.6474
53.7184
52.8203
51.9512
51.1091
50.2921
49.4981
48.7255
47.9722
47.2363
46.5162
45.81
45.116
44.4324
43.7577
43.0901
42.4282
41.7705
41.1154
40.4618
39.8082
39.1534
38.4964
37.836
37.1713
36.5015
35.8257
35.1434
34.4539
33.757
33.0521
32.3393
31.6182
30.8888
30.151
29.4049
28.6506
27.8883
27.1184
26.3415
25.5579
24.7684
23.9736
23.1745
22.3719
21.5668
20.7604
19.9539
19.1488
18.3465
17.5491
16.7585
15.9773
15.2085
14.4557
13.7233
13.0172
12.3447
11.7159
11.1451
10.6538
10.2772
10.0799
10.2006
11.0175
14.0898
31.7357
183.093
85.9734
68.1854
63.1016
62.1439
63.1026
65.1451
67.8805
71.097
74.6673
78.5089
82.5649
86.7938
91.1642
95.651
100.234
104.895
109.619
114.393
119.202
124.036
128.883
133.731
138.57
143.388
148.176
152.922
157.617
162.249
166.809
171.287
175.672
179.955
184.126
188.175
192.094
195.873
199.505
202.979
206.29
209.429
212.389
215.165
217.749
220.137
222.324
224.306
226.079
227.639
228.986
230.117
231.031
231.729
232.21
232.475
232.527
232.368
232.001
231.429
230.657
229.689
228.532
227.191
225.671
223.98
222.123
220.108
217.941
215.632
213.187
210.615
207.924
205.123
202.22
199.225
196.146
192.991
189.77
186.491
183.161
179.791
176.387
172.957
169.509
166.051
162.589
159.13
155.681
152.247
148.835
145.45
142.097
138.78
135.505
132.276
129.095
125.967
122.894
119.879
116.925
114.034
111.208
108.447
105.755
103.13
100.575
98.0888
95.6729
93.327
91.0509
88.8444
86.7068
84.6377
82.6361
80.701
78.8315
77.0263
75.2841
73.6035
71.983
70.4211
68.9161
67.4663
66.07
64.7253
63.4304
62.1835
60.9825
59.826
58.7124
57.6397
56.606
55.6091
54.6471
53.7181
52.82
51.9509
51.1089
50.2918
49.4979
48.7253
47.972
47.2362
46.5161
45.8099
45.1158
44.4323
43.7575
43.09
42.4281
41.7704
41.1154
40.4617
39.8081
39.1534
38.4963
37.836
37.1713
36.5014
35.8257
35.1434
34.4539
33.757
33.0522
32.3393
31.6182
30.8888
30.151
29.4049
28.6506
27.8883
27.1185
26.3415
25.5579
24.7684
23.9737
23.1745
22.3719
21.5668
20.7604
19.9539
19.1488
18.3466
17.5491
16.7585
15.9774
15.2085
14.4557
13.7234
13.0172
12.3447
11.7159
11.1451
10.6538
10.2772
10.0799
10.2006
11.0175
14.0899
31.7358
208.996
97.6539
76.4592
69.8844
68.0726
68.4691
70.1102
72.544
75.5262
78.91
82.6005
86.532
90.6571
94.9396
99.3508
103.867
108.469
113.14
117.863
122.624
127.411
132.21
137.01
141.799
146.566
151.3
155.99
160.624
165.194
169.687
174.095
178.407
182.613
186.703
190.669
194.502
198.193
201.733
205.115
208.331
211.374
214.239
216.918
219.406
221.699
223.792
225.681
227.364
228.837
230.099
231.149
231.985
232.609
233.021
233.222
233.214
233
232.582
231.965
231.153
230.151
228.963
227.597
226.057
224.349
222.481
220.458
218.289
215.98
213.54
210.976
208.296
205.51
202.624
199.648
196.59
193.458
190.261
187.007
183.705
180.361
176.984
173.582
170.162
166.731
163.296
159.863
156.439
153.029
149.64
146.277
142.944
139.647
136.39
133.176
130.01
126.895
123.833
120.829
117.883
114.998
112.177
109.42
106.729
104.104
101.548
99.0594
96.6397
94.2886
92.0062
89.7921
87.6459
85.567
83.5547
81.6081
79.7262
77.9077
76.1516
74.4564
72.8207
71.243
69.7217
68.2552
66.8417
65.4795
64.1668
62.9018
61.6827
60.5081
59.3763
58.2852
57.2329
56.2175
55.2369
54.2893
53.3726
52.485
51.6244
50.7891
49.977
49.1864
48.4153
47.662
46.9247
46.2016
45.4911
44.7914
44.101
43.4183
42.7419
42.0702
41.4019
40.7358
40.0704
39.4048
38.7378
38.0685
37.396
36.7194
36.0381
35.3514
34.659
33.9603
33.2552
32.5433
31.8247
31.0992
30.3667
29.6273
28.8812
28.1285
27.3696
26.6048
25.8347
25.0597
24.2806
23.4979
22.7126
21.9256
21.1378
20.3504
19.5648
18.7826
18.0056
17.236
16.4764
15.73
15.0008
14.2938
13.6152
12.9736
12.3803
11.8516
11.4121
11.1025
10.9975
11.2582
12.3237
15.9883
36.4437
208.998
97.6505
76.4558
69.8811
68.0694
68.4659
70.107
72.5409
75.523
78.9068
82.5972
86.5287
90.6538
94.9362
99.3474
103.864
108.466
113.136
117.859
122.62
127.407
132.206
137.006
141.795
146.562
151.296
155.986
160.62
165.19
169.683
174.091
178.402
182.608
186.699
190.665
194.498
198.188
201.728
205.11
208.327
211.37
214.234
216.913
219.402
221.695
223.788
225.677
227.359
228.833
230.095
231.145
231.982
232.605
233.017
233.218
233.21
232.996
232.579
231.962
231.15
230.147
228.96
227.594
226.054
224.346
222.478
220.455
218.286
215.977
213.537
210.973
208.294
205.507
202.621
199.645
196.587
193.456
190.259
187.005
183.703
180.359
176.982
173.58
170.16
166.729
163.294
159.861
156.437
153.028
149.639
146.275
142.943
139.646
136.388
133.175
130.009
126.894
123.832
120.827
117.882
114.997
112.176
109.419
106.728
104.103
101.547
99.0585
96.6388
94.2878
92.0053
89.7913
87.6451
85.5663
83.554
81.6074
79.7255
77.9071
76.151
74.4558
72.8201
71.2424
69.7211
68.2546
66.8412
65.479
64.1664
62.9014
61.6822
60.5077
59.3759
58.2848
57.2326
56.2171
55.2366
54.289
53.3723
52.4847
51.6242
50.7888
49.9768
49.1861
48.4151
47.6618
46.9245
46.2014
45.4909
44.7913
44.1009
43.4182
42.7418
42.0701
41.4018
40.7357
40.0704
39.4047
38.7378
38.0685
37.3959
36.7193
36.038
35.3514
34.659
33.9603
33.2552
32.5433
31.8247
31.0992
30.3667
29.6273
28.8812
28.1285
27.3696
26.6048
25.8347
25.0597
24.2806
23.4979
22.7126
21.9256
21.1378
20.3504
19.5649
18.7826
18.0056
17.236
16.4764
15.73
15.0008
14.2938
13.6152
12.9736
12.3803
11.8516
11.4121
11.1024
10.9975
11.2582
12.3237
15.9884
36.4438
235.38
109.748
85.1399
77.0955
74.4656
74.343
75.6295
77.8106
80.6081
83.8556
87.4454
91.3031
95.375
99.6201
104.006
108.507
113.1
117.766
122.487
127.249
132.037
136.837
141.636
146.422
151.182
155.906
160.582
165.199
169.745
174.211
178.586
182.86
187.024
191.067
194.981
198.757
202.386
205.861
209.174
212.318
215.286
218.073
220.672
223.079
225.29
227.3
229.106
230.706
232.097
233.279
234.249
235.009
235.559
235.899
236.031
235.958
235.681
235.205
234.534
233.671
232.622
231.392
229.986
228.411
226.671
224.775
222.728
220.537
218.211
215.755
213.179
210.49
207.696
204.806
201.827
198.767
195.635
192.439
189.187
185.887
182.547
179.173
175.774
172.357
168.928
165.495
162.064
158.64
155.231
151.84
148.475
145.138
141.836
138.573
135.351
132.176
129.051
125.978
122.96
119.999
117.099
114.26
111.484
108.774
106.128
103.55
101.038
98.5942
96.218
93.9094
91.6684
89.4946
87.3873
85.346