/*--------------------------------*- C++ -*----------------------------------*\
  =========                 |
  \\      /  F ield         | OpenFOAM: The Open Source CFD Toolbox
   \\    /   O peration     | Website:  https://openfoam.org
    \\  /    A nd           | Version:  8
     \\/     M anipulation  |
\*---------------------------------------------------------------------------*/
FoamFile
{
    version     2.0;
    format      ascii;
    class       volScalarField;
    location    "2600";
    object      k;
}
// * * * * * * * * * * * * * * * * * * * * * * * * * * * * * * * * * * * * * //

dimensions      [0 2 -2 0 0 0 0];

internalField   nonuniform List<scalar> 
46000
(
0.00452817
0.0208888
0.0414644
0.0611195
0.0798312
0.0980137
0.115786
0.133231
0.150436
0.16746
0.18441
0.201178
0.217838
0.234406
0.250886
0.267278
0.283578
0.299777
0.315866
0.331834
0.347667
0.363351
0.37887
0.394208
0.409345
0.424265
0.438949
0.453376
0.467528
0.481384
0.494924
0.508129
0.520978
0.533451
0.545529
0.557194
0.568425
0.579206
0.589519
0.599347
0.608676
0.61749
0.625777
0.633523
0.640717
0.647351
0.653414
0.658901
0.663806
0.668123
0.671852
0.67499
0.677538
0.679497
0.680872
0.681667
0.681888
0.681543
0.680642
0.679196
0.677219
0.67473
0.671764
0.668337
0.664439
0.660081
0.655282
0.65006
0.644433
0.638424
0.632051
0.625337
0.618303
0.61097
0.603362
0.595498
0.587402
0.579096
0.5706
0.561938
0.553128
0.544193
0.535153
0.526027
0.516835
0.507596
0.498327
0.489046
0.479769
0.470513
0.461292
0.452122
0.443014
0.433983
0.42504
0.416197
0.407463
0.398849
0.390363
0.382012
0.373805
0.365747
0.357844
0.350101
0.342522
0.335112
0.327871
0.320804
0.313911
0.307194
0.300653
0.294288
0.288098
0.282083
0.27624
0.270569
0.265067
0.259731
0.254558
0.249545
0.244689
0.239985
0.23543
0.231019
0.226747
0.222611
0.218604
0.214723
0.210961
0.207315
0.203777
0.200343
0.197008
0.193768
0.190612
0.18754
0.184548
0.181628
0.178773
0.175976
0.173233
0.170538
0.167885
0.165268
0.162683
0.160123
0.157583
0.155059
0.152545
0.150036
0.147528
0.145017
0.142497
0.139966
0.137419
0.134852
0.132262
0.129647
0.127003
0.124329
0.121621
0.118879
0.116101
0.113285
0.110449
0.107587
0.10469
0.101757
0.0987892
0.0957866
0.0927511
0.0896848
0.0865898
0.0834685
0.0803238
0.0771587
0.0739762
0.0707798
0.0675728
0.0643588
0.0611411
0.0579234
0.0547088
0.0515003
0.0483007
0.0451119
0.0419317
0.0387588
0.0356082
0.0324664
0.0293309
0.0261968
0.0230506
0.0198779
0.0167043
0.0134668
0.0101113
0.00660577
0.00310032
0.000623793
0.00452847
0.02089
0.0414661
0.0611214
0.0798332
0.0980158
0.115788
0.133233
0.150438
0.167462
0.184412
0.20118
0.217839
0.234407
0.250888
0.26728
0.28358
0.299779
0.315868
0.331836
0.347669
0.363353
0.378872
0.394209
0.409347
0.424267
0.43895
0.453377
0.467529
0.481385
0.494926
0.50813
0.520979
0.533452
0.54553
0.557194
0.568426
0.579207
0.589519
0.599348
0.608677
0.617491
0.625777
0.633523
0.640718
0.647351
0.653415
0.658902
0.663806
0.668124
0.671852
0.67499
0.677538
0.679497
0.680872
0.681667
0.681888
0.681543
0.680642
0.679196
0.677218
0.674729
0.671764
0.668337
0.664438
0.660081
0.655282
0.650059
0.644433
0.638423
0.632051
0.625337
0.618303
0.61097
0.603361
0.595498
0.587402
0.579095
0.5706
0.561937
0.553128
0.544193
0.535153
0.526027
0.516835
0.507595
0.498326
0.489045
0.479769
0.470512
0.461292
0.452121
0.443014
0.433983
0.42504
0.416196
0.407463
0.398848
0.390362
0.382011
0.373804
0.365746
0.357843
0.3501
0.342522
0.335111
0.327871
0.320803
0.31391
0.307193
0.300652
0.294287
0.288097
0.282082
0.276239
0.270568
0.265066
0.25973
0.254557
0.249545
0.244688
0.239985
0.235429
0.231018
0.226747
0.22261
0.218604
0.214722
0.210961
0.207314
0.203776
0.200343
0.197008
0.193767
0.190611
0.187539
0.184548
0.181627
0.178772
0.175976
0.173233
0.170537
0.167884
0.165268
0.162682
0.160122
0.157582
0.155058
0.152544
0.150036
0.147528
0.145016
0.142497
0.139965
0.137418
0.134851
0.132262
0.129646
0.127003
0.124328
0.121621
0.118879
0.1161
0.113285
0.110449
0.107587
0.10469
0.101757
0.0987888
0.0957862
0.0927508
0.0896844
0.0865894
0.0834682
0.0803235
0.0771584
0.0739759
0.0707795
0.0675725
0.0643585
0.0611409
0.0579232
0.0547086
0.0515001
0.0483006
0.0451118
0.0419316
0.0387587
0.0356082
0.0324663
0.0293308
0.0261968
0.0230506
0.0198778
0.0167044
0.0134668
0.0101113
0.00660579
0.00310033
0.000623797
0.0206931
0.0847532
0.131981
0.17116
0.206146
0.238398
0.268692
0.297562
0.32533
0.352185
0.378308
0.4038
0.428749
0.453215
0.477243
0.500864
0.524099
0.546962
0.569463
0.591603
0.613383
0.634798
0.655842
0.676505
0.696778
0.716647
0.736097
0.755116
0.773685
0.791788
0.809409
0.826529
0.84313
0.859195
0.874705
0.889643
0.903992
0.917733
0.930852
0.943332
0.955158
0.966317
0.976796
0.986582
0.995665
1.00404
1.01169
1.01861
1.0248
1.03026
1.03498
1.03896
1.04221
1.04472
1.04651
1.04757
1.04792
1.04756
1.0465
1.04477
1.04236
1.03931
1.03563
1.03134
1.02645
1.02097
1.01494
1.00837
1.00128
0.993692
0.985636
0.977134
0.968212
0.958894
0.949206
0.939174
0.928823
0.91818
0.90727
0.896119
0.884752
0.873194
0.861469
0.849603
0.837617
0.825536
0.813382
0.801176
0.78894
0.776693
0.764456
0.752246
0.740082
0.727981
0.715958
0.704029
0.692208
0.680509
0.668943
0.657524
0.64626
0.635162
0.624239
0.6135
0.60295
0.592597
0.582446
0.572502
0.562769
0.55325
0.543947
0.534862
0.525997
0.517351
0.508925
0.500717
0.492727
0.484952
0.47739
0.470037
0.462891
0.455947
0.449201
0.442648
0.436283
0.430101
0.424095
0.41826
0.412589
0.407075
0.401711
0.396491
0.391406
0.386452
0.381623
0.376911
0.372305
0.367797
0.363379
0.359041
0.354776
0.350575
0.346429
0.34233
0.338269
0.334238
0.330229
0.326233
0.322242
0.318249
0.314244
0.310221
0.306172
0.30209
0.297967
0.293798
0.289575
0.285293
0.280946
0.276528
0.272035
0.267462
0.262804
0.258059
0.253222
0.248298
0.243282
0.23817
0.232961
0.227654
0.222248
0.216745
0.211144
0.205446
0.199654
0.193769
0.187793
0.181728
0.175576
0.169339
0.163019
0.156618
0.150135
0.143571
0.136925
0.130192
0.123368
0.116443
0.109405
0.102225
0.0948864
0.0873612
0.0795867
0.071481
0.0629054
0.0537478
0.0437236
0.0323514
0.0186489
0.00301668
0.0206943
0.0847556
0.131983
0.171161
0.206147
0.238398
0.268692
0.297562
0.32533
0.352185
0.378307
0.4038
0.428748
0.453214
0.477242
0.500863
0.524098
0.546961
0.569461
0.591601
0.613381
0.634796
0.65584
0.676503
0.696776
0.716644
0.736095
0.755113
0.773682
0.791785
0.809406
0.826525
0.843127
0.859191
0.874702
0.88964
0.903988
0.917729
0.930848
0.943328
0.955154
0.966313
0.976791
0.986577
0.995661
1.00403
1.01168
1.01861
1.0248
1.03026
1.03498
1.03896
1.04221
1.04472
1.0465
1.04756
1.04791
1.04755
1.0465
1.04476
1.04236
1.03931
1.03562
1.03133
1.02644
1.02097
1.01494
1.00836
1.00127
0.993687
0.985631
0.977129
0.968207
0.958889
0.949201
0.939169
0.928818
0.918175
0.907265
0.896114
0.884747
0.873189
0.861465
0.849598
0.837613
0.825532
0.813377
0.801172
0.788935
0.776689
0.764451
0.752242
0.740078
0.727977
0.715954
0.704025
0.692204
0.680505
0.668939
0.657519
0.646256
0.635158
0.624235
0.613496
0.602946
0.592593
0.582443
0.572499
0.562765
0.553246
0.543943
0.534859
0.525993
0.517348
0.508922
0.500714
0.492724
0.484949
0.477387
0.470034
0.462888
0.455944
0.449198
0.442645
0.43628
0.430098
0.424092
0.418257
0.412586
0.407072
0.401709
0.396488
0.391403
0.386449
0.381621
0.376908
0.372302
0.367795
0.363377
0.359039
0.354774
0.350573
0.346427
0.342328
0.338267
0.334237
0.330227
0.326231
0.322241
0.318247
0.314242
0.310219
0.30617
0.302088
0.297966
0.293796
0.289574
0.285292
0.280944
0.276527
0.272034
0.267461
0.262803
0.258058
0.253221
0.248297
0.243281
0.238169
0.23296
0.227653
0.222248
0.216744
0.211143
0.205445
0.199653
0.193768
0.187792
0.181727
0.175575
0.169339
0.163019
0.156617
0.150135
0.143571
0.136924
0.130192
0.123368
0.116443
0.109404
0.102224
0.0948861
0.087361
0.0795865
0.0714808
0.0629052
0.0537477
0.0437235
0.0323513
0.0186488
0.00301668
0.041566
0.133012
0.19207
0.239514
0.281676
0.320565
0.357158
0.392021
0.425529
0.457931
0.489409
0.520093
0.550079
0.579441
0.608232
0.636491
0.664246
0.691517
0.718314
0.744645
0.770511
0.795908
0.820832
0.845274
0.869223
0.892665
0.915587
0.937972
0.959804
0.981064
1.00173
1.0218
1.04123
1.06002
1.07814
1.09557
1.1123
1.12831
1.14358
1.15809
1.17183
1.18478
1.19694
1.20827
1.21879
1.22847
1.23731
1.2453
1.25244
1.25872
1.26414
1.2687
1.27241
1.27527
1.27727
1.27844
1.27878
1.2783
1.27701
1.27493
1.27208
1.26846
1.26412
1.25905
1.25329
1.24685
1.23975
1.23202
1.22369
1.21478
1.20532
1.19533
1.18485
1.17391
1.16252
1.15073
1.13855
1.12603
1.11319
1.10006
1.08667
1.07305
1.05922
1.04522
1.03107
1.01679
1.00242
0.987983
0.973497
0.958989
0.944482
0.929997
0.915557
0.90118
0.886886
0.872693
0.858619
0.844679
0.830888
0.817261
0.803811
0.790549
0.777487
0.764635
0.752001
0.739594
0.72742
0.715487
0.703799
0.69236
0.681174
0.670244
0.659571
0.649156
0.639
0.629102
0.619461
0.610075
0.600941
0.592056
0.583416
0.575017
0.566855
0.558923
0.551216
0.543727
0.53645
0.529377
0.522501
0.515814
0.509308
0.502973
0.496806
0.490798
0.484939
0.479219
0.473628
0.468155
0.462791
0.457524
0.452344
0.447242
0.442207
0.437228
0.432296
0.427399
0.422528
0.417673
0.412823
0.407968
0.4031
0.398208
0.393282
0.388315
0.383298
0.378221
0.373078
0.367859
0.362559
0.35717
0.351685
0.3461
0.340409
0.334607
0.32869
0.322658
0.316506
0.310231
0.303831
0.297303
0.290646
0.283861
0.276947
0.269905
0.262735
0.25544
0.248019
0.240476
0.232811
0.225026
0.217122
0.209099
0.200958
0.192696
0.184311
0.175798
0.167149
0.158353
0.149393
0.140244
0.130877
0.121245
0.111285
0.100916
0.0899932
0.07832
0.0655677
0.0510007
0.0325031
0.00646312
0.0415677
0.133014
0.192071
0.239514
0.281676
0.320564
0.357156
0.392019
0.425528
0.457929
0.489407
0.520091
0.550077
0.579439
0.608229
0.636488
0.664243
0.691513
0.718311
0.744641
0.770507
0.795904
0.820828
0.84527
0.869218
0.892661
0.915582
0.937967
0.959799
0.981059
1.00173
1.02179
1.04122
1.06001
1.07813
1.09556
1.1123
1.1283
1.14357
1.15808
1.17182
1.18478
1.19693
1.20827
1.21878
1.22846
1.2373
1.24529
1.25243
1.25871
1.26413
1.2687
1.2724
1.27526
1.27727
1.27844
1.27877
1.27829
1.277
1.27492
1.27207
1.26846
1.26411
1.25904
1.25328
1.24684
1.23974
1.23202
1.22369
1.21478
1.20531
1.19533
1.18485
1.1739
1.16251
1.15072
1.13855
1.12603
1.11319
1.10006
1.08667
1.07304
1.05921
1.04521
1.03106
1.01679
1.00242
0.987977
0.973491
0.958983
0.944476
0.929991
0.915551
0.901174
0.88688
0.872687
0.858613
0.844673
0.830883
0.817256
0.803806
0.790544
0.777482
0.764629
0.751996
0.739589
0.727415
0.715482
0.703794
0.692355
0.68117
0.670239
0.659567
0.649152
0.638996
0.629098
0.619457
0.610071
0.600937
0.592052
0.583412
0.575014
0.566851
0.558919
0.551212
0.543723
0.536446
0.529373
0.522498
0.515811
0.509304
0.50297
0.496803
0.490795
0.484936
0.479217
0.473625
0.468153
0.462788
0.457521
0.452342
0.44724
0.442205
0.437226
0.432294
0.427397
0.422526
0.417671
0.412821
0.407966
0.403098
0.398206
0.393281
0.388314
0.383296
0.37822
0.373076
0.367858
0.362557
0.357168
0.351684
0.346099
0.340407
0.334605
0.328689
0.322657
0.316505
0.31023
0.30383
0.297302
0.290646
0.28386
0.276946
0.269904
0.262735
0.255439
0.248019
0.240475
0.23281
0.225025
0.217121
0.209099
0.200957
0.192696
0.184311
0.175798
0.167149
0.158352
0.149392
0.140244
0.130877
0.121245
0.111285
0.100916
0.089993
0.0783199
0.0655676
0.0510007
0.0325031
0.00646312
0.0620993
0.174037
0.241626
0.294622
0.34136
0.384487
0.425168
0.46403
0.501458
0.537709
0.572967
0.607362
0.640993
0.673933
0.706235
0.737941
0.769077
0.799663
0.829711
0.859226
0.888208
0.916655
0.944559
0.971911
0.998697
1.0249
1.05051
1.07551
1.09987
1.12359
1.14663
1.16898
1.19061
1.21151
1.23166
1.25103
1.2696
1.28736
1.30428
1.32036
1.33557
1.34989
1.36331
1.37583
1.38742
1.39808
1.4078
1.41658
1.4244
1.43127
1.43718
1.44214
1.44615
1.44921
1.45133
1.45252
1.45278
1.45214
1.4506
1.44818
1.44491
1.44079
1.43585
1.43012
1.42361
1.41635
1.40836
1.39968
1.39032
1.38031
1.36969
1.35849
1.34674
1.33446
1.3217
1.30848
1.29484
1.28081
1.26642
1.2517
1.23669
1.22141
1.20591
1.19021
1.17433
1.15832
1.14219
1.12599
1.10972
1.09343
1.07713
1.06086
1.04463
1.02847
1.01239
0.99643
0.980594
0.964904
0.949378
0.934031
0.918879
0.903935
0.889212
0.87472
0.860471
0.846474
0.832736
0.819265
0.806068
0.793149
0.780512
0.768161
0.756098
0.744323
0.732839
0.721644
0.710737
0.700116
0.689779
0.679721
0.66994
0.66043
0.651186
0.642202
0.633472
0.624988
0.616742
0.608728
0.600936
0.593358
0.585983
0.578807
0.571821
0.565014
0.558376
0.551894
0.545558
0.539357
0.533278
0.52731
0.521443
0.515663
0.509959
0.504321
0.498735
0.49319
0.487675
0.482179
0.476689
0.471195
0.465685
0.46015
0.454578
0.44896
0.443284
0.437543
0.431727
0.425826
0.419834
0.413742
0.407543
0.40123
0.394798
0.388242
0.381556
0.374739
0.367786
0.360694
0.353458
0.346077
0.338549
0.330874
0.323051
0.31508
0.306961
0.298696
0.290286
0.28173
0.273031
0.26419
0.255206
0.24608
0.236811
0.227398
0.217836
0.20812
0.198242
0.188191
0.177949
0.167494
0.156795
0.145806
0.134465
0.12268
0.110304
0.0971158
0.0827106
0.0661175
0.0443086
0.0100336
0.0621013
0.174038
0.241626
0.294621
0.341359
0.384485
0.425166
0.464028
0.501455
0.537707
0.572964
0.607359
0.64099
0.673929
0.706232
0.737937
0.769073
0.799659
0.829707
0.859221
0.888204
0.916651
0.944555
0.971906
0.998692
1.0249
1.05051
1.0755
1.09987
1.12358
1.14662
1.16897
1.1906
1.2115
1.23165
1.25102
1.26959
1.28735
1.30428
1.32035
1.33556
1.34988
1.36331
1.37582
1.38742
1.39808
1.4078
1.41657
1.42439
1.43126
1.43718
1.44214
1.44614
1.4492
1.45132
1.45251
1.45278
1.45213
1.45059
1.44818
1.4449
1.44078
1.43585
1.43011
1.42361
1.41635
1.40836
1.39967
1.39031
1.3803
1.36969
1.35848
1.34673
1.33446
1.32169
1.30848
1.29483
1.2808
1.26641
1.25169
1.23668
1.22141
1.2059
1.1902
1.17433
1.15831
1.14219
1.12598
1.10972
1.09342
1.07713
1.06085
1.04463
1.02846
1.01239
0.996424
0.980588
0.964899
0.949373
0.934026
0.918874
0.90393
0.889207
0.874715
0.860466
0.846469
0.832731
0.819261
0.806064
0.793145
0.780508
0.768157
0.756093
0.744319
0.732835
0.72164
0.710733
0.700112
0.689775
0.679718
0.669937
0.660427
0.651183
0.642199
0.633469
0.624984
0.616739
0.608725
0.600933
0.593355
0.58598
0.578804
0.571818
0.565012
0.558373
0.551892
0.545556
0.539354
0.533276
0.527308
0.521441
0.515661
0.509957
0.504319
0.498733
0.493188
0.487673
0.482177
0.476687
0.471193
0.465684
0.460149
0.454577
0.448958
0.443283
0.437542
0.431725
0.425825
0.419833
0.413741
0.407542
0.401229
0.394797
0.388241
0.381555
0.374739
0.367786
0.360693
0.353457
0.346076
0.338549
0.330873
0.32305
0.315079
0.306961
0.298696
0.290285
0.28173
0.273031
0.264189
0.255205
0.24608
0.236811
0.227397
0.217835
0.20812
0.198242
0.18819
0.177949
0.167494
0.156794
0.145806
0.134465
0.122679
0.110303
0.0971157
0.0827106
0.0661176
0.0443087
0.0100336
0.0821984
0.211413
0.286561
0.344307
0.394788
0.441273
0.485149
0.527129
0.567631
0.606923
0.64519
0.682563
0.719138
0.754985
0.790155
0.824687
0.858605
0.891928
0.924664
0.956817
0.988386
1.01937
1.04975
1.07951
1.10866
1.13716
1.165
1.19216
1.21863
1.24437
1.26936
1.29359
1.31704
1.33967
1.36147
1.38241
1.40248
1.42165
1.43991
1.45724
1.47361
1.48902
1.50345
1.51688
1.52931
1.54072
1.55111
1.56047
1.56879
1.57608
1.58234
1.58756
1.59174
1.59491
1.59705
1.59819
1.59833
1.59749
1.59568
1.59292
1.58924
1.58464
1.57917
1.57283
1.56565
1.55766
1.54889
1.53936
1.5291
1.51815
1.50654
1.49429
1.48145
1.46805
1.45411
1.43969
1.4248
1.40949
1.39379
1.37774
1.36136
1.3447
1.32779
1.31066
1.29334
1.27587
1.25828
1.2406
1.22285
1.20506
1.18728
1.16951
1.15178
1.13413
1.11657
1.09913
1.08182
1.06467
1.0477
1.03092
1.01434
0.997996
0.981885
0.966024
0.950426
0.935099
0.920053
0.905297
0.890837
0.876678
0.862826
0.849284
0.836054
0.823139
0.810539
0.798254
0.786282
0.774622
0.763272
0.752226
0.741482
0.731034
0.720876
0.711002
0.701405
0.692077
0.68301
0.674196
0.665625
0.657288
0.649177
0.641284
0.633598
0.626109
0.618803
0.611669
0.604695
0.597868
0.591177
0.584607
0.578148
0.571785
0.565507
0.5593
0.553152
0.54705
0.540982
0.534935
0.528896
0.522854
0.516796
0.510712
0.504589
0.498416
0.492183
0.48588
0.479497
0.473024
0.466453
0.459775
0.452982
0.446068
0.439027
0.431852
0.424539
0.417085
0.409483
0.401731
0.393826
0.385763
0.377543
0.369162
0.360621
0.351919
0.343055
0.334031
0.324846
0.315502
0.305997
0.296334
0.286511
0.276529
0.266385
0.256077
0.245603
0.234955
0.224127
0.213106
0.201877
0.19042
0.178702
0.166681
0.154295
0.14145
0.127992
0.113661
0.0979414
0.0796549
0.0549872
0.0136078
0.0822004
0.211414
0.286561
0.344306
0.394786
0.441271
0.485147
0.527127
0.567628
0.60692
0.645187
0.68256
0.719134
0.754981
0.790152
0.824683
0.858601
0.891924
0.92466
0.956813
0.988382
1.01936
1.04974
1.07951
1.10865
1.13716
1.165
1.19216
1.21862
1.24436
1.26936
1.29359
1.31703
1.33966
1.36146
1.38241
1.40247
1.42165
1.43991
1.45723
1.47361
1.48902
1.50344
1.51688
1.5293
1.54071
1.5511
1.56046
1.56879
1.57608
1.58233
1.58755
1.59174
1.5949
1.59704
1.59818
1.59832
1.59748
1.59567
1.59292
1.58923
1.58464
1.57916
1.57282
1.56564
1.55766
1.54888
1.53935
1.5291
1.51815
1.50653
1.49429
1.48145
1.46804
1.45411
1.43968
1.42479
1.40948
1.39378
1.37773
1.36136
1.3447
1.32779
1.31066
1.29334
1.27587
1.25828
1.24059
1.22284
1.20506
1.18727
1.1695
1.15178
1.13413
1.11657
1.09912
1.08182
1.06467
1.04769
1.03091
1.01434
0.997992
0.981881
0.96602
0.950422
0.935095
0.920049
0.905293
0.890833
0.876674
0.862822
0.84928
0.83605
0.823135
0.810535
0.79825
0.786279
0.774619
0.763269
0.752223
0.741479
0.731031
0.720873
0.710999
0.701402
0.692074
0.683008
0.674194
0.665623
0.657285
0.649174
0.641282
0.633596
0.626107
0.618801
0.611667
0.604693
0.597866
0.591175
0.584606
0.578146
0.571784
0.565505
0.559299
0.553151
0.547049
0.540981
0.534933
0.528895
0.522853
0.516795
0.510711
0.504588
0.498415
0.492182
0.485879
0.479496
0.473023
0.466452
0.459774
0.452981
0.446068
0.439026
0.431852
0.424539
0.417084
0.409483
0.401731
0.393825
0.385763
0.377542
0.369162
0.36062
0.351918
0.343055
0.334031
0.324846
0.315501
0.305997
0.296334
0.286511
0.276528
0.266384
0.256077
0.245602
0.234955
0.224126
0.213106
0.201877
0.190419
0.178702
0.166681
0.154295
0.141449
0.127992
0.113661
0.0979415
0.079655
0.0549874
0.0136078
0.102182
0.246509
0.328804
0.391094
0.44508
0.494605
0.541301
0.585994
0.629154
0.671072
0.71194
0.751892
0.791023
0.829399
0.867071
0.904072
0.940424
0.976143
1.01124
1.0457
1.07954
1.11273
1.14528
1.17716
1.20836
1.23887
1.26865
1.29769
1.32596
1.35345
1.38013
1.40597
1.43096
1.45506
1.47826
1.50053
1.52186
1.54221
1.56157
1.57992
1.59725
1.61354
1.62877
1.64293
1.65601
1.668
1.67889
1.68868
1.69737
1.70495
1.71142
1.71679
1.72106
1.72424
1.72634
1.72736
1.72733
1.72625
1.72415
1.72104
1.71694
1.71188
1.70588
1.69897
1.69117
1.68251
1.67302
1.66272
1.65166
1.63986
1.62736
1.61418
1.60038
1.58597
1.57101
1.55552
1.53954
1.52311
1.50627
1.48905
1.47149
1.45363
1.43549
1.41712
1.39855
1.37982
1.36095
1.34198
1.32295
1.30387
1.28479
1.26572
1.24671
1.22776
1.20891
1.19018
1.1716
1.15318
1.13495
1.11692
1.09911
1.08153
1.06421
1.04715
1.03038
1.01389
0.997694
0.981809
0.96624
0.950991
0.936069
0.921477
0.907218
0.893294
0.879706
0.866455
0.853538
0.840954
0.8287
0.816773
0.805168
0.793879
0.782901
0.772227
0.761849
0.75176
0.74195
0.732411
0.723132
0.714106
0.705324
0.696776
0.68845
0.680333
0.672414
0.66468
0.657116
0.649712
0.642453
0.635325
0.628316
0.621411
0.614598
0.607862
0.60119
0.594568
0.587984
0.581423
0.574873
0.568321
0.561754
0.55516
0.548527
0.541843
0.535097
0.528278
0.521376
0.514382
0.507285
0.500078
0.492752
0.485301
0.477717
0.469994
0.462128
0.454114
0.445948
0.437625
0.429141
0.420494
0.411682
0.402702
0.393553
0.384235
0.374746
0.365086
0.355256
0.345253
0.33508
0.324733
0.314214
0.30352
0.29265
0.281601
0.270368
0.258946
0.247328
0.235502
0.223453
0.211161
0.198596
0.185717
0.172457
0.158717
0.144329
0.128994
0.112107
0.0922562
0.0649496
0.0171853
0.102184
0.246509
0.328803
0.391092
0.445078
0.494602
0.541298
0.585992
0.629151
0.671069
0.711937
0.751889
0.791019
0.829396
0.867067
0.904068
0.940421
0.976139
1.01123
1.0457
1.07953
1.11273
1.14528
1.17716
1.20836
1.23886
1.26864
1.29768
1.32596
1.35345
1.38013
1.40597
1.43095
1.45506
1.47826
1.50053
1.52185
1.5422
1.56157
1.57992
1.59725
1.61353
1.62876
1.64292
1.656
1.66799
1.67889
1.68868
1.69736
1.70494
1.71142
1.71678
1.72106
1.72423
1.72633
1.72735
1.72732
1.72624
1.72414
1.72103
1.71693
1.71187
1.70588
1.69897
1.69117
1.6825
1.67301
1.66272
1.65165
1.63985
1.62735
1.61418
1.60037
1.58597
1.571
1.55552
1.53954
1.52311
1.50627
1.48905
1.47149
1.45362
1.43548
1.41712
1.39855
1.37981
1.36095
1.34198
1.32294
1.30387
1.28478
1.26572
1.2467
1.22776
1.20891
1.19018
1.1716
1.15318
1.13494
1.11691
1.0991
1.08153
1.06421
1.04715
1.03037
1.01388
0.99769
0.981806
0.966237
0.950988
0.936066
0.921474
0.907215
0.893291
0.879704
0.866452
0.853535
0.840951
0.828698
0.816771
0.805165
0.793877
0.782899
0.772224
0.761847
0.751757
0.741948
0.732409
0.72313
0.714104
0.705322
0.696774
0.688448
0.680332
0.672412
0.664678
0.657115
0.64971
0.642451
0.635323
0.628314
0.62141
0.614596
0.60786
0.601188
0.594567
0.587982
0.581422
0.574872
0.56832
0.561753
0.555159
0.548526
0.541842
0.535096
0.528277
0.521375
0.514381
0.507284
0.500077
0.492752
0.4853
0.477716
0.469994
0.462128
0.454114
0.445948
0.437624
0.429141
0.420494
0.411682
0.402702
0.393553
0.384235
0.374746
0.365086
0.355255
0.345253
0.335079
0.324733
0.314214
0.30352
0.29265
0.281601
0.270368
0.258946
0.247328
0.235501
0.223453
0.211161
0.198596
0.185716
0.172457
0.158717
0.144329
0.128994
0.112107
0.0922564
0.0649498
0.0171853
0.122099
0.280163
0.369378
0.436182
0.49364
0.546121
0.595507
0.642746
0.688371
0.732707
0.775961
0.818273
0.85974
0.900429
0.940385
0.979642
1.01822
1.05612
1.09337
1.12994
1.16584
1.20105
1.23556
1.26936
1.30242
1.33472
1.36625
1.39697
1.42687
1.45591
1.48408
1.51134
1.53768
1.56307
1.58748
1.6109
1.63329
1.65465
1.67494
1.69415
1.71227
1.72927
1.74515
1.75988
1.77347
1.78591
1.79717
1.80727
1.8162
1.82396
1.83056
1.83598
1.84025
1.84337
1.84535
1.84621
1.84595
1.8446
1.84217
1.83868
1.83416
1.82864
1.82213
1.81466
1.80626
1.79696
1.78679
1.77578
1.76397
1.75138
1.73806
1.72404
1.70935
1.69405
1.67815
1.6617
1.64474
1.62731
1.60944
1.59118
1.57256
1.55362
1.53439
1.51492
1.49523
1.47537
1.45537
1.43527
1.41508
1.39486
1.37462
1.35441
1.33423
1.31414
1.29414
1.27427
1.25454
1.23499
1.21563
1.19648
1.17756
1.15889
1.14048
1.12234
1.1045
1.08696
1.06973
1.05283
1.03625
1.02002
1.00412
0.988571
0.973372
0.958526
0.944033
0.929893
0.916106
0.90267
0.889581
0.876837
0.864432
0.85236
0.840617
0.829194
0.818084
0.807278
0.796768
0.786543
0.776595
0.766915
0.757494
0.74832
0.73938
0.730662
0.722152
0.713838
0.705705
0.69774
0.689929
0.682258
0.674713
0.667279
0.659942
0.652688
0.645503
0.638372
0.631282
0.624218
0.617167
0.610116
0.603051
0.59596
0.58883
0.581649
0.574406
0.56709
0.55969
0.552195
0.544598
0.536888
0.529059
0.521102
0.51301
0.504779
0.496401
0.487874
0.479191
0.470349
0.461344
0.452172
0.442832
0.43332
0.423634
0.413774
0.403738
0.393524
0.383131
0.372559
0.361805
0.350868
0.339747
0.328439
0.316941
0.305249
0.29336
0.281267
0.268962
0.256434
0.243669
0.230646
0.217337
0.203695
0.189654
0.175103
0.159855
0.143571
0.125561
0.104189
0.0744191
0.0207942
0.122101
0.280164
0.369377
0.43618
0.493638
0.546119
0.595504
0.642743
0.688368
0.732704
0.775958
0.81827
0.859737
0.900425
0.940382
0.979638
1.01821
1.05612
1.09336
1.12993
1.16583
1.20104
1.23556
1.26935
1.30241
1.33472
1.36624
1.39696
1.42686
1.4559
1.48407
1.51134
1.53768
1.56307
1.58748
1.61089
1.63329
1.65464
1.67494
1.69415
1.71226
1.72927
1.74514
1.75988
1.77347
1.7859
1.79717
1.80727
1.8162
1.82396
1.83055
1.83598
1.84025
1.84337
1.84535
1.8462
1.84595
1.84459
1.84216
1.83868
1.83416
1.82863
1.82212
1.81465
1.80625
1.79695
1.78678
1.77577
1.76396
1.75138
1.73805
1.72403
1.70935
1.69404
1.67814
1.6617
1.64474
1.6273
1.60944
1.59117
1.57255
1.55361
1.53438
1.51491
1.49523
1.47537
1.45537
1.43526
1.41508
1.39486
1.37462
1.3544
1.33423
1.31413
1.29414
1.27426
1.25454
1.23499
1.21562
1.19647
1.17755
1.15888
1.14047
1.12234
1.1045
1.08696
1.06973
1.05283
1.03625
1.02001
1.00412
0.988569
0.97337
0.958523
0.94403
0.929891
0.916104
0.902668
0.889579
0.876835
0.86443
0.852358
0.840615
0.829192
0.818082
0.807276
0.796766
0.786542
0.776593
0.766914
0.757493
0.748319
0.739379
0.73066
0.722151
0.713836
0.705704
0.697739
0.689928
0.682257
0.674712
0.667278
0.659941
0.652687
0.645502
0.638371
0.631281
0.624217
0.617166
0.610115
0.60305
0.595959
0.588829
0.581649
0.574406
0.567089
0.559689
0.552195
0.544597
0.536888
0.529058
0.521101
0.51301
0.504778
0.496401
0.487873
0.479191
0.470349
0.461343
0.452172
0.442831
0.433319
0.423634
0.413774
0.403737
0.393523
0.383131
0.372558
0.361804
0.350868
0.339747
0.328439
0.316941
0.305249
0.29336
0.281267
0.268961
0.256434
0.243669
0.230646
0.217337
0.203695
0.189654
0.175103
0.159856
0.143571
0.125561
0.104189
0.0744194
0.0207942
0.1421
0.312971
0.408935
0.480289
0.541271
0.596735
0.648801
0.698544
0.746567
0.793234
0.838774
0.883337
0.927024
0.969905
1.01202
1.05341
1.09408
1.13405
1.17331
1.21186
1.24969
1.28679
1.32314
1.35871
1.3935
1.42747
1.4606
1.49287
1.52424
1.5547
1.58422
1.61277
1.64032
1.66685
1.69234
1.71676
1.74009
1.76231
1.78339
1.80333
1.8221
1.83969
1.85609
1.87129
1.88527
1.89802
1.90956
1.91986
1.92894
1.93679
1.94341
1.94881
1.95301
1.956
1.9578
1.95843
1.9579
1.95624
1.95345
1.94956
1.9446
1.93859
1.93157
1.92354
1.91456
1.90464
1.89381
1.88212
1.86959
1.85627
1.84218
1.82737
1.81186
1.79571
1.77896
1.76163
1.74377
1.72541
1.70661
1.6874
1.66781
1.64789
1.62767
1.60719
1.5865
1.56562
1.54459
1.52345
1.50223
1.48096
1.45968
1.43841
1.4172
1.39605
1.37501
1.35409
1.33333
1.31274
1.29235
1.27218
1.25224
1.23256
1.21316
1.19403
1.17521
1.1567
1.13852
1.12067
1.10316
1.086
1.0692
1.05276
1.03668
1.02097
1.00562
0.990646
0.976037
0.961793
0.947912
0.93439
0.921221
0.908401
0.895922
0.883779
0.871962
0.860463
0.849273
0.838381
0.82778
0.817461
0.807413
0.797622
0.788076
0.778762
0.769666
0.760774
0.752073
0.743548
0.735185
0.726968
0.718883
0.710916
0.703051
0.695274
0.68757
0.679924
0.672322
0.66475
0.657193
0.649637
0.64207
0.634479
0.62685
0.619171
0.611431
0.603618
0.595722
0.587734
0.579642
0.57144
0.563118
0.55467
0.546088
0.537367
0.528501
0.519486
0.510316
0.500987
0.491496
0.481838
0.47201
0.462011
0.451837
0.441485
0.430955
0.420243
0.409347
0.398265
0.386994
0.375532
0.363876
0.352021
0.339965
0.327701
0.315226
0.302532
0.289611
0.276451
0.263038
0.249351
0.235358
0.221013
0.206241
0.19092
0.174842
0.157626
0.1385
0.115635
0.0834728
0.0244364
0.142102
0.312971
0.408933
0.480286
0.541268
0.596732
0.648798
0.698541
0.746564
0.793231
0.83877
0.883333
0.927021
0.969901
1.01202
1.05341
1.09408
1.13405
1.17331
1.21186
1.24969
1.28679
1.32313
1.35871
1.3935
1.42747
1.4606
1.49286
1.52424
1.5547
1.58422
1.61276
1.64032
1.66685
1.69234
1.71675
1.74008
1.7623
1.78339
1.80333
1.8221
1.83969
1.85609
1.87128
1.88526
1.89802
1.90955
1.91986
1.92893
1.93678
1.9434
1.94881
1.953
1.95599
1.9578
1.95843
1.9579
1.95623
1.95344
1.94956
1.9446
1.93859
1.93156
1.92354
1.91455
1.90463
1.89381
1.88212
1.86959
1.85626
1.84217
1.82736
1.81186
1.79571
1.77895
1.76162
1.74376
1.72541
1.70661
1.68739
1.6678
1.64788
1.62766
1.60719
1.58649
1.56561
1.54458
1.52344
1.50222
1.48096
1.45968
1.43841
1.41719
1.39605
1.37501
1.35409
1.33333
1.31274
1.29235
1.27218
1.25224
1.23256
1.21315
1.19403
1.17521
1.1567
1.13852
1.12067
1.10316
1.086
1.0692
1.05275
1.03668
1.02096
1.00562
0.990644
0.976035
0.961791
0.94791
0.934388
0.921219
0.908399
0.895921
0.883777
0.87196
0.860461
0.849271
0.83838
0.827779
0.81746
0.807411
0.79762
0.788074
0.77876
0.769664
0.760773
0.752072
0.743547
0.735183
0.726967
0.718882
0.710915
0.70305
0.695273
0.687569
0.679923
0.672321
0.664749
0.657192
0.649637
0.64207
0.634478
0.626849
0.61917
0.61143
0.603617
0.595722
0.587733
0.579642
0.57144
0.563118
0.55467
0.546088
0.537367
0.528501
0.519485
0.510315
0.500987
0.491495
0.481837
0.47201
0.462011
0.451836
0.441485
0.430955
0.420243
0.409347
0.398265
0.386994
0.375532
0.363876
0.352021
0.339964
0.327701
0.315226
0.302532
0.28961
0.276451
0.263038
0.249351
0.235358
0.221013
0.206241
0.19092
0.174843
0.157627
0.1385
0.115636
0.0834731
0.0244365
0.162337
0.345335
0.447961
0.523924
0.588518
0.647043
0.701844
0.754121
0.80455
0.853536
0.901334
0.94811
0.99397
1.03899
1.08321
1.12666
1.16936
1.21132
1.25253
1.29298
1.33266
1.37156
1.40965
1.44692
1.48334
1.51888
1.55353
1.58724
1.62
1.65177
1.68253
1.71226
1.74092
1.76848
1.79494
1.82025
1.84441
1.86738
1.88915
1.90971
1.92903
1.9471
1.96392
1.97947
1.99374
2.00673
2.01843
2.02885
2.03799
2.04584
2.05242
2.05773
2.06177
2.06458
2.06615
2.0665
2.06565
2.06363
2.06045
2.05613
2.05071
2.0442
2.03665
2.02807
2.01849
2.00795
1.99649
1.98413
1.97091
1.95688
1.94205
1.92649
1.91021
1.89327
1.8757
1.85754
1.83884
1.81963
1.79996
1.77986
1.75937
1.73855
1.71741
1.69601
1.67438
1.65256
1.63059
1.60849
1.58631
1.56409
1.54184
1.51961
1.49743
1.47532
1.45331
1.43143
1.4097
1.38815
1.36681
1.34569
1.3248
1.30418
1.28384
1.26379
1.24405
1.22464
1.20555
1.18681
1.16842
1.15039
1.13272
1.11543
1.09851
1.08197
1.06581
1.05003
1.03463
1.01961
1.00496
0.990681
0.976768
0.963216
0.950018
0.937166
0.924653
0.912469
0.900605
0.889051
0.8778
0.866842
0.856163
0.845752
0.835595
0.825678
0.815988
0.80651
0.79723
0.788134
0.779205
0.770429
0.761791
0.753276
0.744867
0.736551
0.728312
0.720136
0.712006
0.703909
0.69583
0.687756
0.679672
0.671566
0.663425
0.655237
0.64699
0.638672
0.630274
0.621785
0.613197
0.6045
0.595687
0.58675
0.577683
0.568481
0.559137
0.549647
0.540005
0.530209
0.520252
0.510133
0.499846
0.489389
0.478758
0.467951
0.456964
0.445793
0.434436
0.422888
0.411146
0.399205
0.387062
0.37471
0.362144
0.349359
0.336348
0.323104
0.309615
0.295872
0.281857
0.267548
0.252912
0.237896
0.222419
0.206347
0.18945
0.171305
0.151062
0.126729
0.092233
0.0280839
0.162339
0.345335
0.447959