/*--------------------------------*- C++ -*----------------------------------*\
  =========                 |
  \\      /  F ield         | OpenFOAM: The Open Source CFD Toolbox
   \\    /   O peration     | Website:  https://openfoam.org
    \\  /    A nd           | Version:  8
     \\/     M anipulation  |
\*---------------------------------------------------------------------------*/
FoamFile
{
    version     2.0;
    format      ascii;
    class       volScalarField;
    location    "2600";
    object      nut;
}
// * * * * * * * * * * * * * * * * * * * * * * * * * * * * * * * * * * * * * //

dimensions      [0 2 -1 0 0 0 0];

internalField   nonuniform List<scalar> 
46000
(
3.23854e-07
1.57146e-06
3.11911e-06
4.59745e-06
6.0048e-06
7.37234e-06
8.70902e-06
1.0021e-05
1.13151e-05
1.25954e-05
1.38703e-05
1.51314e-05
1.63844e-05
1.76305e-05
1.887e-05
2.01029e-05
2.13288e-05
2.25472e-05
2.37573e-05
2.49582e-05
2.61491e-05
2.73287e-05
2.84959e-05
2.96494e-05
3.07879e-05
3.19101e-05
3.30144e-05
3.40995e-05
3.51639e-05
3.6206e-05
3.72244e-05
3.82175e-05
3.91839e-05
4.0122e-05
4.10304e-05
4.19077e-05
4.27524e-05
4.35632e-05
4.43389e-05
4.50781e-05
4.57797e-05
4.64426e-05
4.70658e-05
4.76484e-05
4.81895e-05
4.86884e-05
4.91445e-05
4.95572e-05
4.99261e-05
5.02508e-05
5.05313e-05
5.07673e-05
5.0959e-05
5.11064e-05
5.12098e-05
5.12696e-05
5.12863e-05
5.12605e-05
5.11928e-05
5.10841e-05
5.09355e-05
5.07484e-05
5.05254e-05
5.02678e-05
4.99747e-05
4.9647e-05
4.92862e-05
4.88935e-05
4.84704e-05
4.80186e-05
4.75394e-05
4.70345e-05
4.65056e-05
4.59542e-05
4.53821e-05
4.47908e-05
4.4182e-05
4.35573e-05
4.29185e-05
4.2267e-05
4.16046e-05
4.09326e-05
4.02528e-05
3.95665e-05
3.88753e-05
3.81804e-05
3.74833e-05
3.67853e-05
3.60877e-05
3.53915e-05
3.46981e-05
3.40083e-05
3.33234e-05
3.26441e-05
3.19715e-05
3.13064e-05
3.06495e-05
3.00016e-05
2.93633e-05
2.87352e-05
2.81178e-05
2.75117e-05
2.69173e-05
2.63348e-05
2.57647e-05
2.52073e-05
2.46626e-05
2.4131e-05
2.36124e-05
2.31071e-05
2.2615e-05
2.21361e-05
2.16705e-05
2.12179e-05
2.07784e-05
2.03517e-05
1.99377e-05
1.95362e-05
1.9147e-05
1.87698e-05
1.84044e-05
1.80504e-05
1.77076e-05
1.73757e-05
1.70542e-05
1.67429e-05
1.64414e-05
1.61493e-05
1.58662e-05
1.55917e-05
1.53254e-05
1.5067e-05
1.4816e-05
1.4572e-05
1.43345e-05
1.41032e-05
1.38781e-05
1.36582e-05
1.34433e-05
1.32328e-05
1.30263e-05
1.28234e-05
1.26237e-05
1.24267e-05
1.2232e-05
1.20393e-05
1.18482e-05
1.16582e-05
1.14689e-05
1.12801e-05
1.10914e-05
1.09024e-05
1.07127e-05
1.05222e-05
1.03305e-05
1.01374e-05
9.94256e-06
9.74579e-06
9.5469e-06
9.3457e-06
9.14204e-06
8.93577e-06
8.72677e-06
8.51501e-06
8.30172e-06
8.08648e-06
7.86864e-06
7.64811e-06
7.42492e-06
7.19916e-06
6.97094e-06
6.74041e-06
6.50774e-06
6.2731e-06
6.03671e-06
5.79879e-06
5.55958e-06
5.31932e-06
5.07828e-06
4.83672e-06
4.59489e-06
4.35306e-06
4.11147e-06
3.87034e-06
3.62989e-06
3.39025e-06
3.15125e-06
2.91281e-06
2.67604e-06
2.43993e-06
2.2043e-06
1.96877e-06
1.73233e-06
1.49389e-06
1.25539e-06
1.01208e-06
7.59892e-07
4.96439e-07
2.32991e-07
4.44904e-08
3.23874e-07
1.57155e-06
3.11924e-06
4.59759e-06
6.00495e-06
7.37249e-06
8.70917e-06
1.00212e-05
1.13152e-05
1.25956e-05
1.38705e-05
1.51316e-05
1.63846e-05
1.76306e-05
1.88702e-05
2.0103e-05
2.13289e-05
2.25473e-05
2.37574e-05
2.49583e-05
2.61492e-05
2.73288e-05
2.8496e-05
2.96495e-05
3.0788e-05
3.19102e-05
3.30145e-05
3.40996e-05
3.5164e-05
3.62061e-05
3.72245e-05
3.82176e-05
3.9184e-05
4.01221e-05
4.10305e-05
4.19078e-05
4.27525e-05
4.35633e-05
4.43389e-05
4.50781e-05
4.57797e-05
4.64426e-05
4.70659e-05
4.76484e-05
4.81896e-05
4.86885e-05
4.91445e-05
4.95572e-05
4.99261e-05
5.02508e-05
5.05313e-05
5.07673e-05
5.0959e-05
5.11064e-05
5.12098e-05
5.12696e-05
5.12863e-05
5.12605e-05
5.11928e-05
5.10841e-05
5.09355e-05
5.07483e-05
5.05254e-05
5.02677e-05
4.99746e-05
4.9647e-05
4.92862e-05
4.88935e-05
4.84704e-05
4.80185e-05
4.75394e-05
4.70345e-05
4.65056e-05
4.59542e-05
4.5382e-05
4.47907e-05
4.41819e-05
4.35573e-05
4.29184e-05
4.2267e-05
4.16045e-05
4.09326e-05
4.02528e-05
3.95665e-05
3.88752e-05
3.81804e-05
3.74833e-05
3.67853e-05
3.60876e-05
3.53915e-05
3.4698e-05
3.40083e-05
3.33233e-05
3.26441e-05
3.19715e-05
3.13063e-05
3.06495e-05
3.00015e-05
2.93632e-05
2.87351e-05
2.81178e-05
2.75117e-05
2.69172e-05
2.63348e-05
2.57647e-05
2.52072e-05
2.46626e-05
2.41309e-05
2.36124e-05
2.3107e-05
2.26149e-05
2.21361e-05
2.16704e-05
2.12178e-05
2.07783e-05
2.03516e-05
1.99376e-05
1.95361e-05
1.91469e-05
1.87697e-05
1.84043e-05
1.80504e-05
1.77076e-05
1.73756e-05
1.70542e-05
1.67429e-05
1.64413e-05
1.61492e-05
1.58661e-05
1.55916e-05
1.53254e-05
1.50669e-05
1.48159e-05
1.4572e-05
1.43344e-05
1.41032e-05
1.3878e-05
1.36582e-05
1.34432e-05
1.32327e-05
1.30262e-05
1.28233e-05
1.26236e-05
1.24266e-05
1.2232e-05
1.20393e-05
1.18481e-05
1.16581e-05
1.14689e-05
1.12801e-05
1.10913e-05
1.09023e-05
1.07127e-05
1.05222e-05
1.03305e-05
1.01374e-05
9.94251e-06
9.74575e-06
9.54686e-06
9.34566e-06
9.142e-06
8.93573e-06
8.72673e-06
8.51498e-06
8.30168e-06
8.08644e-06
7.86861e-06
7.64808e-06
7.42489e-06
7.19913e-06
6.97091e-06
6.74039e-06
6.50771e-06
6.27307e-06
6.03668e-06
5.79877e-06
5.55955e-06
5.3193e-06
5.07826e-06
4.8367e-06
4.59487e-06
4.35304e-06
4.11145e-06
3.87033e-06
3.62988e-06
3.39024e-06
3.15124e-06
2.9128e-06
2.67604e-06
2.43993e-06
2.20429e-06
1.96877e-06
1.73232e-06
1.49389e-06
1.25539e-06
1.01208e-06
7.59894e-07
4.9644e-07
2.32991e-07
4.44906e-08
1.42493e-06
2.78623e-05
5.09758e-05
6.66857e-05
7.86956e-05
8.85104e-05
9.69092e-05
0.000104374
0.000111166
0.000117442
0.000123308
0.00012885
0.000134116
0.000139143
0.00014396
0.000148589
0.000153049
0.000157353
0.000161512
0.000165537
0.000169434
0.000173209
0.000176867
0.000180412
0.000183847
0.000187175
0.000190397
0.000193515
0.00019653
0.000199443
0.000202255
0.000204965
0.000207574
0.000210081
0.000212487
0.000214791
0.000216994
0.000219093
0.00022109
0.000222984
0.000224774
0.00022646
0.000228041
0.000229517
0.000230889
0.000232155
0.000233316
0.000234372
0.000235322
0.000236167
0.000236908
0.000237544
0.000238077
0.000238506
0.000238834
0.000239059
0.000239185
0.000239212
0.00023914
0.000238971
0.000238707
0.000238346
0.000237887
0.000237334
0.000236692
0.000235965
0.000235156
0.000234267
0.000233301
0.000232262
0.000231151
0.000229971
0.000228727
0.000227419
0.000226052
0.000224628
0.00022315
0.000221623
0.000220047
0.000218428
0.000216767
0.000215068
0.000213334
0.000211569
0.000209774
0.000207954
0.00020611
0.000204247
0.000202367
0.000200473
0.000198567
0.000196652
0.000194731
0.000192807
0.000190882
0.000188958
0.000187038
0.000185124
0.000183218
0.000181322
0.000179438
0.000177569
0.000175715
0.000173878
0.000172061
0.000170264
0.000168489
0.000166736
0.000165008
0.000163306
0.000161629
0.000159979
0.000158357
0.000156764
0.000155198
0.000153662
0.000152156
0.000150679
0.000149231
0.000147813
0.000146425
0.000145065
0.000143735
0.000142432
0.000141158
0.000139911
0.000138691
0.000137496
0.000136326
0.00013518
0.000134057
0.000132957
0.000131877
0.000130818
0.000129777
0.000128754
0.000127746
0.000126751
0.000125769
0.000124797
0.000123835
0.000122881
0.000121932
0.000120988
0.000120046
0.000119106
0.000118164
0.00011722
0.000116271
0.000115316
0.000114353
0.000113381
0.000112397
0.000111401
0.00011039
0.000109362
0.000108317
0.000107253
0.000106168
0.00010506
0.000103929
0.000102772
0.000101588
0.000100372
9.91134e-05
9.78216e-05
9.64965e-05
9.51377e-05
9.37448e-05
9.23169e-05
9.08533e-05
8.93532e-05
8.78158e-05
8.62402e-05
8.46254e-05
8.29705e-05
8.12744e-05
7.95358e-05
7.77533e-05
7.5925e-05
7.4049e-05
7.21228e-05
7.01433e-05
6.81067e-05
6.60084e-05
6.38427e-05
6.1603e-05
5.92795e-05
5.68534e-05
5.43059e-05
5.16111e-05
4.87304e-05
4.56022e-05
4.21232e-05
3.8075e-05
3.33563e-05
2.75874e-05
2.00152e-05
9.25638e-06
2.06219e-07
1.42501e-06
2.78645e-05
5.09792e-05
6.66895e-05
7.86995e-05
8.85144e-05
9.69133e-05
0.000104378
0.00011117
0.000117446
0.000123312
0.000128854
0.00013412
0.000139147
0.000143964
0.000148594
0.000153053
0.000157357
0.000161517
0.000165542
0.000169439
0.000173214
0.000176872
0.000180417
0.000183853
0.00018718
0.000190403
0.000193521
0.000196536
0.000199449
0.000202261
0.000204971
0.000207579
0.000210087
0.000212493
0.000214797
0.000217
0.0002191
0.000221096
0.00022299
0.00022478
0.000226466
0.000228047
0.000229524
0.000230895
0.000232162
0.000233322
0.000234378
0.000235328
0.000236174
0.000236914
0.000237551
0.000238083
0.000238513
0.00023884
0.000239066
0.000239191
0.000239218
0.000239146
0.000238978
0.000238713
0.000238352
0.000237893
0.00023734
0.000236698
0.000235971
0.000235162
0.000234273
0.000233307
0.000232268
0.000231157
0.000229977
0.000228732
0.000227425
0.000226057
0.000224633
0.000223156
0.000221628
0.000220053
0.000218433
0.000216772
0.000215073
0.000213339
0.000211574
0.000209779
0.000207959
0.000206115
0.000204252
0.000202372
0.000200477
0.000198571
0.000196656
0.000194736
0.000192811
0.000190886
0.000188962
0.000187042
0.000185128
0.000183222
0.000181326
0.000179442
0.000177572
0.000175718
0.000173882
0.000172064
0.000170267
0.000168492
0.00016674
0.000165011
0.000163309
0.000161632
0.000159982
0.00015836
0.000156766
0.000155201
0.000153665
0.000152158
0.000150681
0.000149233
0.000147815
0.000146427
0.000145067
0.000143737
0.000142434
0.00014116
0.000139913
0.000138692
0.000137497
0.000136328
0.000135182
0.000134059
0.000132958
0.000131878
0.000130819
0.000129779
0.000128755
0.000127747
0.000126752
0.00012577
0.000124798
0.000123836
0.000122882
0.000121933
0.000120989
0.000120047
0.000119106
0.000118165
0.00011722
0.000116271
0.000115317
0.000114354
0.000113381
0.000112398
0.000111401
0.00011039
0.000109363
0.000108318
0.000107253
0.000106168
0.000105061
0.000103929
0.000102772
0.000101588
0.000100372
9.91135e-05
9.78217e-05
9.64966e-05
9.51378e-05
9.37449e-05
9.2317e-05
9.08534e-05
8.93533e-05
8.78158e-05
8.62402e-05
8.46254e-05
8.29706e-05
8.12745e-05
7.95359e-05
7.77533e-05
7.59251e-05
7.40491e-05
7.21229e-05
7.01433e-05
6.81068e-05
6.60085e-05
6.38427e-05
6.16031e-05
5.92796e-05
5.68535e-05
5.4306e-05
5.16112e-05
4.87305e-05
4.56023e-05
4.21233e-05
3.80751e-05
3.33563e-05
2.75875e-05
2.00152e-05
9.25634e-06
2.0622e-07
2.87822e-06
4.93887e-05
9.92054e-05
0.000136168
0.000164625
0.000187556
0.000206791
0.00022344
0.000238201
0.000251531
0.000263734
0.00027503
0.000285575
0.000295482
0.000304838
0.00031371
0.000322153
0.000330208
0.00033791
0.000345288
0.000352365
0.000359159
0.000365687
0.000371962
0.000377996
0.000383799
0.000389378
0.00039474
0.000399893
0.000404839
0.000409585
0.000414134
0.00041849
0.000422654
0.00042663
0.000430421
0.000434027
0.000437451
0.000440694
0.000443759
0.000446645
0.000449356
0.000451891
0.000454252
0.00045644
0.000458457
0.000460303
0.000461981
0.00046349
0.000464833
0.000466012
0.000467026
0.000467879
0.000468571
0.000469105
0.000469482
0.000469704
0.000469772
0.000469689
0.000469457
0.000469075
0.000468544
0.000467863
0.000467037
0.000466071
0.000464972
0.000463745
0.000462394
0.000460923
0.000459336
0.000457637
0.000455829
0.000453917
0.000451906
0.000449798
0.000447598
0.000445311
0.00044294
0.000440491
0.000437967
0.000435372
0.000432712
0.00042999
0.00042721
0.000424378
0.000421498
0.000418574
0.000415609
0.00041261
0.000409579
0.00040652
0.000403439
0.000400339
0.000397223
0.000394097
0.000390963
0.000387825
0.000384687
0.000381552
0.000378424
0.000375305
0.0003722
0.00036911
0.000366039
0.000362989
0.000359963
0.000356963
0.000353992
0.000351051
0.000348143
0.000345268
0.00034243
0.000339628
0.000336864
0.00033414
0.000331456
0.000328812
0.00032621
0.00032365
0.000321131
0.000318653
0.000316217
0.000313823
0.000311468
0.000309154
0.000306879
0.000304641
0.00030244
0.000300275
0.000298144
0.000296046
0.000293979
0.000291942
0.000289933
0.000287948
0.000285984
0.00028404
0.000282112
0.000280199
0.000278297
0.000276405
0.000274518
0.000272635
0.000270753
0.000268868
0.000266978
0.000265079
0.000263169
0.000261244
0.000259302
0.000257339
0.000255353
0.000253341
0.000251299
0.000249225
0.000247117
0.000244971
0.000242785
0.000240555
0.00023828
0.000235957
0.000233581
0.00023115
0.000228656
0.000226089
0.000223454
0.000220751
0.000217979
0.000215138
0.000212225
0.000209239
0.000206177
0.000203037
0.000199815
0.000196509
0.000193115
0.000189627
0.000186042
0.000182354
0.000178555
0.000174638
0.000170593
0.00016641
0.000162073
0.000157566
0.00015287
0.000147956
0.000142791
0.000137326
0.000131499
0.000125222
0.000118365
0.000110747
0.000102095
9.19728e-05
7.98048e-05
6.4678e-05
4.49834e-05
1.91678e-05
4.43985e-07
2.87834e-06
4.93919e-05
9.92122e-05
0.000136176
0.000164634
0.000187566
0.0002068
0.000223449
0.000238211
0.00025154
0.000263743
0.00027504
0.000285585
0.000295491
0.000304847
0.000313719
0.000322162
0.000330217
0.000337919
0.000345297
0.000352374
0.000359168
0.000365696
0.000371971
0.000378006
0.000383808
0.000389387
0.00039475
0.000399902
0.000404849
0.000409595
0.000414144
0.000418499
0.000422664
0.00042664
0.00043043
0.000434036
0.00043746
0.000440704
0.000443768
0.000446655
0.000449365
0.0004519
0.000454261
0.00045645
0.000458467
0.000460313
0.00046199
0.0004635
0.000464843
0.000466021
0.000467036
0.000467888
0.00046858
0.000469114
0.000469491
0.000469713
0.000469781
0.000469699
0.000469466
0.000469084
0.000468553
0.000467872
0.000467045
0.000466079
0.000464981
0.000463753
0.000462402
0.000460931
0.000459344
0.000457645
0.000455837
0.000453925
0.000451913
0.000449805
0.000447606
0.000445318
0.000442948
0.000440498
0.000437974
0.000435379
0.000432718
0.000429996
0.000427217
0.000424385
0.000421504
0.00041858
0.000415615
0.000412616
0.000409584
0.000406526
0.000403445
0.000400344
0.000397229
0.000394102
0.000390968
0.00038783
0.000384691
0.000381557
0.000378428
0.00037531
0.000372204
0.000369114
0.000366043
0.000362993
0.000359967
0.000356967
0.000353996
0.000351055
0.000348146
0.000345272
0.000342433
0.000339631
0.000336867
0.000334143
0.000331458
0.000328815
0.000326213
0.000323652
0.000321133
0.000318655
0.000316219
0.000313824
0.00031147
0.000309156
0.00030688
0.000304642
0.000302442
0.000300276
0.000298145
0.000296047
0.00029398
0.000291943
0.000289934
0.000287948
0.000285985
0.00028404
0.000282113
0.000280199
0.000278297
0.000276405
0.000274518
0.000272635
0.000270753
0.000268868
0.000266978
0.000265079
0.000263168
0.000261244
0.000259301
0.000257339
0.000255352
0.00025334
0.000251298
0.000249225
0.000247116
0.00024497
0.000242784
0.000240554
0.000238279
0.000235956
0.00023358
0.000231149
0.000228655
0.000226088
0.000223453
0.00022075
0.000217978
0.000215137
0.000212224
0.000209238
0.000206176
0.000203036
0.000199814
0.000196508
0.000193114
0.000189627
0.000186042
0.000182353
0.000178554
0.000174637
0.000170593
0.000166409
0.000162072
0.000157566
0.000152869
0.000147955
0.00014279
0.000137325
0.000131499
0.000125221
0.000118365
0.000110747
0.000102095
9.19728e-05
7.98048e-05
6.4678e-05
4.49835e-05
1.91677e-05
4.43986e-07
4.31352e-06
6.42967e-05
0.000134439
0.000190804
0.000235933
0.00027303
0.000304367
0.000331473
0.000355383
0.000376817
0.00039628
0.000414144
0.000430679
0.000446092
0.000460538
0.000474141
0.000486999
0.00049919
0.000510778
0.000521815
0.000532343
0.0005424
0.000552015
0.000561214
0.000570019
0.000578448
0.000586517
0.000594241
0.000601631
0.000608699
0.000615453
0.000621901
0.000628052
0.000633913
0.000639488
0.000644783
0.000649804
0.000654555
0.000659041
0.000663265
0.000667231
0.000670943
0.000674405
0.000677619
0.000680588
0.000683317
0.000685808
0.000688063
0.000690087
0.000691881
0.000693449
0.000694794
0.000695919
0.000696827
0.000697521
0.000698003
0.000698278
0.000698347
0.000698213
0.000697879
0.000697347
0.000696618
0.000695695
0.00069458
0.000693281
0.000691805
0.000690159
0.000688347
0.000686376
0.000684251
0.000681975
0.000679556
0.000676998
0.000674305
0.000671484
0.00066854
0.000665477
0.000662302
0.00065902
0.000655637
0.000652157
0.000648586
0.000644931
0.000641196
0.000637387
0.00063351
0.00062957
0.000625573
0.000621525
0.000617429
0.000613293
0.000609121
0.000604919
0.000600691
0.000596443
0.00059218
0.000587906
0.000583626
0.000579345
0.000575067
0.000570796
0.000566537
0.000562293
0.000558068
0.000553866
0.000549689
0.000545542
0.000541428
0.000537348
0.000533305
0.000529302
0.000525341
0.000521424
0.000517552
0.000513727
0.00050995
0.000506222
0.000502543
0.000498914
0.000495335
0.000491806
0.000488326
0.000484896
0.000481514
0.00047818
0.000474892
0.000471649
0.000468449
0.00046529
0.000462172
0.000459092
0.000456047
0.000453036
0.000450054
0.000447098
0.000444163
0.000441248
0.000438348
0.00043546
0.000432581
0.000429706
0.000426833
0.000423957
0.000421074
0.000418181
0.000415273
0.000412346
0.000409396
0.000406419
0.000403411
0.000400369
0.000397287
0.000394163
0.000390993
0.000387772
0.000384498
0.000381166
0.000377772
0.000374314
0.000370788
0.000367188
0.000363512
0.000359753
0.000355905
0.000351961
0.000347918
0.000343776
0.000339534
0.000335188
0.000330737
0.000326175
0.000321499
0.000316704
0.000311784
0.000306732
0.000301541
0.000296202
0.000290706
0.000285039
0.00027919
0.000273141
0.000266873
0.000260365
0.000253588
0.000246509
0.000239087
0.00023127
0.000222991
0.000214163
0.00020467
0.000194354
0.000182999
0.000170303
0.000155835
0.000138975
0.000118857
9.42718e-05
6.35401e-05
2.62324e-05
6.91411e-07
4.31365e-06
6.43003e-05
0.000134448
0.000190815
0.000235946
0.000273044
0.000304382
0.000331487
0.000355398
0.000376831
0.000396294
0.000414158
0.000430693
0.000446105
0.000460552
0.000474155
0.000487013
0.000499204
0.000510791
0.000521828
0.000532357
0.000542413
0.000552029
0.000561227
0.000570032
0.000578461
0.00058653
0.000594254
0.000601644
0.000608712
0.000615465
0.000621914
0.000628065
0.000633925
0.0006395
0.000644796
0.000649817
0.000654568
0.000659053
0.000663277
0.000667244
0.000670956
0.000674417
0.000677631
0.000680601
0.000683329
0.00068582
0.000688075
0.000690098
0.000691893
0.000693461
0.000694806
0.000695931
0.000696838
0.000697532
0.000698015
0.000698289
0.000698358
0.000698224
0.00069789
0.000697358
0.000696629
0.000695705
0.00069459
0.000693291
0.000691815
0.000690169
0.000688357
0.000686386
0.00068426
0.000681985
0.000679565
0.000677006
0.000674314
0.000671493
0.000668548
0.000665486
0.00066231
0.000659028
0.000655644
0.000652164
0.000648594
0.000644938
0.000641203
0.000637394
0.000633517
0.000629577
0.00062558
0.000621531
0.000617435
0.000613299
0.000609127
0.000604925
0.000600697
0.000596449
0.000592185
0.000587911
0.000583631
0.00057935
0.000575071
0.0005708
0.000566541
0.000562297
0.000558072
0.000553869
0.000549693
0.000545546
0.000541431
0.000537351
0.000533308
0.000529305
0.000525344
0.000521427
0.000517555
0.00051373
0.000509952
0.000506224
0.000502545
0.000498915
0.000495336
0.000491807
0.000488327
0.000484897
0.000481515
0.000478181
0.000474893
0.000471649
0.000468449
0.000465291
0.000462172
0.000459092
0.000456048
0.000453036
0.000450054
0.000447097
0.000444163
0.000441247
0.000438347
0.000435459
0.00043258
0.000429706
0.000426832
0.000423956
0.000421073
0.00041818
0.000415271
0.000412344
0.000409394
0.000406417
0.00040341
0.000400367
0.000397286
0.000394162
0.000390991
0.000387771
0.000384496
0.000381164
0.000377771
0.000374312
0.000370786
0.000367186
0.00036351
0.000359751
0.000355903
0.000351958
0.000347916
0.000343774
0.000339532
0.000335186
0.000330735
0.000326173
0.000321497
0.000316702
0.000311782
0.00030673
0.000301539
0.000296201
0.000290704
0.000285038
0.000279188
0.000273139
0.000266872
0.000260363
0.000253586
0.000246508
0.000239086
0.000231269
0.00022299
0.000214162
0.000204669
0.000194353
0.000182998
0.000170303
0.000155835
0.000138975
0.000118857
9.42718e-05
6.35402e-05
2.62323e-05
6.91412e-07
5.72117e-06
7.60658e-05
0.000161852
0.000234482
0.000294666
0.000345213
0.000388436
0.000426047
0.000459288
0.000489065
0.000516045
0.000540728
0.000563492
0.000584628
0.000604361
0.000622871
0.000640301
0.000656766
0.000672361
0.000687163
0.000701238
0.000714639
0.000727411
0.000739594
0.000751221
0.000762319
0.000772914
0.000783028
0.000792678
0.000801882
0.000810654
0.000819008
0.000826955
0.000834506
0.000841672
0.00084846
0.000854879
0.000860938
0.000866642
0.000872
0.000877017
0.0008817
0.000886055
0.000890086
0.000893801
0.000897203
0.000900298
0.000903092
0.000905589
0.000907793
0.000909711
0.000911346
0.000912703
0.000913787
0.000914602
0.000915153
0.000915444
0.000915479
0.000915263
0.000914799
0.000914091
0.000913143
0.000911957
0.000910539
0.000908896
0.000907036
0.000904967
0.000902694
0.000900226
0.000897567
0.000894726
0.000891707
0.000888517
0.000885164
0.000881652
0.000877989
0.000874181
0.000870234
0.000866156
0.000861952
0.000857629
0.000853195
0.000848655
0.000844017
0.000839286
0.00083447
0.000829576
0.000824609
0.000819578
0.000814487
0.000809343
0.000804154
0.000798924
0.000793661
0.00078837
0.000783058
0.000777729
0.000772391
0.000767047
0.000761705
0.000756367
0.000751041
0.00074573
0.000740438
0.000735171
0.000729932
0.000724725
0.000719554
0.000714421
0.00070933
0.000704284
0.000699285
0.000694336
0.000689437
0.000684591
0.000679799
0.000675063
0.000670382
0.000665757
0.000661189
0.000656677
0.00065222
0.000647818
0.00064347
0.000639175
0.00063493
0.000630735
0.000626587
0.000622484
0.000618423
0.000614403
0.00061042
0.000606469
0.000602548
0.000598651
0.000594774
0.000590913
0.000587065
0.000583224
0.000579386
0.000575547
0.000571701
0.000567846
0.000563974
0.000560082
0.000556164
0.000552216
0.000548233
0.00054421
0.000540142
0.000536024
0.000531852
0.00052762
0.000523325
0.000518962
0.000514526
0.000510013
0.000505419
0.000500739
0.000495968
0.000491103
0.000486136
0.000481063
0.000475877
0.00047057
0.000465139
0.000459581
0.000453892
0.000448067
0.000442103
0.000435993
0.00042973
0.000423307
0.000416714
0.000409942
0.000402978
0.000395808
0.000388418
0.000380788
0.000372897
0.000364719
0.000356226
0.000347382
0.000338144
0.000328462
0.000318271
0.000307495
0.000296033
0.000283757
0.0002705
0.000256045
0.000240096
0.000222261
0.000202
0.000178581
0.000151008
0.000117961
7.80292e-05
3.1847e-05
9.39656e-07
5.72131e-06
7.60695e-05
0.000161861
0.000234494
0.000294681
0.000345229
0.000388453
0.000426065
0.000459306
0.000489083
0.000516063
0.000540747
0.000563511
0.000584646
0.000604379
0.000622889
0.000640319
0.000656784
0.000672378
0.000687181
0.000701255
0.000714656
0.000727428
0.000739611
0.000751238
0.000762336
0.000772931
0.000783044
0.000792695
0.000801898
0.00081067
0.000819024
0.000826971
0.000834522
0.000841687
0.000848475
0.000854895
0.000860953
0.000866658
0.000872015
0.000877032
0.000881715
0.000886069
0.000890101
0.000893815
0.000897217
0.000900313
0.000903106
0.000905603
0.000907807
0.000909725
0.000911359
0.000912716
0.0009138
0.000914615
0.000915166
0.000915457
0.000915492
0.000915276
0.000914812
0.000914103
0.000913155
0.000911969
0.000910551
0.000908908
0.000907047
0.000904978
0.000902705
0.000900236
0.000897578
0.000894736
0.000891717
0.000888527
0.000885173
0.000881661
0.000877998
0.00087419
0.000870243
0.000866164
0.00086196
0.000857638
0.000853203
0.000848663
0.000844024
0.000839294
0.000834478
0.000829583
0.000824616
0.000819584
0.000814493
0.000809349
0.00080416
0.00079893
0.000793667
0.000788376
0.000783063
0.000777735
0.000772396
0.000767052
0.000761709
0.000756372
0.000751045
0.000745734
0.000740442
0.000735175
0.000729936
0.000724729
0.000719557
0.000714424
0.000709333
0.000704287
0.000699288
0.000694338
0.000689439
0.000684593
0.000679802
0.000675065
0.000670384
0.000665759
0.00066119
0.000656678
0.000652221
0.000647819
0.000643471
0.000639176
0.000634931
0.000630736
0.000626587
0.000622484
0.000618423
0.000614403
0.00061042
0.000606469
0.000602547
0.00059865
0.000594773
0.000590913
0.000587064
0.000583223
0.000579385
0.000575546
0.0005717
0.000567844
0.000563972
0.00056008
0.000556163
0.000552215
0.000548231
0.000544208
0.00054014
0.000536022
0.000531849
0.000527618
0.000523323
0.00051896
0.000514524
0.000510011
0.000505417
0.000500737
0.000495966
0.0004911
0.000486134
0.000481061
0.000475874
0.000470567
0.000465137
0.000459578
0.000453889
0.000448065
0.000442101
0.00043599
0.000429728
0.000423304
0.000416712
0.00040994
0.000402976
0.000395806
0.000388416
0.000380786
0.000372895
0.000364717
0.000356224
0.00034738
0.000338142
0.00032846
0.00031827
0.000307494
0.000296032
0.000283755
0.000270499
0.000256044
0.000240096
0.00022226
0.000202
0.000178581
0.000151008
0.000117962
7.80293e-05
3.18469e-05
9.39659e-07
7.12248e-06
8.59341e-05
0.000184355
0.000270696
0.000344124
0.000406902
0.000461221
0.000508834
0.00055109
0.000589014
0.000623389
0.000654816
0.000683761
0.000710589
0.000735588
0.000758987
0.000780974
0.000801699
0.000821287
0.00083984
0.000857444
0.000874172
0.000890084
0.000905231
0.00091966
0.000933407
0.000946506
0.000958986
0.000970873
0.00098219
0.000992956
0.00100319
0.00101291
0.00102212
0.00103085
0.0010391
0.00104689
0.00105423
0.00106113
0.00106759
0.00107363
0.00107925
0.00108447
0.00108928
0.00109371
0.00109776
0.00110142
0.00110472
0.00110766
0.00111025
0.00111248
0.00111438
0.00111594
0.00111717
0.00111808
0.00111867
0.00111895
0.00111893
0.00111861
0.00111799
0.00111709
0.00111591
0.00111445
0.00111271
0.00111072
0.00110847
0.00110597
0.00110324
0.00110027
0.00109709
0.00109369
0.00109008
0.00108627
0.00108227
0.00107809
0.00107373
0.00106919
0.0010645
0.00105966
0.00105466
0.00104953
0.00104427
0.00103889
0.00103339
0.00102778
0.00102207
0.00101627
0.00101039
0.00100442
0.000998394
0.000992301
0.000986154
0.00097996
0.000973725
0.000967458
0.000961163
0.00095485
0.000948523
0.000942189
0.000935855
0.000929525
0.000923207
0.000916905
0.000910624
0.00090437
0.000898146
0.000891958
0.00088581
0.000879704
0.000873645
0.000867635
0.000861678
0.000855775
0.000849929
0.000844142
0.000838415
0.000832748
0.000827143
0.0008216
0.000816118
0.000810698
0.000805339
0.000800039
0.000794797
0.000789612
0.000784482
0.000779403
0.000774375
0.000769393
0.000764456
0.000759559
0.000754699
0.00074987
0.000745069
0.00074029
0.000735528
0.000730779
0.000726037
0.000721298
0.000716555
0.000711805
0.00070704
0.000702255
0.000697446
0.000692606
0.000687729
0.00068281
0.000677844
0.000672824
0.000667745
0.000662601
0.000657388
0.000652099
0.00064673
0.000641276
0.00063573
0.000630089
0.000624347
0.000618499
0.000612539
0.000606462
0.000600262
0.000593933
0.000587467
0.000580857
0.000574098
0.000567184
0.00056011
0.00055287
0.000545456
0.00053786
0.000530073
0.000522085
0.000513882
0.00050545
0.000496772
0.000487831
0.000478603
0.000469064
0.000459184
0.000448929
0.000438258
0.000427124
0.000415469
0.000403225
0.000390307
0.000376611
0.000362008
0.000346334
0.000329378
0.000310869
0.000290455
0.000267673
0.000241915
0.000212385
0.000178052
0.000137652
9.00239e-05
3.66167e-05
1.18846e-06
7.12261e-06
8.59378e-05
0.000184364
0.000270709
0.00034414
0.000406921
0.000461241
0.000508855
0.000551111
0.000589036
0.000623411
0.000654838
0.000683784
0.000710611
0.00073561
0.000759009
0.000780996
0.000801721
0.000821308
0.000839861
0.000857465
0.000874193
0.000890104
0.000905252
0.00091968
0.000933427
0.000946526
0.000959006
0.000970893
0.000982209
0.000992975
0.00100321
0.00101293
0.00102214
0.00103087
0.00103912
0.00104691
0.00105425
0.00106114
0.0010676
0.00107364
0.00107927
0.00108448
0.0010893
0.00109373
0.00109777
0.00110144
0.00110474
0.00110768
0.00111026
0.0011125
0.00111439
0.00111595
0.00111718
0.00111809
0.00111868
0.00111896
0.00111894
0.00111862
0.00111801
0.00111711
0.00111592
0.00111446
0.00111273
0.00111073
0.00110848
0.00110598
0.00110325
0.00110029
0.0010971
0.0010937
0.00109009
0.00108628
0.00108228
0.0010781
0.00107374
0.0010692
0.00106451
0.00105967
0.00105467
0.00104954
0.00104428
0.00103889
0.00103339
0.00102779
0.00102208
0.00101628
0.00101039
0.00100443
0.000998401
0.000992308
0.000986161
0.000979966
0.000973732
0.000967464
0.000961169
0.000954855
0.000948528
0.000942194
0.00093586
0.00092953
0.000923212
0.000916909
0.000910629
0.000904374
0.000898151
0.000891962
0.000885814
0.000879708
0.000873648
0.000867639
0.000861681
0.000855778
0.000849932
0.000844145
0.000838417
0.000832751
0.000827145
0.000821602
0.00081612
0.0008107
0.000805341
0.000800041
0.000794799
0.000789614
0.000784483
0.000779404
0.000774376
0.000769394
0.000764456
0.00075956
0.000754699
0.000749871
0.000745069
0.00074029
0.000735528
0.000730779
0.000726037
0.000721297
0.000716555
0.000711804
0.000707039
0.000702254
0.000697445
0.000692605
0.000687728
0.000682809
0.000677842
0.000672822
0.000667743
0.000662599
0.000657386
0.000652097
0.000646728
0.000641273
0.000635728
0.000630087
0.000624345
0.000618496
0.000612537
0.00060646
0.00060026
0.000593931
0.000587465
0.000580855
0.000574096
0.000567182
0.000560108
0.000552867
0.000545453
0.000537858
0.000530071
0.000522082
0.000513879
0.000505447
0.00049677
0.000487829
0.000478601
0.000469062
0.000459182
0.000448927
0.000438257
0.000427122
0.000415468
0.000403223
0.000390305
0.00037661
0.000362007
0.000346333
0.000329377
0.000310869
0.000290455
0.000267673
0.000241915
0.000212385
0.000178052
0.000137652
9.0024e-05
3.66166e-05
1.18846e-06
8.5206e-06
9.46215e-05
0.000203645
0.000301713
0.000386754
0.000460504
0.000524966
0.000581866
0.000632595
0.00067825
0.000719694
0.000757603
0.000792514
0.000824853
0.000854961
0.000883113
0.000909534
0.000934408
0.000957887
0.000980097
0.00100114
0.00102112
0.00104009
0.00105813
0.0010753
0.00109163
0.00110717
0.00112196
0.00113603
0.00114941
0.00116212
0.00117419
0.00118563
0.00119647
0.00120673
0.00121641
0.00122553
0.00123411
0.00124216
0.00124969
0.00125672
0.00126325
0.0012693
0.00127488
0.00127999
0.00128465
0.00128887
0.00129265
0.001296
0.00129894
0.00130147
0.0013036
0.00130534
0.0013067
0.00130768
0.0013083
0.00130855
0.00130846
0.00130802
0.00130724
0.00130613
0.0013047
0.00130295
0.0013009
0.00129855
0.0012959
0.00129298
0.00128978
0.00128633
0.00128262
0.00127866
0.00127447
0.00127006
0.00126542
0.00126058
0.00125554
0.0012503
0.00124489
0.00123929
0.00123354