/*--------------------------------*- C++ -*----------------------------------*\
  =========                 |
  \\      /  F ield         | OpenFOAM: The Open Source CFD Toolbox
   \\    /   O peration     | Website:  https://openfoam.org
    \\  /    A nd           | Version:  8
     \\/     M anipulation  |
\*---------------------------------------------------------------------------*/
FoamFile
{
    version     2.0;
    format      ascii;
    class       surfaceScalarField;
    location    "2600";
    object      phi;
}
// * * * * * * * * * * * * * * * * * * * * * * * * * * * * * * * * * * * * * //

dimensions      [1 0 -1 0 0 0 0];

internalField   nonuniform List<scalar> 
114370
(
2.99585e-10
-1.0081e-14
-2.99574e-10
7.44434e-10
-6.00923e-15
-4.44967e-10
1.11868e-09
4.16278e-16
-3.74343e-10
1.3315e-09
2.50476e-15
-2.12887e-10
1.38068e-09
2.93489e-15
-4.92349e-11
1.28884e-09
2.85556e-15
9.17882e-11
1.08309e-09
2.91129e-15
2.0571e-10
7.87733e-10
3.26139e-15
2.95313e-10
4.22439e-10
3.93143e-15
3.65255e-10
2.58322e-12
4.90749e-15
4.19819e-10
-4.59666e-10
5.84151e-15
4.62215e-10
-9.54883e-10
6.5223e-15
4.95186e-10
-1.47615e-09
7.04245e-15
5.21234e-10
-2.01813e-09
7.43252e-15
5.41956e-10
-2.57673e-09
7.66216e-15
5.58574e-10
-3.14875e-09
7.75997e-15
5.71991e-10
-3.73165e-09
7.80924e-15
5.82879e-10
-4.32341e-09
7.83531e-15
5.91733e-10
-4.92236e-09
7.79744e-15
5.98917e-10
-5.52708e-09
7.65462e-15
6.04691e-10
-6.13635e-09
7.41163e-15
6.09238e-10
-6.74906e-09
7.11379e-15
6.12681e-10
-7.3642e-09
6.81466e-15
6.15101e-10
-7.98078e-09
6.54285e-15
6.16542e-10
-8.59784e-09
6.30011e-15
6.17025e-10
-9.21443e-09
6.07104e-15
6.16551e-10
-9.82958e-09
5.84219e-15
6.15109e-10
-1.04423e-08
5.61096e-15
6.12681e-10
-1.10516e-08
5.38125e-15
6.09243e-10
-1.16564e-08
5.16337e-15
6.0477e-10
-1.22557e-08
4.96305e-15
5.99239e-10
-1.28484e-08
4.78811e-15
5.92627e-10
-1.34333e-08
4.63595e-15
5.84917e-10
-1.40095e-08
4.50221e-15
5.76097e-10
-1.45757e-08
4.37954e-15
5.6616e-10
-1.51309e-08
4.26327e-15
5.55107e-10
-1.56739e-08
4.14896e-15
5.42946e-10
-1.62036e-08
4.03323e-15
5.2969e-10
-1.6719e-08
3.91556e-15
5.15361e-10
-1.72191e-08
3.79573e-15
4.99988e-10
-1.77028e-08
3.67307e-15
4.83606e-10
-1.81691e-08
3.5475e-15
4.66256e-10
-1.86171e-08
3.42192e-15
4.47986e-10
-1.9046e-08
3.29581e-15
4.28849e-10
-1.9455e-08
3.17327e-15
4.08901e-10
-1.98433e-08
3.05464e-15
3.88205e-10
-2.02102e-08
2.94241e-15
3.66825e-10
-2.05551e-08
2.83625e-15
3.4483e-10
-2.08774e-08
2.73508e-15
3.22289e-10
-2.11768e-08
2.6389e-15
2.99275e-10
-2.14527e-08
2.54586e-15
2.75859e-10
-2.17049e-08
2.45445e-15
2.52116e-10
-2.19331e-08
2.36142e-15
2.28118e-10
-2.21371e-08
2.26719e-15
2.03937e-10
-2.23169e-08
2.16885e-15
1.79646e-10
-2.24723e-08
2.06714e-15
1.55314e-10
-2.26034e-08
1.96284e-15
1.31011e-10
-2.27102e-08
1.85506e-15
1.06802e-10
-2.27931e-08
1.74761e-15
8.27539e-11
-2.28521e-08
1.64103e-15
5.89281e-11
-2.28876e-08
1.53824e-15
3.53826e-11
-2.28998e-08
1.43795e-15
1.21713e-11
-2.28893e-08
1.34753e-15
-1.06592e-11
-2.28563e-08
1.26524e-15
-3.30743e-11
-2.28013e-08
1.1875e-15
-5.50399e-11
-2.27249e-08
1.11583e-15
-7.65169e-11
-2.26275e-08
1.04915e-15
-9.74654e-11
-2.25098e-08
9.88648e-16
-1.17848e-10
-2.23723e-08
9.33894e-16
-1.3763e-10
-2.22156e-08
8.83152e-16
-1.56786e-10
-2.20404e-08
8.38156e-16
-1.7529e-10
-2.18474e-08
7.9598e-16
-1.93122e-10
-2.16372e-08
7.57489e-16
-2.10264e-10
-2.14106e-08
7.2171e-16
-2.26703e-10
-2.11683e-08
6.87557e-16
-2.42428e-10
-2.09109e-08
6.55138e-16
-2.57429e-10
-2.06394e-08
6.22937e-16
-2.71701e-10
-2.03542e-08
5.90519e-16
-2.8524e-10
-2.00563e-08
5.581e-16
-2.98044e-10
-1.97463e-08
5.25032e-16
-3.10116e-10
-1.94249e-08
4.91421e-16
-3.21456e-10
-1.9093e-08
4.57485e-16
-3.32069e-10
-1.87511e-08
4.23116e-16
-3.41963e-10
-1.84001e-08
3.86903e-16
-3.51144e-10
-1.80406e-08
3.51016e-16
-3.59623e-10
-1.76733e-08
3.15996e-16
-3.67409e-10
-1.72989e-08
2.79892e-16
-3.74514e-10
-1.69181e-08
2.44331e-16
-3.80952e-10
-1.65315e-08
2.09961e-16
-3.86737e-10
-1.61397e-08
1.76351e-16
-3.91883e-10
-1.57434e-08
1.43283e-16
-3.96407e-10
-1.53432e-08
1.11516e-16
-4.00326e-10
-1.49397e-08
8.12675e-17
-4.03657e-10
-1.45334e-08
5.18859e-17
-4.06418e-10
-1.41249e-08
2.4456e-17
-4.08627e-10
-1.37147e-08
-1.99806e-18
-4.10305e-10
-1.33034e-08
-2.80184e-17
-4.1147e-10
-1.28914e-08
-5.20871e-17
-4.12143e-10
-1.24792e-08
-7.48548e-17
-4.12344e-10
-1.20672e-08
-9.48035e-17
-4.12094e-10
-1.1656e-08
-1.14102e-16
-4.11413e-10
-1.12458e-08
-1.32749e-16
-4.10323e-10
-1.08371e-08
-1.48794e-16
-4.08844e-10
-1.04302e-08
-1.63973e-16
-4.06999e-10
-1.00256e-08
-1.785e-16
-4.04807e-10
-9.62341e-09
-1.90642e-16
-4.02291e-10
-9.22409e-09
-2.02567e-16
-3.99471e-10
-8.82787e-09
-2.14926e-16
-3.96368e-10
-8.43502e-09
-2.26418e-16
-3.93002e-10
-8.04578e-09
-2.37259e-16
-3.89395e-10
-7.66037e-09
-2.47233e-16
-3.85567e-10
-7.27899e-09
-2.55472e-16
-3.81536e-10
-6.90182e-09
-2.6306e-16
-3.77322e-10
-6.52904e-09
-2.68046e-16
-3.72945e-10
-6.16078e-09
-2.71298e-16
-3.68422e-10
-5.79717e-09
-2.7108e-16
-3.63771e-10
-5.43832e-09
-2.69344e-16
-3.5901e-10
-5.08433e-09
-2.64139e-16
-3.54153e-10
-4.73528e-09
-2.58066e-16
-3.49217e-10
-4.39124e-09
-2.49174e-16
-3.44217e-10
-4.05224e-09
-2.36163e-16
-3.39165e-10
-3.71834e-09
-2.22284e-16
-3.34075e-10
-3.38955e-09
-2.05152e-16
-3.28958e-10
-3.0659e-09
-1.8737e-16
-3.23824e-10
-2.7474e-09
-1.66118e-16
-3.18683e-10
-2.43403e-09
-1.43566e-16
-3.13543e-10
-2.1258e-09
-1.18411e-16
-3.0841e-10
-1.82269e-09
-9.08706e-17
-3.03291e-10
-1.52468e-09
-6.5282e-17
-2.98189e-10
-1.23176e-09
-3.7525e-17
-2.93109e-10
-9.43884e-10
-9.98471e-18
-2.88057e-10
-6.61021e-10
1.56039e-17
-2.83049e-10
-3.83098e-10
3.51206e-17
-2.78112e-10
-1.10046e-10
4.96495e-17
-2.73241e-10
1.58059e-10
5.35513e-17
-2.68296e-10
4.21072e-10
7.04702e-17
-2.63204e-10
6.78926e-10
1.20568e-16
-2.58046e-10
9.31571e-10
1.92783e-16
-2.52837e-10
1.17894e-09
2.74972e-16
-2.47562e-10
1.42095e-09
3.56077e-16
-2.42198e-10
1.65748e-09
4.33929e-16
-2.36721e-10
1.88839e-09
5.06577e-16
-2.31105e-10
2.11352e-09
5.77923e-16
-2.25319e-10
2.33266e-09
6.51654e-16
-2.19334e-10
2.54558e-09
7.24517e-16
-2.13116e-10
2.75202e-09
7.97596e-16
-2.06631e-10
2.95167e-09
8.70675e-16
-1.99843e-10
3.1442e-09
9.41585e-16
-1.92715e-10
3.32921e-09
1.01206e-15
-1.8521e-10
3.50631e-09
1.0795e-15
-1.77288e-10
3.67503e-09
1.14694e-15
-1.68913e-10
3.83488e-09
1.21091e-15
-1.60044e-10
3.98534e-09
1.27335e-15
-1.50646e-10
4.12583e-09
1.33277e-15
-1.40681e-10
4.25575e-09
1.39066e-15
-1.30115e-10
4.37447e-09
1.444e-15
-1.18917e-10
4.48134e-09
1.493e-15
-1.07058e-10
4.57566e-09
1.53983e-15
-9.45143e-11
4.65673e-09
1.5821e-15
-8.12654e-11
4.72384e-09
1.61874e-15
-6.72985e-11
4.77625e-09
1.65212e-15
-5.26082e-11
4.81326e-09
1.67943e-15
-3.71994e-11
4.83416e-09
1.70001e-15
-2.10894e-11
4.83828e-09
1.70736e-15
-4.31482e-12
4.82494e-09
1.7216e-15
1.31382e-11
4.79347e-09
1.74629e-15
3.12826e-11
4.74321e-09
1.7558e-15
5.00643e-11
4.67359e-09
1.75923e-15
6.94232e-11
4.58411e-09
1.75529e-15
8.92863e-11
4.47434e-09
1.75005e-15
1.09567e-10
4.34398e-09
1.74002e-15
1.30165e-10
4.19282e-09
1.72956e-15
1.50963e-10
4.0208e-09
1.71433e-15
1.71827e-10
3.82799e-09
1.70082e-15
1.92605e-10
3.61467e-09
1.68167e-15
2.13121e-10
3.38129e-09
1.65818e-15
2.3318e-10
3.12853e-09
1.62644e-15
2.52558e-10
2.85732e-09
1.58299e-15
2.71006e-10
2.56887e-09
1.53259e-15
2.88241e-10
2.26472e-09
1.47134e-15
3.03945e-10
1.94675e-09
1.40878e-15
3.17758e-10
1.61727e-09
1.35056e-15
3.29272e-10
1.27904e-09
1.29754e-15
3.38018e-10
9.35366e-10
1.25146e-15
3.43461e-10
5.90174e-10
1.20971e-15
3.44976e-10
2.48122e-10
1.16103e-15
3.41833e-10
-8.52127e-11
1.09892e-15
3.33113e-10
-4.02977e-10
1.02729e-15
3.1754e-10
-6.9715e-10
9.88236e-16
2.93948e-10
-9.58555e-10
9.79569e-16
2.6118e-10
-1.17643e-09
9.7961e-16
2.17653e-10
-1.33812e-09
9.76657e-16
1.61454e-10
-1.42912e-09
9.59878e-16
9.07746e-11
-1.4339e-09
9.40577e-16
4.54371e-12
-1.33808e-09
8.94227e-16
-9.60677e-11
-1.13294e-09
8.38256e-16
-2.05392e-10
-8.24783e-10
8.27502e-16
-3.08417e-10
-4.56946e-10
9.43953e-16
-3.68118e-10
-1.37368e-10
2.04278e-15
-3.1989e-10
1.11603e-15
-1.37713e-10
2.99531e-10
-2.99595e-10
7.44408e-10
-4.44987e-10
1.11866e-09
-3.74354e-10
1.33148e-09
-2.12898e-10
1.38066e-09
-4.92461e-11
1.28882e-09
9.17752e-11
1.08307e-09
2.05695e-10
7.87718e-10
2.95294e-10
4.22428e-10
3.65232e-10
2.57532e-12
4.19793e-10
-4.59671e-10
4.62187e-10
-9.54885e-10
4.95157e-10
-1.47614e-09
5.21204e-10
-2.01812e-09
5.41927e-10
-2.57672e-09
5.58545e-10
-3.14873e-09
5.71962e-10
-3.73163e-09
5.82851e-10
-4.32339e-09
5.91706e-10
-4.92233e-09
5.98891e-10
-5.52705e-09
6.04665e-10
-6.13631e-09
6.09213e-10
-6.74903e-09
6.12657e-10
-7.36416e-09
6.15078e-10
-7.98074e-09
6.1652e-10
-8.5978e-09
6.17003e-10
-9.21439e-09
6.1653e-10
-9.82953e-09
6.15089e-10
-1.04423e-08
6.12661e-10
-1.10515e-08
6.09224e-10
-1.16564e-08
6.04752e-10
-1.22556e-08
5.99221e-10
-1.28483e-08
5.9261e-10
-1.34333e-08
5.84901e-10
-1.40094e-08
5.76081e-10
-1.45756e-08
5.66145e-10
-1.51308e-08
5.55093e-10
-1.56738e-08
5.42931e-10
-1.62036e-08
5.29676e-10
-1.6719e-08
5.15347e-10
-1.7219e-08
4.99974e-10
-1.77027e-08
4.83592e-10
-1.8169e-08
4.66243e-10
-1.8617e-08
4.47973e-10
-1.9046e-08
4.28835e-10
-1.94549e-08
4.08888e-10
-1.98432e-08
3.88192e-10
-2.02101e-08
3.66812e-10
-2.0555e-08
3.44816e-10
-2.08774e-08
3.22276e-10
-2.11767e-08
2.99261e-10
-2.14526e-08
2.75845e-10
-2.17048e-08
2.52102e-10
-2.1933e-08
2.28104e-10
-2.21371e-08
2.03923e-10
-2.23168e-08
1.79632e-10
-2.24722e-08
1.553e-10
-2.26033e-08
1.30996e-10
-2.27102e-08
1.06788e-10
-2.2793e-08
8.27391e-11
-2.2852e-08
5.89132e-11
-2.28875e-08
3.53676e-11
-2.28998e-08
1.21563e-11
-2.28892e-08
-1.06742e-11
-2.28562e-08
-3.30894e-11
-2.28013e-08
-5.50549e-11
-2.27248e-08
-7.6532e-11
-2.26275e-08
-9.74805e-11
-2.25097e-08
-1.17863e-10
-2.23722e-08
-1.37646e-10
-2.22155e-08
-1.56801e-10
-2.20403e-08
-1.75305e-10
-2.18473e-08
-1.93137e-10
-2.16371e-08
-2.10279e-10
-2.14105e-08
-2.26719e-10
-2.11682e-08
-2.42443e-10
-2.09109e-08
-2.57444e-10
-2.06393e-08
-2.71716e-10
-2.03541e-08
-2.85255e-10
-2.00562e-08
-2.9806e-10
-1.97462e-08
-3.10131e-10
-1.94249e-08
-3.21471e-10
-1.90929e-08
-3.32085e-10
-1.87511e-08
-3.41979e-10
-1.84e-08
-3.5116e-10
-1.80405e-08
-3.59638e-10
-1.76732e-08
-3.67424e-10
-1.72988e-08
-3.7453e-10
-1.6918e-08
-3.80968e-10
-1.65314e-08
-3.86752e-10
-1.61396e-08
-3.91899e-10
-1.57434e-08
-3.96423e-10
-1.53432e-08
-4.00342e-10
-1.49396e-08
-4.03672e-10
-1.45333e-08
-4.06433e-10
-1.41248e-08
-4.08643e-10
-1.37147e-08
-4.1032e-10
-1.33033e-08
-4.11486e-10
-1.28913e-08
-4.12159e-10
-1.24791e-08
-4.1236e-10
-1.20672e-08
-4.12109e-10
-1.16559e-08
-4.11429e-10
-1.12457e-08
-4.10339e-10
-1.0837e-08
-4.0886e-10
-1.04302e-08
-4.07015e-10
-1.00255e-08
-4.04823e-10
-9.62335e-09
-4.02307e-10
-9.22403e-09
-3.99487e-10
-8.82781e-09
-3.96384e-10
-8.43496e-09
-3.93018e-10
-8.04572e-09
-3.89411e-10
-7.66031e-09
-3.85583e-10
-7.27893e-09
-3.81552e-10
-6.90177e-09
-3.77339e-10
-6.52898e-09
-3.72962e-10
-6.16072e-09
-3.68439e-10
-5.79712e-09
-3.63788e-10
-5.43827e-09
-3.59026e-10
-5.08428e-09
-3.5417e-10
-4.73523e-09
-3.49234e-10
-4.39119e-09
-3.44234e-10
-4.05219e-09
-3.39183e-10
-3.71829e-09
-3.34093e-10
-3.3895e-09
-3.28976e-10
-3.06585e-09
-3.23842e-10
-2.74735e-09
-3.18701e-10
-2.43398e-09
-3.13561e-10
-2.12575e-09
-3.08429e-10
-1.82264e-09
-3.0331e-10
-1.52463e-09
-2.98208e-10
-1.23171e-09
-2.93129e-10
-9.43838e-10
-2.88077e-10
-6.60976e-10
-2.83069e-10
-3.83052e-10
-2.78132e-10
-1.10001e-10
-2.73262e-10
1.58104e-10
-2.68316e-10
4.21116e-10
-2.63225e-10
6.7897e-10
-2.58067e-10
9.31615e-10
-2.52859e-10
1.17898e-09
-2.47584e-10
1.42099e-09
-2.42221e-10
1.65752e-09
-2.36745e-10
1.88843e-09
-2.31128e-10
2.11356e-09
-2.25343e-10
2.3327e-09
-2.19358e-10
2.54563e-09
-2.1314e-10
2.75206e-09
-2.06656e-10
2.95171e-09
-1.99868e-10
3.14424e-09
-1.92741e-10
3.32925e-09
-1.85236e-10
3.50635e-09
-1.77315e-10
3.67507e-09
-1.6894e-10
3.83492e-09
-1.60072e-10
3.98538e-09
-1.50673e-10
4.12587e-09
-1.40709e-10
4.25579e-09
-1.30143e-10
4.37451e-09
-1.18946e-10
4.48138e-09
-1.07087e-10
4.5757e-09
-9.45431e-11
4.65677e-09
-8.12945e-11
4.72388e-09
-6.73278e-11
4.77629e-09
-5.26377e-11
4.8133e-09
-3.72291e-11
4.83419e-09
-2.11192e-11
4.83831e-09
-4.34465e-12
4.82498e-09
1.31083e-11
4.7935e-09
3.12525e-11
4.74324e-09
5.00342e-11
4.67362e-09
6.93931e-11
4.58414e-09
8.92561e-11
4.47438e-09
1.09537e-10
4.34401e-09
1.30135e-10
4.19285e-09
1.50933e-10
4.02083e-09
1.71797e-10
3.82802e-09
1.92575e-10
3.6147e-09
2.13092e-10
3.38132e-09
2.3315e-10
3.12856e-09
2.52529e-10
2.85734e-09
2.70977e-10
2.5689e-09
2.88212e-10
2.26474e-09
3.03917e-10
1.94677e-09
3.1773e-10
1.61729e-09
3.29243e-10
1.27906e-09
3.37989e-10
9.35383e-10
3.43432e-10
5.90189e-10
3.44947e-10
2.48135e-10
3.41805e-10
-8.52017e-11
3.33083e-10
-4.02968e-10
3.17511e-10
-6.97142e-10
2.93918e-10
-9.5855e-10
2.61149e-10
-1.17643e-09
2.1762e-10
-1.33812e-09
1.6142e-10
-1.42913e-09
9.07385e-11
-1.43391e-09
4.50512e-12
-1.33808e-09
-9.61092e-11
-1.13295e-09
-2.05437e-10
-8.24794e-10
-3.08466e-10
-4.56964e-10
-3.68171e-10
-1.37398e-10
-3.19946e-10
-1.37763e-10
4.43807e-10
-3.30018e-15
-7.43503e-10
7.34409e-10
-1.91098e-16
-7.35689e-10
8.53552e-10
1.27035e-15
-4.93559e-10
8.43671e-10
1.29696e-15
-2.03065e-10
7.24621e-10
1.23028e-15
6.97622e-11
5.12509e-10
9.77158e-16
3.03854e-10
2.22056e-10
6.75978e-16
4.9612e-10
-1.33453e-10
4.06733e-16
6.50783e-10
-5.42225e-10
1.75152e-16
7.73991e-10
-9.94281e-10
4.51952e-17
8.71843e-10
-1.48155e-09
1.99964e-17
9.49457e-10
-1.9975e-09
4.71842e-17
1.01111e-09
-2.53673e-09
9.36863e-17
1.06043e-09
-3.09488e-09
1.45622e-16
1.10009e-09
-3.66849e-09
1.95832e-16
1.13215e-09
-4.25471e-09
2.4399e-16
1.15818e-09
-4.85124e-09
2.92264e-16
1.17938e-09
-5.45616e-09
3.31002e-16
1.19663e-09
-6.06787e-09
3.492e-16
1.21059e-09
-6.68496e-09
3.42737e-16
1.22175e-09
-7.30622e-09
3.19906e-16
1.23046e-09
-7.93053e-09
2.94748e-16
1.23695e-09
-8.55685e-09
2.77183e-16
1.24138e-09
-9.18419e-09
2.69541e-16
1.24384e-09
-9.81158e-09
2.67594e-16
1.24437e-09
-1.04381e-08
2.6668e-16
1.24298e-09
-1.10626e-08
2.63654e-16
1.23965e-09
-1.16844e-08
2.58896e-16
1.23436e-09
-1.23022e-08
2.54846e-16
1.22706e-09
-1.29152e-08
2.54538e-16
1.21771e-09
-1.35223e-08
2.59328e-16
1.20626e-09
-1.41224e-08
2.69324e-16
1.19268e-09
-1.47145e-08
2.83062e-16
1.17693e-09
-1.52974e-08
2.97508e-16
1.15898e-09
-1.58702e-08
3.10329e-16
1.13884e-09
-1.64316e-08
3.19682e-16
1.11649e-09
-1.69807e-08
3.23724e-16
1.09195e-09
-1.75163e-08
3.22618e-16
1.06526e-09
-1.80374e-08
3.15822e-16
1.03644e-09
-1.85431e-08
3.04853e-16
1.00556e-09
-1.90322e-08
2.90144e-16
9.72691e-10
-1.9504e-08
2.73486e-16
9.37903e-10
-1.99573e-08
2.55853e-16
9.01291e-10
-2.03915e-08
2.3879e-16
8.62957e-10
-2.08057e-08
2.2265e-16
8.23013e-10
-2.11991e-08
2.08165e-16
7.81578e-10
-2.15712e-08
1.94819e-16
7.38778e-10
-2.19212e-08
1.82341e-16
6.94745e-10
-2.22486e-08
1.69891e-16
6.49617e-10
-2.25529e-08
1.56927e-16
6.03533e-10
-2.28338e-08
1.42771e-16
5.56636e-10
-2.30908e-08
1.27151e-16
5.09069e-10
-2.33238e-08
1.09907e-16
4.60974e-10
-2.35324e-08
9.18221e-17
4.12495e-10
-2.37166e-08
7.27893e-17
3.63771e-10
-2.38763e-08
5.35944e-17
3.14939e-10
-2.40116e-08
3.53757e-17
2.66135e-10
-2.41223e-08
1.84041e-17
2.17488e-10
-2.42088e-08
3.60127e-18
1.69123e-10
-2.42711e-08
-9.00579e-18
1.2116e-10
-2.43096e-08
-1.88208e-17
7.37126e-11
-2.43244e-08
-2.53018e-17
2.68858e-11
-2.43159e-08
-3.0482e-17
-1.92245e-11
-2.42846e-08
-3.46045e-17
-6.45343e-11
-2.42307e-08
-3.63687e-17
-1.08962e-10
-2.41549e-08
-3.70486e-17
-1.52428e-10
-2.40576e-08
-3.68611e-17
-1.94858e-10
-2.39394e-08
-3.59688e-17
-2.36182e-10
-2.38008e-08
-3.47512e-17
-2.7634e-10
-2.36424e-08
-3.35065e-17
-3.15276e-10
-2.34649e-08
-3.21533e-17
-3.52942e-10
-2.32688e-08
-3.12339e-17
-3.89299e-10
-2.30549e-08
-3.06939e-17
-4.24311e-10
-2.28237e-08
-3.094e-17
-4.57949e-10
-2.25761e-08
-3.16741e-17
-4.9019e-10
-2.23126e-08
-3.2869e-17
-5.21017e-10
-2.2034e-08
-3.47144e-17
-5.50416e-10
-2.1741e-08
-3.72647e-17
-5.78379e-10
-2.14342e-08
-3.99234e-17
-6.04902e-10
-2.11145e-08
-4.29616e-17
-6.29986e-10
-2.07824e-08
-4.58373e-17
-6.53635e-10
-2.04388e-08
-4.87131e-17
-6.75856e-10
-2.00842e-08
-5.13178e-17
-6.96661e-10
-1.97194e-08
-5.42479e-17
-7.16064e-10
-1.9345e-08
-5.64733e-17
-7.34081e-10
-1.89619e-08
-5.82109e-17
-7.50733e-10
-1.85704e-08
-5.98943e-17
-7.66042e-10
-1.81715e-08
-6.10356e-17
-7.80032e-10
-1.77656e-08
-6.18517e-17
-7.92729e-10
-1.73535e-08
-6.20716e-17
-8.04161e-10
-1.69357e-08
-6.22372e-17
-8.1436e-10
-1.65128e-08
-6.20234e-17
-8.23355e-10
-1.60854e-08
-6.15386e-17
-8.31179e-10
-1.56541e-08
-6.08911e-17
-8.37867e-10
-1.52194e-08
-6.02436e-17
-8.43454e-10
-1.47819e-08
-5.92708e-17
-8.47975e-10
-1.4342e-08
-5.84607e-17
-8.51468e-10
-1.39003e-08
-5.78131e-17
-8.5397e-10
-1.34573e-08
-5.71112e-17
-8.55519e-10
-1.30134e-08
-5.63009e-17
-8.56154e-10
-1.2569e-08
-5.57073e-17
-8.55914e-10
-1.21246e-08
-5.54931e-17
-8.54838e-10
-1.16807e-08
-5.55499e-17
-8.52967e-10
-1.12375e-08
-5.57691e-17
-8.50339e-10
-1.07954e-08
-5.6693e-17
-8.46995e-10
-1.03549e-08
-5.81588e-17
-8.42975e-10
-9.91622e-09
-6.00582e-17
-8.38318e-10
-9.47968e-09
-6.26621e-17
-8.33064e-10
-9.04558e-09
-6.56995e-17
-8.27251e-10
-8.61422e-09
-6.93873e-17
-8.20919e-10
-8.18584e-09
-7.32916e-17
-8.14106e-10
-7.76069e-09
-7.7521e-17
-8.06848e-10
-7.33899e-09
-8.21839e-17
-7.99184e-10
-6.92095e-09
-8.64128e-17
-7.91149e-10
-6.50676e-09
-9.09667e-17
-7.82778e-10
-6.09659e-09
-9.57913e-17
-7.74105e-10
-5.69061e-09
-1.00507e-16
-7.65164e-10
-5.28895e-09
-1.05277e-16
-7.55984e-10
-4.89174e-09
-1.10697e-16
-7.46598e-10
-4.49909e-09
-1.16117e-16
-7.37033e-10
-4.11112e-09
-1.21482e-16
-7.27316e-10
-3.72789e-09
-1.27281e-16
-7.17473e-10
-3.3495e-09
-1.33404e-16
-7.07526e-10
-2.97601e-09
-1.39798e-16
-6.97497e-10
-2.60747e-09
-1.46951e-16
-6.87404e-10
-2.24393e-09
-1.53995e-16
-6.77264e-10
-1.88543e-09
-1.61418e-16
-6.67093e-10
-1.532e-09
-1.70196e-16
-6.56902e-10
-1.18367e-09
-1.79679e-16
-6.46704e-10
-8.40456e-10
-1.88836e-16
-6.3651e-10
-5.02366e-10
-1.97179e-16
-6.26335e-10
-1.69395e-10
-2.06064e-16
-6.1621e-10
1.58384e-10
-2.16954e-16
-6.06081e-10
4.80813e-10
-2.29306e-16
-5.95862e-10
7.97813e-10
-2.45724e-16
-5.85489e-10
1.10935e-09
-2.63009e-16
-5.74936e-10
1.41535e-09
-2.78884e-16
-5.64232e-10
1.71569e-09
-2.92916e-16
-5.5337e-10
2.01025e-09
-3.03154e-16
-5.4232e-10
2.2989e-09
-3.11223e-16
-5.31039e-10
2.58146e-09
-3.1875e-16
-5.19479e-10
2.85775e-09
-3.25463e-16
-5.07588e-10
3.12755e-09
-3.31309e-16
-4.95306e-10
3.39059e-09
-3.37589e-16
-4.82573e-10
3.6466e-09
-3.42731e-16
-4.69321e-10
3.89526e-09
-3.47331e-16
-4.55481e-10
4.1362e-09
-3.51932e-16
-4.4098e-10
4.36903e-09
-3.56315e-16
-4.25742e-10
4.59332e-09
-3.60103e-16
-4.0969e-10
4.80858e-09
-3.63946e-16
-3.92744e-10
5.0143e-09
-3.67844e-16
-3.74824e-10
5.20991e-09
-3.70658e-16
-3.55852e-10
5.39482e-09
-3.73419e-16
-3.3575e-10
5.56838e-09
-3.75964e-16
-3.1444e-10
5.72993e-09
-3.7786e-16
-2.91852e-10
5.87873e-09
-3.79107e-16
-2.67917e-10
6.01405e-09
-3.80355e-16
-2.42575e-10
6.13511e-09
-3.80575e-16
-2.15772e-10
6.24111e-09
-3.80472e-16
-1.87463e-10
6.33123e-09
-3.79936e-16
-1.57616e-10
6.40464e-09
-3.78102e-16
-1.26211e-10
6.46049e-09
-3.75512e-16
-9.32451e-11
6.49793e-09
-3.71297e-16
-5.87311e-11
6.51612e-09
-3.65566e-16
-2.27013e-11
6.51424e-09
-3.5907e-16
1.48216e-11
6.49152e-09
-3.52043e-16
5.3807e-11
6.4472e-09
-3.4307e-16
9.41762e-11
6.38061e-09
-3.32476e-16
1.35819e-10
6.2911e-09
-3.21019e-16
1.78597e-10
6.17812e-09
-3.07941e-16
2.22343e-10
6.04123e-09
-2.92591e-16
2.66859e-10
5.88007e-09
-2.76163e-16
3.11912e-10
5.69446e-09
-2.58114e-16
3.57234e-10
5.48435e-09
-2.38011e-16
4.02515e-10
5.24986e-09
-2.17482e-16
4.47404e-10
4.99133e-09
-1.97284e-16
4.91501e-10
4.70933e-09
-1.78504e-16
5.34353e-10
4.40467e-09
-1.62007e-16
5.75453e-10
4.07848e-09
-1.47145e-16
6.14223e-10
3.73219e-09
-1.33157e-16
6.50018e-10
3.36763e-09
-1.19719e-16
6.82106e-10
2.98703e-09
-1.04878e-16
7.09658e-10
2.5931e-09
-8.92841e-17
7.31732e-10
2.18908e-09
-7.51046e-17
7.4725e-10
1.77886e-09
-6.55908e-17
7.54972e-10
1.36702e-09
-6.32346e-17
7.53451e-10
9.58926e-10
-7.24799e-17
7.40976e-10
5.60783e-10
-8.80088e-17
7.1545e-10
1.79821e-10
-1.07538e-16
6.74676e-10
-1.75378e-10
-1.36481e-16
6.16141e-10
-4.94842e-10
-1.73194e-16
5.36875e-10
-7.67465e-10
-2.17989e-16
4.33831e-10
-9.80969e-10
-2.71297e-16
3.04026e-10
-1.12201e-09
-3.35165e-16
1.45317e-10
-1.1764e-09
-4.07888e-16
-4.19511e-11
-1.13064e-09
-4.89714e-16
-2.51443e-10
-9.73745e-10
-5.64299e-16
-4.65632e-10
-6.9886e-10
-5.93432e-16
-6.43372e-10
-3.20771e-10
4.8972e-17
-6.98434e-10
-1.09297e-15
-4.58801e-10
4.43756e-10
-7.43524e-10
7.34371e-10
-7.35696e-10
8.53521e-10
-4.93558e-10
8.43644e-10
-2.03063e-10
7.24599e-10
6.97622e-11
5.12491e-10
3.03853e-10
2.22043e-10
4.96119e-10
-1.33461e-10
6.50781e-10
-5.42228e-10
7.73989e-10
-9.94279e-10
8.7184e-10
-1.48155e-09
9.49454e-10
-1.99749e-09
1.0111e-09
-2.53671e-09
1.06043e-09
-3.09486e-09
1.10008e-09
-3.66846e-09
1.13215e-09
-4.25468e-09
1.15818e-09
-4.8512e-09
1.17938e-09
-5.45612e-09
1.19662e-09
-6.06783e-09
1.21059e-09
-6.68492e-09
1.22175e-09
-7.30618e-09
1.23046e-09
-7.93049e-09
1.23695e-09
-8.5568e-09
1.24138e-09
-9.18414e-09
1.24384e-09
-9.81152e-09
1.24437e-09
-1.0438e-08
1.24298e-09
-1.10626e-08
1.23965e-09
-1.16843e-08
1.23436e-09
-1.23022e-08
1.22706e-09
-1.29152e-08
1.21771e-09
-1.35222e-08
1.20626e-09
-1.41224e-08
1.19268e-09
-1.47144e-08
1.17693e-09
-1.52974e-08
1.15898e-09
-1.58701e-08
1.13884e-09
-1.64315e-08
1.11649e-09
-1.69806e-08
1.09195e-09
-1.75162e-08
1.06525e-09
-1.80374e-08
1.03644e-09
-1.8543e-08
1.00556e-09
-1.90322e-08
9.7269e-10
-1.95039e-08
9.37902e-10
-1.99572e-08
9.0129e-10
-2.03914e-08
8.62956e-10
-2.08056e-08
8.23012e-10
-2.11991e-08
7.81576e-10
-2.15711e-08
7.38776e-10
-2.19211e-08
6.94744e-10
-2.22485e-08
6.49616e-10
-2.25528e-08
6.03532e-10
-2.28337e-08
5.56634e-10
-2.30907e-08
5.09067e-10
-2.33237e-08
4.60972e-10
-2.35323e-08
4.12493e-10
-2.37165e-08
3.63768e-10
-2.38763e-08
3.14937e-10
-2.40115e-08
2.66132e-10
-2.41223e-08
2.17485e-10
-2.42087e-08
1.6912e-10
-2.4271e-08
1.21158e-10
-2.43095e-08
7.37098e-11
-2.43243e-08
2.6883e-11
-2.43158e-08
-1.92274e-11
-2.42845e-08
-6.45373e-11
-2.42306e-08
-1.08965e-10
-2.41548e-08
-1.52431e-10
-2.40575e-08
-1.94861e-10
-2.39393e-08
-2.36186e-10
-2.38007e-08
-2.76343e-10
-2.36423e-08
-3.15279e-10
-2.34648e-08
-3.52946e-10
-2.32687e-08
-3.89302e-10
-2.30548e-08
-4.24314e-10
-2.28236e-08
-4.57952e-10
-2.2576e-08
-4.90194e-10
-2.23125e-08
-5.2102e-10
-2.20339e-08
-5.50419e-10
-2.17409e-08
-5.78383e-10
-2.14341e-08
-6.04906e-10
-2.11144e-08
-6.2999e-10
-2.07823e-08
-6.53639e-10
-2.04387e-08
-6.7586e-10
-2.00841e-08
-6.96665e-10
-1.97193e-08
-7.16068e-10
-1.9345e-08
-7.34085e-10
-1.89618e-08
-7.50737e-10
-1.85704e-08
-7.66046e-10
-1.81714e-08
-7.80036e-10
-1.77656e-08
-7.92733e-10
-1.73534e-08
-8.04166e-10
-1.69356e-08
-8.14364e-10
-1.65127e-08
-8.23359e-10
-1.60853e-08
-8.31183e-10
-1.5654e-08
-8.37871e-10
-1.52193e-08
-8.43458e-10
-1.47818e-08
-8.47979e-10
-1.43419e-08
-8.51472e-10
-1.39002e-08
-8.53974e-10
-1.34572e-08
-8.55523e-10
-1.30133e-08
-8.56158e-10
-1.25689e-08
-8.55918e-10
-1.21246e-08
-8.54843e-10
-1.16806e-08
-8.52971e-10
-1.12374e-08
-8.50344e-10
-1.07954e-08
-8.47e-10
-1.03548e-08
-8.4298e-10
-9.91616e-09
-8.38323e-10
-9.47962e-09
-8.33068e-10
-9.04553e-09
-8.27256e-10
-8.61416e-09
-8.20924e-10
-8.18578e-09
-8.1411e-10
-7.76063e-09
-8.06853e-10
-7.33893e-09
-7.99189e-10
-6.9209e-09
-7.91154e-10
-6.50671e-09
-7.82783e-10
-6.09654e-09
-7.7411e-10
-5.69056e-09
-7.65168e-10
-5.28889e-09
-7.55989e-10
-4.89169e-09
-7.46603e-10
-4.49904e-09
-7.37038e-10
-4.11107e-09
-7.27321e-10
-3.72784e-09
-7.17478e-10
-3.34945e-09
-7.07531e-10
-2.97596e-09
-6.97502e-10
-2.60742e-09
-6.87409e-10
-2.24388e-09
-6.77269e-10
-1.88538e-09
-6.67098e-10
-1.53195e-09
-6.56907e-10
-1.18363e-09
-6.46709e-10
-8.40412e-10
-6.36515e-10
-5.02323e-10
-6.2634e-10
-1.69352e-10
-6.16215e-10
1.58426e-10
-6.06087e-10
4.80854e-10
-5.95867e-10
7.97854e-10
-5.85494e-10
1.10939e-09
-5.74941e-10
1.41539e-09
-5.64237e-10
1.71573e-09
-5.53376e-10
2.01029e-09
-5.42325e-10
2.29894e-09
-5.31044e-10
2.5815e-09
-5.19484e-10
2.85779e-09
-5.07593e-10
3.12758e-09
-4.95312e-10
3.39063e-09
-4.82578e-10
3.64664e-09
-4.69326e-10
3.8953e-09
-4.55487e-10
4.13624e-09
-4.40985e-10
4.36907e-09
-4.25748e-10
4.59336e-09
-4.09695e-10
4.80862e-09
-3.92749e-10
5.01434e-09
-3.7483e-10
5.20995e-09
-3.55858e-10
5.39486e-09
-3.35755e-10
5.56842e-09
-3.14446e-10
5.72996e-09
-2.91858e-10
5.87877e-09
-2.67923e-10
6.01409e-09
-2.42581e-10
6.13515e-09
-2.15777e-10
6.24115e-09
-1.87469e-10
6.33127e-09
-1.57622e-10
6.40468e-09
-1.26217e-10
6.46053e-09
-9.32509e-11
6.49797e-09
-5.87368e-11
6.51616e-09
-2.27069e-11
6.51428e-09
1.4816e-11
6.49155e-09
5.38015e-11
6.44724e-09
9.41708e-11
6.38064e-09
1.35813e-10
6.29113e-09
1.78591e-10
6.17816e-09
2.22338e-10
6.04126e-09
2.66854e-10
5.88011e-09
3.11907e-10
5.6945e-09
3.57229e-10
5.48438e-09
4.0251e-10
5.24989e-09
4.47399e-10
4.99136e-09
4.91496e-10
4.70936e-09
5.34349e-10
4.4047e-09
5.75448e-10
4.07851e-09
6.14219e-10
3.73222e-09
6.50014e-10
3.36765e-09
6.82102e-10
2.98705e-09
7.09654e-10
2.59312e-09
7.31728e-10
2.1891e-09
7.47247e-10
1.77888e-09
7.54968e-10
1.36703e-09
7.53447e-10
9.58938e-10
7.40972e-10
5.60794e-10
7.15446e-10
1.7983e-10
6.74671e-10
-1.75371e-10
6.16136e-10
-4.94836e-10
5.36869e-10
-7.67461e-10
4.33824e-10
-9.80968e-10
3.04018e-10
-1.122e-09
1.45306e-10
-1.1764e-09
-4.19637e-11
-1.13064e-09
-2.51459e-10
-9.73753e-10
-4.65651e-10
-6.98877e-10
-6.43395e-10
-3.20807e-10
-6.98459e-10
-4.58822e-10
3.60543e-10
-6.90036e-16
-1.10413e-09
4.75636e-10
1.14282e-15
-8.50848e-10
4.37086e-10
1.50074e-15
-4.55035e-10
3.05324e-10
1.23539e-15
-7.13216e-11
1.02207e-10
1.13746e-15
2.72863e-10
-1.61842e-10
1.0414e-15
5.6789e-10
-4.7965e-10
9.49021e-16
8.13916e-10
-8.44702e-10
8.25934e-16
1.01582e-09
-1.25079e-09
7.46293e-16
1.18007e-09
-1.69208e-09
7.5064e-16
1.31312e-09
-2.16338e-09
7.54946e-16
1.42075e-09
-2.66017e-09
7.29474e-16
1.50788e-09
-3.17839e-09
7.18945e-16
1.57864e-09
-3.71462e-09
7.41002e-16
1.6363e-09
-4.26594e-09
7.68133e-16
1.68346e-09
-4.82988e-09
7.78138e-16
1.72212e-09
-5.40436e-09
7.72562e-16
1.75384e-09
-5.98756e-09
7.59778e-16
1.77982e-09
-6.57794e-09
7.41875e-16
1.80095e-09
-7.1741e-09
7.16628e-16
1.81791e-09
-7.77481e-09
6.84336e-16
1.83116e-09
-8.37893e-09
6.49146e-16
1.84106e-09
-8.9854e-09
6.16289e-16
1.84783e-09
-9.59318e-09
5.88556e-16
1.85161e-09
-1.02013e-08
5.64945e-16
1.85246e-09
-1.08087e-08
5.43261e-16
1.85041e-09
-1.14145e-08
5.21658e-16
1.84544e-09
-1.20177e-08
4.99705e-16
1.83753e-09
-1.26173e-08
4.7854e-16
1.8266e-09
-1.32122e-08
4.59598e-16
1.81262e-09
-1.38015e-08
4.44019e-16
1.79552e-09
-1.4384e-08
4.31829e-16
1.77524e-09
-1.49589e-08
4.22432e-16
1.75175e-09
-1.55249e-08
4.14635e-16
1.72501e-09
-1.60811e-08
4.06894e-16
1.69501e-09
-1.66264e-08
3.98069e-16
1.66176e-09
-1.71598e-08
3.87484e-16
1.62528e-09
-1.76801e-08
3.74677e-16
1.5856e-09
-1.81865e-08
3.60461e-16
1.5428e-09
-1.86779e-08
3.45488e-16
1.49694e-09
-1.91533e-08
3.30651e-16
1.44813e-09
-1.96119e-08
3.1698e-16
1.39648e-09
-2.00528e-08
3.0518e-16
1.34213e-09
-2.04751e-08
2.95414e-16
1.28523e-09
-2.0878e-08
2.87573e-16
1.22593e-09
-2.12609e-08
2.81142e-16
1.1644e-09
-2.1623e-08
2.75227e-16
1.10085e-09
-2.19637e-08
2.68987e-16
1.03545e-09
-2.22825e-08
2.61717e-16
9.684e-10
-2.25789e-08
2.53256e-16
8.99914e-10
-2.28525e-08
2.43575e-16
8.30196e-10
-2.31029e-08
2.32892e-16
7.59456e-10
-2.33299e-08
2.21694e-16
6.87903e-10
-2.35331e-08
2.10659e-16
6.15745e-10
-2.37126e-08
2.00193e-16
5.4319e-10
-2.38681e-08
1.90948e-16
4.70438e-10
-2.39997e-08
1.82977e-16
3.97687e-10
-2.41074e-08
1.76767e-16
3.25127e-10
-2.41912e-08
1.71887e-16
2.52943e-10
-2.42514e-08
1.68334e-16
1.8131e-10
-2.42881e-08
1.65839e-16
1.10395e-10
-2.43016e-08
1.64347e-16
4.03527e-11
-2.42922e-08
1.63261e-16
-2.86713e-11
-2.42602e-08
1.62691e-16
-9.65413e-11
-2.42061e-08
1.62365e-16
-1.6313e-10
-2.41302e-08
1.62201e-16
-2.28319e-10
-2.40331e-08
1.61848e-16
-2.91998e-10
-2.39152e-08
1.6163e-16
-3.54067e-10
-2.37772e-08
1.60925e-16
-4.14435e-10
-2.36195e-08
1.59704e-16
-4.73021e-10
-2.34427e-08
1.57887e-16
-5.29752e-10
-2.32474e-08
1.55312e-16
-5.84568e-10
-2.30344e-08
1.5214e-16
-6.37416e-10
-2.28041e-08
1.48209e-16
-6.88251e-10
-2.25573e-08
1.43763e-16
-7.37036e-10
-2.22946e-08
1.3872e-16
-7.83745e-10
-2.20167e-08
1.33651e-16
-8.28356e-10
-2.17242e-08
1.28067e-16
-8.70854e-10
-2.14179e-08
1.22509e-16
-9.11233e-10
-2.10985e-08
1.16844e-16
-9.49491e-10
-2.07665e-08
1.11259e-16
-9.85633e-10
-2.04227e-08
1.05729e-16
-1.01967e-09
-2.00678e-08
1.00334e-16
-1.05161e-09
-1.97024e-08
9.50209e-17
-1.08148e-09
-1.93272e-08
8.9843e-17
-1.1093e-09
-1.89429e-08
8.49362e-17
-1.1351e-09
-1.85501e-08
8.0192e-17
-1.15891e-09
-1.81494e-08
7.55021e-17
-1.18076e-09
-1.77415e-08
7.11374e-17
-1.20069e-09
-1.73269e-08
6.70166e-17
-1.21875e-09
-1.69063e-08
6.29772e-17
-1.23496e-09
-1.64803e-08
5.91547e-17
-1.24939e-09
-1.60495e-08
5.54406e-17
-1.26207e-09
-1.56143e-08
5.17807e-17
-1.27305e-09
-1.51755e-08
4.8392e-17
-1.28239e-09
-1.47333e-08
4.50032e-17
-1.29013e-09
-1.42885e-08
4.18856e-17
-1.29632e-09
-1.38415e-08
3.88494e-17
-1.30103e-09
-1.33927e-08
3.57861e-17
-1.30431e-09
-1.29427e-08
3.29127e-17
-1.30621e-09
-1.24919e-08
2.99851e-17
-1.30678e-09
-1.20407e-08
2.72473e-17
-1.30609e-09
-1.15895e-08
2.43742e-17
-1.30419e-09
-1.11387e-08
2.16095e-17
-1.30115e-09
-1.06887e-08
1.86823e-17
-1.297e-09
-1.02399e-08
1.57011e-17
-1.29183e-09
-9.79262e-09
1.26115e-17
-1.28567e-09
-9.34714e-09
9.495e-18
-1.27859e-09
-8.90379e-09
6.43284e-18
-1.27064e-09
-8.46285e-09
3.28953e-18
-1.26189e-09
-8.02462e-09
4.44529e-19
-1.25238e-09
-7.58933e-09
-2.34609e-18
-1.24217e-09
-7.15723e-09
-5.001e-18
-1.23132e-09
-6.72855e-09
-7.24915e-18
-1.21988e-09
-6.30348e-09
-9.19895e-18
-1.20789e-09
-5.88222e-09
-1.11485e-17
-1.19541e-09
-5.46494e-09
-1.25829e-17
-1.18248e-09
-5.0518e-09