/*--------------------------------*- C++ -*----------------------------------*\
  =========                 |
  \\      /  F ield         | OpenFOAM: The Open Source CFD Toolbox
   \\    /   O peration     | Website:  https://openfoam.org
    \\  /    A nd           | Version:  8
     \\/     M anipulation  |
\*---------------------------------------------------------------------------*/
FoamFile
{
    version     2.0;
    format      ascii;
    class       volScalarField;
    location    "2600";
    object      T;
}
// * * * * * * * * * * * * * * * * * * * * * * * * * * * * * * * * * * * * * //

dimensions      [0 0 0 1 0 0 0];

internalField   nonuniform List<scalar> 
46000
(
310.791
309.972
309.246
308.74
308.367
308.07
307.822
307.61
307.423
307.257
307.106
306.969
306.844
306.728
306.621
306.522
306.429
306.343
306.262
306.186
306.115
306.048
305.986
305.927
305.871
305.819
305.769
305.722
305.678
305.637
305.597
305.56
305.525
305.492
305.46
305.43
305.402
305.375
305.35
305.326
305.303
305.282
305.262
305.243
305.225
305.208
305.193
305.178
305.164
305.152
305.14
305.13
305.12
305.111
305.103
305.096
305.09
305.085
305.081
305.078
305.076
305.074
305.073
305.073
305.074
305.076
305.078
305.082
305.086
305.091
305.098
305.105
305.112
305.121
305.131
305.141
305.152
305.164
305.177
305.19
305.204
305.219
305.235
305.251
305.269
305.286
305.305
305.324
305.344
305.364
305.385
305.406
305.428
305.451
305.474
305.497
305.521
305.545
305.57
305.595
305.62
305.646
305.672
305.699
305.725
305.752
305.779
305.806
305.834
305.861
305.889
305.917
305.944
305.972
306
306.028
306.057
306.085
306.113
306.141
306.169
306.197
306.226
306.254
306.282
306.31
306.339
306.367
306.395
306.424
306.452
306.481
306.51
306.539
306.568
306.597
306.627
306.656
306.686
306.717
306.748
306.779
306.811
306.843
306.876
306.909
306.944
306.979
307.014
307.051
307.088
307.127
307.166
307.207
307.249
307.292
307.336
307.382
307.429
307.477
307.527
307.579
307.632
307.687
307.743
307.801
307.86
307.921
307.984
308.049
308.115
308.183
308.254
308.326
308.4
308.476
308.554
308.634
308.716
308.799
308.885
308.972
309.061
309.152
309.245
309.34
309.438
309.538
309.641
309.748
309.859
309.977
310.103
310.242
310.395
310.575
310.799
311.091
311.462
311.775
310.791
309.972
309.246
308.74
308.367
308.07
307.822
307.61
307.423
307.257
307.106
306.969
306.844
306.728
306.621
306.522
306.429
306.343
306.262
306.186
306.115
306.048
305.986
305.927
305.871
305.819
305.769
305.722
305.678
305.637
305.597
305.56
305.525
305.492
305.46
305.43
305.402
305.375
305.35
305.326
305.303
305.282
305.262
305.243
305.225
305.208
305.193
305.178
305.164
305.152
305.14
305.13
305.12
305.111
305.103
305.096
305.09
305.085
305.081
305.078
305.076
305.074
305.073
305.073
305.074
305.076
305.078
305.082
305.086
305.092
305.098
305.105
305.112
305.121
305.131
305.141
305.152
305.164
305.177
305.19
305.204
305.219
305.235
305.251
305.269
305.286
305.305
305.324
305.344
305.364
305.385
305.406
305.428
305.451
305.474
305.497
305.521
305.545
305.57
305.595
305.62
305.646
305.672
305.699
305.725
305.752
305.779
305.806
305.834
305.861
305.889
305.917
305.944
305.972
306
306.028
306.057
306.085
306.113
306.141
306.169
306.197
306.226
306.254
306.282
306.31
306.339
306.367
306.395
306.424
306.452
306.481
306.51
306.539
306.568
306.597
306.627
306.656
306.686
306.717
306.748
306.779
306.811
306.843
306.876
306.909
306.944
306.979
307.014
307.051
307.088
307.127
307.166
307.207
307.249
307.292
307.336
307.382
307.429
307.477
307.527
307.579
307.632
307.687
307.743
307.801
307.86
307.921
307.984
308.049
308.115
308.183
308.254
308.326
308.4
308.476
308.554
308.634
308.716
308.799
308.885
308.972
309.061
309.152
309.245
309.34
309.438
309.538
309.641
309.748
309.859
309.977
310.103
310.242
310.395
310.575
310.799
311.091
311.462
311.775
307.415
306.88
306.452
306.129
305.875
305.667
305.493
305.342
305.209
305.091
304.985
304.888
304.8
304.719
304.645
304.576
304.512
304.454
304.399
304.348
304.301
304.257
304.216
304.178
304.143
304.109
304.078
304.048
304.021
303.995
303.971
303.948
303.926
303.905
303.886
303.867
303.85
303.833
303.817
303.802
303.788
303.774
303.761
303.748
303.736
303.724
303.713
303.703
303.692
303.683
303.674
303.665
303.656
303.648
303.641
303.634
303.627
303.621
303.615
303.61
303.605
303.6
303.596
303.593
303.589
303.586
303.584
303.582
303.581
303.58
303.58
303.58
303.58
303.581
303.583
303.585
303.588
303.591
303.594
303.598
303.602
303.607
303.613
303.619
303.625
303.632
303.639
303.646
303.654
303.663
303.672
303.681
303.691
303.701
303.711
303.722
303.733
303.745
303.757
303.769
303.782
303.795
303.808
303.822
303.835
303.85
303.864
303.879
303.894
303.909
303.925
303.94
303.956
303.973
303.989
304.006
304.023
304.04
304.058
304.076
304.094
304.112
304.13
304.149
304.168
304.188
304.207
304.227
304.248
304.268
304.289
304.311
304.333
304.355
304.377
304.4
304.424
304.448
304.473
304.498
304.524
304.55
304.578
304.606
304.634
304.664
304.694
304.726
304.758
304.791
304.826
304.861
304.898
304.936
304.975
305.016
305.058
305.101
305.146
305.193
305.241
305.29
305.342
305.395
305.449
305.506
305.564
305.624
305.686
305.75
305.816
305.884
305.954
306.025
306.099
306.174
306.252
306.331
306.412
306.495
306.579
306.665
306.753
306.842
306.933
307.026
307.12
307.217
307.315
307.416
307.522
307.632
307.749
307.878
308.025
308.197
308.409
308.686
309.057
309.452
307.415
306.88
306.452
306.129
305.875
305.667
305.493
305.342
305.209
305.091
304.984
304.888
304.8
304.719
304.644
304.576
304.512
304.454
304.399
304.348
304.301
304.257
304.216
304.178
304.143
304.109
304.078
304.048
304.021
303.995
303.971
303.948
303.926
303.905
303.886
303.867
303.85
303.833
303.817
303.802
303.788
303.774
303.761
303.748
303.736
303.724
303.713
303.703
303.692
303.683
303.674
303.665
303.656
303.648
303.641
303.634
303.627
303.621
303.615
303.61
303.605
303.6
303.596
303.593
303.589
303.587
303.584
303.582
303.581
303.58
303.58
303.58
303.58
303.581
303.583
303.585
303.588
303.591
303.594
303.598
303.602
303.607
303.613
303.619
303.625
303.632
303.639
303.646
303.654
303.663
303.672
303.681
303.691
303.701
303.711
303.722
303.733
303.745
303.757
303.769
303.782
303.795
303.808
303.822
303.835
303.85
303.864
303.879
303.894
303.909
303.925
303.94
303.956
303.973
303.989
304.006
304.023
304.04
304.058
304.076
304.094
304.112
304.131
304.149
304.168
304.188
304.207
304.227
304.248
304.268
304.289
304.311
304.333
304.355
304.377
304.4
304.424
304.448
304.473
304.498
304.524
304.55
304.578
304.606
304.634
304.664
304.694
304.726
304.758
304.791
304.826
304.861
304.898
304.936
304.975
305.016
305.058
305.101
305.146
305.193
305.241
305.29
305.342
305.395
305.449
305.506
305.564
305.624
305.686
305.75
305.816
305.884
305.954
306.025
306.099
306.174
306.252
306.331
306.412
306.495
306.579
306.665
306.753
306.842
306.933
307.026
307.12
307.217
307.315
307.417
307.522
307.632
307.749
307.878
308.025
308.197
308.409
308.686
309.057
309.452
305.57
305.385
305.178
304.986
304.815
304.664
304.531
304.412
304.305
304.209
304.121
304.041
303.968
303.9
303.838
303.78
303.727
303.678
303.633
303.591
303.551
303.515
303.481
303.45
303.421
303.393
303.368
303.344
303.322
303.301
303.281
303.263
303.245
303.229
303.213
303.198
303.184
303.17
303.158
303.145
303.133
303.122
303.111
303.1
303.09
303.08
303.071
303.061
303.052
303.044
303.035
303.027
303.019
303.012
303.005
302.998
302.991
302.984
302.978
302.972
302.967
302.961
302.956
302.952
302.947
302.943
302.94
302.936
302.933
302.931
302.929
302.927
302.925
302.924
302.923
302.923
302.923
302.924
302.924
302.926
302.927
302.929
302.932
302.935
302.938
302.942
302.946
302.95
302.955
302.96
302.965
302.971
302.977
302.984
302.991
302.998
303.006
303.014
303.022
303.031
303.04
303.049
303.059
303.069
303.079
303.09
303.101
303.112
303.123
303.135
303.147
303.16
303.172
303.185
303.199
303.212
303.226
303.24
303.255
303.27
303.285
303.3
303.316
303.332
303.348
303.365
303.382
303.4
303.418
303.436
303.455
303.474
303.494
303.514
303.535
303.556
303.578
303.6
303.623
303.647
303.671
303.696
303.722
303.749
303.776
303.804
303.834
303.864
303.895
303.927
303.961
303.995
304.031
304.068
304.106
304.146
304.187
304.229
304.273
304.319
304.366
304.415
304.465
304.517
304.571
304.627
304.684
304.743
304.804
304.867
304.931
304.998
305.066
305.136
305.208
305.282
305.358
305.435
305.513
305.594
305.675
305.758
305.843
305.928
306.015
306.103
306.192
306.282
306.373
306.466
306.561
306.66
306.762
306.872
306.99
307.122
307.272
307.446
307.65
307.862
305.57
305.385
305.178
304.986
304.815
304.664
304.531
304.412
304.305
304.209
304.121
304.041
303.968
303.9
303.838
303.78
303.727
303.678
303.633
303.591
303.551
303.515
303.481
303.45
303.421
303.393
303.368
303.344
303.322
303.301
303.281
303.263
303.245
303.229
303.213
303.198
303.184
303.17
303.158
303.145
303.133
303.122
303.111
303.1
303.09
303.08
303.071
303.061
303.052
303.044
303.035
303.027
303.019
303.012
303.005
302.998
302.991
302.984
302.978
302.972
302.967
302.961
302.956
302.952
302.947
302.943
302.94
302.936
302.933
302.931
302.929
302.927
302.925
302.924
302.923
302.923
302.923
302.924
302.925
302.926
302.927
302.929
302.932
302.935
302.938
302.942
302.946
302.95
302.955
302.96
302.965
302.971
302.977
302.984
302.991
302.998
303.006
303.014
303.022
303.031
303.04
303.049
303.059
303.069
303.079
303.09
303.101
303.112
303.124
303.135
303.147
303.16
303.172
303.185
303.199
303.212
303.226
303.24
303.255
303.27
303.285
303.3
303.316
303.332
303.348
303.365
303.382
303.4
303.418
303.436
303.455
303.474
303.494
303.514
303.535
303.556
303.578
303.6
303.623
303.647
303.671
303.696
303.722
303.749
303.776
303.804
303.834
303.864
303.895
303.927
303.961
303.995
304.031
304.068
304.106
304.146
304.187
304.229
304.273
304.319
304.366
304.415
304.465
304.517
304.571
304.627
304.684
304.743
304.804
304.867
304.931
304.998
305.066
305.136
305.208
305.282
305.358
305.435
305.513
305.594
305.675
305.758
305.843
305.928
306.015
306.103
306.192
306.282
306.373
306.466
306.561
306.66
306.762
306.872
306.99
307.122
307.272
307.446
307.65
307.862
304.529
304.475
304.375
304.26
304.144
304.033
303.93
303.835
303.747
303.665
303.591
303.522
303.458
303.399
303.345
303.294
303.248
303.204
303.164
303.127
303.093
303.061
303.031
303.004
302.978
302.954
302.932
302.911
302.892
302.873
302.856
302.84
302.825
302.811
302.797
302.784
302.772
302.76
302.749
302.738
302.728
302.718
302.708
302.698
302.689
302.68
302.671
302.663
302.655
302.647
302.639
302.631
302.624
302.616
302.609
302.602
302.596
302.589
302.583
302.577
302.571
302.565
302.56
302.555
302.55
302.545
302.541
302.537
302.533
302.53
302.527
302.524
302.522
302.52
302.518
302.516
302.515
302.515
302.514
302.514
302.515
302.515
302.516
302.518
302.52
302.522
302.524
302.527
302.53
302.534
302.538
302.542
302.547
302.552
302.557
302.563
302.569
302.575
302.582
302.589
302.596
302.604
302.612
302.62
302.629
302.638
302.647
302.657
302.667
302.677
302.687
302.698
302.709
302.721
302.732
302.745
302.757
302.77
302.783
302.796
302.81
302.824
302.838
302.853
302.868
302.884
302.9
302.916
302.933
302.95
302.968
302.986
303.005
303.024
303.044
303.064
303.085
303.107
303.129
303.152
303.175
303.2
303.225
303.251
303.277
303.305
303.334
303.363
303.394
303.425
303.458
303.492
303.527
303.564
303.602
303.641
303.681
303.723
303.767
303.811
303.858
303.906
303.956
304.007
304.061
304.115
304.172
304.23
304.291
304.352
304.416
304.482
304.549
304.618
304.689
304.761
304.835
304.91
304.987
305.065
305.145
305.225
305.307
305.389
305.472
305.556
305.641
305.726
305.812
305.898
305.985
306.073
306.164
306.256
306.352
306.452
306.556
306.66
306.759
306.842
304.529
304.475
304.375
304.26
304.144
304.033
303.93
303.835
303.747
303.665
303.591
303.522
303.458
303.399
303.345
303.294
303.248
303.204
303.164
303.127
303.093
303.061
303.031
303.004
302.978
302.954
302.932
302.911
302.892
302.873
302.856
302.84
302.825
302.811
302.797
302.784
302.772
302.76
302.749
302.738
302.728
302.718
302.708
302.698
302.689
302.68
302.671
302.663
302.655
302.647
302.639
302.631
302.624
302.616
302.609
302.602
302.596
302.589
302.583
302.577
302.571
302.565
302.56
302.555
302.55
302.545
302.541
302.537
302.533
302.53
302.527
302.524
302.522
302.52
302.518
302.516
302.515
302.515
302.514
302.514
302.515
302.515
302.517
302.518
302.52
302.522
302.524
302.527
302.53
302.534
302.538
302.542
302.547
302.552
302.557
302.563
302.569
302.575
302.582
302.589
302.596
302.604
302.612
302.62
302.629
302.638
302.647
302.657
302.667
302.677
302.687
302.698
302.709
302.721
302.732
302.745
302.757
302.77
302.783
302.796
302.81
302.824
302.838
302.853
302.868
302.884
302.9
302.916
302.933
302.95
302.968
302.986
303.005
303.024
303.044
303.064
303.085
303.107
303.129
303.152
303.175
303.2
303.225
303.251
303.277
303.305
303.334
303.363
303.394
303.425
303.458
303.492
303.527
303.564
303.602
303.641
303.681
303.723
303.767
303.811
303.858
303.906
303.956
304.007
304.061
304.115
304.172
304.23
304.291
304.352
304.416
304.482
304.549
304.618
304.689
304.761
304.835
304.91
304.987
305.065
305.145
305.225
305.307
305.389
305.472
305.556
305.641
305.726
305.812
305.898
305.985
306.073
306.164
306.256
306.352
306.453
306.556
306.66
306.759
306.842
303.857
303.843
303.792
303.72
303.64
303.559
303.479
303.402
303.329
303.26
303.196
303.137
303.081
303.029
302.981
302.936
302.895
302.856
302.82
302.787
302.756
302.727
302.701
302.676
302.653
302.631
302.612
302.593
302.576
302.559
302.544
302.53
302.516
302.503
302.491
302.48
302.469
302.458
302.448
302.438
302.429
302.42
302.411
302.402
302.394
302.386
302.378
302.37
302.362
302.354
302.347
302.339
302.332
302.325
302.318
302.312
302.305
302.298
302.292
302.286
302.28
302.274
302.269
302.263
302.258
302.253
302.249
302.244
302.24
302.236
302.233
302.229
302.226
302.224
302.221
302.219
302.218
302.216
302.215
302.214
302.214
302.214
302.214
302.215
302.216
302.217
302.218
302.22
302.223
302.225
302.228
302.232
302.235
302.239
302.244
302.248
302.253
302.259
302.264
302.27
302.277
302.283
302.29
302.298
302.305
302.313
302.321
302.33
302.339
302.348
302.358
302.368
302.378
302.388
302.399
302.41
302.422
302.434
302.446
302.458
302.471
302.485
302.498
302.512
302.527
302.542
302.557
302.572
302.588
302.605
302.622
302.64
302.658
302.676
302.695
302.715
302.735
302.756
302.778
302.8
302.823
302.847
302.872
302.897
302.923
302.951
302.979
303.008
303.038
303.069
303.102
303.135
303.17
303.206
303.243
303.282
303.322
303.364
303.407
303.451
303.497
303.545
303.594
303.645
303.697
303.752
303.808
303.865
303.925
303.986
304.049
304.113
304.179
304.247
304.317
304.388
304.46
304.534
304.609
304.685
304.763
304.841
304.92
304.999
305.079
305.159
305.24
305.32
305.401
305.481
305.561
305.641
305.72
305.799
305.877
305.953
306.025
306.088
306.135
306.159
303.857
303.843
303.792
303.72
303.64
303.559
303.479
303.402
303.329
303.26
303.196
303.137
303.081
303.029
302.981
302.936
302.895
302.856
302.82
302.787
302.756
302.727
302.701
302.676
302.653
302.631
302.612
302.593
302.576
302.559
302.544
302.53
302.516
302.503
302.491
302.48
302.469
302.458
302.448
302.438
302.429
302.42
302.411
302.402
302.394
302.386
302.378
302.37
302.362
302.354
302.347
302.339
302.332
302.325
302.318
302.312
302.305
302.298
302.292
302.286
302.28
302.274
302.269
302.263
302.258
302.253
302.249
302.244
302.24
302.236
302.233
302.229
302.226
302.224
302.221
302.219
302.218
302.216
302.215
302.214
302.214
302.214
302.214
302.215
302.216
302.217
302.218
302.22
302.223
302.225
302.228
302.232
302.235
302.239
302.244
302.248
302.253
302.259
302.264
302.27
302.277
302.283
302.29
302.298
302.305
302.313
302.321
302.33
302.339
302.348
302.358
302.368
302.378
302.388
302.399
302.41
302.422
302.434
302.446
302.458
302.471
302.485
302.498
302.512
302.527
302.542
302.557
302.572
302.588
302.605
302.622
302.64
302.658
302.676
302.695
302.715
302.735
302.756
302.778
302.8
302.823
302.847
302.872
302.897
302.923
302.951
302.979
303.008
303.038
303.069
303.102
303.135
303.17
303.206
303.243
303.282
303.322
303.364
303.407
303.451
303.497
303.545
303.594
303.645
303.697
303.752
303.808
303.865
303.925
303.986
304.049
304.113
304.179
304.247
304.317
304.388
304.46
304.534
304.609
304.685
304.763
304.841
304.92
304.999
305.079
305.159
305.24
305.32
305.401
305.481
305.561
305.641
305.72
305.799
305.877
305.953
306.025
306.088
306.135
306.159
303.369
303.367
303.337
303.29
303.234
303.173
303.11
303.048
302.988
302.93
302.875
302.823
302.774
302.729
302.686
302.646
302.609
302.574
302.542
302.512
302.484
302.458
302.434
302.412
302.391
302.372
302.354
302.337
302.321
302.306
302.293
302.28
302.267
302.256
302.245
302.235
302.225
302.215
302.206
302.197
302.188
302.18
302.172
302.164
302.156
302.148
302.141
302.133
302.126
302.119
302.112
302.104
302.098
302.091
302.084
302.077
302.071
302.064
302.058
302.052
302.046
302.04
302.035
302.029
302.024
302.019
302.014
302.009
302.005
302.001
301.997
301.993
301.99
301.987
301.984
301.981
301.979
301.977
301.976
301.974
301.973
301.973
301.972
301.972
301.973
301.973
301.974
301.976
301.977
301.979
301.981
301.984
301.987
301.99
301.994
301.998
302.002
302.007
302.012
302.017
302.023
302.029
302.035
302.042
302.049
302.056
302.064
302.071
302.08
302.088
302.097
302.106
302.116
302.126
302.136
302.147
302.157
302.169
302.18
302.192
302.205
302.217
302.23
302.244
302.258
302.272
302.287
302.302
302.317
302.333
302.35
302.367
302.385
302.403
302.421
302.441
302.461
302.481
302.502
302.524
302.547
302.57
302.594
302.62
302.645
302.672
302.7
302.729
302.759
302.79
302.822
302.855
302.889
302.925
302.962
303
303.04
303.081
303.124
303.168
303.213
303.26
303.309
303.36
303.412
303.465
303.521
303.578
303.636
303.697
303.759
303.822
303.887
303.954
304.022
304.092
304.163
304.235
304.309
304.383
304.458
304.534
304.61
304.687
304.764
304.841
304.918
304.994
305.069
305.144
305.218
305.29
305.36
305.428
305.492
305.552
305.604
305.644
305.667
305.668
303.369
303.367
303.337
303.29
303.234
303.173
303.11
303.048
302.988
302.93
302.875
302.823
302.774
302.729
302.686
302.646
302.609
302.574
302.542
302.512
302.484
302.458
302.434
302.412
302.391
302.372
302.354
302.337
302.321
302.306
302.293
302.28
302.267
302.256
302.245
302.235
302.225
302.215
302.206
302.197
302.188
302.18
302.172
302.164
302.156
302.148
302.141
302.133
302.126
302.119
302.112
302.105
302.098
302.091
302.084
302.077
302.071
302.064
302.058
302.052
302.046
302.04
302.035
302.029
302.024
302.019
302.014
302.009
302.005
302.001
301.997
301.993
301.99
301.987
301.984
301.981
301.979
301.977
301.976
301.974
301.973
301.973
301.972
301.972
301.973
301.973
301.974
301.976
301.977
301.979
301.981
301.984
301.987
301.99
301.994
301.998
302.002
302.007
302.012
302.017
302.023
302.029
302.035
302.042
302.049
302.056
302.064
302.071
302.08
302.088
302.097
302.106
302.116
302.126
302.136
302.147
302.157
302.169
302.18
302.192
302.205
302.217
302.23
302.244
302.258
302.272
302.287
302.302
302.317
302.333
302.35
302.367
302.385
302.403
302.421
302.441
302.461
302.481
302.502
302.524
302.547
302.57
302.594
302.62
302.645
302.672
302.7
302.729
302.759
302.79
302.822
302.855
302.889
302.925
302.962
303
303.04
303.081
303.124
303.168
303.213
303.26
303.309
303.36
303.412
303.465
303.521
303.578
303.636
303.697
303.759
303.822
303.887
303.954
304.022
304.092
304.163
304.235
304.309
304.383
304.458
304.534
304.61
304.687
304.764
304.841
304.918
304.994
305.069
305.144
305.218
305.29
305.36
305.428
305.492
305.552
305.604
305.644
305.667
305.668
302.984
302.985
302.966
302.933
302.892
302.845
302.796
302.745
302.695
302.646
302.599
302.554
302.512
302.471
302.433
302.398
302.364
302.333
302.304
302.277
302.252
302.228
302.207
302.186
302.168
302.15
302.134
302.118
302.104
302.091
302.078
302.067
302.056
302.045
302.035
302.026
302.017
302.008
302
301.991
301.983
301.976
301.968
301.961
301.953
301.946
301.939
301.932
301.925
301.918
301.911
301.905
301.898
301.891
301.885
301.878
301.872
301.866
301.859
301.853
301.847
301.841
301.836
301.83
301.825
301.82
301.815
301.81
301.805
301.801
301.797
301.793
301.789
301.786
301.782
301.78
301.777
301.775
301.773
301.771
301.77
301.769
301.768
301.767
301.767
301.767
301.768
301.769
301.77
301.771
301.773
301.775
301.778
301.781
301.784
301.787
301.791
301.795
301.8
301.804
301.81
301.815
301.821
301.827
301.833
301.84
301.847
301.854
301.862
301.87
301.879
301.887
301.896
301.906
301.915
301.925
301.936
301.947
301.958
301.969
301.981
301.993
302.006
302.019
302.033
302.046
302.061
302.075
302.091
302.106
302.122
302.139
302.156
302.174
302.193
302.211
302.231
302.251
302.272
302.294
302.316
302.339
302.363
302.388
302.413
302.44
302.468
302.496
302.526
302.556
302.588
302.621
302.655
302.69
302.727
302.765
302.804
302.845
302.887
302.931
302.976
303.023
303.071
303.121
303.173
303.226
303.28
303.337
303.395
303.454
303.515
303.578
303.642
303.708
303.775
303.843
303.913
303.984
304.055
304.128
304.201
304.275
304.349
304.423
304.497
304.571
304.644
304.716
304.787
304.857
304.925
304.99
305.053
305.112
305.167
305.215
305.254
305.283
305.295
305.289
302.984
302.985
302.966
302.933
302.892
302.845
302.796
302.745
302.695
302.646
302.599
302.554
302.512
302.471
302.433
302.398
302.364
302.333
302.304
302.277
302.252
302.228
302.207
302.186
302.168
302.15
302.134
302.118
302.104
302.091
302.078
302.067
302.056
302.045
302.035
302.026
302.017
302.008
302
301.991
301.983
301.976
301.968
301.961
301.953
301.946
301.939
301.932
301.925
301.918
301.911
301.905
301.898
301.891
301.885
301.878
301.872
301.866
301.859
301.853
301.847
301.841
301.836
301.83
301.825
301.82
301.815
301.81
301.805
301.801
301.797
301.793
301.789
301.786
301.782
301.78
301.777
301.775
301.773
301.771
301.77
301.769
301.768
301.767
301.767
301.767
301.768
301.769
301.77
301.771
301.773
301.775
301.778
301.781
301.784
301.787
301.791
301.795
301.8
301.804
301.81
301.815
301.821
301.827
301.833
301.84
301.847
301.854
301.862
301.87
301.879
301.887
301.896
301.906
301.915
301.925
301.936
301.947
301.958
301.969
301.981
301.993
302.006
302.019
302.033
302.046
302.061
302.075
302.091
302.106
302.122
302.139
302.156
302.174
302.193
302.211
302.231
302.251
302.272
302.294
302.316
302.339
302.363
302.388
302.413
302.44
302.468
302.496
302.526
302.556
302.588
302.621
302.655
302.69
302.727
302.765
302.804
302.845
302.887
302.931
302.976
303.023
303.071
303.121
303.173
303.226
303.28
303.337
303.395
303.454
303.515
303.578
303.642
303.708
303.775
303.843
303.913
303.984
304.055
304.128
304.201
304.275
304.349
304.423
304.497
304.571
304.644
304.716
304.787
304.857
304.925
304.99
305.053
305.112
305.167
305.215
305.254
305.283
305.295
305.289
302.665
302.665
302.652
302.628
302.596
302.56
302.52
302.479
302.437
302.396
302.355
302.316
302.279
302.243
302.21
302.178
302.148
302.12
302.094
302.07
302.047
302.026
302.006
301.987
301.97
301.954
301.94
301.926
301.913
301.901
301.889
301.879
301.869
301.859
301.85
301.841
301.833
301.825
301.818
301.81
301.803
301.796
301.789
301.782
301.775
301.768
301.761
301.755
301.748
301.742
301.735
301.728
301.722
301.716
301.709
301.703
301.697
301.69
301.684
301.678
301.672
301.666
301.661
301.655
301.65
301.644
301.639
301.634
301.629
301.625
301.621
301.617
301.613
301.609
301.606
301.603
301.6
301.597
301.595
301.593
301.591
301.59
301.589
301.588
301.587
301.587
301.587
301.588
301.588
301.59
301.591
301.593
301.595
301.597
301.6
301.603
301.606
301.61
301.614
301.618
301.623
301.628
301.633
301.639
301.645
301.651
301.658
301.665
301.672
301.68
301.688
301.696
301.705
301.714
301.723
301.733
301.743
301.753
301.764
301.775
301.787
301.799
301.811
301.824
301.837
301.85
301.864
301.879
301.894
301.909
301.925
301.941
301.958
301.976
301.994
302.012
302.032
302.052
302.072
302.094
302.116
302.138
302.162
302.187
302.212
302.238
302.266
302.294
302.323
302.354
302.385
302.418
302.452
302.487
302.523
302.561
302.6
302.64
302.682
302.726
302.77
302.817
302.865
302.914
302.965
303.018
303.072
303.127
303.185
303.243
303.304
303.366
303.429
303.493
303.559
303.626
303.695
303.764
303.834
303.904
303.976
304.047
304.119
304.191
304.262
304.333
304.403
304.471
304.539
304.604
304.667
304.727
304.784
304.836
304.883
304.924
304.956
304.978
304.986
304.979
302.665
302.665
302.652
302.628
302.596
302.56
302.52
302.479
302.437
302.396
302.355
302.316
302.279
302.243
302.21
302.178
302.148
302.12
302.094
302.07
302.047
302.026
302.006
301.987
301.97
301.954
301.94
301.926
301.913
301.901
301.889
301.879
301.869
301.859
301.85
301.841
301.833
301.825
301.818
301.81
301.803
301.796
301.789
301.782
301.775
301.768
301.761
301.755
301.748
301.742
301.735
301.728
301.722
301.716
301.709
301.703
301.697
301.69
301.684
301.678
301.672
301.666
301.661
301.655
301.65
301.644
301.639
301.634
301.629
301.625
301.621
301.617
301.613
301.609
301.606
301.603
301.6
301.597
301.595
301.593
301.591
301.59
301.589
301.588
301.587
301.587
301.587
301.588
301.588
301.59
301.591
301.593
301.595
301.597
301.6
301.603
301.606
301.61
301.614
301.618
301.623
301.628
301.633
301.639
301.645
301.651
301.658
301.665
301.672
301.68
301.688
301.696
301.705
301.714
301.723
301.733
301.743
301.753
301.764
301.775
301.787
301.799
301.811
301.824
301.837
301.85
301.864
301.879
301.894
301.909
301.925
301.941
301.958
301.976
301.994
302.012
302.032
302.052
302.072
302.094
302.116
302.138
302.162
302.187
302.212
302.238
302.266
302.294
302.323
302.354
302.385
302.418
302.452
302.487
302.523
302.561
302.6
302.64
302.682
302.725
302.77
302.817
302.865
302.914
302.965
303.018
303.072
303.127
303.185
303.243
303.304
303.366
303.429
303.493
303.559
303.626
303.695
303.764
303.834
303.904
303.976
304.047
304.119
304.191
304.262
304.333
304.403
304.471
304.539
304.604
304.667
304.727
304.784
304.836
304.883
304.924
304.956
304.978
304.986
304.979
302.391
302.39
302.379
302.36
302.335
302.306
302.274
302.239
302.204
302.169
302.134
302.101
302.068
302.037
302.007
301.979
301.952
301.927
301.903
301.881
301.861
301.842
301.824
301.807
301.792
301.777
301.764
301.751
301.74
301.729
301.718
301.709
301.7
301.691
301.683
301.675
301.667
301.66
301.653
301.646
301.639
301.633
301.626
301.62
301.613
301.607
301.601
301.594
301.588
301.582
301.575
301.569
301.563
301.557
301.55
301.544
301.538
301.532
301.526
301.52
301.514
301.508
301.503
301.497
301.491
301.486
301.481
301.476
301.471
301.466
301.462
301.458
301.454
301.45
301.446
301.443
301.44
301.437
301.435
301.432
301.43
301.429
301.427
301.426
301.425
301.425
301.425
301.425
301.425
301.426
301.427
301.429
301.43
301.432
301.435
301.437
301.44
301.444
301.447
301.451
301.456
301.46
301.465
301.471
301.476
301.482
301.489
301.495
301.502
301.51
301.517
301.525
301.533
301.542
301.551
301.56
301.57
301.58
301.591
301.602
301.613
301.624
301.636
301.649
301.662
301.675
301.689
301.703
301.717
301.733
301.748
301.764
301.781
301.798
301.816
301.835
301.854
301.873
301.894
301.915
301.937
301.959
301.983
302.007
302.032
302.059
302.086
302.114
302.143
302.173
302.204
302.237
302.27
302.305
302.341
302.379
302.418
302.458
302.499
302.542
302.587
302.633
302.68
302.729
302.78
302.832
302.885
302.94
302.997
303.055
303.115
303.176
303.238
303.301
303.366
303.432
303.499
303.567
303.635
303.704
303.773
303.843
303.913
303.982
304.051
304.119
304.185
304.251
304.315
304.376
304.435
304.491
304.543
304.59
304.632
304.667
304.694
304.713
304.72
304.715
302.391
302.39
302.379
302.36
302.335
302.306
302.274
302.239
302.204
302.169
302.134
302.101
302.068
302.037
302.007
301.979
301.952
301.927
301.903
301.881
301.861
301.842
301.824
301.807
301.792
301.777
301.764
301.751
301.74
301.729
301.718
301.709
301.7
301.691
301.683
301.675
301.667
301.66
301.653
301.646
301.639
301.633
301.626
301.62
301.613
301.607
301.601
301.594
301.588
301.582
301.575
301.569
301.563
301.557
301.55
301.544
301.538
301.532
301.526
301.52
301.514
301.508
301.503
301.497
301.491
301.486
301.481
301.476
301.471
301.466
301.462
301.458
301.454
301.45
301.446
301.443
301.44
301.437
301.435
301.432
301.43
301.429
301.427
301.426
301.425
301.425
301.425
301.425
301.425
301.426
301.427
301.429
301.43
301.432
301.435
301.437
301.44
301.444
301.447
301.451
301.456
301.46
301.465
301.471
301.476
301.482
301.489
301.495
301.502
301.51
301.517
301.525
301.533
301.542
301.551
301.56
301.57
301.58
301.591
301.602
301.613
301.624
301.636
301.649
301.662
301.675
301.689
301.703
301.717
301.733
301.748
301.764
301.781
301.798
301.816
301.835
301.854
301.873
301.894
301.915
301.937
301.959
301.983
302.007
302.032
302.059
302.086
302.114
302.143
302.173
302.204
302.237
302.27
302.305
302.341
302.379
302.418
302.458
302.499
302.542
302.587
302.633
302.68
302.729
302.78
302.832
302.885
302.94
302.997
303.055
303.115
303.176
303.238
303.301
303.366
303.432
303.499
303.567
303.635
303.704
303.773
303.843
303.913
303.982
304.051
304.119
304.185
304.251
304.315
304.376
304.435
304.491
304.543
304.59
304.632
304.667
304.694
304.713
304.72
304.715
302.149
302.146
302.137
302.122
302.101
302.077
302.05
302.022
301.992
301.962
301.932
301.903
301.874
301.847
301.82
301.795
301.771
301.749
301.728
301.708
301.69
301.672
301.656
301.641
301.627
301.614
301.602
301.591
301.58
301.57
301.561
301.552
301.544
301.536
301.528
301.521
301.514
301.508
301.501
301.495
301.489
301.482
301.476
301.47
301.464
301.458
301.452
301.446
301.441
301.435
301.429
301.423
301.416
301.41
301.404
301.398
301.392
301.386
301.38
301.374
301.369
301.363
301.357
301.352
301.346
301.341
301.335
301.33
301.325
301.321
301.316
301.312
301.308
301.304
301.3
301.296
301.293
301.29
301.288
301.285
301.283
301.281
301.279
301.278
301.277
301.276
301.276
301.276
301.276
301.276
301.277
301.278
301.28
301.281
301.283
301.286
301.289
301.292
301.295
301.299
301.303
301.307
301.312
301.317
301.322
301.328
301.334
301.34
301.347
301.354
301.361
301.369
301.377
301.385
301.394
301.403
301.413
301.422
301.433