/*--------------------------------*- C++ -*----------------------------------*\
  =========                 |
  \\      /  F ield         | OpenFOAM: The Open Source CFD Toolbox
   \\    /   O peration     | Website:  https://openfoam.org
    \\  /    A nd           | Version:  8
     \\/     M anipulation  |
\*---------------------------------------------------------------------------*/
FoamFile
{
    version     2.0;
    format      ascii;
    class       volVectorField;
    location    "2600";
    object      U;
}
// * * * * * * * * * * * * * * * * * * * * * * * * * * * * * * * * * * * * * //

dimensions      [0 1 -1 0 0 0 0];

internalField   nonuniform List<vector> 
46000
(
(0.000850768 -9.8168e-08 -0.00088777)
(0.00410365 -5.13019e-08 -0.00213755)
(0.00753671 3.28567e-08 -0.00214621)
(0.00985488 5.28387e-08 -0.00136159)
(0.0108281 5.25744e-08 -0.0004777)
(0.0106043 4.83324e-08 0.00030112)
(0.00939403 4.76252e-08 0.000932603)
(0.00740501 5.11447e-08 0.00142785)
(0.00480651 5.86866e-08 0.0018133)
(0.00174049 7.00422e-08 0.00211302)
(-0.0017043 8.10206e-08 0.00234191)
(-0.00542325 8.90297e-08 0.00251414)
(-0.00936889 9.51013e-08 0.00264762)
(-0.0134897 9.9644e-08 0.00275181)
(-0.017751 1.02438e-07 0.0028336)
(-0.0221248 1.03779e-07 0.00289813)
(-0.0265895 1.04566e-07 0.0029492)
(-0.0311279 1.05055e-07 0.00298958)
(-0.0357259 1.04802e-07 0.00302133)
(-0.0403721 1.03348e-07 0.00304589)
(-0.0450563 1.00756e-07 0.0030643)
(-0.0497699 9.7477e-08 0.00307727)
(-0.0545048 9.41098e-08 0.00308523)
(-0.0592535 9.0956e-08 0.00308846)
(-0.0640085 8.80523e-08 0.00308709)
(-0.0687626 8.52576e-08 0.00308113)
(-0.0735086 8.24646e-08 0.00307057)
(-0.0782389 7.96766e-08 0.0030553)
(-0.0829459 7.69671e-08 0.00303522)
(-0.0876219 7.44463e-08 0.00301021)
(-0.0922587 7.21593e-08 0.00298017)
(-0.0968483 7.01795e-08 0.00294498)
(-0.101382 6.84532e-08 0.00290456)
(-0.105852 6.69134e-08 0.00285887)
(-0.110249 6.54713e-08 0.00280787)
(-0.114566 6.40633e-08 0.00275157)
(-0.118792 6.26459e-08 0.00269002)
(-0.12292 6.11739e-08 0.00262329)
(-0.126942 5.9654e-08 0.0025515)
(-0.130849 5.8076e-08 0.00247479)
(-0.134634 5.64334e-08 0.00239333)
(-0.138288 5.47194e-08 0.00230735)
(-0.141805 5.29741e-08 0.00221706)
(-0.145178 5.11891e-08 0.00212274)
(-0.148401 4.94111e-08 0.00202466)
(-0.151467 4.76553e-08 0.00192313)
(-0.154371 4.595e-08 0.00181846)
(-0.157108 4.43035e-08 0.00171098)
(-0.159673 4.2699e-08 0.00160103)
(-0.162063 4.1155e-08 0.00148895)
(-0.164274 3.96547e-08 0.00137509)
(-0.166304 3.8188e-08 0.0012598)
(-0.16815 3.67166e-08 0.00114341)
(-0.169811 3.52537e-08 0.00102628)
(-0.171286 3.37693e-08 0.000908736)
(-0.172573 3.22633e-08 0.00079111)
(-0.173673 3.07541e-08 0.000673723)
(-0.174587 2.92217e-08 0.000556888)
(-0.175315 2.77078e-08 0.000440907)
(-0.17586 2.62175e-08 0.000326054)
(-0.176222 2.47756e-08 0.000212542)
(-0.176404 2.33673e-08 0.00010049)
(-0.17641 2.20827e-08 -9.82756e-06)
(-0.176241 2.09033e-08 -0.000117958)
(-0.175902 1.97708e-08 -0.000223744)
(-0.175396 1.87001e-08 -0.00032719)
(-0.174727 1.76846e-08 -0.000428147)
(-0.173899 1.67409e-08 -0.000526439)
(-0.172917 1.58524e-08 -0.000621912)
(-0.171785 1.50123e-08 -0.000714433)
(-0.170509 1.42375e-08 -0.00080389)
(-0.169093 1.34927e-08 -0.00089019)
(-0.167542 1.2793e-08 -0.000973254)
(-0.165863 1.21367e-08 -0.00105302)
(-0.16406 1.15139e-08 -0.00112943)
(-0.162139 1.09195e-08 -0.00120245)
(-0.160105 1.03501e-08 -0.00127205)
(-0.157965 9.80071e-09 -0.0013382)
(-0.155723 9.26805e-09 -0.00140091)
(-0.153386 8.7504e-09 -0.00146017)
(-0.150958 8.24444e-09 -0.00151598)
(-0.148446 7.75349e-09 -0.00156838)
(-0.145855 7.27086e-09 -0.00161736)
(-0.143191 6.78487e-09 -0.00166298)
(-0.140459 6.31221e-09 -0.00170526)
(-0.137664 5.86124e-09 -0.00174426)
(-0.134812 5.40856e-09 -0.00178001)
(-0.131907 4.96588e-09 -0.00181257)
(-0.128956 4.55157e-09 -0.001842)
(-0.125962 4.15227e-09 -0.00186837)
(-0.12293 3.77299e-09 -0.00189174)
(-0.119866 3.41373e-09 -0.00191218)
(-0.116774 3.08454e-09 -0.00192977)
(-0.113658 2.77202e-09 -0.00194459)
(-0.110523 2.49125e-09 -0.00195672)
(-0.107373 2.24055e-09 -0.00196625)
(-0.104211 1.99985e-09 -0.00197326)
(-0.101042 1.78923e-09 -0.00197784)
(-0.0978691 1.602e-09 -0.00198009)
(-0.0946962 1.4549e-09 -0.00198009)
(-0.0915266 1.32451e-09 -0.00197796)
(-0.0883635 1.2075e-09 -0.00197378)
(-0.0852099 1.12728e-09 -0.00196765)
(-0.0820688 1.06044e-09 -0.00195967)
(-0.0789428 1.01032e-09 -0.00194995)
(-0.0758346 9.9368e-10 -0.00193858)
(-0.0727466 9.80384e-10 -0.00192567)
(-0.0696811 9.73784e-10 -0.00191132)
(-0.0666401 9.77229e-10 -0.00189563)
(-0.0636256 1.00077e-09 -0.0018787)
(-0.0606393 1.03101e-09 -0.00186063)
(-0.057683 1.0914e-09 -0.00184152)
(-0.0547581 1.16186e-09 -0.00182146)
(-0.0518659 1.27252e-09 -0.00180055)
(-0.0490077 1.41001e-09 -0.00177889)
(-0.0461844 1.58438e-09 -0.00175656)
(-0.0433971 1.78894e-09 -0.00173364)
(-0.0406465 2.0371e-09 -0.00171023)
(-0.0379333 2.2987e-09 -0.0016864)
(-0.0352581 2.60058e-09 -0.00166223)
(-0.0326213 2.95949e-09 -0.00163779)
(-0.0300233 3.32852e-09 -0.00161314)
(-0.0274644 3.73784e-09 -0.00158834)
(-0.0249446 4.17071e-09 -0.00156345)
(-0.0224642 4.64389e-09 -0.00153852)
(-0.0200231 5.13392e-09 -0.00151358)
(-0.0176213 5.65422e-09 -0.00148868)
(-0.0152588 6.2115e-09 -0.00146385)
(-0.0129354 6.75211e-09 -0.00143909)
(-0.0106511 7.32637e-09 -0.00141443)
(-0.00840552 7.89066e-09 -0.00138988)
(-0.00619867 8.43157e-09 -0.00136556)
(-0.00402956 8.88868e-09 -0.00134189)
(-0.00189896 9.29888e-09 -0.00131896)
(0.000195936 9.51113e-09 -0.00129485)
(0.00225133 9.82086e-09 -0.00126861)
(0.00426713 1.05503e-08 -0.00124161)
(0.00624352 1.15484e-08 -0.00121447)
(0.00817968 1.2644e-08 -0.00118713)
(0.0100751 1.37399e-08 -0.00115949)
(0.0119289 1.48024e-08 -0.00113142)
(0.0137402 1.58047e-08 -0.00110279)
(0.0155078 1.67938e-08 -0.00107345)
(0.0172302 1.78032e-08 -0.00104327)
(0.0189058 1.88162e-08 -0.00101207)
(0.0205326 1.98261e-08 -0.000979704)
(0.0221085 2.08295e-08 -0.000945994)
(0.0236308 2.18164e-08 -0.000910767)
(0.025097 2.27934e-08 -0.000873843)
(0.0265038 2.37539e-08 -0.000835043)
(0.027848 2.47046e-08 -0.000794189)
(0.0291257 2.56253e-08 -0.000751102)
(0.0303331 2.65362e-08 -0.000705612)
(0.0314659 2.7407e-08 -0.000657554)
(0.0325196 2.82647e-08 -0.000606775)
(0.0334893 2.90824e-08 -0.000553136)
(0.03437 2.98431e-08 -0.000496515)
(0.0351565 3.0584e-08 -0.000436812)
(0.0358433 3.12781e-08 -0.000373953)
(0.0364249 3.19052e-08 -0.000307899)
(0.0368956 3.24922e-08 -0.000238653)
(0.0372497 3.30021e-08 -0.000166278)
(0.0374819 3.34281e-08 -9.0911e-05)
(0.0375862 3.36658e-08 -1.2734e-05)
(0.0375583 3.40241e-08 6.83565e-05)
(0.0373921 3.45417e-08 0.000152385)
(0.0370824 3.48643e-08 0.000239046)
(0.0366245 3.51129e-08 0.000328042)
(0.0360141 3.52742e-08 0.000418987)
(0.0352473 3.54221e-08 0.00051143)
(0.0343214 3.55298e-08 0.000604855)
(0.033234 3.56174e-08 0.00069867)
(0.0319841 3.56647e-08 0.000792204)
(0.0305714 3.57189e-08 0.000884696)
(0.0289973 3.57125e-08 0.000975288)
(0.0272643 3.56725e-08 0.00106302)
(0.0253766 3.55447e-08 0.0011468)
(0.0233404 3.52954e-08 0.00122544)
(0.0211637 3.4965e-08 0.00129756)
(0.0188571 3.45264e-08 0.00136167)
(0.0164336 3.40675e-08 0.00141605)
(0.0139094 3.36625e-08 0.00145878)
(0.0113039 3.33453e-08 0.00148769)
(0.00864069 3.30958e-08 0.00150028)
(0.00594752 3.2887e-08 0.0014937)
(0.00325812 3.26039e-08 0.00146462)
(0.000612272 3.20163e-08 0.00140789)
(-0.00194723 3.10632e-08 0.00131543)
(-0.00435108 3.04154e-08 0.00118341)
(-0.00654239 3.02087e-08 0.00100996)
(-0.00843933 3.00841e-08 0.000789216)
(-0.00995109 2.992e-08 0.000512439)
(-0.0109707 2.96691e-08 0.000172747)
(-0.011379 2.94612e-08 -0.000231027)
(-0.0110503 2.90142e-08 -0.000685736)
(-0.00988573 2.87582e-08 -0.00115225)
(-0.00784908 2.95343e-08 -0.00153441)
(-0.00508356 3.19536e-08 -0.00160618)
(-0.002132 4.80841e-08 -0.00105713)
(-0.000235755 2.42237e-08 -0.00024634)
(0.000850282 -9.81677e-08 -0.000888058)
(0.00410325 -5.1301e-08 -0.00213786)
(0.00753658 3.2856e-08 -0.0021464)
(0.00985471 5.28375e-08 -0.00136177)
(0.0108279 5.25733e-08 -0.000477879)
(0.0106041 4.83315e-08 0.000300933)
(0.00939387 4.76243e-08 0.000932405)
(0.00740488 5.11439e-08 0.00142764)
(0.0048064 5.86856e-08 0.00181307)
(0.00174041 7.0041e-08 0.00211277)
(-0.00170435 8.10193e-08 0.00234166)
(-0.00542329 8.90283e-08 0.00251388)
(-0.00936889 9.50999e-08 0.00264736)
(-0.0134897 9.96425e-08 0.00275155)
(-0.0177509 1.02436e-07 0.00283335)
(-0.0221247 1.03778e-07 0.00289789)
(-0.0265894 1.04564e-07 0.00294896)
(-0.0311277 1.05054e-07 0.00298935)
(-0.0357257 1.04801e-07 0.0030211)
(-0.0403719 1.03347e-07 0.00304567)
(-0.0450561 1.00755e-07 0.00306409)
(-0.0497697 9.74759e-08 0.00307706)
(-0.0545046 9.41087e-08 0.00308503)
(-0.0592532 9.0955e-08 0.00308827)
(-0.0640082 8.80513e-08 0.0030869)
(-0.0687623 8.52567e-08 0.00308095)
(-0.0735082 8.24637e-08 0.00307039)
(-0.0782385 7.96758e-08 0.00305512)
(-0.0829455 7.69663e-08 0.00303505)
(-0.0876214 7.44455e-08 0.00301005)
(-0.0922583 7.21586e-08 0.00298)
(-0.0968479 7.01788e-08 0.00294482)
(-0.101382 6.84525e-08 0.00290441)
(-0.105852 6.69128e-08 0.00285872)
(-0.110249 6.54707e-08 0.00280772)
(-0.114565 6.40627e-08 0.00275143)
(-0.118791 6.26453e-08 0.00268988)
(-0.12292 6.11734e-08 0.00262315)
(-0.126941 5.96534e-08 0.00255136)
(-0.130848 5.80755e-08 0.00247465)
(-0.134633 5.64329e-08 0.0023932)
(-0.138288 5.47189e-08 0.00230721)
(-0.141805 5.29736e-08 0.00221692)
(-0.145178 5.11886e-08 0.0021226)
(-0.1484 4.94107e-08 0.00202452)
(-0.151466 4.76549e-08 0.00192299)
(-0.15437 4.59496e-08 0.00181832)
(-0.157107 4.43031e-08 0.00171084)
(-0.159672 4.26987e-08 0.00160089)
(-0.162062 4.11547e-08 0.00148881)
(-0.164274 3.96544e-08 0.00137495)
(-0.166304 3.81877e-08 0.00125965)
(-0.16815 3.67163e-08 0.00114326)
(-0.169811 3.52534e-08 0.00102613)
(-0.171285 3.3769e-08 0.000908585)
(-0.172572 3.2263e-08 0.000790957)
(-0.173673 3.07539e-08 0.000673568)
(-0.174587 2.92215e-08 0.000556732)
(-0.175315 2.77076e-08 0.00044075)
(-0.175859 2.62172e-08 0.000325895)
(-0.176221 2.47754e-08 0.000212382)
(-0.176404 2.33671e-08 0.000100328)
(-0.176409 2.20825e-08 -9.99052e-06)
(-0.176241 2.09031e-08 -0.000118122)
(-0.175901 1.97706e-08 -0.000223909)
(-0.175395 1.86999e-08 -0.000327356)
(-0.174726 1.76844e-08 -0.000428314)
(-0.173899 1.67408e-08 -0.000526608)
(-0.172916 1.58523e-08 -0.000622082)
(-0.171785 1.50122e-08 -0.000714604)
(-0.170508 1.42374e-08 -0.000804062)
(-0.169092 1.34926e-08 -0.000890362)
(-0.167542 1.27929e-08 -0.000973428)
(-0.165862 1.21366e-08 -0.00105319)
(-0.164059 1.15138e-08 -0.00112961)
(-0.162138 1.09194e-08 -0.00120263)
(-0.160105 1.035e-08 -0.00127222)
(-0.157964 9.80064e-09 -0.00133838)
(-0.155723 9.26798e-09 -0.00140109)
(-0.153385 8.75034e-09 -0.00146035)
(-0.150958 8.24438e-09 -0.00151616)
(-0.148446 7.75343e-09 -0.00156856)
(-0.145855 7.27081e-09 -0.00161754)
(-0.143191 6.78482e-09 -0.00166316)
(-0.140458 6.31216e-09 -0.00170545)
(-0.137664 5.8612e-09 -0.00174444)
(-0.134811 5.40852e-09 -0.00178019)
(-0.131907 4.96584e-09 -0.00181275)
(-0.128955 4.55154e-09 -0.00184219)
(-0.125961 4.15224e-09 -0.00186855)
(-0.12293 3.77296e-09 -0.00189192)
(-0.119866 3.41371e-09 -0.00191237)
(-0.116774 3.08451e-09 -0.00192996)
(-0.113658 2.772e-09 -0.00194478)
(-0.110523 2.49123e-09 -0.00195691)
(-0.107372 2.24053e-09 -0.00196644)
(-0.10421 1.99983e-09 -0.00197345)
(-0.101041 1.78922e-09 -0.00197803)
(-0.0978686 1.60199e-09 -0.00198028)
(-0.0946958 1.45489e-09 -0.00198029)
(-0.0915262 1.32451e-09 -0.00197815)
(-0.088363 1.20749e-09 -0.00197397)
(-0.0852095 1.12727e-09 -0.00196784)
(-0.0820683 1.06043e-09 -0.00195987)
(-0.0789424 1.01032e-09 -0.00195015)
(-0.0758342 9.93674e-10 -0.00193878)
(-0.0727462 9.80378e-10 -0.00192587)
(-0.0696806 9.73778e-10 -0.00191152)
(-0.0666396 9.77223e-10 -0.00189583)
(-0.0636251 1.00076e-09 -0.0018789)
(-0.0606389 1.03101e-09 -0.00186083)
(-0.0576826 1.0914e-09 -0.00184172)
(-0.0547577 1.16185e-09 -0.00182166)
(-0.0518655 1.27252e-09 -0.00180076)
(-0.0490072 1.41001e-09 -0.0017791)
(-0.046184 1.58437e-09 -0.00175676)
(-0.0433967 1.78893e-09 -0.00173385)
(-0.0406461 2.03709e-09 -0.00171044)
(-0.0379329 2.29869e-09 -0.00168662)
(-0.0352577 2.60057e-09 -0.00166245)
(-0.0326209 2.95947e-09 -0.001638)
(-0.0300229 3.3285e-09 -0.00161335)
(-0.027464 3.73783e-09 -0.00158856)
(-0.0249442 4.17069e-09 -0.00156367)
(-0.0224638 4.64387e-09 -0.00153874)
(-0.0200227 5.1339e-09 -0.00151381)
(-0.017621 5.6542e-09 -0.00148891)
(-0.0152584 6.21148e-09 -0.00146408)
(-0.0129351 6.75209e-09 -0.00143932)
(-0.0106507 7.32634e-09 -0.00141467)
(-0.00840516 7.89063e-09 -0.00139012)
(-0.00619831 8.43154e-09 -0.0013658)
(-0.00402921 8.88865e-09 -0.00134214)
(-0.00189861 9.29885e-09 -0.00131921)
(0.000196282 9.5111e-09 -0.0012951)
(0.00225167 9.82082e-09 -0.00126887)
(0.00426747 1.05502e-08 -0.00124187)
(0.00624386 1.15483e-08 -0.00121473)
(0.00818002 1.2644e-08 -0.00118739)
(0.0100754 1.37399e-08 -0.00115975)
(0.0119292 1.48024e-08 -0.00113169)
(0.0137405 1.58047e-08 -0.00110306)
(0.0155081 1.67937e-08 -0.00107373)
(0.0172305 1.78032e-08 -0.00104354)
(0.0189061 1.88162e-08 -0.00101235)
(0.0205329 1.98261e-08 -0.000979987)
(0.0221088 2.08295e-08 -0.00094628)
(0.0236312 2.18163e-08 -0.000911055)
(0.0250973 2.27934e-08 -0.000874134)
(0.0265041 2.37538e-08 -0.000835338)
(0.0278483 2.47045e-08 -0.000794486)
(0.029126 2.56252e-08 -0.000751403)
(0.0303334 2.65361e-08 -0.000705915)
(0.0314662 2.7407e-08 -0.00065786)
(0.0325199 2.82647e-08 -0.000607084)
(0.0334896 2.90823e-08 -0.000553448)
(0.0343703 2.98431e-08 -0.000496829)
(0.0351568 3.0584e-08 -0.000437129)
(0.0358436 3.12781e-08 -0.000374273)
(0.0364252 3.19052e-08 -0.000308221)
(0.0368959 3.24922e-08 -0.000238978)
(0.03725 3.30021e-08 -0.000166604)
(0.0374822 3.34281e-08 -9.12396e-05)
(0.0375865 3.36658e-08 -1.30641e-05)
(0.0375586 3.40241e-08 6.80247e-05)
(0.0373924 3.45417e-08 0.000152051)
(0.0370827 3.48643e-08 0.000238711)
(0.0366248 3.51129e-08 0.000327705)
(0.0360143 3.52742e-08 0.000418648)
(0.0352476 3.54221e-08 0.00051109)
(0.0343216 3.55298e-08 0.000604514)
(0.0332343 3.56174e-08 0.000698328)
(0.0319843 3.56647e-08 0.000791861)
(0.0305717 3.57189e-08 0.000884352)
(0.0289975 3.57125e-08 0.000974944)
(0.0272645 3.56725e-08 0.00106267)
(0.0253768 3.55447e-08 0.00114646)
(0.0233406 3.52954e-08 0.00122509)
(0.0211639 3.4965e-08 0.00129721)
(0.0188573 3.45264e-08 0.00136132)
(0.0164338 3.40675e-08 0.0014157)
(0.0139095 3.36625e-08 0.00145843)
(0.0113041 3.33453e-08 0.00148733)
(0.00864083 3.30958e-08 0.00149992)
(0.00594765 3.2887e-08 0.00149334)
(0.00325823 3.26039e-08 0.00146426)
(0.000612366 3.20162e-08 0.00140752)
(-0.00194715 3.10632e-08 0.00131506)
(-0.00435102 3.04154e-08 0.00118304)
(-0.00654234 3.02087e-08 0.00100958)
(-0.00843929 3.00841e-08 0.000788828)
(-0.00995108 2.992e-08 0.000512039)
(-0.0109707 2.96691e-08 0.000172332)
(-0.011379 2.94612e-08 -0.000231459)
(-0.0110503 2.90142e-08 -0.000686188)
(-0.00988578 2.87581e-08 -0.00115273)
(-0.00784915 2.95342e-08 -0.00153491)
(-0.00508366 3.19535e-08 -0.00160669)
(-0.00213225 4.80839e-08 -0.00105763)
(-0.000235954 2.42237e-08 -0.000246718)
(0.00200699 -2.19975e-08 -0.00431339)
(0.00498326 7.46701e-09 -0.00527229)
(0.00638242 2.74992e-08 -0.00399104)
(0.00678298 2.41914e-08 -0.00204797)
(0.00624549 2.06745e-08 -0.000145954)
(0.00493442 1.60733e-08 0.00149011)
(0.00296738 1.17044e-08 0.00282011)
(0.000452641 8.05556e-09 0.00387508)
(-0.00251364 5.03597e-09 0.00470344)
(-0.0058445 3.30992e-09 0.00535223)
(-0.0094737 2.88313e-09 0.0058588)
(-0.0133436 3.08807e-09 0.00625478)
(-0.01741 3.491e-09 0.00656784)
(-0.0216351 3.93986e-09 0.00681671)
(-0.0259896 4.38208e-09 0.00701588)
(-0.0304495 4.80512e-09 0.00717609)
(-0.0349954 5.22566e-09 0.0073054)
(-0.0396114 5.53618e-09 0.00740979)
(-0.0442841 5.62669e-09 0.00749365)
(-0.0490023 5.45479e-09 0.00756015)
(-0.0537561 5.10724e-09 0.00761155)
(-0.0585367 4.72907e-09 0.00764935)
(-0.0633359 4.4269e-09 0.00767455)
(-0.068146 4.22651e-09 0.00768772)
(-0.0729596 4.09037e-09 0.00768912)
(-0.0777695 3.97598e-09 0.00767878)
(-0.0825681 3.85418e-09 0.0076566)
(-0.0873482 3.7358e-09 0.00762236)
(-0.0921022 3.64497e-09 0.00757578)
(-0.0968223 3.61164e-09 0.00751657)
(-0.101501 3.64081e-09 0.00744444)
(-0.10613 3.72745e-09 0.00735915)
(-0.110701 3.84492e-09 0.00726048)
(-0.115206 3.96076e-09 0.00714828)
(-0.119636 4.04416e-09 0.00702249)
(-0.123984 4.0785e-09 0.00688311)
(-0.128241 4.04547e-09 0.00673023)
(-0.132399 3.94758e-09 0.00656404)
(-0.136449 3.78067e-09 0.00638478)
(-0.140385 3.56639e-09 0.00619281)
(-0.144197 3.30723e-09 0.00598856)
(-0.147879 3.02565e-09 0.00577252)
(-0.151424 2.73372e-09 0.00554529)
(-0.154825 2.4485e-09 0.00530748)
(-0.158075 2.17663e-09 0.00505981)
(-0.161169 1.92683e-09 0.00480302)
(-0.164101 1.69538e-09 0.00453789)
(-0.166866 1.48058e-09 0.00426526)
(-0.16946 1.27247e-09 0.00398598)
(-0.171879 1.06855e-09 0.00370091)
(-0.17412 8.60907e-10 0.00341095)
(-0.176179 6.44138e-10 0.00311697)
(-0.178054 4.1949e-10 0.00281988)
(-0.179743 1.93198e-10 0.00252054)
(-0.181246 -3.88965e-11 0.00221984)
(-0.182561 -2.67648e-10 0.00191862)
(-0.183689 -4.82663e-10 0.00161772)
(-0.184628 -6.81034e-10 0.00131794)
(-0.185381 -8.57359e-10 0.00102007)
(-0.185948 -1.01039e-09 0.000724857)
(-0.186331 -1.13182e-09 0.00043303)
(-0.186532 -1.21791e-09 0.000145274)
(-0.186554 -1.29402e-09 -0.000137857)
(-0.186398 -1.36181e-09 -0.000415988)
(-0.186069 -1.40258e-09 -0.000688659)
(-0.185569 -1.4317e-09 -0.000955334)
(-0.184903 -1.45209e-09 -0.00121553)
(-0.184075 -1.46501e-09 -0.0014688)
(-0.183088 -1.47335e-09 -0.00171477)
(-0.181948 -1.48086e-09 -0.00195308)
(-0.180659 -1.48422e-09 -0.00218346)
(-0.179225 -1.49007e-09 -0.00240565)
(-0.177652 -1.49384e-09 -0.00261944)
(-0.175945 -1.50137e-09 -0.00282466)
(-0.174108 -1.50931e-09 -0.00302117)
(-0.172148 -1.51683e-09 -0.00320886)
(-0.17007 -1.52436e-09 -0.00338766)
(-0.167878 -1.53356e-09 -0.00355753)
(-0.165579 -1.54276e-09 -0.00371844)
(-0.163177 -1.5503e-09 -0.0038704)
(-0.160678 -1.55535e-09 -0.00401344)
(-0.158088 -1.55707e-09 -0.00414763)
(-0.155412 -1.5588e-09 -0.00427302)
(-0.152655 -1.5622e-09 -0.00438971)
(-0.149822 -1.55811e-09 -0.00449782)
(-0.146919 -1.54987e-09 -0.00459747)
(-0.14395 -1.54413e-09 -0.0046888)
(-0.140921 -1.5309e-09 -0.00477197)
(-0.137837 -1.51685e-09 -0.00484715)
(-0.134702 -1.49448e-09 -0.00491452)
(-0.131521 -1.47377e-09 -0.00497427)
(-0.128299 -1.45058e-09 -0.00502659)
(-0.125041 -1.42405e-09 -0.0050717)
(-0.12175 -1.39503e-09 -0.00510981)
(-0.118431 -1.3685e-09 -0.00514115)
(-0.115088 -1.33948e-09 -0.00516594)
(-0.111725 -1.31212e-09 -0.00518442)
(-0.108346 -1.28975e-09 -0.00519682)
(-0.104955 -1.26822e-09 -0.00520339)
(-0.101556 -1.24751e-09 -0.00520437)
(-0.0981508 -1.23096e-09 -0.00520002)
(-0.094744 -1.2194e-09 -0.00519058)
(-0.0913385 -1.21533e-09 -0.00517629)
(-0.0879374 -1.21542e-09 -0.00515742)
(-0.0845436 -1.22715e-09 -0.00513422)
(-0.0811598 -1.24388e-09 -0.00510693)
(-0.0777886 -1.26893e-09 -0.0050758)
(-0.0744325 -1.30396e-09 -0.0050411)
(-0.0710939 -1.34649e-09 -0.00500305)
(-0.067775 -1.39735e-09 -0.00496191)
(-0.0644778 -1.45153e-09 -0.00491791)
(-0.0612041 -1.51238e-09 -0.0048713)
(-0.0579559 -1.57988e-09 -0.00482229)
(-0.0547348 -1.6449e-09 -0.00477113)
(-0.0515422 -1.71408e-09 -0.00471802)
(-0.0483796 -1.78826e-09 -0.00466318)
(-0.0452482 -1.86161e-09 -0.00460682)
(-0.0421493 -1.93913e-09 -0.00454913)
(-0.0390837 -2.02498e-09 -0.0044903)
(-0.0360525 -2.11167e-09 -0.00443051)
(-0.0330565 -2.20086e-09 -0.00436992)
(-0.0300964 -2.29589e-09 -0.00430869)
(-0.0271728 -2.39509e-09 -0.00424695)
(-0.0242863 -2.4993e-09 -0.00418485)
(-0.0214374 -2.61517e-09 -0.00412249)
(-0.0186264 -2.73189e-09 -0.00405998)
(-0.0158536 -2.85445e-09 -0.00399739)
(-0.0131194 -2.99368e-09 -0.00393482)
(-0.010424 -3.13876e-09 -0.00387232)
(-0.00776749 -3.28553e-09 -0.00380996)
(-0.00515002 -3.42814e-09 -0.00374783)
(-0.00257172 -3.5766e-09 -0.0036863)
(-3.21527e-05 -3.75508e-09 -0.00362514)
(0.00246707 -3.95273e-09 -0.00356374)
(0.00492495 -4.1879e-09 -0.00350121)
(0.00734143 -4.42979e-09 -0.00343711)
(0.00971601 -4.64587e-09 -0.00337208)
(0.0120479 -4.83782e-09 -0.00330622)
(0.0143363 -4.98895e-09 -0.00323934)
(0.0165802 -5.11427e-09 -0.00317119)
(0.0187783 -5.23211e-09 -0.00310147)
(0.0209293 -5.34331e-09 -0.00302983)
(0.0230317 -5.44369e-09 -0.00295592)
(0.0250836 -5.55078e-09 -0.00287934)
(0.027083 -5.64456e-09 -0.00279967)
(0.0290275 -5.73337e-09 -0.0027165)
(0.0309145 -5.82388e-09 -0.00262935)
(0.0327412 -5.90943e-09 -0.00253776)
(0.0345043 -5.98834e-09 -0.00244124)
(0.0362003 -6.0673e-09 -0.00233931)
(0.0378254 -6.14713e-09 -0.00223146)
(0.0393754 -6.212e-09 -0.00211721)
(0.0408458 -6.27607e-09 -0.00199607)
(0.042232 -6.33937e-09 -0.00186757)
(0.0435287 -6.39438e-09 -0.00173125)
(0.0447306 -6.43943e-09 -0.0015867)
(0.0458321 -6.4837e-09 -0.00143354)
(0.0468273 -6.51718e-09 -0.00127143)
(0.04771 -6.54488e-09 -0.0011001)
(0.048474 -6.56763e-09 -0.000919354)
(0.0491128 -6.57542e-09 -0.000729073)
(0.0496201 -6.57157e-09 -0.000529261)
(0.0499891 -6.54941e-09 -0.00032004)
(0.0502133 -6.50556e-09 -0.000101718)
(0.050286 -6.45494e-09 0.000125712)
(0.0502012 -6.39615e-09 0.000362256)
(0.0499529 -6.3107e-09 0.000607375)
(0.0495355 -6.20358e-09 0.000860356)
(0.0489435 -6.08481e-09 0.00112033)
(0.0481725 -5.94267e-09 0.00138627)
(0.0472183 -5.7738e-09 0.00165692)
(0.0460777 -5.59159e-09 0.00193087)
(0.0447486 -5.38932e-09 0.00220642)
(0.0432296 -5.16365e-09 0.00248168)
(0.041521 -4.92963e-09 0.00275446)
(0.0396244 -4.69899e-09 0.00302227)
(0.0375429 -4.4818e-09 0.00328229)
(0.0352818 -4.28644e-09 0.00353133)
(0.0328483 -4.11125e-09 0.00376579)
(0.030252 -3.94786e-09 0.00398159)
(0.0275053 -3.79626e-09 0.0041741)
(0.0246237 -3.62288e-09 0.00433805)
(0.0216259 -3.44449e-09 0.00446742)
(0.0185349 -3.28457e-09 0.00455527)
(0.015378 -3.17335e-09 0.00459351)
(0.0121875 -3.14782e-09 0.00457264)
(0.00900208 -3.26349e-09 0.00448105)
(0.0058658 -3.42793e-09 0.00430347)
(0.00283175 -3.60914e-09 0.00402504)
(-4.15082e-05 -3.90293e-09 0.00362939)
(-0.00267997 -4.29399e-09 0.00309566)
(-0.00500105 -4.78899e-09 0.00240203)
(-0.00691531 -5.40658e-09 0.00152645)
(-0.00832128 -6.17544e-09 0.000453078)
(-0.00911252 -7.01556e-09 -0.000811372)
(-0.00917467 -7.87719e-09 -0.002209)
(-0.0084059 -8.49986e-09 -0.00358281)
(-0.00673475 -8.4137e-09 -0.00455339)
(-0.00416518 9.66688e-10 -0.00438396)
(-0.000994861 -2.5559e-08 -0.00224692)
(0.00200655 -2.19971e-08 -0.00431363)
(0.00498289 7.46664e-09 -0.00527243)
(0.00638217 2.74978e-08 -0.00399107)
(0.00678275 2.41903e-08 -0.00204798)
(0.0062453 2.06736e-08 -0.000145973)
(0.00493427 1.60726e-08 0.00149008)
(0.00296726 1.1704e-08 0.00282007)
(0.000452562 8.05529e-09 0.00387503)
(-0.00251368 5.0358e-09 0.00470338)
(-0.00584451 3.30982e-09 0.00535217)
(-0.00947367 2.88305e-09 0.00585873)
(-0.0133435 3.08798e-09 0.00625471)
(-0.0174099 3.4909e-09 0.00656777)
(-0.021635 3.93976e-09 0.00681664)
(-0.0259894 4.38196e-09 0.00701581)
(-0.0304493 4.80499e-09 0.00717602)
(-0.0349952 5.22553e-09 0.00730533)
(-0.0396111 5.53604e-09 0.00740972)
(-0.0442838 5.62655e-09 0.00749358)
(-0.049002 5.45466e-09 0.00756009)
(-0.0537558 5.10712e-09 0.00761149)
(-0.0585363 4.72896e-09 0.00764929)
(-0.0633355 4.4268e-09 0.0076745)
(-0.0681456 4.22641e-09 0.00768767)
(-0.0729592 4.09027e-09 0.00768907)
(-0.077769 3.97588e-09 0.00767873)
(-0.0825676 3.85409e-09 0.00765655)
(-0.0873477 3.73571e-09 0.00762231)
(-0.0921017 3.64488e-09 0.00757573)
(-0.0968218 3.61156e-09 0.00751652)
(-0.1015 3.64073e-09 0.0074444)
(-0.106129 3.72737e-09 0.00735911)
(-0.1107 3.84484e-09 0.00726044)
(-0.115205 3.96067e-09 0.00714824)
(-0.119636 4.04407e-09 0.00702245)
(-0.123983 4.07841e-09 0.00688308)
(-0.12824 4.04538e-09 0.0067302)
(-0.132398 3.94749e-09 0.006564)
(-0.136449 3.78059e-09 0.00638475)
(-0.140384 3.56631e-09 0.00619278)
(-0.144196 3.30715e-09 0.00598852)
(-0.147879 3.02558e-09 0.00577249)
(-0.151423 2.73366e-09 0.00554525)
(-0.154824 2.44845e-09 0.00530745)
(-0.158074 2.17658e-09 0.00505977)
(-0.161168 1.92679e-09 0.00480298)
(-0.1641 1.69534e-09 0.00453785)
(-0.166866 1.48055e-09 0.00426522)
(-0.16946 1.27245e-09 0.00398594)
(-0.171879 1.06853e-09 0.00370087)
(-0.174119 8.60888e-10 0.0034109)
(-0.176178 6.44124e-10 0.00311693)
(-0.178053 4.19481e-10 0.00281983)
(-0.179743 1.93194e-10 0.0025205)
(-0.181245 -3.88957e-11 0.00221979)
(-0.182561 -2.67642e-10 0.00191857)
(-0.183688 -4.82653e-10 0.00161767)
(-0.184628 -6.8102e-10 0.00131789)
(-0.185381 -8.57341e-10 0.00102001)
(-0.185948 -1.01037e-09 0.000724806)
(-0.186331 -1.1318e-09 0.000432977)
(-0.186532 -1.21788e-09 0.000145221)
(-0.186553 -1.294e-09 -0.000137911)
(-0.186398 -1.36178e-09 -0.000416043)
(-0.186068 -1.40255e-09 -0.000688714)
(-0.185569 -1.43167e-09 -0.000955389)
(-0.184903 -1.45207e-09 -0.00121558)
(-0.184074 -1.46498e-09 -0.00146886)
(-0.183088 -1.47332e-09 -0.00171482)
(-0.181947 -1.48083e-09 -0.00195314)
(-0.180658 -1.48419e-09 -0.00218352)
(-0.179224 -1.49004e-09 -0.00240571)
(-0.177651 -1.49382e-09 -0.0026195)
(-0.175944 -1.50134e-09 -0.00282472)
(-0.174108 -1.50928e-09 -0.00302123)
(-0.172147 -1.5168e-09 -0.00320892)
(-0.170069 -1.52433e-09 -0.00338772)
(-0.167877 -1.53353e-09 -0.00355759)
(-0.165578 -1.54273e-09 -0.0037185)
(-0.163176 -1.55027e-09 -0.00387046)
(-0.160678 -1.55532e-09 -0.0040135)
(-0.158088 -1.55704e-09 -0.00414769)
(-0.155412 -1.55877e-09 -0.00427308)
(-0.152654 -1.56217e-09 -0.00438977)
(-0.149822 -1.55808e-09 -0.00449788)
(-0.146918 -1.54984e-09 -0.00459753)
(-0.14395 -1.5441e-09 -0.00468886)
(-0.140921 -1.53088e-09 -0.00477203)
(-0.137836 -1.51682e-09 -0.00484721)
(-0.134702 -1.49445e-09 -0.00491458)
(-0.131521 -1.47375e-09 -0.00497433)
(-0.128299 -1.45055e-09 -0.00502665)
(-0.12504 -1.42403e-09 -0.00507176)
(-0.121749 -1.39501e-09 -0.00510987)
(-0.11843 -1.36848e-09 -0.00514121)
(-0.115087 -1.33946e-09 -0.005166)
(-0.111725 -1.3121e-09 -0.00518448)
(-0.108346 -1.28973e-09 -0.00519688)
(-0.104955 -1.2682e-09 -0.00520345)
(-0.101555 -1.24749e-09 -0.00520444)
(-0.0981503 -1.23094e-09 -0.00520008)
(-0.0947435 -1.21938e-09 -0.00519064)
(-0.091338 -1.21531e-09 -0.00517635)
(-0.0879369 -1.2154e-09 -0.00515748)
(-0.0845431 -1.22713e-09 -0.00513428)
(-0.0811593 -1.24386e-09 -0.00510699)
(-0.0777881 -1.26891e-09 -0.00507587)
(-0.0744321 -1.30395e-09 -0.00504116)
(-0.0710935 -1.34647e-09 -0.00500311)
(-0.0677746 -1.39733e-09 -0.00496197)
(-0.0644773 -1.45151e-09 -0.00491798)
(-0.0612037 -1.51236e-09 -0.00487136)
(-0.0579555 -1.57986e-09 -0.00482236)
(-0.0547344 -1.64488e-09 -0.00477119)
(-0.0515418 -1.71406e-09 -0.00471809)
(-0.0483792 -1.78824e-09 -0.00466325)
(-0.0452478 -1.86159e-09 -0.00460689)
(-0.0421489 -1.93911e-09 -0.0045492)
(-0.0390833 -2.02496e-09 -0.00449037)
(-0.0360522 -2.11165e-09 -0.00443058)
(-0.0330561 -2.20084e-09 -0.00436999)
(-0.030096 -2.29587e-09 -0.00430876)
(-0.0271725 -2.39507e-09 -0.00424702)
(-0.024286 -2.49927e-09 -0.00418492)
(-0.021437 -2.61515e-09 -0.00412256)
(-0.018626 -2.73186e-09 -0.00406005)
(-0.0158533 -2.85442e-09 -0.00399747)
(-0.0131191 -2.99366e-09 -0.00393489)
(-0.0104236 -3.13874e-09 -0.00387239)
(-0.00776715 -3.2855e-09 -0.00381003)
(-0.00514969 -3.42811e-09 -0.00374791)
(-0.0025714 -3.57658e-09 -0.00368638)
(-3.18288e-05 -3.75505e-09 -0.00362521)
(0.00246739 -3.9527e-09 -0.00356382)
(0.00492526 -4.18787e-09 -0.00350128)
(0.00734174 -4.42976e-09 -0.00343719)
(0.00971632 -4.64584e-09 -0.00337216)
(0.0120482 -4.83779e-09 -0.0033063)
(0.0143366 -4.98893e-09 -0.00323942)
(0.0165805 -5.11424e-09 -0.00317127)
(0.0187786 -5.23208e-09 -0.00310155)
(0.0209296 -5.34328e-09 -0.00302992)
(0.023032 -5.44367e-09 -0.002956)
(0.0250839 -5.55076e-09 -0.00287942)
(0.0270832 -5.64454e-09 -0.00279976)
(0.0290278 -5.73335e-09 -0.00271658)
(0.0309148 -5.82386e-09 -0.00262944)
(0.0327415 -5.90941e-09 -0.00253785)
(0.0345046 -5.98832e-09 -0.00244133)
(0.0362006 -6.06728e-09 -0.0023394)
(0.0378257 -6.14712e-09 -0.00223156)
(0.0393757 -6.21198e-09 -0.00211731)
(0.0408461 -6.27606e-09 -0.00199617)
(0.0422323 -6.33936e-09 -0.00186766)
(0.043529 -6.39437e-09 -0.00173135)
(0.0447309 -6.43942e-09 -0.0015868)
(0.0458324 -6.48369e-09 -0.00143364)
(0.0468275 -6.51717e-09 -0.00127153)
(0.0477103 -6.54487e-09 -0.0011002)
(0.0484743 -6.56763e-09 -0.000919455)
(0.0491131 -6.57542e-09 -0.000729175)
(0.0496203 -6.57157e-09 -0.000529363)
(0.0499893 -6.54941e-09 -0.000320143)
(0.0502135 -6.50556e-09 -0.00010182)
(0.0502863 -6.45494e-09 0.00012561)
(0.0502015 -6.39616e-09 0.000362153)
(0.0499532 -6.31071e-09 0.000607271)
(0.0495357 -6.20358e-09 0.000860252)
(0.0489438 -6.08481e-09 0.00112023)
(0.0481728 -5.94267e-09 0.00138617)
(0.0472186 -5.7738e-09 0.00165682)
(0.046078 -5.59159e-09 0.00193076)
(0.0447488 -5.38933e-09 0.00220632)
(0.0432298 -5.16365e-09 0.00248158)
(0.0415212 -4.92963e-09 0.00275436)
(0.0396246 -4.699e-09 0.00302217)
(0.0375431 -4.4818e-09 0.00328219)
(0.035282 -4.28644e-09 0.00353123)
(0.0328485 -4.11125e-09 0.00376569)
(0.0302522 -3.94786e-09 0.00398149)
(0.0275055 -3.79626e-09 0.004174)
(0.0246238 -3.62289e-09 0.00433796)
(0.0216261 -3.44449e-09 0.00446733)
(0.0185351 -3.28457e-09 0.00455517)
(0.0153781 -3.17335e-09 0.00459341)
(0.0121876 -3.14782e-09 0.00457254)
(0.00900219 -3.26349e-09 0.00448095)
(0.00586589 -3.42793e-09 0.00430336)
(0.00283182 -3.60914e-09 0.00402493)
(-4.14462e-05 -3.90293e-09 0.00362928)
(-0.00267992 -4.29399e-09 0.00309553)
(-0.00500101 -4.78899e-09 0.00240189)
(-0.00691529 -5.40657e-09 0.0015263)
(-0.00832127 -6.17544e-09 0.000452906)
(-0.00911253 -7.01555e-09 -0.000811569)
(-0.00917469 -7.87718e-09 -0.00220922)
(-0.00840594 -8.49985e-09 -0.00358308)
(-0.00673482 -8.41369e-09 -0.0045537)
(-0.00416541 9.66688e-10 -0.00438434)
(-0.000995163 -2.5559e-08 -0.0022473)
(0.00192488 1.51831e-08 -0.00782813)
(0.00363784 2.32728e-08 -0.00671681)
(0.00369614 2.79656e-08 -0.00404883)
(0.0030118 2.18296e-08 -0.00125909)
(0.00169321 1.87449e-08 0.00128933)
(-0.000119923 1.64131e-08 0.00347338)