/*--------------------------------*- C++ -*----------------------------------*\
  =========                 |
  \\      /  F ield         | OpenFOAM: The Open Source CFD Toolbox
   \\    /   O peration     | Website:  https://openfoam.org
    \\  /    A nd           | Version:  8
     \\/     M anipulation  |
\*---------------------------------------------------------------------------*/
FoamFile
{
    version     2.0;
    format      ascii;
    class       volScalarField;
    location    "2700";
    object      alphat;
}
// * * * * * * * * * * * * * * * * * * * * * * * * * * * * * * * * * * * * * //

dimensions      [1 -1 -1 0 0 0 0];

internalField   nonuniform List<scalar> 
46000
(
3.72182e-07
1.78698e-06
3.52254e-06
5.17646e-06
6.75051e-06
8.28029e-06
9.77743e-06
1.12475e-05
1.26986e-05
1.41348e-05
1.55649e-05
1.69819e-05
1.83894e-05
1.97896e-05
2.11829e-05
2.25692e-05
2.39481e-05
2.53188e-05
2.66807e-05
2.80325e-05
2.93732e-05
3.07014e-05
3.20158e-05
3.33149e-05
3.45972e-05
3.58611e-05
3.71049e-05
3.8327e-05
3.95258e-05
4.06994e-05
4.18463e-05
4.29646e-05
4.40528e-05
4.51091e-05
4.61319e-05
4.71196e-05
4.80707e-05
4.89837e-05
4.98571e-05
5.06896e-05
5.148e-05
5.2227e-05
5.29295e-05
5.35866e-05
5.41973e-05
5.47608e-05
5.52765e-05
5.57437e-05
5.61622e-05
5.65314e-05
5.68513e-05
5.71217e-05
5.73427e-05
5.75145e-05
5.76373e-05
5.77116e-05
5.77379e-05
5.77169e-05
5.76494e-05
5.75362e-05
5.73786e-05
5.71782e-05
5.69378e-05
5.66584e-05
5.63394e-05
5.59819e-05
5.55872e-05
5.5157e-05
5.46927e-05
5.41961e-05
5.36688e-05
5.31126e-05
5.25293e-05
5.19206e-05
5.12883e-05
5.06342e-05
4.99602e-05
4.9268e-05
4.85594e-05
4.78362e-05
4.71001e-05
4.63528e-05
4.5596e-05
4.48314e-05
4.40605e-05
4.32849e-05
4.2506e-05
4.17254e-05
4.09444e-05
4.01642e-05
3.93863e-05
3.86118e-05
3.78418e-05
3.70775e-05
3.63197e-05
3.55695e-05
3.48278e-05
3.40952e-05
3.33727e-05
3.26608e-05
3.19602e-05
3.12715e-05
3.05951e-05
2.99314e-05
2.92809e-05
2.86439e-05
2.80205e-05
2.74111e-05
2.68158e-05
2.62347e-05
2.56678e-05
2.51153e-05
2.4577e-05
2.40529e-05
2.3543e-05
2.3047e-05
2.25649e-05
2.20963e-05
2.16412e-05
2.11992e-05
2.07701e-05
2.03536e-05
1.99493e-05
1.9557e-05
1.91762e-05
1.88066e-05
1.84478e-05
1.80994e-05
1.77611e-05
1.74323e-05
1.71127e-05
1.68018e-05
1.64992e-05
1.62045e-05
1.59172e-05
1.5637e-05
1.5363e-05
1.50956e-05
1.48341e-05
1.45779e-05
1.43266e-05
1.40795e-05
1.38364e-05
1.35968e-05
1.33603e-05
1.31265e-05
1.2895e-05
1.26653e-05
1.24372e-05
1.22102e-05
1.19841e-05
1.17584e-05
1.1533e-05
1.13074e-05
1.10814e-05
1.08548e-05
1.06273e-05
1.03987e-05
1.01688e-05
9.93754e-06
9.70467e-06
9.47009e-06
9.23369e-06
8.99549e-06
8.75685e-06
8.51702e-06
8.27551e-06
8.03225e-06
7.78728e-06
7.54068e-06
7.29257e-06
7.04307e-06
6.79234e-06
6.54055e-06
6.28788e-06
6.03453e-06
5.78071e-06
5.52663e-06
5.27252e-06
5.01858e-06
4.76505e-06
4.51211e-06
4.25997e-06
4.0088e-06
3.75873e-06
3.50981e-06
3.26148e-06
3.01481e-06
2.7695e-06
2.52483e-06
2.28092e-06
2.03696e-06
1.79205e-06
1.54557e-06
1.29846e-06
1.04605e-06
7.84635e-07
5.12034e-07
2.39943e-07
4.57712e-08
3.72204e-07
1.78707e-06
3.52266e-06
5.1766e-06
6.75067e-06
8.28045e-06
9.77759e-06
1.12477e-05
1.26988e-05
1.4135e-05
1.5565e-05
1.69821e-05
1.83896e-05
1.97897e-05
2.1183e-05
2.25693e-05
2.39482e-05
2.5319e-05
2.66808e-05
2.80326e-05
2.93733e-05
3.07015e-05
3.20159e-05
3.3315e-05
3.45973e-05
3.58612e-05
3.7105e-05
3.83271e-05
3.95259e-05
4.06995e-05
4.18463e-05
4.29647e-05
4.40528e-05
4.51091e-05
4.61319e-05
4.71196e-05
4.80707e-05
4.89837e-05
4.98571e-05
5.06897e-05
5.148e-05
5.2227e-05
5.29295e-05
5.35866e-05
5.41973e-05
5.47608e-05
5.52765e-05
5.57437e-05
5.61622e-05
5.65314e-05
5.68513e-05
5.71217e-05
5.73427e-05
5.75145e-05
5.76373e-05
5.77116e-05
5.77379e-05
5.77169e-05
5.76493e-05
5.75362e-05
5.73786e-05
5.71781e-05
5.69378e-05
5.66583e-05
5.63394e-05
5.59818e-05
5.55872e-05
5.51569e-05
5.46927e-05
5.4196e-05
5.36688e-05
5.31126e-05
5.25292e-05
5.19205e-05
5.12882e-05
5.06342e-05
4.99602e-05
4.92679e-05
4.85594e-05
4.78361e-05
4.71e-05
4.63527e-05
4.5596e-05
4.48313e-05
4.40604e-05
4.32848e-05
4.2506e-05
4.17253e-05
4.09443e-05
4.01642e-05
3.93863e-05
3.86118e-05
3.78418e-05
3.70774e-05
3.63197e-05
3.55695e-05
3.48277e-05
3.40952e-05
3.33726e-05
3.26608e-05
3.19602e-05
3.12714e-05
3.0595e-05
2.99314e-05
2.92809e-05
2.86438e-05
2.80205e-05
2.74111e-05
2.68157e-05
2.62346e-05
2.56678e-05
2.51152e-05
2.45769e-05
2.40529e-05
2.35429e-05
2.30469e-05
2.25648e-05
2.20963e-05
2.16411e-05
2.11992e-05
2.07701e-05
2.03535e-05
1.99493e-05
1.95569e-05
1.91761e-05
1.88065e-05
1.84477e-05
1.80994e-05
1.7761e-05
1.74322e-05
1.71126e-05
1.68017e-05
1.64991e-05
1.62044e-05
1.59171e-05
1.56369e-05
1.53629e-05
1.50956e-05
1.48341e-05
1.45779e-05
1.43265e-05
1.40795e-05
1.38364e-05
1.35968e-05
1.33603e-05
1.31265e-05
1.28949e-05
1.26653e-05
1.24371e-05
1.22102e-05
1.1984e-05
1.17584e-05
1.15329e-05
1.13073e-05
1.10813e-05
1.08547e-05
1.06272e-05
1.03986e-05
1.01688e-05
9.9375e-06
9.70463e-06
9.47005e-06
9.23366e-06
8.99545e-06
8.75681e-06
8.51698e-06
8.27547e-06
8.03221e-06
7.78725e-06
7.54065e-06
7.29254e-06
7.04304e-06
6.79232e-06
6.54053e-06
6.28786e-06
6.03451e-06
5.78069e-06
5.52661e-06
5.2725e-06
5.01857e-06
4.76503e-06
4.5121e-06
4.25996e-06
4.00879e-06
3.75872e-06
3.5098e-06
3.26147e-06
3.0148e-06
2.7695e-06
2.52483e-06
2.28092e-06
2.03696e-06
1.79205e-06
1.54557e-06
1.29846e-06
1.04605e-06
7.84638e-07
5.12037e-07
2.39945e-07
4.57717e-08
1.63365e-06
2.95554e-05
5.36159e-05
7.00243e-05
8.25998e-05
9.29089e-05
0.000101734
0.000109585
0.000116739
0.000123357
0.000129551
0.000135407
0.00014098
0.000146306
0.000151416
0.000156331
0.000161071
0.000165649
0.000170078
0.000174367
0.000178522
0.00018255
0.000186456
0.000190244
0.000193916
0.000197474
0.000200922
0.00020426
0.000207489
0.000210609
0.000213622
0.000216527
0.000219325
0.000222014
0.000224596
0.000227069
0.000229434
0.000231689
0.000233834
0.00023587
0.000237795
0.000239608
0.000241311
0.000242901
0.00024438
0.000245747
0.000247001
0.000248143
0.000249174
0.000250092
0.000250899
0.000251595
0.000252181
0.000252658
0.000253026
0.000253286
0.00025344
0.000253488
0.000253432
0.000253274
0.000253014
0.000252652
0.000252187
0.000251622
0.000250964
0.000250215
0.000249379
0.000248458
0.000247456
0.000246375
0.000245218
0.000243988
0.000242688
0.000241321
0.00023989
0.000238399
0.00023685
0.000235247
0.000233593
0.000231892
0.000230145
0.000228358
0.000226532
0.000224671
0.000222779
0.000220858
0.000218911
0.000216942
0.000214954
0.000212949
0.00021093
0.000208901
0.000206863
0.00020482
0.000202774
0.000200728
0.000198683
0.000196643
0.00019461
0.000192585
0.000190572
0.000188571
0.000186584
0.000184614
0.000182661
0.000180728
0.000178816
0.000176926
0.000175059
0.000173217
0.000171399
0.000169608
0.000167844
0.000166108
0.000164399
0.000162719
0.000161068
0.000159446
0.000157853
0.000156288
0.000154753
0.000153247
0.000151769
0.000150319
0.000148896
0.000147501
0.000146131
0.000144788
0.000143469
0.000142173
0.000140901
0.00013965
0.00013842
0.00013721
0.000136018
0.000134844
0.000133687
0.000132544
0.000131413
0.000130293
0.000129183
0.000128081
0.000126985
0.000125895
0.000124808
0.000123722
0.000122637
0.00012155
0.00012046
0.000119365
0.000118263
0.000117153
0.000116034
0.000114904
0.00011376
0.000112603
0.00011143
0.00011024
0.000109031
0.000107803
0.000106553
0.00010528
0.000103983
0.000102656
0.00010129
9.9895e-05
9.84704e-05
9.70157e-05
9.55304e-05
9.40138e-05
9.24651e-05
9.08835e-05
8.92683e-05
8.76185e-05
8.59331e-05
8.42112e-05
8.24516e-05
8.06529e-05
7.88135e-05
7.69315e-05
7.50048e-05
7.30307e-05
7.10058e-05
6.89261e-05
6.67866e-05
6.45815e-05
6.23043e-05
5.99406e-05
5.74748e-05
5.48861e-05
5.21495e-05
4.92226e-05
4.60434e-05
4.24977e-05
3.84087e-05
3.36501e-05
2.78423e-05
2.02336e-05
9.41697e-06
2.14132e-07
1.63375e-06
2.95575e-05
5.36192e-05
7.0028e-05
8.26036e-05
9.29129e-05
0.000101738
0.000109589
0.000116743
0.000123361
0.000129555
0.000135412
0.000140984
0.000146311
0.00015142
0.000156336
0.000161075
0.000165654
0.000170083
0.000174371
0.000178527
0.000182555
0.000186461
0.000190249
0.000193921
0.00019748
0.000200927
0.000204265
0.000207494
0.000210615
0.000213628
0.000216533
0.00021933
0.00022202
0.000224602
0.000227075
0.00022944
0.000231695
0.00023384
0.000235876
0.000237801
0.000239615
0.000241317
0.000242908
0.000244386
0.000245753
0.000247007
0.00024815
0.00024918
0.000250098
0.000250905
0.000251602
0.000252188
0.000252664
0.000253032
0.000253292
0.000253446
0.000253494
0.000253439
0.00025328
0.00025302
0.000252658
0.000252193
0.000251628
0.00025097
0.000250221
0.000249385
0.000248464
0.000247462
0.000246381
0.000245223
0.000243993
0.000242693
0.000241326
0.000239896
0.000238404
0.000236856
0.000235253
0.000233599
0.000231897
0.000230151
0.000228363
0.000226537
0.000224676
0.000222784
0.000220863
0.000218916
0.000216947
0.000214959
0.000212953
0.000210935
0.000208905
0.000206867
0.000204824
0.000202778
0.000200732
0.000198687
0.000196647
0.000194614
0.000192589
0.000190575
0.000188574
0.000186587
0.000184617
0.000182665
0.000180732
0.000178819
0.000176929
0.000175062
0.00017322
0.000171402
0.000169611
0.000167847
0.00016611
0.000164402
0.000162722
0.00016107
0.000159448
0.000157855
0.000156291
0.000154755
0.000153249
0.000151771
0.000150321
0.000148898
0.000147503
0.000146133
0.000144789
0.00014347
0.000142175
0.000140902
0.000139652
0.000138422
0.000137211
0.00013602
0.000134846
0.000133689
0.000132545
0.000131414
0.000130294
0.000129184
0.000128082
0.000126986
0.000125896
0.000124809
0.000123723
0.000122638
0.000121551
0.00012046
0.000119365
0.000118264
0.000117154
0.000116035
0.000114904
0.000113761
0.000112603
0.00011143
0.00011024
0.000109031
0.000107803
0.000106553
0.00010528
0.000103983
0.000102657
0.00010129
9.98952e-05
9.84706e-05
9.70159e-05
9.55306e-05
9.4014e-05
9.24653e-05
9.08837e-05
8.92684e-05
8.76186e-05
8.59333e-05
8.42114e-05
8.24517e-05
8.0653e-05
7.88136e-05
7.69316e-05
7.5005e-05
7.30308e-05
7.10059e-05
6.89262e-05
6.67867e-05
6.45816e-05
6.23044e-05
5.99407e-05
5.7475e-05
5.48863e-05
5.21497e-05
4.92228e-05
4.60435e-05
4.24978e-05
3.84088e-05
3.36502e-05
2.78424e-05
2.02337e-05
9.41693e-06
2.14132e-07
3.2888e-06
5.20949e-05
0.000103684
0.00014203
0.000171613
0.000195479
0.000215515
0.000232867
0.000248263
0.000262176
0.000274924
0.000286735
0.000297769
0.000308145
0.000317952
0.00032726
0.000336124
0.000344588
0.000352686
0.000360449
0.000367899
0.000375056
0.000381936
0.000388554
0.000394921
0.000401047
0.000406939
0.000412605
0.000418052
0.000423284
0.000428305
0.00043312
0.000437732
0.000442144
0.000446359
0.000450378
0.000454204
0.000457839
0.000461285
0.000464542
0.000467612
0.000470497
0.000473198
0.000475716
0.000478053
0.00048021
0.000482187
0.000483987
0.000485611
0.000487061
0.000488337
0.000489441
0.000490376
0.000491142
0.000491742
0.000492178
0.000492451
0.000492563
0.000492517
0.000492314
0.000491954
0.000491439
0.000490767
0.000489943
0.000488974
0.000487866
0.000486623
0.00048525
0.000483751
0.00048213
0.000480391
0.000478537
0.000476574
0.000474506
0.000472336
0.000470069
0.000467709
0.00046526
0.000462728
0.000460116
0.000457429
0.000454671
0.000451847
0.000448962
0.000446019
0.000443023
0.00043998
0.000436892
0.000433765
0.000430602
0.000427408
0.000424188
0.000420944
0.000417682
0.000414405
0.000411117
0.000407822
0.000404523
0.000401224
0.000397928
0.000394639
0.000391359
0.000388092
0.000384841
0.000381607
0.000378395
0.000375206
0.000372042
0.000368907
0.0003658
0.000362725
0.000359683
0.000356675
0.000353703
0.000350767
0.000347869
0.00034501
0.000342189
0.000339407
0.000336665
0.000333962
0.000331299
0.000328674
0.000326088
0.00032354
0.000321029
0.000318554
0.000316114
0.000313708
0.000311334
0.000308991
0.000306678
0.000304392
0.000302133
0.000299899
0.000297687
0.000295493
0.000293316
0.000291152
0.000288999
0.000286856
0.000284718
0.000282584
0.000280451
0.000278316
0.000276176
0.000274029
0.000271871
0.000269701
0.000267514
0.000265309
0.000263082
0.000260831
0.000258553
0.000256246
0.000253907
0.000251533
0.000249122
0.000246671
0.000244178
0.000241641
0.000239055
0.000236416
0.00023372
0.000230955
0.000228127
0.000225236
0.000222282
0.000219263
0.000216179
0.000213026
0.000209802
0.000206506
0.000203133
0.00019968
0.000196144
0.00019252
0.000188803
0.000184987
0.000181065
0.000177029
0.000172869
0.000168573
0.000164127
0.000159513
0.000154711
0.000149692
0.000144419
0.000138845
0.000132906
0.000126507
0.000119521
0.000111767
0.000102967
9.26969e-05
8.04125e-05
6.51763e-05
4.53877e-05
1.94533e-05
4.62856e-07
3.28893e-06
5.20981e-05
0.000103691
0.000142038
0.000171621
0.000195488
0.000215524
0.000232876
0.000248272
0.000262185
0.000274933
0.000286743
0.000297778
0.000308154
0.000317961
0.000327269
0.000336133
0.000344597
0.000352695
0.000360457
0.000367907
0.000375065
0.000381945
0.000388563
0.00039493
0.000401056
0.000406948
0.000412615
0.000418061
0.000423293
0.000428314
0.000433129
0.000437741
0.000442154
0.000446368
0.000450388
0.000454214
0.000457849
0.000461294
0.000464551
0.000467621
0.000470506
0.000473207
0.000475726
0.000478062
0.000480219
0.000482197
0.000483997
0.000485621
0.00048707
0.000488346
0.00048945
0.000490385
0.000491151
0.000491751
0.000492187
0.00049246
0.000492572
0.000492526
0.000492322
0.000491963
0.000491447
0.000490776
0.000489952
0.000488983
0.000487874
0.000486631
0.000485258
0.000483759
0.000482138
0.000480398
0.000478545
0.000476582
0.000474513
0.000472343
0.000470076
0.000467716
0.000465267
0.000462735
0.000460123
0.000457435
0.000454678
0.000451854
0.000448968
0.000446025
0.00044303
0.000439986
0.000436898
0.00043377
0.000430608
0.000427414
0.000424193
0.00042095
0.000417687
0.00041441
0.000411122
0.000407827
0.000404528
0.000401228
0.000397932
0.000394643
0.000391363
0.000388096
0.000384845
0.000381611
0.000378399
0.00037521
0.000372046
0.00036891
0.000365803
0.000362728
0.000359686
0.000356678
0.000353706
0.00035077
0.000347872
0.000345012
0.000342191
0.000339409
0.000336667
0.000333964
0.000331301
0.000328676
0.00032609
0.000323542
0.000321031
0.000318556
0.000316116
0.000313709
0.000311335
0.000308992
0.000306679
0.000304393
0.000302134
0.000299899
0.000297687
0.000295494
0.000293316
0.000291152
0.000289
0.000286856
0.000284718
0.000282584
0.000280451
0.000278316
0.000276176
0.000274029
0.000271871
0.000269701
0.000267514
0.000265309
0.000263082
0.000260831
0.000258553
0.000256246
0.000253906
0.000251532
0.000249121
0.000246671
0.000244178
0.00024164
0.000239054
0.000236416
0.000233719
0.000230954
0.000228126
0.000225235
0.000222281
0.000219263
0.000216178
0.000213025
0.000209802
0.000206505
0.000203132
0.00019968
0.000196143
0.000192519
0.000188802
0.000184986
0.000181064
0.000177028
0.000172868
0.000168572
0.000164126
0.000159513
0.00015471
0.000149692
0.000144419
0.000138845
0.000132906
0.000126507
0.000119521
0.000111767
0.000102967
9.26969e-05
8.04126e-05
6.51764e-05
4.53877e-05
1.94532e-05
4.62856e-07
4.92281e-06
6.78266e-05
0.000140466
0.000198889
0.000245741
0.000284285
0.000316865
0.000345059
0.000369942
0.000392259
0.000412537
0.00043116
0.000448408
0.000464495
0.000479583
0.000493799
0.000507244
0.000519999
0.000532129
0.000543689
0.000554722
0.000565266
0.000575351
0.000585004
0.000594247
0.0006031
0.000611579
0.000619698
0.00062747
0.000634905
0.000642015
0.000648806
0.000655287
0.000661464
0.000667344
0.000672933
0.000678235
0.000683256
0.000687999
0.00069247
0.000696672
0.000700609
0.000704283
0.0007077
0.000710862
0.000713772
0.000716434
0.000718851
0.000721025
0.000722961
0.000724661
0.000726128
0.000727365
0.000728376
0.000729163
0.00072973
0.00073008
0.000730216
0.00073014
0.000729856
0.000729365
0.00072867
0.000727771
0.000726674
0.000725385
0.000723911
0.00072226
0.000720436
0.000718445
0.000716291
0.000713982
0.000711521
0.000708914
0.000706166
0.000703283
0.000700269
0.000697131
0.000693874
0.000690504
0.000687025
0.000683444
0.000679766
0.000675997
0.000672143
0.000668209
0.000664201
0.000660124
0.000655984
0.000651786
0.000647537
0.000643241
0.000638904
0.000634531
0.000630127
0.000625697
0.000621247
0.000616781
0.000612304
0.00060782
0.000603334
0.000598851
0.000594374
0.000589907
0.000585454
0.00058102
0.000576606
0.000572217
0.000567855
0.000563524
0.000559225
0.000554962
0.000550736
0.00054655
0.000542404
0.000538301
0.000534242
0.000530227
0.000526258
0.000522335
0.000518458
0.000514627
0.000510842
0.000507103
0.000503409
0.000499759
0.000496152
0.000492586
0.000489061
0.000485574
0.000482124
0.000478708
0.000475326
0.000471973
0.00046865
0.000465352
0.000462075
0.000458816
0.000455571
0.000452337
0.000449111
0.000445888
0.000442666
0.000439441
0.000436209
0.000432967
0.000429711
0.000426437
0.000423141
0.00041982
0.000416469
0.000413085
0.000409665
0.000406205
0.000402701
0.000399149
0.000395547
0.00039189
0.000388176
0.000384401
0.000380562
0.000376654
0.000372673
0.000368614
0.000364471
0.000360235
0.000355907
0.000351486
0.00034697
0.000342357
0.000337643
0.000332824
0.000327897
0.000322855
0.000317694
0.000312407
0.000306985
0.000301421
0.000295703
0.00028982
0.000283758
0.000277501
0.000271028
0.000264318
0.000257341
0.000250063
0.000242442
0.000234425
0.000225942
0.000216905
0.000207194
0.000196651
0.000185057
0.000172109
0.000157377
0.000140257
0.000119889
9.50759e-05
6.41403e-05
2.66128e-05
7.2191e-07
4.92295e-06
6.78301e-05
0.000140474
0.0001989
0.000245754
0.000284298
0.000316878
0.000345073
0.000369956
0.000392273
0.000412551
0.000431173
0.000448421
0.000464508
0.000479596
0.000493812
0.000507257
0.000520012
0.000532142
0.000543702
0.000554735
0.000565278
0.000575363
0.000585016
0.00059426
0.000603113
0.000611591
0.00061971
0.000627482
0.000634918
0.000642027
0.000648818
0.000655299
0.000661476
0.000667356
0.000672945
0.000678247
0.000683268
0.000688011
0.000692482
0.000696684
0.00070062
0.000704295
0.000707712
0.000710874
0.000713784
0.000716446
0.000718862
0.000721037
0.000722972
0.000724672
0.000726139
0.000727376
0.000728386
0.000729174
0.000729741
0.000730091
0.000730226
0.000730151
0.000729866
0.000729375
0.00072868
0.000727781
0.000726683
0.000725394
0.000723921
0.000722269
0.000720445
0.000718454
0.0007163
0.000713991
0.000711529
0.000708922
0.000706174
0.000703291
0.000700277
0.000697139
0.000693882
0.000690511
0.000687032
0.000683451
0.000679773
0.000676004
0.00067215
0.000668216
0.000664207
0.00066013
0.00065599
0.000651792
0.000647543
0.000643247
0.000638909
0.000634536
0.000630132
0.000625702
0.000621252
0.000616786
0.000612308
0.000607824
0.000603339
0.000598855
0.000594378
0.000589911
0.000585458
0.000581023
0.00057661
0.00057222
0.000567858
0.000563527
0.000559228
0.000554965
0.000550739
0.000546552
0.000542407
0.000538304
0.000534244
0.000530229
0.00052626
0.000522337
0.000518459
0.000514628
0.000510844
0.000507104
0.00050341
0.00049976
0.000496152
0.000492587
0.000489061
0.000485574
0.000482124
0.000478709
0.000475326
0.000471974
0.00046865
0.000465352
0.000462075
0.000458816
0.000455571
0.000452337
0.00044911
0.000445887
0.000442665
0.00043944
0.000436209
0.000432966
0.00042971
0.000426436
0.00042314
0.000419818
0.000416468
0.000413084
0.000409664
0.000406203
0.000402699
0.000399147
0.000395545
0.000391889
0.000388175
0.0003844
0.00038056
0.000376652
0.000372671
0.000368612
0.000364469
0.000360233
0.000355905
0.000351484
0.000346968
0.000342355
0.000337641
0.000332822
0.000327895
0.000322854
0.000317693
0.000312405
0.000306984
0.000301419
0.000295701
0.000289819
0.000283757
0.000277499
0.000271027
0.000264316
0.000257339
0.000250062
0.000242441
0.000234424
0.000225941
0.000216904
0.000207194
0.00019665
0.000185056
0.000172108
0.000157376
0.000140257
0.000119889
9.5076e-05
6.41404e-05
2.66126e-05
7.21912e-07
6.5251e-06
8.03082e-05
0.000169225
0.000244544
0.000307023
0.000359536
0.000404467
0.000443581
0.000478166
0.000509159
0.000537254
0.000562968
0.000586694
0.000608733
0.000629319
0.000648638
0.000666838
0.000684039
0.000700337
0.000715813
0.000730534
0.000744555
0.000757925
0.000770681
0.00078286
0.00079449
0.000805596
0.000816201
0.000826325
0.000835985
0.000845195
0.00085397
0.000862322
0.000870262
0.000877801
0.000884948
0.000891711
0.000898098
0.000904118
0.000909777
0.000915082
0.000920039
0.000924654
0.000928934
0.000932884
0.00093651
0.000939816
0.000942809
0.000945493
0.000947873
0.000949955
0.000951743
0.000953242
0.000954457
0.000955392
0.000956053
0.000956443
0.000956568
0.000956431
0.000956036
0.000955387
0.000954488
0.000953343
0.000951956
0.000950336
0.000948489
0.000946424
0.000944147
0.000941665
0.000938985
0.000936113
0.000933056
0.000929819
0.00092641
0.000922835
0.000919101
0.000915213
0.000911179
0.000907005
0.000902698
0.000898265
0.000893712
0.000889047
0.000884275
0.000879403
0.000874439
0.000869389
0.00086426
0.000859057
0.000853789
0.000848461
0.000843079
0.000837651
0.000832182
0.000826678
0.000821145
0.00081559
0.000810018
0.000804434
0.000798843
0.000793252
0.000787664
0.000782085
0.00077652
0.000770972
0.000765446
0.000759945
0.000754473
0.000749034
0.000743631
0.000738266
0.000732942
0.000727662
0.000722427
0.000717239
0.000712099
0.000707009
0.000701969
0.000696979
0.000692041
0.000687154
0.000682318
0.000677532
0.000672794
0.000668105
0.000663462
0.000658864
0.000654309
0.000649794
0.000645318
0.000640878
0.000636471
0.000632094
0.000627746
0.00062342
0.000619112
0.000614819
0.000610536
0.000606259
0.000601983
0.000597705
0.00059342
0.000589124
0.000584812
0.000580479
0.000576121
0.000571733
0.000567312
0.000562851
0.000558347
0.000553796
0.000549192
0.000544531
0.00053981
0.000535023
0.000530168
0.000525238
0.000520231
0.000515142
0.000509967
0.0005047
0.000499338
0.000493873
0.000488299
0.000482609
0.000476801
0.000470871
0.000464815
0.00045863
0.00045231
0.000445849
0.00043924
0.000432476
0.000425547
0.000418443
0.000411152
0.00040366
0.000395951
0.000388006
0.000379803
0.000371317
0.000362517
0.000353368
0.000343826
0.000333839
0.000323342
0.000312254
0.000300474
0.000287871
0.000274277
0.000259469
0.000243153
0.000224934
0.000204277
0.000180456
0.00015248
0.000119072
7.88075e-05
3.23033e-05
9.81709e-07
6.52524e-06
8.03118e-05
0.000169234
0.000244556
0.000307037
0.000359552
0.000404484
0.000443599
0.000478183
0.000509177
0.000537272
0.000562986
0.000586711
0.00060875
0.000629336
0.000648656
0.000666855
0.000684056
0.000700354
0.00071583
0.00073055
0.000744572
0.000757941
0.000770698
0.000782876
0.000794506
0.000805612
0.000816217
0.000826341
0.000836
0.000845211
0.000853986
0.000862338
0.000870278
0.000877816
0.000884963
0.000891726
0.000898113
0.000904133
0.000909791
0.000915096
0.000920053
0.000924668
0.000928948
0.000932898
0.000936523
0.00093983
0.000942822
0.000945506
0.000947886
0.000949968
0.000951756
0.000953255
0.000954469
0.000955405
0.000956065
0.000956455
0.00095658
0.000956442
0.000956047
0.000955399
0.0009545
0.000953354
0.000951967
0.000950346
0.0009485
0.000946434
0.000944157
0.000941675
0.000938995
0.000936123
0.000933065
0.000929829
0.000926419
0.000922844
0.000919109
0.000915222
0.000911187
0.000907014
0.000902707
0.000898273
0.00089372
0.000889054
0.000884282
0.000879411
0.000874446
0.000869396
0.000864266
0.000859064
0.000853795
0.000848467
0.000843085
0.000837657
0.000832187
0.000826683
0.000821151
0.000815595
0.000810022
0.000804438
0.000798848
0.000793256
0.000787668
0.000782089
0.000776524
0.000770976
0.000765449
0.000759948
0.000754477
0.000749037
0.000743634
0.000738269
0.000732945
0.000727664
0.000722429
0.000717241
0.000712101
0.00070701
0.00070197
0.000696981
0.000692043
0.000687156
0.000682319
0.000677533
0.000672795
0.000668106
0.000663463
0.000658865
0.000654309
0.000649795
0.000645318
0.000640878
0.000636471
0.000632094
0.000627745
0.000623419
0.000619112
0.000614819
0.000610536
0.000606258
0.000601983
0.000597704
0.000593419
0.000589123
0.00058481
0.000580478
0.00057612
0.000571732
0.00056731
0.00056285
0.000558346
0.000553794
0.00054919
0.000544529
0.000539808
0.000535021
0.000530166
0.000525236
0.000520229
0.00051514
0.000509965
0.000504698
0.000499335
0.00049387
0.000488297
0.000482607
0.000476799
0.000470869
0.000464813
0.000458628
0.000452307
0.000445846
0.000439238
0.000432474
0.000425545
0.000418441
0.00041115
0.000403658
0.000395949
0.000388004
0.000379801
0.000371315
0.000362515
0.000353366
0.000343825
0.000333838
0.000323341
0.000312253
0.000300473
0.00028787
0.000274276
0.000259468
0.000243152
0.000224934
0.000204277
0.000180456
0.00015248
0.000119072
7.88076e-05
3.23032e-05
9.81712e-07
8.11938e-06
9.08173e-05
0.000192911
0.000282514
0.000358785
0.00042404
0.000480532
0.000530071
0.000574053
0.000613541
0.000649345
0.000682091
0.000712262
0.000740237
0.000766314
0.000790731
0.000813683
0.000835325
0.000855786
0.000875173
0.000893574
0.000911063
0.000927705
0.000943552
0.000958651
0.000973041
0.000986757
0.00099983
0.00101228
0.00102415
0.00103544
0.00104617
0.00105637
0.00106605
0.00107522
0.0010839
0.00109209
0.00109982
0.00110708
0.0011139
0.00112028
0.00112622
0.00113175
0.00113686
0.00114156
0.00114587
0.00114979
0.00115332
0.00115648
0.00115927
0.00116171
0.00116378
0.00116551
0.0011669
0.00116795
0.00116868
0.00116908
0.00116917
0.00116895
0.00116842
0.0011676
0.00116648
0.00116507
0.00116338
0.00116142
0.00115919
0.00115671
0.00115398
0.001151
0.0011478
0.00114437
0.00114073
0.00113687
0.00113282
0.00112857
0.00112413
0.00111952
0.00111473
0.00110978
0.00110468
0.00109942
0.00109403
0.00108851
0.00108286
0.0010771
0.00107122
0.00106525
0.00105918
0.00105303
0.0010468
0.00104049
0.00103413
0.00102771
0.00102124
0.00101472
0.00100818
0.0010016
0.000995006
0.000988394
0.000981773
0.000975149
0.000968527
0.000961914
0.000955313
0.000948731
0.000942172
0.00093564
0.000929139
0.000922674
0.000916247
0.000909862
0.000903522
0.000897229
0.000890986
0.000884794
0.000878655
0.000872569
0.000866539
0.000860563
0.000854643
0.000848778
0.000842967
0.00083721
0.000831505
0.000825851
0.000820246
0.000814688
0.000809174
0.000803702
0.000798269
0.000792872
0.000787508
0.000782172
0.000776862
0.000771571
0.000766295
0.000761029
0.000755768
0.000750507
0.000745241
0.000739966
0.000734675
0.000729364
0.000724027
0.000718659
0.000713255
0.000707809
0.000702316
0.000696771
0.000691169
0.000685504
0.000679771
0.000673966
0.000668082
0.000662116
0.000656063
0.000649917
0.000643673
0.000637328
0.000630875
0.000624308
0.000617623
0.000610812
0.000603869
0.000596786
0.000589559
0.000582182
0.000574649
0.000566955
0.000559091
0.00055105
0.000542822
0.000534397
0.00052576
0.000516899
0.000507795
0.000498431
0.000488784
0.000478827
0.000468532
0.000457863
0.00044678
0.000435232
0.000423163
0.000410501
0.00039716
0.000383035
0.000367992
0.000351865
0.000334441
0.000315447
0.000294528
0.000271222
0.000244926
0.000214849
0.000179976
0.000139063
9.09611e-05
3.71402e-05
1.24191e-06
8.11953e-06
9.08209e-05
0.00019292
0.000282527
0.0003588
0.000424058
0.000480551
0.000530091
0.000574074
0.000613562
0.000649367
0.000682113
0.000712284
0.000740258
0.000766335
0.000790752
0.000813704
0.000835346
0.000855807
0.000875193
0.000893594
0.000911083
0.000927725
0.000943572
0.00095867
0.00097306
0.000986777
0.000999849
0.0010123
0.00102417
0.00103545
0.00104619
0.00105639
0.00106607
0.00107524
0.00108391
0.00109211
0.00109983
0.0011071
0.00111392
0.00112029
0.00112624
0.00113176
0.00113687
0.00114158
0.00114588
0.0011498
0.00115334
0.0011565
0.00115929
0.00116172
0.0011638
0.00116553
0.00116691
0.00116797
0.00116869
0.0011691
0.00116918
0.00116896
0.00116843
0.00116761
0.00116649
0.00116508
0.00116339
0.00116143
0.0011592
0.00115672
0.00115399
0.00115102
0.00114781
0.00114438
0.00114074
0.00113688
0.00113283
0.00112858
0.00112414
0.00111953
0.00111474
0.00110979
0.00110469
0.00109943
0.00109404
0.00108852
0.00108287
0.0010771
0.00107123
0.00106526
0.00105919
0.00105303
0.0010468
0.0010405
0.00103413
0.00102771
0.00102124
0.00101473
0.00100818
0.00100161
0.000995012
0.0009884
0.000981778
0.000975154
0.000968532
0.000961918
0.000955318
0.000948735
0.000942176
0.000935644
0.000929143
0.000922677
0.00091625
0.000909865
0.000903525
0.000897232
0.000890989
0.000884797
0.000878657
0.000872572
0.000866541
0.000860565
0.000854645
0.00084878
0.000842969
0.000837212
0.000831507
0.000825853
0.000820247
0.000814689
0.000809175
0.000803703
0.00079827
0.000792873
0.000787508
0.000782173
0.000776862
0.000771571
0.000766295
0.000761029
0.000755768
0.000750507
0.000745241
0.000739965
0.000734674
0.000729363
0.000724026
0.000718658
0.000713254
0.000707808
0.000702315
0.00069677
0.000691168
0.000685502
0.00067977
0.000673964
0.00066808
0.000662114
0.000656061
0.000649915
0.000643671
0.000637326
0.000630872
0.000624306
0.000617621
0.00061081
0.000603867
0.000596784
0.000589557
0.000582179
0.000574647
0.000566952
0.000559089
0.000551048
0.00054282
0.000534395
0.000525758
0.000516897
0.000507793
0.000498429
0.000488782
0.000478826
0.000468531
0.000457862
0.000446778
0.000435231
0.000423161
0.000410499
0.000397159
0.000383033
0.000367991
0.000351864
0.00033444
0.000315446
0.000294528
0.000271222
0.000244926
0.000214849
0.000179976
0.000139063
9.09612e-05
3.71401e-05
1.24192e-06
9.70952e-06
0.000100077
0.000213262
0.000315114
0.000403513
0.000480229
0.000547319
0.000606564
0.000659401
0.00070697
0.000750165
0.000789688
0.000826097
0.000859834
0.000891253
0.00092064
0.000948228
0.000974208
0.000998737
0.00102195
0.00104395
0.00106483
0.00108467
0.00110354
0.0011215
0.00113859
0.00115486
0.00117034
0.00118508
0.00119909
0.00121241
0.00122507
0.00123707
0.00124844
0.00125921
0.00126938
0.00127897
0.00128799
0.00129647
0.00130441
0.00131183
0.00131873
0.00132513
0.00133104
0.00133647
0.00134143
0.00134594
0.00134999
0.0013536
0.00135677
0.00135953
0.00136187
0.0013638
0.00136534
0.00136649
0.00136726
0.00136766
0.00136769
0.00136737
0.00136669
0.00136567
0.00136432
0.00136264
0.00136064
0.00135833
0.00135572
0.00135281
0.00134963
0.00134617
0.00134244
0.00133846
0.00133424
0.00132977
0.00132508
0.00132017
0.00131505
0.00130972
0.00130421
0.0012985
0.00129263
0.00128658