/*--------------------------------*- C++ -*----------------------------------*\
  =========                 |
  \\      /  F ield         | OpenFOAM: The Open Source CFD Toolbox
   \\    /   O peration     | Website:  https://openfoam.org
    \\  /    A nd           | Version:  8
     \\/     M anipulation  |
\*---------------------------------------------------------------------------*/
FoamFile
{
    version     2.0;
    format      ascii;
    class       volScalarField;
    location    "2700";
    object      epsilon;
}
// * * * * * * * * * * * * * * * * * * * * * * * * * * * * * * * * * * * * * //

dimensions      [0 2 -3 0 0 0 0];

internalField   nonuniform List<scalar> 
46000
(
6.76603
29.2901
57.6147
84.5408
110.127
134.965
159.25
183.079
206.583
229.832
252.969
275.885
298.638
321.263
343.769
366.156
388.416
410.54
432.515
454.323
475.947
497.366
518.559
539.502
560.171
580.54
600.583
620.275
639.587
658.493
676.965
694.976
712.499
729.507
745.975
761.875
777.185
791.879
805.936
819.332
832.048
844.065
855.365
865.932
875.751
884.81
893.098
900.605
907.326
913.254
918.387
922.723
926.264
929.011
930.971
932.148
932.554
932.197
931.09
929.25
926.694
923.449
919.56
915.043
909.89
904.116
897.745
890.8
883.309
875.297
866.792
857.822
848.415
838.6
828.406
817.862
806.996
795.838
784.416
772.76
760.896
748.852
736.655
724.333
711.909
699.409
686.858
674.278
661.691
649.12
636.584
624.102
611.694
599.376
587.164
575.074
563.12
551.314
539.67
528.197
516.905
505.804
494.902
484.206
473.72
463.452
453.404
443.581
433.985
424.618
415.48
406.573
397.895
389.447
381.226
373.231
365.458
357.905
350.568
343.443
336.525
329.81
323.293
316.968
310.829
304.871
299.087
293.471
288.017
282.717
277.565
272.554
267.677
262.926
258.296
253.78
249.363
245.054
240.84
236.711
232.659
228.677
224.759
220.897
217.085
213.315
209.583
205.88
202.202
198.542
194.894
191.255
187.617
183.977
180.33
176.672
172.999
169.308
165.595
161.858
158.095
154.303
150.481
146.628
142.767
138.885
134.975
131.036
127.067
123.071
119.048
115.002
110.934
106.847
102.744
98.6286
94.5038
90.3731
86.24
82.1081
77.9808
73.8615
69.7533
65.6589
61.5806
57.5193
53.4656
49.4369
45.4286
41.4288
37.4394
33.4473
29.4373
25.3992
21.3488
17.2087
12.9174
8.43742
3.95847
0.839083
6.76664
29.2922
57.6173
84.5435
110.13
134.968
159.253
183.081
206.585
229.834
252.971
275.888
298.64
321.265
343.771
366.158
388.418
410.542
432.517
454.325
475.949
497.368
518.561
539.503
560.172
580.541
600.585
620.276
639.588
658.494
676.966
694.977
712.5
729.508
745.975
761.876
777.186
791.88
805.936
819.333
832.049
844.065
855.365
865.932
875.751
884.81
893.098
900.605
907.326
913.254
918.387
922.723
926.264
929.011
930.97
932.148
932.553
932.196
931.09
929.249
926.693
923.448
919.56
915.043
909.889
904.115
897.744
890.799
883.308
875.296
866.791
857.821
848.414
838.599
828.405
817.861
806.995
795.837
784.415
772.759
760.895
748.851
736.654
724.332
711.908
699.408
686.857
674.277
661.69
649.119
636.583
624.101
611.693
599.375
587.163
575.073
563.119
551.313
539.668
528.195
516.904
505.803
494.901
484.204
473.719
463.451
453.403
443.58
433.984
424.617
415.479
406.572
397.895
389.446
381.225
373.23
365.457
357.904
350.567
343.442
336.524
329.809
323.292
316.967
310.828
304.87
299.086
293.47
288.016
282.716
277.564
272.553
267.676
262.925
258.295
253.779
249.362
245.053
240.839
236.71
232.658
228.676
224.758
220.896
217.084
213.315
209.582
205.879
202.201
198.541
194.894
191.254
187.616
183.976
180.329
176.671
172.998
169.307
165.595
161.858
158.094
154.303
150.48
146.627
142.766
138.885
134.975
131.035
127.067
123.07
119.048
115.001
110.933
106.846
102.744
98.6282
94.5034
90.3728
86.2397
82.1078
77.9806
73.8613
69.7531
65.6587
61.5805
57.5191
53.4654
49.4367
45.4285
41.4287
37.4394
33.4472
29.4373
25.3993
21.3488
17.2087
12.9174
8.43746
3.95849
0.83909
31.6914
27.1819
35.8391
45.9346
56.3634
66.9459
77.6213
88.3521
99.1398
109.958
120.827
131.735
142.683
153.673
164.702
175.763
186.849
197.951
209.057
220.156
231.234
242.278
253.273
264.202
275.049
285.798
296.431
306.93
317.276
327.452
337.438
347.216
356.766
366.072
375.113
383.873
392.333
400.476
408.287
415.748
422.845
429.564
435.892
441.816
447.325
452.409
457.059
461.269
465.031
468.342
471.196
473.593
475.532
477.013
478.039
478.612
478.739
478.424
477.677
476.507
474.927
472.951
470.603
467.893
464.82
461.396
457.634
453.548
449.154
444.47
439.511
434.297
428.843
423.169
417.292
411.23
405.001
398.622
392.113
385.488
378.766
371.964
365.096
358.178
351.227
344.255
337.278
330.307
323.356
316.437
309.561
302.739
295.98
289.293
282.688
276.171
269.751
263.433
257.223
251.127
245.149
239.293
233.563
227.96
222.488
217.149
211.943
206.871
201.935
197.133
192.466
187.932
183.531
179.261
175.121
171.108
167.22
163.456
159.811
156.284
152.871
149.57
146.376
143.288
140.3
137.41
134.614
131.908
129.288
126.752
124.294
121.911
119.599
117.354
115.171
113.05
110.987
108.978
107.019
105.106
103.235
101.402
99.6033
97.8358
96.0959
94.3804
92.6859
91.0093
89.3477
87.6981
86.0577
84.4238
82.794
81.1659
79.5371
77.9057
76.2697
74.6274
72.9773
71.3179
69.6482
67.9673
66.2749
64.5721
62.8647
61.148
59.4201
57.6801
55.9279
54.1639
52.3889
50.6038
48.8095
47.0075
45.1991
43.3858
41.5693
39.7512
37.9334
36.1176
34.3056
32.4991
30.6998
28.9091
27.1284
25.3584
23.5991
21.8528
20.1187
18.393
16.6834
14.9857
13.2985
11.6235
9.96554
8.30921
6.65262
5.02357
3.6115
4.24157
31.693
27.1813
35.8378
45.9328
56.3613
66.9434
77.6186
88.349
99.1364
109.954
120.823
131.731
142.679
153.668
164.696
175.757
186.843
197.944
209.05
220.149
231.227
242.27
253.264
264.193
275.04
285.789
296.421
306.92
317.266
327.441
337.427
347.204
356.755
366.06
375.101
383.86
392.32
400.463
408.273
415.734
422.831
429.55
435.877
441.801
447.31
452.394
457.044
461.254
465.016
468.326
471.18
473.577
475.516
476.997
478.023
478.596
478.723
478.408
477.661
476.492
474.911
472.935
470.588
467.877
464.805
461.381
457.619
453.533
449.14
444.455
439.497
434.282
428.829
423.155
417.278
411.216
404.987
398.609
392.1
385.476
378.754
371.952
365.084
358.167
351.215
344.244
337.267
330.297
323.346
316.427
309.552
302.729
295.97
289.284
282.679
276.163
269.743
263.425
257.215
251.119
245.142
239.286
233.555
227.953
222.482
217.142
211.937
206.865
201.929
197.127
192.46
187.927
183.526
179.256
175.116
171.103
167.216
163.451
159.807
156.28
152.867
149.566
146.373
143.284
140.296
137.406
134.61
131.905
129.285
126.749
124.291
121.908
119.596
117.351
115.169
113.048
110.984
108.976
107.017
105.104
103.233
101.4
99.6015
97.834
96.0942
94.3787
92.6843
91.0078
89.3462
87.6967
86.0563
84.4226
82.7928
81.1647
79.536
77.9047
76.2687
74.6265
72.9764
71.317
69.6474
67.9665
66.2741
64.5713
62.864
61.1474
59.4195
57.6795
55.9273
54.1634
52.3884
50.6033
48.8091
47.007
45.1986
43.3854
41.5689
39.7509
37.9331
36.1173
34.3053
32.4989
30.6995
28.9089
27.1282
25.3582
23.5989
21.8526
20.1185
18.3929
16.6833
14.9856
13.2984
11.6234
9.96547
8.30916
6.65258
5.02355
3.61151
4.24157
62.7559
37.5846
38.9456
44.0464
50.3285
57.1707
64.3382
71.7163
79.2521
86.9104
94.6736
102.526
110.459
118.462
126.528
134.649
142.816
151.02
159.25
167.496
175.746
183.99
192.214
200.407
208.554
216.641
224.656
232.583
240.408
248.116
255.691
263.119
270.385
277.473
284.368
291.057
297.524
303.755
309.737
315.457
320.902
326.061
330.922
335.475
339.711
343.621
347.197
350.434
353.326
355.868
358.057
359.891
361.369
362.491
363.259
363.675
363.742
363.467
362.854
361.911
360.648
359.075
357.206
355.049
352.61
349.897
346.922
343.695
340.23
336.539
332.636
328.535
324.25
319.795
315.185
310.433
305.554
300.563
295.472
290.295
285.047
279.74
274.386
268.999
263.589
258.168
252.748
247.338
241.948
236.587
231.265
225.989
220.768
215.607
210.514
205.495
200.554
195.698
190.929
186.253
181.672
177.19
172.808
168.529
164.355
160.286
156.323
152.467
148.718
145.076
141.54
138.11
134.784
131.561
128.44
125.418
122.495
119.668
116.935
114.294
111.742
109.277
106.896
104.596
102.375
100.23
98.1574
96.1551
94.2199
92.3488
90.5388
88.7868
87.0897
85.4443
83.8492
82.3018
80.7993
79.3385
77.9164
76.5299
75.1761
73.8522
72.5553
71.2828
70.0321
68.8006
67.5858
66.3854
65.1969
64.0182
62.8471
61.6814
60.5193
59.3589
58.1984
57.0361
55.8706
54.7005
53.5246
52.3417
51.151
49.9519
48.7441
47.528
46.3047
45.0733
43.8329
42.5828
41.323
40.0538
38.7755
37.4887
36.1944
34.8935
33.587
32.2761
30.9622
29.6465
28.3306
27.0159
25.7039
24.396
23.0938
21.7987
20.512
19.235
17.9687
16.7146
15.4737
14.2469
13.0366
11.8439
10.6733
9.52964
8.42054
7.35691
6.36771
5.54365
5.28606
9.03378
62.7583
37.5832
38.9434
44.0438
50.3257
57.1678
64.335
71.713
79.2486
86.9067
94.6698
102.522
110.454
118.457
126.524
134.645
142.811
151.015
159.245
167.49
175.741
183.984
192.208
200.4
208.547
216.634
224.649
232.576
240.4
248.108
255.683
263.111
270.376
277.464
284.36
291.048
297.515
303.746
309.728
315.448
320.893
326.051
330.912
335.465
339.701
343.611
347.187
350.424
353.315
355.857
358.046
359.88
361.358
362.481
363.249
363.664
363.732
363.456
362.843
361.901
360.638
359.065
357.196
355.039
352.6
349.887
346.912
343.686
340.221
336.53
332.627
328.526
324.242
319.787
315.176
310.425
305.546
300.555
295.464
290.288
285.04
279.733
274.379
268.992
263.582
258.162
252.741
247.331
241.942
236.581
231.259
225.984
220.762
215.602
210.509
205.49
200.55
195.693
190.925
186.249
181.668
177.186
172.804
168.526
164.351
160.282
156.32
152.464
148.715
145.073
141.537
138.107
134.781
131.558
128.437
125.416
122.493
119.666
116.933
114.292
111.74
109.275
106.894
104.594
102.373
100.228
98.1558
96.1536
94.2184
92.3474
90.5374
88.7855
87.0885
85.4431
83.848
82.3008
80.7982
79.3375
77.9155
76.529
75.1753
73.8514
72.5545
71.2821
70.0314
68.7999
67.5852
66.3848
65.1964
64.0177
62.8466
61.681
60.5189
59.3585
58.198
57.0358
55.8703
54.7002
53.5243
52.3414
51.1508
49.9517
48.7439
47.5278
46.3045
45.0732
43.8327
42.5827
41.3229
40.0537
38.7753
37.4886
36.1943
34.8934
33.5869
32.276
30.9621
29.6465
28.3305
27.0158
25.7038
24.396
23.0938
21.7987
20.512
19.2349
17.9687
16.7146
15.4737
14.2468
13.0365
11.8439
10.6733
9.52961
8.42051
7.35689
6.36769
5.54365
5.28609
9.03379
93.078
49.2862
45.4127
47.5198
51.547
56.4757
61.9251
67.7147
73.7483
79.968
86.3374
92.8309
99.4298
106.12
112.888
119.724
126.616
133.555
140.53
147.529
154.544
161.561
168.571
175.56
182.518
189.432
196.289
203.076
209.78
216.388
222.887
229.263
235.503
241.594
247.522
253.274
258.837
264.2
269.35
274.275
278.964
283.407
287.594
291.515
295.163
298.529
301.608
304.392
306.877
309.059
310.935
312.503
313.762
314.712
315.354
315.689
315.722
315.456
314.896
314.049
312.922
311.524
309.865
307.952
305.792
303.394
300.767
297.921
294.868
291.618
288.184
284.577
280.81
276.896
272.846
268.674
264.391
260.011
255.546
251.006
246.405
241.754
237.063
232.344
227.607
222.862
218.118
213.384
208.67
203.983
199.331
194.721
190.159
185.653
181.207
176.827
172.517
168.282
164.125
160.05
156.06
152.157
148.344
144.621
140.991
137.454
134.011
130.663
127.409
124.249
121.183
118.21
115.329
112.539
109.839
107.227
104.701
102.26
99.9014
97.6236
95.4244
93.3015
91.2526
89.2753
87.3671
85.5256
83.7483
82.0326
80.3759
78.7755
77.2288
75.7332
74.2859
72.8851
71.5288
70.2144
68.9393
67.7009
66.4965
65.3236
64.1796
63.062
61.9685
60.8967
59.8442
58.8089
57.7887
56.7812
55.7846
54.7968
53.816
52.8403
51.868
50.8974
49.9269
48.9552
47.9809
47.0027
46.0196
45.0306
44.035
43.032
42.0215
41.0034
39.9777
38.9444
37.9027
36.8525
35.7936
34.7263
33.6508
32.5678
31.4779
30.382
29.2809
28.1757
27.0675
25.9576
24.8473
23.7378
22.6306
21.5271
20.4288
19.3371
18.2536
17.1798
16.1172
15.0677
14.0332
13.0161
12.0195
11.0472
10.1051
9.20143
8.35054
7.57749
6.93735
6.58362
7.16585
13.9577
93.0807
49.2843
45.41
47.517
51.544
56.4726
61.9219
67.7115
73.7449
79.9645
86.3338
92.8271
99.426
106.116
112.884
119.72
126.612
133.55
140.525
147.524
154.539
161.556
168.565
175.555
182.513
189.426
196.283
203.07
209.774
216.382
222.881
229.257
235.497
241.587
247.515
253.267
258.83
264.193
269.342
274.267
278.956
283.399
287.586
291.508
295.155
298.522
301.6
304.384
306.87
309.052
310.928
312.496
313.755
314.704
315.346
315.682
315.714
315.448
314.889
314.042
312.915
311.517
309.858
307.945
305.785
303.387
300.76
297.915
294.861
291.612
288.177
284.571
280.804
276.89
272.84
268.668
264.386
260.006
255.54
251.001
246.4
241.749
237.059
232.34
227.602
222.857
218.114
213.38
208.666
203.979
199.327
194.717
190.156
185.649
181.203
176.823
172.514
168.279
164.122
160.047
156.057
152.155
148.341
144.619
140.989
137.452
134.009
130.661
127.407
124.247
121.181
118.209
115.328
112.538
109.837
107.225
104.7
102.258
99.9001
97.6224
95.4232
93.3003
91.2515
89.2742
87.3661
85.5247
83.7474
82.0317
80.375
78.7747
77.2281
75.7325
74.2852
72.8845
71.5282
70.2139
68.9388
67.7004
66.4961
65.3232
64.1792
63.0616
61.9681
60.8963
59.8439
58.8087
57.7884
56.781
55.7844
54.7966
53.8158
52.8401
51.8678
50.8972
49.9268
48.9551
47.9808
47.0026
46.0195
45.0306
44.0349
43.032
42.0215
41.0033
39.9777
38.9444
37.9027
36.8525
35.7936
34.7263
33.6508
32.5678
31.478
30.382
29.2809
28.1757
27.0675
25.9576
24.8473
23.7378
22.6306
21.5271
20.4288
19.3372
18.2536
17.1798
16.1172
15.0677
14.0332
13.0161
12.0195
11.0472
10.1051
9.20142
8.35053
7.57748
6.93735
6.58363
7.1659
13.9578
122.649
61.3664
52.9897
52.7615
55.1603
58.7938
63.1362
67.9392
73.068
78.4415
84.0074
89.7295
95.5816
101.543
107.598
113.731
119.93
126.183
132.478
138.805
145.151
151.507
157.86
164.199
170.512
176.788
183.014
189.179
195.27
201.275
207.181
212.976
218.647
224.183
229.57
234.797
239.852
244.724
249.402
253.874
258.131
262.163
265.96
269.515
272.82
275.868
278.652
281.167
283.409
285.373
287.058
288.461
289.581
290.418
290.973
291.248
291.246
290.97
290.425
289.617
288.553
287.238
285.683
283.893
281.877
279.643
277.198
274.553
271.718
268.702
265.518
262.175
258.686
255.061
251.312
247.451
243.489
239.437
235.306
231.109
226.854
222.554
218.217
213.855
209.476
205.091
200.706
196.332
191.976
187.645
183.346
179.087
174.872
170.709
166.602
162.556
158.575
154.663
150.824
147.061
143.377
139.773
136.252
132.816
129.465
126.201
123.023
119.934
116.932
114.017
111.189
108.447
105.791
103.219
100.73
98.3233
95.9965
93.7482
91.5767
89.48
87.4563
85.5034
83.6192
81.8015
80.0481
78.3566
76.7248
75.1501
73.6304
72.163
70.7456
69.3756
68.0512
66.7705
65.5312
64.3308
63.1669
62.0371
60.9391
59.8704
58.8289
57.8121
56.8178
55.844
54.8885
53.9491
53.024
52.1111
51.2086
50.3147
49.4275
48.5453
47.6667
46.79
45.9139
45.037
44.158
43.2758
42.3894
41.498
40.6008
39.6972
38.7869
37.8696
36.9452
36.0135
35.0744
34.1274
33.1728
32.2106
31.2411
30.2648
29.2823
28.2944
27.3018
26.3055
25.3066
24.3061
23.3053
22.3054
21.3077
20.3138
19.3249
18.3427
17.3689
16.4053
15.4538
14.5168
13.5968
12.6974
11.8226
10.9783
10.1724
9.4172
8.73241
8.1542
7.76152
7.77073
9.08014
18.8619
122.651
61.3641
52.9869
52.7584
55.1572
58.7906
63.133
67.9359
73.0646
78.438
84.0039
89.726
95.5779
101.539
107.594
113.727
119.926
126.179
132.474
138.801
145.147
151.502
157.855
164.194
170.507
176.783
183.009
189.174
195.265
201.269
207.175
212.97
218.642
224.177
229.564
234.791
239.847
244.718
249.396
253.868
258.125
262.156
265.954
269.509
272.814
275.862
278.646
281.161
283.403
285.367
287.052
288.455
289.575
290.412
290.967
291.242
291.24
290.964
290.419
289.611
288.547
287.233
285.677
283.888
281.872
279.637
277.193
274.548
271.713
268.697
265.513
262.171
258.681
255.056
251.308
247.447
243.484
239.433
235.302
231.105
226.85
222.55
218.214
213.852
209.473
205.087
200.703
196.329
191.973
187.642
183.343
179.084
174.87
170.707
166.6
162.553
158.573
154.661
150.822
147.059
143.375
139.771
136.251
132.814
129.463
126.199
123.022
119.932
116.93
114.015
111.188
108.446
105.79
103.218
100.729
98.3222
95.9954
93.7472
91.5757
89.4791
87.4554
85.5026
83.6184
81.8008
80.0474
78.356
76.7241
75.1495
73.6298
72.1624
70.745
69.3751
68.0507
66.7701
65.5308
64.3304
63.1665
62.0368
60.9388
59.8702
58.8286
57.8118
56.8176
55.8438
54.8883
53.949
53.0239
52.111
51.2085
50.3146
49.4274
48.5453
47.6666
46.79
45.9139
45.0369
44.1579
43.2758
42.3894
41.498
40.6008
39.6973
38.7869
37.8696
36.9452
36.0136
35.0744
34.1275
33.1728
32.2106
31.2411
30.2648
29.2824
28.2944
27.3018
26.3056
25.3066
24.3062
23.3053
22.3054
21.3078
20.3138
19.3249
18.3428
17.369
16.4053
15.4538
14.5168
13.5968
12.6974
11.8226
10.9783
10.1724
9.4172
8.7324
8.15419
7.76152
7.77075
9.08022
18.862
151.965
73.7511
61.1811
58.9122
59.9802
62.6113
66.1356
70.237
74.7433
79.551
84.5929
89.8224
95.2058
100.717
106.336
112.044
117.827
123.67
129.561
135.488
141.439
147.402
153.365
159.316
165.245
171.14
176.988
182.778
188.498
194.135
199.679
205.117
210.437
215.627
220.676
225.573
230.307
234.866
239.24
243.42
247.395
251.158
254.698
258.01
261.084
263.916
266.499
268.828
270.899
272.708
274.254
275.535
276.549
277.296
277.779
277.998
277.955
277.656
277.103
276.303
275.26
273.983
272.477
270.75
268.809
266.663
264.319
261.786
259.074
256.193
253.152
249.962
246.634
243.178
239.606
235.927
232.153
228.294
224.36
220.363
216.313
212.218
208.09
203.937
199.768
195.593
191.418
187.253
183.105
178.98
174.886
170.829
166.814
162.848
158.935
155.079
151.285
147.556
143.897
140.309
136.796
133.36
130.002
126.724
123.527
120.413
117.381
114.433
111.567
108.785
106.086
103.469
100.933
98.4772
96.1008
93.8024
91.5804
89.4334
87.3596
85.3573
83.4247
81.5597
79.7603
78.0245
76.3502
74.7351
73.177
71.6738
70.223
68.8225
67.4698
66.1628
64.9
63.6792
62.4979
61.354
60.2451
59.169
58.1234
57.1061
56.1149
55.1476
54.2022
53.2766
52.3688
51.4768
50.5987
49.7327
48.8769
48.0297
47.1894
46.3544
45.5231
44.6942
43.8663
43.0382
42.2086
41.3766
40.5412
39.7015
38.857
38.0069
37.1509
36.2888
35.4203
34.5453
33.6636
32.7751
31.8798
30.9779
30.0696
29.1554
28.2358
27.3114
26.3831
25.4516
24.5179
23.5831
22.6482
21.7145
20.7833
19.8559
18.9338
18.0188
17.1125
16.2172
15.335
14.4687
13.6218
12.7984
12.0039
11.2456
10.5339
9.88439
9.32267
8.8956
8.70396
9.02596
11.0084
23.754
151.968
73.7485
61.178
58.909
59.977
62.6081
66.1324
70.2337
74.74
79.5476
84.5894
89.8189
95.2022
100.713
106.332
112.04
117.823
123.666
129.557
135.484
141.435
147.397
153.36
159.312
165.241
171.135
176.983
182.773
188.493
194.13
199.674
205.112
210.432
215.622
220.671
225.568
230.301
234.86
239.235
243.415
247.39
251.152
254.693
258.004
261.079
263.91
266.493
268.822
270.893
272.703
274.249
275.529
276.543
277.291
277.774
277.992
277.95
277.651
277.098
276.298
275.256
273.978
272.472
270.745
268.805
266.659
264.315
261.782
259.07
256.189
253.148
249.958
246.63
243.175
239.602
235.923
232.149
228.29
224.357
220.36
216.31
212.215
208.087
203.934
199.766
195.59
191.416
187.251
183.102
178.978
174.884
170.827
166.812
162.846
158.933
155.077
151.283
147.555
143.895
140.308
136.795
133.358
130
126.722
123.526
120.411
117.38
114.431
111.566
108.784
106.085
103.468
100.932
98.4762
96.0999
93.8015
91.5796
89.4326
87.3589
85.3566
83.424
81.559
79.7597
78.0239
76.3496
74.7345
73.1765
71.6733
70.2225
68.822
67.4694
66.1624
64.8997
63.6788
62.4976
61.3537
60.2448
59.1687
58.1231
57.1058
56.1146
55.1474
54.202
53.2764
52.3686
51.4766
50.5986
49.7325
48.8768
48.0296
47.1893
46.3543
45.5231
44.6942
43.8663
43.0382
42.2086
41.3766
40.5412
39.7015
38.857
38.0069
37.151
36.2888
35.4203
34.5453
33.6637
32.7752
31.8799
30.9779
30.0696
29.1554
28.2358
27.3114
26.3831
25.4516
24.518
23.5831
22.6483
21.7146
20.7833
19.8559
18.9339
18.0188
17.1126
16.2172
15.335
14.4688
13.6218
12.7984
12.0039
11.2456
10.5339
9.88439
9.32266
8.8956
8.70396
9.02598
11.0085
23.7541
181.118
86.4234
69.8292
65.6814
65.5856
67.3814
70.253
73.8161
77.8618
82.2643
86.9419
91.8381
96.9118
102.132
107.473
112.915
118.439
124.031
129.675
135.359
141.068
146.792
152.517
158.232
163.925
169.583
175.196
180.751
186.236
191.64
196.951
202.157
207.248
212.21
217.035
221.71
226.225
230.569
234.734
238.709
242.486
246.056
249.411
252.544
255.449
258.119
260.549
262.735
264.672
266.359
267.792
268.97
269.893
270.561
270.975
271.136
271.048
270.713
270.136
269.322
268.277
267.006
265.516
263.815
261.91
259.807
257.515
255.043
252.4
249.594
246.636
243.535
240.302
236.947
233.479
229.91
226.249
222.506
218.693
214.817
210.89
206.921
202.919
198.892
194.85
190.801
186.753
182.713
178.689
174.687
170.714
166.776
162.879
159.028
155.227
151.481
147.795
144.171
140.613
137.124
133.707
130.363
127.095
123.904
120.792
117.758
114.804
111.931
109.138
106.425
103.792
101.238
98.7631
96.3659
94.0454
91.8004
89.6295
87.5313
85.5041
83.5463
81.6562
79.8317
78.071
76.3722
74.7331
73.1517
71.6258
70.1533
68.732
67.3596
66.034
64.7535
63.5161
62.3197
61.1619
60.0406
58.9536
57.8986
56.8735
55.8762
54.9046
53.9565
53.03
52.1231
51.2339
50.3604
49.5008
48.6534
47.8164
46.9881
46.1671
45.3517
44.5406
43.7324
42.9257
42.1195
41.3126
40.504
39.6929
38.8785
38.0601
37.2372
36.4093
35.5763
34.7378
33.8938
33.0441
32.1886
31.3274
30.4606
29.5885
28.7114
27.8299
26.9445
26.0558
25.1648
24.2722
23.3789
22.4861
21.5948
20.7064
19.8221
18.9436
18.0726
17.2109
16.3609
15.5252
14.707
13.9103
13.1401
12.4029
11.7074
11.0663
10.4987
10.0356
9.73467
9.71921
10.3282
12.9556
28.6638
181.121
86.4204
69.8259
65.6781
65.5824
67.3782
70.2497
73.8128
77.8585
82.2609
86.9384
91.8346
96.9083
102.128
107.469
112.911
118.436
124.027
129.671
135.355
141.064
146.788
152.513
158.228
163.921
169.579
175.192
180.746
186.232
191.636
196.946
202.153
207.243
212.206
217.03
221.705
226.22
230.564
234.729
238.704
242.481
246.051
249.406
252.539
255.444
258.114
260.544
262.73
264.668
266.354
267.787
268.966
269.889
270.556
270.97
271.132
271.043
270.709
270.132
269.318
268.273
267.002
265.512
263.811
261.906
259.803
257.511
255.039
252.396
249.59
246.632
243.532
240.299
236.943
233.476
229.907
226.246
222.503
218.69
214.815
210.888
206.918
202.916
198.89
194.848
190.799
186.751
182.711
178.687
174.685
170.712
166.774
162.877
159.026
155.225
151.479
147.793
144.169
140.612
137.123
133.706
130.362
127.094
123.903
120.79
117.757
114.803
111.93
109.137
106.424
103.791
101.237
98.7622
96.3651
94.0446
91.7996
89.6288
87.5306
85.5034
83.5457
81.6555
79.8311
78.0705
76.3716
74.7326
73.1512
71.6253
70.1529
68.7315
67.3592
66.0336
64.7531
63.5158
62.3193
61.1616
60.0403
58.9533
57.8983
56.8733
55.876
54.9044
53.9563
53.0298
52.123
51.2337
50.3602
49.5007
48.6532
47.8163
46.988
46.167
45.3517
44.5406
43.7323
42.9257
42.1195
41.3126
40.504
39.6929
38.8785
38.0601
37.2372
36.4094
35.5763
34.7378
33.8938
33.0441
32.1887
31.3274
30.4606
29.5885
28.7114
27.8299
26.9445
26.0559
25.1648
24.2722
23.379
22.4861
21.5949
20.7064
19.8222
18.9437
18.0726
17.2109
16.3609
15.5252
14.707
13.9104
13.1401
12.4029
11.7074
11.0663
10.4986
10.0356
9.73467
9.71921
10.3282
12.9557
28.6639
210.298
99.4193
78.8849
72.9575
71.8019
72.8685
75.1938
78.3244
82.0146
86.1163
90.5335
95.2
100.067
105.099
110.266
115.544
120.913
126.354
131.853
137.394
142.963
148.546
154.131
159.706
165.257
170.773
176.241
181.65
186.988
192.243
197.403
202.457
207.394
212.203
216.873
221.393
225.754
229.945
233.957
237.782
241.41
244.834
248.046
251.041
253.811
256.351
258.657
260.724
262.548
264.129
265.462
266.549
267.387
267.978
268.322
268.422
268.281
267.901
267.287
266.444
265.377
264.092
262.596
260.895
258.996
256.907
254.635
252.19
249.578
246.811
243.896
240.843
237.662
234.363
230.955
227.448
223.853
220.179
216.435
212.631
208.777
204.881
200.953
197.001
193.033
189.058
185.083
181.116
177.163
173.231
169.327
165.456
161.624
157.836
154.097
150.41
146.781
143.212
139.707
136.269
132.9
129.602
126.377
123.228
120.154
117.157
114.238
111.397
108.634
105.949
103.343
100.814
98.3612
95.9849
93.6835
91.4561
89.3012
87.2175
85.2034
83.2575
81.3778
79.5627
77.8103
76.1187
74.4859
72.9098
71.3884
69.9196
68.5012
67.1311
65.8074
64.5285
63.2923
62.0964
60.9387
59.8172
58.7295
57.6736
56.6474
55.6489
54.6758
53.7263
52.7984
51.8901
50.9996
50.1249
49.2645
48.4164
47.5792
46.7511
45.9307
45.1164
44.307
43.5012
42.6976
41.8953
41.0932
40.2903
39.4858
38.679
37.8693
37.0562
36.2393
35.4183
34.5929
33.7633
32.929
32.0902
31.2469
30.3991
29.5472
28.6914
27.8323
26.9703
26.106
25.2401
24.3733
23.5067
22.641
21.7774
20.9172
20.0615
19.2122
18.3708
17.5395
16.7207
15.9174
15.1332
14.3726
13.6413
12.9469
12.2997
11.7144
11.2134
10.8336
10.6431
10.7886
11.6707
14.9375
33.6254
210.301
99.416
78.8814
72.9541
71.7986
72.8652
75.1904
78.3211
82.0112
86.1129
90.5301
95.1965
100.064
105.095
110.262
115.54
120.909
126.351
131.849
137.39
142.959
148.542
154.127
159.702
165.253
170.769
176.237
181.646
186.984
192.238
197.399
202.453
207.39
212.199
216.868
221.389
225.749
229.94
233.952
237.777
241.405
244.829
248.042
251.036
253.806
256.346
258.652
260.719
262.544
264.124
265.458
266.544
267.383
267.973
268.318
268.418
268.277
267.897
267.283
266.44
265.373
264.088
262.592
260.891
258.992
256.903
254.632
252.186
249.575
246.807
243.893
240.84
237.659
234.36
230.952
227.446
223.85
220.176
216.432
212.629
208.775
204.879
200.951
196.999
193.031
189.056
185.081
181.114
177.161
173.23
169.325
165.455
161.623
157.835
154.095
150.409
146.78
143.211
139.706
136.268
132.899
129.601
126.376
123.226
120.153
117.156
114.237
111.396
108.633
105.948
103.342
100.813
98.3604
95.9841
93.6828
91.4553
89.3005
87.2168
85.2028
83.2568
81.3772
79.5622
77.8098
76.1182
74.4854
72.9093
71.3879
69.9191
68.5008
67.1307
65.807
64.5282
63.2919
62.096
60.9384
59.8168
58.7292
57.6734
56.6472
55.6486
54.6756
53.7261
52.7982
51.8899
50.9994
50.1248
49.2643
48.4163
47.5791
46.751
45.9306
45.1164
44.307
43.5011
42.6976
41.8953
41.0931
40.2902
39.4857
38.679
37.8693
37.0562
36.2393
35.4182
34.5929
33.7633
32.929
32.0902
31.2469
30.3991
29.5472
28.6915
27.8323
26.9703
26.106
25.2401
24.3733
23.5067
22.641
21.7774
20.9172
20.0616
19.2122
18.3708
17.5395
16.7207
15.9174
15.1332
14.3726
13.6413
12.9469
12.2997
11.7144
11.2134
10.8335
10.6431
10.7886
11.6708
14.9376
33.6255
239.735
112.809
88.3586
80.7055
78.5562
78.965
80.8175
83.5902
86.9993
90.8747
95.1058
99.6164
104.351
109.268
114.334
119.522
124.808
130.172
135.597
141.067
146.565
152.079
157.593
163.094
168.571
174.009
179.397
184.722
189.973
195.137
200.203
205.16
209.997
214.702
219.265
223.676
227.925
232.003
235.901
239.61
243.123
246.432
249.529
252.41
255.068
257.498
259.696
261.658
263.382
264.866
266.107
267.105
267.861
268.374
268.647
268.681
268.479
268.046
267.383
266.498
265.395
264.079
262.558
260.838
258.925
256.828
254.553
252.108
249.503
246.746
243.846
240.811
237.652
234.378
230.998
227.521
223.958
220.318
216.609
212.842
209.025
205.168
201.278
197.364
193.434
189.496
185.558
181.627
177.709
173.811
169.939
166.099
162.296
158.536
154.822
151.16
147.553
144.005
140.518
137.096
133.742
130.457
127.244
124.103
121.037
118.046
115.13
112.292
109.53
106.845
104.236
101.703
99.246
96.8637
94.5552
92.3195
90.1554
88.0615
86.0364
84.0785
82.1862
80.3577
78.5914
76.8852
75.2372
73.6456
72.1082
70.6231
69.1881
67.8011
66.4607
65.1649
63.9114
62.6983
61.5233
60.3842
59.2791
58.2057
57.1621
56.1462
55.156
54.1894
53.2447
52.3198
51.413
50.5225
49.6465
48.7834
47.9316
47.0895
46.2556
45.4287
44.6072
43.7901
42.9762
42.1644
41.3538
40.5434
39.7326
38.9206
38.1069
37.291
36.4725
35.6513
34.827
33.9997
33.1692
32.3354
31.4984
30.6583
29.8154
28.9699
28.1222
27.2728
26.4221
25.5708
24.7195
23.8691
23.0204
22.1744
21.3324
20.4956
19.6655
18.8441
18.0335
17.2364
16.4559
15.696
14.9619
14.2598
13.5985
12.9895
12.4498
12.005
11.6977
11.607
11.9028
13.0495
16.9451
38.5938
239.738
112.805
88.3549
80.702
78.5528
78.9616
80.8141
83.5868
86.9959
90.8712
95.1023
99.6129
104.348
109.265
114.33
119.518
124.804
130.168
135.593
141.063
146.561
152.075
157.589
163.09
168.567
174.005
179.393
184.718
189.969
195.133
200.199
205.156
209.992
214.697
219.26
223.672
227.921
231.999
235.897
239.606
243.119
246.427
249.525
252.405
255.063
257.493
259.691
261.654
263.378
264.862
266.103
267.101
267.857
268.37
268.643
268.677
268.476
268.042
267.38
266.494
265.391
264.076
262.555
260.835
258.922
256.824
254.55
252.105
249.5
246.743
243.843
240.808
237.649
234.375
230.995
227.519
223.956
220.315
216.607
212.84
209.023
205.165
201.276
197.362
193.432
189.494
185.556
181.625
177.707
173.809
169.937
166.097
162.295
158.534
154.821
151.159
147.552
144.003
140.517
137.095
133.741
130.456
127.242
124.102
121.036
118.045
115.129
112.291
109.529
106.844
104.235
101.702
99.2453
96.8629
94.5545
92.3188
90.1547
88.0608
86.0357
84.0778
82.1856
80.3572
78.5908
76.8846
75.2367
73.6451
72.1078
70.6226
69.1876
67.8007
66.4603
65.1645
63.9111
62.6979
61.5229
60.3839
59.2788
58.2054
57.1618
56.1459
55.1557
54.1892
53.2445
52.3196
51.4128
50.5223
49.6463
48.7832
47.9314
47.0893
46.2555
45.4285
44.6071
43.79
42.9761
42.1643
41.3537
40.5434
39.7325
38.9205
38.1068
37.2909
36.4725
35.6512
34.827
33.9997
33.1691
32.3354
31.4984
30.6583
29.8154
28.9699
28.1222
27.2728
26.4221
25.5708
24.7195
23.8691
23.0204
22.1744
21.3324
20.4956
19.6655
18.8441
18.0335
17.2364
16.4559
15.696
14.9619
14.2598
13.5985
12.9895
12.4497
12.0049
11.6977
11.607
11.9028
13.0496
16.9453
38.5939
269.618
126.638
98.2768
88.9255
85.8246
85.6252
87.0584
89.5284
92.7128
96.4185
100.52
104.932
109.591
114.45
119.472
124.625
129.884
135.227
140.634
146.087
151.569
157.065
162.561
168.041
173.493
178.903
184.258
189.546
194.754
199.872
204.886
209.785
214.56
219.198
223.689
228.024
232.193
236.187
239.998
243.617
247.037
250.251
253.252
256.036
258.596
260.929
263.03
264.897
266.527
267.918
269.07
269.982
270.654
271.088
271.285
271.247
270.978
270.482
269.761
268.823
267.67
266.311
264.75
262.994
261.051
258.927
256.629
254.167
251.547
248.779
245.871
242.832
239.671
236.398
233.021
229.55
225.994
222.361
218.662
214.906
211.099
207.253
203.374
199.471
195.552
191.625
187.696
183.774
179.863
175.972
172.105
168.269
164.469
160.709
156.995
153.33
149.719
146.166
142.672
139.241
135.877
132.58
129.353
126.197
123.114
120.105
117.171
114.311
111.528
108.82
106.187