/*--------------------------------*- C++ -*----------------------------------*\
  =========                 |
  \\      /  F ield         | OpenFOAM: The Open Source CFD Toolbox
   \\    /   O peration     | Website:  https://openfoam.org
    \\  /    A nd           | Version:  8
     \\/     M anipulation  |
\*---------------------------------------------------------------------------*/
FoamFile
{
    version     2.0;
    format      ascii;
    class       volScalarField;
    location    "2700";
    object      k;
}
// * * * * * * * * * * * * * * * * * * * * * * * * * * * * * * * * * * * * * //

dimensions      [0 2 -2 0 0 0 0];

internalField   nonuniform List<scalar> 
46000
(
0.00537676
0.0244805
0.0481501
0.0706499
0.0920298
0.112784
0.133077
0.152987
0.172627
0.192054
0.211387
0.230535
0.249547
0.268452
0.287258
0.305964
0.324564
0.343051
0.361412
0.379635
0.397703
0.415601
0.433309
0.450809
0.468079
0.485099
0.501847
0.518301
0.534437
0.550235
0.565669
0.580719
0.595361
0.609572
0.623332
0.636618
0.64941
0.661688
0.673433
0.684627
0.695252
0.705293
0.714735
0.723564
0.731769
0.739338
0.746263
0.752537
0.758153
0.763107
0.767396
0.77102
0.773978
0.776275
0.777912
0.778897
0.779237
0.77894
0.778016
0.776479
0.774345
0.771634
0.768387
0.764614
0.760309
0.755486
0.750164
0.744363
0.738105
0.731412
0.724307
0.716813
0.708955
0.700755
0.692238
0.683429
0.674352
0.66503
0.655488
0.645749
0.635837
0.625775
0.615585
0.605289
0.594909
0.584466
0.573979
0.563468
0.552952
0.542448
0.531974
0.521545
0.511177
0.500884
0.490681
0.480578
0.470589
0.460725
0.450994
0.441407
0.431972
0.422695
0.413585
0.404646
0.395884
0.387303
0.378906
0.370697
0.362677
0.354848
0.347211
0.339767
0.332515
0.325454
0.318583
0.3119
0.305403
0.29909
0.292957
0.287001
0.281218
0.275605
0.270157
0.26487
0.259738
0.254757
0.249922
0.245227
0.240667
0.236236
0.231929
0.227739
0.223661
0.219689
0.215818
0.212041
0.208348
0.204746
0.201222
0.197769
0.194381
0.191052
0.187775
0.184546
0.181359
0.178207
0.175086
0.17199
0.168914
0.165854
0.162805
0.159762
0.156721
0.153678
0.150629
0.147572
0.144502
0.141416
0.138313
0.13519
0.132045
0.128876
0.125682
0.122463
0.119236
0.115993
0.112726
0.109435
0.106119
0.102781
0.0994203
0.0960402
0.0926421
0.0892285
0.0858017
0.0823644
0.0789194
0.0754695
0.0720178
0.068567
0.0651203
0.0616802
0.0582494
0.0548303
0.0514246
0.0480331
0.044648
0.0412838
0.0379367
0.0345966
0.0312652
0.0279314
0.0245828
0.0212108
0.0178283
0.0143709
0.0107873
0.0070461
0.00330577
0.00066508
0.00537716
0.0244819
0.048152
0.070652
0.092032
0.112786
0.133079
0.152989
0.172629
0.192056
0.211389
0.230537
0.249549
0.268454
0.28726
0.305966
0.324566
0.343052
0.361414
0.379636
0.397705
0.415602
0.433311
0.45081
0.46808
0.4851
0.501848
0.518302
0.534438
0.550235
0.56567
0.58072
0.595361
0.609573
0.623332
0.636619
0.649411
0.661689
0.673434
0.684627
0.695252
0.705293
0.714735
0.723564
0.731769
0.739338
0.746263
0.752537
0.758153
0.763106
0.767396
0.771019
0.773978
0.776274
0.777912
0.778897
0.779236
0.778939
0.778016
0.776479
0.774344
0.771634
0.768386
0.764613
0.760308
0.755485
0.750163
0.744362
0.738104
0.731411
0.724306
0.716812
0.708954
0.700754
0.692238
0.683429
0.674351
0.665029
0.655487
0.645748
0.635836
0.625774
0.615584
0.605288
0.594909
0.584465
0.573978
0.563468
0.552951
0.542447
0.531973
0.521544
0.511176
0.500884
0.49068
0.480578
0.470589
0.460724
0.450993
0.441406
0.431971
0.422695
0.413584
0.404645
0.395883
0.387302
0.378905
0.370696
0.362676
0.354847
0.347211
0.339766
0.332514
0.325453
0.318582
0.311899
0.305402
0.299089
0.292956
0.287
0.281218
0.275605
0.270157
0.264869
0.259737
0.254756
0.249921
0.245226
0.240666
0.236235
0.231928
0.227738
0.22366
0.219688
0.215817
0.212041
0.208348
0.204745
0.201221
0.197768
0.19438
0.191051
0.187775
0.184546
0.181358
0.178206
0.175085
0.171989
0.168914
0.165854
0.162804
0.159761
0.15672
0.153678
0.150629
0.147571
0.144501
0.141416
0.138313
0.13519
0.132045
0.128876
0.125682
0.122462
0.119236
0.115993
0.112726
0.109434
0.106119
0.10278
0.0994199
0.0960398
0.0926418
0.0892282
0.0858014
0.0823641
0.0789191
0.0754692
0.0720175
0.0685668
0.06512
0.06168
0.0582493
0.0548301
0.0514245
0.048033
0.0446478
0.0412837
0.0379366
0.0345965
0.0312651
0.0279314
0.0245828
0.0212108
0.0178284
0.0143709
0.0107873
0.00704613
0.00330579
0.000665087
0.024252
0.0954569
0.147536
0.190791
0.229449
0.265127
0.298658
0.330625
0.361406
0.391185
0.420164
0.448461
0.476167
0.503351
0.53006
0.556328
0.582178
0.607625
0.632677
0.657336
0.681601
0.705467
0.728924
0.751963
0.774569
0.796729
0.818425
0.839641
0.860358
0.880557
0.900218
0.919321
0.937847
0.955774
0.973083
0.989754
1.00577
1.02111
1.03575
1.04969
1.06289
1.07536
1.08707
1.09801
1.10817
1.11754
1.12611
1.13388
1.14083
1.14698
1.15231
1.15682
1.16052
1.16341
1.16549
1.16678
1.16727
1.16699
1.16594
1.16414
1.1616
1.15834
1.15439
1.14977
1.14448
1.13855
1.132
1.12485
1.11712
1.10885
1.10005
1.09076
1.081
1.0708
1.06018
1.04918
1.03782
1.02613
1.01414
1.00187
0.989361
0.976628
0.963702
0.950609
0.937375
0.924025
0.910583
0.897073
0.883518
0.869939
0.856359
0.842798
0.829274
0.815807
0.802415
0.789113
0.775918
0.762845
0.749907
0.737116
0.724486
0.712027
0.699749
0.68766
0.675769
0.664083
0.652609
0.641352
0.630316
0.619505
0.608923
0.598571
0.588451
0.578564
0.56891
0.559487
0.550296
0.541334
0.532599
0.524087
0.515796
0.507721
0.499858
0.492203
0.484749
0.477491
0.470424
0.463541
0.456835
0.450299
0.443926
0.437709
0.43164
0.425712
0.419914
0.414246
0.408698
0.403263
0.397929
0.392688
0.387532
0.38245
0.377435
0.372478
0.367571
0.362705
0.357871
0.353062
0.34827
0.343486
0.338703
0.333913
0.32911
0.324286
0.319435
0.314549
0.309624
0.304653
0.299631
0.294552
0.289413
0.284209
0.278935
0.273589
0.268168
0.262676
0.257108
0.251461
0.245732
0.239922
0.23403
0.228056
0.222
0.215864
0.209649
0.203355
0.196985
0.190539
0.184019
0.177426
0.17076
0.164023
0.157212
0.150328
0.143366
0.136321
0.129186
0.121951
0.114598
0.107093
0.0994355
0.0915732
0.0834471
0.074966
0.0660052
0.0564291
0.0459435
0.0340493
0.0197069
0.00322254
0.0242533
0.0954593
0.147538
0.190792
0.22945
0.265128
0.298658
0.330625
0.361406
0.391184
0.420163
0.44846
0.476167
0.50335
0.530059
0.556327
0.582177
0.607623
0.632675
0.657334
0.681599
0.705465
0.728922
0.75196
0.774567
0.796726
0.818423
0.839639
0.860355
0.880554
0.900215
0.919318
0.937843
0.95577
0.973079
0.989751
1.00576
1.0211
1.03575
1.04968
1.06289
1.07535
1.08706
1.098
1.10816
1.11753
1.12611
1.13387
1.14083
1.14697
1.1523
1.15681
1.16051
1.1634
1.16548
1.16677
1.16727
1.16698
1.16593
1.16413
1.16159
1.15834
1.15439
1.14976
1.14447
1.13854
1.13199
1.12484
1.11712
1.10884
1.10005
1.09076
1.081
1.07079
1.06018
1.04918
1.03782
1.02613
1.01413
1.00187
0.989356
0.976623
0.963697
0.950604
0.93737
0.92402
0.910578
0.897068
0.883513
0.869935
0.856355
0.842793
0.82927
0.815803
0.80241
0.789109
0.775914
0.76284
0.749902
0.737112
0.724482
0.712023
0.699744
0.687656
0.675765
0.664079
0.652605
0.641348
0.630312
0.619502
0.608919
0.598568
0.588448
0.57856
0.568906
0.559484
0.550293
0.541331
0.532595
0.524084
0.515793
0.507718
0.499855
0.4922
0.484746
0.477489
0.470421
0.463538
0.456832
0.450296
0.443923
0.437707
0.431638
0.425709
0.419912
0.414243
0.408696
0.40326
0.397927
0.392686
0.387529
0.382448
0.377433
0.372476
0.367569
0.362703
0.357869
0.35306
0.348268
0.343484
0.338701
0.333912
0.329109
0.324285
0.319433
0.314548
0.309622
0.304651
0.299629
0.294551
0.289412
0.284207
0.278934
0.273588
0.268167
0.262675
0.257107
0.25146
0.245731
0.239921
0.234029
0.228055
0.221999
0.215863
0.209648
0.203354
0.196984
0.190538
0.184018
0.177425
0.17076
0.164022
0.157212
0.150327
0.143365
0.136321
0.129186
0.121951
0.114597
0.107093
0.0994352
0.0915729
0.0834469
0.0749658
0.066005
0.0564289
0.0459434
0.0340492
0.0197069
0.00322254
0.0482878
0.14869
0.213469
0.265626
0.31203
0.354858
0.395189
0.433628
0.470594
0.506354
0.541109
0.575001
0.608138
0.640596
0.672435
0.703698
0.734413
0.764602
0.794275
0.82344
0.852096
0.88024
0.907865
0.934959
0.961511
0.987504
1.01292
1.03775
1.06196
1.08554
1.10847
1.13073
1.15228
1.17313
1.19323
1.21257
1.23114
1.2489
1.26585
1.28196
1.29722
1.3116
1.32511
1.33771
1.34941
1.36019
1.37004
1.37896
1.38694
1.39397
1.40007
1.40521
1.40942
1.4127
1.41504
1.41646
1.41697
1.41658
1.4153
1.41316
1.41016
1.40634
1.4017
1.39628
1.39009
1.38315
1.3755
1.36715
1.35813
1.34847
1.3382
1.32736
1.31596
1.30405
1.29165
1.2788
1.26552
1.25185
1.23782
1.22347
1.20881
1.1939
1.17874
1.16339
1.14785
1.13218
1.11638
1.10049
1.08454
1.06855
1.05255
1.03655
1.02059
1.00469
0.98886
0.973128
0.957509
0.942023
0.926685
0.911512
0.896517
0.881714
0.867115
0.85273
0.838571
0.824646
0.810963
0.79753
0.784351
0.771432
0.758778
0.746391
0.734273
0.722427
0.710852
0.699549
0.688516
0.677752
0.667255
0.657021
0.647047
0.637328
0.62786
0.618637
0.609653
0.600902
0.592377
0.58407
0.575975
0.568082
0.560383
0.55287
0.545533
0.538363
0.531356
0.524503
0.517793
0.511215
0.504759
0.498414
0.492169
0.486014
0.479939
0.473932
0.467985
0.462086
0.456226
0.450394
0.44458
0.438776
0.432971
0.427156
0.421322
0.415461
0.409565
0.403624
0.397632
0.391582
0.385466
0.379278
0.373013
0.366665
0.360228
0.3537
0.347076
0.340355
0.333535
0.326611
0.31958
0.312443
0.305196
0.29784
0.290375
0.2828
0.275117
0.267325
0.259426
0.251421
0.24331
0.235093
0.22677
0.218341
0.209804
0.201155
0.192391
0.183504
0.174483
0.165316
0.155983
0.146455
0.136702
0.126669
0.116299
0.105495
0.0941078
0.0819449
0.0686517
0.0534689
0.034193
0.00689729
0.0482897
0.148692
0.213469
0.265626
0.31203
0.354857
0.395187
0.433627
0.470592
0.506352
0.541107
0.574999
0.608135
0.640593
0.672433
0.703695
0.73441
0.764598
0.794272
0.823436
0.852092
0.880236
0.90786
0.934955
0.961506
0.987499
1.01292
1.03774
1.06196
1.08554
1.10847
1.13072
1.15228
1.17312
1.19322
1.21257
1.23113
1.2489
1.26584
1.28195
1.29721
1.3116
1.3251
1.33771
1.3494
1.36018
1.37003
1.37895
1.38693
1.39397
1.40006
1.40521
1.40942
1.41269
1.41503
1.41645
1.41696
1.41657
1.4153
1.41315
1.41016
1.40633
1.40169
1.39627
1.39008
1.38315
1.37549
1.36714
1.35812
1.34846
1.3382
1.32735
1.31596
1.30404
1.29164
1.27879
1.26551
1.25184
1.23782
1.22346
1.20881
1.19389
1.17874
1.16338
1.14785
1.13217
1.11637
1.10049
1.08453
1.06854
1.05254
1.03655
1.02059
1.00468
0.988854
0.973122
0.957503
0.942017
0.92668
0.911506
0.896511
0.881708
0.867109
0.852725
0.838566
0.824641
0.810958
0.797525
0.784346
0.771427
0.758773
0.746386
0.734269
0.722422
0.710848
0.699544
0.688512
0.677748
0.667251
0.657017
0.647043
0.637324
0.627856
0.618633
0.60965
0.600899
0.592373
0.584067
0.575971
0.568078
0.56038
0.552867
0.54553
0.53836
0.531353
0.5245
0.51779
0.511212
0.504756
0.498411
0.492166
0.486012
0.479936
0.47393
0.467983
0.462084
0.456223
0.450391
0.444578
0.438774
0.432969
0.427154
0.42132
0.415459
0.409563
0.403622
0.397631
0.39158
0.385465
0.379277
0.373012
0.366663
0.360227
0.353698
0.347074
0.340354
0.333534
0.32661
0.319579
0.312442
0.305195
0.297839
0.290374
0.282799
0.275116
0.267324
0.259426
0.25142
0.243309
0.235092
0.226769
0.21834
0.209803
0.201155
0.19239
0.183503
0.174483
0.165316
0.155982
0.146455
0.136702
0.126669
0.116299
0.105494
0.0941077
0.0819448
0.0686516
0.0534689
0.034193
0.0068973
0.0718377
0.194024
0.267982
0.326137
0.377506
0.424932
0.469695
0.512474
0.553693
0.593633
0.632492
0.670415
0.707508
0.74385
0.7795
0.814502
0.848884
0.882667
0.915863
0.948477
0.98051
1.01195
1.0428
1.07305
1.10267
1.13165
1.15997
1.18762
1.21457
1.24081
1.2663
1.29102
1.31496
1.33808
1.36037
1.38181
1.40236
1.42202
1.44076
1.45856
1.47541
1.49128
1.50617
1.52005
1.53292
1.54477
1.55558
1.56536
1.57409
1.58177
1.58841
1.594
1.59855
1.60206
1.60454
1.606
1.60645
1.60591
1.60439
1.6019
1.59847
1.59412
1.58888
1.58276
1.57578
1.56799
1.55939
1.55003
1.53992
1.52911
1.51762
1.50549
1.49274
1.47942
1.46556
1.45119
1.43634
1.42106
1.40538
1.38933
1.37295
1.35626
1.33932
1.32214
1.30476
1.28721
1.26953
1.25174
1.23387
1.21596
1.19803
1.1801
1.16221
1.14437
1.12661
1.10896
1.09143
1.07404
1.05681
1.03976
1.02291
1.00627
0.989847
0.973665
0.957732
0.942058
0.926652
0.911521
0.896674
0.882116
0.867851
0.853884
0.840217
0.826853
0.813792
0.801034
0.788579
0.776425
0.764569
0.753008
0.741738
0.730755
0.720053
0.709627
0.699469
0.689573
0.679931
0.670535
0.661376
0.652446
0.643735
0.635233
0.62693
0.618819
0.610893
0.603139
0.595545
0.588101
0.580794
0.573613
0.566545
0.55958
0.552704
0.545907
0.539177
0.532502
0.525872
0.519273
0.512696
0.50613
0.499564
0.492987
0.486389
0.479761
0.473093
0.466376
0.459601
0.452761
0.445847
0.438852
0.43177
0.424594
0.41732
0.409942
0.402456
0.39486
0.387149
0.379321
0.371372
0.363299
0.355102
0.34678
0.338331
0.329755
0.321053
0.312224
0.30327
0.294189
0.284983
0.275651
0.266193
0.256607
0.246891
0.237041
0.227052
0.216916
0.206624
0.19616
0.185505
0.174634
0.163511
0.152087
0.140296
0.128036
0.115164
0.101442
0.0864508
0.0691841
0.0465003
0.0106902
0.0718398
0.194025
0.267981
0.326136
0.377505
0.424931
0.469693
0.512472
0.553691
0.59363
0.632489
0.670412
0.707505
0.743847
0.779497
0.814498
0.84888
0.882663
0.915859
0.948473
0.980505
1.01195
1.0428
1.07304
1.10266
1.13164
1.15997
1.18762
1.21457
1.2408
1.26629
1.29101
1.31495
1.33807
1.36037
1.3818
1.40236
1.42202
1.44076
1.45856
1.4754
1.49128
1.50616
1.52004
1.53292
1.54476
1.55558
1.56535
1.57408
1.58177
1.5884
1.59399
1.59854
1.60205
1.60453
1.60599
1.60645
1.6059
1.60438
1.60189
1.59846
1.59411
1.58887
1.58275
1.57578
1.56798
1.55939
1.55002
1.53992
1.5291
1.51761
1.50548
1.49273
1.47941
1.46555
1.45118
1.43634
1.42106
1.40537
1.38932
1.37294
1.35626
1.33931
1.32213
1.30475
1.2872
1.26952
1.25173
1.23387
1.21595
1.19802
1.1801
1.1622
1.14436
1.12661
1.10895
1.09142
1.07403
1.0568
1.03976
1.0229
1.00626
0.989842
0.97366
0.957727
0.942053
0.926647
0.911517
0.896669
0.882111
0.867847
0.85388
0.840213
0.826849
0.813788
0.80103
0.788575
0.776421
0.764565
0.753004
0.741735
0.730751
0.72005
0.709623
0.699466
0.68957
0.679928
0.670532
0.661373
0.652443
0.643732
0.63523
0.626927
0.618817
0.61089
0.603136
0.595543
0.588099
0.580792
0.573611
0.566543
0.559578
0.552702
0.545905
0.539175
0.5325
0.52587
0.519271
0.512695
0.506128
0.499562
0.492985
0.486388
0.47976
0.473092
0.466375
0.4596
0.45276
0.445846
0.438851
0.431769
0.424593
0.417319
0.409941
0.402455
0.394859
0.387148
0.37932
0.371371
0.363298
0.355101
0.346779
0.33833
0.329754
0.321052
0.312223
0.303269
0.294188
0.284982
0.275651
0.266192
0.256606
0.24689
0.23704
0.227051
0.216916
0.206623
0.196159
0.185505
0.174634
0.163511
0.152087
0.140295
0.128036
0.115164
0.101442
0.0864509
0.0691842
0.0465004
0.0106902
0.0948457
0.23536
0.317456
0.380757
0.436173
0.487241
0.535471
0.581638
0.626197
0.669442
0.711573
0.752734
0.793027
0.832528
0.871295
0.909365
0.946768
0.983521
1.01963
1.05511
1.08995
1.12413
1.15767
1.19053
1.2227
1.25417
1.28491
1.3149
1.34412
1.37254
1.40015
1.42691
1.4528
1.4778
1.50189
1.52503
1.54721
1.5684
1.58859
1.60775
1.62586
1.64292
1.6589
1.67378
1.68757
1.70024
1.71178
1.72221
1.73149
1.73965
1.74667
1.75256
1.75732
1.76096
1.76348
1.76491
1.76524
1.76451
1.76271
1.75988
1.75603
1.75118
1.74537
1.73862
1.73094
1.72238
1.71295
1.7027
1.69165
1.67983
1.66728
1.65404
1.64013
1.62561
1.61049
1.59483
1.57866
1.56201
1.54493
1.52744
1.5096
1.49143
1.47296
1.45425
1.43532
1.4162
1.39693
1.37755
1.35808
1.33856
1.31901
1.29946
1.27995
1.26049
1.24112
1.22186
1.20272
1.18374
1.16493
1.14631
1.1279
1.10972
1.09178
1.07409
1.05668
1.03954
1.02269
1.00613
0.989887
0.973953
0.958338
0.943045
0.928077
0.913438
0.899127
0.885146
0.871494
0.858169
0.845168
0.832488
0.820126
0.808075
0.796331
0.784887
0.773737
0.762871
0.752283
0.741963
0.731903
0.722092
0.71252
0.703177
0.694054
0.685143
0.676432
0.667909
0.659562
0.651378
0.643344
0.635448
0.627676
0.620017
0.612457
0.604983
0.597583
0.590245
0.582956
0.575703
0.568474
0.561259
0.554044
0.546819
0.539573
0.532295
0.524975
0.517603
0.510171
0.502668
0.495087
0.48742
0.479659
0.471799
0.463834
0.455758
0.447566
0.439256
0.430822
0.422262
0.413572
0.404749
0.395791
0.386697
0.377465
0.368096
0.358588
0.348941
0.339155
0.32923
0.319165
0.308959
0.298612
0.288121
0.277484
0.266697
0.255754
0.244648
0.233368
0.221901
0.210228
0.198324
0.186155
0.173674
0.160813
0.14747
0.133486
0.118586
0.10225
0.083242
0.0576143
0.0144765
0.0948479
0.235361
0.317456
0.380755
0.436171
0.487239
0.535469
0.581635
0.626194
0.669439
0.71157
0.75273
0.793023
0.832525
0.871291
0.909362
0.946765
0.983517
1.01963
1.05511
1.08994
1.12413
1.15766
1.19052
1.2227
1.25416
1.2849
1.31489
1.34411
1.37254
1.40014
1.42691
1.4528
1.4778
1.50188
1.52502
1.5472
1.5684
1.58858
1.60774
1.62586
1.64291
1.65889
1.67378
1.68756
1.70023
1.71178
1.7222
1.73149
1.73964
1.74666
1.75255
1.75731
1.76095
1.76348
1.7649
1.76524
1.7645
1.7627
1.75987
1.75602
1.75118
1.74536
1.73861
1.73094
1.72237
1.71295
1.70269
1.69164
1.67982
1.66727
1.65403
1.64013
1.6256
1.61049
1.59483
1.57865
1.562
1.54492
1.52744
1.50959
1.49142
1.47296
1.45424
1.43531
1.4162
1.39693
1.37754
1.35807
1.33855
1.319
1.29946
1.27994
1.26049
1.24111
1.22185
1.20272
1.18374
1.16493
1.14631
1.1279
1.10972
1.09178
1.07409
1.05667
1.03953
1.02268
1.00613
0.989883
0.97395
0.958334
0.943041
0.928074
0.913434
0.899124
0.885143
0.871491
0.858165
0.845165
0.832485
0.820123
0.808072
0.796328
0.784885
0.773734
0.762868
0.75228
0.741961
0.7319
0.722089
0.712518
0.703174
0.694051
0.68514
0.67643
0.667907
0.65956
0.651376
0.643342
0.635446
0.627674
0.620015
0.612455
0.604981
0.597582
0.590243
0.582954
0.575701
0.568473
0.561257
0.554042
0.546818
0.539572
0.532294
0.524974
0.517602
0.510169
0.502667
0.495086
0.487419
0.479658
0.471799
0.463833
0.455757
0.447565
0.439255
0.430822
0.422261
0.413571
0.404748
0.39579
0.386696
0.377465
0.368095
0.358587
0.34894
0.339154
0.329229
0.319164
0.308959
0.298611
0.288121
0.277484
0.266697
0.255754
0.244648
0.233368
0.221901
0.210228
0.198324
0.186155
0.173674
0.160813
0.14747
0.133486
0.118586
0.10225
0.0832421
0.0576145
0.0144765
0.117683
0.274189
0.363959
0.432173
0.491383
0.545745
0.597033
0.646144
0.693588
0.739684
0.78464
0.8286
0.871667
0.913914
0.955393
0.996141
1.03618
1.07553
1.1142
1.15217
1.18946
1.22605
1.26192
1.29707
1.33146
1.36509
1.39792
1.42994
1.46112
1.49144
1.52086
1.54936
1.57692
1.60352
1.62911
1.65369
1.67723
1.6997
1.72108
1.74136
1.76052
1.77853
1.79538
1.81106
1.82556
1.83887
1.85098
1.86188
1.87158
1.88006
1.88734
1.89341
1.89827
1.90195
1.90444
1.90576
1.90593
1.90495
1.90286
1.89966
1.89539
1.89006
1.8837
1.87635
1.86802
1.85875
1.84856
1.8375
1.82559
1.81287
1.79937
1.78514
1.77021
1.75462
1.7384
1.72161
1.70427
1.68642
1.66811
1.64938
1.63026
1.61079
1.59101
1.57096
1.55068
1.5302
1.50956
1.48879
1.46793
1.447
1.42605
1.4051
1.38418
1.36332
1.34255
1.32189
1.30136
1.28099
1.26081
1.24083
1.22106
1.20154
1.18227
1.16327
1.14455
1.12613
1.10802
1.09022
1.07274
1.0556
1.0388
1.02234
1.00623
0.990461
0.975047
0.959984
0.945272
0.930908
0.916891
0.903216
0.88988
0.876877
0.864202
0.851847
0.839806
0.82807
0.81663
0.805478
0.794604
0.783996
0.773645
0.763539
0.753673
0.744032
0.734606
0.725382
0.716345
0.707483
0.698782
0.690229
0.681811
0.673513
0.665322
0.657225
0.649208
0.641257
0.63336
0.625503
0.617674
0.60986
0.602049
0.594229
0.586388
0.578515
0.570599
0.562631
0.5546
0.546497
0.538314
0.530042
0.521674
0.513203
0.504623
0.495928
0.487114
0.478177
0.469111
0.459914
0.450581
0.44111
0.431499
0.421744
0.411846
0.401802
0.391611
0.381273
0.370787
0.360151
0.349365
0.338426
0.327335
0.316087
0.30468
0.293109
0.281369
0.269451
0.257347
0.245043
0.232521
0.219756
0.206716
0.193354
0.179598
0.165341
0.150407
0.134482
0.116941
0.0963178
0.0679724
0.0182585
0.117685
0.27419
0.363957
0.432171
0.49138
0.545742
0.59703
0.646141
0.693585
0.739681
0.784636
0.828596
0.871663
0.91391
0.955389
0.996138
1.03618
1.07553
1.11419
1.15217
1.18946
1.22604
1.26192
1.29706
1.33146
1.36508
1.39792
1.42994
1.46112
1.49143
1.52085
1.54936
1.57692
1.60351
1.62911
1.65369
1.67722
1.69969
1.72108
1.74136
1.76051
1.77852
1.79537
1.81106
1.82556
1.83887
1.85098
1.86188
1.87157
1.88006
1.88733
1.8934
1.89827
1.90194
1.90444
1.90576
1.90592
1.90495
1.90285
1.89966
1.89538
1.89005
1.8837
1.87634
1.86801
1.85874
1.84856
1.83749
1.82558
1.81286
1.79937
1.78514
1.77021
1.75461
1.7384
1.7216
1.70426
1.68642
1.66811
1.64937
1.63025
1.61078
1.59101
1.57096
1.55068
1.5302
1.50955
1.48878
1.46792
1.447
1.42605
1.4051
1.38418
1.36332
1.34254
1.32188
1.30136
1.28099
1.2608
1.24082
1.22106
1.20153
1.18226
1.16326
1.14455
1.12613
1.10801
1.09021
1.07274
1.0556
1.0388
1.02234
1.00622
0.990458
0.975044
0.959981
0.945269
0.930905
0.916888
0.903213
0.889877
0.876874
0.864199
0.851845
0.839803
0.828067
0.816628
0.805476
0.794602
0.783994
0.773643
0.763537
0.753671
0.74403
0.734605
0.72538
0.716343
0.707481
0.698781
0.690228
0.681809
0.673512
0.665321
0.657223
0.649206
0.641256
0.633359
0.625502
0.617673
0.609859
0.602048
0.594228
0.586387
0.578514
0.570598
0.56263
0.554599
0.546496
0.538313
0.530041
0.521673
0.513202
0.504622
0.495927
0.487113
0.478176
0.469111
0.459913
0.450581
0.44111
0.431498
0.421744
0.411845
0.401801
0.391611
0.381273
0.370786
0.36015
0.349364
0.338426
0.327334
0.316087
0.304679
0.293109
0.281368
0.269451
0.257347
0.245043
0.23252
0.219756
0.206716
0.193353
0.179598
0.165341
0.150407
0.134482
0.116942
0.096318
0.0679726
0.0182585
0.140416
0.311402
0.408603
0.481683
0.544644
0.602205
0.656403
0.70827
0.758384
0.807098
0.854637
0.901153
0.946749
0.991497
1.03545
1.07863
1.12108
1.16279
1.20377
1.24402
1.28353
1.32229
1.36028
1.39748
1.43388
1.46945
1.50416
1.53799
1.57091
1.60289
1.63392
1.66395
1.69297
1.72095
1.74785
1.77366
1.79836
1.82191
1.84431
1.86552
1.88553
1.90432
1.92188
1.9382
1.95326
1.96706
1.97959
1.99084
2.00081
2.00951
2.01693
2.02308
2.02796
2.03159
2.03398
2.03514
2.03508
2.03383
2.0314
2.02782
2.02311
2.01729
2.0104
2.00246
1.9935
1.98356
1.97266
1.96084
1.94813
1.93458
1.92022
1.90509
1.88922
1.87266
1.85545
1.83763
1.81924
1.80032
1.78092
1.76106
1.7408
1.72018
1.69923
1.678
1.65651
1.63482
1.61296
1.59096
1.56886
1.54669
1.52449
1.50229
1.48012
1.45802
1.43599
1.41409
1.39232
1.37072
1.34931
1.3281
1.30713
1.2864
1.26594
1.24576
1.22588
1.20631
1.18705
1.16813
1.14955
1.13131
1.11343
1.09591
1.07876
1.06197
1.04555
1.0295
1.01381
0.998495
0.983543
0.968951
0.954716
0.940833
0.927294
0.914093
0.901223
0.888674
0.876439
0.864506
0.852866
0.841509
0.830422
0.819598
0.809025
0.798692
0.788585
0.77869
0.768995
0.759483
0.750143
0.740959
0.731918
0.723005
0.714205
0.705505
0.696891
0.688348
0.679864
0.671423
0.663013
0.654621
0.646234
0.637839
0.629425
0.620981
0.612494
0.603955
0.595354
0.58668
0.577926
0.569083
0.560143
0.5511
0.541947
0.532678
0.523288
0.513774
0.50413
0.494352
0.484437
0.474382
0.464183
0.453838
0.443345
0.432702
0.421908
0.41096
0.399858
0.388599
0.377181
0.365603
0.35386
0.341951
0.329872
0.317616
0.305179
0.292553
0.279728
0.26669
0.253422
0.239901
0.226092
0.211946
0.197389
0.182302
0.166488
0.149591
0.130893
0.108708
0.077817
0.0220577
0.140418
0.311402
0.408602
0.481681
0.544642
0.602202
0.6564
0.708267
0.758381
0.807095
0.854634
0.901149
0.946745
0.991493
1.03544
1.07863
1.12107
1.16278
1.20377
1.24402
1.28353
1.32229
1.36028
1.39748
1.43388
1.46944
1.50415
1.53798
1.5709
1.60289
1.63391
1.66395
1.69296
1.72094
1.74785
1.77366
1.79835
1.82191
1.8443
1.86551
1.88552
1.90432
1.92188
1.9382
1.95326
1.96706
1.97958
1.99083
2.00081
2.0095
2.01692
2.02307
2.02796
2.03159
2.03398
2.03513
2.03508
2.03382
2.03139
2.02781
2.0231
2.01728
2.01039
2.00245
1.9935
1.98355
1.97265
1.96083
1.94813
1.93458
1.92021
1.90508
1.88921
1.87266
1.85545
1.83763
1.81924
1.80032
1.78091
1.76106
1.7408
1.72017
1.69923
1.67799
1.65651
1.63482
1.61295
1.59095
1.56885
1.54669
1.52449
1.50229
1.48012
1.45801
1.43599
1.41408
1.39232
1.37072
1.3493
1.3281
1.30713
1.2864
1.26594
1.24576
1.22588
1.2063
1.18705
1.16813
1.14954
1.13131
1.11343
1.09591
1.07876
1.06197
1.04555
1.02949
1.01381
0.998493
0.983541
0.968949
0.954714
0.94083
0.927291
0.914091
0.90122
0.888672
0.876437
0.864504
0.852865
0.841507
0.83042
0.819596
0.809024
0.798691
0.788584
0.778689
0.768993
0.759482
0.750142
0.740958
0.731917
0.723003
0.714204
0.705504
0.69689
0.688347
0.679862
0.671422
0.663012
0.65462
0.646233
0.637838
0.629424
0.62098
0.612493
0.603954
0.595353
0.58668
0.577925
0.569082
0.560143
0.551099
0.541946
0.532677
0.523288
0.513773
0.50413
0.494352
0.484437
0.474381
0.464182
0.453837
0.443344
0.432702
0.421908
0.41096
0.399858
0.388599
0.377181
0.365602
0.35386
0.341951
0.329871
0.317616
0.305179
0.292553
0.279728
0.26669
0.253422
0.239901
0.226092
0.211946
0.197389
0.182302
0.166488
0.149591
0.130893
0.108709
0.0778173
0.0220577
0.163189
0.347631
0.452072
0.530053
0.596817
0.657597
0.714689
0.769259
0.821963
0.873193
0.923198
0.972142
1.02013
1.06724
1.11352
1.159
1.2037
1.24763
1.29078
1.33315
1.37474
1.41552
1.45547
1.49458
1.53282
1.57017
1.6066
1.64208
1.67659
1.71009
1.74255
1.77396
1.80428
1.83348
1.86154
1.88843
1.91413
1.93862
1.96187
1.98386
2.00458
2.02402
2.04215
2.05897
2.07446
2.08862
2.10145
2.11294
2.12308
2.13189
2.13936
2.1455
2.15032
2.15384
2.15605
2.15699
2.15666
2.15508
2.15229
2.14829
2.14312
2.13681
2.12938
2.12086
2.11129
2.10069
2.0891
2.07656
2.06311
2.04877
2.03359
2.01762
2.00089
1.98344
1.96531
1.94655
1.9272
1.9073
1.88689
1.86602
1.84473
1.82305
1.80104
1.77873
1.75616
1.73337
1.7104
1.68729
1.66407
1.64078
1.61746
1.59413
1.57083
1.54759
1.52443
1.5014
1.47851
1.45578
1.43325
1.41094
1.38886
1.36703
1.34548
1.32423
1.30327
1.28264
1.26234
1.24238
1.22277
1.20353
1.18465
1.16615
1.14802
1.13028
1.11291
1.09594
1.07934
1.06313
1.04729
1.03184
1.01675
1.00203
0.987668
0.97366
0.959996
0.946669
0.933668
0.920983
0.908604
0.89652
0.88472
0.873196
0.861935
0.850924
0.840149
0.829596
0.819251
0.8091
0.799127
0.789318
0.779659
0.770134
0.760729
0.75143
0.742221
0.733088
0.724017
0.714993
0.706004
0.697036
0.688075
0.67911
0.670127
0.661116
0.652064
0.642962
0.633799
0.624565
0.615253
0.605853
0.596358
0.586761
0.577055
0.567236
0.557297
0.547234
0.537044
0.52672
0.51626
0.505659
0.494916
0.484025
0.472986
0.461796
0.450451
0.438949
0.427289
0.415466
0.403478
0.391322
0.378995
0.36649
0.353805
0.340934
0.327869
0.314602
0.301124
0.287421
0.273474
0.259261
0.244744
0.229871
0.214561
0.198684
0.182019
0.164166
0.144323
0.120597
0.0872364
0.0259001
0.163191
0.347631
0.45207
0.530051
0.596814
0.657594
0.714686
0.769256
0.82196
0.87319
0.923195
0.972138
1.02013
1.06724
1.11352
1.159
1.2037
1.24762
1.29078
1.33315
1.37473
1.41551
1.45547
1.49458
1.53282
1.57017
1.6066
1.64208
1.67658
1.71008
1.74255
1.77396
1.80427
1.83347
1.86153
1.88842
1.91412
1.93861
1.96186
1.98386
2.00458
2.02401
2.04214
2.05896
2.07446
2.08862
2.10145
2.11293
2.12308
2.13188
2.13935
2.1455
2.15032
2.15383
2.15605
2.15698
2.15665
2.15508
2.15228
2.14829
2.14312
2.13681
2.12938
2.12086
2.11128
2.10069
2.0891
2.07656
2.0631
2.04877
2.03359
2.01762
2.00088
1.98343
1.9653
1.94654
1.92719
1.90729
1.88689
1.86601
1.84472
1.82305
1.80104
1.77873
1.75616
1.73337
1.7104
1.68729
1.66407
1.64078
1.61745
1.59413
1.57082
1.54758
1.52443
1.50139
1.4785
1.45578
1.43325
1.41093
1.38885
1.36703
1.34548
1.32422
1.30327
1.28264
1.26233
1.24238
1.22277
1.20352
1.18465
1.16614
1.14802
1.13027
1.11291
1.09593
1.07934
1.06312
1.04729
1.03183
1.01675
1.00203
0.987666
0.973658
0.959994
0.946667
0.933666
0.920981
0.908602
0.896518
0.884718
0.873195
0.861934
0.850923
0.840148
0.829595
0.81925
0.809098
0.799125
0.789317
0.779658
0.770133
0.760728
0.751429
0.74222
0.733087
0.724016
0.714992
0.706003
0.697035
0.688074
0.679109
0.670126
0.661115
0.652063
0.642961
0.633798
0.624565
0.615252
0.605852
0.596357
0.58676
0.577055
0.567235
0.557296
0.547234
0.537043
0.52672
0.516259
0.505659
0.494915
0.484025
0.472986
0.461795
0.450451
0.438949
0.427288
0.415466
0.403478
0.391322
0.378994
0.36649
0.353805
0.340933
0.327868
0.314602
0.301124
0.287421
0.273474
0.259261
0.244744
0.229871
0.214561
0.198684
0.182019
0.164167
0.144323
0.120598
0.0872367
0.0259002
0.186179
0.383335
0.494892
0.577828
0.648481
0.712558
0.772595
0.829893
0.885184
0.938909
0.991343
1.04266
1.09299
1.14239
1.19092
1.23862
1.28549
1.33154
1.37677
1.42118
1.46474
1.50743
1.54925
1.59016
1.63014
1.66917
1.7072
1.74422
1.78019
1.81509
1.84888
1.88154
1.91303
1.94334
1.97242
2.00027
2.02685
2.05215
2.07613
2.09879
2.12011
2.14006
2.15865
2.17586
2.19167
2.2061
2.21912
2.23074
2.24097
2.24979
2.25723
2.26329
2.26797
2.2713
2.27328
2.27394
2.27329
2.27135
2.26815
2.26371
2.25806
2.25124
2.24326
2.23416
2.22397
2.21273
2.20047
2.18723
2.17304
2.15796
2.14201
2.12524
2.10768
2.08939
2.07041
2.05077
2.03052
2.00971
1.98838
1.96657
1.94432
1.92168
1.89869
1.87539
1.85182
1.82803
1.80404
1.77991
1.75567
1.73135
1.70698
1.68262
1.65828
1.63399
1.6098
1.58572
1.56179
1.53803
1.51447
1.49113
1.46802
1.44518
1.42262
1.40036
1.37841
1.35678
1.3355
1.31457
1.294
1.27381
1.25399
1.23456
1.21551
1.19686
1.1786
1.16074
1.14327
1.1262
1.10952
1.09323
1.07732
1.06179
1.04663
1.03183
1.0174
1.00331
0.989556
0.976131
0.963024
0.950221
0.937716
0.925497
0.91355
0.901862
0.890418
0.879205
0.868208
0.857411
0.8468
0.83636
0.826075
0.815931
0.805911
0.796002
0.786189
0.776455
0.766788
0.757172
0.747594
0.73804
0.728497
0.718951
0.709392
0.699807
0.690185
0.680515
0.670787
0.660992
0.651122
0.641167
0.63112
0.620976
0.610726
0.600366
0.589891
0.579295
0.568575
0.557725
0.546742
0.535622
0.52436
0.512955
0.501401
0.489697
0.477837
0.46582
0.453641
0.441297
0.428782
0.416093
0.403225
0.390172
0.376928
0.363488
0.349842
0.335982
0.321898
0.307574
0.292992
0.278126
0.262937
0.247368
0.23133
0.214679
0.197171
0.178362
0.157369
0.132122
0.0963564
0.0297509
0.186181
0.383334
0.49489
0.577825
0.648478
0.712555
0.772591
0.829889
0.885181
0.938906
0.99134
1.04266
1.09298
1.14239
1.19092
1.23861
1.28548
1.33154
1.37677
1.42117
1.46473
1.50743
1.54925
1.59016
1.63014
1.66916
1.7072
1.74421
1.78019