/*--------------------------------*- C++ -*----------------------------------*\
  =========                 |
  \\      /  F ield         | OpenFOAM: The Open Source CFD Toolbox
   \\    /   O peration     | Website:  https://openfoam.org
    \\  /    A nd           | Version:  8
     \\/     M anipulation  |
\*---------------------------------------------------------------------------*/
FoamFile
{
    version     2.0;
    format      ascii;
    class       volScalarField;
    location    "2700";
    object      nut;
}
// * * * * * * * * * * * * * * * * * * * * * * * * * * * * * * * * * * * * * //

dimensions      [0 2 -1 0 0 0 0];

internalField   nonuniform List<scalar> 
46000
(
3.84548e-07
1.84145e-06
3.62163e-06
5.31373e-06
6.92157e-06
8.48236e-06
1.00084e-05
1.15058e-05
1.29827e-05
1.44436e-05
1.58975e-05
1.73376e-05
1.87673e-05
2.0189e-05
2.16033e-05
2.301e-05
2.44088e-05
2.5799e-05
2.71799e-05
2.85502e-05
2.9909e-05
3.1255e-05
3.25867e-05
3.39027e-05
3.52014e-05
3.64814e-05
3.77409e-05
3.89782e-05
4.01917e-05
4.13797e-05
4.25404e-05
4.36722e-05
4.47732e-05
4.5842e-05
4.68767e-05
4.78758e-05
4.88378e-05
4.97611e-05
5.06444e-05
5.14862e-05
5.22852e-05
5.30403e-05
5.37503e-05
5.44143e-05
5.50313e-05
5.56005e-05
5.61213e-05
5.65931e-05
5.70154e-05
5.7388e-05
5.77106e-05
5.79831e-05
5.82057e-05
5.83784e-05
5.85016e-05
5.85758e-05
5.86014e-05
5.85791e-05
5.85097e-05
5.83942e-05
5.82338e-05
5.80301e-05
5.77859e-05
5.75023e-05
5.71786e-05
5.68161e-05
5.64159e-05
5.59798e-05
5.55093e-05
5.50061e-05
5.44719e-05
5.39085e-05
5.33176e-05
5.27011e-05
5.20608e-05
5.13984e-05
5.07159e-05
5.0015e-05
4.92975e-05
4.85652e-05
4.78199e-05
4.70633e-05
4.62971e-05
4.5523e-05
4.47425e-05
4.39572e-05
4.31686e-05
4.23782e-05
4.15874e-05
4.07976e-05
4.00099e-05
3.92257e-05
3.8446e-05
3.7672e-05
3.69046e-05
3.61449e-05
3.53937e-05
3.46518e-05
3.39201e-05
3.3199e-05
3.24894e-05
3.17918e-05
3.11066e-05
3.04343e-05
2.97753e-05
2.91299e-05
2.84983e-05
2.78809e-05
2.72777e-05
2.66888e-05
2.61144e-05
2.55544e-05
2.50089e-05
2.44778e-05
2.39609e-05
2.34582e-05
2.29695e-05
2.24946e-05
2.20332e-05
2.15851e-05
2.11501e-05
2.07278e-05
2.0318e-05
1.99201e-05
1.95341e-05
1.91593e-05
1.87955e-05
1.84422e-05
1.80991e-05
1.77657e-05
1.74416e-05
1.71263e-05
1.68195e-05
1.65206e-05
1.62293e-05
1.59451e-05
1.56672e-05
1.53961e-05
1.51309e-05
1.4871e-05
1.46161e-05
1.43655e-05
1.4119e-05
1.3876e-05
1.36361e-05
1.33989e-05
1.3164e-05
1.29311e-05
1.26996e-05
1.24694e-05
1.22399e-05
1.2011e-05
1.17822e-05
1.15532e-05
1.13239e-05
1.10938e-05
1.08629e-05
1.06308e-05
1.03974e-05
1.01624e-05
9.92588e-06
9.68754e-06
9.44731e-06
9.20519e-06
8.96257e-06
8.71869e-06
8.47304e-06
8.22554e-06
7.97624e-06
7.72522e-06
7.47258e-06
7.21846e-06
6.96301e-06
6.70639e-06
6.44878e-06
6.1904e-06
5.93145e-06
5.67213e-06
5.41269e-06
5.15332e-06
4.89426e-06
4.6357e-06
4.37785e-06
4.12088e-06
3.86492e-06
3.61003e-06
3.35561e-06
3.10278e-06
2.85122e-06
2.6002e-06
2.34982e-06
2.09927e-06
1.8476e-06
1.59418e-06
1.33996e-06
1.0801e-06
8.10758e-07
5.29578e-07
2.48462e-07
4.74445e-08
3.84571e-07
1.84154e-06
3.62176e-06
5.31388e-06
6.92173e-06
8.48253e-06
1.00086e-05
1.15059e-05
1.29829e-05
1.44438e-05
1.58977e-05
1.73377e-05
1.87674e-05
2.01892e-05
2.16034e-05
2.30101e-05
2.44089e-05
2.57992e-05
2.718e-05
2.85504e-05
2.99092e-05
3.12551e-05
3.25868e-05
3.39028e-05
3.52015e-05
3.64815e-05
3.77409e-05
3.89783e-05
4.01918e-05
4.13798e-05
4.25405e-05
4.36722e-05
4.47733e-05
4.5842e-05
4.68767e-05
4.78759e-05
4.88379e-05
4.97612e-05
5.06444e-05
5.14862e-05
5.22852e-05
5.30403e-05
5.37503e-05
5.44143e-05
5.50313e-05
5.56005e-05
5.61213e-05
5.65931e-05
5.70154e-05
5.7388e-05
5.77106e-05
5.79831e-05
5.82057e-05
5.83784e-05
5.85016e-05
5.85757e-05
5.86013e-05
5.8579e-05
5.85097e-05
5.83942e-05
5.82338e-05
5.803e-05
5.77859e-05
5.75022e-05
5.71786e-05
5.6816e-05
5.64159e-05
5.59797e-05
5.55092e-05
5.5006e-05
5.44719e-05
5.39084e-05
5.33176e-05
5.27011e-05
5.20607e-05
5.13984e-05
5.07158e-05
5.00149e-05
4.92974e-05
4.85652e-05
4.78199e-05
4.70633e-05
4.62971e-05
4.55229e-05
4.47424e-05
4.39571e-05
4.31685e-05
4.23782e-05
4.15874e-05
4.07975e-05
4.00098e-05
3.92256e-05
3.84459e-05
3.76719e-05
3.69046e-05
3.61448e-05
3.53936e-05
3.46518e-05
3.392e-05
3.3199e-05
3.24894e-05
3.17917e-05
3.11065e-05
3.04342e-05
2.97752e-05
2.91298e-05
2.84983e-05
2.78808e-05
2.72776e-05
2.66888e-05
2.61143e-05
2.55544e-05
2.50089e-05
2.44777e-05
2.39609e-05
2.34582e-05
2.29694e-05
2.24945e-05
2.20331e-05
2.15851e-05
2.11501e-05
2.07278e-05
2.03179e-05
1.99201e-05
1.9534e-05
1.91592e-05
1.87954e-05
1.84422e-05
1.80991e-05
1.77657e-05
1.74415e-05
1.71263e-05
1.68194e-05
1.65206e-05
1.62292e-05
1.5945e-05
1.56671e-05
1.5396e-05
1.51308e-05
1.4871e-05
1.4616e-05
1.43655e-05
1.41189e-05
1.38759e-05
1.3636e-05
1.33988e-05
1.3164e-05
1.2931e-05
1.26996e-05
1.24693e-05
1.22399e-05
1.20109e-05
1.17821e-05
1.15532e-05
1.13238e-05
1.10938e-05
1.08628e-05
1.06307e-05
1.03973e-05
1.01624e-05
9.92584e-06
9.6875e-06
9.44727e-06
9.20515e-06
8.96254e-06
8.71865e-06
8.473e-06
8.22551e-06
7.97621e-06
7.72519e-06
7.47255e-06
7.21843e-06
6.96298e-06
6.70636e-06
6.44876e-06
6.19038e-06
5.93143e-06
5.67211e-06
5.41267e-06
5.1533e-06
4.89424e-06
4.63569e-06
4.37784e-06
4.12087e-06
3.86491e-06
3.61002e-06
3.3556e-06
3.10277e-06
2.85122e-06
2.60019e-06
2.34982e-06
2.09927e-06
1.8476e-06
1.59418e-06
1.33996e-06
1.0801e-06
8.10761e-07
5.29581e-07
2.48464e-07
4.7445e-08
1.67031e-06
3.01702e-05
5.46615e-05
7.13211e-05
8.40656e-05
9.44989e-05
0.000103421
0.000111351
0.000118573
0.000125251
0.000131497
0.000137401
0.000143017
0.000148384
0.00015353
0.000158481
0.000163254
0.000167864
0.000172322
0.000176639
0.000180822
0.000184876
0.000188807
0.000192619
0.000196315
0.000199896
0.000203365
0.000206724
0.000209973
0.000213113
0.000216145
0.000219068
0.000221882
0.000224588
0.000227185
0.000229673
0.000232051
0.000234319
0.000236477
0.000238523
0.000240458
0.000242282
0.000243992
0.00024559
0.000247076
0.000248448
0.000249707
0.000250854
0.000251887
0.000252807
0.000253616
0.000254312
0.000254898
0.000255373
0.000255739
0.000255996
0.000256146
0.00025619
0.000256129
0.000255965
0.000255698
0.000255328
0.000254855
0.000254281
0.000253614
0.000252855
0.000252008
0.000251076
0.000250062
0.000248969
0.000247799
0.000246557
0.000245243
0.000243863
0.000242418
0.000240913
0.000239349
0.000237732
0.000236063
0.000234346
0.000232584
0.000230781
0.00022894
0.000227063
0.000225155
0.000223218
0.000221255
0.00021927
0.000217266
0.000215245
0.00021321
0.000211164
0.000209111
0.000207052
0.00020499
0.000202928
0.000200868
0.000198813
0.000196764
0.000194725
0.000192696
0.00019068
0.000188679
0.000186694
0.000184728
0.000182781
0.000180855
0.000178951
0.000177071
0.000175216
0.000173386
0.000171583
0.000169806
0.000168058
0.000166338
0.000164647
0.000162985
0.000161352
0.000159748
0.000158174
0.000156629
0.000155113
0.000153626
0.000152168
0.000150737
0.000149333
0.000147956
0.000146605
0.000145278
0.000143976
0.000142697
0.00014144
0.000140204
0.000138988
0.000137791
0.000136612
0.00013545
0.000134301
0.000133166
0.000132042
0.000130927
0.000129821
0.000128722
0.000127628
0.000126538
0.000125449
0.00012436
0.00012327
0.000122177
0.000121079
0.000119975
0.000118863
0.000117741
0.000116607
0.000115461
0.000114301
0.000113125
0.000111932
0.00011072
0.000109488
0.000108235
0.000106959
0.000105657
0.000104327
0.000102956
0.000101555
0.000100125
9.86636e-05
9.71714e-05
9.56473e-05
9.40904e-05
9.25e-05
9.08751e-05
8.92149e-05
8.75182e-05
8.57839e-05
8.40109e-05
8.21976e-05
8.03424e-05
7.84433e-05
7.6498e-05
7.45037e-05
7.24569e-05
7.03534e-05
6.81882e-05
6.5955e-05
6.36474e-05
6.12504e-05
5.87482e-05
5.61194e-05
5.33384e-05
5.03618e-05
4.71261e-05
4.35145e-05
3.93457e-05
3.44896e-05
2.85561e-05
2.07705e-05
9.67817e-06
2.20349e-07
1.67041e-06
3.01724e-05
5.46648e-05
7.13248e-05
8.40694e-05
9.45029e-05
0.000103425
0.000111356
0.000118577
0.000125255
0.000131501
0.000137405
0.000143022
0.000148388
0.000153535
0.000158485
0.000163258
0.000167868
0.000172327
0.000176644
0.000180827
0.000184881
0.000188813
0.000192624
0.00019632
0.000199901
0.000203371
0.00020673
0.000209979
0.000213119
0.00021615
0.000219073
0.000221888
0.000224594
0.000227191
0.000229679
0.000232057
0.000234325
0.000236483
0.000238529
0.000240465
0.000242288
0.000243999
0.000245597
0.000247082
0.000248454
0.000249714
0.00025086
0.000251893
0.000252814
0.000253622
0.000254319
0.000254904
0.000255379
0.000255745
0.000256002
0.000256152
0.000256196
0.000256135
0.000255971
0.000255704
0.000255334
0.000254861
0.000254288
0.00025362
0.000252861
0.000252014
0.000251082
0.000250068
0.000248975
0.000247805
0.000246562
0.000245249
0.000243868
0.000242424
0.000240918
0.000239355
0.000237737
0.000236068
0.000234351
0.000232589
0.000230786
0.000228945
0.000227068
0.00022516
0.000223223
0.00022126
0.000219275
0.00021727
0.000215249
0.000213214
0.000211169
0.000209115
0.000207056
0.000204994
0.000202932
0.000200872
0.000198817
0.000196768
0.000194728
0.0001927
0.000190684
0.000188682
0.000186698
0.000184731
0.000182784
0.000180858
0.000178954
0.000177074
0.000175219
0.000173389
0.000171585
0.000169809
0.000168061
0.000166341
0.000164649
0.000162987
0.000161354
0.000159751
0.000158176
0.000156631
0.000155116
0.000153628
0.00015217
0.000150739
0.000149335
0.000147958
0.000146606
0.00014528
0.000143978
0.000142699
0.000141442
0.000140205
0.000138989
0.000137792
0.000136613
0.000135451
0.000134303
0.000133167
0.000132043
0.000130928
0.000129822
0.000128723
0.000127629
0.000126538
0.00012545
0.000124361
0.000123271
0.000122178
0.00012108
0.000119976
0.000118863
0.000117741
0.000116608
0.000115462
0.000114302
0.000113126
0.000111932
0.000110721
0.000109489
0.000108235
0.000106959
0.000105658
0.000104327
0.000102956
0.000101555
0.000100125
9.86638e-05
9.71716e-05
9.56474e-05
9.40906e-05
9.25002e-05
9.08753e-05
8.9215e-05
8.75183e-05
8.5784e-05
8.4011e-05
8.21977e-05
8.03425e-05
7.84434e-05
7.64981e-05
7.45038e-05
7.2457e-05
7.03536e-05
6.81883e-05
6.59552e-05
6.36475e-05
6.12506e-05
5.87484e-05
5.61196e-05
5.33386e-05
5.03619e-05
4.71263e-05
4.35146e-05
3.93458e-05
3.44897e-05
2.85561e-05
2.07705e-05
9.67812e-06
2.20349e-07
3.34398e-06
5.29414e-05
0.000105306
0.00014417
0.000174109
0.000198234
0.000218465
0.000235972
0.000251492
0.000265509
0.000278345
0.000290232
0.000301333
0.000311769
0.00032163
0.000330987
0.000339895
0.0003484
0.000356538
0.000364336
0.00037182
0.00037901
0.000385921
0.000392569
0.000398963
0.000405116
0.000411033
0.000416724
0.000422194
0.000427448
0.00043249
0.000437325
0.000441957
0.000446386
0.000450618
0.000454653
0.000458493
0.000462142
0.000465599
0.000468867
0.000471947
0.000474841
0.00047755
0.000480074
0.000482416
0.000484576
0.000486557
0.000488358
0.000489983
0.000491431
0.000492705
0.000493807
0.000494737
0.000495499
0.000496093
0.000496521
0.000496786
0.000496889
0.000496833
0.000496619
0.000496247
0.000495719
0.000495034
0.000494196
0.000493212
0.000492088
0.000490829
0.000489439
0.000487923
0.000486284
0.000484526
0.000482655
0.000480673
0.000478585
0.000476395
0.000474108
0.000471728
0.000469259
0.000466706
0.000464073
0.000461365
0.000458587
0.000455742
0.000452836
0.000449872
0.000446856
0.000443791
0.000440682
0.000437534
0.000434351
0.000431137
0.000427896
0.000424632
0.00042135
0.000418053
0.000414745
0.00041143
0.000408112
0.000404794
0.00040148
0.000398172
0.000394874
0.000391589
0.000388321
0.00038507
0.000381841
0.000378636
0.000375456
0.000372305
0.000369183
0.000366093
0.000363037
0.000360015
0.000357029
0.000354081
0.00035117
0.000348298
0.000345466
0.000342673
0.00033992
0.000337207
0.000334534
0.0003319
0.000329305
0.000326749
0.00032423
0.000321748
0.000319301
0.000316888
0.000314509
0.00031216
0.000309842
0.000307552
0.000305288
0.000303051
0.000300835
0.00029864
0.00029646
0.000294294
0.00029214
0.000289995
0.000287857
0.000285723
0.00028359
0.000281455
0.000279316
0.00027717
0.000275014
0.000272845
0.00027066
0.000268457
0.000266232
0.000263984
0.000261708
0.000259404
0.000257067
0.000254696
0.000252288
0.00024984
0.00024735
0.000244814
0.00024223
0.000239594
0.000236899
0.000234134
0.000231306
0.000228415
0.00022546
0.000222439
0.000219351
0.000216194
0.000212965
0.000209661
0.00020628
0.000202818
0.00019927
0.000195632
0.000191898
0.000188064
0.00018412
0.000180059
0.000175871
0.000171543
0.000167061
0.000162407
0.000157558
0.000152487
0.000147156
0.000141514
0.000135499
0.000129012
0.000121924
0.00011405
0.000105106
9.46573e-05
8.2147e-05
6.66134e-05
4.64139e-05
1.9906e-05
4.73947e-07
3.34411e-06
5.29447e-05
0.000105312
0.000144178
0.000174118
0.000198243
0.000218475
0.000235981
0.000251501
0.000265518
0.000278354
0.000290241
0.000301342
0.000311778
0.000321639
0.000330996
0.000339904
0.000348409
0.000356546
0.000364345
0.000371829
0.000379019
0.00038593
0.000392578
0.000398972
0.000405125
0.000411043
0.000416733
0.000422203
0.000427457
0.0004325
0.000437335
0.000441966
0.000446396
0.000450627
0.000454662
0.000458503
0.000462151
0.000465609
0.000468877
0.000471957
0.000474851
0.000477559
0.000480084
0.000482425
0.000484586
0.000486566
0.000488368
0.000489992
0.000491441
0.000492715
0.000493816
0.000494747
0.000495508
0.000496102
0.00049653
0.000496795
0.000496898
0.000496842
0.000496627
0.000496256
0.000495728
0.000495043
0.000494205
0.000493221
0.000492097
0.000490837
0.000489447
0.000487931
0.000486292
0.000484534
0.000482662
0.00048068
0.000478592
0.000476402
0.000474115
0.000471735
0.000469266
0.000466713
0.00046408
0.000461372
0.000458594
0.000455749
0.000452842
0.000449878
0.000446862
0.000443797
0.000440688
0.00043754
0.000434357
0.000431142
0.000427901
0.000424637
0.000421355
0.000418058
0.00041475
0.000411435
0.000408117
0.000404799
0.000401484
0.000398176
0.000394878
0.000391594
0.000388325
0.000385074
0.000381845
0.000378639
0.00037546
0.000372308
0.000369186
0.000366096
0.00036304
0.000360018
0.000357032
0.000354083
0.000351173
0.000348301
0.000345468
0.000342675
0.000339922
0.000337209
0.000334536
0.000331902
0.000329307
0.000326751
0.000324232
0.000321749
0.000319302
0.00031689
0.00031451
0.000312161
0.000309843
0.000307553
0.000305289
0.000303052
0.000300836
0.00029864
0.00029646
0.000294295
0.000292141
0.000289996
0.000287857
0.000285723
0.00028359
0.000281455
0.000279316
0.00027717
0.000275014
0.000272844
0.00027066
0.000268456
0.000266232
0.000263983
0.000261708
0.000259403
0.000257067
0.000254696
0.000252287
0.000249839
0.000247349
0.000244813
0.00024223
0.000239593
0.000236898
0.000234134
0.000231306
0.000228414
0.000225459
0.000222438
0.00021935
0.000216193
0.000212964
0.000209661
0.000206279
0.000202817
0.000199269
0.000195631
0.000191898
0.000188063
0.000184119
0.000180059
0.00017587
0.000171543
0.00016706
0.000162406
0.000157557
0.000152487
0.000147155
0.000141514
0.000135498
0.000129012
0.000121924
0.00011405
0.000105106
9.46573e-05
8.2147e-05
6.66135e-05
4.64139e-05
1.99059e-05
4.73947e-07
4.99e-06
6.87428e-05
0.000142323
0.000201451
0.000248821
0.000287753
0.000320632
0.000349062
0.000374135
0.000396608
0.000417017
0.00043575
0.000453094
0.000469264
0.000484425
0.000498707
0.000512212
0.00052502
0.0005372
0.000548805
0.000559881
0.000570464
0.000580586
0.000590274
0.00059955
0.000608434
0.000616943
0.00062509
0.000632888
0.000640349
0.000647481
0.000654295
0.000660796
0.000666993
0.000672891
0.000678496
0.000683814
0.000688848
0.000693604
0.000698085
0.000702296
0.00070624
0.000709921
0.000713343
0.000716508
0.000719419
0.000722082
0.000724497
0.000726669
0.0007286
0.000730295
0.000731755
0.000732984
0.000733985
0.000734762
0.000735318
0.000735655
0.000735776
0.000735686
0.000735386
0.000734878
0.000734164
0.000733247
0.00073213
0.00073082
0.000729326
0.000727652
0.000725806
0.000723792
0.000721615
0.000719282
0.000716796
0.000714165
0.000711392
0.000708484
0.000705445
0.000702282
0.000698999
0.000695603
0.000692099
0.000688493
0.000684789
0.000680995
0.000677115
0.000673156
0.000669122
0.00066502
0.000660855
0.000656633
0.000652359
0.000648039
0.000643678
0.000639281
0.000634854
0.000630402
0.000625929
0.000621441
0.000616941
0.000612436
0.00060793
0.000603425
0.000598928
0.000594442
0.00058997
0.000585517
0.000581085
0.000576678
0.000572299
0.000567951
0.000563637
0.000559358
0.000555117
0.000550917
0.000546757
0.000542641
0.000538569
0.000534543
0.000530562
0.000526628
0.000522741
0.000518901
0.000515107
0.00051136
0.000507658
0.000504001
0.000500387
0.000496816
0.000493286
0.000489795
0.000486341
0.000482922
0.000479537
0.000476184
0.000472859
0.000469561
0.000466284
0.000463026
0.000459782
0.00045655
0.000453326
0.000450106
0.000446888
0.000443667
0.00044044
0.000437203
0.000433953
0.000430685
0.000427395
0.000424081
0.000420738
0.000417362
0.00041395
0.000410498
0.000407003
0.00040346
0.000399868
0.000396221
0.000392516
0.000388751
0.000384921
0.000381022
0.00037705
0.000373
0.000368865
0.000364637
0.000360316
0.000355901
0.00035139
0.00034678
0.000342069
0.000337251
0.000332323
0.000327279
0.000322114
0.000316819
0.000311388
0.00030581
0.000300076
0.000294173
0.000288086
0.000281799
0.000275291
0.000268539
0.000261514
0.000254181
0.000246496
0.000238404
0.000229835
0.000220698
0.000210872
0.000200194
0.000188441
0.000175304
0.000160344
0.000142944
0.000122224
9.69589e-05
6.54321e-05
2.71573e-05
7.36882e-07
4.99014e-06
6.87464e-05
0.000142331
0.000201462
0.000248833
0.000287767
0.000320646
0.000349076
0.000374149
0.000396622
0.000417031
0.000435763
0.000453107
0.000469277
0.000484439
0.00049872
0.000512225
0.000525034
0.000537213
0.000548818
0.000559893
0.000570476
0.000580599
0.000590287
0.000599563
0.000608447
0.000616955
0.000625102
0.000632901
0.000640361
0.000647494
0.000654307
0.000660809
0.000667005
0.000672903
0.000678509
0.000683826
0.00068886
0.000693616
0.000698097
0.000702308
0.000706252
0.000709933
0.000713354
0.000716519
0.000719431
0.000722093
0.000724508
0.00072668
0.000728612
0.000730306
0.000731766
0.000732995
0.000733996
0.000734773
0.000735328
0.000735665
0.000735787
0.000735696
0.000735396
0.000734888
0.000734174
0.000733257
0.000732139
0.00073083
0.000729335
0.000727662
0.000725815
0.000723801
0.000721624
0.00071929
0.000716805
0.000714173
0.000711401
0.000708492
0.000705453
0.00070229
0.000699007
0.000695611
0.000692107
0.0006885
0.000684796
0.000681002
0.000677122
0.000673162
0.000669129
0.000665026
0.000660862
0.000656639
0.000652365
0.000648045
0.000643684
0.000639287
0.00063486
0.000630407
0.000625934
0.000621445
0.000616946
0.000612441
0.000607934
0.00060343
0.000598932
0.000594446
0.000589974
0.00058552
0.000581088
0.000576682
0.000572303
0.000567954
0.00056364
0.000559361
0.00055512
0.000550919
0.00054676
0.000542643
0.000538571
0.000534545
0.000530564
0.00052663
0.000522743
0.000518902
0.000515108
0.000511361
0.000507659
0.000504002
0.000500388
0.000496817
0.000493287
0.000489795
0.000486341
0.000482923
0.000479538
0.000476184
0.000472859
0.00046956
0.000466284
0.000463025
0.000459782
0.000456549
0.000453325
0.000450106
0.000446887
0.000443666
0.000440439
0.000437202
0.000433951
0.000430683
0.000427394
0.00042408
0.000420736
0.000417361
0.000413949
0.000410497
0.000407001
0.000403459
0.000399866
0.000396219
0.000392514
0.000388749
0.000384919
0.00038102
0.000377048
0.000372998
0.000368863
0.000364635
0.000360314
0.000355899
0.000351388
0.000346778
0.000342067
0.000337249
0.000332321
0.000327278
0.000322112
0.000316817
0.000311386
0.000305808
0.000300074
0.000294171
0.000288084
0.000281797
0.00027529
0.000268538
0.000261513
0.00025418
0.000246495
0.000238403
0.000229834
0.000220697
0.000210871
0.000200193
0.00018844
0.000175304
0.000160344
0.000142943
0.000122224
9.69589e-05
6.54321e-05
2.71572e-05
7.36883e-07
6.60109e-06
8.12412e-05
0.000171166
0.000247298
0.000310408
0.000363412
0.00040873
0.000448154
0.000482989
0.000514189
0.000542456
0.000568316
0.000592166
0.000614313
0.000634993
0.000654396
0.00067267
0.000689936
0.000706295
0.000721826
0.000736598
0.000750666
0.000764079
0.000776876
0.000789093
0.000800759
0.000811899
0.000822535
0.000832689
0.000842376
0.000851612
0.000860412
0.000868786
0.000876747
0.000884305
0.000891469
0.000898247
0.000904648
0.00091068
0.000916349
0.000921662
0.000926625
0.000931246
0.000935529
0.00093948
0.000943105
0.000946409
0.000949397
0.000952076
0.000954449
0.000956521
0.000958299
0.000959786
0.000960987
0.000961908
0.000962552
0.000962925
0.000963031
0.000962874
0.000962458
0.000961787
0.000960865
0.000959696
0.000958284
0.000956638
0.000954765
0.000952673
0.000950368
0.000947858
0.000945149
0.000942249
0.000939162
0.000935896
0.000932457
0.000928852
0.000925088
0.00092117
0.000917106
0.000912902
0.000908566
0.000904103
0.00089952
0.000894825
0.000890024
0.000885123
0.00088013
0.000875052
0.000869894
0.000864664
0.000859368
0.000854013
0.000848605
0.000843151
0.000837656
0.000832127
0.00082657
0.00082099
0.000815394
0.000809787
0.000804174
0.000798561
0.000792953
0.000787353
0.000781768
0.0007762
0.000770655
0.000765137
0.000759648
0.000754192
0.000748773
0.000743393
0.000738055
0.00073276
0.000727512
0.000722312
0.00071716
0.000712059
0.000707009
0.000702011
0.000697064
0.00069217
0.000687326
0.000682534
0.000677791
0.000673097
0.00066845
0.000663849
0.000659292
0.000654776
0.000650299
0.000645859
0.000641453
0.000637078
0.000632732
0.000628409
0.000624106
0.000619818
0.000615541
0.00061127
0.000607001
0.000602731
0.000598454
0.000594167
0.000589865
0.000585543
0.000581196
0.000576821
0.000572411
0.000567964
0.000563474
0.000558937
0.000554348
0.000549702
0.000544997
0.000540226
0.000535387
0.000530474
0.000525484
0.000520412
0.000515254
0.000510004
0.000504658
0.000499209
0.000493651
0.000487977
0.000482183
0.000476266
0.000470222
0.000464047
0.000457736
0.000451282
0.000444678
0.000437916
0.000430987
0.000423879
0.000416581
0.000409077
0.000401351
0.000393385
0.000385154
0.000376634
0.000367793
0.000358593
0.000348992
0.000338934
0.000328354
0.000317169
0.000305276
0.000292541
0.000278793
0.000263804
0.000247274
0.000228801
0.000207839
0.000183646
0.000155213
0.000121233
8.02537e-05
3.29011e-05
9.99961e-07
6.60123e-06
8.12449e-05
0.000171175
0.00024731
0.000310422
0.000363428
0.000408747
0.000448171
0.000483007
0.000514207
0.000542474
0.000568334
0.000592184
0.00061433
0.000635011
0.000654413
0.000672687
0.000689954
0.000706312
0.000721843
0.000736615
0.000750683
0.000764096
0.000776893
0.000789109
0.000800775
0.000811915
0.000822551
0.000832705
0.000842392
0.000851628
0.000860427
0.000868802
0.000876763
0.00088432
0.000891484
0.000898262
0.000904663
0.000910695
0.000916363
0.000921676
0.00092664
0.00093126
0.000935543
0.000939494
0.000943118
0.000946422
0.000949411
0.000952089
0.000954462
0.000956535
0.000958312
0.000959799
0.000961
0.00096192
0.000962565
0.000962938
0.000963043
0.000962886
0.00096247
0.000961799
0.000960877
0.000959707
0.000958295
0.000956649
0.000954776
0.000952683
0.000950378
0.000947868
0.000945159
0.000942258
0.000939171
0.000935905
0.000932466
0.000928861
0.000925097
0.000921179
0.000917115
0.000912911
0.000908574
0.00090411
0.000899528
0.000894832
0.000890031
0.00088513
0.000880137
0.000875058
0.000869901
0.00086467
0.000859374
0.000854019
0.000848611
0.000843156
0.000837661
0.000832132
0.000826575
0.000820995
0.000815399
0.000809792
0.000804179
0.000798566
0.000792957
0.000787357
0.000781771
0.000776204
0.000770659
0.00076514
0.000759651
0.000754195
0.000748776
0.000743396
0.000738057
0.000732763
0.000727515
0.000722314
0.000717163
0.000712061
0.000707011
0.000702013
0.000697066
0.000692171
0.000687328
0.000682535
0.000677792
0.000673098
0.000668451
0.00066385
0.000659292
0.000654776
0.000650299
0.000645859
0.000641453
0.000637078
0.000632732
0.000628409
0.000624106
0.000619817
0.00061554
0.000611269
0.000607
0.00060273
0.000598453
0.000594166
0.000589864
0.000585541
0.000581195
0.000576819
0.00057241
0.000567962
0.000563472
0.000558935
0.000554346
0.0005497
0.000544995
0.000540224
0.000535385
0.000530472
0.000525482
0.00052041
0.000515251
0.000510002
0.000504656
0.000499207
0.000493649
0.000487974
0.00048218
0.000476263
0.00047022
0.000464045
0.000457734
0.00045128
0.000444676
0.000437914
0.000430985
0.000423877
0.000416579
0.000409075
0.000401349
0.000393383
0.000385152
0.000376632
0.000367791
0.000358592
0.00034899
0.000338932
0.000328352
0.000317168
0.000305275
0.00029254
0.000278792
0.000263803
0.000247274
0.000228801
0.000207839
0.000183646
0.000155213
0.000121233
8.02539e-05
3.2901e-05
9.99964e-07
8.20216e-06
9.17435e-05
0.000194863
0.000285333
0.000362305
0.000428123
0.000485068
0.000534976
0.00057926
0.000618998
0.000655012
0.000687935
0.000718257
0.000746362
0.000772552
0.000797069
0.000820109
0.00084183
0.000862361
0.000881812
0.000900272
0.000917815
0.000934506
0.000950399
0.000965541
0.000979971
0.000993725
0.00100683
0.00101932
0.00103121
0.00104253
0.00105329
0.00106351
0.00107321
0.0010824
0.0010911
0.00109931
0.00110705
0.00111433
0.00112115
0.00112754
0.00113349
0.00113901
0.00114413
0.00114883
0.00115314
0.00115705
0.00116058
0.00116373
0.00116651
0.00116893
0.00117099
0.00117271
0.00117408
0.00117511
0.00117582
0.0011762
0.00117626
0.00117602
0.00117546
0.00117461
0.00117346
0.00117203
0.00117031
0.00116832
0.00116606
0.00116354
0.00116078
0.00115777
0.00115454
0.00115108
0.0011474
0.00114351
0.00113942
0.00113513
0.00113066
0.00112601
0.0011212
0.00111621
0.00111107
0.00110579
0.00110036
0.00109481
0.00108913
0.00108333
0.00107742
0.00107142
0.00106532
0.00105914
0.00105288
0.00104654
0.00104015
0.0010337
0.0010272
0.00102067
0.00101409
0.00100749
0.00100087
0.000994236
0.000987591
0.000980945
0.000974302
0.000967667
0.000961047
0.000954445
0.000947867
0.000941318
0.000934801
0.000928319
0.000921877
0.000915478
0.000909125
0.00090282
0.000896565
0.000890362
0.000884213
0.000878119
0.00087208
0.000866097
0.000860171
0.000854301
0.000848486
0.000842725
0.000837018
0.000831362
0.000825756
0.000820198
0.000814686
0.000809216
0.000803786
0.000798393
0.000793033
0.000787704
0.0007824
0.000777117
0.00077185
0.000766593
0.000761343
0.000756093
0.00075084
0.000745577
0.0007403
0.000735004
0.000729683
0.000724331
0.000718945
0.000713517
0.000708043
0.000702518
0.000696936
0.000691293
0.000685582
0.000679798
0.000673938
0.000667996
0.000661966
0.000655845
0.000649626
0.000643305
0.000636877
0.000630335
0.000623674
0.000616888
0.000609968
0.000602909
0.000595703
0.000588347
0.000580833
0.000573156
0.000565309
0.000557281
0.000549064
0.000540646
0.000532013
0.000523152
0.000514044
0.000504669
0.000495006
0.000485027
0.000474702
0.000463995
0.000452863
0.000441257
0.000429116
0.00041637
0.000402929
0.000388686
0.000373504
0.000357215
0.000339601
0.000320384
0.000299202
0.000275584
0.000248915
0.000218392
0.000182977
0.000141404
9.25043e-05
3.77731e-05
1.26309e-06
8.20231e-06
9.17472e-05
0.000194871
0.000285346
0.000362321
0.000428141
0.000485088
0.000534997
0.000579281
0.000619019
0.000655033
0.000687957
0.000718279
0.000746383
0.000772573
0.00079709
0.00082013
0.000841851
0.000862382
0.000881833
0.000900292
0.000917835
0.000934526
0.000950419
0.000965561
0.000979991
0.000993744
0.00100685
0.00101934
0.00103123
0.00104255
0.00105331
0.00106353
0.00107323
0.00108242
0.00109112
0.00109933
0.00110707
0.00111434
0.00112117
0.00112755
0.0011335
0.00113903
0.00114414
0.00114885
0.00115315
0.00115706
0.00116059
0.00116374
0.00116653
0.00116894
0.00117101
0.00117272
0.00117409
0.00117513
0.00117583
0.00117621
0.00117628
0.00117603
0.00117548
0.00117462
0.00117348
0.00117204
0.00117032
0.00116833
0.00116607
0.00116355
0.00116079
0.00115779
0.00115455
0.00115109
0.00114741
0.00114352
0.00113943
0.00113514
0.00113067
0.00112602
0.0011212
0.00111622
0.00111108
0.0011058
0.00110037
0.00109482
0.00108913
0.00108334
0.00107743
0.00107143
0.00106533
0.00105914
0.00105288
0.00104655
0.00104016
0.00103371
0.00102721
0.00102067
0.0010141
0.0010075
0.00100088
0.000994241
0.000987596
0.00098095
0.000974306
0.000967672
0.000961051
0.000954449
0.000947872
0.000941322
0.000934804
0.000928323
0.000921881
0.000915482
0.000909128
0.000902823
0.000896568
0.000890365
0.000884216
0.000878121
0.000872082
0.0008661
0.000860173
0.000854303
0.000848487
0.000842727
0.000837019
0.000831363
0.000825758
0.0008202
0.000814687
0.000809217
0.000803787
0.000798393
0.000793034
0.000787704
0.0007824
0.000777117
0.00077185
0.000766593
0.000761342
0.000756093
0.000750839
0.000745576
0.0007403
0.000735003
0.000729682
0.00072433
0.000718944
0.000713516
0.000708042
0.000702517
0.000696935
0.000691291
0.00068558
0.000679797
0.000673936
0.000667994
0.000661964
0.000655843
0.000649624
0.000643303
0.000636875
0.000630333
0.000623672
0.000616886
0.000609966
0.000602906
0.000595701
0.000588344
0.000580831
0.000573154
0.000565306
0.000557279
0.000549062
0.000540643
0.000532011
0.00052315
0.000514042
0.000504667
0.000495004
0.000485025
0.0004747
0.000463993
0.000452861
0.000441255
0.000429115
0.000416368
0.000402928
0.000388684
0.000373503
0.000357214
0.000339601
0.000320383
0.000299201
0.000275584
0.000248915
0.000218392
0.000182977
0.000141404
9.25045e-05
3.7773e-05
1.26309e-06
9.79746e-06
0.000100984
0.000215184
0.000317923
0.000407062
0.000484385
0.000551974
0.00061163
0.000664809
0.000712663
0.000756097
0.000795823
0.000832406
0.000866292
0.000897841
0.000927342
0.00095503
0.000981099
0.00100571
0.00102899
0.00105106
0.001072
0.00109189
0.00111082
0.00112882
0.00114595
0.00116226
0.00117779
0.00119256
0.0012066
0.00121995
0.00123263
0.00124466
0.00125606
0.00126684
0.00127703
0.00128664
0.00129568
0.00130417
0.00131212
0.00131954
0.00132645
0.00133285
0.00133876
0.00134419
0.00134914
0.00135364
0.00135768
0.00136128
0.00136444
0.00136718
0.0013695
0.00137142
0.00137294
0.00137407
0.00137481
0.00137518
0.00137519
0.00137483
0.00137413
0.00137308
0.0013717
0.00136998
0.00136795
0.0013656
0.00136295
0.00136001
0.00135679
0.00135329
0.00134953
0.00134551
0.00134125
0.00133675
0.00133202
0.00132707
0.00132191
0.00131655
0.00131099
0.00130525
0.00129934
0.00129326
0.00128702
0.00128063
0.00127411