/*--------------------------------*- C++ -*----------------------------------*\
  =========                 |
  \\      /  F ield         | OpenFOAM: The Open Source CFD Toolbox
   \\    /   O peration     | Website:  https://openfoam.org
    \\  /    A nd           | Version:  8
     \\/     M anipulation  |
\*---------------------------------------------------------------------------*/
FoamFile
{
    version     2.0;
    format      ascii;
    class       surfaceScalarField;
    location    "2700";
    object      phi;
}
// * * * * * * * * * * * * * * * * * * * * * * * * * * * * * * * * * * * * * //

dimensions      [1 0 -1 0 0 0 0];

internalField   nonuniform List<scalar> 
114370
(
3.34044e-10
1.31094e-14
-3.34058e-10
8.37345e-10
-3.27776e-14
-5.03854e-10
1.2653e-09
-3.22866e-14
-4.2838e-10
1.51427e-09
-1.66325e-14
-2.49286e-10
1.58081e-09
-2.83659e-15
-6.6815e-11
1.48949e-09
5.17293e-15
9.1071e-11
1.27018e-09
8.82344e-15
2.19074e-10
9.50021e-10
1.01016e-14
3.19922e-10
5.51048e-10
1.05028e-14
3.98735e-10
9.06195e-11
1.06829e-14
4.60188e-10
-4.1746e-10
1.04415e-14
5.07837e-10
-9.62373e-10
9.76551e-15
5.44671e-10
-1.53602e-09
8.9814e-15
5.73412e-10
-2.13219e-09
8.22767e-15
5.9593e-10
-2.74601e-09
7.50822e-15
6.13596e-10
-3.37366e-09
6.85298e-15
6.2744e-10
-4.0121e-09
6.33892e-15
6.38236e-10
-4.65886e-09
5.99249e-15
6.46564e-10
-5.31191e-09
5.77618e-15
6.52859e-10
-5.96953e-09
5.64574e-15
6.5744e-10
-6.63024e-09
5.59186e-15
6.60543e-10
-7.29274e-09
5.62602e-15
6.62337e-10
-7.95584e-09
5.74628e-15
6.62942e-10
-8.61843e-09
5.924e-15
6.62437e-10
-9.27945e-09
6.10304e-15
6.60874e-10
-9.93788e-09
6.23047e-15
6.58283e-10
-1.05927e-08
6.2678e-15
6.54679e-10
-1.12429e-08
6.20724e-15
6.50065e-10
-1.18875e-08
6.05995e-15
6.44437e-10
-1.25255e-08
5.84869e-15
6.3779e-10
-1.31557e-08
5.59667e-15
6.30115e-10
-1.37773e-08
5.32405e-15
6.21404e-10
-1.43891e-08
5.04385e-15
6.11652e-10
-1.49901e-08
4.76344e-15
6.00856e-10
-1.55793e-08
4.48714e-15
5.89018e-10
-1.61556e-08
4.21942e-15
5.76146e-10
-1.6718e-08
3.96395e-15
5.62251e-10
-1.72655e-08
3.72691e-15
5.47351e-10
-1.77971e-08
3.5134e-15
5.31471e-10
-1.83119e-08
3.32755e-15
5.14639e-10
-1.88089e-08
3.17378e-15
4.96889e-10
-1.92873e-08
3.05439e-15
4.78263e-10
-1.97463e-08
2.96883e-15
4.58805e-10
-2.01849e-08
2.9134e-15
4.38564e-10
-2.06027e-08
2.88325e-15
4.17594e-10
-2.09987e-08
2.86968e-15
3.95953e-10
-2.13726e-08
2.86511e-15
3.737e-10
-2.17236e-08
2.86206e-15
3.50899e-10
-2.20513e-08
2.85414e-15
3.27613e-10
-2.23554e-08
2.83732e-15
3.0391e-10
-2.26353e-08
2.80912e-15
2.79856e-10
-2.2891e-08
2.76813e-15
2.55519e-10
-2.31221e-08
2.71337e-15
2.30968e-10
-2.33284e-08
2.64636e-15
2.06269e-10
-2.35101e-08
2.56829e-15
1.81488e-10
-2.36669e-08
2.48003e-15
1.56692e-10
-2.37989e-08
2.38537e-15
1.31945e-10
-2.39064e-08
2.28443e-15
1.0731e-10
-2.39893e-08
2.18121e-15
8.28478e-11
-2.40481e-08
2.07756e-15
5.86177e-11
-2.40829e-08
1.97629e-15
3.46739e-11
-2.40941e-08
1.87665e-15
1.10674e-11
-2.4082e-08
1.78373e-15
-1.21573e-11
-2.40472e-08
1.69753e-15
-3.49651e-11
-2.399e-08
1.61351e-15
-5.73221e-11
-2.39109e-08
1.53165e-15
-7.91909e-11
-2.38105e-08
1.45152e-15
-1.00533e-10
-2.36893e-08
1.37172e-15
-1.2131e-10
-2.35479e-08
1.29203e-15
-1.41492e-10
-2.3387e-08
1.21148e-15
-1.61048e-10
-2.32071e-08
1.13081e-15
-1.79955e-10
-2.30091e-08
1.04917e-15
-1.98192e-10
-2.27934e-08
9.67959e-16
-2.15741e-10
-2.2561e-08
8.9033e-16
-2.32586e-10
-2.23124e-08
8.17687e-16
-2.48717e-10
-2.20484e-08
7.5155e-16
-2.64123e-10
-2.17697e-08
6.93653e-16
-2.78797e-10
-2.14771e-08
6.45947e-16
-2.92735e-10
-2.11712e-08
6.07999e-16
-3.05934e-10
-2.08529e-08
5.81327e-16
-3.18394e-10
-2.05229e-08
5.64413e-16
-3.30116e-10
-2.01819e-08
5.55305e-16
-3.41104e-10
-1.98307e-08
5.54112e-16
-3.51363e-10
-1.94699e-08
5.57906e-16
-3.609e-10
-1.91003e-08
5.65279e-16
-3.69723e-10
-1.87226e-08
5.76446e-16
-3.77842e-10
-1.83374e-08
5.87396e-16
-3.85268e-10
-1.79455e-08
5.98346e-16
-3.92013e-10
-1.75475e-08
6.08538e-16
-3.98091e-10
-1.71441e-08
6.17753e-16
-4.03517e-10
-1.67359e-08
6.24259e-16
-4.08304e-10
-1.63236e-08
6.29246e-16
-4.12471e-10
-1.59077e-08
6.32607e-16
-4.16034e-10
-1.54888e-08
6.34559e-16
-4.1901e-10
-1.50675e-08
6.35644e-16
-4.21418e-10
-1.46443e-08
6.36512e-16
-4.23278e-10
-1.42199e-08
6.36079e-16
-4.24608e-10
-1.37945e-08
6.36513e-16
-4.25428e-10
-1.33689e-08
6.37165e-16
-4.2576e-10
-1.29434e-08
6.38467e-16
-4.25622e-10
-1.25185e-08
6.41829e-16
-4.25037e-10
-1.20946e-08
6.46384e-16
-4.24025e-10
-1.16721e-08
6.49638e-16
-4.22608e-10
-1.12515e-08
6.57229e-16
-4.20806e-10
-1.0833e-08
6.65904e-16
-4.18642e-10
-1.0417e-08
6.76964e-16
-4.16136e-10
-1.00038e-08
6.89977e-16
-4.1331e-10
-9.59374e-09
7.04941e-16
-4.10185e-10
-9.1871e-09
7.23591e-16
-4.06781e-10
-8.78412e-09
7.43976e-16
-4.0312e-10
-8.38504e-09
7.64145e-16
-3.99221e-10
-7.99008e-09
7.8865e-16
-3.95105e-10
-7.59943e-09
8.12939e-16
-3.90791e-10
-7.21328e-09
8.39396e-16
-3.86299e-10
-6.83179e-09
8.65203e-16
-3.81645e-10
-6.45509e-09
8.92094e-16
-3.7685e-10
-6.08332e-09
9.17684e-16
-3.71929e-10
-5.71657e-09
9.44142e-16
-3.66898e-10
-5.35496e-09
9.69515e-16
-3.61774e-10
-4.99854e-09
9.94672e-16
-3.56571e-10
-4.6474e-09
1.02048e-15
-3.51302e-10
-4.30159e-09
1.04694e-15
-3.4598e-10
-3.96113e-09
1.07426e-15
-3.40617e-10
-3.62608e-09
1.10419e-15
-3.35221e-10
-3.29645e-09
1.13629e-15
-3.29803e-10
-2.97225e-09
1.16925e-15
-3.2437e-10
-2.65349e-09
1.20395e-15
-3.18927e-10
-2.34019e-09
1.24147e-15
-3.1348e-10
-2.03233e-09
1.2818e-15
-3.08031e-10
-1.72993e-09
1.32366e-15
-3.02582e-10
-1.43297e-09
1.36768e-15
-2.97135e-10
-1.14147e-09
1.41192e-15
-2.91688e-10
-8.5541e-10
1.45594e-15
-2.86244e-10
-5.74783e-10
1.49866e-15
-2.80814e-10
-2.99542e-10
1.53856e-15
-2.7543e-10
-2.9657e-11
1.57586e-15
-2.70075e-10
2.34719e-10
1.59365e-15
-2.64569e-10
4.93408e-10
1.61447e-15
-2.58884e-10
7.46325e-10
1.65915e-15
-2.53111e-10
9.93363e-10
1.70838e-15
-2.47234e-10
1.2344e-09
1.76216e-15
-2.41234e-10
1.46929e-09
1.81377e-15
-2.35087e-10
1.69786e-09
1.86279e-15
-2.28766e-10
1.9199e-09
1.90789e-15
-2.22242e-10
2.13518e-09
1.9517e-15
-2.15484e-10
2.34344e-09
1.99442e-15
-2.08461e-10
2.54438e-09
2.03888e-15
-2.01141e-10
2.73766e-09
2.08312e-15
-1.9349e-10
2.92293e-09
2.12822e-15
-1.85474e-10
3.09979e-09
2.17506e-15
-1.7706e-10
3.2678e-09
2.22363e-15
-1.68215e-10
3.42649e-09
2.27502e-15
-1.58904e-10
3.57538e-09
2.33096e-15
-1.49097e-10
3.71394e-09
2.38994e-15
-1.38763e-10
3.8416e-09
2.4552e-15
-1.27875e-10
3.9578e-09
2.52545e-15
-1.16407e-10
4.06192e-09
2.59852e-15
-1.04337e-10
4.15335e-09
2.67982e-15
-9.16479e-11
4.23147e-09
2.76568e-15
-7.83273e-11
4.29562e-09
2.85349e-15
-6.43687e-11
4.34517e-09
2.94715e-15
-4.9773e-11
4.3795e-09
3.04015e-15
-3.4551e-11
4.398e-09
3.13337e-15
-1.87247e-11
4.40011e-09
3.21944e-15
-2.3337e-12
4.38525e-09
3.3139e-15
1.4631e-11
4.35285e-09
3.42077e-15
3.21701e-11
4.3024e-09
3.5168e-15
5.02207e-11
4.23344e-09
3.61282e-15
6.87205e-11
4.14561e-09
3.70993e-15
8.75953e-11
4.03861e-09
3.8144e-15
1.06759e-10
3.91225e-09
3.9219e-15
1.2611e-10
3.76647e-09
4.04762e-15
1.45537e-10
3.60131e-09
4.18547e-15
1.64907e-10
3.41698e-09
4.34109e-15
1.84075e-10
3.21385e-09
4.51103e-15
2.02874e-10
2.99247e-09
4.69267e-15
2.21118e-10
2.7536e-09
4.8821e-15
2.38598e-10
2.49825e-09
5.07327e-15
2.55079e-10
2.22767e-09
5.26704e-15
2.70299e-10
1.94342e-09
5.46166e-15
2.83962e-10
1.64739e-09
5.67017e-15
2.95735e-10
1.34185e-09
5.90295e-15
3.05242e-10
1.02949e-09
6.16522e-15
3.12052e-10
7.13501e-10
6.45091e-15
3.15673e-10
3.97646e-10
6.74875e-15
3.1553e-10
8.63427e-11
7.03575e-15
3.10967e-10
-2.15024e-10
7.25207e-15
3.01021e-10
-5.00062e-10
7.42289e-15
2.84682e-10
-7.61399e-10
7.64232e-15
2.60974e-10
-9.90578e-10
7.91208e-15
2.28807e-10
-1.17772e-09
8.21483e-15
1.86755e-10
-1.31118e-09
8.53671e-15
1.3307e-10
-1.37797e-09
8.90246e-15
6.63819e-11
-1.36434e-09
9.34651e-15
-1.40524e-11
-1.25801e-09
9.89803e-15
-1.06769e-10
-1.05226e-09
1.06036e-14
-2.06211e-10
-7.54961e-10
1.14086e-14
-2.97798e-10
-4.08976e-10
1.201e-14
-3.46522e-10
-1.17024e-10
1.23629e-14
-2.92555e-10
5.65002e-15
-1.17688e-10
3.33823e-10
-3.34098e-10
8.37268e-10
-5.03896e-10
1.26528e-09
-4.28403e-10
1.51425e-09
-2.49316e-10
1.58079e-09
-6.68486e-11
1.48946e-09
9.10364e-11
1.27015e-09
2.1904e-10
9.49994e-10
3.19889e-10
5.51026e-10
3.98702e-10
9.06011e-11
4.60155e-10
-4.17475e-10
5.07803e-10
-9.62384e-10
5.44638e-10
-1.53603e-09
5.7338e-10
-2.13219e-09
5.95899e-10
-2.746e-09
6.13566e-10
-3.37366e-09
6.27411e-10
-4.01209e-09
6.38209e-10
-4.65885e-09
6.46538e-10
-5.31189e-09
6.52834e-10
-5.9695e-09
6.57416e-10
-6.63021e-09
6.6052e-10
-7.29271e-09
6.62316e-10
-7.9558e-09
6.62921e-10
-8.61839e-09
6.62416e-10
-9.27941e-09
6.60853e-10
-9.93784e-09
6.58263e-10
-1.05927e-08
6.54658e-10
-1.12429e-08
6.50044e-10
-1.18875e-08
6.44416e-10
-1.25254e-08
6.37769e-10
-1.31557e-08
6.30094e-10
-1.37772e-08
6.21383e-10
-1.4389e-08
6.11631e-10
-1.49901e-08
6.00835e-10
-1.55792e-08
5.88998e-10
-1.61555e-08
5.76126e-10
-1.67179e-08
5.62231e-10
-1.72654e-08
5.47332e-10
-1.7797e-08
5.31452e-10
-1.83118e-08
5.1462e-10
-1.88088e-08
4.96871e-10
-1.92872e-08
4.78245e-10
-1.97462e-08
4.58787e-10
-2.01849e-08
4.38547e-10
-2.06026e-08
4.17577e-10
-2.09987e-08
3.95936e-10
-2.13725e-08
3.73684e-10
-2.17235e-08
3.50882e-10
-2.20512e-08
3.27596e-10
-2.23553e-08
3.03893e-10
-2.26352e-08
2.79839e-10
-2.28909e-08
2.55503e-10
-2.3122e-08
2.30951e-10
-2.33284e-08
2.06252e-10
-2.351e-08
1.81471e-10
-2.36668e-08
1.56675e-10
-2.37989e-08
1.31928e-10
-2.39063e-08
1.07292e-10
-2.39893e-08
8.28302e-11
-2.4048e-08
5.86001e-11
-2.40828e-08
3.46563e-11
-2.4094e-08
1.10497e-11
-2.40819e-08
-1.21751e-11
-2.40471e-08
-3.49829e-11
-2.39899e-08
-5.73399e-11
-2.39108e-08
-7.92088e-11
-2.38104e-08
-1.00551e-10
-2.36892e-08
-1.21328e-10
-2.35478e-08
-1.4151e-10
-2.33869e-08
-1.61066e-10
-2.32071e-08
-1.79973e-10
-2.3009e-08
-1.9821e-10
-2.27934e-08
-2.15758e-10
-2.25609e-08
-2.32604e-10
-2.23123e-08
-2.48735e-10
-2.20483e-08
-2.64141e-10
-2.17696e-08
-2.78815e-10
-2.1477e-08
-2.92753e-10
-2.11712e-08
-3.05952e-10
-2.08529e-08
-3.18412e-10
-2.05229e-08
-3.30134e-10
-2.01819e-08
-3.41122e-10
-1.98306e-08
-3.51381e-10
-1.94698e-08
-3.60918e-10
-1.91002e-08
-3.69741e-10
-1.87225e-08
-3.77861e-10
-1.83373e-08
-3.85287e-10
-1.79454e-08
-3.92032e-10
-1.75475e-08
-3.9811e-10
-1.71441e-08
-4.03536e-10
-1.67359e-08
-4.08324e-10
-1.63235e-08
-4.1249e-10
-1.59076e-08
-4.16053e-10
-1.54887e-08
-4.1903e-10
-1.50674e-08
-4.21438e-10
-1.46443e-08
-4.23298e-10
-1.42198e-08
-4.24628e-10
-1.37945e-08
-4.25449e-10
-1.33689e-08
-4.2578e-10
-1.29434e-08
-4.25643e-10
-1.25185e-08
-4.25058e-10
-1.20946e-08
-4.24046e-10
-1.16721e-08
-4.22629e-10
-1.12514e-08
-4.20828e-10
-1.08329e-08
-4.18664e-10
-1.04169e-08
-4.16158e-10
-1.00037e-08
-4.13332e-10
-9.59368e-09
-4.10207e-10
-9.18704e-09
-4.06803e-10
-8.78407e-09
-4.03142e-10
-8.38499e-09
-3.99244e-10
-7.99003e-09
-3.95128e-10
-7.59938e-09
-3.90815e-10
-7.21323e-09
-3.86322e-10
-6.83174e-09
-3.81669e-10
-6.45504e-09
-3.76874e-10
-6.08327e-09
-3.71953e-10
-5.71653e-09
-3.66923e-10
-5.35491e-09
-3.61799e-10
-4.9985e-09
-3.56596e-10
-4.64736e-09
-3.51327e-10
-4.30154e-09
-3.46006e-10
-3.96109e-09
-3.40643e-10
-3.62604e-09
-3.35248e-10
-3.2964e-09
-3.2983e-10
-2.9722e-09
-3.24397e-10
-2.65345e-09
-3.18954e-10
-2.34014e-09
-3.13507e-10
-2.03229e-09
-3.08059e-10
-1.72989e-09
-3.0261e-10
-1.43293e-09
-2.97163e-10
-1.14143e-09
-2.91717e-10
-8.55368e-10
-2.86273e-10
-5.74742e-10
-2.80843e-10
-2.995e-10
-2.7546e-10
-2.96162e-11
-2.70105e-10
2.3476e-10
-2.64599e-10
4.93449e-10
-2.58914e-10
7.46365e-10
-2.53141e-10
9.93403e-10
-2.47264e-10
1.23444e-09
-2.41265e-10
1.46933e-09
-2.35118e-10
1.6979e-09
-2.28797e-10
1.91994e-09
-2.22273e-10
2.13522e-09
-2.15515e-10
2.34348e-09
-2.08492e-10
2.54442e-09
-2.01172e-10
2.7377e-09
-1.93521e-10
2.92297e-09
-1.85506e-10
3.09983e-09
-1.77092e-10
3.26784e-09
-1.68247e-10
3.42653e-09
-1.58937e-10
3.57542e-09
-1.4913e-10
3.71398e-09
-1.38796e-10
3.84164e-09
-1.27908e-10
3.95783e-09
-1.1644e-10
4.06196e-09
-1.0437e-10
4.15339e-09
-9.16815e-11
4.2315e-09
-7.83612e-11
4.29565e-09
-6.44027e-11
4.34521e-09
-4.98073e-11
4.37954e-09
-3.45855e-11
4.39804e-09
-1.87594e-11
4.40015e-09
-2.36857e-12
4.38529e-09
1.45959e-11
4.35289e-09
3.21347e-11
4.30243e-09
5.01849e-11
4.23348e-09
6.86844e-11
4.14564e-09
8.75589e-11
4.03864e-09
1.06722e-10
3.91229e-09
1.26073e-10
3.7665e-09
1.45499e-10
3.60134e-09
1.64869e-10
3.41701e-09
1.84037e-10
3.21388e-09
2.02835e-10
2.9925e-09
2.21079e-10
2.75363e-09
2.38558e-10
2.49828e-09
2.55038e-10
2.2277e-09
2.70257e-10
1.94345e-09
2.8392e-10
1.64742e-09
2.95692e-10
1.34187e-09
3.05198e-10
1.02951e-09
3.12007e-10
7.13519e-10
3.15627e-10
3.97661e-10
3.15483e-10
8.63559e-11
3.10919e-10
-2.15013e-10
3.00971e-10
-5.00052e-10
2.84632e-10
-7.61391e-10
2.60923e-10
-9.90573e-10
2.28754e-10
-1.17771e-09
1.867e-10
-1.31118e-09
1.33012e-10
-1.37797e-09
6.63214e-11
-1.36434e-09
-1.41161e-11
-1.25801e-09
-1.06836e-10
-1.05227e-09
-2.06282e-10
-7.54975e-10
-2.97874e-10
-4.09004e-10
-3.46603e-10
-1.17076e-10
-2.92643e-10
-1.17774e-10
5.03545e-10
4.92542e-14
-8.38383e-10
8.31835e-10
1.27145e-14
-8.3293e-10
9.72974e-10
3.83681e-15
-5.69906e-10
9.73311e-10
1.13089e-15
-2.49928e-10
8.53389e-10
1.18368e-15
5.28351e-11
6.30199e-10
1.55292e-15
3.14004e-10
3.19632e-10
1.66289e-15
5.29389e-10
-6.38068e-11
1.51695e-15
7.03113e-10
-5.07019e-10
1.22821e-15
8.41698e-10
-9.98747e-10
9.02249e-16
9.51667e-10
-1.52982e-09
5.50186e-16
1.03866e-09
-2.09272e-09
1.96568e-16
1.10733e-09
-2.68122e-09
-9.39891e-17
1.16167e-09
-3.29022e-09
-2.91836e-16
1.2047e-09
-3.9156e-09
-4.11558e-16
1.23875e-09
-4.55397e-09
-4.73647e-16
1.26561e-09
-5.20256e-09
-4.85857e-16
1.28663e-09
-5.85906e-09
-4.55616e-16
1.30287e-09
-6.52151e-09
-3.93874e-16
1.31512e-09
-7.18822e-09
-3.11421e-16
1.32398e-09
-7.85774e-09
-2.15737e-16
1.32989e-09
-8.52875e-09
-1.13544e-16
1.33318e-09
-9.20005e-09
-1.50355e-17
1.33408e-09
-9.87051e-09
6.63996e-17
1.33274e-09
-1.05391e-08
1.17046e-16
1.32927e-09
-1.12047e-08
1.2953e-16
1.32375e-09
-1.18664e-08
1.02877e-16
1.31619e-09
-1.25231e-08
4.50552e-17
1.30662e-09
-1.31738e-08
-3.28767e-17
1.29503e-09
-1.38176e-08
-1.18017e-16
1.28142e-09
-1.44534e-08
-2.01041e-16
1.26577e-09
-1.50803e-08
-2.74739e-16
1.24807e-09
-1.56971e-08
-3.34883e-16
1.22831e-09
-1.63029e-08
-3.79358e-16
1.20649e-09
-1.68967e-08
-4.08166e-16
1.18262e-09
-1.74774e-08
-4.21766e-16
1.1567e-09
-1.80441e-08
-4.21622e-16
1.12877e-09
-1.85957e-08
-4.09307e-16
1.09885e-09
-1.91314e-08
-3.86826e-16
1.067e-09
-1.96502e-08
-3.56132e-16
1.03326e-09
-2.01511e-08
-3.19771e-16
9.97716e-10
-2.06334e-08
-2.79912e-16
9.60433e-10
-2.10963e-08
-2.39132e-16
9.215e-10
-2.15389e-08
-2.0003e-16
8.81015e-10
-2.19605e-08
-1.64804e-16
8.39081e-10
-2.23605e-08
-1.3554e-16
7.95809e-10
-2.27382e-08
-1.13133e-16
7.51315e-10
-2.30932e-08
-9.82057e-17
7.05723e-10
-2.34248e-08
-9.08947e-17
6.59159e-10
-2.37328e-08
-9.05219e-17
6.11752e-10
-2.40167e-08
-9.61659e-17
5.63634e-10
-2.42763e-08
-1.06878e-16
5.14936e-10
-2.45112e-08
-1.21737e-16
4.65793e-10
-2.47214e-08
-1.39522e-16
4.16335e-10
-2.49067e-08
-1.59367e-16
3.66693e-10
-2.50672e-08
-1.80297e-16
3.16997e-10
-2.52027e-08
-2.0109e-16
2.6737e-10
-2.53135e-08
-2.21151e-16
2.17936e-10
-2.53996e-08
-2.3945e-16
1.68813e-10
-2.54612e-08
-2.5558e-16
1.20113e-10
-2.54986e-08
-2.68756e-16
7.19437e-11
-2.55121e-08
-2.78706e-16
2.44056e-11
-2.55019e-08
-2.86921e-16
-2.24099e-11
-2.54686e-08
-2.93592e-16
-6.84212e-11
-2.54125e-08
-2.97551e-16
-1.13549e-10
-2.53341e-08
-3.00236e-16
-1.57715e-10
-2.52339e-08
-3.02e-16
-2.00848e-10
-2.51125e-08
-3.03168e-16
-2.42879e-10
-2.49704e-08
-3.0363e-16
-2.83747e-10
-2.48081e-08
-3.03686e-16
-3.23398e-10
-2.46264e-08
-3.03038e-16
-3.61783e-10
-2.44259e-08
-3.01007e-16
-3.98862e-10
-2.42071e-08
-2.9781e-16
-4.34597e-10
-2.39709e-08
-2.9231e-16
-4.68959e-10
-2.37178e-08
-2.8456e-16
-5.01923e-10
-2.34486e-08
-2.74343e-16
-5.33469e-10
-2.31639e-08
-2.61795e-16
-5.63583e-10
-2.28645e-08
-2.46944e-16
-5.92254e-10
-2.25511e-08
-2.30168e-16
-6.19477e-10
-2.22244e-08
-2.12226e-16
-6.4525e-10
-2.1885e-08
-1.93553e-16
-6.69574e-10
-2.15338e-08
-1.75124e-16
-6.92456e-10
-2.11714e-08
-1.57129e-16
-7.13906e-10
-2.07984e-08
-1.40434e-16
-7.33934e-10
-2.04157e-08
-1.25258e-16
-7.52557e-10
-2.00239e-08
-1.11924e-16
-7.69792e-10
-1.96236e-08
-1.00326e-16
-7.85661e-10
-1.92156e-08
-9.05705e-17
-8.00186e-10
-1.88004e-08
-8.27125e-17
-8.13391e-10
-1.83787e-08
-7.61556e-17
-8.25305e-10
-1.79512e-08
-7.11166e-17
-8.35957e-10
-1.75184e-08
-6.72702e-17
-8.45376e-10
-1.7081e-08
-6.40201e-17
-8.53594e-10
-1.66395e-08
-6.10953e-17
-8.60646e-10
-1.61945e-08
-5.83872e-17
-8.66565e-10
-1.57465e-08
-5.54624e-17
-8.71388e-10
-1.52961e-08
-5.28085e-17
-8.75151e-10
-1.48437e-08
-4.99919e-17
-8.77892e-10
-1.439e-08
-4.69043e-17
-8.79648e-10
-1.39353e-08
-4.33287e-17
-8.80458e-10
-1.34801e-08
-3.96446e-17
-8.80363e-10
-1.30249e-08
-3.56893e-17
-8.79401e-10
-1.257e-08
-3.19508e-17
-8.77613e-10
-1.21159e-08
-2.79411e-17
-8.75038e-10
-1.1663e-08
-2.37687e-17
-8.71717e-10
-1.12115e-08
-1.93251e-17
-8.6769e-10
-1.0762e-08
-1.50439e-17
-8.62998e-10
-1.03146e-08
-1.07626e-17
-8.57679e-10
-9.8698e-09
-6.75217e-18
-8.51775e-10
-9.42775e-09
-3.28365e-18
-8.45323e-10
-8.98875e-09
-3.17762e-20
-8.38363e-10
-8.55307e-09
2.19032e-18
-8.30933e-10
-8.12095e-09
4.08738e-18
-8.23069e-10
-7.69259e-09
4.79205e-18
-8.14809e-10
-7.26821e-09
4.95486e-18
-8.06187e-10
-6.84797e-09
4.35899e-18
-7.97238e-10
-6.43207e-09
2.62497e-18
-7.87994e-10
-6.02064e-09
1.86495e-19
-7.78488e-10
-5.61383e-09
-3.28169e-18
-7.68749e-10
-5.21175e-09
-7.61694e-18
-7.58806e-10
-4.81454e-09
-1.21145e-17
-7.48684e-10
-4.42228e-09
-1.72623e-17
-7.38409e-10
-4.03506e-09
-2.2464e-17
-7.28003e-10
-3.65297e-09
-2.78281e-17
-7.17486e-10
-3.27607e-09
-3.36797e-17
-7.06875e-10
-2.90443e-09
-3.97479e-17
-6.96187e-10
-2.5381e-09
-4.59783e-17
-6.85432e-10
-2.17714e-09
-5.2588e-17
-6.74622e-10
-1.82158e-09
-5.95226e-17
-6.63764e-10
-1.47149e-09
-6.78122e-17
-6.52862e-10
-1.12689e-09
-7.66978e-17
-6.4192e-10
-7.87819e-10
-8.55832e-17
-6.30941e-10
-4.54319e-10
-9.44142e-17
-6.19933e-10
-1.26405e-10
-1.04329e-16
-6.08917e-10
1.95802e-10
-1.17062e-16
-5.97829e-10
5.12111e-10
-1.32776e-16
-5.86579e-10
8.22432e-10
-1.50875e-16
-5.75085e-10
1.12668e-09
-1.67998e-16
-5.63328e-10
1.42471e-09
-1.84416e-16
-5.51342e-10
1.71637e-09
-2.00564e-16
-5.39093e-10
2.00148e-09
-2.16441e-16
-5.26543e-10
2.27984e-09
-2.31775e-16
-5.13645e-10
2.55122e-09
-2.4673e-16
-5.00344e-10
2.81536e-09
-2.61903e-16
-4.86583e-10
3.07197e-09
-2.76262e-16
-4.72302e-10
3.32074e-09
-2.90947e-16
-4.57437e-10
3.56132e-09
-3.05307e-16
-4.41921e-10
3.79331e-09
-3.18692e-16
-4.25686e-10
4.01629e-09
-3.32024e-16
-4.08664e-10
4.2298e-09
-3.44054e-16
-3.90785e-10
4.43336e-09
-3.55761e-16
-3.71979e-10
4.62642e-09
-3.66167e-16
-3.52179e-10
4.80843e-09
-3.75761e-16
-3.31317e-10
4.97879e-09
-3.84489e-16
-3.09332e-10
5.13686e-09
-3.91592e-16
-2.86163e-10
5.28199e-09
-3.97395e-16
-2.61757e-10
5.41351e-09
-4.02495e-16
-2.36068e-10
5.5307e-09
-4.06405e-16
-2.09055e-10
5.63284e-09
-4.0999e-16
-1.8069e-10
5.7192e-09
-4.12819e-16
-1.50953e-10
5.78904e-09
-4.15759e-16
-1.19841e-10
5.84163e-09
-4.17996e-16
-8.73615e-11
5.87621e-09
-4.20832e-16
-5.35418e-11
5.89208e-09
-4.23344e-16
-1.84254e-11
5.88852e-09
-4.26392e-16
1.7954e-11
5.8649e-09
-4.30536e-16
5.55505e-11
5.82061e-09
-4.34251e-16
9.4271e-11
5.75509e-09
-4.37862e-16
1.33998e-10
5.66786e-09
-4.40502e-16
1.74588e-10
5.5585e-09
-4.43038e-16
2.15871e-10
5.4267e-09
-4.43303e-16
2.5765e-10
5.27229e-09
-4.41837e-16
2.99695e-10
5.09519e-09
-4.37667e-16
3.41745e-10
4.8955e-09
-4.31659e-16
3.83503e-10
4.67348e-09
-4.25007e-16
4.24631e-10
4.42957e-09
-4.18903e-16
4.64751e-10
4.16445e-09
-4.15407e-16
5.03437e-10
3.87903e-09
-4.15062e-16
5.40213e-10
3.5745e-09
-4.18844e-16
5.74542e-10
3.25234e-09
-4.25233e-16
6.05825e-10
2.91438e-09
-4.30979e-16
6.33386e-10
2.56285e-09
-4.33802e-16
6.56462e-10
2.20039e-09
-4.33594e-16
6.74189e-10
1.83015e-09
-4.34474e-16
6.85582e-10
1.45583e-09
-4.42512e-16
6.89501e-10
1.0818e-09
-4.64429e-16
6.84643e-10
7.13076e-10
-4.94802e-16
6.69385e-10
3.55453e-10
-5.19749e-16
6.41931e-10
1.56547e-11
-5.37745e-16
6.00388e-10
-2.98334e-10
-5.53551e-16
5.42399e-10
-5.77451e-10
-5.71054e-16
4.6546e-10
-8.11771e-10
-5.90144e-16
3.66961e-10
-9.90293e-10
-5.97267e-16
2.44456e-10
-1.10115e-09
-5.61891e-16
9.63292e-11
-1.13207e-09
-4.62589e-16
-7.63462e-11
-1.07176e-09
-2.92847e-16
-2.67063e-10
-9.11517e-10
2.0988e-18
-4.58643e-10
-6.46903e-10
3.91112e-16
-6.11831e-10
-2.938e-10
7.2521e-16
-6.46522e-10
-5.60998e-15
-4.12089e-10
5.03432e-10
-8.3849e-10
8.31777e-10
-8.32986e-10
9.72935e-10
-5.69927e-10
9.73279e-10
-2.49938e-10
8.53361e-10
5.28276e-11
6.30175e-10
3.13997e-10
3.19614e-10
5.29383e-10
-6.38197e-11
7.03107e-10
-5.07027e-10
8.41693e-10
-9.98749e-10
9.51662e-10
-1.52981e-09
1.03865e-09
-2.09271e-09
1.10733e-09
-2.6812e-09
1.16167e-09
-3.2902e-09
1.2047e-09
-3.91558e-09
1.23875e-09
-4.55395e-09
1.2656e-09
-5.20254e-09
1.28663e-09
-5.85903e-09
1.30287e-09
-6.52147e-09
1.31512e-09
-7.18819e-09
1.32398e-09
-7.8577e-09
1.32989e-09
-8.52871e-09
1.33318e-09
-9.2e-09
1.33407e-09
-9.87046e-09
1.33274e-09
-1.0539e-08
1.32927e-09
-1.12046e-08
1.32374e-09
-1.18663e-08
1.31619e-09
-1.2523e-08
1.30662e-09
-1.31738e-08
1.29503e-09
-1.38176e-08
1.28142e-09
-1.44534e-08
1.26577e-09
-1.50802e-08
1.24807e-09
-1.5697e-08
1.22831e-09
-1.63028e-08
1.20649e-09
-1.68966e-08
1.18262e-09
-1.74773e-08
1.1567e-09
-1.8044e-08
1.12877e-09
-1.85956e-08
1.09885e-09
-1.91313e-08
1.067e-09
-1.96501e-08
1.03326e-09
-2.0151e-08
9.97714e-10
-2.06334e-08
9.60431e-10
-2.10962e-08
9.21498e-10
-2.15388e-08
8.81013e-10
-2.19604e-08
8.39079e-10
-2.23604e-08
7.95806e-10
-2.27381e-08
7.51313e-10
-2.30931e-08
7.05721e-10
-2.34247e-08
6.59157e-10
-2.37327e-08
6.1175e-10
-2.40166e-08
5.63631e-10
-2.42762e-08
5.14934e-10
-2.45111e-08
4.6579e-10
-2.47213e-08
4.16332e-10
-2.49066e-08
3.66691e-10
-2.50671e-08
3.16994e-10
-2.52026e-08
2.67368e-10
-2.53134e-08
2.17934e-10
-2.53995e-08
1.6881e-10
-2.54611e-08
1.2011e-10
-2.54985e-08
7.19408e-11
-2.5512e-08
2.44026e-11
-2.55019e-08
-2.24129e-11
-2.54685e-08
-6.84243e-11
-2.54124e-08
-1.13552e-10
-2.5334e-08
-1.57719e-10
-2.52338e-08
-2.00851e-10
-2.51124e-08
-2.42883e-10
-2.49703e-08
-2.83751e-10
-2.4808e-08
-3.23402e-10
-2.46263e-08
-3.61787e-10
-2.44258e-08
-3.98865e-10
-2.42071e-08
-4.346e-10
-2.39708e-08
-4.68962e-10
-2.37177e-08
-5.01926e-10
-2.34485e-08
-5.33472e-10
-2.31638e-08
-5.63586e-10
-2.28644e-08
-5.92258e-10
-2.2551e-08
-6.19481e-10
-2.22243e-08
-6.45253e-10
-2.18849e-08
-6.69578e-10
-2.15337e-08
-6.9246e-10
-2.11713e-08
-7.13909e-10
-2.07984e-08
-7.33938e-10
-2.04157e-08
-7.52561e-10
-2.00238e-08
-7.69796e-10
-1.96236e-08
-7.85665e-10
-1.92155e-08
-8.00189e-10
-1.88003e-08
-8.13395e-10
-1.83787e-08
-8.25309e-10
-1.79511e-08
-8.35961e-10
-1.75184e-08
-8.4538e-10
-1.70809e-08
-8.53598e-10
-1.66394e-08
-8.6065e-10
-1.61944e-08
-8.66569e-10
-1.57464e-08
-8.71392e-10
-1.5296e-08
-8.75155e-10
-1.48437e-08
-8.77896e-10
-1.43899e-08
-8.79652e-10
-1.39352e-08
-8.80463e-10
-1.348e-08
-8.80367e-10
-1.30248e-08
-8.79405e-10
-1.25699e-08
-8.77617e-10
-1.21158e-08
-8.75042e-10
-1.16629e-08
-8.71721e-10
-1.12115e-08
-8.67694e-10
-1.07619e-08
-8.63002e-10
-1.03146e-08
-8.57684e-10
-9.86975e-09
-8.51779e-10
-9.42769e-09
-8.45328e-10
-8.9887e-09
-8.38368e-10
-8.55302e-09
-8.30938e-10
-8.1209e-09
-8.23074e-10
-7.69254e-09
-8.14814e-10
-7.26816e-09
-8.06192e-10
-6.84793e-09
-7.97243e-10
-6.43202e-09
-7.87999e-10
-6.02059e-09
-7.78493e-10
-5.61378e-09
-7.68754e-10
-5.21171e-09
-7.58811e-10
-4.81449e-09
-7.48689e-10
-4.42223e-09
-7.38414e-10
-4.03502e-09
-7.28008e-10
-3.65292e-09
-7.17491e-10
-3.27603e-09
-7.06881e-10
-2.90439e-09
-6.96192e-10
-2.53806e-09
-6.85438e-10
-2.17709e-09
-6.74628e-10
-1.82154e-09
-6.63769e-10
-1.47145e-09
-6.52867e-10
-1.12685e-09
-6.41925e-10
-7.87779e-10
-6.30947e-10
-4.54279e-10
-6.19938e-10
-1.26366e-10
-6.08923e-10
1.9584e-10
-5.97835e-10
5.1215e-10
-5.86585e-10
8.2247e-10
-5.75091e-10
1.12672e-09
-5.63333e-10
1.42475e-09
-5.51347e-10
1.71641e-09
-5.39098e-10
2.00152e-09
-5.26549e-10
2.27988e-09
-5.1365e-10
2.55125e-09
-5.0035e-10
2.81539e-09
-4.86589e-10
3.07201e-09
-4.72308e-10
3.32078e-09
-4.57443e-10
3.56135e-09
-4.41926e-10
3.79334e-09
-4.25692e-10
4.01632e-09
-4.0867e-10
4.22984e-09
-3.90791e-10
4.43339e-09
-3.71985e-10
4.62646e-09
-3.52185e-10
4.80847e-09
-3.31324e-10
4.97882e-09
-3.09338e-10
5.1369e-09
-2.86169e-10
5.28203e-09
-2.61764e-10
5.41354e-09
-2.36074e-10
5.53073e-09
-2.09061e-10
5.63287e-09
-1.80696e-10
5.71924e-09
-1.50959e-10
5.78908e-09
-1.19847e-10
5.84166e-09
-8.73675e-11
5.87625e-09
-5.35477e-11
5.89211e-09
-1.84312e-11
5.88855e-09
1.79483e-11
5.86494e-09
5.55448e-11
5.82065e-09
9.42654e-11
5.75513e-09
1.33992e-10
5.66789e-09
1.74582e-10
5.55853e-09
2.15866e-10
5.42674e-09
2.57645e-10
5.27232e-09
2.9969e-10
5.09522e-09
3.41741e-10
4.89553e-09
3.83498e-10
4.67351e-09
4.24626e-10
4.4296e-09
4.64747e-10
4.16448e-09
5.03433e-10
3.87906e-09
5.40208e-10
3.57452e-09
5.74538e-10
3.25236e-09
6.05821e-10
2.9144e-09
6.33381e-10
2.56287e-09
6.56458e-10
2.20041e-09
6.74185e-10
1.83016e-09
6.85578e-10
1.45585e-09
6.89497e-10
1.08182e-09
6.84639e-10
7.13088e-10
6.6938e-10
3.55464e-10
6.41926e-10
1.56634e-11
6.00383e-10
-2.98327e-10
5.42393e-10
-5.77446e-10
4.65453e-10
-8.11767e-10
3.66953e-10
-9.90291e-10
2.44445e-10
-1.10115e-09
9.63169e-11
-1.13207e-09
-7.63611e-11
-1.07177e-09
-2.67081e-10
-9.11525e-10
-4.58665e-10
-6.46925e-10
-6.11857e-10
-2.93858e-10
-6.46553e-10
-4.12119e-10
4.13439e-10
3.02577e-14
-1.25218e-09
5.50443e-10
1.10054e-14
-9.7035e-10
5.17432e-10
6.31446e-15
-5.37029e-10
3.81564e-10
3.43824e-15
-1.14155e-10
1.6678e-10
2.32694e-15
2.67539e-10
-1.15604e-10
1.86249e-15
5.96317e-10
-4.57805e-10
1.59428e-15
8.71522e-10
-8.52672e-10
1.32544e-15
1.09791e-09
-1.29328e-09
1.10122e-15
1.28224e-09
-1.77309e-09
9.28341e-16
1.43141e-09
-2.28617e-09
7.0422e-16
1.55168e-09
-2.82731e-09
4.4731e-16
1.64841e-09
-3.39185e-09
2.57411e-16
1.72615e-09
-3.97575e-09
1.59024e-16
1.78855e-09
-4.5756e-09
1.03576e-16
1.83854e-09
-5.18845e-09
5.47996e-17
1.8784e-09
-5.81179e-09
1.844e-17
1.90992e-09
-6.44347e-09
1.0706e-17
1.9345e-09
-7.08161e-09
3.31422e-17
1.95322e-09
-7.72458e-09
7.0976e-17
1.9669e-09
-8.3709e-09
1.07809e-16
1.97617e-09
-9.01924e-09
1.33882e-16
1.98148e-09
-9.66838e-09
1.45836e-16
1.98317e-09
-1.03172e-08
1.43046e-16
1.98148e-09
-1.09645e-08
1.24725e-16
1.97657e-09
-1.16093e-08
9.14174e-17
1.96853e-09
-1.22506e-08
4.5046e-17
1.95743e-09
-1.28873e-08
-1.00792e-17
1.94331e-09
-1.35185e-08
-6.82661e-17
1.92615e-09
-1.41431e-08
-1.23335e-16
1.90596e-09
-1.47601e-08
-1.69892e-16
1.88273e-09
-1.53685e-08
-2.04169e-16
1.85645e-09
-1.59673e-08
-2.24079e-16
1.8271e-09
-1.65556e-08
-2.29298e-16
1.7947e-09
-1.71323e-08
-2.21207e-16
1.75924e-09
-1.76964e-08
-2.01921e-16
1.72076e-09
-1.82469e-08
-1.7396e-16
1.67928e-09
-1.8783e-08
-1.40767e-16
1.63487e-09
-1.93036e-08
-1.04918e-16
1.58759e-09
-1.98079e-08
-6.96092e-17
1.53753e-09
-2.0295e-08
-3.68752e-17
1.48477e-09
-2.07641e-08
-8.53144e-18
1.42944e-09
-2.12143e-08
1.45545e-17
1.37167e-09
-2.16449e-08
3.18948e-17
1.31158e-09
-2.20552e-08
4.36791e-17
1.24933e-09
-2.24445e-08
5.05037e-17
1.18509e-09
-2.28123e-08
5.31681e-17
1.11903e-09
-2.31579e-08
5.27024e-17
1.05132e-09
-2.34809e-08
4.99196e-17
9.82147e-10
-2.37809e-08
4.53483e-17
9.11702e-10
-2.40575e-08
3.97745e-17
8.40177e-10
-2.43104e-08
3.33066e-17
7.67767e-10
-2.45393e-08
2.63917e-17
6.94665e-10
-2.47441e-08
1.92874e-17
6.21067e-10
-2.49246e-08
1.20614e-17
5.47162e-10
-2.50807e-08
5.24219e-18
4.73141e-10
-2.52126e-08
-9.3981e-19
3.99187e-10
-2.53202e-08
-6.2407e-18
3.2548e-10
-2.54036e-08
-1.04843e-17
2.52194e-10
-2.5463e-08
-1.36571e-17
1.79493e-10
-2.54987e-08
-1.561e-17
1.07536e-10
-2.55108e-08
-1.65599e-17
3.64717e-11
-2.54996e-08
-1.66695e-17
-3.35615e-11
-2.54657e-08
-1.602e-17
-1.02433e-10
-2.54092e-08
-1.46793e-17
-1.70019e-10
-2.53308e-08
-1.28641e-17
-2.36204e-10
-2.52308e-08
-1.05339e-17
-3.00882e-10
-2.51098e-08
-7.74286e-18
-3.63953e-10
-2.49682e-08
-4.35547e-18
-4.25327e-10
-2.48067e-08
-2.22661e-19
-4.84923e-10
-2.46259e-08
4.8724e-18
-5.4267e-10
-2.44263e-08
1.09026e-17
-5.98503e-10
-2.42085e-08
1.81525e-17
-6.5237e-10
-2.39733e-08
2.65951e-17
-7.04223e-10
-2.37212e-08
3.62168e-17
-7.54025e-10
-2.3453e-08
4.7031e-17
-8.01745e-10
-2.31693e-08
5.87669e-17
-8.47359e-10
-2.28707e-08
7.11261e-17
-8.9085e-10
-2.2558e-08
8.37293e-17
-9.32209e-10
-2.22319e-08
9.64138e-17
-9.71431e-10
-2.18929e-08
1.08746e-16
-1.00852e-09
-2.1542e-08
1.20292e-16
-1.04348e-09
-2.11796e-08
1.31025e-16
-1.07632e-09
-2.08065e-08
1.40674e-16
-1.10706e-09
-2.04234e-08
1.49021e-16
-1.13572e-09
-2.00309e-08
1.56285e-16
-1.16233e-09
-1.96296e-08
1.62274e-16
-1.18691e-09
-1.92204e-08
1.6718e-16
-1.2095e-09
-1.88036e-08
1.71245e-16
-1.23014e-09
-1.83801e-08
1.74524e-16
-1.24885e-09
-1.79504e-08
1.77098e-16
-1.26569e-09
-1.75151e-08
1.79375e-16
-1.2807e-09
-1.70749e-08
1.81244e-16
-1.29391e-09
-1.66302e-08
1.82978e-16
-1.30539e-09
-1.61816e-08
1.84902e-16
-1.31517e-09
-1.57297e-08
1.86772e-16
-1.32332e-09
-1.5275e-08
1.8894e-16
-1.32988e-09
-1.4818e-08
1.91271e-16
-1.3349e-09
-1.43593e-08
1.93737e-16
-1.33845e-09
-1.38992e-08
1.9661e-16
-1.34057e-09
-1.34382e-08
1.99673e-16
-1.34133e-09
-1.29769e-08
2.02871e-16
-1.34078e-09
-1.25156e-08
2.06286e-16
-1.33898e-09
-1.20547e-08
2.0981e-16
-1.33598e-09
-1.15946e-08
2.13659e-16
-1.33185e-09
-1.11357e-08
2.17509e-16
-1.32664e-09
-1.06783e-08
2.21494e-16
-1.32042e-09
-1.02228e-08
2.25289e-16
-1.31323e-09
-9.76945e-09
2.29166e-16
-1.30513e-09
-9.31862e-09
2.32826e-16
-1.29619e-09
-8.87056e-09
2.36269e-16
-1.28646e-09
-8.42553e-09
2.39333e-16
-1.27599e-09
-7.9838e-09
2.42289e-16
-1.26484e-09
-7.54558e-09
2.44866e-16
-1.25306e-09
-7.1111e-09
2.47063e-16
-1.24071e-09
-6.68055e-09
2.48962e-16
-1.22782e-09
-6.25413e-09
2.50509e-16
-1.21446e-09
-5.832e-09
2.51813e-16