/*--------------------------------*- C++ -*----------------------------------*\
  =========                 |
  \\      /  F ield         | OpenFOAM: The Open Source CFD Toolbox
   \\    /   O peration     | Website:  https://openfoam.org
    \\  /    A nd           | Version:  8
     \\/     M anipulation  |
\*---------------------------------------------------------------------------*/
FoamFile
{
    version     2.0;
    format      ascii;
    class       volScalarField;
    location    "2700";
    object      T;
}
// * * * * * * * * * * * * * * * * * * * * * * * * * * * * * * * * * * * * * //

dimensions      [0 0 0 1 0 0 0];

internalField   nonuniform List<scalar> 
46000
(
310.719
309.86
309.12
308.611
308.238
307.941
307.693
307.481
307.294
307.127
306.975
306.837
306.711
306.595
306.487
306.386
306.292
306.204
306.122
306.045
305.972
305.904
305.84
305.779
305.722
305.668
305.617
305.569
305.523
305.48
305.439
305.4
305.364
305.329
305.296
305.265
305.236
305.208
305.182
305.157
305.133
305.111
305.09
305.07
305.052
305.034
305.018
305.003
304.989
304.975
304.963
304.952
304.942
304.933
304.925
304.918
304.911
304.906
304.901
304.898
304.895
304.893
304.892
304.892
304.893
304.894
304.896
304.9
304.904
304.909
304.914
304.921
304.929
304.937
304.946
304.956
304.967
304.978
304.991
305.004
305.018
305.032
305.048
305.064
305.081
305.098
305.116
305.135
305.154
305.174
305.195
305.216
305.238
305.26
305.283
305.306
305.33
305.354
305.379
305.404
305.429
305.455
305.481
305.508
305.534
305.561
305.589
305.616
305.644
305.672
305.7
305.728
305.757
305.785
305.814
305.843
305.872
305.901
305.93
305.959
305.989
306.018
306.048
306.077
306.107
306.136
306.166
306.196
306.226
306.256
306.287
306.317
306.348
306.379
306.41
306.441
306.473
306.505
306.537
306.57
306.603
306.636
306.671
306.705
306.741
306.776
306.813
306.85
306.889
306.928
306.968
307.009
307.05
307.093
307.138
307.183
307.229
307.277
307.326
307.377
307.429
307.482
307.537
307.594
307.651
307.71
307.771
307.833
307.897
307.963
308.03
308.099
308.17
308.243
308.317
308.393
308.471
308.551
308.632
308.715
308.8
308.887
308.976
309.066
309.159
309.253
309.351
309.451
309.554
309.662
309.774
309.893
310.022
310.164
310.322
310.508
310.74
311.043
311.429
311.756
310.719
309.86
309.12
308.611
308.238
307.941
307.693
307.481
307.294
307.127
306.975
306.837
306.711
306.595
306.486
306.386
306.292
306.204
306.122
306.045
305.972
305.904
305.839
305.779
305.722
305.668
305.617
305.569
305.523
305.48
305.439
305.4
305.364
305.329
305.296
305.265
305.236
305.208
305.182
305.157
305.133
305.111
305.09
305.07
305.052
305.034
305.018
305.003
304.989
304.975
304.963
304.952
304.942
304.933
304.925
304.918
304.911
304.906
304.901
304.898
304.895
304.893
304.892
304.892
304.893
304.894
304.896
304.9
304.904
304.909
304.914
304.921
304.929
304.937
304.946
304.956
304.967
304.978
304.991
305.004
305.018
305.032
305.048
305.064
305.081
305.098
305.116
305.135
305.154
305.174
305.195
305.216
305.238
305.26
305.283
305.306
305.33
305.354
305.379
305.404
305.429
305.455
305.481
305.508
305.534
305.561
305.589
305.616
305.644
305.672
305.7
305.728
305.757
305.786
305.814
305.843
305.872
305.901
305.93
305.959
305.989
306.018
306.048
306.077
306.107
306.136
306.166
306.196
306.226
306.256
306.287
306.317
306.348
306.379
306.41
306.441
306.473
306.505
306.537
306.57
306.603
306.636
306.671
306.705
306.741
306.776
306.813
306.85
306.889
306.928
306.968
307.009
307.05
307.093
307.138
307.183
307.229
307.277
307.326
307.377
307.429
307.482
307.537
307.594
307.651
307.71
307.771
307.833
307.897
307.963
308.03
308.099
308.17
308.243
308.317
308.393
308.471
308.551
308.632
308.715
308.8
308.887
308.976
309.066
309.159
309.253
309.351
309.451
309.554
309.662
309.774
309.893
310.022
310.164
310.322
310.508
310.74
311.043
311.429
311.756
307.315
306.792
306.376
306.061
305.812
305.608
305.437
305.288
305.157
305.039
304.933
304.836
304.748
304.667
304.591
304.522
304.457
304.397
304.341
304.289
304.24
304.194
304.151
304.111
304.074
304.038
304.005
303.974
303.944
303.917
303.89
303.866
303.842
303.82
303.799
303.779
303.76
303.742
303.725
303.708
303.693
303.678
303.663
303.65
303.637
303.624
303.613
303.601
303.591
303.58
303.571
303.561
303.552
303.544
303.536
303.529
303.522
303.515
303.509
303.504
303.499
303.494
303.49
303.486
303.483
303.48
303.478
303.476
303.474
303.473
303.473
303.473
303.473
303.475
303.476
303.478
303.481
303.483
303.487
303.491
303.495
303.5
303.505
303.511
303.517
303.524
303.531
303.539
303.547
303.555
303.564
303.574
303.583
303.593
303.604
303.615
303.626
303.638
303.65
303.662
303.675
303.688
303.701
303.715
303.729
303.743
303.758
303.772
303.788
303.803
303.819
303.835
303.851
303.868
303.885
303.902
303.92
303.937
303.955
303.974
303.992
304.011
304.03
304.05
304.07
304.09
304.11
304.131
304.152
304.174
304.196
304.218
304.241
304.264
304.288
304.312
304.337
304.362
304.388
304.414
304.441
304.469
304.498
304.527
304.557
304.588
304.62
304.652
304.686
304.721
304.756
304.793
304.831
304.87
304.911
304.952
304.995
305.04
305.085
305.133
305.181
305.232
305.284
305.337
305.392
305.449
305.507
305.567
305.629
305.693
305.758
305.825
305.894
305.965
306.037
306.111
306.187
306.264
306.343
306.424
306.506
306.59
306.676
306.763
306.851
306.942
307.034
307.128
307.225
307.325
307.43
307.54
307.658
307.789
307.938
308.114
308.331
308.615
308.996
309.405
307.315
306.792
306.376
306.061
305.812
305.608
305.437
305.288
305.157
305.039
304.933
304.836
304.748
304.667
304.591
304.522
304.457
304.397
304.341
304.289
304.24
304.194
304.151
304.111
304.074
304.038
304.005
303.974
303.944
303.917
303.89
303.866
303.842
303.82
303.799
303.779
303.76
303.742
303.725
303.708
303.693
303.678
303.663
303.65
303.637
303.624
303.613
303.601
303.591
303.58
303.571
303.561
303.552
303.544
303.536
303.529
303.522
303.516
303.509
303.504
303.499
303.494
303.49
303.486
303.483
303.48
303.478
303.476
303.474
303.473
303.473
303.473
303.473
303.475
303.476
303.478
303.481
303.483
303.487
303.491
303.495
303.5
303.505
303.511
303.517
303.524
303.531
303.539
303.547
303.555
303.564
303.574
303.583
303.593
303.604
303.615
303.626
303.638
303.65
303.662
303.675
303.688
303.701
303.715
303.729
303.743
303.758
303.772
303.788
303.803
303.819
303.835
303.851
303.868
303.885
303.902
303.92
303.937
303.955
303.974
303.992
304.011
304.03
304.05
304.07
304.09
304.11
304.131
304.152
304.174
304.196
304.218
304.241
304.264
304.288
304.312
304.337
304.362
304.388
304.414
304.441
304.469
304.498
304.527
304.557
304.588
304.62
304.652
304.686
304.721
304.756
304.793
304.831
304.87
304.911
304.952
304.995
305.04
305.085
305.133
305.181
305.232
305.284
305.337
305.392
305.449
305.507
305.567
305.629
305.693
305.758
305.825
305.894
305.965
306.037
306.111
306.187
306.264
306.343
306.424
306.506
306.59
306.676
306.763
306.851
306.942
307.034
307.128
307.225
307.325
307.43
307.54
307.658
307.789
307.938
308.114
308.331
308.615
308.996
309.405
305.5
305.33
305.132
304.946
304.78
304.633
304.502
304.385
304.28
304.184
304.097
304.016
303.942
303.874
303.811
303.753
303.698
303.648
303.601
303.557
303.516
303.478
303.442
303.408
303.377
303.348
303.32
303.295
303.27
303.247
303.226
303.205
303.186
303.168
303.15
303.134
303.118
303.103
303.089
303.075
303.062
303.05
303.037
303.026
303.015
303.004
302.993
302.983
302.974
302.965
302.956
302.947
302.939
302.931
302.923
302.916
302.909
302.902
302.896
302.89
302.884
302.878
302.873
302.869
302.864
302.86
302.856
302.853
302.85
302.847
302.845
302.843
302.842
302.841
302.84
302.84
302.84
302.84
302.841
302.843
302.844
302.846
302.849
302.852
302.855
302.859
302.863
302.867
302.872
302.877
302.883
302.888
302.895
302.901
302.908
302.916
302.924
302.932
302.94
302.949
302.958
302.967
302.977
302.987
302.998
303.008
303.019
303.031
303.043
303.055
303.067
303.08
303.092
303.106
303.119
303.133
303.148
303.162
303.177
303.192
303.208
303.224
303.24
303.256
303.273
303.291
303.309
303.327
303.345
303.364
303.384
303.404
303.424
303.445
303.467
303.489
303.512
303.535
303.559
303.584
303.609
303.635
303.662
303.689
303.718
303.747
303.777
303.809
303.841
303.874
303.909
303.944
303.981
304.019
304.058
304.098
304.14
304.183
304.228
304.274
304.321
304.37
304.421
304.473
304.527
304.582
304.639
304.698
304.759
304.821
304.884
304.95
305.017
305.086
305.156
305.228
305.302
305.377
305.453
305.531
305.61
305.69
305.772
305.855
305.939
306.024
306.11
306.198
306.287
306.378
306.472
306.57
306.673
306.783
306.903
307.038
307.191
307.37
307.581
307.801
305.5
305.33
305.132
304.946
304.78
304.633
304.502
304.385
304.28
304.184
304.097
304.016
303.942
303.874
303.811
303.753
303.698
303.648
303.601
303.557
303.516
303.478
303.442
303.408
303.377
303.348
303.32
303.295
303.27
303.247
303.226
303.205
303.186
303.168
303.15
303.134
303.118
303.103
303.089
303.075
303.062
303.05
303.037
303.026
303.015
303.004
302.993
302.983
302.974
302.965
302.956
302.947
302.939
302.931
302.923
302.916
302.909
302.902
302.896
302.89
302.884
302.878
302.873
302.869
302.864
302.86
302.856
302.853
302.85
302.847
302.845
302.843
302.842
302.841
302.84
302.84
302.84
302.84
302.841
302.843
302.844
302.846
302.849
302.852
302.855
302.859
302.863
302.867
302.872
302.877
302.883
302.888
302.895
302.901
302.908
302.916
302.924
302.932
302.94
302.949
302.958
302.967
302.977
302.987
302.998
303.008
303.019
303.031
303.043
303.055
303.067
303.08
303.092
303.106
303.119
303.133
303.148
303.162
303.177
303.192
303.208
303.224
303.24
303.256
303.273
303.291
303.309
303.327
303.345
303.364
303.384
303.404
303.424
303.445
303.467
303.489
303.512
303.535
303.559
303.584
303.609
303.635
303.662
303.689
303.718
303.747
303.777
303.809
303.841
303.874
303.909
303.944
303.981
304.019
304.058
304.098
304.14
304.183
304.228
304.274
304.321
304.37
304.421
304.473
304.527
304.582
304.639
304.698
304.759
304.821
304.884
304.95
305.017
305.086
305.156
305.228
305.302
305.377
305.453
305.531
305.61
305.69
305.772
305.855
305.939
306.024
306.11
306.198
306.287
306.379
306.472
306.57
306.673
306.783
306.903
307.038
307.191
307.37
307.581
307.801
304.488
304.443
304.348
304.238
304.126
304.018
303.917
303.823
303.736
303.655
303.581
303.511
303.447
303.388
303.332
303.281
303.233
303.188
303.146
303.108
303.071
303.037
303.006
302.976
302.948
302.922
302.898
302.875
302.854
302.833
302.814
302.796
302.779
302.763
302.748
302.733
302.719
302.706
302.693
302.681
302.669
302.658
302.647
302.637
302.626
302.617
302.607
302.598
302.589
302.58
302.572
302.563
302.555
302.548
302.54
302.533
302.526
302.519
302.513
302.506
302.5
302.495
302.489
302.484
302.479
302.475
302.47
302.466
302.462
302.459
302.456
302.453
302.451
302.449
302.447
302.446
302.445
302.444
302.444
302.444
302.444
302.445
302.446
302.448
302.449
302.452
302.454
302.457
302.46
302.464
302.468
302.472
302.477
302.482
302.488
302.493
302.499
302.506
302.513
302.52
302.527
302.535
302.543
302.551
302.56
302.569
302.579
302.588
302.599
302.609
302.62
302.631
302.642
302.654
302.666
302.678
302.691
302.704
302.717
302.731
302.745
302.76
302.775
302.79
302.806
302.822
302.838
302.855
302.873
302.89
302.909
302.928
302.947
302.967
302.988
303.009
303.03
303.053
303.076
303.099
303.124
303.149
303.175
303.202
303.229
303.258
303.287
303.318
303.349
303.382
303.416
303.45
303.486
303.524
303.562
303.602
303.643
303.685
303.729
303.775
303.821
303.87
303.92
303.971
304.024
304.079
304.135
304.193
304.252
304.313
304.376
304.44
304.506
304.573
304.642
304.713
304.784
304.858
304.932
305.008
305.084
305.162
305.241
305.32
305.4
305.481
305.563
305.646
305.729
305.813
305.899
305.986
306.076
306.169
306.266
306.368
306.473
306.581
306.684
306.772
304.488
304.443
304.348
304.238
304.126
304.018
303.917
303.823
303.736
303.655
303.581
303.511
303.447
303.388
303.332
303.281
303.233
303.188
303.146
303.108
303.071
303.037
303.006
302.976
302.948
302.922
302.898
302.875
302.854
302.833
302.814
302.796
302.779
302.763
302.748
302.733
302.719
302.706
302.693
302.681
302.669
302.658
302.647
302.637
302.626
302.617
302.607
302.598
302.589
302.58
302.572
302.563
302.555
302.548
302.54
302.533
302.526
302.519
302.513
302.506
302.5
302.495
302.489
302.484
302.479
302.475
302.47
302.466
302.463
302.459
302.456
302.453
302.451
302.449
302.447
302.446
302.445
302.444
302.444
302.444
302.444
302.445
302.446
302.448
302.449
302.452
302.454
302.457
302.46
302.464
302.468
302.472
302.477
302.482
302.488
302.493
302.499
302.506
302.513
302.52
302.527
302.535
302.543
302.551
302.56
302.569
302.579
302.588
302.599
302.609
302.62
302.631
302.642
302.654
302.666
302.678
302.691
302.704
302.717
302.731
302.745
302.76
302.775
302.79
302.806
302.822
302.838
302.855
302.873
302.89
302.909
302.928
302.947
302.967
302.988
303.009
303.03
303.053
303.076
303.099
303.124
303.149
303.175
303.202
303.229
303.258
303.287
303.318
303.349
303.382
303.416
303.45
303.486
303.524
303.562
303.602
303.643
303.685
303.729
303.775
303.821
303.87
303.92
303.971
304.024
304.079
304.135
304.193
304.252
304.313
304.376
304.44
304.506
304.573
304.642
304.713
304.784
304.858
304.932
305.008
305.084
305.162
305.241
305.32
305.4
305.481
305.563
305.646
305.729
305.813
305.899
305.986
306.076
306.169
306.266
306.368
306.473
306.581
306.684
306.772
303.837
303.828
303.78
303.712
303.635
303.555
303.477
303.401
303.329
303.261
303.197
303.137
303.08
303.028
302.979
302.933
302.89
302.849
302.812
302.777
302.744
302.714
302.685
302.658
302.633
302.61
302.588
302.567
302.547
302.529
302.512
302.496
302.48
302.465
302.452
302.438
302.426
302.413
302.402
302.391
302.38
302.369
302.359
302.35
302.34
302.331
302.322
302.313
302.305
302.296
302.288
302.28
302.273
302.265
302.258
302.251
302.244
302.237
302.231
302.224
302.218
302.212
302.207
302.201
302.196
302.191
302.186
302.182
302.178
302.174
302.171
302.167
302.164
302.162
302.159
302.157
302.156
302.154
302.153
302.153
302.152
302.152
302.152
302.153
302.154
302.155
302.157
302.159
302.161
302.164
302.167
302.171
302.174
302.178
302.183
302.187
302.193
302.198
302.204
302.21
302.216
302.223
302.23
302.238
302.245
302.253
302.262
302.271
302.28
302.289
302.299
302.309
302.319
302.33
302.341
302.353
302.364
302.377
302.389
302.402
302.415
302.429
302.443
302.457
302.472
302.488
302.503
302.519
302.536
302.553
302.571
302.589
302.608
302.627
302.647
302.667
302.688
302.71
302.732
302.756
302.779
302.804
302.829
302.856
302.883
302.911
302.94
302.97
303.001
303.033
303.066
303.1
303.136
303.172
303.21
303.25
303.29
303.332
303.375
303.42
303.466
303.514
303.563
303.614
303.666
303.72
303.776
303.833
303.891
303.951
304.013
304.076
304.141
304.207
304.275
304.344
304.414
304.485
304.558
304.631
304.706
304.781
304.857
304.934
305.011
305.088
305.166
305.243
305.321
305.399
305.477
305.556
305.634
305.713
305.791
305.868
305.942
306.007
306.057
306.084
303.837
303.828
303.78
303.712
303.635
303.555
303.477
303.401
303.329
303.261
303.197
303.137
303.08
303.028
302.979
302.933
302.89
302.849
302.812
302.777
302.744
302.714
302.685
302.658
302.633
302.61
302.588
302.567
302.547
302.529
302.512
302.496
302.48
302.465
302.452
302.438
302.426
302.413
302.402
302.391
302.38
302.369
302.359
302.35
302.34
302.331
302.322
302.313
302.305
302.296
302.288
302.28
302.273
302.265
302.258
302.251
302.244
302.237
302.231
302.224
302.218
302.212
302.207
302.201
302.196
302.191
302.186
302.182
302.178
302.174
302.171
302.167
302.164
302.162
302.159
302.157
302.156
302.154
302.153
302.153
302.152
302.152
302.152
302.153
302.154
302.155
302.157
302.159
302.161
302.164
302.167
302.171
302.174
302.178
302.183
302.187
302.193
302.198
302.204
302.21
302.216
302.223
302.23
302.238
302.245
302.253
302.262
302.271
302.28
302.289
302.299
302.309
302.319
302.33
302.341
302.353
302.364
302.377
302.389
302.402
302.415
302.429
302.443
302.457
302.472
302.488
302.503
302.519
302.536
302.553
302.571
302.589
302.608
302.627
302.647
302.667
302.688
302.71
302.732
302.756
302.779
302.804
302.829
302.856
302.883
302.911
302.94
302.97
303.001
303.033
303.066
303.1
303.136
303.172
303.21
303.25
303.29
303.332
303.375
303.42
303.466
303.514
303.563
303.614
303.666
303.72
303.776
303.833
303.891
303.951
304.013
304.076
304.141
304.207
304.275
304.344
304.414
304.485
304.558
304.631
304.706
304.781
304.857
304.934
305.011
305.088
305.166
305.243
305.321
305.399
305.477
305.556
305.634
305.713
305.791
305.868
305.942
306.007
306.057
306.084
303.364
303.365
303.338
303.293
303.239
303.179
303.118
303.056
302.996
302.939
302.884
302.832
302.782
302.736
302.692
302.65
302.612
302.576
302.542
302.51
302.48
302.452
302.426
302.402
302.379
302.357
302.337
302.318
302.3
302.284
302.268
302.253
302.239
302.225
302.213
302.2
302.189
302.178
302.167
302.156
302.146
302.137
302.127
302.118
302.109
302.101
302.092
302.084
302.076
302.068
302.06
302.052
302.045
302.038
302.031
302.024
302.017
302.01
302.004
301.997
301.991
301.985
301.979
301.974
301.968
301.963
301.958
301.954
301.949
301.945
301.941
301.938
301.934
301.931
301.929
301.926
301.924
301.922
301.921
301.919
301.918
301.918
301.918
301.918
301.918
301.919
301.92
301.921
301.923
301.925
301.927
301.93
301.933
301.936
301.94
301.944
301.949
301.953
301.958
301.964
301.969
301.975
301.982
301.989
301.996
302.003
302.011
302.019
302.027
302.036
302.045
302.054
302.064
302.074
302.085
302.095
302.107
302.118
302.13
302.142
302.155
302.168
302.181
302.195
302.21
302.224
302.239
302.255
302.271
302.288
302.305
302.323
302.341
302.36
302.379
302.399
302.419
302.441
302.463
302.485
302.509
302.533
302.558
302.584
302.61
302.638
302.667
302.696
302.727
302.758
302.791
302.825
302.86
302.896
302.934
302.973
303.013
303.054
303.097
303.141
303.187
303.234
303.283
303.333
303.385
303.438
303.493
303.549
303.607
303.666
303.727
303.789
303.853
303.918
303.984
304.052
304.12
304.19
304.261
304.332
304.405
304.478
304.551
304.625
304.699
304.772
304.846
304.92
304.993
305.065
305.136
305.207
305.276
305.343
305.407
305.467
305.519
305.561
305.585
305.589
303.364
303.365
303.338
303.293
303.239
303.179
303.118
303.056
302.996
302.939
302.884
302.832
302.782
302.735
302.692
302.65
302.612
302.576
302.542
302.51
302.48
302.452
302.426
302.402
302.379
302.357
302.337
302.318
302.3
302.284
302.268
302.253
302.239
302.225
302.213
302.2
302.189
302.178
302.167
302.156
302.146
302.137
302.127
302.118
302.109
302.101
302.092
302.084
302.076
302.068
302.06
302.052
302.045
302.038
302.031
302.024
302.017
302.01
302.004
301.997
301.991
301.985
301.979
301.974
301.968
301.963
301.958
301.954
301.949
301.945
301.941
301.938
301.934
301.931
301.929
301.926
301.924
301.922
301.921
301.919
301.918
301.918
301.918
301.918
301.918
301.919
301.92
301.921
301.923
301.925
301.927
301.93
301.933
301.936
301.94
301.944
301.949
301.953
301.958
301.964
301.969
301.975
301.982
301.989
301.996
302.003
302.011
302.019
302.027
302.036
302.045
302.054
302.064
302.074
302.085
302.095
302.107
302.118
302.13
302.142
302.155
302.168
302.181
302.195
302.21
302.224
302.239
302.255
302.271
302.288
302.305
302.323
302.341
302.36
302.379
302.399
302.419
302.441
302.463
302.485
302.509
302.533
302.558
302.584
302.61
302.638
302.667
302.696
302.727
302.758
302.791
302.825
302.86
302.896
302.934
302.973
303.013
303.054
303.097
303.141
303.187
303.234
303.283
303.333
303.385
303.438
303.493
303.549
303.607
303.666
303.727
303.789
303.853
303.918
303.984
304.052
304.12
304.19
304.261
304.332
304.405
304.478
304.551
304.625
304.699
304.772
304.846
304.92
304.993
305.065
305.136
305.207
305.276
305.343
305.407
305.467
305.519
305.561
305.585
305.589
302.992
302.994
302.977
302.946
302.906
302.86
302.811
302.761
302.711
302.663
302.615
302.57
302.526
302.485
302.446
302.409
302.374
302.341
302.311
302.282
302.255
302.229
302.205
302.183
302.162
302.142
302.124
302.106
302.09
302.075
302.06
302.046
302.033
302.021
302.009
301.998
301.987
301.977
301.967
301.957
301.948
301.939
301.93
301.921
301.913
301.905
301.897
301.889
301.881
301.873
301.866
301.859
301.851
301.844
301.837
301.83
301.824
301.817
301.811
301.804
301.798
301.792
301.786
301.781
301.775
301.77
301.765
301.76
301.755
301.751
301.747
301.743
301.739
301.736
301.733
301.73
301.728
301.726
301.724
301.722
301.721
301.72
301.719
301.719
301.718
301.719
301.719
301.72
301.721
301.723
301.725
301.727
301.73
301.732
301.736
301.739
301.743
301.747
301.752
301.757
301.762
301.767
301.773
301.779
301.786
301.793
301.8
301.807
301.815
301.824
301.832
301.841
301.85
301.86
301.87
301.88
301.891
301.902
301.913
301.925
301.937
301.95
301.963
301.976
301.99
302.004
302.019
302.034
302.05
302.066
302.083
302.1
302.118
302.136
302.155
302.175
302.195
302.216
302.237
302.26
302.283
302.307
302.331
302.357
302.383
302.411
302.439
302.468
302.498
302.53
302.562
302.596
302.63
302.666
302.703
302.742
302.781
302.823
302.865
302.909
302.954
303.001
303.049
303.099
303.15
303.202
303.256
303.312
303.369
303.427
303.487
303.548
303.611
303.675
303.74
303.806
303.873
303.942
304.011
304.08
304.15
304.221
304.292
304.363
304.434
304.505
304.575
304.644
304.713
304.78
304.846
304.909
304.97
305.028
305.082
305.13
305.17
305.198
305.211
305.207
302.992
302.994
302.977
302.946
302.906
302.86
302.811
302.761
302.711
302.663
302.615
302.57
302.526
302.485
302.446
302.409
302.374
302.341
302.311
302.282
302.255
302.229
302.205
302.183
302.162
302.142
302.124
302.106
302.09
302.075
302.06
302.046
302.033
302.021
302.009
301.998
301.987
301.977
301.967
301.957
301.948
301.939
301.93
301.921
301.913
301.905
301.897
301.889
301.881
301.873
301.866
301.859
301.851
301.844
301.837
301.83
301.824
301.817
301.811
301.804
301.798
301.792
301.786
301.781
301.775
301.77
301.765
301.76
301.755
301.751
301.747
301.743
301.739
301.736
301.733
301.73
301.728
301.726
301.724
301.722
301.721
301.72
301.719
301.719
301.718
301.719
301.719
301.72
301.721
301.723
301.725
301.727
301.73
301.732
301.736
301.739
301.743
301.747
301.752
301.757
301.762
301.767
301.773
301.779
301.786
301.793
301.8
301.807
301.815
301.824
301.832
301.841
301.85
301.86
301.87
301.88
301.891
301.902
301.913
301.925
301.937
301.95
301.963
301.976
301.99
302.004
302.019
302.034
302.05
302.066
302.083
302.1
302.118
302.136
302.155
302.175
302.195
302.216
302.237
302.26
302.283
302.307
302.331
302.357
302.383
302.411
302.439
302.468
302.498
302.53
302.562
302.596
302.63
302.666
302.703
302.742
302.781
302.823
302.865
302.909
302.954
303.001
303.049
303.099
303.15
303.202
303.256
303.312
303.369
303.427
303.487
303.548
303.611
303.675
303.74
303.806
303.873
303.942
304.011
304.08
304.15
304.221
304.292
304.363
304.434
304.505
304.575
304.644
304.713
304.78
304.846
304.909
304.97
305.028
305.082
305.13
305.169
305.198
305.211
305.207
302.683
302.684
302.671
302.648
302.618
302.582
302.543
302.501
302.46
302.418
302.377
302.338
302.3
302.263
302.228
302.195
302.164
302.134
302.106
302.08
302.055
302.032
302.01
301.99
301.97
301.952
301.935
301.919
301.904
301.89
301.877
301.864
301.852
301.841
301.83
301.819
301.809
301.8
301.79
301.781
301.773
301.764
301.756
301.748
301.74
301.732
301.724
301.717
301.709
301.702
301.695
301.688
301.681
301.674
301.667
301.66
301.654
301.647
301.641
301.634
301.628
301.622
301.616
301.611
301.605
301.6
301.595
301.59
301.585
301.58
301.576
301.572
301.568
301.565
301.561
301.558
301.556
301.553
301.551
301.549
301.547
301.546
301.545
301.544
301.544
301.544
301.544
301.544
301.545
301.546
301.548
301.55
301.552
301.554
301.557
301.56
301.563
301.567
301.571
301.576
301.58
301.586
301.591
301.597
301.603
301.609
301.616
301.623
301.631
301.638
301.646
301.655
301.664
301.673
301.682
301.692
301.703
301.713
301.724
301.736
301.748
301.76
301.772
301.785
301.799
301.813
301.827
301.842
301.857
301.873
301.89
301.907
301.924
301.942
301.961
301.98
302
302.021
302.042
302.064
302.087
302.11
302.135
302.16
302.186
302.213
302.241
302.27
302.3
302.331
302.363
302.396
302.431
302.466
302.503
302.541
302.581
302.621
302.664
302.707
302.752
302.798
302.846
302.895
302.945
302.997
303.051
303.106
303.162
303.22
303.279
303.339
303.4
303.463
303.527
303.592
303.658
303.724
303.792
303.859
303.928
303.996
304.065
304.133
304.202
304.269
304.336
304.402
304.466
304.529
304.589
304.648
304.702
304.753
304.799
304.839
304.871
304.892
304.901
304.895
302.683
302.684
302.671
302.648
302.618
302.582
302.543
302.501
302.46
302.418
302.377
302.338
302.3
302.263
302.228
302.195
302.164
302.134
302.106
302.08
302.055
302.032
302.01
301.99
301.97
301.952
301.935
301.919
301.904
301.89
301.877
301.864
301.852
301.841
301.83
301.819
301.809
301.8
301.79
301.781
301.773
301.764
301.756
301.748
301.74
301.732
301.724
301.717
301.709
301.702
301.695
301.688
301.681
301.674
301.667
301.66
301.654
301.647
301.641
301.634
301.628
301.622
301.616
301.611
301.605
301.6
301.595
301.59
301.585
301.58
301.576
301.572
301.568
301.565
301.561
301.558
301.556
301.553
301.551
301.549
301.547
301.546
301.545
301.544
301.544
301.544
301.544
301.544
301.545
301.546
301.548
301.55
301.552
301.554
301.557
301.56
301.563
301.567
301.571
301.576
301.58
301.586
301.591
301.597
301.603
301.609
301.616
301.623
301.631
301.638
301.646
301.655
301.664
301.673
301.682
301.692
301.703
301.713
301.724
301.736
301.748
301.76
301.772
301.785
301.799
301.813
301.827
301.842
301.857
301.873
301.89
301.907
301.924
301.942
301.961
301.98
302
302.021
302.042
302.064
302.087
302.11
302.135
302.16
302.186
302.213
302.241
302.27
302.3
302.331
302.363
302.396
302.431
302.466
302.503
302.541
302.581
302.621
302.664
302.707
302.752
302.798
302.846
302.895
302.945
302.997
303.051
303.106
303.162
303.22
303.279
303.339
303.4
303.463
303.527
303.592
303.658
303.724
303.792
303.859
303.928
303.996
304.065
304.133
304.202
304.269
304.336
304.402
304.466
304.529
304.589
304.648
304.702
304.753
304.799
304.839
304.871
304.892
304.901
304.895
302.417
302.416
302.406
302.388
302.364
302.335
302.303
302.268
302.233
302.198
302.162
302.128
302.094
302.062
302.031
302.001
301.973
301.946
301.921
301.897
301.875
301.853
301.833
301.815
301.797
301.78
301.765
301.75
301.736
301.723
301.711
301.699
301.688
301.678
301.668
301.658
301.649
301.64
301.631
301.622
301.614
301.606
301.599
301.591
301.583
301.576
301.569
301.561
301.554
301.547
301.54
301.533
301.527
301.52
301.513
301.507
301.5
301.494
301.487
301.481
301.475
301.469
301.463
301.457
301.452
301.446
301.441
301.436
301.431
301.427
301.422
301.418
301.414
301.41
301.407
301.403
301.4
301.398
301.395
301.393
301.391
301.39
301.388
301.387
301.386
301.386
301.386
301.386
301.387
301.387
301.389
301.39
301.392
301.394
301.396
301.399
301.402
301.406
301.409
301.413
301.418
301.423
301.428
301.433
301.439
301.445
301.451
301.458
301.465
301.472
301.48
301.488
301.497
301.506
301.515
301.524
301.534
301.545
301.555
301.566
301.578
301.59
301.602
301.615
301.628
301.642
301.656
301.67
301.686
301.701
301.717
301.734
301.751
301.769
301.787
301.806
301.826
301.846
301.868
301.889
301.912
301.935
301.959
301.984
302.01
302.037
302.065
302.093
302.123
302.154
302.186
302.219
302.253
302.288
302.325
302.363
302.402
302.442
302.484
302.527
302.571
302.617
302.664
302.713
302.763
302.815
302.867
302.922
302.977
303.034
303.092
303.151
303.212
303.274
303.336
303.4
303.464
303.529
303.595
303.661
303.728
303.794
303.861
303.927
303.992
304.057
304.121
304.183
304.244
304.303
304.359
304.413
304.462
304.508
304.548
304.583
304.609
304.627
304.635
304.629
302.417
302.416
302.406
302.388
302.364
302.335
302.303
302.268
302.233
302.198
302.162
302.128
302.094
302.062
302.031
302.001
301.973
301.946
301.921
301.897
301.875
301.853
301.833
301.815
301.797
301.78
301.765
301.75
301.736
301.723
301.711
301.699
301.688
301.678
301.667
301.658
301.649
301.64
301.631
301.622
301.614
301.606
301.599
301.591
301.583
301.576
301.569
301.561
301.554
301.547
301.54
301.533
301.527
301.52
301.513
301.507
301.5
301.494
301.487
301.481
301.475
301.469
301.463
301.457
301.452
301.446
301.441
301.436
301.431
301.427
301.422
301.418
301.414
301.41
301.407
301.403
301.4
301.398
301.395
301.393
301.391
301.39
301.388
301.387
301.386
301.386
301.386
301.386
301.387
301.387
301.389
301.39
301.392
301.394
301.396
301.399
301.402
301.406
301.409
301.413
301.418
301.423
301.428
301.433
301.439
301.445
301.451
301.458
301.465
301.472
301.48
301.488
301.497
301.506
301.515
301.524
301.534
301.545
301.555
301.566
301.578
301.59
301.602
301.615
301.628
301.642
301.656
301.67
301.686
301.701
301.717
301.734
301.751
301.769
301.787
301.806
301.826
301.846
301.868
301.889
301.912
301.935
301.959
301.984
302.01
302.037
302.065
302.093
302.123
302.154
302.186
302.219
302.253
302.288
302.325
302.363
302.402
302.442
302.484
302.527
302.571
302.617
302.664
302.713
302.763
302.815
302.867
302.922
302.977
303.034
303.092
303.151
303.212
303.274
303.336
303.4
303.464
303.529
303.595
303.661
303.728
303.794
303.861
303.927
303.992
304.057
304.121
304.183
304.244
304.303
304.359
304.413
304.462
304.508
304.548
304.583
304.609
304.627
304.635
304.629
302.182
302.18
302.171
302.156
302.136
302.112
302.085
302.056
302.026
301.996
301.965
301.935
301.906
301.877
301.849
301.823
301.797
301.773
301.75
301.729
301.708
301.689
301.671
301.653
301.637
301.622
301.608
301.594
301.582
301.57
301.558
301.547
301.537
301.527
301.518
301.509
301.5
301.492
301.484
301.476
301.468
301.461
301.454
301.446
301.439
301.432
301.425
301.418
301.412
301.405
301.398
301.391
301.385
301.378
301.372
301.365
301.359
301.353
301.346
301.34
301.334
301.328
301.322
301.317
301.311
301.305
301.3
301.295
301.29
301.285
301.281
301.277
301.272
301.268
301.265
301.261
301.258
301.255
301.253
301.25
301.248
301.246
301.245
301.243
301.242
301.242
301.241
301.241
301.241
301.242
301.243
301.244
301.246
301.247
301.249
301.252
301.255
301.258
301.261
301.265
301.269
301.273
301.278
301.283
301.289
301.294
301.301
301.307
301.314
301.321
301.328
301.336
301.344
301.353
301.362
301.371
301.381
301.391
301.401
301.412
301.423