/*--------------------------------*- C++ -*----------------------------------*\
  =========                 |
  \\      /  F ield         | OpenFOAM: The Open Source CFD Toolbox
   \\    /   O peration     | Website:  https://openfoam.org
    \\  /    A nd           | Version:  8
     \\/     M anipulation  |
\*---------------------------------------------------------------------------*/
FoamFile
{
    version     2.0;
    format      ascii;
    class       volVectorField;
    location    "2700";
    object      U;
}
// * * * * * * * * * * * * * * * * * * * * * * * * * * * * * * * * * * * * * //

dimensions      [0 1 -1 0 0 0 0];

internalField   nonuniform List<vector> 
46000
(
(0.000940141 4.19887e-07 -0.000977503)
(0.00459979 -1.66398e-07 -0.00245133)
(0.00849807 -2.26618e-07 -0.00246861)
(0.0111705 -9.92233e-08 -0.00158302)
(0.0123465 2.87162e-08 -0.000586172)
(0.012186 1.02767e-07 0.000293149)
(0.0109183 1.34194e-07 0.00100736)
(0.00877537 1.4322e-07 0.0015673)
(0.00594596 1.44722e-07 0.00200269)
(0.00258886 1.4429e-07 0.00234066)
(-0.00119134 1.39587e-07 0.00259825)
(-0.00528306 1.30999e-07 0.00279069)
(-0.00962337 1.21886e-07 0.00293693)
(-0.0141565 1.13123e-07 0.00304881)
(-0.0188401 1.04708e-07 0.00313422)
(-0.0236414 9.71492e-08 0.00319904)
(-0.0285343 9.13345e-08 0.00324767)
(-0.0334981 8.74895e-08 0.0032834)
(-0.0385155 8.51831e-08 0.00330865)
(-0.0435727 8.39349e-08 0.00332524)
(-0.0486573 8.36031e-08 0.00333448)
(-0.0537591 8.41836e-08 0.00333731)
(-0.0588685 8.55554e-08 0.0033344)
(-0.0639769 8.73462e-08 0.00332621)
(-0.0690761 8.89599e-08 0.00331301)
(-0.0741581 8.98679e-08 0.003295)
(-0.0792153 8.97324e-08 0.00327226)
(-0.08424 8.85388e-08 0.00324483)
(-0.0892244 8.64447e-08 0.00321268)
(-0.0941608 8.37213e-08 0.00317581)
(-0.0990414 8.0608e-08 0.00313416)
(-0.103858 7.73155e-08 0.00308772)
(-0.108604 7.39523e-08 0.00303644)
(-0.113269 7.0582e-08 0.00298032)
(-0.117847 6.72312e-08 0.00291937)
(-0.12233 6.39367e-08 0.00285364)
(-0.126709 6.07484e-08 0.00278317)
(-0.130977 5.77431e-08 0.00270806)
(-0.135126 5.49926e-08 0.00262842)
(-0.139149 5.2562e-08 0.0025444)
(-0.143039 5.05095e-08 0.00245616)
(-0.146789 4.88652e-08 0.00236391)
(-0.150391 4.76239e-08 0.00226785)
(-0.153841 4.67488e-08 0.00216824)
(-0.157132 4.61697e-08 0.00206531)
(-0.16026 4.57895e-08 0.00195935)
(-0.163218 4.55114e-08 0.00185065)
(-0.166003 4.52469e-08 0.00173949)
(-0.16861 4.49175e-08 0.00162619)
(-0.171037 4.4468e-08 0.00151106)
(-0.17328 4.38751e-08 0.00139442)
(-0.175337 4.31153e-08 0.00127657)
(-0.177206 4.21738e-08 0.00115783)
(-0.178886 4.10722e-08 0.00103852)
(-0.180375 3.98205e-08 0.000918949)
(-0.181674 3.84354e-08 0.00079941)
(-0.182783 3.6957e-08 0.000680206)
(-0.183701 3.53969e-08 0.000561627)
(-0.184432 3.3807e-08 0.000443951)
(-0.184975 3.22088e-08 0.00032743)
(-0.185333 3.06558e-08 0.000212251)
(-0.185508 2.9138e-08 9.85115e-05)
(-0.185504 2.77355e-08 -1.34877e-05)
(-0.185322 2.64583e-08 -0.000123294)
(-0.184967 2.52379e-08 -0.000230777)
(-0.184443 2.40793e-08 -0.000335941)
(-0.183752 2.29726e-08 -0.000438645)
(-0.1829 2.18926e-08 -0.000538719)
(-0.18189 2.08293e-08 -0.000636011)
(-0.180728 1.97661e-08 -0.00073039)
(-0.179418 1.87212e-08 -0.000821743)
(-0.177965 1.76797e-08 -0.000909974)
(-0.176375 1.66582e-08 -0.000995002)
(-0.174653 1.56985e-08 -0.00107676)
(-0.172804 1.48123e-08 -0.00115519)
(-0.170834 1.40146e-08 -0.00123025)
(-0.168749 1.3317e-08 -0.0013019)
(-0.166554 1.27297e-08 -0.00137012)
(-0.164254 1.22391e-08 -0.00143489)
(-0.161856 1.18689e-08 -0.00149621)
(-0.159365 1.15854e-08 -0.00155408)
(-0.156786 1.13788e-08 -0.00160852)
(-0.154126 1.12441e-08 -0.00165953)
(-0.15139 1.11628e-08 -0.00170715)
(-0.148583 1.11199e-08 -0.0017514)
(-0.145711 1.11355e-08 -0.00179233)
(-0.142779 1.11595e-08 -0.00182997)
(-0.139792 1.12069e-08 -0.00186438)
(-0.136756 1.12794e-08 -0.00189561)
(-0.133675 1.1367e-08 -0.00192372)
(-0.130555 1.1458e-08 -0.00194878)
(-0.127401 1.15523e-08 -0.00197084)
(-0.124216 1.16567e-08 -0.00198999)
(-0.121006 1.17695e-08 -0.0020063)
(-0.117775 1.1889e-08 -0.00201985)
(-0.114527 1.20286e-08 -0.00203071)
(-0.111267 1.21682e-08 -0.00203899)
(-0.107999 1.23263e-08 -0.00204475)
(-0.104725 1.24961e-08 -0.0020481)
(-0.10145 1.26843e-08 -0.00204912)
(-0.0981784 1.28994e-08 -0.00204792)
(-0.0949121 1.31345e-08 -0.00204458)
(-0.0916548 1.33597e-08 -0.0020392)
(-0.0884095 1.36452e-08 -0.00203189)
(-0.0851791 1.39374e-08 -0.00202275)
(-0.0819664 1.42731e-08 -0.00201186)
(-0.0787738 1.4629e-08 -0.00199935)
(-0.0756037 1.50084e-08 -0.00198529)
(-0.0724584 1.54347e-08 -0.00196981)
(-0.0693399 1.58879e-08 -0.00195299)
(-0.0662502 1.63379e-08 -0.00193494)
(-0.0631909 1.68381e-08 -0.00191576)
(-0.0601638 1.73418e-08 -0.00189554)
(-0.0571701 1.78589e-08 -0.00187438)
(-0.0542114 1.83695e-08 -0.00185236)
(-0.0512886 1.88936e-08 -0.00182959)
(-0.0484029 1.94043e-08 -0.00180615)
(-0.0455552 1.99286e-08 -0.00178211)
(-0.0427463 2.04362e-08 -0.00175757)
(-0.0399768 2.09439e-08 -0.00173259)
(-0.0372474 2.14484e-08 -0.00170725)
(-0.0345583 2.1973e-08 -0.0016816)
(-0.0319102 2.24911e-08 -0.00165572)
(-0.0293032 2.30427e-08 -0.00162965)
(-0.0267375 2.36146e-08 -0.00160345)
(-0.0242133 2.41933e-08 -0.00157714)
(-0.0217308 2.47822e-08 -0.00155077)
(-0.0192899 2.5398e-08 -0.00152436)
(-0.0168907 2.6034e-08 -0.00149792)
(-0.0145332 2.66836e-08 -0.00147146)
(-0.0122175 2.734e-08 -0.001445)
(-0.00994344 2.79898e-08 -0.00141852)
(-0.00771111 2.8623e-08 -0.001392)
(-0.00552065 2.92228e-08 -0.00136554)
(-0.0033711 2.97523e-08 -0.00133967)
(-0.00126415 3.02283e-08 -0.00131427)
(0.000804491 3.03587e-08 -0.00128692)
(0.00282719 3.04491e-08 -0.00125741)
(0.00480714 3.08415e-08 -0.0012274)
(0.00674223 3.1281e-08 -0.001197)
(0.00863184 3.17575e-08 -0.00116611)
(0.0104749 3.21838e-08 -0.00113461)
(0.0122701 3.25666e-08 -0.00110237)
(0.014016 3.2916e-08 -0.00106925)
(0.0157109 3.3242e-08 -0.0010351)
(0.017353 3.35446e-08 -0.000999775)
(0.01894 3.38506e-08 -0.000963117)
(0.0204694 3.41502e-08 -0.000924969)
(0.0219386 3.44565e-08 -0.000885171)
(0.0233447 3.47765e-08 -0.000843565)
(0.0246843 3.51134e-08 -0.000799995)
(0.0259541 3.54807e-08 -0.000754309)
(0.0271502 3.58886e-08 -0.000706362)
(0.0282688 3.63336e-08 -0.000656019)
(0.0293055 3.68461e-08 -0.000603155)
(0.030256 3.7416e-08 -0.000547661)
(0.0311156 3.80231e-08 -0.000489448)
(0.0318796 3.87181e-08 -0.000428446)
(0.0325431 3.94705e-08 -0.000364614)
(0.0331012 4.02502e-08 -0.000297942)
(0.0335488 4.1101e-08 -0.000228462)
(0.0338809 4.19657e-08 -0.000156261)
(0.0340929 4.28409e-08 -8.1495e-05)
(0.0341796 4.36257e-08 -4.34604e-06)
(0.0341375 4.45751e-08 7.52513e-05)
(0.0339612 4.57378e-08 0.000157259)
(0.0336467 4.67597e-08 0.000241341)
(0.0331902 4.77991e-08 0.000327183)
(0.0325883 4.88727e-08 0.000414397)
(0.0318383 5.00548e-08 0.000502535)
(0.0309383 5.1278e-08 0.000591088)
(0.0298871 5.27178e-08 0.000679478)
(0.0286845 5.43405e-08 0.000767056)
(0.0273313 5.62002e-08 0.00085309)
(0.0258295 5.82838e-08 0.000936762)
(0.0241827 6.05777e-08 0.00101716)
(0.0223958 6.30486e-08 0.00109326)
(0.0204754 6.56357e-08 0.00116394)
(0.0184302 6.83189e-08 0.00122793)
(0.016271 7.10511e-08 0.00128382)
(0.0140109 7.39743e-08 0.00133003)
(0.0116659 7.71968e-08 0.00136477)
(0.0092553 8.07867e-08 0.00138604)
(0.00680176 8.47172e-08 0.00139155)
(0.00433166 8.89075e-08 0.00137867)
(0.00187938 9.31077e-08 0.00134429)
(-0.000524222 9.64314e-08 0.00128207)
(-0.00282508 9.9088e-08 0.00118696)
(-0.00497307 1.02276e-07 0.00105658)
(-0.00690786 1.0599e-07 0.00088834)
(-0.00855604 1.10047e-07 0.000675992)
(-0.00983471 1.14307e-07 0.000411446)
(-0.010646 1.1905e-07 9.03094e-05)
(-0.0108835 1.24565e-07 -0.0002874)
(-0.0104381 1.31271e-07 -0.000708051)
(-0.00922715 1.4003e-07 -0.00113384)
(-0.00722967 1.5044e-07 -0.0014721)
(-0.00459691 1.58901e-07 -0.00150932)
(-0.00185486 1.68848e-07 -0.000957649)
(-0.000173905 8.13149e-08 -0.000181842)
(0.00093932 4.19881e-07 -0.000979047)
(0.00459882 -1.66394e-07 -0.00245312)
(0.0084976 -2.26612e-07 -0.00246977)
(0.0111701 -9.92212e-08 -0.00158381)
(0.0123461 2.87156e-08 -0.000586764)
(0.0121857 1.02766e-07 0.000292661)
(0.0109181 1.34192e-07 0.00100693)
(0.00877514 1.43217e-07 0.00156692)
(0.00594577 1.4472e-07 0.00200233)
(0.0025887 1.44288e-07 0.00234032)
(-0.00119147 1.39585e-07 0.00259794)
(-0.00528315 1.30997e-07 0.00279041)
(-0.00962342 1.21884e-07 0.00293666)
(-0.0141565 1.13121e-07 0.00304855)
(-0.0188401 1.04706e-07 0.00313398)
(-0.0236413 9.7148e-08 0.00319881)
(-0.0285343 9.13334e-08 0.00324746)
(-0.0334979 8.74885e-08 0.00328319)
(-0.0385154 8.51822e-08 0.00330845)
(-0.0435725 8.39339e-08 0.00332505)
(-0.0486571 8.36022e-08 0.00333429)
(-0.0537589 8.41827e-08 0.00333713)
(-0.0588683 8.55545e-08 0.00333422)
(-0.0639767 8.73453e-08 0.00332603)
(-0.0690758 8.89591e-08 0.00331284)
(-0.0741578 8.9867e-08 0.00329483)
(-0.079215 8.97315e-08 0.00327209)
(-0.0842396 8.85379e-08 0.00324466)
(-0.089224 8.64439e-08 0.00321251)
(-0.0941604 8.37206e-08 0.00317564)
(-0.099041 8.06073e-08 0.003134)
(-0.103858 7.73148e-08 0.00308755)
(-0.108603 7.39517e-08 0.00303627)
(-0.113269 7.05814e-08 0.00298016)
(-0.117847 6.72307e-08 0.00291921)
(-0.122329 6.39361e-08 0.00285347)
(-0.126709 6.07479e-08 0.00278301)
(-0.130977 5.77426e-08 0.00270789)
(-0.135126 5.49922e-08 0.00262826)
(-0.139149 5.25615e-08 0.00254424)
(-0.143039 5.05091e-08 0.002456)
(-0.146788 4.88648e-08 0.00236375)
(-0.150391 4.76236e-08 0.00226769)
(-0.153841 4.67485e-08 0.00216808)
(-0.157132 4.61693e-08 0.00206515)
(-0.160259 4.57892e-08 0.00195919)
(-0.163217 4.55111e-08 0.00185049)
(-0.166002 4.52466e-08 0.00173933)
(-0.168609 4.49171e-08 0.00162603)
(-0.171036 4.44676e-08 0.0015109)
(-0.173279 4.38747e-08 0.00139426)
(-0.175336 4.3115e-08 0.00127641)
(-0.177205 4.21735e-08 0.00115767)
(-0.178885 4.10719e-08 0.00103836)
(-0.180375 3.98202e-08 0.000918782)
(-0.181673 3.84351e-08 0.000799242)
(-0.182782 3.69567e-08 0.000680037)
(-0.183701 3.53967e-08 0.000561457)
(-0.184431 3.38067e-08 0.00044378)
(-0.184974 3.22086e-08 0.000327258)
(-0.185332 3.06556e-08 0.000212077)
(-0.185508 2.91378e-08 9.83364e-05)
(-0.185503 2.77353e-08 -1.3664e-05)
(-0.185322 2.64581e-08 -0.000123471)
(-0.184967 2.52377e-08 -0.000230955)
(-0.184442 2.40792e-08 -0.000336121)
(-0.183751 2.29724e-08 -0.000438826)
(-0.182899 2.18924e-08 -0.000538901)
(-0.181889 2.08292e-08 -0.000636195)
(-0.180727 1.97659e-08 -0.000730575)
(-0.179417 1.87211e-08 -0.000821929)
(-0.177965 1.76796e-08 -0.000910161)
(-0.176375 1.66581e-08 -0.000995191)
(-0.174652 1.56984e-08 -0.00107695)
(-0.172804 1.48122e-08 -0.00115538)
(-0.170834 1.40145e-08 -0.00123044)
(-0.168748 1.33169e-08 -0.00130209)
(-0.166553 1.27296e-08 -0.00137031)
(-0.164254 1.22391e-08 -0.00143509)
(-0.161855 1.18688e-08 -0.00149641)
(-0.159364 1.15854e-08 -0.00155429)
(-0.156786 1.13788e-08 -0.00160872)
(-0.154126 1.1244e-08 -0.00165974)
(-0.151389 1.11627e-08 -0.00170736)
(-0.148582 1.11198e-08 -0.00175161)
(-0.14571 1.11354e-08 -0.00179254)
(-0.142778 1.11594e-08 -0.00183019)
(-0.139791 1.12069e-08 -0.0018646)
(-0.136755 1.12794e-08 -0.00189583)
(-0.133675 1.13669e-08 -0.00192395)
(-0.130555 1.14579e-08 -0.001949)
(-0.1274 1.15522e-08 -0.00197107)
(-0.124216 1.16566e-08 -0.00199022)
(-0.121006 1.17694e-08 -0.00200653)
(-0.117775 1.18889e-08 -0.00202008)
(-0.114527 1.20285e-08 -0.00203095)
(-0.111267 1.21681e-08 -0.00203922)
(-0.107998 1.23262e-08 -0.00204499)
(-0.104725 1.2496e-08 -0.00204834)
(-0.10145 1.26842e-08 -0.00204937)
(-0.0981779 1.28993e-08 -0.00204817)
(-0.0949116 1.31345e-08 -0.00204483)
(-0.0916543 1.33596e-08 -0.00203946)
(-0.0884091 1.36451e-08 -0.00203215)
(-0.0851787 1.39373e-08 -0.00202301)
(-0.081966 1.4273e-08 -0.00201213)
(-0.0787734 1.46289e-08 -0.00199961)
(-0.0756033 1.50083e-08 -0.00198556)
(-0.072458 1.54347e-08 -0.00197008)
(-0.0693395 1.58879e-08 -0.00195327)
(-0.0662498 1.63378e-08 -0.00193522)
(-0.0631905 1.6838e-08 -0.00191604)
(-0.0601634 1.73417e-08 -0.00189582)
(-0.0571698 1.78588e-08 -0.00187466)
(-0.054211 1.83694e-08 -0.00185265)
(-0.0512882 1.88935e-08 -0.00182988)
(-0.0484026 1.94042e-08 -0.00180644)
(-0.0455549 1.99285e-08 -0.00178241)
(-0.042746 2.04361e-08 -0.00175787)
(-0.0399765 2.09438e-08 -0.00173289)
(-0.037247 2.14483e-08 -0.00170755)
(-0.034558 2.19729e-08 -0.00168191)
(-0.0319098 2.2491e-08 -0.00165603)
(-0.0293028 2.30426e-08 -0.00162997)
(-0.0267371 2.36145e-08 -0.00160376)
(-0.024213 2.41932e-08 -0.00157746)
(-0.0217304 2.47821e-08 -0.00155109)
(-0.0192895 2.53979e-08 -0.00152468)
(-0.0168904 2.60339e-08 -0.00149824)
(-0.0145329 2.66835e-08 -0.00147179)
(-0.0122171 2.73399e-08 -0.00144533)
(-0.00994312 2.79897e-08 -0.00141885)
(-0.00771079 2.86229e-08 -0.00139234)
(-0.00552032 2.92228e-08 -0.00136588)
(-0.00337078 2.97522e-08 -0.00134001)
(-0.00126383 3.02282e-08 -0.00131462)
(0.000804805 3.03586e-08 -0.00128727)
(0.0028275 3.04489e-08 -0.00125776)
(0.00480745 3.08413e-08 -0.00122775)
(0.00674254 3.12808e-08 -0.00119734)
(0.00863214 3.17574e-08 -0.00116645)
(0.0104752 3.21837e-08 -0.00113495)
(0.0122704 3.25665e-08 -0.00110271)
(0.0140163 3.29159e-08 -0.00106959)
(0.0157112 3.32419e-08 -0.00103545)
(0.0173533 3.35445e-08 -0.00100012)
(0.0189403 3.38506e-08 -0.000963463)
(0.0204697 3.41501e-08 -0.000925314)
(0.0219389 3.44564e-08 -0.000885517)
(0.023345 3.47764e-08 -0.000843911)
(0.0246846 3.51133e-08 -0.000800341)
(0.0259544 3.54806e-08 -0.000754656)
(0.0271505 3.58885e-08 -0.000706709)
(0.0282691 3.63335e-08 -0.000656366)
(0.0293058 3.6846e-08 -0.000603502)
(0.0302563 3.74159e-08 -0.000548009)
(0.0311159 3.80231e-08 -0.000489796)
(0.0318799 3.8718e-08 -0.000428794)
(0.0325434 3.94705e-08 -0.000364963)
(0.0331015 4.02502e-08 -0.000298291)
(0.0335491 4.1101e-08 -0.000228812)
(0.0338812 4.19656e-08 -0.000156612)
(0.0340931 4.28409e-08 -8.18468e-05)
(0.0341798 4.36256e-08 -4.6986e-06)
(0.0341377 4.4575e-08 7.48975e-05)
(0.0339615 4.57378e-08 0.000156903)
(0.033647 4.67597e-08 0.000240983)
(0.0331905 4.7799e-08 0.000326823)
(0.0325886 4.88727e-08 0.000414035)
(0.0318386 5.00548e-08 0.000502171)
(0.0309386 5.1278e-08 0.000590721)
(0.0298874 5.27177e-08 0.000679108)
(0.0286847 5.43404e-08 0.000766683)
(0.0273315 5.62002e-08 0.000852713)
(0.0258298 5.82837e-08 0.000936381)
(0.024183 6.05777e-08 0.00101677)
(0.022396 6.30486e-08 0.00109287)
(0.0204756 6.56357e-08 0.00116355)
(0.0184304 6.83189e-08 0.00122753)
(0.0162711 7.10511e-08 0.00128341)
(0.014011 7.39743e-08 0.00132961)
(0.0116661 7.71968e-08 0.00136435)
(0.00925545 8.07866e-08 0.00138561)
(0.0068019 8.47171e-08 0.00139111)
(0.00433179 8.89075e-08 0.00137822)
(0.0018795 9.31077e-08 0.00134384)
(-0.000524126 9.64314e-08 0.0012816)
(-0.002825 9.90879e-08 0.00118648)
(-0.004973 1.02276e-07 0.0010561)
(-0.00690781 1.0599e-07 0.000887849)
(-0.00855601 1.10047e-07 0.000675488)
(-0.00983469 1.14307e-07 0.000410928)
(-0.010646 1.19049e-07 8.97719e-05)
(-0.0108835 1.24564e-07 -0.000287959)
(-0.0104381 1.31271e-07 -0.000708632)
(-0.0092272 1.40029e-07 -0.00113445)
(-0.00722975 1.50439e-07 -0.00147273)
(-0.00459704 1.58901e-07 -0.00150997)
(-0.0018552 1.68847e-07 -0.00095829)
(-0.000174175 8.13147e-08 -0.000182344)
(0.00230918 5.86443e-07 -0.00484493)
(0.00563244 1.257e-07 -0.00595238)
(0.00724034 4.10883e-08 -0.00457146)
(0.00776674 1.01495e-08 -0.00243109)
(0.00726273 9.33964e-09 -0.000319689)
(0.00590286 1.22529e-08 0.00150621)
(0.00381274 1.27805e-08 0.00299647)
(0.00111076 1.0869e-08 0.00418154)
(-0.00209868 7.6621e-09 0.00511362)
(-0.00571677 4.12771e-09 0.00584305)
(-0.00966876 4.71816e-10 0.00641138)
(-0.0138891 -2.95869e-09 0.00685295)
(-0.0183264 -5.62364e-09 0.00719795)
(-0.0229371 -7.36873e-09 0.00746801)
(-0.0276864 -8.34404e-09 0.00767936)
(-0.0325457 -8.69944e-09 0.00784427)
(-0.0374917 -8.47867e-09 0.007972)
(-0.0425053 -7.7696e-09 0.00806955)
(-0.0475704 -6.70996e-09 0.00814216)
(-0.0526731 -5.43656e-09 0.00819375)
(-0.0578017 -4.06191e-09 0.00822717)
(-0.0629456 -2.68682e-09 0.00824452)
(-0.0680953 -1.43535e-09 0.00824725)
(-0.0732421 -4.48154e-10 0.00823638)
(-0.0783776 1.48312e-10 0.00821255)
(-0.0834939 2.99243e-10 0.00817614)
(-0.0885832 1.56077e-11 0.00812736)
(-0.0936378 -5.99249e-10 0.00806626)
(-0.0986502 -1.42039e-09 0.00799283)
(-0.103613 -2.30961e-09 0.00790698)
(-0.108517 -3.17288e-09 0.00780862)
(-0.113357 -3.93613e-09 0.00769768)
(-0.118123 -4.56364e-09 0.00757408)
(-0.122808 -5.03795e-09 0.00743781)
(-0.127405 -5.35995e-09 0.00728888)
(-0.131905 -5.52923e-09 0.00712739)
(-0.136301 -5.5629e-09 0.00695349)
(-0.140586 -5.46845e-09 0.00676739)
(-0.144751 -5.26504e-09 0.00656938)
(-0.14879 -4.96683e-09 0.00635982)
(-0.152696 -4.59961e-09 0.00613912)
(-0.156462 -4.18542e-09 0.00590777)
(-0.160082 -3.7538e-09 0.00566632)
(-0.163549 -3.33552e-09 0.00541536)
(-0.166858 -2.95676e-09 0.00515555)
(-0.170004 -2.64164e-09 0.00488757)
(-0.172981 -2.40469e-09 0.00461216)
(-0.175786 -2.25506e-09 0.00433008)
(-0.178414 -2.1969e-09 0.00404211)
(-0.180862 -2.22063e-09 0.00374905)
(-0.183126 -2.31835e-09 0.00345173)
(-0.185205 -2.48174e-09 0.00315096)
(-0.187097 -2.69624e-09 0.00284757)
(-0.188799 -2.94607e-09 0.00254238)
(-0.190311 -3.22414e-09 0.00223618)
(-0.191632 -3.51301e-09 0.00192978)
(-0.192763 -3.80061e-09 0.00162396)
(-0.193703 -4.07449e-09 0.00131948)
(-0.194454 -4.32177e-09 0.00101706)
(-0.195016 -4.53495e-09 0.000717441)
(-0.195393 -4.70033e-09 0.000421284)
(-0.195584 -4.81543e-09 0.000129252)
(-0.195594 -4.89521e-09 -0.000158139)
(-0.195424 -4.94714e-09 -0.000440519)
(-0.195079 -4.95709e-09 -0.000717431)
(-0.19456 -4.94586e-09 -0.000988357)
(-0.193874 -4.92383e-09 -0.00125283)
(-0.193022 -4.89391e-09 -0.00151041)
(-0.19201 -4.86108e-09 -0.00176071)
(-0.190841 -4.82619e-09 -0.00200341)
(-0.189522 -4.78299e-09 -0.0022382)
(-0.188055 -4.72733e-09 -0.00246482)
(-0.186447 -4.65713e-09 -0.00268307)
(-0.184702 -4.55993e-09 -0.00289276)
(-0.182826 -4.43988e-09 -0.00309374)
(-0.180824 -4.29406e-09 -0.00328589)
(-0.178701 -4.12581e-09 -0.00346914)
(-0.176462 -3.93803e-09 -0.00364341)
(-0.174114 -3.73487e-09 -0.00380867)
(-0.171661 -3.52507e-09 -0.00396493)
(-0.169108 -3.31277e-09 -0.0041122)
(-0.166462 -3.10546e-09 -0.00425052)
(-0.163728 -2.90355e-09 -0.00437996)
(-0.16091 -2.71619e-09 -0.00450058)
(-0.158015 -2.53922e-09 -0.0046125)
(-0.155048 -2.3772e-09 -0.00471583)
(-0.152013 -2.23015e-09 -0.0048107)
(-0.148917 -2.09639e-09 -0.00489726)
(-0.145763 -1.97594e-09 -0.00497567)
(-0.142557 -1.86545e-09 -0.0050461)
(-0.139304 -1.7666e-09 -0.00510874)
(-0.136008 -1.67856e-09 -0.00516378)
(-0.132674 -1.59634e-09 -0.00521142)
(-0.129307 -1.5166e-09 -0.00525188)
(-0.12591 -1.44102e-09 -0.00528537)
(-0.122489 -1.36544e-09 -0.00531213)
(-0.119047 -1.29484e-09 -0.00533237)
(-0.115588 -1.2259e-09 -0.00534635)
(-0.112117 -1.15696e-09 -0.0053543)
(-0.108636 -1.08635e-09 -0.00535647)
(-0.105149 -1.01823e-09 -0.0053531)
(-0.101661 -9.50099e-10 -0.00534445)
(-0.098173 -8.89451e-10 -0.00533077)
(-0.0946897 -8.27134e-10 -0.00531232)
(-0.0912136 -7.68137e-10 -0.00528933)
(-0.0877477 -7.08302e-10 -0.00526208)
(-0.0842945 -6.53452e-10 -0.00523081)
(-0.0808567 -6.0109e-10 -0.00519578)
(-0.0774368 -5.55378e-10 -0.00515723)
(-0.0740369 -5.17978e-10 -0.0051154)
(-0.0706593 -4.86397e-10 -0.00507055)
(-0.067306 -4.69787e-10 -0.00502291)
(-0.0639787 -4.59829e-10 -0.00497272)
(-0.0606793 -4.66511e-10 -0.00492019)
(-0.0574094 -4.81511e-10 -0.00486556)
(-0.0541703 -5.07329e-10 -0.00480904)
(-0.0509636 -5.48128e-10 -0.00475083)
(-0.0477904 -5.98914e-10 -0.00469112)
(-0.0446518 -6.61356e-10 -0.00463012)
(-0.0415488 -7.37952e-10 -0.00456798)
(-0.0384824 -8.17883e-10 -0.00450488)
(-0.0354534 -9.05311e-10 -0.00444097)
(-0.0324625 -9.95244e-10 -0.00437639)
(-0.0295103 -1.09101e-09 -0.00431125)
(-0.0265974 -1.19261e-09 -0.00424568)
(-0.0237244 -1.29673e-09 -0.00417975)
(-0.0208916 -1.40751e-09 -0.00411355)
(-0.0180995 -1.52413e-09 -0.00404713)
(-0.0153485 -1.64576e-09 -0.00398054)
(-0.0126389 -1.7824e-09 -0.0039138)
(-0.00997102 -1.92822e-09 -0.00384692)
(-0.00734517 -2.07905e-09 -0.00377993)
(-0.00476163 -2.23324e-09 -0.00371286)
(-0.00222077 -2.39744e-09 -0.00364603)
(0.000277818 -2.60166e-09 -0.00357913)
(0.00273165 -2.84422e-09 -0.00351156)
(0.00514026 -3.10099e-09 -0.00344213)
(0.00750281 -3.3353e-09 -0.00337066)
(0.0098187 -3.55716e-09 -0.00329792)
(0.0120866 -3.77239e-09 -0.00322368)
(0.0143052 -3.98517e-09 -0.00314773)
(0.0164731 -4.19048e-09 -0.00306977)
(0.0185887 -4.38751e-09 -0.00298946)
(0.0206501 -4.58374e-09 -0.00290643)
(0.0226552 -4.76752e-09 -0.00282031)
(0.0246017 -4.95552e-09 -0.00273069)
(0.026487 -5.13274e-09 -0.00263717)
(0.0283082 -5.29833e-09 -0.00253931)
(0.0300623 -5.45731e-09 -0.0024367)
(0.0317458 -5.59882e-09 -0.00232889)
(0.0333551 -5.73373e-09 -0.00221545)
(0.0348862 -5.85033e-09 -0.00209595)
(0.036335 -5.95448e-09 -0.00197)
(0.0376968 -6.04617e-09 -0.00183718)
(0.0389671 -6.11455e-09 -0.00169713)
(0.0401407 -6.16797e-09 -0.00154952)
(0.0412126 -6.20809e-09 -0.00139406)
(0.0421774 -6.23073e-09 -0.00123049)
(0.0430295 -6.24425e-09 -0.00105864)
(0.0437633 -6.24781e-09 -0.00087839)
(0.044373 -6.24642e-09 -0.000689717)
(0.044853 -6.23089e-09 -0.000492701)
(0.0451975 -6.21375e-09 -0.000287536)
(0.0454008 -6.18495e-09 -7.45894e-05)
(0.0454571 -6.15776e-09 0.000146083)
(0.0453614 -6.14247e-09 0.000374365)
(0.0451087 -6.11223e-09 0.000609605)
(0.0446945 -6.07873e-09 0.000851058)
(0.0441144 -6.03361e-09 0.00109783)
(0.043365 -5.9869e-09 0.00134887)
(0.0424434 -5.91183e-09 0.00160294)
(0.0413475 -5.81842e-09 0.00185862)
(0.0400761 -5.68824e-09 0.00211431)
(0.0386292 -5.52798e-09 0.00236813)
(0.0370081 -5.3527e-09 0.00261802)
(0.0352151 -5.16908e-09 0.0028616)
(0.0332545 -5.00226e-09 0.00309621)
(0.0311323 -4.86734e-09 0.00331888)
(0.0288562 -4.77609e-09 0.00352623)
(0.0264364 -4.72516e-09 0.00371448)
(0.0238855 -4.68607e-09 0.00387934)
(0.021219 -4.62692e-09 0.00401596)
(0.0184556 -4.53763e-09 0.00411879)
(0.0156173 -4.45341e-09 0.00418146)
(0.0127305 -4.42797e-09 0.00419652)
(0.00982641 -4.5504e-09 0.00415546)
(0.00694075 -4.76871e-09 0.00404662)
(0.00411559 -4.92489e-09 0.00385744)
(0.00139989 -5.02553e-09 0.00357558)
(-0.00115295 -5.13773e-09 0.00318494)
(-0.0034712 -5.29827e-09 0.00266823)
(-0.00548499 -5.51898e-09 0.00200612)
(-0.00711129 -5.70231e-09 0.00118041)
(-0.00826111 -5.47841e-09 0.000179546)
(-0.00883912 -4.50372e-09 -0.000984661)
(-0.00874937 -2.63197e-09 -0.00225474)
(-0.00790679 8.93116e-10 -0.00347767)
(-0.00625787 5.98347e-09 -0.00429357)
(-0.00382303 1.43921e-08 -0.00402045)
(-0.000903891 -6.6246e-08 -0.00196149)
(0.00230843 5.86431e-07 -0.00484608)
(0.00563187 1.25694e-07 -0.0059532)
(0.00724006 4.10863e-08 -0.00457187)
(0.00776645 1.01491e-08 -0.00243134)
(0.00726248 9.33927e-09 -0.000319872)
(0.00590265 1.22525e-08 0.00150606)
(0.00381258 1.27801e-08 0.00299634)
(0.00111064 1.08687e-08 0.00418142)
(-0.00209875 7.66187e-09 0.00511351)
(-0.0057168 4.12759e-09 0.00584294)
(-0.00966876 4.71803e-10 0.00641128)
(-0.0138891 -2.95861e-09 0.00685285)
(-0.0183263 -5.6235e-09 0.00719786)
(-0.022937 -7.36854e-09 0.00746792)
(-0.0276862 -8.34384e-09 0.00767927)
(-0.0325455 -8.69923e-09 0.00784419)
(-0.0374915 -8.47847e-09 0.00797192)
(-0.0425051 -7.76942e-09 0.00806948)
(-0.0475701 -6.70981e-09 0.00814209)
(-0.0526728 -5.43643e-09 0.00819368)
(-0.0578014 -4.06182e-09 0.0082271)
(-0.0629452 -2.68676e-09 0.00824445)
(-0.0680949 -1.43532e-09 0.00824719)
(-0.0732417 -4.48144e-10 0.00823632)
(-0.0783772 1.48309e-10 0.00821249)
(-0.0834935 2.99237e-10 0.00817608)
(-0.0885828 1.56074e-11 0.0081273)
(-0.0936374 -5.99236e-10 0.00806621)
(-0.0986497 -1.42036e-09 0.00799277)
(-0.103612 -2.30956e-09 0.00790692)
(-0.108517 -3.17281e-09 0.00780857)
(-0.113356 -3.93605e-09 0.00769763)
(-0.118122 -4.56354e-09 0.00757403)
(-0.122808 -5.03785e-09 0.00743775)
(-0.127404 -5.35984e-09 0.00728883)
(-0.131904 -5.52912e-09 0.00712734)
(-0.136301 -5.56278e-09 0.00695344)
(-0.140585 -5.46834e-09 0.00676734)
(-0.14475 -5.26494e-09 0.00656933)
(-0.14879 -4.96673e-09 0.00635977)
(-0.152696 -4.59951e-09 0.00613907)
(-0.156462 -4.18534e-09 0.00590772)
(-0.160081 -3.75373e-09 0.00566627)
(-0.163548 -3.33545e-09 0.00541531)
(-0.166857 -2.9567e-09 0.0051555)
(-0.170003 -2.64158e-09 0.00488752)
(-0.17298 -2.40464e-09 0.00461211)
(-0.175785 -2.25502e-09 0.00433003)
(-0.178413 -2.19686e-09 0.00404206)
(-0.180861 -2.22059e-09 0.003749)
(-0.183126 -2.3183e-09 0.00345168)
(-0.185205 -2.48169e-09 0.00315091)
(-0.187096 -2.69619e-09 0.00284752)
(-0.188798 -2.94601e-09 0.00254232)
(-0.19031 -3.22408e-09 0.00223612)
(-0.191632 -3.51294e-09 0.00192973)
(-0.192762 -3.80054e-09 0.0016239)
(-0.193702 -4.07442e-09 0.00131942)
(-0.194453 -4.32168e-09 0.00101701)
(-0.195016 -4.53486e-09 0.000717383)
(-0.195392 -4.70025e-09 0.000421225)
(-0.195584 -4.81534e-09 0.000129193)
(-0.195593 -4.89512e-09 -0.000158198)
(-0.195424 -4.94704e-09 -0.000440579)
(-0.195078 -4.957e-09 -0.000717491)
(-0.19456 -4.94577e-09 -0.000988417)
(-0.193873 -4.92374e-09 -0.00125289)
(-0.193021 -4.89382e-09 -0.00151047)
(-0.192009 -4.86099e-09 -0.00176077)
(-0.190841 -4.8261e-09 -0.00200347)
(-0.189521 -4.7829e-09 -0.00223826)
(-0.188055 -4.72725e-09 -0.00246489)
(-0.186447 -4.65705e-09 -0.00268313)
(-0.184702 -4.55985e-09 -0.00289282)
(-0.182826 -4.4398e-09 -0.0030938)
(-0.180823 -4.29399e-09 -0.00328596)
(-0.1787 -4.12574e-09 -0.0034692)
(-0.176462 -3.93796e-09 -0.00364347)
(-0.174113 -3.73481e-09 -0.00380874)
(-0.17166 -3.52501e-09 -0.003965)
(-0.169108 -3.31272e-09 -0.00411227)
(-0.166462 -3.10541e-09 -0.00425059)
(-0.163727 -2.9035e-09 -0.00438002)
(-0.16091 -2.71615e-09 -0.00450065)
(-0.158015 -2.53917e-09 -0.00461257)
(-0.155047 -2.37716e-09 -0.0047159)
(-0.152013 -2.23011e-09 -0.00481077)
(-0.148916 -2.09636e-09 -0.00489733)
(-0.145762 -1.9759e-09 -0.00497574)
(-0.142556 -1.86542e-09 -0.00504617)
(-0.139303 -1.76658e-09 -0.00510881)
(-0.136007 -1.67854e-09 -0.00516385)
(-0.132674 -1.59631e-09 -0.00521149)
(-0.129306 -1.51658e-09 -0.00525195)
(-0.12591 -1.441e-09 -0.00528544)
(-0.122489 -1.36542e-09 -0.0053122)
(-0.119047 -1.29482e-09 -0.00533244)
(-0.115588 -1.22589e-09 -0.00534642)
(-0.112116 -1.15694e-09 -0.00535437)
(-0.108635 -1.08633e-09 -0.00535654)
(-0.105149 -1.01821e-09 -0.00535318)
(-0.10166 -9.50086e-10 -0.00534453)
(-0.0981726 -8.89439e-10 -0.00533085)
(-0.0946893 -8.27122e-10 -0.00531239)
(-0.0912132 -7.68127e-10 -0.00528941)
(-0.0877472 -7.08293e-10 -0.00526216)
(-0.0842941 -6.53443e-10 -0.00523089)
(-0.0808563 -6.01083e-10 -0.00519585)
(-0.0774364 -5.5537e-10 -0.0051573)
(-0.0740365 -5.17972e-10 -0.00511548)
(-0.0706589 -4.86391e-10 -0.00507063)
(-0.0673056 -4.69781e-10 -0.00502299)
(-0.0639783 -4.59824e-10 -0.0049728)
(-0.0606789 -4.66505e-10 -0.00492027)
(-0.057409 -4.81506e-10 -0.00486564)
(-0.05417 -5.07324e-10 -0.00480912)
(-0.0509632 -5.48122e-10 -0.00475091)
(-0.04779 -5.98908e-10 -0.00469121)
(-0.0446514 -6.61349e-10 -0.0046302)
(-0.0415485 -7.37945e-10 -0.00456807)
(-0.0384821 -8.17875e-10 -0.00450497)
(-0.0354531 -9.05302e-10 -0.00444106)
(-0.0324621 -9.95234e-10 -0.00437647)
(-0.02951 -1.091e-09 -0.00431134)
(-0.0265971 -1.1926e-09 -0.00424576)
(-0.0237241 -1.29671e-09 -0.00417984)
(-0.0208913 -1.4075e-09 -0.00411364)
(-0.0180992 -1.52412e-09 -0.00404722)
(-0.0153482 -1.64575e-09 -0.00398063)
(-0.0126386 -1.78239e-09 -0.00391389)
(-0.00997071 -1.9282e-09 -0.00384702)
(-0.00734487 -2.07904e-09 -0.00378003)
(-0.00476132 -2.23322e-09 -0.00371296)
(-0.00222047 -2.39743e-09 -0.00364613)
(0.000278116 -2.60164e-09 -0.00357923)
(0.00273195 -2.8442e-09 -0.00351166)
(0.00514056 -3.10097e-09 -0.00344223)
(0.0075031 -3.33528e-09 -0.00337076)
(0.00981898 -3.55714e-09 -0.00329802)
(0.0120868 -3.77237e-09 -0.00322378)
(0.0143055 -3.98514e-09 -0.00314783)
(0.0164734 -4.19046e-09 -0.00306987)
(0.018589 -4.38748e-09 -0.00298956)
(0.0206504 -4.58372e-09 -0.00290653)
(0.0226555 -4.7675e-09 -0.00282041)
(0.024602 -4.9555e-09 -0.00273079)
(0.0264872 -5.13272e-09 -0.00263727)
(0.0283085 -5.29831e-09 -0.00253942)
(0.0300626 -5.45729e-09 -0.0024368)
(0.0317461 -5.59881e-09 -0.00232899)
(0.0333554 -5.73371e-09 -0.00221555)
(0.0348865 -5.85032e-09 -0.00209606)
(0.0363352 -5.95446e-09 -0.0019701)
(0.0376971 -6.04616e-09 -0.00183728)
(0.0389673 -6.11454e-09 -0.00169724)
(0.040141 -6.16796e-09 -0.00154963)
(0.0412129 -6.20808e-09 -0.00139416)
(0.0421776 -6.23073e-09 -0.0012306)
(0.0430297 -6.24425e-09 -0.00105875)
(0.0437635 -6.24781e-09 -0.000878497)
(0.0443733 -6.24642e-09 -0.000689824)
(0.0448533 -6.23089e-09 -0.000492808)
(0.0451978 -6.21374e-09 -0.000287643)
(0.0454011 -6.18495e-09 -7.46958e-05)
(0.0454574 -6.15776e-09 0.000145977)
(0.0453617 -6.14246e-09 0.000374258)
(0.045109 -6.11222e-09 0.000609498)
(0.0446947 -6.07873e-09 0.000850952)
(0.0441147 -6.03361e-09 0.00109772)
(0.0433653 -5.9869e-09 0.00134876)
(0.0424437 -5.91183e-09 0.00160283)
(0.0413477 -5.81842e-09 0.00185852)
(0.0400764 -5.68825e-09 0.0021142)
(0.0386295 -5.52799e-09 0.00236803)
(0.0370083 -5.3527e-09 0.00261791)
(0.0352153 -5.16908e-09 0.00286149)
(0.0332548 -5.00226e-09 0.00309611)
(0.0311325 -4.86734e-09 0.00331877)
(0.0288564 -4.77609e-09 0.00352612)
(0.0264366 -4.72516e-09 0.00371437)
(0.0238857 -4.68607e-09 0.00387923)
(0.0212192 -4.62693e-09 0.00401585)
(0.0184557 -4.53763e-09 0.00411867)
(0.0156174 -4.4534e-09 0.00418135)
(0.0127306 -4.42797e-09 0.0041964)
(0.00982652 -4.5504e-09 0.00415534)
(0.00694085 -4.76871e-09 0.00404649)
(0.00411567 -4.92488e-09 0.0038573)
(0.00139996 -5.02553e-09 0.00357544)
(-0.00115289 -5.13773e-09 0.00318479)
(-0.00347116 -5.29826e-09 0.00266807)
(-0.00548496 -5.51898e-09 0.00200595)
(-0.00711127 -5.7023e-09 0.00118021)
(-0.0082611 -5.47841e-09 0.000179328)
(-0.00883913 -4.50371e-09 -0.000984908)
(-0.00874939 -2.63197e-09 -0.00225502)
(-0.00790684 8.93114e-10 -0.003478)
(-0.00625796 5.98347e-09 -0.00429396)
(-0.00382334 1.43921e-08 -0.00402092)
(-0.00090428 -6.6246e-08 -0.00196201)
(0.00221855 3.91682e-07 -0.00885862)
(0.00417652 1.19091e-07 -0.00762335)
(0.00431115 7.39606e-08 -0.00471218)
(0.00363085 3.94847e-08 -0.0016409)