/*--------------------------------*- C++ -*----------------------------------*\
  =========                 |
  \\      /  F ield         | OpenFOAM: The Open Source CFD Toolbox
   \\    /   O peration     | Website:  https://openfoam.org
    \\  /    A nd           | Version:  8
     \\/     M anipulation  |
\*---------------------------------------------------------------------------*/
FoamFile
{
    version     2.0;
    format      ascii;
    class       volScalarField;
    location    "4100";
    object      epsilon;
}
// * * * * * * * * * * * * * * * * * * * * * * * * * * * * * * * * * * * * * //

dimensions      [0 2 -3 0 0 0 0];

internalField   nonuniform List<scalar> 
48000
(
1.61556
6.2362
11.8396
17.6124
23.6748
29.7665
35.8362
41.8684
47.9518
54.1042
60.2489
66.4013
72.5514
78.6903
84.8091
90.8985
96.9485
102.949
108.888
114.756
120.542
126.235
131.824
137.299
142.651
147.87
152.947
157.875
162.646
167.254
171.693
175.958
180.045
183.951
187.672
191.208
194.558
197.72
200.695
203.485
206.09
208.513
210.755
212.82
214.736
216.505
218.111
219.555
220.841
221.975
222.963
223.81
224.522
225.105
225.563
225.904
226.131
226.252
226.27
226.192
226.023
225.766
225.428
225.013
224.524
223.967
223.346
222.664
221.925
221.132
220.29
219.401
218.468
217.494
216.482
215.433
214.351
213.238
212.096
210.925
209.73
208.51
207.267
206.003
204.719
203.416
202.095
200.757
199.404
198.035
196.651
195.253
193.842
192.417
190.98
189.531
188.07
186.597
185.112
183.616
182.109
180.591
179.061
177.52
175.969
174.406
172.831
171.246
169.649
168.041
166.421
164.789
163.146
161.491
159.824
158.145
156.453
154.75
153.034
151.305
149.564
147.81
146.044
144.265
142.474
140.67
138.853
137.024
135.183
133.329
131.463
129.585
127.695
125.793
123.88
121.956
120.022
118.077
116.122
114.157
112.183
110.2
108.209
106.21
104.204
102.191
100.173
98.1489
96.1202
94.0875
92.0515
90.013
87.9726
85.9311
83.8894
81.8481
79.8082
77.7705
75.7357
73.7047
71.6783
69.6574
67.6427
65.635
63.6353
61.6442
59.6626
57.6911
55.7304
53.7814
51.8446
49.9205
48.0099
46.1132
44.2308
42.3633
40.5108
38.6739
36.8529
35.0494
33.2658
31.5116
29.7746
28.0486
26.334
24.629
22.9322
21.242
19.5561
17.8717
16.1853
14.4991
12.8168
11.1207
9.40214
7.65059
5.85203
3.99122
2.09333
0.618256
1.6156
6.23626
11.8397
17.6125
23.675
29.7667
35.8364
41.8686
47.9519
54.1044
60.2491
66.4015
72.5515
78.6904
84.8093
90.8987
96.9487
102.949
108.888
114.756
120.542
126.235
131.824
137.299
142.651
147.87
152.947
157.875
162.647
167.254
171.693
175.958
180.045
183.951
187.673
191.208
194.558
197.72
200.695
203.485
206.09
208.513
210.755
212.82
214.736
216.505
218.111
219.555
220.841
221.975
222.963
223.81
224.522
225.105
225.563
225.904
226.131
226.252
226.27
226.192
226.023
225.766
225.428
225.012
224.524
223.967
223.346
222.664
221.925
221.132
220.29
219.401
218.468
217.494
216.481
215.433
214.351
213.238
212.096
210.925
209.73
208.51
207.267
206.003
204.719
203.416
202.095
200.757
199.404
198.035
196.651
195.253
193.842
192.417
190.98
189.531
188.07
186.597
185.112
183.616
182.109
180.591
179.061
177.52
175.969
174.406
172.831
171.246
169.649
168.041
166.421
164.789
163.146
161.491
159.824
158.145
156.453
154.75
153.033
151.305
149.564
147.81
146.044
144.265
142.474
140.67
138.853
137.024
135.183
133.329
131.463
129.585
127.695
125.793
123.88
121.956
120.022
118.077
116.121
114.157
112.183
110.2
108.209
106.21
104.204
102.191
100.173
98.1489
96.1202
94.0875
92.0515
90.013
87.9726
85.9311
83.8894
81.8481
79.8082
77.7705
75.7357
73.7047
71.6783
69.6574
67.6427
65.6351
63.6353
61.6442
59.6626
57.6911
55.7305
53.7814
51.8446
49.9205
48.0099
46.1132
44.2309
42.3633
40.5108
38.6739
36.8529
35.0494
33.2658
31.5116
29.7746
28.0486
26.3341
24.6291
22.9323
21.242
19.5561
17.8717
16.1854
14.4991
12.8168
11.1207
9.40215
7.65059
5.85203
3.99122
2.09341
0.618259
7.4362
6.36317
8.13779
10.302
12.6555
15.1018
17.602
20.1215
22.6712
25.2525
27.8571
30.4827
33.1261
35.7834
38.4507
41.1233
43.7963
46.4645
49.1223
51.7638
54.3833
56.9746
59.5317
62.0488
64.52
66.9398
69.3029
71.6041
73.8388
76.0027
78.0919
80.103
82.0328
83.8788
85.6389
87.3114
88.8951
90.3892
91.7932
93.1072
94.3316
95.4671
96.5152
97.4787
98.3651
99.1751
99.9061
100.558
101.134
101.634
102.062
102.421
102.712
102.94
103.107
103.216
103.269
103.271
103.222
103.127
102.987
102.806
102.586
102.329
102.037
101.713
101.359
100.977
100.569
100.137
99.6817
99.2056
98.71
98.1964
97.6661
97.1203
96.5603
95.9871
95.4017
94.805
94.198
93.5814
92.956
92.3223
91.681
91.0328
90.3779
89.717
89.0505
88.3785
87.7016
87.02
86.3339
85.6435
84.9491
84.2507
83.5486
82.8427
82.1333
81.4202
80.7037
79.9838
79.2603
78.5334
77.803
77.0691
76.3317
75.5907
74.8461
74.0978
73.3457
72.5899
71.8302
71.0666
70.299
69.5273
68.7516
67.9717
67.1876
66.3992
65.6065
64.8095
64.0081
63.2024
62.3922
61.5776
60.7587
59.9353
59.1076
58.2755
57.4392
56.5987
55.7541
54.9054
54.0527
53.1962
52.3361
51.4723
50.6051
49.7347
48.8613
47.9849
47.1059
46.2245
45.3408
44.4552
43.5679
42.6792
41.7893
40.8986
40.0074
39.1159
38.2245
37.3335
36.4432
35.5541
34.6663
33.7804
32.8966
32.0152
31.1367
30.2614
29.3896
28.5216
27.6579
26.7987
25.9443
25.0951
24.2514
23.4134
22.5813
21.7555
20.9362
20.1236
19.3178
18.5191
17.7276
16.9434
16.1668
15.3981
14.6378
13.8866
13.1429
12.405
11.6741
10.9494
10.2301
9.51604
8.80657
8.10133
7.40029
6.70487
6.0157
5.32994
4.64716
3.96901
3.3021
2.66878
2.15728
2.55207
7.43629
6.36315
8.13774
10.302
12.6555
15.1017
17.6019
20.1214
22.6711
25.2524
27.857
30.4826
33.1259
35.7833
38.4505
41.1231
43.7962
46.4643
49.1221
51.7637
54.3831
56.9744
59.5315
62.0486
64.5199
66.9396
69.3027
71.6039
73.8386
76.0025
78.0917
80.1028
82.0326
83.8786
85.6387
87.3112
88.8949
90.389
91.793
93.107
94.3313
95.4669
96.515
97.4785
98.3649
99.1748
99.9059
100.558
101.133
101.634
102.062
102.42
102.712
102.94
103.107
103.216
103.269
103.27
103.222
103.127
102.987
102.806
102.585
102.328
102.037
101.713
101.359
100.977
100.569
100.137
99.6814
99.2053
98.7098
98.1961
97.6658
97.1201
96.5601
95.9868
95.4015
94.8048
94.1978
93.5812
92.9557
92.3221
91.6808
91.0326
90.3777
89.7168
89.0502
88.3783
87.7014
87.0198
86.3337
85.6433
84.9489
84.2505
83.5484
82.8425
82.1331
81.4201
80.7036
79.9836
79.2601
78.5332
77.8028
77.069
76.3315
75.5905
74.8459
74.0976
73.3455
72.5897
71.83
71.0664
70.2988
69.5272
68.7514
67.9715
67.1874
66.3991
65.6064
64.8094
64.008
63.2022
62.3921
61.5775
60.7585
59.9352
59.1074
58.2754
57.4391
56.5986
55.7539
54.9052
54.0526
53.1961
52.3359
51.4722
50.605
49.7346
48.8611
47.9848
47.1058
46.2244
45.3407
44.4551
43.5678
42.6791
41.7892
40.8985
40.0073
39.1158
38.2244
37.3334
36.4431
35.554
34.6662
33.7803
32.8965
32.0151
31.1366
30.2613
29.3895
28.5216
27.6578
26.7986
25.9443
25.0951
24.2513
23.4133
22.5813
21.7555
20.9362
20.1236
19.3178
18.5191
17.7275
16.9434
16.1667
15.398
14.6377
13.8865
13.1428
12.4049
11.6741
10.9493
10.2301
9.51601
8.80655
8.10131
7.40027
6.70485
6.01568
5.32992
4.64715
3.969
3.30207
2.6687
2.15728
2.55197
13.8399
8.5319
9.01911
10.3001
11.856
13.5525
15.3342
17.1715
19.0523
20.9691
22.9155
24.8871
26.8799
28.8901
30.9141
32.948
34.9877
37.0289
39.0673
41.098
43.1163
45.1174
47.0962
49.0478
50.9674
52.8502
54.6916
56.4874
58.2333
59.9255
61.5605
63.1352
64.6467
66.0925
67.4707
68.7795
70.0176
71.184
72.2783
73.3002
74.2498
75.1279
75.9353
76.6739
77.3464
77.9541
78.4973
78.9768
79.394
79.7507
80.0489
80.2907
80.4784
80.6144
80.7011
80.7408
80.736
80.6889
80.602
80.4775
80.3176
80.1245
79.9003
79.6471
79.3667
79.061
78.7319
78.3809
78.0098
77.6199
77.2129
76.79
76.3524
75.9015
75.4383
74.9638
74.479
73.9848
73.4821
72.9716
72.454
71.93
71.4001
70.865
70.325
69.7807
69.2324
68.6805
68.1254
67.5672
67.0064
66.443
65.8772
65.3094
64.7395
64.1677
63.5941
63.0188
62.4418
61.8632
61.283
60.7012
60.1178
59.5328
58.9463
58.3581
57.7682
57.1766
56.5833
55.9881
55.3911
54.7922
54.1914
53.5885
52.9836
52.3765
51.7673
51.1558
50.542
49.9259
49.3075
48.6866
48.0634
47.4376
46.8095
46.1788
45.5457
44.9101
44.2721
43.6316
42.9887
42.3435
41.6959
41.0461
40.3942
39.7401
39.0841
38.4262
37.7664
37.105
36.4421
35.7778
35.1123
34.4457
33.7782
33.1099
32.4412
31.7721
31.1029
30.4339
29.7651
29.0969
28.4295
27.7632
27.0981
26.4345
25.7728
25.113
24.4556
23.8007
23.1487
22.4997
21.854
21.2118
20.5735
19.9392
19.3093
18.6838
18.063
17.4472
16.8364
16.231
15.6311
15.0368
14.4482
13.8656
13.2891
12.7187
12.1547
11.5971
11.0463
10.5021
9.96446
9.43288
8.90748
8.388
7.87466
7.36758
6.86678
6.37258
5.88561
5.40704
4.9385
4.48148
4.03967
3.62111
3.244
2.95713
2.94822
4.90828
13.8401
8.53185
9.01903
10.3
11.8559
13.5524
15.334
17.1714
19.0521
20.9689
22.9154
24.887
26.8797
28.89
30.914
32.9478
34.9875
37.0288
39.0671
41.0979
43.1162
45.1172
47.096
49.0476
50.9672
52.8501
54.6915
56.4872
58.2331
59.9254
61.5604
63.1351
64.6465
66.0924
67.4706
68.7793
70.0174
71.1839
72.2782
73.3
74.2497
75.1277
75.9352
76.6738
77.3463
77.954
78.4972
78.9767
79.3939
79.7506
80.0488
80.2906
80.4783
80.6143
80.701
80.7407
80.7358
80.6888
80.6019
80.4773
80.3175
80.1244
79.9002
79.647
79.3666
79.0609
78.7318
78.3808
78.0097
77.6198
77.2128
76.7899
76.3523
75.9014
75.4382
74.9637
74.4789
73.9847
73.482
72.9715
72.4539
71.9299
71.4
70.8649
70.3249
69.7806
69.2323
68.6804
68.1253
67.5671
67.0063
66.4429
65.8772
65.3093
64.7394
64.1676
63.594
63.0187
62.4417
61.8631
61.2829
60.7011
60.1177
59.5328
58.9462
58.358
57.7681
57.1765
56.5832
55.9881
55.3911
54.7922
54.1913
53.5885
52.9835
52.3764
51.7672
51.1557
50.5419
49.9259
49.3074
48.6866
48.0633
47.4376
46.8094
46.1788
45.5456
44.91
44.272
43.6315
42.9886
42.3434
41.6959
41.0461
40.3941
39.7401
39.0841
38.4261
37.7664
37.105
36.4421
35.7778
35.1122
34.4456
33.7781
33.1099
32.4412
31.7721
31.1029
30.4338
29.7651
29.0969
28.4295
27.7631
27.0981
26.4345
25.7727
25.113
24.4556
23.8007
23.1486
22.4996
21.8539
21.2118
20.5735
19.9392
19.3092
18.6837
18.063
17.4471
16.8364
16.231
15.631
15.0367
14.4482
13.8656
13.289
12.7187
12.1547
11.5971
11.0463
10.5021
9.96444
9.43287
8.90747
8.38799
7.87465
7.36757
6.86677
6.37258
5.88561
5.40703
4.9385
4.48147
4.03967
3.62111
3.244
2.95713
2.94829
4.90831
20.086
11.0963
10.6568
11.4123
12.5731
13.9355
15.4183
16.9808
18.6006
20.2638
21.9611
23.6856
25.4319
27.1956
28.9727
30.7591
32.5512
34.3449
36.1364
37.9215
39.696
41.4558
43.1964
44.9137
46.6032
48.2609
49.8827
51.4645
53.0028
54.494
55.9349
57.3226
58.6543
59.9278
61.1411
62.2925
63.3807
64.4047
65.364
66.2581
67.0872
67.8517
68.5524
69.1903
69.7671
70.284
70.742
71.1421
71.4857
71.7744
72.0101
72.1947
72.3302
72.4188
72.4626
72.4639
72.4248
72.3474
72.234
72.0866
71.9073
71.6981
71.461
71.1977
70.9102
70.6001
70.2692
69.9189
69.5508
69.1663
68.7667
68.3533
67.9273
67.4897
67.0417
66.5842
66.1181
65.6441
65.1632
64.6759
64.183
63.6851
63.1826
62.6762
62.1661
61.653
61.137
60.6186
60.0981
59.5756
59.0515
58.5259
57.999
57.4709
56.9419
56.4119
55.8811
55.3495
54.8172
54.2842
53.7505
53.2162
52.6813
52.1456
51.6093
51.0723
50.5345
49.9959
49.4565
48.9162
48.375
47.8328
47.2896
46.7453
46.1998
45.6532
45.1053
44.5561
44.0055
43.4536
42.9003
42.3455
41.7892
41.2314
40.6721
40.1112
39.5488
38.9848
38.4193
37.8523
37.2838
36.7139
36.1425
35.5698
34.9957
34.4204
33.8439
33.2664
32.6879
32.1084
31.5282
30.9474
30.366
29.7843
29.2023
28.6203
28.0383
27.4566
26.8753
26.2946
25.7147
25.1358
24.5581
23.9818
23.4071
22.8342
22.2633
21.6947
21.1286
20.5651
20.0045
19.447
18.8929
18.3423
17.7954
17.2525
16.7137
16.1792
15.6492
15.124
14.6036
14.0882
13.578
13.0731
12.5737
12.0799
11.5918
11.1097
10.6335
10.1635
9.6998
9.24245
8.79149
8.34694
7.90891
7.47754
7.0531
6.63594
6.22656
5.82593
5.43516
5.056
4.69108
4.34443
4.02307
3.74054
3.52608
3.45663
3.83006
7.26065
20.0861
11.0963
10.6567
11.4122
12.573
13.9354
15.4182
16.9807
18.6004
20.2637
21.961
23.6854
25.4318
27.1955
28.9725
30.759
32.551
34.3448
36.1362
37.9213
39.6959
41.4556
43.1963
44.9135
46.6031
48.2608
49.8825
51.4644
53.0027
54.4939
55.9348
57.3225
58.6542
59.9277
61.141
62.2924
63.3806
64.4046
65.3639
66.258
67.0871
67.8516
68.5523
69.1902
69.767
70.2839
70.7419
71.142
71.4856
71.7743
72.01
72.1946
72.3301
72.4187
72.4626
72.4638
72.4247
72.3474
72.234
72.0866
71.9073
71.6981
71.4609
71.1977
70.9101
70.6001
70.2691
69.9188
69.5507
69.1662
68.7666
68.3532
67.9272
67.4897
67.0417
66.5841
66.118
65.6441
65.1631
64.6759
64.183
63.685
63.1826
62.6761
62.1661
61.6529
61.137
60.6186
60.098
59.5756
59.0514
58.5258
57.9989
57.4709
56.9418
56.4119
55.881
55.3494
54.8171
54.2841
53.7505
53.2162
52.6812
52.1456
51.6093
51.0722
50.5345
49.9959
49.4565
48.9162
48.375
47.8328
47.2896
46.7453
46.1998
45.6531
45.1052
44.5561
44.0055
43.4536
42.9003
42.3455
41.7892
41.2314
40.672
40.1112
39.5488
38.9848
38.4193
37.8523
37.2838
36.7139
36.1425
35.5697
34.9957
34.4204
33.8439
33.2664
32.6878
32.1084
31.5282
30.9474
30.366
29.7843
29.2023
28.6202
28.0383
27.4565
26.8752
26.2945
25.7147
25.1358
24.5581
23.9817
23.407
22.8342
22.2633
21.6947
21.1285
20.5651
20.0045
19.447
18.8929
18.3423
17.7954
17.2525
16.7137
16.1792
15.6492
15.124
14.6036
14.0882
13.578
13.0731
12.5737
12.0799
11.5918
11.1097
10.6335
10.1635
9.69979
9.24245
8.79149
8.34694
7.90891
7.47753
7.05309
6.63593
6.22655
5.82593
5.43516
5.05599
4.69108
4.34443
4.02307
3.74054
3.52608
3.45664
3.83009
7.26066
26.3602
13.8759
12.6156
12.9656
13.8589
15.0173
16.331
17.7455
19.2299
20.7649
22.3375
23.9385
25.5609
27.1992
28.8488
30.5056
32.1657
33.8255
35.4813
37.1295
38.7663
40.3881
41.991
43.5713
45.1253
46.6492
48.1395
49.5925
51.0051
52.374
53.6963
54.9693
56.1905
57.3577
58.469
59.523
60.5182
61.4538
62.329
63.1435
63.8973
64.5906
65.224
65.7985
66.315
66.7748
67.1788
67.5283
67.8246
68.0693
68.264
68.4107
68.5111
68.5673
68.5812
68.5551
68.4908
68.3905
68.2562
68.0898
67.8934
67.6689
67.4181
67.1429
66.8448
66.5257
66.187
65.8304
65.4571
65.0687
64.6664
64.2513
63.8247
63.3876
62.941
62.4859
62.023
61.5533
61.0774
60.596
60.1098
59.6193
59.1251
58.6277
58.1273
57.6246
57.1198
56.6132
56.1051
55.5958
55.0855
54.5743
54.0625
53.5502
53.0374
52.5244
52.0111
51.4976
50.9841
50.4704
49.9567
49.4429
48.929
48.4151
47.9011
47.3869
46.8726
46.3581
45.8433
45.3282
44.8128
44.297
43.7808
43.2641
42.7468
42.2289
41.7104
41.1911
40.6712
40.1504
39.6288
39.1064
38.583
38.0588
37.5336
37.0074
36.4803
35.9522
35.4232
34.8933
34.3624
33.8306
33.298
32.7646
32.2304
31.6955
31.1599
30.6238
30.0872
29.5502
29.013
28.4755
27.938
27.4005
26.8633
26.3263
25.7898
25.254
24.7189
24.1848
23.6517
23.12
22.5897
22.061
21.5342
21.0094
20.4868
19.9666
19.4489
18.9341
18.4222
17.9135
17.4081
16.9063
16.4082
15.914
15.4239
14.9381
14.4567
13.9799
13.5078
13.0407
12.5787
12.1218
11.6704
11.2244
10.7841
10.3497
9.92115
9.49879
9.08272
8.67311
8.27013
7.87397
7.4849
7.10325
6.72952
6.36432
6.00852
5.66336
5.33053
5.01255
4.7132
4.43832
4.198
4.01101
3.91735
4.02236
4.73453
9.5928
26.3603
13.8758
12.6155
12.9655
13.8588
15.0172
16.3309
17.7454
19.2298
20.7648
22.3374
23.9384
25.5608
27.1991
28.8487
30.5055
32.1656
33.8254
35.4812
37.1294
38.7662
40.388
41.9909
43.5712
45.1252
46.6491
48.1393
49.5924
51.005
52.3739
53.6962
54.9692
56.1904
57.3576
58.4689
59.5229
60.5181
61.4537
62.3289
63.1434
63.8972
64.5905
65.2239
65.7984
66.3149
66.7747
67.1788
67.5282
67.8246
68.0692
68.264
68.4106
68.511
68.5672
68.5812
68.555
68.4907
68.3904
68.2561
68.0898
67.8934
67.6689
67.4181
67.1428
66.8448
66.5256
66.187
65.8303
65.4571
65.0687
64.6663
64.2513
63.8247
63.3876
62.941
62.4858
62.023
61.5533
61.0774
60.596
60.1098
59.6193
59.1251
58.6276
58.1273
57.6246
57.1198
56.6132
56.1051
55.5958
55.0855
54.5743
54.0625
53.5501
53.0374
52.5243
52.0111
51.4976
50.984
50.4704
49.9567
49.4429
48.929
48.4151
47.901
47.3869
46.8726
46.358
45.8433
45.3282
44.8128
44.297
43.7808
43.2641
42.7468
42.2289
41.7104
41.1911
40.6712
40.1504
39.6288
39.1063
38.583
38.0587
37.5335
37.0074
36.4803
35.9522
35.4232
34.8933
34.3624
33.8306
33.298
32.7646
32.2304
31.6954
31.1599
30.6238
30.0872
29.5502
29.013
28.4755
27.938
27.4005
26.8633
26.3263
25.7898
25.254
24.7189
24.1848
23.6517
23.12
22.5897
22.061
21.5342
21.0094
20.4868
19.9666
19.4489
18.9341
18.4222
17.9135
17.4081
16.9063
16.4082
15.914
15.4239
14.9381
14.4567
13.9799
13.5078
13.0407
12.5787
12.1218
11.6704
11.2244
10.7841
10.3497
9.92115
9.49879
9.08272
8.67311
8.27013
7.87397
7.4849
7.10325
6.72952
6.36432
6.00852
5.66336
5.33053
5.01255
4.7132
4.43832
4.198
4.01101
3.91735
4.02236
4.73454
9.5928
32.603
16.7834
14.7666
14.7757
15.4634
16.4777
17.6804
19.0032
20.4071
21.8676
23.3684
24.8979
26.4476
28.0108
29.5825
31.1581
32.7337
34.3059
35.8713
37.4264
38.9682
40.4933
41.9986
43.4806
44.9363
46.3624
47.7558
49.1134
50.4321
51.7093
52.9423
54.1286
55.266
56.3524
57.3862
58.3658
59.29
60.158
60.9689
61.7224
62.4185
63.0573
63.6392
64.165
64.6354
65.0516
65.4145
65.7253
65.9853
66.1961
66.3592
66.4762
66.5491
66.5797
66.5698
66.5216
66.4368
66.3174
66.1654
65.9828
65.7713
65.5329
65.2693
64.9822
64.6734
64.3444
63.9967
63.6319
63.2513
62.8563
62.448
62.0278
61.5967
61.1557
60.7059
60.2481
59.7832
59.3119
58.8351
58.3533
57.8672
57.3773
56.8842
56.3883
55.8901
55.3899
54.8881
54.385
53.8809
53.376
52.8705
52.3646
51.8585
51.3523
50.8461
50.3401
49.8342
49.3286
48.8233
48.3184
47.8138
47.3095
46.8056
46.3021
45.7988
45.2959
44.7932
44.2907
43.7885
43.2863
42.7843
42.2822
41.7802
41.278
40.7758
40.2734
39.7707
39.2678
38.7646
38.261
37.757
37.2526
36.7477
36.2423
35.7364
35.23
34.723
34.2155
33.7075
33.199
32.6899
32.1803
31.6703
31.1599
30.6491
30.1379
29.6265
29.115
28.6032
28.0915
27.5798
27.0683
26.557
26.0461
25.5356
25.0258
24.5167
24.0085
23.5013
22.9953
22.4906
21.9874
21.4859
20.9861
20.4883
19.9927
19.4994
19.0086
18.5204
18.0351
17.5528
17.0738
16.5981
16.1259
15.6575
15.1929
14.7325
14.2762
13.8243
13.377
12.9344
12.4967
12.064
11.6365
11.2143
10.7976
10.3866
9.98146
9.58235
9.18949
8.80308
8.42338
8.05066
7.68525
7.32755
6.97809
6.63754
6.30678
5.987
5.67981
5.38743
5.11309
4.86159
4.64047
4.46267
4.35204
4.35927
4.61799
5.64707
11.912
32.6032
16.7834
14.7665
14.7756
15.4633
16.4776
17.6803
19.0031
20.407
21.8675
23.3683
24.8978
26.4474
28.0107
29.5824
31.158
32.7336
34.3058
35.8711
37.4263
38.9681
40.4932
41.9984
43.4805
44.9362
46.3623
47.7557
49.1132
50.432
51.7092
52.9422
54.1285
55.2658
56.3523
57.3861
58.3657
59.2899
60.1579
60.9688
61.7223
62.4184
63.0572
63.6391
64.1649
64.6353
65.0515
65.4144
65.7252
65.9853
66.196
66.3591
66.4762
66.5491
66.5796
66.5698
66.5215
66.4367
66.3174
66.1654
65.9828
65.7713
65.5329
65.2692
64.9822
64.6733
64.3443
63.9967
63.6318
63.2513
62.8562
62.448
62.0278
61.5967
61.1557
60.7059
60.2481
59.7831
59.3119
58.835
58.3533
57.8671
57.3773
56.8842
56.3883
55.8901
55.3899
54.8881
54.385
53.8809
53.376
52.8705
52.3646
51.8585
51.3523
50.8461
50.3401
49.8342
49.3286
48.8233
48.3184
47.8137
47.3095
46.8056
46.302
45.7988
45.2959
44.7932
44.2907
43.7885
43.2863
42.7842
42.2822
41.7802
41.278
40.7758
40.2734
39.7707
39.2678
38.7646
38.261
37.757
37.2526
36.7477
36.2423
35.7364
35.23
34.723
34.2155
33.7075
33.1989
32.6899
32.1803
31.6703
31.1599
30.6491
30.1379
29.6265
29.1149
28.6032
28.0915
27.5798
27.0683
26.557
26.0461
25.5356
25.0258
24.5167
24.0085
23.5013
22.9953
22.4906
21.9874
21.4859
20.9861
20.4883
19.9927
19.4994
19.0086
18.5204
18.0351
17.5528
17.0738
16.5981
16.1259
15.6575
15.1929
14.7325
14.2762
13.8243
13.377
12.9344
12.4967
12.064
11.6365
11.2143
10.7976
10.3866
9.98146
9.58235
9.18949
8.80308
8.42338
8.05066
7.68525
7.32755
6.97809
6.63754
6.30678
5.987
5.67981
5.38743
5.11309
4.86159
4.64047
4.46267
4.35204
4.35928
4.618
5.64709
11.912
38.8886
19.7835
17.0603
16.7693
17.288
18.1921
19.3156
20.5766
21.9284
23.3419
24.7972
26.2808
27.7824
29.2948
30.8119
32.329
33.8423
35.3482
36.8438
38.3259
39.792
41.239
42.6645
44.0655
45.4394
46.7835
48.095
49.3715
50.6102
51.8089
52.965
54.0766
55.1416
56.1581
57.1246
58.0397
58.9023
59.7115
60.4665
61.1671
61.8131
62.4045
62.9417
63.4253
63.856
64.2346
64.5622
64.8399
65.0689
65.2506
65.3865
65.4783
65.5275
65.5361
65.5057
65.4383
65.3356
65.1996
65.0322
64.8351
64.6102
64.3592
64.0838
63.7858
63.4668
63.1283
62.7717
62.3987
62.0104
61.6083
61.1934
60.7671
60.3304
59.8842
59.4296
58.9675
58.4987
58.0239
57.5439
57.0593
56.5708
56.0789
55.5841
55.0869
54.5876
54.0868
53.5846
53.0815
52.5777
52.0734
51.5688
51.0642
50.5597
50.0554
49.5515
49.048
48.545
48.0426
47.5408
47.0397
46.5392
46.0394
45.5402
45.0418
44.5439
44.0467
43.5501
43.054
42.5584
42.0632
41.5685
41.0741
40.58
40.0862
39.5925
39.0991
38.6057
38.1124
37.6191
37.1257
36.6323
36.1388
35.6452
35.1514
34.6573
34.1631
33.6687
33.1741
32.6792
32.1841
31.6889
31.1934
30.6978
30.202
29.7062
29.2104
28.7145
28.2188
27.7232
27.2278
26.7327
26.2381
25.7439
25.2503
24.7574
24.2653
23.7742
23.2842
22.7953
22.3078
21.8217
21.3373
20.8546
20.3738
19.8952
19.4187
18.9447
18.4732
18.0044
17.5385
17.0757
16.616
16.1598
15.707
15.258
14.8129
14.3718
13.9348
13.5023
13.0742
12.6508
12.2323
11.8187
11.4104
11.0073
10.6099
10.2181
9.83225
9.45258
9.07932
8.71274
8.35317
8.00098
7.65661
7.32061
6.99366
6.67663
6.37062
6.07713
5.79813
5.53636
5.29575
5.08212
4.90466
4.77886
4.73366
4.83044
5.23111
6.5648
14.2243
38.8888
19.7834
17.0602
16.7692
17.2878
18.192
19.3155
20.5765
21.9283
23.3417
24.7971
26.2806
27.7823
29.2946
30.8117
32.3289
33.8422
35.3481
36.8436
38.3258
39.7918
41.2389
42.6643
44.0654
45.4393
46.7833
48.0949
49.3713
50.6101
51.8087
52.9649
54.0765
55.1415
56.158
57.1245
58.0396
58.9022
59.7114
60.4664
61.167
61.813
62.4044
62.9416
63.4252
63.8559
64.2345
64.5622
64.8398
65.0688
65.2505
65.3865
65.4782
65.5275
65.536
65.5056
65.4382
65.3356
65.1996
65.0322
64.8351
64.6101
64.3591
64.0838
63.7858
63.4667
63.1282
62.7717
62.3986
62.0104
61.6082
61.1934
60.7671
60.3303
59.8842
59.4296
58.9675
58.4986
58.0239
57.5439
57.0593
56.5708
56.0789
55.5841
55.0868
54.5876
54.0867
53.5846
53.0815
52.5777
52.0734
51.5688
51.0642
50.5597
50.0554
49.5515
49.048
48.545
48.0426
47.5408
47.0396
46.5392
46.0394
45.5402
45.0417
44.5439
44.0467
43.55
43.0539
42.5583
42.0632
41.5684
41.0741
40.58
40.0862
39.5925
39.0991
38.6057
38.1124
37.6191
37.1257
36.6323
36.1388
35.6452
35.1513
34.6573
34.1631
33.6687
33.1741
32.6792
32.1841
31.6888
31.1934
30.6978
30.202
29.7062
29.2104
28.7145
28.2188
27.7232
27.2278
26.7327
26.2381
25.7439
25.2503
24.7574
24.2653
23.7742
23.2842
22.7953
22.3078
21.8217
21.3373
20.8546
20.3738
19.8952
19.4187
18.9447
18.4732
18.0044
17.5385
17.0757
16.616
16.1598
15.707
15.258
14.8129
14.3718
13.9348
13.5023
13.0742
12.6508
12.2323
11.8187
11.4104
11.0073
10.6099
10.2181
9.83225
9.45258
9.07932
8.71274
8.35318
8.00098
7.65662
7.32061
6.99366
6.67663
6.37063
6.07713
5.79813
5.53636
5.29575
5.08212
4.90466
4.77886
4.73366
4.83044
5.23112
6.56482
14.2243
45.4306
22.8914
19.4806
18.9133
19.2859
20.101
21.1646
22.3814
23.6974
25.0787
26.5026
27.9534
29.4197
30.893
32.3669
33.8365
35.2977
36.7474
38.1826
39.6009
40.9998
42.3771
43.7306
45.0581
46.3573
47.6261
48.8623
50.0638
51.2283
52.3538
53.4384
54.4802
55.4774
56.4285
57.3319
58.1865
58.9913
59.7453
60.4479
61.0988
61.6978
62.2449
62.7404
63.1846
63.5783
63.9222
64.2173
64.4644
64.6649
64.82
64.9311
64.9998
65.0275
65.016
64.967
64.8823
64.7635
64.6125
64.431
64.2209
63.9837
63.7213
63.4354
63.1274
62.799
62.4518
62.0871
61.7063
61.3108
60.9019
60.4807
60.0484
59.6061
59.1547
58.6952
58.2285
57.7553
57.2766
56.7929
56.3049
55.8132
55.3184
54.821
54.3214
53.82
53.3173
52.8135
52.309
51.8041
51.2989
50.7937
50.2887
49.784
49.2798
48.7761
48.2732
47.771
47.2696
46.7691
46.2695
45.7708
45.273
44.7761
44.2801
43.7851
43.2908
42.7975
42.3049
41.813
41.3219
40.8314
40.3415
39.8522
39.3634
38.8751
38.3872
37.8996
37.4124
36.9254
36.4386
35.952
35.4656
34.9793
34.4931
34.007
33.5209
33.0349
32.5488
32.0629
31.5769
31.091
30.6051
30.1193
29.6337
29.1482
28.6628
28.1777
27.6929
27.2085
26.7244
26.2409
25.758
25.2757
24.7942
24.3135
23.8339
23.3553
22.8778
22.4018
21.9271
21.454
20.9827
20.5132
20.0456
19.5802
19.1171
18.6564
18.1983
17.743
17.2905
16.841
16.3948
15.9519
15.5125
15.0768
14.6449
14.217
13.7932
13.3738
12.9588
12.5485
12.1429
11.7424
11.347
10.957
10.5726
10.1939
9.82132
9.455
9.09529
8.74251
8.39707
8.05942
7.73011
7.40983
7.09939
6.79985
6.51256
6.23926
5.98232
5.74495
5.53178
5.34964
5.2093
5.12889
5.14231
5.32163
5.85719
7.48832
16.536
45.4308
22.8913
19.4804
18.9132
19.2858
20.1009
21.1644
22.3813
23.6972
25.0785
26.5025
27.9533
29.4196
30.8928
32.3667
33.8363
35.2976
36.7473
38.1825
39.6008
40.9997
42.377
43.7305
45.058
46.3572
47.626
48.8622
50.0636
51.2282
52.3537
53.4383
54.4801
55.4773
56.4284
57.3318
58.1864
58.9912
59.7452
60.4478
61.0988
61.6978
62.2449
62.7403
63.1846
63.5783
63.9222
64.2172
64.4644
64.6649
64.82
64.9311
64.9997
65.0275
65.016
64.967
64.8822
64.7634
64.6124
64.431
64.2208
63.9837
63.7213
63.4353
63.1274
62.799
62.4518
62.087
61.7063
61.3108
60.9019
60.4807
60.0484
59.6061
59.1547
58.6952
58.2284
57.7553
57.2765
56.7928
56.3048
55.8132
55.3184
54.8209
54.3213
53.82
53.3173
52.8135
52.309
51.804
51.2989
50.7937
50.2887
49.784
49.2798
48.7761
48.2732
47.771
47.2696
46.7691
46.2695
45.7708
45.273
44.7761
44.2801
43.7851
43.2908
42.7974
42.3048
41.813
41.3219
40.8314
40.3415
39.8522
39.3634
38.8751
38.3872
37.8996
37.4123
36.9254
36.4386
35.952
35.4656
34.9793
34.4931
34.007
33.5209
33.0349
32.5488
32.0628
31.5769
31.091
30.6051
30.1193
29.6337
29.1481
28.6628
28.1777
27.6929
27.2085
26.7244
26.2409
25.758
25.2757
24.7942
24.3135
23.8339
23.3553
22.8778
22.4018
21.9271
21.454
20.9827
20.5132
20.0456
19.5802
19.1171
18.6564
18.1983
17.743
17.2905
16.841
16.3948
15.9519
15.5125
15.0768
14.6449
14.217
13.7932
13.3738
12.9588
12.5485
12.1429
11.7424
11.347
10.957
10.5726
10.1939
9.82132
9.45501
9.09529
8.74251
8.39707
8.05942
7.73011
7.40983
7.09939
6.79986
6.51256
6.23926
5.98232
5.74495
5.53178
5.34964
5.2093
5.12889
5.14231
5.32164
5.8572
7.48834
16.536
52.2281
26.1185
22.0222
21.1923
21.4333
22.173
23.1888
24.3721
25.6617
27.0191
28.419
29.8437
31.2804
32.72
34.1557
35.5822
36.9956
38.3929
39.7714
41.1291
42.4641
43.7746
45.0589
46.3153
47.5423
48.738
49.901
51.0293
52.1214
53.1756
54.1902
55.1637
56.0945
56.9814
57.823
58.6183
59.3663
60.0663
60.7176
61.3199
61.8729
62.3767
62.8314
63.2373
63.5951
63.9054
64.169
64.3868
64.5599
64.6896
64.7771
64.8238
64.8312
64.8008
64.7343
64.6334
64.4996
64.3346
64.1403
63.9181
63.6698
63.3971
63.1014
62.7844
62.4477
62.0925
61.7205
61.3328
60.9309
60.5159
60.089
59.6513
59.2039
58.7477
58.2838
57.8128
57.3358
56.8533
56.3661
55.8748
55.3801
54.8825
54.3824
53.8803
53.3767
52.872
52.3663
51.8602
51.3537
50.8472
50.3409
49.835
49.3295
48.8248
48.3208
47.8176
47.3154
46.8142
46.3141
45.8151
45.3171
44.8203
44.3245
43.8299
43.3363
42.8439
42.3524
41.8619
41.3724
40.8838
40.3961
39.9092
39.423
38.9376
38.4528
37.9686
37.485
37.002
36.5194
36.0372
35.5554
35.074
34.593
34.1122
33.6317
33.1514
32.6714
32.1916
31.7121
31.2328
30.7537
30.2748
29.7962
29.3179
28.84
28.3624
27.8852
27.4084
26.9322
26.4565
25.9815
25.5072
25.0337
24.5611
24.0894
23.6189
23.1495
22.6814
22.2147
21.7495
21.2859
20.8241
20.3642
19.9063
19.4505
18.997
18.546
18.0975
17.6518
17.2089
16.769
16.3323
15.8989
15.4689
15.0426
14.62
14.2014
13.7868
13.3765
12.9707
12.5694
12.1728
11.7813
11.3949
11.0139
10.6385
10.2689
9.90552
9.54855
9.19838
8.85541
8.52009
8.19299
7.87475
7.56616
7.26821
6.98212
6.70944
6.4522
6.21312
5.99591
5.80585
5.6508
5.5431
5.50359
5.57103
5.82851
6.49527
8.42263
18.8658
52.2283
26.1184
22.0221
21.1922
21.4332
22.1728
23.1886
24.372
25.6616
27.019
28.4189
29.8436
31.2803
32.7199
34.1555
35.582
36.9955
38.3928
39.7713
41.129
42.464
43.7745
45.0587
46.3152
47.5421
48.7379
49.9008
51.0292
52.1213
53.1755
54.1901
55.1636
56.0944
56.9813
57.8229
58.6182
59.3662
60.0662
60.7175
61.3198
61.8728
62.3766
62.8313
63.2373
63.595
63.9053
64.1689
64.3867
64.5599
64.6895
64.777
64.8237
64.8311
64.8008
64.7343
64.6333
64.4995
64.3346
64.1402
63.9181
63.6698
63.397
63.1014
62.7844
62.4476
62.0925
61.7204
61.3328
60.9308
60.5158
60.089
59.6513
59.2039
58.7477
58.2838
57.8128
57.3357
56.8533
56.3661
55.8748
55.3801
54.8824
54.3824
53.8803
53.3767
52.872
52.3663
51.8601
51.3537
50.8472
50.3409
49.835
49.3295
48.8248
48.3208
47.8176
47.3154
46.8142
46.3141
45.815
45.3171
44.8202
44.3245
43.8299
43.3363
42.8439
42.3524
41.8619
41.3724
40.8838
40.3961
39.9091
39.423
38.9375
38.4528
37.9686
37.485
37.0019
36.5194
36.0372
35.5554
35.074
34.593
34.1122
33.6317
33.1514
32.6714
32.1916
31.7121
31.2327
30.7537
30.2748
29.7962
29.3179
28.84
28.3624
27.8852
27.4084
26.9322
26.4565
25.9815
25.5072
25.0337
24.5611
24.0894
23.6189
23.1495
22.6814
22.2147
21.7495
21.2859
20.8241
20.3642
19.9063
19.4505
18.997
18.546
18.0975
17.6518
17.2089
16.769
16.3323
15.8989
15.4689
15.0426
14.62
14.2014
13.7868
13.3765
12.9707
12.5694
12.1728
11.7813
11.3949
11.0139
10.6385
10.2689
9.90552
9.54855
9.19838
8.85541
8.52009
8.19299
7.87475
7.56617
7.26821
6.98212
6.70944
6.45221
6.21312
5.99591
5.80585
5.6508
5.5431
5.50359
5.57103
5.82851
6.49528
8.42266
18.8658
59.2323
29.4628
24.6823
23.5986
23.7178
24.3909
25.3666
26.5229
27.7912
29.129
30.5081
31.9091
33.3182
34.7255
36.1238
37.508
38.874
40.2191
41.5411
42.8383
44.1092
45.3527
46.5676
47.7528
48.9072
50.0296
51.1189
52.1739
53.1933
54.1758
55.1201
56.0249
56.8892
57.7116
58.4911
59.2269
59.9179
60.5637
61.1635
61.717
62.224
62.6844
63.0983
63.4661
63.7882
64.0651
64.2975
64.4864
64.6326
64.7373
64.8017
64.827
64.8147
64.7661
64.6829
64.5664
64.4184
64.2403
64.0338
63.8004
63.5418
63.2595
62.9551
62.63
62.2857
61.9235
61.545
61.1513
60.7437
60.3235
59.8917
59.4495
58.9978
58.5376
58.0699
57.5955
57.1151
56.6295
56.1395
55.6455
55.1483
54.6483
54.1461
53.642
53.1365
52.63
52.1229
51.6153
51.1076
50.6
50.0927
49.5859
49.0798
48.5745
48.0701
47.5667
47.0644
46.5633
46.0633
45.5646
45.0672
44.571
44.0761
43.5824
43.0899
42.5987
42.1087
41.6198
41.1321
40.6454
40.1597
39.675
39.1913
38.7084
38.2264
37.7451
37.2646
36.7848
36.3056
35.827