/*--------------------------------*- C++ -*----------------------------------*\
  =========                 |
  \\      /  F ield         | OpenFOAM: The Open Source CFD Toolbox
   \\    /   O peration     | Website:  https://openfoam.org
    \\  /    A nd           | Version:  8
     \\/     M anipulation  |
\*---------------------------------------------------------------------------*/
FoamFile
{
    version     2.0;
    format      ascii;
    class       volScalarField;
    location    "4100";
    object      nut;
}
// * * * * * * * * * * * * * * * * * * * * * * * * * * * * * * * * * * * * * //

dimensions      [0 2 -1 0 0 0 0];

internalField   nonuniform List<scalar> 
48000
(
5.29486e-05
9.20376e-05
0.000113965
0.000130096
0.000143578
0.000154965
0.000164854
0.000173628
0.00018166
0.000189118
0.000196023
0.00020248
0.000208548
0.000214271
0.000219687
0.000224824
0.000229705
0.00023435
0.000238772
0.000242987
0.000247004
0.000250833
0.000254482
0.000257957
0.000261266
0.000264415
0.000267407
0.000270249
0.000272945
0.000275498
0.000277914
0.000280197
0.00028235
0.000284377
0.000286282
0.000288069
0.000289741
0.000291303
0.000292757
0.000294107
0.000295357
0.00029651
0.000297569
0.000298538
0.000299431
0.000300251
0.000300992
0.000301654
0.000302242
0.000302758
0.000303207
0.00030359
0.000303912
0.000304174
0.00030438
0.000304533
0.000304635
0.000304689
0.000304697
0.000304662
0.000304586
0.00030447
0.000304318
0.000304131
0.00030391
0.000303658
0.000303377
0.000303067
0.000302732
0.000302371
0.000301986
0.000301579
0.00030115
0.000300702
0.000300234
0.000299749
0.000299246
0.000298726
0.000298192
0.000297642
0.000297078
0.000296501
0.00029591
0.000295307
0.000294692
0.000294065
0.000293427
0.000292778
0.000292118
0.000291448
0.000290767
0.000290077
0.000289376
0.000288665
0.000287945
0.000287214
0.000286474
0.000285724
0.000284964
0.000284194
0.000283414
0.000282624
0.000281824
0.000281013
0.000280192
0.00027936
0.000278516
0.000277662
0.000276796
0.000275919
0.000275029
0.000274127
0.000273213
0.000272286
0.000271346
0.000270392
0.000269425
0.000268443
0.000267447
0.000266436
0.00026541
0.000264369
0.000263312
0.000262238
0.000261148
0.000260041
0.000258917
0.000257775
0.000256615
0.000255437
0.00025424
0.000253023
0.000251787
0.000250531
0.000249255
0.000247958
0.00024664
0.0002453
0.000243939
0.000242555
0.000241149
0.00023972
0.000238267
0.000236791
0.000235291
0.000233766
0.000232217
0.000230642
0.000229042
0.000227416
0.000225764
0.000224085
0.000222379
0.000220646
0.000218884
0.000217094
0.000215276
0.000213428
0.00021155
0.000209642
0.000207703
0.000205733
0.00020373
0.000201694
0.000199625
0.000197521
0.000195381
0.000193205
0.000190991
0.000188738
0.000186445
0.00018411
0.00018173
0.000179305
0.000176832
0.000174307
0.000171729
0.000169093
0.000166396
0.000163637
0.000160813
0.000157935
0.000154978
0.000151924
0.000148763
0.000145481
0.00014206
0.00013848
0.000134715
0.000130731
0.000126483
0.000121928
0.000117017
0.000111609
0.000105535
9.85245e-05
9.0086e-05
7.9062e-05
6.04368e-05
7.75458e-05
5.29491e-05
9.20379e-05
0.000113965
0.000130097
0.000143578
0.000154965
0.000164854
0.000173628
0.00018166
0.000189119
0.000196023
0.00020248
0.000208548
0.000214271
0.000219687
0.000224824
0.000229705
0.00023435
0.000238773
0.000242987
0.000247004
0.000250833
0.000254482
0.000257957
0.000261266
0.000264415
0.000267407
0.000270249
0.000272945
0.000275498
0.000277914
0.000280197
0.00028235
0.000284377
0.000286282
0.000288069
0.000289741
0.000291303
0.000292757
0.000294107
0.000295357
0.00029651
0.000297569
0.000298538
0.000299431
0.000300251
0.000300992
0.000301654
0.000302242
0.000302758
0.000303207
0.00030359
0.000303912
0.000304174
0.00030438
0.000304533
0.000304635
0.000304689
0.000304697
0.000304662
0.000304586
0.00030447
0.000304318
0.000304131
0.00030391
0.000303658
0.000303377
0.000303067
0.000302732
0.000302371
0.000301986
0.000301579
0.00030115
0.000300702
0.000300234
0.000299749
0.000299246
0.000298726
0.000298192
0.000297642
0.000297078
0.000296501
0.00029591
0.000295307
0.000294692
0.000294065
0.000293427
0.000292778
0.000292118
0.000291448
0.000290767
0.000290077
0.000289376
0.000288665
0.000287945
0.000287214
0.000286474
0.000285724
0.000284964
0.000284194
0.000283414
0.000282624
0.000281824
0.000281013
0.000280192
0.00027936
0.000278516
0.000277662
0.000276796
0.000275919
0.000275029
0.000274127
0.000273213
0.000272286
0.000271346
0.000270392
0.000269425
0.000268443
0.000267447
0.000266436
0.00026541
0.000264369
0.000263312
0.000262238
0.000261148
0.000260041
0.000258917
0.000257775
0.000256615
0.000255437
0.00025424
0.000253023
0.000251787
0.000250531
0.000249255
0.000247958
0.00024664
0.0002453
0.000243939
0.000242555
0.000241149
0.00023972
0.000238267
0.000236791
0.000235291
0.000233766
0.000232217
0.000230642
0.000229042
0.000227416
0.000225764
0.000224085
0.000222379
0.000220646
0.000218884
0.000217094
0.000215276
0.000213428
0.00021155
0.000209642
0.000207703
0.000205733
0.00020373
0.000201694
0.000199625
0.000197521
0.000195381
0.000193205
0.000190991
0.000188739
0.000186445
0.00018411
0.000181731
0.000179305
0.000176832
0.000174307
0.000171729
0.000169093
0.000166396
0.000163637
0.000160813
0.000157935
0.000154978
0.000151924
0.000148763
0.000145481
0.00014206
0.00013848
0.000134715
0.000130731
0.000126483
0.000121928
0.000117017
0.000111609
0.000105535
9.85245e-05
9.0086e-05
7.90611e-05
6.04353e-05
7.75376e-05
8.00762e-05
0.000593718
0.000940131
0.00118239
0.00136397
0.00151151
0.00163798
0.00174919
0.0018484
0.00193795
0.00201989
0.00209544
0.0021655
0.00223081
0.00229191
0.00234925
0.0024032
0.00245404
0.00250204
0.00254741
0.00259034
0.00263097
0.00266945
0.00270591
0.00274045
0.00277318
0.00280418
0.00283353
0.00286131
0.00288759
0.00291243
0.0029359
0.00295805
0.00297893
0.00299859
0.00301708
0.00303445
0.00305074
0.00306598
0.00308023
0.00309351
0.00310586
0.00311729
0.00312779
0.00313719
0.00314566
0.00315332
0.00316027
0.00316657
0.00317224
0.00317731
0.00318183
0.0031858
0.00318926
0.00319223
0.00319472
0.00319677
0.00319839
0.00319959
0.0032004
0.00320083
0.00320091
0.00320064
0.00320004
0.00319912
0.00319791
0.00319641
0.00319463
0.00319259
0.0031903
0.00318776
0.003185
0.00318201
0.00317881
0.00317541
0.00317181
0.00316802
0.00316405
0.0031599
0.00315559
0.00315111
0.00314647
0.00314168
0.00313673
0.00313165
0.00312641
0.00312104
0.00311553
0.00310989
0.00310412
0.00309821
0.00309218
0.00308601
0.00307972
0.0030733
0.00306676
0.00306008
0.00305328
0.00304636
0.0030393
0.00303211
0.0030248
0.00301735
0.00300977
0.00300206
0.0029942
0.00298621
0.00297808
0.00296981
0.00296138
0.00295282
0.0029441
0.00293522
0.00292619
0.002917
0.00290765
0.00289813
0.00288844
0.00287858
0.00286854
0.00285832
0.00284792
0.00283734
0.00282656
0.00281559
0.00280442
0.00279305
0.00278148
0.0027697
0.0027577
0.00274549
0.00273306
0.00272041
0.00270752
0.00269441
0.00268106
0.00266747
0.00265364
0.00263956
0.00262523
0.00261064
0.0025958
0.00258069
0.00256532
0.00254968
0.00253376
0.00251756
0.00250108
0.00248431
0.00246725
0.0024499
0.00243224
0.00241428
0.00239601
0.00237742
0.00235851
0.00233927
0.0023197
0.00229979
0.00227954
0.00225893
0.00223795
0.00221661
0.00219489
0.00217277
0.00215025
0.00212732
0.00210395
0.00208014
0.00205587
0.00203112
0.00200586
0.00198008
0.00195373
0.0019268
0.00189924
0.00187102
0.00184206
0.00181232
0.00178169
0.00175005
0.00171722
0.00168318
0.00164788
0.0016112
0.00157295
0.00153292
0.00149083
0.00144626
0.0013987
0.00134732
0.00129067
0.00122726
0.00115565
0.00107283
0.000973761
0.000849222
0.000680326
0.000423782
5.38043e-05
8.00765e-05
0.000593725
0.000940141
0.0011824
0.00136398
0.00151152
0.00163799
0.0017492
0.00184841
0.00193796
0.0020199
0.00209545
0.00216551
0.00223082
0.00229192
0.00234926
0.0024032
0.00245405
0.00250205
0.00254742
0.00259034
0.00263098
0.00266946
0.00270592
0.00274046
0.00277319
0.00280418
0.00283354
0.00286132
0.0028876
0.00291244
0.00293591
0.00295805
0.00297893
0.00299859
0.00301709
0.00303445
0.00305074
0.00306599
0.00308024
0.00309352
0.00310587
0.0031173
0.00312779
0.0031372
0.00314566
0.00315333
0.00316028
0.00316657
0.00317224
0.00317732
0.00318183
0.00318581
0.00318927
0.00319223
0.00319473
0.00319678
0.00319839
0.00319959
0.0032004
0.00320084
0.00320091
0.00320064
0.00320004
0.00319913
0.00319791
0.00319641
0.00319463
0.00319259
0.0031903
0.00318777
0.003185
0.00318202
0.00317882
0.00317541
0.00317181
0.00316802
0.00316405
0.00315991
0.00315559
0.00315111
0.00314647
0.00314168
0.00313674
0.00313165
0.00312642
0.00312105
0.00311554
0.0031099
0.00310412
0.00309821
0.00309218
0.00308602
0.00307972
0.0030733
0.00306676
0.00306009
0.00305329
0.00304636
0.0030393
0.00303212
0.0030248
0.00301736
0.00300978
0.00300206
0.00299421
0.00298622
0.00297809
0.00296981
0.00296139
0.00295282
0.0029441
0.00293523
0.00292619
0.002917
0.00290765
0.00289813
0.00288844
0.00287858
0.00286854
0.00285833
0.00284793
0.00283734
0.00282657
0.00281559
0.00280443
0.00279306
0.00278148
0.0027697
0.00275771
0.0027455
0.00273307
0.00272041
0.00270753
0.00269441
0.00268106
0.00266747
0.00265364
0.00263956
0.00262523
0.00261065
0.0025958
0.0025807
0.00256532
0.00254968
0.00253376
0.00251756
0.00250108
0.00248432
0.00246726
0.0024499
0.00243224
0.00241428
0.00239601
0.00237742
0.00235851
0.00233928
0.00231971
0.0022998
0.00227954
0.00225893
0.00223796
0.00221661
0.00219489
0.00217277
0.00215025
0.00212732
0.00210396
0.00208015
0.00205588
0.00203112
0.00200586
0.00198008
0.00195374
0.00192681
0.00189925
0.00187102
0.00184207
0.00181232
0.00178169
0.00175005
0.00171722
0.00168318
0.00164788
0.0016112
0.00157295
0.00153293
0.00149083
0.00144626
0.0013987
0.00134732
0.00129067
0.00122727
0.00115565
0.00107283
0.000973764
0.000849231
0.000680344
0.000423778
5.38039e-05
9.84992e-05
0.000900814
0.00160247
0.00212831
0.00254167
0.00288382
0.00317721
0.00343492
0.00366484
0.00387233
0.00406135
0.00423475
0.00439469
0.00454287
0.00468063
0.00480908
0.00492913
0.00504155
0.00514699
0.00524602
0.00533915
0.0054268
0.00550936
0.00558719
0.00566059
0.00572984
0.0057952
0.0058569
0.00591515
0.00597015
0.00602208
0.0060711
0.00611736
0.00616101
0.00620217
0.00624097
0.00627752
0.00631193
0.00634429
0.00637469
0.00640322
0.00642993
0.00645487
0.00647805
0.00649942
0.00651912
0.00653731
0.00655411
0.00656962
0.00658392
0.00659706
0.00660912
0.00662014
0.00663015
0.00663922
0.00664738
0.00665466
0.0066611
0.00666674
0.0066716
0.00667572
0.00667913
0.00668186
0.00668393
0.00668536
0.00668618
0.00668642
0.0066861
0.00668523
0.00668383
0.00668193
0.00667954
0.00667668
0.00667337
0.00666961
0.00666542
0.00666083
0.00665582
0.00665043
0.00664466
0.00663852
0.00663201
0.00662515
0.00661795
0.0066104
0.00660253
0.00659432
0.00658579
0.00657694
0.00656778
0.0065583
0.00654851
0.00653841
0.00652801
0.00651729
0.00650628
0.00649495
0.00648332
0.00647137
0.00645912
0.00644655
0.00643367
0.00642047
0.00640695
0.0063931
0.00637893
0.00636442
0.00634958
0.0063344
0.00631887
0.00630298
0.00628674
0.00627014
0.00625316
0.00623581
0.00621808
0.00619996
0.00618144
0.00616253
0.0061432
0.00612345
0.00610328
0.00608268
0.00606164
0.00604016
0.00601822
0.00599581
0.00597293
0.00594958
0.00592573
0.00590139
0.00587655
0.00585119
0.00582531
0.00579889
0.00577194
0.00574444
0.00571638
0.00568775
0.00565855
0.00562875
0.00559837
0.00556737
0.00553576
0.00550353
0.00547065
0.00543713
0.00540295
0.00536809
0.00533255
0.00529632
0.00525938
0.00522171
0.00518331
0.00514415
0.00510423
0.00506352
0.00502201
0.00497967
0.00493649
0.00489245
0.00484751
0.00480166
0.00475487
0.00470711
0.00465833
0.00460851
0.00455761
0.00450557
0.00445235
0.0043979
0.00434215
0.00428502
0.00422645
0.00416633
0.00410457
0.00404103
0.00397557
0.00390802
0.00383816
0.00376572
0.00369043
0.00361202
0.0035302
0.00344452
0.00335445
0.00325932
0.00315827
0.00305015
0.00293348
0.00280617
0.00266529
0.00250688
0.00232652
0.00211689
0.00186676
0.00155824
0.0011623
0.000636783
6.96317e-05
9.84995e-05
0.000900823
0.00160249
0.00212833
0.00254169
0.00288384
0.00317723
0.00343494
0.00366486
0.00387235
0.00406137
0.00423477
0.00439471
0.00454289
0.00468065
0.0048091
0.00492915
0.00504156
0.005147
0.00524604
0.00533916
0.00542681
0.00550937
0.0055872
0.0056606
0.00572985
0.00579521
0.00585691
0.00591516
0.00597016
0.00602209
0.0060711
0.00611737
0.00616101
0.00620218
0.00624098
0.00627753
0.00631194
0.0063443
0.0063747
0.00640322
0.00642993
0.00645487
0.00647805
0.00649943
0.00651913
0.00653731
0.00655411
0.00656962
0.00658392
0.00659707
0.00660913
0.00662014
0.00663016
0.00663923
0.00664738
0.00665466
0.0066611
0.00666674
0.0066716
0.00667573
0.00667914
0.00668186
0.00668393
0.00668536
0.00668619
0.00668642
0.0066861
0.00668523
0.00668383
0.00668193
0.00667955
0.00667668
0.00667337
0.00666961
0.00666543
0.00666083
0.00665583
0.00665044
0.00664466
0.00663852
0.00663201
0.00662516
0.00661795
0.00661041
0.00660253
0.00659432
0.00658579
0.00657694
0.00656778
0.0065583
0.00654851
0.00653841
0.00652801
0.0065173
0.00650628
0.00649495
0.00648332
0.00647137
0.00645912
0.00644655
0.00643367
0.00642047
0.00640695
0.00639311
0.00637893
0.00636443
0.00634958
0.0063344
0.00631887
0.00630298
0.00628674
0.00627014
0.00625316
0.00623581
0.00621808
0.00619996
0.00618144
0.00616253
0.0061432
0.00612345
0.00610329
0.00608269
0.00606165
0.00604016
0.00601822
0.00599581
0.00597293
0.00594958
0.00592573
0.00590139
0.00587655
0.00585119
0.00582531
0.00579889
0.00577194
0.00574444
0.00571638
0.00568775
0.00565855
0.00562875
0.00559837
0.00556737
0.00553576
0.00550353
0.00547065
0.00543713
0.00540295
0.00536809
0.00533255
0.00529632
0.00525938
0.00522171
0.00518331
0.00514415
0.00510423
0.00506352
0.00502201
0.00497967
0.00493649
0.00489245
0.00484751
0.00480166
0.00475487
0.00470711
0.00465833
0.00460851
0.00455761
0.00450557
0.00445235
0.0043979
0.00434215
0.00428502
0.00422645
0.00416633
0.00410457
0.00404103
0.00397557
0.00390802
0.00383816
0.00376572
0.00369043
0.00361202
0.0035302
0.00344453
0.00335445
0.00325932
0.00315827
0.00305015
0.00293348
0.00280617
0.00266529
0.00250688
0.00232652
0.00211689
0.00186676
0.00155824
0.0011623
0.00063677
6.96315e-05
0.00011152
0.00108939
0.00205009
0.00281323
0.00343571
0.0039605
0.00441459
0.00481522
0.00517377
0.00549808
0.00579387
0.00606536
0.0063158
0.00654774
0.00676325
0.00696399
0.00715139
0.00732664
0.00749078
0.0076447
0.0077892
0.00792499
0.00805268
0.00817287
0.00828605
0.0083927
0.00849324
0.00858806
0.00867753
0.00876196
0.00884167
0.00891694
0.00898802
0.00905514
0.00911853
0.0091784
0.00923492
0.00928828
0.00933863
0.00938611
0.00943086
0.00947298
0.00951257
0.0095497
0.0095844
0.00961683
0.00964714
0.00967546
0.00970193
0.00972665
0.00974971
0.00977119
0.00979118
0.00980973
0.00982691
0.00984278
0.00985739
0.00987079
0.00988304
0.00989417
0.00990422
0.00991324
0.00992127
0.00992834
0.00993448
0.00993973
0.00994411
0.00994766
0.00995041
0.00995238
0.00995358
0.00995406
0.00995383
0.0099529
0.0099513
0.00994906
0.00994617
0.00994266
0.00993855
0.00993385
0.00992857
0.00992272
0.00991631
0.00990935
0.00990186
0.00989383
0.00988528
0.0098762
0.00986662
0.00985652
0.00984592
0.00983481
0.0098232
0.00981109
0.00979848
0.00978537
0.00977176
0.00975764
0.00974302
0.00972789
0.00971225
0.0096961
0.00967942
0.00966222
0.00964449
0.00962623
0.00960742
0.00958806
0.00956814
0.00954767
0.00952662
0.00950498
0.00948276
0.00945995
0.00943652
0.00941248
0.00938781
0.0093625
0.00933654
0.00930992
0.00928263
0.00925466
0.009226
0.00919663
0.00916654
0.00913572
0.00910416
0.00907184
0.00903876
0.00900489
0.00897022
0.00893475
0.00889845
0.00886132
0.00882333
0.00878447
0.00874473
0.0087041
0.00866255
0.00862007
0.00857664
0.00853225
0.00848689
0.00844052
0.00839313
0.00834472
0.00829524
0.00824469
0.00819304
0.00814028
0.00808637
0.00803129
0.00797502
0.00791754
0.00785881
0.0077988
0.00773748
0.00767482
0.00761078
0.00754532
0.00747841
0.00740999
0.00734001
0.00726844
0.0071952
0.00712023
0.00704348
0.00696485
0.00688427
0.00680164
0.00671687
0.00662983
0.0065404
0.00644842
0.00635374
0.00625615
0.00615544
0.00605134
0.00594356
0.00583173
0.00571544
0.00559421
0.00546753
0.00533475
0.0051951
0.0050476
0.00489103
0.00472387
0.00454416
0.00434942
0.00413634
0.00390059
0.0036364
0.00333655
0.00299096
0.00258519
0.00209885
0.00150425
0.000776135
7.94362e-05
0.00011152
0.0010894
0.00205011
0.00281326
0.00343573
0.00396053
0.00441462
0.00481525
0.00517379
0.00549811
0.00579389
0.00606538
0.00631582
0.00654777
0.00676327
0.00696402
0.00715141
0.00732667
0.0074908
0.00764472
0.00778922
0.007925
0.0080527
0.00817289
0.00828607
0.00839271
0.00849325
0.00858807
0.00867754
0.00876198
0.00884169
0.00891695
0.00898803
0.00905515
0.00911854
0.00917841
0.00923493
0.00928829
0.00933864
0.00938612
0.00943087
0.00947299
0.00951258
0.0095497
0.00958441
0.00961684
0.00964715
0.00967547
0.00970194
0.00972665
0.00974971
0.00977119
0.00979118
0.00980973
0.00982691
0.00984278
0.00985739
0.0098708
0.00988304
0.00989417
0.00990422
0.00991324
0.00992127
0.00992834
0.00993448
0.00993973
0.00994411
0.00994767
0.00995041
0.00995238
0.00995359
0.00995406
0.00995383
0.0099529
0.00995131
0.00994906
0.00994617
0.00994266
0.00993855
0.00993385
0.00992857
0.00992272
0.00991631
0.00990935
0.00990186
0.00989383
0.00988527
0.0098762
0.00986662
0.00985652
0.00984592
0.00983481
0.0098232
0.00981109
0.00979848
0.00978537
0.00977176
0.00975764
0.00974302
0.00972789
0.00971225
0.0096961
0.00967942
0.00966222
0.00964449
0.00962622
0.00960742
0.00958806
0.00956814
0.00954766
0.00952661
0.00950498
0.00948276
0.00945995
0.00943652
0.00941248
0.0093878
0.00936249
0.00933654
0.00930992
0.00928263
0.00925466
0.009226
0.00919663
0.00916654
0.00913572
0.00910416
0.00907184
0.00903876
0.00900489
0.00897022
0.00893475
0.00889845
0.00886131
0.00882332
0.00878447
0.00874473
0.00870409
0.00866255
0.00862007
0.00857664
0.00853225
0.00848688
0.00844052
0.00839313
0.00834471
0.00829524
0.00824469
0.00819304
0.00814027
0.00808636
0.00803129
0.00797502
0.00791754
0.0078588
0.00779879
0.00773747
0.00767481
0.00761078
0.00754532
0.0074784
0.00740998
0.00734001
0.00726843
0.0071952
0.00712023
0.00704347
0.00696485
0.00688427
0.00680164
0.00671687
0.00662983
0.00654039
0.00644842
0.00635373
0.00625615
0.00615544
0.00605134
0.00594356
0.00583173
0.00571543
0.00559421
0.00546752
0.00533475
0.00519509
0.00504759
0.00489103
0.00472387
0.00454416
0.00434941
0.00413634
0.00390059
0.0036364
0.00333655
0.00299096
0.00258519
0.00209885
0.00150424
0.00077613
7.94361e-05
0.000122096
0.00121755
0.00237034
0.00332527
0.00412361
0.00480649
0.00540263
0.00593166
0.00640712
0.00683865
0.00723332
0.00759643
0.00793207
0.00824346
0.00853322
0.00880349
0.00905607
0.0092925
0.0095141
0.00972205
0.00991736
0.010101
0.0102737
0.0104363
0.0105895
0.0107338
0.01087
0.0109984
0.0111196
0.011234
0.0113422
0.0114443
0.0115409
0.0116321
0.0117185
0.0118001
0.0118773
0.0119504
0.0120195
0.0120848
0.0121466
0.012205
0.0122601
0.0123121
0.0123611
0.0124072
0.0124506
0.0124914
0.0125299
0.0125661
0.0126002
0.0126323
0.0126624
0.0126907
0.0127172
0.012742
0.0127652
0.0127868
0.012807
0.0128257
0.012843
0.012859
0.0128738
0.0128872
0.0128995
0.0129106
0.0129207
0.0129296
0.0129375
0.0129443
0.0129502
0.0129551
0.012959
0.0129621
0.0129643
0.0129656
0.012966
0.0129657
0.0129645
0.0129625
0.0129598
0.0129563
0.012952
0.012947
0.0129412
0.0129347
0.0129275
0.0129196
0.012911
0.0129017
0.0128917
0.012881
0.0128696
0.0128575
0.0128447
0.0128313
0.0128171
0.0128022
0.0127866
0.0127704
0.0127534
0.0127357
0.0127172
0.0126981
0.0126782
0.0126575
0.0126361
0.012614
0.012591
0.0125673
0.0125428
0.0125175
0.0124913
0.0124644
0.0124366
0.0124079
0.0123783
0.0123479
0.0123166
0.0122844
0.0122512
0.0122171
0.0121821
0.012146
0.012109
0.0120709
0.0120319
0.0119918
0.0119506
0.0119083
0.011865
0.0118205
0.0117748
0.0117281
0.0116801
0.0116309
0.0115805
0.0115289
0.011476
0.0114218
0.0113662
0.0113094
0.0112511
0.0111915
0.0111305
0.011068
0.011004
0.0109385
0.0108714
0.0108028
0.0107326
0.0106607
0.0105872
0.0105119
0.0104348
0.0103559
0.0102752
0.0101925
0.0101078
0.0100212
0.00993239
0.00984145
0.00974828
0.00965278
0.00955487
0.00945446
0.00935144
0.0092457
0.00913711
0.00902553
0.0089108
0.00879276
0.0086712
0.0085459
0.00841661
0.00828304
0.00814487
0.0080017
0.00785311
0.00769858
0.00753752
0.00736923
0.00719291
0.00700761
0.00681218
0.00660521
0.00638496
0.00614928
0.0058955
0.00562024
0.00531918
0.0049869
0.00461639
0.00419861
0.0037222
0.00317185
0.00252789
0.00176757
0.000881967
8.71686e-05
0.000122096
0.00121755
0.00237036
0.0033253
0.00412364
0.00480652
0.00540267
0.00593169
0.00640715
0.00683869
0.00723336
0.00759646
0.0079321
0.00824349
0.00853325
0.00880352
0.0090561
0.00929253
0.00951413
0.00972207
0.00991739
0.010101
0.0102737
0.0104363
0.0105895
0.0107339
0.01087
0.0109984
0.0111196
0.0112341
0.0113422
0.0114443
0.0115409
0.0116322
0.0117185
0.0118001
0.0118774
0.0119504
0.0120195
0.0120849
0.0121466
0.012205
0.0122601
0.0123121
0.0123611
0.0124072
0.0124506
0.0124914
0.0125299
0.0125662
0.0126002
0.0126323
0.0126624
0.0126907
0.0127172
0.012742
0.0127652
0.0127868
0.012807
0.0128257
0.012843
0.012859
0.0128738
0.0128872
0.0128995
0.0129106
0.0129207
0.0129296
0.0129375
0.0129443
0.0129502
0.0129551
0.012959
0.0129621
0.0129643
0.0129656
0.012966
0.0129657
0.0129645
0.0129625
0.0129598
0.0129563
0.012952
0.012947
0.0129412
0.0129347
0.0129275
0.0129196
0.012911
0.0129017
0.0128917
0.012881
0.0128696
0.0128575
0.0128447
0.0128313
0.0128171
0.0128022
0.0127866
0.0127704
0.0127534
0.0127357
0.0127172
0.0126981
0.0126782
0.0126575
0.0126361
0.012614
0.012591
0.0125673
0.0125428
0.0125175
0.0124913
0.0124644
0.0124366
0.0124079
0.0123783
0.0123479
0.0123166
0.0122844
0.0122512
0.0122171
0.0121821
0.012146
0.012109
0.0120709
0.0120319
0.0119918
0.0119506
0.0119083
0.0118649
0.0118205
0.0117748
0.0117281
0.0116801
0.0116309
0.0115805
0.0115289
0.011476
0.0114218
0.0113662
0.0113094
0.0112511
0.0111915
0.0111305
0.011068
0.011004
0.0109385
0.0108714
0.0108028
0.0107326
0.0106607
0.0105871
0.0105119
0.0104348
0.0103559
0.0102752
0.0101925
0.0101078
0.0100212
0.00993239
0.00984145
0.00974827
0.00965277
0.00955486
0.00945445
0.00935143
0.00924569
0.0091371
0.00902552
0.0089108
0.00879275
0.00867119
0.00854589
0.0084166
0.00828303
0.00814486
0.0080017
0.00785311
0.00769858
0.00753751
0.00736922
0.00719291
0.00700761
0.00681218
0.00660521
0.00638496
0.00614928
0.0058955
0.00562023
0.00531918
0.0049869
0.00461639
0.00419861
0.0037222
0.00317185
0.00252789
0.00176757
0.000881964
8.71686e-05
0.00013106
0.00131904
0.00261845
0.00372687
0.00467046
0.005487
0.00620542
0.00684654
0.00742526
0.00795245
0.00843614
0.00888244
0.00929608
0.00968081
0.0100396
0.0103751
0.0106892
0.0109838
0.0112604
0.0115204
0.011765
0.0119952
0.0122121
0.0124165
0.0126093
0.0127912
0.0129628
0.013125
0.0132781
0.0134229
0.0135598
0.0136893
0.0138118
0.0139278
0.0140376
0.0141417
0.0142402
0.0143336
0.0144221
0.0145059
0.0145854
0.0146607
0.014732
0.0147995
0.0148634
0.0149239
0.0149811
0.0150352
0.0150864
0.0151349
0.0151808
0.0152241
0.0152651
0.0153039
0.0153405
0.0153751
0.0154077
0.0154384
0.0154672
0.0154944
0.0155198
0.0155437
0.015566
0.0155867
0.0156061
0.015624
0.0156406
0.0156558
0.0156697
0.0156825
0.015694
0.0157043
0.0157135
0.0157215
0.0157285
0.0157344
0.0157393
0.0157431
0.0157459
0.0157478
0.0157487
0.0157486
0.0157476
0.0157456
0.0157428
0.015739
0.0157343
0.0157287
0.0157223
0.0157149
0.0157067
0.0156976
0.0156876
0.0156767
0.015665
0.0156523
0.0156388
0.0156244
0.0156091
0.0155929
0.0155758
0.0155577
0.0155388
0.0155189
0.0154981
0.0154763
0.0154536
0.0154298
0.0154051
0.0153794
0.0153527
0.015325
0.0152962
0.0152663
0.0152354
0.0152034
0.0151703
0.015136
0.0151006
0.0150641
0.0150263
0.0149873
0.0149472
0.0149057
0.0148631
0.0148191
0.0147738
0.0147271
0.0146792
0.0146298
0.014579
0.0145268
0.0144731
0.014418
0.0143613
0.0143031
0.0142433
0.0141819
0.0141189
0.0140542
0.0139878
0.0139197
0.0138499
0.0137782
0.0137047
0.0136293
0.013552
0.0134728
0.0133915
0.0133082
0.0132229
0.0131353
0.0130456
0.0129536
0.0128593
0.0127626
0.0126635
0.0125618
0.0124576
0.0123507
0.0122411
0.0121286
0.0120131
0.0118946
0.0117729
0.0116478
0.0115194
0.0113873
0.0112514
0.0111116
0.0109676
0.0108191
0.010666
0.0105079
0.0103444
0.0101753
0.01
0.00981812
0.00962896
0.00943191
0.00922617
0.00901085
0.00878488
0.00854699
0.00829569
0.00802916
0.00774521
0.00744114
0.00711366
0.00675872
0.00637127
0.00594505
0.00547222
0.00494297
0.00434537
0.00366456
0.00288284
0.00198283
0.000968813
9.36928e-05
0.000131061
0.00131905
0.00261847
0.0037269
0.0046705
0.00548703
0.00620546
0.00684658
0.0074253
0.00795249
0.00843618
0.00888248
0.00929612
0.00968085
0.0100397
0.0103751
0.0106892
0.0109838
0.0112604
0.0115204
0.011765
0.0119952
0.0122121
0.0124165
0.0126093
0.0127912
0.0129629
0.013125
0.0132782
0.0134229
0.0135598
0.0136893
0.0138119
0.0139278
0.0140377
0.0141417
0.0142402
0.0143336
0.0144221
0.0145059
0.0145854
0.0146607
0.014732
0.0147996
0.0148635
0.0149239
0.0149811
0.0150352
0.0150864
0.0151349
0.0151808
0.0152241
0.0152651
0.0153039
0.0153405
0.0153751
0.0154077
0.0154384
0.0154672
0.0154944
0.0155198
0.0155437
0.015566
0.0155868
0.0156061
0.015624
0.0156406
0.0156558
0.0156697
0.0156825
0.015694
0.0157043
0.0157135
0.0157215
0.0157285
0.0157344
0.0157393
0.0157431
0.0157459
0.0157478
0.0157487
0.0157486
0.0157476
0.0157456
0.0157428
0.015739
0.0157343
0.0157287
0.0157223
0.0157149
0.0157067
0.0156976
0.0156876
0.0156767
0.015665
0.0156523
0.0156388
0.0156244
0.0156091
0.0155929
0.0155758
0.0155577
0.0155388
0.0155189
0.0154981
0.0154763
0.0154536
0.0154298
0.0154051
0.0153794
0.0153527
0.015325
0.0152962
0.0152663
0.0152354
0.0152034
0.0151703
0.015136
0.0151006
0.015064
0.0150263
0.0149873
0.0149472
0.0149057
0.014863
0.0148191
0.0147738
0.0147271
0.0146792
0.0146298
0.014579
0.0145268
0.0144731
0.014418
0.0143613
0.0143031
0.0142433
0.0141819
0.0141189
0.0140542
0.0139878
0.0139197
0.0138499
0.0137782
0.0137047
0.0136293
0.013552
0.0134728
0.0133915
0.0133082
0.0132229
0.0131353
0.0130456
0.0129536
0.0128593
0.0127626
0.0126635
0.0125618
0.0124576
0.0123507
0.0122411
0.0121285
0.0120131
0.0118946
0.0117729
0.0116478
0.0115194
0.0113873
0.0112514
0.0111116
0.0109675
0.0108191
0.010666
0.0105079
0.0103444
0.0101753
0.01
0.00981811
0.00962896
0.0094319
0.00922617
0.00901084
0.00878487
0.00854699
0.00829569
0.00802916
0.0077452
0.00744113
0.00711366
0.00675871
0.00637127
0.00594505
0.00547222
0.00494297
0.00434537
0.00366456
0.00288284
0.00198283
0.000968811
9.36929e-05
0.000138993
0.00140588
0.00282305
0.00405595
0.00511964
0.00604864
0.00687144
0.0076094
0.00827826
0.0088897
0.00945247
0.00997327
0.0104573
0.0109087
0.0113308
0.0117264
0.0120977
0.0124467
0.0127752
0.0130845
0.0133761
0.0136511
0.0139107
0.0141557
0.0143872
0.0146059
0.0148127
0.0150082
0.0151932
0.0153683
0.015534
0.015691
0.0158398
0.0159807
0.0161144
0.0162412
0.0163615
0.0164756
0.0165839
0.0166868
0.0167845
0.0168772
0.0169652
0.0170488
0.0171282
0.0172035
0.017275
0.0173429
0.0174074
0.0174686
0.0175267
0.0175819
0.0176344
0.0176842
0.0177314
0.0177763
0.0178188
0.0178591
0.0178973
0.0179334
0.0179675
0.0179998
0.0180302
0.0180589
0.0180858
0.0181112
0.0181349
0.018157
0.0181777
0.0181969
0.0182147
0.0182311
0.0182462
0.0182599
0.0182723
0.0182835
0.0182935
0.0183022
0.0183098
0.0183162
0.0183215
0.0183256
0.0183286
0.0183304
0.0183312
0.0183309
0.0183295
0.0183271
0.0183236
0.018319
0.0183134
0.0183067
0.0182989
0.0182901
0.0182802
0.0182693
0.0182573
0.0182442
0.01823
0.0182148
0.0181984
0.0181809
0.0181624
0.0181427
0.0181218
0.0180998
0.0180767
0.0180523
0.0180268
0.018
0.017972
0.0179428
0.0179123
0.0178805
0.0178474
0.017813
0.0177772
0.0177401
0.0177016
0.0176617
0.0176203
0.0175775
0.0175332
0.0174873
0.01744
0.017391
0.0173405
0.0172883
0.0172345
0.017179
0.0171218
0.0170629
0.0170022
0.0169396
0.0168753
0.016809
0.0167408
0.0166707
0.0165986
0.0165244
0.0164482
0.0163698
0.0162893
0.0162066
0.0161216
0.0160344
0.0159447
0.0158527
0.0157582
0.0156612
0.0155616
0.0154593
0.0153544
0.0152466
0.015136
0.0150225
0.0149059
0.0147862
0.0146633
0.014537
0.0144074
0.0142742
0.0141373
0.0139966
0.0138519
0.0137031
0.01355
0.0133924
0.01323
0.0130627
0.0128902
0.0127121
0.0125282
0.0123381
0.0121412
0.0119373
0.0117256
0.0115057
0.0112767
0.0110378
0.0107882
0.0105266
0.0102518
0.00996216
0.00965597
0.009331
0.00898467
0.00861385
0.00821474
0.00778277
0.00731235
0.00679669
0.00622752
0.00559481
0.00488654
0.00408878
0.00318604
0.00216599
0.00104329
9.94006e-05
0.000138993
0.00140589
0.00282307
0.00405597
0.00511967
0.00604868
0.00687148
0.00760944
0.00827831
0.00888974
0.00945251
0.00997331
0.0104573
0.0109087
0.0113309
0.0117264
0.0120977
0.0124468
0.0127752
0.0130846
0.0133762
0.0136512
0.0139107
0.0141558
0.0143872
0.0146059
0.0148127
0.0150082
0.0151932
0.0153683
0.0155341
0.015691
0.0158398
0.0159808
0.0161144
0.0162412
0.0163615
0.0164756
0.016584
0.0166868
0.0167845
0.0168772
0.0169653
0.0170489
0.0171282
0.0172035
0.017275
0.0173429
0.0174074
0.0174686
0.0175267
0.017582
0.0176344
0.0176842
0.0177314
0.0177763
0.0178188
0.0178591
0.0178973
0.0179334
0.0179675
0.0179998
0.0180302
0.0180589
0.0180859
0.0181112
0.0181349
0.018157
0.0181777
0.0181969
0.0182147
0.0182311
0.0182462
0.0182599
0.0182723
0.0182835
0.0182935
0.0183022
0.0183098
0.0183162
0.0183215
0.0183256
0.0183286
0.0183304
0.0183312
0.0183309
0.0183295
0.0183271
0.0183236
0.018319
0.0183134
0.0183067
0.0182989
0.0182901
0.0182802
0.0182693
0.0182573
0.0182442
0.01823
0.0182148
0.0181984
0.0181809
0.0181624
0.0181427
0.0181218
0.0180998
0.0180767
0.0180523
0.0180268
0.018
0.017972
0.0179428
0.0179123
0.0178805
0.0178474
0.017813
0.0177772
0.0177401
0.0177016
0.0176617
0.0176203
0.0175775
0.0175332
0.0174873
0.01744
0.017391
0.0173405
0.0172883
0.0172345
0.017179
0.0171218
0.0170629
0.0170022
0.0169396
0.0168753
0.016809