/*--------------------------------*- C++ -*----------------------------------*\
  =========                 |
  \\      /  F ield         | OpenFOAM: The Open Source CFD Toolbox
   \\    /   O peration     | Website:  https://openfoam.org
    \\  /    A nd           | Version:  8
     \\/     M anipulation  |
\*---------------------------------------------------------------------------*/
FoamFile
{
    version     2.0;
    format      ascii;
    class       surfaceScalarField;
    location    "4100";
    object      phi;
}
// * * * * * * * * * * * * * * * * * * * * * * * * * * * * * * * * * * * * * //

dimensions      [1 0 -1 0 0 0 0];

internalField   nonuniform List<scalar> 
119360
(
-3.53717e-07
2.17603e-12
3.53715e-07
-6.38259e-07
2.86157e-13
2.84497e-07
-7.83133e-07
2.57681e-13
1.44862e-07
-7.96895e-07
1.07746e-13
1.37512e-08
-7.11592e-07
9.65785e-15
-8.53118e-08
-5.57152e-07
-6.33392e-14
-1.54449e-07
-3.55947e-07
-1.12577e-13
-2.01213e-07
-1.24121e-07
-1.45135e-13
-2.31834e-07
1.2654e-07
-1.71142e-13
-2.50669e-07
3.87238e-07
-1.83493e-13
-2.60706e-07
6.51858e-07
-1.76748e-13
-2.64628e-07
9.16244e-07
-1.63453e-13
-2.64394e-07
1.17736e-06
-1.46744e-13
-2.61124e-07
1.43299e-06
-1.28398e-13
-2.55638e-07
1.6815e-06
-1.09579e-13
-2.48514e-07
1.92167e-06
-9.12049e-14
-2.40176e-07
2.15261e-06
-7.36633e-14
-2.30945e-07
2.37367e-06
-5.73985e-14
-2.21066e-07
2.58439e-06
-4.24938e-14
-2.10732e-07
2.78448e-06
-2.91155e-14
-2.00095e-07
2.97375e-06
-1.71251e-14
-1.8928e-07
3.15214e-06
-6.50854e-15
-1.78387e-07
3.31963e-06
2.91451e-15
-1.67499e-07
3.47631e-06
1.11302e-14
-1.56687e-07
3.62231e-06
1.83467e-14
-1.46008e-07
3.75782e-06
2.44529e-14
-1.35511e-07
3.88305e-06
2.96988e-14
-1.25238e-07
3.99827e-06
3.41536e-14
-1.15221e-07
4.10375e-06
3.77757e-14
-1.05491e-07
4.19982e-06
4.07039e-14
-9.60707e-08
4.28679e-06
4.29383e-14
-8.69794e-08
4.36502e-06
4.46869e-14
-7.82324e-08
4.43485e-06
4.59221e-14
-6.98414e-08
4.49666e-06
4.66715e-14
-6.18149e-08
4.55082e-06
4.69907e-14
-5.41587e-08
4.59769e-06
4.69491e-14
-4.68757e-08
4.63765e-06
4.66438e-14
-3.99668e-08
4.67107e-06
4.60332e-14
-3.34305e-08
4.69833e-06
4.527e-14
-2.72635e-08
4.71979e-06
4.41598e-14
-2.14609e-08
4.7358e-06
4.31051e-14
-1.60163e-08
4.74672e-06
4.18561e-14
-1.09223e-08
4.75289e-06
4.0621e-14
-6.17012e-09
4.75463e-06
3.92194e-14
-1.7489e-09
4.75227e-06
3.78455e-14
2.35252e-09
4.74612e-06
3.66243e-14
6.14509e-09
4.73648e-06
3.53337e-14
9.64109e-09
4.72362e-06
3.40708e-14
1.28534e-08
4.70782e-06
3.29051e-14
1.57951e-08
4.68934e-06
3.18504e-14
1.84789e-08
4.66842e-06
3.08235e-14
2.09179e-08
4.64529e-06
2.99076e-14
2.3125e-08
4.62017e-06
2.91443e-14
2.51133e-08
4.59327e-06
2.84505e-14
2.68955e-08
4.56478e-06
2.79093e-14
2.84846e-08
4.53489e-06
2.74513e-14
2.98928e-08
4.50375e-06
2.71044e-14
3.11324e-08
4.47153e-06
2.68685e-14
3.22151e-08
4.43838e-06
2.67991e-14
3.31525e-08
4.40442e-06
2.67575e-14
3.39554e-08
4.36978e-06
2.68408e-14
3.46344e-08
4.33458e-06
2.70767e-14
3.51996e-08
4.29891e-06
2.73682e-14
3.56606e-08
4.26288e-06
2.77429e-14
3.60266e-08
4.22658e-06
2.82286e-14
3.6306e-08
4.19006e-06
2.87976e-14
3.65071e-08
4.15342e-06
2.94083e-14
3.66375e-08
4.11672e-06
3.00605e-14
3.67043e-08
4.08e-06
3.07822e-14
3.67143e-08
4.04332e-06
3.15038e-14
3.66737e-08
4.00673e-06
3.22671e-14
3.65882e-08
3.97026e-06
3.3072e-14
3.64632e-08
3.93396e-06
3.39325e-14
3.63038e-08
3.89784e-06
3.48068e-14
3.61144e-08
3.86194e-06
3.56117e-14
3.58993e-08
3.82627e-06
3.64999e-14
3.56624e-08
3.79086e-06
3.74158e-14
3.54071e-08
3.75572e-06
3.83317e-14
3.51368e-08
3.72086e-06
3.9206e-14
3.48544e-08
3.6863e-06
4.00803e-14
3.45625e-08
3.65203e-06
4.09408e-14
3.42635e-08
3.61807e-06
4.17596e-14
3.39598e-08
3.58441e-06
4.25089e-14
3.36533e-08
3.55106e-06
4.33555e-14
3.33458e-08
3.51802e-06
4.41326e-14
3.30389e-08
3.48528e-06
4.48682e-14
3.27342e-08
3.45284e-06
4.55482e-14
3.2433e-08
3.4207e-06
4.62004e-14
3.21364e-08
3.38886e-06
4.68665e-14
3.18456e-08
3.35729e-06
4.74494e-14
3.15616e-08
3.326e-06
4.80739e-14
3.12851e-08
3.29498e-06
4.86567e-14
3.10172e-08
3.26422e-06
4.9198e-14
3.07584e-08
3.23371e-06
4.97114e-14
3.05095e-08
3.20343e-06
5.0211e-14
3.0271e-08
3.17338e-06
5.06412e-14
3.00435e-08
3.14355e-06
5.10575e-14
2.98276e-08
3.11393e-06
5.15432e-14
2.96236e-08
3.08449e-06
5.19179e-14
2.94321e-08
3.05523e-06
5.21677e-14
2.92534e-08
3.02614e-06
5.24452e-14
2.9088e-08
2.9972e-06
5.28477e-14
2.89361e-08
2.9684e-06
5.31668e-14
2.87982e-08
2.93972e-06
5.34583e-14
2.86744e-08
2.91115e-06
5.36248e-14
2.85653e-08
2.88268e-06
5.38746e-14
2.8471e-08
2.85428e-06
5.40827e-14
2.83917e-08
2.82595e-06
5.43186e-14
2.83279e-08
2.79767e-06
5.45129e-14
2.82798e-08
2.76942e-06
5.47349e-14
2.82475e-08
2.74118e-06
5.49014e-14
2.82314e-08
2.71295e-06
5.50541e-14
2.82316e-08
2.68469e-06
5.52761e-14
2.82484e-08
2.65641e-06
5.54426e-14
2.82821e-08
2.62807e-06
5.5623e-14
2.83328e-08
2.59967e-06
5.57201e-14
2.84007e-08
2.57118e-06
5.59421e-14
2.8486e-08
2.54258e-06
5.60948e-14
2.85889e-08
2.51387e-06
5.63168e-14
2.87095e-08
2.48502e-06
5.65666e-14
2.88481e-08
2.45601e-06
5.68025e-14
2.90047e-08
2.42683e-06
5.708e-14
2.91794e-08
2.39745e-06
5.74408e-14
2.93724e-08
2.36786e-06
5.77323e-14
2.95838e-08
2.33804e-06
5.80098e-14
2.98136e-08
2.30798e-06
5.84677e-14
3.00619e-08
2.27764e-06
5.88841e-14
3.03286e-08
2.24703e-06
5.93004e-14
3.06139e-08
2.2161e-06
5.98e-14
3.09177e-08
2.18486e-06
6.03967e-14
3.12399e-08
2.15328e-06
6.09518e-14
3.15804e-08
2.12133e-06
6.15624e-14
3.19392e-08
2.08901e-06
6.2284e-14
3.23161e-08
2.0563e-06
6.30612e-14
3.27109e-08
2.02317e-06
6.38938e-14
3.31233e-08
1.98961e-06
6.4893e-14
3.35532e-08
1.95561e-06
6.58644e-14
3.40002e-08
1.92114e-06
6.69746e-14
3.44639e-08
1.88619e-06
6.80293e-14
3.49439e-08
1.85075e-06
6.92783e-14
3.54398e-08
1.81479e-06
7.05551e-14
3.59511e-08
1.77831e-06
7.20539e-14
3.64772e-08
1.74129e-06
7.34694e-14
3.70174e-08
1.70371e-06
7.50792e-14
3.7571e-08
1.66557e-06
7.68e-14
3.81372e-08
1.62685e-06
7.86041e-14
3.87153e-08
1.58754e-06
8.06303e-14
3.93042e-08
1.54763e-06
8.2823e-14
3.99029e-08
1.50712e-06
8.50434e-14
4.05103e-08
1.46599e-06
8.74026e-14
4.11252e-08
1.42423e-06
8.99839e-14
4.17462e-08
1.38186e-06
9.26761e-14
4.2372e-08
1.33885e-06
9.5535e-14
4.30008e-08
1.29521e-06
9.85881e-14
4.36312e-08
1.25095e-06
1.01697e-13
4.42611e-08
1.20605e-06
1.04889e-13
4.48887e-08
1.16054e-06
1.08275e-13
4.55117e-08
1.1144e-06
1.11689e-13
4.61277e-08
1.06766e-06
1.15047e-13
4.67342e-08
1.02033e-06
1.18544e-13
4.73284e-08
9.72415e-07
1.21986e-13
4.79073e-08
9.23941e-07
1.25344e-13
4.84674e-08
8.74929e-07
1.28703e-13
4.90051e-08
8.25406e-07
1.31811e-13
4.95164e-08
7.75402e-07
1.34976e-13
4.99969e-08
7.24953e-07
1.37834e-13
5.04417e-08
6.74101e-07
1.40582e-13
5.08453e-08
6.22892e-07
1.43108e-13
5.12018e-08
5.7138e-07
1.45467e-13
5.15046e-08
5.19626e-07
1.47882e-13
5.17461e-08
4.677e-07
1.50297e-13
5.1918e-08
4.15681e-07
1.52878e-13
5.20109e-08
3.63658e-07
1.56264e-13
5.20143e-08
3.11733e-07
1.61094e-13
5.19163e-08
2.60021e-07
1.68032e-13
5.17033e-08
2.08653e-07
1.78413e-13
5.13598e-08
1.57776e-07
1.93484e-13
5.08679e-08
1.07559e-07
2.14634e-13
5.02069e-08
5.81984e-08
2.4325e-13
4.9351e-08
9.91594e-09
2.80304e-13
4.82723e-08
-3.7013e-08
3.22659e-13
4.69182e-08
-8.22699e-08
3.69149e-13
4.52456e-08
-1.25506e-07
4.18415e-13
4.32241e-08
-1.66336e-07
4.61964e-13
4.08171e-08
-2.04314e-07
4.8761e-13
3.79648e-08
-2.38907e-07
4.7945e-13
3.45786e-08
-2.69497e-07
4.20886e-13
3.0575e-08
-2.9536e-07
3.01148e-13
2.58462e-08
-3.15641e-07
1.24234e-13
2.0264e-08
-3.29336e-07
-7.7771e-14
1.36785e-08
-3.35265e-07
-2.39975e-13
5.91285e-09
-3.3207e-07
-2.76445e-13
-3.20968e-09
-3.18249e-07
-1.20015e-13
-1.3834e-08
-2.92194e-07
2.06613e-13
-2.60667e-08
-2.52367e-07
5.30576e-13
-3.98407e-08
-1.97828e-07
5.89806e-13
-5.45553e-08
-1.29559e-07
3.07532e-13
-6.82898e-08
-5.35705e-08
7.50511e-14
-7.60134e-08
5.70589e-09
4.51861e-13
-5.93006e-08
1.28642e-12
5.67226e-09
-3.53728e-07
3.53705e-07
-6.38259e-07
2.84493e-07
-7.83132e-07
1.44859e-07
-7.96892e-07
1.37491e-08
-7.1159e-07
-8.53138e-08
-5.57149e-07
-1.54451e-07
-3.55944e-07
-2.01215e-07
-1.24118e-07
-2.31836e-07
1.26543e-07
-2.50671e-07
3.8724e-07
-2.60707e-07
6.5186e-07
-2.64629e-07
9.16246e-07
-2.64395e-07
1.17736e-06
-2.61125e-07
1.43299e-06
-2.55639e-07
1.6815e-06
-2.48515e-07
1.92167e-06
-2.40177e-07
2.15261e-06
-2.30946e-07
2.37367e-06
-2.21067e-07
2.58439e-06
-2.10733e-07
2.78448e-06
-2.00096e-07
2.97375e-06
-1.89281e-07
3.15214e-06
-1.78388e-07
3.31963e-06
-1.675e-07
3.47631e-06
-1.56688e-07
3.62231e-06
-1.46009e-07
3.75782e-06
-1.35512e-07
3.88305e-06
-1.25238e-07
3.99826e-06
-1.15222e-07
4.10375e-06
-1.05492e-07
4.19981e-06
-9.60715e-08
4.28679e-06
-8.69801e-08
4.36502e-06
-7.82331e-08
4.43485e-06
-6.98421e-08
4.49666e-06
-6.18156e-08
4.55082e-06
-5.41593e-08
4.59769e-06
-4.68764e-08
4.63765e-06
-3.99674e-08
4.67107e-06
-3.34311e-08
4.69833e-06
-2.72641e-08
4.71979e-06
-2.14615e-08
4.7358e-06
-1.60169e-08
4.74672e-06
-1.09229e-08
4.75288e-06
-6.17071e-09
4.75463e-06
-1.74949e-09
4.75227e-06
2.35193e-09
4.74612e-06
6.14451e-09
4.73648e-06
9.64052e-09
4.72362e-06
1.28529e-08
4.70782e-06
1.57945e-08
4.68934e-06
1.84784e-08
4.66842e-06
2.09173e-08
4.64529e-06
2.31244e-08
4.62017e-06
2.51127e-08
4.59327e-06
2.6895e-08
4.56478e-06
2.8484e-08
4.53489e-06
2.98923e-08
4.50375e-06
3.11319e-08
4.47153e-06
3.22146e-08
4.43838e-06
3.3152e-08
4.40442e-06
3.39549e-08
4.36978e-06
3.46339e-08
4.33458e-06
3.51991e-08
4.29891e-06
3.56601e-08
4.26288e-06
3.60261e-08
4.22657e-06
3.63055e-08
4.19006e-06
3.65066e-08
4.15342e-06
3.6637e-08
4.11672e-06
3.67038e-08
4.08e-06
3.67138e-08
4.04332e-06
3.66731e-08
4.00673e-06
3.65877e-08
3.97026e-06
3.64627e-08
3.93396e-06
3.63033e-08
3.89784e-06
3.61139e-08
3.86194e-06
3.58988e-08
3.82627e-06
3.56619e-08
3.79086e-06
3.54066e-08
3.75572e-06
3.51363e-08
3.72086e-06
3.48539e-08
3.6863e-06
3.4562e-08
3.65203e-06
3.4263e-08
3.61807e-06
3.39593e-08
3.58441e-06
3.36528e-08
3.55106e-06
3.33453e-08
3.51802e-06
3.30384e-08
3.48528e-06
3.27337e-08
3.45284e-06
3.24325e-08
3.4207e-06
3.21359e-08
3.38886e-06
3.18451e-08
3.35729e-06
3.1561e-08
3.326e-06
3.12846e-08
3.29498e-06
3.10167e-08
3.26422e-06
3.07579e-08
3.23371e-06
3.0509e-08
3.20343e-06
3.02705e-08
3.17338e-06
3.0043e-08
3.14355e-06
2.98271e-08
3.11393e-06
2.96231e-08
3.08449e-06
2.94316e-08
3.05523e-06
2.92529e-08
3.02614e-06
2.90875e-08
2.9972e-06
2.89356e-08
2.9684e-06
2.87976e-08
2.93972e-06
2.86739e-08
2.91115e-06
2.85647e-08
2.88268e-06
2.84704e-08
2.85428e-06
2.83912e-08
2.82595e-06
2.83274e-08
2.79767e-06
2.82792e-08
2.76942e-06
2.82469e-08
2.74118e-06
2.82308e-08
2.71295e-06
2.8231e-08
2.68469e-06
2.82479e-08
2.65641e-06
2.82816e-08
2.62807e-06
2.83322e-08
2.59967e-06
2.84001e-08
2.57118e-06
2.84854e-08
2.54258e-06
2.85883e-08
2.51387e-06
2.8709e-08
2.48502e-06
2.88475e-08
2.45601e-06
2.90041e-08
2.42683e-06
2.91788e-08
2.39745e-06
2.93718e-08
2.36786e-06
2.95832e-08
2.33804e-06
2.9813e-08
2.30798e-06
3.00613e-08
2.27764e-06
3.03281e-08
2.24703e-06
3.06133e-08
2.2161e-06
3.09171e-08
2.18486e-06
3.12393e-08
2.15328e-06
3.15798e-08
2.12133e-06
3.19386e-08
2.08901e-06
3.23155e-08
2.0563e-06
3.27103e-08
2.02317e-06
3.31227e-08
1.98961e-06
3.35526e-08
1.95561e-06
3.39995e-08
1.92114e-06
3.44632e-08
1.88619e-06
3.49433e-08
1.85075e-06
3.54392e-08
1.81479e-06
3.59505e-08
1.77831e-06
3.64765e-08
1.74129e-06
3.70167e-08
1.70371e-06
3.75703e-08
1.66557e-06
3.81366e-08
1.62685e-06
3.87146e-08
1.58754e-06
3.93035e-08
1.54763e-06
3.99022e-08
1.50712e-06
4.05096e-08
1.46599e-06
4.11244e-08
1.42424e-06
4.17455e-08
1.38186e-06
4.23712e-08
1.33885e-06
4.30001e-08
1.29522e-06
4.36304e-08
1.25095e-06
4.42603e-08
1.20605e-06
4.48879e-08
1.16054e-06
4.55108e-08
1.1144e-06
4.61268e-08
1.06766e-06
4.67334e-08
1.02033e-06
4.73276e-08
9.72415e-07
4.79064e-08
9.23941e-07
4.84665e-08
8.74929e-07
4.90042e-08
8.25406e-07
4.95155e-08
7.75402e-07
4.99959e-08
7.24954e-07
5.04407e-08
6.74101e-07
5.08443e-08
6.22892e-07
5.12008e-08
5.7138e-07
5.15035e-08
5.19626e-07
5.1745e-08
4.677e-07
5.19168e-08
4.15681e-07
5.20098e-08
3.63659e-07
5.20132e-08
3.11734e-07
5.19151e-08
2.60022e-07
5.17021e-08
2.08653e-07
5.13585e-08
1.57776e-07
5.08666e-08
1.0756e-07
5.02056e-08
5.81989e-08
4.93496e-08
9.91642e-09
4.82708e-08
-3.70125e-08
4.69167e-08
-8.22694e-08
4.5244e-08
-1.25505e-07
4.32224e-08
-1.66335e-07
4.08154e-08
-2.04314e-07
3.79629e-08
-2.38907e-07
3.45767e-08
-2.69497e-07
3.0573e-08
-2.9536e-07
2.5844e-08
-3.15641e-07
2.02618e-08
-3.29336e-07
1.36763e-08
-3.35265e-07
5.91069e-09
-3.32069e-07
-3.21169e-09
-3.18248e-07
-1.38358e-08
-2.92194e-07
-2.60684e-08
-2.52367e-07
-3.98426e-08
-1.9783e-07
-5.45583e-08
-1.29562e-07
-6.82944e-08
-5.35732e-08
-7.60184e-08
5.70223e-09
-5.93063e-08
5.66358e-09
-2.58828e-07
2.19317e-13
6.12501e-07
-3.2475e-07
2.26604e-14
3.50397e-07
-3.08206e-07
3.27783e-14
1.28307e-07
-2.37307e-07
1.90054e-15
-5.71571e-08
-1.21907e-07
-9.52071e-15
-2.00721e-07
2.97505e-08
-1.89159e-14
-3.06115e-07
2.0933e-07
-2.63196e-14
-3.80801e-07
4.09196e-07
-3.15931e-14
-4.31708e-07
6.23088e-07
-3.53053e-14
-4.64569e-07
8.45947e-07
-3.68457e-14
-4.83571e-07
1.07362e-06
-3.64502e-14
-4.9231e-07
1.30275e-06
-3.53885e-14
-4.93525e-07
1.53069e-06
-3.37578e-14
-4.89077e-07
1.75541e-06
-3.18253e-14
-4.80358e-07
1.97528e-06
-2.97471e-14
-4.68396e-07
2.18907e-06
-2.76064e-14
-4.5397e-07
2.3958e-06
-2.55143e-14
-4.37681e-07
2.59473e-06
-2.35402e-14
-4.19999e-07
2.78529e-06
-2.16562e-14
-4.01299e-07
2.96707e-06
-1.99007e-14
-3.81884e-07
3.13978e-06
-1.82943e-14
-3.62e-07
3.30325e-06
-1.68337e-14
-3.41853e-07
3.45735e-06
-1.54736e-14
-3.21611e-07
3.60208e-06
-1.42419e-14
-3.01418e-07
3.73746e-06
-1.31317e-14
-2.81394e-07
3.86358e-06
-1.2129e-14
-2.61641e-07
3.98058e-06
-1.12339e-14
-2.42244e-07
4.08863e-06
-1.04532e-14
-2.23278e-07
4.18794e-06
-9.76279e-15
-2.04802e-07
4.27873e-06
-9.17296e-15
-1.8687e-07
4.36127e-06
-8.65947e-15
-1.69521e-07
4.43583e-06
-8.22924e-15
-1.52792e-07
4.50269e-06
-7.8684e-15
-1.36708e-07
4.56216e-06
-7.59082e-15
-1.21291e-07
4.61455e-06
-7.36529e-15
-1.06555e-07
4.66018e-06
-7.19527e-15
-9.25101e-08
4.69937e-06
-7.07036e-15
-7.91601e-08
4.73244e-06
-7.00442e-15
-6.65056e-08
4.75972e-06
-6.95236e-15
-5.45432e-08
4.78152e-06
-6.94887e-15
-4.32659e-08
4.79816e-06
-6.97661e-15
-3.26637e-08
4.80996e-06
-7.01129e-15
-2.27237e-08
4.81721e-06
-7.07373e-15
-1.34308e-08
4.82023e-06
-7.10841e-15
-4.76731e-09
4.81929e-06
-7.19513e-15
3.28563e-09
4.81468e-06
-7.3096e-15
1.07486e-08
4.80668e-06
-7.39286e-15
1.76437e-08
4.79553e-06
-7.49346e-15
2.39939e-08
4.7815e-06
-7.5663e-15
2.98228e-08
4.76482e-06
-7.64955e-15
3.51543e-08
4.74573e-06
-7.71199e-15
4.00127e-08
4.72442e-06
-7.78484e-15
4.44222e-08
4.70113e-06
-7.83686e-15
4.84074e-08
4.67603e-06
-7.88889e-15
5.19923e-08
4.64931e-06
-7.93052e-15
5.52011e-08
4.62114e-06
-7.9652e-15
5.80572e-08
4.59169e-06
-7.98254e-15
6.05836e-08
4.56109e-06
-7.98947e-15
6.28028e-08
4.52951e-06
-7.98946e-15
6.47366e-08
4.49705e-06
-7.97904e-15
6.64058e-08
4.46385e-06
-7.97903e-15
6.78308e-08
4.43002e-06
-7.95127e-15
6.90307e-08
4.39565e-06
-7.92004e-15
7.00241e-08
4.36085e-06
-7.8784e-15
7.08286e-08
4.32569e-06
-7.84023e-15
7.14607e-08
4.29026e-06
-7.78125e-15
7.19362e-08
4.25462e-06
-7.7292e-15
7.227e-08
4.21885e-06
-7.66675e-15
7.24759e-08
4.18299e-06
-7.60776e-15
7.25669e-08
4.14711e-06
-7.54878e-15
7.25553e-08
4.11124e-06
-7.50021e-15
7.24525e-08
4.07543e-06
-7.43429e-15
7.22688e-08
4.03972e-06
-7.37531e-15
7.20142e-08
4.00413e-06
-7.30939e-15
7.16977e-08
3.9687e-06
-7.25041e-15
7.13275e-08
3.93345e-06
-7.17408e-15
7.09114e-08
3.8984e-06
-7.1151e-15
7.04564e-08
3.86356e-06
-7.07347e-15
6.99689e-08
3.82896e-06
-7.00756e-15
6.94549e-08
3.7946e-06
-6.95205e-15
6.89197e-08
3.76049e-06
-6.90695e-15
6.83682e-08
3.72664e-06
-6.85491e-15
6.7805e-08
3.69306e-06
-6.81676e-15
6.7234e-08
3.65974e-06
-6.78207e-15
6.66591e-08
3.62669e-06
-6.73697e-15
6.60834e-08
3.59391e-06
-6.7231e-15
6.55101e-08
3.5614e-06
-6.69188e-15
6.49419e-08
3.52915e-06
-6.6676e-15
6.43814e-08
3.49717e-06
-6.63985e-15
6.38306e-08
3.46543e-06
-6.63639e-15
6.32918e-08
3.43395e-06
-6.61558e-15
6.27668e-08
3.40271e-06
-6.59478e-15
6.22572e-08
3.3717e-06
-6.59825e-15
6.17645e-08
3.34091e-06
-6.59132e-15
6.12903e-08
3.31034e-06
-6.58439e-15
6.08358e-08
3.27998e-06
-6.5844e-15
6.04021e-08
3.24982e-06
-6.58788e-15
5.99903e-08
3.21983e-06
-6.58095e-15
5.96015e-08
3.19003e-06
-6.59831e-15
5.92365e-08
3.16038e-06
-6.62608e-15
5.88962e-08
3.13088e-06
-6.65384e-15
5.85815e-08
3.10152e-06
-6.64345e-15
5.8293e-08
3.07229e-06
-6.66774e-15
5.80315e-08
3.04316e-06
-6.69204e-15
5.77977e-08
3.01413e-06
-6.71981e-15
5.75921e-08
2.98518e-06
-6.73716e-15
5.74155e-08
2.9563e-06
-6.76146e-15
5.72683e-08
2.92748e-06
-6.78576e-15
5.71511e-08
2.89869e-06
-6.80311e-15
5.70645e-08
2.86992e-06
-6.82394e-15
5.70089e-08
2.84117e-06
-6.86212e-15
5.69849e-08
2.8124e-06
-6.88988e-15
5.69928e-08
2.78361e-06
-6.90377e-15
5.70332e-08
2.75478e-06
-6.94195e-15
5.71065e-08
2.7259e-06
-6.97318e-15
5.72131e-08
2.69694e-06
-6.99748e-15
5.73532e-08
2.6679e-06
-7.02524e-15
5.75274e-08
2.63875e-06
-7.05301e-15
5.77359e-08
2.60948e-06
-7.07731e-15
5.79791e-08
2.58006e-06
-7.09466e-15
5.82571e-08
2.55049e-06
-7.10508e-15
5.85703e-08
2.52075e-06
-7.1155e-15
5.89189e-08
2.49082e-06
-7.14326e-15
5.93031e-08
2.46067e-06
-7.16062e-15
5.97229e-08
2.4303e-06
-7.18492e-15
6.01785e-08
2.39969e-06
-7.20227e-15
6.06699e-08
2.36882e-06
-7.20922e-15
6.11972e-08
2.33767e-06
-7.24392e-15
6.17603e-08
2.30623e-06
-7.25087e-15
6.23592e-08
2.27447e-06
-7.25435e-15
6.29935e-08
2.24238e-06
-7.26477e-15
6.36632e-08
2.20995e-06
-7.27518e-15
6.4368e-08
2.17715e-06
-7.29601e-15
6.51075e-08
2.14398e-06
-7.31683e-15
6.58812e-08
2.11041e-06
-7.32725e-15
6.66888e-08
2.07643e-06
-7.31685e-15
6.75294e-08
2.04202e-06
-7.3342e-15
6.84026e-08
2.00718e-06
-7.34115e-15
6.93075e-08
1.97187e-06
-7.36544e-15
7.02432e-08
1.9361e-06
-7.38279e-15
7.12087e-08
1.89984e-06
-7.39668e-15
7.2203e-08
1.86309e-06
-7.39322e-15
7.32247e-08
1.82583e-06
-7.41751e-15
7.42726e-08
1.78805e-06
-7.44527e-15
7.53452e-08
1.74975e-06
-7.46262e-15
7.64407e-08
1.7109e-06
-7.48691e-15
7.75576e-08
1.6715e-06
-7.50427e-15
7.86937e-08
1.63156e-06
-7.51815e-15
7.98469e-08
1.59105e-06
-7.5355e-15
8.10151e-08
1.54997e-06
-7.55979e-15
8.21955e-08
1.50833e-06
-7.61531e-15
8.33856e-08
1.46611e-06
-7.64654e-15
8.45824e-08
1.42333e-06
-7.68818e-15
8.57827e-08
1.37997e-06
-7.73328e-15
8.69831e-08
1.33605e-06
-7.82002e-15
8.81798e-08
1.29156e-06
-7.92064e-15
8.93688e-08
1.24652e-06
-8.01779e-15
9.05457e-08
1.20094e-06
-8.14963e-15
9.17057e-08
1.15482e-06
-8.3127e-15
9.28438e-08
1.10819e-06
-8.50699e-15
9.39543e-08
1.06106e-06
-8.70129e-15
9.50312e-08
1.01346e-06
-8.95109e-15
9.60677e-08
9.65397e-07
-9.22171e-15
9.70568e-08
9.16917e-07
-9.51315e-15
9.79905e-08
8.68048e-07
-9.81846e-15
9.88601e-08
8.18827e-07
-1.01793e-14
9.96561e-08
7.69298e-07
-1.0547e-14
1.00368e-07
7.19509e-07
-1.09287e-14
1.00984e-07
6.69514e-07
-1.13589e-14
1.01492e-07
6.19376e-07
-1.17614e-14
1.01877e-07
5.69163e-07
-1.2143e-14
1.02124e-07
5.18953e-07
-1.25177e-14
1.02214e-07
4.68832e-07
-1.27883e-14
1.02128e-07
4.18897e-07
-1.29132e-14
1.01844e-07
3.69257e-07
-1.27953e-14
1.01336e-07
3.20033e-07
-1.23789e-14
1.00575e-07
2.71364e-07
-1.14908e-14
9.95289e-08
2.23403e-07
-1.01307e-14
9.81599e-08
1.76322e-07
-8.16703e-15
9.64226e-08
1.30318e-07
-5.67597e-15
9.4267e-08
8.56054e-08
-2.64367e-15
9.16208e-08
4.24256e-08
7.00874e-16
8.84149e-08
1.04892e-09
3.48337e-15
8.45896e-08
-3.8203e-08
4.30216e-15
8.00571e-08
-7.49712e-08
1.22823e-15
7.47201e-08
-1.08872e-07
-8.18785e-15
6.84656e-08
-1.39471e-07
-2.64788e-14
6.11598e-08
-1.66283e-07
-5.46437e-14
5.26446e-08
-1.88775e-07
-9.01501e-14
4.27415e-08
-2.06364e-07
-1.24047e-13
3.12544e-08
-2.18438e-07
-1.40166e-13
1.79739e-08
-2.24367e-07
-1.1937e-13
2.70748e-09
-2.23548e-07
-5.30686e-14
-1.46639e-08
-2.15504e-07
3.41394e-14
-3.4123e-08
-2.00016e-07
7.01384e-14
-5.53434e-08
-1.77294e-07
-3.45973e-14
-7.72942e-08
-1.48093e-07
-2.64039e-13
-9.75112e-08
-1.13373e-07
-3.18592e-13
-1.10758e-07
-6.82262e-08
2.07333e-14
-1.04477e-07
9.45019e-13
-6.25796e-08
-2.58831e-07
6.12498e-07
-3.2475e-07
3.50394e-07
-3.08205e-07
1.28306e-07
-2.37306e-07
-5.71582e-08
-1.21905e-07
-2.00722e-07
2.97519e-08
-3.06116e-07
2.09332e-07
-3.80802e-07
4.09198e-07
-4.31709e-07
6.2309e-07
-4.64569e-07
8.45948e-07
-4.83572e-07
1.07362e-06
-4.9231e-07
1.30275e-06
-4.93525e-07
1.53069e-06
-4.89077e-07
1.75541e-06
-4.80358e-07
1.97528e-06
-4.68396e-07
2.18907e-06
-4.5397e-07
2.3958e-06
-4.37681e-07
2.59473e-06
-4.19999e-07
2.78529e-06
-4.01299e-07
2.96707e-06
-3.81884e-07
3.13978e-06
-3.62e-07
3.30324e-06
-3.41853e-07
3.45735e-06
-3.21611e-07
3.60208e-06
-3.01418e-07
3.73746e-06
-2.81394e-07
3.86358e-06
-2.61641e-07
3.98058e-06
-2.42244e-07
4.08863e-06
-2.23278e-07
4.18794e-06
-2.04802e-07
4.27873e-06
-1.8687e-07
4.36127e-06
-1.69521e-07
4.43582e-06
-1.52792e-07
4.50269e-06
-1.36708e-07
4.56216e-06
-1.21291e-07
4.61455e-06
-1.06555e-07
4.66018e-06
-9.25101e-08
4.69937e-06
-7.91601e-08
4.73244e-06
-6.65056e-08
4.75971e-06
-5.45432e-08
4.78152e-06
-4.32659e-08
4.79816e-06
-3.26637e-08
4.80996e-06
-2.27237e-08
4.81721e-06
-1.34308e-08
4.82023e-06
-4.76737e-09
4.81929e-06
3.28556e-09
4.81468e-06
1.07485e-08
4.80668e-06
1.76436e-08
4.79553e-06
2.39938e-08
4.7815e-06
2.98227e-08
4.76482e-06
3.51542e-08
4.74572e-06
4.00126e-08
4.72442e-06
4.44221e-08
4.70113e-06
4.84072e-08
4.67603e-06
5.19922e-08
4.64931e-06
5.5201e-08
4.62114e-06
5.8057e-08
4.59168e-06
6.05835e-08
4.56109e-06
6.28027e-08
4.52951e-06
6.47364e-08
4.49705e-06
6.64057e-08
4.46385e-06
6.78306e-08
4.43002e-06
6.90306e-08
4.39565e-06
7.0024e-08
4.36085e-06
7.08285e-08
4.32569e-06
7.14606e-08
4.29026e-06
7.19361e-08
4.25462e-06
7.22699e-08
4.21885e-06
7.24757e-08
4.18299e-06
7.25668e-08
4.14711e-06
7.25552e-08
4.11124e-06
7.24523e-08
4.07543e-06
7.22687e-08
4.03972e-06
7.20141e-08
4.00413e-06
7.16976e-08
3.9687e-06
7.13274e-08
3.93345e-06
7.09113e-08
3.8984e-06
7.04563e-08
3.86356e-06
6.99688e-08
3.82896e-06
6.94547e-08
3.7946e-06
6.89196e-08
3.76049e-06
6.83681e-08
3.72664e-06
6.78049e-08
3.69306e-06
6.72339e-08
3.65974e-06
6.6659e-08
3.62669e-06
6.60833e-08
3.59391e-06
6.551e-08
3.5614e-06
6.49418e-08
3.52915e-06
6.43813e-08
3.49717e-06
6.38305e-08
3.46543e-06
6.32917e-08
3.43395e-06
6.27667e-08
3.4027e-06
6.22571e-08
3.3717e-06
6.17644e-08
3.34091e-06
6.12902e-08
3.31034e-06
6.08357e-08
3.27998e-06
6.0402e-08
3.24982e-06
5.99902e-08
3.21983e-06
5.96014e-08
3.19003e-06
5.92364e-08
3.16038e-06
5.88962e-08
3.13088e-06
5.85814e-08
3.10152e-06
5.82929e-08
3.07229e-06
5.80314e-08
3.04316e-06
5.77976e-08
3.01413e-06
5.7592e-08
2.98518e-06
5.74154e-08
2.9563e-06
5.72682e-08
2.92747e-06
5.7151e-08
2.89869e-06
5.70644e-08
2.86992e-06
5.70088e-08
2.84116e-06
5.69848e-08
2.8124e-06
5.69927e-08
2.78361e-06
5.70332e-08
2.75478e-06
5.71064e-08
2.7259e-06
5.7213e-08
2.69694e-06
5.73531e-08
2.6679e-06
5.75273e-08
2.63875e-06
5.77358e-08
2.60948e-06
5.7979e-08
2.58006e-06
5.8257e-08
2.55049e-06
5.85703e-08
2.52075e-06
5.89188e-08
2.49082e-06
5.9303e-08
2.46067e-06
5.97228e-08
2.4303e-06
6.01784e-08
2.39969e-06
6.06698e-08
2.36882e-06
6.11971e-08
2.33767e-06
6.17602e-08
2.30622e-06
6.23591e-08
2.27447e-06
6.29934e-08
2.24238e-06
6.36632e-08
2.20995e-06
6.43679e-08
2.17715e-06
6.51074e-08
2.14398e-06
6.58812e-08
2.11041e-06
6.66887e-08
2.07643e-06
6.75293e-08
2.04202e-06
6.84025e-08
2.00718e-06
6.93074e-08
1.97187e-06
7.02431e-08
1.9361e-06
7.12086e-08
1.89984e-06
7.22029e-08
1.86309e-06
7.32246e-08
1.82583e-06
7.42725e-08
1.78805e-06
7.53451e-08
1.74975e-06
7.64406e-08
1.7109e-06
7.75575e-08
1.6715e-06
7.86936e-08
1.63156e-06
7.98468e-08
1.59105e-06
8.1015e-08
1.54997e-06
8.21954e-08
1.50833e-06
8.33855e-08
1.46611e-06
8.45823e-08
1.42333e-06
8.57826e-08
1.37997e-06
8.6983e-08
1.33605e-06
8.81797e-08
1.29156e-06
8.93687e-08
1.24652e-06
9.05456e-08
1.20094e-06
9.17056e-08
1.15482e-06
9.28437e-08
1.10819e-06
9.39542e-08
1.06106e-06
9.50311e-08
1.01346e-06
9.60676e-08
9.65398e-07
9.70567e-08
9.16917e-07
9.79904e-08
8.68048e-07
9.886e-08
8.18827e-07
9.9656e-08
7.69298e-07
1.00368e-07
7.19509e-07
1.00984e-07
6.69515e-07
1.01492e-07
6.19376e-07
1.01877e-07
5.69163e-07
1.02124e-07
5.18953e-07
1.02214e-07
4.68832e-07
1.02128e-07
4.18897e-07
1.01844e-07
3.69257e-07
1.01335e-07
3.20034e-07
1.00575e-07
2.71364e-07
9.95287e-08
2.23403e-07
9.81597e-08
1.76322e-07
9.64225e-08
1.30318e-07
9.42669e-08
8.56056e-08
9.16207e-08
4.24258e-08
8.84147e-08
1.04909e-09
8.45895e-08
-3.82029e-08
8.0057e-08
-7.4971e-08
7.472e-08
-1.08872e-07
6.84655e-08
-1.39471e-07
6.11597e-08
-1.66283e-07
5.26445e-08
-1.88775e-07
4.27414e-08
-2.06364e-07
3.12542e-08
-2.18438e-07
1.79738e-08
-2.24366e-07
2.70734e-09
-2.23548e-07
-1.46641e-08
-2.15504e-07
-3.41233e-08
-2.00016e-07
-5.53437e-08
-1.77296e-07
-7.72945e-08
-1.48094e-07
-9.75113e-08
-1.13374e-07
-1.10758e-07
-6.82294e-08
-1.04478e-07
-6.25832e-08
-1.01577e-07
3.45437e-13
7.14066e-07
-7.02605e-08
2.4423e-14
3.19069e-07
1.42215e-08
3.96688e-14
4.38222e-08
1.25484e-07
2.66032e-14
-1.68422e-07
2.57484e-07
2.58921e-14
-3.32724e-07
4.08056e-07
2.47785e-14
-4.56688e-07
5.74697e-07
2.33214e-14
-5.47444e-07
7.54451e-07
2.17498e-14
-6.11464e-07
9.44186e-07
1.98416e-14
-6.54305e-07
1.14105e-06
1.78467e-14
-6.80432e-07
1.3423e-06
1.60635e-14
-6.9357e-07
1.54546e-06
1.44363e-14
-6.96681e-07
1.74839e-06
1.30694e-14
-6.9201e-07
1.94933e-06
1.19141e-14
-6.81294e-07
2.1468e-06
1.09843e-14
-6.65874e-07
2.33963e-06
1.02071e-14
-6.468e-07
2.52685e-06
9.57049e-15
-6.24903e-07
2.7077e-06
9.02233e-15
-6.00847e-07
2.88157e-06
8.57305e-15
-5.75169e-07
3.048e-06
8.18102e-15
-5.48312e-07
3.20663e-06
7.83409e-15
-5.20638e-07
3.35723e-06
7.54267e-15
-4.92451e-07
3.49963e-06
7.27553e-15
-4.64007e-07
3.63373e-06
7.02574e-15
-4.35523e-07
3.75951e-06
6.81065e-15
-4.07181e-07
3.87701e-06
6.61637e-15
-3.79138e-07
3.98629e-06
6.43424e-15
-3.51527e-07
4.08748e-06
6.26078e-15
-3.24461e-07
4.18071e-06
6.09426e-15
-2.98036e-07
4.26617e-06
5.94508e-15
-2.72333e-07
4.34407e-06
5.79417e-15
-2.47419e-07
4.41462e-06
5.64846e-15
-2.2335e-07
4.47808e-06
5.50102e-15
-2.00169e-07
4.5347e-06
5.36052e-15
-1.7791e-07
4.58475e-06
5.21481e-15
-1.56601e-07
4.62849e-06
5.08125e-15
-1.36259e-07
4.66623e-06
4.94942e-15
-1.16894e-07
4.69823e-06
4.82106e-15
-9.85096e-08
4.72479e-06
4.69097e-15
-8.11049e-08
4.7462e-06
4.5522e-15
-6.46724e-08
4.76273e-06
4.4221e-15
-4.92003e-08
4.77468e-06
4.30415e-15
-3.46725e-08
4.78232e-06
4.18273e-15
-2.10693e-08
4.78592e-06
4.07171e-15
-8.36759e-09
4.78574e-06
3.95376e-15
3.45817e-09
4.78206e-06
3.84621e-15
1.44358e-08
4.7751e-06
3.74561e-15
2.45954e-08
4.76513e-06
3.64674e-15
3.39687e-08
4.75236e-06
3.5548e-15
4.25882e-08
4.73703e-06
3.47501e-15
5.04875e-08
4.71934e-06
3.40042e-15
5.77007e-08
4.6995e-06
3.33278e-15
6.42621e-08
4.6777e-06
3.2738e-15
7.02062e-08
4.65412e-06
3.21309e-15
7.55675e-08
4.62894e-06
3.16279e-15
8.03799e-08
4.60232e-06
3.11595e-15
8.4677e-08
4.57441e-06
3.07606e-15
8.84917e-08
4.54536e-06
3.04137e-15
9.18562e-08
4.51529e-06
3.01709e-15
9.48014e-08
4.48434e-06
2.98933e-15
9.73577e-08
4.45262e-06
2.96332e-15
9.95541e-08
4.42023e-06
2.95464e-15
1.01418e-07
4.38727e-06
2.94077e-15
1.02977e-07
4.35385e-06
2.9373e-15
1.04256e-07
4.32003e-06
2.92863e-15
1.05279e-07
4.28589e-06
2.9373e-15
1.06069e-07
4.25152e-06
2.93557e-15
1.06647e-07
4.21696e-06
2.93383e-15
1.07034e-07
4.18227e-06
2.94424e-15
1.07249e-07
4.14752e-06
2.95292e-15
1.0731e-07
4.11274e-06
2.95465e-15
1.07233e-07
4.07797e-06
2.96506e-15
1.07033e-07
4.04326e-06
2.98067e-15
1.06726e-07
4.00863e-06
2.99975e-15
1.06324e-07
3.97412e-06
3.00495e-15
1.0584e-07
3.93975e-06
3.02576e-15
1.05285e-07
3.90553e-06
3.04137e-15
1.0467e-07
3.8715e-06
3.05872e-15
1.04003e-07
3.83766e-06
3.07086e-15
1.03295e-07
3.80402e-06
3.09167e-15
1.02552e-07
3.77061e-06
3.10381e-15
1.01783e-07
3.73742e-06
3.12115e-15
1.00994e-07
3.70446e-06
3.14023e-15
1.00191e-07
3.67174e-06
3.15931e-15
9.93798e-08
3.63926e-06
3.18186e-15
9.85653e-08
3.60701e-06
3.20093e-15
9.77523e-08
3.57501e-06
3.21828e-15
9.69448e-08
3.54324e-06
3.24256e-15
9.61466e-08
3.51171e-06
3.25123e-15
9.53613e-08
3.48041e-06
3.26336e-15
9.45919e-08
3.44934e-06
3.28938e-15
9.38414e-08
3.41848e-06
3.30499e-15
9.31123e-08
3.38784e-06
3.32406e-15
9.24069e-08
3.3574e-06
3.34661e-15
9.17275e-08
3.32716e-06
3.36568e-15
9.10761e-08
3.29711e-06
3.38129e-15
9.04544e-08
3.26723e-06
3.4021e-15
8.98641e-08
3.23753e-06
3.42812e-15
8.93068e-08
3.20798e-06
3.43852e-15
8.87839e-08
3.17858e-06
3.45239e-15
8.82968e-08
3.14931e-06
3.46973e-15
8.78466e-08
3.12017e-06
3.49748e-15
8.74346e-08
3.09114e-06
3.52003e-15
8.70619e-08
3.06221e-06
3.54084e-15
8.67294e-08
3.03336e-06
3.55818e-15
8.64381e-08
3.00458e-06
3.58246e-15
8.61891e-08
2.97587e-06
3.59807e-15
8.59831e-08
2.9472e-06
3.62061e-15
8.5821e-08
2.91856e-06
3.64489e-15
8.57035e-08
2.88994e-06
3.67091e-15
8.56315e-08
2.86131e-06
3.69172e-15
8.56057e-08
2.83268e-06
3.71947e-15
8.56267e-08
2.80402e-06
3.74548e-15
8.56952e-08
2.77531e-06
3.76456e-15
8.58118e-08
2.74655e-06
3.7871e-15
8.59771e-08
2.71771e-06
3.81485e-15
8.61916e-08
2.68878e-06
3.84607e-15
8.64559e-08
2.65974e-06
3.87382e-15
8.67704e-08
2.63059e-06
3.90678e-15
8.71356e-08
2.60129e-06
3.94494e-15
8.75517e-08
2.57184e-06
3.97789e-15
8.80192e-08
2.54222e-06
4.00738e-15
8.85384e-08
2.51241e-06
4.049e-15
8.91093e-08
2.4824e-06
4.08716e-15
8.97323e-08
2.45217e-06
4.12706e-15
9.04075e-08
2.42171e-06
4.16695e-15
9.11347e-08
2.39099e-06
4.21031e-15
9.19141e-08
2.36e-06
4.24847e-15
9.27454e-08
2.32873e-06
4.29531e-15
9.36286e-08
2.29716e-06
4.34908e-15
9.45632e-08
2.26528e-06
4.40112e-15
9.55489e-08
2.23306e-06
4.45315e-15
9.65853e-08
2.20049e-06
4.50693e-15
9.76717e-08
2.16757e-06
4.55896e-15
9.88073e-08
2.13426e-06
4.61621e-15
9.99915e-08
2.10057e-06
4.67865e-15
1.01223e-07
2.06647e-06
4.74283e-15
1.02501e-07
2.03195e-06
4.81395e-15
1.03825e-07
1.997e-06
4.8712e-15
1.05192e-07
1.96161e-06
4.94579e-15
1.06601e-07
1.92576e-06