/*--------------------------------*- C++ -*----------------------------------*\
  =========                 |
  \\      /  F ield         | OpenFOAM: The Open Source CFD Toolbox
   \\    /   O peration     | Website:  https://openfoam.org
    \\  /    A nd           | Version:  8
     \\/     M anipulation  |
\*---------------------------------------------------------------------------*/
FoamFile
{
    version     2.0;
    format      ascii;
    class       volVectorField;
    location    "4100";
    object      U;
}
// * * * * * * * * * * * * * * * * * * * * * * * * * * * * * * * * * * * * * //

dimensions      [0 1 -1 0 0 0 0];

internalField   nonuniform List<vector> 
48000
(
(-0.0162456 2.97856e-07 0.0178106)
(-0.036503 3.91619e-08 0.0180366)
(-0.0508874 3.52938e-08 0.00965068)
(-0.0560219 1.47951e-08 0.00125138)
(-0.0529065 1.40857e-09 -0.00498902)
(-0.0443226 -8.56283e-09 -0.00926505)
(-0.0318349 -1.52828e-08 -0.0121419)
(-0.0168363 -1.97259e-08 -0.0140448)
(-0.000114351 -2.32896e-08 -0.0151869)
(0.0175663 -2.49762e-08 -0.0156775)
(0.0356079 -2.40358e-08 -0.0157466)
(0.0538098 -2.22044e-08 -0.0155824)
(0.0718694 -1.9901e-08 -0.0152574)
(0.0896203 -1.73805e-08 -0.0148205)
(0.106932 -1.47953e-08 -0.0143054)
(0.123707 -1.22634e-08 -0.0137359)
(0.139876 -9.85719e-09 -0.0131295)
(0.155386 -7.62989e-09 -0.0124993)
(0.1702 -5.58916e-09 -0.011855)
(0.184293 -3.75782e-09 -0.0112041)
(0.197648 -2.12067e-09 -0.0105527)
(0.210257 -6.64359e-10 -0.00990533)
(0.222118 6.24426e-10 -0.00926575)
(0.233233 1.74378e-09 -0.00863698)
(0.243611 2.72989e-09 -0.00802147)
(0.253262 3.5656e-09 -0.0074212)
(0.2622 4.28138e-09 -0.00683779)
(0.270441 4.87913e-09 -0.00627257)
(0.278005 5.36837e-09 -0.00572657)
(0.284912 5.76053e-09 -0.00520062)
(0.291183 6.06321e-09 -0.00469535)
(0.296843 6.28785e-09 -0.00421122)
(0.301914 6.44966e-09 -0.00374854)
(0.306423 6.54294e-09 -0.00330746)
(0.310393 6.5715e-09 -0.00288803)
(0.313852 6.55627e-09 -0.00249018)
(0.316823 6.49917e-09 -0.00211374)
(0.319334 6.4097e-09 -0.00175845)
(0.321408 6.29167e-09 -0.00142398)
(0.323073 6.13177e-09 -0.00110992)
(0.324352 5.96805e-09 -0.000815809)
(0.325269 5.78721e-09 -0.00054115)
(0.32585 5.60446e-09 -0.000285387)
(0.326115 5.39887e-09 -4.76199e-05)
(0.326089 5.19708e-09 0.000172834)
(0.325792 5.01433e-09 0.000376248)
(0.325245 4.82397e-09 0.000563278)
(0.324469 4.63932e-09 0.000734836)
(0.323482 4.46609e-09 0.000891711)
(0.322302 4.30618e-09 0.00103464)
(0.320946 4.15389e-09 0.00116434)
(0.319432 4.01873e-09 0.00128153)
(0.317773 3.90071e-09 0.00138694)
(0.315986 3.79792e-09 0.00148125)
(0.314083 3.71035e-09 0.00156517)
(0.312078 3.63801e-09 0.00163939)
(0.309982 3.58662e-09 0.00170455)
(0.307807 3.54283e-09 0.00176131)
(0.305563 3.5238e-09 0.00181028)
(0.303259 3.51238e-09 0.00185206)
(0.300904 3.51999e-09 0.00188721)
(0.298507 3.54665e-09 0.00191629)
(0.296075 3.57711e-09 0.00193981)
(0.293615 3.62851e-09 0.00195826)
(0.291133 3.68942e-09 0.00197211)
(0.288634 3.75986e-09 0.00198179)
(0.286124 3.84171e-09 0.00198772)
(0.283608 3.93119e-09 0.00199028)
(0.281089 4.03018e-09 0.00198982)
(0.278571 4.13297e-09 0.00198669)
(0.276058 4.23577e-09 0.0019812)
(0.273552 4.34999e-09 0.00197362)
(0.271055 4.47182e-09 0.00196424)
(0.268571 4.58984e-09 0.00195329)
(0.266101 4.70977e-09 0.00194099)
(0.263646 4.8316e-09 0.00192757)
(0.261208 4.96295e-09 0.00191319)
(0.258789 5.0924e-09 0.00189804)
(0.256388 5.21613e-09 0.00188228)
(0.254007 5.33987e-09 0.00186604)
(0.251647 5.4655e-09 0.00184946)
(0.249307 5.58543e-09 0.00183265)
(0.246988 5.69774e-09 0.00181572)
(0.24469 5.81577e-09 0.00179876)
(0.242413 5.93188e-09 0.00178187)
(0.240157 6.03658e-09 0.00176512)
(0.237922 6.13937e-09 0.00174858)
(0.235708 6.23836e-09 0.00173231)
(0.233513 6.33925e-09 0.00171638)
(0.231339 6.42681e-09 0.00170083)
(0.229183 6.52199e-09 0.00168572)
(0.227047 6.60765e-09 0.00167107)
(0.224928 6.69141e-09 0.00165695)
(0.222827 6.77136e-09 0.00164337)
(0.220743 6.8456e-09 0.00163037)
(0.218674 6.91222e-09 0.00161798)
(0.216621 6.97694e-09 0.00160622)
(0.214582 7.04927e-09 0.00159514)
(0.212557 7.10828e-09 0.00158473)
(0.210544 7.15397e-09 0.00157504)
(0.208544 7.19775e-09 0.00156607)
(0.206554 7.25866e-09 0.00155786)
(0.204574 7.30624e-09 0.00155041)
(0.202603 7.35574e-09 0.00154375)
(0.20064 7.38429e-09 0.00153789)
(0.198684 7.42807e-09 0.00153285)
(0.196734 7.46233e-09 0.00152864)
(0.194789 7.49849e-09 0.00152528)
(0.192848 7.53466e-09 0.0015228)
(0.190909 7.56892e-09 0.00152119)
(0.188972 7.59747e-09 0.00152047)
(0.187036 7.62412e-09 0.00152067)
(0.185099 7.65457e-09 0.00152179)
(0.183161 7.68122e-09 0.00152385)
(0.181219 7.70787e-09 0.00152685)
(0.179274 7.7288e-09 0.00153082)
(0.177323 7.76306e-09 0.00153576)
(0.175366 7.78971e-09 0.00154169)
(0.173401 7.82017e-09 0.00154861)
(0.171427 7.85633e-09 0.00155655)
(0.169443 7.89059e-09 0.0015655)
(0.167448 7.92676e-09 0.00157548)
(0.16544 7.97244e-09 0.00158649)
(0.163418 8.01432e-09 0.00159855)
(0.161381 8.05429e-09 0.00161166)
(0.159328 8.1114e-09 0.00162582)
(0.157257 8.1685e-09 0.00164105)
(0.155167 8.2199e-09 0.00165734)
(0.153057 8.28652e-09 0.0016747)
(0.150926 8.36457e-09 0.00169313)
(0.148771 8.44071e-09 0.00171263)
(0.146593 8.52066e-09 0.00173319)
(0.14439 8.61203e-09 0.00175482)
(0.14216 8.71482e-09 0.0017775)
(0.139902 8.82142e-09 0.00180123)
(0.137616 8.95087e-09 0.001826)
(0.135299 9.08031e-09 0.0018518)
(0.132951 9.22498e-09 0.00187861)
(0.130571 9.36965e-09 0.00190642)
(0.128157 9.53336e-09 0.0019352)
(0.125709 9.69707e-09 0.00196494)
(0.123225 9.89885e-09 0.0019956)
(0.120705 1.00854e-08 0.00202717)
(0.118147 1.02948e-08 0.0020596)
(0.115551 1.05194e-08 0.00209286)
(0.112915 1.07631e-08 0.00212691)
(0.110239 1.1022e-08 0.00216171)
(0.107523 1.13037e-08 0.0021972)
(0.104765 1.16007e-08 0.00223333)
(0.101965 1.19014e-08 0.00227004)
(0.0991234 1.22403e-08 0.00230727)
(0.0962385 1.25905e-08 0.00234494)
(0.0933105 1.29637e-08 0.00238297)
(0.0903393 1.33596e-08 0.00242128)
(0.0873249 1.37708e-08 0.00245978)
(0.0842672 1.41972e-08 0.00249835)
(0.0811667 1.46503e-08 0.00253689)
(0.0780236 1.51185e-08 0.00257526)
(0.0748386 1.55944e-08 0.00261334)
(0.0716123 1.60894e-08 0.00265098)
(0.0683457 1.65881e-08 0.002688)
(0.06504 1.70907e-08 0.00272423)
(0.0616966 1.76008e-08 0.00275946)
(0.0583171 1.8092e-08 0.00279347)
(0.0549035 1.85869e-08 0.00282601)
(0.0514581 1.90628e-08 0.00285681)
(0.0479835 1.95235e-08 0.00288556)
(0.0444827 1.99651e-08 0.00291192)
(0.0409592 2.03687e-08 0.00293549)
(0.0374168 2.07761e-08 0.00295584)
(0.0338602 2.11682e-08 0.00297248)
(0.0302942 2.15756e-08 0.00298485)
(0.0267248 2.20553e-08 0.00299232)
(0.0231584 2.26759e-08 0.00299417)
(0.0196024 2.34906e-08 0.00298956)
(0.0160652 2.4629e-08 0.00297756)
(0.0125563 2.62204e-08 0.00295707)
(0.0090867 2.83677e-08 0.00292679)
(0.00566788 3.11812e-08 0.00288513)
(0.00231874 3.47258e-08 0.00283009)
(-0.000956041 3.85977e-08 0.00275421)
(-0.00412061 4.27171e-08 0.00265413)
(-0.00716076 4.70764e-08 0.00253216)
(-0.0100506 5.09027e-08 0.00238799)
(-0.0127607 5.31375e-08 0.00221786)
(-0.0152584 5.24103e-08 0.00201581)
(-0.0175042 4.73467e-08 0.0017767)
(-0.0194523 3.70596e-08 0.00149367)
(-0.021049 2.19753e-08 0.00115837)
(-0.0222308 4.88088e-09 0.000760706)
(-0.0229236 -8.56625e-09 0.00028824)
(-0.0230403 -1.11171e-08 -0.000272001)
(-0.0224797 2.77168e-09 -0.000931881)
(-0.0211378 3.09147e-08 -0.00170281)
(-0.0189011 5.82126e-08 -0.00258791)
(-0.0156751 6.25528e-08 -0.00355816)
(-0.0114344 3.86509e-08 -0.0044986)
(-0.006458 2.04372e-08 -0.00504161)
(-0.000845996 5.47029e-08 -0.00346847)
(0.000917377 1.24254e-07 0.00128758)
(-0.0162465 2.97852e-07 0.0178097)
(-0.0365033 3.91617e-08 0.0180363)
(-0.0508873 3.52936e-08 0.00965046)
(-0.0560218 1.47951e-08 0.00125118)
(-0.0529064 1.40856e-09 -0.0049892)
(-0.0443224 -8.5628e-09 -0.00926523)
(-0.0318347 -1.52827e-08 -0.012142)
(-0.0168361 -1.97258e-08 -0.0140449)
(-0.000114152 -2.32895e-08 -0.0151871)
(0.0175665 -2.49761e-08 -0.0156776)
(0.0356081 -2.40357e-08 -0.0157468)
(0.0538099 -2.22044e-08 -0.0155825)
(0.0718695 -1.99009e-08 -0.0152576)
(0.0896204 -1.73805e-08 -0.0148206)
(0.106932 -1.47953e-08 -0.0143055)
(0.123707 -1.22634e-08 -0.013736)
(0.139876 -9.85717e-09 -0.0131296)
(0.155386 -7.62988e-09 -0.0124994)
(0.1702 -5.58915e-09 -0.0118551)
(0.184293 -3.75782e-09 -0.0112042)
(0.197648 -2.12066e-09 -0.0105528)
(0.210257 -6.64358e-10 -0.00990543)
(0.222118 6.24425e-10 -0.00926585)
(0.233233 1.74378e-09 -0.00863708)
(0.243611 2.72988e-09 -0.00802156)
(0.253262 3.56559e-09 -0.00742129)
(0.2622 4.28137e-09 -0.00683789)
(0.270441 4.87912e-09 -0.00627266)
(0.278005 5.36837e-09 -0.00572666)
(0.284912 5.76052e-09 -0.00520071)
(0.291183 6.06321e-09 -0.00469544)
(0.296843 6.28784e-09 -0.00421131)
(0.301914 6.44966e-09 -0.00374862)
(0.306423 6.54294e-09 -0.00330754)
(0.310393 6.5715e-09 -0.00288811)
(0.313851 6.55627e-09 -0.00249025)
(0.316823 6.49916e-09 -0.00211381)
(0.319333 6.40969e-09 -0.00175852)
(0.321408 6.29167e-09 -0.00142405)
(0.323073 6.13176e-09 -0.00110999)
(0.324352 5.96805e-09 -0.00081588)
(0.325269 5.7872e-09 -0.00054122)
(0.325849 5.60446e-09 -0.000285455)
(0.326115 5.39886e-09 -4.76877e-05)
(0.326089 5.19708e-09 0.000172767)
(0.325792 5.01433e-09 0.000376182)
(0.325245 4.82397e-09 0.000563214)
(0.324469 4.63931e-09 0.000734772)
(0.323481 4.46608e-09 0.000891648)
(0.322301 4.30618e-09 0.00103458)
(0.320946 4.15389e-09 0.00116428)
(0.319432 4.01873e-09 0.00128147)
(0.317773 3.90071e-09 0.00138688)
(0.315986 3.79791e-09 0.00148119)
(0.314083 3.71035e-09 0.00156511)
(0.312078 3.63801e-09 0.00163933)
(0.309982 3.58661e-09 0.00170449)
(0.307807 3.54283e-09 0.00176125)
(0.305563 3.5238e-09 0.00181022)
(0.303259 3.51238e-09 0.001852)
(0.300904 3.51999e-09 0.00188716)
(0.298507 3.54664e-09 0.00191624)
(0.296075 3.5771e-09 0.00193975)
(0.293615 3.6285e-09 0.00195821)
(0.291133 3.68942e-09 0.00197206)
(0.288634 3.75986e-09 0.00198174)
(0.286124 3.84171e-09 0.00198766)
(0.283608 3.93118e-09 0.00199022)
(0.281089 4.03017e-09 0.00198977)
(0.278571 4.13297e-09 0.00198664)
(0.276058 4.23577e-09 0.00198114)
(0.273552 4.34998e-09 0.00197357)
(0.271055 4.47182e-09 0.00196419)
(0.268571 4.58984e-09 0.00195323)
(0.266101 4.70977e-09 0.00194094)
(0.263646 4.8316e-09 0.00192751)
(0.261208 4.96295e-09 0.00191314)
(0.258789 5.09239e-09 0.00189799)
(0.256388 5.21613e-09 0.00188223)
(0.254007 5.33986e-09 0.00186599)
(0.251646 5.4655e-09 0.0018494)
(0.249307 5.58543e-09 0.00183259)
(0.246988 5.69774e-09 0.00181566)
(0.24469 5.81576e-09 0.00179871)
(0.242413 5.93188e-09 0.00178182)
(0.240157 6.03658e-09 0.00176506)
(0.237922 6.13937e-09 0.00174852)
(0.235708 6.23836e-09 0.00173226)
(0.233513 6.33925e-09 0.00171633)
(0.231339 6.42681e-09 0.00170078)
(0.229183 6.52199e-09 0.00168566)
(0.227047 6.60765e-09 0.00167102)
(0.224928 6.6914e-09 0.00165689)
(0.222827 6.77135e-09 0.00164331)
(0.220743 6.84559e-09 0.00163031)
(0.218674 6.91222e-09 0.00161792)
(0.216621 6.97694e-09 0.00160617)
(0.214582 7.04927e-09 0.00159508)
(0.212557 7.10828e-09 0.00158468)
(0.210544 7.15396e-09 0.00157498)
(0.208544 7.19774e-09 0.00156602)
(0.206554 7.25865e-09 0.0015578)
(0.204574 7.30624e-09 0.00155035)
(0.202603 7.35573e-09 0.00154369)
(0.20064 7.38428e-09 0.00153783)
(0.198684 7.42806e-09 0.00153279)
(0.196734 7.46232e-09 0.00152858)
(0.194789 7.49849e-09 0.00152523)
(0.192848 7.53465e-09 0.00152274)
(0.190909 7.56891e-09 0.00152113)
(0.188972 7.59747e-09 0.00152041)
(0.187036 7.62411e-09 0.00152061)
(0.185099 7.65457e-09 0.00152173)
(0.183161 7.68121e-09 0.00152379)
(0.181219 7.70786e-09 0.00152679)
(0.179274 7.7288e-09 0.00153076)
(0.177323 7.76306e-09 0.0015357)
(0.175366 7.78971e-09 0.00154163)
(0.173401 7.82016e-09 0.00154855)
(0.171427 7.85633e-09 0.00155648)
(0.169443 7.89059e-09 0.00156544)
(0.167448 7.92675e-09 0.00157541)
(0.16544 7.97244e-09 0.00158643)
(0.163418 8.01431e-09 0.00159849)
(0.161381 8.05429e-09 0.0016116)
(0.159328 8.11139e-09 0.00162576)
(0.157257 8.1685e-09 0.00164099)
(0.155167 8.21989e-09 0.00165728)
(0.153057 8.28652e-09 0.00167464)
(0.150926 8.36456e-09 0.00169307)
(0.148771 8.4407e-09 0.00171256)
(0.146593 8.52065e-09 0.00173313)
(0.14439 8.61202e-09 0.00175475)
(0.14216 8.71482e-09 0.00177743)
(0.139902 8.82142e-09 0.00180116)
(0.137616 8.95086e-09 0.00182593)
(0.135299 9.0803e-09 0.00185173)
(0.132951 9.22498e-09 0.00187854)
(0.130571 9.36965e-09 0.00190635)
(0.128157 9.53336e-09 0.00193513)
(0.125709 9.69707e-09 0.00196487)
(0.123225 9.89885e-09 0.00199553)
(0.120705 1.00854e-08 0.0020271)
(0.118147 1.02948e-08 0.00205953)
(0.115551 1.05194e-08 0.00209279)
(0.112915 1.07631e-08 0.00212684)
(0.110239 1.1022e-08 0.00216163)
(0.107523 1.13037e-08 0.00219712)
(0.104765 1.16007e-08 0.00223325)
(0.101966 1.19014e-08 0.00226996)
(0.0991234 1.22403e-08 0.00230719)
(0.0962385 1.25905e-08 0.00234486)
(0.0933105 1.29636e-08 0.00238289)
(0.0903393 1.33596e-08 0.0024212)
(0.0873249 1.37708e-08 0.00245969)
(0.0842673 1.41972e-08 0.00249826)
(0.0811667 1.46502e-08 0.0025368)
(0.0780237 1.51185e-08 0.00257517)
(0.0748386 1.55944e-08 0.00261325)
(0.0716123 1.60894e-08 0.00265088)
(0.0683457 1.65881e-08 0.0026879)
(0.06504 1.70907e-08 0.00272413)
(0.0616966 1.76008e-08 0.00275936)
(0.0583171 1.8092e-08 0.00279337)
(0.0549036 1.85869e-08 0.00282591)
(0.0514581 1.90628e-08 0.00285671)
(0.0479835 1.95235e-08 0.00288545)
(0.0444827 1.99651e-08 0.00291181)
(0.0409592 2.03687e-08 0.00293537)
(0.0374169 2.07761e-08 0.00295572)
(0.0338602 2.11682e-08 0.00297236)
(0.0302943 2.15756e-08 0.00298473)
(0.0267248 2.20553e-08 0.00299219)
(0.0231584 2.26759e-08 0.00299404)
(0.0196024 2.34906e-08 0.00298943)
(0.0160652 2.4629e-08 0.00297743)
(0.0125563 2.62204e-08 0.00295693)
(0.00908673 2.83677e-08 0.00292664)
(0.00566791 3.11812e-08 0.00288498)
(0.00231877 3.47257e-08 0.00282993)
(-0.000956012 3.85977e-08 0.00275405)
(-0.00412058 4.27171e-08 0.00265397)
(-0.00716073 4.70764e-08 0.002532)
(-0.0100506 5.09026e-08 0.00238782)
(-0.0127606 5.31375e-08 0.00221768)
(-0.0152584 5.24103e-08 0.00201562)
(-0.0175042 4.73467e-08 0.0017765)
(-0.0194523 3.70595e-08 0.00149347)
(-0.021049 2.19753e-08 0.00115817)
(-0.0222309 4.88088e-09 0.000760496)
(-0.0229236 -8.56624e-09 0.000288026)
(-0.0230403 -1.11171e-08 -0.000272218)
(-0.0224797 2.77167e-09 -0.0009321)
(-0.0211378 3.09147e-08 -0.00170303)
(-0.0189011 5.82125e-08 -0.00258815)
(-0.0156752 6.25528e-08 -0.00355843)
(-0.0114345 3.8651e-08 -0.00449894)
(-0.00645816 2.04372e-08 -0.00504199)
(-0.000846322 5.47016e-08 -0.00346907)
(0.000917006 1.24252e-07 0.00128655)
(-0.0148318 3.00236e-08 0.0411729)
(-0.0219383 3.097e-09 0.0276847)
(-0.0226283 4.4811e-09 0.0128812)
(-0.0195439 2.65464e-10 -0.000459006)
(-0.0129771 -1.28791e-09 -0.0108855)
(-0.00369142 -2.57478e-09 -0.0184308)
(0.00781616 -3.58466e-09 -0.0236836)
(0.0209333 -4.309e-09 -0.0271975)
(0.035217 -4.81822e-09 -0.0294169)
(0.0502717 -5.03048e-09 -0.0306477)
(0.0657809 -4.97717e-09 -0.0311722)
(0.081496 -4.83343e-09 -0.0312027)
(0.0972087 -4.6107e-09 -0.0308685)
(0.112762 -4.34704e-09 -0.0302655)
(0.128032 -4.06386e-09 -0.0294619)
(0.142923 -3.77307e-09 -0.0285086)
(0.157358 -3.48799e-09 -0.0274439)
(0.17128 -3.2191e-09 -0.0262975)
(0.184645 -2.96353e-09 -0.0250928)
(0.19742 -2.72509e-09 -0.0238485)
(0.209581 -2.50854e-09 -0.0225796)
(0.221112 -2.30865e-09 -0.0212985)
(0.232003 -2.12447e-09 -0.0200154)
(0.242251 -1.9579e-09 -0.018739)
(0.251856 -1.80655e-09 -0.0174763)
(0.260822 -1.67139e-09 -0.0162334)
(0.269156 -1.55003e-09 -0.0150153)
(0.276871 -1.4439e-09 -0.0138264)
(0.283978 -1.35109e-09 -0.0126702)
(0.290493 -1.27209e-09 -0.0115496)
(0.296433 -1.2026e-09 -0.010467)
(0.301815 -1.14454e-09 -0.00942448)
(0.30666 -1.09694e-09 -0.00842344)
(0.310987 -1.05887e-09 -0.00746501)
(0.314817 -1.02983e-09 -0.00654998)
(0.318173 -1.00651e-09 -0.00567878)
(0.321077 -9.90326e-10 -0.00485158)
(0.323549 -9.81281e-10 -0.0040683)
(0.325613 -9.75568e-10 -0.0033286)
(0.32729 -9.75089e-10 -0.00263197)
(0.328603 -9.78894e-10 -0.0019777)
(0.329573 -9.83651e-10 -0.00136492)
(0.330221 -9.92215e-10 -0.000792644)
(0.330568 -9.97923e-10 -0.000259732)
(0.330635 -1.00934e-09 0.000235061)
(0.33044 -1.02362e-09 0.00069314)
(0.330003 -1.03551e-09 0.00111595)
(0.329341 -1.04836e-09 0.00150493)
(0.328474 -1.05788e-09 0.00186156)
(0.327416 -1.0693e-09 0.00218737)
(0.326186 -1.07738e-09 0.00248387)
(0.324797 -1.08547e-09 0.00275261)
(0.323264 -1.09261e-09 0.00299511)
(0.321601 -1.09784e-09 0.0032129)
(0.31982 -1.10165e-09 0.00340749)
(0.317935 -1.10545e-09 0.00358034)
(0.315956 -1.10736e-09 0.0037329)
(0.313895 -1.10593e-09 0.00386657)
(0.31176 -1.1045e-09 0.0039827)
(0.309562 -1.10164e-09 0.0040826)
(0.307308 -1.09878e-09 0.00416753)
(0.305007 -1.09307e-09 0.00423868)
(0.302667 -1.08736e-09 0.0042972)
(0.300293 -1.08022e-09 0.00434418)
(0.297892 -1.0726e-09 0.00438065)
(0.29547 -1.06404e-09 0.00440758)
(0.293032 -1.05499e-09 0.00442589)
(0.290582 -1.045e-09 0.00443644)
(0.288124 -1.03453e-09 0.00444002)
(0.285663 -1.02453e-09 0.0044374)
(0.283202 -1.01549e-09 0.00442927)
(0.280743 -1.00502e-09 0.00441627)
(0.27829 -9.95025e-10 0.00439901)
(0.275844 -9.84554e-10 0.00437803)
(0.273408 -9.75036e-10 0.00435385)
(0.270984 -9.63614e-10 0.00432694)
(0.268572 -9.55048e-10 0.00429773)
(0.266175 -9.46482e-10 0.0042666)
(0.263794 -9.3744e-10 0.00423393)
(0.261429 -9.29349e-10 0.00420003)
(0.25908 -9.22687e-10 0.0041652)
(0.25675 -9.14121e-10 0.00412972)
(0.254437 -9.08887e-10 0.00409383)
(0.252143 -9.03652e-10 0.00405775)
(0.249867 -8.9699e-10 0.00402169)
(0.24761 -8.95087e-10 0.00398582)
(0.245371 -8.89853e-10 0.00395032)
(0.24315 -8.8795e-10 0.00391533)
(0.240947 -8.85095e-10 0.00388099)
(0.238762 -8.83668e-10 0.00384742)
(0.236594 -8.80814e-10 0.00381473)
(0.234443 -8.78435e-10 0.00378302)
(0.232308 -8.79864e-10 0.00375239)
(0.230189 -8.79865e-10 0.00372291)
(0.228086 -8.79866e-10 0.00369466)
(0.225996 -8.80819e-10 0.00366772)
(0.223921 -8.82724e-10 0.00364215)
(0.221858 -8.83677e-10 0.003618)
(0.219808 -8.86534e-10 0.00359533)
(0.217769 -8.90818e-10 0.0035742)
(0.215741 -8.95102e-10 0.00355465)
(0.213723 -8.97007e-10 0.00353672)
(0.211714 -9.01292e-10 0.00352046)
(0.209713 -9.051e-10 0.00350591)
(0.207719 -9.10813e-10 0.0034931)
(0.205731 -9.14145e-10 0.00348208)
(0.203748 -9.19382e-10 0.00347288)
(0.201769 -9.23666e-10 0.00346552)
(0.199794 -9.28426e-10 0.00346005)
(0.19782 -9.32711e-10 0.0034565)
(0.195848 -9.38423e-10 0.00345489)
(0.193875 -9.43659e-10 0.00345525)
(0.191902 -9.47944e-10 0.00345761)
(0.189927 -9.53656e-10 0.003462)
(0.187948 -9.58892e-10 0.00346843)
(0.185964 -9.63653e-10 0.00347695)
(0.183976 -9.68413e-10 0.00348756)
(0.18198 -9.73649e-10 0.00350029)
(0.179977 -9.77458e-10 0.00351515)
(0.177965 -9.81266e-10 0.00353218)
(0.175943 -9.84599e-10 0.00355137)
(0.173909 -9.87456e-10 0.00357276)
(0.171863 -9.9174e-10 0.00359634)
(0.169803 -9.94597e-10 0.00362213)
(0.167728 -9.98881e-10 0.00365013)
(0.165637 -1.00269e-09 0.00368036)
(0.163529 -1.00412e-09 0.00371281)
(0.161402 -1.00935e-09 0.00374749)
(0.159256 -1.01126e-09 0.00378438)
(0.157089 -1.01221e-09 0.00382349)
(0.1549 -1.01364e-09 0.00386479)
(0.152688 -1.0165e-09 0.00390828)
(0.150451 -1.0184e-09 0.00395394)
(0.148189 -1.02126e-09 0.00400174)
(0.1459 -1.02269e-09 0.00405165)
(0.143584 -1.02269e-09 0.00410364)
(0.141239 -1.02459e-09 0.00415767)
(0.138865 -1.02555e-09 0.00421369)
(0.136459 -1.0284e-09 0.00427166)
(0.134022 -1.02983e-09 0.00433152)
(0.131552 -1.03221e-09 0.00439319)
(0.129049 -1.03174e-09 0.00445661)
(0.126511 -1.03602e-09 0.00452171)
(0.123938 -1.0384e-09 0.00458838)
(0.121329 -1.04126e-09 0.00465653)
(0.118683 -1.04268e-09 0.00472607)
(0.116 -1.04649e-09 0.00479686)
(0.11328 -1.04935e-09 0.00486879)
(0.110521 -1.0522e-09 0.00494172)
(0.107723 -1.05649e-09 0.00501549)
(0.104886 -1.06363e-09 0.00508994)
(0.102011 -1.06886e-09 0.0051649)
(0.0990957 -1.0741e-09 0.00524017)
(0.0961416 -1.07981e-09 0.00531555)
(0.0931485 -1.09076e-09 0.00539081)
(0.0901166 -1.10313e-09 0.0054657)
(0.0870464 -1.11408e-09 0.00553996)
(0.0839386 -1.12931e-09 0.0056133)
(0.0807938 -1.14644e-09 0.0056854)
(0.077613 -1.16833e-09 0.00575593)
(0.0743974 -1.1888e-09 0.0058245)
(0.0711482 -1.2183e-09 0.00589073)
(0.0678672 -1.24876e-09 0.00595415)
(0.0645562 -1.28398e-09 0.00601428)
(0.0612172 -1.3211e-09 0.00607058)
(0.0578528 -1.36679e-09 0.00612247)
(0.0544656 -1.41533e-09 0.00616929)
(0.0510589 -1.46577e-09 0.00621032)
(0.0476361 -1.52574e-09 0.00624475)
(0.0442012 -1.5838e-09 0.0062717)
(0.0407586 -1.64186e-09 0.00629016)
(0.0373135 -1.70087e-09 0.006299)
(0.0338713 -1.74941e-09 0.00629698)
(0.0304384 -1.78368e-09 0.00628267)
(0.0270217 -1.7951e-09 0.00625444)
(0.0236293 -1.77607e-09 0.00621047)
(0.0202698 -1.71325e-09 0.00614863)
(0.0169534 -1.60855e-09 0.00606647)
(0.013691 -1.4515e-09 0.00596095)
(0.0104956 -1.25448e-09 0.00582883)
(0.00738055 -1.01367e-09 0.00566422)
(0.00436228 -7.43355e-10 0.00546221)
(0.0014581 -5.26343e-10 0.00521986)
(-0.00131343 -4.92078e-10 0.00493149)
(-0.00392604 -8.01416e-10 0.00459067)
(-0.00635641 -1.65995e-09 0.00418923)
(-0.00857594 -3.28183e-09 0.00371769)
(-0.0105533 -5.7413e-09 0.00316445)
(-0.0122534 -8.81183e-09 0.00251617)
(-0.013638 -1.17129e-08 0.00175772)
(-0.0146656 -1.30512e-08 0.000872168)
(-0.0152938 -1.12123e-08 -0.000156821)
(-0.0154786 -5.52904e-09 -0.00134056)
(-0.0151816 1.76846e-09 -0.00268193)
(-0.0143765 4.45637e-09 -0.00415996)
(-0.0130602 -4.88086e-09 -0.0056922)
(-0.0112697 -2.44881e-08 -0.00705878)
(-0.00905218 -3.04426e-08 -0.00775779)
(-0.00636082 -3.49505e-09 -0.0065268)
(-0.00371169 3.50715e-08 -0.00136775)
(-0.0148321 3.00235e-08 0.0411725)
(-0.0219384 3.09697e-09 0.0276845)
(-0.0226282 4.48106e-09 0.012881)
(-0.0195438 2.65461e-10 -0.000459124)
(-0.012977 -1.2879e-09 -0.0108856)
(-0.00369132 -2.57476e-09 -0.0184309)
(0.00781626 -3.58464e-09 -0.0236837)
(0.0209334 -4.30898e-09 -0.0271976)
(0.0352171 -4.8182e-09 -0.0294169)
(0.0502718 -5.03045e-09 -0.0306478)
(0.065781 -4.97714e-09 -0.0311723)
(0.0814961 -4.83341e-09 -0.0312028)
(0.0972087 -4.61068e-09 -0.0308685)
(0.112762 -4.34702e-09 -0.0302655)
(0.128032 -4.06385e-09 -0.029462)
(0.142923 -3.77306e-09 -0.0285086)
(0.157358 -3.48798e-09 -0.0274439)
(0.17128 -3.21909e-09 -0.0262975)
(0.184645 -2.96352e-09 -0.0250928)
(0.19742 -2.72508e-09 -0.0238485)
(0.209581 -2.50854e-09 -0.0225796)
(0.221112 -2.30865e-09 -0.0212985)
(0.232003 -2.12447e-09 -0.0200155)
(0.242251 -1.95789e-09 -0.018739)
(0.251856 -1.80655e-09 -0.0174763)
(0.260821 -1.67139e-09 -0.0162334)
(0.269156 -1.55003e-09 -0.0150153)
(0.276871 -1.4439e-09 -0.0138264)
(0.283978 -1.35109e-09 -0.0126702)
(0.290493 -1.27208e-09 -0.0115496)
(0.296433 -1.2026e-09 -0.010467)
(0.301815 -1.14453e-09 -0.00942449)
(0.306659 -1.09694e-09 -0.00842345)
(0.310987 -1.05886e-09 -0.00746503)
(0.314817 -1.02983e-09 -0.00654999)
(0.318173 -1.00651e-09 -0.00567879)
(0.321076 -9.90325e-10 -0.00485159)
(0.323549 -9.8128e-10 -0.00406831)
(0.325613 -9.75566e-10 -0.00332861)
(0.32729 -9.75088e-10 -0.00263198)
(0.328603 -9.78893e-10 -0.00197771)
(0.329573 -9.8365e-10 -0.00136494)
(0.330221 -9.92214e-10 -0.000792658)
(0.330568 -9.97922e-10 -0.000259746)
(0.330635 -1.00934e-09 0.000235047)
(0.33044 -1.02362e-09 0.000693126)
(0.330002 -1.03551e-09 0.00111593)
(0.329341 -1.04836e-09 0.00150491)
(0.328474 -1.05788e-09 0.00186155)
(0.327416 -1.0693e-09 0.00218735)
(0.326186 -1.07738e-09 0.00248385)
(0.324796 -1.08547e-09 0.00275259)
(0.323264 -1.09261e-09 0.00299509)
(0.3216 -1.09784e-09 0.00321289)
(0.31982 -1.10165e-09 0.00340747)
(0.317935 -1.10545e-09 0.00358033)
(0.315956 -1.10735e-09 0.00373289)
(0.313895 -1.10593e-09 0.00386655)
(0.31176 -1.1045e-09 0.00398268)
(0.309561 -1.10164e-09 0.00408258)
(0.307308 -1.09878e-09 0.00416751)
(0.305007 -1.09307e-09 0.00423866)
(0.302667 -1.08736e-09 0.00429718)
(0.300293 -1.08022e-09 0.00434416)
(0.297892 -1.0726e-09 0.00438063)
(0.29547 -1.06403e-09 0.00440756)
(0.293032 -1.05499e-09 0.00442587)
(0.290582 -1.045e-09 0.00443642)
(0.288124 -1.03453e-09 0.00444001)
(0.285663 -1.02453e-09 0.00443739)
(0.283202 -1.01549e-09 0.00442925)
(0.280743 -1.00502e-09 0.00441625)
(0.27829 -9.95024e-10 0.00439899)
(0.275844 -9.84553e-10 0.00437801)
(0.273408 -9.75035e-10 0.00435384)
(0.270984 -9.63613e-10 0.00432693)
(0.268572 -9.55047e-10 0.00429771)
(0.266175 -9.46481e-10 0.00426659)
(0.263794 -9.37439e-10 0.00423391)
(0.261429 -9.29348e-10 0.00420001)
(0.25908 -9.22686e-10 0.00416519)
(0.25675 -9.1412e-10 0.0041297)
(0.254437 -9.08886e-10 0.00409381)
(0.252143 -9.03651e-10 0.00405774)
(0.249867 -8.96989e-10 0.00402167)
(0.24761 -8.95086e-10 0.00398581)
(0.245371 -8.89852e-10 0.00395031)
(0.24315 -8.87949e-10 0.00391532)
(0.240947 -8.85094e-10 0.00388098)
(0.238762 -8.83668e-10 0.00384741)
(0.236594 -8.80813e-10 0.00381472)
(0.234443 -8.78435e-10 0.00378301)
(0.232308 -8.79863e-10 0.00375237)
(0.230189 -8.79864e-10 0.00372289)
(0.228086 -8.79865e-10 0.00369465)
(0.225996 -8.80818e-10 0.00366771)
(0.223921 -8.82723e-10 0.00364213)
(0.221858 -8.83676e-10 0.00361799)
(0.219808 -8.86533e-10 0.00359532)
(0.217769 -8.90817e-10 0.00357419)
(0.215741 -8.95102e-10 0.00355463)
(0.213723 -8.97007e-10 0.0035367)
(0.211714 -9.01291e-10 0.00352045)
(0.209713 -9.051e-10 0.00350589)
(0.207719 -9.10812e-10 0.00349309)
(0.205731 -9.14144e-10 0.00348207)
(0.203748 -9.19381e-10 0.00347286)
(0.201769 -9.23665e-10 0.00346551)
(0.199794 -9.28426e-10 0.00346004)
(0.19782 -9.3271e-10 0.00345648)
(0.195848 -9.38422e-10 0.00345487)
(0.193875 -9.43658e-10 0.00345523)
(0.191902 -9.47943e-10 0.00345759)
(0.189926 -9.53655e-10 0.00346198)
(0.187948 -9.58891e-10 0.00346842)
(0.185964 -9.63652e-10 0.00347693)
(0.183976 -9.68412e-10 0.00348754)
(0.18198 -9.73648e-10 0.00350027)
(0.179977 -9.77457e-10 0.00351514)
(0.177965 -9.81265e-10 0.00353216)
(0.175943 -9.84598e-10 0.00355136)
(0.173909 -9.87455e-10 0.00357274)
(0.171863 -9.91739e-10 0.00359632)
(0.169803 -9.94596e-10 0.00362211)
(0.167728 -9.9888e-10 0.00365012)
(0.165637 -1.00269e-09 0.00368035)
(0.163529 -1.00412e-09 0.0037128)
(0.161402 -1.00935e-09 0.00374747)
(0.159256 -1.01126e-09 0.00378437)
(0.157089 -1.01221e-09 0.00382347)
(0.1549 -1.01364e-09 0.00386478)
(0.152688 -1.0165e-09 0.00390827)
(0.150451 -1.0184e-09 0.00395392)
(0.148189 -1.02126e-09 0.00400172)
(0.1459 -1.02269e-09 0.00405163)
(0.143584 -1.02269e-09 0.00410362)
(0.141239 -1.02459e-09 0.00415765)
(0.138865 -1.02554e-09 0.00421368)
(0.136459 -1.0284e-09 0.00427165)
(0.134022 -1.02983e-09 0.0043315)
(0.131552 -1.03221e-09 0.00439317)
(0.129049 -1.03173e-09 0.0044566)
(0.126511 -1.03602e-09 0.00452169)
(0.123938 -1.0384e-09 0.00458836)
(0.121329 -1.04125e-09 0.00465652)
(0.118683 -1.04268e-09 0.00472605)
(0.116 -1.04649e-09 0.00479684)
(0.11328 -1.04935e-09 0.00486877)
(0.110521 -1.0522e-09 0.0049417)
(0.107723 -1.05649e-09 0.00501547)
(0.104886 -1.06363e-09 0.00508992)
(0.102011 -1.06886e-09 0.00516488)
(0.0990957 -1.0741e-09 0.00524016)
(0.0961416 -1.07981e-09 0.00531553)
(0.0931485 -1.09076e-09 0.00539079)
(0.0901166 -1.10313e-09 0.00546568)
(0.0870465 -1.11408e-09 0.00553994)
(0.0839386 -1.12931e-09 0.00561328)
(0.0807938 -1.14644e-09 0.00568538)
(0.077613 -1.16833e-09 0.00575591)
(0.0743974 -1.18879e-09 0.00582448)
(0.0711482 -1.2183e-09 0.0058907)
(0.0678672 -1.24876e-09 0.00595412)
(0.0645562 -1.28398e-09 0.00601425)
(0.0612172 -1.3211e-09 0.00607056)
(0.0578528 -1.36678e-09 0.00612245)
(0.0544656 -1.41533e-09 0.00616927)
(0.0510589 -1.46577e-09 0.00621029)
(0.0476361 -1.52574e-09 0.00624473)
(0.0442012 -1.5838e-09 0.00627167)
(0.0407586 -1.64186e-09 0.00629013)
(0.0373135 -1.70087e-09 0.00629898)
(0.0338713 -1.74941e-09 0.00629696)
(0.0304384 -1.78368e-09 0.00628264)
(0.0270217 -1.7951e-09 0.00625441)
(0.0236293 -1.77606e-09 0.00621044)
(0.0202699 -1.71324e-09 0.0061486)
(0.0169534 -1.60855e-09 0.00606644)
(0.013691 -1.4515e-09 0.00596092)
(0.0104956 -1.25447e-09 0.0058288)
(0.00738057 -1.01367e-09 0.00566419)
(0.00436229 -7.43354e-10 0.00546218)
(0.00145811 -5.26343e-10 0.00521982)
(-0.00131342 -4.92078e-10 0.00493146)
(-0.00392603 -8.01415e-10 0.00459063)
(-0.0063564 -1.65994e-09 0.0041892)
(-0.00857594 -3.28182e-09 0.00371765)
(-0.0105533 -5.74129e-09 0.00316442)
(-0.0122534 -8.81182e-09 0.00251614)
(-0.013638 -1.17129e-08 0.00175768)
(-0.0146656 -1.30512e-08 0.000872127)
(-0.0152938 -1.12123e-08 -0.000156863)
(-0.0154786 -5.52904e-09 -0.0013406)
(-0.0151816 1.76846e-09 -0.00268198)
(-0.0143766 4.45636e-09 -0.00416001)
(-0.0130602 -4.88086e-09 -0.00569227)
(-0.0112698 -2.44881e-08 -0.00705886)
(-0.00905227 -3.04426e-08 -0.0077579)
(-0.00636102 -3.49505e-09 -0.00652704)
(-0.00371215 3.50721e-08 -0.0013682)
(-0.00655678 4.72708e-08 0.0553143)
(-0.00721964 3.33117e-09 0.0279517)
(-0.00240941 5.42155e-09 0.0076058)
(0.00439095 3.64166e-09 -0.00851487)
(0.0127958 3.55173e-09 -0.0209732)
(0.0225275 3.4042e-09 -0.0302729)
(0.0334567 3.20766e-09 -0.0369875)
(0.0453882 2.99493e-09 -0.0416533)
(0.0581106 2.73365e-09 -0.0447263)
(0.0714155 2.46048e-09 -0.0465626)
(0.0851124 2.21681e-09 -0.0474566)
(0.0990201 1.99313e-09 -0.0476377)
(0.112979 1.8061e-09 -0.0472744)
(0.126856 1.64762e-09 -0.0464943)
(0.140541 1.51936e-09 -0.045394)
(0.153944 1.41205e-09 -0.0440477)
(0.166991 1.32376e-09 -0.0425137)
(0.179625 1.2481e-09 -0.0408376)
(0.191799 1.18575e-09 -0.0390564)
(0.203475 1.13055e-09 -0.0371998)
(0.214628 1.08272e-09 -0.0352925)
(0.225236 1.04179e-09 -0.0333547)
(0.235286 1.00467e-09 -0.0314036)
(0.244769 9.7017e-10 -0.0294534)
(0.253681 9.39951e-10 -0.0275162)
(0.262023 9.12349e-10 -0.0256024)
(0.269798 8.86651e-10 -0.0237207)
(0.277013 8.62619e-10 -0.0218785)
(0.283678 8.39062e-10 -0.0200819)
(0.289802 8.18123e-10 -0.0183364)
(0.295401 7.96946e-10 -0.0166462)
(0.300488 7.76721e-10 -0.0150147)
(0.305079 7.56258e-10 -0.013445)
(0.309193 7.36509e-10 -0.0119391)
(0.312846 7.16522e-10 -0.0104986)
(0.316057 6.97486e-10 -0.00912459)
(0.318846 6.79403e-10 -0.00781763)
(0.321233 6.61319e-10 -0.00657789)
(0.323236 6.43711e-10 -0.0054051)
(0.324876 6.24438e-10 -0.0042987)
(0.326172 6.0683e-10 -0.00325778)