/*--------------------------------*- C++ -*----------------------------------*\
  =========                 |
  \\      /  F ield         | OpenFOAM: The Open Source CFD Toolbox
   \\    /   O peration     | Website:  https://openfoam.org
    \\  /    A nd           | Version:  8
     \\/     M anipulation  |
\*---------------------------------------------------------------------------*/
FoamFile
{
    version     2.0;
    format      ascii;
    class       volScalarField;
    location    "300";
    object      alphat;
}
// * * * * * * * * * * * * * * * * * * * * * * * * * * * * * * * * * * * * * //

dimensions      [1 -1 -1 0 0 0 0];

internalField   nonuniform List<scalar> 
46000
(
1.31602e-06
4.55922e-06
9.00519e-06
1.35688e-05
1.74955e-05
2.10058e-05
2.41827e-05
2.70585e-05
2.96547e-05
3.19882e-05
3.40729e-05
3.59204e-05
3.75408e-05
3.89428e-05
4.01344e-05
4.11235e-05
4.19179e-05
4.25263e-05
4.29616e-05
4.32722e-05
4.34659e-05
4.35337e-05
4.34799e-05
4.33172e-05
4.30628e-05
4.2736e-05
4.23569e-05
4.19447e-05
4.1517e-05
4.10891e-05
4.06733e-05
4.02794e-05
3.99145e-05
3.95831e-05
3.92877e-05
3.90291e-05
3.88066e-05
3.86186e-05
3.84629e-05
3.83366e-05
3.8237e-05
3.81612e-05
3.81065e-05
3.80703e-05
3.80503e-05
3.80447e-05
3.80518e-05
3.80709e-05
3.81021e-05
3.81433e-05
3.8193e-05
3.82506e-05
3.83156e-05
3.83876e-05
3.84665e-05
3.85519e-05
3.86435e-05
3.87408e-05
3.88432e-05
3.89503e-05
3.90612e-05
3.91753e-05
3.92918e-05
3.94099e-05
3.95288e-05
3.96477e-05
3.97658e-05
3.98825e-05
3.9997e-05
4.01087e-05
4.02168e-05
4.03208e-05
4.042e-05
4.05142e-05
4.06027e-05
4.06854e-05
4.07622e-05
4.0833e-05
4.08982e-05
4.09582e-05
4.10146e-05
4.10674e-05
4.11172e-05
4.11649e-05
4.12119e-05
4.12596e-05
4.13097e-05
4.13647e-05
4.14267e-05
4.14966e-05
4.15754e-05
4.16638e-05
4.17622e-05
4.1871e-05
4.19901e-05
4.2119e-05
4.22572e-05
4.24037e-05
4.25574e-05
4.27169e-05
4.28809e-05
4.30478e-05
4.32162e-05
4.33844e-05
4.35512e-05
4.37151e-05
4.38751e-05
4.40302e-05
4.41796e-05
4.43227e-05
4.44593e-05
4.45892e-05
4.47125e-05
4.48295e-05
4.49406e-05
4.50463e-05
4.51473e-05
4.52444e-05
4.53383e-05
4.54297e-05
4.55196e-05
4.56086e-05
4.56973e-05
4.57862e-05
4.58755e-05
4.59655e-05
4.60562e-05
4.61472e-05
4.62383e-05
4.63288e-05
4.64181e-05
4.65056e-05
4.65906e-05
4.66725e-05
4.67507e-05
4.68244e-05
4.68935e-05
4.69575e-05
4.70164e-05
4.70703e-05
4.71193e-05
4.71639e-05
4.72044e-05
4.72416e-05
4.72759e-05
4.7308e-05
4.73385e-05
4.7368e-05
4.73972e-05
4.74264e-05
4.74559e-05
4.74859e-05
4.75167e-05
4.75479e-05
4.75794e-05
4.76107e-05
4.76414e-05
4.76711e-05
4.76989e-05
4.7724e-05
4.77453e-05
4.7762e-05
4.77732e-05
4.7778e-05
4.77758e-05
4.77666e-05
4.77484e-05
4.772e-05
4.76802e-05
4.76278e-05
4.75615e-05
4.748e-05
4.73818e-05
4.72651e-05
4.71277e-05
4.69664e-05
4.67772e-05
4.65546e-05
4.62916e-05
4.59791e-05
4.56051e-05
4.5155e-05
4.46105e-05
4.39501e-05
4.31485e-05
4.21775e-05
4.10065e-05
3.96038e-05
3.7938e-05
3.59802e-05
3.37055e-05
3.10946e-05
2.81365e-05
2.48317e-05
2.11976e-05
1.72783e-05
1.31424e-05
8.71492e-06
4.82646e-06
1.8187e-06
1.31607e-06
4.55911e-06
9.00591e-06
1.35692e-05
1.74956e-05
2.10059e-05
2.41828e-05
2.70586e-05
2.96547e-05
3.19882e-05
3.4073e-05
3.59208e-05
3.75413e-05
3.89433e-05
4.01348e-05
4.11236e-05
4.19178e-05
4.25261e-05
4.29616e-05
4.32724e-05
4.34661e-05
4.35339e-05
4.348e-05
4.33171e-05
4.30625e-05
4.27357e-05
4.23567e-05
4.19446e-05
4.1517e-05
4.1089e-05
4.06732e-05
4.02794e-05
3.99145e-05
3.95832e-05
3.92879e-05
3.90293e-05
3.88069e-05
3.86189e-05
3.84631e-05
3.83368e-05
3.82372e-05
3.81614e-05
3.81066e-05
3.80704e-05
3.80504e-05
3.80448e-05
3.80519e-05
3.8071e-05
3.81022e-05
3.81434e-05
3.81931e-05
3.82507e-05
3.83157e-05
3.83878e-05
3.84667e-05
3.85521e-05
3.86437e-05
3.8741e-05
3.88435e-05
3.89505e-05
3.90614e-05
3.91755e-05
3.9292e-05
3.94101e-05
3.9529e-05
3.96479e-05
3.97661e-05
3.98828e-05
3.99973e-05
4.0109e-05
4.02171e-05
4.0321e-05
4.04203e-05
4.05144e-05
4.06029e-05
4.06857e-05
4.07624e-05
4.08332e-05
4.08984e-05
4.09584e-05
4.10148e-05
4.10676e-05
4.11174e-05
4.11651e-05
4.12121e-05
4.12598e-05
4.13099e-05
4.13648e-05
4.14268e-05
4.14968e-05
4.15756e-05
4.1664e-05
4.17625e-05
4.18713e-05
4.19903e-05
4.21192e-05
4.22574e-05
4.24039e-05
4.25576e-05
4.27171e-05
4.28811e-05
4.3048e-05
4.32164e-05
4.33847e-05
4.35514e-05
4.37153e-05
4.38753e-05
4.40304e-05
4.41797e-05
4.43228e-05
4.44594e-05
4.45893e-05
4.47127e-05
4.48297e-05
4.49407e-05
4.50465e-05
4.51475e-05
4.52446e-05
4.53384e-05
4.54299e-05
4.55197e-05
4.56087e-05
4.56974e-05
4.57863e-05
4.58757e-05
4.59657e-05
4.60564e-05
4.61474e-05
4.62384e-05
4.63289e-05
4.64182e-05
4.65057e-05
4.65908e-05
4.66727e-05
4.67508e-05
4.68246e-05
4.68936e-05
4.69577e-05
4.70166e-05
4.70705e-05
4.71195e-05
4.7164e-05
4.72046e-05
4.72417e-05
4.7276e-05
4.73081e-05
4.73386e-05
4.73681e-05
4.73973e-05
4.74265e-05
4.7456e-05
4.74861e-05
4.75168e-05
4.7548e-05
4.75794e-05
4.76107e-05
4.76415e-05
4.76712e-05
4.7699e-05
4.77241e-05
4.77454e-05
4.77621e-05
4.77734e-05
4.77782e-05
4.7776e-05
4.77667e-05
4.77485e-05
4.77201e-05
4.76803e-05
4.76279e-05
4.75616e-05
4.74801e-05
4.73818e-05
4.72652e-05
4.71277e-05
4.69664e-05
4.67771e-05
4.65545e-05
4.62916e-05
4.59794e-05
4.56058e-05
4.5156e-05
4.46115e-05
4.39508e-05
4.31488e-05
4.21775e-05
4.10062e-05
3.96034e-05
3.79379e-05
3.59805e-05
3.37059e-05
3.1095e-05
2.81369e-05
2.4832e-05
2.11981e-05
1.72791e-05
1.31434e-05
8.71597e-06
4.82705e-06
1.81912e-06
3.30729e-06
3.99957e-05
6.82478e-05
8.94592e-05
0.000106684
0.000120875
0.000132581
0.000142202
0.000150052
0.00015639
0.000161433
0.00016537
0.000168362
0.000170551
0.00017206
0.000172993
0.000173442
0.000173477
0.000173143
0.000172406
0.000171464
0.000170381
0.000169217
0.000168021
0.000166834
0.000165692
0.000164619
0.000163636
0.000162756
0.000161987
0.000161329
0.000160782
0.000160339
0.000159991
0.00015973
0.000159544
0.000159423
0.000159357
0.000159335
0.000159349
0.000159391
0.000159457
0.00015954
0.000159638
0.000159746
0.000159864
0.000159989
0.000160118
0.000160253
0.000160395
0.000160544
0.000160701
0.000160868
0.000161044
0.00016123
0.000161425
0.000161629
0.000161842
0.000162061
0.000162286
0.000162515
0.000162747
0.000162981
0.000163215
0.000163447
0.000163677
0.000163902
0.000164122
0.000164336
0.000164542
0.00016474
0.000164928
0.000165106
0.000165273
0.000165429
0.000165574
0.000165708
0.000165831
0.000165944
0.00016605
0.000166147
0.00016624
0.000166331
0.000166425
0.000166525
0.000166634
0.000166756
0.000166892
0.000167043
0.000167211
0.000167397
0.000167602
0.000167826
0.000168068
0.000168326
0.0001686
0.000168887
0.000169184
0.000169488
0.000169796
0.000170106
0.000170414
0.000170717
0.000171014
0.000171302
0.00017158
0.000171846
0.000172099
0.000172339
0.000172566
0.00017278
0.000172982
0.000173174
0.000173356
0.000173529
0.000173696
0.000173858
0.000174017
0.000174173
0.00017433
0.000174487
0.000174646
0.000174807
0.00017497
0.000175136
0.000175304
0.000175474
0.000175643
0.000175811
0.000175976
0.000176138
0.000176293
0.000176442
0.000176583
0.000176714
0.000176836
0.000176948
0.00017705
0.000177143
0.000177226
0.000177302
0.000177371
0.000177435
0.000177495
0.000177551
0.000177606
0.000177661
0.000177716
0.000177772
0.000177829
0.000177889
0.00017795
0.000178012
0.000178075
0.000178138
0.000178199
0.000178257
0.000178312
0.000178361
0.000178402
0.000178434
0.000178455
0.000178463
0.000178457
0.000178435
0.000178391
0.000178323
0.000178233
0.000178117
0.000177974
0.000177804
0.000177602
0.000177367
0.000177094
0.000176776
0.000176406
0.000175972
0.000175458
0.000174844
0.000174102
0.000173196
0.000172084
0.000170711
0.000169013
0.000166917
0.000164338
0.000161189
0.000157374
0.000152803
0.000147386
0.000141049
0.00013373
0.000125395
0.000116038
0.000105694
9.44166e-05
8.21438e-05
6.79183e-05
4.53495e-05
5.6497e-06
3.30744e-06
3.99956e-05
6.82473e-05
8.94585e-05
0.000106683
0.000120874
0.00013258
0.000142201
0.000150051
0.000156388
0.000161432
0.000165369
0.000168362
0.000170551
0.00017206
0.000172994
0.000173442
0.000173478
0.000173143
0.000172407
0.000171465
0.000170383
0.000169218
0.000168022
0.000166836
0.000165693
0.00016462
0.000163637
0.000162758
0.000161988
0.000161331
0.000160783
0.00016034
0.000159993
0.000159732
0.000159546
0.000159425
0.000159358
0.000159336
0.00015935
0.000159393
0.000159458
0.000159542
0.000159639
0.000159748
0.000159865
0.00015999
0.00016012
0.000160255
0.000160396
0.000160545
0.000160703
0.000160869
0.000161046
0.000161231
0.000161427
0.000161631
0.000161843
0.000162062
0.000162287
0.000162517
0.000162749
0.000162983
0.000163216
0.000163449
0.000163678
0.000163904
0.000164124
0.000164338
0.000164544
0.000164742
0.00016493
0.000165108
0.000165275
0.000165431
0.000165576
0.000165709
0.000165832
0.000165946
0.000166051
0.000166149
0.000166241
0.000166333
0.000166426
0.000166526
0.000166635
0.000166757
0.000166894
0.000167045
0.000167213
0.000167399
0.000167604
0.000167827
0.000168069
0.000168328
0.000168602
0.000168888
0.000169185
0.000169489
0.000169797
0.000170107
0.000170415
0.000170719
0.000171016
0.000171304
0.000171581
0.000171847
0.0001721
0.00017234
0.000172567
0.000172782
0.000172984
0.000173175
0.000173357
0.000173531
0.000173698
0.00017386
0.000174018
0.000174175
0.000174331
0.000174488
0.000174647
0.000174808
0.000174972
0.000175138
0.000175306
0.000175475
0.000175644
0.000175812
0.000175978
0.000176139
0.000176295
0.000176443
0.000176584
0.000176716
0.000176838
0.00017695
0.000177052
0.000177144
0.000177228
0.000177304
0.000177373
0.000177437
0.000177496
0.000177553
0.000177608
0.000177662
0.000177717
0.000177773
0.000177831
0.00017789
0.000177951
0.000178014
0.000178076
0.000178139
0.0001782
0.000178259
0.000178313
0.000178362
0.000178404
0.000178436
0.000178457
0.000178465
0.000178459
0.000178436
0.000178392
0.000178325
0.000178234
0.000178118
0.000177976
0.000177805
0.000177604
0.000177368
0.000177095
0.000176777
0.000176407
0.000175973
0.000175459
0.000174845
0.000174104
0.000173199
0.000172087
0.000170714
0.000169015
0.000166918
0.00016434
0.00016119
0.000157375
0.000152804
0.000147388
0.00014105
0.000133732
0.000125397
0.00011604
0.000105696
9.44191e-05
8.21469e-05
6.79215e-05
4.53513e-05
5.64947e-06
6.05047e-06
5.96609e-05
0.000108275
0.000145728
0.000175624
0.000199843
0.000219468
0.000235242
0.000247743
0.000257454
0.000264798
0.000270153
0.000273857
0.000276207
0.000277464
0.00027785
0.000277549
0.000276709
0.000275431
0.000273755
0.000271847
0.000269832
0.000267795
0.000265807
0.00026392
0.000262174
0.000260598
0.000259207
0.000258011
0.00025701
0.000256197
0.000255561
0.000255086
0.000254755
0.000254548
0.000254448
0.000254434
0.000254491
0.000254603
0.000254756
0.000254939
0.000255144
0.000255363
0.000255591
0.000255825
0.000256061
0.000256298
0.000256534
0.000256769
0.000257006
0.000257247
0.000257492
0.000257745
0.000258006
0.000258275
0.000258552
0.000258838
0.000259132
0.000259431
0.000259736
0.000260045
0.000260355
0.000260665
0.000260974
0.00026128
0.000261582
0.000261877
0.000262165
0.000262444
0.000262713
0.000262972
0.000263218
0.000263452
0.000263672
0.000263879
0.000264073
0.000264253
0.000264421
0.000264578
0.000264726
0.000264867
0.000265004
0.000265142
0.000265286
0.000265439
0.000265606
0.000265791
0.000265995
0.000266219
0.000266463
0.00026673
0.000267018
0.000267328
0.000267658
0.000268005
0.000268367
0.000268741
0.000269122
0.000269508
0.000269893
0.000270276
0.000270652
0.000271018
0.000271371
0.000271711
0.000272035
0.000272343
0.000272634
0.000272909
0.000273168
0.000273412
0.000273644
0.000273864
0.000274075
0.000274279
0.000274477
0.000274673
0.000274868
0.000275064
0.000275263
0.000275465
0.000275671
0.000275882
0.000276098
0.000276317
0.000276539
0.000276762
0.000276985
0.000277206
0.000277422
0.000277631
0.000277832
0.000278023
0.000278203
0.00027837
0.000278524
0.000278665
0.000278794
0.000278911
0.000279017
0.000279114
0.000279204
0.000279288
0.000279368
0.000279445
0.000279521
0.000279598
0.000279676
0.000279756
0.000279839
0.000279924
0.000280011
0.000280099
0.000280187
0.000280274
0.000280359
0.000280439
0.000280513
0.000280578
0.000280633
0.000280675
0.000280702
0.000280712
0.000280703
0.000280672
0.000280615
0.00028053
0.000280417
0.000280276
0.000280103
0.0002799
0.000279662
0.000279388
0.000279073
0.000278709
0.000278287
0.000277793
0.000277207
0.000276501
0.00027564
0.000274577
0.000273254
0.000271599
0.000269525
0.000266935
0.000263714
0.000259739
0.000254879
0.000248995
0.000241946
0.000233595
0.000223803
0.00021244
0.000199371
0.000184421
0.000167234
0.000146746
0.000119464
7.51478e-05
1.09654e-05
6.0509e-06
5.96608e-05
0.000108272
0.000145724
0.00017562
0.000199839
0.000219464
0.000235239
0.000247741
0.000257452
0.000264797
0.000270153
0.000273857
0.000276208
0.000277466
0.000277852
0.000277552
0.000276712
0.000275434
0.000273759
0.000271851
0.000269836
0.0002678
0.000265812
0.000263925
0.000262179
0.000260602
0.000259212
0.000258016
0.000257015
0.000256202
0.000255565
0.000255091
0.000254759
0.000254553
0.000254452
0.000254439
0.000254495
0.000254607
0.00025476
0.000254944
0.000255149
0.000255368
0.000255596
0.000255829
0.000256065
0.000256302
0.000256538
0.000256774
0.000257011
0.000257251
0.000257497
0.000257749
0.00025801
0.000258279
0.000258557
0.000258843
0.000259136
0.000259436
0.000259741
0.000260049
0.00026036
0.00026067
0.000260979
0.000261285
0.000261586
0.000261882
0.000262169
0.000262449
0.000262718
0.000262976
0.000263223
0.000263457
0.000263677
0.000263884
0.000264077
0.000264258
0.000264426
0.000264583
0.000264731
0.000264872
0.000265009
0.000265147
0.000265291
0.000265444
0.000265611
0.000265796
0.000266
0.000266223
0.000266468
0.000266734
0.000267023
0.000267333
0.000267662
0.00026801
0.000268372
0.000268745
0.000269127
0.000269512
0.000269898
0.000270281
0.000270656
0.000271022
0.000271376
0.000271716
0.00027204
0.000272348
0.000272639
0.000272914
0.000273173
0.000273417
0.000273649
0.000273869
0.00027408
0.000274283
0.000274482
0.000274678
0.000274873
0.000275069
0.000275268
0.00027547
0.000275676
0.000275887
0.000276102
0.000276322
0.000276544
0.000276767
0.00027699
0.000277211
0.000277426
0.000277636
0.000277837
0.000278028
0.000278207
0.000278375
0.000278529
0.00027867
0.000278799
0.000278916
0.000279022
0.000279119
0.000279209
0.000279293
0.000279372
0.00027945
0.000279526
0.000279603
0.000279681
0.000279761
0.000279844
0.000279929
0.000280015
0.000280103
0.000280192
0.000280279
0.000280364
0.000280444
0.000280517
0.000280583
0.000280638
0.00028068
0.000280707
0.000280717
0.000280708
0.000280677
0.00028062
0.000280535
0.000280422
0.00028028
0.000280108
0.000279904
0.000279667
0.000279393
0.000279077
0.000278714
0.000278292
0.000277798
0.000277211
0.000276506
0.000275645
0.000274582
0.000273259
0.000271604
0.00026953
0.000266939
0.000263718
0.000259744
0.000254883
0.000248999
0.000241951
0.0002336
0.000223808
0.000212445
0.000199375
0.000184425
0.000167238
0.00014675
0.000119467
7.51488e-05
1.09648e-05
9.27294e-06
7.17934e-05
0.00013245
0.000180586
0.000219345
0.000250881
0.000276516
0.000297159
0.000313511
0.000326165
0.00033565
0.000342453
0.000347023
0.000349769
0.000351059
0.000351212
0.000350494
0.000349122
0.000347262
0.000345029
0.000342511
0.000339912
0.000337329
0.000334839
0.000332502
0.00033036
0.000328442
0.000326763
0.000325328
0.000324135
0.000323173
0.000322427
0.000321877
0.0003215
0.000321275
0.000321177
0.000321185
0.000321278
0.000321438
0.000321647
0.000321893
0.000322165
0.000322453
0.000322751
0.000323054
0.000323359
0.000323663
0.000323965
0.000324265
0.000324563
0.000324864
0.000325169
0.000325479
0.000325796
0.00032612
0.000326453
0.000326793
0.000327141
0.000327495
0.000327854
0.000328216
0.000328579
0.000328943
0.000329305
0.000329664
0.000330018
0.000330366
0.000330705
0.000331036
0.000331356
0.000331665
0.00033196
0.000332242
0.00033251
0.000332764
0.000333003
0.000333229
0.000333441
0.000333642
0.000333833
0.000334018
0.000334199
0.000334382
0.000334572
0.000334772
0.000334987
0.00033522
0.000335472
0.000335745
0.000336039
0.000336356
0.000336695
0.000337055
0.000337434
0.00033783
0.000338238
0.000338657
0.000339081
0.000339508
0.000339932
0.00034035
0.000340759
0.000341157
0.00034154
0.000341907
0.000342257
0.000342589
0.000342904
0.000343202
0.000343484
0.000343752
0.000344007
0.000344252
0.000344489
0.00034472
0.000344947
0.000345173
0.0003454
0.00034563
0.000345863
0.000346101
0.000346345
0.000346595
0.000346849
0.000347108
0.000347369
0.000347632
0.000347893
0.000348151
0.000348403
0.000348648
0.000348882
0.000349105
0.000349315
0.000349511
0.000349693
0.00034986
0.000350014
0.000350154
0.000350284
0.000350403
0.000350515
0.00035062
0.000350721
0.00035082
0.000350917
0.000351015
0.000351115
0.000351216
0.00035132
0.000351425
0.000351533
0.000351642
0.00035175
0.000351857
0.00035196
0.000352058
0.000352149
0.00035223
0.0003523
0.000352355
0.000352395
0.000352416
0.000352416
0.000352393
0.000352343
0.000352267
0.000352164
0.000352033
0.000351874
0.000351687
0.000351471
0.000351225
0.000350943
0.000350621
0.00035025
0.000349815
0.000349297
0.000348666
0.000347886
0.000346906
0.000345664
0.000344079
0.000342059
0.000339493
0.000336253
0.000332198
0.00032717
0.000320996
0.000313487
0.000304436
0.000293612
0.000280747
0.000265507
0.0002474
0.000225512
0.000197759
0.000158964
9.75805e-05
1.61586e-05
9.27361e-06
7.1793e-05
0.000132446
0.000180581
0.000219339
0.000250876
0.000276512
0.000297156
0.000313509
0.000326164
0.000335651
0.000342454
0.000347025
0.000349773
0.000351064
0.000351217
0.000350499
0.000349128
0.000347269
0.000345036
0.000342518
0.00033992
0.000337337
0.000334847
0.00033251
0.000330368
0.00032845
0.00032677
0.000325336
0.000324143
0.000323181
0.000322435
0.000321884
0.000321508
0.000321283
0.000321185
0.000321193
0.000321286
0.000321445
0.000321655
0.000321901
0.000322172
0.000322461
0.000322759
0.000323062
0.000323367
0.000323671
0.000323973
0.000324272
0.000324571
0.000324872
0.000325177
0.000325487
0.000325804
0.000326128
0.000326461
0.000326801
0.000327149
0.000327503
0.000327862
0.000328224
0.000328587
0.000328951
0.000329313
0.000329672
0.000330026
0.000330374
0.000330714
0.000331044
0.000331364
0.000331673
0.000331969
0.000332251
0.000332519
0.000332772
0.000333012
0.000333237
0.000333449
0.00033365
0.000333842
0.000334026
0.000334208
0.000334391
0.00033458
0.00033478
0.000334995
0.000335228
0.00033548
0.000335753
0.000336048
0.000336365
0.000336703
0.000337063
0.000337442
0.000337838
0.000338247
0.000338665
0.00033909
0.000339516
0.00033994
0.000340358
0.000340768
0.000341165
0.000341548
0.000341915
0.000342265
0.000342598
0.000342913
0.000343211
0.000343493
0.000343761
0.000344016
0.000344261
0.000344497
0.000344728
0.000344956
0.000345182
0.000345409
0.000345638
0.000345872
0.00034611
0.000346354
0.000346603
0.000346858
0.000347117
0.000347378
0.00034764
0.000347902
0.000348159
0.000348412
0.000348656
0.000348891
0.000349114
0.000349324
0.00034952
0.000349701
0.000349869
0.000350022
0.000350163
0.000350292
0.000350412
0.000350523
0.000350629
0.00035073
0.000350828
0.000350926
0.000351024
0.000351123
0.000351224
0.000351328
0.000351434
0.000351542
0.00035165
0.000351759
0.000351865
0.000351969
0.000352067
0.000352157
0.000352239
0.000352308
0.000352364
0.000352403
0.000352424
0.000352425
0.000352401
0.000352351
0.000352275
0.000352172
0.000352041
0.000351882
0.000351696
0.00035148
0.000351233
0.000350951
0.000350629
0.000350258
0.000349823
0.000349305
0.000348674
0.000347894
0.000346914
0.000345672
0.000344087
0.000342067
0.000339501
0.000336261
0.000332207
0.000327178
0.000321004
0.000313495
0.000304444
0.00029362
0.000280755
0.000265515
0.000247408
0.000225519
0.000197765
0.000158968
9.75817e-05
1.61581e-05
1.22948e-05
8.23103e-05
0.000150566
0.000205379
0.000249763
0.000286024
0.000315621
0.000339552
0.000358578
0.000373337
0.000384403
0.000392313
0.000397572
0.000400658
0.000402008
0.000402013
0.000401007
0.000399264
0.000397
0.000394371
0.000391482
0.00038852
0.0003856
0.000382806
0.000380199
0.000377819
0.000375694
0.000373837
0.00037225
0.000370928
0.000369857
0.000369021
0.000368398
0.000367964
0.000367694
0.000367566
0.000367553
0.000367636
0.000367794
0.00036801
0.000368268
0.000368558
0.000368868
0.000369191
0.000369522
0.000369856
0.000370191
0.000370524
0.000370855
0.000371185
0.000371518
0.000371854
0.000372195
0.000372543
0.000372898
0.000373262
0.000373633
0.000374012
0.000374397
0.000374788
0.000375182
0.000375579
0.000375977
0.000376374
0.000376768
0.000377159
0.000377544
0.000377922
0.000378291
0.000378651
0.000379
0.000379336
0.00037966
0.00037997
0.000380265
0.000380547
0.000380814
0.000381069
0.000381313
0.000381546
0.000381773
0.000381996
0.000382221
0.000382451
0.000382691
0.000382944
0.000383213
0.0003835
0.000383804
0.000384128
0.000384472
0.000384836
0.000385218
0.000385617
0.000386029
0.000386453
0.000386884
0.000387319
0.000387754
0.000388186
0.000388611
0.000389027
0.000389431
0.000389821
0.000390196
0.000390554
0.000390897
0.000391223
0.000391534
0.000391832
0.000392116
0.000392391
0.000392656
0.000392916
0.000393171
0.000393424
0.000393678
0.000393933
0.000394191
0.000394454
0.000394723
0.000394996
0.000395276
0.00039556
0.000395847
0.000396137
0.000396427
0.000396715
0.000396998
0.000397276
0.000397545
0.000397803
0.000398049
0.000398282
0.000398501
0.000398705
0.000398894
0.00039907
0.000399233
0.000399384
0.000399526
0.000399659
0.000399786
0.000399908
0.000400028
0.000400146
0.000400264
0.000400383
0.000400503
0.000400625
0.000400749
0.000400873
0.000400999
0.000401123
0.000401245
0.000401364
0.000401478
0.000401584
0.000401681
0.000401766
0.000401839
0.000401896
0.000401935
0.000401955
0.000401954
0.000401929
0.000401882
0.000401813
0.000401723
0.000401612
0.000401482
0.000401334
0.000401168
0.000400982
0.000400774
0.000400536
0.000400258
0.000399922
0.000399502
0.000398963
0.000398257
0.000397322
0.000396081
0.000394438
0.00039228
0.000389474
0.000385866
0.000381277
0.000375502
0.0003683
0.000359388
0.000348424
0.000334982
0.000318498
0.000298134
0.00027244
0.000238531
0.000190228
0.000115658
2.05786e-05
1.2295e-05
8.23092e-05
0.000150562
0.000205373
0.000249756
0.000286018
0.000315617
0.000339549
0.000358576
0.000373337
0.000384405
0.000392316
0.000397576
0.000400663
0.000402015
0.00040202
0.000401014
0.000399273
0.000397009
0.00039438
0.000391492
0.00038853
0.000385611
0.000382817
0.000380209
0.00037783
0.000375705
0.000373847
0.00037226
0.000370938
0.000369867
0.000369031
0.000368408
0.000367974
0.000367704
0.000367575
0.000367563
0.000367646
0.000367804
0.00036802
0.000368278
0.000368567
0.000368878
0.000369201
0.000369532
0.000369866
0.000370201
0.000370534
0.000370865
0.000371196
0.000371528
0.000371864
0.000372205
0.000372553
0.000372909
0.000373272
0.000373644
0.000374022
0.000374408
0.000374798
0.000375193
0.00037559
0.000375987
0.000376384
0.000376779
0.000377169
0.000377554
0.000377932
0.000378302
0.000378662
0.000379011
0.000379347
0.000379671
0.000379981
0.000380276
0.000380558
0.000380825
0.00038108
0.000381324
0.000381557
0.000381784
0.000382007
0.000382232
0.000382462
0.000382702
0.000382955
0.000383224
0.000383511
0.000383815
0.000384139
0.000384483
0.000384847
0.000385229
0.000385628
0.00038604
0.000386464
0.000386895
0.00038733
0.000387765
0.000388197
0.000388622
0.000389038
0.000389442
0.000389832
0.000390207
0.000390565
0.000390908
0.000391234
0.000391545
0.000391843
0.000392128
0.000392402
0.000392668
0.000392927
0.000393182
0.000393436
0.000393689
0.000393944
0.000394203
0.000394466
0.000394734
0.000395008
0.000395287
0.000395571
0.000395859
0.000396148
0.000396438
0.000396726
0.00039701
0.000397287
0.000397556
0.000397814
0.000398061
0.000398293
0.000398512
0.000398716
0.000398905
0.000399081
0.000399244
0.000399396
0.000399537
0.00039967
0.000399797
0.00039992
0.000400039
0.000400157
0.000400275
0.000400394
0.000400514
0.000400636
0.00040076
0.000400885
0.00040101
0.000401134
0.000401257
0.000401375
0.000401489
0.000401595
0.000401692
0.000401778
0.00040185
0.000401907
0.000401946
0.000401966
0.000401964
0.00040194
0.000401893
0.000401824
0.000401734
0.000401623
0.000401493
0.000401345
0.000401178
0.000400993
0.000400784
0.000400547
0.000400268
0.000399932
0.000399513
0.000398974
0.000398268
0.000397333
0.000396092
0.000394449
0.000392291
0.000389485
0.000385877
0.000381288
0.000375513
0.000368311
0.000359399
0.000348435
0.000334993
0.000318508
0.000298143
0.000272449
0.000238538
0.000190234
0.00011566
2.05779e-05
1.51612e-05
9.19634e-05
0.000165756
0.000224909
0.000272739
0.000311787
0.000343663
0.000369459
0.000389994
0.00040594
0.000417891
0.000426401
0.000431997
0.000435187
0.000436451
0.000436225
0.000434894
0.000432781
0.000430142
0.000427166
0.000423987
0.000420749
0.00041759
0.000414593
0.000411816
0.000409296
0.000407053
0.000405096
0.000403424
0.000402026
0.000400888
0.000399991
0.000399311
0.000398826
0.00039851
0.000398339
0.00039829
0.00039834
0.000398471
0.000398664
0.000398905
0.000399181
0.000399482
0.0003998
0.000400129
0.000400463
0.000400801
0.000401139
0.000401476
0.000401813
0.000402154
0.000402498
0.000402849
0.000403207
0.000403573
0.000403947
0.00040433
0.00040472
0.000405118
0.000405523
0.000405932
0.000406345
0.000406761
0.000407177
0.000407593
0.000408007
0.000408416
0.000408821
0.000409219
0.000409609
0.00040999
0.00041036
0.000410718
0.000411064
0.000411397
0.000411717
0.000412024
0.000412319
0.000412602
0.000412876
0.000413143
0.000413405
0.000413668
0.000413934
0.000414208
0.000414491
0.000414787
0.000415096
0.000415419
0.000415757
0.000416111
0.00041648
0.000416864
0.000417259
0.000417665
0.000418079
0.000418498
0.000418919
0.000419339
0.000419755
0.000420164
0.000420565
0.000420956
0.000421334
0.0004217
0.000422053
0.000422392
0.000422719
0.000423034
0.000423338
0.000423634
0.000423922
0.000424204
0.000424482
0.000424758
0.000425034
0.000425311
0.000425591
0.000425875
0.000426163
0.000426456
0.000426754
0.000427056
0.000427362
0.00042767
0.00042798
0.000428288
0.000428594
0.000428895
0.000429189
0.000429474
0.000429748
0.000430011
0.00043026
0.000430496
0.000430718
0.000430926
0.000431121
0.000431304
0.000431476
0.000431639
0.000431793
0.000431941
0.000432084
0.000432224
0.000432362
0.000432499
0.000432635
0.000432773
0.000432911
0.00043305
0.000433189
0.000433328
0.000433466
0.000433602
0.000433735
0.000433862
0.000433983
0.000434096
0.0004342
0.000434292
0.000434372
0.000434438
0.000434487
0.00043452
0.000434536
0.000434538
0.000434525
0.000434502
0.00043447
0.000434433
0.000434395
0.000434358
0.000434325
0.000434296
0.00043427
0.000434239
0.000434191
0.000434107
0.000433956
0.000433697
0.000433273
0.000432613
0.000431626
0.0004302
0.000428198
0.000425457
0.000421778
0.000416916
0.000410572
0.000402377
0.000391865
0.000378438
0.000361294
0.000339263
0.000310439
0.000271351
0.000215267
0.0001304
2.45592e-05
1.51612e-05
9.19621e-05
0.000165751
0.000224903
0.000272732
0.000311781
0.000343658
0.000369457
0.000389994
0.000405942
0.000417894
0.000426405
0.000432003
0.000435194
0.000436458
0.000436233
0.000434903
0.000432791
0.000430152
0.000427177
0.000423998
0.000420761
0.000417602
0.000414605
0.000411828
0.000409308
0.000407065
0.000405108
0.000403435
0.000402038
0.0004009
0.000400002
0.000399323
0.000398837
0.000398521
0.00039835
0.000398301
0.000398352
0.000398482
0.000398676
0.000398917
0.000399193
0.000399494
0.000399812
0.00040014
0.000400475
0.000400812
0.00040115
0.000401487
0.000401825
0.000402166
0.00040251
0.000402861
0.000403219
0.000403585
0.000403959
0.000404342
0.000404733
0.000405131
0.000405535
0.000405944
0.000406358
0.000406773
0.00040719
0.000407606
0.000408019
0.000408429
0.000408834
0.000409232
0.000409622
0.000410002
0.000410372
0.00041073
0.000411076
0.000411409
0.000411729
0.000412037
0.000412331
0.000412615
0.000412889
0.000413155
0.000413418
0.000413681
0.000413947
0.00041422
0.000414504
0.0004148
0.000415109
0.000415432
0.00041577
0.000416124
0.000416493
0.000416876
0.000417272
0.000417678
0.000418092
0.000418511
0.000418932
0.000419352
0.000419768
0.000420177
0.000420578
0.000420968
0.000421347
0.000421713
0.000422065
0.000422405
0.000422732
0.000423047
0.000423351
0.000423647
0.000423935
0.000424217
0.000424495
0.000424771
0.000425047
0.000425324
0.000425604
0.000425888
0.000426176
0.000426469
0.000426767
0.000427069
0.000427375
0.000427683
0.000427993
0.000428301
0.000428607
0.000428908
0.000429202
0.000429487
0.000429761
0.000430024
0.000430273
0.000430509
0.000430731
0.000430939
0.000431134
0.000431317
0.000431489
0.000431652
0.000431806
0.000431954
0.000432097
0.000432237
0.000432375
0.000432512
0.000432648
0.000432786
0.000432924
0.000433063
0.000433202
0.000433341
0.000433479
0.000433615
0.000433747
0.000433875
0.000433996
0.000434109
0.000434213
0.000434305
0.000434385
0.00043445
0.0004345
0.000434533
0.000434549
0.00043455
0.000434538
0.000434514
0.000434482
0.000434445
0.000434407
0.00043437
0.000434337
0.000434309
0.000434282
0.000434251
0.000434204
0.000434119
0.000433968
0.000433709
0.000433286
0.000432626
0.000431638
0.000430212
0.000428211
0.00042547
0.00042179
0.000416928
0.000410585
0.00040239
0.000391877
0.00037845
0.000361305
0.000339274
0.000310448
0.000271359
0.000215273
0.000130402
2.45583e-05
1.78212e-05
0.000100797
0.000178936
0.000241034
0.000290909
0.000331405
0.000364315
0.000390856
0.000411923
0.000428236
0.000440413
0.000449013
0.000454565
0.000457582
0.000458555
0.000457949
0.000456182
0.000453613
0.000450535
0.000447169
0.000443673
0.000440156
0.000436768
0.00043359
0.000430674
0.000428047
0.000425724
0.000423704
0.000421979
0.000420536
0.000419356
0.000418416
0.000417694
0.000417165
0.000416805
0.000416589
0.000416496
0.000416503
0.000416592
0.000416746
0.000416951
0.000417194
0.000417465
0.000417756
0.000418061
0.000418375
0.000418695
0.000419017
0.000419341
0.000419666
0.000419996
0.000420331
0.000420674
0.000421024
0.000421383
0.000421752
0.00042213
0.000422517
0.000422913
0.000423316
0.000423727
0.000424143
0.000424563