/*--------------------------------*- C++ -*----------------------------------*\
  =========                 |
  \\      /  F ield         | OpenFOAM: The Open Source CFD Toolbox
   \\    /   O peration     | Website:  https://openfoam.org
    \\  /    A nd           | Version:  8
     \\/     M anipulation  |
\*---------------------------------------------------------------------------*/
FoamFile
{
    version     2.0;
    format      ascii;
    class       volScalarField;
    location    "300";
    object      epsilon;
}
// * * * * * * * * * * * * * * * * * * * * * * * * * * * * * * * * * * * * * //

dimensions      [0 2 -3 0 0 0 0];

internalField   nonuniform List<scalar> 
46000
(
24.0521
75.1954
147.581
221.664
285.046
341.733
393.026
439.452
481.367
519.054
552.741
582.622
608.856
631.586
650.938
667.036
680.006
689.987
697.192
702.427
705.748
707.022
706.327
703.868
699.926
694.817
688.864
682.376
675.638
668.892
662.341
656.14
650.403
645.202
640.578
636.541
633.081
630.171
627.775
625.849
624.348
623.225
622.437
621.943
621.707
621.698
621.89
622.278
622.855
623.588
624.456
625.449
626.56
627.784
629.117
630.554
632.09
633.718
635.429
637.212
639.057
640.953
642.885
644.842
646.81
648.777
650.731
652.659
654.549
656.392
658.177
659.893
661.532
663.086
664.548
665.915
667.183
668.353
669.429
670.423
671.355
672.227
673.049
673.836
674.612
675.399
676.225
677.131
678.152
679.303
680.598
682.049
683.664
685.447
687.398
689.509
691.771
694.168
696.682
699.29
701.97
704.697
707.445
710.19
712.91
715.583
718.191
720.719
723.155
725.489
727.716
729.834
731.844
733.751
735.561
737.284
738.93
740.513
742.044
743.537
745.004
746.457
747.906
749.358
750.818
752.288
753.767
755.253
756.738
758.214
759.671
761.099
762.485
763.818
765.088
766.287
767.407
768.445
769.399
770.27
771.062
771.78
772.433
773.029
773.579
774.093
774.581
775.054
775.519
775.983
776.453
776.931
777.418
777.913
778.413
778.91
779.397
779.864
780.298
780.687
781.015
781.267
781.427
781.48
781.421
781.245
780.922
780.43
779.751
778.864
777.751
776.391
774.76
772.829
770.56
767.905
764.799
761.156
756.865
751.777
745.704
738.406
729.592
718.909
705.95
690.254
671.325
648.643
621.694
589.997
553.133
510.776
462.724
408.955
349.711
285.648
217.802
144.873
80.3072
33.4666
24.0514
75.2011
147.583
221.668
285.055
341.746
393.04
439.465
481.379
519.064
552.75
582.628
608.861
631.589
650.939
667.036
680.005
689.986
697.19
702.425
705.747
707.021
706.326
703.867
699.926
694.817
688.864
682.377
675.639
668.894
662.343
656.142
650.405
645.204
640.58
636.543
633.083
630.174
627.778
625.852
624.35
623.227
622.439
621.945
621.71
621.7
621.893
622.28
622.858
623.59
624.459
625.452
626.563
627.787
629.12
630.557
632.093
633.721
635.431
637.215
639.06
640.955
642.888
644.845
646.813
648.78
650.733
652.661
654.552
656.395
658.179
659.895
661.534
663.088
664.551
665.917
667.185
668.355
669.432
670.425
671.358
672.23
673.051
673.839
674.614
675.401
676.228
677.133
678.154
679.305
680.6
682.051
683.667
685.45
687.4
689.512
691.774
694.171
696.685
699.293
701.973
704.699
707.447
710.192
712.912
715.585
718.194
720.722
723.157
725.491
727.718
729.836
731.846
733.753
735.563
737.286
738.932
740.515
742.046
743.539
745.006
746.459
747.908
749.36
750.82
752.29
753.769
755.255
756.74
758.216
759.673
761.101
762.486
763.82
765.09
766.288
767.409
768.447
769.4
770.272
771.063
771.782
772.434
773.031
773.581
774.095
774.583
775.055
775.52
775.985
776.455
776.933
777.42
777.915
778.414
778.911
779.399
779.865
780.3
780.689
781.017
781.268
781.428
781.481
781.423
781.246
780.923
780.432
779.752
778.865
777.752
776.392
774.761
772.83
770.561
767.906
764.8
761.158
756.866
751.779
745.706
738.408
729.594
718.911
705.952
690.256
671.327
648.645
621.696
589.999
553.135
510.777
462.725
408.955
349.711
285.649
217.804
144.879
80.3134
33.4717
63.5859
69.9442
101.996
137.032
171.594
205.074
237.374
268.51
298.499
327.316
354.88
381.048
405.629
428.4
449.126
467.587
483.599
497.035
507.865
516.289
522.341
526.073
527.635
527.254
525.212
521.817
517.384
512.218
506.597
500.768
494.936
489.269
483.892
478.896
474.34
470.255
466.651
463.52
460.845
458.598
456.746
455.254
454.089
453.215
452.601
452.219
452.043
452.057
452.246
452.589
453.069
453.675
454.397
455.229
456.164
457.197
458.321
459.53
460.816
462.171
463.587
465.052
466.558
468.092
469.644
471.203
472.758
474.298
475.814
477.294
478.73
480.112
481.433
482.685
483.862
484.959
485.973
486.903
487.75
488.52
489.224
489.867
490.459
491.013
491.546
492.079
492.632
493.233
493.906
494.671
495.544
496.54
497.669
498.939
500.355
501.916
503.619
505.453
507.408
509.469
511.616
513.832
516.094
518.381
520.673
522.948
525.187
527.375
529.496
531.539
533.495
535.357
537.124
538.794
540.371
541.86
543.268
544.604
545.878
547.102
548.288
549.446
550.586
551.717
552.847
553.98
555.118
556.262
557.409
558.556
559.695
560.82
561.922
562.991
564.018
564.996
565.917
566.777
567.57
568.296
568.956
569.552
570.088
570.572
571.01
571.41
571.781
572.132
572.471
572.805
573.14
573.48
573.828
574.184
574.548
574.917
575.285
575.645
575.988
576.304
576.581
576.807
576.966
577.047
577.039
576.931
576.704
576.34
575.822
575.134
574.259
573.179
571.872
570.312
568.47
566.306
563.772
560.8
557.306
553.181
548.288
542.453
535.469
527.091
517.042
505.021
490.712
473.808
454.026
431.127
404.931
375.319
342.228
305.646
265.642
222.512
177.24
132.597
97.384
111.131
63.581
69.9449
102.002
137.041
171.604
205.084
237.384
268.519
298.506
327.322
354.884
381.05
405.629
428.399
449.125
467.586
483.597
497.031
507.861
516.283
522.335
526.068
527.631
527.251
525.209
521.813
517.381
512.214
506.594
500.765
494.934
489.266
483.889
478.894
474.337
470.252
466.648
463.517
460.842
458.595
456.743
455.252
454.087
453.213
452.599
452.217
452.041
452.054
452.244
452.587
453.067
453.673
454.395
455.226
456.161
457.194
458.318
459.527
460.813
462.169
463.584
465.05
466.555
468.089
469.641
471.2
472.755
474.295
475.811
477.291
478.727
480.109
481.43
482.682
483.859
484.956
485.97
486.9
487.747
488.517
489.221
489.864
490.455
491.01
491.543
492.076
492.629
493.23
493.903
494.668
495.541
496.537
497.666
498.936
500.352
501.913
503.616
505.45
507.405
509.466
511.613
513.829
516.091
518.378
520.669
522.944
525.184
527.372
529.493
531.536
533.491
535.354
537.12
538.791
540.368
541.856
543.264
544.6
545.874
547.099
548.284
549.442
550.582
551.713
552.843
553.976
555.114
556.258
557.405
558.552
559.691
560.816
561.918
562.987
564.014
564.992
565.914
566.773
567.566
568.292
568.952
569.548
570.084
570.568
571.006
571.406
571.777
572.128
572.467
572.801
573.136
573.476
573.824
574.18
574.544
574.913
575.281
575.641
575.984
576.3
576.577
576.802
576.962
577.043
577.035
576.927
576.699
576.335
575.817
575.13
574.255
573.175
571.867
570.308
568.466
566.304
563.769
560.797
557.301
553.174
548.279
542.444
535.462
527.086
517.04
505.02
490.711
473.806
454.023
431.123
404.927
375.315
342.224
305.642
265.636
222.505
177.232
132.591
97.3813
111.138
113.098
98.1434
120.196
147.759
176.581
205.256
233.235
260.349
286.593
312.007
336.61
360.358
383.136
404.761
425.003
443.606
460.319
474.925
487.268
497.287
504.958
510.327
513.523
514.743
514.236
512.277
509.158
505.164
500.564
495.598
490.475
485.369
480.416
475.72
471.355
467.368
463.785
460.615
457.851
455.48
453.479
451.825
450.489
449.443
448.661
448.116
447.786
447.652
447.696
447.902
448.256
448.745
449.362
450.097
450.944
451.895
452.943
454.081
455.301
456.595
457.951
459.362
460.817
462.304
463.813
465.333
466.853
468.362
469.85
471.306
472.721
474.086
475.393
476.633
477.8
478.889
479.896
480.82
481.662
482.426
483.117
483.745
484.32
484.857
485.371
485.882
486.41
486.976
487.603
488.309
489.112
490.028
491.069
492.245
493.561
495.019
496.616
498.346
500.199
502.163
504.22
506.353
508.543
510.769
513.011
515.249
517.463
519.637
521.754
523.803
525.772
527.654
529.445
531.142
532.747
534.263
535.695
537.052
538.343
539.577
540.765
541.919
543.047
544.159
545.263
546.363
547.463
548.565
549.667
550.767
551.86
552.939
553.998
555.027
556.019
556.966
557.862
558.701
559.478
560.193
560.845
561.435
561.968
562.448
562.882
563.278
563.642
563.983
564.309
564.626
564.942
565.26
565.583
565.913
566.25
566.592
566.933
567.268
567.59
567.887
568.15
568.365
568.52
568.603
568.597
568.49
568.265
567.906
567.399
566.728
565.873
564.817
563.539
562.014
560.212
558.095
555.614
552.703
549.281
545.243
540.459
534.765
527.969
519.847
510.152
498.62
484.984
468.995
450.434
429.125
404.944
377.806
347.658
314.482
278.373
239.814
200.378
164.248
143.211
213.335
113.094
98.1466
120.205
147.77
176.592
205.267
233.245
260.356
286.598
312.011
336.612
360.358
383.134
404.758
424.998
443.6
460.313
474.918
487.26
497.278
504.948
510.316
513.512
514.733
514.226
512.267
509.149
505.155
500.555
495.589
490.467
485.36
480.408
475.712
471.347
467.361
463.778
460.607
457.843
455.472
453.472
451.817
450.481
449.435
448.653
448.108
447.779
447.644
447.688
447.894
448.248
448.737
449.354
450.089
450.936
451.887
452.935
454.073
455.293
456.586
457.943
459.354
460.808
462.296
463.805
465.325
466.844
468.353
469.841
471.297
472.713
474.078
475.384
476.624
477.791
478.88
479.887
480.811
481.653
482.417
483.108
483.736
484.311
484.848
485.362
485.873
486.401
486.967
487.594
488.3
489.103
490.019
491.06
492.236
493.552
495.01
496.607
498.337
500.19
502.153
504.211
506.344
508.534
510.76
513.002
515.239
517.453
519.627
521.744
523.793
525.762
527.644
529.435
531.132
532.737
534.253
535.685
537.042
538.332
539.567
540.755
541.908
543.037
544.149
545.252
546.352
547.452
548.554
549.657
550.757
551.85
552.929
553.987
555.016
556.008
556.956
557.851
558.69
559.468
560.182
560.834
561.425
561.957
562.438
562.872
563.267
563.631
563.972
564.298
564.616
564.931
565.249
565.572
565.903
566.24
566.581
566.922
567.258
567.579
567.876
568.139
568.354
568.51
568.592
568.587
568.479
568.254
567.896
567.389
566.717
565.863
564.807
563.528
562.003
560.202
558.085
555.603
552.692
549.271
545.234
540.449
534.755
527.959
519.837
510.143
498.611
484.976
468.987
450.425
429.117
404.936
377.798
347.651
314.476
278.367
239.808
200.372
164.242
143.205
213.332
170.018
132.962
148.972
173.085
199.07
224.919
249.82
273.527
296.088
317.674
338.47
358.61
378.141
397.011
415.078
432.138
447.946
462.253
474.838
485.527
494.196
500.798
505.401
508.137
509.191
508.785
507.16
504.566
501.244
497.418
493.288
489.025
484.771
480.638
476.712
473.054
469.704
466.684
464.005
461.664
459.652
457.954
456.551
455.424
454.552
453.913
453.488
453.259
453.208
453.323
453.592
454.003
454.548
455.217
456.004
456.9
457.898
458.99
460.167
461.421
462.741
464.119
465.544
467.005
468.491
469.993
471.498
472.997
474.479
475.934
477.352
478.723
480.04
481.294
482.479
483.589
484.62
485.57
486.44
487.231
487.95
488.605
489.206
489.768
490.306
490.837
491.38
491.953
492.575
493.267
494.044
494.922
495.915
497.031
498.278
499.657
501.169
502.808
504.567
506.435
508.398
510.439
512.543
514.69
516.861
519.038
521.202
523.337
525.428
527.461
529.425
531.312
533.116
534.834
536.466
538.013
539.478
540.87
542.194
543.46
544.676
545.853
546.999
548.123
549.232
550.331
551.424
552.514
553.599
554.679
555.748
556.803
557.838
558.844
559.815
560.745
561.628
562.458
563.231
563.947
564.603
565.202
565.745
566.238
566.686
567.095
567.471
567.823
568.157
568.48
568.798
569.115
569.434
569.757
570.085
570.416
570.746
571.07
571.38
571.669
571.927
572.141
572.298
572.386
572.39
572.296
572.09
571.758
571.284
570.654
569.851
568.858
567.655
566.219
564.522
562.527
560.188
557.446
554.224
550.423
545.92
540.567
534.187
526.578
517.521
506.786
494.149
479.401
462.358
442.869
420.807
396.052
368.487
338.019
304.718
269.181
233.353
202.319
191.64
311.884
170.015
132.968
148.983
173.098
199.082
224.93
249.828
273.533
296.092
317.675
338.469
358.607
378.136
397.004
415.071
432.129
447.936
462.242
474.826
485.514
494.183
500.784
505.386
508.123
509.177
508.77
507.146
504.552
501.231
497.405
493.275
489.012
484.758
480.625
476.7
473.042
469.691
466.672
463.993
461.652
459.64
457.942
456.539
455.412
454.539
453.9
453.475
453.246
453.196
453.311
453.579
453.99
454.535
455.204
455.991
456.887
457.885
458.977
460.154
461.407
462.728
464.106
465.53
466.991
468.478
469.979
471.485
472.984
474.465
475.92
477.338
478.709
480.026
481.28
482.465
483.574
484.605
485.556
486.425
487.217
487.936
488.59
489.192
489.754
490.292
490.823
491.366
491.938
492.561
493.252
494.03
494.908
495.901
497.017
498.263
499.643
501.155
502.794
504.553
506.42
508.383
510.425
512.528
514.675
516.846
519.022
521.187
523.322
525.412
527.445
529.409
531.296
533.1
534.819
536.45
537.997
539.462
540.854
542.178
543.443
544.66
545.837
546.983
548.107
549.216
550.315
551.408
552.497
553.583
554.662
555.732
556.787
557.821
558.827
559.799
560.729
561.611
562.441
563.215
563.93
564.586
565.185
565.729
566.222
566.669
567.078
567.454
567.806
568.141
568.464
568.781
569.098
569.417
569.741
570.069
570.4
570.729
571.053
571.364
571.653
571.91
572.124
572.281
572.369
572.373
572.28
572.074
571.741
571.268
570.637
569.835
568.842
567.639
566.203
564.506
562.511
560.172
557.43
554.208
550.408
545.905
540.552
534.172
526.563
517.506
506.772
494.135
479.387
462.345
442.856
420.794
396.04
368.475
338.008
304.707
269.17
233.343
202.31
191.631
311.877
223.576
168.111
179.921
201.676
225.298
248.298
269.728
289.368
307.385
324.128
339.987
355.299
370.298
385.087
399.645
413.844
427.479
440.301
452.055
462.506
471.465
478.756
484.364
488.339
490.785
491.852
491.718
490.582
488.643
486.097
483.124
479.884
476.516
473.135
469.833
466.68
463.729
461.015
458.56
456.374
454.461
452.817
451.431
450.293
449.389
448.703
448.22
447.925
447.803
447.844
448.036
448.372
448.841
449.437
450.151
450.975
451.901
452.922
454.03
455.214
456.467
457.779
459.141
460.541
461.971
463.42
464.877
466.333
467.778
469.202
470.594
471.947
473.252
474.5
475.686
476.803
477.847
478.816
479.71
480.53
481.28
481.968
482.603
483.197
483.765
484.32
484.879
485.458
486.075
486.747
487.49
488.318
489.243
490.275
491.421
492.686
494.069
495.567
497.177
498.888
500.691
502.572
504.516
506.509
508.533
510.573
512.612
514.635
516.627
518.575
520.47
522.301
524.063
525.751
527.362
528.898
530.36
531.752
533.08
534.351
535.572
536.751
537.896
539.013
540.11
541.191
542.26
543.32
544.372
545.413
546.442
547.455
548.447
549.413
550.348
551.245
552.1
552.908
553.666
554.373
555.026
555.627
556.178
556.681
557.142
557.565
557.956
558.321
558.667
558.999
559.323
559.642
559.961
560.28
560.602
560.925
561.246
561.561
561.864
562.149
562.406
562.625
562.795
562.903
562.936
562.88
562.725
562.457
562.063
561.53
560.845
559.991
558.953
557.71
556.24
554.511
552.484
550.108
547.317
544.027
540.131
535.504
529.995
523.439
515.655
506.46
495.677
483.14
468.697
452.202
433.497
412.388
388.635
362.005
332.447
300.525
268.314
241.486
238.682
395.25
223.576
168.12
179.935
201.69
225.31
248.308
269.736
289.373
307.387
324.127
339.984
355.294
370.291
385.078
399.635
413.833
427.466
440.288
452.041
462.492
471.449
478.74
484.348
488.323
490.769
491.835
491.702
490.565
488.627
486.081
483.108
479.868
476.501
473.12
469.818
466.665
463.714
461
458.545
456.359
454.446
452.802
451.416
450.278
449.373
448.687
448.204
447.91
447.788
447.828
448.021
448.356
448.826
449.421
450.135
450.959
451.885
452.906
454.013
455.198
456.451
457.763
459.124
460.525
461.954
463.403
464.861
466.317
467.761
469.185
470.577
471.93
473.234
474.483
475.668
476.785
477.83
478.799
479.693
480.513
481.263
481.95
482.585
483.18
483.747
484.303
484.862
485.441
486.058
486.73
487.472
488.3
489.225
490.257
491.404
492.668
494.051
495.55
497.159
498.87
500.673
502.553
504.498
506.491
508.515
510.555
512.594
514.616
516.608
518.557
520.451
522.282
524.044
525.731
527.343
528.878
530.34
531.732
533.061
534.332
535.553
536.731
537.876
538.993
540.09
541.171
542.241
543.301
544.352
545.393
546.422
547.435
548.427
549.393
550.328
551.225
552.079
552.888
553.646
554.352
555.006
555.607
556.158
556.661
557.122
557.545
557.936
558.301
558.647
558.979
559.303
559.622
559.941
560.26
560.582
560.905
561.226
561.541
561.844
562.129
562.386
562.606
562.775
562.883
562.915
562.86
562.705
562.437
562.043
561.511
560.825
559.971
558.933
557.691
556.221
554.492
552.465
550.089
547.298
544.008
540.113
535.486
529.978
523.421
515.638
506.443
495.66
483.123
468.68
452.186
433.482
412.373
388.621
361.991
332.433
300.512
268.301
241.473
238.67
395.241
274.905
201.59
209.961
229.741
251.003
270.844
288.274
303.178
315.906
327.022
337.141
346.812
356.453
366.321
376.513
386.981
397.568
408.039
418.125
427.554
436.087
443.472
449.575
454.36
457.849
460.112
461.263
461.437
460.789
459.476
457.652
455.458
453.022
450.457
447.854
445.29
442.825
440.503
438.356
436.407
434.667
433.143
431.834
430.737
429.844
429.147
428.635
428.297
428.119
428.095
428.216
428.473
428.86
429.369
429.992
430.721
431.551
432.472
433.477
434.558
435.707
436.915
438.174
439.474
440.806
442.161
443.53
444.903
446.272
447.626
448.958
450.258
451.518
452.731
453.89
454.99
456.027
456.997
457.899
458.735
459.506
460.218
460.879
461.498
462.087
462.657
463.222
463.795
464.393
465.029
465.718
466.472
467.303
468.22
469.23
470.34
471.549
472.859
474.266
475.764
477.347
479.004
480.725
482.497
484.307
486.142
487.987
489.829
491.656
493.456
495.218
496.933
498.595
500.197
501.737
503.214
504.626
505.977
507.27
508.509
509.7
510.848
511.96
513.041
514.097
515.133
516.152
517.157
518.148
519.127
520.091
521.039
521.967
522.872
523.749
524.594
525.403
526.174
526.901
527.585
528.223
528.816
529.364
529.87
530.337
530.768
531.168
531.543
531.897
532.235
532.562
532.882
533.197
533.512
533.826
534.14
534.451
534.758
535.056
535.339
535.6
535.832
536.024
536.165
536.245
536.252
536.178
536.01
535.74
535.355
534.846
534.201
533.409
532.455
531.322
529.988
528.423
526.591
524.44
521.908
518.914
515.365
511.149
506.148
500.233
493.281
485.172
475.789
465.015
452.701
438.644
422.547
404.013
382.61
358.077
330.802
302.804
280.123
283.969
469.885
274.907
201.6
209.975
229.756
251.016
270.854
288.28
303.182
315.906
327.019
337.136
346.805
356.444
366.311
376.502
386.97
397.555
408.026
418.111
427.539
436.071
443.456
449.559
454.344
457.832
460.095
461.246
461.42
460.772
459.46
457.635
455.441
453.006
450.44
447.838
445.274
442.809
440.487
438.34
436.391
434.651
433.127
431.818
430.721
429.828
429.131
428.619
428.28
428.103
428.078
428.199
428.456
428.843
429.352
429.975
430.704
431.534
432.455
433.46
434.541
435.69
436.898
438.156
439.456
440.788
442.143
443.512
444.886
446.254
447.608
448.939
450.239
451.499
452.712
453.872
454.972
456.008
456.978
457.881
458.716
459.488
460.2
460.86
461.48
462.068
462.639
463.203
463.777
464.374
465.01
465.699
466.453
467.284
468.201
469.212
470.321
471.53
472.84
474.247
475.745
477.328
478.985
480.706
482.478
484.288
486.122
487.967
489.809
491.636
493.436
495.197
496.913
498.574
500.177
501.717
503.193
504.606
505.957
507.25
508.488
509.679
510.827
511.939
513.02
514.076
515.112
516.131
517.135
518.127
519.106
520.07
521.018
521.946
522.851
523.728
524.573
525.382
526.152
526.88
527.564
528.202
528.795
529.343
529.849
530.315
530.747
531.147
531.522
531.875
532.214
532.54
532.86
533.176
533.491
533.805
534.119
534.43
534.737
535.035
535.317
535.579
535.811
536.003
536.144
536.224
536.232
536.157
535.99
535.719
535.334
534.825
534.181
533.389
532.435
531.302
529.968
528.403
526.571
524.42
521.888
518.895
515.346
511.131
506.129
500.215
493.263
485.153
475.772
464.997
452.684
438.628
422.531
403.998
382.594
358.061
330.787
302.789
280.108
283.955
469.874
322.726
232.569
237.911
255.836
274.638
291.054
304.114
313.869
320.891
325.985
329.996
333.678
337.619
342.212
347.651
353.958
361.017
368.609
376.459
384.27
391.759
398.679
404.746
409.85
413.935
417
419.091
420.287
420.691
420.421
419.597
418.342
416.766
414.971
413.048
411.072
409.106
407.2
405.394
403.716
402.188
400.823
399.628
398.605
397.755
397.073
396.554
396.19
395.971
395.891
395.945
396.125
396.425
396.838
397.358
397.978
398.691
399.491
400.37
401.321
402.338
403.413
404.538
405.705
406.908
408.136
409.383
410.64
411.899
413.152
414.39
415.605
416.791
417.94
419.047
420.104
421.109
422.058
422.948
423.781
424.557
425.278
425.95
426.579
427.174
427.744
428.299
428.852
429.414
429.998
430.615
431.276
431.993
432.773
433.624
434.552
435.561
436.652
437.825
439.077
440.405
441.801
443.259
444.769
446.322
447.908
449.514
451.131
452.746
454.351
455.934
457.488
459.004
460.478
461.904
463.279
464.602
465.873
467.094
468.265
469.392
470.477
471.525
472.541
473.53
474.494
475.438
476.364
477.274
478.169
479.049
479.912
480.758
481.584
482.388
483.165
483.914
484.632
485.316
485.963
486.573
487.145
487.68
488.177
488.64
489.07
489.472
489.848
490.202
490.54
490.864
491.179
491.488
491.793
492.096
492.398
492.699
492.996
493.288
493.57
493.838
494.086
494.307
494.492
494.632
494.719
494.744
494.701
494.582
494.38
494.087
493.698
493.206
492.603
491.88
491.025
490.023
488.852
487.483
485.878
483.991
481.765
479.14
476.052
472.439
468.244
463.417
457.899
451.607
444.396
436.009
426.038
413.907
398.941
380.604
359.002
335.953
317.693
327.523
537.132
322.728
232.581
237.927
255.851
274.65
291.063
304.12
313.871
320.89
325.981
329.99
333.67
337.61
342.201
347.639
353.947
361.005
368.596
376.445
384.256
391.744
398.664
404.731
409.834
413.919
416.984
419.075
420.271
420.675
420.404
419.581
418.326
416.75
414.955
413.032
411.056
409.09
407.184
405.378
403.701
402.173
400.807
399.612
398.59
397.739
397.058
396.538
396.174
395.955
395.875
395.928
396.108
396.408
396.822
397.341
397.961
398.674
399.474
400.353
401.304
402.321
403.396
404.521
405.688
406.89
408.119
409.366
410.623
411.881
413.134
414.372
415.587
416.773
417.922
419.029
420.086
421.091
422.039
422.93
423.763
424.538
425.259
425.931
426.561
427.156
427.725
428.281
428.833
429.396
429.979
430.596
431.258
431.974
432.754
433.606
434.534
435.543
436.634
437.806
439.059
440.386
441.782
443.24
444.75
446.303
447.889
449.495
451.111
452.727
454.331
455.914
457.468
458.984
460.458
461.884
463.259
464.582
465.853
467.073
468.245
469.372
470.457
471.505
472.521
473.509
474.474
475.417
476.344
477.254
478.149
479.028
479.892
480.738
481.564
482.367
483.145
483.894
484.611
485.295
485.942
486.553
487.125
487.659
488.157
488.619
489.05
489.451
489.827
490.182
490.519
490.843
491.159
491.467
491.773
492.076
492.378
492.679
492.976
493.268
493.55
493.818
494.066
494.287
494.472
494.612
494.699
494.724
494.681
494.562
494.36
494.067
493.678
493.186
492.583
491.86
491.006
490.004
488.833
487.464
485.859
483.972
481.746
479.122
476.034
472.421
468.227
463.399
457.882
451.591
444.38
435.993
426.022
413.891
398.926
380.588
358.986
335.937
317.676
327.508
537.121
366.178
260.736
263.395
279.525
295.804
308.668
317.215
321.693
322.925
321.966
319.888
317.633
315.936
315.298
315.988
318.075
321.47
325.965
331.28
337.104
343.129
349.09
354.64
359.589
363.816
367.254
369.89
371.75
372.892
373.393
373.344
372.839
371.972
370.833
369.503
368.053
366.547
365.035
363.56
362.157
360.85
359.658
358.594
357.666
356.878
356.23
355.72
355.344
355.097
354.973
354.967
355.074
355.288
355.605
356.018
356.522
357.111
357.779
358.52
359.328
360.198
361.123
362.097
363.113
364.166
365.247
366.351
367.469
368.596
369.723
370.845
371.953
373.041
374.103
375.133
376.126
377.077
377.982
378.84
379.649
380.409
381.121
381.785
382.407
382.992
383.545
384.076
384.594
385.108
385.628
386.162
386.721
387.313
387.948
388.633
389.373
390.174
391.04
391.972
392.97
394.034
395.16
396.344
397.58
398.862
400.182
401.532
402.903
404.285
405.67
407.049
408.414
409.757
411.072
412.354
413.599
414.802
415.964
417.082
418.158
419.194
420.19
421.151
422.079
422.978
423.851
424.702
425.533
426.347
427.144
427.927
428.694
429.447
430.184
430.903
431.603
432.281
432.935
433.563
434.164
434.735
435.275
435.784
436.262
436.709
437.128
437.519
437.887
438.234
438.563
438.877
439.181
439.477
439.768
440.056
440.343
440.63
440.915
441.199
441.48
441.754
442.018
442.269
442.5
442.704
442.875
443.008
443.098
443.14
443.132
443.071
442.954
442.781
442.553
442.269
441.929
441.531
441.072
440.547
439.946
439.26
438.479
437.596
436.61
435.532
434.381
433.183
431.944
430.626
429.088
427.029
423.929
419.024
411.381
400.137
385.039
367.596
354.081
369.407
597.707
366.18
260.747
263.411
279.541
295.816
308.677
317.22
321.695
322.923
321.961
319.881
317.625
315.927
315.288
315.977
318.064
321.459
325.953
331.268
337.092
343.117
349.077
354.626
359.576
363.802
367.24
369.876
371.736
372.878
373.379
373.33
372.825
371.958
370.819
369.489
368.039
366.533
365.021
363.546
362.143
360.836
359.644
358.58
357.652
356.864
356.216
355.706
355.33
355.083
354.958
354.952
355.059
355.274
355.59
356.003
356.507
357.096
357.764
358.505
359.313
360.183
361.108
362.081
363.098
364.15
365.231
366.335
367.453
368.58
369.707
370.828
371.937
373.025
374.087
375.117
376.109
377.06
377.966
378.824
379.632
380.392
381.104
381.769
382.39
382.975
383.528
384.059
384.578
385.092
385.611
386.145
386.704
387.297
387.931
388.616
389.356
390.157
391.023
391.955
392.953
394.017
395.143
396.327
397.563
398.845
400.165
401.515
402.885
404.267
405.652
407.031
408.396
409.739
411.054
412.336
413.581
414.784
415.946
417.064
418.14
419.175
420.172
421.133
422.061
422.96
423.833
424.684
425.515
426.328
427.126
427.908
428.676
429.429
430.165
430.884
431.584
432.262
432.916
433.545
434.145
434.716
435.256
435.765
436.243
436.69
437.109
437.501
437.869
438.215
438.544
438.859
439.162
439.458
439.75
440.038
440.325
440.611
440.897
441.181
441.461
441.736
442
442.25
442.482
442.686
442.857
442.99
443.08
443.122
443.114
443.052
442.936
442.764
442.535
442.251
441.911
441.513
441.055
440.529
439.929
439.243
438.462
437.579
436.593
435.515
434.365
433.167
431.929
430.611
429.073
427.015
423.914
419.01
411.367
400.121
385.022
367.579
354.063
369.391
597.697
404.87
285.984
286.326
300.762
314.554
323.905
328.009
327.34
322.975
316.221
308.364
300.516
293.535
288
284.228
282.314
282.177
283.61
286.327
290.004
294.314
298.955
303.641
308.053
312.023
315.441
318.245
320.416
321.972
322.955
323.426
323.454
323.114
322.479
321.621
320.604
319.486
318.317
317.14
315.989
314.893
313.872
312.943
312.117
311.401
310.799
310.312
309.937
309.673
309.515
309.46
309.503
309.64
309.866
310.177
310.568
311.035
311.572
312.175
312.839
313.559
314.331
315.15
316.01
316.906
317.832
318.783
319.753
320.736
321.727
322.718
323.704
324.679
325.638
326.575
327.486
328.365
329.209
330.015
330.781
331.505
332.187
332.826
333.423
333.98
334.504
334.999
335.472
335.929
336.378
336.826
337.281
337.752
338.246
338.771
339.333
339.939
340.592
341.298
342.057
342.872
343.742
344.666
345.64
346.661
347.723
348.821
349.948
351.096
352.258
353.426
354.593
355.751
356.894
358.016
359.112
360.179
361.212
362.21
363.172
364.097
364.988
365.845
366.671
367.468
368.239
368.986
369.714
370.423
371.117
371.797
372.465
373.12
373.763
374.394
375.01
375.612
376.196
376.762
377.307
377.83
378.329
378.802
379.249
379.671
380.067
380.439
380.789
381.118
381.43
381.727
382.013
382.29
382.562
382.831
383.099
383.367
383.638
383.911
384.187
384.463
384.74
385.015
385.285
385.55
385.8
386.035
386.251
386.447
386.625
386.785
386.931
387.069
387.204
387.347
387.508
387.702
387.944
388.253
388.651
389.167
389.837
390.713
391.861
393.367
395.333
397.864
401.038
404.869
409.232
413.793
417.929
420.696
420.89
417.297
409.253
397.871
389.305
409.61
652.104
404.871
285.995
286.343
300.778
314.567
323.914
328.014
327.34
322.972
316.215
308.357
300.508
293.526
287.99
284.219
282.305
282.167
283.6
286.317
289.994
294.304
298.944
303.631
308.042
312.012
315.43
318.233
320.404
321.96
322.943
323.414
323.442
323.102
322.467
321.609
320.592
319.474
318.305
317.128
315.977
314.881
313.86
312.931
312.105
311.389
310.787
310.3
309.925
309.661
309.503
309.448
309.49
309.627
309.854
310.165
310.556
311.022
311.559
312.162
312.826
313.546
314.318
315.137
315.996
316.892
317.819
318.77
319.74
320.723
321.713
322.704
323.69
324.666
325.624
326.561
327.472
328.351
329.195
330.001
330.767
331.491
332.172
332.812
333.408
333.966
334.489
334.985
335.458
335.915
336.364
336.812
337.267
337.738
338.232
338.757
339.319
339.924
340.578
341.283
342.043
342.858
343.728
344.651
345.626
346.646
347.709
348.807
349.933
351.081
352.243
353.411
354.578
355.736
356.879
358.001
359.097
360.163
361.196
362.194
363.156
364.082
364.973
365.83
366.655
367.452
368.223
368.971
369.698
370.407
371.102
371.782
372.449
373.104
373.747
374.378
374.995
375.596
376.181
376.747
377.292
377.814
378.313
378.786
379.234
379.655
380.051
380.424
380.773
381.103
381.414
381.712
381.997
382.275
382.547
382.815
383.083
383.352
383.623
383.896
384.171
384.448
384.724
384.999
385.27
385.534
385.785
386.019
386.235
386.432
386.61
386.77
386.917
387.054
387.189
387.332
387.493
387.687
387.93
388.239
388.637
389.152
389.823
390.699
391.847
393.354
395.32
397.85
401.026
404.856
409.22
413.781
417.917
420.683
420.877
417.283
409.237
397.853
389.286
409.593
652.094
438.722
308.308
306.714
319.619
331.07
337.093
337.008
331.514
321.948
309.856
296.724
283.813
272.079
262.157
254.389
248.872
245.517
244.108
244.347
245.899
248.424
251.604
255.166
258.76
262.174
265.26
267.919
270.099
271.784
272.986
273.739
274.09
274.095
273.811
273.297
272.608
271.796
270.906
269.979
269.047
268.138
267.276
266.476
265.752
265.113
264.563
264.107
263.744
263.475
263.295
263.201
263.192
263.262
263.41
263.63
263.919
264.273
264.69
265.164
265.693
266.272
266.899
267.569
268.278
269.022
269.796
270.597
271.42
272.259
273.109
273.966
274.825
275.681
276.528
277.362
278.179
278.974
279.742
280.482
281.188
281.86
282.494
283.09
283.647
284.166
284.648
285.098
285.519
285.915
286.292
286.657
287.016
287.376
287.744
288.127
288.533
288.967
289.436
289.944
290.495
291.092
291.738
292.431
293.172
293.959
294.789
295.657
296.558
297.488
298.439
299.404
300.378
301.354
302.324
303.284
304.227
305.148