/*--------------------------------*- C++ -*----------------------------------*\
  =========                 |
  \\      /  F ield         | OpenFOAM: The Open Source CFD Toolbox
   \\    /   O peration     | Website:  https://openfoam.org
    \\  /    A nd           | Version:  8
     \\/     M anipulation  |
\*---------------------------------------------------------------------------*/
FoamFile
{
    version     2.0;
    format      ascii;
    class       volScalarField;
    location    "300";
    object      k;
}
// * * * * * * * * * * * * * * * * * * * * * * * * * * * * * * * * * * * * * //

dimensions      [0 2 -2 0 0 0 0];

internalField   nonuniform List<scalar> 
46000
(
0.0190022
0.062344
0.122442
0.183932
0.236664
0.283808
0.326473
0.365098
0.39998
0.431349
0.459396
0.484276
0.506125
0.525059
0.541184
0.554601
0.565416
0.573741
0.579753
0.584106
0.586877
0.587948
0.58738
0.585344
0.582069
0.577819
0.572861
0.567455
0.561835
0.556205
0.550735
0.545553
0.540755
0.536403
0.532531
0.529147
0.526244
0.5238
0.521784
0.520162
0.518894
0.517942
0.51727
0.516845
0.516635
0.516615
0.516764
0.517074
0.517544
0.518145
0.518859
0.519678
0.520595
0.521606
0.522708
0.523898
0.525169
0.526516
0.527933
0.529411
0.53094
0.532511
0.534113
0.535736
0.537369
0.539001
0.540622
0.542223
0.543793
0.545324
0.546806
0.548232
0.549594
0.550886
0.552102
0.553238
0.554292
0.555266
0.556162
0.556989
0.557766
0.558493
0.559178
0.559836
0.560482
0.561138
0.561827
0.56258
0.563429
0.564386
0.565461
0.566666
0.568007
0.569487
0.571106
0.572858
0.574735
0.576724
0.57881
0.580975
0.583199
0.585462
0.587744
0.590025
0.592284
0.594505
0.596673
0.598774
0.600799
0.602739
0.60459
0.606352
0.608024
0.60961
0.611117
0.612551
0.613921
0.615239
0.616513
0.617755
0.618976
0.620185
0.62139
0.622597
0.623811
0.625034
0.626264
0.6275
0.628735
0.629963
0.631175
0.632362
0.633516
0.634626
0.635684
0.636684
0.637618
0.638485
0.639282
0.640011
0.640673
0.641275
0.641823
0.642324
0.642787
0.643219
0.64363
0.644028
0.64442
0.644812
0.645209
0.645612
0.646023
0.646442
0.646863
0.647282
0.647693
0.648089
0.648458
0.64879
0.649071
0.64929
0.649432
0.649487
0.649449
0.649314
0.649057
0.648662
0.648111
0.647389
0.646478
0.645363
0.644021
0.642431
0.640559
0.638366
0.635796
0.632777
0.629216
0.624989
0.619937
0.613861
0.606517
0.597612
0.586806
0.573718
0.557933
0.539021
0.516556
0.490142
0.459434
0.424163
0.38417
0.33944
0.290184
0.236957
0.180625
0.120089
0.0665885
0.0263936
0.0190023
0.0623456
0.122448
0.183937
0.236668
0.283814
0.326479
0.365105
0.399986
0.431354
0.4594
0.484282
0.506131
0.525064
0.541187
0.554602
0.565415
0.57374
0.579752
0.584107
0.586878
0.587948
0.58738
0.585343
0.582068
0.577817
0.57286
0.567454
0.561835
0.556206
0.550735
0.545554
0.540757
0.536405
0.532533
0.529149
0.526246
0.523802
0.521787
0.520164
0.518896
0.517944
0.517272
0.516847
0.516637
0.516617
0.516766
0.517076
0.517546
0.518147
0.518861
0.51968
0.520597
0.521609
0.522711
0.5239
0.525172
0.526519
0.527936
0.529413
0.530943
0.532513
0.534116
0.535739
0.537372
0.539004
0.540626
0.542226
0.543796
0.545327
0.546809
0.548235
0.549597
0.550888
0.552104
0.55324
0.554295
0.555269
0.556165
0.556992
0.557769
0.558496
0.559181
0.559838
0.560485
0.561141
0.561829
0.562583
0.563432
0.564388
0.565464
0.566669
0.56801
0.56949
0.571109
0.572861
0.574738
0.576727
0.578812
0.580977
0.583201
0.585465
0.587747
0.590027
0.592287
0.594508
0.596676
0.598777
0.600801
0.602741
0.604592
0.606354
0.608026
0.609612
0.611119
0.612553
0.613923
0.615241
0.616515
0.617757
0.618978
0.620187
0.621392
0.622599
0.623813
0.625036
0.626266
0.627502
0.628737
0.629965
0.631177
0.632364
0.633517
0.634628
0.635686
0.636685
0.63762
0.638487
0.639284
0.640012
0.640675
0.641277
0.641825
0.642326
0.642788
0.643221
0.643632
0.64403
0.644422
0.644814
0.64521
0.645614
0.646025
0.646443
0.646864
0.647283
0.647695
0.64809
0.64846
0.648791
0.649073
0.649291
0.649434
0.649489
0.649451
0.649315
0.649059
0.648663
0.648112
0.64739
0.64648
0.645364
0.644022
0.642432
0.64056
0.638366
0.635796
0.632777
0.629217
0.624992
0.619943
0.613869
0.606524
0.597617
0.586809
0.573718
0.557932
0.53902
0.516557
0.490145
0.459438
0.424167
0.384173
0.339443
0.290187
0.236962
0.180633
0.120098
0.0665952
0.0263986
0.0486827
0.176989
0.278767
0.369643
0.451516
0.525286
0.591805
0.651829
0.705981
0.75475
0.798506
0.837519
0.87198
0.902031
0.927785
0.949353
0.96686
0.980445
0.990267
0.996479
0.99972
1.00027
0.998486
0.994748
0.98946
0.98302
0.975804
0.968152
0.960363
0.952683
0.945312
0.938396
0.93204
0.926307
0.921226
0.9168
0.913011
0.909826
0.907201
0.905089
0.903441
0.902206
0.901339
0.900796
0.900538
0.900533
0.900752
0.90117
0.901776
0.902551
0.903483
0.904563
0.905783
0.907137
0.90862
0.910225
0.911944
0.91377
0.91569
0.917694
0.919768
0.921899
0.924072
0.926273
0.928485
0.930696
0.932889
0.935052
0.937171
0.939233
0.941225
0.943137
0.944959
0.946681
0.948296
0.949801
0.951191
0.952468
0.953637
0.954708
0.955689
0.956597
0.95745
0.958273
0.959092
0.959937
0.960837
0.961825
0.962925
0.964162
0.965555
0.967119
0.968867
0.970803
0.972928
0.975237
0.977718
0.980355
0.983129
0.986016
0.988989
0.992021
0.995084
0.99815
1.00119
1.00419
1.00711
1.00995
1.01268
1.0153
1.0178
1.02017
1.02242
1.02454
1.02656
1.02847
1.03028
1.03202
1.0337
1.03532
1.03692
1.03849
1.04004
1.0416
1.04316
1.04474
1.04632
1.0479
1.04948
1.05106
1.05261
1.05414
1.05562
1.05704
1.0584
1.05969
1.06089
1.062
1.06303
1.06396
1.06481
1.06557
1.06627
1.0669
1.06749
1.06803
1.06854
1.06904
1.06953
1.07001
1.07051
1.07101
1.07152
1.07204
1.07257
1.0731
1.07362
1.07412
1.07459
1.07501
1.07537
1.07564
1.07581
1.07587
1.0758
1.07557
1.07515
1.07454
1.07372
1.07265
1.07132
1.06971
1.06779
1.06552
1.06285
1.05972
1.05606
1.05174
1.04664
1.04056
1.03327
1.02448
1.01383
1.00089
0.985182
0.966172
0.94329
0.91596
0.883627
0.845794
0.802042
0.752055
0.695626
0.632661
0.563199
0.487494
0.406117
0.319623
0.223909
0.0844238
0.0486818
0.17699
0.278774
0.369653
0.451527
0.525296
0.591814
0.651836
0.705986
0.754754
0.798508
0.83752
0.87198
0.90203
0.927784
0.949353
0.966859
0.980444
0.990265
0.996477
0.999718
1.00027
0.998486
0.994748
0.98946
0.98302
0.975804
0.968153
0.960364
0.952685
0.945313
0.938398
0.932042
0.926309
0.921228
0.916802
0.913013
0.909827
0.907203
0.905091
0.903443
0.902208
0.901341
0.900797
0.90054
0.900535
0.900753
0.901171
0.901777
0.902553
0.903485
0.904564
0.905784
0.907138
0.908621
0.910226
0.911946
0.913771
0.915691
0.917695
0.91977
0.921901
0.924074
0.926274
0.928487
0.930697
0.932891
0.935054
0.937172
0.939234
0.941226
0.943138
0.94496
0.946682
0.948298
0.949802
0.951192
0.95247
0.953639
0.954709
0.955691
0.956598
0.957452
0.958275
0.959094
0.959938
0.960839
0.961826
0.962927
0.964164
0.965556
0.967121
0.968868
0.970805
0.97293
0.975238
0.977719
0.980357
0.983131
0.986017
0.98899
0.992022
0.995085
0.998151
1.00119
1.00419
1.00711
1.00995
1.01268
1.0153
1.0178
1.02017
1.02242
1.02454
1.02656
1.02847
1.03029
1.03203
1.0337
1.03533
1.03692
1.03849
1.04005
1.0416
1.04317
1.04474
1.04632
1.0479
1.04948
1.05106
1.05261
1.05414
1.05562
1.05705
1.05841
1.05969
1.06089
1.062
1.06303
1.06396
1.06481
1.06558
1.06627
1.06691
1.06749
1.06803
1.06854
1.06904
1.06953
1.07001
1.07051
1.07101
1.07152
1.07204
1.07257
1.0731
1.07362
1.07412
1.07459
1.07501
1.07537
1.07564
1.07581
1.07587
1.0758
1.07557
1.07515
1.07454
1.07372
1.07265
1.07132
1.06971
1.06779
1.06552
1.06285
1.05973
1.05606
1.05175
1.04664
1.04056
1.03327
1.02448
1.01383
1.00089
0.985185
0.966175
0.943293
0.915961
0.883628
0.845795
0.802043
0.752056
0.695628
0.632661
0.563199
0.487493
0.406115
0.319623
0.22391
0.0844247
0.087412
0.255272
0.380296
0.488984
0.586703
0.674684
0.753655
0.824378
0.887642
0.944192
0.994675
1.03961
1.0794
1.11432
1.14457
1.17032
1.19168
1.20878
1.22174
1.23066
1.23598
1.23811
1.23748
1.23453
1.22972
1.22348
1.21625
1.2084
1.20027
1.19213
1.18421
1.1767
1.16972
1.16335
1.15765
1.15262
1.14826
1.14454
1.14144
1.1389
1.13688
1.13534
1.13421
1.13346
1.13305
1.13294
1.13311
1.13351
1.13413
1.13497
1.13599
1.13719
1.13857
1.14012
1.14182
1.14368
1.14567
1.14779
1.15002
1.15236
1.15479
1.15728
1.15983
1.16241
1.16502
1.16762
1.17021
1.17277
1.17528
1.17772
1.18009
1.18237
1.18454
1.1866
1.18854
1.19035
1.19203
1.19358
1.195
1.1963
1.19749
1.1986
1.19964
1.20064
1.20164
1.20267
1.20375
1.20493
1.20622
1.20765
1.20926
1.21105
1.21304
1.21525
1.21766
1.22028
1.2231
1.2261
1.22925
1.23254
1.23593
1.2394
1.24291
1.24644
1.24995
1.25342
1.25682
1.26013
1.26333
1.26641
1.26935
1.27216
1.27484
1.27737
1.27978
1.28207
1.28425
1.28634
1.28834
1.29029
1.29219
1.29406
1.2959
1.29774
1.29958
1.30141
1.30325
1.30509
1.30692
1.30874
1.31054
1.3123
1.31401
1.31565
1.31723
1.31872
1.32012
1.32142
1.32262
1.32372
1.32472
1.32564
1.32647
1.32723
1.32793
1.32858
1.32919
1.32978
1.33036
1.33094
1.33151
1.33209
1.33269
1.33329
1.33389
1.3345
1.33509
1.33566
1.3362
1.33668
1.33709
1.33741
1.33761
1.33769
1.33761
1.33735
1.33689
1.3362
1.33527
1.33408
1.33259
1.33079
1.32864
1.3261
1.32312
1.31963
1.31553
1.31071
1.305
1.29819
1.29001
1.28014
1.26816
1.2536
1.23593
1.21457
1.18888
1.15825
1.12206
1.07976
1.03084
0.97486
0.911397
0.840065
0.760521
0.672567
0.576243
0.470981
0.348926
0.162687
0.0874134
0.255276
0.380305
0.488996
0.586714
0.674695
0.753664
0.824384
0.887646
0.944195
0.994676
1.03961
1.0794
1.11431
1.14457
1.17032
1.19168
1.20878
1.22174
1.23066
1.23598
1.23811
1.23748
1.23453
1.22971
1.22348
1.21625
1.2084
1.20027
1.19213
1.18422
1.1767
1.16972
1.16335
1.15765
1.15262
1.14826
1.14454
1.14144
1.1389
1.13688
1.13534
1.13421
1.13346
1.13305
1.13295
1.13311
1.13351
1.13413
1.13497
1.13599
1.13719
1.13857
1.14012
1.14182
1.14368
1.14567
1.14779
1.15002
1.15236
1.15479
1.15728
1.15983
1.16241
1.16502
1.16762
1.17021
1.17277
1.17528
1.17772
1.18009
1.18237
1.18454
1.1866
1.18854
1.19035
1.19203
1.19358
1.195
1.1963
1.19749
1.1986
1.19964
1.20064
1.20164
1.20267
1.20375
1.20493
1.20622
1.20765
1.20926
1.21105
1.21304
1.21525
1.21766
1.22028
1.2231
1.2261
1.22925
1.23254
1.23593
1.2394
1.24291
1.24644
1.24995
1.25342
1.25682
1.26013
1.26333
1.26641
1.26935
1.27216
1.27484
1.27737
1.27978
1.28207
1.28425
1.28633
1.28834
1.29029
1.29219
1.29406
1.2959
1.29774
1.29957
1.30141
1.30325
1.30509
1.30692
1.30874
1.31054
1.3123
1.31401
1.31565
1.31723
1.31872
1.32012
1.32142
1.32262
1.32372
1.32472
1.32563
1.32647
1.32723
1.32793
1.32858
1.32919
1.32978
1.33036
1.33093
1.33151
1.33209
1.33269
1.33329
1.33389
1.3345
1.33509
1.33566
1.33619
1.33668
1.33709
1.33741
1.33761
1.33769
1.33761
1.33735
1.33689
1.3362
1.33527
1.33407
1.33259
1.33079
1.32864
1.3261
1.32311
1.31962
1.31553
1.31071
1.305
1.29819
1.29001
1.28014
1.26816
1.2536
1.23593
1.21457
1.18888
1.15825
1.12206
1.07976
1.03084
0.97486
0.911397
0.840065
0.760521
0.672566
0.576241
0.470978
0.348922
0.162683
0.132235
0.325307
0.467624
0.588498
0.695527
0.790652
0.874812
0.948962
1.01417
1.07154
1.12211
1.16676
1.2062
1.24094
1.27134
1.29764
1.31998
1.33845
1.35311
1.36404
1.37134
1.37542
1.37667
1.37548
1.37229
1.36751
1.36153
1.35475
1.34748
1.34003
1.33262
1.32546
1.3187
1.31242
1.30672
1.30161
1.29712
1.29323
1.28992
1.28717
1.28494
1.28319
1.28187
1.28095
1.28039
1.28015
1.28022
1.28055
1.28112
1.28193
1.28295
1.28418
1.28561
1.28723
1.28902
1.29099
1.29311
1.29537
1.29777
1.30028
1.30289
1.30558
1.30834
1.31114
1.31397
1.31681
1.31964
1.32244
1.3252
1.3279
1.33052
1.33305
1.33547
1.33778
1.33996
1.342
1.34391
1.34568
1.34731
1.34882
1.35021
1.3515
1.35272
1.3539
1.35507
1.35625
1.35749
1.3588
1.36022
1.36179
1.36351
1.36541
1.36752
1.36983
1.37235
1.37508
1.37801
1.38112
1.38441
1.38783
1.39137
1.39499
1.39868
1.40239
1.40609
1.40977
1.41339
1.41693
1.42038
1.42371
1.42692
1.42999
1.43293
1.43574
1.43841
1.44096
1.44341
1.44575
1.448
1.45019
1.45232
1.4544
1.45646
1.4585
1.46052
1.46254
1.46455
1.46655
1.46854
1.4705
1.47244
1.47434
1.47618
1.47796
1.47966
1.48128
1.4828
1.48423
1.48555
1.48677
1.4879
1.48893
1.48987
1.49074
1.49154
1.49229
1.493
1.49368
1.49434
1.49499
1.49563
1.49628
1.49693
1.49759
1.49825
1.4989
1.49955
1.50017
1.50075
1.50128
1.50173
1.5021
1.50235
1.50247
1.50243
1.5022
1.50177
1.50112
1.50022
1.49906
1.49762
1.49586
1.49376
1.49128
1.48837
1.48497
1.48097
1.47626
1.47068
1.46401
1.45599
1.44627
1.43446
1.42008
1.40259
1.38142
1.35596
1.32556
1.28961
1.2475
1.19859
1.14224
1.0777
1.00415
0.920733
0.826629
0.721122
0.602299
0.459436
0.23854
0.132238
0.325314
0.467635
0.58851
0.695539
0.790662
0.87482
0.948967
1.01417
1.07155
1.12211
1.16676
1.20619
1.24093
1.27134
1.29764
1.31998
1.33845
1.35311
1.36404
1.37133
1.37542
1.37666
1.37548
1.37229
1.3675
1.36153
1.35475
1.34748
1.34003
1.33262
1.32546
1.3187
1.31242
1.30671
1.30161
1.29711
1.29323
1.28992
1.28717
1.28494
1.28318
1.28187
1.28095
1.28039
1.28015
1.28022
1.28055
1.28112
1.28193
1.28295
1.28418
1.28561
1.28723
1.28902
1.29098
1.29311
1.29537
1.29777
1.30028
1.30289
1.30558
1.30834
1.31114
1.31397
1.31681
1.31964
1.32244
1.3252
1.3279
1.33052
1.33305
1.33547
1.33778
1.33996
1.342
1.34391
1.34568
1.34731
1.34882
1.3502
1.3515
1.35272
1.3539
1.35506
1.35625
1.35748
1.3588
1.36022
1.36178
1.36351
1.36541
1.36751
1.36983
1.37235
1.37508
1.37801
1.38112
1.3844
1.38783
1.39136
1.39499
1.39867
1.40238
1.40609
1.40977
1.41339
1.41693
1.42038
1.42371
1.42691
1.42999
1.43293
1.43573
1.43841
1.44096
1.4434
1.44574
1.448
1.45018
1.45231
1.4544
1.45646
1.45849
1.46052
1.46253
1.46454
1.46654
1.46853
1.4705
1.47244
1.47433
1.47618
1.47796
1.47966
1.48128
1.4828
1.48423
1.48555
1.48677
1.48789
1.48893
1.48987
1.49074
1.49154
1.49229
1.493
1.49368
1.49433
1.49498
1.49563
1.49628
1.49693
1.49759
1.49825
1.4989
1.49954
1.50016
1.50074
1.50127
1.50173
1.5021
1.50235
1.50247
1.50242
1.5022
1.50177
1.50112
1.50022
1.49906
1.49761
1.49586
1.49376
1.49128
1.48837
1.48496
1.48097
1.47626
1.47068
1.46401
1.45598
1.44627
1.43446
1.42007
1.40259
1.38142
1.35595
1.32556
1.28961
1.2475
1.19859
1.14223
1.07769
1.00415
0.92073
0.826625
0.721118
0.602293
0.459429
0.238534
0.174392
0.391297
0.547519
0.677024
0.789128
0.886548
0.970677
1.04286
1.10459
1.15746
1.20296
1.24244
1.27698
1.3074
1.33426
1.35791
1.37853
1.39618
1.41085
1.42252
1.43115
1.4369
1.44005
1.44089
1.43976
1.43699
1.43293
1.4279
1.42222
1.41615
1.40993
1.40375
1.39777
1.39211
1.38686
1.38207
1.37778
1.374
1.37073
1.36795
1.36564
1.36379
1.36235
1.3613
1.36061
1.36025
1.36019
1.36042
1.3609
1.36162
1.36257
1.36375
1.36513
1.36672
1.3685
1.37046
1.37259
1.37488
1.3773
1.37985
1.38251
1.38526
1.38809
1.39097
1.39388
1.39682
1.39976
1.40268
1.40556
1.4084
1.41116
1.41384
1.41643
1.4189
1.42125
1.42347
1.42555
1.4275
1.42931
1.43099
1.43256
1.43402
1.43541
1.43674
1.43805
1.43937
1.44072
1.44213
1.44363
1.44525
1.44701
1.44893
1.45102
1.45331
1.45578
1.45846
1.46131
1.46435
1.46755
1.47089
1.47435
1.4779
1.48152
1.48518
1.48886
1.49253
1.49616
1.49974
1.50324
1.50664
1.50994
1.51313
1.5162
1.51915
1.52197
1.52469
1.52729
1.5298
1.53222
1.53456
1.53684
1.53907
1.54127
1.54343
1.54556
1.54768
1.54978
1.55186
1.55393
1.55596
1.55796
1.55991
1.56181
1.56365
1.56541
1.56709
1.56868
1.57018
1.57159
1.57289
1.5741
1.57522
1.57626
1.57722
1.57811
1.57895
1.57974
1.58049
1.58122
1.58194
1.58264
1.58334
1.58404
1.58474
1.58544
1.58613
1.58681
1.58747
1.58809
1.58866
1.58917
1.58959
1.58991
1.5901
1.59015
1.59003
1.58972
1.58921
1.58848
1.58751
1.58629
1.5848
1.58301
1.58089
1.57841
1.5755
1.57208
1.56806
1.56328
1.55755
1.55062
1.54219
1.53189
1.51929
1.50391
1.4852
1.46262
1.43555
1.40337
1.36541
1.32087
1.26883
1.20813
1.13737
1.05497
0.959292
0.848554
0.719229
0.557756
0.302831
0.174393
0.391305
0.54753
0.677037
0.78914
0.886558
0.970684
1.04286
1.10459
1.15746
1.20296
1.24243
1.27697
1.30739
1.33425
1.35791
1.37852
1.39617
1.41085
1.42251
1.43115
1.4369
1.44004
1.44088
1.43975
1.43698
1.43292
1.4279
1.42222
1.41615
1.40992
1.40374
1.39777
1.39211
1.38685
1.38207
1.37778
1.37399
1.37072
1.36794
1.36564
1.36378
1.36234
1.36129
1.3606
1.36024
1.36019
1.36041
1.36089
1.36161
1.36257
1.36374
1.36513
1.36672
1.3685
1.37046
1.37259
1.37487
1.3773
1.37985
1.38251
1.38526
1.38808
1.39096
1.39388
1.39682
1.39975
1.40267
1.40556
1.40839
1.41116
1.41384
1.41642
1.41889
1.42124
1.42346
1.42555
1.42749
1.4293
1.43099
1.43255
1.43401
1.4354
1.43674
1.43805
1.43936
1.44072
1.44213
1.44363
1.44525
1.447
1.44892
1.45102
1.4533
1.45578
1.45845
1.46131
1.46434
1.46754
1.47088
1.47434
1.47789
1.48152
1.48518
1.48886
1.49252
1.49616
1.49973
1.50323
1.50664
1.50994
1.51313
1.51619
1.51914
1.52197
1.52468
1.52728
1.52979
1.53221
1.53456
1.53684
1.53907
1.54126
1.54342
1.54556
1.54768
1.54978
1.55186
1.55392
1.55595
1.55795
1.55991
1.56181
1.56364
1.56541
1.56709
1.56868
1.57018
1.57158
1.57288
1.5741
1.57522
1.57625
1.57721
1.5781
1.57894
1.57973
1.58049
1.58122
1.58193
1.58263
1.58334
1.58403
1.58473
1.58543
1.58612
1.5868
1.58746
1.58808
1.58865
1.58916
1.58958
1.5899
1.5901
1.59014
1.59002
1.58971
1.5892
1.58847
1.5875
1.58628
1.58479
1.583
1.58088
1.5784
1.57549
1.57208
1.56805
1.56327
1.55754
1.55061
1.54219
1.53189
1.51929
1.5039
1.4852
1.46261
1.43554
1.40337
1.3654
1.32087
1.26883
1.20812
1.13736
1.05496
0.959286
0.848547
0.719221
0.557747
0.302823
0.214653
0.452744
0.620351
0.755916
0.870118
0.966426
1.04681
1.11314
1.16747
1.21194
1.24861
1.27932
1.30556
1.3285
1.34893
1.36734
1.38394
1.39879
1.41181
1.42286
1.4318
1.43853
1.44313
1.44575
1.4466
1.4459
1.4439
1.44087
1.43704
1.43265
1.42793
1.42304
1.41816
1.4134
1.40887
1.40464
1.40076
1.39727
1.39419
1.39151
1.38923
1.38735
1.38585
1.38471
1.38391
1.38343
1.38324
1.38334
1.38369
1.38428
1.38511
1.38617
1.38745
1.38893
1.39061
1.39247
1.39451
1.39671
1.39905
1.40153
1.40412
1.40682
1.40959
1.41244
1.41533
1.41825
1.42118
1.42412
1.42703
1.4299
1.43272
1.43546
1.43812
1.44069
1.44314
1.44547
1.44768
1.44977
1.45172
1.45355
1.45526
1.45687
1.4584
1.45987
1.4613
1.46271
1.46414
1.46561
1.46713
1.46874
1.47046
1.47231
1.4743
1.47645
1.47876
1.48124
1.48389
1.48669
1.48964
1.49273
1.49594
1.49925
1.50263
1.50607
1.50955
1.51304
1.51652
1.51997
1.52337
1.5267
1.52997
1.53314
1.53622
1.5392
1.54207
1.54485
1.54753
1.55012
1.55262
1.55505
1.55741
1.55972
1.56197
1.56419
1.56637
1.56852
1.57064
1.57274
1.5748
1.57683
1.57882
1.58077
1.58267
1.5845
1.58627
1.58796
1.58958
1.59111
1.59255
1.5939
1.59517
1.59636
1.59747
1.5985
1.59947
1.60037
1.60124
1.60206
1.60285
1.60362
1.60437
1.60511
1.60585
1.60658
1.6073
1.60802
1.60873
1.60941
1.61007
1.61069
1.61126
1.61175
1.61217
1.61247
1.61266
1.6127
1.61259
1.61232
1.61188
1.61125
1.61042
1.60938
1.60813
1.60664
1.60489
1.60284
1.60043
1.59758
1.59418
1.59008
1.58508
1.57892
1.57131
1.56189
1.55027
1.53599
1.51857
1.49747
1.47208
1.44162
1.40513
1.36132
1.30853
1.24466
1.16728
1.0737
0.96085
0.823501
0.645573
0.360507
0.214654
0.452752
0.620363
0.755929
0.87013
0.966435
1.04681
1.11314
1.16747
1.21194
1.24861
1.27931
1.30555
1.32849
1.34892
1.36733
1.38393
1.39878
1.4118
1.42285
1.4318
1.43852
1.44312
1.44575
1.44659
1.4459
1.4439
1.44086
1.43703
1.43265
1.42792
1.42304
1.41815
1.4134
1.40887
1.40464
1.40076
1.39727
1.39418
1.3915
1.38923
1.38735
1.38585
1.3847
1.3839
1.38342
1.38324
1.38333
1.38368
1.38428
1.38511
1.38616
1.38744
1.38892
1.3906
1.39247
1.3945
1.3967
1.39905
1.40152
1.40412
1.40681
1.40959
1.41243
1.41532
1.41824
1.42118
1.42411
1.42702
1.42989
1.43271
1.43545
1.43812
1.44068
1.44313
1.44547
1.44768
1.44976
1.45171
1.45354
1.45525
1.45686
1.45839
1.45986
1.46129
1.46271
1.46414
1.4656
1.46712
1.46874
1.47045
1.4723
1.47429
1.47644
1.47876
1.48124
1.48388
1.48668
1.48964
1.49273
1.49593
1.49924
1.50262
1.50607
1.50954
1.51303
1.51651
1.51996
1.52336
1.5267
1.52996
1.53313
1.53621
1.53919
1.54206
1.54484
1.54752
1.55011
1.55261
1.55504
1.5574
1.55971
1.56196
1.56418
1.56636
1.56851
1.57063
1.57273
1.57479
1.57682
1.57882
1.58076
1.58266
1.58449
1.58626
1.58795
1.58957
1.5911
1.59254
1.5939
1.59517
1.59635
1.59746
1.59849
1.59946
1.60037
1.60123
1.60205
1.60284
1.60361
1.60436
1.6051
1.60584
1.60657
1.60729
1.60801
1.60872
1.60941
1.61006
1.61068
1.61125
1.61175
1.61216
1.61246
1.61265
1.61269
1.61259
1.61232
1.61187
1.61124
1.61041
1.60938
1.60812
1.60663
1.60488
1.60283
1.60042
1.59757
1.59418
1.59008
1.58507
1.57892
1.57131
1.56189
1.55026
1.53598
1.51856
1.49747
1.47207
1.44161
1.40512
1.36132
1.30852
1.24466
1.16727
1.07369
0.960842
0.823491
0.645562
0.360497
0.252121
0.509028
0.685986
0.825644
0.939823
1.03268
1.10681
1.16471
1.20904
1.24256
1.2679
1.28742
1.30307
1.31635
1.32829
1.33951
1.35032
1.36073
1.37061
1.37972
1.38779
1.39459
1.3999
1.40373
1.40611
1.40715
1.407
1.4058
1.40376
1.40104
1.39784
1.3943
1.39059
1.38683
1.38312
1.37955
1.37619
1.37308
1.37027
1.36776
1.36558
1.36373
1.3622
1.361
1.3601
1.35951
1.35919
1.35914
1.35934
1.35978
1.36045
1.36135
1.36246
1.36378
1.36529
1.36699
1.36886
1.37089
1.37308
1.3754
1.37784
1.38038
1.38302
1.38573
1.38851
1.39132
1.39417
1.39702
1.39987
1.4027
1.40549
1.40823
1.4109
1.41349
1.41599
1.41838
1.42067
1.42284
1.42489
1.42683
1.42866
1.43038
1.43202
1.43359
1.43511
1.43659
1.43805
1.43953
1.44103
1.44258
1.4442
1.44591
1.44773
1.44966
1.45173
1.45392
1.45625
1.45872
1.46132
1.46405
1.46689
1.46983
1.47286
1.47595
1.47911
1.4823
1.4855
1.48871
1.4919
1.49507
1.49818
1.50124
1.50423
1.50715
1.50999
1.51275
1.51543
1.51802
1.52054
1.52298
1.52536
1.52767
1.52993
1.53213
1.5343
1.53642
1.53851
1.54055
1.54257
1.54454
1.54648
1.54837
1.55021
1.552
1.55372
1.55539
1.55699
1.55851
1.55997
1.56134
1.56264
1.56387
1.56502
1.56611
1.56713
1.5681
1.56901
1.56989
1.57072
1.57153
1.57232
1.57309
1.57385
1.5746
1.57534
1.57608
1.5768
1.57752
1.57821
1.57888
1.57951
1.5801
1.58063
1.58108
1.58144
1.58171
1.58187
1.58192
1.58185
1.58167
1.58136
1.58094
1.58041
1.57975
1.57898
1.57807
1.577
1.57573
1.57419
1.57228
1.56986
1.56677
1.56279
1.55769
1.55116
1.54289
1.53248
1.51948
1.50327
1.48299
1.45746
1.42499
1.38332
1.32959
1.26038
1.17183
1.05947
0.916367
0.724241
0.412572
0.252122
0.509037
0.685998
0.825656
0.939834
1.03269
1.10682
1.16471
1.20904
1.24255
1.26789
1.28741
1.30306
1.31634
1.32828
1.3395
1.35031
1.36072
1.3706
1.37971
1.38778
1.39458
1.3999
1.40372
1.4061
1.40715
1.40699
1.4058
1.40375
1.40104
1.39783
1.3943
1.39059
1.38682
1.38312
1.37955
1.37618
1.37308
1.37026
1.36775
1.36557
1.36372
1.3622
1.36099
1.3601
1.3595
1.35918
1.35913
1.35933
1.35977
1.36044
1.36134
1.36245
1.36377
1.36528
1.36698
1.36885
1.37089
1.37307
1.37539
1.37783
1.38037
1.38301
1.38573
1.3885
1.39132
1.39416
1.39702
1.39987
1.40269
1.40548
1.40822
1.41089
1.41348
1.41598
1.41837
1.42066
1.42283
1.42488
1.42682
1.42865
1.43038
1.43201
1.43358
1.4351
1.43658
1.43805
1.43952
1.44102
1.44257
1.4442
1.44591
1.44772
1.44966
1.45172
1.45391
1.45625
1.45871
1.46132
1.46404
1.46688
1.46982
1.47285
1.47595
1.4791
1.48229
1.4855
1.4887
1.4919
1.49506
1.49817
1.50123
1.50423
1.50714
1.50998
1.51274
1.51542
1.51801
1.52053
1.52297
1.52535
1.52766
1.52992
1.53213
1.53429
1.53641
1.5385
1.54055
1.54256
1.54453
1.54647
1.54836
1.5502
1.55199
1.55372
1.55538
1.55698
1.55851
1.55996
1.56133
1.56263
1.56386
1.56501
1.5661
1.56712
1.56809
1.569
1.56988
1.57071
1.57152
1.57231
1.57308
1.57384
1.57459
1.57533
1.57607
1.5768
1.57751
1.5782
1.57887
1.5795
1.58009
1.58062
1.58107
1.58143
1.5817
1.58186
1.58191
1.58184
1.58166
1.58136
1.58094
1.5804
1.57975
1.57897
1.57806
1.577
1.57572
1.57418
1.57227
1.56985
1.56676
1.56279
1.55768
1.55115
1.54288
1.53248
1.51948
1.50326
1.48299
1.45745
1.42498
1.38332
1.32959
1.26037
1.17182
1.05946
0.916355
0.724229
0.412561
0.286162
0.559801
0.744501
0.88681
0.99954
1.08749
1.15388
1.20185
1.23471
1.25584
1.26847
1.27547
1.27923
1.28155
1.28372
1.2865
1.29025
1.29499
1.30053
1.30654
1.31265
1.31849
1.32363
1.32789
1.33114
1.33335
1.33455
1.33481
1.33424
1.33295
1.33108
1.32877
1.32614
1.32332
1.3204
1.31749
1.31465
1.31195
1.30943
1.30713
1.30508
1.30329
1.30176
1.30052
1.29954
1.29884
1.29839
1.2982
1.29824
1.29851
1.299
1.29971
1.30062
1.30174
1.30304
1.30453
1.30619
1.308
1.30997
1.31207
1.31429
1.31663
1.31906
1.32158
1.32417
1.32682
1.3295
1.33222
1.33494
1.33766
1.34036
1.34302
1.34564
1.3482
1.35069
1.35309
1.3554
1.35761
1.35972
1.36173
1.36363
1.36544
1.36715
1.36878
1.37035
1.37185
1.37332
1.37476
1.3762
1.37766
1.37914
1.38067
1.38226
1.38393
1.3857
1.38755
1.38952
1.3916
1.39378
1.39608
1.39849
1.401
1.40361
1.40629
1.40905
1.41187
1.41473
1.41763
1.42054
1.42345
1.42635
1.42922
1.43206
1.43485
1.43758
1.44025
1.44285
1.44539
1.44786
1.45025
1.45258
1.45485
1.45705
1.4592
1.46129
1.46334
1.46534
1.4673
1.46922
1.47109
1.47293
1.47472
1.47648
1.47818
1.47984
1.48145
1.483
1.48449
1.48593
1.4873
1.4886
1.48985
1.49102
1.49214
1.4932
1.4942
1.49515
1.49605
1.49692
1.49775
1.49856
1.49934
1.50011
1.50087
1.50162
1.50237
1.50311
1.50384
1.50457
1.50529
1.50599
1.50667
1.50733
1.50795
1.50853
1.50905
1.50952
1.50995
1.51033
1.51066
1.51098
1.51128
1.51158
1.51191
1.51229
1.51273
1.51325
1.51384
1.51449
1.51517
1.51583
1.51639
1.51675
1.51679
1.51636
1.51526
1.51324
1.50989
1.50462
1.49648
1.48401
1.46511
1.4369
1.39567
1.33696
1.25567
1.14588
0.999015
0.794819
0.459552
0.286163
0.55981
0.744514
0.886822
0.99955
1.0875
1.15389
1.20185
1.2347
1.25583
1.26846
1.27547
1.27922
1.28154
1.28371
1.2865
1.29024
1.29499
1.30053
1.30654
1.31264
1.31849
1.32363
1.32788
1.33113
1.33335
1.33455
1.33481
1.33423
1.33294
1.33107
1.32876
1.32613
1.32331
1.3204
1.31749
1.31465
1.31195
1.30943
1.30713
1.30507
1.30328
1.30176
1.30051
1.29954
1.29883
1.29839
1.29819
1.29823
1.2985
1.29899
1.2997
1.30062
1.30173
1.30304
1.30452
1.30618
1.308
1.30996
1.31206
1.31429
1.31662
1.31906
1.32157
1.32416
1.32681
1.32949
1.33221
1.33493
1.33765
1.34035
1.34302
1.34564
1.34819
1.35068
1.35308
1.35539
1.35761
1.35972
1.36172
1.36362
1.36543
1.36714
1.36877
1.37034
1.37184
1.37331
1.37475
1.37619
1.37765
1.37913
1.38066
1.38226
1.38393
1.38569
1.38755
1.38951
1.39159
1.39378
1.39608
1.39848
1.40099
1.4036
1.40628
1.40904
1.41186
1.41473
1.41762
1.42053
1.42344
1.42634
1.42921
1.43205
1.43484
1.43757
1.44024
1.44285
1.44538
1.44785
1.45024
1.45257
1.45484
1.45704
1.45919
1.46128
1.46333
1.46533
1.46729
1.46921
1.47108
1.47292
1.47472
1.47647
1.47818
1.47983
1.48144
1.48299
1.48449
1.48592
1.48729
1.48859
1.48984
1.49101
1.49213
1.49319
1.49419
1.49514
1.49604
1.49691
1.49774
1.49855
1.49933
1.5001
1.50086
1.50161
1.50236
1.5031
1.50383
1.50456
1.50528
1.50598
1.50667
1.50732
1.50794
1.50852
1.50904
1.50952
1.50994
1.51032
1.51066
1.51097
1.51127
1.51157
1.51191
1.51228
1.51273
1.51324
1.51383
1.51448
1.51516
1.51582
1.51638
1.51674
1.51678
1.51635
1.51525
1.51323
1.50989
1.50462
1.49647
1.484
1.46511
1.4369
1.39566
1.33695
1.25566
1.14587
0.999002
0.794807
0.459541
0.316482
0.604939
0.796127
0.9401
1.05055
1.13285
1.19084
1.22827
1.24912
1.25738
1.25685
1.25088
1.24226
1.23312
1.22496
1.21865
1.21463
1.2129
1.21324
1.21524
1.21842
1.2223
1.22641
1.23027
1.23363
1.23633
1.23829
1.23947
1.23991
1.23966
1.23881
1.23747
1.23573
1.23369
1.23147
1.22913
1.22677
1.22444
1.22221
1.22012
1.21819
1.21647
1.21497
1.2137
1.21266
1.21186
1.2113
1.21096
1.21085
1.21094
1.21125
1.21176
1.21247
1.21336
1.21444
1.21569
1.21711
1.21867
1.22039
1.22224
1.22421
1.2263
1.22849
1.23077
1.23313
1.23556
1.23804
1.24056
1.24311
1.24568
1.24824
1.25078
1.2533
1.25578
1.25821
1.26057
1.26286
1.26507
1.26719
1.26922
1.27115
1.27299
1.27474
1.27639
1.27796
1.27946
1.28089
1.28228
1.28363
1.28495
1.28627
1.2876
1.28895
1.29033
1.29178
1.29328
1.29486
1.29653
1.2983
1.30015
1.30212
1.30418
1.30634
1.30859
1.31093
1.31335
1.31584
1.31838
1.32097
1.32359
1.32623
1.32887
1.33149
1.3341
1.33668
1.33921
1.34169
1.34411
1.34648
1.34877
1.35101
1.35318
1.35528
1.35733
1.35931
1.36124
1.36313
1.36496
1.36675
1.36851
1.37022
1.37189
1.37353
1.37514
1.3767
1.37822
1.37971
1.38114
1.38253
1.38387
1.38516
1.38639
1.38757
1.38869
1.38976
1.39077
1.39174
1.39265
1.39353
1.39436
1.39517
1.39596
1.39672
1.39748
1.39822
1.39897
1.39971
1.40047
1.40122
1.40199
1.40276
1.40354
1.40433
1.40512
1.40592
1.40672
1.40753
1.40835
1.40921
1.41011
1.41109
1.41217
1.4134
1.4148
1.41643
1.41835
1.42059
1.42322
1.42628
1.42982
1.43387
1.43845
1.44361
1.44935
1.45566
1.4625
1.46973
1.47705
1.48384
1.48905
1.49097
1.48705
1.47376
1.44652
1.39981
1.32727
1.22157
1.07252
0.858093
0.501809
0.316484
0.604948
0.796139
0.940112
1.05055
1.13286
1.19084
1.22827
1.24912
1.25737
1.25684
1.25087
1.24225
1.23312
1.22495
1.21865
1.21462
1.21289
1.21323
1.21523
1.21841
1.22229
1.22641
1.23027
1.23363
1.23633
1.23828
1.23947
1.2399
1.23965
1.23881
1.23746
1.23572
1.23369
1.23146
1.22913
1.22676
1.22444
1.2222
1.22011
1.21819
1.21647
1.21496
1.21369
1.21265
1.21186
1.21129
1.21096
1.21084
1.21094
1.21124
1.21175
1.21246
1.21336
1.21443
1.21568
1.2171
1.21867
1.22038
1.22223
1.2242
1.22629
1.22848
1.23076
1.23313
1.23555
1.23804
1.24056
1.24311
1.24567
1.24823
1.25078
1.2533
1.25577
1.2582
1.26056
1.26285
1.26506
1.26718
1.26921
1.27114
1.27298
1.27473
1.27638
1.27795
1.27945
1.28089
1.28227
1.28362
1.28494
1.28626
1.28759
1.28894
1.29033
1.29177
1.29327
1.29486
1.29653
1.29829
1.30015
1.30211
1.30417
1.30633
1.30858
1.31092
1.31334
1.31583
1.31837
1.32096
1.32358
1.32622
1.32886
1.33149
1.33409
1.33667
1.3392
1.34168
1.3441
1.34647
1.34877
1.351
1.35317
1.35527
1.35732
1.3593
1.36124
1.36312
1.36495
1.36675
1.3685
1.37021
1.37189
1.37353
1.37513
1.37669
1.37822
1.3797
1.38114
1.38253
1.38387
1.38515
1.38639
1.38756
1.38869
1.38975
1.39076
1.39173
1.39264
1.39352
1.39436
1.39516
1.39595
1.39671
1.39747
1.39822
1.39896
1.39971
1.40046
1.40121
1.40198
1.40275
1.40353
1.40432
1.40511
1.40591
1.40671
1.40752
1.40834
1.4092
1.4101
1.41108
1.41217
1.41339
1.41479
1.41643
1.41834
1.42059
1.42322
1.42628
1.42981
1.43386
1.43845
1.4436
1.44934
1.45565
1.46249
1.46973
1.47704
1.48384
1.48905
1.49097
1.48705
1.47375
1.44651
1.3998
1.32727
1.22155
1.07251
0.85808
0.5018
0.343019
0.644491
0.84117
0.986184
1.09397
1.17045
1.22
1.24701
1.25603
1.25166
1.23822
1.21953
1.19875