/*--------------------------------*- C++ -*----------------------------------*\
  =========                 |
  \\      /  F ield         | OpenFOAM: The Open Source CFD Toolbox
   \\    /   O peration     | Website:  https://openfoam.org
    \\  /    A nd           | Version:  8
     \\/     M anipulation  |
\*---------------------------------------------------------------------------*/
FoamFile
{
    version     2.0;
    format      ascii;
    class       volScalarField;
    location    "300";
    object      nut;
}
// * * * * * * * * * * * * * * * * * * * * * * * * * * * * * * * * * * * * * //

dimensions      [0 2 -1 0 0 0 0];

internalField   nonuniform List<scalar> 
46000
(
1.35114e-06
4.65201e-06
9.1427e-06
1.3736e-05
1.76844e-05
2.12132e-05
2.44071e-05
2.72993e-05
2.99118e-05
3.22618e-05
3.43633e-05
3.62278e-05
3.78655e-05
3.9285e-05
4.04941e-05
4.15006e-05
4.23122e-05
4.29372e-05
4.33886e-05
4.37145e-05
4.39225e-05
4.40034e-05
4.39618e-05
4.381e-05
4.35652e-05
4.3247e-05
4.28754e-05
4.24699e-05
4.2048e-05
4.16252e-05
4.12141e-05
4.08244e-05
4.04633e-05
4.01356e-05
3.98437e-05
3.95885e-05
3.93693e-05
3.91845e-05
3.9032e-05
3.8909e-05
3.88126e-05
3.874e-05
3.86885e-05
3.86556e-05
3.86389e-05
3.86365e-05
3.86467e-05
3.8669e-05
3.87035e-05
3.87478e-05
3.88007e-05
3.88614e-05
3.89296e-05
3.90048e-05
3.90868e-05
3.91753e-05
3.927e-05
3.93704e-05
3.9476e-05
3.95862e-05
3.97002e-05
3.98174e-05
3.9937e-05
4.00581e-05
4.018e-05
4.03019e-05
4.04231e-05
4.05427e-05
4.066e-05
4.07745e-05
4.08853e-05
4.09919e-05
4.10938e-05
4.11904e-05
4.12813e-05
4.13664e-05
4.14453e-05
4.15183e-05
4.15854e-05
4.16473e-05
4.17056e-05
4.17601e-05
4.18116e-05
4.18609e-05
4.19095e-05
4.19587e-05
4.20103e-05
4.20668e-05
4.21303e-05
4.22018e-05
4.22822e-05
4.23723e-05
4.24725e-05
4.2583e-05
4.27039e-05
4.28348e-05
4.2975e-05
4.31235e-05
4.32793e-05
4.3441e-05
4.36071e-05
4.37762e-05
4.39468e-05
4.41172e-05
4.42862e-05
4.44523e-05
4.46144e-05
4.47716e-05
4.49231e-05
4.50682e-05
4.52068e-05
4.53386e-05
4.54637e-05
4.55825e-05
4.56954e-05
4.58028e-05
4.59055e-05
4.60042e-05
4.60996e-05
4.61927e-05
4.6284e-05
4.63745e-05
4.64648e-05
4.65551e-05
4.6646e-05
4.67375e-05
4.68296e-05
4.69221e-05
4.70146e-05
4.71065e-05
4.71972e-05
4.72861e-05
4.73725e-05
4.74557e-05
4.75351e-05
4.76101e-05
4.76802e-05
4.77454e-05
4.78053e-05
4.78601e-05
4.79101e-05
4.79554e-05
4.79968e-05
4.80347e-05
4.80697e-05
4.81025e-05
4.81336e-05
4.81638e-05
4.81936e-05
4.82233e-05
4.82534e-05
4.8284e-05
4.83153e-05
4.8347e-05
4.8379e-05
4.84108e-05
4.84421e-05
4.84722e-05
4.85004e-05
4.85259e-05
4.85476e-05
4.85646e-05
4.8576e-05
4.8581e-05
4.85789e-05
4.85696e-05
4.85513e-05
4.85227e-05
4.84825e-05
4.84296e-05
4.83626e-05
4.82802e-05
4.8181e-05
4.80631e-05
4.79242e-05
4.77611e-05
4.75697e-05
4.73446e-05
4.70786e-05
4.67625e-05
4.63843e-05
4.5929e-05
4.53783e-05
4.47102e-05
4.38994e-05
4.29171e-05
4.17325e-05
4.03133e-05
3.86279e-05
3.66469e-05
3.43446e-05
3.17014e-05
2.87056e-05
2.53567e-05
2.1671e-05
1.76909e-05
1.34815e-05
8.95897e-06
4.96921e-06
1.87338e-06
1.35118e-06
4.65189e-06
9.14343e-06
1.37365e-05
1.76845e-05
2.12132e-05
2.44072e-05
2.72994e-05
2.99119e-05
3.22619e-05
3.43634e-05
3.62282e-05
3.78661e-05
3.92855e-05
4.04945e-05
4.15007e-05
4.23121e-05
4.29371e-05
4.33886e-05
4.37146e-05
4.39227e-05
4.40037e-05
4.39619e-05
4.38099e-05
4.3565e-05
4.32467e-05
4.28753e-05
4.24698e-05
4.2048e-05
4.16252e-05
4.1214e-05
4.08244e-05
4.04634e-05
4.01357e-05
3.98439e-05
3.95887e-05
3.93695e-05
3.91848e-05
3.90322e-05
3.89092e-05
3.88128e-05
3.87402e-05
3.86887e-05
3.86557e-05
3.8639e-05
3.86366e-05
3.86469e-05
3.86691e-05
3.87036e-05
3.87479e-05
3.88009e-05
3.88616e-05
3.89298e-05
3.9005e-05
3.9087e-05
3.91756e-05
3.92703e-05
3.93707e-05
3.94763e-05
3.95864e-05
3.97005e-05
3.98177e-05
3.99372e-05
4.00584e-05
4.01803e-05
4.03022e-05
4.04234e-05
4.0543e-05
4.06603e-05
4.07748e-05
4.08856e-05
4.09922e-05
4.1094e-05
4.11906e-05
4.12816e-05
4.13666e-05
4.14456e-05
4.15185e-05
4.15857e-05
4.16476e-05
4.17059e-05
4.17604e-05
4.18118e-05
4.18612e-05
4.19097e-05
4.19589e-05
4.20105e-05
4.2067e-05
4.21305e-05
4.2202e-05
4.22824e-05
4.23725e-05
4.24727e-05
4.25833e-05
4.27042e-05
4.2835e-05
4.29752e-05
4.31237e-05
4.32795e-05
4.34411e-05
4.36073e-05
4.37764e-05
4.3947e-05
4.41175e-05
4.42864e-05
4.44525e-05
4.46146e-05
4.47718e-05
4.49232e-05
4.50684e-05
4.52069e-05
4.53387e-05
4.54639e-05
4.55827e-05
4.56955e-05
4.5803e-05
4.59057e-05
4.60044e-05
4.60998e-05
4.61928e-05
4.62842e-05
4.63747e-05
4.64649e-05
4.65553e-05
4.66461e-05
4.67377e-05
4.68298e-05
4.69223e-05
4.70148e-05
4.71067e-05
4.71974e-05
4.72862e-05
4.73726e-05
4.74559e-05
4.75352e-05
4.76102e-05
4.76804e-05
4.77455e-05
4.78055e-05
4.78603e-05
4.79102e-05
4.79556e-05
4.7997e-05
4.80349e-05
4.80699e-05
4.81026e-05
4.81338e-05
4.81639e-05
4.81937e-05
4.82234e-05
4.82535e-05
4.82842e-05
4.83154e-05
4.83472e-05
4.83791e-05
4.84109e-05
4.84422e-05
4.84723e-05
4.85006e-05
4.8526e-05
4.85477e-05
4.85647e-05
4.85762e-05
4.85812e-05
4.85791e-05
4.85697e-05
4.85514e-05
4.85228e-05
4.84826e-05
4.84297e-05
4.83627e-05
4.82803e-05
4.81811e-05
4.80631e-05
4.79242e-05
4.77611e-05
4.75696e-05
4.73445e-05
4.70787e-05
4.67629e-05
4.63851e-05
4.593e-05
4.53793e-05
4.47109e-05
4.38997e-05
4.2917e-05
4.17322e-05
4.0313e-05
3.86278e-05
3.66471e-05
3.43451e-05
3.17019e-05
2.8706e-05
2.53571e-05
2.16715e-05
1.76916e-05
1.34825e-05
8.96004e-06
4.96982e-06
1.87382e-06
3.35452e-06
4.03074e-05
6.85714e-05
8.97398e-05
0.000106927
0.000121094
0.000132791
0.000142413
0.000150275
0.000156632
0.000161703
0.000165673
0.000168705
0.000170937
0.000172492
0.000173475
0.000173974
0.000174061
0.000173779
0.000173096
0.000172205
0.000171172
0.000170056
0.000168907
0.000167766
0.000166667
0.000165636
0.000164693
0.000163851
0.000163118
0.000162496
0.000161982
0.000161571
0.000161254
0.000161022
0.000160864
0.000160769
0.000160727
0.000160729
0.000160766
0.00016083
0.000160916
0.000161019
0.000161135
0.000161262
0.000161396
0.000161537
0.000161682
0.000161832
0.000161988
0.00016215
0.000162321
0.0001625
0.000162689
0.000162887
0.000163094
0.000163309
0.000163532
0.000163762
0.000163997
0.000164236
0.000164478
0.000164721
0.000164964
0.000165205
0.000165444
0.000165678
0.000165906
0.000166128
0.000166342
0.000166548
0.000166744
0.000166929
0.000167103
0.000167267
0.000167418
0.000167558
0.000167688
0.000167808
0.000167919
0.000168023
0.000168121
0.000168218
0.000168317
0.000168422
0.000168536
0.000168663
0.000168804
0.00016896
0.000169132
0.000169322
0.000169531
0.000169758
0.000170003
0.000170265
0.000170542
0.000170831
0.000171131
0.000171438
0.000171748
0.00017206
0.000172371
0.000172676
0.000172976
0.000173266
0.000173546
0.000173813
0.000174069
0.000174311
0.00017454
0.000174757
0.000174962
0.000175155
0.00017534
0.000175516
0.000175686
0.00017585
0.000176012
0.000176171
0.00017633
0.00017649
0.000176652
0.000176816
0.000176982
0.000177151
0.000177322
0.000177494
0.000177665
0.000177836
0.000178004
0.000178167
0.000178325
0.000178476
0.000178619
0.000178753
0.000178876
0.00017899
0.000179094
0.000179189
0.000179274
0.000179352
0.000179423
0.000179488
0.000179549
0.000179607
0.000179664
0.00017972
0.000179776
0.000179834
0.000179893
0.000179953
0.000180015
0.000180079
0.000180143
0.000180206
0.000180268
0.000180328
0.000180383
0.000180432
0.000180474
0.000180507
0.000180529
0.000180537
0.000180531
0.000180509
0.000180465
0.000180398
0.000180307
0.000180191
0.000180048
0.000179877
0.000179675
0.000179439
0.000179165
0.000178846
0.000178475
0.000178039
0.000177523
0.000176907
0.000176161
0.000175253
0.000174136
0.000172757
0.000171052
0.000168947
0.000166358
0.000163195
0.000159365
0.000154775
0.000149337
0.000142973
0.000135626
0.000127256
0.00011786
0.000107466
9.6123e-05
8.37497e-05
6.93399e-05
4.63337e-05
5.77214e-06
3.35466e-06
4.03072e-05
6.85709e-05
8.97391e-05
0.000106926
0.000121093
0.000132789
0.000142411
0.000150273
0.000156631
0.000161702
0.000165673
0.000168704
0.000170937
0.000172492
0.000173475
0.000173974
0.000174062
0.00017378
0.000173097
0.000172206
0.000171174
0.000170058
0.000168909
0.000167767
0.000166668
0.000165637
0.000164694
0.000163853
0.00016312
0.000162498
0.000161984
0.000161572
0.000161256
0.000161024
0.000160866
0.000160771
0.000160729
0.000160731
0.000160767
0.000160832
0.000160918
0.000161021
0.000161137
0.000161263
0.000161398
0.000161539
0.000161684
0.000161834
0.000161989
0.000162152
0.000162323
0.000162502
0.000162691
0.000162888
0.000163095
0.00016331
0.000163533
0.000163763
0.000163998
0.000164237
0.000164479
0.000164723
0.000164965
0.000165207
0.000165445
0.000165679
0.000165908
0.00016613
0.000166344
0.000166549
0.000166745
0.000166931
0.000167105
0.000167268
0.00016742
0.00016756
0.000167689
0.000167809
0.000167921
0.000168024
0.000168123
0.00016822
0.000168319
0.000168424
0.000168538
0.000168664
0.000168806
0.000168961
0.000169134
0.000169324
0.000169532
0.00016976
0.000170005
0.000170267
0.000170544
0.000170833
0.000171132
0.000171439
0.00017175
0.000172062
0.000172372
0.000172678
0.000172977
0.000173267
0.000173547
0.000173815
0.00017407
0.000174312
0.000174542
0.000174758
0.000174963
0.000175157
0.000175341
0.000175518
0.000175687
0.000175852
0.000176013
0.000176173
0.000176332
0.000176492
0.000176654
0.000176817
0.000176984
0.000177153
0.000177323
0.000177495
0.000177667
0.000177838
0.000178005
0.000178169
0.000178327
0.000178478
0.000178621
0.000178754
0.000178878
0.000178992
0.000179096
0.00017919
0.000179276
0.000179353
0.000179424
0.00017949
0.000179551
0.000179609
0.000179666
0.000179722
0.000179778
0.000179835
0.000179894
0.000179955
0.000180017
0.00018008
0.000180144
0.000180208
0.00018027
0.000180329
0.000180385
0.000180434
0.000180476
0.000180509
0.00018053
0.000180539
0.000180533
0.000180511
0.000180466
0.000180399
0.000180308
0.000180192
0.00018005
0.000179878
0.000179676
0.00017944
0.000179166
0.000178847
0.000178476
0.00017804
0.000177525
0.000176908
0.000176163
0.000175255
0.000174138
0.00017276
0.000171054
0.000168948
0.000166359
0.000163196
0.000159366
0.000154776
0.000149338
0.000142975
0.000135628
0.000127258
0.000117862
0.000107468
9.61256e-05
8.37528e-05
6.93432e-05
4.63356e-05
5.7719e-06
6.08035e-06
5.97569e-05
0.000108292
0.000145639
0.000175443
0.000199594
0.000219176
0.00023493
0.00024743
0.000257157
0.000264531
0.000269929
0.000273685
0.000276096
0.000277421
0.000277879
0.000277655
0.000276894
0.000275697
0.000274103
0.000272277
0.000270342
0.000268385
0.000266474
0.000264661
0.000262987
0.000261479
0.000260155
0.000259023
0.000258083
0.000257328
0.000256747
0.000256325
0.000256044
0.000255885
0.00025583
0.00025586
0.000255958
0.000256109
0.000256299
0.000256518
0.000256756
0.000257007
0.000257266
0.000257528
0.000257792
0.000258055
0.000258317
0.000258576
0.000258836
0.000259098
0.000259365
0.000259638
0.000259918
0.000260206
0.000260502
0.000260805
0.000261115
0.000261431
0.000261752
0.000262076
0.000262401
0.000262726
0.000263049
0.000263368
0.000263683
0.000263991
0.000264292
0.000264584
0.000264865
0.000265136
0.000265394
0.000265639
0.000265871
0.000266089
0.000266293
0.000266484
0.000266662
0.000266829
0.000266987
0.000267137
0.000267283
0.00026743
0.000267582
0.000267744
0.000267919
0.000268111
0.000268322
0.000268552
0.000268803
0.000269075
0.000269368
0.000269683
0.000270017
0.000270368
0.000270733
0.00027111
0.000271494
0.000271882
0.00027227
0.000272654
0.000273031
0.000273399
0.000273755
0.000274096
0.000274422
0.000274732
0.000275025
0.000275302
0.000275563
0.000275811
0.000276045
0.000276268
0.000276482
0.000276689
0.000276892
0.000277091
0.00027729
0.00027749
0.000277692
0.000277898
0.000278109
0.000278324
0.000278543
0.000278766
0.000278992
0.000279219
0.000279445
0.000279669
0.000279888
0.0002801
0.000280304
0.000280498
0.000280681
0.00028085
0.000281007
0.000281151
0.000281283
0.000281402
0.000281511
0.000281611
0.000281703
0.000281789
0.000281871
0.000281951
0.000282029
0.000282108
0.000282188
0.000282271
0.000282355
0.000282442
0.00028253
0.00028262
0.000282709
0.000282798
0.000282883
0.000282965
0.000283039
0.000283106
0.000283161
0.000283204
0.000283232
0.000283243
0.000283234
0.000283204
0.000283147
0.000283063
0.00028295
0.000282809
0.000282637
0.000282434
0.000282197
0.000281923
0.000281609
0.000281246
0.000280825
0.000280332
0.000279746
0.000279041
0.000278182
0.00027712
0.000275798
0.000274145
0.000272073
0.000269485
0.000266267
0.000262295
0.000257439
0.00025156
0.000244519
0.000236174
0.00022639
0.000215033
0.000201963
0.000186998
0.000169761
0.000149143
0.000121548
7.65128e-05
1.11658e-05
6.08077e-06
5.97567e-05
0.000108289
0.000145635
0.000175439
0.00019959
0.000219172
0.000234927
0.000247428
0.000257155
0.000264531
0.000269929
0.000273686
0.000276098
0.000277423
0.000277882
0.000277658
0.000276898
0.000275701
0.000274107
0.000272281
0.000270347
0.00026839
0.000266478
0.000264666
0.000262992
0.000261484
0.00026016
0.000259028
0.000258087
0.000257332
0.000256751
0.000256329
0.000256048
0.00025589
0.000255835
0.000255865
0.000255962
0.000256113
0.000256304
0.000256522
0.000256761
0.000257012
0.00025727
0.000257533
0.000257797
0.00025806
0.000258321
0.000258581
0.000258841
0.000259103
0.00025937
0.000259643
0.000259923
0.00026021
0.000260506
0.00026081
0.00026112
0.000261436
0.000261757
0.00026208
0.000262405
0.00026273
0.000263053
0.000263373
0.000263688
0.000263996
0.000264297
0.000264589
0.00026487
0.000265141
0.000265399
0.000265644
0.000265876
0.000266094
0.000266298
0.000266489
0.000266667
0.000266834
0.000266992
0.000267142
0.000267288
0.000267435
0.000267587
0.000267749
0.000267924
0.000268116
0.000268327
0.000268557
0.000268807
0.000269079
0.000269373
0.000269688
0.000270022
0.000270373
0.000270738
0.000271115
0.000271499
0.000271887
0.000272274
0.000272659
0.000273036
0.000273404
0.00027376
0.000274101
0.000274427
0.000274737
0.00027503
0.000275307
0.000275568
0.000275815
0.00027605
0.000276273
0.000276487
0.000276694
0.000276897
0.000277096
0.000277295
0.000277495
0.000277697
0.000277903
0.000278114
0.000278329
0.000278548
0.000278771
0.000278997
0.000279224
0.00027945
0.000279674
0.000279893
0.000280105
0.000280309
0.000280503
0.000280686
0.000280855
0.000281012
0.000281156
0.000281288
0.000281407
0.000281516
0.000281616
0.000281708
0.000281794
0.000281876
0.000281956
0.000282034
0.000282113
0.000282193
0.000282276
0.00028236
0.000282447
0.000282535
0.000282625
0.000282714
0.000282803
0.000282888
0.00028297
0.000283044
0.00028311
0.000283166
0.000283209
0.000283237
0.000283247
0.000283239
0.000283209
0.000283152
0.000283067
0.000282955
0.000282814
0.000282642
0.000282439
0.000282202
0.000281928
0.000281613
0.00028125
0.000280829
0.000280336
0.000279751
0.000279046
0.000278186
0.000277125
0.000275803
0.000274149
0.000272078
0.000269489
0.000266271
0.0002623
0.000257444
0.000251565
0.000244524
0.000236179
0.000226395
0.000215038
0.000201968
0.000187002
0.000169765
0.000149147
0.000121551
7.65139e-05
1.11653e-05
9.25633e-06
7.16313e-05
0.000132108
0.000180083
0.000218708
0.000250142
0.000275705
0.000296305
0.00031264
0.000325298
0.000334808
0.000341653
0.000346278
0.000349093
0.00035046
0.000350696
0.000350069
0.000348792
0.000347029
0.000344895
0.000342477
0.000339977
0.000337492
0.000335098
0.000332853
0.000330801
0.000328968
0.000327372
0.000326016
0.000324899
0.000324009
0.000323331
0.000322846
0.000322532
0.000322366
0.000322324
0.000322385
0.000322529
0.000322736
0.000322991
0.000323281
0.000323594
0.000323921
0.000324257
0.000324595
0.000324934
0.000325271
0.000325603
0.000325932
0.000326259
0.000326587
0.000326918
0.000327252
0.000327593
0.000327941
0.000328295
0.000328657
0.000329025
0.000329399
0.000329777
0.000330157
0.000330539
0.000330921
0.0003313
0.000331675
0.000332046
0.000332409
0.000332765
0.000333111
0.000333446
0.000333769
0.000334079
0.000334375
0.000334657
0.000334925
0.000335177
0.000335416
0.000335641
0.000335855
0.000336058
0.000336254
0.000336447
0.000336641
0.000336841
0.000337051
0.000337275
0.000337517
0.000337777
0.000338058
0.000338359
0.000338682
0.000339027
0.000339391
0.000339775
0.000340174
0.000340586
0.000341007
0.000341433
0.000341861
0.000342287
0.000342707
0.000343117
0.000343516
0.0003439
0.000344268
0.00034462
0.000344954
0.000345271
0.000345571
0.000345856
0.000346127
0.000346386
0.000346634
0.000346875
0.00034711
0.000347341
0.000347572
0.000347804
0.000348038
0.000348276
0.000348519
0.000348768
0.000349022
0.000349281
0.000349544
0.00034981
0.000350076
0.000350342
0.000350603
0.000350859
0.000351107
0.000351345
0.000351572
0.000351785
0.000351984
0.000352169
0.00035234
0.000352496
0.00035264
0.000352773
0.000352895
0.00035301
0.000353118
0.000353222
0.000353323
0.000353424
0.000353524
0.000353626
0.00035373
0.000353835
0.000353943
0.000354053
0.000354163
0.000354273
0.000354381
0.000354485
0.000354585
0.000354676
0.000354758
0.000354829
0.000354885
0.000354926
0.000354948
0.000354949
0.000354926
0.000354878
0.000354803
0.0003547
0.000354571
0.000354414
0.000354228
0.000354014
0.000353769
0.00035349
0.000353171
0.000352803
0.000352371
0.000351857
0.000351232
0.000350458
0.000349485
0.000348251
0.000346677
0.00034467
0.00034212
0.0003389
0.000334869
0.00032987
0.00032373
0.000316262
0.000307258
0.000296484
0.00028367
0.000268474
0.000250387
0.000228465
0.000200561
0.000161373
9.91305e-05
1.64199e-05
9.25699e-06
7.16309e-05
0.000132105
0.000180077
0.000218703
0.000250137
0.000275701
0.000296302
0.000312638
0.000325298
0.000334809
0.000341654
0.000346281
0.000349096
0.000350464
0.000350701
0.000350074
0.000348798
0.000347036
0.000344902
0.000342485
0.000339985
0.0003375
0.000335106
0.000332861
0.000330809
0.000328976
0.00032738
0.000326024
0.000324907
0.000324017
0.000323339
0.000322854
0.00032254
0.000322374
0.000322332
0.000322393
0.000322537
0.000322744
0.000322999
0.000323289
0.000323601
0.000323929
0.000324264
0.000324603
0.000324942
0.000325278
0.000325611
0.00032594
0.000326267
0.000326595
0.000326926
0.00032726
0.000327601
0.000327949
0.000328304
0.000328665
0.000329033
0.000329407
0.000329785
0.000330166
0.000330547
0.000330929
0.000331308
0.000331684
0.000332054
0.000332418
0.000332773
0.000333119
0.000333454
0.000333777
0.000334088
0.000334384
0.000334666
0.000334933
0.000335186
0.000335424
0.00033565
0.000335863
0.000336066
0.000336263
0.000336455
0.00033665
0.000336849
0.000337059
0.000337284
0.000337525
0.000337786
0.000338066
0.000338368
0.000338691
0.000339035
0.0003394
0.000339783
0.000340182
0.000340594
0.000341015
0.000341442
0.00034187
0.000342295
0.000342715
0.000343125
0.000343524
0.000343908
0.000344277
0.000344629
0.000344963
0.00034528
0.00034558
0.000345865
0.000346136
0.000346394
0.000346643
0.000346883
0.000347119
0.00034735
0.000347581
0.000347813
0.000348047
0.000348285
0.000348528
0.000348777
0.000349031
0.00034929
0.000349553
0.000349819
0.000350085
0.00035035
0.000350612
0.000350868
0.000351116
0.000351354
0.000351581
0.000351794
0.000351993
0.000352178
0.000352348
0.000352505
0.000352649
0.000352781
0.000352904
0.000353019
0.000353127
0.000353231
0.000353332
0.000353432
0.000353533
0.000353635
0.000353738
0.000353844
0.000353952
0.000354062
0.000354172
0.000354282
0.00035439
0.000354494
0.000354593
0.000354685
0.000354767
0.000354838
0.000354894
0.000354934
0.000354956
0.000354958
0.000354935
0.000354886
0.000354811
0.000354709
0.000354579
0.000354422
0.000354237
0.000354023
0.000353778
0.000353498
0.000353179
0.000352811
0.00035238
0.000351865
0.00035124
0.000350466
0.000349493
0.000348259
0.000346685
0.000344678
0.000342128
0.000338908
0.000334877
0.000329878
0.000323739
0.000316271
0.000307266
0.000296492
0.000283678
0.000268482
0.000250395
0.000228472
0.000200567
0.000161377
9.91318e-05
1.64194e-05
1.22425e-05
8.1971e-05
0.000149954
0.000204548
0.00024876
0.000284888
0.000314388
0.000338253
0.000357243
0.000371994
0.000383074
0.000391019
0.00039633
0.000399483
0.000400912
0.000401004
0.000400093
0.000398451
0.000396291
0.000393769
0.000390989
0.000388135
0.000385322
0.000382633
0.000380127
0.000377846
0.000375816
0.00037405
0.00037255
0.000371311
0.00037032
0.00036956
0.000369008
0.000368642
0.000368437
0.00036837
0.000368415
0.000368553
0.000368764
0.000369029
0.000369335
0.000369669
0.000370021
0.000370385
0.000370755
0.000371126
0.000371496
0.000371862
0.000372225
0.000372587
0.000372948
0.000373313
0.000373681
0.000374055
0.000374435
0.000374823
0.000375217
0.000375618
0.000376025
0.000376436
0.000376851
0.000377268
0.000377684
0.0003781
0.000378513
0.000378921
0.000379324
0.000379719
0.000380105
0.000380482
0.000380847
0.000381199
0.000381539
0.000381864
0.000382175
0.000382471
0.000382754
0.000383023
0.00038328
0.000383527
0.000383767
0.000384003
0.000384239
0.000384481
0.000384732
0.000384995
0.000385274
0.000385568
0.000385881
0.000386212
0.000386562
0.000386931
0.000387317
0.000387719
0.000388135
0.000388561
0.000388994
0.00038943
0.000389866
0.000390299
0.000390725
0.000391142
0.000391546
0.000391937
0.000392313
0.000392673
0.000393017
0.000393345
0.000393659
0.000393959
0.000394247
0.000394525
0.000394795
0.000395059
0.000395319
0.000395577
0.000395836
0.000396096
0.00039636
0.000396629
0.000396902
0.000397181
0.000397466
0.000397755
0.000398047
0.000398341
0.000398635
0.000398928
0.000399216
0.000399497
0.000399769
0.000400031
0.000400281
0.000400518
0.00040074
0.000400947
0.00040114
0.00040132
0.000401486
0.000401641
0.000401786
0.000401923
0.000402053
0.000402178
0.000402301
0.000402422
0.000402543
0.000402664
0.000402787
0.000402911
0.000403037
0.000403163
0.00040329
0.000403416
0.00040354
0.00040366
0.000403774
0.000403882
0.000403979
0.000404066
0.000404139
0.000404197
0.000404238
0.000404259
0.000404258
0.000404236
0.00040419
0.000404123
0.000404035
0.000403926
0.000403799
0.000403654
0.00040349
0.000403309
0.000403105
0.000402872
0.0004026
0.000402271
0.000401861
0.000401332
0.00040064
0.000399721
0.000398499
0.000396881
0.000394754
0.000391985
0.000388422
0.000383888
0.000378178
0.000371052
0.000362225
0.000351354
0.000338007
0.000321608
0.000301299
0.00027559
0.000241522
0.00019279
0.000117304
2.08819e-05
1.22427e-05
8.19699e-05
0.000149949
0.000204542
0.000248753
0.000284882
0.000314383
0.000338251
0.000357242
0.000371994
0.000383076
0.000391022
0.000396335
0.000399488
0.000400918
0.000401011
0.000400101
0.000398459
0.0003963
0.000393779
0.000390998
0.000388145
0.000385332
0.000382643
0.000380137
0.000377856
0.000375826
0.00037406
0.000372561
0.000371322
0.00037033
0.00036957
0.000369018
0.000368652
0.000368447
0.000368379
0.000368425
0.000368563
0.000368773
0.000369039
0.000369345
0.000369679
0.000370031
0.000370395
0.000370765
0.000371136
0.000371506
0.000371873
0.000372236
0.000372597
0.000372959
0.000373323
0.000373691
0.000374065
0.000374446
0.000374833
0.000375228
0.000375629
0.000376036
0.000376447
0.000376862
0.000377278
0.000377695
0.000378111
0.000378524
0.000378932
0.000379335
0.00037973
0.000380116
0.000380493
0.000380858
0.00038121
0.00038155
0.000381875
0.000382186
0.000382482
0.000382765
0.000383034
0.000383291
0.000383538
0.000383778
0.000384014
0.000384251
0.000384492
0.000384743
0.000385006
0.000385285
0.000385579
0.000385892
0.000386223
0.000386573
0.000386942
0.000387328
0.00038773
0.000388146
0.000388572
0.000389005
0.000389441
0.000389878
0.00039031
0.000390736
0.000391153
0.000391557
0.000391948
0.000392324
0.000392684
0.000393028
0.000393357
0.00039367
0.000393971
0.000394259
0.000394537
0.000394807
0.000395071
0.000395331
0.000395589
0.000395847
0.000396108
0.000396372
0.00039664
0.000396914
0.000397193
0.000397477
0.000397766
0.000398059
0.000398353
0.000398647
0.000398939
0.000399227
0.000399508
0.000399781
0.000400043
0.000400293
0.000400529
0.000400751
0.000400959
0.000401152
0.000401331
0.000401497
0.000401652
0.000401797
0.000401934
0.000402064
0.00040219
0.000402313
0.000402434
0.000402554
0.000402676
0.000402798
0.000402923
0.000403048
0.000403175
0.000403302
0.000403428
0.000403551
0.000403671
0.000403786
0.000403893
0.000403991
0.000404077
0.00040415
0.000404208
0.000404249
0.00040427
0.00040427
0.000404247
0.000404201
0.000404134
0.000404046
0.000403937
0.00040381
0.000403664
0.000403501
0.000403319
0.000403116
0.000402883
0.000402611
0.000402282
0.000401871
0.000401343
0.00040065
0.000399732
0.00039851
0.000396892
0.000394764
0.000391996
0.000388433
0.000383899
0.000378189
0.000371063
0.000362236
0.000351365
0.000338018
0.000321619
0.000301309
0.000275599
0.00024153
0.000192796
0.000117306
2.08813e-05
1.50846e-05
9.15122e-05
0.00016496
0.000223846
0.000271469
0.000310356
0.000342113
0.000367825
0.000388309
0.000404232
0.000416186
0.000424721
0.000430363
0.000433615
0.000434954
0.000434814
0.000433578
0.000431565
0.000429031
0.000426164
0.000423094
0.000419967
0.000416917
0.000414027
0.000411355
0.000408936
0.000406791
0.000404928
0.000403345
0.000402033
0.000400977
0.000400157
0.000399551
0.000399135
0.000398885
0.000398777
0.000398787
0.000398894
0.000399077
0.000399321
0.00039961
0.000399931
0.000400275
0.000400634
0.000401002
0.000401374
0.000401747
0.000402119
0.000402489
0.000402858
0.000403228
0.000403601
0.000403979
0.000404363
0.000404754
0.000405153
0.000405559
0.000405972
0.000406392
0.000406818
0.000407248
0.000407681
0.000408116
0.000408552
0.000408986
0.000409418
0.000409846
0.000410268
0.000410683
0.00041109
0.000411488
0.000411874
0.000412249
0.000412611
0.00041296
0.000413296
0.000413618
0.000413928
0.000414226
0.000414514
0.000414794
0.000415069
0.000415344
0.000415622
0.000415907
0.0004162
0.000416505
0.000416822
0.000417153
0.000417497
0.000417857
0.00041823
0.000418617
0.000419016
0.000419424
0.00041984
0.00042026
0.000420681
0.000421101
0.000421517
0.000421927
0.000422328
0.000422718
0.000423097
0.000423464
0.000423817
0.000424159
0.000424488
0.000424805
0.000425113
0.000425412
0.000425704
0.000425991
0.000426274
0.000426555
0.000426837
0.000427119
0.000427405
0.000427694
0.000427988
0.000428286
0.00042859
0.000428897
0.000429209
0.000429522
0.000429836
0.000430149
0.000430459
0.000430764
0.000431062
0.00043135
0.000431629
0.000431895
0.000432148
0.000432387
0.000432613
0.000432825
0.000433023
0.00043321
0.000433386
0.000433552
0.00043371
0.000433861
0.000434008
0.000434151
0.000434291
0.000434431
0.000434571
0.00043471
0.000434851
0.000434992
0.000435133
0.000435273
0.000435413
0.00043555
0.000435683
0.000435811
0.000435933
0.000436047
0.000436152
0.000436245
0.000436326
0.000436393
0.000436444
0.000436478
0.000436496
0.0004365
0.00043649
0.000436469
0.00043644
0.000436406
0.000436372
0.00043634
0.000436312
0.000436289
0.00043627
0.000436247
0.00043621
0.000436138
0.000436002
0.000435762
0.000435361
0.00043473
0.000433779
0.000432397
0.00043045
0.000427775
0.000424175
0.000419407
0.000413172
0.0004051
0.00039472
0.000381429
0.000364409
0.000342465
0.000313646
0.000274405
0.000217882
0.000132088
2.48931e-05
1.50846e-05
9.15109e-05
0.000164955
0.00022384
0.000271462
0.000310351
0.000342108
0.000367823
0.000388308
0.000404233
0.000416189
0.000424726
0.000430368
0.000433622
0.000434961
0.000434822
0.000433587
0.000431575
0.000429041
0.000426174
0.000423105
0.000419978
0.000416929
0.000414039
0.000411367
0.000408948
0.000406803
0.00040494
0.000403357
0.000402045
0.000400988
0.000400168
0.000399562
0.000399147
0.000398897
0.000398788
0.000398798
0.000398905
0.000399089
0.000399332
0.000399621
0.000399943
0.000400287
0.000400646
0.000401014
0.000401386
0.000401759
0.000402131
0.000402501
0.00040287
0.00040324
0.000403613
0.000403991
0.000404375
0.000404766
0.000405165
0.000405571
0.000405984
0.000406404
0.00040683
0.00040726
0.000407693
0.000408129
0.000408564
0.000408999
0.00040943
0.000409858
0.000410281
0.000410696
0.000411103
0.000411501
0.000411887
0.000412262
0.000412624
0.000412973
0.000413308
0.000413631
0.000413941
0.000414239
0.000414527
0.000414806
0.000415082
0.000415357
0.000415635
0.000415919
0.000416213
0.000416518
0.000416835
0.000417165
0.00041751
0.00041787
0.000418243
0.00041863
0.000419029
0.000419437
0.000419853
0.000420272
0.000420694
0.000421114
0.00042153
0.000421939
0.00042234
0.000422731
0.00042311
0.000423477
0.00042383
0.000424172
0.000424501
0.000424818
0.000425126
0.000425425
0.000425717
0.000426004
0.000426287
0.000426568
0.00042685
0.000427133
0.000427418
0.000427707
0.000428001
0.0004283
0.000428603
0.000428911
0.000429222
0.000429535
0.000429849
0.000430162
0.000430472
0.000430777
0.000431075
0.000431364
0.000431642
0.000431908
0.000432161
0.000432401
0.000432626
0.000432838
0.000433037
0.000433223
0.000433399
0.000433565
0.000433723
0.000433874
0.000434021
0.000434164
0.000434305
0.000434444
0.000434584
0.000434724
0.000434864
0.000435005
0.000435146
0.000435286
0.000435426
0.000435563
0.000435696
0.000435824
0.000435946
0.00043606
0.000436165
0.000436258
0.000436339
0.000436406
0.000436457
0.000436491
0.000436509
0.000436512
0.000436502
0.000436481
0.000436452
0.000436419
0.000436384
0.000436352
0.000436324
0.000436302
0.000436282
0.00043626
0.000436222
0.00043615
0.000436014
0.000435774
0.000435374
0.000434743
0.000433791
0.00043241
0.000430463
0.000427788
0.000424188
0.00041942
0.000413185
0.000405112
0.000394733
0.000381441
0.000364421
0.000342476
0.000313656
0.000274414
0.000217889
0.00013209
2.48923e-05
1.77266e-05
0.00010027
0.000178015
0.00023981
0.000289451
0.000329765
0.000362539
0.000388981
0.000409984
0.000426263
0.000438433
0.00044705
0.00045264
0.000455712
0.000456755
0.000456231
0.000454554
0.000452083
0.000449107
0.000445847
0.000442458
0.000439049
0.000435768
0.000432696
0.000429882
0.000427355
0.000425128
0.0004232
0.000421563
0.000420204
0.000419104
0.00041824
0.000417591
0.00041713
0.000416834
0.000416679
0.000416643
0.000416705
0.000416845
0.000417048
0.000417299
0.000417586
0.000417899
0.00041823
0.000418573
0.000418923
0.000419277
0.000419632
0.000419987
0.000420343
0.000420701
0.000421064
0.000421432
0.000421808
0.000422192
0.000422584
0.000422984
0.000423393
0.00042381
0.000424234
0.000424665
0.0004251
0.00042554
0.000425982
0.000426425