/*--------------------------------*- C++ -*----------------------------------*\
  =========                 |
  \\      /  F ield         | OpenFOAM: The Open Source CFD Toolbox
   \\    /   O peration     | Website:  https://openfoam.org
    \\  /    A nd           | Version:  8
     \\/     M anipulation  |
\*---------------------------------------------------------------------------*/
FoamFile
{
    version     2.0;
    format      ascii;
    class       surfaceScalarField;
    location    "300";
    object      phi;
}
// * * * * * * * * * * * * * * * * * * * * * * * * * * * * * * * * * * * * * //

dimensions      [1 0 -1 0 0 0 0];

internalField   nonuniform List<scalar> 
114370
(
-6.75034e-09
-5.32315e-13
6.75087e-09
-6.74586e-09
-8.37294e-13
-3.61159e-12
-9.08913e-10
-1.20238e-13
-5.83398e-09
8.15941e-09
-6.32125e-14
-9.06787e-09
1.85799e-08
-3.70414e-13
-1.04213e-08
2.93494e-08
-5.01836e-13
-1.07697e-08
3.98706e-08
-5.03284e-13
-1.05206e-08
4.97743e-08
-4.75615e-13
-9.90306e-09
5.88328e-08
-4.41583e-13
-9.05815e-09
6.69119e-08
-3.75047e-13
-8.07902e-09
7.39435e-08
-2.54166e-13
-7.03154e-09
7.99085e-08
-9.22809e-14
-5.9647e-09
8.4825e-08
5.20967e-14
-4.91589e-09
8.87395e-08
1.12266e-13
-3.91366e-09
9.17192e-08
7.01415e-14
-2.97919e-09
9.38466e-08
-2.56866e-14
-2.1274e-09
9.52142e-08
-9.62629e-14
-1.36809e-09
9.59204e-08
-9.34244e-14
-7.06821e-10
9.60656e-08
-2.14078e-14
-1.45647e-10
9.57472e-08
7.90599e-14
3.18368e-10
9.50557e-08
1.5152e-13
6.91919e-10
9.40744e-08
1.48645e-13
9.81855e-10
9.28793e-08
6.05645e-14
1.19556e-09
9.15382e-08
-6.65835e-14
1.34118e-09
9.01108e-08
-1.5973e-13
1.42729e-09
8.8648e-08
-1.77888e-13
1.46255e-09
8.71926e-08
-1.4021e-13
1.45537e-09
8.57791e-08
-9.65985e-14
1.4138e-09
8.44341e-08
-7.81456e-14
1.34542e-09
8.31771e-08
-8.0643e-14
1.25727e-09
8.20216e-08
-8.44365e-14
1.1557e-09
8.09755e-08
-7.54335e-14
1.04625e-09
8.00421e-08
-5.2304e-14
9.33575e-10
7.92207e-08
-2.27335e-14
8.21515e-10
7.85077e-08
4.89607e-15
7.13095e-10
7.78972e-08
2.52664e-14
6.106e-10
7.73817e-08
3.53294e-14
5.15633e-10
7.69526e-08
3.38951e-14
4.2919e-10
7.66009e-08
2.23758e-14
3.51761e-10
7.63176e-08
4.60708e-15
2.83414e-10
7.60937e-08
-1.47997e-14
2.23887e-10
7.59211e-08
-3.15054e-14
1.72664e-10
7.57921e-08
-4.24122e-14
1.29044e-10
7.56999e-08
-4.68484e-14
9.22002e-11
7.56387e-08
-4.56303e-14
6.12301e-11
7.56035e-08
-3.97388e-14
3.52107e-11
7.55904e-08
-3.0523e-14
1.3236e-11
7.5596e-08
-1.99974e-14
-5.40585e-12
7.56174e-08
-1.04257e-14
-2.1242e-11
7.56524e-08
-3.37101e-15
-3.48465e-11
7.56994e-08
6.01825e-16
-4.67918e-11
7.57572e-08
1.39611e-15
-5.75387e-11
7.58249e-08
-4.67309e-16
-6.74233e-11
7.59018e-08
-3.63296e-15
-7.66577e-11
7.59873e-08
-6.4585e-15
-8.53406e-11
7.6081e-08
-7.76691e-15
-9.34755e-11
7.61821e-08
-7.11248e-15
-1.00994e-10
7.62899e-08
-4.48307e-15
-1.07778e-10
7.64037e-08
9.15071e-17
-1.1368e-10
7.65222e-08
6.4265e-15
-1.1855e-10
7.66445e-08
1.40515e-14
-1.22251e-10
7.67693e-08
2.24503e-14
-1.24673e-10
7.68952e-08
3.11038e-14
-1.25742e-10
7.70208e-08
3.91599e-14
-1.2543e-10
7.71448e-08
4.53393e-14
-1.23746e-10
7.72657e-08
4.82797e-14
-1.20742e-10
7.73824e-08
4.70399e-14
-1.16491e-10
7.74937e-08
4.14508e-14
-1.11089e-10
7.75983e-08
3.22048e-14
-1.04637e-10
7.76955e-08
2.07178e-14
-9.72401e-11
7.77844e-08
9.00291e-15
-8.89994e-11
7.78643e-08
-5.64739e-16
-8.00164e-11
7.79346e-08
-5.79915e-15
-7.03975e-11
7.79947e-08
-5.37696e-15
-6.02636e-11
7.80444e-08
8.2132e-16
-4.97627e-11
7.80835e-08
1.16217e-14
-3.90814e-11
7.8112e-08
2.46501e-14
-2.84544e-11
7.81303e-08
3.68165e-14
-1.81654e-11
7.81389e-08
4.51954e-14
-8.53799e-12
7.81389e-08
4.77841e-14
7.93189e-14
7.81315e-08
4.39251e-14
7.40002e-12
7.81184e-08
3.44718e-14
1.31242e-11
7.81015e-08
2.16345e-14
1.68678e-11
7.80832e-08
8.39466e-15
1.8259e-11
7.80662e-08
-2.31746e-15
1.69618e-11
7.80535e-08
-8.21215e-15
1.27003e-11
7.80484e-08
-8.05026e-15
5.29082e-12
7.80538e-08
-2.10156e-15
-5.28982e-12
7.80728e-08
7.64056e-15
-1.88492e-11
7.81081e-08
1.79855e-14
-3.50772e-11
7.81618e-08
2.56212e-14
-5.35997e-11
7.82357e-08
2.80653e-14
-7.39332e-11
7.83311e-08
2.42291e-14
-9.54967e-11
7.84485e-08
1.47446e-14
-1.17634e-10
7.85879e-08
1.91159e-15
-1.39642e-10
7.87484e-08
-1.0928e-14
-1.60808e-10
7.89285e-08
-2.04019e-14
-1.80447e-10
7.91263e-08
-2.39968e-14
-1.9793e-10
7.93389e-08
-2.0592e-14
-2.12723e-10
7.95633e-08
-1.08196e-14
-2.24404e-10
7.9796e-08
2.77698e-15
-2.32685e-10
8.00335e-08
1.61755e-14
-2.37417e-10
8.0272e-08
2.51402e-14
-2.38584e-10
8.05082e-08
2.68426e-14
-2.3629e-10
8.07387e-08
2.08629e-14
-2.30756e-10
8.09606e-08
8.91923e-15
-2.22297e-10
8.11715e-08
-6.11521e-15
-2.11304e-10
8.13693e-08
-2.07441e-14
-1.9822e-10
8.15526e-08
-3.08825e-14
-1.83532e-10
8.17203e-08
-3.27714e-14
-1.67758e-10
8.18718e-08
-2.52483e-14
-1.51431e-10
8.2007e-08
-1.1203e-14
-1.35072e-10
8.21264e-08
4.04304e-15
-1.19163e-10
8.22307e-08
1.61284e-14
-1.04149e-10
8.23213e-08
2.29369e-14
-9.04352e-11
8.23996e-08
2.29512e-14
-7.83665e-11
8.24675e-08
1.45012e-14
-6.81884e-11
8.25271e-08
-1.48065e-15
-6.00338e-11
8.25807e-08
-1.88228e-14
-5.39529e-11
8.26304e-08
-2.89686e-14
-4.99476e-11
8.26782e-08
-2.79119e-14
-4.79634e-11
8.2726e-08
-1.93627e-14
-4.78464e-11
8.27754e-08
-1.00611e-14
-4.93303e-11
8.28275e-08
-3.02971e-15
-5.2086e-11
8.28833e-08
2.99543e-15
-5.57874e-11
8.29435e-08
8.27074e-15
-6.01196e-11
8.30082e-08
9.17833e-15
-6.47267e-11
8.30771e-08
2.5183e-15
-6.91767e-11
8.31498e-08
-8.5695e-15
-7.30078e-11
8.32254e-08
-1.54665e-14
-7.58294e-11
8.33029e-08
-1.18062e-14
-7.73893e-11
8.33807e-08
6.08179e-16
-7.75562e-11
8.34573e-08
1.41467e-14
-7.62629e-11
8.3531e-08
2.26587e-14
-7.34841e-11
8.36004e-08
2.54567e-14
-6.92711e-11
8.36643e-08
2.49455e-14
-6.37901e-11
8.37216e-08
2.25716e-14
-5.73133e-11
8.37718e-08
1.83805e-14
-5.01632e-11
8.38145e-08
1.35593e-14
-4.26636e-11
8.38497e-08
1.1409e-14
-3.51335e-11
8.38777e-08
1.46203e-14
-2.79059e-11
8.38991e-08
2.15788e-14
-2.1326e-11
8.39149e-08
2.60614e-14
-1.5707e-11
8.39261e-08
2.16926e-14
-1.12746e-11
8.39342e-08
7.95649e-15
-8.14898e-12
8.39405e-08
-7.98485e-15
-6.37216e-12
8.39466e-08
-1.65518e-14
-5.93183e-12
8.39536e-08
-1.3849e-14
-6.74876e-12
8.39625e-08
-4.36478e-15
-8.65891e-12
8.39741e-08
4.06946e-15
-1.14469e-11
8.39892e-08
6.10885e-15
-1.49126e-11
8.40081e-08
-1.07897e-15
-1.88789e-11
8.40311e-08
-1.93777e-14
-2.31121e-11
8.4058e-08
-4.5289e-14
-2.72579e-11
8.40887e-08
-6.4373e-14
-3.09101e-11
8.41226e-08
-5.87525e-14
-3.37576e-11
8.41587e-08
-2.71042e-14
-3.5634e-11
8.41954e-08
6.85396e-15
-3.64042e-11
8.42312e-08
1.55654e-14
-3.58478e-11
8.42647e-08
-6.93162e-16
-3.37116e-11
8.42946e-08
-1.15659e-14
-2.98708e-11
8.43193e-08
8.22885e-15
-2.43652e-11
8.4337e-08
4.68734e-14
-1.72344e-11
8.43453e-08
6.68318e-14
-8.36351e-12
8.43425e-08
4.69369e-14
2.45106e-12
8.4327e-08
5.15234e-15
1.53159e-11
8.42971e-08
-2.28361e-14
3.01157e-11
8.42508e-08
-2.11727e-14
4.67183e-11
8.41856e-08
-5.36561e-15
6.52939e-11
8.40991e-08
-6.69167e-16
8.62647e-11
8.39889e-08
-1.56544e-14
1.10021e-10
8.38523e-08
-3.77001e-14
1.36782e-10
8.36861e-08
-4.92815e-14
1.66817e-10
8.34859e-08
-4.53727e-14
2.00805e-10
8.32462e-08
-3.81538e-14
2.39969e-10
8.29602e-08
-4.71575e-14
2.85931e-10
8.26196e-08
-7.65018e-14
3.40606e-10
8.22132e-08
-9.16394e-14
4.06428e-10
8.17264e-08
-2.90708e-14
4.86761e-10
8.11402e-08
1.43201e-13
5.86127e-10
8.04302e-08
3.65985e-13
7.10186e-10
7.95649e-08
5.13208e-13
8.6579e-10
7.85044e-08
4.95946e-13
1.06134e-09
7.71982e-08
3.32234e-13
1.30712e-09
7.55836e-08
1.0666e-13
1.61523e-09
7.35848e-08
-1.0675e-13
1.99914e-09
7.11118e-08
-2.52055e-13
2.47302e-09
6.8061e-08
-2.65632e-13
3.05076e-09
6.43171e-08
-1.22818e-13
3.74421e-09
5.97571e-08
9.02835e-14
4.56031e-09
5.42599e-08
2.30997e-13
5.4973e-09
4.77202e-08
2.49498e-13
6.53933e-09
4.00722e-08
2.2901e-13
7.64766e-09
3.13264e-08
2.72218e-13
8.74563e-09
2.16362e-08
4.13715e-13
9.69038e-09
1.14263e-08
6.50817e-13
1.02104e-08
1.64838e-09
1.00114e-12
9.77978e-09
-5.5276e-09
1.33466e-12
7.18129e-09
-6.83644e-09
1.30956e-12
1.31778e-09
6.34641e-13
-6.82867e-09
-6.75088e-09
6.75115e-09
-6.7438e-09
-5.60088e-12
-9.08582e-10
-5.83534e-09
8.15969e-09
-9.06788e-09
1.8581e-08
-1.04208e-08
2.93508e-08
-1.07692e-08
3.98716e-08
-1.05201e-08
4.9775e-08
-9.90258e-09
5.88333e-08
-9.05769e-09
6.69124e-08
-8.07876e-09
7.39439e-08
-7.03169e-09
7.99087e-08
-5.96527e-09
8.48247e-08
-4.91666e-09
8.87386e-08
-3.91424e-09
9.1718e-08
-2.97934e-09
9.38453e-08
-2.12717e-09
9.52131e-08
-1.36777e-09
9.59195e-08
-7.06717e-10
9.60648e-08
-1.45931e-10
9.57463e-08
3.17762e-10
9.50544e-08
6.91274e-10
9.40728e-08
9.81519e-10
9.28775e-08
1.19574e-09
9.15366e-08
1.34176e-09
9.01094e-08
1.428e-09
8.86469e-08
1.46314e-09
8.71916e-08
1.45579e-09
8.5778e-08
1.41413e-09
8.44328e-08
1.34577e-09
8.31759e-08
1.25767e-09
8.20205e-08
1.15611e-09
8.09745e-08
1.04659e-09
8.00411e-08
9.338e-10
7.92196e-08
8.21604e-10
7.85066e-08
7.13063e-10
7.78961e-08
6.1048e-10
7.73805e-08
5.15468e-10
7.69514e-08
4.29027e-10
7.65997e-08
3.5164e-10
7.63163e-08
2.83359e-10
7.60925e-08
2.23905e-10
7.59199e-08
1.72752e-10
7.57909e-08
1.29192e-10
7.56987e-08
9.23947e-11
7.56375e-08
6.14545e-11
7.56024e-08
3.5448e-11
7.55893e-08
1.34686e-11
7.55948e-08
-5.19445e-12
7.56162e-08
-2.10646e-11
7.56512e-08
-3.47105e-11
7.56982e-08
-4.67009e-11
7.5756e-08
-5.74923e-11
7.58237e-08
-6.74164e-11
7.59006e-08
-7.66827e-11
7.59861e-08
-8.53889e-11
7.60798e-08
-9.35391e-11
7.61809e-08
-1.01065e-10
7.62887e-08
-1.07847e-10
7.64025e-08
-1.13743e-10
7.65211e-08
-1.18604e-10
7.66434e-08
-1.22295e-10
7.67681e-08
-1.24709e-10
7.6894e-08
-1.25777e-10
7.70196e-08
-1.2547e-10
7.71435e-08
-1.23802e-10
7.72645e-08
-1.20819e-10
7.73812e-08
-1.16593e-10
7.74924e-08
-1.11216e-10
7.75971e-08
-1.04783e-10
7.76943e-08
-9.73955e-11
7.77832e-08
-8.9153e-11
7.7863e-08
-8.01569e-11
7.79333e-08
-7.05165e-11
7.79935e-08
-6.03576e-11
7.80432e-08
-4.98332e-11
7.80823e-08
-3.91344e-11
7.81108e-08
-2.8499e-11
7.81291e-08
-1.82112e-11
7.81377e-08
-8.59323e-12
7.81376e-08
1.01791e-14
7.81302e-08
7.31771e-12
7.81171e-08
1.30343e-11
7.81002e-08
1.67791e-11
7.80819e-08
1.81816e-11
7.80649e-08
1.69047e-11
7.80523e-08
1.26691e-11
7.80471e-08
5.28564e-12
7.80526e-08
-5.27424e-12
7.80716e-08
-1.88223e-11
7.81069e-08
-3.50508e-11
7.81606e-08
-5.3585e-11
7.82345e-08
-7.39373e-11
7.83298e-08
-9.55201e-11
7.84472e-08
-1.17671e-10
7.85866e-08
-1.39685e-10
7.87471e-08
-1.60847e-10
7.89273e-08
-1.80473e-10
7.9125e-08
-1.97939e-10
7.93377e-08
-2.12714e-10
7.95621e-08
-2.24386e-10
7.97948e-08
-2.32669e-10
8.00323e-08
-2.37413e-10
8.02708e-08
-2.38597e-10
8.05069e-08
-2.36323e-10
8.07373e-08
-2.30804e-10
8.09592e-08
-2.2235e-10
8.11701e-08
-2.11346e-10
8.1368e-08
-1.98239e-10
8.15513e-08
-1.83521e-10
8.1719e-08
-1.67722e-10
8.18705e-08
-1.51378e-10
8.20058e-08
-1.35009e-10
8.21251e-08
-1.19102e-10
8.22294e-08
-1.04107e-10
8.23199e-08
-9.04271e-11
8.23982e-08
-7.83883e-11
8.24661e-08
-6.82189e-11
8.25257e-08
-6.00546e-11
8.25793e-08
-5.39643e-11
8.2629e-08
-4.996e-11
8.26769e-08
-4.79743e-11
8.27247e-08
-4.78384e-11
8.2774e-08
-4.92958e-11
8.28261e-08
-5.20483e-11
8.2882e-08
-5.57852e-11
8.29422e-08
-6.01684e-11
8.30068e-08
-6.48006e-11
8.30757e-08
-6.92336e-11
8.31484e-08
-7.30296e-11
8.32241e-08
-7.58322e-11
8.33016e-08
-7.73953e-11
8.33794e-08
-7.75647e-11
8.3456e-08
-7.62538e-11
8.35297e-08
-7.34468e-11
8.35991e-08
-6.92215e-11
8.36629e-08
-6.37571e-11
8.37203e-08
-5.73105e-11
8.37705e-08
-5.01773e-11
8.38131e-08
-4.26704e-11
8.38483e-08
-3.5121e-11
8.38763e-08
-2.7881e-11
8.38978e-08
-2.13005e-11
8.39135e-08
-1.56821e-11
8.39247e-08
-1.12435e-11
8.39328e-08
-8.11269e-12
8.39392e-08
-6.34203e-12
8.39452e-08
-5.91217e-12
8.39523e-08
-6.72426e-12
8.39612e-08
-8.61412e-12
8.39728e-08
-1.13979e-11
8.39878e-08
-1.4901e-11
8.40067e-08
-1.89218e-11
8.40296e-08
-2.31698e-11
8.40566e-08
-2.72716e-11
8.40874e-08
-3.08688e-11
8.41214e-08
-3.3706e-11
8.41575e-08
-3.56074e-11
8.41941e-08
-3.63817e-11
8.42298e-08
-3.57923e-11
8.42633e-08
-3.36408e-11
8.42933e-08
-2.98473e-11
8.43181e-08
-2.44073e-11
8.43357e-08
-1.72733e-11
8.43439e-08
-8.32566e-12
8.4341e-08
2.53464e-12
8.43256e-08
1.5331e-11
8.42958e-08
3.00118e-11
8.42495e-08
4.65939e-11
8.41843e-08
6.52931e-11
8.40977e-08
8.64012e-11
8.39874e-08
1.10151e-10
8.38509e-08
1.36777e-10
8.36848e-08
1.6673e-10
8.34846e-08
2.00842e-10
8.32448e-08
2.40295e-10
8.29588e-08
2.86515e-10
8.26182e-08
3.41223e-10
8.22121e-08
4.0674e-10
8.17258e-08
4.86411e-10
8.11399e-08
5.84887e-10
8.04295e-08
7.08166e-10
7.95636e-08
8.63528e-10
7.85026e-08
1.05958e-09
7.71962e-08
1.30638e-09
7.55817e-08
1.61557e-09
7.35832e-08
2.00017e-09
7.11108e-08
2.4742e-09
6.80607e-08
3.0516e-09
6.4317e-08
3.7444e-09
5.97567e-08
4.55988e-09
5.4259e-08
5.49658e-09
4.77192e-08
6.53865e-09
4.00714e-08
7.64702e-09
3.13261e-08
8.74469e-09
2.16362e-08
9.68869e-09
1.14268e-08
1.02075e-08
1.64932e-09
9.77549e-09
-5.52777e-09
7.17619e-09
-6.83893e-09
1.31283e-09
-6.83255e-09
5.71646e-10
2.59265e-13
6.1821e-09
5.90318e-09
-4.60776e-13
-5.33622e-09
1.33098e-08
-1.39413e-13
-1.32392e-08
2.19036e-08
8.51428e-14
-1.76596e-08
3.12105e-08
9.45575e-14
-1.97268e-08
4.07326e-08
6.1639e-14
-2.02911e-08
5.00828e-08
5.02401e-14
-1.98703e-08
5.89795e-08
4.86391e-14
-1.87992e-08
6.72254e-08
3.45881e-14
-1.73032e-08
7.46898e-08
-2.29224e-15
-1.55424e-08
8.12948e-08
-5.17406e-14
-1.36357e-08
8.70048e-08
-8.54723e-14
-1.16744e-08
9.18183e-08
-8.02568e-14
-9.72945e-09
9.57606e-08
-4.07459e-14
-7.85591e-09
9.88772e-08
1.7491e-15
-6.0955e-09
1.01229e-07
1.621e-14
-4.47844e-09
1.02887e-07
-5.03194e-15
-3.02501e-09
1.03928e-07
-4.61094e-14
-1.74695e-09
1.04431e-07
-8.31117e-14
-6.48862e-10
1.0448e-07
-9.38222e-14
2.70178e-10
1.04155e-07
-6.62948e-14
1.01651e-09
1.03535e-07
-1.09859e-14
1.60193e-09
1.0269e-07
4.04606e-14
2.04046e-09
1.01684e-07
5.83607e-14
2.34712e-09
1.00574e-07
4.14013e-14
2.53784e-09
9.94081e-08
1.47331e-14
2.62902e-09
9.82268e-08
2.63214e-15
2.63693e-09
9.70635e-08
9.39632e-15
2.57727e-09
9.59443e-08
2.38178e-14
2.4648e-09
9.48887e-08
3.35917e-14
2.31307e-09
9.39105e-08
3.42217e-14
2.1342e-09
9.30182e-08
2.79819e-14
1.93879e-09
9.22162e-08
1.8599e-14
1.73581e-09
9.15053e-08
8.77161e-15
1.53263e-09
9.08834e-08
3.97009e-16
1.33506e-09
9.03467e-08
-5.65193e-15
1.14748e-09
8.98894e-08
-9.06745e-15
9.72995e-10
8.95051e-08
-9.5816e-15
8.13556e-10
8.91867e-08
-7.73637e-15
6.70174e-10
8.89271e-08
-4.74227e-15
5.4307e-10
8.87192e-08
-1.31519e-15
4.31842e-10
8.85563e-08
2.70842e-15
3.35618e-10
8.84322e-08
7.60616e-15
2.53185e-10
8.83414e-08
1.297e-14
1.831e-10
8.8279e-08
1.81096e-14
1.2379e-10
8.82407e-08
2.24755e-14
7.36488e-11
8.8223e-08
2.54239e-14
3.11122e-11
8.82231e-08
2.63287e-14
-5.21031e-12
8.82386e-08
2.49072e-14
-3.64667e-11
8.82677e-08
2.12395e-14
-6.37031e-11
8.8309e-08
1.56748e-14
-8.7882e-11
8.83615e-08
8.8169e-15
-1.09775e-10
8.84243e-08
1.5702e-15
-1.29937e-10
8.84966e-08
-5.01763e-15
-1.48712e-10
8.85777e-08
-1.0122e-14
-1.66247e-10
8.86669e-08
-1.32671e-14
-1.82525e-10
8.87634e-08
-1.4221e-14
-1.97405e-10
8.88663e-08
-1.30219e-14
-2.10661e-10
8.89748e-08
-1.00097e-14
-2.2203e-10
8.90875e-08
-5.73819e-15
-2.31249e-10
8.92035e-08
-8.58255e-16
-2.38088e-10
8.93213e-08
3.95538e-15
-2.42375e-10
8.94398e-08
7.97934e-15
-2.44008e-10
8.95576e-08
1.04148e-14
-2.42962e-10
8.96733e-08
1.05615e-14
-2.3928e-10
8.97858e-08
8.09042e-15
-2.33064e-10
8.98938e-08
3.1767e-15
-2.24458e-10
8.99964e-08
-3.53358e-15
-2.1363e-10
9.00924e-08
-1.09909e-14
-2.00764e-10
9.01811e-08
-1.78876e-14
-1.86046e-10
9.02616e-08
-2.29195e-14
-1.69669e-10
9.03333e-08
-2.50842e-14
-1.51834e-10
9.03956e-08
-2.39121e-14
-1.32765e-10
9.0448e-08
-1.95992e-14
-1.12722e-10
9.04903e-08
-1.29723e-14
-9.2022e-11
9.05223e-08
-5.31825e-15
-7.10522e-11
9.05442e-08
1.82237e-15
-5.02832e-11
9.05564e-08
6.94692e-15
-3.02699e-11
9.05595e-08
9.01336e-15
-1.16434e-11
9.05547e-08
7.79462e-15
4.93021e-12
9.05432e-08
3.89687e-15
1.87961e-11
9.05269e-08
-1.47815e-15
2.92751e-11
9.05081e-08
-6.79897e-15
3.56603e-11
9.04891e-08
-1.05371e-14
3.72847e-11
9.04725e-08
-1.15792e-14
3.35713e-11
9.04613e-08
-9.53506e-15
2.40831e-11
9.04582e-08
-4.78071e-15
8.5792e-12
9.04661e-08
1.62684e-15
-1.29108e-11
9.04875e-08
8.08112e-15
-4.00633e-11
9.05248e-08
1.27829e-14
-7.23158e-11
9.05801e-08
1.43696e-14
-1.08892e-10
9.06548e-08
1.245e-14
-1.48803e-10
9.07499e-08
7.63199e-15
-1.90882e-10
9.08657e-08
1.17812e-15
-2.33841e-10
9.10021e-08
-5.34238e-15
-2.76323e-10
9.1158e-08
-1.02998e-14
-3.1698e-10
9.13319e-08
-1.23726e-14
-3.54527e-10
9.15217e-08
-1.10402e-14
-3.8781e-10
9.17248e-08
-6.85411e-15
-4.15853e-10
9.19383e-08
-1.21535e-15
-4.37896e-10
9.21591e-08
4.16531e-15
-4.53412e-10
9.23837e-08
7.72179e-15
-4.62119e-10
9.26088e-08
8.27465e-15
-4.63979e-10
9.28314e-08
5.35568e-15
-4.59187e-10
9.30483e-08
-3.33913e-16
-4.48151e-10
9.3257e-08
-6.91743e-15
-4.31466e-10
9.34552e-08
-1.2256e-14
-4.09889e-10
9.36411e-08
-1.50539e-14
-3.84307e-10
9.38132e-08
-1.49616e-14
-3.557e-10
9.39706e-08
-1.18104e-14
-3.25095e-10
9.41129e-08
-5.57601e-15
-2.9352e-10
9.42401e-08
2.41162e-15
-2.61968e-10
9.43525e-08
8.97808e-15
-2.31378e-10
9.44509e-08
1.10512e-14
-2.02596e-10
9.45367e-08
8.35682e-15
-1.76342e-10
9.46112e-08
3.36651e-15
-1.53186e-10
9.46762e-08
-1.73889e-15
-1.33554e-10
9.47335e-08
-7.05293e-15
-1.17749e-10
9.47853e-08
-1.30219e-14
-1.05946e-10
9.48333e-08
-1.74538e-14
-9.81557e-11
9.48794e-08
-1.64392e-14
-9.42001e-11
9.49254e-08
-9.0855e-15
-9.37396e-11
9.49725e-08
-1.16207e-16
-9.63285e-11
9.5022e-08
3.83767e-15
-1.01438e-10
9.50745e-08
6.30564e-16
-1.0843e-10
9.51307e-08
-5.63519e-15
-1.1653e-10
9.51905e-08
-9.46192e-15
-1.24887e-10
9.52539e-08
-9.50891e-15
-1.32683e-10
9.53201e-08
-8.52423e-15
-1.39227e-10
9.53884e-08
-8.52065e-15
-1.43962e-10
9.54575e-08
-7.68657e-15
-1.46427e-10
9.55264e-08
-2.81839e-15
-1.46253e-10
9.55935e-08
6.03879e-15
-1.43219e-10
9.56576e-08
1.45164e-14
-1.37328e-10
9.57173e-08
1.76675e-14
-1.28804e-10
9.57717e-08
1.43379e-14
-1.1803e-10
9.58199e-08
7.82198e-15
-1.05476e-10
9.58614e-08
2.75799e-15
-9.1679e-11
9.5896e-08
1.62934e-15
-7.725e-11
9.59239e-08
3.81471e-15
-6.28661e-11
9.59453e-08
7.25315e-15
-4.9209e-11
9.59609e-08
1.03957e-14
-3.68881e-11
9.59715e-08
1.22807e-14
-2.63954e-11
9.59784e-08
1.13678e-14
-1.81051e-11
9.59825e-08
6.07585e-15
-1.22794e-11
9.59853e-08
-2.22154e-15
-9.04737e-12
9.59879e-08
-7.93018e-15
-8.37319e-12
9.59915e-08
-5.84622e-15
-1.0062e-11
9.59969e-08
2.02824e-15
-1.38141e-11
9.60049e-08
6.68414e-15
-1.92768e-11
9.6016e-08
1.29561e-15
-2.60409e-11
9.60304e-08
-1.11428e-14
-3.36047e-11
9.60485e-08
-2.16835e-14
-4.13844e-11
9.607e-08
-2.54933e-14
-4.87921e-11
9.60945e-08
-2.43824e-14
-5.53022e-11
9.61214e-08
-1.99035e-14
-6.04316e-11
9.61496e-08
-9.87623e-15
-6.36854e-11
9.61779e-08
4.71415e-15
-6.45822e-11
9.62051e-08
1.42541e-14
-6.27562e-11
9.62295e-08
9.5587e-15
-5.79959e-11
9.62497e-08
-3.42722e-15
-5.01388e-11
9.62642e-08
-5.7248e-15
-3.89493e-11
9.62712e-08
1.2323e-14
-2.41687e-11
9.62689e-08
3.46393e-14
-5.6885e-12
9.62552e-08
3.36143e-14
1.64172e-11
9.62284e-08
2.91451e-15
4.20509e-11
9.61867e-08
-3.03644e-14
7.13329e-11
9.61285e-08
-3.31107e-14
1.04654e-10
9.60517e-08
-4.24258e-15
1.42414e-10
9.5954e-08
2.21553e-14
1.84812e-10
9.58326e-08
1.47875e-14
2.32024e-10
9.56849e-08
-1.87125e-14
2.84651e-10
9.55074e-08
-3.8924e-14
3.44005e-10
9.5296e-08
-1.67366e-14
4.12014e-10
9.50452e-08
3.5862e-14
4.91e-10
9.4748e-08
7.68078e-14
5.83749e-10
9.43952e-08
7.08264e-14
6.93978e-10
9.39755e-08
1.41292e-14
8.26878e-10
9.34737e-08
-6.89201e-14
9.89471e-10
9.28699e-08
-1.42919e-13
1.19079e-09
9.21382e-08
-1.76361e-13
1.44219e-09
9.12461e-08
-1.52067e-13
1.75777e-09
9.01523e-08
-7.45344e-14
2.15478e-09
8.88055e-08
2.73123e-14
2.65371e-09
8.7143e-08
1.07734e-13
3.27786e-09
8.50901e-08
1.28567e-13
4.05244e-09
8.25606e-08
8.75808e-14
5.00321e-09
7.94578e-08
2.01049e-14
6.15418e-09
7.56781e-08
-3.24724e-14
7.524e-09
7.11173e-08
-5.33108e-14
9.1206e-09
6.56806e-08
-5.21986e-14
1.09333e-08
5.92979e-08
-5.19454e-14
1.29217e-08
5.19456e-08
-7.32445e-14
1.49998e-08
4.36796e-08
-1.19432e-13
1.70113e-08
3.46809e-08
-1.81719e-13
1.86882e-08
2.53136e-08
-2.36636e-13
1.95758e-08
1.61679e-08
-2.09825e-13
1.89215e-08
7.86736e-09
-7.09358e-14
1.54748e-08
1.45591e-09
5.93156e-14
7.71835e-09
-1.30335e-13
-5.37338e-09
5.70835e-10
6.18129e-09
5.9048e-09
-5.33764e-09
1.3311e-08
-1.32409e-08
2.19044e-08
-1.76609e-08
3.12112e-08
-1.97277e-08
4.07334e-08
-2.02918e-08
5.00835e-08
-1.98707e-08
5.898e-08
-1.87995e-08
6.72256e-08
-1.73033e-08
7.46897e-08
-1.55423e-08
8.12945e-08
-1.36355e-08
8.70045e-08
-1.16741e-08
9.18179e-08
-9.72922e-09
9.576e-08
-7.85584e-09
9.88763e-08
-6.09554e-09
1.01228e-07
-4.47848e-09
1.02885e-07
-3.02495e-09
1.03926e-07
-1.74676e-09
1.0443e-07
-6.4861e-10
1.04478e-07
2.70376e-10
1.04154e-07
1.01654e-09
1.03534e-07
1.60177e-09
1.02689e-07
2.04019e-09
1.01683e-07
2.34686e-09
1.00573e-07
2.53768e-09
9.94067e-08
2.62894e-09
9.82254e-08
2.63686e-09
9.70622e-08
2.57719e-09
9.5943e-08
2.4647e-09
9.48874e-08
2.31297e-09
9.39092e-08
2.13413e-09
9.30169e-08
1.93875e-09
9.22149e-08
1.7358e-09
9.15039e-08
1.53264e-09
9.08821e-08
1.33508e-09
9.03454e-08
1.1475e-09
8.98881e-08
9.72999e-10
8.95038e-08
8.13548e-10
8.91854e-08
6.70155e-10
8.89258e-08
5.43045e-10
8.87179e-08
4.31816e-10
8.8555e-08
3.35595e-10
8.84309e-08
2.53166e-10
8.83401e-08
1.83083e-10
8.82777e-08
1.23777e-10
8.82394e-08
7.36373e-11
8.82217e-08
3.11008e-11
8.82218e-08
-5.22281e-12
8.82372e-08
-3.64808e-11
8.82663e-08
-6.37182e-11
8.83077e-08
-8.78972e-11
8.83602e-08
-1.09788e-10
8.84229e-08
-1.29946e-10
8.84952e-08
-1.48713e-10
8.85763e-08
-1.66239e-10
8.86655e-08
-1.82509e-10
8.8762e-08
-1.9738e-10
8.8865e-08
-2.1063e-10
8.89734e-08
-2.21996e-10
8.90862e-08
-2.31216e-10
8.92022e-08
-2.3806e-10
8.932e-08
-2.42355e-10
8.94385e-08
-2.43998e-10
8.95562e-08
-2.42962e-10
8.96719e-08
-2.39289e-10
8.97844e-08
-2.33078e-10
8.98924e-08
-2.24471e-10
8.9995e-08
-2.13637e-10
9.0091e-08
-2.00759e-10
9.01797e-08
-1.86026e-10
9.02602e-08
-1.69632e-10
9.03319e-08
-1.51783e-10
9.03942e-08
-1.32704e-10
9.04466e-08
-1.12657e-10
9.04889e-08
-9.19617e-11
9.0521e-08
-7.10036e-11
9.05429e-08
-5.02517e-11
9.0555e-08
-3.02582e-11
9.05581e-08
-1.16506e-11
9.05533e-08
4.90865e-12
9.05418e-08
1.8767e-11
9.05255e-08
2.92464e-11
9.05067e-08
3.56392e-11
9.04877e-08
3.7276e-11
9.04711e-08
3.35767e-11
9.04599e-08
2.41009e-11
9.04569e-08
8.60493e-12
9.04647e-08
-1.28835e-11
9.04861e-08
-4.00413e-11
9.05234e-08
-7.23046e-11
9.05787e-08
-1.08894e-10
9.06534e-08
-1.48816e-10
9.07485e-08
-1.90903e-10
9.08644e-08
-2.33862e-10
9.10007e-08
-2.7634e-10
9.11566e-08
-3.16988e-10
9.13305e-08
-3.54525e-10
9.15203e-08
-3.87801e-10
9.17235e-08
-4.15841e-10
9.1937e-08
-4.37887e-10
9.21577e-08
-4.5341e-10
9.23823e-08
-4.62128e-10
9.26074e-08
-4.63997e-10
9.28299e-08
-4.5921e-10
9.30469e-08
-4.48173e-10
9.32556e-08
-4.31481e-10
9.34538e-08
-4.09894e-10
9.36397e-08
-3.843e-10
9.38118e-08
-3.55684e-10
9.39692e-08
-3.25075e-10
9.41115e-08
-2.93502e-10
9.42386e-08
-2.61962e-10
9.4351e-08
-2.31384e-10
9.44495e-08
-2.0261e-10
9.45352e-08
-1.76356e-10
9.46097e-08
-1.53197e-10
9.46747e-08
-1.33562e-10
9.4732e-08
-1.17752e-10
9.47838e-08
-1.05937e-10
9.48318e-08
-9.81268e-11
9.4878e-08
-9.41551e-11
9.49239e-08
-9.36954e-11
9.49711e-08
-9.6302e-11
9.50205e-08
-1.01431e-10
9.5073e-08
-1.08428e-10
9.51292e-08
-1.16527e-10
9.51891e-08
-1.24894e-10
9.52524e-08
-1.3272e-10
9.53186e-08
-1.3929e-10
9.53869e-08
-1.44017e-10
9.54561e-08
-1.46436e-10
9.55249e-08
-1.46209e-10
9.55921e-08
-1.43157e-10
9.56561e-08
-1.37296e-10
9.57158e-08
-1.28823e-10
9.57702e-08
-1.18085e-10
9.58184e-08
-1.05539e-10
9.58599e-08
-9.17324e-11
9.58946e-08
-7.72939e-11
9.59224e-08
-6.29037e-11
9.59438e-08
-4.92361e-11
9.59594e-08
-3.68984e-11
9.59701e-08
-2.63924e-11
9.59769e-08
-1.8102e-11
9.5981e-08
-1.22853e-11
9.59838e-08
-9.05656e-12
9.59865e-08
-8.3701e-12
9.59901e-08
-1.00369e-11
9.59955e-08
-1.3772e-11
9.60034e-08
-1.92308e-11
9.60145e-08
-2.59995e-11
9.60289e-08
-3.35659e-11
9.6047e-08
-4.13403e-11
9.60685e-08
-4.87347e-11
9.60931e-08
-5.52267e-11
9.612e-08
-6.03427e-11
9.61482e-08
-6.36052e-11
9.61765e-08
-6.45424e-11
9.62036e-08
-6.27706e-11
9.6228e-08
-5.80393e-11
9.62483e-08
-5.01677e-11
9.62628e-08
-3.89541e-11
9.62699e-08
-2.41939e-11
9.62674e-08
-5.78123e-12
9.62537e-08
1.62829e-11
9.62268e-08
4.19748e-11
9.61853e-08
7.13891e-11
9.61272e-08
1.04796e-10
9.60504e-08
1.42508e-10
9.59525e-08
1.84784e-10
9.58311e-08
2.31956e-10
9.56834e-08
2.84694e-10
9.5506e-08
3.44197e-10
9.52948e-08
4.12194e-10
9.5044e-08
4.90942e-10
9.47465e-08
5.83407e-10
9.43936e-08
6.93584e-10
9.39738e-08
8.26776e-10
9.34721e-08
9.89817e-10
9.28684e-08
1.19143e-09
9.2137e-08
1.4428e-09
9.12451e-08
1.75811e-09
9.01515e-08
2.15481e-09
8.88046e-08
2.65348e-09
8.71419e-08
3.27743e-09
8.50888e-08
4.05195e-09
8.25592e-08
5.00286e-09
7.94565e-08
6.15412e-09
7.5677e-08
7.52423e-09
7.11163e-08
9.12097e-09
6.56796e-08
1.09337e-08
5.92967e-08
1.29221e-08
5.19443e-08
1.50004e-08
4.36782e-08
1.70121e-08
3.46795e-08
1.86893e-08
2.53126e-08
1.95771e-08
1.6168e-08
1.89225e-08
7.86834e-09
1.54751e-08
1.45676e-09
7.71788e-09
-5.37378e-09
6.03886e-09
6.0341e-13
1.45912e-10
1.35941e-08
-2.21373e-13
-1.28927e-08
2.13226e-08
-2.03015e-13
-2.09682e-08
2.93046e-08
-5.80559e-14
-2.56414e-08
3.75102e-08
-3.19423e-15
-2.79321e-08
4.57599e-08
4.31657e-15
-2.85407e-08
5.38451e-08
5.96985e-15
-2.79555e-08
6.15759e-08
1.11306e-14
-2.65301e-08
6.87995e-08
1.88627e-14
-2.45269e-08
7.54039e-08
2.37162e-14
-2.21468e-08
8.13155e-08
1.66948e-14
-1.95472e-08
8.64947e-08
-3.55823e-15
-1.68534e-08
9.09304e-08
-2.7096e-14
-1.41651e-08
9.46352e-08
-3.98423e-14
-1.15608e-08
9.76402e-08
-3.62715e-14
-9.10058e-09
9.99901e-08
-2.26336e-14
-6.82859e-09
1.0174e-07
-9.2628e-15
-4.77497e-09
1.02951e-07
-3.53343e-15
-2.95773e-09
1.03687e-07
-8.89771e-15
-1.38481e-09
1.04013e-07
-2.36871e-14
-5.60477e-11
1.03997e-07
-3.81702e-14
1.03323e-09
1.03703e-07
-4.00522e-14
1.89539e-09
1.03194e-07
-2.65434e-14
2.54972e-09
1.02524e-07
-8.1837e-15
3.01688e-09
1.01743e-07
2.11001e-15
3.31904e-09
1.00894e-07
1.4247e-15
3.47907e-09
1.00011e-07
-2.87283e-15
3.51978e-09
9.91252e-08
-3.12567e-15
3.46326e-09
9.82599e-08
1.9972e-15
3.33029e-09
9.74331e-08
9.14323e-15
3.13998e-09
9.6658e-08
1.46871e-14
2.9094e-09
9.59434e-08
1.68031e-14
2.65344e-09
9.52945e-08
1.54542e-14
2.38474e-09
9.47135e-08
1.16245e-14
2.11366e-09
9.42001e-08
6.43528e-15
1.84843e-09
9.37523e-08
7.52156e-16
1.59526e-09
9.33667e-08
-4.45845e-15
1.35859e-09
9.3039e-08
-8.11456e-15
1.14128e-09
9.27644e-08
-9.69689e-15
9.44899e-10
9.25377e-08
-9.3524e-15
7.6991e-10
9.23537e-08
-7.4194e-15
6.15926e-10
9.22076e-08
-4.23056e-15
4.81901e-10
9.20946e-08
-2.16774e-16
3.66312e-10
9.20104e-08
4.10238e-15
2.67314e-10
9.19514e-08
8.22995e-15
1.82882e-10
9.19141e-08
1.16372e-14
1.10931e-10
9.18959e-08
1.37951e-14
4.94242e-11
9.18942e-08
1.43939e-14
-3.52515e-12
9.19073e-08
1.34223e-14
-4.95529e-11
9.19337e-08
1.10638e-14
-9.0084e-11
9.19722e-08
7.64837e-15
-1.26359e-10
9.20219e-08
3.75507e-15
-1.59354e-10
9.20819e-08
1.44125e-16
-1.89765e-10
9.21513e-08
-2.5543e-15
-2.18008e-10
9.22295e-08
-4.00388e-15
-2.4425e-10
9.23155e-08
-4.11299e-15
-2.68443e-10
9.24086e-08
-3.00895e-15
-2.90381e-10
9.25078e-08
-9.89818e-16
-3.09753e-10
9.2612e-08
1.52032e-15
-3.26205e-10
9.272e-08
4.012e-15
-3.3939e-10
9.28309e-08
6.04393e-15
-3.4901e-10
9.29432e-08
7.34727e-15
-3.54851e-10
9.30559e-08
7.71844e-15
-3.56799e-10
9.31677e-08
6.96538e-15
-3.54842e-10
9.32774e-08
5.06279e-15
-3.49062e-10
9.3384e-08
2.25899e-15
-3.39618e-10
9.34862e-08
-9.99225e-16
-3.26726e-10
9.35833e-08
-4.16786e-15
-3.10633e-10
9.36742e-08
-6.68098e-15
-2.91606e-10
9.37582e-08
-8.04181e-15
-2.69916e-10
9.38344e-08
-7.89807e-15
-2.45843e-10
9.39023e-08
-6.15692e-15
-2.19683e-10
9.39614e-08
-3.12215e-15
-1.91765e-10
9.40111e-08
5.36989e-16
-1.62477e-10
9.40514e-08
4.0278e-15
-1.32289e-10
9.4082e-08
6.6151e-15
-1.01775e-10
9.41032e-08
7.65418e-15
-7.16299e-11
9.41155e-08
6.73219e-15
-4.26719e-11
9.41195e-08
3.94095e-15
-1.58284e-11
9.41164e-08
-5.74691e-17
7.89109e-12
9.41077e-08
-4.27579e-15
2.74532e-11
9.40951e-08
-7.68068e-15
4.18301e-11
9.40808e-08
-9.38126e-15
5.00206e-11
9.4067e-08
-8.8412e-15
5.11156e-11
9.40564e-08
-6.06576e-15
4.43664e-11
9.40514e-08
-1.57994e-15
2.92526e-11
9.40545e-08
3.72009e-15
5.56285e-12
9.40683e-08
8.67232e-15
-2.65709e-11
9.4095e-08
1.20129e-14
-6.6679e-11
9.41366e-08
1.28186e-14
-1.13941e-10
9.41949e-08
1.09368e-14
-1.67199e-10
9.4271e-08
6.99047e-15
-2.24998e-10
9.43656e-08
2.00673e-15
-2.8565e-10
9.44789e-08
-2.89468e-15
-3.47307e-10
9.46105e-08
-6.63426e-15
-4.08045e-10
9.47594e-08
-8.37734e-15
-4.65962e-10
9.4924e-08
-7.85606e-15
-5.19261e-10
9.51025e-08
-5.52047e-15
-5.66334e-10
9.52924e-08
-2.34483e-15
-6.05825e-10
9.54912e-08
5.35921e-16
-6.3668e-10
9.56959e-08
2.15957e-15
-6.58182e-10
9.59036e-08
1.96386e-15
-6.69959e-10
9.61114e-08
-9.72084e-17
-6.71982e-10
9.63166e-08
-3.54218e-15
-6.64549e-10
9.65166e-08
-7.42195e-15
-6.48265e-10
9.6709e-08
-1.05295e-14
-6.24004e-10
9.68918e-08
-1.18784e-14
-5.92863e-10
9.70636e-08
-1.11861e-14
-5.56106e-10
9.7223e-08
-8.86871e-15
-5.15115e-10
9.73694e-08
-5.54928e-15
-4.71343e-10
9.75022e-08
-1.79536e-15
-4.26257e-10
9.76216e-08
1.61542e-15
-3.81267e-10
9.77279e-08
3.61368e-15
-3.37671e-10
9.7822e-08
3.5296e-15
-2.96635e-10
9.79048e-08
1.74649e-15
-2.59181e-10
9.79778e-08
-7.48251e-16
-2.26166e-10
9.80424e-08
-3.3274e-15
-1.98225e-10
9.81003e-08
-5.65802e-15
-1.75751e-10
9.81531e-08
-6.75009e-15
-1.58913e-10
9.82027e-08
-5.11448e-15
-1.47701e-10
9.82505e-08
-6.36707e-16
-1.41921e-10
9.8298e-08
4.26724e-15
-1.41151e-10
9.83463e-08
6.43433e-15
-1.44704e-10
9.83963e-08
4.9378e-15
-1.51679e-10
9.84488e-08
1.40963e-15
-1.61065e-10
9.85041e-08
-2.74063e-15
-1.71833e-10
9.85622e-08
-8.12476e-15
-1.8294e-10
9.86228e-08
-1.51705e-14
-1.93316e-10
9.86853e-08
-2.07856e-14
-2.01901e-10
9.87488e-08
-1.93755e-14
-2.0776e-10
9.88125e-08
-8.60487e-15
-2.10207e-10
9.88752e-08