/*--------------------------------*- C++ -*----------------------------------*\
  =========                 |
  \\      /  F ield         | OpenFOAM: The Open Source CFD Toolbox
   \\    /   O peration     | Website:  https://openfoam.org
    \\  /    A nd           | Version:  8
     \\/     M anipulation  |
\*---------------------------------------------------------------------------*/
FoamFile
{
    version     2.0;
    format      ascii;
    class       volScalarField;
    location    "300";
    object      T;
}
// * * * * * * * * * * * * * * * * * * * * * * * * * * * * * * * * * * * * * //

dimensions      [0 0 0 1 0 0 0];

internalField   nonuniform List<scalar> 
46000
(
308.663
306.649
305.014
304.059
303.561
303.258
303.064
302.941
302.866
302.827
302.817
302.829
302.859
302.904
302.961
303.029
303.106
303.19
303.28
303.372
303.465
303.559
303.654
303.749
303.844
303.939
304.031
304.122
304.209
304.294
304.374
304.45
304.521
304.589
304.651
304.71
304.764
304.814
304.86
304.903
304.943
304.981
305.015
305.047
305.077
305.105
305.132
305.156
305.179
305.201
305.221
305.24
305.257
305.274
305.29
305.304
305.318
305.331
305.343
305.355
305.365
305.375
305.385
305.394
305.403
305.411
305.42
305.427
305.435
305.443
305.45
305.458
305.465
305.472
305.48
305.487
305.494
305.501
305.509
305.516
305.523
305.53
305.536
305.543
305.548
305.554
305.559
305.564
305.567
305.57
305.572
305.573
305.574
305.573
305.572
305.57
305.567
305.564
305.56
305.555
305.551
305.546
305.541
305.537
305.532
305.528
305.524
305.52
305.517
305.514
305.511
305.509
305.508
305.507
305.506
305.505
305.505
305.505
305.505
305.505
305.505
305.506
305.506
305.506
305.506
305.505
305.505
305.505
305.504
305.503
305.503
305.502
305.502
305.501
305.501
305.5
305.5
305.5
305.501
305.501
305.502
305.502
305.503
305.504
305.505
305.506
305.507
305.507
305.508
305.509
305.509
305.509
305.51
305.51
305.51
305.51
305.509
305.509
305.509
305.509
305.509
305.509
305.509
305.51
305.51
305.511
305.513
305.514
305.516
305.519
305.522
305.525
305.529
305.534
305.54
305.546
305.553
305.562
305.572
305.585
305.599
305.617
305.639
305.667
305.701
305.744
305.798
305.867
305.954
306.063
306.203
306.381
306.608
306.902
307.282
307.773
308.385
309.08
309.576
309.73
308.663
306.648
305.013
304.059
303.56
303.258
303.064
302.941
302.866
302.827
302.817
302.829
302.859
302.904
302.961
303.029
303.106
303.19
303.28
303.372
303.465
303.559
303.654
303.749
303.844
303.939
304.031
304.122
304.21
304.294
304.374
304.45
304.522
304.589
304.651
304.71
304.764
304.814
304.86
304.904
304.944
304.981
305.015
305.047
305.077
305.105
305.132
305.156
305.179
305.201
305.221
305.24
305.258
305.274
305.29
305.305
305.318
305.331
305.343
305.355
305.365
305.376
305.385
305.394
305.403
305.412
305.42
305.428
305.435
305.443
305.45
305.458
305.465
305.472
305.48
305.487
305.494
305.502
305.509
305.516
305.523
305.53
305.536
305.543
305.549
305.554
305.559
305.564
305.567
305.57
305.572
305.574
305.574
305.573
305.572
305.57
305.567
305.564
305.56
305.556
305.551
305.546
305.542
305.537
305.532
305.528
305.524
305.52
305.517
305.514
305.512
305.51
305.508
305.507
305.506
305.505
305.505
305.505
305.505
305.505
305.506
305.506
305.506
305.506
305.506
305.506
305.505
305.505
305.504
305.504
305.503
305.502
305.502
305.501
305.501
305.5
305.5
305.5
305.501
305.501
305.502
305.502
305.503
305.504
305.505
305.506
305.507
305.508
305.508
305.509
305.509
305.51
305.51
305.51
305.51
305.51
305.509
305.509
305.509
305.509
305.509
305.509
305.509
305.51
305.51
305.511
305.513
305.514
305.516
305.519
305.522
305.525
305.529
305.534
305.54
305.546
305.554
305.562
305.573
305.585
305.6
305.618
305.64
305.667
305.701
305.744
305.799
305.867
305.954
306.064
306.203
306.381
306.608
306.902
307.282
307.773
308.385
309.08
309.576
309.73
304.693
302.578
301.573
301.042
300.758
300.604
300.525
300.493
300.493
300.516
300.557
300.611
300.677
300.752
300.835
300.924
301.019
301.119
301.222
301.327
301.434
301.54
301.645
301.749
301.851
301.95
302.046
302.139
302.228
302.313
302.394
302.47
302.542
302.61
302.674
302.734
302.79
302.843
302.892
302.939
302.982
303.023
303.062
303.098
303.132
303.165
303.195
303.225
303.252
303.278
303.303
303.327
303.349
303.37
303.39
303.41
303.428
303.445
303.462
303.477
303.493
303.507
303.521
303.534
303.547
303.56
303.572
303.584
303.596
303.607
303.618
303.629
303.64
303.651
303.661
303.672
303.682
303.692
303.702
303.712
303.721
303.73
303.739
303.747
303.755
303.762
303.769
303.775
303.781
303.785
303.789
303.792
303.794
303.795
303.796
303.795
303.795
303.793
303.791
303.789
303.787
303.784
303.782
303.78
303.777
303.775
303.774
303.772
303.771
303.771
303.77
303.771
303.771
303.772
303.773
303.775
303.776
303.778
303.78
303.782
303.784
303.786
303.788
303.789
303.791
303.792
303.794
303.795
303.796
303.797
303.798
303.799
303.799
303.8
303.801
303.802
303.804
303.805
303.806
303.808
303.809
303.811
303.813
303.814
303.816
303.818
303.819
303.82
303.822
303.823
303.824
303.825
303.825
303.826
303.826
303.827
303.827
303.827
303.827
303.828
303.828
303.828
303.829
303.83
303.83
303.832
303.833
303.835
303.837
303.839
303.842
303.845
303.849
303.853
303.858
303.863
303.87
303.878
303.887
303.898
303.911
303.927
303.948
303.973
304.005
304.046
304.098
304.163
304.247
304.353
304.488
304.659
304.876
305.151
305.497
305.917
306.392
306.834
307.081
307.071
304.692
302.577
301.573
301.042
300.758
300.604
300.525
300.493
300.493
300.516
300.557
300.611
300.677
300.752
300.835
300.925
301.02
301.119
301.222
301.328
301.434
301.54
301.646
301.749
301.851
301.95
302.046
302.139
302.228
302.313
302.394
302.47
302.542
302.61
302.674
302.734
302.79
302.843
302.892
302.939
302.982
303.023
303.062
303.098
303.132
303.165
303.196
303.225
303.252
303.278
303.303
303.327
303.349
303.37
303.391
303.41
303.428
303.445
303.462
303.478
303.493
303.507
303.521
303.534
303.547
303.56
303.572
303.584
303.596
303.607
303.618
303.629
303.64
303.651
303.661
303.672
303.682
303.692
303.702
303.712
303.721
303.73
303.739
303.747
303.755
303.763
303.769
303.775
303.781
303.785
303.789
303.792
303.794
303.795
303.796
303.796
303.795
303.793
303.792
303.789
303.787
303.785
303.782
303.78
303.777
303.775
303.774
303.772
303.771
303.771
303.77
303.771
303.771
303.772
303.773
303.775
303.776
303.778
303.78
303.782
303.784
303.786
303.788
303.789
303.791
303.792
303.794
303.795
303.796
303.797
303.798
303.799
303.8
303.8
303.801
303.803
303.804
303.805
303.806
303.808
303.809
303.811
303.813
303.814
303.816
303.818
303.819
303.821
303.822
303.823
303.824
303.825
303.826
303.826
303.827
303.827
303.827
303.827
303.828
303.828
303.828
303.828
303.829
303.83
303.831
303.832
303.833
303.835
303.837
303.839
303.842
303.845
303.849
303.853
303.858
303.864
303.87
303.878
303.887
303.898
303.911
303.927
303.948
303.973
304.005
304.046
304.098
304.164
304.247
304.353
304.488
304.659
304.876
305.152
305.497
305.918
306.392
306.834
307.081
307.071
301.638
300.536
300.052
299.795
299.655
299.584
299.556
299.557
299.578
299.615
299.664
299.723
299.791
299.866
299.948
300.035
300.127
300.223
300.322
300.424
300.527
300.63
300.733
300.834
300.933
301.03
301.124
301.215
301.302
301.385
301.464
301.539
301.611
301.678
301.741
301.801
301.857
301.91
301.96
302.007
302.051
302.093
302.132
302.17
302.205
302.238
302.27
302.3
302.329
302.356
302.382
302.407
302.43
302.453
302.474
302.494
302.514
302.532
302.55
302.567
302.583
302.599
302.614
302.629
302.643
302.656
302.67
302.683
302.696
302.708
302.721
302.733
302.745
302.756
302.768
302.779
302.79
302.801
302.812
302.823
302.833
302.843
302.852
302.861
302.869
302.877
302.884
302.891
302.896
302.901
302.905
302.908
302.911
302.912
302.913
302.913
302.913
302.912
302.911
302.909
302.907
302.906
302.904
302.902
302.9
302.899
302.898
302.898
302.897
302.898
302.898
302.899
302.901
302.902
302.904
302.906
302.909
302.911
302.914
302.916
302.919
302.922
302.924
302.926
302.928
302.93
302.932
302.934
302.936
302.937
302.939
302.94
302.941
302.943
302.944
302.946
302.948
302.949
302.951
302.953
302.955
302.957
302.959
302.961
302.962
302.964
302.966
302.968
302.969
302.97
302.971
302.972
302.973
302.974
302.974
302.975
302.975
302.976
302.976
302.976
302.977
302.977
302.978
302.978
302.979
302.981
302.982
302.984
302.986
302.988
302.991
302.994
302.998
303.002
303.006
303.012
303.018
303.026
303.034
303.045
303.058
303.075
303.095
303.121
303.154
303.196
303.248
303.315
303.4
303.507
303.641
303.809
304.019
304.279
304.594
304.962
305.356
305.716
305.947
305.983
301.637
300.535
300.052
299.795
299.655
299.585
299.557
299.557
299.579
299.615
299.664
299.723
299.791
299.867
299.948
300.035
300.127
300.223
300.322
300.424
300.527
300.63
300.733
300.834
300.933
301.03
301.124
301.215
301.302
301.385
301.464
301.54
301.611
301.678
301.742
301.801
301.857
301.91
301.96
302.007
302.051
302.093
302.132
302.17
302.205
302.238
302.27
302.3
302.329
302.356
302.382
302.407
302.43
302.453
302.474
302.494
302.514
302.532
302.55
302.567
302.583
302.599
302.614
302.629
302.643
302.657
302.67
302.683
302.696
302.708
302.721
302.733
302.745
302.756
302.768
302.779
302.791
302.802
302.812
302.823
302.833
302.843
302.852
302.861
302.869
302.877
302.884
302.891
302.896
302.901
302.905
302.908
302.911
302.912
302.913
302.913
302.913
302.912
302.911
302.909
302.907
302.906
302.904
302.902
302.901
302.899
302.898
302.898
302.898
302.898
302.898
302.899
302.901
302.902
302.904
302.907
302.909
302.911
302.914
302.917
302.919
302.922
302.924
302.926
302.929
302.931
302.932
302.934
302.936
302.937
302.939
302.94
302.942
302.943
302.944
302.946
302.948
302.949
302.951
302.953
302.955
302.957
302.959
302.961
302.963
302.964
302.966
302.968
302.969
302.97
302.972
302.973
302.973
302.974
302.975
302.975
302.975
302.976
302.976
302.976
302.977
302.977
302.978
302.979
302.98
302.981
302.982
302.984
302.986
302.988
302.991
302.994
302.998
303.002
303.006
303.012
303.018
303.026
303.035
303.045
303.059
303.075
303.095
303.121
303.154
303.196
303.249
303.315
303.4
303.507
303.641
303.809
304.019
304.279
304.594
304.962
305.357
305.716
305.947
305.983
299.402
299.246
299.138
299.068
299.029
299.015
299.02
299.039
299.071
299.112
299.162
299.219
299.283
299.354
299.43
299.51
299.595
299.684
299.776
299.871
299.967
300.064
300.161
300.257
300.351
300.444
300.533
300.62
300.704
300.783
300.86
300.932
301.001
301.066
301.128
301.186
301.241
301.293
301.341
301.387
301.431
301.472
301.511
301.548
301.583
301.616
301.647
301.677
301.706
301.733
301.759
301.783
301.807
301.829
301.85
301.871
301.89
301.909
301.927
301.944
301.961
301.976
301.992
302.007
302.021
302.036
302.049
302.063
302.076
302.089
302.102
302.114
302.126
302.139
302.15
302.162
302.174
302.185
302.196
302.207
302.217
302.227
302.236
302.245
302.254
302.262
302.269
302.275
302.28
302.285
302.289
302.292
302.295
302.296
302.297
302.297
302.297
302.296
302.295
302.294
302.292
302.29
302.289
302.288
302.287
302.286
302.285
302.285
302.285
302.286
302.287
302.289
302.291
302.293
302.295
302.298
302.301
302.304
302.307
302.31
302.313
302.315
302.318
302.321
302.323
302.326
302.328
302.33
302.332
302.334
302.335
302.337
302.339
302.34
302.342
302.344
302.346
302.348
302.35
302.352
302.354
302.356
302.358
302.36
302.362
302.364
302.366
302.367
302.369
302.37
302.371
302.372
302.373
302.374
302.374
302.375
302.375
302.375
302.376
302.376
302.376
302.377
302.378
302.378
302.379
302.381
302.382
302.384
302.386
302.388
302.391
302.394
302.398
302.402
302.406
302.412
302.418
302.426
302.435
302.446
302.459
302.476
302.498
302.525
302.56
302.603
302.658
302.728
302.816
302.925
303.061
303.229
303.434
303.683
303.976
304.308
304.656
304.976
305.212
305.305
299.401
299.246
299.138
299.068
299.03
299.015
299.02
299.04
299.071
299.112
299.162
299.219
299.284
299.354
299.43
299.51
299.595
299.684
299.776
299.871
299.967
300.064
300.161
300.257
300.351
300.444
300.533
300.62
300.704
300.784
300.86
300.932
301.001
301.066
301.128
301.186
301.241
301.293
301.341
301.387
301.431
301.472
301.511
301.548
301.583
301.616
301.647
301.677
301.706
301.733
301.759
301.783
301.807
301.829
301.85
301.871
301.89
301.909
301.927
301.944
301.961
301.977
301.992
302.007
302.021
302.036
302.049
302.063
302.076
302.089
302.102
302.114
302.127
302.139
302.151
302.162
302.174
302.185
302.196
302.207
302.217
302.227
302.237
302.246
302.254
302.262
302.269
302.275
302.281
302.285
302.289
302.292
302.295
302.296
302.297
302.297
302.297
302.296
302.295
302.294
302.292
302.291
302.289
302.288
302.287
302.286
302.285
302.285
302.286
302.286
302.287
302.289
302.291
302.293
302.295
302.298
302.301
302.304
302.307
302.31
302.313
302.316
302.318
302.321
302.323
302.326
302.328
302.33
302.332
302.334
302.335
302.337
302.339
302.34
302.342
302.344
302.346
302.348
302.35
302.352
302.354
302.356
302.358
302.36
302.362
302.364
302.366
302.367
302.369
302.37
302.371
302.372
302.373
302.374
302.374
302.375
302.375
302.375
302.376
302.376
302.377
302.377
302.378
302.379
302.38
302.381
302.382
302.384
302.386
302.388
302.391
302.394
302.398
302.402
302.407
302.412
302.418
302.426
302.435
302.446
302.459
302.477
302.498
302.525
302.56
302.603
302.659
302.728
302.816
302.925
303.061
303.229
303.435
303.683
303.977
304.308
304.656
304.976
305.212
305.305
298.575
298.62
298.638
298.647
298.656
298.671
298.692
298.72
298.755
298.796
298.844
298.897
298.956
299.019
299.088
299.161
299.239
299.32
299.404
299.491
299.579
299.669
299.759
299.849
299.937
300.024
300.108
300.19
300.269
300.344
300.417
300.486
300.551
300.613
300.672
300.728
300.78
300.83
300.876
300.921
300.962
301.002
301.039
301.075
301.109
301.141
301.171
301.2
301.228
301.254
301.279
301.303
301.326
301.347
301.368
301.388
301.407
301.425
301.443
301.46
301.476
301.492
301.507
301.522
301.536
301.551
301.564
301.578
301.591
301.604
301.617
301.629
301.641
301.654
301.666
301.677
301.689
301.7
301.711
301.722
301.732
301.742
301.751
301.76
301.768
301.776
301.782
301.788
301.794
301.798
301.802
301.804
301.807
301.808
301.808
301.809
301.808
301.807
301.806
301.805
301.803
301.802
301.801
301.8
301.799
301.798
301.798
301.798
301.799
301.8
301.802
301.804
301.806
301.809
301.811
301.814
301.818
301.821
301.824
301.827
301.831
301.834
301.837
301.84
301.842
301.845
301.847
301.849
301.851
301.853
301.855
301.857
301.859
301.861
301.863
301.864
301.866
301.869
301.871
301.873
301.875
301.877
301.879
301.881
301.883
301.885
301.887
301.889
301.89
301.891
301.892
301.893
301.894
301.895
301.895
301.896
301.896
301.896
301.897
301.897
301.897
301.898
301.899
301.899
301.901
301.902
301.903
301.905
301.907
301.91
301.912
301.915
301.919
301.923
301.928
301.933
301.939
301.947
301.956
301.968
301.982
302
302.023
302.052
302.089
302.135
302.194
302.267
302.359
302.472
302.61
302.779
302.983
303.224
303.502
303.809
304.129
304.429
304.677
304.842
298.575
298.62
298.638
298.647
298.656
298.671
298.692
298.72
298.755
298.796
298.844
298.897
298.956
299.02
299.088
299.162
299.239
299.32
299.404
299.491
299.579
299.669
299.759
299.849
299.937
300.024
300.108
300.19
300.269
300.344
300.417
300.486
300.551
300.613
300.672
300.728
300.78
300.83
300.876
300.921
300.962
301.002
301.039
301.075
301.109
301.141
301.171
301.2
301.228
301.254
301.279
301.303
301.326
301.347
301.368
301.388
301.407
301.426
301.443
301.46
301.476
301.492
301.507
301.522
301.537
301.551
301.564
301.578
301.591
301.604
301.617
301.629
301.642
301.654
301.666
301.677
301.689
301.7
301.711
301.722
301.732
301.742
301.751
301.76
301.768
301.776
301.782
301.789
301.794
301.798
301.802
301.805
301.807
301.808
301.809
301.809
301.808
301.807
301.806
301.805
301.803
301.802
301.801
301.8
301.799
301.798
301.798
301.799
301.799
301.8
301.802
301.804
301.806
301.809
301.811
301.814
301.818
301.821
301.824
301.827
301.831
301.834
301.837
301.84
301.842
301.845
301.847
301.849
301.851
301.853
301.855
301.857
301.859
301.861
301.863
301.865
301.867
301.869
301.871
301.873
301.875
301.877
301.879
301.882
301.884
301.885
301.887
301.889
301.89
301.892
301.893
301.894
301.894
301.895
301.895
301.896
301.896
301.896
301.897
301.897
301.897
301.898
301.899
301.9
301.901
301.902
301.903
301.905
301.907
301.91
301.912
301.915
301.919
301.923
301.928
301.933
301.939
301.947
301.956
301.968
301.982
302
302.023
302.052
302.089
302.135
302.194
302.267
302.359
302.472
302.611
302.78
302.983
303.224
303.502
303.81
304.129
304.43
304.677
304.843
298.307
298.356
298.391
298.417
298.44
298.464
298.49
298.519
298.553
298.591
298.634
298.682
298.734
298.791
298.853
298.918
298.988
299.061
299.137
299.216
299.297
299.379
299.462
299.544
299.626
299.707
299.785
299.861
299.935
300.006
300.074
300.138
300.2
300.258
300.314
300.366
300.415
300.462
300.506
300.548
300.588
300.625
300.661
300.694
300.726
300.756
300.785
300.813
300.839
300.864
300.888
300.911
300.932
300.953
300.973
300.992
301.01
301.028
301.045
301.061
301.077
301.092
301.107
301.121
301.135
301.149
301.162
301.176
301.188
301.201
301.214
301.226
301.238
301.25
301.262
301.273
301.285
301.296
301.306
301.317
301.327
301.336
301.345
301.354
301.362
301.369
301.375
301.381
301.385
301.389
301.393
301.395
301.397
301.398
301.398
301.398
301.397
301.396
301.395
301.394
301.392
301.391
301.39
301.389
301.388
301.388
301.388
301.389
301.39
301.391
301.393
301.396
301.398
301.401
301.404
301.408
301.411
301.415
301.418
301.421
301.425
301.428
301.431
301.434
301.437
301.439
301.442
301.444
301.446
301.448
301.45
301.452
301.454
301.456
301.458
301.46
301.462
301.464
301.466
301.469
301.471
301.473
301.475
301.477
301.479
301.481
301.483
301.484
301.486
301.487
301.488
301.489
301.489
301.49
301.49
301.491
301.491
301.491
301.492
301.492
301.492
301.493
301.493
301.494
301.495
301.497
301.498
301.5
301.502
301.505
301.507
301.51
301.514
301.518
301.523
301.528
301.535
301.542
301.552
301.564
301.579
301.599
301.623
301.654
301.694
301.744
301.806
301.884
301.98
302.098
302.24
302.411
302.614
302.85
303.117
303.409
303.71
304
304.258
304.472
298.307
298.356
298.391
298.418
298.44
298.464
298.49
298.519
298.553
298.591
298.634
298.682
298.734
298.791
298.853
298.918
298.988
299.061
299.137
299.216
299.297
299.379
299.462
299.544
299.626
299.707
299.785
299.861
299.935
300.006
300.074
300.138
300.2
300.258
300.314
300.366
300.416
300.462
300.506
300.548
300.588
300.625
300.661
300.694
300.726
300.757
300.785
300.813
300.839
300.864
300.888
300.911
300.932
300.953
300.973
300.992
301.01
301.028
301.045
301.061
301.077
301.092
301.107
301.121
301.135
301.149
301.162
301.176
301.189
301.201
301.214
301.226
301.238
301.25
301.262
301.273
301.285
301.296
301.306
301.317
301.327
301.336
301.345
301.354
301.362
301.369
301.375
301.381
301.385
301.389
301.393
301.395
301.397
301.398
301.398
301.398
301.397
301.396
301.395
301.394
301.392
301.391
301.39
301.389
301.388
301.388
301.388
301.389
301.39
301.392
301.393
301.396
301.398
301.401
301.404
301.408
301.411
301.415
301.418
301.422
301.425
301.428
301.431
301.434
301.437
301.44
301.442
301.444
301.446
301.448
301.45
301.452
301.454
301.456
301.458
301.46
301.462
301.464
301.467
301.469
301.471
301.473
301.475
301.477
301.479
301.481
301.483
301.485
301.486
301.487
301.488
301.489
301.49
301.49
301.49
301.491
301.491
301.491
301.492
301.492
301.492
301.493
301.494
301.494
301.496
301.497
301.498
301.5
301.502
301.505
301.507
301.51
301.514
301.518
301.523
301.528
301.535
301.543
301.552
301.564
301.579
301.599
301.623
301.654
301.694
301.744
301.806
301.884
301.98
302.098
302.24
302.412
302.614
302.85
303.117
303.409
303.711
304.001
304.259
304.473
298.22
298.249
298.275
298.298
298.32
298.342
298.367
298.393
298.423
298.457
298.495
298.536
298.582
298.632
298.687
298.745
298.807
298.872
298.941
299.012
299.085
299.16
299.235
299.311
299.386
299.46
299.533
299.603
299.671
299.737
299.8
299.86
299.917
299.971
300.023
300.072
300.118
300.161
300.203
300.241
300.278
300.313
300.346
300.378
300.407
300.436
300.463
300.488
300.513
300.536
300.558
300.58
300.6
300.62
300.638
300.656
300.673
300.69
300.706
300.721
300.736
300.751
300.765
300.779
300.792
300.805
300.818
300.831
300.843
300.856
300.868
300.88
300.892
300.903
300.914
300.926
300.937
300.947
300.958
300.968
300.977
300.986
300.995
301.003
301.01
301.017
301.022
301.027
301.032
301.035
301.038
301.04
301.041
301.042
301.042
301.041
301.04
301.039
301.038
301.036
301.035
301.034
301.033
301.032
301.032
301.032
301.032
301.033
301.035
301.036
301.039
301.041
301.044
301.047
301.051
301.054
301.058
301.062
301.065
301.069
301.072
301.076
301.079
301.082
301.084
301.087
301.089
301.092
301.094
301.096
301.098
301.1
301.102
301.104
301.106
301.108
301.11
301.112
301.114
301.117
301.119
301.121
301.123
301.125
301.127
301.129
301.13
301.132
301.133
301.134
301.135
301.136
301.136
301.137
301.137
301.137
301.137
301.138
301.138
301.138
301.139
301.139
301.14
301.141
301.142
301.143
301.145
301.146
301.149
301.151
301.154
301.157
301.16
301.164
301.169
301.174
301.181
301.189
301.199
301.212
301.229
301.249
301.276
301.31
301.353
301.406
301.473
301.556
301.658
301.78
301.927
302.101
302.304
302.536
302.796
303.077
303.367
303.651
303.916
304.161
298.22
298.249
298.275
298.298
298.32
298.343
298.367
298.393
298.423
298.457
298.495
298.536
298.582
298.632
298.687
298.745
298.807
298.872
298.941
299.012
299.085
299.16
299.235
299.311
299.386
299.46
299.533
299.603
299.671
299.737
299.8
299.86
299.917
299.972
300.023
300.072
300.118
300.161
300.203
300.242
300.278
300.313
300.346
300.378
300.407
300.436
300.463
300.488
300.513
300.536
300.559
300.58
300.6
300.62
300.638
300.656
300.674
300.69
300.706
300.722
300.736
300.751
300.765
300.779
300.792
300.805
300.818
300.831
300.844
300.856
300.868
300.88
300.892
300.903
300.915
300.926
300.937
300.947
300.958
300.968
300.977
300.986
300.995
301.003
301.01
301.017
301.022
301.028
301.032
301.035
301.038
301.04
301.041
301.042
301.042
301.041
301.04
301.039
301.038
301.036
301.035
301.034
301.033
301.032
301.032
301.032
301.032
301.033
301.035
301.037
301.039
301.041
301.044
301.047
301.051
301.054
301.058
301.062
301.065
301.069
301.072
301.076
301.079
301.082
301.085
301.087
301.09
301.092
301.094
301.096
301.098
301.1
301.102
301.104
301.106
301.108
301.11
301.112
301.114
301.117
301.119
301.121
301.123
301.125
301.127
301.129
301.13
301.132
301.133
301.134
301.135
301.136
301.136
301.137
301.137
301.137
301.138
301.138
301.138
301.138
301.139
301.139
301.14
301.141
301.142
301.143
301.145
301.147
301.149
301.151
301.154
301.157
301.16
301.164
301.169
301.175
301.181
301.189
301.2
301.212
301.229
301.25
301.276
301.31
301.353
301.406
301.474
301.556
301.658
301.78
301.927
302.101
302.304
302.537
302.797
303.077
303.368
303.651
303.916
304.162
298.188
298.204
298.221
298.237
298.254
298.272
298.292
298.315
298.34
298.369
298.401
298.437
298.477
298.52
298.568
298.619
298.674
298.733
298.794
298.857
298.923
298.991
299.06
299.128
299.197
299.265
299.331
299.396
299.458
299.519
299.577
299.632
299.685
299.735
299.782
299.827
299.869
299.91
299.947
299.983
300.017
300.049
300.08
300.109
300.136
300.162
300.187
300.21
300.233
300.255
300.275
300.295
300.314
300.332
300.349
300.366
300.382
300.397
300.412
300.426
300.44
300.454
300.467
300.48
300.493
300.505
300.518
300.53
300.542
300.553
300.565
300.576
300.588
300.599
300.61
300.62
300.631
300.641
300.651
300.66
300.669
300.678
300.686
300.693
300.7
300.706
300.711
300.715
300.719
300.722
300.724
300.725
300.726
300.726
300.726
300.725
300.724
300.723
300.721
300.72
300.719
300.718
300.717
300.716
300.716
300.716
300.717
300.718
300.72
300.722
300.725
300.728
300.731
300.734
300.738
300.741
300.745
300.749
300.753
300.756
300.76
300.763
300.766
300.769
300.772
300.774
300.777
300.779
300.781
300.783
300.785
300.787
300.789
300.791
300.793
300.795
300.797
300.799
300.801
300.804
300.806
300.808
300.81
300.812
300.814
300.815
300.817
300.818
300.819
300.82
300.821
300.822
300.822
300.822
300.822
300.823
300.823
300.823
300.823
300.823
300.824
300.824
300.825
300.826
300.827
300.828
300.83
300.831
300.834
300.836
300.839
300.842
300.845
300.849
300.854
300.859
300.866
300.875
300.886
300.9
300.917
300.94
300.969
301.006
301.053
301.111
301.183
301.271
301.378
301.506
301.658
301.835
302.039
302.27
302.525
302.798
303.08
303.359
303.628
303.892
298.188
298.204
298.221
298.237
298.254
298.272
298.292
298.315
298.34
298.369
298.401
298.437
298.477
298.52
298.568
298.619
298.674
298.733
298.794
298.857
298.923
298.991
299.06
299.128
299.197
299.265
299.331
299.396
299.458
299.519
299.577
299.632
299.685
299.735
299.782
299.827
299.87
299.91
299.948
299.983
300.017
300.049
300.08
300.109
300.136
300.162
300.187
300.211
300.233
300.255
300.275
300.295
300.314
300.332
300.349
300.366
300.382
300.397
300.412
300.426
300.44
300.454
300.467
300.48
300.493
300.506
300.518
300.53
300.542
300.553
300.565
300.576
300.588
300.599
300.61
300.62
300.631
300.641
300.651
300.66
300.669
300.678
300.686
300.693
300.7
300.706
300.711
300.715
300.719
300.722
300.724
300.726
300.726
300.726
300.726
300.725
300.724
300.723
300.722
300.72
300.719
300.718
300.717
300.716
300.716
300.717
300.717
300.719
300.72
300.722
300.725
300.728
300.731
300.734
300.738
300.742
300.745
300.749
300.753
300.756
300.76
300.763
300.766
300.769
300.772
300.774
300.777
300.779
300.781
300.783
300.785
300.787
300.789
300.791
300.793
300.795
300.797
300.799
300.801
300.804
300.806
300.808
300.81
300.812
300.814
300.815
300.817
300.818
300.819
300.82
300.821
300.822
300.822
300.822
300.823
300.823
300.823
300.823
300.823
300.823
300.824
300.824
300.825
300.826
300.827
300.828
300.83
300.832
300.834
300.836
300.839
300.842
300.845
300.849
300.854
300.86
300.866
300.875
300.886
300.9
300.917
300.94
300.969
301.006
301.053
301.111
301.183
301.271
301.378
301.507
301.658
301.835
302.039
302.27
302.525
302.798
303.08
303.359
303.629
303.892
298.175
298.184
298.194
298.205
298.218
298.232
298.247
298.266
298.287
298.311
298.338
298.368
298.403
298.441
298.482
298.528
298.576
298.628
298.682
298.739
298.798
298.859
298.921
298.983
299.046
299.107
299.168
299.226
299.284
299.339
299.392
299.442
299.49
299.536
299.579
299.62
299.659
299.695
299.73
299.762
299.793
299.822
299.85
299.876
299.901
299.925
299.947
299.969
299.989
300.009
300.028
300.046
300.063
300.079
300.095
300.11
300.125
300.139
300.153
300.166
300.179
300.192
300.204
300.216
300.228
300.24
300.251
300.263
300.274
300.285
300.296
300.307
300.317
300.328
300.338
300.348
300.358
300.367
300.377
300.386
300.394
300.402
300.409
300.416
300.422
300.427
300.432
300.436
300.439
300.441
300.443
300.444
300.444
300.444
300.443
300.442
300.441
300.439
300.438
300.436
300.435
300.434
300.433
300.433
300.433
300.434
300.435
300.436
300.438
300.441
300.443
300.446
300.45
300.453
300.457
300.461
300.465
300.468
300.472
300.476
300.479
300.482
300.485
300.488
300.491
300.493
300.496
300.498
300.5
300.502
300.504
300.505
300.507
300.509
300.511
300.513
300.515
300.517
300.52
300.522
300.524
300.526
300.528
300.53
300.531
300.533
300.534
300.535
300.536
300.537
300.538
300.538
300.539
300.539
300.539
300.539
300.539
300.539
300.539
300.539
300.54
300.54
300.541
300.542
300.543
300.544
300.546
300.547
300.549
300.552
300.554
300.557
300.561
300.565
300.57
300.575
300.583
300.592
300.604
300.619
300.638
300.663
300.695
300.736
300.787
300.85
300.928
301.022
301.135
301.269
301.425
301.606
301.811
302.041
302.292
302.559
302.835
303.11
303.381
303.654
298.175
298.184
298.194
298.205
298.218
298.232
298.247
298.266
298.287
298.311
298.338
298.369
298.403
298.441
298.482
298.528
298.576
298.628
298.682
298.739
298.799
298.859
298.921
298.984
299.046
299.107
299.168
299.227
299.284
299.339
299.392
299.442
299.49
299.536
299.579
299.62
299.659
299.695
299.73
299.763
299.793
299.822
299.85
299.876
299.901
299.925
299.947
299.969
299.989
300.009
300.028
300.046
300.063
300.079
300.095
300.11
300.125
300.139
300.153
300.166
300.179
300.192
300.204
300.216
300.228
300.24
300.251
300.263
300.274
300.285
300.296
300.307
300.317
300.328
300.338
300.348
300.358
300.368
300.377
300.386
300.394
300.402
300.409
300.416
300.422
300.427
300.432
300.436
300.439
300.441
300.443
300.444
300.444
300.444
300.443
300.442
300.441
300.439
300.438
300.436
300.435
300.434
300.433
300.433
300.433
300.434
300.435
300.436
300.438
300.441
300.443
300.446
300.45
300.453
300.457
300.461
300.465
300.468
300.472
300.476
300.479
300.482
300.485
300.488
300.491
300.493
300.496
300.498
300.5
300.502
300.504
300.506
300.507
300.509
300.511
300.513
300.515
300.518
300.52
300.522
300.524
300.526
300.528
300.53
300.531
300.533
300.534
300.536
300.536
300.537
300.538
300.538
300.539
300.539
300.539
300.539
300.539
300.539
300.539
300.539
300.54
300.54
300.541
300.542
300.543
300.544
300.546
300.547
300.549
300.552
300.554
300.557
300.561
300.565
300.57
300.575
300.583
300.592
300.604
300.619
300.638
300.663
300.695
300.736
300.787
300.85
300.928
301.022
301.135
301.269
301.425
301.606
301.812
302.041
302.292
302.56
302.836
303.111
303.381
303.655
298.169
298.174
298.181
298.188
298.197
298.208
298.22
298.235
298.252
298.272
298.295
298.321
298.351
298.384
298.42
298.46
298.503
298.548
298.597
298.648
298.701
298.755
298.811
298.867
298.923
298.978
299.033
299.086
299.138
299.188
299.236
299.282
299.325
299.367
299.406
299.443
299.478
299.511
299.542
299.571
299.599
299.625
299.65
299.673
299.695
299.717
299.737
299.756
299.775
299.792
299.809
299.825
299.841
299.855
299.87
299.883
299.897
299.91
299.922
299.934
299.946
299.958
299.969
299.98
299.991
300.002
300.013
300.023
300.034
300.044
300.054
300.064
300.074
300.084
300.094
300.103
300.112
300.121
300.13
300.138
300.146
300.153
300.16
300.166
300.171
300.176
300.18
300.183
300.185
300.187
300.188
300.188
300.188
300.188
300.187
300.186
300.184
300.183
300.181
300.18
300.179
300.178
300.177
300.177
300.177
300.178
300.179
300.181
300.183
300.186
300.189
300.192
300.195
300.199
300.203
300.207