/*--------------------------------*- C++ -*----------------------------------*\
  =========                 |
  \\      /  F ield         | OpenFOAM: The Open Source CFD Toolbox
   \\    /   O peration     | Website:  https://openfoam.org
    \\  /    A nd           | Version:  8
     \\/     M anipulation  |
\*---------------------------------------------------------------------------*/
FoamFile
{
    version     2.0;
    format      ascii;
    class       volVectorField;
    location    "300";
    object      U;
}
// * * * * * * * * * * * * * * * * * * * * * * * * * * * * * * * * * * * * * //

dimensions      [0 1 -1 0 0 0 0];

internalField   nonuniform List<vector> 
46000
(
(-0.0373794 -7.53218e-06 0.0351523)
(-0.0665757 -1.0726e-05 0.00626851)
(-0.0363901 -4.16119e-06 -0.0282058)
(0.0256143 -2.65665e-06 -0.0483305)
(0.101396 -5.01879e-06 -0.0553053)
(0.18357 -5.96055e-06 -0.0564192)
(0.265741 -5.8221e-06 -0.0543756)
(0.34433 -5.5157e-06 -0.0505155)
(0.417148 -5.19782e-06 -0.0456197)
(0.48287 -4.51783e-06 -0.0401785)
(0.540765 -3.19235e-06 -0.0345219)
(0.590525 -1.37207e-06 -0.0288846)
(0.632168 2.6718e-07 -0.0234394)
(0.665952 9.71857e-07 -0.0183141)
(0.692321 5.4634e-07 -0.0136002)
(0.711856 -4.6604e-07 -0.00935984)
(0.725228 -1.19825e-06 -0.00563106)
(0.733174 -1.12888e-06 -0.00243075)
(0.736437 -3.09617e-07 0.000253617)
(0.735808 8.11719e-07 0.00244895)
(0.731981 1.62186e-06 0.00418493)
(0.72562 1.61143e-06 0.00549799)
(0.717342 6.74819e-07 0.00643305)
(0.707695 -6.89935e-07 0.0070377)
(0.697167 -1.69483e-06 0.00735949)
(0.686181 -1.89675e-06 0.00744396)
(0.675094 -1.4991e-06 0.00733374)
(0.6642 -1.03628e-06 0.00706829)
(0.653732 -8.41685e-07 0.00668398)
(0.643866 -8.70138e-07 0.00621387)
(0.634728 -9.10885e-07 0.00568734)
(0.626399 -8.12992e-07 0.00512974)
(0.618919 -5.62374e-07 0.00456242)
(0.612299 -2.41414e-07 0.00400282)
(0.606522 5.98531e-08 0.00346472)
(0.601549 2.83557e-07 0.00295849)
(0.59733 3.95748e-07 0.00249136)
(0.593801 3.82875e-07 0.00206778)
(0.590896 2.60298e-07 0.00168981)
(0.588545 7.00224e-08 0.00135754)
(0.586679 -1.37726e-07 0.00106949)
(0.585233 -3.16139e-07 0.000822964)
(0.584145 -4.32084e-07 0.000614391)
(0.583361 -4.7855e-07 0.00043956)
(0.582833 -4.64404e-07 0.000293866)
(0.58252 -4.0012e-07 0.000172614)
(0.582386 -3.00351e-07 7.14648e-05)
(0.582404 -1.86501e-07 -1.26906e-05)
(0.582553 -8.30816e-08 -8.28223e-05)
(0.582811 -7.51492e-09 -0.00014229)
(0.583164 3.42069e-08 -0.000193834)
(0.583602 4.11296e-08 -0.000239702)
(0.584116 1.90966e-08 -0.000281602)
(0.584703 -1.69721e-08 -0.000320686)
(0.585356 -4.91997e-08 -0.000357557)
(0.586072 -6.49182e-08 -0.000392342)
(0.586847 -5.94328e-08 -0.000424781)
(0.587676 -3.26556e-08 -0.000454334)
(0.588552 1.51765e-08 -0.000480297)
(0.58947 8.21899e-08 -0.00050191)
(0.590419 1.63367e-07 -0.00051846)
(0.591391 2.53098e-07 -0.000529355)
(0.592376 3.45701e-07 -0.000534183)
(0.593364 4.31928e-07 -0.000532739)
(0.594343 4.97984e-07 -0.000525032)
(0.595304 5.29218e-07 -0.000511266)
(0.596236 5.15507e-07 -0.000491792)
(0.597129 4.55003e-07 -0.000467061)
(0.597976 3.55128e-07 -0.00043757)
(0.598769 2.31102e-07 -0.000403831)
(0.599501 1.04632e-07 -0.000366338)
(0.600165 1.35664e-09 -0.000325567)
(0.600757 -5.51173e-08 -0.000281996)
(0.601273 -5.05343e-08 -0.000236149)
(0.60171 1.63308e-08 -0.00018865)
(0.602065 1.32767e-07 -0.000140289)
(0.602338 2.73162e-07 -9.20739e-05)
(0.602529 4.04231e-07 -4.52239e-05)
(0.602644 4.94499e-07 -1.07661e-06)
(0.602687 5.22208e-07 3.90588e-05)
(0.602668 4.80139e-07 7.37675e-05)
(0.602597 3.77513e-07 0.000101455)
(0.602488 2.38061e-07 0.000120441)
(0.602358 9.38915e-08 0.000128993)
(0.602226 -2.3294e-08 0.000125434)
(0.602115 -8.85795e-08 0.000108297)
(0.602048 -8.83314e-08 7.67291e-05)
(0.60205 -2.52166e-08 3.06398e-05)
(0.602145 7.92866e-08 -2.94889e-05)
(0.602354 1.90581e-07 -0.000102577)
(0.602696 2.72678e-07 -0.000186941)
(0.603187 2.98514e-07 -0.000280364)
(0.603839 2.56155e-07 -0.00038016)
(0.604659 1.52373e-07 -0.000483274)
(0.605648 1.20007e-08 -0.000586416)
(0.606804 -1.28848e-07 -0.000686212)
(0.608117 -2.33618e-07 -0.000779376)
(0.609573 -2.74928e-07 -0.000862873)
(0.611155 -2.40519e-07 -0.000934066)
(0.612839 -1.37206e-07 -0.000990844)
(0.6146 7.60832e-09 -0.00103172)
(0.616412 1.50772e-07 -0.00105585)
(0.618246 2.46832e-07 -0.00106306)
(0.620075 2.65212e-07 -0.00105375)
(0.621873 2.01061e-07 -0.0010289)
(0.623617 7.26892e-08 -0.000989976)
(0.625284 -8.88977e-08 -0.000938804)
(0.626858 -2.4604e-07 -0.000877508)
(0.628325 -3.55073e-07 -0.000808415)
(0.629676 -3.75918e-07 -0.000734002)
(0.630903 -2.95929e-07 -0.000656816)
(0.632005 -1.45641e-07 -0.00057934)
(0.632982 1.78962e-08 -0.000503893)
(0.633841 1.47229e-07 -0.000432597)
(0.634589 2.18967e-07 -0.000367378)
(0.635237 2.1682e-07 -0.000309877)
(0.635798 1.23264e-07 -0.000261294)
(0.636287 -5.14925e-08 -0.000222325)
(0.636722 -2.41012e-07 -0.000193272)
(0.637118 -3.52821e-07 -0.000174193)
(0.637493 -3.43212e-07 -0.000164869)
(0.63786 -2.52018e-07 -0.000164632)
(0.638233 -1.52226e-07 -0.000172301)
(0.638623 -7.66547e-08 -0.000186389)
(0.639039 -1.16214e-08 -0.000205371)
(0.639487 4.55004e-08 -0.000227723)
(0.63997 5.52251e-08 -0.000251723)
(0.640487 -1.71757e-08 -0.000275324)
(0.641035 -1.37319e-07 -0.000296363)
(0.64161 -2.11439e-07 -0.00031297)
(0.642203 -1.70543e-07 -0.000323845)
(0.642805 -3.43779e-08 -0.000328208)
(0.643403 1.14285e-07 -0.000325598)
(0.643986 2.08743e-07 -0.000315809)
(0.644541 2.41207e-07 -0.000299019)
(0.645058 2.37236e-07 -0.00027594)
(0.645528 2.12382e-07 -0.000247775)
(0.645946 1.67578e-07 -0.000215996)
(0.646307 1.16199e-07 -0.000182144)
(0.646609 9.40091e-08 -0.000147783)
(0.646854 1.29759e-07 -0.000114546)
(0.647047 2.05825e-07 -8.41106e-05)
(0.647191 2.55217e-07 -5.80009e-05)
(0.647297 2.09395e-07 -3.73488e-05)
(0.647372 6.27259e-08 -2.28091e-05)
(0.647429 -1.07881e-07 -1.46548e-05)
(0.647478 -1.99367e-07 -1.28811e-05)
(0.647528 -1.69657e-07 -1.71688e-05)
(0.64759 -6.69187e-08 -2.68192e-05)
(0.64767 2.44775e-08 -4.08795e-05)
(0.647774 4.67204e-08 -5.84053e-05)
(0.647906 -3.09367e-08 -7.85107e-05)
(0.64807 -2.28818e-07 -0.00010007)
(0.648265 -5.09043e-07 -0.000121474)
(0.64849 -7.1558e-07 -0.000140894)
(0.648742 -6.55264e-07 -0.000156876)
(0.649014 -3.13694e-07 -0.000168554)
(0.649297 5.29099e-08 -0.000175211)
(0.64958 1.46797e-07 -0.000175824)
(0.649851 -2.8805e-08 -0.000169278)
(0.6501 -1.45381e-07 -0.000155019)
(0.650315 7.04444e-08 -0.000133191)
(0.650482 4.90437e-07 -0.000103939)
(0.650587 7.08313e-07 -6.66346e-05)
(0.650614 4.9531e-07 -2.02317e-05)
(0.650551 4.59509e-08 3.55159e-05)
(0.650383 -2.54257e-07 9.99581e-05)
(0.650097 -2.34768e-07 0.000172705)
(0.649675 -6.34044e-08 0.000254536)
(0.649099 -1.17188e-08 0.000347202)
(0.648352 -1.70013e-07 0.000452348)
(0.647413 -4.00547e-07 0.000571008)
(0.64626 -5.15167e-07 0.000704491)
(0.644864 -4.63242e-07 0.000855803)
(0.643189 -3.8055e-07 0.0010302)
(0.641187 -4.80293e-07 0.00123465)
(0.638803 -8.06189e-07 0.00147747)
(0.635961 -9.82486e-07 0.00176928)
(0.632565 -3.20711e-07 0.00212475)
(0.628489 1.52657e-06 0.00256367)
(0.623567 3.92119e-06 0.00311118)
(0.617588 5.50182e-06 0.00379835)
(0.610282 5.30769e-06 0.00466409)
(0.601304 3.53334e-06 0.00575709)
(0.590223 1.09328e-06 0.00713629)
(0.57651 -1.21123e-06 0.00886961)
(0.559527 -2.77474e-06 0.0110321)
(0.538528 -2.91066e-06 0.0137025)
(0.512662 -1.35558e-06 0.0169559)
(0.480997 9.55633e-07 0.020852)
(0.442568 2.47948e-06 0.0254181)
(0.396458 2.69046e-06 0.0306243)
(0.341942 2.53208e-06 0.0363413)
(0.278684 3.18604e-06 0.0422623)
(0.207154 5.08334e-06 0.047733)
(0.129008 8.1922e-06 0.0513262)
(0.0499467 1.26622e-05 0.0496506)
(-0.0237714 1.69041e-05 0.0324523)
(-0.0645132 1.73514e-05 -0.00496782)
(-0.0344521 1.06304e-05 -0.0431045)
(-0.0373675 -7.53233e-06 0.0351408)
(-0.0665734 -1.07259e-05 0.00625496)
(-0.0363923 -4.16124e-06 -0.0282111)
(0.0256216 -2.65665e-06 -0.0483332)
(0.101407 -5.01872e-06 -0.05531)
(0.183582 -5.96047e-06 -0.0564261)
(0.26575 -5.82204e-06 -0.0543831)
(0.344337 -5.51566e-06 -0.0505222)
(0.417152 -5.19779e-06 -0.0456254)
(0.482874 -4.51782e-06 -0.0401836)
(0.540767 -3.19235e-06 -0.034527)
(0.590527 -1.37207e-06 -0.02889)
(0.632167 2.6718e-07 -0.0234444)
(0.665947 9.7186e-07 -0.0183174)
(0.692314 5.46342e-07 -0.0136011)
(0.711847 -4.66041e-07 -0.00935874)
(0.725219 -1.19825e-06 -0.00562921)
(0.733166 -1.12888e-06 -0.00242948)
(0.73643 -3.09618e-07 0.000253589)
(0.735801 8.11722e-07 0.00244779)
(0.731972 1.62186e-06 0.00418365)
(0.72561 1.61143e-06 0.00549786)
(0.71733 6.74822e-07 0.00643478)
(0.707683 -6.89938e-07 0.00704089)
(0.697157 -1.69483e-06 0.00736303)
(0.686172 -1.89676e-06 0.0074469)
(0.675085 -1.4991e-06 0.00733586)
(0.664191 -1.03629e-06 0.00706998)
(0.653723 -8.41688e-07 0.00668566)
(0.643857 -8.70141e-07 0.00621565)
(0.634719 -9.10887e-07 0.00568902)
(0.62639 -8.12994e-07 0.00513108)
(0.618911 -5.62376e-07 0.00456323)
(0.612291 -2.41415e-07 0.00400305)
(0.606514 5.98533e-08 0.00346445)
(0.601541 2.83558e-07 0.00295785)
(0.597321 3.95749e-07 0.00249053)
(0.593792 3.82876e-07 0.00206695)
(0.590887 2.60298e-07 0.00168915)
(0.588536 7.00226e-08 0.00135715)
(0.58667 -1.37726e-07 0.00106941)
(0.585224 -3.16139e-07 0.00082319)
(0.584136 -4.32085e-07 0.000614885)
(0.583353 -4.78552e-07 0.000440266)
(0.582824 -4.64405e-07 0.000294718)
(0.582511 -4.00121e-07 0.000173541)
(0.582377 -3.00351e-07 7.23917e-05)
(0.582395 -1.86501e-07 -1.18384e-05)
(0.582544 -8.30819e-08 -8.21048e-05)
(0.582802 -7.51494e-09 -0.000141743)
(0.583155 3.4207e-08 -0.000193476)
(0.583593 4.11297e-08 -0.000239531)
(0.584107 1.90967e-08 -0.000281598)
(0.584693 -1.69721e-08 -0.000320816)
(0.585347 -4.91999e-08 -0.000357785)
(0.586063 -6.49184e-08 -0.000392634)
(0.586838 -5.9433e-08 -0.000425101)
(0.587667 -3.26557e-08 -0.000454651)
(0.588543 1.51766e-08 -0.000480587)
(0.589461 8.21901e-08 -0.00050216)
(0.59041 1.63367e-07 -0.000518669)
(0.591382 2.53098e-07 -0.000529534)
(0.592367 3.45702e-07 -0.000534352)
(0.593355 4.31929e-07 -0.000532929)
(0.594334 4.97986e-07 -0.000525277)
(0.595294 5.29219e-07 -0.000511592)
(0.596226 5.15509e-07 -0.000492212)
(0.59712 4.55005e-07 -0.00046757)
(0.597967 3.55129e-07 -0.000438149)
(0.598759 2.31103e-07 -0.000404441)
(0.599491 1.04632e-07 -0.000366934)
(0.600156 1.35665e-09 -0.000326105)
(0.600748 -5.51175e-08 -0.000282443)
(0.601264 -5.05344e-08 -0.000236491)
(0.601701 1.63308e-08 -0.000188894)
(0.602056 1.32768e-07 -0.000140459)
(0.602328 2.73163e-07 -9.2206e-05)
(0.60252 4.04233e-07 -4.53566e-05)
(0.602635 4.94501e-07 -1.24286e-06)
(0.602677 5.2221e-07 3.88407e-05)
(0.602658 4.8014e-07 7.34989e-05)
(0.602587 3.77514e-07 0.000101156)
(0.602478 2.38062e-07 0.000120145)
(0.602348 9.38918e-08 0.000128739)
(0.602216 -2.32941e-08 0.000125255)
(0.602106 -8.85798e-08 0.000108213)
(0.602038 -8.83317e-08 7.67407e-05)
(0.60204 -2.52167e-08 3.07249e-05)
(0.602135 7.92868e-08 -2.93686e-05)
(0.602344 1.90581e-07 -0.000102469)
(0.602687 2.72678e-07 -0.00018689)
(0.603178 2.98515e-07 -0.000280398)
(0.60383 2.56156e-07 -0.000380281)
(0.604649 1.52373e-07 -0.000483462)
(0.605639 1.20007e-08 -0.000586634)
(0.606794 -1.28849e-07 -0.00068642)
(0.608107 -2.33619e-07 -0.000779537)
(0.609564 -2.74929e-07 -0.000862962)
(0.611145 -2.40519e-07 -0.000934083)
(0.612829 -1.37206e-07 -0.000990815)
(0.614591 7.60834e-09 -0.00103168)
(0.616403 1.50772e-07 -0.00105585)
(0.618237 2.46833e-07 -0.00106311)
(0.620066 2.65213e-07 -0.00105386)
(0.621864 2.01062e-07 -0.00102905)
(0.623607 7.26894e-08 -0.000990122)
(0.625274 -8.8898e-08 -0.000938889)
(0.626848 -2.46041e-07 -0.000877481)
(0.628315 -3.55074e-07 -0.000808255)
(0.629666 -3.75919e-07 -0.000733725)
(0.630893 -2.9593e-07 -0.000656453)
(0.631995 -1.45641e-07 -0.000578927)
(0.632973 1.78963e-08 -0.00050348)
(0.633831 1.47229e-07 -0.000432256)
(0.634579 2.18968e-07 -0.000367169)
(0.635226 2.16821e-07 -0.000309786)
(0.635787 1.23265e-07 -0.000261239)
(0.636277 -5.14927e-08 -0.000222234)
(0.636712 -2.41013e-07 -0.00019315)
(0.637108 -3.52822e-07 -0.000174086)
(0.637482 -3.43213e-07 -0.00016477)
(0.63785 -2.52018e-07 -0.000164469)
(0.638223 -1.52226e-07 -0.000172041)
(0.638613 -7.6655e-08 -0.000186126)
(0.639029 -1.16214e-08 -0.000205261)
(0.639477 4.55005e-08 -0.000227827)
(0.639959 5.52253e-08 -0.000251937)
(0.640476 -1.71757e-08 -0.00027548)
(0.641025 -1.3732e-07 -0.000296385)
(0.6416 -2.1144e-07 -0.000312915)
(0.642193 -1.70544e-07 -0.000323793)
(0.642795 -3.4378e-08 -0.000328154)
(0.643393 1.14285e-07 -0.000325468)
(0.643976 2.08743e-07 -0.000315562)
(0.64453 2.41208e-07 -0.000298715)
(0.645048 2.37237e-07 -0.000275689)
(0.645518 2.12382e-07 -0.000247628)
(0.645936 1.67579e-07 -0.000215905)
(0.646297 1.162e-07 -0.000182016)
(0.646599 9.40095e-08 -0.000147571)
(0.646844 1.2976e-07 -0.000114279)
(0.647036 2.05825e-07 -8.38362e-05)
(0.647181 2.55218e-07 -5.77244e-05)
(0.647286 2.09396e-07 -3.70438e-05)
(0.647362 6.27261e-08 -2.24776e-05)
(0.647419 -1.07881e-07 -1.43415e-05)
(0.647467 -1.99368e-07 -1.26057e-05)
(0.647518 -1.69657e-07 -1.68759e-05)
(0.64758 -6.69189e-08 -2.64515e-05)
(0.64766 2.44776e-08 -4.05009e-05)
(0.647764 4.67206e-08 -5.81812e-05)
(0.647896 -3.09368e-08 -7.85118e-05)
(0.64806 -2.28819e-07 -0.000100143)
(0.648255 -5.09044e-07 -0.000121385)
(0.64848 -7.15583e-07 -0.000140597)
(0.648732 -6.55267e-07 -0.000156549)
(0.649004 -3.13695e-07 -0.000168335)
(0.649287 5.29101e-08 -0.000175012)
(0.64957 1.46797e-07 -0.000175491)
(0.649841 -2.88051e-08 -0.000168881)
(0.65009 -1.45381e-07 -0.000154809)
(0.650305 7.04446e-08 -0.000133245)
(0.650473 4.90439e-07 -0.000103987)
(0.650577 7.08315e-07 -6.63845e-05)
(0.650604 4.95312e-07 -1.98011e-05)
(0.65054 4.5951e-08 3.56828e-05)
(0.650373 -2.54258e-07 9.96659e-05)
(0.650087 -2.34769e-07 0.000172334)
(0.649665 -6.34047e-08 0.000254635)
(0.649089 -1.17188e-08 0.000347813)
(0.648341 -1.70014e-07 0.000452913)
(0.647403 -4.00549e-07 0.000571041)
(0.64625 -5.15169e-07 0.000704226)
(0.644855 -4.63243e-07 0.000856065)
(0.643179 -3.80551e-07 0.00103163)
(0.641177 -4.80294e-07 0.00123708)
(0.638792 -8.06192e-07 0.00147996)
(0.635952 -9.8249e-07 0.00177046)
(0.632558 -3.20712e-07 0.00212321)
(0.628483 1.52658e-06 0.00255855)
(0.623561 3.9212e-06 0.00310298)
(0.61758 5.50184e-06 0.00378924)
(0.610271 5.3077e-06 0.00465702)
(0.601291 3.53335e-06 0.00575418)
(0.59021 1.09328e-06 0.0071377)
(0.576498 -1.21123e-06 0.00887389)
(0.559518 -2.77475e-06 0.0110372)
(0.538523 -2.91066e-06 0.0137064)
(0.512659 -1.35558e-06 0.0169575)
(0.480994 9.55634e-07 0.0208514)
(0.442562 2.47948e-06 0.0254168)
(0.396452 2.69046e-06 0.0306237)
(0.341935 2.53209e-06 0.0363414)
(0.278679 3.18604e-06 0.0422614)
(0.207152 5.08334e-06 0.0477282)
(0.129009 8.19217e-06 0.0513131)
(0.0499513 1.26621e-05 0.049625)
(-0.0237654 1.69039e-05 0.0324154)
(-0.0645171 1.73513e-05 -0.00500506)
(-0.0344553 1.063e-05 -0.0431261)
(-0.00672011 2.15545e-06 0.0672737)
(0.019465 -4.94143e-06 -0.0138348)
(0.0707537 -2.13138e-06 -0.0748779)
(0.132433 2.78409e-07 -0.10855)
(0.201178 5.15709e-07 -0.12374)
(0.273412 2.90999e-07 -0.12787)
(0.345632 2.81988e-07 -0.125133)
(0.415344 3.58923e-07 -0.118075)
(0.480765 2.59369e-07 -0.108305)
(0.540676 -1.32546e-07 -0.0969088)
(0.594305 -6.83407e-07 -0.0846603)
(0.641238 -1.06267e-06 -0.0721387)
(0.681343 -1.01082e-06 -0.0597857)
(0.71472 -5.82597e-07 -0.0479394)
(0.741642 -1.21063e-07 -0.0368525)
(0.762519 3.91117e-08 -0.026706)
(0.777853 -1.8278e-07 -0.0176204)
(0.788208 -6.15435e-07 -0.00966494)
(0.794184 -1.00276e-06 -0.00287079)
(0.796381 -1.1069e-06 0.00277995)
(0.795428 -8.00631e-07 0.00735282)
(0.791941 -1.97173e-07 0.0109304)
(0.786479 3.64482e-07 0.0135991)
(0.779553 5.66488e-07 0.0154506)
(0.771621 3.94219e-07 0.0165829)
(0.763081 1.16262e-07 0.0170964)
(0.754272 -7.32874e-09 0.0170913)
(0.745474 7.04854e-08 0.0166645)
(0.736914 2.30602e-07 0.0159076)
(0.728764 3.41306e-07 0.0149053)
(0.72115 3.53739e-07 0.0137338)
(0.714155 2.91394e-07 0.01246)
(0.70783 1.93814e-07 0.0111407)
(0.702192 9.02429e-08 0.00982274)
(0.697237 1.67034e-09 0.00854316)
(0.692942 -6.21643e-08 0.00733001)
(0.689268 -9.80991e-08 0.00620307)
(0.686171 -1.03609e-07 0.00517486)
(0.683598 -8.46151e-08 0.00425172)
(0.681495 -5.38197e-08 0.00343492)
(0.679808 -1.84367e-08 0.00272171)
(0.678485 2.36604e-08 0.00210626)
(0.677476 7.55778e-08 0.00158055)
(0.676738 1.32879e-07 0.00113505)
(0.67623 1.88027e-07 0.000759329)
(0.675917 2.35024e-07 0.000442736)
(0.675772 2.66949e-07 0.00017474)
(0.675768 2.77001e-07 -5.3483e-05)
(0.675887 2.62072e-07 -0.000248605)
(0.676114 2.22965e-07 -0.000417242)
(0.676437 1.63321e-07 -0.000565978)
(0.676846 8.96127e-08 -0.000700163)
(0.677334 1.15862e-08 -0.000823696)
(0.677895 -5.94394e-08 -0.000939019)
(0.678525 -1.14548e-07 -0.00104724)
(0.679218 -1.48608e-07 -0.00114835)
(0.679968 -1.59114e-07 -0.00124147)
(0.680769 -1.4645e-07 -0.00132514)
(0.681615 -1.14224e-07 -0.00139761)
(0.682497 -6.83664e-08 -0.00145708)
(0.683407 -1.58836e-08 -0.00150196)
(0.684336 3.59231e-08 -0.00153101)
(0.685272 7.92318e-08 -0.00154345)
(0.686208 1.05438e-07 -0.001539)
(0.687132 1.07033e-07 -0.00151787)
(0.688034 8.05048e-08 -0.00148067)
(0.688907 2.77474e-08 -0.00142833)
(0.689741 -4.43026e-08 -0.00136194)
(0.690527 -1.24368e-07 -0.00128272)
(0.691261 -1.98381e-07 -0.0011919)
(0.691934 -2.52288e-07 -0.00109071)
(0.692541 -2.75277e-07 -0.000980412)
(0.693078 -2.6228e-07 -0.000862354)
(0.693541 -2.15445e-07 -0.000738082)
(0.693926 -1.43747e-07 -0.000609469)
(0.694232 -6.11049e-08 -0.000478832)
(0.69446 1.58676e-08 -0.000349029)
(0.694611 7.10099e-08 -0.000223486)
(0.694688 9.3144e-08 -0.00010615)
(0.694699 7.99318e-08 -1.2328e-06)
(0.694653 3.79333e-08 8.75502e-05)
(0.694562 -1.99843e-08 0.000156301)
(0.694441 -7.73676e-08 0.000200394)
(0.694308 -1.17779e-07 0.00021535)
(0.694182 -1.2923e-07 0.000197189)
(0.694085 -1.07473e-07 0.000142744)
(0.694038 -5.64786e-08 4.99625e-05)
(0.694063 1.24039e-08 -8.1324e-05)
(0.694181 8.18811e-08 -0.000248806)
(0.694412 1.3257e-07 -0.000448656)
(0.694771 1.49715e-07 -0.000676081)
(0.695273 1.29017e-07 -0.000925008)
(0.695928 7.697e-08 -0.00118824)
(0.69674 7.18865e-09 -0.00145775)
(0.69771 -6.34018e-08 -0.00172507)
(0.698834 -1.17251e-07 -0.00198164)
(0.700101 -1.40112e-07 -0.00221932)
(0.701498 -1.26306e-07 -0.00243069)
(0.703007 -8.17437e-08 -0.00260942)
(0.704607 -2.15638e-08 -0.00275054)
(0.706274 3.58316e-08 -0.00285058)
(0.707984 7.37677e-08 -0.00290765)
(0.709711 7.9711e-08 -0.00292146)
(0.711429 4.8564e-08 -0.00289321)
(0.713117 -1.22881e-08 -0.00282547)
(0.714751 -8.2719e-08 -0.00272204)
(0.716313 -1.39731e-07 -0.00258771)
(0.717787 -1.69515e-07 -0.00242803)
(0.71916 -1.6848e-07 -0.00224913)
(0.720425 -1.34854e-07 -0.00205741)
(0.721575 -6.82742e-08 -0.00185933)
(0.722608 1.71245e-08 -0.00166114)
(0.723527 8.74201e-08 -0.0014687)
(0.724336 1.09753e-07 -0.00128737)
(0.725043 8.10796e-08 -0.00112174)
(0.725659 2.75808e-08 -0.00097558)
(0.726195 -2.75399e-08 -0.000851714)
(0.726665 -8.49489e-08 -0.000752055)
(0.727085 -1.48836e-07 -0.000677629)
(0.727469 -1.95494e-07 -0.000628502)
(0.727832 -1.83408e-07 -0.00060368)
(0.728187 -1.03477e-07 -0.000601143)
(0.728546 -6.35168e-09 -0.000618032)
(0.728919 3.71558e-08 -0.000650847)
(0.729314 4.13556e-09 -0.000695507)
(0.729734 -6.16228e-08 -0.000747356)
(0.730183 -1.01369e-07 -0.000801328)
(0.73066 -1.00788e-07 -0.000852348)
(0.731161 -8.93901e-08 -0.000895793)
(0.731682 -8.87738e-08 -0.000927782)
(0.732215 -7.92961e-08 -0.00094524)
(0.732749 -2.6269e-08 -0.00094592)
(0.733276 6.985e-08 -0.000928543)
(0.733784 1.61776e-07 -0.00089301)
(0.734264 1.96011e-07 -0.000840469)
(0.734707 1.60184e-07 -0.000773152)
(0.735105 8.99952e-08 -0.000694076)
(0.735454 3.54597e-08 -0.000606799)
(0.73575 2.31754e-08 -0.000515287)
(0.735993 4.63086e-08 -0.000423778)
(0.736185 8.27067e-08 -0.000336531)
(0.73633 1.159e-07 -0.000257468)
(0.736433 1.35782e-07 -0.00018987)
(0.736503 1.25919e-07 -0.000136216)
(0.736548 6.92958e-08 -9.81402e-05)
(0.736576 -1.94463e-08 -7.64034e-05)
(0.736599 -8.03877e-08 -7.08399e-05)
(0.736624 -5.78139e-08 -8.03766e-05)
(0.736661 2.67563e-08 -0.000103203)
(0.736714 7.68006e-08 -0.000137033)
(0.736789 1.92051e-08 -0.000179245)
(0.736889 -1.14117e-07 -0.000226824)
(0.737016 -2.27565e-07 -0.000276295)
(0.737171 -2.69221e-07 -0.000323925)
(0.73735 -2.57775e-07 -0.000366108)
(0.73755 -2.09278e-07 -0.000399593)
(0.737764 -1.00678e-07 -0.000421415)
(0.737984 5.64713e-08 -0.000428815)
(0.7382 1.58579e-07 -0.000419411)
(0.738402 1.07733e-07 -0.000391445)
(0.738578 -3.13261e-08 -0.000343719)
(0.738716 -5.47568e-08 -0.000275244)
(0.738803 1.40295e-07 -0.000185099)
(0.738826 3.80328e-07 -7.27318e-05)
(0.73877 3.68736e-07 6.21284e-05)
(0.738621 3.82052e-08 0.000219896)
(0.738366 -3.19242e-07 0.000401181)
(0.73799 -3.47333e-07 0.00060719)
(0.737481 -3.47282e-08 0.000839811)
(0.73682 2.5136e-07 0.00110097)
(0.735991 1.73565e-07 0.00139285)
(0.734972 -1.86646e-07 0.00171925)
(0.733739 -4.05309e-07 0.00208712)
(0.732265 -1.68444e-07 0.00250704)
(0.730514 3.96501e-07 0.00299299)
(0.728437 8.38104e-07 0.00356264)
(0.725976 7.76433e-07 0.00423916)
(0.723053 1.68796e-07 0.005054)
(0.719569 -7.24852e-07 0.00604937)
(0.71539 -1.52472e-06 0.00728012)
(0.710347 -1.89141e-06 0.00881542)
(0.704219 -1.6384e-06 0.0107413)
(0.696726 -8.11614e-07 0.0131633)
(0.687518 2.80016e-07 0.0162079)
(0.676161 1.14596e-06 0.0200208)
(0.662132 1.37663e-06 0.0247626)
(0.644815 9.48989e-07 0.0306005)
(0.623504 2.44086e-07 0.0376956)
(0.597425 -2.92488e-07 0.046181)
(0.565765 -4.82572e-07 0.0561295)
(0.527734 -4.42972e-07 0.0675055)
(0.482659 -4.39591e-07 0.0800963)
(0.430116 -7.1161e-07 0.0934069)
(0.370132 -1.28664e-06 0.106486)
(0.303496 -2.03103e-06 0.117609)
(0.232071 -2.648e-06 0.123617)
(0.159596 -2.3417e-06 0.118816)
(0.0903989 -8.13366e-07 0.0923692)
(0.029691 8.37714e-07 0.0313652)
(0.00129108 9.18204e-07 -0.0664285)
(-0.00670088 2.15552e-06 0.0672661)
(0.0194725 -4.94141e-06 -0.0138457)
(0.0707586 -2.1314e-06 -0.0748878)
(0.132439 2.78412e-07 -0.108557)
(0.201184 5.15714e-07 -0.123745)
(0.273419 2.91002e-07 -0.127873)
(0.345638 2.8199e-07 -0.125135)
(0.415349 3.58926e-07 -0.118076)
(0.480768 2.5937e-07 -0.108306)
(0.540677 -1.32547e-07 -0.0969086)
(0.594304 -6.8341e-07 -0.08466)
(0.641236 -1.06268e-06 -0.0721388)
(0.681341 -1.01082e-06 -0.0597864)
(0.714716 -5.82598e-07 -0.0479403)
(0.741637 -1.21063e-07 -0.036853)
(0.762511 3.91117e-08 -0.0267058)
(0.777844 -1.8278e-07 -0.0176196)
(0.788198 -6.15434e-07 -0.00966418)
(0.794174 -1.00276e-06 -0.00287054)
(0.79637 -1.1069e-06 0.00277941)
(0.795419 -8.00628e-07 0.00735163)
(0.791931 -1.97173e-07 0.0109292)
(0.786469 3.6448e-07 0.0135983)
(0.779543 5.66485e-07 0.0154506)
(0.77161 3.94217e-07 0.0165834)
(0.76307 1.16261e-07 0.017097)
(0.754261 -7.3287e-09 0.0170917)
(0.745464 7.0485e-08 0.0166646)
(0.736904 2.30601e-07 0.0159077)
(0.728754 3.41304e-07 0.0149055)
(0.72114 3.53737e-07 0.0137342)
(0.714146 2.91392e-07 0.0124604)
(0.70782 1.93813e-07 0.011141)
(0.702183 9.02424e-08 0.00982286)
(0.697228 1.67033e-09 0.00854311)
(0.692932 -6.21639e-08 0.00732981)
(0.689259 -9.80986e-08 0.00620276)
(0.686161 -1.03608e-07 0.00517451)
(0.683589 -8.46147e-08 0.00425141)
(0.681486 -5.38194e-08 0.0034347)
(0.679799 -1.84366e-08 0.00272161)
(0.678475 2.36602e-08 0.0021063)
(0.677467 7.55774e-08 0.0015807)
(0.676728 1.32878e-07 0.00113528)
(0.67622 1.88026e-07 0.000759626)
(0.675908 2.35023e-07 0.000443062)
(0.675762 2.66947e-07 0.00017506)
(0.675758 2.76999e-07 -5.32025e-05)
(0.675877 2.6207e-07 -0.000248391)
(0.676104 2.22963e-07 -0.000417106)
(0.676427 1.63321e-07 -0.000565923)
(0.676836 8.96122e-08 -0.00070018)
(0.677324 1.15862e-08 -0.000823766)
(0.677885 -5.9439e-08 -0.000939119)
(0.678515 -1.14548e-07 -0.00104735)
(0.679208 -1.48607e-07 -0.00114845)
(0.679958 -1.59113e-07 -0.00124155)
(0.680759 -1.46449e-07 -0.0013252)
(0.681605 -1.14223e-07 -0.00139764)
(0.682487 -6.8366e-08 -0.00145709)
(0.683397 -1.58835e-08 -0.00150197)
(0.684326 3.59229e-08 -0.00153103)
(0.685262 7.92314e-08 -0.00154349)
(0.686198 1.05437e-07 -0.00153909)
(0.687121 1.07032e-07 -0.00151801)
(0.688024 8.05044e-08 -0.00148087)
(0.688897 2.77472e-08 -0.00142856)
(0.68973 -4.43023e-08 -0.00136219)
(0.690517 -1.24367e-07 -0.00128297)
(0.69125 -1.9838e-07 -0.00119211)
(0.691923 -2.52287e-07 -0.00109086)
(0.692531 -2.75275e-07 -0.000980486)
(0.693068 -2.62278e-07 -0.000862352)
(0.69353 -2.15444e-07 -0.000738023)
(0.693916 -1.43746e-07 -0.000609381)
(0.694222 -6.11046e-08 -0.000478751)
(0.69445 1.58675e-08 -0.00034899)
(0.6946 7.10095e-08 -0.000223515)
(0.694678 9.31434e-08 -0.00010626)
(0.694689 7.99314e-08 -1.41671e-06)
(0.694642 3.79331e-08 8.73161e-05)
(0.694551 -1.99842e-08 0.000156052)
(0.69443 -7.73672e-08 0.00020017)
(0.694297 -1.17778e-07 0.000215185)
(0.694172 -1.29229e-07 0.000197103)
(0.694075 -1.07472e-07 0.000142743)
(0.694028 -5.64783e-08 5.00312e-05)
(0.694053 1.24038e-08 -8.12153e-05)
(0.694171 8.18806e-08 -0.000248696)
(0.694401 1.32569e-07 -0.000448585)
(0.694761 1.49714e-07 -0.000676076)
(0.695263 1.29016e-07 -0.000925075)
(0.695918 7.69695e-08 -0.00118837)
(0.69673 7.18861e-09 -0.00145791)
(0.6977 -6.34014e-08 -0.00172522)
(0.698824 -1.17251e-07 -0.00198176)
(0.700091 -1.40111e-07 -0.00221938)
(0.701488 -1.26305e-07 -0.00243068)
(0.702997 -8.17433e-08 -0.00260937)
(0.704597 -2.15636e-08 -0.00275048)
(0.706264 3.58314e-08 -0.00285054)
(0.707974 7.37673e-08 -0.00290766)
(0.7097 7.97106e-08 -0.00292153)
(0.711419 4.85638e-08 -0.00289333)
(0.713106 -1.2288e-08 -0.00282561)
(0.71474 -8.27186e-08 -0.00272217)
(0.716302 -1.3973e-07 -0.00258777)
(0.717776 -1.69514e-07 -0.00242802)
(0.71915 -1.68479e-07 -0.00224903)
(0.720414 -1.34854e-07 -0.00205725)
(0.721564 -6.82738e-08 -0.00185915)
(0.722598 1.71244e-08 -0.00166098)
(0.723516 8.74197e-08 -0.0014686)
(0.724325 1.09752e-07 -0.00128732)
(0.725032 8.10792e-08 -0.00112175)
(0.725648 2.75807e-08 -0.000975634)
(0.726184 -2.75397e-08 -0.000851776)
(0.726654 -8.49485e-08 -0.000752086)
(0.727074 -1.48835e-07 -0.000677601)
(0.727458 -1.95493e-07 -0.000628404)
(0.727821 -1.83407e-07 -0.000603522)
(0.728176 -1.03476e-07 -0.000600955)
(0.728535 -6.35164e-09 -0.000617858)
(0.728908 3.71555e-08 -0.000650729)
(0.729302 4.13554e-09 -0.000695466)
(0.729723 -6.16225e-08 -0.000747394)
(0.730172 -1.01369e-07 -0.00080144)
(0.730649 -1.00787e-07 -0.000852521)
(0.73115 -8.93896e-08 -0.000895985)
(0.731671 -8.87733e-08 -0.000927909)
(0.732204 -7.92956e-08 -0.000945215)
(0.732738 -2.62689e-08 -0.000945722)
(0.733265 6.98496e-08 -0.000928253)
(0.733773 1.61775e-07 -0.000892766)
(0.734253 1.9601e-07 -0.000840375)
(0.734696 1.60183e-07 -0.000773212)
(0.735094 8.99947e-08 -0.000694217)
(0.735443 3.54595e-08 -0.000606938)
(0.735739 2.31753e-08 -0.000515378)
(0.735982 4.63083e-08 -0.000423813)
(0.736174 8.27063e-08 -0.000336509)
(0.736319 1.159e-07 -0.00025739)
(0.736422 1.35781e-07 -0.000189751)
(0.736492 1.25919e-07 -0.000136089)
(0.736536 6.92954e-08 -9.80386e-05)
(0.736565 -1.94462e-08 -7.6326e-05)
(0.736588 -8.03873e-08 -7.07399e-05)
(0.736614 -5.78136e-08 -8.01935e-05)
(0.73665 2.67562e-08 -0.000102927)
(0.736703 7.68002e-08 -0.000136737)
(0.736777 1.9205e-08 -0.00017903)
(0.736878 -1.14116e-07 -0.000226715)
(0.737005 -2.27564e-07 -0.000276198)
(0.73716 -2.69219e-07 -0.000323711)
(0.737339 -2.57774e-07 -0.000365741)
(0.737539 -2.09277e-07 -0.000399162)
(0.737753 -1.00677e-07 -0.000421052)
(0.737973 5.6471e-08 -0.000428589)
(0.738189 1.58579e-07 -0.000419309)
(0.738391 1.07732e-07 -0.000391417)
(0.738567 -3.13259e-08 -0.000343728)
(0.738705 -5.47565e-08 -0.000275287)
(0.738793 1.40294e-07 -0.000185202)
(0.738815 3.80326e-07 -7.29266e-05)
(0.738759 3.68734e-07 6.18695e-05)
(0.73861 3.8205e-08 0.000219704)
(0.738355 -3.1924e-07 0.000401215)
(0.73798 -3.47331e-07 0.000607474)
(0.737471 -3.4728e-08 0.000840156)
(0.73681 2.51359e-07 0.00110116)
(0.73598 1.73565e-07 0.00139289)
(0.73496 -1.86645e-07 0.00171943)
(0.733728 -4.05307e-07 0.00208764)
(0.732255 -1.68443e-07 0.00250774)
(0.730504 3.96499e-07 0.0029934)
(0.728427 8.381e-07 0.00356255)
(0.725965 7.76429e-07 0.00423897)
(0.723042 1.68795e-07 0.00505424)
(0.719557 -7.24848e-07 0.00604995)
(0.715379 -1.52472e-06 0.0072801)
(0.710337 -1.8914e-06 0.00881391)
(0.70421 -1.63839e-06 0.0107384)
(0.696718 -8.1161e-07 0.0131603)
(0.68751 2.80015e-07 0.0162058)
(0.676153 1.14595e-06 0.0200199)
(0.662123 1.37662e-06 0.0247627)
(0.644805 9.48983e-07 0.0306014)
(0.623494 2.44085e-07 0.0376969)
(0.597416 -2.92486e-07 0.0461822)
(0.565757 -4.82569e-07 0.0561302)
(0.527726 -4.42969e-07 0.067506)
(0.48265 -4.39588e-07 0.0800973)
(0.430107 -7.11604e-07 0.0934086)
(0.370122 -1.28663e-06 0.106488)
(0.303485 -2.03101e-06 0.117611)
(0.232061 -2.64798e-06 0.123619)
(0.15959 -2.34168e-06 0.118814)
(0.0904005 -8.1336e-07 0.0923611)
(0.0297011 8.37713e-07 0.0313506)
(0.00130626 9.18156e-07 -0.0664436)
(0.0238852 5.99359e-06 0.0343293)
(0.0746522 -2.31778e-06 -0.0703327)
(0.131702 -2.38571e-06 -0.13607)
(0.191397 -8.28653e-07 -0.173508)
(0.25291 -1.6542e-07 -0.191631)
(0.315586 -2.60409e-08 -0.196686)
(0.377813 3.02635e-08 -0.192799)
(0.438046 1.15097e-07 -0.182805)
(0.494973 2.11849e-07 -0.168709)
(0.547591 2.53663e-07 -0.151993)
(0.595203 1.50456e-07 -0.133784)
(0.63739 -9.70427e-08 -0.114964)
(0.673966 -3.71481e-07 -0.0962269)
(0.704943 -5.20841e-07 -0.0781143)
(0.730491 -4.89706e-07 -0.0610394)
(0.750902 -3.47769e-07 -0.0453037)
(0.766556 -2.06006e-07 -0.0311119)
(0.777896 -1.42808e-07 -0.0185846)
(0.785395 -1.95142e-07 -0.00777206)
(0.78955 -3.45964e-07 0.00132648)
(0.79084 -4.92365e-07 0.00874888)
(0.789786 -5.04242e-07 0.014595)
(0.786868 -3.51912e-07 0.0190013)
(0.782525 -1.47322e-07 0.0221129)
(0.777153 -2.79547e-08 0.0240846)
(0.771098 -2.54136e-08 0.0250757)
(0.76466 -6.21646e-08 0.0252448)
(0.758085 -5.72983e-08 0.0247454)
(0.751575 3.37956e-09 0.023722)
(0.745289 8.45723e-08 0.0223073)
(0.739343 1.48033e-07 0.0206204)
(0.73382 1.74272e-07 0.0187649)
(0.728773 1.62515e-07 0.0168288)
(0.72423 1.22987e-07 0.0148842)