/*--------------------------------*- C++ -*----------------------------------*\
  =========                 |
  \\      /  F ield         | OpenFOAM: The Open Source CFD Toolbox
   \\    /   O peration     | Website:  https://openfoam.org
    \\  /    A nd           | Version:  8
     \\/     M anipulation  |
\*---------------------------------------------------------------------------*/
FoamFile
{
    version     2.0;
    format      ascii;
    class       volScalarField;
    location    "1900";
    object      alphat;
}
// * * * * * * * * * * * * * * * * * * * * * * * * * * * * * * * * * * * * * //

dimensions      [1 -1 -1 0 0 0 0];

internalField   nonuniform List<scalar> 
48000
(
5.70933e-05
6.35312e-05
7.79237e-05
8.92363e-05
9.84964e-05
0.000106224
0.000112947
0.000119088
0.000124629
0.000129751
0.000134527
0.000139013
0.000143252
0.000147277
0.000151113
0.000154778
0.000158289
0.000161659
0.000164896
0.000168009
0.000171005
0.000173889
0.000176666
0.00017934
0.000181914
0.00018439
0.000186772
0.000189063
0.000191263
0.000193376
0.000195403
0.000197346
0.000199206
0.000200987
0.000202689
0.000204314
0.000205864
0.00020734
0.000208745
0.000210081
0.000211348
0.000212549
0.000213685
0.000214758
0.000215771
0.000216723
0.000217618
0.000218457
0.000219241
0.000219972
0.000220657
0.000221296
0.000221887
0.000222432
0.000222932
0.000223388
0.000223802
0.000224175
0.00022451
0.000224806
0.000225066
0.000225291
0.000225482
0.00022564
0.000225767
0.000225863
0.000225929
0.000225967
0.000225978
0.000225963
0.000225922
0.000225856
0.000225766
0.000225654
0.000225519
0.000225362
0.000225185
0.000224987
0.00022477
0.000224534
0.000224279
0.000224006
0.000223716
0.000223409
0.000223085
0.000222746
0.00022239
0.000222019
0.000221633
0.000221232
0.000220816
0.000220387
0.000219943
0.000219486
0.000219015
0.00021853
0.000218033
0.000217522
0.000216998
0.000216462
0.000215912
0.00021535
0.000214776
0.000214188
0.000213588
0.000212976
0.000212351
0.000211713
0.000211063
0.0002104
0.000209724
0.000209035
0.000208334
0.000207619
0.000206891
0.00020615
0.000205396
0.000204628
0.000203846
0.00020305
0.000202241
0.000201417
0.000200579
0.000199726
0.000198858
0.000197976
0.000197078
0.000196164
0.000195235
0.00019429
0.000193329
0.000192351
0.000191357
0.000190345
0.000189316
0.00018827
0.000187206
0.000186124
0.000185024
0.000183905
0.000182768
0.000181611
0.000180435
0.000179239
0.000178023
0.000176787
0.000175531
0.000174254
0.000172956
0.000171636
0.000170295
0.000168933
0.000167548
0.000166141
0.000164711
0.000163258
0.000161782
0.000160283
0.000158759
0.000157212
0.00015564
0.000154044
0.000152422
0.000150775
0.000149102
0.000147402
0.000145676
0.000143922
0.00014214
0.000140329
0.000138489
0.000136618
0.000134716
0.00013278
0.000130811
0.000128806
0.000126764
0.000124682
0.000122558
0.00012039
0.000118173
0.000115903
0.000113578
0.000111195
0.000108754
0.000106259
0.000103674
0.000100982
9.81667e-05
9.52035e-05
9.20612e-05
8.86971e-05
8.50536e-05
8.10943e-05
7.66949e-05
7.1667e-05
6.58914e-05
6.0973e-05
0.000398817
0.000194465
5.71043e-05
6.35436e-05
7.79239e-05
8.92367e-05
9.8497e-05
0.000106224
0.000112948
0.000119088
0.000124629
0.000129751
0.000134527
0.000139014
0.000143253
0.000147278
0.000151113
0.000154779
0.00015829
0.000161659
0.000164896
0.00016801
0.000171006
0.00017389
0.000176667
0.00017934
0.000181914
0.00018439
0.000186773
0.000189063
0.000191263
0.000193376
0.000195403
0.000197346
0.000199207
0.000200987
0.000202689
0.000204314
0.000205864
0.00020734
0.000208745
0.000210081
0.000211348
0.000212549
0.000213685
0.000214758
0.000215771
0.000216723
0.000217618
0.000218457
0.000219241
0.000219971
0.000220657
0.000221296
0.000221887
0.000222432
0.000222932
0.000223388
0.000223802
0.000224175
0.00022451
0.000224806
0.000225066
0.000225291
0.000225482
0.00022564
0.000225766
0.000225862
0.000225929
0.000225967
0.000225978
0.000225963
0.000225922
0.000225856
0.000225766
0.000225654
0.000225519
0.000225362
0.000225185
0.000224987
0.00022477
0.000224534
0.000224279
0.000224006
0.000223716
0.000223409
0.000223085
0.000222745
0.00022239
0.000222019
0.000221633
0.000221232
0.000220816
0.000220387
0.000219943
0.000219485
0.000219014
0.00021853
0.000218032
0.000217522
0.000216998
0.000216461
0.000215912
0.00021535
0.000214775
0.000214188
0.000213588
0.000212976
0.000212351
0.000211713
0.000211063
0.0002104
0.000209724
0.000209035
0.000208333
0.000207619
0.000206891
0.00020615
0.000205396
0.000204628
0.000203846
0.00020305
0.000202241
0.000201417
0.000200579
0.000199726
0.000198858
0.000197976
0.000197078
0.000196164
0.000195235
0.00019429
0.000193329
0.000192351
0.000191356
0.000190345
0.000189316
0.00018827
0.000187206
0.000186124
0.000185024
0.000183905
0.000182768
0.000181611
0.000180435
0.000179239
0.000178023
0.000176787
0.000175531
0.000174254
0.000172956
0.000171636
0.000170295
0.000168933
0.000167548
0.00016614
0.000164711
0.000163258
0.000161782
0.000160282
0.000158759
0.000157212
0.00015564
0.000154044
0.000152422
0.000150775
0.000149102
0.000147402
0.000145676
0.000143922
0.00014214
0.000140329
0.000138489
0.000136618
0.000134716
0.00013278
0.000130811
0.000128806
0.000126764
0.000124682
0.000122558
0.00012039
0.000118172
0.000115903
0.000113578
0.000111195
0.000108754
0.000106259
0.000103674
0.000100982
9.81668e-05
9.52035e-05
9.20613e-05
8.86972e-05
8.50536e-05
8.10942e-05
7.66941e-05
7.16636e-05
6.58781e-05
6.09384e-05
0.000398667
0.000193989
5.45857e-05
0.000402627
0.000639923
0.000804154
0.000927875
0.00102913
0.00111571
0.00119136
0.00125921
0.00132084
0.00137743
0.00142985
0.00147874
0.00152462
0.00156787
0.0016088
0.00164765
0.00168462
0.00171988
0.00175356
0.00178578
0.00181663
0.00184619
0.00187453
0.00190171
0.00192777
0.00195278
0.00197676
0.00199976
0.0020218
0.00204292
0.00206314
0.0020825
0.00210102
0.00211872
0.00213563
0.00215176
0.00216715
0.00218181
0.00219576
0.00220903
0.00222162
0.00223357
0.00224489
0.0022556
0.00226572
0.00227526
0.00228423
0.00229265
0.0023005
0.00230768
0.00231433
0.00232051
0.00232623
0.00233152
0.00233639
0.00234087
0.00234496
0.00234868
0.00235204
0.00235506
0.00235774
0.00236009
0.00236213
0.00236387
0.00236532
0.00236648
0.00236736
0.00236798
0.00236834
0.00236845
0.00236832
0.00236795
0.00236735
0.00236653
0.00236549
0.00236425
0.0023628
0.00236114
0.0023593
0.00235726
0.00235504
0.00235264
0.00235006
0.00234731
0.00234439
0.0023413
0.00233805
0.00233464
0.00233108
0.00232735
0.00232348
0.00231945
0.00231527
0.00231095
0.00230647
0.00230186
0.0022971
0.0022922
0.00228715
0.00228197
0.00227664
0.00227117
0.00226557
0.00225982
0.00225393
0.0022479
0.00224173
0.00223542
0.00222896
0.00222237
0.00221562
0.00220874
0.0022017
0.00219452
0.00218719
0.00217971
0.00217208
0.00216429
0.00215635
0.00214825
0.00213999
0.00213157
0.00212299
0.00211424
0.00210532
0.00209623
0.00208697
0.00207753
0.00206792
0.00205813
0.00204815
0.00203799
0.00202764
0.0020171
0.00200637
0.00199544
0.00198431
0.00197298
0.00196145
0.00194971
0.00193776
0.0019256
0.00191322
0.00190063
0.00188781
0.00187477
0.00186151
0.00184802
0.00183429
0.00182033
0.00180613
0.0017917
0.00177702
0.00176209
0.00174691
0.00173149
0.0017158
0.00169986
0.00168365
0.00166717
0.00165043
0.00163341
0.0016161
0.00159851
0.00158063
0.00156245
0.00154396
0.00152515
0.00150602
0.00148655
0.00146673
0.00144655
0.001426
0.00140504
0.00138366
0.00136184
0.00133955
0.00131674
0.00129339
0.00126943
0.0012448
0.00121943
0.00119317
0.00116588
0.00113737
0.0011076
0.00107643
0.00104363
0.00100884
0.000971624
0.000931243
0.000886493
0.000834994
0.000775152
0.000703387
0.000612594
0.000486114
0.000280294
3.81583e-05
5.45971e-05
0.000402656
0.000639974
0.000804197
0.000927916
0.00102917
0.00111575
0.0011914
0.00125925
0.00132088
0.00137747
0.00142988
0.00147878
0.00152466
0.00156791
0.00160883
0.00164768
0.00168465
0.00171991
0.00175359
0.00178581
0.00181666
0.00184622
0.00187456
0.00190173
0.0019278
0.0019528
0.00197679
0.00199978
0.00202182
0.00204294
0.00206316
0.00208252
0.00210104
0.00211874
0.00213565
0.00215178
0.00216717
0.00218183
0.00219578
0.00220904
0.00222164
0.00223359
0.00224491
0.00225562
0.00226573
0.00227527
0.00228425
0.00229267
0.00230052
0.00230769
0.00231435
0.00232052
0.00232624
0.00233153
0.0023364
0.00234088
0.00234497
0.00234869
0.00235206
0.00235507
0.00235775
0.00236011
0.00236215
0.00236389
0.00236533
0.00236649
0.00236738
0.00236799
0.00236835
0.00236846
0.00236833
0.00236796
0.00236736
0.00236654
0.00236551
0.00236426
0.00236281
0.00236116
0.00235931
0.00235727
0.00235505
0.00235265
0.00235007
0.00234732
0.0023444
0.00234132
0.00233807
0.00233465
0.00233109
0.00232736
0.00232349
0.00231946
0.00231528
0.00231096
0.00230648
0.00230187
0.00229711
0.00229221
0.00228716
0.00228198
0.00227665
0.00227118
0.00226558
0.00225983
0.00225394
0.00224791
0.00224174
0.00223543
0.00222897
0.00222238
0.00221563
0.00220875
0.00220171
0.00219453
0.0021872
0.00217972
0.00217209
0.0021643
0.00215636
0.00214826
0.00214
0.00213158
0.002123
0.00211425
0.00210533
0.00209624
0.00208698
0.00207754
0.00206793
0.00205814
0.00204816
0.002038
0.00202765
0.00201711
0.00200638
0.00199545
0.00198432
0.00197299
0.00196146
0.00194972
0.00193777
0.00192561
0.00191323
0.00190064
0.00188782
0.00187478
0.00186152
0.00184802
0.0018343
0.00182034
0.00180614
0.00179171
0.00177703
0.0017621
0.00174692
0.00173149
0.00171581
0.00169986
0.00168366
0.00166718
0.00165044
0.00163341
0.00161611
0.00159852
0.00158064
0.00156245
0.00154396
0.00152516
0.00150603
0.00148656
0.00146674
0.00144656
0.001426
0.00140505
0.00138367
0.00136185
0.00133956
0.00131675
0.0012934
0.00126944
0.00124481
0.00121943
0.00119318
0.00116589
0.00113738
0.00110761
0.00107644
0.00104363
0.00100885
0.00097163
0.000931249
0.000886498
0.000834998
0.000775153
0.000703385
0.000612628
0.000486353
0.000280222
3.81364e-05
6.6685e-05
0.000608587
0.00108357
0.00143901
0.00172106
0.00195569
0.00215727
0.0023343
0.00249251
0.0026357
0.00276658
0.00288717
0.00299901
0.00310332
0.00320103
0.00329293
0.00337964
0.00346169
0.0035395
0.00361344
0.00368382
0.00375091
0.00381492
0.00387606
0.00393449
0.00399035
0.0040438
0.00409493
0.00414385
0.00419067
0.00423545
0.00427829
0.00431926
0.00435843
0.00439585
0.00443159
0.00446571
0.00449825
0.00452928
0.00455885
0.00458699
0.00461375
0.00463919
0.00466334
0.00468624
0.00470794
0.00472846
0.00474783
0.00476608
0.0047832
0.00479916
0.00481406
0.00482798
0.00484098
0.0048531
0.00486437
0.00487483
0.00488451
0.00489344
0.00490163
0.00490912
0.00491594
0.00492209
0.00492761
0.00493251
0.00493682
0.00494055
0.00494371
0.00494634
0.00494843
0.00495002
0.0049511
0.00495171
0.00495184
0.00495152
0.00495075
0.00494954
0.00494791
0.00494587
0.00494342
0.00494058
0.00493736
0.00493375
0.00492977
0.00492544
0.00492074
0.00491569
0.0049103
0.00490457
0.0048985
0.0048921
0.00488538
0.00487834
0.00487097
0.00486329
0.0048553
0.00484699
0.00483838
0.00482945
0.00482023
0.00481069
0.00480085
0.00479071
0.00478026
0.00476951
0.00475845
0.00474709
0.00473542
0.00472344
0.00471115
0.00469854
0.00468563
0.00467239
0.00465884
0.00464497
0.00463077
0.00461624
0.00460138
0.00458618
0.00457065
0.00455477
0.00453854
0.00452196
0.00450502
0.00448772
0.00447005
0.00445201
0.0044336
0.0044148
0.00439561
0.00437603
0.00435605
0.00433567
0.00431487
0.00429366
0.00427202
0.00424996
0.00422746
0.00420452
0.00418113
0.00415729
0.00413299
0.00410822
0.00408298
0.00405726
0.00403105
0.00400434
0.00397714
0.00394943
0.0039212
0.00389244
0.00386316
0.00383334
0.00380297
0.00377204
0.00374055
0.00370848
0.00367582
0.00364257
0.00360871
0.00357423
0.00353911
0.00350334
0.0034669
0.00342977
0.00339194
0.00335339
0.00331408
0.00327399
0.00323309
0.00319135
0.00314872
0.00310517
0.00306063
0.00301506
0.00296839
0.00292054
0.00287142
0.00282093
0.00276894
0.00271531
0.00265984
0.00260232
0.00254245
0.0024799
0.00241429
0.0023452
0.00227208
0.00219416
0.0021104
0.00201944
0.00191928
0.00180704
0.00167845
0.00152799
0.00134777
0.0011246
0.000837207
0.000453729
5.02281e-05
6.66853e-05
0.00060863
0.00108364
0.00143909
0.00172115
0.00195578
0.00215736
0.00233439
0.0024926
0.00263579
0.00276666
0.00288725
0.0029991
0.0031034
0.00320111
0.00329301
0.00337972
0.00346176
0.00353957
0.00361351
0.00368389
0.00375097
0.00381498
0.00387611
0.00393454
0.00399041
0.00404385
0.00409497
0.0041439
0.00419071
0.00423549
0.00427833
0.0043193
0.00435846
0.00439588
0.00443162
0.00446574
0.00449828
0.00452931
0.00455887
0.00458701
0.00461378
0.00463921
0.00466336
0.00468626
0.00470796
0.00472848
0.00474785
0.0047661
0.00478321
0.00479917
0.00481407
0.004828
0.00484099
0.00485311
0.00486438
0.00487484
0.00488452
0.00489344
0.00490164
0.00490913
0.00491594
0.0049221
0.00492762
0.00493252
0.00493682
0.00494055
0.00494372
0.00494634
0.00494844
0.00495002
0.00495111
0.00495171
0.00495184
0.00495152
0.00495075
0.00494954
0.00494791
0.00494587
0.00494343
0.00494058
0.00493736
0.00493375
0.00492978
0.00492544
0.00492074
0.00491569
0.0049103
0.00490457
0.0048985
0.0048921
0.00488538
0.00487834
0.00487097
0.00486329
0.0048553
0.00484699
0.00483838
0.00482945
0.00482022
0.00481069
0.00480085
0.00479071
0.00478026
0.00476951
0.00475845
0.00474709
0.00473541
0.00472343
0.00471114
0.00469854
0.00468563
0.00467239
0.00465884
0.00464497
0.00463077
0.00461624
0.00460138
0.00458618
0.00457064
0.00455476
0.00453854
0.00452195
0.00450502
0.00448772
0.00447005
0.00445201
0.00443359
0.0044148
0.00439561
0.00437603
0.00435605
0.00433566
0.00431487
0.00429366
0.00427202
0.00424996
0.00422746
0.00420452
0.00418113
0.00415729
0.00413299
0.00410822
0.00408298
0.00405725
0.00403104
0.00400434
0.00397713
0.00394942
0.00392119
0.00389244
0.00386316
0.00383334
0.00380296
0.00377204
0.00374054
0.00370848
0.00367582
0.00364257
0.00360871
0.00357422
0.0035391
0.00350333
0.00346689
0.00342977
0.00339194
0.00335338
0.00331408
0.00327399
0.00323309
0.00319134
0.00314872
0.00310516
0.00306063
0.00301506
0.00296839
0.00292054
0.00287142
0.00282093
0.00276894
0.00271531
0.00265984
0.00260232
0.00254245
0.0024799
0.00241428
0.0023452
0.00227208
0.00219416
0.0021104
0.00201944
0.00191928
0.00180704
0.00167845
0.00152799
0.00134776
0.00112459
0.000837258
0.000453599
5.0254e-05
7.57531e-05
0.000728384
0.00137544
0.00189228
0.00231625
0.00267515
0.00298663
0.0032621
0.00350929
0.00373364
0.00393909
0.0041286
0.00430447
0.00446847
0.00462205
0.00476639
0.00490244
0.00503102
0.0051528
0.00526836
0.00537819
0.00548272
0.0055823
0.00567728
0.00576791
0.00585446
0.00593715
0.00601617
0.0060917
0.00616391
0.00623293
0.00629891
0.00636198
0.00642224
0.00647981
0.00653478
0.00658726
0.00663734
0.00668509
0.00673062
0.00677398
0.00681527
0.00685455
0.00689188
0.00692735
0.00696099
0.00699288
0.00702306
0.00705158
0.00707846
0.00710373
0.00712743
0.0071497
0.0071706
0.00719019
0.00720852
0.00722564
0.00724159
0.00725642
0.00727017
0.00728287
0.00729457
0.00730529
0.00731506
0.00732393
0.00733191
0.00733903
0.00734533
0.00735082
0.00735553
0.00735948
0.00736269
0.00736519
0.00736699
0.00736811
0.00736857
0.00736839
0.00736757
0.00736614
0.00736411
0.00736149
0.00735829
0.00735453
0.00735022
0.00734536
0.00733997
0.00733406
0.00732762
0.00732068
0.00731323
0.00730529
0.00729686
0.00728794
0.00727854
0.00726866
0.00725831
0.00724748
0.00723619
0.00722444
0.00721222
0.00719953
0.00718639
0.00717278
0.0071587
0.00714417
0.00712917
0.0071137
0.00709776
0.00708136
0.00706448
0.00704712
0.00702929
0.00701097
0.00699216
0.00697286
0.00695306
0.00693276
0.00691195
0.00689063
0.00686879
0.00684642
0.00682351
0.00680007
0.00677607
0.00675153
0.00672641
0.00670073
0.00667447
0.00664762
0.00662017
0.00659212
0.00656345
0.00653416
0.00650424
0.00647368
0.00644246
0.00641058
0.00637803
0.0063448
0.00631087
0.00627624
0.00624089
0.00620483
0.00616802
0.00613046
0.00609215
0.00605306
0.00601319
0.00597252
0.00593104
0.00588874
0.00584559
0.0058016
0.00575673
0.00571097
0.00566431
0.00561672
0.00556819
0.0055187
0.00546821
0.00541671
0.00536417
0.00531056
0.00525585
0.0052
0.00514297
0.00508472
0.00502521
0.00496437
0.00490215
0.00483849
0.00477331
0.00470652
0.00463803
0.00456773
0.0044955
0.00442119
0.00434464
0.00426564
0.00418398
0.00409938
0.00401151
0.00391999
0.00382432
0.00372395
0.00361819
0.00350623
0.00338702
0.00325922
0.00312105
0.00297017
0.00280341
0.00261652
0.00240369
0.00215697
0.00186602
0.00151582
0.00108634
0.000559574
5.79956e-05
7.57537e-05
0.000728418
0.00137551
0.00189238
0.00231636
0.00267528
0.00298676
0.00326223
0.00350942
0.00373377
0.00393922
0.00412874
0.00430459
0.00446859
0.00462218
0.00476651
0.00490256
0.00503113
0.00515291
0.00526846
0.00537829
0.00548281
0.00558239
0.00567736
0.00576799
0.00585454
0.00593722
0.00601624
0.00609177
0.00616397
0.00623299
0.00629897
0.00636203
0.00642229
0.00647985
0.00653483
0.0065873
0.00663738
0.00668513
0.00673065
0.00677402
0.0068153
0.00685458
0.00689191
0.00692737
0.00696102
0.0069929
0.00702308
0.0070516
0.00707847
0.00710374
0.00712744
0.00714971
0.00717061
0.0071902
0.00720853
0.00722564
0.00724159
0.00725642
0.00727017
0.00728288
0.00729457
0.00730529
0.00731506
0.00732393
0.00733191
0.00733903
0.00734533
0.00735082
0.00735552
0.00735948
0.00736269
0.00736519
0.00736699
0.00736811
0.00736857
0.00736838
0.00736756
0.00736613
0.0073641
0.00736148
0.00735829
0.00735453
0.00735021
0.00734536
0.00733997
0.00733405
0.00732762
0.00732067
0.00731323
0.00730528
0.00729685
0.00728793
0.00727853
0.00726865
0.0072583
0.00724747
0.00723618
0.00722443
0.00721221
0.00719952
0.00718637
0.00717276
0.00715869
0.00714416
0.00712916
0.00711369
0.00709775
0.00708135
0.00706447
0.00704711
0.00702928
0.00701096
0.00699215
0.00697285
0.00695305
0.00693275
0.00691194
0.00689062
0.00686877
0.0068464
0.0068235
0.00680005
0.00677606
0.00675151
0.0067264
0.00670072
0.00667446
0.00664761
0.00662016
0.00659211
0.00656344
0.00653415
0.00650423
0.00647366
0.00644245
0.00641057
0.00637802
0.00634478
0.00631086
0.00627623
0.00624088
0.00620481
0.00616801
0.00613045
0.00609214
0.00605305
0.00601318
0.00597251
0.00593103
0.00588872
0.00584558
0.00580158
0.00575671
0.00571096
0.00566429
0.00561671
0.00556818
0.00551868
0.0054682
0.0054167
0.00536416
0.00531055
0.00525584
0.00519999
0.00514296
0.00508471
0.00502519
0.00496436
0.00490214
0.00483848
0.00477329
0.0047065
0.00463802
0.00456772
0.00449549
0.00442118
0.00434462
0.00426563
0.00418397
0.00409937
0.0040115
0.00391998
0.00382431
0.00372394
0.00361818
0.00350622
0.00338702
0.00325921
0.00312104
0.00297016
0.00280341
0.00261651
0.00240369
0.00215697
0.00186602
0.00151582
0.00108636
0.000559547
5.80008e-05
8.2996e-05
0.000812862
0.00158493
0.00222897
0.00277031
0.00323547
0.00364321
0.00400644
0.00433423
0.00463308
0.0049078
0.00516203
0.00539858
0.00561969
0.00582715
0.00602241
0.00620671
0.00638104
0.00654627
0.00670314
0.00685228
0.00699424
0.00712949
0.00725846
0.00738153
0.00749902
0.00761124
0.00771845
0.00782089
0.0079188
0.00801237
0.00810179
0.00818724
0.00826888
0.00834686
0.00842133
0.00849243
0.00856028
0.008625
0.00868671
0.00874552
0.00880154
0.00885487
0.00890561
0.00895384
0.00899965
0.00904313
0.00908434
0.00912336
0.00916024
0.00919505
0.00922783
0.00925873
0.00928783
0.00931519
0.00934089
0.00936499
0.00938755
0.00940863
0.00942828
0.00944656
0.00946351
0.00947919
0.00949362
0.00950685
0.00951893
0.00952989
0.00953976
0.00954857
0.00955637
0.00956317
0.00956901
0.00957392
0.00957791
0.00958102
0.00958326
0.00958466
0.00958524
0.00958501
0.009584
0.00958222
0.00957969
0.00957643
0.00957243
0.00956773
0.00956233
0.00955624
0.00954948
0.00954205
0.00953396
0.00952522
0.00951583
0.00950581
0.00949515
0.00948387
0.00947197
0.00945945
0.00944632
0.00943257
0.00941821
0.00940324
0.00938766
0.00937147
0.00935467
0.00933725
0.00931923
0.00930059
0.00928133
0.00926145
0.00924094
0.0092198
0.00919803
0.00917562
0.00915256
0.00912885
0.00910447
0.00907943
0.00905372
0.00902732
0.00900023
0.00897245
0.00894395
0.00891473
0.00888479
0.0088541
0.00882267
0.00879047
0.0087575
0.00872375
0.0086892
0.00865384
0.00861766
0.00858065
0.00854279
0.00850407
0.00846447
0.00842399
0.00838261
0.0083403
0.00829707
0.00825289
0.00820774
0.00816162
0.0081145
0.00806636
0.0080172
0.00796698
0.0079157
0.00786334
0.00780986
0.00775526
0.0076995
0.00764258
0.00758445
0.0075251
0.00746449
0.00740261
0.00733941
0.00727486
0.00720893
0.00714158
0.00707276
0.00700244
0.00693055
0.00685704
0.00678185
0.00670492
0.00662618
0.00654553
0.00646289
0.00637816
0.00629122
0.00620194
0.00611018
0.00601577
0.00591852
0.00581822
0.00571462
0.00560741
0.00549626
0.00538077
0.00526046
0.00513475
0.00500297
0.00486429
0.00471773
0.00456208
0.00439583
0.00421707
0.00402339
0.00381167
0.00357786
0.00331671
0.00302136
0.00268279
0.00228958
0.0018273
0.00127904
0.000638371
6.36722e-05
8.29968e-05
0.000812895
0.00158501
0.00222908
0.00277044
0.00323562
0.00364337
0.00400661
0.0043344
0.00463325
0.00490797
0.0051622
0.00539875
0.00561985
0.00582731
0.00602257
0.00620686
0.00638118
0.00654641
0.00670328
0.00685241
0.00699436
0.00712961
0.00725858
0.00738164
0.00749912
0.00761134
0.00771854
0.00782098
0.00791888
0.00801245
0.00810187
0.00818731
0.00826895
0.00834693
0.0084214
0.00849249
0.00856033
0.00862505
0.00868676
0.00874557
0.00880159
0.00885491
0.00890564
0.00895387
0.00899968
0.00904315
0.00908437
0.00912338
0.00916026
0.00919507
0.00922785
0.00925875
0.00928784
0.0093152
0.0093409
0.009365
0.00938756
0.00940864
0.00942829
0.00944657
0.00946352
0.00947919
0.00949362
0.00950685
0.00951893
0.00952989
0.00953975
0.00954857
0.00955636
0.00956317
0.00956901
0.00957391
0.0095779
0.00958101
0.00958325
0.00958465
0.00958523
0.009585
0.00958399
0.00958222
0.00957968
0.00957642
0.00957242
0.00956772
0.00956232
0.00955623
0.00954947
0.00954204
0.00953395
0.0095252
0.00951582
0.0095058
0.00949514
0.00948386
0.00947196
0.00945944
0.0094463
0.00943255
0.00941819
0.00940322
0.00938764
0.00937145
0.00935465
0.00933724
0.00931922
0.00930057
0.00928132
0.00926143
0.00924093
0.00921979
0.00919802
0.0091756
0.00915254
0.00912883
0.00910446
0.00907942
0.0090537
0.00902731
0.00900022
0.00897243
0.00894393
0.00891471
0.00888477
0.00885408
0.00882265
0.00879045
0.00875748
0.00872373
0.00868918
0.00865382
0.00861764
0.00858063
0.00854277
0.00850405
0.00846445
0.00842397
0.00838259
0.00834028
0.00829705
0.00825287
0.00820772
0.0081616
0.00811448
0.00806634
0.00801718
0.00796697
0.00791568
0.00786332
0.00780984
0.00775524
0.00769949
0.00764256
0.00758443
0.00752508
0.00746447
0.00740259
0.00733939
0.00727484
0.00720891
0.00714156
0.00707274
0.00700242
0.00693053
0.00685702
0.00678183
0.0067049
0.00662616
0.00654551
0.00646287
0.00637814
0.0062912
0.00620192
0.00611016
0.00601575
0.00591851
0.00581821
0.0057146
0.00560739
0.00549625
0.00538076
0.00526044
0.00513474
0.00500296
0.00486428
0.00471772
0.00456207
0.00439581
0.00421706
0.00402338
0.00381166
0.00357785
0.00331671
0.00302136
0.00268279
0.00228959
0.00182731
0.00127905
0.000638365
6.3673e-05
8.91539e-05
0.000880653
0.00174827
0.00249238
0.00312911
0.00368287
0.00417253
0.00461171
0.00501025
0.00537536
0.00571241
0.00602552
0.00631787
0.00659199
0.00684991
0.00709329
0.0073235
0.0075417
0.00774887
0.00794585
0.00813336
0.00831203
0.00848243
0.00864503
0.00880028
0.00894858
0.00909027
0.00922568
0.00935511
0.00947883
0.00959709
0.00971012
0.00981814
0.00992136
0.01002
0.0101141
0.0102041
0.0102899
0.0103718
0.0104499
0.0105243
0.0105953
0.0106628
0.0107272
0.0107883
0.0108465
0.0109017
0.0109542
0.0110038
0.0110509
0.0110954
0.0111375
0.0111772
0.0112146
0.0112499
0.0112832
0.0113144
0.0113438
0.0113713
0.0113971
0.0114211
0.0114436
0.0114644
0.0114837
0.0115015
0.0115179
0.011533
0.0115467
0.0115591
0.0115702
0.0115801
0.0115889
0.0115965
0.011603
0.0116084
0.0116127
0.011616
0.0116183
0.0116197
0.0116201
0.0116195
0.011618
0.0116156
0.0116124
0.0116082
0.0116033
0.0115974
0.0115908
0.0115833
0.0115751
0.011566
0.0115562
0.0115455
0.0115342
0.011522
0.0115091
0.0114954
0.011481
0.0114658
0.0114499
0.0114333
0.0114158
0.0113977
0.0113788
0.0113591
0.0113388
0.0113176
0.0112957
0.011273
0.0112496
0.0112254
0.0112004
0.0111746
0.011148
0.0111206
0.0110924
0.0110634
0.0110336
0.0110029
0.0109714
0.010939
0.0109057
0.0108716
0.0108365
0.0108005
0.0107636
0.0107258
0.010687
0.0106472
0.0106065
0.0105647
0.010522
0.0104781
0.0104333
0.0103874
0.0103403
0.0102922
0.010243
0.0101926
0.010141
0.0100883
0.0100343
0.00997916
0.00992274
0.00986504
0.00980605
0.00974574
0.00968408
0.00962104
0.00955661
0.00949074
0.00942342
0.0093546
0.00928425
0.00921234
0.00913883
0.00906367
0.00898684
0.00890826
0.00882791
0.00874571
0.00866162
0.00857557
0.00848749
0.0083973
0.00830493
0.00821027
0.00811323
0.00801369
0.00791154
0.00780662
0.00769879
0.00758787
0.00747367
0.00735595
0.00723447
0.00710892
0.00697898
0.00684426
0.00670429
0.00655854
0.00640639
0.00624709
0.00607975
0.00590331
0.00571649
0.00551773
0.00530511
0.00507627
0.00482823
0.00455729
0.00425877
0.00392675
0.0035538
0.0031306
0.00264564
0.00208563
0.00143708
0.000703019
6.84944e-05
8.91548e-05
0.000880686
0.00174835
0.0024925
0.00312925
0.00368304
0.00417271
0.0046119
0.00501045
0.00537555
0.00571261
0.00602572
0.00631807
0.00659219
0.0068501
0.00709347
0.00732368
0.00754188
0.00774904
0.00794601
0.00813352
0.00831218
0.00848257
0.00864517
0.00880041
0.0089487
0.00909039
0.0092258
0.00935522
0.00947894
0.00959719
0.00971021
0.00981823
0.00992144
0.01002
0.0101142
0.0102041
0.01029
0.0103718
0.0104499
0.0105244
0.0105953
0.0106629
0.0107272
0.0107884
0.0108465
0.0109018
0.0109542
0.0110039
0.0110509
0.0110954
0.0111375
0.0111772
0.0112146
0.0112499
0.0112832
0.0113145
0.0113438
0.0113713
0.0113971
0.0114211
0.0114436
0.0114644
0.0114837
0.0115015
0.0115179
0.011533
0.0115467
0.0115591
0.0115702
0.0115801
0.0115889
0.0115965
0.011603
0.0116084
0.0116127
0.011616
0.0116183
0.0116197
0.01162
0.0116195
0.011618
0.0116156
0.0116124
0.0116082
0.0116032
0.0115974
0.0115908
0.0115833
0.0115751
0.011566
0.0115562
0.0115455
0.0115341
0.011522
0.0115091
0.0114954
0.011481
0.0114658
0.0114499
0.0114332
0.0114158
0.0113977
0.0113788
0.0113591
0.0113387
0.0113176
0.0112957
0.011273
0.0112496
0.0112253
0.0112003
0.0111746
0.011148
0.0111206
0.0110924
0.0110634
0.0110336
0.0110029
0.0109714
0.010939
0.0109057
0.0108715
0.0108365
0.0108005
0.0107636
0.0107258
0.010687
0.0106472
0.0106065
0.0105647
0.0105219
0.0104781
0.0104333
0.0103873
0.0103403
0.0102922
0.010243
0.0101926
0.010141
0.0100883
0.0100343
0.00997914
0.00992272
0.00986502
0.00980603
0.00974572
0.00968406
0.00962102
0.00955659
0.00949072
0.00942339
0.00935458
0.00928423
0.00921232
0.00913881
0.00906365
0.00898681
0.00890824
0.00882789
0.00874569
0.0086616
0.00857555
0.00848747
0.00839728
0.00830491
0.00821025
0.00811321
0.00801367
0.00791151
0.0078066
0.00769877
0.00758785
0.00747365
0.00735593
0.00723445
0.0071089
0.00697896
0.00684424
0.00670427
0.00655853
0.00640638
0.00624708
0.00607974
0.0059033
0.00571648
0.00551772
0.0053051
0.00507626
0.00482822
0.00455728
0.00425876
0.00392675
0.0035538
0.0031306
0.00264564
0.00208563
0.00143708
0.000703014
6.84946e-05
9.48346e-05
0.000938382
0.00188298
0.00270752
0.00342207
0.00404936
0.00460807
0.00511217
0.00557197
0.00599511
0.00638739
0.0067532
0.00709599
0.00741848
0.00772286
0.00801091
0.00828411
0.00854369
0.00879068
0.009026
0.00925041
0.00946459
0.00966914
0.00986459
0.0100514
0.01023
0.0104008
0.0105642
0.0107205
0.0108699
0.0110128
0.0111495
0.0112801
0.011405
0.0115243
0.0116383
0.0117472
0.0118512
0.0119504
0.012045
0.0121353
0.0122213
0.0123033
0.0123813
0.0124556
0.0125263
0.0125934
0.0126572
0.0127177
0.0127751
0.0128294
0.0128809
0.0129295
0.0129754
0.0130188
0.0130597
0.0130983
0.0131346
0.0131687
0.0132007
0.0132306
0.0132586
0.0132848
0.0133091
0.0133316
0.0133525
0.0133717
0.0133894
0.0134055
0.0134202
0.0134334
0.0134452
0.0134557
0.0134649
0.0134727
0.0134794
0.0134848
0.0134891
0.0134922
0.0134941
0.013495
0.0134948
0.0134936
0.0134913
0.013488
0.0134837
0.0134785
0.0134722
0.013465
0.0134569
0.0134479
0.0134379
0.013427
0.0134152
0.0134026
0.013389
0.0133746
0.0133593
0.0133431
0.013326
0.0133081
0.0132893
0.0132696
0.013249
0.0132276
0.0132053
0.0131821
0.013158
0.0131331
0.0131072
0.0130804
0.0130527
0.0130241
0.0129946
0.0129641
0.0129327
0.0129003
0.0128669
0.0128325
0.0127971
0.0127608
0.0127233
0.0126849
0.0126453
0.0126047
0.0125631
0.0125202
0.0124763
0.0124312
0.012385
0.0123375
0.0122889
0.012239
0.0121879
0.0121355
0.0120818
0.0120268
0.0119705
0.0119128
0.0118537
0.0117932
0.0117312
0.0116678
0.0116029
0.0115364
0.0114684
0.0113988
0.0113276
0.0112548
0.0111802
0.0111039
0.0110259
0.010946
0.0108643
0.0107807
0.0106951
0.0106076
0.0105179
0.0104262
0.0103323
0.0102361
0.0101376
0.0100367
0.00993331
0.00982731
0.00971861
0.00960708
0.00949261
0.00937505
0.00925424
0.00913001
0.00900216
0.00887047
0.00873468
0.00859453
0.00844969
0.00829979
0.00814441
0.00798307
0.00781521
0.00764016
0.00745715
0.00726527
0.00706345
0.00685039
0.00662455
0.00638407
0.00612669
0.00584965
0.00554957
0.00522227
0.00486262
0.00446432
0.00401964
0.00351923
0.00295209
0.00230618
0.00157154
0.000758362
7.27505e-05
9.48355e-05
0.000938416
0.00188307
0.00270764
0.00342222
0.00404954
0.00460827
0.00511238
0.00557218
0.00599533
0.00638761
0.00675342
0.00709621
0.0074187
0.00772308
0.00801112
0.00828431
0.00854388
0.00879087
0.00902619
0.00925059
0.00946477
0.00966931
0.00986475
0.0100516
0.0102302
0.010401
0.0105643
0.0107206
0.01087
0.0110129
0.0111496
0.0112802
0.0114051
0.0115244
0.0116384
0.0117473
0.0118512
0.0119505
0.0120451
0.0121354
0.0122214
0.0123033
0.0123814
0.0124557
0.0125263
0.0125935
0.0126572
0.0127178
0.0127751
0.0128295
0.0128809
0.0129295
0.0129755
0.0130188
0.0130598
0.0130983
0.0131346
0.0131687
0.0132007
0.0132306
0.0132586
0.0132848
0.0133091
0.0133316
0.0133525
0.0133717
0.0133894
0.0134055
0.0134202
0.0134334
0.0134452
0.0134557
0.0134648
0.0134727
0.0134794
0.0134848
0.0134891
0.0134922
0.0134941
0.013495
0.0134948
0.0134936