/*--------------------------------*- C++ -*----------------------------------*\
  =========                 |
  \\      /  F ield         | OpenFOAM: The Open Source CFD Toolbox
   \\    /   O peration     | Website:  https://openfoam.org
    \\  /    A nd           | Version:  8
     \\/     M anipulation  |
\*---------------------------------------------------------------------------*/
FoamFile
{
    version     2.0;
    format      ascii;
    class       volScalarField;
    location    "1900";
    object      epsilon;
}
// * * * * * * * * * * * * * * * * * * * * * * * * * * * * * * * * * * * * * //

dimensions      [0 2 -3 0 0 0 0];

internalField   nonuniform List<scalar> 
48000
(
0.669094
1.91236
3.70107
5.57388
7.49569
9.40155
11.3029
13.2473
15.1837
17.1335
19.0958
21.0705
23.0574
25.0559
27.0647
29.0823
31.1067
33.1357
35.1665
37.1963
39.2219
41.2403
43.248
45.2416
47.2177
49.173
51.104
53.0075
54.8804
56.7197
58.5224
60.2861
62.0081
63.6863
65.3184
66.9028
68.4377
69.9217
71.3536
72.7325
74.0574
75.3277
76.5432
77.7033
78.8082
79.8577
80.8521
81.7916
82.6762
83.5065
84.29
85.0253
85.7097
86.3437
86.928
87.4637
87.9521
88.3943
88.7914
89.1448
89.4556
89.7251
89.9545
90.1451
90.2979
90.4144
90.4956
90.5427
90.5569
90.5393
90.491
90.4131
90.3066
90.1725
90.0119
89.8256
89.6147
89.38
89.1223
88.8425
88.5414
88.2197
87.8782
87.5176
87.1386
86.7417
86.3277
85.897
85.4503
84.9882
84.511
84.0193
83.5136
82.9943
82.4617
81.9164
81.3586
80.7888
80.2072
79.6142
79.0101
78.3951
77.7696
77.1338
76.4878
75.832
75.1666
74.4917
73.8076
73.1144
72.4124
71.7016
70.9822
70.2544
69.5184
68.7742
68.022
67.2619
66.4941
65.7187
64.9358
64.1456
63.3481
62.5435
61.7319
60.9135
60.0884
59.2567
58.4186
57.5742
56.7238
55.8674
55.0052
54.1375
53.2644
52.3861
51.5029
50.6149
49.7224
48.8257
47.9251
47.0207
46.1129
45.2019
44.2882
43.372
42.4537
41.5336
40.612
39.6895
38.7663
37.8428
36.9196
35.9969
35.0753
34.1552
33.237
32.3212
31.4082
30.4986
29.5928
28.6912
27.7944
26.9028
26.0169
25.1372
24.264
23.3979
22.5393
21.6886
20.8462
20.0125
19.1878
18.3725
17.5669
16.7713
15.9859
15.211
14.4466
13.693
12.9502
12.2182
11.4975
10.7885
10.0935
9.41434
8.74374
8.08013
7.42297
6.77078
6.1222
5.47523
4.82776
4.18425
3.53838
2.88102
2.20348
1.49337
0.183069
0.16459
0.668971
1.91238
3.70126
5.5741
7.49594
9.40182
11.3032
13.2476
15.184
17.1338
19.0961
21.0709
23.0578
25.0562
27.065
29.0826
31.1071
33.136
35.1668
37.1966
39.2223
41.2406
43.2483
45.2419
47.218
49.1733
51.1043
53.0078
54.8806
56.7199
58.5227
60.2863
62.0083
63.6865
65.3186
66.903
68.4378
69.9219
71.3538
72.7326
74.0575
75.3278
76.5432
77.7034
78.8083
79.8578
80.8522
81.7916
82.6763
83.5065
84.29
85.0253
85.7097
86.3437
86.928
87.4637
87.9521
88.3943
88.7914
89.1448
89.4556
89.7251
89.9545
90.145
90.2979
90.4143
90.4955
90.5426
90.5568
90.5392
90.4909
90.413
90.3065
90.1724
90.0118
89.8256
89.6146
89.3799
89.1222
88.8424
88.5413
88.2196
87.8781
87.5175
87.1385
86.7416
86.3276
85.8969
85.4502
84.9881
84.5109
84.0192
83.5135
82.9942
82.4616
81.9163
81.3586
80.7887
80.2071
79.6141
79.01
78.3951
77.7695
77.1337
76.4877
75.8319
75.1665
74.4917
73.8075
73.1144
72.4123
71.7015
70.9821
70.2544
69.5183
68.7741
68.0219
67.2619
66.4941
65.7187
64.9358
64.1455
63.348
62.5434
61.7318
60.9134
60.0883
59.2566
58.4185
57.5742
56.7237
55.8673
55.0052
54.1374
53.2643
52.386
51.5028
50.6148
49.7224
48.8257
47.925
47.0206
46.1128
45.2019
44.2881
43.3719
42.4536
41.5335
40.612
39.6894
38.7662
37.8428
36.9195
35.9969
35.0753
34.1551
33.2369
32.3211
31.4082
30.4986
29.5928
28.6912
27.7944
26.9028
26.0169
25.1372
24.264
23.3979
22.5393
21.6886
20.8462
20.0124
19.1878
18.3725
17.5669
16.7713
15.9859
15.211
14.4466
13.693
12.9502
12.2182
11.4975
10.7885
10.0935
9.41435
8.74374
8.08014
7.42297
6.77079
6.12221
5.47524
4.82777
4.18426
3.53841
2.88109
2.2037
1.49378
0.183076
0.164653
2.28206
1.97245
2.53921
3.23536
3.98841
4.76138
5.54798
6.35037
7.16406
7.98981
8.82761
9.67724
10.5383
11.4102
12.292
13.1829
14.0815
14.9866
15.8965
16.8097
17.7244
18.6389
19.5513
20.4598
21.3625
22.2578
23.1436
24.0184
24.8804
25.7281
26.5599
27.3745
28.1705
28.9467
29.7021
30.4356
31.1463
31.8335
32.4965
33.1348
33.7479
34.3354
34.8971
35.4328
35.9424
36.4259
36.8834
37.3149
37.7209
38.1019
38.4598
38.7943
39.1049
39.3917
39.6551
39.8956
40.1135
40.3095
40.4842
40.6381
40.7718
40.8859
40.9811
41.0578
41.1168
41.1586
41.1838
41.193
41.1867
41.1656
41.1301
41.0808
41.0182
40.9428
40.8551
40.7556
40.6447
40.5229
40.3906
40.2482
40.0961
39.9347
39.7642
39.5852
39.3979
39.2026
38.9997
38.7893
38.5719
38.3476
38.1167
37.8794
37.636
37.3867
37.1317
36.8711
36.6052
36.3341
36.058
35.777
35.4913
35.201
34.9062
34.6072
34.3039
33.9964
33.685
33.3697
33.0505
32.7276
32.4011
32.071
31.7374
31.4003
31.0599
30.7162
30.3693
30.0192
29.666
29.3098
28.9505
28.5884
28.2233
27.8555
27.4849
27.1115
26.7356
26.3571
25.9761
25.5926
25.2068
24.8187
24.4284
24.0359
23.6414
23.245
22.8467
22.4466
22.0449
21.6417
21.237
20.8311
20.424
20.0158
19.6067
19.1969
18.7864
18.3755
17.9643
17.553
17.1418
16.7307
16.3201
15.9101
15.5009
15.0927
14.6857
14.28
13.876
13.4737
13.0735
12.6755
12.2799
11.8869
11.4968
11.1098
10.7259
10.3455
9.96876
9.59579
9.2268
8.86195
8.5014
8.14528
7.79373
7.44687
7.10479
6.76759
6.43532
6.10804
5.7858
5.46863
5.1566
4.84985
4.54859
4.25274
3.9612
3.67365
3.39023
3.11036
2.83376
2.56022
2.28991
2.02433
1.76262
1.50467
1.25338
1.02245
0.889077
1.6555
2.28208
1.97242
2.53909
3.23526
3.9883
4.76126
5.54784
6.35022
7.1639
7.98964
8.82743
9.67705
10.5381
11.41
12.2918
13.1827
14.0813
14.9863
15.8962
16.8094
17.7241
18.6386
19.551
20.4595
21.3623
22.2575
23.1433
24.0181
24.8801
25.7278
26.5596
27.3742
28.1702
28.9464
29.7018
30.4352
31.146
31.8332
32.4962
33.1345
33.7475
34.335
34.8967
35.4324
35.942
36.4255
36.883
37.3146
37.7205
38.1015
38.4595
38.7939
39.1045
39.3913
39.6548
39.8952
40.1131
40.3092
40.4838
40.6377
40.7714
40.8855
40.9807
41.0574
41.1164
41.1582
41.1834
41.1926
41.1864
41.1652
41.1297
41.0804
41.0178
40.9425
40.8548
40.7553
40.6444
40.5226
40.3903
40.2479
40.0958
39.9343
39.7639
39.5849
39.3976
39.2023
38.9993
38.789
38.5716
38.3473
38.1164
37.8791
37.6357
37.3864
37.1314
36.8708
36.6049
36.3338
36.0577
35.7767
35.491
35.2007
34.906
34.6069
34.3036
33.9962
33.6847
33.3694
33.0503
32.7274
32.4008
32.0707
31.7371
31.4001
31.0597
30.716
30.3691
30.019
29.6658
29.3095
28.9503
28.5881
28.2231
27.8552
27.4846
27.1113
26.7354
26.3569
25.9758
25.5924
25.2066
24.8185
24.4282
24.0357
23.6412
23.2448
22.8465
22.4465
22.0448
21.6415
21.2369
20.8309
20.4238
20.0156
19.6065
19.1967
18.7862
18.3754
17.9642
17.5529
17.1416
16.7306
16.32
15.91
15.5008
15.0926
14.6855
14.2799
13.8758
13.4736
13.0734
12.6754
12.2798
11.8868
11.4967
11.1096
10.7258
10.3454
9.96866
9.5957
9.22671
8.86186
8.50131
8.1452
7.79366
7.4468
7.10472
6.76752
6.43525
6.10798
5.78574
5.46857
5.15655
4.84979
4.54854
4.2527
3.96116
3.67361
3.39019
3.11032
2.83373
2.56019
2.28989
2.02432
1.76261
1.50467
1.25331
1.02191
0.889061
1.65557
4.21681
2.66
2.83753
3.2502
3.74746
4.28706
4.8531
5.43887
6.04029
6.65534
7.28282
7.92187
8.57172
9.23162
9.90073
10.5781
11.2628
11.9535
12.6492
13.3484
14.0497
14.7517
15.453
16.152
16.8473
17.5374
18.2208
18.8961
19.562
20.2171
20.8603
21.4904
22.1063
22.7069
23.2915
23.8592
24.4092
24.9409
25.4538
25.9473
26.4211
26.8749
27.3085
27.7216
28.1142
28.4863
28.8379
29.1691
29.4802
29.7716
30.0439
30.2972
30.5317
30.7474
30.9448
31.124
31.2855
31.4298
31.5571
31.6681
31.7632
31.8428
31.9075
31.9576
31.9938
32.0164
32.026
32.023
32.0078
31.981
31.9429
31.894
31.8348
31.7655
31.6866
31.5986
31.5017
31.3963
31.2828
31.1615
31.0327
30.8967
30.7538
30.6043
30.4485
30.2866
30.1188
29.9455
29.7668
29.5828
29.394
29.2003
29.0021
28.7994
28.5924
28.3814
28.1664
27.9476
27.725
27.4989
27.2694
27.0365
26.8003
26.5611
26.3188
26.0735
25.8253
25.5744
25.3207
25.0644
24.8055
24.544
24.2801
24.0138
23.7452
23.4742
23.201
22.9256
22.648
22.3684
22.0867
21.803
21.5173
21.2297
20.9403
20.649
20.356
20.0612
19.7648
19.4668
19.1672
18.8661
18.5636
18.2597
17.9545
17.6481
17.3405
17.0318
16.7222
16.4116
16.1002
15.788
15.4753
15.162
14.8482
14.5342
14.22
13.9056
13.5914
13.2773
12.9635
12.6502
12.3374
12.0254
11.7143
11.4042
11.0952
10.7876
10.4815
10.177
9.87435
9.57363
9.27503
8.97871
8.68482
8.39351
8.10493
7.81923
7.53656
7.25704
6.9808
6.70798
6.43869
6.17304
5.91113
5.65304
5.39887
5.14867
4.90252
4.66046
4.42255
4.18882
3.95934
3.73415
3.51329
3.29671
3.0842
2.87568
2.67115
2.47051
2.27417
2.08235
1.89566
1.71527
1.54274
1.38093
1.23671
1.12852
1.13318
1.87628
4.21702
2.6599
2.83739
3.25005
3.7473
4.28688
4.85291
5.43867
6.04008
6.65512
7.2826
7.92164
8.57148
9.23138
9.90048
10.5779
11.2625
11.9533
12.6489
13.3481
14.0494
14.7515
15.4527
16.1518
16.8471
17.5371
18.2205
18.8958
19.5617
20.2169
20.8601
21.4901
22.106
22.7067
23.2913
23.8589
24.409
24.9407
25.4535
25.9471
26.4209
26.8747
27.3082
27.7214
28.114
28.486
28.8376
29.1689
29.48
29.7714
30.0437
30.297
30.5315
30.7473
30.9446
31.1238
31.2854
31.4296
31.557
31.668
31.763
31.8427
31.9073
31.9575
31.9936
32.0163
32.0258
32.0228
32.0077
31.9809
31.9428
31.8939
31.8346
31.7654
31.6865
31.5984
31.5016
31.3962
31.2827
31.1613
31.0325
30.8966
30.7537
30.6042
30.4484
30.2865
30.1187
29.9454
29.7666
29.5827
29.3939
29.2002
29.002
28.7993
28.5923
28.3813
28.1663
27.9474
27.7249
27.4988
27.2693
27.0364
26.8003
26.561
26.3187
26.0734
25.8252
25.5743
25.3206
25.0643
24.8054
24.5439
24.28
24.0137
23.7451
23.4741
23.2009
22.9255
22.648
22.3683
22.0866
21.8029
21.5172
21.2297
20.9402
20.6489
20.3559
20.0612
19.7647
19.4667
19.1671
18.866
18.5635
18.2596
17.9544
17.648
17.3404
17.0318
16.7221
16.4115
16.1001
15.788
15.4752
15.1619
14.8482
14.5341
14.2199
13.9056
13.5913
13.2773
12.9635
12.6502
12.3374
12.0254
11.7142
11.4041
11.0952
10.7876
10.4815
10.177
9.87431
9.5736
9.275
8.97868
8.68479
8.39348
8.1049
7.81921
7.53653
7.25701
6.98078
6.70796
6.43867
6.17302
5.91111
5.65302
5.39885
5.14865
4.9025
4.66044
4.42253
4.18881
3.95932
3.73413
3.51327
3.29669
3.08419
2.87567
2.67114
2.4705
2.27416
2.08234
1.89565
1.71527
1.54273
1.38094
1.23674
1.12851
1.13353
1.87595
6.17772
3.49019
3.37469
3.62273
3.99612
4.43187
4.90518
5.40416
5.92227
6.45569
7.00206
7.55979
8.12767
8.70471
9.28998
9.88255
10.4815
11.0857
11.6941
12.3057
12.9191
13.5332
14.1466
14.7581
15.3663
15.9701
16.5681
17.1592
17.742
18.3155
18.8786
19.4302
19.9695
20.4954
21.0073
21.5044
21.986
22.4515
22.9004
23.3323
23.7469
24.1438
24.5228
24.8838
25.2267
25.5515
25.8581
26.1467
26.4174
26.6706
26.9065
27.1254
27.3275
27.513
27.682
27.835
27.9722
28.0941
28.201
28.2933
28.3715
28.4358
28.4869
28.525
28.5507
28.5643
28.5663
28.557
28.5369
28.5065
28.466
28.4159
28.3566
28.2883
28.2116
28.1266
28.0339
27.9336
27.826
27.7116
27.5906
27.4631
27.3297
27.1903
27.0454
26.8952
26.7398
26.5795
26.4144
26.2449
26.071
25.8929
25.7109
25.525
25.3354
25.1422
24.9457
24.7458
24.5427
24.3366
24.1276
23.9156
23.7009
23.4836
23.2637
23.0412
22.8164
22.5892
22.3597
22.1279
21.894
21.6581
21.42
21.18
20.9381
20.6942
20.4485
20.201
19.9518
19.7008
19.4482
19.1939
18.9381
18.6808
18.4219
18.1616
17.8999
17.6369
17.3725
17.1069
16.8401
16.5722
16.3031
16.033
15.7619
15.4899
15.2171
14.9434
14.6691
14.3942
14.1187
13.8427
13.5664
13.2897
13.0129
12.736
12.4591
12.1823
11.9057
11.6295
11.3537
11.0785
10.804
10.5304
10.2576
9.98599
9.71556
9.44649
9.1789
8.91293
8.64872
8.38641
8.12613
7.86802
7.61222
7.35885
7.10805
6.85994
6.61465
6.37229
6.13298
5.89683
5.66394
5.43441
5.20833
4.98578
4.76684
4.55158
4.34008
4.13239
3.92856
3.72868
3.53279
3.34096
3.15324
2.96969
2.79032
2.61523
2.44456
2.27855
2.11767
1.96253
1.81418
1.67438
1.54588
1.4339
1.34955
1.32194
1.46502
2.76575
6.17797
3.49011
3.37455
3.62257
3.99593
4.43167
4.90496
5.40393
5.92203
6.45545
7.00182
7.55954
8.12742
8.70445
9.28972
9.88229
10.4812
11.0854
11.6939
12.3054
12.9188
13.5329
14.1463
14.7578
15.3661
15.9699
16.5679
17.1589
17.7417
18.3152
18.8783
19.43
19.9692
20.4952
21.0071
21.5042
21.9858
22.4513
22.9002
23.3321
23.7467
24.1436
24.5227
24.8837
25.2266
25.5513
25.8579
26.1465
26.4173
26.6705
26.9064
27.1253
27.3274
27.5128
27.6819
27.8349
27.9721
28.094
28.2009
28.2932
28.3714
28.4357
28.4868
28.5249
28.5506
28.5642
28.5662
28.5569
28.5369
28.5064
28.4659
28.4158
28.3565
28.2883
28.2115
28.1266
28.0338
27.9335
27.826
27.7116
27.5905
27.4631
27.3296
27.1903
27.0454
26.8951
26.7397
26.5794
26.4144
26.2448
26.071
25.8929
25.7108
25.5249
25.3353
25.1422
24.9456
24.7457
24.5427
24.3366
24.1275
23.9156
23.7009
23.4836
23.2636
23.0412
22.8163
22.5891
22.3596
22.1279
21.894
21.658
21.42
21.18
20.938
20.6942
20.4485
20.201
19.9517
19.7008
19.4482
19.1939
18.9381
18.6807
18.4219
18.1616
17.8999
17.6369
17.3725
17.1069
16.8401
16.5721
16.3031
16.033
15.7619
15.4899
15.2171
14.9434
14.6691
14.3942
14.1187
13.8427
13.5663
13.2897
13.0129
12.736
12.4591
12.1823
11.9057
11.6295
11.3537
11.0785
10.804
10.5303
10.2576
9.98598
9.71556
9.44648
9.17889
8.91292
8.64871
8.3864
8.12613
7.86802
7.61221
7.35885
7.10805
6.85994
6.61465
6.37229
6.13298
5.89683
5.66394
5.43441
5.20832
4.98577
4.76684
4.55158
4.34008
4.13238
3.92856
3.72868
3.53278
3.34095
3.15324
2.96969
2.79032
2.61523
2.44456
2.27855
2.11767
1.96253
1.81418
1.67438
1.54588
1.4339
1.34956
1.32192
1.46506
2.76562
8.12242
4.38947
4.01553
4.13799
4.42847
4.80078
5.22106
5.67281
6.1469
6.63787
7.14225
7.65774
8.18269
8.71585
9.25615
9.80264
10.3544
10.9104
11.4698
12.0316
12.5946
13.1578
13.7201
14.2804
14.8374
15.3902
15.9376
16.4784
17.0117
17.5364
18.0515
18.5561
19.0494
19.5305
19.9987
20.4533
20.8938
21.3196
21.7301
22.1251
22.5042
22.8671
23.2136
23.5435
23.8568
24.1533
24.4333
24.6966
24.9435
25.1741
25.3886
25.5873
25.7704
25.9381
26.0907
26.2283
26.3514
26.4603
26.5552
26.6367
26.7049
26.7604
26.8035
26.8346
26.854
26.8623
26.8597
26.8467
26.8235
26.7907
26.7485
26.6974
26.6376
26.5696
26.4935
26.4099
26.3189
26.2209
26.1161
26.0049
25.8876
25.7643
25.6353
25.5009
25.3613
25.2167
25.0673
24.9133
24.755
24.5925
24.4259
24.2555
24.0814
23.9037
23.7225
23.5382
23.3506
23.16
22.9665
22.7702
22.5712
22.3695
22.1654
21.9588
21.7499
21.5386
21.3252
21.1097
20.892
20.6724
20.4508
20.2274
20.0021
19.7751
19.5463
19.3158
19.0837
18.85
18.6147
18.378
18.1398
17.9002
17.6592
17.4169
17.1733
16.9284
16.6823
16.4351
16.1868
15.9374
15.687
15.4357
15.1834
14.9303
14.6764
14.4217
14.1664
13.9105
13.6541
13.3972
13.1399
12.8823
12.6245
12.3665
12.1085
11.8505
11.5927
11.3351
11.0778
10.821
10.5647
10.3091
10.0543
9.80032
9.54738
9.29558
9.04503
8.79585
8.54817
8.30212
8.05782
7.8154
7.57497
7.33667
7.10062
6.86693
6.63574
6.40714
6.18126
5.9582
5.73808
5.52098
5.30702
5.09627
4.88884
4.6848
4.48424
4.28723
4.09385
3.90418
3.71828
3.53626
3.35818
3.18415
3.01429
2.8487
2.68755
2.53104
2.3795
2.23335
2.09325
1.96016
1.83553
1.72167
1.62243
1.54506
1.50492
1.54219
1.81318
3.6659
8.12271
4.38938
4.01537
4.1378
4.42826
4.80055
5.22082
5.67256
6.14665
6.63761
7.14199
7.65747
8.18242
8.71558
9.25588
9.80237
10.3541
10.9102
11.4696
12.0313
12.5943
13.1575
13.7198
14.2801
14.8372
15.39
15.9373
16.4782
17.0115
17.5362
18.0513
18.5559
19.0492
19.5303
19.9985
20.4531
20.8936
21.3194
21.73
22.125
22.504
22.8669
23.2134
23.5433
23.8566
24.1532
24.4331
24.6965
24.9433
25.1739
25.3885
25.5872
25.7703
25.938
26.0906
26.2282
26.3513
26.4602
26.5552
26.6366
26.7048
26.7603
26.8034
26.8345
26.854
26.8622
26.8596
26.8466
26.8235
26.7907
26.7485
26.6974
26.6376
26.5695
26.4935
26.4098
26.3189
26.2208
26.1161
26.0049
25.8875
25.7642
25.6353
25.5008
25.3612
25.2166
25.0673
24.9133
24.755
24.5925
24.4259
24.2555
24.0813
23.9036
23.7225
23.5381
23.3506
23.16
22.9665
22.7702
22.5712
22.3695
22.1654
21.9588
21.7498
21.5386
21.3252
21.1096
20.892
20.6724
20.4508
20.2274
20.0021
19.775
19.5463
19.3158
19.0837
18.85
18.6147
18.378
18.1398
17.9002
17.6592
17.4169
17.1733
16.9284
16.6823
16.4351
16.1868
15.9374
15.687
15.4357
15.1834
14.9303
14.6764
14.4217
14.1664
13.9105
13.6541
13.3972
13.1399
12.8823
12.6245
12.3665
12.1085
11.8505
11.5927
11.3351
11.0778
10.821
10.5647
10.3091
10.0543
9.80032
9.54738
9.29558
9.04503
8.79585
8.54818
8.30213
8.05782
7.8154
7.57497
7.33667
7.10062
6.86694
6.63574
6.40714
6.18126
5.95821
5.73808
5.52099
5.30702
5.09628
4.88884
4.68481
4.48424
4.28723
4.09385
3.90418
3.71829
3.53626
3.35818
3.18416
3.01429
2.8487
2.68755
2.53105
2.3795
2.23335
2.09326
1.96016
1.83553
1.72167
1.62243
1.54506
1.50493
1.54218
1.8132
3.66587
10.0692
5.32056
4.71834
4.73712
4.96452
5.29208
5.67721
6.0991
6.54617
7.01143
7.4904
7.98012
8.47852
8.98407
9.4956
10.0121
10.5326
11.0564
11.5824
12.1099
12.6379
13.1655
13.6917
14.2155
14.736
15.2521
15.7629
16.2674
16.7647
17.2538
17.7339
18.2041
18.6637
19.112
19.5482
19.9717
20.3821
20.7787
21.1612
21.5292
21.8824
22.2205
22.5433
22.8506
23.1424
23.4187
23.6793
23.9244
24.1542
24.3686
24.5679
24.7524
24.9221
25.0773
25.2183
25.3452
25.4585
25.5583
25.645
25.7189
25.7804
25.8299
25.8676
25.8939
25.9092
25.9139
25.9082
25.8927
25.8675
25.8332
25.7899
25.7381
25.678
25.6101
25.5345
25.4517
25.3619
25.2653
25.1623
25.0531
24.9381
24.8173
24.6911
24.5598
24.4234
24.2823
24.1366
23.9865
23.8322
23.6739
23.5117
23.3459
23.1765
23.0036
22.8276
22.6484
22.4661
22.281
22.0931
21.9026
21.7094
21.5138
21.3157
21.1154
20.9128
20.7081
20.5013
20.2925
20.0817
19.8691
19.6546
19.4383
19.2204
19.0008
18.7796
18.5568
18.3325
18.1067
17.8795
17.6509
17.421
17.1897
16.9573
16.7236
16.4887
16.2527
16.0156
15.7775
15.5384
15.2984
15.0575
14.8157
14.5731
14.3298
14.0859
13.8413
13.5961
13.3505
13.1044
12.858
12.6113
12.3644
12.1173
11.8702
11.6232
11.3763
11.1296
10.8832
10.6373
10.3918
10.147
9.90288
9.65959
9.41724
9.17594
8.9358
8.69694
8.45947
8.22351
7.98918
7.75659
7.52587
7.29712
7.07047
6.84603
6.62391
6.40422
6.18708
5.97258
5.76084
5.55195
5.34602
5.14313
4.94338
4.74686
4.55365
4.36385
4.17753
3.99479
3.81572
3.64042
3.46899
3.30155
3.13823
2.97921
2.82468
2.67488
2.53015
2.39092
2.25782
2.1317
2.01381
1.906
1.81122
1.73438
1.68457
1.68135
1.77595
2.16755
4.56539
10.0696
5.32046
4.71815
4.73691
4.96429
5.29183
5.67695
6.09884
6.5459
7.01115
7.49012
7.97984
8.47823
8.98379
9.49532
10.0118
10.5324
11.0561
11.5822
12.1096
12.6376
13.1652
13.6914
14.2152
14.7357
15.2519
15.7627
16.2672
16.7645
17.2536
17.7337
18.2039
18.6635
19.1118
19.548
19.9715
20.3819
20.7785
21.1611
21.5291
21.8822
22.2203
22.5431
22.8505
23.1423
23.4185
23.6792
23.9243
24.154
24.3685
24.5678
24.7523
24.922
25.0772
25.2182
25.3452
25.4584
25.5582
25.6449
25.7189
25.7804
25.8298
25.8675
25.8938
25.9091
25.9138
25.9082
25.8926
25.8675
25.8331
25.7899
25.738
25.678
25.6101
25.5345
25.4517
25.3618
25.2653
25.1623
25.0531
24.938
24.8173
24.6911
24.5597
24.4234
24.2823
24.1365
23.9865
23.8322
23.6739
23.5117
23.3458
23.1764
23.0036
22.8276
22.6484
22.4661
22.281
22.0931
21.9025
21.7094
21.5137
21.3157
21.1154
20.9128
20.7081
20.5013
20.2925
20.0817
19.869
19.6546
19.4383
19.2204
19.0008
18.7796
18.5568
18.3325
18.1067
17.8795
17.6509
17.421
17.1897
16.9573
16.7236
16.4887
16.2527
16.0156
15.7775
15.5384
15.2984
15.0575
14.8157
14.5731
14.3298
14.0859
13.8413
13.5961
13.3505
13.1044
12.858
12.6113
12.3644
12.1173
11.8703
11.6232
11.3763
11.1296
10.8832
10.6373
10.3918
10.147
9.90288
9.6596
9.41725
9.17595
8.93581
8.69694
8.45948
8.22352
7.98919
7.7566
7.52587
7.29713
7.07047
6.84603
6.62391
6.40423
6.18708
5.97259
5.76085
5.55196
5.34602
5.14314
4.94338
4.74686
4.55366
4.36385
4.17754
3.9948
3.81573
3.64042
3.46899
3.30155
3.13824
2.97922
2.82468
2.67488
2.53015
2.39093
2.25782
2.1317
2.01381
1.90601
1.81122
1.73438
1.68457
1.68135
1.77596
2.16757
4.56539
12.1176
6.29368
5.47137
5.39818
5.57384
5.86719
6.22701
6.62832
7.05723
7.50531
7.96719
8.43929
8.91915
9.40502
9.8956
10.3898
10.8869
11.3858
11.886
12.3866
12.8869
13.386
13.8832
14.3775
14.8682
15.3544
15.8352
16.3098
16.7773
17.237
17.6881
18.1298
18.5614
18.9823
19.3919
19.7895
20.1748
20.5472
20.9064
21.2519
21.5836
21.9011
22.2042
22.4929
22.767
23.0265
23.2713
23.5015
23.7172
23.9184
24.1054
24.2783
24.4373
24.5825
24.7143
24.8327
24.9382
25.0309
25.1112
25.1793
25.2356
25.2804
25.314
25.3368
25.349
25.3511
25.3433
25.3259
25.2994
25.264
25.2201
25.168
25.1079
25.0402
24.9651
24.8831
24.7942
24.6989
24.5974
24.4898
24.3766
24.2578
24.1338
24.0047
23.8708
23.7322
23.5892
23.4419
23.2906
23.1353
22.9763
22.8137
22.6476
22.4782
22.3057
22.1301
21.9515
21.7701
21.5861
21.3994
21.2102
21.0186
20.8246
20.6284
20.4301
20.2297
20.0272
19.8228
19.6165
19.4084
19.1986
18.987
18.7738
18.559
18.3426
18.1248
17.9055
17.6848
17.4627
17.2393
17.0146
16.7888
16.5617
16.3335
16.1042
15.8738
15.6424
15.4101
15.1769
14.9427
14.7078
14.4721
14.2357
13.9986
13.7609
13.5226
13.2839
13.0448
12.8053
12.5655
12.3255
12.0854
11.8452
11.605
11.365
11.1251
10.8855
10.6462
10.4075
10.1692
9.93167
9.69486
9.4589
9.22392
8.99
8.75726
8.52581
8.29576
8.06722
7.8403
7.61511
7.39177
7.17038
6.95105
6.7339
6.51903
6.30655
6.09656
5.88916
5.68446
5.48254
5.28352
5.08748
4.89452
4.70472
4.51819
4.33501
4.15529
3.97912
3.80661
3.63789
3.47308
3.31234
3.15584
3.00381
2.85651
2.71426
2.5775
2.44681
2.32294
2.20696
2.10041
2.00555
1.92593
1.86751
1.84134
1.87104
2.01904
2.52767
5.47078
12.118
6.29356
5.47116
5.39794
5.57358
5.86692
6.22673
6.62804
7.05694
7.50502
7.9669
8.43899
8.91885
9.40473
9.89531
10.3895
10.8866
11.3855
11.8857
12.3863
12.8866
13.3857
13.8829
14.3772
14.8679
15.3541
15.8349
16.3095
16.7771
17.2368
17.6878
18.1295
18.5612
18.9821
19.3917
19.7893
20.1746
20.5471
20.9062
21.2518
21.5834
21.9009
22.2041
22.4928
22.7669
23.0263
23.2711
23.5014
23.717
23.9183
24.1053
24.2782
24.4372
24.5824
24.7142
24.8327
24.9381
25.0308
25.1111
25.1793
25.2356
25.2804
25.314
25.3367
25.349
25.351
25.3432
25.3259
25.2994
25.264
25.2201
25.1679
25.1078
25.0401
24.9651
24.883
24.7942
24.6989
24.5973
24.4898
24.3765
24.2578
24.1337
24.0047
23.8707
23.7322
23.5892
23.4419
23.2906
23.1353
22.9763
22.8137
22.6476
22.4782
22.3057
22.13
21.9515
21.7701
21.586
21.3994
21.2102
21.0186
20.8246
20.6284
20.4301
20.2297
20.0272
19.8228
19.6165
19.4084
19.1986
18.987
18.7738
18.559
18.3426
18.1248
17.9055
17.6848
17.4627
17.2393
17.0146
16.7888
16.5617
16.3335
16.1042
15.8738
15.6424
15.4101
15.1769
14.9427
14.7078
14.4721
14.2357
13.9986
13.7609
13.5227
13.2839
13.0448
12.8053
12.5655
12.3255
12.0854
11.8452
11.605
11.365
11.1251
10.8855
10.6462
10.4075
10.1692
9.93167
9.69486
9.45891
9.22392
8.99
8.75726
8.52582
8.29576
8.06722
7.8403
7.61512
7.39177
7.17038
6.95106
6.73391
6.51904
6.30655
6.09656
5.88917
5.68446
5.48255
5.28353
5.08749
4.89452
4.70473
4.51819
4.33502
4.15529
3.97912
3.80662
3.63789
3.47308
3.31234
3.15585
3.00382
2.85651
2.71426
2.57751
2.44681
2.32294
2.20697
2.10042
2.00555
1.92593
1.86751
1.84135
1.87104
2.01905
2.52771
5.47079
14.2197
7.30452
6.26906
6.11167
6.24294
6.50881
6.84939
7.23567
7.65153
8.08722
8.53653
8.99535
9.46086
9.93113
10.4048
10.8806
11.358
11.836
12.314
12.7914
13.2676
13.7418
14.2134
14.6816
15.1459
15.6054
16.0594
16.5072
16.9481
17.3814
17.8063
18.2223
18.6287
19.0249
19.4104
19.7847
20.1473
20.4978
20.8358
21.1611
21.4733
21.7722
22.0577
22.3295
22.5877
22.832
23.0626
23.2794
23.4825
23.6721
23.8481
24.0107
24.1602
24.2967
24.4204
24.5314
24.6302
24.7168
24.7915
24.8547
24.9066
24.9475
24.9777
24.9975
25.0072
25.0072
24.9977
24.9791
24.9515
24.9155
24.8712
24.8189
24.759
24.6917
24.6173
24.5361
24.4483
24.3542
24.254
24.148
24.0364
23.9194
23.7973
23.6702
23.5385
23.4021
23.2614
23.1166
22.9677
22.815
22.6585
22.4986
22.3352
22.1686
21.9989
21.8261
21.6504
21.472
21.2909
21.1072
20.9211
20.7325
20.5417
20.3487
20.1535
19.9563
19.7571
19.5559
19.3529
19.1482
18.9417
18.7335
18.5237
18.3123
18.0994
17.8851
17.6693
17.4522
17.2338
17.014
16.7931
16.5709
16.3476
16.1232
15.8977
15.6713
15.4438
15.2155
14.9862
14.7562
14.5253
14.2938
14.0616
13.8287
13.5953
13.3614
13.1271
12.8924
12.6573
12.4221
12.1867
11.9511
11.7156
11.4801
11.2447
11.0096
10.7748
10.5403
10.3064
10.073
9.84037
9.60846
9.37743
9.14737
8.91839
8.69059
8.46408
8.23895
8.01533
7.79331
7.573
7.35451
7.13794
6.92339
6.71098
6.50081
6.29297
6.08757
5.88471
5.68449
5.48699
5.29233
5.10059
4.91188
4.72628
4.5439
4.36484
4.18921
4.01712
3.8487
3.6841
3.52348
3.36701
3.21493
3.06749
2.92503
2.78796
2.6568
2.53224
2.41521
2.30696
2.20929
2.12488
2.0579
2.01538
2.01033
2.07053
2.26983
2.89478
6.38637
14.2201
7.30437
6.26883
6.1114
6.24265
6.50851
6.84909
7.23537
7.65122
8.08691
8.53622
8.99503
9.46055
9.93083
10.4044
10.8803
11.3577
11.8357
12.3137
12.7912
13.2673
13.7415
14.2131
14.6814
15.1456
15.6051
16.0592
16.507
16.9479
17.3811
17.8061
18.2221
18.6285
19.0247
19.4102
19.7845
20.1471
20.4976
20.8357
21.161
21.4732
21.7721
22.0576
22.3294
22.5875
22.8319
23.0625
23.2793
23.4824
23.672
23.848
24.0107
24.1601
24.2966
24.4203
24.5314
24.6301
24.7167
24.7914
24.8546
24.9065
24.9474
24.9776
24.9975
25.0072
25.0072
24.9977
24.979
24.9515
24.9155
24.8712
24.8189
24.759
24.6917
24.6173
24.5361
24.4482
24.3541
24.2539
24.1479
24.0363
23.9194
23.7973
23.6702
23.5384
23.4021
23.2614
23.1166
22.9677
22.8149
22.6585
22.4986
22.3352
22.1686
21.9988
21.8261
21.6504
21.472
21.2909
21.1072
20.9211
20.7325
20.5417
20.3487
20.1535
19.9563
19.7571
19.5559
19.3529
19.1482
18.9417
18.7335
18.5237
18.3123
18.0994
17.8851
17.6693
17.4522
17.2337
17.014
16.7931
16.5709
16.3476
16.1232
15.8977
15.6713
15.4438
15.2155
14.9862
14.7562
14.5253
14.2938
14.0616
13.8287
13.5953
13.3614
13.1271
12.8924
12.6573
12.4221
12.1867
11.9511
11.7156
11.4801
11.2447
11.0096
10.7748
10.5403
10.3064
10.0731
9.84037
9.60846
9.37743
9.14737
8.91839
8.69059
8.46408
8.23896
8.01533
7.79331
7.573
7.35451
7.13794
6.9234
6.71099
6.50081
6.29298
6.08758
5.88472
5.68449
5.487
5.29234
5.1006
4.91188
4.72628
4.5439
4.36484
4.18921
4.01712
3.84871
3.68411
3.52348
3.36702
3.21493
3.0675
2.92504
2.78797
2.65681
2.53225
2.41521
2.30696
2.2093
2.12489
2.0579
2.01538
2.01033
2.07053
2.26984
2.89482
6.38638
16.3907
8.35577
7.1104
6.87404
6.96602
7.20898
7.53436
7.90913
8.31503
8.74109
9.18031
9.62813
10.0814
10.5381
10.9967
11.4562
11.9156
12.3745
12.8321
13.288
13.7417
14.1927
14.6404
15.0842
15.5235
15.9579
16.3866
16.8091
17.2247
17.6329
18.0331
18.4247
18.8071
19.1798
19.5424
19.8945
20.2355
20.5651
20.8831
21.189
21.4827
21.7639
22.0325
22.2883
22.5313
22.7613
22.9783
23.1824
23.3736
23.552
23.7176
23.8707
24.0112
24.1394
24.2555
24.3597
24.4521
24.533
24.6027
24.6613
24.7092
24.7465
24.7737
24.7909
24.7984
24.7965
24.7856
24.7658
24.7375
24.701
24.6565
24.6043
24.5447
24.4779
24.4042
24.3239
24.2372
24.1443
24.0455
23.9411
23.8311
23.7159
23.5957
23.4706
23.3408
23.2066
23.0681
22.9255
22.7789
22.6285
22.4745
22.3169
22.156
21.9919
21.8247
21.6544
21.4813
21.3055
21.127
20.9459
20.7624
20.5765
20.3883
20.1979
20.0054
19.8108
19.6143
19.4159
19.2156
19.0135
18.8097
18.6043
18.3972
18.1886
17.9784
17.7669
17.5539
17.3396
17.1239
16.907
16.6889
16.4696
16.2492
16.0276
15.8051
15.5816
15.3571
15.1317
14.9055
14.6784
14.4506
14.2222
13.993
13.7633
13.5331
13.3024
13.0712
12.8397
12.608
12.376
12.1438
11.9116
11.6794
11.4473
11.2153
10.9836
10.7522
10.5212
10.2907
10.0608
9.83155
9.6031
9.37552
9.14891
8.92336
8.69899
8.47588
8.25415
8.03389
7.8152
7.59819
7.38296
7.16961
6.95825
6.74896
6.54186
6.33704
6.1346
5.93463
5.73724
5.54252
5.35056
5.16147
4.97535
4.79229
4.61241
4.43582
4.26263
4.09299
3.92703
3.76492
3.60685
3.45304
3.30375
3.1593
3.02008
2.88657
2.75938
2.63933
2.52747
2.42527
2.3348
2.25913
2.20305
2.17467
2.189
2.27812
2.52712
3.26699
7.30634
16.3912
8.35559
7.11014
6.87375
6.96571
7.20866
7.53404
7.9088
8.3147
8.74076
9.17999
9.6278
10.0811
10.5378
10.9964
11.4559
11.9153
12.3742
12.8318
13.2878
13.7415
14.1924
14.6401
15.0839
15.5233
15.9576
16.3864
16.8089
17.2245
17.6327
18.0329
18.4244
18.8069
19.1796
19.5423
19.8943
20.2353
20.565
20.8829
21.1889
21.4826
21.7638
22.0324
22.2882
22.5312
22.7612
22.9782
23.1823
23.3735
23.5519
23.7176
23.8706
24.0111
24.1394
24.2555
24.3596
24.4521
24.533
24.6026
24.6613
24.7091
24.7465
24.7736
24.7908
24.7983
24.7965
24.7855
24.7658
24.7375
24.701
24.6565
24.6043
24.5447
24.4779
24.4042
24.3239
24.2372
24.1443
24.0455
23.941
23.8311
23.7159
23.5957
23.4706
23.3408
23.2066
23.0681
22.9255
22.7789
22.6285
22.4745
22.3169
22.156
21.9919
21.8246
21.6544
21.4813
21.3055
21.127
20.9459
20.7624
20.5765
20.3883
20.1979
20.0054
19.8108
19.6143
19.4159
19.2156
19.0135
18.8097
18.6042
18.3972
18.1886
17.9784
17.7669
17.5539
17.3396
17.1239
16.907
16.6889
16.4696
16.2492
16.0276
15.8051
15.5816
15.3571
15.1317
14.9055
14.6784
14.4506
14.2222
13.993
13.7633
13.5331
13.3024
13.0712
12.8397
12.608
12.376
12.1438
11.9116
11.6794
11.4473
11.2153
10.9836
10.7522
10.5212
10.2907
10.0608
9.83155
9.6031
9.37552
9.14891
8.92337
8.69899
8.47589
8.25415
8.03389
7.81521
7.5982
7.38297
7.16962
6.95825
6.74897
6.54186
6.33704
6.1346
5.93463
5.73724
5.54252
5.35057
5.16148
4.97535
4.7923
4.61242
4.43582
4.26264
4.09299
3.92703
3.76492
3.60685
3.45304
3.30376
3.15931
3.02008
2.88657
2.75939
2.63933
2.52747
2.42527
2.3348
2.25913
2.20305
2.17467
2.189
2.27813
2.52713
3.26703
7.30635
18.6271
9.44892
7.99611
7.68479
7.7413
7.96469
8.27766
8.64319
9.041
9.45893
9.88931
10.3272
10.7691
11.213
11.6573
12.1009
12.5431
12.9833
13.4212
13.8562
14.288
14.7163
15.1406
15.5605
15.9755
16.3853
16.7892
17.1869
17.5778
17.9614
18.3373
18.7049
19.0638
19.4135
19.7536
20.0838
20.4036
20.7128
21.0109
21.2979
21.5733
21.8371
22.0891
22.3291
22.5571
22.773
22.9767
23.1683
23.3477
23.5151
23.6705
23.8141
23.9458
24.066
24.1747
24.272
24.3583
24.4337
24.4983
24.5525
24.5964
24.6304
24.6545
24.6692
24.6746
24.6711
24.6587
24.638
24.609
24.5721
24.5274
24.4754
24.4161
24.3499
24.277
24.1977
24.1121
24.0205
23.9232
23.8203
23.712
23.5986
23.4802
23.3571
23.2294
23.0973
22.9609
22.8205
22.6761
22.5281
22.3763
22.2212
22.0626
21.9009
21.7361
21.5683
21.3976
21.2242
21.0481
20.8695
20.6885
20.505
20.3193
20.1313
19.9413
19.7491
19.555
19.359
19.1612
18.9615