/*--------------------------------*- C++ -*----------------------------------*\
  =========                 |
  \\      /  F ield         | OpenFOAM: The Open Source CFD Toolbox
   \\    /   O peration     | Website:  https://openfoam.org
    \\  /    A nd           | Version:  8
     \\/     M anipulation  |
\*---------------------------------------------------------------------------*/
FoamFile
{
    version     2.0;
    format      ascii;
    class       volScalarField;
    location    "1900";
    object      nut;
}
// * * * * * * * * * * * * * * * * * * * * * * * * * * * * * * * * * * * * * //

dimensions      [0 2 -1 0 0 0 0];

internalField   nonuniform List<scalar> 
48000
(
5.67793e-05
6.31818e-05
7.74952e-05
8.87456e-05
9.79548e-05
0.000105639
0.000112326
0.000118433
0.000123943
0.000129037
0.000133787
0.000138249
0.000142465
0.000146467
0.000150281
0.000153927
0.000157419
0.000160769
0.000163989
0.000167085
0.000170064
0.000172933
0.000175694
0.000178353
0.000180913
0.000183375
0.000185745
0.000188022
0.000190211
0.000192312
0.000194327
0.000196259
0.00019811
0.00019988
0.000201573
0.000203189
0.00020473
0.000206199
0.000207596
0.000208924
0.000210184
0.000211378
0.000212508
0.000213575
0.000214582
0.000215529
0.000216419
0.000217253
0.000218033
0.000218759
0.000219441
0.000220076
0.000220664
0.000221206
0.000221703
0.000222157
0.000222568
0.00022294
0.000223272
0.000223567
0.000223825
0.000224049
0.000224239
0.000224396
0.000224522
0.000224617
0.000224683
0.000224721
0.000224732
0.000224717
0.000224676
0.00022461
0.000224521
0.000224409
0.000224275
0.000224119
0.000223943
0.000223746
0.00022353
0.000223295
0.000223042
0.000222771
0.000222482
0.000222177
0.000221855
0.000221517
0.000221163
0.000220794
0.00022041
0.000220011
0.000219598
0.000219171
0.000218729
0.000218274
0.000217806
0.000217324
0.000216829
0.000216321
0.000215801
0.000215267
0.000214721
0.000214162
0.00021359
0.000213006
0.00021241
0.000211801
0.000211179
0.000210545
0.000209898
0.000209239
0.000208566
0.000207882
0.000207184
0.000206473
0.000205749
0.000205012
0.000204262
0.000203498
0.000202721
0.00020193
0.000201125
0.000200305
0.000199472
0.000198624
0.000197761
0.000196883
0.00019599
0.000195082
0.000194158
0.000193218
0.000192262
0.00019129
0.000190301
0.000189295
0.000188272
0.000187231
0.000186173
0.000185097
0.000184003
0.00018289
0.000181759
0.000180609
0.000179439
0.00017825
0.000177041
0.000175812
0.000174562
0.000173292
0.000172001
0.000170689
0.000169356
0.000168
0.000166623
0.000165224
0.000163802
0.000162357
0.000160889
0.000159398
0.000157883
0.000156344
0.000154781
0.000153194
0.000151581
0.000149943
0.000148279
0.000146589
0.000144872
0.000143128
0.000141356
0.000139555
0.000137725
0.000135864
0.000133972
0.000132048
0.000130089
0.000128095
0.000126064
0.000123994
0.000121882
0.000119725
0.00011752
0.000115264
0.000112952
0.000110581
0.000108154
0.000105672
0.000103101
0.000100425
9.7625e-05
9.4678e-05
9.15532e-05
8.82076e-05
8.45842e-05
8.06468e-05
7.62716e-05
7.12714e-05
6.55278e-05
6.06365e-05
0.000396616
0.000193392
5.67903e-05
6.31942e-05
7.74954e-05
8.8746e-05
9.79554e-05
0.00010564
0.000112327
0.000118433
0.000123944
0.000129038
0.000133787
0.000138249
0.000142465
0.000146468
0.000150282
0.000153927
0.000157419
0.00016077
0.000163989
0.000167085
0.000170065
0.000172933
0.000175694
0.000178353
0.000180913
0.000183376
0.000185745
0.000188022
0.000190211
0.000192312
0.000194327
0.000196259
0.00019811
0.00019988
0.000201573
0.000203189
0.00020473
0.000206199
0.000207596
0.000208924
0.000210184
0.000211378
0.000212508
0.000213575
0.000214582
0.000215529
0.000216419
0.000217253
0.000218033
0.000218759
0.000219441
0.000220076
0.000220664
0.000221206
0.000221703
0.000222156
0.000222568
0.00022294
0.000223272
0.000223567
0.000223825
0.000224049
0.000224239
0.000224396
0.000224521
0.000224617
0.000224683
0.000224721
0.000224732
0.000224716
0.000224676
0.00022461
0.000224521
0.000224409
0.000224275
0.000224119
0.000223943
0.000223746
0.00022353
0.000223295
0.000223042
0.000222771
0.000222482
0.000222176
0.000221854
0.000221516
0.000221163
0.000220794
0.00022041
0.000220011
0.000219598
0.00021917
0.000218729
0.000218274
0.000217806
0.000217324
0.000216829
0.000216321
0.000215801
0.000215267
0.000214721
0.000214162
0.00021359
0.000213006
0.00021241
0.0002118
0.000211179
0.000210545
0.000209898
0.000209238
0.000208566
0.000207881
0.000207184
0.000206473
0.000205749
0.000205012
0.000204262
0.000203498
0.000202721
0.00020193
0.000201125
0.000200305
0.000199472
0.000198624
0.000197761
0.000196883
0.00019599
0.000195082
0.000194158
0.000193218
0.000192262
0.000191289
0.0001903
0.000189295
0.000188272
0.000187231
0.000186173
0.000185097
0.000184003
0.00018289
0.000181759
0.000180609
0.000179439
0.00017825
0.000177041
0.000175812
0.000174562
0.000173292
0.000172001
0.000170689
0.000169355
0.000168
0.000166623
0.000165224
0.000163802
0.000162357
0.000160889
0.000159398
0.000157883
0.000156344
0.000154781
0.000153194
0.000151581
0.000149943
0.000148279
0.000146589
0.000144872
0.000143128
0.000141356
0.000139555
0.000137725
0.000135864
0.000133972
0.000132048
0.000130089
0.000128095
0.000126064
0.000123994
0.000121882
0.000119725
0.00011752
0.000115264
0.000112952
0.000110581
0.000108154
0.000105672
0.000103101
0.000100425
9.7625e-05
9.46781e-05
9.15532e-05
8.82077e-05
8.45842e-05
8.06467e-05
7.62708e-05
7.12681e-05
6.55145e-05
6.06021e-05
0.000396467
0.000192919
5.42856e-05
0.000400413
0.000636405
0.000799732
0.000922773
0.00102347
0.00110958
0.0011848
0.00125229
0.00131358
0.00136985
0.00142198
0.00147061
0.00151624
0.00155925
0.00159995
0.00163858
0.00167535
0.00171042
0.00174391
0.00177596
0.00180663
0.00183603
0.00186421
0.00189124
0.00191717
0.00194203
0.00196588
0.00198875
0.00201067
0.00203167
0.00205178
0.00207104
0.00208945
0.00210705
0.00212387
0.00213991
0.00215522
0.00216979
0.00218367
0.00219686
0.00220939
0.00222127
0.00223253
0.00224318
0.00225324
0.00226272
0.00227165
0.00228002
0.00228782
0.00229496
0.00230158
0.00230772
0.0023134
0.00231866
0.00232351
0.00232796
0.00233203
0.00233573
0.00233907
0.00234207
0.00234474
0.00234708
0.00234911
0.00235084
0.00235227
0.00235343
0.00235431
0.00235492
0.00235528
0.00235539
0.00235526
0.00235489
0.00235429
0.00235348
0.00235245
0.0023512
0.00234976
0.00234812
0.00234628
0.00234426
0.00234205
0.00233966
0.0023371
0.00233436
0.00233146
0.00232839
0.00232515
0.00232176
0.00231821
0.00231451
0.00231065
0.00230665
0.00230249
0.00229819
0.00229375
0.00228916
0.00228442
0.00227955
0.00227453
0.00226937
0.00226408
0.00225864
0.00225306
0.00224735
0.00224149
0.0022355
0.00222936
0.00222308
0.00221666
0.0022101
0.0022034
0.00219655
0.00218955
0.00218241
0.00217512
0.00216768
0.00216009
0.00215235
0.00214445
0.00213639
0.00212818
0.00211981
0.00211127
0.00210257
0.0020937
0.00208466
0.00207545
0.00206607
0.00205651
0.00204677
0.00203685
0.00202674
0.00201645
0.00200597
0.0019953
0.00198443
0.00197336
0.00196209
0.00195063
0.00193895
0.00192707
0.00191497
0.00190266
0.00189014
0.00187739
0.00186443
0.00185124
0.00183782
0.00182417
0.00181029
0.00179617
0.00178181
0.00176721
0.00175237
0.00173727
0.00172193
0.00170633
0.00169048
0.00167436
0.00165797
0.00164132
0.00162439
0.00160718
0.00158969
0.00157191
0.00155382
0.00153543
0.00151673
0.00149771
0.00147835
0.00145864
0.00143857
0.00141813
0.00139729
0.00137603
0.00135433
0.00133216
0.00130948
0.00128625
0.00126242
0.00123793
0.0012127
0.00118659
0.00115945
0.00113109
0.00110149
0.00107049
0.00103787
0.00100328
0.000966262
0.000926103
0.0008816
0.000830386
0.000770874
0.000699505
0.000609213
0.000483431
0.000278747
3.79477e-05
5.42969e-05
0.000400442
0.000636455
0.000799775
0.000922813
0.00102351
0.00110962
0.00118484
0.00125233
0.00131362
0.00136989
0.00142202
0.00147065
0.00151627
0.00155928
0.00159998
0.00163862
0.00167538
0.00171045
0.00174395
0.00177599
0.00180666
0.00183606
0.00186424
0.00189127
0.00191719
0.00194206
0.00196591
0.00198877
0.00201069
0.00203169
0.00205181
0.00207106
0.00208947
0.00210708
0.00212389
0.00213993
0.00215524
0.00216981
0.00218369
0.00219688
0.0022094
0.00222129
0.00223254
0.00224319
0.00225325
0.00226274
0.00227166
0.00228003
0.00228784
0.00229498
0.00230159
0.00230773
0.00231342
0.00231868
0.00232353
0.00232798
0.00233205
0.00233575
0.00233909
0.00234209
0.00234475
0.00234709
0.00234912
0.00235085
0.00235229
0.00235344
0.00235432
0.00235493
0.00235529
0.0023554
0.00235527
0.0023549
0.0023543
0.00235349
0.00235246
0.00235122
0.00234977
0.00234813
0.00234629
0.00234427
0.00234206
0.00233967
0.00233711
0.00233437
0.00233147
0.0023284
0.00232516
0.00232177
0.00231822
0.00231452
0.00231066
0.00230666
0.0023025
0.0022982
0.00229376
0.00228917
0.00228443
0.00227956
0.00227454
0.00226938
0.00226409
0.00225865
0.00225307
0.00224736
0.0022415
0.00223551
0.00222937
0.00222309
0.00221667
0.00221011
0.00220341
0.00219656
0.00218956
0.00218242
0.00217513
0.00216769
0.0021601
0.00215236
0.00214446
0.0021364
0.00212819
0.00211982
0.00211128
0.00210258
0.00209371
0.00208467
0.00207546
0.00206608
0.00205652
0.00204678
0.00203686
0.00202675
0.00201646
0.00200598
0.0019953
0.00198444
0.00197337
0.0019621
0.00195063
0.00193896
0.00192708
0.00191498
0.00190267
0.00189015
0.0018774
0.00186444
0.00185124
0.00183783
0.00182418
0.00181029
0.00179618
0.00178182
0.00176722
0.00175237
0.00173728
0.00172194
0.00170634
0.00169048
0.00167437
0.00165798
0.00164133
0.0016244
0.00160719
0.0015897
0.00157191
0.00155383
0.00153544
0.00151674
0.00149771
0.00147835
0.00145865
0.00143858
0.00141813
0.00139729
0.00137604
0.00135434
0.00133216
0.00130948
0.00128626
0.00126243
0.00123794
0.0012127
0.0011866
0.00115945
0.0011311
0.0011015
0.0010705
0.00103787
0.00100328
0.000966268
0.000926109
0.000881606
0.00083039
0.000770875
0.000699503
0.000609247
0.000483669
0.000278675
3.79259e-05
6.63184e-05
0.000605241
0.00107762
0.0014311
0.0017116
0.00194493
0.0021454
0.00232147
0.00247881
0.0026212
0.00275136
0.00287129
0.00298252
0.00308625
0.00318343
0.00327482
0.00336105
0.00344264
0.00352003
0.00359356
0.00366356
0.00373027
0.00379393
0.00385473
0.00391283
0.00396839
0.00402154
0.00407239
0.00412104
0.0041676
0.00421214
0.00425474
0.00429548
0.00433443
0.00437164
0.00440719
0.00444111
0.00447348
0.00450434
0.00453374
0.00456172
0.00458834
0.00461364
0.00463765
0.00466043
0.004682
0.0047024
0.00472167
0.00473982
0.00475684
0.00477271
0.00478753
0.00480137
0.0048143
0.00482635
0.00483756
0.00484796
0.00485758
0.00486646
0.00487461
0.00488206
0.00488883
0.00489495
0.00490044
0.00490531
0.00490959
0.0049133
0.00491645
0.00491906
0.00492114
0.00492271
0.00492379
0.00492439
0.00492453
0.0049242
0.00492343
0.00492224
0.00492062
0.00491858
0.00491615
0.00491333
0.00491012
0.00490653
0.00490258
0.00489826
0.00489359
0.00488857
0.00488321
0.00487751
0.00487147
0.00486511
0.00485842
0.00485142
0.00484409
0.00483645
0.0048285
0.00482024
0.00481168
0.0048028
0.00479363
0.00478414
0.00477436
0.00476427
0.00475388
0.00474319
0.00473219
0.00472089
0.00470928
0.00469737
0.00468515
0.00467261
0.00465977
0.00464661
0.00463313
0.00461933
0.00460521
0.00459076
0.00457598
0.00456087
0.00454542
0.00452963
0.00451349
0.004497
0.00448016
0.00446295
0.00444538
0.00442744
0.00440913
0.00439043
0.00437135
0.00435188
0.00433201
0.00431174
0.00429106
0.00426996
0.00424845
0.0042265
0.00420413
0.00418132
0.00415806
0.00413435
0.00411018
0.00408555
0.00406045
0.00403486
0.0040088
0.00398224
0.00395519
0.00392763
0.00389956
0.00387096
0.00384184
0.00381218
0.00378198
0.00375122
0.0037199
0.00368801
0.00365554
0.00362247
0.00358879
0.0035545
0.00351957
0.003484
0.00344776
0.00341084
0.00337322
0.00333488
0.00329579
0.00325592
0.00321525
0.00317373
0.00313134
0.00308803
0.00304374
0.00299842
0.00295201
0.00290442
0.00285558
0.00280536
0.00275366
0.00270032
0.00264516
0.00258796
0.00252842
0.00246622
0.00240096
0.00233226
0.00225954
0.00218205
0.00209876
0.00200829
0.00190869
0.00179707
0.00166919
0.00151956
0.00134033
0.00111839
0.000832586
0.000451225
4.99509e-05
6.63187e-05
0.000605283
0.00107769
0.00143118
0.00171169
0.00194502
0.00214549
0.00232156
0.0024789
0.00262129
0.00275145
0.00287137
0.0029826
0.00308633
0.0031835
0.00327489
0.00336113
0.00344272
0.0035201
0.00359363
0.00366362
0.00373033
0.00379399
0.00385478
0.00391289
0.00396844
0.00402159
0.00407244
0.00412109
0.00416764
0.00421218
0.00425478
0.00429552
0.00433446
0.00437168
0.00440722
0.00444114
0.00447351
0.00450437
0.00453376
0.00456175
0.00458836
0.00461366
0.00463767
0.00466045
0.00468202
0.00470242
0.00472169
0.00473983
0.00475685
0.00477272
0.00478754
0.00480138
0.00481431
0.00482636
0.00483757
0.00484797
0.00485759
0.00486646
0.00487461
0.00488206
0.00488884
0.00489496
0.00490044
0.00490532
0.0049096
0.0049133
0.00491645
0.00491906
0.00492114
0.00492272
0.0049238
0.0049244
0.00492453
0.0049242
0.00492344
0.00492224
0.00492062
0.00491859
0.00491615
0.00491333
0.00491012
0.00490653
0.00490258
0.00489826
0.00489359
0.00488857
0.00488321
0.00487751
0.00487147
0.00486511
0.00485842
0.00485142
0.00484409
0.00483645
0.0048285
0.00482024
0.00481168
0.0048028
0.00479362
0.00478414
0.00477436
0.00476427
0.00475388
0.00474319
0.00473219
0.00472089
0.00470928
0.00469737
0.00468515
0.00467261
0.00465977
0.00464661
0.00463313
0.00461933
0.00460521
0.00459076
0.00457598
0.00456087
0.00454542
0.00452963
0.00451349
0.004497
0.00448015
0.00446295
0.00444538
0.00442744
0.00440913
0.00439043
0.00437135
0.00435188
0.00433201
0.00431174
0.00429105
0.00426996
0.00424844
0.0042265
0.00420413
0.00418131
0.00415806
0.00413435
0.00411018
0.00408555
0.00406044
0.00403486
0.0040088
0.00398224
0.00395519
0.00392763
0.00389955
0.00387096
0.00384184
0.00381218
0.00378198
0.00375122
0.0037199
0.00368801
0.00365553
0.00362247
0.00358879
0.0035545
0.00351957
0.003484
0.00344776
0.00341084
0.00337322
0.00333488
0.00329579
0.00325592
0.00321525
0.00317373
0.00313134
0.00308803
0.00304374
0.00299842
0.00295201
0.00290442
0.00285557
0.00280536
0.00275366
0.00270032
0.00264516
0.00258795
0.00252842
0.00246622
0.00240096
0.00233225
0.00225954
0.00218205
0.00209876
0.00200829
0.00190869
0.00179707
0.00166919
0.00151955
0.00134032
0.00111838
0.000832637
0.000451095
4.99766e-05
7.53365e-05
0.000724379
0.00136788
0.00188188
0.00230351
0.00266044
0.00297021
0.00324416
0.00348999
0.0037131
0.00391743
0.0041059
0.00428079
0.00444389
0.00459663
0.00474017
0.00487548
0.00500335
0.00512445
0.00523938
0.0053486
0.00545255
0.00555159
0.00564603
0.00573617
0.00582224
0.00590447
0.00598306
0.00605817
0.00612998
0.00619862
0.00626424
0.00632695
0.00638688
0.00644412
0.0064988
0.00655098
0.00660078
0.00664828
0.00669355
0.00673667
0.00677773
0.00681679
0.00685392
0.00688918
0.00692264
0.00695435
0.00698436
0.00701272
0.00703945
0.00706458
0.00708815
0.00711029
0.00713108
0.00715055
0.00716878
0.0071858
0.00720166
0.00721641
0.00723008
0.00724272
0.00725434
0.007265
0.00727472
0.00728354
0.00729147
0.00729856
0.00730482
0.00731028
0.00731496
0.00731889
0.00732208
0.00732456
0.00732635
0.00732747
0.00732792
0.00732774
0.00732693
0.0073255
0.00732348
0.00732088
0.0073177
0.00731396
0.00730967
0.00730484
0.00729947
0.00729359
0.00728719
0.00728029
0.00727288
0.00726498
0.00725659
0.00724772
0.00723837
0.00722855
0.00721825
0.00720749
0.00719626
0.00718457
0.00717242
0.0071598
0.00714673
0.00713319
0.0071192
0.00710474
0.00708982
0.00707444
0.00705859
0.00704228
0.00702549
0.00700823
0.0069905
0.00697228
0.00695357
0.00693438
0.00691469
0.0068945
0.00687381
0.0068526
0.00683088
0.00680863
0.00678585
0.00676254
0.00673868
0.00671427
0.00668929
0.00666375
0.00663763
0.00661093
0.00658364
0.00655574
0.00652723
0.0064981
0.00646835
0.00643795
0.0064069
0.0063752
0.00634283
0.00630978
0.00627604
0.0062416
0.00620645
0.00617058
0.00613398
0.00609663
0.00605853
0.00601966
0.00598001
0.00593956
0.00589831
0.00585624
0.00581333
0.00576958
0.00572496
0.00567945
0.00563305
0.00558572
0.00553746
0.00548824
0.00543803
0.00538682
0.00533457
0.00528126
0.00522684
0.0051713
0.00511459
0.00505666
0.00499747
0.00493697
0.0048751
0.00481179
0.00474696
0.00468054
0.00461243
0.00454252
0.00447069
0.00439679
0.00432066
0.0042421
0.00416089
0.00407676
0.00398938
0.00389835
0.00380322
0.0037034
0.00359822
0.00348688
0.00336833
0.00324123
0.00310382
0.00295377
0.00278794
0.00260208
0.00239042
0.00214507
0.00185572
0.00150745
0.00108035
0.000556486
5.76755e-05
7.53372e-05
0.000724413
0.00136795
0.00188197
0.00230363
0.00266057
0.00297034
0.00324429
0.00349013
0.00371324
0.00391756
0.00410603
0.00428092
0.00444402
0.00459675
0.00474029
0.00487559
0.00500345
0.00512456
0.00523948
0.0053487
0.00545264
0.00555168
0.00564612
0.00573625
0.00582232
0.00590455
0.00598313
0.00605824
0.00613004
0.00619868
0.00626429
0.006327
0.00638693
0.00644417
0.00649884
0.00655103
0.00660082
0.00664831
0.00669358
0.0067367
0.00677776
0.00681681
0.00685394
0.0068892
0.00692266
0.00695437
0.00698438
0.00701274
0.00703946
0.00706459
0.00708816
0.0071103
0.00713109
0.00715056
0.00716879
0.00718581
0.00720167
0.00721642
0.00723009
0.00724272
0.00725435
0.007265
0.00727473
0.00728354
0.00729147
0.00729856
0.00730481
0.00731027
0.00731495
0.00731888
0.00732208
0.00732456
0.00732635
0.00732746
0.00732792
0.00732773
0.00732692
0.0073255
0.00732347
0.00732087
0.00731769
0.00731395
0.00730966
0.00730483
0.00729947
0.00729358
0.00728718
0.00728028
0.00727287
0.00726497
0.00725658
0.00724771
0.00723836
0.00722854
0.00721824
0.00720748
0.00719625
0.00718456
0.00717241
0.00715979
0.00714672
0.00713318
0.00711919
0.00710473
0.00708981
0.00707443
0.00705858
0.00704227
0.00702548
0.00700822
0.00699048
0.00697227
0.00695356
0.00693437
0.00691468
0.00689449
0.0068738
0.00685259
0.00683087
0.00680862
0.00678584
0.00676253
0.00673867
0.00671425
0.00668928
0.00666374
0.00663762
0.00661092
0.00658362
0.00655573
0.00652722
0.00649809
0.00646833
0.00643794
0.00640689
0.00637519
0.00634282
0.00630977
0.00627603
0.00624159
0.00620644
0.00617057
0.00613396
0.00609662
0.00605851
0.00601964
0.00597999
0.00593955
0.0058983
0.00585623
0.00581332
0.00576956
0.00572494
0.00567944
0.00563303
0.00558571
0.00553745
0.00548823
0.00543802
0.00538681
0.00533456
0.00528124
0.00522683
0.00517129
0.00511457
0.00505665
0.00499746
0.00493696
0.00487509
0.00481177
0.00474695
0.00468053
0.00461242
0.00454251
0.00447068
0.00439678
0.00432065
0.00424209
0.00416088
0.00407675
0.00398936
0.00389834
0.00380321
0.00370339
0.00359821
0.00348687
0.00336832
0.00324122
0.00310382
0.00295377
0.00278794
0.00260207
0.00239042
0.00214507
0.00185572
0.00150745
0.00108037
0.000556459
5.76807e-05
8.25397e-05
0.000808393
0.00157622
0.00221672
0.00275508
0.00321768
0.00362317
0.00398441
0.00431039
0.0046076
0.00488081
0.00513364
0.00536889
0.00558878
0.0057951
0.00598929
0.00617256
0.00634594
0.00651026
0.00666626
0.00681458
0.00695575
0.00709026
0.00721852
0.00734091
0.00745775
0.00756934
0.00767596
0.00777784
0.0078752
0.00796826
0.00805718
0.00814216
0.00822335
0.0083009
0.00837496
0.00844566
0.00851313
0.00857749
0.00863886
0.00869735
0.00875306
0.00880609
0.00885654
0.00890451
0.00895006
0.0089933
0.00903428
0.00907308
0.00910976
0.00914437
0.00917697
0.0092077
0.00923663
0.00926384
0.00928939
0.00931336
0.00933579
0.00935675
0.0093763
0.00939447
0.00941133
0.00942691
0.00944126
0.00945443
0.00946643
0.00947733
0.00948714
0.00949591
0.00950366
0.00951042
0.00951623
0.0095211
0.00952507
0.00952816
0.00953039
0.00953178
0.00953236
0.00953213
0.00953113
0.00952936
0.00952684
0.00952359
0.00951962
0.00951494
0.00950957
0.00950352
0.00949679
0.0094894
0.00948135
0.00947266
0.00946332
0.00945335
0.00944276
0.00943154
0.0094197
0.00940725
0.00939419
0.00938051
0.00936623
0.00935134
0.00933585
0.00931975
0.00930304
0.00928573
0.0092678
0.00924926
0.00923011
0.00921034
0.00918994
0.00916892
0.00914727
0.00912498
0.00910205
0.00907847
0.00905423
0.00902933
0.00900375
0.0089775
0.00895056
0.00892293
0.00889459
0.00886553
0.00883575
0.00880524
0.00877397
0.00874196
0.00870917
0.0086756
0.00864124
0.00860608
0.0085701
0.00853329
0.00849564
0.00845714
0.00841776
0.0083775
0.00833634
0.00829427
0.00825128
0.00820734
0.00816244
0.00811657
0.00806971
0.00802184
0.00797295
0.00792302
0.00787202
0.00781994
0.00776676
0.00771246
0.00765701
0.0076004
0.00754259
0.00748357
0.0074233
0.00736175
0.0072989
0.00723471
0.00716915
0.00710217
0.00703373
0.00696379
0.0068923
0.0068192
0.00674443
0.00666792
0.00658961
0.0065094
0.00642722
0.00634296
0.00625649
0.00616771
0.00607646
0.00598257
0.00588586
0.00578611
0.00568308
0.00557646
0.00546593
0.00535108
0.00523143
0.00510642
0.00497536
0.00483745
0.0046917
0.0045369
0.00437157
0.0041938
0.00400119
0.00379063
0.00355811
0.00329841
0.00300469
0.00266798
0.00227695
0.00181722
0.00127198
0.000634848
6.33208e-05
8.25405e-05
0.000808426
0.00157629
0.00221683
0.00275521
0.00321783
0.00362333
0.00398458
0.00431056
0.00460777
0.00488098
0.00513381
0.00536906
0.00558894
0.00579525
0.00598944
0.00617271
0.00634608
0.0065104
0.0066664
0.00681471
0.00695588
0.00709038
0.00721863
0.00734101
0.00745785
0.00756944
0.00767606
0.00777793
0.00787529
0.00796834
0.00805726
0.00814223
0.00822342
0.00830097
0.00837502
0.00844572
0.00851319
0.00857754
0.00863891
0.00869739
0.0087531
0.00880613
0.00885658
0.00890454
0.00895009
0.00899332
0.00903431
0.0090731
0.00910978
0.00914439
0.00917699
0.00920772
0.00923665
0.00926385
0.0092894
0.00931337
0.0093358
0.00935676
0.0093763
0.00939448
0.00941133
0.00942692
0.00944127
0.00945443
0.00946643
0.00947733
0.00948714
0.0094959
0.00950365
0.00951042
0.00951622
0.0095211
0.00952507
0.00952816
0.00953039
0.00953178
0.00953235
0.00953212
0.00953112
0.00952935
0.00952683
0.00952358
0.00951961
0.00951493
0.00950956
0.0095035
0.00949678
0.00948938
0.00948134
0.00947264
0.00946331
0.00945334
0.00944275
0.00943153
0.00941969
0.00940724
0.00939417
0.0093805
0.00936622
0.00935133
0.00933584
0.00931974
0.00930303
0.00928571
0.00926779
0.00924925
0.0092301
0.00921032
0.00918993
0.00916891
0.00914726
0.00912497
0.00910203
0.00907845
0.00905421
0.00902931
0.00900374
0.00897749
0.00895055
0.00892291
0.00889457
0.00886552
0.00883574
0.00880522
0.00877396
0.00874194
0.00870915
0.00867558
0.00864123
0.00860606
0.00857008
0.00853327
0.00849562
0.00845712
0.00841774
0.00837748
0.00833632
0.00829426
0.00825126
0.00820732
0.00816243
0.00811655
0.00806969
0.00802183
0.00797293
0.007923
0.007872
0.00781992
0.00776674
0.00771244
0.00765699
0.00760038
0.00754257
0.00748355
0.00742328
0.00736173
0.00729888
0.00723469
0.00716913
0.00710215
0.00703371
0.00696377
0.00689228
0.00681918
0.00674441
0.0066679
0.00658959
0.00650939
0.0064272
0.00634294
0.00625648
0.00616769
0.00607644
0.00598255
0.00588584
0.0057861
0.00568306
0.00557645
0.00546591
0.00535106
0.00523141
0.0051064
0.00497535
0.00483743
0.00469168
0.00453689
0.00437155
0.00419379
0.00400118
0.00379062
0.00355811
0.0032984
0.00300468
0.00266798
0.00227695
0.00181722
0.00127199
0.000634841
6.33216e-05
8.86638e-05
0.000875811
0.00173866
0.00247867
0.0031119
0.00366262
0.00414959
0.00458635
0.0049827
0.0053458
0.005681
0.00599239
0.00628313
0.00655574
0.00681223
0.00705427
0.00728322
0.00750022
0.00770624
0.00790214
0.00808861
0.0082663
0.00843575
0.00859745
0.00875185
0.00889933
0.00904024
0.0091749
0.00930362
0.00942665
0.00954425
0.00965666
0.00976408
0.00986673
0.00996479
0.0100584
0.0101479
0.0102332
0.0103146
0.0103923
0.0104664
0.0105369
0.0106041
0.0106681
0.0107289
0.0107867
0.0108417
0.0108938
0.0109432
0.01099
0.0110343
0.0110761
0.0111155
0.0111528
0.0111879
0.011221
0.0112521
0.0112813
0.0113086
0.0113342
0.0113582
0.0113805
0.0114012
0.0114204
0.0114381
0.0114544
0.0114694
0.011483
0.0114953
0.0115064
0.0115163
0.011525
0.0115325
0.011539
0.0115443
0.0115487
0.011552
0.0115543
0.0115556
0.0115559
0.0115554
0.0115539
0.0115515
0.0115483
0.0115442
0.0115392
0.0115334
0.0115268
0.0115194
0.0115112
0.0115022
0.0114924
0.0114818
0.0114705
0.0114584
0.0114456
0.011432
0.0114176
0.0114026
0.0113867
0.0113702
0.0113529
0.0113348
0.011316
0.0112965
0.0112762
0.0112551
0.0112333
0.0112108
0.0111875
0.0111634
0.0111386
0.0111129
0.0110865
0.0110593
0.0110312
0.0110024
0.0109727
0.0109422
0.0109108
0.0108786
0.0108455
0.0108116
0.0107767
0.0107409
0.0107042
0.0106666
0.010628
0.0105885
0.0105479
0.0105064
0.0104639
0.0104203
0.0103757
0.01033
0.0102833
0.0102354
0.0101864
0.0101363
0.0100851
0.0100326
0.00997896
0.00992409
0.00986798
0.0098106
0.00975193
0.00969195
0.00963063
0.00956795
0.00950387
0.00943836
0.00937141
0.00930297
0.00923301
0.0091615
0.00908839
0.00901365
0.00893724
0.0088591
0.00877919
0.00869745
0.00861382
0.00852825
0.00844065
0.00835096
0.00825909
0.00816496
0.00806845
0.00796947
0.00786787
0.00776354
0.0076563
0.007546
0.00743242
0.00731535
0.00719454
0.00706969
0.00694047
0.00680649
0.00666729
0.00652235
0.00637104
0.00621262
0.0060462
0.00587074
0.00568494
0.00548728
0.00527584
0.00504825
0.00480159
0.00453214
0.00423526
0.00390508
0.00353419
0.00311332
0.00263104
0.00207412
0.00142915
0.000699139
6.81164e-05
8.86647e-05
0.000875845
0.00173874
0.00247879
0.00311205
0.00366279
0.00414977
0.00458654
0.0049829
0.005346
0.0056812
0.00599258
0.00628332
0.00655593
0.00681242
0.00705445
0.00728339
0.00750039
0.00770641
0.0079023
0.00808877
0.00826645
0.00843589
0.00859759
0.00875198
0.00889945
0.00904036
0.00917502
0.00930373
0.00942676
0.00954435
0.00965675
0.00976417
0.00986681
0.00996487
0.0100585
0.0101479
0.0102333
0.0103147
0.0103924
0.0104664
0.010537
0.0106042
0.0106681
0.0107289
0.0107868
0.0108417
0.0108938
0.0109432
0.01099
0.0110343
0.0110761
0.0111156
0.0111528
0.0111879
0.011221
0.0112521
0.0112813
0.0113086
0.0113343
0.0113582
0.0113805
0.0114012
0.0114204
0.0114381
0.0114544
0.0114694
0.011483
0.0114953
0.0115064
0.0115163
0.011525
0.0115325
0.011539
0.0115443
0.0115486
0.0115519
0.0115542
0.0115556
0.0115559
0.0115554
0.0115539
0.0115515
0.0115483
0.0115442
0.0115392
0.0115334
0.0115268
0.0115194
0.0115112
0.0115022
0.0114924
0.0114818
0.0114705
0.0114584
0.0114456
0.011432
0.0114176
0.0114025
0.0113867
0.0113701
0.0113528
0.0113348
0.011316
0.0112964
0.0112762
0.0112551
0.0112333
0.0112108
0.0111875
0.0111634
0.0111385
0.0111129
0.0110865
0.0110592
0.0110312
0.0110024
0.0109727
0.0109422
0.0109108
0.0108786
0.0108455
0.0108115
0.0107767
0.0107409
0.0107042
0.0106666
0.010628
0.0105885
0.0105479
0.0105064
0.0104639
0.0104203
0.0103757
0.01033
0.0102833
0.0102354
0.0101864
0.0101363
0.010085
0.0100326
0.00997894
0.00992407
0.00986796
0.00981058
0.00975191
0.00969193
0.00963061
0.00956792
0.00950385
0.00943834
0.00937139
0.00930295
0.00923299
0.00916148
0.00908837
0.00901363
0.00893722
0.00885908
0.00877917
0.00869743
0.0086138
0.00852822
0.00844063
0.00835094
0.00825907
0.00816494
0.00806843
0.00796944
0.00786785
0.00776352
0.00765628
0.00754598
0.0074324
0.00731533
0.00719452
0.00706967
0.00694045
0.00680647
0.00666727
0.00652233
0.00637102
0.0062126
0.00604618
0.00587072
0.00568493
0.00548726
0.00527582
0.00504824
0.00480158
0.00453213
0.00423526
0.00390507
0.00353419
0.00311332
0.00263104
0.00207412
0.00142915
0.000699134
6.81166e-05
9.43133e-05
0.000933223
0.00187263
0.00269263
0.00340325
0.0040271
0.00458274
0.00508406
0.00554133
0.00596215
0.00635226
0.00671606
0.00705697
0.00737768
0.00768039
0.00796685
0.00823854
0.00849669
0.00874232
0.00897634
0.00919952
0.00941252
0.00961594
0.0098103
0.00999609
0.0101737
0.0103436
0.0105061
0.0106614
0.0108101
0.0109522
0.0110881
0.011218
0.0113422
0.0114609
0.0115742
0.0116825
0.0117859
0.0118846
0.0119787
0.0120684
0.012154
0.0122355
0.0123131
0.012387
0.0124573
0.012524
0.0125874
0.0126476
0.0127047
0.0127587
0.0128099
0.0128582
0.0129039
0.012947
0.0129877
0.0130261
0.0130622
0.0130961
0.0131279
0.0131577
0.0131855
0.0132115
0.0132357
0.0132581
0.0132789
0.013298
0.0133156
0.0133316
0.0133462
0.0133593
0.0133711
0.0133815
0.0133906
0.0133984
0.013405
0.0134104
0.0134146
0.0134177
0.0134197
0.0134206
0.0134204
0.0134191
0.0134169
0.0134136
0.0134093
0.0134041
0.0133979
0.0133907
0.0133827
0.0133737
0.0133637
0.0133529
0.0133412
0.0133286
0.0133151
0.0133008
0.0132855
0.0132694
0.0132525
0.0132346
0.0132159
0.0131964
0.0131759
0.0131546
0.0131324
0.0131094
0.0130854
0.0130606
0.0130349
0.0130082
0.0129807
0.0129523
0.0129229
0.0128926
0.0128613
0.0128291
0.0127959
0.0127617
0.0127265
0.0126903
0.0126531
0.0126149
0.0125756
0.0125352
0.0124937
0.0124511
0.0124075
0.0123626
0.0123166
0.0122694
0.0122211
0.0121715
0.0121206
0.0120685
0.0120151
0.0119604
0.0119044
0.011847
0.0117882
0.0117281
0.0116665
0.0116034
0.0115388
0.0114728
0.0114051
0.0113359
0.0112651
0.0111926
0.0111185
0.0110426
0.010965
0.0108856
0.0108043
0.0107212
0.0106361
0.010549
0.0104599
0.0103687
0.0102753
0.0101796
0.0100817
0.00998133
0.00987849
0.00977307
0.00966497
0.00955406
0.00944022
0.00932331
0.00920317
0.00907962
0.00895248
0.00882151
0.00868648
0.0085471
0.00840306
0.00825399
0.00809947
0.00793902
0.00777208
0.00759799
0.00741599
0.00722518
0.00702446
0.00681258
0.00658799
0.00634884
0.00609288
0.00581737
0.00551894
0.00519345
0.00483579
0.00443968
0.00399746
0.00349981
0.0029358
0.00229345
0.00156287
0.000754177
7.2349e-05
9.43142e-05
0.000933258
0.00187272
0.00269276
0.00340341
0.00402728
0.00458294
0.00508427
0.00554154
0.00596237
0.00635248
0.00671628
0.00705718
0.0073779
0.0076806
0.00796706
0.00823874
0.00849688
0.00874251
0.00897653
0.00919969
0.00941269
0.0096161
0.00981046
0.00999624
0.0101739
0.0103437
0.0105062
0.0106616
0.0108102
0.0109523
0.0110882
0.0112181
0.0113423
0.011461
0.0115743
0.0116826
0.011786
0.0118846
0.0119788
0.0120685
0.0121541
0.0122356
0.0123132
0.012387
0.0124573
0.0125241
0.0125875
0.0126477
0.0127047
0.0127588
0.0128099
0.0128582
0.0129039
0.0129471
0.0129878
0.0130261
0.0130622
0.0130961
0.0131279
0.0131577
0.0131855
0.0132115
0.0132357
0.0132581
0.0132789
0.013298
0.0133156
0.0133316
0.0133462
0.0133593
0.0133711
0.0133815
0.0133906
0.0133984
0.013405
0.0134104
0.0134146
0.0134177
0.0134197
0.0134206
0.0134204
0.0134191