/*--------------------------------*- C++ -*----------------------------------*\
  =========                 |
  \\      /  F ield         | OpenFOAM: The Open Source CFD Toolbox
   \\    /   O peration     | Website:  https://openfoam.org
    \\  /    A nd           | Version:  8
     \\/     M anipulation  |
\*---------------------------------------------------------------------------*/
FoamFile
{
    version     2.0;
    format      ascii;
    class       volVectorField;
    location    "1900";
    object      U;
}
// * * * * * * * * * * * * * * * * * * * * * * * * * * * * * * * * * * * * * //

dimensions      [0 1 -1 0 0 0 0];

internalField   nonuniform List<vector> 
48000
(
(-0.0145687 -1.27116e-06 0.0161073)
(-0.0255086 -1.74425e-07 0.0117354)
(-0.0346229 -4.4827e-08 0.00356742)
(-0.0332556 -2.62947e-08 -0.00286082)
(-0.0271139 -6.06075e-08 -0.00707022)
(-0.0172963 -1.10142e-07 -0.00967966)
(-0.00540194 -1.48025e-07 -0.0112227)
(0.00794737 -1.66621e-07 -0.0119406)
(0.021619 -1.77183e-07 -0.012074)
(0.0355251 -1.77838e-07 -0.0119312)
(0.049285 -1.70551e-07 -0.0116186)
(0.0627418 -1.66808e-07 -0.011203)
(0.0757803 -1.6463e-07 -0.0107272)
(0.0883288 -1.58611e-07 -0.0102189)
(0.100343 -1.49778e-07 -0.00969644)
(0.1118 -1.39487e-07 -0.00917212)
(0.122689 -1.2548e-07 -0.00865414)
(0.133008 -1.07323e-07 -0.00814791)
(0.142765 -8.89794e-08 -0.00765695)
(0.151971 -7.45535e-08 -0.00718348)
(0.160639 -6.41215e-08 -0.00672879)
(0.168787 -5.55894e-08 -0.00629348)
(0.176433 -4.81195e-08 -0.00587771)
(0.183595 -4.32348e-08 -0.0054813)
(0.190294 -4.20431e-08 -0.00510385)
(0.196547 -4.31587e-08 -0.00474482)
(0.202376 -4.37146e-08 -0.00440356)
(0.207797 -4.20774e-08 -0.00407936)
(0.21283 -3.89593e-08 -0.00377147)
(0.217493 -3.60467e-08 -0.00347914)
(0.221802 -3.36786e-08 -0.00320165)
(0.225775 -3.06556e-08 -0.00293828)
(0.229427 -2.55424e-08 -0.00268833)
(0.232773 -1.85409e-08 -0.00245115)
(0.235828 -1.15964e-08 -0.00222609)
(0.238606 -7.09238e-09 -0.00201255)
(0.241121 -6.34997e-09 -0.00180998)
(0.243386 -8.75999e-09 -0.00161785)
(0.245412 -1.25825e-08 -0.00143567)
(0.247212 -1.60814e-08 -0.00126297)
(0.248797 -1.85485e-08 -0.00109932)
(0.250178 -2.03532e-08 -0.000944293)
(0.251365 -2.23254e-08 -0.000797498)
(0.252369 -2.50171e-08 -0.000658572)
(0.253199 -2.82495e-08 -0.000527172)
(0.253864 -3.12268e-08 -0.000402977)
(0.254373 -3.31494e-08 -0.000285684)
(0.254735 -3.37662e-08 -0.000175005)
(0.254957 -3.35187e-08 -7.06607e-05)
(0.255049 -3.34312e-08 2.77927e-05)
(0.255016 -3.45124e-08 0.000120534)
(0.254867 -3.73146e-08 0.000207567)
(0.254608 -4.17119e-08 0.000289188)
(0.254245 -4.69355e-08 0.000365712)
(0.253787 -5.18925e-08 0.000437395)
(0.253237 -5.57417e-08 0.000504465)
(0.252603 -5.80869e-08 0.000567139)
(0.251889 -5.91682e-08 0.000625628)
(0.251101 -5.95489e-08 0.000680136)
(0.250245 -5.99487e-08 0.000730861)
(0.249323 -6.08776e-08 0.000777992)
(0.248342 -6.24157e-08 0.000821712)
(0.247306 -6.42813e-08 0.000862195)
(0.246218 -6.57966e-08 0.000899611)
(0.245082 -6.62458e-08 0.000934124)
(0.243903 -6.50541e-08 0.000965896)
(0.242682 -6.19893e-08 0.000995083)
(0.241425 -5.71845e-08 0.00102184)
(0.240133 -5.10625e-08 0.00104631)
(0.23881 -4.42818e-08 0.00106865)
(0.237458 -3.75582e-08 0.00108898)
(0.23608 -3.13905e-08 0.00110744)
(0.234679 -2.62088e-08 0.00112416)
(0.233255 -2.21465e-08 0.00113924)
(0.231812 -1.91997e-08 0.00115281)
(0.230351 -1.714e-08 0.00116497)
(0.228875 -1.57085e-08 0.00117582)
(0.227384 -1.46577e-08 0.00118546)
(0.22588 -1.37858e-08 0.00119399)
(0.224366 -1.29216e-08 0.00120149)
(0.222841 -1.20573e-08 0.00120805)
(0.221307 -1.12464e-08 0.00121375)
(0.219765 -1.05992e-08 0.00121867)
(0.218217 -1.01842e-08 0.00122288)
(0.216663 -1.01004e-08 0.00122645)
(0.215103 -1.04279e-08 0.00122945)
(0.21354 -1.11665e-08 0.00123193)
(0.211973 -1.22706e-08 0.00123395)
(0.210402 -1.37059e-08 0.00123557)
(0.208829 -1.53773e-08 0.00123684)
(0.207254 -1.71667e-08 0.00123781)
(0.205677 -1.89751e-08 0.00123851)
(0.204099 -2.07074e-08 0.001239)
(0.202519 -2.21999e-08 0.0012393)
(0.200939 -2.34106e-08 0.00123947)
(0.199358 -2.42596e-08 0.00123954)
(0.197776 -2.46822e-08 0.00123953)
(0.196193 -2.47317e-08 0.00123949)
(0.19461 -2.44233e-08 0.00123944)
(0.193027 -2.38522e-08 0.00123941)
(0.191443 -2.31441e-08 0.00123944)
(0.189858 -2.24055e-08 0.00123955)
(0.188273 -2.17849e-08 0.00123977)
(0.186687 -2.14194e-08 0.00124013)
(0.1851 -2.13623e-08 0.00124065)
(0.183511 -2.17507e-08 0.00124136)
(0.181922 -2.25959e-08 0.00124228)
(0.18033 -2.3898e-08 0.00124343)
(0.178736 -2.56074e-08 0.00124485)
(0.17714 -2.76671e-08 0.00124655)
(0.175542 -2.99515e-08 0.00124856)
(0.17394 -3.23348e-08 0.0012509)
(0.172335 -3.46762e-08 0.00125359)
(0.170725 -3.68654e-08 0.00125666)
(0.169112 -3.87919e-08 0.00126013)
(0.167493 -4.03909e-08 0.00126402)
(0.165869 -4.16244e-08 0.00126836)
(0.164239 -4.24125e-08 0.00127317)
(0.162602 -4.27362e-08 0.00127846)
(0.160958 -4.25496e-08 0.00128428)
(0.159306 -4.17996e-08 0.00129063)
(0.157645 -4.04176e-08 0.00129755)
(0.155976 -3.83655e-08 0.00130506)
(0.154296 -3.56661e-08 0.00131318)
(0.152605 -3.24528e-08 0.00132194)
(0.150903 -2.89045e-08 0.00133137)
(0.149189 -2.53143e-08 0.00134148)
(0.147461 -2.20857e-08 0.00135231)
(0.145719 -1.95539e-08 0.00136388)
(0.143962 -1.7993e-08 0.0013762)
(0.142189 -1.74638e-08 0.00138931)
(0.140399 -1.77836e-08 0.00140324)
(0.138592 -1.84803e-08 0.00141799)
(0.136765 -1.88229e-08 0.00143361)
(0.134918 -1.80805e-08 0.0014501)
(0.13305 -1.56287e-08 0.00146751)
(0.131161 -1.11628e-08 0.00148585)
(0.129248 -4.96082e-09 0.00150515)
(0.12731 2.2082e-09 0.00152543)
(0.125347 9.30868e-09 0.0015467)
(0.123357 1.52175e-08 0.00156899)
(0.12134 1.92684e-08 0.00159231)
(0.119293 2.13662e-08 0.00161669)
(0.117216 2.20934e-08 0.00164213)
(0.115107 2.24665e-08 0.00166866)
(0.112965 2.34411e-08 0.00169629)
(0.11079 2.55846e-08 0.00172504)
(0.108579 2.8558e-08 0.00175492)
(0.106331 3.1482e-08 0.00178594)
(0.104045 3.3062e-08 0.00181809)
(0.101721 3.26356e-08 0.00185139)
(0.0993557 3.02408e-08 0.00188583)
(0.0969492 2.68981e-08 0.00192141)
(0.0944999 2.40046e-08 0.00195811)
(0.0920068 2.25274e-08 0.00199593)
(0.0894686 2.22875e-08 0.00203483)
(0.0868845 2.20477e-08 0.00207478)
(0.0842532 2.01974e-08 0.00211574)
(0.081574 1.59599e-08 0.00215767)
(0.078846 1.00968e-08 0.00220049)
(0.0760685 4.64863e-09 0.00224414)
(0.0732409 1.77798e-09 0.00228853)
(0.0703628 2.2653e-09 0.00233356)
(0.0674338 4.65624e-09 0.00237911)
(0.0644538 6.28193e-09 0.00242502)
(0.0614229 4.96082e-09 0.00247111)
(0.0583416 8.26169e-10 0.00251719)
(0.0552104 -3.81485e-09 0.00256302)
(0.0520304 -6.17152e-09 0.00260833)
(0.0488029 -5.33393e-09 0.00265281)
(0.0455298 -3.11432e-09 0.00269608)
(0.0422134 -2.36048e-09 0.0027377)
(0.0388565 -4.30217e-09 0.00277715)
(0.0354627 -7.22613e-09 0.00281387)
(0.0320365 -8.22362e-09 0.00284715)
(0.0285829 -5.82507e-09 0.00287621)
(0.0251083 -1.75894e-09 0.00290006)
(0.0216201 1.18786e-09 0.00291758)
(0.0181272 2.20058e-09 0.00292742)
(0.01464 2.77928e-09 0.00292801)
(0.0111711 4.93418e-09 0.00291745)
(0.00773517 8.39876e-09 0.00289334)
(0.00435007 1.15207e-08 0.00285266)
(0.00104002 1.3371e-08 0.00278992)
(-0.00218224 1.48482e-08 0.00269293)
(-0.00525963 1.70259e-08 0.00255925)
(-0.00817426 1.96529e-08 0.00239112)
(-0.0108755 2.09169e-08 0.00218252)
(-0.0133123 1.97367e-08 0.00192329)
(-0.0154211 1.80996e-08 0.00160091)
(-0.0171237 1.9455e-08 0.00120108)
(-0.0183254 2.37343e-08 0.000704746)
(-0.0189134 2.65973e-08 8.94736e-05)
(-0.0187463 2.74578e-08 -0.000663613)
(-0.0176793 3.67702e-08 -0.0015671)
(-0.0155344 5.21589e-08 -0.00261274)
(-0.0123195 7.59448e-08 -0.00371466)
(-0.00810266 1.31207e-07 -0.00445177)
(-0.00274897 9.83011e-08 -0.00361957)
(-0.000282379 6.53721e-08 -0.000784192)
(-0.0145676 -1.27127e-06 0.0161079)
(-0.0255083 -1.74424e-07 0.0117353)
(-0.0346227 -4.4826e-08 0.00356736)
(-0.0332552 -2.6294e-08 -0.00286088)
(-0.0271135 -6.0606e-08 -0.00707026)
(-0.0172959 -1.10139e-07 -0.00967968)
(-0.00540149 -1.48022e-07 -0.0112227)
(0.0079478 -1.66617e-07 -0.0119406)
(0.0216194 -1.77179e-07 -0.012074)
(0.0355255 -1.77834e-07 -0.0119313)
(0.0492853 -1.70548e-07 -0.0116186)
(0.062742 -1.66806e-07 -0.0112031)
(0.0757805 -1.64628e-07 -0.0107272)
(0.0883289 -1.58609e-07 -0.0102189)
(0.100344 -1.49776e-07 -0.00969646)
(0.1118 -1.39486e-07 -0.00917214)
(0.122689 -1.25479e-07 -0.00865415)
(0.133008 -1.07322e-07 -0.00814791)
(0.142765 -8.89786e-08 -0.00765695)
(0.151971 -7.45529e-08 -0.00718349)
(0.160639 -6.4121e-08 -0.0067288)
(0.168787 -5.5589e-08 -0.0062935)
(0.176433 -4.81192e-08 -0.00587772)
(0.183595 -4.32345e-08 -0.0054813)
(0.190293 -4.20428e-08 -0.00510385)
(0.196547 -4.31584e-08 -0.00474483)
(0.202375 -4.37143e-08 -0.00440356)
(0.207797 -4.20772e-08 -0.00407935)
(0.21283 -3.89591e-08 -0.00377145)
(0.217493 -3.60465e-08 -0.00347913)
(0.221802 -3.36784e-08 -0.00320164)
(0.225775 -3.06555e-08 -0.00293827)
(0.229426 -2.55423e-08 -0.00268833)
(0.232772 -1.85408e-08 -0.00245115)
(0.235828 -1.15963e-08 -0.00222609)
(0.238606 -7.09235e-09 -0.00201255)
(0.241121 -6.34995e-09 -0.00180998)
(0.243385 -8.75996e-09 -0.00161786)
(0.245411 -1.25825e-08 -0.00143568)
(0.247211 -1.60814e-08 -0.00126299)
(0.248796 -1.85485e-08 -0.00109933)
(0.250177 -2.03531e-08 -0.000944297)
(0.251365 -2.23253e-08 -0.000797497)
(0.252369 -2.5017e-08 -0.000658567)
(0.253198 -2.82494e-08 -0.000527167)
(0.253863 -3.12267e-08 -0.000402974)
(0.254373 -3.31493e-08 -0.000285682)
(0.254735 -3.37661e-08 -0.000175004)
(0.254957 -3.35186e-08 -7.06595e-05)
(0.255048 -3.34311e-08 2.77948e-05)
(0.255016 -3.45123e-08 0.000120537)
(0.254866 -3.73145e-08 0.00020757)
(0.254607 -4.17118e-08 0.00028919)
(0.254245 -4.69354e-08 0.000365713)
(0.253786 -5.18924e-08 0.000437397)
(0.253237 -5.57415e-08 0.00050447)
(0.252603 -5.80868e-08 0.000567151)
(0.251889 -5.91681e-08 0.000625648)
(0.251101 -5.95488e-08 0.000680164)
(0.250244 -5.99485e-08 0.000730895)
(0.249323 -6.08775e-08 0.000778031)
(0.248342 -6.24156e-08 0.000821751)
(0.247306 -6.42811e-08 0.000862232)
(0.246218 -6.57964e-08 0.000899644)
(0.245082 -6.62457e-08 0.000934153)
(0.243902 -6.5054e-08 0.000965921)
(0.242682 -6.19892e-08 0.000995106)
(0.241425 -5.71844e-08 0.00102186)
(0.240133 -5.10624e-08 0.00104634)
(0.23881 -4.42817e-08 0.00106868)
(0.237458 -3.75581e-08 0.00108901)
(0.23608 -3.13904e-08 0.00110748)
(0.234678 -2.62088e-08 0.00112419)
(0.233255 -2.21464e-08 0.00113928)
(0.231812 -1.91997e-08 0.00115284)
(0.230351 -1.71399e-08 0.001165)
(0.228875 -1.57084e-08 0.00117585)
(0.227384 -1.46576e-08 0.00118549)
(0.22588 -1.37858e-08 0.00119401)
(0.224365 -1.29216e-08 0.00120151)
(0.22284 -1.20573e-08 0.00120807)
(0.221307 -1.12464e-08 0.00121377)
(0.219765 -1.05992e-08 0.00121869)
(0.218217 -1.01842e-08 0.0012229)
(0.216663 -1.01004e-08 0.00122647)
(0.215103 -1.04279e-08 0.00122946)
(0.21354 -1.11665e-08 0.00123195)
(0.211973 -1.22706e-08 0.00123397)
(0.210402 -1.37059e-08 0.00123559)
(0.208829 -1.53773e-08 0.00123686)
(0.207254 -1.71667e-08 0.00123783)
(0.205677 -1.89751e-08 0.00123853)
(0.204099 -2.07074e-08 0.00123901)
(0.202519 -2.21998e-08 0.00123932)
(0.200939 -2.34105e-08 0.00123948)
(0.199358 -2.42596e-08 0.00123955)
(0.197776 -2.46822e-08 0.00123954)
(0.196193 -2.47317e-08 0.00123949)
(0.19461 -2.44233e-08 0.00123944)
(0.193027 -2.38522e-08 0.00123941)
(0.191443 -2.31441e-08 0.00123944)
(0.189858 -2.24055e-08 0.00123955)
(0.188273 -2.17849e-08 0.00123977)
(0.186687 -2.14194e-08 0.00124013)
(0.1851 -2.13623e-08 0.00124065)
(0.183511 -2.17506e-08 0.00124136)
(0.181922 -2.25958e-08 0.00124228)
(0.18033 -2.38979e-08 0.00124344)
(0.178736 -2.56074e-08 0.00124486)
(0.17714 -2.76671e-08 0.00124656)
(0.175542 -2.99514e-08 0.00124858)
(0.17394 -3.23347e-08 0.00125092)
(0.172335 -3.46762e-08 0.00125362)
(0.170725 -3.68653e-08 0.00125669)
(0.169111 -3.87918e-08 0.00126016)
(0.167493 -4.03908e-08 0.00126405)
(0.165869 -4.16244e-08 0.00126839)
(0.164238 -4.24125e-08 0.00127319)
(0.162602 -4.27361e-08 0.00127849)
(0.160958 -4.25495e-08 0.0012843)
(0.159306 -4.17995e-08 0.00129066)
(0.157645 -4.04175e-08 0.00129757)
(0.155976 -3.83654e-08 0.00130508)
(0.154296 -3.56661e-08 0.0013132)
(0.152605 -3.24528e-08 0.00132196)
(0.150903 -2.89044e-08 0.00133139)
(0.149189 -2.53142e-08 0.00134151)
(0.147461 -2.20857e-08 0.00135233)
(0.145719 -1.95539e-08 0.0013639)
(0.143962 -1.79929e-08 0.00137623)
(0.142189 -1.74637e-08 0.00138935)
(0.140399 -1.77835e-08 0.00140327)
(0.138592 -1.84803e-08 0.00141803)
(0.136765 -1.88229e-08 0.00143365)
(0.134918 -1.80805e-08 0.00145015)
(0.13305 -1.56286e-08 0.00146756)
(0.131161 -1.11628e-08 0.0014859)
(0.129248 -4.96081e-09 0.0015052)
(0.12731 2.20819e-09 0.00152547)
(0.125347 9.30867e-09 0.00154674)
(0.123357 1.52175e-08 0.00156903)
(0.12134 1.92684e-08 0.00159235)
(0.119293 2.13661e-08 0.00161672)
(0.117216 2.20933e-08 0.00164216)
(0.115107 2.24664e-08 0.00166869)
(0.112965 2.34411e-08 0.00169632)
(0.11079 2.55845e-08 0.00172507)
(0.108579 2.8558e-08 0.00175495)
(0.106331 3.14819e-08 0.00178596)
(0.104045 3.30619e-08 0.00181812)
(0.101721 3.26355e-08 0.00185141)
(0.0993557 3.02408e-08 0.00188585)
(0.0969492 2.6898e-08 0.00192143)
(0.0944999 2.40045e-08 0.00195813)
(0.0920068 2.25273e-08 0.00199594)
(0.0894687 2.22875e-08 0.00203484)
(0.0868845 2.20476e-08 0.00207479)
(0.0842532 2.01973e-08 0.00211575)
(0.081574 1.59599e-08 0.00215767)
(0.078846 1.00968e-08 0.00220049)
(0.0760685 4.64862e-09 0.00224414)
(0.073241 1.77797e-09 0.00228853)
(0.0703628 2.2653e-09 0.00233356)
(0.0674338 4.65623e-09 0.0023791)
(0.0644538 6.28192e-09 0.002425)
(0.061423 4.96081e-09 0.00247109)
(0.0583416 8.26167e-10 0.00251716)
(0.0552104 -3.81484e-09 0.00256299)
(0.0520304 -6.17151e-09 0.00260831)
(0.048803 -5.33392e-09 0.00265279)
(0.0455299 -3.11431e-09 0.00269605)
(0.0422134 -2.36048e-09 0.00273766)
(0.0388565 -4.30216e-09 0.00277712)
(0.0354628 -7.22611e-09 0.00281384)
(0.0320365 -8.2236e-09 0.00284713)
(0.028583 -5.82505e-09 0.00287618)
(0.0251084 -1.75894e-09 0.00290003)
(0.0216202 1.18785e-09 0.00291754)
(0.0181272 2.20057e-09 0.00292739)
(0.0146401 2.77927e-09 0.00292799)
(0.0111712 4.93416e-09 0.00291743)
(0.00773523 8.39873e-09 0.00289332)
(0.00435012 1.15206e-08 0.00285263)
(0.00104006 1.3371e-08 0.00278988)
(-0.00218219 1.48482e-08 0.0026929)
(-0.00525957 1.70259e-08 0.00255922)
(-0.00817422 1.96529e-08 0.00239108)
(-0.0108754 2.09169e-08 0.00218247)
(-0.0133123 1.97366e-08 0.00192327)
(-0.015421 1.80995e-08 0.00160091)
(-0.0171237 1.94549e-08 0.00120107)
(-0.0183254 2.37342e-08 0.000704747)
(-0.0189134 2.65973e-08 8.95089e-05)
(-0.0187462 2.74577e-08 -0.000663619)
(-0.0176792 3.67702e-08 -0.00156718)
(-0.0155343 5.21592e-08 -0.00261287)
(-0.0123193 7.59484e-08 -0.00371489)
(-0.0081026 1.31248e-07 -0.00445179)
(-0.00274893 9.82737e-08 -0.00361974)
(-0.000282523 6.5353e-08 -0.00078449)
(-0.00942834 -1.23494e-07 0.0289419)
(-0.0116703 8.73133e-08 0.0157746)
(-0.00966396 7.22805e-08 0.00321293)
(-0.00465785 6.18677e-08 -0.00696214)
(0.0025065 5.02887e-08 -0.0140282)
(0.0114049 4.27286e-08 -0.0186165)
(0.0215191 3.92235e-08 -0.0214242)
(0.0324597 3.17837e-08 -0.0229434)
(0.0438659 2.357e-08 -0.0235704)
(0.0554949 1.77893e-08 -0.023634)
(0.0671306 1.31614e-08 -0.0233159)
(0.078627 9.35771e-09 -0.022746)
(0.0898761 7.15126e-09 -0.0220103)
(0.100802 6.14795e-09 -0.0211683)
(0.111351 5.83282e-09 -0.0202615)
(0.121489 6.76365e-09 -0.0193193)
(0.131193 9.23836e-09 -0.0183626)
(0.140451 1.21547e-08 -0.0174065)
(0.149259 1.41164e-08 -0.0164615)
(0.157617 1.49559e-08 -0.0155353)
(0.16553 1.5426e-08 -0.0146332)
(0.173007 1.58886e-08 -0.0137586)
(0.180058 1.59199e-08 -0.0129138)
(0.186694 1.50671e-08 -0.0121003)
(0.192928 1.36241e-08 -0.0113186)
(0.198774 1.24066e-08 -0.0105689)
(0.204247 1.19307e-08 -0.00985092)
(0.209359 1.20135e-08 -0.00916405)
(0.214125 1.21248e-08 -0.00850758)
(0.218559 1.20249e-08 -0.00788066)
(0.222675 1.20087e-08 -0.00728232)
(0.226486 1.25255e-08 -0.00671156)
(0.230005 1.36381e-08 -0.00616736)
(0.233245 1.48822e-08 -0.0056487)
(0.236218 1.55551e-08 -0.00515457)
(0.238937 1.5249e-08 -0.00468397)
(0.241412 1.4044e-08 -0.00423597)
(0.243654 1.24421e-08 -0.00380965)
(0.245675 1.09787e-08 -0.00340413)
(0.247485 9.9226e-09 -0.00301858)
(0.249093 9.21443e-09 -0.00265219)
(0.25051 8.59478e-09 -0.00230419)
(0.251745 7.87234e-09 -0.00197385)
(0.252805 7.04758e-09 -0.00166047)
(0.253701 6.30087e-09 -0.00136339)
(0.254441 5.88016e-09 -0.00108195)
(0.255031 5.8949e-09 -0.000815554)
(0.255481 6.25278e-09 -0.000563593)
(0.255797 6.69727e-09 -0.000325492)
(0.255987 6.93807e-09 -0.000100692)
(0.256057 6.76721e-09 0.000111281)
(0.256014 6.1885e-09 0.000310902)
(0.255864 5.40657e-09 0.000498721)
(0.255614 4.68937e-09 0.000675261)
(0.255268 4.27818e-09 0.000841018)
(0.254834 4.28293e-09 0.000996468)
(0.254316 4.6608e-09 0.00114207)
(0.253719 5.25758e-09 0.00127829)
(0.253048 5.88006e-09 0.00140554)
(0.252308 6.38975e-09 0.00152427)
(0.251504 6.74619e-09 0.00163488)
(0.250639 7.02078e-09 0.00173777)
(0.249717 7.34963e-09 0.00183335)
(0.248743 7.88359e-09 0.00192198)
(0.24772 8.73165e-09 0.00200405)
(0.246652 9.90475e-09 0.0020799)
(0.245541 1.1332e-08 0.00214988)
(0.244391 1.28577e-08 0.00221435)
(0.243205 1.43092e-08 0.0022736)
(0.241986 1.55152e-08 0.00232797)
(0.240735 1.63618e-08 0.00237776)
(0.239457 1.67977e-08 0.00242324)
(0.238152 1.68377e-08 0.00246471)
(0.236823 1.6535e-08 0.00250243)
(0.235472 1.59882e-08 0.00253665)
(0.2341 1.5281e-08 0.00256761)
(0.232711 1.44933e-08 0.00259555)
(0.231304 1.36919e-08 0.0026207)
(0.229882 1.29024e-08 0.00264325)
(0.228447 1.21238e-08 0.00266342)
(0.226998 1.13452e-08 0.00268139)
(0.225539 1.05571e-08 0.00269736)
(0.224069 9.74187e-09 0.00271148)
(0.222589 8.90189e-09 0.00272392)
(0.221101 8.05287e-09 0.00273485)
(0.219606 7.22194e-09 0.0027444)
(0.218103 6.43954e-09 0.00275271)
(0.216595 5.74567e-09 0.00275992)
(0.215081 5.17506e-09 0.00276615)
(0.213562 4.74198e-09 0.00277151)
(0.212038 4.46405e-09 0.00277611)
(0.21051 4.34221e-09 0.00278006)
(0.208979 4.37219e-09 0.00278345)
(0.207444 4.52971e-09 0.00278638)
(0.205906 4.79954e-09 0.00278893)
(0.204365 5.14219e-09 0.00279119)
(0.202821 5.52815e-09 0.00279324)
(0.201275 5.90934e-09 0.00279515)
(0.199726 6.24676e-09 0.002797)
(0.198174 6.51088e-09 0.00279886)
(0.19662 6.6665e-09 0.00280079)
(0.195064 6.70314e-09 0.00280285)
(0.193504 6.6051e-09 0.00280512)
(0.191942 6.38e-09 0.00280765)
(0.190378 6.04306e-09 0.00281051)
(0.18881 5.6176e-09 0.00281374)
(0.187239 5.13836e-09 0.00281741)
(0.185664 4.64056e-09 0.00282156)
(0.184086 4.16989e-09 0.00282626)
(0.182504 3.77965e-09 0.00283156)
(0.180917 3.49458e-09 0.0028375)
(0.179326 3.34514e-09 0.00284414)
(0.17773 3.35228e-09 0.00285154)
(0.176128 3.5198e-09 0.00285973)
(0.17452 3.8358e-09 0.00286877)
(0.172906 4.28315e-09 0.00287872)
(0.171285 4.82568e-09 0.00288962)
(0.169656 5.43388e-09 0.00290152)
(0.16802 6.0773e-09 0.00291447)
(0.166375 6.73595e-09 0.00292853)
(0.164721 7.38699e-09 0.00294374)
(0.163057 8.0247e-09 0.00296016)
(0.161383 8.63291e-09 0.00297784)
(0.159698 9.18876e-09 0.00299683)
(0.158 9.67038e-09 0.00301718)
(0.156291 1.00397e-08 0.00303895)
(0.154568 1.02386e-08 0.00306218)
(0.15283 1.02158e-08 0.00308692)
(0.151078 9.94259e-09 0.00311322)
(0.14931 9.40292e-09 0.00314113)
(0.147525 8.64813e-09 0.0031707)
(0.145723 7.76771e-09 0.00320197)
(0.143902 6.91013e-09 0.00323499)
(0.142062 6.24196e-09 0.0032698)
(0.140201 5.90692e-09 0.00330645)
(0.138319 5.96974e-09 0.00334497)
(0.136415 6.40567e-09 0.00338541)
(0.134487 7.05671e-09 0.00342782)
(0.132534 7.683e-09 0.00347221)
(0.130557 8.01708e-09 0.00351864)
(0.128552 7.86479e-09 0.00356712)
(0.12652 7.16141e-09 0.00361768)
(0.12446 6.01448e-09 0.00367036)
(0.122369 4.67243e-09 0.00372518)
(0.120248 3.42175e-09 0.00378214)
(0.118094 2.45757e-09 0.00384126)
(0.115907 1.81795e-09 0.00390256)
(0.113687 1.34395e-09 0.00396602)
(0.111431 7.70965e-10 0.00403165)
(0.109138 -1.35156e-10 0.00409943)
(0.106808 -1.41153e-09 0.00416934)
(0.10444 -2.8697e-09 0.00424133)
(0.102032 -4.1594e-09 0.00431538)
(0.0995844 -4.95702e-09 0.00439141)
(0.0970952 -5.20544e-09 0.00446936)
(0.094564 -5.11882e-09 0.00454914)
(0.0919898 -5.12739e-09 0.00463064)
(0.0893721 -5.57474e-09 0.00471371)
(0.0867103 -6.44945e-09 0.00479823)
(0.0840039 -7.34606e-09 0.00488399)
(0.0812525 -7.70489e-09 0.00497081)
(0.0784558 -7.18806e-09 0.00505843)
(0.0756138 -5.97736e-09 0.00514657)
(0.0727266 -4.7086e-09 0.00523491)
(0.0697946 -4.04709e-09 0.00532309)
(0.0668182 -4.19747e-09 0.00541066)
(0.0637982 -4.72573e-09 0.00549715)
(0.0607358 -4.88183e-09 0.00558201)
(0.0576325 -4.26601e-09 0.00566458)
(0.05449 -3.13335e-09 0.00574416)
(0.0513106 -2.23104e-09 0.00581989)
(0.0480969 -2.06447e-09 0.00589082)
(0.0448524 -2.42521e-09 0.00595586)
(0.041581 -2.58511e-09 0.00601374)
(0.0382871 -2.07209e-09 0.00606303)
(0.0349763 -1.14788e-09 0.00610203)
(0.0316548 -4.56868e-10 0.00612882)
(0.0283301 -3.67398e-10 0.00614113)
(0.0250107 -5.54904e-10 0.00613633)
(0.0217066 -5.53001e-10 0.00611132)
(0.0184293 -3.33133e-10 0.00606241)
(0.0151922 -1.69422e-10 0.00598514)
(0.0120109 -1.24687e-10 0.00587398)
(0.00890398 -3.42647e-11 0.00572211)
(0.00589087 1.56097e-10 0.00551878)
(0.00299678 2.04639e-10 0.00525582)
(0.00024725 -1.97976e-10 0.00492563)
(-0.00232425 -1.28875e-09 0.00451505)
(-0.00467941 -2.6841e-09 0.00400896)
(-0.00677826 -2.7355e-09 0.00338845)
(-0.00857394 -1.48482e-09 0.00263086)
(-0.0100156 -2.47661e-09 0.00170945)
(-0.011049 -4.82377e-09 0.000596402)
(-0.0116208 -3.67208e-09 -0.000728501)
(-0.0116783 -5.37389e-09 -0.00226601)
(-0.0111803 -1.30109e-08 -0.00396759)
(-0.0101263 -1.64836e-08 -0.00568047)
(-0.00853157 -2.74893e-08 -0.00692239)
(-0.00590286 -2.76773e-08 -0.00658151)
(-0.00365743 -4.66005e-08 -0.0035924)
(-0.00942803 -1.23491e-07 0.0289424)
(-0.0116701 8.73088e-08 0.0157746)
(-0.00966374 7.22778e-08 0.00321275)
(-0.00465759 6.18653e-08 -0.00696233)
(0.00250673 5.02867e-08 -0.0140284)
(0.0114051 4.2727e-08 -0.0186166)
(0.0215193 3.92222e-08 -0.0214243)
(0.0324598 3.17827e-08 -0.0229435)
(0.043866 2.35693e-08 -0.0235705)
(0.055495 1.77889e-08 -0.0236341)
(0.0671305 1.3161e-08 -0.023316)
(0.078627 9.35749e-09 -0.0227461)
(0.089876 7.1511e-09 -0.0220104)
(0.100802 6.14782e-09 -0.0211684)
(0.111351 5.8327e-09 -0.0202615)
(0.121488 6.76352e-09 -0.0193193)
(0.131192 9.23819e-09 -0.0183627)
(0.140451 1.21545e-08 -0.0174065)
(0.149258 1.41162e-08 -0.0164615)
(0.157616 1.49556e-08 -0.0155354)
(0.16553 1.54258e-08 -0.0146332)
(0.173007 1.58883e-08 -0.0137586)
(0.180057 1.59197e-08 -0.0129139)
(0.186693 1.50669e-08 -0.0121003)
(0.192928 1.36239e-08 -0.0113187)
(0.198774 1.24065e-08 -0.0105689)
(0.204246 1.19306e-08 -0.00985092)
(0.209358 1.20134e-08 -0.00916405)
(0.214125 1.21247e-08 -0.00850759)
(0.218559 1.20247e-08 -0.00788066)
(0.222675 1.20085e-08 -0.00728232)
(0.226486 1.25254e-08 -0.00671157)
(0.230005 1.3638e-08 -0.00616737)
(0.233245 1.4882e-08 -0.00564871)
(0.236218 1.55549e-08 -0.00515457)
(0.238936 1.52489e-08 -0.00468398)
(0.241411 1.40439e-08 -0.00423598)
(0.243654 1.2442e-08 -0.00380966)
(0.245675 1.09786e-08 -0.00340415)
(0.247485 9.92253e-09 -0.00301859)
(0.249093 9.21437e-09 -0.0026522)
(0.25051 8.59473e-09 -0.0023042)
(0.251744 7.87229e-09 -0.00197386)
(0.252805 7.04754e-09 -0.00166048)
(0.253701 6.30083e-09 -0.00136339)
(0.254441 5.88012e-09 -0.00108196)
(0.255031 5.89487e-09 -0.000815563)
(0.255481 6.25274e-09 -0.000563602)
(0.255797 6.69723e-09 -0.000325501)
(0.255987 6.93803e-09 -0.0001007)
(0.256057 6.76718e-09 0.000111273)
(0.256014 6.18847e-09 0.000310894)
(0.255864 5.40655e-09 0.000498713)
(0.255613 4.68935e-09 0.000675253)
(0.255268 4.27816e-09 0.00084101)
(0.254834 4.28292e-09 0.000996461)
(0.254315 4.66078e-09 0.00114207)
(0.253719 5.25756e-09 0.00127828)
(0.253048 5.88003e-09 0.00140554)
(0.252308 6.38972e-09 0.00152427)
(0.251503 6.74617e-09 0.00163488)
(0.250639 7.02076e-09 0.00173778)
(0.249717 7.3496e-09 0.00183335)
(0.248743 7.88356e-09 0.00192198)
(0.24772 8.73161e-09 0.00200405)
(0.246652 9.90471e-09 0.0020799)
(0.245541 1.13319e-08 0.00214988)
(0.244391 1.28577e-08 0.00221434)
(0.243205 1.43092e-08 0.0022736)
(0.241986 1.55151e-08 0.00232797)
(0.240735 1.63617e-08 0.00237775)
(0.239457 1.67977e-08 0.00242324)
(0.238152 1.68376e-08 0.00246471)
(0.236823 1.65349e-08 0.00250243)
(0.235472 1.59881e-08 0.00253664)
(0.2341 1.52809e-08 0.00256761)
(0.232711 1.44933e-08 0.00259555)
(0.231304 1.36919e-08 0.00262069)
(0.229882 1.29023e-08 0.00264324)
(0.228447 1.21238e-08 0.00266341)
(0.226998 1.13452e-08 0.00268139)
(0.225539 1.05571e-08 0.00269735)
(0.224068 9.74184e-09 0.00271147)
(0.222589 8.90186e-09 0.00272392)
(0.221101 8.05284e-09 0.00273485)
(0.219606 7.22191e-09 0.0027444)
(0.218103 6.43952e-09 0.00275271)
(0.216595 5.74565e-09 0.00275992)
(0.215081 5.17504e-09 0.00276615)
(0.213562 4.74196e-09 0.00277151)
(0.212038 4.46403e-09 0.00277611)
(0.21051 4.3422e-09 0.00278006)
(0.208979 4.37218e-09 0.00278345)
(0.207444 4.5297e-09 0.00278638)
(0.205906 4.79953e-09 0.00278893)
(0.204365 5.14218e-09 0.00279119)
(0.202821 5.52813e-09 0.00279324)
(0.201275 5.90933e-09 0.00279515)
(0.199726 6.24674e-09 0.002797)
(0.198174 6.51086e-09 0.00279885)
(0.19662 6.66648e-09 0.00280078)
(0.195064 6.70312e-09 0.00280284)
(0.193504 6.60508e-09 0.00280511)
(0.191942 6.37998e-09 0.00280765)
(0.190378 6.04304e-09 0.0028105)
(0.18881 5.61758e-09 0.00281373)
(0.187239 5.13834e-09 0.0028174)
(0.185664 4.64055e-09 0.00282156)
(0.184086 4.16988e-09 0.00282626)
(0.182504 3.77964e-09 0.00283156)
(0.180917 3.49457e-09 0.0028375)
(0.179326 3.34514e-09 0.00284415)
(0.177729 3.35227e-09 0.00285154)
(0.176128 3.51979e-09 0.00285973)
(0.17452 3.83579e-09 0.00286878)
(0.172906 4.28314e-09 0.00287872)
(0.171285 4.82566e-09 0.00288962)
(0.169656 5.43387e-09 0.00290152)
(0.16802 6.07729e-09 0.00291447)
(0.166375 6.73594e-09 0.00292853)
(0.164721 7.38697e-09 0.00294374)
(0.163057 8.02468e-09 0.00296016)
(0.161383 8.63288e-09 0.00297784)
(0.159698 9.18874e-09 0.00299683)
(0.158 9.67035e-09 0.00301718)
(0.156291 1.00396e-08 0.00303895)
(0.154568 1.02386e-08 0.00306218)
(0.15283 1.02157e-08 0.00308692)
(0.151078 9.94256e-09 0.00311322)
(0.14931 9.40289e-09 0.00314113)
(0.147525 8.64811e-09 0.0031707)
(0.145723 7.76769e-09 0.00320197)
(0.143902 6.91011e-09 0.00323499)
(0.142062 6.24194e-09 0.0032698)
(0.140201 5.90691e-09 0.00330645)
(0.138319 5.96973e-09 0.00334497)
(0.136415 6.40565e-09 0.00338542)
(0.134487 7.05669e-09 0.00342782)
(0.132534 7.68298e-09 0.00347221)
(0.130557 8.01706e-09 0.00351864)
(0.128552 7.86477e-09 0.00356712)
(0.12652 7.16139e-09 0.00361768)
(0.12446 6.01446e-09 0.00367036)
(0.122369 4.67241e-09 0.00372517)
(0.120248 3.42174e-09 0.00378214)
(0.118094 2.45756e-09 0.00384126)
(0.115907 1.81795e-09 0.00390255)
(0.113687 1.34395e-09 0.00396602)
(0.111431 7.70963e-10 0.00403165)
(0.109138 -1.35156e-10 0.00409943)
(0.106808 -1.41153e-09 0.00416933)
(0.10444 -2.86969e-09 0.00424133)
(0.102032 -4.15939e-09 0.00431538)
(0.0995844 -4.957e-09 0.00439141)
(0.0970952 -5.20542e-09 0.00446936)
(0.094564 -5.11881e-09 0.00454914)
(0.0919898 -5.12738e-09 0.00463063)
(0.0893721 -5.57472e-09 0.00471371)
(0.0867103 -6.44943e-09 0.00479822)
(0.0840039 -7.34603e-09 0.00488399)
(0.0812525 -7.70486e-09 0.0049708)
(0.0784558 -7.18803e-09 0.00505842)
(0.0756138 -5.97734e-09 0.00514656)
(0.0727266 -4.70858e-09 0.00523491)
(0.0697946 -4.04708e-09 0.00532308)
(0.0668182 -4.19746e-09 0.00541065)
(0.0637982 -4.72571e-09 0.00549714)
(0.0607359 -4.88181e-09 0.005582)
(0.0576325 -4.26599e-09 0.00566457)
(0.05449 -3.13334e-09 0.00574415)
(0.0513106 -2.23103e-09 0.00581988)
(0.048097 -2.06447e-09 0.00589081)
(0.0448525 -2.4252e-09 0.00595584)
(0.041581 -2.5851e-09 0.00601373)
(0.0382871 -2.07208e-09 0.00606302)
(0.0349763 -1.14788e-09 0.00610202)
(0.0316549 -4.56866e-10 0.00612881)
(0.0283301 -3.67396e-10 0.00614112)
(0.0250107 -5.54902e-10 0.00613632)
(0.0217066 -5.52998e-10 0.00611131)
(0.0184293 -3.33131e-10 0.0060624)
(0.0151922 -1.69421e-10 0.00598513)
(0.012011 -1.24686e-10 0.00587397)
(0.008904 -3.42646e-11 0.0057221)
(0.00589089 1.56096e-10 0.00551877)
(0.00299679 2.04638e-10 0.00525581)
(0.000247258 -1.97975e-10 0.00492562)
(-0.00232424 -1.28874e-09 0.00451504)
(-0.00467938 -2.68409e-09 0.00400896)
(-0.00677824 -2.73549e-09 0.00338845)
(-0.00857392 -1.48481e-09 0.00263086)
(-0.0100156 -2.47659e-09 0.00170945)
(-0.011049 -4.82375e-09 0.00059641)
(-0.0116209 -3.67206e-09 -0.000728496)
(-0.0116783 -5.37391e-09 -0.002266)
(-0.0111803 -1.30115e-08 -0.00396758)
(-0.0101264 -1.6487e-08 -0.00568046)
(-0.00853152 -2.75023e-08 -0.00692246)
(-0.00590258 -2.76798e-08 -0.00658174)
(-0.0036572 -4.66005e-08 -0.0035923)
(-0.00157193 5.18343e-08 0.0367612)
(0.000620328 8.22902e-08 0.0127278)
(0.00653174 5.09716e-08 -0.00343404)
(0.0134171 3.89825e-08 -0.015067)
(0.0210944 3.31175e-08 -0.0232734)
(0.0294977 3.08088e-08 -0.0288316)
(0.038529 2.87078e-08 -0.032388)
(0.0480515 2.66521e-08 -0.0344528)
(0.057918 2.45099e-08 -0.0354305)
(0.0679791 2.1687e-08 -0.0356406)
(0.0780924 1.86182e-08 -0.0353066)
(0.0881446 1.60334e-08 -0.0345914)
(0.098044 1.41097e-08 -0.0336117)
(0.10772 1.26866e-08 -0.0324524)
(0.117121 1.19803e-08 -0.0311754)
(0.126206 1.22373e-08 -0.029826)
(0.13495 1.29982e-08 -0.0284377)
(0.143333 1.34803e-08 -0.0270351)
(0.151346 1.35407e-08 -0.0256366)
(0.158983 1.35711e-08 -0.0242553)
(0.166243 1.36996e-08 -0.022901)
(0.173128 1.35953e-08 -0.0215805)
(0.179645 1.29928e-08 -0.0202987)
(0.185799 1.20386e-08 -0.0190587)
(0.1916 1.11272e-08 -0.0178624)
(0.197057 1.04951e-08 -0.0167109)
(0.202181 1.00834e-08 -0.0156045)
(0.206982 9.71031e-09 -0.0145429)
(0.211472 9.29721e-09 -0.0135256)
(0.215661 8.97262e-09 -0.0125516)
(0.219561 8.94262e-09 -0.0116199)
(0.223182 9.28384e-09 -0.0107292)
(0.226537 9.83065e-09 -0.0098783)
(0.229636 1.02537e-08 -0.00906582)
(0.232489 1.02642e-08 -0.00829042)
(0.235107 9.79445e-09 -0.00755075)
(0.237499 8.99729e-09 -0.00684551)
(0.239676 8.13255e-09 -0.00617339)
(0.241647 7.39012e-09 -0.00553317)