/*--------------------------------*- C++ -*----------------------------------*\
  =========                 |
  \\      /  F ield         | OpenFOAM: The Open Source CFD Toolbox
   \\    /   O peration     | Website:  https://openfoam.org
    \\  /    A nd           | Version:  8
     \\/     M anipulation  |
\*---------------------------------------------------------------------------*/
FoamFile
{
    version     2.0;
    format      ascii;
    class       volScalarField;
    location    "4800";
    object      alphat;
}
// * * * * * * * * * * * * * * * * * * * * * * * * * * * * * * * * * * * * * //

dimensions      [1 -1 -1 0 0 0 0];

internalField   nonuniform List<scalar> 
46000
(
2.88822e-06
1.01519e-05
1.75247e-05
2.43003e-05
3.06794e-05
3.68367e-05
4.28432e-05
4.87236e-05
5.45107e-05
6.02292e-05
6.58994e-05
7.15286e-05
7.70913e-05
8.26087e-05
8.80864e-05
9.35253e-05
9.89247e-05
0.000104282
0.000109595
0.000114859
0.000120069
0.000125222
0.000130311
0.000135331
0.000140276
0.000145139
0.000149915
0.000154596
0.000159176
0.000163646
0.000167999
0.000172226
0.000176316
0.000180259
0.00018404
0.000187643
0.000191043
0.000194208
0.000197076
0.000199498
0.000200992
0.000199747
0.000188597
3.33512e-05
3.40263e-05
0.000195313
0.000205608
0.000207557
0.000207516
0.000207291
0.000207499
0.000204743
0.000191632
3.35585e-05
3.2126e-05
3.22114e-05
3.4018e-05
0.000193137
0.000205887
0.000192543
3.59931e-05
0.000197556
0.000208618
0.000210098
0.000208661
0.000206511
0.000207364
0.000207109
0.000205383
0.000202301
0.000201634
0.00020838
0.000204435
0.000205971
0.000206147
0.000205772
0.000205189
0.000204593
0.000203988
0.000203421
0.000202542
0.000201207
0.000199469
0.000197442
0.00019522
0.00019287
0.000190431
0.000187927
0.000185374
0.000182782
0.00018016
0.000177513
0.000174848
0.000172168
0.00016948
0.000166786
0.00016409
0.000161396
0.000158706
0.000156025
0.000153353
0.000150695
0.000148052
0.000145426
0.00014282
0.000140236
0.000137674
0.000135137
0.000132626
0.000130142
0.000127686
0.00012526
0.000122865
0.0001205
0.000118167
0.000115867
0.000113599
0.000111364
0.000109163
0.000106995
0.000104861
0.00010276
0.000100693
9.86585e-05
9.66574e-05
9.46892e-05
9.27533e-05
9.08495e-05
8.89773e-05
8.71362e-05
8.53257e-05
8.35452e-05
8.17941e-05
8.00719e-05
7.83778e-05
7.67113e-05
7.50717e-05
7.34582e-05
7.18703e-05
7.03072e-05
6.87681e-05
6.72526e-05
6.57597e-05
6.42889e-05
6.28394e-05
6.14107e-05
6.0002e-05
5.86127e-05
5.72422e-05
5.58898e-05
5.4555e-05
5.32371e-05
5.19357e-05
5.06501e-05
4.93799e-05
4.81245e-05
4.68834e-05
4.56561e-05
4.44423e-05
4.32414e-05
4.20531e-05
4.08769e-05
3.97124e-05
3.85593e-05
3.74171e-05
3.62855e-05
3.51642e-05
3.40527e-05
3.29508e-05
3.18581e-05
3.07741e-05
2.96987e-05
2.86313e-05
2.75717e-05
2.65194e-05
2.54739e-05
2.4435e-05
2.3402e-05
2.23746e-05
2.1352e-05
2.03339e-05
1.93194e-05
1.8308e-05
1.72987e-05
1.62908e-05
1.52831e-05
1.42745e-05
1.32637e-05
1.22491e-05
1.12289e-05
1.02009e-05
9.16238e-06
8.10997e-06
7.03942e-06
5.94512e-06
4.8192e-06
3.65138e-06
2.43503e-06
1.19274e-06
2.3935e-07
2.89007e-06
1.01557e-05
1.75279e-05
2.43015e-05
3.06796e-05
3.68366e-05
4.28432e-05
4.87236e-05
5.45108e-05
6.02292e-05
6.58994e-05
7.15286e-05
7.70913e-05
8.26087e-05
8.80863e-05
9.35253e-05
9.89246e-05
0.000104282
0.000109595
0.000114859
0.000120069
0.000125222
0.000130311
0.000135331
0.000140276
0.000145139
0.000149915
0.000154596
0.000159176
0.000163646
0.000167999
0.000172225
0.000176316
0.000180258
0.000184038
0.000187639
0.000191036
0.000194198
0.000197081
0.000199624
0.000201714
0.000203119
0.000203355
0.000202079
0.000203304
0.000206497
0.000207482
0.000207302
0.000206868
0.000207101
0.000207209
0.000207138
0.000206457
0.000204427
0.000203803
0.000202268
0.000199501
0.000205225
0.000206265
0.000204163
0.000190379
3.61696e-05
0.000200219
0.000208691
0.000209805
0.000208243
0.000205914
0.000205001
0.000199733
0.000202834
0.000203253
0.000204914
0.000202902
0.000205449
0.000205967
0.000205712
0.000205177
0.000204599
0.000203999
0.00020343
0.000202547
0.000201208
0.000199469
0.000197441
0.00019522
0.00019287
0.000190431
0.000187927
0.000185374
0.000182782
0.000180159
0.000177513
0.000174847
0.000172168
0.000169479
0.000166785
0.00016409
0.000161395
0.000158706
0.000156024
0.000153353
0.000150695
0.000148052
0.000145426
0.00014282
0.000140235
0.000137674
0.000135136
0.000132625
0.000130141
0.000127686
0.00012526
0.000122864
0.0001205
0.000118167
0.000115867
0.000113599
0.000111364
0.000109163
0.000106995
0.000104861
0.00010276
0.000100692
9.86583e-05
9.66572e-05
9.4689e-05
9.27531e-05
9.08493e-05
8.89771e-05
8.7136e-05
8.53255e-05
8.3545e-05
8.17939e-05
8.00717e-05
7.83777e-05
7.67112e-05
7.50715e-05
7.34581e-05
7.18701e-05
7.0307e-05
6.8768e-05
6.72524e-05
6.57595e-05
6.42887e-05
6.28393e-05
6.14106e-05
6.00019e-05
5.86126e-05
5.7242e-05
5.58897e-05
5.45549e-05
5.3237e-05
5.19356e-05
5.065e-05
4.93798e-05
4.81243e-05
4.68833e-05
4.5656e-05
4.44422e-05
4.32414e-05
4.2053e-05
4.08768e-05
3.97123e-05
3.85592e-05
3.7417e-05
3.62854e-05
3.51641e-05
3.40527e-05
3.29507e-05
3.1858e-05
3.07741e-05
2.96986e-05
2.86313e-05
2.75716e-05
2.65193e-05
2.54739e-05
2.44349e-05
2.3402e-05
2.23745e-05
2.1352e-05
2.03338e-05
1.93194e-05
1.83079e-05
1.72987e-05
1.62907e-05
1.5283e-05
1.42745e-05
1.32637e-05
1.22491e-05
1.12289e-05
1.02009e-05
9.16236e-06
8.10995e-06
7.0394e-06
5.94511e-06
4.8192e-06
3.65138e-06
2.43502e-06
1.19274e-06
2.3935e-07
9.3935e-06
6.81373e-05
0.000112607
0.000143779
0.000168134
0.000188467
0.000206096
0.000221959
0.000236567
0.000250233
0.00026315
0.00027547
0.000287305
0.00029872
0.000309766
0.00032048
0.000330892
0.000341024
0.000350893
0.000360512
0.000369892
0.000379037
0.000387955
0.000396646
0.000405114
0.000413358
0.000421378
0.000429172
0.000436738
0.000444073
0.000451172
0.00045803
0.000464641
0.000470995
0.000477081
0.000482882
0.000488373
0.000493503
0.000498141
0.00050182
0.000502596
0.000492054
0.000438263
0.000283109
0.000288486
0.000454682
0.000504023
0.000513107
0.000513343
0.000511367
0.000507764
0.000494888
0.00043976
0.000283702
0.000266672
0.000268031
0.000288742
0.000440894
0.000470165
0.00044262
0.000313888
0.000456224
0.000506273
0.000514316
0.000512555
0.000507911
0.000502598
0.000499579
0.000498565
0.000497235
0.00049302
0.000490396
0.000503539
0.000512987
0.000515733
0.000515159
0.000513981
0.000513461
0.000513629
0.000513826
0.00051335
0.000511948
0.000509741
0.00050696
0.000503804
0.000500403
0.000496832
0.000493136
0.000489341
0.000485462
0.000481513
0.000477503
0.000473439
0.000469328
0.000465178
0.000460993
0.000456779
0.00045254
0.000448281
0.000444007
0.000439722
0.000435429
0.000431132
0.000426835
0.000422541
0.000418253
0.000413973
0.000409705
0.000405451
0.000401213
0.000396994
0.000392795
0.000388619
0.000384466
0.000380339
0.000376239
0.000372167
0.000368124
0.000364111
0.000360129
0.000356178
0.000352259
0.000348372
0.000344518
0.000340697
0.000336908
0.000333152
0.000329429
0.000325737
0.000322078
0.000318449
0.000314852
0.000311284
0.000307746
0.000304237
0.000300755
0.000297301
0.000293872
0.000290468
0.000287089
0.000283732
0.000280397
0.000277083
0.000273788
0.000270512
0.000267252
0.000264009
0.00026078
0.000257564
0.000254361
0.000251168
0.000247984
0.000244809
0.00024164
0.000238477
0.000235317
0.00023216
0.000229003
0.000225847
0.000222688
0.000219525
0.000216357
0.000213182
0.000209998
0.000206804
0.000203597
0.000200375
0.000197136
0.000193877
0.000190597
0.000187292
0.000183959
0.000180595
0.000177197
0.00017376
0.000170279
0.00016675
0.000163168
0.000159525
0.000155815
0.00015203
0.000148159
0.000144192
0.000140117
0.000135917
0.000131574
0.000127068
0.000122369
0.000117447
0.000112257
0.000106745
0.000100838
9.44355e-05
8.73941e-05
7.94951e-05
7.03819e-05
5.94031e-05
4.5171e-05
2.43401e-05
1.08807e-06
9.39063e-06
6.81394e-05
0.000112613
0.000143784
0.000168137
0.000188469
0.000206098
0.000221961
0.000236569
0.000250236
0.000263152
0.000275472
0.000287307
0.000298723
0.000309768
0.000320483
0.000330894
0.000341026
0.000350896
0.000360515
0.000369894
0.00037904
0.000387957
0.000396649
0.000405117
0.000413361
0.000421381
0.000429175
0.000436741
0.000444076
0.000451175
0.000458033
0.000464643
0.000470997
0.000477082
0.000482882
0.000488373
0.00049352
0.00049827
0.00050253
0.0005061
0.000508382
0.000507289
0.000495415
0.000495553
0.000509698
0.00051446
0.000514401
0.000512357
0.000510049
0.00050871
0.000508093
0.000505658
0.000492869
0.000488395
0.000484296
0.000476403
0.000472373
0.000470472
0.000469076
0.000435124
0.000315197
0.000467736
0.000508816
0.000514106
0.000511309
0.000505981
0.000498797
0.000488608
0.000474162
0.000470205
0.000479139
0.000499398
0.000511418
0.000515076
0.000514884
0.000513924
0.000513536
0.000513745
0.000513917
0.000513402
0.000511972
0.000509751
0.000506965
0.000503807
0.000500406
0.000496835
0.000493139
0.000489344
0.000485465
0.000481516
0.000477505
0.000473442
0.000469331
0.000465181
0.000460996
0.000456781
0.000452543
0.000448284
0.00044401
0.000439725
0.000435432
0.000431135
0.000426838
0.000422544
0.000418255
0.000413976
0.000409708
0.000405453
0.000401216
0.000396996
0.000392797
0.000388621
0.000384468
0.000380341
0.000376241
0.000372169
0.000368126
0.000364113
0.000360131
0.00035618
0.000352261
0.000348374
0.00034452
0.000340699
0.00033691
0.000333154
0.000329431
0.000325739
0.000322079
0.000318451
0.000314853
0.000311286
0.000307748
0.000304238
0.000300757
0.000297302
0.000293873
0.00029047
0.00028709
0.000283733
0.000280398
0.000277084
0.000273789
0.000270513
0.000267254
0.00026401
0.000260781
0.000257565
0.000254362
0.000251169
0.000247985
0.00024481
0.000241641
0.000238478
0.000235318
0.000232161
0.000229004
0.000225847
0.000222688
0.000219526
0.000216358
0.000213183
0.000209999
0.000206805
0.000203597
0.000200375
0.000197137
0.000193878
0.000190598
0.000187293
0.00018396
0.000180596
0.000177198
0.00017376
0.00017028
0.000166751
0.000163168
0.000159526
0.000155816
0.00015203
0.00014816
0.000144193
0.000140117
0.000135917
0.000131575
0.000127068
0.00012237
0.000117447
0.000112257
0.000106745
0.000100838
9.44358e-05
8.73943e-05
7.94953e-05
7.03821e-05
5.94033e-05
4.5171e-05
2.43401e-05
1.08808e-06
1.6583e-05
0.000109345
0.000196026
0.000261305
0.00031222
0.000353588
0.000388478
0.000418835
0.000445886
0.00047045
0.000493085
0.000514182
0.000534021
0.000552802
0.000570671
0.000587741
0.0006041
0.000619818
0.000634948
0.000649535
0.000663616
0.000677217
0.000690364
0.000703074
0.000715364
0.000727247
0.000738732
0.000749827
0.000760541
0.000770876
0.000780836
0.000790422
0.000799633
0.000808464
0.000816909
0.000824949
0.000832559
0.00083969
0.000846245
0.000851995
0.00085622
0.000856171
0.000840617
0.000767861
0.00076093
0.000830456
0.000856579
0.000861535
0.00085985
0.000856697
0.000854961
0.00085354
0.000840008
0.000771121
0.00075118
0.000748257
0.000756918
0.000814757
0.000835468
0.000837719
0.000790113
0.000838677
0.000859495
0.000862352
0.000859141
0.000852818
0.000846829
0.000844614
0.000846219
0.000845854
0.000842022
0.000845902
0.000859109
0.000868076
0.000869762
0.000868015
0.000866809
0.000867858
0.000870423
0.000872763
0.000873637
0.000872775
0.0008705
0.000867261
0.000863412
0.000859177
0.000854682
0.000849995
0.000845156
0.000840187
0.000835106
0.000829925
0.000824654
0.000819302
0.000813875
0.000808382
0.000802828
0.000797221
0.000791565
0.000785866
0.000780129
0.00077436
0.000768562
0.000762741
0.0007569
0.000751044
0.000745176
0.000739301
0.000733421
0.000727539
0.000721659
0.000715784
0.000709916
0.000704058
0.000698211
0.000692379
0.000686562
0.000680763
0.000674983
0.000669224
0.000663486
0.00065777
0.000652078
0.00064641
0.000640767
0.000635148
0.000629555
0.000623986
0.000618443
0.000612924
0.00060743
0.00060196
0.000596513
0.000591088
0.000585685
0.000580303
0.000574941
0.000569597
0.000564271
0.000558961
0.000553665
0.000548383
0.000543112
0.000537851
0.000532598
0.000527353
0.000522112
0.000516874
0.000511636
0.000506398
0.000501157
0.000495911
0.000490657
0.000485393
0.000480118
0.000474827
0.00046952
0.000464193
0.000458843
0.000453468
0.000448064
0.000442628
0.000437156
0.000431646
0.000426092
0.000420491
0.000414838
0.000409128
0.000403355
0.000397514
0.000391598
0.0003856
0.000379512
0.000373325
0.00036703
0.000360614
0.000354066
0.000347372
0.000340515
0.000333476
0.000326235
0.000318767
0.000311041
0.000303025
0.000294677
0.000285947
0.000276777
0.000267091
0.000256799
0.000245782
0.000233888
0.000220913
0.000206577
0.000190482
0.000172037
0.00015031
0.000123749
8.96326e-05
4.3969e-05
2.2322e-06
1.65822e-05
0.000109346
0.00019603
0.000261309
0.000312224
0.000353593
0.000388482
0.000418839
0.00044589
0.000470454
0.000493089
0.000514186
0.000534025
0.000552806
0.000570675
0.000587745
0.000604104
0.000619822
0.000634952
0.00064954
0.00066362
0.000677221
0.000690368
0.000703078
0.000715368
0.000727251
0.000738736
0.000749832
0.000760545
0.00077088
0.00078084
0.000790426
0.000799636
0.000808467
0.00081691
0.000824946
0.000832547
0.000839663
0.000846217
0.000852087
0.000857075
0.000860776
0.000861997
0.000856428
0.000855701
0.000862688
0.00086504
0.000862962
0.000858224
0.000853394
0.000850689
0.000850575
0.000851107
0.000846635
0.0008447
0.000840684
0.000829719
0.000822589
0.00082327
0.000834342
0.000834182
0.000790489
0.000842855
0.00086145
0.000863164
0.000859503
0.00085331
0.00084615
0.000834719
0.000823237
0.000821188
0.000834149
0.000853911
0.000865886
0.000868867
0.000867777
0.000866975
0.000868228
0.000870787
0.000873008
0.000873762
0.000872827
0.000870518
0.000867267
0.000863415
0.00085918
0.000854685
0.000849998
0.000845159
0.00084019
0.000835109
0.000829928
0.000824657
0.000819304
0.000813878
0.000808385
0.000802831
0.000797223
0.000791567
0.000785868
0.000780132
0.000774362
0.000768565
0.000762743
0.000756902
0.000751046
0.000745179
0.000739303
0.000733423
0.000727541
0.000721661
0.000715786
0.000709918
0.00070406
0.000698213
0.00069238
0.000686564
0.000680765
0.000674985
0.000669225
0.000663487
0.000657772
0.00065208
0.000646412
0.000640768
0.00063515
0.000629556
0.000623988
0.000618444
0.000612925
0.000607431
0.000601961
0.000596514
0.000591089
0.000585686
0.000580304
0.000574942
0.000569598
0.000564272
0.000558961
0.000553666
0.000548383
0.000543112
0.000537852
0.000532599
0.000527353
0.000522112
0.000516874
0.000511637
0.000506399
0.000501158
0.000495911
0.000490657
0.000485394
0.000480118
0.000474828
0.000469521
0.000464193
0.000458844
0.000453468
0.000448064
0.000442628
0.000437157
0.000431646
0.000426092
0.000420491
0.000414838
0.000409128
0.000403355
0.000397514
0.000391598
0.0003856
0.000379512
0.000373325
0.00036703
0.000360614
0.000354066
0.000347372
0.000340515
0.000333476
0.000326235
0.000318767
0.000311041
0.000303025
0.000294677
0.000285947
0.000276777
0.000267091
0.000256799
0.000245782
0.000233888
0.000220913
0.000206577
0.000190482
0.000172037
0.00015031
0.000123749
8.96326e-05
4.39689e-05
2.2322e-06
2.33611e-05
0.000139105
0.000258246
0.000354842
0.000432939
0.000497378
0.000551908
0.000599133
0.000640852
0.000678321
0.000712441
0.000743859
0.000773056
0.000800387
0.000826121
0.000850465
0.000873583
0.000895604
0.000916634
0.000936756
0.00095604
0.000974545
0.000992318
0.0010094
0.00102582
0.00104162
0.00105681
0.00107142
0.00108547
0.00109896
0.00111192
0.00112435
0.00113625
0.00114763
0.00115848
0.00116879
0.00117852
0.00118761
0.00119597
0.00120344
0.00120972
0.001214
0.0012135
0.00119689
0.00119284
0.00120926
0.00121721
0.00121837
0.00121664
0.00121453
0.00121442
0.00121673
0.00121751
0.00120397
0.0011985
0.00119766
0.0011987
0.00121107
0.0012187
0.00122353
0.00121461
0.00122367
0.00122784
0.00122731
0.00122477
0.00122081
0.00121733
0.00121688
0.00121931
0.00122067
0.00121995
0.00122282
0.00122946
0.00123312
0.00123214
0.00122946
0.00122844
0.00123027
0.00123374
0.00123677
0.00123799
0.00123714
0.0012346
0.00123087
0.00122639
0.0012214
0.00121608
0.00121051
0.00120473
0.00119878
0.00119267
0.00118643
0.00118005
0.00117356
0.00116697
0.00116027
0.00115349
0.00114662
0.00113967
0.00113265
0.00112556
0.00111842
0.00111122
0.00110397
0.00109668
0.00108935
0.00108199
0.0010746
0.00106718
0.00105974
0.00105228
0.00104481
0.00103732
0.00102983
0.00102233
0.00101483
0.00100734
0.000999839
0.000992346
0.000984859
0.00097738
0.00096991
0.000962451
0.000955002
0.000947566
0.000940142
0.000932731
0.000925334
0.00091795
0.000910579
0.000903221
0.000895876
0.000888542
0.000881219
0.000873907
0.000866603
0.000859308
0.000852019
0.000844735
0.000837454
0.000830175
0.000822897
0.000815616
0.000808331
0.00080104
0.000793741
0.00078643
0.000779107
0.000771767
0.000764409
0.000757029
0.000749624
0.000742192
0.000734729
0.000727232
0.000719696
0.000712119
0.000704496
0.000696822
0.000689094
0.000681306
0.000673454
0.000665531
0.000657532
0.00064945
0.000641278
0.000633009
0.000624634
0.000616144
0.000607529
0.000598779
0.00058988
0.000580819
0.000571581
0.000562149
0.000552503
0.000542622
0.000532481
0.000522051
0.000511299
0.000500189
0.000488676
0.000476708
0.000464226
0.000451158
0.000437416
0.000422896
0.000407469
0.000390976
0.000373214
0.000353923
0.000332763
0.000309278
0.000282837
0.000252546
0.000217097
0.000174531
0.000122015
5.72741e-05
3.35901e-06
2.33615e-05
0.000139108
0.00025825
0.000354847
0.000432944
0.000497384
0.000551914
0.000599139
0.000640858
0.000678327
0.000712447
0.000743865
0.000773062
0.000800393
0.000826127
0.000850471
0.000873589
0.00089561
0.000916639
0.000936761
0.000956046
0.00097455
0.000992323
0.0010094
0.00102583
0.00104162
0.00105682
0.00107143
0.00108547
0.00109897
0.00111192
0.00112435
0.00113626
0.00114764
0.00115849
0.00116879
0.0011785
0.00118756
0.00119585
0.00120324
0.0012095
0.00121439
0.00121751
0.00121744
0.00121797
0.00122067
0.00122147
0.00121951
0.00121553
0.00121153
0.00120954
0.0012102
0.00121251
0.00121393
0.00121602
0.00121639
0.00121203
0.00120797
0.00120896
0.00121677
0.0012223
0.00121471
0.00122514
0.00122931
0.0012288
0.00122645
0.00122316
0.00121961
0.00121405
0.00120837
0.00120757
0.00121492
0.00122548
0.00123138
0.00123155
0.00122953
0.00122887
0.00123082
0.00123419
0.00123704
0.00123812
0.00123719
0.00123461
0.00123087
0.00122639
0.00122141
0.00121609
0.00121051
0.00120473
0.00119878
0.00119267
0.00118643
0.00118006
0.00117357
0.00116697
0.00116028
0.00115349
0.00114662
0.00113967
0.00113265
0.00112556
0.00111842
0.00111122
0.00110397
0.00109668
0.00108935
0.00108199
0.0010746
0.00106718
0.00105974
0.00105228
0.00104481
0.00103732
0.00102983
0.00102234
0.00101484
0.00100734
0.00099984
0.000992347
0.00098486
0.000977381
0.000969911
0.000962451
0.000955003
0.000947566
0.000940143
0.000932732
0.000925335
0.00091795
0.00091058
0.000903221
0.000895876
0.000888542
0.000881219
0.000873907
0.000866603
0.000859308
0.000852019
0.000844735
0.000837454
0.000830175
0.000822897
0.000815616
0.000808331
0.00080104
0.000793741
0.00078643
0.000779106
0.000771767
0.000764409
0.000757029
0.000749624
0.000742192
0.000734729
0.000727231
0.000719696
0.000712119
0.000704495
0.000696822
0.000689094
0.000681306
0.000673453
0.00066553
0.000657531
0.000649449
0.000641277
0.000633008
0.000624633
0.000616144
0.000607529
0.000598778
0.00058988
0.000580819
0.000571581
0.000562149
0.000552503
0.000542622
0.00053248
0.00052205
0.000511299
0.000500188
0.000488675
0.000476708
0.000464226
0.000451157
0.000437415
0.000422895
0.000407469
0.000390975
0.000373213
0.000353923
0.000332763
0.000309278
0.000282837
0.000252546
0.000217097
0.000174531
0.000122015
5.7274e-05
3.35902e-06
2.98591e-05
0.000163295
0.000307706
0.000430841
0.000533663
0.000620302
0.000694464
0.000758999
0.000816031
0.000867128
0.000913457
0.000955891
0.000995093
0.00103157
0.0010657
0.0010978
0.00112811
0.00115683
0.0011841
0.00121007
0.00123484
0.00125849
0.00128111
0.00130275
0.00132348
0.00134334
0.00136237
0.0013806
0.00139807
0.0014148
0.00143081
0.00144613
0.00146076
0.00147471
0.00148797
0.00150054
0.00151237
0.0015234
0.00153356
0.00154269
0.00155063
0.00155709
0.00156145
0.00156132
0.00156225
0.00156697
0.00157019
0.00157153
0.00157181
0.00157202
0.00157344
0.0015765
0.0015799
0.00158027
0.00158141
0.00158317
0.00158456
0.00158755
0.00159035
0.00159305
0.00159226
0.00159338
0.00159338
0.00159244
0.00159111
0.00158932
0.00158774
0.00158763
0.00158906
0.00159019
0.00159029
0.00159123
0.0015931
0.00159328
0.00159114
0.00158843
0.00158721
0.00158817
0.00159029
0.00159196
0.00159208
0.00159039
0.00158715
0.00158278
0.00157762
0.00157193
0.00156584
0.00155946
0.00155282
0.00154597
0.00153892
0.0015317
0.00152432
0.00151678
0.00150911
0.00150131
0.00149339
0.00148535
0.00147721
0.00146897
0.00146064
0.00145222
0.00144373
0.00143516
0.00142652
0.00141782
0.00140906
0.00140026
0.0013914
0.0013825
0.00137357
0.0013646
0.0013556
0.00134657
0.00133753
0.00132846
0.00131937
0.00131027
0.00130116
0.00129203
0.0012829
0.00127377
0.00126462
0.00125548
0.00124633
0.00123718
0.00122803
0.00121888
0.00120972
0.00120057
0.00119141
0.00118226
0.0011731
0.00116394
0.00115477
0.0011456
0.00113642
0.00112724
0.00111804
0.00110883
0.00109961
0.00109037
0.00108112
0.00107184
0.00106254
0.00105321
0.00104385
0.00103446
0.00102503
0.00101557
0.00100606
0.000996504
0.000986897
0.000977234
0.000967512
0.000957724
0.000947867
0.000937933
0.000927919
0.000917816
0.000907619
0.00089732
0.000886912
0.000876386
0.000865732
0.000854941
0.000844002
0.000832903
0.000821631
0.00081017
0.000798506
0.000786619
0.000774491
0.000762098
0.000749416
0.000736417
0.000723067
0.000709332
0.000695168
0.000680529
0.000665359
0.000649594
0.000633159
0.000615966
0.000597912
0.00057887
0.000558693
0.000537196
0.000514155
0.00048929
0.000462246
0.000432569
0.000399663
0.000362737
0.00032072
0.000272147
0.000215033
0.000146974
6.75737e-05
4.45359e-06
2.98596e-05
0.000163298
0.00030771
0.000430846
0.000533669
0.000620309
0.000694471
0.000759007
0.000816038
0.000867135
0.000913464
0.000955899
0.0009951
0.00103157
0.00106571
0.00109781
0.00112812
0.00115683
0.00118411
0.00121008
0.00123484
0.0012585
0.00128112
0.00130276
0.00132349
0.00134335
0.00136237
0.00138061
0.00139808
0.00141481
0.00143082
0.00144614
0.00146076
0.00147471
0.00148797
0.00150053
0.00151235
0.00152335
0.00153343
0.00154243
0.00155018
0.00155652
0.00156137
0.00156454
0.00156717
0.00156998
0.00157185
0.00157223
0.00157131
0.00157021
0.00157018
0.0015718
0.00157467
0.00157787
0.00158145
0.0015843
0.00158483
0.00158444
0.00158559
0.00158936
0.00159279
0.00159243
0.001594
0.00159424
0.0015935
0.00159238
0.00159104
0.00158969
0.00158767
0.0015854
0.00158481
0.0015873
0.00159092
0.0015923
0.00159086
0.00158855
0.00158755
0.00158855
0.00159058
0.00159212
0.00159214
0.0015904
0.00158715
0.00158277
0.00157762
0.00157193
0.00156585
0.00155946
0.00155282
0.00154597
0.00153892
0.0015317
0.00152432
0.00151679
0.00150911
0.00150131
0.00149339
0.00148536
0.00147721
0.00146897
0.00146064
0.00145222
0.00144373
0.00143516
0.00142652
0.00141782
0.00140907
0.00140026
0.0013914
0.00138251
0.00137357
0.0013646
0.0013556
0.00134658
0.00133753
0.00132846
0.00131937
0.00131027
0.00130116
0.00129203
0.0012829
0.00127377
0.00126462
0.00125548
0.00124633
0.00123718
0.00122803
0.00121888
0.00120972
0.00120057
0.00119141
0.00118226
0.0011731
0.00116394
0.00115477
0.0011456
0.00113642
0.00112724
0.00111804
0.00110883
0.00109961
0.00109037
0.00108111
0.00107184
0.00106254
0.00105321
0.00104385
0.00103446
0.00102503
0.00101557
0.00100606
0.000996503
0.000986896
0.000977234
0.000967511
0.000957724
0.000947866
0.000937933
0.000927918
0.000917816
0.000907619
0.00089732
0.000886911
0.000876385
0.000865732
0.000854941
0.000844002
0.000832903
0.00082163
0.000810169
0.000798505
0.000786619
0.00077449
0.000762098
0.000749416
0.000736416
0.000723066
0.000709331
0.000695167
0.000680528
0.000665358
0.000649593
0.000633158
0.000615966
0.000597911
0.00057887
0.000558692
0.000537195
0.000514154
0.000489289
0.000462246
0.000432568
0.000399662
0.000362737
0.00032072
0.000272147
0.000215033
0.000146974
6.75735e-05
4.4536e-06
3.62005e-05
0.000184093
0.000348935
0.000494576
0.000619363
0.000726439
0.000819194
0.000900492
0.000972602
0.00103728
0.00109589
0.00114948
0.00119885
0.00124464
0.00128736
0.00132739
0.00136506
0.00140062
0.00143428
0.00146622
0.00149658
0.00152549
0.00155304
0.00157933
0.00160443
0.00162841
0.00165132
0.00167321
0.00169413
0.00171412
0.0017332
0.00175141
0.00176875
0.00178526
0.00180092
0.00181572
0.00182965
0.00184264
0.00185463
0.00186552
0.00187519
0.00188353
0.00189043
0.0018955
0.00189984
0.0019043
0.00190817
0.00191133
0.00191397
0.00191645
0.0019193
0.0019228
0.00192652
0.00192957
0.00193247
0.00193525
0.00193759
0.00193976
0.00194174
0.00194356
0.00194428
0.00194461
0.00194436
0.0019438
0.00194312
0.00194224
0.00194131
0.00194085
0.00194098
0.0019411
0.00194082
0.0019406
0.00194038
0.00193927
0.00193704
0.00193455
0.00193284
0.00193227
0.00193223
0.00193176
0.00193015
0.00192719
0.00192301
0.00191787
0.00191201
0.00190562
0.0018988
0.00189165
0.00188422
0.00187653
0.00186861
0.00186048
0.00185216
0.00184366
0.00183499
0.00182617
0.00181719
0.00180807
0.00179882
0.00178945
0.00177996
0.00177036
0.00176066
0.00175086
0.00174097
0.001731
0.00172094
0.00171082
0.00170063
0.00169037
0.00168006
0.00166969
0.00165928
0.00164882
0.00163832
0.00162778
0.00161721
0.00160661
0.00159597
0.00158531
0.00157463
0.00156393
0.0015532
0.00154246
0.0015317
0.00152092
0.00151012
0.00149931
0.00148848
0.00147764
0.00146678
0.00145591
0.00144501
0.0014341
0.00142317
0.00141222
0.00140124
0.00139024
0.00137922
0.00136816
0.00135707
0.00134595
0.0013348
0.0013236
0.00131236
0.00130107
0.00128974
0.00127835
0.0012669
0.00125539
0.00124382
0.00123217
0.00122044
0.00120864
0.00119674
0.00118475
0.00117266
0.00116047
0.00114816
0.00113572
0.00112315
0.00111044
0.00109758
0.00108456
0.00107136
0.00105798
0.00104439
0.00103058
0.00101654
0.00100224
0.000987671
0.000972797
0.000957597
0.000942041
0.000926095
0.000909722
0.000892879
0.000875518
0.000857584
0.000839013
0.000819733
0.000799659
0.000778694
0.000756723
0.000733611
0.000709197
0.00068329
0.000655659
0.000626022
0.000594033
0.000559262
0.000521167
0.00047906
0.000432053
0.000379
0.000318421
0.000248487
0.000167359
7.61943e-05
5.52291e-06
3.62009e-05
0.000184096
0.000348939
0.000494581
0.000619369
0.000726447
0.000819203
0.000900501
0.000972611
0.00103729
0.0010959
0.00114949
0.00119886
0.00124465
0.00128737
0.0013274
0.00136507
0.00140063
0.00143429
0.00146623
0.00149659
0.0015255
0.00155305
0.00157934
0.00160444
0.00162841
0.00165132
0.00167322
0.00169414
0.00171412
0.00173321
0.00175141
0.00176876
0.00178526
0.00180092
0.00181573
0.00182964
0.00184261
0.00185455
0.00186533
0.00187482
0.00188297
0.00188979
0.0018954
0.00190028
0.00190477
0.00190863
0.00191163
0.00191378
0.00191558
0.00191766
0.00192039
0.00192369
0.00192725
0.00193098
0.00193442
0.00193684
0.00193843
0.00194004
0.00194219
0.00194409
0.00194473
0.00194501
0.00194474
0.00194418
0.00194351
0.00194273
0.00194191
0.00194086
0.00193966
0.00193891
0.00193906
0.00193946
0.00193883
0.00193691
0.0019346
0.00193298
0.00193242
0.00193233
0.0019318
0.00193015
0.00192718
0.001923
0.00191786
0.00191201
0.00190562
0.00189881
0.00189166
0.00188422
0.00187653
0.00186861
0.00186049
0.00185217
0.00184366
0.001835
0.00182617
0.00181719
0.00180808
0.00179883
0.00178945
0.00177996
0.00177036
0.00176066
0.00175086
0.00174097
0.001731
0.00172095
0.00171082
0.00170063
0.00169037
0.00168006
0.0016697
0.00165928
0.00164882
0.00163832
0.00162778
0.00161721
0.00160661
0.00159597
0.00158532
0.00157463
0.00156393
0.0015532
0.00154246
0.0015317
0.00152092
0.00151012
0.00149931
0.00148848
0.00147764
0.00146678
0.00145591
0.00144501
0.0014341
0.00142317
0.00141222
0.00140124
0.00139024
0.00137922
0.00136816
0.00135707
0.00134595
0.0013348
0.0013236
0.00131236
0.00130107
0.00128974
0.00127835
0.0012669
0.00125539
0.00124382
0.00123217
0.00122044
0.00120864
0.00119674
0.00118475
0.00117266
0.00116047
0.00114816
0.00113572
0.00112315
0.00111044
0.00109758
0.00108456
0.00107136
0.00105798
0.00104439
0.00103058
0.00101654
0.00100224
0.00098767
0.000972797
0.000957597
0.000942041
0.000926095
0.000909722
0.000892879
0.000875518
0.000857583
0.000839012
0.000819732
0.000799658
0.000778693
0.000756722
0.00073361
0.000709196
0.000683289
0.000655658
0.000626022
0.000594033
0.000559262
0.000521167
0.00047906
0.000432053
0.000379
0.000318422
0.000248488
0.00016736
7.61941e-05
5.52293e-06
4.24142e-05
0.000202592
0.000384639
0.00054961
0.000693814
0.000819409
0.000929373
0.00102646
0.00111298
0.00119078
0.00126136
0.0013259
0.00138531
0.00144034
0.00149158
0.00153951
0.00158452
0.00162691
0.00166696
0.00170487
0.00174083
0.00177498
0.00180747
0.0018384
0.00186787
0.00189596
0.00192274
0.00194829
0.00197265
0.00199587
0.00201801
0.00203908
0.00205912
0.00207816
0.00209619
0.00211322
0.00212924
0.0021442
0.00215807
0.00217077
0.00218226
0.00219249
0.00220148
0.00220924
0.00221608
0.00222231
0.00222794
0.00223304
0.00223766
0.00224195
0.00224613
0.00225032
0.00225443
0.00225822
0.00226173
0.00226497
0.00226783
0.0022703
0.00227242
0.00227419
0.00227535
0.00227595
0.00227604
0.0022758
0.00227535
0.00227467
0.00227381
0.00227296
0.00227222
0.00227147
0.00227057
0.00226958
0.00226842
0.00226676
0.0022645
0.00226196
0.0022596
0.00225758
0.00225561
0.00225318
0.00224993
0.0022457
0.00224055
0.00223461
0.00222804
0.00222094
0.00221342
0.00220554
0.00219734
0.00218886
0.00218012
0.00217114
0.00216194
0.00215253
0.00214292
0.00213313
0.00212316
0.00211303
0.00210275
0.00209231
0.00208173
0.00207103
0.00206019
0.00204924
0.00203818
0.00202701
0.00201575
0.00200439
0.00199295
0.00198142
0.00196982
0.00195815
0.00194641
0.00193461
0.00192275
0.00191083
0.00189887
0.00188686
0.0018748
0.0018627
0.00185056
0.00183839
0.00182618
0.00181393
0.00180165
0.00178934
0.001777
0.00176463
0.00175223
0.00173979
0.00172733
0.00171483
0.0017023
0.00168974
0.00167714
0.00166451
0.00165183
0.00163911
0.00162635
0.00161355
0.00160069
0.00158778
0.00157482