/*--------------------------------*- C++ -*----------------------------------*\
  =========                 |
  \\      /  F ield         | OpenFOAM: The Open Source CFD Toolbox
   \\    /   O peration     | Website:  https://openfoam.org
    \\  /    A nd           | Version:  8
     \\/     M anipulation  |
\*---------------------------------------------------------------------------*/
FoamFile
{
    version     2.0;
    format      ascii;
    class       volScalarField;
    location    "4800";
    object      epsilon;
}
// * * * * * * * * * * * * * * * * * * * * * * * * * * * * * * * * * * * * * //

dimensions      [0 2 -3 0 0 0 0];

internalField   nonuniform List<scalar> 
46000
(
52.1531
165.903
285.859
395.787
499.128
598.777
695.91
790.936
884.395
976.694
1068.17
1158.93
1248.59
1337.48
1425.7
1513.26
1600.16
1686.36
1771.8
1856.45
1940.21
2023.02
2104.8
2185.44
2264.86
2342.96
2419.64
2494.78
2568.28
2640.01
2709.85
2777.66
2843.27
2906.51
2967.15
3024.91
3079.44
3130.26
3176.76
3218.12
3253.39
3281.57
3301.81
13979.7
13992.1
3305.53
3281.94
3250.13
3223.78
3194.46
3167.45
3202.59
3275.04
14018.8
14146.9
14174.4
14009.8
3224.43
3012.96
3266.26
14058.9
3296.01
3222.48
3179.58
3166.15
3136.43
3020.59
2993.56
3072.68
3176.58
3150.23
2970.39
3235.33
3278.34
3246.93
3197.66
3179.98
3201.73
3238.86
3258.72
3256.66
3238.76
3211.34
3178.52
3142.56
3104.65
3065.39
3025.13
2984.11
2942.48
2900.37
2857.87
2815.07
2772.05
2728.89
2685.63
2642.35
2599.1
2555.93
2512.88
2470
2427.32
2384.9
2342.75
2300.91
2259.42
2218.29
2177.56
2137.25
2097.37
2057.95
2019.01
1980.54
1942.58
1905.13
1868.19
1831.78
1795.9
1760.55
1725.74
1691.46
1657.73
1624.53
1591.86
1559.72
1528.11
1497.02
1466.44
1436.36
1406.79
1377.7
1349.1
1320.96
1293.29
1266.07
1239.29
1212.94
1187.01
1161.49
1136.36
1111.62
1087.25
1063.25
1039.6
1016.29
993.31
970.652
948.302
926.252
904.492
883.011
861.801
840.852
820.155
799.702
779.485
759.496
739.726
720.17
700.818
681.666
662.705
643.93
625.334
606.911
588.656
570.562
552.624
534.835
517.191
499.686
482.313
465.067
447.942
430.93
414.027
397.223
380.512
363.886
347.335
330.85
314.421
298.035
281.68
265.341
249
232.64
216.239
199.769
183.202
166.501
149.62
132.505
115.084
97.2635
78.9131
59.8573
39.9782
19.6227
4.37225
52.1117
165.842
285.808
395.764
499.122
598.778
695.911
790.938
884.397
976.695
1068.17
1158.93
1248.59
1337.48
1425.7
1513.26
1600.16
1686.35
1771.8
1856.45
1940.21
2023.02
2104.79
2185.44
2264.86
2342.96
2419.64
2494.78
2568.28
2640.01
2709.85
2777.66
2843.27
2906.5
2967.13
3024.86
3079.29
3129.88
3175.82
3216.03
3249.14
3273.83
3289.57
3297.69
3301.38
3302.55
3296.24
3271.25
3216.28
3136.74
3091.75
3091.6
3116.52
3146.47
3180.59
3208.31
3163.38
2854.41
2784.36
2955.35
3272.24
14054.1
3306.84
3259.85
3203.03
3184
3159.16
3079.91
3066.82
2797.87
2754.34
2887.32
3216.72
3273.08
3245.29
3197
3179.65
3201.6
3238.84
3258.71
3256.62
3238.72
3211.31
3178.5
3142.55
3104.64
3065.38
3025.13
2984.11
2942.48
2900.36
2857.86
2815.07
2772.05
2728.88
2685.63
2642.35
2599.1
2555.92
2512.88
2469.99
2427.32
2384.89
2342.74
2300.91
2259.41
2218.29
2177.56
2137.24
2097.37
2057.95
2019
1980.54
1942.58
1905.12
1868.19
1831.77
1795.89
1760.55
1725.73
1691.46
1657.72
1624.52
1591.86
1559.72
1528.11
1497.01
1466.43
1436.36
1406.79
1377.7
1349.09
1320.96
1293.29
1266.07
1239.29
1212.94
1187.01
1161.48
1136.36
1111.62
1087.25
1063.25
1039.6
1016.29
993.308
970.649
948.3
926.25
904.49
883.009
861.799
840.85
820.153
799.701
779.484
759.494
739.725
720.168
700.817
681.664
662.704
643.928
625.333
606.91
588.654
570.561
552.622
534.834
517.19
499.685
482.312
465.066
447.941
430.93
414.026
397.222
380.511
363.885
347.334
330.849
314.42
298.034
281.679
265.34
249
232.64
216.238
199.769
183.202
166.5
149.62
132.505
115.084
97.2635
78.9131
59.8573
39.9783
19.6227
4.37224
180.766
152.219
188.368
232.958
279.97
328.206
377.288
426.899
476.962
527.455
578.235
629.311
680.597
732.098
783.8
835.672
887.67
939.741
991.826
1043.86
1095.78
1147.49
1198.94
1250.03
1300.68
1350.79
1400.29
1449.07
1497.03
1544.07
1590.08
1634.94
1678.52
1720.68
1761.25
1800.03
1836.81
1871.34
1903.5
1934.04
1968.19
2034.18
2276.48
3427.78
3403.47
2260.92
2073.23
2044.55
2044.99
2052.74
2069.57
2130.7
2384.32
3579.36
3787.01
3784.63
3560.38
2412.58
2275.77
2415.9
3341.28
2357.42
2133.3
2090.09
2084.26
2086.51
2085.43
2085.95
2093.79
2104.61
2115.37
2119.73
2079.17
2040.73
2010.41
1986.36
1972.46
1967.95
1965.71
1958.12
1943.98
1924.9
1902.61
1878.27
1852.54
1825.85
1798.45
1770.52
1742.17
1713.52
1684.65
1655.61
1626.48
1597.31
1568.15
1539.03
1510.01
1481.11
1452.37
1423.83
1395.5
1367.42
1339.61
1312.09
1284.89
1258.01
1231.48
1205.3
1179.5
1154.08
1129.05
1104.43
1080.2
1056.39
1033
1010.02
987.457
965.315
943.592
922.285
901.393
880.912
860.838
841.167
821.893
803.011
784.513
766.394
748.646
731.262
714.234
697.554
681.213
665.204
649.518
634.145
619.079
604.309
589.828
575.626
561.695
548.028
534.615
521.448
508.52
495.823
483.349
471.091
459.041
447.193
435.54
424.075
412.793
401.687
390.752
379.981
369.371
358.915
348.609
338.448
328.429
318.546
308.797
299.176
289.681
280.307
271.053
261.913
252.886
243.968
235.157
226.448
217.841
209.331
200.915
192.592
184.358
176.21
168.144
160.159
152.249
144.413
136.645
128.942
121.3
113.713
106.176
98.6834
91.2285
83.8037
76.4006
69.0093
61.6192
54.2185
46.7962
39.3482
31.9024
24.6178
18.2793
21.3218
180.834
152.219
188.359
232.951
279.965
328.202
377.284
426.894
476.957
527.449
578.229
629.305
680.59
732.09
783.792
835.664
887.661
939.732
991.817
1043.85
1095.76
1147.48
1198.93
1250.02
1300.66
1350.78
1400.28
1449.05
1497.01
1544.06
1590.06
1634.93
1678.51
1720.66
1761.23
1799.99
1836.71
1871.07
1902.68
1931.11
1956.09
1978.51
2004.74
2066.78
2084.37
2048.07
2041.98
2044.81
2045.93
2043.78
2044.97
2054.05
2075.4
2139.14
2172.66
2201.66
2234.21
2235.46
2240.25
2265.38
2449
3326.86
2306.19
2127.33
2091.74
2088.42
2093.43
2101.3
2123.37
2157.51
2163.8
2140.55
2085.11
2042.85
2011.48
1986.91
1972.58
1967.73
1965.34
1957.82
1943.79
1924.8
1902.56
1878.24
1852.52
1825.84
1798.44
1770.5
1742.16
1713.51
1684.63
1655.6
1626.47
1597.3
1568.13
1539.02
1509.99
1481.09
1452.36
1423.81
1395.49
1367.41
1339.6
1312.08
1284.87
1258
1231.46
1205.29
1179.49
1154.07
1129.04
1104.42
1080.19
1056.38
1032.99
1010.01
987.447
965.305
943.582
922.276
901.384
880.903
860.83
841.159
821.885
803.003
784.505
766.387
748.639
731.255
714.227
697.547
681.207
665.198
649.511
634.139
619.073
604.303
589.822
575.62
561.69
548.023
534.61
521.443
508.516
495.818
483.344
471.086
459.037
447.189
435.536
424.071
412.789
401.683
390.748
379.978
369.367
358.911
348.606
338.445
328.426
318.543
308.794
299.173
289.678
280.305
271.05
261.911
252.884
243.966
235.155
226.446
217.839
209.329
200.914
192.59
184.356
176.208
168.143
160.157
152.248
144.411
136.644
128.941
121.299
113.712
106.175
98.6826
91.2278
83.8031
76.4
69.0088
61.6188
54.2181
46.7959
39.348
31.9023
24.6177
18.2793
21.3218
314.802
198.133
200.774
222.631
251.023
282.648
316.236
351.152
387.031
423.691
460.984
498.817
537.11
575.808
614.863
654.226
693.848
733.674
773.649
813.714
853.806
893.861
933.811
973.585
1013.11
1052.31
1091.12
1129.43
1167.19
1204.28
1240.64
1276.14
1310.71
1344.21
1376.53
1407.53
1437.07
1465
1491.2
1515.69
1539.18
1565.53
1614.1
1780.84
1818.58
1692.46
1659.3
1663.05
1677.3
1693.78
1707.96
1721.45
1755.82
1912.7
1968.42
1984
1972.15
1846.92
1809.15
1801.36
1902.85
1794.57
1748.95
1737.15
1736.04
1740.48
1744.29
1740.45
1729.39
1721.77
1721.27
1706.04
1668.08
1637.59
1618.09
1603.61
1589.66
1574.1
1556.51
1537.45
1517.7
1497.58
1477.05
1456.02
1434.46
1412.41
1389.93
1367.1
1344
1320.7
1297.26
1273.73
1250.16
1226.59
1203.06
1179.61
1156.26
1133.05
1110
1087.14
1064.48
1042.06
1019.89
997.978
976.349
955.014
933.984
913.27
892.881
872.824
853.107
833.733
814.708
796.034
777.713
759.745
742.133
724.873
707.965
691.407
675.195
659.326
643.796
628.6
613.733
599.19
584.965
571.051
557.442
544.131
531.112
518.377
505.919
493.73
481.805
470.134
458.711
447.528
436.578
425.854
415.348
405.054
394.964
385.072
375.371
365.855
356.517
347.352
338.352
329.514
320.83
312.296
303.906
295.657
287.542
279.558
271.7
263.964
256.347
248.844
241.452
234.168
226.989
219.911
212.933
206.05
199.261
192.563
185.953
179.431
172.992
166.637
160.361
154.164
148.044
141.999
136.027
130.126
124.295
118.532
112.834
107.202
101.632
96.1225
90.6726
85.2802
79.9436
74.6613
69.4322
64.2554
59.1313
54.0618
49.0525
44.1158
39.2786
34.6016
30.2327
26.5973
25.4679
43.0495
314.833
198.135
200.771
222.627
251.019
282.644
316.232
351.147
387.027
423.687
460.979
498.812
537.105
575.802
614.857
654.22
693.841
733.667
773.642
813.706
853.798
893.853
933.802
973.577
1013.1
1052.31
1091.11
1129.42
1167.18
1204.27
1240.63
1276.13
1310.7
1344.2
1376.52
1407.52
1437.05
1464.95
1491.05
1515.23
1537.44
1558.04
1578.92
1608.96
1629.16
1634.04
1645.04
1661.25
1679.86
1697.45
1711.4
1721.61
1730.97
1749.92
1763.59
1780.46
1810.66
1833.03
1834.92
1811.58
1806.49
1899.16
1783.12
1741.34
1730.95
1730.05
1733.62
1738.77
1751.95
1767.37
1762.21
1726.52
1676.1
1640.75
1619.4
1603.97
1589.38
1573.47
1555.87
1537.02
1517.47
1497.48
1477.01
1456
1434.45
1412.4
1389.92
1367.09
1343.99
1320.69
1297.25
1273.72
1250.15
1226.58
1203.05
1179.6
1156.25
1133.04
1109.99
1087.13
1064.48
1042.05
1019.88
997.972
976.343
955.007
933.978
913.264
892.875
872.818
853.101
833.728
814.702
796.028
777.708
759.741
742.128
724.868
707.961
691.402
675.191
659.322
643.792
628.596
613.73
599.187
584.961
571.047
557.438
544.128
531.109
518.374
505.916
493.727
481.802
470.131
458.708
447.525
436.575
425.851
415.346
405.052
394.962
385.07
375.369
365.853
356.515
347.35
338.35
329.512
320.828
312.294
303.905
295.655
287.54
279.556
271.698
263.963
256.345
248.842
241.451
234.167
226.988
219.91
212.931
206.049
199.26
192.562
185.952
179.43
172.992
166.636
160.36
154.164
148.044
141.998
136.026
130.125
124.294
118.531
112.834
107.201
101.631
96.1221
90.6722
85.2798
79.9432
74.661
69.4319
64.2551
59.131
54.0616
49.0523
44.1156
39.2785
34.6016
30.2327
26.5973
25.4681
43.0496
440.553
251.049
229.827
237.529
255.232
277.795
303.232
330.586
359.324
389.129
419.787
451.148
483.101
515.561
548.455
581.72
615.298
649.13
683.159
717.326
751.573
785.838
820.06
854.175
888.117
921.817
955.208
988.216
1020.77
1052.79
1084.19
1114.91
1144.84
1173.9
1201.99
1229.03
1254.92
1279.58
1302.96
1325.07
1346.08
1366.67
1389.78
1429.4
1454.07
1453.45
1461.08
1474.91
1490.79
1506.15
1518.19
1525.89
1533.58
1557.8
1571.45
1578.63
1582.99
1572.38
1565.98
1559.2
1568.46
1554.93
1546.54
1542.35
1539.27
1537.16
1533.98
1525.95
1513.17
1501.01
1491.51
1477.34
1456.41
1438.38
1424.99
1412.78
1398.23
1380.17
1359.76
1338.86
1318.55
1298.93
1279.67
1260.4
1240.94
1221.2
1201.17
1180.9
1160.43
1139.81
1119.09
1098.31
1077.51
1056.73
1036.01
1015.36
994.821
974.418
954.172
934.105
914.237
894.583
875.162
855.986
837.069
818.423
800.056
781.979
764.198
746.72
729.551
712.693
696.15
679.925
664.019
648.431
633.162
618.211
603.576
589.254
575.242
561.537
548.135
535.031
522.22
509.698
497.459
485.497
473.806
462.38
451.212
440.296
429.625
419.194
408.994
399.02
389.265
379.722
370.384
361.245
352.298
343.537
334.957
326.55
318.311
310.234
302.313
294.543
286.919
279.435
272.086
264.869
257.778
250.809
243.957
237.219
230.591
224.07
217.651
211.332
205.11
198.981
192.943
186.994
181.13
175.35
169.651
164.032
158.49
153.024
147.632
142.312
137.063
131.883
126.772
121.727
116.748
111.834
106.983
102.195
97.4692
92.8044
88.2002
83.6563
79.1726
74.7491
70.3867
66.0866
61.8511
57.6843
53.5924
49.5862
45.6835
41.9154
38.3391
35.0677
32.3542
30.8902
33.4941
64.1701
440.557
251.047
229.824
237.525
255.229
277.791
303.228
330.582
359.32
389.125
419.782
451.143
483.096
515.556
548.45
581.715
615.293
649.124
683.153
717.32
751.566
785.832
820.054
854.168
888.11
921.81
955.2
988.208
1020.76
1052.78
1084.19
1114.9
1144.83
1173.89
1201.99
1229.03
1254.92
1279.59
1303
1325.15
1346.12
1366.12
1385.65
1406.67
1425.52
1440.49
1456.14
1473.5
1491.97
1509.44
1523.46
1533.29
1540.07
1546.9
1551.79
1557.64
1568.63
1578.76
1580.06
1569.75
1559.69
1565.91
1549.49
1539.84
1534.62
1530.42
1526.54
1522.26
1519.62
1517.26
1507.77
1487.03
1460.96
1440.27
1425.6
1412.69
1397.74
1379.55
1359.25
1338.55
1318.4
1298.87
1279.64
1260.4
1240.93
1221.19
1201.16
1180.89
1160.42
1139.8
1119.08
1098.3
1077.51
1056.73
1036
1015.35
994.816
974.413
954.168
934.101
914.232
894.579
875.158
855.982
837.065
818.419
800.053
781.976
764.195
746.717
729.547
712.69
696.147
679.922
664.016
648.428
633.16
618.209
603.573
589.251
575.239
561.534
548.132
535.029
522.218
509.696
497.457
485.495
473.804
462.378
451.21
440.294
429.624
419.192
408.993
399.019
389.263
379.72
370.382
361.243
352.297
343.536
334.956
326.549
318.31
310.232
302.312
294.542
286.918
279.434
272.086
264.868
257.777
250.808
243.956
237.218
230.59
224.069
217.65
211.331
205.109
198.98
192.942
186.993
181.129
175.349
169.651
164.032
158.49
153.024
147.631
142.312
137.062
131.883
126.771
121.727
116.748
111.834
106.983
102.195
97.469
92.8041
88.2
83.6561
79.1724
74.749
70.3866
66.0864
61.851
57.6841
53.5923
49.5861
45.6834
41.9153
38.339
35.0677
32.3542
30.8902
33.4944
64.1702
560.703
305.843
264.368
260.991
270.828
287.072
307.073
329.55
353.794
379.373
406.001
433.479
461.66
490.431
519.699
549.387
579.424
609.747
640.292
671.001
701.814
732.671
763.514
794.28
824.909
855.337
885.501
915.334
944.769
973.738
1002.17
1029.99
1057.14
1083.52
1109.08
1133.74
1157.44
1180.13
1201.81
1222.5
1242.3
1261.38
1280.27
1301.14
1319.82
1334.04
1348.11
1362.38
1376.23
1388.93
1399.34
1406.92
1412.72
1419.96
1425.43
1429.26
1432.37
1433.04
1432.46
1430.08
1429.51
1426.31
1422.99
1419.18
1414.46
1409.15
1402.86
1394.29
1383.33
1371.86
1360.84
1348.51
1334.32
1320.85
1308.63
1296.11
1281.52
1264.34
1245.46
1226.17
1207.26
1188.85
1170.73
1152.65
1134.44
1116.04
1097.43
1078.63
1059.68
1040.6
1021.45
1002.26
983.067
963.897
944.783
925.751
906.828
888.035
869.394
850.924
832.643
814.568
796.711
779.087
761.707
744.581
727.719
711.128
694.816
678.787
663.046
647.597
632.443
617.585
603.024
588.761
574.795
561.125
547.749
534.664
521.868
509.357
497.128
485.175
473.495
462.083
450.934
440.041
429.399
419.003
408.847
398.924
389.228
379.754
370.494
361.443
352.594
343.942
335.479
327.2
319.099
311.17
303.407
295.804
288.356
281.058
273.904
266.89
260.009
253.258
246.632
240.127
233.738
227.461
221.292
215.228
209.265
203.4
197.63
191.952
186.362
180.858
175.438
170.1
164.84
159.658
154.55
149.516
144.553
139.661
134.837
130.081
125.39
120.765
116.204
111.706
107.271
102.897
98.5856
94.335
90.1455
86.0172
81.9504
77.946
74.0049
70.129
66.3208
62.5841
58.9242
55.3492
51.8709
48.5075
45.288
42.2603
39.5086
37.1948
35.6715
35.8923
41.6877
84.5543
560.701
305.839
264.364
260.987
270.824
287.068
307.069
329.546
353.79
379.369
405.997
433.475
461.656
490.426
519.695
549.382
579.419
609.741
640.287
670.995
701.808
732.666
763.508
794.274
824.903
855.331
885.495
915.327
944.763
973.732
1002.16
1029.99
1057.13
1083.52
1109.07
1133.74
1157.44
1180.16
1201.88
1222.66
1242.59
1261.78
1280.37
1298.66
1315.89
1331.57
1346.64
1361.67
1376.58
1390.5
1402.23
1411.24
1417.85
1422.94
1426.41
1429.25
1433.05
1436.68
1437.42
1434.05
1429.36
1427.06
1422.19
1417.41
1412.32
1406.42
1399.75
1392.23
1384.47
1376.37
1366.01
1352.08
1336.21
1321.67
1308.86
1296
1281.23
1264.02
1245.21
1226.03
1207.2
1188.83
1170.72
1152.65
1134.44
1116.04
1097.43
1078.63
1059.67
1040.6
1021.45
1002.26
983.063
963.893
944.779
925.748
906.824
888.031
869.39
850.921
832.64
814.564
796.708
779.084
761.704
744.579
727.717
711.126
694.813
678.784
663.044
647.595
632.441
617.583
603.022
588.759
574.793
561.123
547.747
534.662
521.866
509.355
497.126
485.174
473.494
462.082
450.932
440.039
429.398
419.002
408.846
398.923
389.227
379.753
370.493
361.442
352.593
343.941
335.478
327.199
319.098
311.169
303.406
295.803
288.356
281.058
273.904
266.889
260.009
253.258
246.632
240.126
233.737
227.46
221.292
215.228
209.265
203.4
197.63
191.951
186.361
180.858
175.438
170.099
164.84
159.657
154.55
149.516
144.553
139.661
134.837
130.08
125.39
120.765
116.204
111.706
107.271
102.897
98.5855
94.3349
90.1454
86.0171
81.9503
77.9459
74.0048
70.1289
66.3207
62.584
58.9241
55.3491
51.8708
48.5075
45.288
42.2602
39.5086
37.1947
35.6715
35.8924
41.688
84.5545
677.67
361.726
301.66
288.623
291.967
303.239
319.127
338.031
359.068
381.697
405.563
430.418
456.08
482.409
509.293
536.639
564.366
592.401
620.677
649.132
677.704
706.333
734.96
763.525
791.97
820.235
848.258
875.979
903.336
930.266
956.705
982.59
1007.86
1032.44
1056.29
1079.34
1101.55
1122.89
1143.35
1162.96
1181.76
1199.83
1217.26
1234.39
1250.59
1265.38
1279.22
1292.2
1304.2
1315.05
1324.36
1331.92
1338.01
1343.34
1347.57
1350.67
1352.88
1354.03
1354.04
1352.8
1351.11
1348.57
1345.31
1341.09
1335.81
1329.65
1322.63
1314.37
1304.79
1294.41
1283.6
1272.04
1259.68
1247.18
1234.69
1221.62
1207.24
1191.32
1174.31
1156.89
1139.49
1122.24
1105.06
1087.83
1070.47
1052.93
1035.22
1017.36
999.362
981.272
963.12
944.939
926.758
908.608
890.515
872.504
854.599
836.821
819.189
801.722
784.436
767.346
750.466
733.808
717.382
701.199
685.268
669.595
654.186
639.048
624.184
609.597
595.291
581.267
567.525
554.066
540.889
527.994
515.378
503.039
490.974
479.18
467.654
456.391
445.386
434.636
424.136
413.879
403.861
394.077
384.52
375.184
366.065
357.156
348.451
339.944
331.629
323.501
315.553
307.78
300.176
292.735
285.453
278.323
271.34
264.499
257.795
251.224
244.78
238.46
232.258
226.171
220.194
214.324
208.558
202.89
197.319
191.841
186.454
181.153
175.937
170.803
165.749
160.772
155.871
151.043
146.287
141.601
136.984
132.434
127.95
123.531
119.177
114.885
110.656
106.49
102.385
98.3409
94.3588
90.4385
86.5803
82.7852
79.0542
75.3891
71.7922
68.2666
64.8166
61.4481
58.1695
54.9923
51.9336
49.0186
46.2865
43.8006
41.671
40.1055
39.5541
41.2263
49.9326
104.387
677.669
361.721
301.656
288.619
291.963
303.235
319.123
338.027
359.064
381.693
405.559
430.414
456.076
482.405
509.289
536.634
564.361
592.396
620.672
649.127
677.698
706.327
734.954
763.52
791.965
820.229
848.253
875.974
903.33
930.26
956.699
982.584
1007.85
1032.44
1056.28
1079.33
1101.55
1122.9
1143.4
1163.07
1181.98
1200.19
1217.71
1234.52
1250.39
1265.12
1278.9
1291.94
1304.3
1315.66
1325.56
1333.73
1340.23
1345.28
1348.96
1351.56
1353.66
1355.18
1355.42
1353.94
1351.34
1348.47
1344.77
1340.36
1335.05
1328.76
1321.58
1313.55
1304.82
1295.45
1285
1273.14
1260.31
1247.47
1234.78
1221.59
1207.14
1191.22
1174.24
1156.86
1139.48
1122.24
1105.06
1087.83
1070.46
1052.93
1035.22
1017.35
999.359
981.269
963.117
944.935
926.755
908.605
890.512
872.501
854.596
836.818
819.186
801.719
784.433
767.344
750.463
733.805
717.38
701.197
685.266
669.593
654.184
639.046
624.182
609.596
595.289
581.265
567.523
554.065
540.888
527.993
515.377
503.038
490.973
479.179
467.653
456.389
445.385
434.635
424.135
413.878
403.86
394.076
384.519
375.183
366.064
357.155
348.45
339.943
331.628
323.5
315.552
307.779
300.175
292.735
285.452
278.322
271.339
264.498
257.795
251.223
244.78
238.459
232.257
226.17
220.194
214.324
208.557
202.89
197.319
191.841
186.453
181.153
175.937
170.803
165.748
160.772
155.87
151.043
146.287
141.601
136.984
132.434
127.95
123.531
119.177
114.885
110.656
106.49
102.384
98.3408
94.3587
90.4384
86.5802
82.7851
79.0541
75.389
71.7921
68.2665
64.8165
61.4481
58.1694
54.9923
51.9336
49.0186
46.2864
43.8006
41.671
40.1055
39.5541
41.2264
49.933
104.387
792.04
418.402
340.703
318.795
316.436
323.512
336.046
352.125
370.691
391.097
412.922
435.868
459.72
484.312
509.513
535.215
561.326
587.765
614.458
641.338
668.342
695.407
722.475
749.487
776.384
803.109
829.604
855.811
881.672
907.128
932.123
956.597
980.495
1003.76
1026.35
1048.2
1069.3
1089.6
1109.09
1127.8
1145.73
1162.9
1179.33
1195.03
1209.89
1223.75
1236.61
1248.47
1259.29
1269.02
1277.55
1284.8
1290.84
1295.83
1299.77
1302.65
1304.52
1305.41
1305.3
1304.17
1302.22
1299.47
1295.9
1291.43
1286.01
1279.73
1272.62
1264.61
1255.65
1245.87
1235.4
1224.2
1212.34
1200.02
1187.31
1174.03
1159.91
1144.9
1129.17
1113.04
1096.74
1080.34
1063.86
1047.25
1030.49
1013.55
996.464
979.236
961.897
944.476
927.002
909.506
892.014
874.555
857.152
839.831
822.611
805.514
788.558
771.76
755.137
738.702
722.468
706.447
690.65
675.085
659.762
644.687
629.866
615.304
601.006
586.974
573.212
559.72
546.5
533.552
520.875
508.469
496.331
484.46
472.852
461.506
450.416
439.58
428.994
418.652
408.551
398.685
389.048
379.637
370.445
361.468
352.698
344.132
335.762
327.584
319.591
311.779
304.141
296.672
289.366
282.219
275.224
268.377
261.672
255.106
248.672
242.366
236.184
230.121
224.174
218.338
212.609
206.984
201.458
196.03
190.695
185.451
180.294
175.222
170.232
165.322
160.49
155.734
151.051
146.44
141.899
137.427
133.023
128.684
124.411
120.202
116.057
111.974
107.954
103.996
100.101
96.2678
92.4974
88.7906
85.1483
81.5719
78.0635
74.6255
71.2613
67.9756
64.7741
61.6649
58.6589
55.7713
53.0238
50.4484
48.0938
46.0384
44.4165
43.4812
43.7781
46.7705
58.2306
123.903
792.041
418.397
340.699
318.791
316.432
323.508
336.042
352.121
370.686
391.093
412.917
435.864
459.716
484.308
509.509
535.211
561.321
587.76
614.453
641.333
668.337
695.402
722.47
749.481
776.379
803.104
829.598
855.805
881.666
907.123
932.117
956.592
980.49
1003.76
1026.34
1048.2
1069.29
1089.6
1109.12
1127.85
1145.84
1163.09
1179.6
1195.31
1210.09
1223.84
1236.59
1248.41
1259.31
1269.22
1277.97
1285.44
1291.62
1296.57
1300.32
1302.99
1304.74
1305.66
1305.59
1304.43
1302.29
1299.39
1295.69
1291.18
1285.77
1279.46
1272.3
1264.32
1255.57
1246.06
1235.72
1224.49
1212.52
1200.11
1187.34
1174.03
1159.9
1144.89
1129.17
1113.05
1096.74
1080.35
1063.86
1047.25
1030.48
1013.55
996.461
979.233
961.894
944.473
926.999
909.503
892.012
874.552
857.15
839.828
822.609
805.512
788.556
771.758
755.135
738.7
722.466
706.445
690.648
675.084
659.76
644.685
629.864
615.303
601.004
586.973
573.211
559.719
546.499
533.551
520.874
508.468
496.33
484.459
472.851
461.505
450.415
439.579
428.993
418.651
408.55
398.684
389.048
379.636
370.445
361.467
352.698
344.131
335.761
327.583
319.591
311.778
304.14
296.671
289.366
282.218
275.223
268.376
261.672
255.105
248.671
242.365
236.183
230.121
224.174
218.337
212.608
206.983
201.458
196.03
190.695
185.45
180.293
175.221
170.232
165.322
160.49
155.734
151.051
146.44
141.899
137.427
133.023
128.684
124.411
120.202
116.057
111.974
107.954
103.996
100.101
96.2677
92.4974
88.7905
85.1482
81.5718
78.0634
74.6254
71.2613
67.9755
64.774
61.6648
58.6588
55.7713
53.0238
50.4484
48.0938
46.0383
44.4165
43.4812
43.7781
46.7706
58.2311
123.904
904.362
475.731
381.066
350.787
343.223
346.594
356.261
369.99
386.552
405.197
425.433
446.92
469.407
492.703
516.659
541.152
566.078
591.348
616.883
642.609
668.46
694.372
720.285
746.141
771.88
797.449
822.789
847.847
872.566
896.894
920.776
944.158
966.991
989.225
1010.82
1031.72
1051.91
1071.35
1090.03
1107.95
1125.09
1141.47
1157.06
1171.85
1185.77
1198.76
1210.78
1221.81
1231.84
1240.83
1248.75
1255.57
1261.31
1266.02
1269.69
1272.34
1273.99
1274.67
1274.39
1273.17
1271.07
1268.14
1264.38
1259.77
1254.31
1248.01
1240.91
1233
1224.28
1214.77
1204.53
1193.57
1181.96
1169.79
1157.11
1143.88
1130.05
1115.61
1100.66
1085.32
1069.72
1053.92
1037.94
1021.79
1005.46
988.971
972.333
955.568
938.701
921.761
904.774
887.768
870.769
853.802
836.89
820.056
803.32
786.702
770.22
753.889
737.726
721.744
705.955
690.371
675.003
659.858
644.946
630.273
615.845
601.667
587.743
574.077
560.671
547.526
534.644
522.025
509.669
497.574
485.739
474.163
462.842
451.775
440.956
430.384
420.054
409.962
400.104
390.474
381.067
371.88
362.906
354.141
345.579
337.214
329.042
321.056
313.252
305.624
298.166
290.873
283.74
276.761
269.933
263.249
256.704
250.295
244.016
237.863
231.831
225.917
220.116
214.424
208.838
203.353
197.968
192.677
187.479
182.37
177.348
172.409
167.552
162.774
158.073
153.446
148.893
144.411
139.999
135.655
131.379
127.168
123.023
118.943
114.926
110.973
107.084
103.257
99.4949
95.7965
92.163
88.5956
85.0959
81.6659
78.3082
75.0264
71.8247
68.7089
65.6867
62.7679
59.966
57.2995
54.7948
52.4901
50.4434
48.7475
47.5609
47.1813
48.25
52.4835
66.6065
143.258
904.362
475.726
381.061
350.783
343.219
346.59
356.256
369.986
386.548
405.192
425.429
446.916
469.402
492.699
516.655
541.148
566.074
591.344
616.878
642.604
668.455
694.367
720.28
746.136
771.875
797.444
822.784
847.842
872.561
896.889
920.77
944.153
966.986
989.22
1010.81
1031.71
1051.9
1071.35
1090.04
1107.97
1125.14
1141.55
1157.19
1171.99
1185.9
1198.85
1210.81
1221.81
1231.84
1240.89
1248.88
1255.78
1261.56
1266.25
1269.86
1272.42
1274.02
1274.68
1274.41
1273.2
1271.07
1268.1
1264.31
1259.69
1254.22
1247.92
1240.81
1232.9
1224.22
1214.79
1204.58
1193.63
1182
1169.81
1157.12
1143.89
1130.06
1115.62
1100.66
1085.33
1069.72
1053.92
1037.94
1021.79
1005.46
988.969
972.33
955.565
938.699
921.758
904.772
887.766
870.767
853.799
836.888
820.054
803.318
786.7
770.218
753.887
737.724
721.742
705.953
690.369
675.001
659.856
644.944
630.271
615.843
601.665
587.742
574.076
560.669
547.525
534.643
522.024
509.667
497.573
485.738
474.162
462.841
451.774
440.956
430.383
420.054
409.961
400.103
390.473
381.067
371.879
362.906
354.14
345.578
337.214
329.041
321.056
313.251
305.623
298.165
290.872
283.739
276.761
269.932
263.248
256.704
250.295
244.016
237.862
231.831
225.916
220.115
214.423
208.837
203.353
197.967
192.677
187.479
182.37
177.348
172.409
167.552
162.774
158.073
153.446
148.893
144.411
139.999
135.655
131.379
127.168
123.023
118.943
114.926
110.973
107.084
103.257
99.4948
95.7964
92.1629
88.5955
85.0958
81.6658
78.3082
75.0263
71.8246
68.7089
65.6866
62.7678
59.9659
57.2995
54.7948
52.49
50.4433
48.7475
47.5609
47.1812
48.25
52.4836
66.6071
143.258
1015.32
533.81
422.554
384.249
371.815
371.814
378.942
390.647
405.524
422.721
441.678
462.009
483.431
505.728
528.732
552.306
576.335
600.721
625.377
650.227
675.199
700.228
725.251
750.211
775.048
799.709
824.137
848.282
872.089
895.508
918.488
940.981
962.94
984.32
1005.08
1025.18
1044.59
1063.29
1081.25
1098.46
1114.9
1130.56
1145.43
1159.47
1172.65
1184.91
1196.25
1206.63
1216.03
1224.44
1231.85
1238.25
1243.62
1248
1251.37
1253.77
1255.2
1255.68
1255.23
1253.88
1251.66
1248.59
1244.7
1240
1234.47
1228.15
1221.05
1213.17
1204.54
1195.16
1185.08
1174.3
1162.89
1150.9
1138.37
1125.32
1111.76
1097.71
1083.23
1068.39
1053.25
1037.86
1022.26
1006.45
990.468
974.319
958.026
941.613
925.105
908.528
891.907
875.268
858.636
842.034
825.485
809.01
792.629
776.36
760.221
744.227
728.394
712.734
697.26
681.983
666.914
652.06
637.43
623.031
608.869
594.948
581.274
567.848
554.674
541.754
529.089
516.679
504.524
492.623
480.975
469.578
458.431
447.529
436.871
426.453
416.271
406.322
396.601
387.103
377.824
368.759
359.904
351.253
342.801
334.542
326.473
318.587
310.879
303.345
295.978
288.774
281.727
274.833
268.086
261.483
255.017
248.685
242.482
236.403
230.445
224.603
218.874
213.253
207.737
202.322
197.005
191.783
186.653
181.612
176.658
171.786
166.997
162.286
157.652
153.093
148.607
144.193
139.85
135.575
131.368
127.228
123.154
119.145
115.202
111.323
107.509
103.761
100.078
96.4622
92.9138
89.4347
86.0269
82.6932
79.4368
76.2619
73.1741
70.1802
67.2894
64.5134
61.8682
59.3756
57.0663
54.9846
53.1978
51.8127
51.012
51.1381
52.9288
58.3545
75.0893
162.566
1015.32
533.805
422.549
384.245
371.811
371.81
378.938
390.643
405.52
422.717
441.674
462.005
483.426
505.723
528.728
552.301
576.33
600.716
625.372
650.222
675.194
700.223
725.247
750.206
775.043
799.704
824.132
848.277
872.084
895.503
918.483
940.976
962.935
984.315
1005.07
1025.18
1044.59
1063.28
1081.25
1098.46
1114.91
1130.59
1145.48
1159.53
1172.7
1184.96
1196.27
1206.63
1216.03
1224.46
1231.89
1238.31
1243.69
1248.06
1251.42
1253.78
1255.18
1255.65
1255.21
1253.86
1251.64
1248.57
1244.67
1239.96
1234.44
1228.12
1221.01
1213.13
1204.51
1195.15
1185.08
1174.31
1162.9
1150.9
1138.37
1125.33
1111.77
1097.72
1083.24
1068.39
1053.25
1037.86
1022.25
1006.45
990.466
974.317
958.024
941.611
925.103
908.525
891.905
875.266
858.634
842.032
825.483
809.008
792.627
776.358
760.219
744.225
728.392
712.732
697.259
681.982
666.912
652.059
637.429
623.03
608.868
594.947
581.272
567.847
554.673
541.753
529.088
516.678
504.523
492.622
480.974
469.577
458.43
447.528
436.87
426.452
416.271
406.321
396.6
387.102
377.823
368.758
359.903
351.252
342.8
334.542
326.472
318.587
310.879
303.344
295.977
288.773
281.726
274.832
268.086
261.482
255.017
248.685
242.481
236.403
230.445
224.603
218.873
213.252
207.736
202.322
197.005
191.783
186.653
181.612
176.657
171.786
166.996
162.285
157.652
153.093
148.607
144.193
139.849
135.575
131.368
127.228
123.153
119.145
115.201
111.323
107.509
103.761
100.078
96.4621
92.9137
89.4346
86.0269
82.6931
79.4367
76.2618
73.174
70.1802
67.2893
64.5133
61.8682
59.3756
57.0663
54.9846
53.1977
51.8127
51.0119
51.1381
52.9288
58.3547
75.0899
162.567
1125.48
592.71
465.126
419.016
401.937
398.798
403.622
413.535
426.956
442.93
460.829
480.221
500.791
522.299
544.558
567.417
590.75
614.45
638.425
662.59
686.873
711.205
735.521
759.763
783.872
807.794
831.475
854.865
877.914
900.571
922.791
944.528
965.738
986.379
1006.41
1025.81
1044.53
1062.55
1079.84
1096.4
1112.19
1127.21
1141.42
1154.81
1167.34
1178.98
1189.72
1199.53
1208.39
1216.31
1223.26
1229.23
1234.24
1238.28
1241.36
1243.49
1244.68
1244.96
1244.34
1242.84
1240.48
1237.29
1233.29
1228.49
1222.9
1216.53
1209.41
1201.54
1192.95
1183.65
1173.67
1163.04
1151.8
1139.99
1127.64
1114.79
1101.48
1087.71
1073.55
1059.04
1044.23
1029.15
1013.84
998.316
982.606
966.732
950.717
934.585
918.361
902.069
885.735
869.382
853.034
836.714
820.443
804.241
788.128
772.122
756.239
740.494
724.903
709.477
694.23
679.172
664.313
649.662
635.227
621.014
607.03
593.28
579.768
566.497
553.47
540.689
528.156
515.87
503.833