/*--------------------------------*- C++ -*----------------------------------*\
  =========                 |
  \\      /  F ield         | OpenFOAM: The Open Source CFD Toolbox
   \\    /   O peration     | Website:  https://openfoam.org
    \\  /    A nd           | Version:  8
     \\/     M anipulation  |
\*---------------------------------------------------------------------------*/
FoamFile
{
    version     2.0;
    format      ascii;
    class       volScalarField;
    location    "4800";
    object      k;
}
// * * * * * * * * * * * * * * * * * * * * * * * * * * * * * * * * * * * * * //

dimensions      [0 2 -2 0 0 0 0];

internalField   nonuniform List<scalar> 
46000
(
0.0415075
0.138539
0.238642
0.330406
0.416678
0.499868
0.580954
0.660282
0.738301
0.815351
0.891711
0.967483
1.04233
1.11653
1.19018
1.26327
1.33581
1.40777
1.4791
1.54976
1.61969
1.68881
1.75708
1.8244
1.8907
1.95589
2.0199
2.08262
2.14398
2.20385
2.26215
2.31875
2.37351
2.4263
2.47691
2.52512
2.57063
2.61301
2.65159
2.68504
2.70972
2.71291
2.64417
2.28794
2.31199
2.69229
2.75249
2.7521
2.74065
2.72671
2.71654
2.71326
2.65432
2.29801
2.25864
2.26379
2.31285
2.64391
2.63887
2.65676
2.38305
2.70328
2.74688
2.73823
2.72304
2.69623
2.65155
2.63803
2.66133
2.68538
2.6698
2.63555
2.72411
2.75236
2.74035
2.71707
2.7057
2.71087
2.72237
2.72683
2.72004
2.70361
2.68051
2.65322
2.62332
2.59175
2.55901
2.52543
2.4912
2.45646
2.42131
2.38583
2.35011
2.31421
2.27817
2.24207
2.20594
2.16984
2.1338
2.09786
2.06207
2.02645
1.99103
1.95584
1.92092
1.88628
1.85195
1.81795
1.7843
1.75101
1.7181
1.68559
1.65348
1.62179
1.59052
1.55969
1.52929
1.49934
1.46983
1.44077
1.41216
1.38399
1.35628
1.329
1.30218
1.27578
1.24983
1.2243
1.19919
1.1745
1.15022
1.12634
1.10285
1.07975
1.05702
1.03467
1.01267
0.991019
0.969711
0.948734
0.928079
0.907737
0.887698
0.867953
0.848493
0.829309
0.810392
0.791733
0.773324
0.755157
0.737224
0.719516
0.702026
0.684748
0.667672
0.650794
0.634105
0.6176
0.601273
0.585117
0.569127
0.553297
0.537622
0.522097
0.506716
0.491475
0.476369
0.461393
0.446542
0.431811
0.417196
0.402692
0.388294
0.373996
0.359793
0.34568
0.331651
0.317699
0.303818
0.29
0.276237
0.26252
0.248839
0.235184
0.221542
0.2079
0.19424
0.180546
0.166796
0.152963
0.139019
0.124925
0.110635
0.0960891
0.0812105
0.0658888
0.0499785
0.0333806
0.0163851
0.00346858
0.0415044
0.138539
0.238643
0.330405
0.416677
0.499868
0.580955
0.660283
0.738302
0.815352
0.891712
0.967483
1.04233
1.11653
1.19018
1.26327
1.33581
1.40777
1.4791
1.54976
1.61968
1.68881
1.75708
1.8244
1.89069
1.95589
2.0199
2.08262
2.14397
2.20385
2.26215
2.31875
2.37351
2.42629
2.47689
2.52507
2.57052
2.61278
2.65124
2.68502
2.71281
2.73251
2.74062
2.73536
2.74516
2.76709
2.77099
2.75927
2.7332
2.70085
2.68218
2.68162
2.68789
2.68737
2.69765
2.69903
2.66166
2.56463
2.53944
2.60262
2.64418
2.38846
2.72586
2.76313
2.74629
2.72788
2.70196
2.66198
2.62196
2.52396
2.50687
2.57688
2.70609
2.74667
2.73847
2.71641
2.70548
2.71085
2.72243
2.72688
2.72006
2.7036
2.6805
2.65321
2.62331
2.59174
2.55901
2.52543
2.4912
2.45645
2.4213
2.38583
2.35011
2.3142
2.27817
2.24207
2.20594
2.16984
2.1338
2.09786
2.06206
2.02644
1.99102
1.95584
1.92092
1.88628
1.85195
1.81795
1.78429
1.75101
1.7181
1.68559
1.65348
1.62179
1.59052
1.55969
1.52929
1.49933
1.46983
1.44077
1.41215
1.38399
1.35627
1.329
1.30217
1.27578
1.24982
1.2243
1.19919
1.1745
1.15022
1.12634
1.10285
1.07975
1.05702
1.03466
1.01267
0.991017
0.969709
0.948732
0.928077
0.907735
0.887696
0.867951
0.848491
0.829307
0.81039
0.791731
0.773323
0.755156
0.737222
0.719515
0.702025
0.684746
0.667671
0.650792
0.634104
0.617599
0.601272
0.585116
0.569126
0.553296
0.537621
0.522096
0.506715
0.491474
0.476368
0.461392
0.446541
0.43181
0.417195
0.402691
0.388293
0.373995
0.359793
0.34568
0.331651
0.317699
0.303817
0.289999
0.276236
0.262519
0.248839
0.235184
0.221542
0.207899
0.19424
0.180546
0.166795
0.152963
0.139019
0.124924
0.110634
0.096089
0.0812104
0.0658887
0.0499785
0.0333806
0.0163851
0.00346858
0.138639
0.342451
0.489497
0.614875
0.728699
0.835107
0.936102
1.03315
1.12721
1.21893
1.30858
1.39655
1.48301
1.56816
1.65212
1.73497
1.81675
1.89749
1.97718
2.05581
2.13334
2.20975
2.28497
2.35895
2.43164
2.50295
2.57283
2.64118
2.70792
2.77297
2.83623
2.89757
2.9569
3.01405
3.06887
3.12114
3.17061
3.21691
3.25953
3.29757
3.32903
3.34861
3.34312
3.29707
3.31635
3.39334
3.42116
3.42784
3.42894
3.42876
3.43059
3.43638
3.42663
3.37212
3.36278
3.37021
3.39271
3.45098
3.46109
3.45999
3.42657
3.46992
3.47719
3.46899
3.45817
3.44429
3.42529
3.41538
3.41826
3.42246
3.41657
3.41089
3.42305
3.42291
3.40646
3.38414
3.36838
3.36277
3.36135
3.35548
3.34177
3.3208
3.2944
3.26433
3.23181
3.19762
3.16221
3.12589
3.08884
3.05121
3.01309
2.97458
2.93576
2.8967
2.85745
2.81808
2.77863
2.73916
2.69971
2.66032
2.62103
2.58188
2.5429
2.50412
2.46558
2.4273
2.3893
2.35161
2.31424
2.27723
2.24058
2.20432
2.16845
2.13298
2.09794
2.06332
2.02913
1.99538
1.96208
1.92922
1.89682
1.86486
1.83335
1.80229
1.77168
1.7415
1.71177
1.68246
1.65359
1.62513
1.59709
1.56945
1.5422
1.51535
1.48888
1.46277
1.43703
1.41163
1.38658
1.36185
1.33744
1.31334
1.28954
1.26603
1.2428
1.21983
1.19711
1.17465
1.15241
1.13041
1.10862
1.08703
1.06564
1.04444
1.02342
1.00257
0.981872
0.961329
0.94093
0.920665
0.900526
0.880505
0.860595
0.840786
0.821072
0.801443
0.781892
0.762411
0.74299
0.723622
0.704296
0.685004
0.665736
0.64648
0.627226
0.607962
0.588673
0.569347
0.549966
0.530514
0.510971
0.491316
0.471522
0.451564
0.431407
0.411016
0.390345
0.369343
0.347948
0.326083
0.303655
0.280544
0.256594
0.231598
0.205264
0.177163
0.146614
0.112368
0.0711284
0.0162568
0.138644
0.342457
0.4895
0.614875
0.728699
0.835107
0.936102
1.03315
1.12721
1.21893
1.30858
1.39655
1.48301
1.56816
1.65212
1.73497
1.81675
1.89749
1.97718
2.0558
2.13334
2.20974
2.28497
2.35895
2.43163
2.50295
2.57282
2.64117
2.70792
2.77297
2.83622
2.89757
2.95689
3.01404
3.06886
3.12111
3.17053
3.21674
3.25925
3.2974
3.33033
3.35683
3.3753
3.38672
3.40152
3.41949
3.43024
3.43236
3.42643
3.41688
3.41334
3.41879
3.42819
3.43606
3.44703
3.45527
3.45215
3.43838
3.43508
3.44911
3.45395
3.42626
3.47499
3.48098
3.4696
3.45736
3.44337
3.42521
3.40776
3.38381
3.37453
3.38803
3.41382
3.41944
3.40519
3.3837
3.3683
3.36282
3.36142
3.35551
3.34178
3.32079
3.29438
3.26431
3.2318
3.19761
3.16221
3.12589
3.08884
3.0512
3.01308
2.97458
2.93576
2.89669
2.85745
2.81807
2.77863
2.73915
2.6997
2.66031
2.62103
2.58187
2.54289
2.50412
2.46557
2.42729
2.38929
2.3516
2.31424
2.27723
2.24058
2.20431
2.16844
2.13298
2.09793
2.06331
2.02913
1.99538
1.96208
1.92922
1.89681
1.86486
1.83335
1.80229
1.77167
1.7415
1.71176
1.68246
1.65358
1.62513
1.59708
1.56944
1.5422
1.51535
1.48887
1.46277
1.43702
1.41163
1.38657
1.36185
1.33744
1.31334
1.28954
1.26603
1.24279
1.21982
1.19711
1.17464
1.15241
1.13041
1.10861
1.08703
1.06564
1.04444
1.02342
1.00256
0.98187
0.961327
0.940927
0.920662
0.900524
0.880503
0.860593
0.840784
0.82107
0.801441
0.78189
0.762409
0.742988
0.72362
0.704294
0.685002
0.665734
0.646478
0.627224
0.60796
0.588672
0.569345
0.549965
0.530513
0.51097
0.491314
0.471521
0.451563
0.431406
0.411015
0.390344
0.369342
0.347947
0.326082
0.303654
0.280543
0.256594
0.231598
0.205264
0.177163
0.146613
0.112368
0.0711284
0.0162568
0.242564
0.49409
0.665813
0.809314
0.939184
1.06037
1.17544
1.28592
1.39273
1.4966
1.59799
1.69725
1.79465
1.89037
1.98454
2.07728
2.16862
2.25862
2.34727
2.43458
2.52053
2.60508
2.68819
2.7698
2.84987
2.92833
3.0051
3.08011
3.15327
3.22451
3.29372
3.3608
3.42563
3.48809
3.548
3.6052
3.65946
3.7105
3.75798
3.80145
3.84017
3.87268
3.89631
3.9114
3.93466
3.96529
3.98743
4.00336
4.01646
4.02864
4.04129
4.05376
4.06138
4.06134
4.06638
4.07441
4.08557
4.10192
4.11094
4.10758
4.09995
4.10207
4.09948
4.09236
4.08338
4.07349
4.06353
4.0537
4.04461
4.03479
4.02501
4.01633
4.00227
3.98614
3.96616
3.94437
3.92442
3.90751
3.89134
3.87264
3.84961
3.82212
3.79089
3.75681
3.72062
3.68285
3.64387
3.60393
3.56319
3.52179
3.47986
3.43747
3.39471
3.35166
3.30838
3.26493
3.22138
3.17776
3.13413
3.09054
3.04704
3.00365
2.96042
2.91738
2.87457
2.83202
2.78976
2.7478
2.70618
2.66491
2.62403
2.58353
2.54345
2.50379
2.46457
2.4258
2.38748
2.34963
2.31224
2.27533
2.2389
2.20294
2.16747
2.13247
2.09794
2.06389
2.03031
1.99719
1.96453
1.93231
1.90055
1.86921
1.83831
1.80782
1.77773
1.74805
1.71875
1.68983
1.66127
1.63307
1.6052
1.57767
1.55046
1.52355
1.49694
1.47062
1.44456
1.41877
1.39322
1.36791
1.34283
1.31796
1.29329
1.26882
1.24453
1.22042
1.19646
1.17266
1.149
1.12547
1.10206
1.07877
1.05558
1.03248
1.00947
0.986529
0.963654
0.940833
0.918056
0.895313
0.872593
0.849883
0.827172
0.804447
0.781695
0.7589
0.736046
0.713117
0.690093
0.666952
0.643672
0.620226
0.596585
0.572713
0.548574
0.524121
0.499303
0.474058
0.448311
0.421973
0.394934
0.367055
0.338156
0.307999
0.276251
0.242417
0.205661
0.164224
0.112596
0.0329975
0.24257
0.494094
0.665815
0.809314
0.939183
1.06037
1.17544
1.28592
1.39273
1.49659
1.59798
1.69725
1.79465
1.89036
1.98454
2.07727
2.16862
2.25861
2.34727
2.43458
2.52053
2.60508
2.68818
2.7698
2.84987
2.92832
3.00509
3.0801
3.15327
3.22451
3.29372
3.3608
3.42563
3.48808
3.54799
3.60518
3.6594
3.71038
3.75774
3.80108
3.83991
3.87378
3.90231
3.92642
3.94922
3.97114
3.98982
4.00451
4.01572
4.02522
4.03523
4.0469
4.05907
4.07041
4.08153
4.09116
4.09863
4.10602
4.10975
4.11086
4.10467
4.09689
4.09909
4.09516
4.08693
4.07714
4.06657
4.05543
4.04314
4.03281
4.02185
4.01217
3.99971
3.98495
3.96572
3.94427
3.92444
3.90755
3.89136
3.87264
3.8496
3.8221
3.79087
3.75679
3.72061
3.68285
3.64387
3.60392
3.56318
3.52179
3.47985
3.43746
3.39471
3.35166
3.30838
3.26493
3.22137
3.17775
3.13413
3.09054
3.04703
3.00364
2.96041
2.91738
2.87457
2.83202
2.78975
2.74779
2.70617
2.66491
2.62402
2.58353
2.54345
2.50379
2.46457
2.42579
2.38748
2.34962
2.31224
2.27533
2.2389
2.20294
2.16746
2.13246
2.09794
2.06389
2.03031
1.99719
1.96452
1.93231
1.90054
1.86921
1.8383
1.80781
1.77773
1.74804
1.71875
1.68982
1.66127
1.63306
1.6052
1.57767
1.55046
1.52355
1.49694
1.47061
1.44456
1.41876
1.39322
1.36791
1.34282
1.31795
1.29329
1.26882
1.24453
1.22041
1.19646
1.17266
1.149
1.12547
1.10206
1.07877
1.05558
1.03248
1.00947
0.986526
0.963651
0.940831
0.918054
0.895311
0.872591
0.849881
0.82717
0.804445
0.781693
0.758898
0.736044
0.713115
0.690091
0.666951
0.643671
0.620225
0.596583
0.572712
0.548573
0.52412
0.499302
0.474057
0.44831
0.421972
0.394933
0.367054
0.338155
0.307998
0.276251
0.242417
0.205661
0.164225
0.112596
0.0329975
0.3402
0.626668
0.816894
0.973355
1.11434
1.24591
1.37103
1.49133
1.60784
1.72122
1.83195
1.94037
2.04674
2.15123
2.25398
2.35508
2.45459
2.55254
2.64896
2.74382
2.83712
2.92881
3.01887
3.10723
3.19384
3.27864
3.36155
3.44251
3.52142
3.5982
3.67277
3.74501
3.81481
3.88206
3.94661
4.00831
4.06697
4.1224
4.17437
4.22264
4.26694
4.30693
4.34216
4.37326
4.40326
4.4324
4.45847
4.48156
4.5023
4.52141
4.53914
4.55487
4.56772
4.57789
4.58737
4.59611
4.60437
4.61245
4.61745
4.61651
4.61323
4.61031
4.60561
4.59831
4.58893
4.57831
4.56698
4.55413
4.53951
4.52372
4.50801
4.49176
4.47191
4.45073
4.42816
4.40433
4.37975
4.3546
4.32837
4.30025
4.26962
4.23629
4.20043
4.16241
4.12262
4.08139
4.03897
3.99557
3.95134
3.90641
3.86089
3.81488
3.76845
3.7217
3.67467
3.62746
3.5801
3.53266
3.4852
3.43776
3.39039
3.34313
3.29603
3.24912
3.20243
3.15601
3.10988
3.06408
3.01862
2.97353
2.92884
2.88456
2.84071
2.79731
2.75438
2.71191
2.66993
2.62845
2.58746
2.54697
2.507
2.46753
2.42858
2.39013
2.3522
2.31477
2.27785
2.24142
2.20548
2.17003
2.13505
2.10054
2.06649
2.03288
1.99972
1.96698
1.93467
1.90275
1.87123
1.84009
1.80931
1.7789
1.74882
1.71908
1.68965
1.66053
1.6317
1.60314
1.57486
1.54683
1.51904
1.49148
1.46413
1.43699
1.41005
1.38328
1.35669
1.33026
1.30397
1.27783
1.25181
1.2259
1.2001
1.17439
1.14877
1.12322
1.09774
1.0723
1.0469
1.02153
0.996181
0.97083
0.94547
0.920085
0.89466
0.86918
0.843627
0.817982
0.792225
0.766332
0.74028
0.714038
0.687575
0.660857
0.63384
0.606478
0.578716
0.550488
0.521718
0.492312
0.462156
0.431106
0.398977
0.365522
0.330384
0.293012
0.252401
0.206251
0.147174
0.0493418
0.340205
0.62667
0.816894
0.973354
1.11434
1.24591
1.37102
1.49133
1.60783
1.72121
1.83194
1.94037
2.04673
2.15122
2.25397
2.35507
2.45459
2.55254
2.64895
2.74382
2.83711
2.92881
3.01886
3.10723
3.19384
3.27864
3.36155
3.4425
3.52142
3.5982
3.67276
3.745
3.81481
3.88206
3.9466
4.0083
4.06694
4.12233
4.17423
4.22239
4.26661
4.30676
4.34287
4.37544
4.40548
4.43335
4.45871
4.4815
4.50203
4.52075
4.53787
4.55363
4.56793
4.58064
4.59174
4.60099
4.60884
4.61587
4.61958
4.61925
4.61484
4.6096
4.60494
4.59832
4.58951
4.57879
4.5668
4.55372
4.53935
4.52514
4.50943
4.49188
4.47163
4.4505
4.42806
4.4043
4.37974
4.35459
4.32834
4.30023
4.2696
4.23627
4.20041
4.1624
4.12261
4.08138
4.03897
3.99557
3.95134
3.90641
3.86089
3.81487
3.76845
3.72169
3.67467
3.62745
3.58009
3.53266
3.4852
3.43776
3.39039
3.34313
3.29602
3.24911
3.20243
3.15601
3.10988
3.06407
3.01861
2.97353
2.92883
2.88456
2.84071
2.79731
2.75437
2.71191
2.66993
2.62844
2.58745
2.54697
2.50699
2.46753
2.42857
2.39013
2.3522
2.31477
2.27784
2.24141
2.20548
2.17002
2.13504
2.10053
2.06648
2.03288
1.99972
1.96698
1.93466
1.90275
1.87123
1.84008
1.80931
1.77889
1.74882
1.71907
1.68965
1.66052
1.63169
1.60314
1.57486
1.54682
1.51903
1.49147
1.46413
1.43699
1.41004
1.38328
1.35669
1.33026
1.30397
1.27782
1.2518
1.2259
1.2001
1.17439
1.14877
1.12322
1.09773
1.0723
1.0469
1.02153
0.996179
0.970829
0.945468
0.920083
0.894658
0.869178
0.843625
0.817981
0.792224
0.766331
0.740278
0.714037
0.687574
0.660855
0.633839
0.606477
0.578715
0.550487
0.521717
0.492311
0.462155
0.431105
0.398977
0.365521
0.330384
0.293012
0.252401
0.206251
0.147174
0.0493419
0.433593
0.748893
0.955735
1.12358
1.27372
1.41367
1.54687
1.67512
1.79949
1.92068
2.03914
2.1552
2.26911
2.38102
2.49106
2.59931
2.70581
2.81061
2.9137
3.01508
3.11472
3.21259
3.30865
3.40284
3.49511
3.58539
3.67361
3.7597
3.84357
3.92515
4.00433
4.08103
4.15513
4.22653
4.2951
4.36072
4.42324
4.48251
4.5384
4.59077
4.63952
4.68461
4.72603
4.76407
4.79944
4.83238
4.86267
4.8903
4.91541
4.93824
4.95885
4.97697
4.99251
5.00577
5.01712
5.02655
5.03414
5.03998
5.04333
5.04333
5.041
5.03705
5.03113
5.02284
5.01232
5.00004
4.98633
4.97085
4.95346
4.9346
4.91485
4.89394
4.87095
4.84654
4.82081
4.79357
4.76466
4.73404
4.70168
4.66758
4.63162
4.59372
4.55394
4.51242
4.46936
4.42496
4.37942
4.33289
4.28552
4.23741
4.18868
4.13943
4.08973
4.03967
3.98931
3.93874
3.88801
3.83718
3.78631
3.73545
3.68465
3.63396
3.58343
3.53308
3.48297
3.43312
3.38358
3.33437
3.28551
3.23705
3.189
3.14137
3.0942
3.0475
3.00129
2.95557
2.91036
2.86567
2.8215
2.77787
2.73478
2.69223
2.65021
2.60874
2.56781
2.52742
2.48755
2.44822
2.40941
2.37111
2.33332
2.29603
2.25923
2.2229
2.18704
2.15164
2.11668
2.08215
2.04805
2.01434
1.98104
1.94811
1.91554
1.88333
1.85146
1.81991
1.78868
1.75774
1.72708
1.6967
1.66657
1.63669
1.60704
1.57761
1.54838
1.51935
1.4905
1.46181
1.43328
1.4049
1.37665
1.34853
1.32051
1.29259
1.26476
1.237
1.20931
1.18167
1.15406
1.12649
1.09893
1.07137
1.0438
1.0162
0.988551
0.960845
0.93306
0.905177
0.877174
0.849028
0.820712
0.792198
0.763453
0.734441
0.705119
0.67544
0.645347
0.614775
0.583647
0.551869
0.519324
0.485867
0.451307
0.415381
0.377701
0.337629
0.293946
0.243799
0.178177
0.06515
0.433596
0.748894
0.955734
1.12358
1.27372
1.41367
1.54687
1.67512
1.79949
1.92067
2.03914
2.1552
2.26911
2.38102
2.49106
2.5993
2.70581
2.81061
2.9137
3.01507
3.11472
3.21259
3.30864
3.40284
3.49511
3.58539
3.67361
3.7597
3.84357
3.92514
4.00433
4.08102
4.15513
4.22653
4.2951
4.36071
4.42323
4.48248
4.53834
4.59067
4.63939
4.68449
4.72608
4.76441
4.79983
4.83253
4.86258
4.89009
4.91525
4.93819
4.95882
4.97717
4.99328
5.0072
5.0189
5.02832
5.03575
5.04142
5.04448
5.04447
5.04158
5.03689
5.03069
5.02254
5.01229
4.99999
4.98597
4.97041
4.95333
4.93524
4.91568
4.89434
4.87105
4.84654
4.82079
4.79355
4.76464
4.73401
4.70166
4.66756
4.6316
4.59371
4.55393
4.51241
4.46935
4.42496
4.37942
4.33289
4.28551
4.23741
4.18868
4.13942
4.08972
4.03966
3.98931
3.93873
3.888
3.83717
3.7863
3.73545
3.68465
3.63396
3.58342
3.53308
3.48296
3.43312
3.38357
3.33436
3.28551
3.23705
3.18899
3.14137
3.0942
3.0475
3.00128
2.95556
2.91035
2.86566
2.8215
2.77787
2.73478
2.69222
2.65021
2.60874
2.56781
2.52741
2.48755
2.44822
2.40941
2.37111
2.33332
2.29603
2.25922
2.2229
2.18704
2.15164
2.11668
2.08215
2.04804
2.01434
1.98103
1.9481
1.91554
1.88333
1.85146
1.81991
1.78867
1.75774
1.72708
1.6967
1.66657
1.63669
1.60704
1.57761
1.54838
1.51935
1.49049
1.46181
1.43328
1.4049
1.37665
1.34852
1.32051
1.29259
1.26476
1.237
1.20931
1.18166
1.15406
1.12649
1.09893
1.07137
1.0438
1.01619
0.988549
0.960844
0.933059
0.905176
0.877173
0.849027
0.820711
0.792197
0.763452
0.73444
0.705118
0.675439
0.645346
0.614775
0.583647
0.551868
0.519323
0.485866
0.451307
0.415381
0.377701
0.337629
0.293946
0.243799
0.178177
0.0651502
0.524587
0.864303
1.08662
1.26534
1.42409
1.57166
1.71201
1.8472
1.97841
2.10635
2.23152
2.35423
2.4747
2.59309
2.7095
2.824
2.93663
3.04741
3.15635
3.26343
3.36861
3.47188
3.57317
3.67243
3.76961
3.86465
3.95746
4.04798
4.13613
4.22182
4.30497
4.38549
4.46328
4.53823
4.61026
4.67923
4.74506
4.80762
4.86683
4.92261
4.97494
5.02381
5.06929
5.11152
5.15072
5.18703
5.22048
5.2511
5.27896
5.30417
5.32677
5.3467
5.36399
5.37879
5.3912
5.40119
5.40877
5.414
5.4167
5.41669
5.41422
5.40952
5.40255
5.39321
5.38158
5.36789
5.35235
5.33492
5.31558
5.2945
5.27193
5.2478
5.22191
5.19442
5.16537
5.13462
5.10202
5.06751
5.03115
4.99307
4.95331
4.91189
4.86886
4.8243
4.77833
4.73111
4.68277
4.63345
4.58327
4.53234
4.48075
4.42862
4.37601
4.32302
4.26972
4.21617
4.16245
4.10861
4.05472
4.00084
3.947
3.89327
3.83969
3.78629
3.73314
3.68025
3.62767
3.57543
3.52357
3.4721
3.42105
3.37045
3.32032
3.27068
3.22154
3.17291
3.12482
3.07727
3.03027
2.98383
2.93795
2.89263
2.84788
2.8037
2.76008
2.71702
2.67453
2.63259
2.5912
2.55035
2.51004
2.47024
2.43097
2.39219
2.35391
2.31611
2.27878
2.24191
2.20547
2.16947
2.13388
2.0987
2.06389
2.02947
1.9954
1.96167
1.92828
1.89519
1.86241
1.82992
1.7977
1.76573
1.73402
1.70253
1.67126
1.64019
1.60932
1.57862
1.54809
1.51772
1.48748
1.45737
1.42738
1.39749
1.3677
1.33798
1.30833
1.27874
1.24919
1.21966
1.19016
1.16065
1.13113
1.10158
1.07199
1.04233
1.0126
0.982763
0.952806
0.922704
0.89243
0.861955
0.831247
0.800268
0.768978
0.737328
0.705262
0.672714
0.639608
0.605848
0.571315
0.53586
0.49928
0.461289
0.421447
0.379011
0.332534
0.278636
0.206921
0.0805515
0.524589
0.864303
1.08662
1.26534
1.42409
1.57166
1.71201
1.8472
1.9784
2.10635
2.23152
2.35423
2.4747
2.59308
2.70949
2.82399
2.93663
3.04741
3.15635
3.26342
3.36861
3.47187
3.57316
3.67243
3.76961
3.86464
3.95746
4.04798
4.13613
4.22182
4.30497
4.38549
4.46327
4.53823
4.61025
4.67923
4.74505
4.80761
4.86681
4.92259
4.97491
5.02381
5.06936
5.11167
5.1509
5.18713
5.22045
5.25099
5.27889
5.30419
5.32689
5.34696
5.36447
5.37945
5.39189
5.4018
5.40928
5.41445
5.41709
5.41705
5.41441
5.40948
5.40237
5.39306
5.38152
5.36784
5.35219
5.33471
5.31548
5.29468
5.27221
5.24799
5.22198
5.19443
5.16536
5.13461
5.102
5.06749
5.03114
4.99306
4.9533
4.91189
4.86885
4.82429
4.77833
4.73111
4.68277
4.63345
4.58326
4.53233
4.48075
4.42861
4.37601
4.32302
4.26971
4.21617
4.16244
4.10861
4.05472
4.00083
3.947
3.89326
3.83968
3.78629
3.73313
3.68025
3.62767
3.57543
3.52356
3.47209
3.42105
3.37045
3.32032
3.27067
3.22153
3.17291
3.12482
3.07727
3.03027
2.98383
2.93794
2.89263
2.84788
2.80369
2.76008
2.71702
2.67453
2.63259
2.5912
2.55035
2.51003
2.47024
2.43096
2.39219
2.35391
2.31611
2.27878
2.2419
2.20547
2.16947
2.13388
2.09869
2.06389
2.02946
1.9954
1.96167
1.92827
1.89519
1.86241
1.82992
1.7977
1.76573
1.73401
1.70253
1.67126
1.64019
1.60932
1.57862
1.54809
1.51771
1.48748
1.45737
1.42738
1.39749
1.3677
1.33798
1.30833
1.27874
1.24919
1.21966
1.19015
1.16065
1.13113
1.10158
1.07199
1.04233
1.0126
0.982762
0.952806
0.922703
0.892429
0.861954
0.831246
0.800268
0.768977
0.737327
0.705261
0.672714
0.639608
0.605847
0.571315
0.53586
0.49928
0.461289
0.421447
0.379011
0.332535
0.278636
0.206922
0.0805517
0.613623
0.974731
1.21195
1.40132
1.56855
1.72347
1.87058
2.0122
2.14966
2.28375
2.41498
2.54367
2.67004
2.79423
2.91635
3.03644
3.15455
3.27068
3.38482
3.49696
3.60706
3.71509
3.82099
3.92471
4.02619
4.12537
4.22218
4.31654
4.40838
4.49762
4.58417
4.66796
4.74889
4.82688
4.90183
4.97365
5.04227
5.10759
5.16956
5.22813
5.28328
5.33504
5.38344
5.42856
5.4705
5.50932
5.54508
5.57783
5.60762
5.63451
5.65855
5.67976
5.69817
5.71387
5.72689
5.73722
5.74487
5.74987
5.75221
5.75188
5.74896
5.74356
5.7357
5.72542
5.71277
5.69788
5.6809
5.66186
5.6408
5.61782
5.59299
5.56634
5.53785
5.5076
5.47559
5.4418
5.40615
5.36862
5.32928
5.28823
5.24555
5.2013
5.15554
5.10835
5.05984
5.0101
4.95928
4.90747
4.85479
4.80134
4.74723
4.69254
4.63736
4.58178
4.52585
4.46967
4.4133
4.35679
4.30022
4.24364
4.18711
4.13067
4.07437
4.01827
3.96239
3.90679
3.8515
3.79656
3.74199
3.68782
3.63409
3.58082
3.52802
3.47573
3.42396
3.37272
3.32202
3.27189
3.22232
3.17333
3.12492
3.07709
3.02986
2.98321
2.93715
2.89167
2.84678
2.80246
2.75871
2.71553
2.6729
2.63083
2.58928
2.54826
2.50776
2.46776
2.42825
2.38922
2.35065
2.31253
2.27484
2.23757
2.20071
2.16424
2.12814
2.09241
2.05702
2.02197
1.98722
1.95278
1.91863
1.88475
1.85112
1.81774
1.78459
1.75165
1.71891
1.68637
1.65399
1.62178
1.58972
1.55779
1.52598
1.49429
1.46269
1.43118
1.39974
1.36835
1.33701
1.30571
1.27442
1.24314
1.21184
1.18052
1.14916
1.11773
1.08623
1.05462
1.0229
0.991034
0.958996
0.926759
0.89429
0.861553
0.828506
0.795102
0.761284
0.726986
0.692131
0.65662
0.620331
0.583104
0.54472
0.50486
0.463024
0.418354
0.369178
0.311635
0.234134
0.095722
0.613625
0.97473
1.21195
1.40132
1.56855
1.72347
1.87057
2.0122
2.14966
2.28375
2.41497
2.54366
2.67003
2.79423
2.91635
3.03644
3.15455
3.27068
3.38482
3.49696
3.60706
3.71508
3.82098
3.92471
4.02619
4.12537
4.22218
4.31654
4.40838
4.49761
4.58417
4.66795
4.74889
4.82687
4.90182
4.97365
5.04226
5.10759
5.16955
5.22812
5.28329
5.33507
5.38351
5.42867
5.47062
5.50941
5.54511
5.5778
5.60759
5.63452
5.65861
5.67989
5.69838
5.71412
5.72712
5.73739
5.74499
5.74996
5.7523
5.75197
5.74901
5.74355
5.73565
5.72536
5.71274
5.69786
5.68084
5.66178
5.64076
5.61785
5.59306
5.5664
5.53788
5.5076
5.47559
5.4418
5.40614
5.36861
5.32927
5.28822
5.24554
5.2013
5.15554
5.10835
5.05983
5.0101
4.95927
4.90746
4.85478
4.80134
4.74723
4.69254
4.63736
4.58177
4.52585
4.46967
4.41329
4.35679
4.30022
4.24364
4.18711
4.13067
4.07437
4.01826
3.96239
3.90679
3.8515
3.79655
3.74198
3.68782
3.63409
3.58081
3.52802
3.47573
3.42395
3.37271
3.32202
3.27189
3.22232
3.17333
3.12492
3.07709
3.02985
2.98321
2.93714
2.89167
2.84677
2.80246
2.75871
2.71553
2.6729
2.63082
2.58928
2.54826
2.50776
2.46776
2.42825
2.38922
2.35064
2.31252
2.27484
2.23757
2.20071
2.16424
2.12814
2.09241
2.05702
2.02196
1.98722
1.95278
1.91863
1.88474
1.85112
1.81774
1.78459
1.75165
1.71891
1.68636
1.65399
1.62178
1.58972
1.55779
1.52598
1.49429
1.46269
1.43118
1.39973
1.36835
1.33701
1.30571
1.27442
1.24314
1.21184
1.18052
1.14916
1.11773
1.08623
1.05462
1.0229
0.991033
0.958995
0.926758
0.894289
0.861552
0.828506
0.795101
0.761283
0.726986
0.692131
0.65662
0.620331
0.583104
0.54472
0.50486
0.463024
0.418355
0.369179
0.311635
0.234135
0.0957223
0.701117
1.08157
1.33318
1.53311
1.70883
1.87105
2.02477
2.17259
2.316
2.45587
2.59274
2.72697
2.85878
2.98832
3.11566
3.24086
3.36395
3.48492
3.60376
3.72046
3.83497
3.94725
4.05725
4.16492
4.2702
4.37302
4.47331
4.57101
4.66605
4.75834
4.84781
4.93439
5.01799
5.09853
5.17595
5.25015
5.32109
5.38868
5.45289
5.51368
5.57105
5.625
5.67557
5.72278
5.7667
5.80736
5.84481
5.87909
5.91025
5.93833
5.96339
5.98545
6.00456
6.02076
6.03408
6.04454
6.05215
6.05695
6.05896
6.05822
6.05478
6.04871
6.04006
6.0289
6.01528
5.99929
5.98104
5.96058
5.93797
5.91327
5.88653
5.85781
5.82712
5.79453
5.76008
5.72377
5.68561
5.64562
5.60385
5.56038
5.51531
5.4687
5.42062
5.37115
5.32039
5.26845
5.21541
5.1614
5.10651
5.05084
4.99449
4.93754
4.88008
4.82219
4.76395
4.70543
4.6467
4.58783
4.52888
4.4699
4.41096
4.35211
4.29339
4.23485
4.17655
4.11851
4.06079
4.00341
3.9464
3.88981
3.83365
3.77796
3.72276
3.66806
3.6139
3.56027
3.50721
3.45472
3.40281
3.35148
3.30076
3.25063
3.20111
3.15219
3.10388
3.05617
3.00906
2.96255
2.91662
2.87128
2.82651
2.7823
2.73865
2.69555
2.65297
2.61092
2.56938
2.52833
2.48776
2.44765
2.408
2.36879
2.32999
2.29161
2.25361
2.21599
2.17873
2.14182
2.10523
2.06896
2.03299
1.9973
1.96188
1.92672
1.89179
1.85709
1.8226
1.78831
1.75421
1.72027
1.68649
1.65285
1.61934
1.58594
1.55265
1.51945
1.48632
1.45326
1.42025
1.38727
1.35432
1.32137
1.28842
1.25544
1.22242
1.18934
1.15619
1.12294
1.08958
1.05607
1.0224
0.988531
0.954434
0.920073
0.885406
0.850386
0.814956
0.779049
0.742583
0.705458
0.667543
0.628666
0.588586
0.546944
0.503179
0.456313
0.404462
0.34333
0.260274
0.110778
0.701117
1.08157
1.33318
1.53311
1.70883
1.87105
2.02477
2.17259
2.316
2.45586
2.59274
2.72697
2.85878
2.98831
3.11566
3.24086
3.36394
3.48491
3.60376
3.72046
3.83497
3.94725
4.05725
4.16492
4.2702
4.37302
4.47331
4.57101
4.66604
4.75833
4.84781
4.93438
5.01798
5.09853
5.17594
5.25015
5.32108
5.38868
5.45289
5.51368
5.57106
5.62502
5.67561
5.72284
5.76677
5.80741
5.84483
5.87909
5.91024
5.93833
5.96341
5.9855
6.00463
6.02084
6.03415
6.04458
6.05217
6.05696
6.05897
6.05823
6.05479
6.0487
6.04005
6.02888
6.01526
5.99928
5.98102
5.96055
5.93795
5.91327
5.88654
5.85782
5.82712
5.79453
5.76008
5.72377
5.68561
5.64562
5.60385
5.56038
5.51531
5.46869
5.42061
5.37115
5.32039
5.26844
5.21541
5.1614
5.10651
5.05084
4.99448
4.93753
4.88007
4.82219
4.76395
4.70543
4.6467
4.58783
4.52888
4.4699
4.41096
4.3521
4.29338
4.23485
4.17655
4.11851
4.06078
4.0034
3.9464
3.88981
3.83365
3.77796
3.72276
3.66806
3.6139
3.56027
3.50721
3.45471
3.4028
3.35148
3.30076
3.25063
3.20111
3.15219
3.10388
3.05617
3.00906
2.96254
2.91662
2.87127
2.8265
2.7823
2.73865
2.69554
2.65297
2.61092
2.56937
2.52832
2.48775
2.44765
2.408
2.36878
2.32999
2.2916
2.25361
2.21599
2.17873
2.14181
2.10523
2.06896
2.03299
1.9973
1.96188
1.92672
1.89179
1.85709
1.8226
1.78831
1.7542
1.72027
1.68648
1.65284
1.61933
1.58594
1.55265
1.51945
1.48632
1.45326
1.42025
1.38727
1.35432
1.32137
1.28842
1.25544
1.22242
1.18934
1.15619
1.12294
1.08958
1.05607
1.0224
0.98853
0.954433
0.920072
0.885406
0.850386
0.814955
0.779048
0.742583
0.705458
0.667543
0.628666
0.588586
0.546945
0.503179
0.456313
0.404462
0.343331
0.260275
0.110778
0.787594
1.18584
1.45127
1.66174
1.84602
2.0156
2.17591
2.32985
2.47905
2.62449
2.76677
2.90625
3.04319
3.17772
3.30993
3.43986
3.56754
3.69297
3.81612
3.93697
4.05547
4.17159
4.28528
4.39647
4.50511
4.61114
4.7145
4.8151
4.9129
5.00782
5.09978
5.18872
5.27457
5.35726
5.43672
5.51288
5.5857
5.65513
5.72111
5.78365
5.84271
5.89831
5.95046
5.99919
6.04452
6.08649
6.12513
6.16048
6.19258
6.22147
6.24719
6.26977
6.28926
6.30569
6.3191
6.32952
6.33697
6.34149
6.34312
6.34191
6.33791
6.33118
6.32177
6.30976
6.29521
6.27818
6.25876
6.23701
6.213
6.18678
6.1584
6.12792
6.09539
6.06086
6.02439
5.98602
5.94578
5.90372
5.85991
5.81441
5.76731
5.71868
5.66861
5.61717
5.56445
5.51056
5.45559
5.39963
5.34279
5.28516
5.22682
5.16788
5.10841
5.04848
4.98819
4.92761
4.86679
4.80582
4.74474
4.68364
4.62255
4.56154
4.50065
4.43994
4.37946
4.31923
4.25931
4.19974
4.14053
4.08174
4.02339
3.9655
3.9081
3.85122
3.79486
3.73906
3.68382
3.62917
3.5751
3.52163
3.46876
3.41651
3.36487
3.31385
3.26345
3.21366
3.16449
3.11592
3.06795
3.02059
2.97381
2.92761
2.88197
2.8369
2.79238
2.74839
2.70492
2.66197
2.6195
2.57752
2.53601
2.49494
2.45431
2.4141
2.3743
2.33488
2.29584
2.25716
2.21881
2.1808
2.14309
2.10568
2.06854
2.03168
1.99506
1.95867
1.92251
1.88655
1.85079
1.8152
1.77977
1.74449
1.70935
1.67434
1.63943
1.60461
1.56988
1.53521
1.5006
1.46603
1.43149
1.39695
1.36242
1.32786
1.29326
1.25862
1.2239
1.18909
1.15416
1.1191
1.08388
1.04846
1.01282
0.976924
0.940724
0.904175
0.867218
0.829785
0.79179
0.753127
0.713654
0.673185
0.631452
0.588058
0.542372
0.493307
0.438776
0.37409
0.285656
0.125809
0.787594
1.18584
1.45127
1.66174
1.84602
2.0156
2.17591
2.32985
2.47905
2.62449
2.76676
2.90625
3.04319
3.17771
3.30992
3.43986
3.56754
3.69297
3.81612
3.93696
4.05547
4.17159
4.28528
4.39647
4.50511
4.61114
4.71449
4.8151
4.9129
5.00781
5.09978
5.18872
5.27457
5.35725
5.43671
5.51288
5.5857
5.65512
5.72111
5.78364
5.84271
5.89832
5.95048
5.99922
6.04455
6.08652
6.12515
6.16049
6.19258
6.22147
6.24719
6.26978
6.28928
6.30571
6.31912
6.32952
6.33696
6.34148
6.34311
6.34191
6.33791
6.33117
6.32177
6.30975
6.2952
6.27817
6.25875
6.237
6.21299
6.18677
6.1584
6.12792
6.09538
6.06086
6.02439
5.98602
5.94578
5.90372
5.85991
5.81441
5.76731
5.71868
5.6686
5.61716
5.56445
5.51056
5.45558
5.39963
5.34279
5.28515
5.22682
5.16788
5.1084
5.04848
4.98819
4.9276
4.86679
4.80581
4.74474
4.68363
4.62255
4.56153
4.50065
4.43994
4.37945
4.31923
4.25931
4.19973
4.14053
4.08174
4.02339
3.9655
3.9081
3.85122
3.79486
3.73906
3.68382
3.62916
3.5751
3.52163
3.46876
3.41651
3.36487
3.31385
3.26345
3.21366
3.16448
3.11592
3.06795
3.02058
2.9738
2.9276
2.88197
2.8369
2.79238
2.74839
2.70492
2.66196
2.6195
2.57752
2.53601
2.49494
2.45431
2.4141
2.3743
2.33488
2.29584
2.25716
2.21881
2.18079
2.14309
2.10568
2.06854
2.03167
1.99506
1.95867
1.92251
1.88655
1.85078
1.8152
1.77977
1.74449
1.70935
1.67433
1.63942
1.60461
1.56988
1.53521
1.5006
1.46603
1.43149
1.39695
1.36241
1.32786
1.29326
1.25862
1.2239
1.18909
1.15416
1.1191
1.08388
1.04846
1.01282
0.976923
0.940724
0.904175
0.867218
0.829785
0.79179
0.753127
0.713654
0.673185
0.631452
0.588058
0.542373
0.493307
0.438776
0.374091
0.285657
0.125809
0.873482
1.2882
1.56704
1.78802
1.98092
2.15793
2.32489
2.48494
2.63988
2.79078
2.93831
3.08286
3.2247
3.36398
3.50079
3.63518
3.76716
3.89673
4.02386
4.14853
4.27069
4.3903
4.50731
4.62167
4.73331
4.84218
4.94822
5.05137