/*--------------------------------*- C++ -*----------------------------------*\
  =========                 |
  \\      /  F ield         | OpenFOAM: The Open Source CFD Toolbox
   \\    /   O peration     | Website:  https://openfoam.org
    \\  /    A nd           | Version:  8
     \\/     M anipulation  |
\*---------------------------------------------------------------------------*/
FoamFile
{
    version     2.0;
    format      ascii;
    class       volScalarField;
    location    "4800";
    object      nut;
}
// * * * * * * * * * * * * * * * * * * * * * * * * * * * * * * * * * * * * * //

dimensions      [0 2 -1 0 0 0 0];

internalField   nonuniform List<scalar> 
46000
(
2.97314e-06
1.04119e-05
1.79302e-05
2.48243e-05
3.13064e-05
3.75567e-05
4.36489e-05
4.96089e-05
5.54706e-05
6.12595e-05
6.69965e-05
7.26894e-05
7.83126e-05
8.38877e-05
8.94205e-05
9.49124e-05
0.000100362
0.000105769
0.000111128
0.000116436
0.00012169
0.000126884
0.000132012
0.00013707
0.000142051
0.000146949
0.000151758
0.00015647
0.000161079
0.000165578
0.000169957
0.000174209
0.000178323
0.000182288
0.00018609
0.000189712
0.00019313
0.000196311
0.000199192
0.000201625
0.000203121
0.000201852
0.000190577
3.37005e-05
3.43821e-05
0.000197354
0.00020776
0.000209734
0.000209694
0.00020947
0.000209684
0.000206883
0.000193613
3.39029e-05
3.24544e-05
3.25396e-05
3.43641e-05
0.000195111
0.000208011
0.00019449
3.63543e-05
0.000199543
0.000210733
0.000212233
0.000210775
0.000208602
0.000209483
0.000209225
0.000207454
0.000204313
0.000203637
0.000210461
0.00020643
0.000207968
0.000208153
0.000207785
0.000207194
0.000206573
0.000205942
0.000205358
0.000204466
0.000203119
0.000201368
0.000199326
0.000197089
0.000194722
0.000192266
0.000189745
0.000187174
0.000184564
0.000181924
0.000179259
0.000176575
0.000173878
0.000171171
0.000168459
0.000165745
0.000163033
0.000160325
0.000157625
0.000154936
0.00015226
0.000149599
0.000146955
0.000144331
0.000141729
0.00013915
0.000136595
0.000134067
0.000131566
0.000129094
0.000126651
0.000124239
0.000121858
0.000119508
0.000117192
0.000114908
0.000112657
0.00011044
0.000108257
0.000106107
0.000103991
0.000101909
9.98597e-05
9.78439e-05
9.58611e-05
9.39108e-05
9.19927e-05
9.01063e-05
8.82511e-05
8.64267e-05
8.46324e-05
8.28676e-05
8.11319e-05
7.94244e-05
7.77445e-05
7.60916e-05
7.4465e-05
7.2864e-05
7.12879e-05
6.97359e-05
6.82075e-05
6.67018e-05
6.52182e-05
6.3756e-05
6.23146e-05
6.08932e-05
5.94913e-05
5.81081e-05
5.67431e-05
5.53956e-05
5.40651e-05
5.27509e-05
5.14526e-05
5.01696e-05
4.89014e-05
4.76474e-05
4.64073e-05
4.51805e-05
4.39666e-05
4.27651e-05
4.15757e-05
4.03979e-05
3.92313e-05
3.80756e-05
3.69305e-05
3.57954e-05
3.46701e-05
3.35542e-05
3.24473e-05
3.13492e-05
3.02593e-05
2.91774e-05
2.81031e-05
2.70359e-05
2.59755e-05
2.49213e-05
2.3873e-05
2.28299e-05
2.17916e-05
2.07574e-05
1.97267e-05
1.86987e-05
1.76727e-05
1.66476e-05
1.56225e-05
1.45961e-05
1.35671e-05
1.25338e-05
1.14944e-05
1.04466e-05
9.38749e-06
8.31367e-06
7.22067e-06
6.10262e-06
4.95127e-06
3.75571e-06
2.50846e-06
1.23135e-06
2.47652e-07
2.97506e-06
1.04158e-05
1.79335e-05
2.48255e-05
3.13066e-05
3.75567e-05
4.36489e-05
4.96089e-05
5.54707e-05
6.12596e-05
6.69966e-05
7.26894e-05
7.83126e-05
8.38877e-05
8.94205e-05
9.49124e-05
0.000100362
0.000105769
0.000111128
0.000116436
0.00012169
0.000126884
0.000132012
0.00013707
0.000142051
0.000146949
0.000151757
0.00015647
0.000161079
0.000165578
0.000169957
0.000174209
0.000178323
0.000182287
0.000186088
0.000189708
0.000193122
0.0001963
0.000199198
0.000201752
0.000203852
0.000205263
0.000205495
0.000204203
0.000205438
0.000208659
0.00020965
0.000209468
0.00020904
0.000209297
0.000209417
0.000209341
0.000208639
0.000206573
0.000205924
0.000204353
0.000201556
0.000207384
0.000208445
0.000206278
0.000192299
3.65321e-05
0.000202225
0.000210788
0.000211921
0.000210339
0.000207984
0.000207068
0.000201747
0.000204918
0.000205346
0.000206984
0.000204888
0.000207443
0.000207972
0.000207725
0.000207182
0.000206579
0.000205953
0.000205367
0.000204471
0.000203121
0.000201368
0.000199325
0.000197088
0.000194721
0.000192265
0.000189744
0.000187174
0.000184564
0.000181923
0.000179259
0.000176575
0.000173878
0.000171171
0.000168459
0.000165745
0.000163032
0.000160325
0.000157625
0.000154936
0.000152259
0.000149598
0.000146955
0.000144331
0.000141729
0.00013915
0.000136595
0.000134067
0.000131566
0.000129094
0.000126651
0.000124238
0.000121857
0.000119508
0.000117192
0.000114908
0.000112657
0.00011044
0.000108257
0.000106107
0.000103991
0.000101909
9.98595e-05
9.78437e-05
9.58609e-05
9.39106e-05
9.19925e-05
9.01061e-05
8.82509e-05
8.64265e-05
8.46322e-05
8.28675e-05
8.11317e-05
7.94242e-05
7.77443e-05
7.60915e-05
7.44649e-05
7.28638e-05
7.12877e-05
6.97358e-05
6.82073e-05
6.67016e-05
6.52181e-05
6.37559e-05
6.23145e-05
6.08931e-05
5.94911e-05
5.8108e-05
5.67429e-05
5.53955e-05
5.40649e-05
5.27508e-05
5.14525e-05
5.01695e-05
4.89013e-05
4.76473e-05
4.64072e-05
4.51804e-05
4.39665e-05
4.2765e-05
4.15756e-05
4.03978e-05
3.92312e-05
3.80756e-05
3.69304e-05
3.57953e-05
3.467e-05
3.35541e-05
3.24473e-05
3.13491e-05
3.02593e-05
2.91774e-05
2.81031e-05
2.70359e-05
2.59754e-05
2.49213e-05
2.38729e-05
2.28299e-05
2.17916e-05
2.07574e-05
1.97267e-05
1.86987e-05
1.76726e-05
1.66476e-05
1.56224e-05
1.45961e-05
1.3567e-05
1.25338e-05
1.14944e-05
1.04465e-05
9.38747e-06
8.31365e-06
7.22066e-06
6.10261e-06
4.95126e-06
3.7557e-06
2.50846e-06
1.23135e-06
2.47652e-07
9.5697e-06
6.93381e-05
0.000114482
0.000146062
0.000170697
0.00019124
0.000209034
0.000225033
0.000239756
0.000253522
0.000266527
0.000278925
0.000290831
0.000302311
0.000313415
0.000324182
0.000334643
0.00034482
0.000354731
0.000364388
0.000373802
0.000382981
0.000391927
0.000400646
0.000409139
0.000417406
0.000425447
0.000433261
0.000440844
0.000448195
0.000455308
0.000462178
0.0004688
0.000475164
0.000481259
0.000487067
0.000492564
0.000497699
0.00050234
0.000506017
0.00050677
0.000496114
0.000441859
0.000285421
0.000290832
0.000458364
0.00050809
0.000517231
0.000517453
0.000515446
0.000511798
0.000498797
0.000443214
0.000285919
0.000268747
0.000270106
0.000290965
0.000444269
0.000473738
0.000445979
0.000316264
0.000459669
0.000510091
0.000518186
0.000516397
0.000511707
0.000506341
0.000503287
0.000502248
0.000500896
0.000496635
0.000493967
0.000507201
0.00051671
0.000519475
0.000518896
0.000517699
0.000517158
0.000517311
0.0005175
0.000517018
0.000515606
0.000513386
0.00051059
0.000507417
0.000503998
0.00050041
0.000496696
0.000492882
0.000488985
0.000485018
0.00048099
0.000476908
0.00047278
0.000468612
0.000464409
0.000460178
0.000455922
0.000451646
0.000447356
0.000443054
0.000438745
0.000434432
0.000430119
0.00042581
0.000421506
0.000417212
0.000412929
0.00040866
0.000404408
0.000400175
0.000395963
0.000391773
0.000387607
0.000383468
0.000379355
0.000375271
0.000371216
0.000367191
0.000363197
0.000359236
0.000355306
0.000351409
0.000347544
0.000343713
0.000339914
0.000336149
0.000332416
0.000328715
0.000325046
0.000321409
0.000317803
0.000314227
0.00031068
0.000307163
0.000303673
0.00030021
0.000296774
0.000293362
0.000289975
0.00028661
0.000283268
0.000279946
0.000276644
0.000273359
0.000270092
0.000266841
0.000263604
0.00026038
0.000257169
0.000253967
0.000250775
0.000247591
0.000244413
0.00024124
0.000238071
0.000234904
0.000231737
0.00022857
0.0002254
0.000222225
0.000219045
0.000215858
0.000212661
0.000209452
0.000206231
0.000202994
0.000199739
0.000196464
0.000193167
0.000189844
0.000186492
0.000183108
0.000179688
0.000176229
0.000172725
0.000169172
0.000165564
0.000161895
0.000158156
0.000154341
0.000150438
0.000146438
0.000142327
0.000138089
0.000133706
0.000129156
0.000124411
0.000119437
0.000114192
0.000108619
0.000102645
9.61658e-05
8.9036e-05
8.10323e-05
7.17899e-05
6.06411e-05
4.61615e-05
2.49097e-05
1.11555e-06
9.56679e-06
6.93402e-05
0.000114488
0.000146067
0.0001707
0.000191243
0.000209036
0.000225035
0.000239758
0.000253525
0.000266529
0.000278928
0.000290833
0.000302313
0.000313417
0.000324185
0.000334646
0.000344823
0.000354733
0.000364391
0.000373805
0.000382983
0.00039193
0.000400649
0.000409142
0.000417409
0.00042545
0.000433264
0.000440847
0.000448198
0.000455311
0.000462181
0.000468803
0.000475166
0.00048126
0.000487068
0.000492565
0.000497717
0.00050247
0.000506733
0.000510303
0.00051258
0.000511457
0.000499468
0.00049959
0.00051383
0.000518608
0.00051853
0.000516459
0.000514124
0.000512763
0.000512124
0.000509648
0.000496735
0.000492199
0.00048804
0.000480063
0.000475975
0.000474043
0.000472624
0.000438414
0.000317576
0.000471256
0.000512637
0.000517957
0.000515125
0.000509743
0.00050249
0.000492214
0.000477643
0.000473643
0.000482627
0.00050303
0.000515131
0.000518813
0.000518618
0.000517641
0.000517232
0.000517428
0.000517593
0.000517069
0.00051563
0.000513396
0.000510595
0.00050742
0.000504001
0.000500413
0.000496699
0.000492885
0.000488988
0.000485021
0.000480993
0.000476911
0.000472783
0.000468615
0.000464412
0.000460181
0.000455925
0.000451649
0.000447358
0.000443057
0.000438747
0.000434435
0.000430122
0.000425812
0.000421509
0.000417214
0.000412931
0.000408663
0.000404411
0.000400178
0.000395965
0.000391775
0.00038761
0.00038347
0.000379357
0.000375273
0.000371218
0.000367193
0.000363199
0.000359237
0.000355308
0.00035141
0.000347546
0.000343715
0.000339916
0.00033615
0.000332417
0.000328717
0.000325048
0.000321411
0.000317804
0.000314228
0.000310682
0.000307164
0.000303674
0.000300212
0.000296775
0.000293364
0.000289976
0.000286612
0.000283269
0.000279947
0.000276645
0.000273361
0.000270094
0.000266842
0.000263605
0.000260382
0.00025717
0.000253969
0.000250776
0.000247592
0.000244414
0.000241241
0.000238072
0.000234905
0.000231738
0.000228571
0.0002254
0.000222226
0.000219046
0.000215859
0.000212662
0.000209453
0.000206232
0.000202995
0.00019974
0.000196465
0.000193167
0.000189844
0.000186492
0.000183109
0.000179689
0.00017623
0.000172726
0.000169173
0.000165565
0.000161895
0.000158157
0.000154341
0.000150439
0.000146438
0.000142327
0.000138089
0.000133706
0.000129156
0.000124411
0.000119438
0.000114192
0.00010862
0.000102645
9.61661e-05
8.90363e-05
8.10325e-05
7.17901e-05
6.06413e-05
4.61616e-05
2.49097e-05
1.11555e-06
1.68212e-05
0.000110891
0.000198719
0.000264783
0.00031625
0.000358021
0.000393216
0.000423812
0.000451055
0.000475776
0.000498543
0.000519749
0.000539683
0.000558544
0.000576482
0.000593612
0.000610023
0.000625784
0.000640953
0.000655572
0.00066968
0.000683305
0.000696471
0.000709197
0.000721499
0.000733392
0.000744884
0.000755985
0.0007667
0.000777036
0.000786995
0.000796579
0.000805786
0.000814612
0.00082305
0.000831083
0.000838685
0.000845806
0.00085235
0.000858087
0.00086229
0.000862192
0.000846486
0.000773183
0.000766168
0.000836132
0.00086239
0.000867338
0.000865601
0.00086239
0.000860605
0.000859141
0.000845493
0.00077613
0.000756031
0.00075306
0.000761745
0.000819917
0.000840721
0.000842972
0.00079505
0.000843894
0.000864816
0.000867668
0.000864417
0.000858036
0.000851984
0.000849735
0.000851336
0.000850961
0.000847087
0.000850964
0.000864247
0.000873259
0.00087494
0.000873167
0.000871941
0.000872988
0.000875565
0.00087792
0.000878799
0.000877934
0.000875648
0.000872394
0.000868528
0.000864275
0.000859761
0.000855056
0.000850198
0.000845212
0.000840113
0.000834915
0.000829626
0.000824257
0.000818814
0.000813305
0.000807736
0.000802114
0.000796443
0.00079073
0.00078498
0.000779197
0.000773387
0.000767553
0.000761701
0.000755834
0.000749955
0.000744069
0.000738179
0.000732288
0.0007264
0.000720516
0.00071464
0.000708775
0.000702921
0.000697082
0.00069126
0.000685455
0.00067967
0.000673906
0.000668164
0.000662444
0.000656749
0.000651078
0.000645432
0.000639811
0.000634216
0.000628646
0.000623102
0.000617582
0.000612088
0.000606617
0.00060117
0.000595746
0.000590344
0.000584962
0.000579601
0.000574259
0.000568933
0.000563624
0.00055833
0.000553049
0.00054778
0.000542521
0.00053727
0.000532025
0.000526785
0.000521548
0.000516312
0.000511074
0.000505833
0.000500587
0.000495332
0.000490068
0.000484791
0.000479499
0.000474189
0.000468858
0.000463504
0.000458124
0.000452715
0.000447272
0.000441793
0.000436274
0.000430711
0.000425099
0.000419433
0.00041371
0.000407922
0.000402065
0.000396131
0.000390113
0.000384003
0.000377793
0.000371471
0.000365028
0.00035845
0.000351722
0.000344829
0.000337752
0.000330469
0.000322954
0.000315179
0.000307109
0.000298701
0.000289907
0.000280665
0.0002709
0.00026052
0.000249404
0.000237397
0.000224292
0.000209805
0.000193529
0.000174861
0.000152852
0.000125913
9.126e-05
4.48018e-05
2.27633e-06
1.68203e-05
0.000110892
0.000198723
0.000264788
0.000316254
0.000358026
0.00039322
0.000423817
0.000451059
0.00047578
0.000498547
0.000519754
0.000539687
0.000558548
0.000576486
0.000593616
0.000610027
0.000625788
0.000640957
0.000655577
0.000669684
0.000683309
0.000696475
0.000709201
0.000721504
0.000733396
0.000744888
0.000755989
0.000766705
0.00077704
0.000786999
0.000796583
0.000805789
0.000814615
0.000823051
0.00083108
0.000838672
0.000845779
0.000852322
0.000858179
0.000863151
0.00086683
0.000868015
0.000862365
0.00086159
0.000868583
0.000870909
0.000868776
0.000863966
0.000859063
0.000856304
0.000856154
0.000856655
0.00085212
0.000850138
0.000846063
0.000834995
0.000827776
0.000828431
0.000839555
0.000839388
0.000795408
0.000848078
0.000866765
0.000868466
0.000864762
0.000858512
0.000851285
0.000839767
0.000828189
0.000826107
0.000839133
0.000859016
0.000871054
0.000874039
0.000872927
0.000872108
0.00087336
0.000875932
0.000878166
0.000878925
0.000877985
0.000875666
0.0008724
0.000868531
0.000864278
0.000859764
0.000855059
0.000850201
0.000845215
0.000840116
0.000834918
0.000829629
0.00082426
0.000818817
0.000813308
0.000807739
0.000802116
0.000796446
0.000790733
0.000784982
0.0007792
0.000773389
0.000767556
0.000761703
0.000755836
0.000749957
0.000744071
0.000738181
0.00073229
0.000726402
0.000720518
0.000714642
0.000708776
0.000702923
0.000697084
0.000691261
0.000685457
0.000679671
0.000673907
0.000668165
0.000662446
0.00065675
0.000651079
0.000645433
0.000639813
0.000634217
0.000628647
0.000623103
0.000617583
0.000612089
0.000606618
0.000601171
0.000595747
0.000590345
0.000584963
0.000579602
0.000574259
0.000568934
0.000563625
0.000558331
0.00055305
0.000547781
0.000542521
0.00053727
0.000532026
0.000526786
0.000521549
0.000516312
0.000511075
0.000505834
0.000500587
0.000495333
0.000490068
0.000484791
0.000479499
0.000474189
0.000468859
0.000463505
0.000458125
0.000452715
0.000447272
0.000441793
0.000436274
0.000430711
0.000425099
0.000419434
0.00041371
0.000407922
0.000402065
0.000396131
0.000390113
0.000384003
0.000377793
0.000371471
0.000365028
0.00035845
0.000351722
0.000344829
0.000337752
0.000330469
0.000322954
0.000315179
0.000307109
0.000298701
0.000289907
0.000280665
0.0002709
0.00026052
0.000249404
0.000237397
0.000224292
0.000209805
0.000193529
0.000174862
0.000152852
0.000125913
9.126e-05
4.48017e-05
2.27634e-06
2.36436e-05
0.000140786
0.00026132
0.000358979
0.00043787
0.00050291
0.000557903
0.000605491
0.000647499
0.000685203
0.000719514
0.000751091
0.000780418
0.000807858
0.000833682
0.000858101
0.000881281
0.000903352
0.000924422
0.000944577
0.000963886
0.000982409
0.00100019
0.00101728
0.00103371
0.00104951
0.00106469
0.0010793
0.00109333
0.00110681
0.00111975
0.00113217
0.00114405
0.00115541
0.00116624
0.00117653
0.00118623
0.0011953
0.00120363
0.00121108
0.00121732
0.00122156
0.00122098
0.0012042
0.00120007
0.00121652
0.00122445
0.00122556
0.00122376
0.00122158
0.00122142
0.00122369
0.00122443
0.00121077
0.00120522
0.00120433
0.00120533
0.00121772
0.00122535
0.00123018
0.00122118
0.00123025
0.0012344
0.00123384
0.00123126
0.00122725
0.00122372
0.00122324
0.00122567
0.00122702
0.00122626
0.00122913
0.00123579
0.00123946
0.00123845
0.00123574
0.0012347
0.00123653
0.00124002
0.00124307
0.0012443
0.00124345
0.00124089
0.00123715
0.00123265
0.00122765
0.00122231
0.00121671
0.00121092
0.00120494
0.00119882
0.00119256
0.00118617
0.00117967
0.00117305
0.00116635
0.00115955
0.00115266
0.0011457
0.00113867
0.00113157
0.00112442
0.00111721
0.00110996
0.00110266
0.00109532
0.00108795
0.00108056
0.00107313
0.00106569
0.00105823
0.00105075
0.00104326
0.00103577
0.00102827
0.00102078
0.00101328
0.00100578
0.000998291
0.000990807
0.000983331
0.000975865
0.00096841
0.000960967
0.000953536
0.000946119
0.000938715
0.000931325
0.000923949
0.000916586
0.000909237
0.000901901
0.000894577
0.000887264
0.000879962
0.000872669
0.000865384
0.000858106
0.000850833
0.000843564
0.000836297
0.000829029
0.00082176
0.000814487
0.000807207
0.000799919
0.00079262
0.000785307
0.000777978
0.000770629
0.000763259
0.000755864
0.00074844
0.000740985
0.000733494
0.000725965
0.000718393
0.000710774
0.000703104
0.000695378
0.000687591
0.000679738
0.000671813
0.00066381
0.000655723
0.000647544
0.000639265
0.000630879
0.000622376
0.000613746
0.000604977
0.000596057
0.000586973
0.000577708
0.000568246
0.000558566
0.000548647
0.000538464
0.000527988
0.000517185
0.000506019
0.000494443
0.000482407
0.000469849
0.000456696
0.00044286
0.000428235
0.000412691
0.000396065
0.000378151
0.000358687
0.000337326
0.000313603
0.000286876
0.000256236
0.000220347
0.000177212
0.00012394
5.82016e-05
3.4146e-06
2.3644e-05
0.000140788
0.000261324
0.000358984
0.000437875
0.000502916
0.000557909
0.000605497
0.000647505
0.000685209
0.00071952
0.000751097
0.000780424
0.000807864
0.000833688
0.000858107
0.000881286
0.000903358
0.000924428
0.000944583
0.000963892
0.000982415
0.0010002
0.00101729
0.00103372
0.00104951
0.0010647
0.0010793
0.00109334
0.00110682
0.00111976
0.00113217
0.00114406
0.00115542
0.00116624
0.00117652
0.00118621
0.00119524
0.00120351
0.00121087
0.00121709
0.00122195
0.00122501
0.00122488
0.00122534
0.00122799
0.00122874
0.00122671
0.00122264
0.00121856
0.0012165
0.00121712
0.00121939
0.00122077
0.00122282
0.00122315
0.00121872
0.0012146
0.00121555
0.00122337
0.0012289
0.00122124
0.00123169
0.00123585
0.00123531
0.00123292
0.00122959
0.00122599
0.00122038
0.00121464
0.00121381
0.00122118
0.00123179
0.0012377
0.00123786
0.0012358
0.00123513
0.00123708
0.00124047
0.00124334
0.00124443
0.00124349
0.0012409
0.00123715
0.00123265
0.00122765
0.00122231
0.00121672
0.00121092
0.00120495
0.00119882
0.00119256
0.00118617
0.00117967
0.00117306
0.00116635
0.00115955
0.00115266
0.0011457
0.00113867
0.00113158
0.00112442
0.00111722
0.00110996
0.00110266
0.00109533
0.00108796
0.00108056
0.00107313
0.00106569
0.00105823
0.00105075
0.00104327
0.00103577
0.00102828
0.00102078
0.00101328
0.00100578
0.000998291
0.000990808
0.000983332
0.000975866
0.000968411
0.000960968
0.000953537
0.00094612
0.000938716
0.000931326
0.000923949
0.000916587
0.000909238
0.000901901
0.000894577
0.000887264
0.000879962
0.000872669
0.000865384
0.000858106
0.000850833
0.000843564
0.000836297
0.000829029
0.00082176
0.000814487
0.000807207
0.000799919
0.00079262
0.000785307
0.000777977
0.000770629
0.000763259
0.000755863
0.00074844
0.000740984
0.000733494
0.000725965
0.000718393
0.000710774
0.000703103
0.000695377
0.00068759
0.000679737
0.000671812
0.000663809
0.000655722
0.000647543
0.000639265
0.000630879
0.000622376
0.000613745
0.000604977
0.000596057
0.000586972
0.000577707
0.000568245
0.000558565
0.000548647
0.000538464
0.000527987
0.000517185
0.000506018
0.000494443
0.000482407
0.000469848
0.000456695
0.00044286
0.000428235
0.000412691
0.000396064
0.000378151
0.000358687
0.000337326
0.000313602
0.000286876
0.000256236
0.000220347
0.000177212
0.00012394
5.82014e-05
3.41461e-06
3.01768e-05
0.000165038
0.000310963
0.000435337
0.000539135
0.000626539
0.000701306
0.000766324
0.000823743
0.000875155
0.000921741
0.000964387
0.00100376
0.00104038
0.00107463
0.00110682
0.00113721
0.00116599
0.00119331
0.00121932
0.00124411
0.00126778
0.00129041
0.00131205
0.00133278
0.00135263
0.00137164
0.00138986
0.0014073
0.00142401
0.00143999
0.00145528
0.00146988
0.00148379
0.00149702
0.00150955
0.00152134
0.00153234
0.00154245
0.00155154
0.00155942
0.00156583
0.00157012
0.00156991
0.00157075
0.00157542
0.00157857
0.00157984
0.00158005
0.00158019
0.00158154
0.00158455
0.0015879
0.00158822
0.0015893
0.001591
0.00159235
0.0015953
0.00159806
0.00160073
0.00159989
0.00160097
0.00160092
0.00159993
0.00159856
0.00159673
0.0015951
0.00159496
0.00159637
0.00159748
0.00159755
0.00159847
0.00160033
0.00160049
0.00159833
0.00159558
0.00159434
0.0015953
0.00159743
0.0015991
0.00159922
0.00159752
0.00159427
0.00158988
0.00158471
0.00157899
0.00157289
0.00156648
0.00155983
0.00155296
0.00154589
0.00153865
0.00153126
0.00152371
0.00151603
0.00150821
0.00150028
0.00149223
0.00148408
0.00147583
0.00146749
0.00145907
0.00145057
0.00144199
0.00143335
0.00142465
0.0014159
0.00140709
0.00139823
0.00138934
0.00138041
0.00137144
0.00136244
0.00135342
0.00134438
0.00133532
0.00132624
0.00131715
0.00130805
0.00129893
0.00128981
0.00128069
0.00127156
0.00126243
0.00125329
0.00124416
0.00123502
0.00122589
0.00121675
0.00120762
0.00119848
0.00118934
0.0011802
0.00117106
0.00116192
0.00115277
0.00114361
0.00113444
0.00112527
0.00111608
0.00110688
0.00109767
0.00108843
0.00107918
0.0010699
0.00106059
0.00105125
0.00104188
0.00103248
0.00102303
0.00101354
0.00100401
0.000994416
0.00098477
0.000975064
0.000965291
0.000955447
0.000945526
0.000935522
0.000925428
0.000915239
0.000904945
0.000894541
0.000884016
0.000873361
0.000862567
0.000851622
0.000840514
0.00082923
0.000817754
0.000806071
0.000794162
0.000782008
0.000769584
0.000756867
0.000743828
0.000730433
0.000716647
0.000702426
0.000687723
0.000672481
0.000656636
0.000640112
0.00062282
0.000604654
0.000585488
0.00056517
0.000543515
0.000520295
0.000495225
0.000467945
0.000437994
0.000404765
0.000367455
0.000324973
0.000275829
0.000218
0.00014904
6.85388e-05
4.51789e-06
3.01774e-05
0.00016504
0.000310967
0.000435342
0.000539141
0.000626546
0.000701313
0.000766331
0.000823751
0.000875163
0.000921749
0.000964394
0.00100377
0.00104038
0.00107464
0.00110683
0.00113722
0.001166
0.00119332
0.00121932
0.00124412
0.00126779
0.00129041
0.00131206
0.00133279
0.00135263
0.00137165
0.00138986
0.00140731
0.00142401
0.00144
0.00145529
0.00146988
0.0014838
0.00149702
0.00150954
0.00152132
0.00153228
0.00154232
0.00155127
0.00155897
0.00156525
0.00157004
0.00157314
0.0015757
0.00157843
0.00158024
0.00158054
0.00157955
0.00157836
0.00157827
0.00157982
0.00158265
0.00158579
0.00158934
0.00159214
0.00159262
0.00159217
0.00159328
0.00159702
0.00160042
0.00160001
0.00160155
0.00160175
0.00160096
0.0015998
0.00159842
0.00159703
0.00159497
0.00159266
0.00159204
0.00159452
0.00159814
0.0015995
0.00159804
0.00159571
0.00159468
0.00159568
0.00159772
0.00159926
0.00159929
0.00159754
0.00159427
0.00158988
0.00158471
0.00157899
0.00157289
0.00156649
0.00155983
0.00155296
0.0015459
0.00153866
0.00153126
0.00152371
0.00151603
0.00150822
0.00150028
0.00149224
0.00148408
0.00147584
0.0014675
0.00145907
0.00145057
0.001442
0.00143336
0.00142465
0.0014159
0.00140709
0.00139823
0.00138934
0.00138041
0.00137144
0.00136245
0.00135342
0.00134438
0.00133532
0.00132624
0.00131715
0.00130805
0.00129893
0.00128981
0.00128069
0.00127156
0.00126243
0.00125329
0.00124416
0.00123502
0.00122589
0.00121675
0.00120762
0.00119848
0.00118934
0.0011802
0.00117106
0.00116192
0.00115277
0.00114361
0.00113444
0.00112527
0.00111608
0.00110688
0.00109767
0.00108843
0.00107918
0.0010699
0.00106059
0.00105125
0.00104188
0.00103248
0.00102303
0.00101354
0.001004
0.000994415
0.00098477
0.000975063
0.00096529
0.000955446
0.000945525
0.000935521
0.000925428
0.000915238
0.000904945
0.00089454
0.000884015
0.000873361
0.000862566
0.000851621
0.000840513
0.000829229
0.000817753
0.00080607
0.000794161
0.000782007
0.000769584
0.000756867
0.000743827
0.000730432
0.000716646
0.000702425
0.000687722
0.00067248
0.000656635
0.000640111
0.000622819
0.000604653
0.000585487
0.00056517
0.000543515
0.000520294
0.000495225
0.000467945
0.000437993
0.000404765
0.000367455
0.000324974
0.000275829
0.000218
0.00014904
6.85386e-05
4.5179e-06
3.65476e-05
0.000185864
0.000352274
0.00049926
0.000625148
0.000733116
0.000826592
0.000908475
0.000981061
0.00104613
0.00110506
0.00115891
0.0012085
0.00125447
0.00129733
0.00133748
0.00137525
0.00141088
0.0014446
0.00147658
0.00150697
0.0015359
0.00156346
0.00158974
0.00161483
0.00163879
0.00166168
0.00168355
0.00170444
0.00172439
0.00174343
0.0017616
0.0017789
0.00179536
0.00181097
0.00182572
0.0018396
0.00185254
0.00186447
0.00187529
0.0018849
0.00189318
0.0019
0.00190499
0.00190924
0.00191363
0.00191742
0.0019205
0.00192307
0.00192546
0.00192825
0.00193168
0.00193534
0.00193833
0.00194116
0.00194389
0.00194617
0.00194828
0.0019502
0.00195198
0.00195264
0.00195292
0.00195262
0.001952
0.00195128
0.00195034
0.00194937
0.00194887
0.00194896
0.00194904
0.00194874
0.00194848
0.00194824
0.0019471
0.00194485
0.00194232
0.00194059
0.00194
0.00193996
0.00193948
0.00193786
0.00193489
0.00193069
0.00192553
0.00191965
0.00191324
0.0019064
0.00189923
0.00189178
0.00188407
0.00187614
0.00186799
0.00185966
0.00185115
0.00184247
0.00183363
0.00182464
0.00181552
0.00180626
0.00179688
0.00178739
0.00177779
0.00176808
0.00175828
0.0017484
0.00173842
0.00172838
0.00171826
0.00170807
0.00169782
0.00168752
0.00167716
0.00166676
0.00165631
0.00164582
0.0016353
0.00162474
0.00161416
0.00160354
0.0015929
0.00158224
0.00157155
0.00156085
0.00155013
0.00153939
0.00152863
0.00151786
0.00150708
0.00149628
0.00148546
0.00147463
0.00146379
0.00145292
0.00144204
0.00143114
0.00142022
0.00140927
0.00139831
0.00138731
0.00137629
0.00136524
0.00135415
0.00134302
0.00133186
0.00132065
0.0013094
0.00129809
0.00128673
0.00127532
0.00126384
0.00125229
0.00124067
0.00122897
0.00121719
0.00120532
0.00119336
0.00118129
0.00116911
0.00115682
0.0011444
0.00113185
0.00111915
0.0011063
0.00109328
0.00108009
0.0010667
0.00105311
0.0010393
0.00102525
0.00101094
0.000996344
0.000981447
0.000966218
0.000950628
0.000934642
0.000918223
0.000901327
0.000883906
0.000865903
0.000847255
0.000827888
0.000807717
0.000786643
0.000764549
0.000741299
0.00071673
0.000690649
0.00066282
0.000632958
0.000600713
0.000565647
0.000527211
0.000484705
0.000437228
0.000383614
0.00032236
0.000251608
0.000169489
7.71737e-05
5.59429e-06
3.6548e-05
0.000185866
0.000352278
0.000499266
0.000625155
0.000733123
0.000826601
0.000908484
0.00098107
0.00104614
0.00110507
0.00115892
0.00120851
0.00125448
0.00129734
0.00133749
0.00137526
0.00141089
0.00144461
0.00147659
0.00150698
0.0015359
0.00156346
0.00158975
0.00161484
0.0016388
0.00166169
0.00168356
0.00170445
0.0017244
0.00174344
0.0017616
0.00177891
0.00179536
0.00181097
0.00182573
0.00183959
0.0018525
0.00186438
0.0018751
0.00188453
0.00189261
0.00189935
0.00190489
0.00190969
0.0019141
0.00191789
0.0019208
0.00192288
0.00192459
0.0019266
0.00192925
0.00193249
0.00193599
0.00193967
0.00194305
0.00194541
0.00194694
0.0019485
0.00195059
0.00195245
0.00195304
0.00195327
0.00195295
0.00195234
0.00195162
0.00195079
0.00194993
0.00194884
0.0019476
0.00194681
0.00194694
0.00194731
0.00194666
0.00194471
0.00194237
0.00194073
0.00194015
0.00194006
0.00193953
0.00193787
0.00193488
0.00193068
0.00192553
0.00191965
0.00191324
0.00190641
0.00189924
0.00189178
0.00188407
0.00187614
0.001868
0.00185966
0.00185115
0.00184247
0.00183363
0.00182465
0.00181552
0.00180627
0.00179689
0.00178739
0.00177779
0.00176809
0.00175829
0.0017484
0.00173843
0.00172838
0.00171826
0.00170807
0.00169782
0.00168752
0.00167716
0.00166676
0.00165631
0.00164583
0.0016353
0.00162474
0.00161416
0.00160354
0.0015929
0.00158224
0.00157155
0.00156085
0.00155013
0.00153939
0.00152863
0.00151786
0.00150708
0.00149628
0.00148546
0.00147463
0.00146379
0.00145292
0.00144204
0.00143114
0.00142022
0.00140927
0.00139831
0.00138731
0.00137629
0.00136524
0.00135415
0.00134302
0.00133186
0.00132065
0.0013094
0.00129809
0.00128673
0.00127532
0.00126384
0.00125229
0.00124067
0.00122897
0.00121719
0.00120532
0.00119336
0.00118129
0.00116911
0.00115682
0.0011444
0.00113185
0.00111915
0.0011063
0.00109328
0.00108009
0.0010667
0.00105311
0.0010393
0.00102525
0.00101093
0.000996343
0.000981446
0.000966218
0.000950627
0.000934642
0.000918222
0.000901327
0.000883905
0.000865902
0.000847254
0.000827887
0.000807716
0.000786642
0.000764548
0.000741298
0.000716729
0.000690648
0.000662819
0.000632958
0.000600713
0.000565647
0.000527211
0.000484705
0.000437228
0.000383614
0.000322361
0.000251609
0.000169489
7.71734e-05
5.59431e-06
4.27857e-05
0.000204371
0.000388005
0.00055438
0.000699768
0.000826344
0.000937119
0.00103487
0.00112194
0.0012002
0.00127116
0.001336
0.00139567
0.00145091
0.00150233
0.0015504
0.00159552
0.001638
0.00167812
0.00171608
0.00175207
0.00178625
0.00181874
0.00184967
0.00187912
0.00190719
0.00193395
0.00195946
0.00198378
0.00200696
0.00202904
0.00205006
0.00207005
0.00208903
0.002107
0.00212397
0.00213991
0.00215481
0.00216861
0.00218124
0.00219265
0.0022028
0.00221171
0.00221938
0.00222613
0.00223227
0.00223782
0.00224283
0.00224737
0.00225157
0.00225567
0.00225979
0.00226383
0.00226754
0.00227097
0.00227414
0.00227694
0.00227935
0.0022814
0.00228311
0.00228421
0.00228474
0.00228478
0.00228448
0.00228397
0.00228323
0.00228232
0.00228142
0.00228063
0.00227984
0.0022789
0.00227787
0.00227668
0.00227499
0.00227269
0.00227012
0.00226774
0.0022657
0.0022637
0.00226126
0.00225799
0.00225374
0.00224857
0.00224261
0.00223601
0.00222889
0.00222135
0.00221345
0.00220523
0.00219673
0.00218798
0.00217898
0.00216977
0.00216034
0.00215073
0.00214093
0.00213096
0.00212082
0.00211053
0.00210009
0.00208951
0.00207881
0.00206798
0.00205703
0.00204597
0.00203481
0.00202356
0.00201221
0.00200078
0.00198926
0.00197768
0.00196602
0.0019543
0.00194251
0.00193067
0.00191878
0.00190684
0.00189485
0.00188282
0.00187075
0.00185864
0.00184649
0.00183431
0.0018221
0.00180985
0.00179757
0.00178527
0.00177293
0.00176056
0.00174817
0.00173574
0.00172328
0.00171079
0.00169827
0.00168571
0.00167312
0.00166049
0.00164781
0.00163509
0.00162233
0.00160952
0.00159665
0.00158373
0.00157075