/*--------------------------------*- C++ -*----------------------------------*\
  =========                 |
  \\      /  F ield         | OpenFOAM: The Open Source CFD Toolbox
   \\    /   O peration     | Website:  https://openfoam.org
    \\  /    A nd           | Version:  8
     \\/     M anipulation  |
\*---------------------------------------------------------------------------*/
FoamFile
{
    version     2.0;
    format      ascii;
    class       surfaceScalarField;
    location    "4800";
    object      phi;
}
// * * * * * * * * * * * * * * * * * * * * * * * * * * * * * * * * * * * * * //

dimensions      [1 0 -1 0 0 0 0];

internalField   nonuniform List<scalar> 
114370
(
8.72752e-10
-4.9242e-14
-8.72704e-10
2.11695e-09
4.15131e-12
-1.26189e-09
3.16735e-09
3.61205e-12
-1.04779e-09
3.79091e-09
1.78908e-12
-6.23041e-10
3.99248e-09
5.74116e-13
-2.01585e-10
3.82934e-09
6.80199e-14
1.63126e-10
3.36864e-09
-6.85766e-14
4.60722e-10
2.67181e-09
-7.41512e-14
6.96819e-10
1.78993e-09
-5.05382e-14
8.81788e-10
7.63832e-10
-2.90596e-14
1.02595e-09
-3.73575e-10
-1.50806e-14
1.13721e-09
-1.59507e-09
-7.37606e-15
1.22128e-09
-2.87904e-09
-3.85123e-15
1.28376e-09
-4.2088e-09
-2.3802e-15
1.32956e-09
-5.57079e-09
-1.24299e-15
1.36183e-09
-6.95397e-09
4.79032e-16
1.38304e-09
-8.34921e-09
2.77937e-15
1.39511e-09
-9.74893e-09
4.96181e-15
1.39959e-09
-1.11468e-08
6.02422e-15
1.3977e-09
-1.25374e-08
5.07537e-15
1.39042e-09
-1.39162e-08
1.77674e-15
1.37856e-09
-1.52792e-08
-3.29609e-15
1.36278e-09
-1.66231e-08
-8.56829e-15
1.34363e-09
-1.7945e-08
-1.18378e-14
1.32157e-09
-1.92422e-08
-1.1098e-14
1.29699e-09
-2.05127e-08
-5.53151e-15
1.27023e-09
-2.17544e-08
3.80857e-15
1.24157e-09
-2.29657e-08
1.41741e-14
1.21123e-09
-2.41452e-08
2.24253e-14
1.1794e-09
-2.52914e-08
2.71297e-14
1.14623e-09
-2.64034e-08
3.03882e-14
1.11186e-09
-2.74798e-08
3.79257e-14
1.0764e-09
-2.85197e-08
5.65092e-14
1.03994e-09
-2.95223e-08
8.93398e-14
1.00257e-09
-3.04866e-08
1.31961e-13
9.64309e-10
-3.14118e-08
1.71928e-13
9.25121e-10
-3.22969e-08
1.93781e-13
8.8496e-10
-3.31411e-08
1.87505e-13
8.43858e-10
-3.39436e-08
1.58146e-13
8.02141e-10
-3.47047e-08
1.37846e-13
7.60804e-10
-3.54268e-08
1.83744e-13
7.21939e-10
-3.61154e-08
2.87851e-13
6.88449e-10
-3.6777e-08
2.70691e-13
6.61361e-10
-3.74094e-08
3.92425e-13
6.31837e-10
-3.79973e-08
7.38219e-13
5.87082e-10
-3.85488e-08
1.02178e-12
5.50658e-10
-3.91097e-08
4.55591e-13
5.60577e-10
-3.96182e-08
8.83208e-13
5.07476e-10
-3.99728e-08
9.69438e-12
3.45184e-10
-4.04539e-08
8.20369e-12
4.72611e-10
-4.09352e-08
2.0816e-12
4.78928e-10
-4.10564e-08
1.32174e-11
1.08077e-10
-4.12029e-08
7.31655e-12
1.39051e-10
-4.14889e-08
2.2296e-12
2.8394e-10
-4.17696e-08
2.38535e-12
2.78316e-10
-4.19313e-08
5.84697e-12
1.55741e-10
-4.20599e-08
2.65687e-11
1.02162e-10
-4.23685e-08
1.53685e-11
2.935e-10
-4.24085e-08
-9.98264e-12
5.03086e-11
-4.21871e-08
-3.27295e-11
-1.88604e-10
-4.21364e-08
-3.85959e-11
-1.19798e-11
-4.22228e-08
-2.0304e-11
1.06515e-10
-4.23621e-08
-1.43817e-11
1.53086e-10
-4.22733e-08
3.1676e-13
-8.92364e-11
-4.19858e-08
8.23057e-12
-2.95828e-10
-4.18768e-08
-1.215e-11
-9.72197e-11
-4.1928e-08
-2.61275e-12
5.37489e-11
-4.16904e-08
2.31244e-11
-2.60776e-10
-4.12504e-08
5.68465e-11
-4.96313e-10
-4.09817e-08
5.22759e-11
-3.20678e-10
-4.09688e-08
-2.42229e-11
1.13524e-11
-4.06083e-08
-5.02719e-11
-3.09961e-10
-4.00014e-08
-2.03171e-11
-5.86573e-10
-3.96948e-08
-8.30534e-12
-2.9844e-10
-3.95325e-08
-3.4257e-12
-1.59029e-10
-3.93525e-08
-1.49877e-12
-1.78861e-10
-3.89189e-08
-7.44611e-13
-4.33152e-10
-3.83073e-08
-4.10931e-13
-6.11292e-10
-3.77591e-08
-1.66279e-13
-5.47911e-10
-3.73115e-08
2.8165e-14
-4.47531e-10
-3.68821e-08
9.83409e-14
-4.29513e-10
-3.643e-08
5.87397e-14
-4.52219e-10
-3.59499e-08
2.2932e-15
-4.80103e-10
-3.54459e-08
-2.49042e-14
-5.03838e-10
-3.49228e-08
-3.04446e-14
-5.23148e-10
-3.43837e-08
-2.0126e-14
-5.39142e-10
-3.38311e-08
-3.16682e-15
-5.52725e-10
-3.32665e-08
3.17414e-15
-5.64529e-10
-3.26915e-08
-6.55056e-15
-5.74968e-10
-3.21072e-08
-1.96534e-14
-5.84268e-10
-3.15146e-08
-2.0711e-14
-5.92539e-10
-3.09146e-08
-6.45629e-15
-5.99842e-10
-3.03083e-08
1.38509e-14
-6.06233e-10
-2.96965e-08
2.79649e-14
-6.11769e-10
-2.90801e-08
2.93715e-14
-6.165e-10
-2.84598e-08
1.9554e-14
-6.20462e-10
-2.78363e-08
4.90506e-15
-6.23677e-10
-2.72102e-08
-7.8457e-15
-6.26158e-10
-2.65824e-08
-1.4704e-14
-6.27914e-10
-2.59534e-08
-1.51125e-14
-6.28955e-10
-2.53241e-08
-1.09421e-14
-6.29295e-10
-2.46951e-08
-4.90995e-15
-6.28953e-10
-2.40671e-08
6.88268e-16
-6.27949e-10
-2.34408e-08
4.55946e-15
-6.26308e-10
-2.28167e-08
6.37713e-15
-6.24055e-10
-2.21955e-08
6.43855e-15
-6.21213e-10
-2.15778e-08
5.29796e-15
-6.17804e-10
-2.0964e-08
3.53955e-15
-6.13848e-10
-2.03547e-08
1.67597e-15
-6.09364e-10
-1.97504e-08
1.01922e-16
-6.04371e-10
-1.91516e-08
-9.48617e-16
-5.98887e-10
-1.85587e-08
-1.4312e-15
-5.9293e-10
-1.79722e-08
-1.47538e-15
-5.86518e-10
-1.73926e-08
-1.30337e-15
-5.79673e-10
-1.68202e-08
-1.11434e-15
-5.72414e-10
-1.62555e-08
-9.93402e-16
-5.6476e-10
-1.56988e-08
-8.94741e-16
-5.56729e-10
-1.51504e-08
-6.94111e-16
-5.48341e-10
-1.46108e-08
-2.86019e-16
-5.39611e-10
-1.40803e-08
3.43847e-16
-5.30557e-10
-1.35591e-08
1.09417e-15
-5.21196e-10
-1.30476e-08
1.78757e-15
-5.11545e-10
-1.2546e-08
2.24526e-15
-5.01622e-10
-1.20545e-08
2.35856e-15
-4.91443e-10
-1.15735e-08
2.12643e-15
-4.81024e-10
-1.11032e-08
1.64905e-15
-4.7038e-10
-1.06437e-08
1.08754e-15
-4.59527e-10
-1.01953e-08
6.06696e-16
-4.48477e-10
-9.75808e-09
3.2762e-16
-4.37242e-10
-9.33228e-09
2.98452e-16
-4.25837e-10
-8.91804e-09
4.93497e-16
-4.14273e-10
-8.51551e-09
8.35668e-16
-4.02564e-10
-8.12482e-09
1.22489e-15
-3.90722e-10
-7.7461e-09
1.56934e-15
-3.7876e-10
-7.37944e-09
1.80667e-15
-3.6669e-10
-7.02496e-09
1.91389e-15
-3.54527e-10
-6.68272e-09
1.90023e-15
-3.42282e-10
-6.3528e-09
1.80113e-15
-3.29969e-10
-6.03525e-09
1.65931e-15
-3.17599e-10
-5.73011e-09
1.51597e-15
-3.05187e-10
-5.43742e-09
1.40213e-15
-2.92744e-10
-5.15719e-09
1.33382e-15
-2.80285e-10
-4.88942e-09
1.31462e-15
-2.67824e-10
-4.63409e-09
1.34042e-15
-2.55375e-10
-4.39119e-09
1.39788e-15
-2.42954e-10
-4.16067e-09
1.47528e-15
-2.30577e-10
-3.94246e-09
1.55919e-15
-2.1826e-10
-3.7365e-09
1.6366e-15
-2.06022e-10
-3.54267e-09
1.70045e-15
-1.93882e-10
-3.36087e-09
1.74435e-15
-1.81859e-10
-3.19095e-09
1.76527e-15
-1.69974e-10
-3.03276e-09
1.76602e-15
-1.5825e-10
-2.88612e-09
1.75018e-15
-1.46709e-10
-2.7508e-09
1.72133e-15
-1.35375e-10
-2.62659e-09
1.68771e-15
-1.24275e-10
-2.51322e-09
1.65474e-15
-1.13434e-10
-2.41041e-09
1.62318e-15
-1.02882e-10
-2.31783e-09
1.59487e-15
-9.26471e-11
-2.23513e-09
1.56927e-15
-8.27603e-11
-2.16195e-09
1.54009e-15
-7.32533e-11
-2.09786e-09
1.50365e-15
-6.41595e-11
-2.04242e-09
1.45636e-15
-5.55131e-11
-1.99514e-09
1.39336e-15
-4.73497e-11
-1.9555e-09
1.31452e-15
-3.97057e-11
-1.92296e-09
1.22126e-15
-3.2619e-11
-1.8969e-09
1.11434e-15
-2.61278e-11
-1.8767e-09
9.98968e-16
-2.02716e-11
-1.86168e-09
8.77086e-16
-1.50904e-11
-1.85112e-09
7.52602e-16
-1.06248e-11
-1.84428e-09
6.25732e-16
-6.91584e-12
-1.84034e-09
4.96042e-16
-4.00479e-12
-1.83847e-09
3.59847e-16
-1.93309e-12
-1.83779e-09
2.12159e-16
-7.42007e-13
-1.83738e-09
4.99422e-17
-4.72445e-13
-1.83628e-09
-1.28538e-16
-1.16463e-12
-1.83348e-09
-3.23281e-16
-2.85768e-12
-1.82794e-09
-5.31252e-16
-5.58914e-12
-1.8186e-09
-7.47247e-16
-9.39435e-12
-1.80434e-09
-9.68012e-16
-1.43057e-11
-1.78404e-09
-1.1942e-15
-2.03516e-11
-1.75652e-09
-1.43296e-15
-2.75548e-11
-1.72063e-09
-1.69167e-15
-3.5931e-11
-1.67517e-09
-1.98052e-15
-4.54848e-11
-1.61899e-09
-2.30212e-15
-5.62068e-11
-1.55095e-09
-2.6532e-15
-6.80661e-11
-1.46996e-09
-3.03356e-15
-8.10021e-11
-1.37506e-09
-3.43928e-15
-9.49106e-11
-1.26544e-09
-3.8823e-15
-1.09623e-10
-1.14056e-09
-4.36847e-15
-1.24873e-10
-1.0003e-09
-4.9045e-15
-1.40251e-10
-8.45158e-10
-5.48845e-15
-1.55122e-10
-6.76624e-10
-6.12617e-15
-1.68505e-10
-4.97707e-10
-6.83911e-15
-1.78879e-10
-3.13779e-10
-7.66782e-15
-1.83879e-10
-1.33876e-10
-8.65653e-15
-1.79844e-10
2.73873e-11
-9.83427e-15
-1.61192e-10
1.47395e-10
-1.1106e-14
-1.19923e-10
1.94057e-10
-1.20321e-14
-4.65628e-11
1.36442e-10
-1.06668e-14
5.77321e-11
-4.28688e-15
1.36575e-10
8.80508e-10
-8.79764e-10
2.11465e-09
-1.26457e-09
3.16463e-09
-1.04887e-09
3.79018e-09
-6.23168e-10
3.99282e-09
-2.01424e-10
3.82993e-09
1.63273e-10
3.36912e-09
4.60797e-10
2.67211e-09
6.96841e-10
1.79009e-09
8.81781e-10
7.63889e-10
1.02593e-09
-3.73571e-10
1.13719e-09
-1.59509e-09
1.22125e-09
-2.87907e-09
1.28373e-09
-4.20881e-09
1.32953e-09
-5.57079e-09
1.3618e-09
-6.95395e-09
1.38301e-09
-8.34918e-09
1.39509e-09
-9.74889e-09
1.39957e-09
-1.11467e-08
1.39767e-09
-1.25374e-08
1.39038e-09
-1.39162e-08
1.37852e-09
-1.52792e-08
1.36274e-09
-1.66232e-08
1.34358e-09
-1.7945e-08
1.32153e-09
-1.92423e-08
1.29696e-09
-2.05127e-08
1.27021e-09
-2.17544e-08
1.24156e-09
-2.29657e-08
1.21123e-09
-2.41451e-08
1.1794e-09
-2.52913e-08
1.14622e-09
-2.64031e-08
1.11184e-09
-2.74794e-08
1.07636e-09
-2.85191e-08
1.03988e-09
-2.95213e-08
1.00246e-09
-3.04851e-08
9.64074e-10
-3.14096e-08
9.24646e-10
-3.22936e-08
8.84035e-10
-3.31358e-08
8.42145e-10
-3.3935e-08
7.99155e-10
-3.4691e-08
7.56066e-10
-3.54066e-08
7.1601e-10
-3.60931e-08
6.86975e-10
-3.67747e-08
6.81915e-10
-3.74649e-08
6.90448e-10
-3.81036e-08
6.39494e-10
-3.85986e-08
4.96182e-10
-3.8981e-08
3.8278e-10
-3.93799e-08
3.99883e-10
-3.98948e-08
5.24961e-10
-4.04555e-08
5.69464e-10
-4.08255e-08
3.72559e-10
-4.1092e-08
2.79998e-10
-4.13435e-08
2.59311e-10
-4.15889e-08
2.47329e-10
-4.17362e-08
1.48444e-10
-4.16886e-08
-4.24084e-11
-4.19197e-08
2.57443e-10
-4.24285e-08
5.24173e-10
-4.25235e-08
8.42733e-11
-4.22072e-08
-3.49453e-10
-4.21228e-08
-1.22476e-10
-4.22293e-08
8.69504e-11
-4.21806e-08
-6.23169e-11
-4.21826e-08
2.2817e-12
-4.22001e-08
2.58096e-11
-4.19276e-08
-2.83869e-10
-4.17444e-08
-1.8621e-10
-4.14475e-08
-2.74247e-10
-4.12684e-08
-1.22607e-10
-4.13799e-08
1.6366e-10
-4.11345e-08
-2.70085e-10
-4.04689e-08
-7.16544e-10
-3.99261e-08
-5.62713e-10
-3.96637e-08
-2.69917e-10
-3.95202e-08
-1.464e-10
-3.93477e-08
-1.74104e-10
-3.8917e-08
-4.31453e-10
-3.83064e-08
-6.10857e-10
-3.77587e-08
-5.47958e-10
-3.73114e-08
-4.47766e-10
-3.68821e-08
-4.29724e-10
-3.64299e-08
-4.5223e-10
-3.59497e-08
-4.80019e-10
-3.54459e-08
-5.03817e-10
-3.49228e-08
-5.23181e-10
-3.43837e-08
-5.39158e-10
-3.3831e-08
-5.52709e-10
-3.32665e-08
-5.64508e-10
-3.26915e-08
-5.74956e-10
-3.21072e-08
-5.84263e-10
-3.15145e-08
-5.92533e-10
-3.09146e-08
-5.99834e-10
-3.03083e-08
-6.06228e-10
-2.96965e-08
-6.11771e-10
-2.90801e-08
-6.16509e-10
-2.84598e-08
-6.20474e-10
-2.78362e-08
-6.23689e-10
-2.72102e-08
-6.26167e-10
-2.65823e-08
-6.27919e-10
-2.59534e-08
-6.28956e-10
-2.53241e-08
-6.29293e-10
-2.46951e-08
-6.2895e-10
-2.40671e-08
-6.27947e-10
-2.34408e-08
-6.26308e-10
-2.28167e-08
-6.24058e-10
-2.21955e-08
-6.21219e-10
-2.15778e-08
-6.17812e-10
-2.0964e-08
-6.13858e-10
-2.03547e-08
-6.09374e-10
-1.97504e-08
-6.0438e-10
-1.91516e-08
-5.98894e-10
-1.85587e-08
-5.92935e-10
-1.79722e-08
-5.86522e-10
-1.73926e-08
-5.79676e-10
-1.68202e-08
-5.72416e-10
-1.62555e-08
-5.64762e-10
-1.56987e-08
-5.56731e-10
-1.51504e-08
-5.48342e-10
-1.46108e-08
-5.39612e-10
-1.40803e-08
-5.30558e-10
-1.35591e-08
-5.21197e-10
-1.30475e-08
-5.11547e-10
-1.25459e-08
-5.01624e-10
-1.20545e-08
-4.91446e-10
-1.15735e-08
-4.81028e-10
-1.11032e-08
-4.70385e-10
-1.06437e-08
-4.59532e-10
-1.01953e-08
-4.48482e-10
-9.75807e-09
-4.37247e-10
-9.33227e-09
-4.25842e-10
-8.91803e-09
-4.14278e-10
-8.5155e-09
-4.02568e-10
-8.12481e-09
-3.90726e-10
-7.74608e-09
-3.78764e-10
-7.37943e-09
-3.66695e-10
-7.02494e-09
-3.54532e-10
-6.6827e-09
-3.42288e-10
-6.35278e-09
-3.29975e-10
-6.03523e-09
-3.17606e-10
-5.7301e-09
-3.05193e-10
-5.4374e-09
-2.92751e-10
-5.15717e-09
-2.80292e-10
-4.8894e-09
-2.67831e-10
-4.63408e-09
-2.55382e-10
-4.39118e-09
-2.42961e-10
-4.16066e-09
-2.30584e-10
-3.94245e-09
-2.18267e-10
-3.73648e-09
-2.0603e-10
-3.54266e-09
-1.93889e-10
-3.36085e-09
-1.81867e-10
-3.19094e-09
-1.69982e-10
-3.03275e-09
-1.58258e-10
-2.8861e-09
-1.46717e-10
-2.75079e-09
-1.35383e-10
-2.62658e-09
-1.24283e-10
-2.51321e-09
-1.13443e-10
-2.41039e-09
-1.02891e-10
-2.31781e-09
-9.26561e-11
-2.23512e-09
-8.27694e-11
-2.16194e-09
-7.32626e-11
-2.09785e-09
-6.41689e-11
-2.0424e-09
-5.55227e-11
-1.99512e-09
-4.73593e-11
-1.95549e-09
-3.97155e-11
-1.92294e-09
-3.26287e-11
-1.89689e-09
-2.61376e-11
-1.87669e-09
-2.02813e-11
-1.86167e-09
-1.51001e-11
-1.85111e-09
-1.06343e-11
-1.84427e-09
-6.92522e-12
-1.84033e-09
-4.01401e-12
-1.83846e-09
-1.94213e-12
-1.83778e-09
-7.50854e-13
-1.83737e-09
-4.81082e-13
-1.83627e-09
-1.17303e-12
-1.83347e-09
-2.86583e-12
-1.82794e-09
-5.597e-12
-1.81859e-09
-9.40189e-12
-1.80434e-09
-1.43129e-11
-1.78403e-09
-2.03584e-11
-1.75652e-09
-2.75612e-11
-1.72062e-09
-3.5937e-11
-1.67517e-09
-4.54904e-11
-1.61899e-09
-5.6212e-11
-1.55094e-09
-6.80708e-11
-1.46996e-09
-8.10064e-11
-1.37506e-09
-9.49144e-11
-1.26544e-09
-1.09626e-10
-1.14056e-09
-1.24876e-10
-1.0003e-09
-1.40254e-10
-8.45159e-10
-1.55124e-10
-6.76626e-10
-1.68507e-10
-4.97709e-10
-1.7888e-10
-3.13783e-10
-1.8388e-10
-1.3388e-10
-1.79844e-10
2.73819e-11
-1.61192e-10
1.47389e-10
-1.19924e-10
1.94053e-10
-4.65649e-11
1.36446e-10
5.77307e-11
1.36582e-10
1.27661e-09
-4.16139e-12
-2.12939e-09
2.01341e-09
-3.64981e-13
-1.99807e-09
2.39486e-09
2.99674e-13
-1.42845e-09
2.50029e-09
2.44736e-13
-7.28379e-10
2.35213e-09
9.47983e-14
-5.34259e-11
1.97513e-09
1.08397e-14
5.40097e-10
1.39766e-09
-1.72652e-14
1.03811e-09
6.48845e-10
-2.03095e-14
1.44549e-09
-2.43134e-10
-1.59219e-14
1.77357e-09
-1.2521e-09
-1.10992e-14
2.03468e-09
-2.35512e-09
-7.76409e-15
2.23999e-09
-3.53311e-09
-5.99029e-15
2.39904e-09
-4.76969e-09
-5.29405e-15
2.52014e-09
-6.05072e-09
-5.07464e-15
2.61041e-09
-7.36428e-09
-4.85439e-15
2.67523e-09
-8.7003e-09
-4.4151e-15
2.71892e-09
-1.00503e-08
-3.80703e-15
2.74494e-09
-1.14069e-08
-3.27049e-15
2.75609e-09
-1.27641e-08
-3.1202e-15
2.75467e-09
-1.41165e-08
-3.60213e-15
2.74255e-09
-1.54595e-08
-4.73426e-15
2.72126e-09
-1.67891e-08
-6.18947e-15
2.69211e-09
-1.8102e-08
-7.30848e-15
2.65615e-09
-1.9395e-08
-7.30252e-15
2.61429e-09
-2.06655e-08
-5.61293e-15
2.5673e-09
-2.19112e-08
-2.28822e-15
2.51581e-09
-2.31301e-08
1.84662e-15
2.46038e-09
-2.43204e-08
5.44926e-15
2.40149e-09
-2.54806e-08
7.40018e-15
2.33955e-09
-2.66093e-08
7.763e-15
2.27489e-09
-2.77052e-08
8.37167e-15
2.20783e-09
-2.87674e-08
1.23905e-14
2.13862e-09
-2.97948e-08
2.26198e-14
2.06747e-09
-3.07867e-08
3.91953e-14
1.99457e-09
-3.17425e-08
5.81006e-14
1.92007e-09
-3.26616e-08
7.18736e-14
1.84411e-09
-3.35437e-08
7.27434e-14
1.76686e-09
-3.43888e-08
5.72433e-14
1.68864e-09
-3.51969e-08
3.20681e-14
1.61008e-09
-3.59685e-08
1.82654e-14
1.53243e-09
-3.67042e-08
2.90147e-14
1.45775e-09
-3.74044e-08
3.17735e-14
1.38857e-09
-3.80686e-08
1.14547e-13
1.32529e-09
-3.86981e-08
2.81463e-13
1.26101e-09
-3.92955e-08
3.88109e-13
1.1842e-09
-3.98467e-08
1.6562e-13
1.10168e-09
-4.03221e-08
-6.40251e-14
1.03575e-09
-4.077e-08
-2.37371e-13
9.55794e-10
-4.12645e-08
-5.28424e-12
8.45155e-10
-4.16127e-08
-3.609e-12
8.24489e-10
-4.18947e-08
1.49106e-12
7.59571e-10
-4.23566e-08
-6.88664e-12
5.76758e-10
-4.27258e-08
-2.98745e-12
5.11372e-10
-4.29443e-08
4.08693e-13
5.02142e-10
-4.31149e-08
1.18849e-13
4.48771e-10
-4.33085e-08
-2.08202e-12
3.51584e-10
-4.34698e-08
-1.84938e-11
2.81908e-10
-4.34269e-08
-1.31313e-11
2.63459e-10
-4.35244e-08
4.26881e-12
1.43107e-10
-4.37476e-08
2.02246e-11
1.42628e-11
-4.37727e-08
2.34061e-11
-1.0101e-11
-4.36695e-08
1.04716e-11
-7.04493e-12
-4.34938e-08
7.25538e-12
-2.98571e-11
-4.34369e-08
-2.10066e-12
-1.44324e-10
-4.34673e-08
-5.83418e-12
-2.59992e-10
-4.33047e-08
1.0285e-11
-2.69573e-10
-4.29591e-08
3.85424e-12
-2.95007e-10
-4.27753e-08
-1.36862e-11
-4.30895e-10
-4.27142e-08
-3.69996e-11
-5.2115e-10
-4.24979e-08
-3.35455e-11
-5.03695e-10
-4.20292e-08
2.08286e-11
-4.77997e-10
-4.1748e-08
3.47435e-11
-6.26001e-10
-4.16023e-08
8.75313e-12
-7.41131e-10
-4.12223e-08
2.24106e-12
-6.8045e-10
-4.07387e-08
6.57347e-13
-6.43056e-10
-4.02244e-08
1.64619e-13
-6.93399e-10
-3.98232e-08
6.30069e-16
-8.34507e-10
-3.94993e-08
-2.98022e-14
-9.35213e-10
-3.91098e-08
-2.09677e-14
-9.37369e-10
-3.86398e-08
2.50345e-15
-9.17785e-10
-3.814e-08
2.79513e-14
-9.29458e-10
-3.76326e-08
3.26577e-14
-9.5957e-10
-3.71183e-08
1.42319e-14
-9.94242e-10
-3.65943e-08
-7.38623e-15
-1.0278e-09
-3.60589e-08
-1.36167e-14
-1.05864e-09
-3.55116e-08
-6.26759e-15
-1.08656e-09
-3.49525e-08
8.28002e-16
-1.11177e-09
-3.43824e-08
-5.67893e-16
-1.13455e-09
-3.38022e-08
-6.86137e-15
-1.15513e-09
-3.32127e-08
-9.79827e-15
-1.17367e-09
-3.26148e-08
-5.50215e-15
-1.19033e-09
-3.20094e-08
3.25032e-15
-1.20519e-09
-3.13973e-08
1.07716e-14
-1.21835e-09
-3.07793e-08
1.30763e-14
-1.22985e-09
-3.01562e-08
9.84722e-15
-1.23975e-09
-2.95287e-08
3.56289e-15
-1.24809e-09
-2.88976e-08
-2.57296e-15
-1.25491e-09
-2.82636e-08
-6.3211e-15
-1.26024e-09
-2.76274e-08
-7.03885e-15
-1.26412e-09
-2.69897e-08
-5.39219e-15
-1.2666e-09
-2.63513e-08
-2.63956e-15
-1.2677e-09
-2.57127e-08
4.20496e-17
-1.26746e-09
-2.50747e-08
1.93154e-15
-1.26593e-09
-2.44379e-08
2.81425e-15
-1.26314e-09
-2.38029e-08
2.82698e-15
-1.25912e-09
-2.31702e-08
2.26011e-15
-1.25392e-09
-2.25405e-08
1.41359e-15
-1.24757e-09
-2.19143e-08
5.34437e-16
-1.24012e-09
-2.12922e-08
-2.00192e-16
-1.2316e-09
-2.06746e-08
-6.89005e-16
-1.22205e-09
-2.0062e-08
-9.10698e-16
-1.2115e-09
-1.9455e-08
-9.18044e-16
-1.20001e-09
-1.88539e-08
-8.08893e-16
-1.1876e-09
-1.82593e-08
-6.81337e-16
-1.17431e-09
-1.76716e-08
-5.92081e-16
-1.16018e-09
-1.70911e-08
-5.40718e-16
-1.14525e-09
-1.65183e-08
-4.85235e-16
-1.12955e-09
-1.59536e-08
-3.77493e-16
-1.11311e-09
-1.53972e-08
-1.98167e-16
-1.09599e-09
-1.48496e-08
2.91893e-17
-1.07819e-09
-1.4311e-08
2.46544e-16
-1.05977e-09
-1.37818e-08
3.89169e-16
-1.04075e-09
-1.32623e-08
4.13725e-16
-1.02116e-09
-1.27527e-08
3.14763e-16
-1.00104e-09
-1.22534e-08
1.26951e-16
-9.80416e-10
-1.17645e-08
-9.18966e-17
-9.59314e-10
-1.12863e-08
-2.80305e-16
-9.37764e-10
-1.0819e-08
-3.93362e-16
-9.15795e-10
-1.03629e-08
-4.13557e-16
-8.93432e-10
-9.91806e-09
-3.5073e-16
-8.70702e-10
-9.48473e-09
-2.35834e-16
-8.47632e-10
-9.06309e-09
-1.06816e-16
-8.24246e-10
-8.65328e-09
1.43961e-18
-8.0057e-10
-8.25545e-09
6.58387e-17
-7.76629e-10
-7.86973e-09
7.8982e-17
-7.52448e-10
-7.49625e-09
4.66158e-17
-7.28051e-10
-7.13512e-09
-1.65962e-17
-7.03465e-10
-6.78643e-09
-9.2602e-17
-6.78714e-10
-6.45026e-09
-1.65599e-16
-6.53823e-10
-6.12668e-09
-2.24041e-16
-6.28819e-10
-5.81575e-09
-2.62805e-16
-6.03729e-10
-5.51751e-09
-2.81891e-16
-5.78581e-10
-5.23198e-09
-2.84037e-16
-5.53403e-10
-4.95919e-09
-2.75205e-16
-5.28225e-10
-4.69912e-09
-2.60438e-16
-5.03078e-10
-4.45176e-09
-2.44641e-16
-4.77996e-10
-4.21706e-09
-2.31852e-16
-4.53012e-10
-3.99498e-09
-2.24215e-16
-4.28163e-10
-3.78544e-09
-2.22947e-16
-4.03486e-10
-3.58833e-09
-2.28103e-16
-3.79023e-10
-3.40355e-09
-2.38599e-16
-3.54814e-10
-3.23096e-09
-2.5243e-16
-3.30905e-10
-3.07039e-09
-2.6805e-16
-3.07342e-10
-2.92166e-09
-2.83074e-16
-2.84175e-10
-2.78454e-09
-2.95577e-16
-2.61456e-10
-2.65881e-09
-3.04612e-16
-2.39238e-10
-2.54418e-09
-3.10421e-16
-2.17578e-10
-2.44036e-09
-3.13168e-16
-1.96536e-10
-2.34701e-09
-3.13829e-16
-1.76173e-10
-2.26378e-09
-3.14272e-16
-1.56555e-10
-2.19027e-09
-3.14825e-16
-1.37748e-10
-2.12603e-09
-3.16788e-16
-1.19821e-10
-2.07061e-09
-3.20215e-16
-1.02846e-10
-2.02349e-09
-3.24618e-16
-8.68958e-11
-1.98413e-09
-3.29184e-16
-7.2047e-11
-1.95196e-09
-3.32883e-16
-5.83767e-11
-1.92633e-09
-3.34361e-16
-4.59638e-11
-1.90661e-09
-3.33236e-16
-3.48886e-11
-1.89207e-09
-3.28643e-16
-2.52322e-11
-1.88197e-09
-3.21069e-16
-1.70766e-11
-1.87554e-09
-3.11109e-16
-1.0504e-11
-1.87194e-09
-3.00121e-16
-5.59626e-12
-1.87031e-09
-2.89024e-16
-2.43477e-12
-1.86974e-09
-2.78578e-16
-1.09952e-12
-1.8693e-09
-2.6835e-16
-1.66855e-12
-1.86799e-09
-2.5796e-16
-4.21693e-12
-1.86481e-09
-2.44859e-16
-8.81572e-12
-1.85873e-09
-2.28561e-16
-1.55305e-11
-1.84866e-09
-2.08143e-16
-2.44197e-11
-1.83351e-09
-1.84256e-16
-3.55323e-11
-1.8122e-09
-1.58906e-16
-4.89044e-11
-1.78361e-09
-1.3464e-16
-6.45555e-11
-1.74664e-09
-1.1108e-16
-8.24823e-11
-1.70021e-09
-8.74108e-17
-1.0265e-10
-1.64331e-09
-6.11944e-17
-1.24982e-10
-1.57498e-09
-3.12375e-17
-1.49343e-10
-1.49439e-09
2.83943e-18
-1.75511e-10
-1.40086e-09
3.82178e-17
-2.03149e-10
-1.29397e-09
7.45728e-17
-2.31748e-10
-1.17365e-09
1.14344e-16
-2.6055e-10
-1.04032e-09
1.58076e-16
-2.88433e-10
-8.95051e-10
2.03059e-16
-3.13736e-10
-7.39889e-10
2.36449e-16
-3.33996e-10
-5.78146e-10
2.44916e-16
-3.45567e-10
-4.14847e-10
2.14052e-16
-3.43078e-10
-2.57207e-10
1.2111e-16
-3.18754e-10
-1.15229e-10
-6.05349e-17
-2.61809e-10
-3.01887e-12
-2.10396e-16
-1.58661e-10
5.10995e-11
1.00604e-15
3.75893e-12
7.96754e-15
1.87771e-10
1.27759e-09
-2.12552e-09
2.01253e-09
-1.99652e-09
2.3942e-09
-1.428e-09
2.50015e-09
-7.28157e-10
2.35226e-09
-5.32508e-11
1.97531e-09
5.40215e-10
1.3978e-09
1.03817e-09
6.48924e-10
1.44552e-09
-2.43101e-10
1.77358e-09
-1.25209e-09
2.03469e-09
-2.35513e-09
2.23999e-09
-3.53312e-09
2.39903e-09
-4.7697e-09
2.52013e-09
-6.05073e-09
2.6104e-09
-7.36427e-09
2.67522e-09
-8.70029e-09
2.71891e-09
-1.00502e-08
2.74493e-09
-1.14069e-08
2.75608e-09
-1.27641e-08
2.75466e-09
-1.41165e-08
2.74254e-09
-1.54595e-08
2.72126e-09
-1.67891e-08
2.6921e-09
-1.8102e-08
2.65615e-09
-1.9395e-08
2.61429e-09
-2.06655e-08
2.56729e-09
-2.19112e-08
2.51581e-09
-2.31301e-08
2.46038e-09
-2.43204e-08
2.40149e-09
-2.54806e-08
2.33954e-09
-2.66093e-08
2.27488e-09
-2.77052e-08
2.20781e-09
-2.87673e-08
2.13857e-09
-2.97946e-08
2.06738e-09
-3.07864e-08
1.99442e-09
-3.17421e-08
1.91981e-09
-3.26612e-08
1.84368e-09
-3.35435e-08
1.76617e-09
-3.4389e-08
1.68758e-09
-3.51984e-08
1.60855e-09
-3.59726e-08
1.5304e-09
-3.67122e-08
1.45576e-09
-3.74143e-08
1.38917e-09
-3.80678e-08
1.33544e-09
-3.86636e-08
1.28662e-09
-3.92293e-08
1.2057e-09
-3.98126e-08
1.07925e-09
-4.0395e-08
9.64595e-10
-4.09037e-08
9.0792e-10
-4.12829e-08
8.98383e-10
-4.15819e-08
8.64275e-10
-4.19562e-08
7.47997e-10
-4.23278e-08
6.44914e-10
-4.26339e-08
5.62696e-10
-4.28742e-08
4.88479e-10
-4.31208e-08
3.96024e-10
-4.34527e-08
2.88063e-10
-4.3531e-08
3.17883e-10
-4.33539e-08
3.33957e-10
-4.34247e-08
1.59138e-10
-4.37234e-08
-3.05133e-11
-4.37902e-08
-3.25494e-11
-4.36804e-08
-1.28301e-11
-4.3629e-08
-1.07085e-10
-4.34945e-08
-1.34548e-10
-4.33037e-08
-1.7059e-10
-4.32656e-08
-3.12018e-10
-4.30955e-08
-3.5216e-10
-4.29645e-08
-4.18415e-10
-4.27187e-08
-4.05195e-10
-4.22085e-08
-3.80081e-10
-4.19051e-08
-5.52711e-10
-4.18496e-08
-7.37248e-10
-4.16483e-08
-7.55606e-10
-4.12379e-08
-6.78417e-10
-4.07435e-08
-6.40531e-10
-4.02257e-08
-6.91982e-10
-3.98234e-08
-8.33802e-10
-3.94994e-08
-9.34911e-10
-3.91101e-08
-9.3726e-10
-3.86399e-08
-9.17752e-10
-3.81399e-08
-9.2945e-10
-3.76324e-08
-9.59565e-10
-3.71182e-08
-9.94247e-10
-3.65943e-08
-1.02781e-09
-3.60589e-08
-1.05864e-09
-3.55115e-08
-1.08655e-09
-3.49525e-08
-1.11176e-09
-3.43824e-08
-1.13454e-09
-3.38022e-08
-1.15511e-09
-3.32127e-08
-1.17366e-09
-3.26148e-08
-1.19032e-09
-3.20094e-08
-1.2052e-09
-3.13973e-08
-1.21835e-09
-3.07793e-08
-1.22986e-09
-3.01561e-08
-1.23976e-09
-2.95287e-08
-1.24809e-09
-2.88976e-08
-1.2549e-09
-2.82636e-08
-1.26023e-09
-2.76274e-08
-1.26412e-09
-2.69897e-08
-1.26659e-09
-2.63513e-08
-1.2677e-09
-2.57127e-08
-1.26746e-09
-2.50747e-08
-1.26593e-09
-2.44379e-08
-1.26314e-09
-2.38029e-08
-1.25912e-09
-2.31702e-08
-1.25392e-09
-2.25405e-08
-1.24757e-09
-2.19143e-08
-1.24012e-09
-2.12922e-08
-1.2316e-09
-2.06746e-08
-1.22205e-09
-2.0062e-08
-1.2115e-09
-1.9455e-08
-1.20001e-09
-1.88539e-08
-1.18759e-09
-1.82593e-08
-1.17431e-09
-1.76716e-08
-1.16018e-09
-1.70911e-08
-1.14525e-09
-1.65183e-08
-1.12955e-09
-1.59536e-08
-1.11311e-09
-1.53972e-08
-1.09599e-09
-1.48496e-08
-1.07819e-09
-1.4311e-08
-1.05977e-09
-1.37818e-08
-1.04075e-09
-1.32623e-08
-1.02116e-09
-1.27527e-08
-1.00104e-09
-1.22534e-08
-9.80416e-10
-1.17645e-08
-9.59314e-10
-1.12863e-08
-9.37765e-10
-1.0819e-08
-9.15795e-10
-1.03629e-08
-8.93432e-10
-9.91804e-09
-8.70702e-10
-9.48472e-09
-8.47632e-10
-9.06307e-09
-8.24246e-10
-8.65326e-09
-8.0057e-10
-8.25543e-09
-7.76629e-10
-7.86972e-09
-7.52448e-10
-7.49624e-09
-7.28052e-10
-7.13511e-09
-7.03465e-10
-6.78641e-09
-6.78714e-10
-6.45024e-09
-6.53823e-10
-6.12666e-09
-6.2882e-10
-5.81573e-09
-6.0373e-10
-5.51749e-09
-5.78582e-10
-5.23197e-09
-5.53403e-10
-4.95918e-09
-5.28225e-10
-4.69911e-09
-5.03079e-10
-4.45174e-09
-4.77996e-10
-4.21705e-09
-4.53012e-10
-3.99497e-09
-4.28163e-10
-3.78542e-09
-4.03487e-10
-3.58832e-09
-3.79023e-10
-3.40354e-09
-3.54815e-10
-3.23095e-09
-3.30906e-10
-3.07038e-09
-3.07343e-10
-2.92164e-09
-2.84176e-10
-2.78453e-09
-2.61456e-10
-2.65879e-09
-2.39238e-10
-2.54416e-09
-2.17579e-10
-2.44035e-09
-1.96537e-10
-2.347e-09
-1.76174e-10
-2.26377e-09
-1.56556e-10
-2.19025e-09
-1.37749e-10
-2.12602e-09
-1.19822e-10
-2.07059e-09
-1.02846e-10
-2.02348e-09
-8.68966e-11
-1.98412e-09
-7.20478e-11
-1.95194e-09
-5.83775e-11
-1.92632e-09
-4.59646e-11
-1.90659e-09
-3.48893e-11
-1.89206e-09
-2.52329e-11
-1.88196e-09
-1.70773e-11
-1.87553e-09
-1.05046e-11
-1.87193e-09
-5.59684e-12
-1.8703e-09
-2.43532e-12
-1.86973e-09
-1.10005e-12
-1.86929e-09
-1.66906e-12
-1.86798e-09
-4.21744e-12
-1.86481e-09
-8.81622e-12
-1.85872e-09
-1.5531e-11
-1.84865e-09
-2.44202e-11
-1.83351e-09
-3.55328e-11
-1.81219e-09
-4.8905e-11
-1.7836e-09
-6.45562e-11
-1.74663e-09
-8.2483e-11
-1.70021e-09
-1.02651e-10
-1.64331e-09
-1.24983e-10
-1.57498e-09
-1.49344e-10
-1.49438e-09
-1.75512e-10
-1.40085e-09
-2.03151e-10
-1.29397e-09
-2.3175e-10
-1.17365e-09
-2.60552e-10
-1.04032e-09
-2.88436e-10
-8.9505e-10
-3.13739e-10
-7.39889e-10
-3.34e-10
-5.78147e-10
-3.45572e-10
-4.14848e-10
-3.43083e-10
-2.5721e-10
-3.18761e-10
-1.15234e-10
-2.61817e-10
-3.02532e-12
-1.58671e-10
5.10974e-11
3.74778e-12
1.87764e-10
1.0214e-09
-2.71042e-12
-3.15347e-09
1.40148e-09
-5.79196e-13
-2.37895e-09
1.4305e-09
-1.05116e-13
-1.45752e-09
1.24461e-09
6.72322e-15
-5.42564e-10
8.8675e-10
9.34755e-15
3.04361e-10
3.76278e-10
-1.99819e-15
1.05049e-09
-2.72762e-10
-7.4656e-15
1.68705e-09
-1.0459e-09
-7.90626e-15
2.21853e-09
-1.92773e-09
-6.43086e-15
2.65528e-09
-2.90273e-09
-4.91748e-15
3.00958e-09
-3.95616e-09
-3.96382e-15
3.29332e-09
-5.0745e-09
-3.62155e-15
3.51728e-09
-6.2454e-09
-3.74092e-15
3.69097e-09
-7.45762e-09
-4.04884e-15
3.82259e-09
-8.70127e-09
-4.27044e-15
3.91885e-09
-9.96766e-09
-4.25349e-15
3.9853e-09
-1.12492e-08
-4.00919e-15
4.02649e-09
-1.25393e-08
-3.67111e-15
4.04619e-09
-1.38322e-08
-3.42302e-15
4.04753e-09
-1.51228e-08
-3.4139e-15
4.0331e-09
-1.64066e-08
-3.66985e-15
4.00508e-09
-1.76799e-08
-4.02953e-15
3.9653e-09
-1.89391e-08
-4.15579e-15
3.91529e-09
-2.01813e-08
-3.65826e-15
3.85636e-09
-2.14037e-08
-2.3095e-15
3.78961e-09
-2.26039e-08
-2.5994e-16
3.71602e-09
-2.378e-08
1.89139e-15
3.63639e-09
-2.493e-08
3.30684e-15
3.55145e-09
-2.60523e-08
3.41392e-15
3.4618e-09
-2.71454e-08
2.50037e-15
3.368e-09
-2.82081e-08
1.99909e-15
3.2705e-09
-2.92392e-08
4.07155e-15
3.16972e-09
-3.02377e-08
1.04568e-14
3.06603e-09
-3.12028e-08
2.11819e-14
2.95975e-09
-3.21339e-08
3.42269e-14
2.85117e-09
-3.30305e-08
4.70575e-14
2.74061e-09
-3.38922e-08
5.98127e-14
2.62843e-09
-3.47189e-08
7.85375e-14
2.51513e-09
-3.55104e-08
1.16697e-13
2.4015e-09
-3.62669e-08
1.90754e-13
2.28876e-09
-3.6988e-08
2.89604e-13
2.17856e-09
-3.76724e-08
3.29556e-13
2.07258e-09
-3.83181e-08
3.0638e-13
1.97067e-09
-3.89258e-08
1.97035e-13
1.86852e-09
-3.94998e-08
-3.11671e-13
1.75857e-09
-4.00382e-08
-1.53337e-12
1.64164e-09
-4.05307e-08
-2.3007e-12
1.53071e-09
-4.09909e-08
-4.50352e-13
1.4164e-09
-4.14346e-08
1.24804e-12
1.28753e-09
-4.18092e-08
1.49088e-12
1.19782e-09
-4.21421e-08
1.69058e-12
1.09079e-09
-4.25036e-08
1.0207e-12
9.37352e-10
-4.28225e-08
1.6129e-12
8.28653e-10
-4.30654e-08
-3.62939e-13
7.45168e-10
-4.32606e-08
-3.61272e-12
6.47537e-10
-4.34342e-08
-6.04202e-12
5.31282e-10
-4.35707e-08
-8.53705e-12
4.27009e-10
-4.36366e-08
-4.36121e-12
3.33604e-10
-4.37145e-08
1.35959e-12
2.19629e-10
-4.38082e-08
5.47495e-12
1.02346e-10
-4.38362e-08
6.39223e-12
1.15027e-11
-4.37929e-08
2.2281e-12
-5.25688e-11
-4.36976e-08
1.45241e-12
-1.26485e-10
-4.36107e-08
2.73673e-12
-2.34114e-10
-4.35273e-08
2.57525e-12
-3.46083e-10
-4.33745e-08
1.38356e-12
-4.23729e-10
-4.31625e-08
-3.31461e-12
-5.03471e-10
-4.29733e-08
-6.00586e-12
-6.13935e-10
-4.27857e-08
-8.19079e-12
-7.00675e-10
-4.25312e-08
-5.42009e-12
-7.52725e-10
-4.22024e-08
5.86547e-12
-8.12751e-10
-4.19162e-08
8.35099e-12
-9.20554e-10
-4.16523e-08
3.29022e-12
-1.0083e-09
-4.13003e-08
1.49869e-12
-1.03401e-09
-4.08815e-08
7.29243e-13
-1.0626e-09
-4.04429e-08
3.30557e-13
-1.13238e-09
-4.00381e-08
1.41001e-13
-1.2394e-09
-3.96507e-08
6.34821e-14
-1.32254e-09
-3.92303e-08
2.95229e-14
-1.35788e-09
-3.8768e-08
1.762e-14
-1.38033e-09
-3.82816e-08
1.87363e-14
-1.41589e-09
-3.77818e-08
1.61176e-14
-1.45936e-09
-3.72705e-08
4.2102e-15
-1.50545e-09
-3.67477e-08
-5.47719e-15
-1.55064e-09
-3.62131e-08
-5.66007e-15
-1.59332e-09
-3.56667e-08
-1.35569e-15
-1.63295e-09
-3.5109e-08
2.95707e-17
-1.66946e-09
-3.45406e-08
-2.90902e-15
-1.70292e-09
-3.39623e-08
-6.24404e-15
-1.73345e-09
-3.33747e-08
-5.98227e-15
-1.76118e-09
-3.27788e-08
-1.64693e-15
-1.78622e-09
-3.21753e-08
4.06506e-15
-1.80867e-09
-3.1565e-08
7.86342e-15
-1.82862e-09
-3.09487e-08
8.07438e-15
-1.84615e-09
-3.03272e-08
5.18878e-15
-1.8613e-09
-2.97013e-08
1.02768e-15
-1.87413e-09
-2.90715e-08
-2.50606e-15
-1.8847e-09
-2.84387e-08
-4.29685e-15
-1.89306e-09
-2.78036e-08
-4.22913e-15
-1.89926e-09
-2.71668e-08
-2.89457e-15
-1.90336e-09
-2.65291e-08
-1.11528e-15
-1.90541e-09
-2.58911e-08
4.41732e-16
-1.90547e-09
-2.52534e-08
1.43252e-15
-1.90359e-09
-2.46167e-08
1.81134e-15
-1.89983e-09
-2.39816e-08
1.7093e-15
-1.89424e-09
-2.33486e-08
1.31447e-15
-1.88687e-09
-2.27185e-08
8.00439e-16
-1.87779e-09
-2.20916e-08