/*--------------------------------*- C++ -*----------------------------------*\
  =========                 |
  \\      /  F ield         | OpenFOAM: The Open Source CFD Toolbox
   \\    /   O peration     | Website:  https://openfoam.org
    \\  /    A nd           | Version:  8
     \\/     M anipulation  |
\*---------------------------------------------------------------------------*/
FoamFile
{
    version     2.0;
    format      ascii;
    class       volScalarField;
    location    "4800";
    object      T;
}
// * * * * * * * * * * * * * * * * * * * * * * * * * * * * * * * * * * * * * //

dimensions      [0 0 0 1 0 0 0];

internalField   nonuniform List<scalar> 
46000
(
309.521
308.323
307.538
307.036
306.676
306.391
306.153
305.949
305.768
305.606
305.459
305.323
305.198
305.082
304.973
304.871
304.775
304.684
304.598
304.517
304.439
304.366
304.296
304.229
304.165
304.104
304.047
303.991
303.939
303.889
303.841
303.795
303.752
303.711
303.672
303.636
303.602
303.57
303.541
303.516
303.494
303.476
303.463
303.454
303.449
303.448
303.453
303.461
303.463
303.467
303.473
303.448
303.409
303.386
303.373
303.362
303.357
303.373
303.403
303.337
303.312
303.319
303.344
303.352
303.343
303.342
303.372
303.371
303.328
303.282
303.279
303.296
303.222
303.201
303.212
303.229
303.224
303.196
303.162
303.144
303.137
303.138
303.143
303.151
303.16
303.17
303.181
303.193
303.205
303.218
303.232
303.247
303.262
303.277
303.294
303.311
303.328
303.347
303.365
303.385
303.405
303.425
303.446
303.468
303.49
303.513
303.536
303.56
303.584
303.609
303.634
303.66
303.687
303.713
303.741
303.769
303.797
303.826
303.855
303.885
303.916
303.947
303.978
304.01
304.042
304.075
304.108
304.142
304.176
304.211
304.246
304.282
304.318
304.355
304.392
304.43
304.468
304.507
304.546
304.586
304.626
304.667
304.708
304.75
304.792
304.835
304.879
304.923
304.967
305.012
305.058
305.105
305.151
305.199
305.247
305.296
305.345
305.395
305.446
305.497
305.55
305.602
305.656
305.71
305.765
305.821
305.878
305.936
305.994
306.054
306.114
306.176
306.239
306.303
306.369
306.436
306.505
306.576
306.649
306.724
306.802
306.882
306.966
307.053
307.145
307.242
307.345
307.454
307.571
307.699
307.838
307.993
308.167
308.367
308.603
308.891
309.259
309.758
310.451
311.174
309.523
308.324
307.538
307.036
306.676
306.391
306.153
305.949
305.768
305.606
305.459
305.323
305.198
305.082
304.973
304.871
304.775
304.684
304.598
304.517
304.439
304.366
304.296
304.229
304.165
304.104
304.047
303.991
303.939
303.889
303.841
303.795
303.752
303.711
303.672
303.636
303.602
303.57
303.542
303.517
303.496
303.481
303.472
303.467
303.463
303.455
303.446
303.447
303.465
303.497
303.514
303.507
303.486
303.462
303.433
303.402
303.4
303.47
303.487
303.418
303.329
303.307
303.307
303.316
303.329
303.322
303.316
303.328
303.327
303.391
303.398
303.334
303.23
303.204
303.213
303.23
303.224
303.195
303.162
303.144
303.137
303.138
303.143
303.151
303.16
303.17
303.181
303.193
303.205
303.218
303.232
303.247
303.262
303.277
303.294
303.311
303.328
303.347
303.365
303.385
303.405
303.425
303.446
303.468
303.49
303.513
303.536
303.56
303.584
303.609
303.634
303.66
303.687
303.713
303.741
303.769
303.797
303.826
303.856
303.885
303.916
303.947
303.978
304.01
304.042
304.075
304.108
304.142
304.176
304.211
304.246
304.282
304.318
304.355
304.392
304.43
304.468
304.507
304.546
304.586
304.626
304.667
304.708
304.75
304.792
304.835
304.879
304.923
304.967
305.012
305.058
305.105
305.151
305.199
305.247
305.296
305.345
305.395
305.446
305.497
305.55
305.602
305.656
305.71
305.765
305.821
305.878
305.936
305.994
306.054
306.114
306.176
306.239
306.303
306.369
306.436
306.505
306.576
306.649
306.724
306.802
306.882
306.966
307.053
307.145
307.242
307.345
307.454
307.571
307.699
307.838
307.993
308.167
308.367
308.603
308.891
309.259
309.758
310.451
311.174
306.138
305.773
305.461
305.211
305.006
304.834
304.685
304.553
304.434
304.324
304.223
304.129
304.042
303.959
303.881
303.807
303.737
303.67
303.606
303.546
303.487
303.432
303.379
303.328
303.279
303.233
303.188
303.145
303.104
303.065
303.028
302.992
302.958
302.925
302.894
302.864
302.837
302.811
302.787
302.765
302.745
302.728
302.713
302.7
302.689
302.678
302.668
302.658
302.647
302.638
302.627
302.612
302.597
302.585
302.574
302.561
302.547
302.532
302.514
302.51
302.504
302.499
302.495
302.489
302.481
302.473
302.464
302.455
302.444
302.436
302.426
302.41
302.406
302.402
302.401
302.4
302.394
302.383
302.373
302.367
302.365
302.365
302.367
302.37
302.373
302.378
302.383
302.389
302.395
302.402
302.409
302.417
302.425
302.433
302.443
302.452
302.462
302.473
302.484
302.495
302.507
302.519
302.532
302.545
302.559
302.573
302.587
302.602
302.618
302.634
302.65
302.667
302.684
302.701
302.72
302.738
302.757
302.776
302.796
302.817
302.837
302.858
302.88
302.902
302.925
302.948
302.971
302.995
303.019
303.044
303.069
303.095
303.121
303.148
303.175
303.203
303.231
303.259
303.288
303.318
303.348
303.378
303.409
303.441
303.473
303.505
303.538
303.571
303.605
303.64
303.674
303.71
303.746
303.782
303.819
303.856
303.894
303.932
303.971
304.011
304.05
304.091
304.132
304.173
304.215
304.258
304.301
304.345
304.389
304.434
304.48
304.526
304.574
304.622
304.671
304.721
304.772
304.825
304.878
304.934
304.991
305.05
305.112
305.176
305.243
305.314
305.389
305.469
305.556
305.65
305.753
305.868
305.998
306.147
306.324
306.537
306.805
307.153
307.622
308.209
306.138
305.773
305.461
305.211
305.006
304.834
304.685
304.553
304.434
304.324
304.223
304.129
304.042
303.959
303.881
303.807
303.737
303.67
303.606
303.546
303.487
303.432
303.379
303.328
303.279
303.233
303.188
303.145
303.104
303.065
303.028
302.992
302.958
302.925
302.894
302.864
302.837
302.811
302.787
302.765
302.746
302.729
302.716
302.705
302.694
302.681
302.666
302.654
302.647
302.642
302.635
302.624
302.61
302.594
302.577
302.557
302.541
302.522
302.511
302.502
302.502
302.496
302.49
302.485
302.479
302.469
302.46
302.45
302.442
302.429
302.419
302.409
302.407
302.402
302.401
302.4
302.394
302.382
302.373
302.367
302.365
302.365
302.367
302.37
302.373
302.378
302.383
302.389
302.395
302.402
302.409
302.417
302.425
302.433
302.443
302.452
302.462
302.473
302.484
302.495
302.507
302.519
302.532
302.545
302.559
302.573
302.587
302.602
302.618
302.634
302.65
302.667
302.684
302.701
302.72
302.738
302.757
302.776
302.796
302.817
302.837
302.858
302.88
302.902
302.925
302.948
302.971
302.995
303.019
303.044
303.069
303.095
303.121
303.148
303.175
303.203
303.231
303.259
303.288
303.318
303.348
303.378
303.409
303.441
303.473
303.505
303.538
303.571
303.605
303.64
303.674
303.71
303.746
303.782
303.819
303.856
303.894
303.932
303.971
304.011
304.05
304.091
304.132
304.173
304.215
304.258
304.301
304.345
304.389
304.434
304.48
304.526
304.574
304.622
304.671
304.721
304.772
304.825
304.878
304.934
304.991
305.05
305.112
305.176
305.243
305.314
305.389
305.47
305.556
305.65
305.753
305.868
305.998
306.147
306.324
306.537
306.805
307.153
307.622
308.209
304.72
304.648
304.517
304.379
304.248
304.127
304.017
303.915
303.82
303.732
303.649
303.571
303.497
303.427
303.36
303.297
303.236
303.178
303.123
303.07
303.019
302.97
302.923
302.878
302.835
302.793
302.753
302.715
302.678
302.643
302.609
302.576
302.545
302.516
302.487
302.46
302.434
302.41
302.387
302.366
302.346
302.328
302.311
302.295
302.279
302.262
302.246
302.23
302.215
302.2
302.186
302.173
302.162
302.151
302.139
302.126
302.113
302.098
302.083
302.077
302.07
302.061
302.051
302.042
302.035
302.027
302.017
302.009
302.004
302
301.993
301.983
301.982
301.978
301.973
301.967
301.962
301.959
301.958
301.958
301.958
301.959
301.96
301.961
301.963
301.966
301.969
301.973
301.977
301.981
301.986
301.992
301.998
302.004
302.011
302.018
302.025
302.033
302.042
302.051
302.06
302.069
302.079
302.09
302.101
302.112
302.124
302.136
302.149
302.162
302.175
302.189
302.204
302.218
302.233
302.249
302.265
302.282
302.299
302.316
302.334
302.352
302.371
302.39
302.409
302.429
302.45
302.471
302.492
302.514
302.536
302.559
302.582
302.606
302.63
302.655
302.68
302.706
302.732
302.758
302.785
302.813
302.841
302.869
302.898
302.927
302.957
302.988
303.018
303.05
303.081
303.114
303.146
303.18
303.213
303.247
303.282
303.317
303.352
303.388
303.424
303.461
303.498
303.536
303.574
303.613
303.652
303.692
303.732
303.773
303.814
303.856
303.898
303.942
303.986
304.03
304.076
304.123
304.171
304.22
304.27
304.322
304.376
304.432
304.491
304.553
304.618
304.687
304.76
304.84
304.927
305.022
305.128
305.248
305.385
305.543
305.728
305.944
306.196
306.463
304.72
304.648
304.517
304.379
304.248
304.127
304.017
303.915
303.82
303.732
303.649
303.571
303.497
303.427
303.36
303.297
303.236
303.178
303.123
303.07
303.019
302.97
302.923
302.878
302.835
302.793
302.753
302.715
302.678
302.643
302.609
302.576
302.545
302.516
302.487
302.46
302.434
302.41
302.387
302.366
302.346
302.328
302.311
302.295
302.278
302.262
302.246
302.231
302.215
302.2
302.185
302.172
302.159
302.146
302.132
302.119
302.106
302.089
302.077
302.069
302.067
302.061
302.053
302.044
302.035
302.027
302.02
302.011
302.004
301.993
301.985
301.98
301.981
301.978
301.973
301.967
301.962
301.959
301.958
301.958
301.958
301.959
301.96
301.961
301.963
301.966
301.969
301.973
301.977
301.981
301.986
301.992
301.998
302.004
302.011
302.018
302.025
302.033
302.042
302.051
302.06
302.069
302.079
302.09
302.101
302.112
302.124
302.136
302.149
302.162
302.175
302.189
302.204
302.218
302.233
302.249
302.265
302.282
302.299
302.316
302.334
302.352
302.371
302.39
302.409
302.429
302.45
302.471
302.492
302.514
302.536
302.559
302.582
302.606
302.63
302.655
302.68
302.706
302.732
302.758
302.785
302.813
302.841
302.869
302.898
302.927
302.957
302.988
303.018
303.05
303.081
303.114
303.146
303.18
303.213
303.247
303.282
303.317
303.352
303.388
303.424
303.461
303.498
303.536
303.574
303.613
303.652
303.692
303.732
303.773
303.814
303.856
303.898
303.942
303.986
304.03
304.076
304.123
304.171
304.22
304.27
304.322
304.376
304.432
304.491
304.553
304.618
304.687
304.76
304.84
304.927
305.022
305.128
305.248
305.385
305.543
305.728
305.944
306.196
306.463
303.982
303.979
303.921
303.841
303.754
303.667
303.582
303.5
303.422
303.348
303.277
303.209
303.144
303.083
303.023
302.966
302.912
302.859
302.809
302.76
302.713
302.668
302.625
302.584
302.543
302.505
302.468
302.432
302.398
302.365
302.333
302.302
302.273
302.245
302.218
302.192
302.167
302.144
302.122
302.1
302.08
302.061
302.043
302.025
302.007
301.989
301.972
301.955
301.939
301.924
301.909
301.896
301.884
301.871
301.859
301.846
301.834
301.821
301.809
301.8
301.792
301.782
301.773
301.764
301.756
301.749
301.741
301.734
301.728
301.723
301.718
301.711
301.708
301.704
301.699
301.694
301.69
301.688
301.689
301.689
301.69
301.69
301.691
301.692
301.693
301.695
301.697
301.699
301.703
301.706
301.71
301.714
301.719
301.724
301.729
301.735
301.742
301.748
301.756
301.763
301.771
301.779
301.788
301.797
301.807
301.817
301.827
301.838
301.849
301.861
301.873
301.886
301.898
301.912
301.926
301.94
301.954
301.969
301.985
302.001
302.017
302.034
302.051
302.069
302.087
302.106
302.125
302.144
302.164
302.185
302.206
302.227
302.249
302.271
302.294
302.317
302.341
302.365
302.389
302.414
302.44
302.466
302.492
302.519
302.547
302.575
302.603
302.632
302.661
302.691
302.721
302.751
302.783
302.814
302.846
302.878
302.911
302.944
302.978
303.012
303.047
303.082
303.117
303.153
303.189
303.225
303.262
303.3
303.338
303.376
303.415
303.454
303.494
303.535
303.576
303.618
303.661
303.704
303.748
303.794
303.84
303.888
303.938
303.989
304.042
304.098
304.156
304.218
304.283
304.353
304.427
304.508
304.597
304.693
304.8
304.917
305.044
305.178
305.312
305.426
303.982
303.979
303.921
303.841
303.754
303.667
303.582
303.5
303.422
303.348
303.277
303.209
303.144
303.083
303.023
302.966
302.912
302.859
302.809
302.76
302.713
302.668
302.625
302.584
302.543
302.505
302.468
302.432
302.398
302.365
302.333
302.302
302.273
302.245
302.218
302.192
302.167
302.144
302.122
302.1
302.08
302.061
302.042
302.024
302.006
301.988
301.972
301.956
301.94
301.924
301.908
301.894
301.881
301.868
301.855
301.843
301.832
301.819
301.807
301.798
301.791
301.782
301.774
301.765
301.757
301.749
301.742
301.735
301.729
301.721
301.715
301.71
301.707
301.703
301.699
301.694
301.69
301.689
301.689
301.689
301.69
301.69
301.691
301.692
301.693
301.695
301.697
301.699
301.703
301.706
301.71
301.714
301.719
301.724
301.729
301.735
301.742
301.748
301.756
301.763
301.771
301.779
301.788
301.797
301.807
301.817
301.827
301.838
301.849
301.861
301.873
301.886
301.898
301.912
301.926
301.94
301.954
301.969
301.985
302.001
302.017
302.034
302.051
302.069
302.087
302.106
302.125
302.144
302.164
302.185
302.206
302.227
302.249
302.271
302.294
302.317
302.341
302.365
302.389
302.414
302.44
302.466
302.492
302.519
302.547
302.575
302.603
302.632
302.661
302.691
302.721
302.751
302.783
302.814
302.846
302.878
302.911
302.944
302.978
303.012
303.047
303.082
303.117
303.153
303.189
303.225
303.262
303.3
303.338
303.376
303.415
303.454
303.494
303.535
303.576
303.618
303.661
303.704
303.748
303.794
303.84
303.888
303.938
303.989
304.042
304.098
304.156
304.218
304.283
304.353
304.427
304.508
304.597
304.693
304.8
304.917
305.044
305.178
305.312
305.426
303.51
303.519
303.491
303.442
303.383
303.318
303.252
303.186
303.121
303.057
302.996
302.936
302.879
302.823
302.769
302.718
302.668
302.619
302.573
302.528
302.484
302.442
302.402
302.363
302.325
302.289
302.253
302.22
302.187
302.155
302.125
302.096
302.068
302.041
302.015
301.99
301.966
301.943
301.921
301.9
301.88
301.86
301.841
301.823
301.805
301.787
301.77
301.753
301.737
301.722
301.707
301.694
301.68
301.667
301.655
301.642
301.63
301.619
301.608
301.598
301.589
301.579
301.57
301.562
301.554
301.546
301.539
301.532
301.526
301.521
301.515
301.51
301.506
301.502
301.498
301.494
301.491
301.49
301.489
301.489
301.489
301.489
301.489
301.489
301.49
301.492
301.493
301.495
301.498
301.5
301.504
301.507
301.511
301.515
301.52
301.525
301.531
301.537
301.543
301.55
301.557
301.565
301.573
301.581
301.59
301.599
301.608
301.618
301.629
301.64
301.651
301.662
301.674
301.687
301.7
301.713
301.727
301.741
301.756
301.771
301.786
301.802
301.818
301.835
301.852
301.87
301.888
301.907
301.926
301.945
301.965
301.986
302.007
302.028
302.05
302.072
302.095
302.118
302.141
302.166
302.19
302.215
302.241
302.267
302.293
302.32
302.347
302.375
302.403
302.432
302.461
302.491
302.52
302.551
302.582
302.613
302.645
302.677
302.709
302.742
302.775
302.809
302.843
302.877
302.912
302.947
302.982
303.018
303.055
303.091
303.128
303.166
303.204
303.243
303.282
303.321
303.361
303.402
303.444
303.487
303.53
303.575
303.621
303.668
303.717
303.768
303.821
303.876
303.934
303.995
304.06
304.129
304.202
304.28
304.363
304.449
304.537
304.621
304.694
304.744
303.51
303.519
303.491
303.442
303.383
303.318
303.252
303.186
303.121
303.057
302.996
302.936
302.879
302.823
302.769
302.718
302.668
302.619
302.573
302.528
302.484
302.442
302.402
302.363
302.325
302.289
302.253
302.22
302.187
302.155
302.125
302.096
302.068
302.041
302.015
301.99
301.966
301.943
301.921
301.9
301.88
301.86
301.841
301.822
301.804
301.786
301.77
301.754
301.738
301.722
301.707
301.693
301.679
301.666
301.653
301.641
301.63
301.619
301.608
301.598
301.589
301.58
301.571
301.562
301.554
301.547
301.54
301.533
301.526
301.52
301.514
301.51
301.506
301.502
301.498
301.494
301.491
301.49
301.489
301.489
301.489
301.489
301.489
301.489
301.49
301.492
301.493
301.495
301.498
301.5
301.504
301.507
301.511
301.515
301.52
301.525
301.531
301.537
301.543
301.55
301.557
301.565
301.573
301.581
301.59
301.599
301.608
301.618
301.629
301.64
301.651
301.662
301.674
301.687
301.7
301.713
301.727
301.741
301.756
301.771
301.786
301.802
301.818
301.835
301.852
301.87
301.888
301.907
301.926
301.945
301.965
301.986
302.007
302.028
302.05
302.072
302.095
302.118
302.141
302.166
302.19
302.215
302.241
302.267
302.293
302.32
302.347
302.375
302.403
302.432
302.461
302.491
302.521
302.551
302.582
302.613
302.645
302.677
302.709
302.742
302.775
302.809
302.843
302.877
302.912
302.947
302.982
303.018
303.055
303.091
303.128
303.166
303.204
303.243
303.282
303.321
303.361
303.402
303.444
303.487
303.53
303.575
303.621
303.668
303.717
303.768
303.821
303.876
303.934
303.995
304.06
304.129
304.202
304.28
304.363
304.449
304.537
304.621
304.694
304.744
303.166
303.175
303.16
303.127
303.085
303.036
302.983
302.929
302.874
302.82
302.766
302.713
302.662
302.611
302.563
302.515
302.469
302.424
302.381
302.339
302.298
302.259
302.22
302.183
302.148
302.113
302.079
302.047
302.016
301.986
301.957
301.928
301.901
301.875
301.85
301.826
301.802
301.78
301.758
301.737
301.717
301.698
301.679
301.66
301.642
301.625
301.608
301.592
301.576
301.561
301.546
301.532
301.519
301.506
301.493
301.481
301.469
301.458
301.447
301.437
301.428
301.418
301.409
301.401
301.393
301.385
301.378
301.371
301.365
301.359
301.354
301.349
301.345
301.341
301.337
301.334
301.331
301.329
301.328
301.327
301.327
301.326
301.326
301.326
301.327
301.328
301.329
301.33
301.332
301.335
301.337
301.34
301.344
301.348
301.352
301.357
301.362
301.367
301.373
301.379
301.386
301.393
301.4
301.408
301.416
301.424
301.433
301.443
301.452
301.463
301.473
301.484
301.496
301.508
301.52
301.532
301.546
301.559
301.573
301.587
301.602
301.618
301.633
301.649
301.666
301.683
301.7
301.718
301.737
301.756
301.775
301.795
301.815
301.835
301.856
301.878
301.9
301.923
301.945
301.969
301.993
302.017
302.042
302.067
302.093
302.119
302.145
302.172
302.2
302.228
302.256
302.284
302.314
302.343
302.373
302.403
302.434
302.465
302.497
302.528
302.561
302.593
302.626
302.659
302.693
302.727
302.761
302.796
302.831
302.866
302.902
302.938
302.974
303.011
303.048
303.086
303.124
303.163
303.203
303.243
303.284
303.325
303.368
303.412
303.457
303.504
303.552
303.601
303.653
303.707
303.763
303.821
303.882
303.945
304.009
304.073
304.134
304.189
304.23
304.253
303.166
303.175
303.16
303.127
303.085
303.036
302.983
302.929
302.874
302.82
302.766
302.713
302.662
302.611
302.563
302.515
302.469
302.424
302.381
302.339
302.298
302.259
302.22
302.183
302.148
302.113
302.079
302.047
302.016
301.986
301.957
301.928
301.901
301.875
301.85
301.826
301.802
301.78
301.758
301.737
301.717
301.698
301.679
301.66
301.642
301.625
301.608
301.592
301.576
301.561
301.546
301.532
301.518
301.505
301.493
301.481
301.469
301.458
301.447
301.437
301.428
301.418
301.41
301.401
301.393
301.385
301.378
301.371
301.365
301.359
301.354
301.349
301.345
301.341
301.337
301.334
301.331
301.329
301.328
301.327
301.327
301.326
301.326
301.326
301.327
301.328
301.329
301.33
301.332
301.335
301.337
301.34
301.344
301.348
301.352
301.357
301.362
301.367
301.373
301.379
301.386
301.393
301.4
301.408
301.416
301.424
301.433
301.443
301.452
301.463
301.473
301.484
301.496
301.508
301.52
301.532
301.546
301.559
301.573
301.587
301.602
301.618
301.633
301.649
301.666
301.683
301.7
301.718
301.737
301.756
301.775
301.795
301.815
301.835
301.856
301.878
301.9
301.923
301.945
301.969
301.993
302.017
302.042
302.067
302.093
302.119
302.145
302.172
302.2
302.228
302.256
302.284
302.314
302.343
302.373
302.403
302.434
302.465
302.497
302.528
302.561
302.593
302.626
302.659
302.693
302.727
302.761
302.796
302.831
302.866
302.902
302.938
302.974
303.011
303.048
303.086
303.124
303.163
303.203
303.243
303.284
303.325
303.368
303.412
303.457
303.504
303.552
303.601
303.653
303.707
303.763
303.821
303.882
303.945
304.009
304.073
304.134
304.189
304.23
304.253
302.894
302.901
302.891
302.868
302.836
302.798
302.755
302.71
302.663
302.616
302.569
302.522
302.476
302.43
302.385
302.342
302.299
302.257
302.217
302.177
302.139
302.102
302.066
302.03
301.996
301.963
301.931
301.9
301.87
301.841
301.813
301.786
301.76
301.734
301.71
301.686
301.663
301.641
301.62
301.599
301.58
301.56
301.541
301.523
301.505
301.488
301.472
301.455
301.44
301.425
301.41
301.396
301.383
301.37
301.357
301.345
301.334
301.323
301.312
301.302
301.292
301.283
301.274
301.266
301.258
301.25
301.243
301.236
301.23
301.224
301.218
301.214
301.209
301.205
301.202
301.199
301.196
301.194
301.192
301.191
301.19
301.189
301.189
301.188
301.189
301.189
301.19
301.191
301.193
301.195
301.197
301.2
301.203
301.206
301.21
301.214
301.219
301.224
301.229
301.235
301.241
301.248
301.255
301.262
301.27
301.278
301.286
301.295
301.304
301.314
301.324
301.335
301.346
301.357
301.369
301.381
301.394
301.407
301.42
301.434
301.448
301.463
301.478
301.494
301.51
301.526
301.543
301.561
301.578
301.597
301.615
301.635
301.654
301.674
301.695
301.716
301.737
301.759
301.782
301.804
301.828
301.851
301.876
301.9
301.925
301.951
301.977
302.003
302.03
302.057
302.084
302.112
302.141
302.17
302.199
302.228
302.258
302.288
302.319
302.35
302.381
302.413
302.445
302.477
302.51
302.543
302.576
302.609
302.643
302.677
302.712
302.746
302.781
302.817
302.852
302.889
302.925
302.962
302.999
303.037
303.076
303.115
303.155
303.196
303.237
303.28
303.323
303.368
303.414
303.462
303.51
303.56
303.61
303.661
303.711
303.759
303.802
303.838
303.863
303.873
302.894
302.901
302.891
302.868
302.836
302.798
302.755
302.71
302.663
302.616
302.569
302.522
302.476
302.43
302.385
302.342
302.299
302.257
302.217
302.177
302.139
302.102
302.066
302.03
301.996
301.963
301.931
301.9
301.87
301.841
301.813
301.786
301.76
301.734
301.71
301.686
301.663
301.641
301.62
301.599
301.58
301.56
301.541
301.523
301.505
301.488
301.472
301.455
301.44
301.425
301.41
301.396
301.383
301.37
301.357
301.345
301.334
301.323
301.312
301.302
301.292
301.283
301.274
301.266
301.258
301.25
301.243
301.236
301.23
301.224
301.218
301.214
301.209
301.205
301.202
301.199
301.196
301.194
301.192
301.191
301.19
301.189
301.189
301.188
301.189
301.189
301.19
301.191
301.193
301.195
301.197
301.2
301.203
301.206
301.21
301.214
301.219
301.224
301.229
301.235
301.241
301.248
301.255
301.262
301.27
301.278
301.286
301.295
301.304
301.314
301.324
301.335
301.346
301.357
301.369
301.381
301.394
301.407
301.42
301.434
301.448
301.463
301.478
301.494
301.51
301.526
301.543
301.561
301.578
301.597
301.615
301.635
301.654
301.674
301.695
301.716
301.737
301.759
301.782
301.804
301.828
301.851
301.876
301.9
301.925
301.951
301.977
302.003
302.03
302.057
302.084
302.112
302.141
302.17
302.199
302.228
302.258
302.288
302.319
302.35
302.381
302.413
302.445
302.477
302.51
302.543
302.576
302.609
302.643
302.677
302.712
302.746
302.781
302.817
302.852
302.889
302.925
302.962
302.999
303.037
303.076
303.115
303.155
303.196
303.237
303.28
303.323
303.368
303.414
303.462
303.51
303.56
303.61
303.661
303.711
303.759
303.802
303.838
303.863
303.873
302.67
302.674
302.666
302.648
302.623
302.592
302.557
302.518
302.478
302.437
302.395
302.353
302.311
302.27
302.229
302.189
302.149
302.11
302.072
302.035
301.999
301.963
301.929
301.896
301.863
301.832
301.801
301.771
301.742
301.714
301.687
301.661
301.635
301.611
301.587
301.564
301.541
301.52
301.499
301.478
301.459
301.44
301.421
301.403
301.386
301.369
301.352
301.336
301.321
301.306
301.292
301.278
301.265
301.252
301.239
301.227
301.216
301.205
301.194
301.184
301.174
301.165
301.156
301.148
301.14
301.132
301.125
301.118
301.112
301.106
301.101
301.096
301.091
301.087
301.083
301.08
301.077
301.075
301.073
301.071
301.07
301.069
301.068
301.068
301.068
301.068
301.069
301.07
301.071
301.072
301.074
301.077
301.08
301.083
301.086
301.09
301.094
301.099
301.104
301.109
301.115
301.121
301.128
301.135
301.142
301.15
301.158
301.166
301.175
301.185
301.194
301.205
301.215
301.226
301.237
301.249
301.261
301.274
301.287
301.3
301.314
301.329
301.343
301.359
301.374
301.39
301.407
301.424
301.441
301.459
301.477
301.496
301.515
301.535
301.555
301.575
301.596
301.618
301.64
301.662
301.685
301.708
301.731
301.755
301.78
301.805
301.83
301.856
301.882
301.909
301.936
301.963
301.991
302.019
302.047
302.076
302.105
302.135
302.165
302.195
302.226
302.256
302.288
302.319
302.351
302.383
302.415
302.447
302.48
302.513
302.546
302.58
302.613
302.647
302.682
302.716
302.751
302.786
302.822
302.858
302.894
302.931
302.968
303.006
303.044
303.083
303.123
303.163
303.204
303.246
303.288
303.33
303.372
303.413
303.453
303.489
303.52
303.545
303.559
303.563
302.67
302.674
302.666
302.648
302.623
302.592
302.557
302.518
302.478
302.437
302.395
302.353
302.311
302.27
302.229
302.189
302.149
302.11
302.072
302.035
301.999
301.963
301.929
301.896
301.863
301.832
301.801
301.771
301.742
301.714
301.687
301.661
301.635
301.611
301.587
301.564
301.541
301.52
301.499
301.478
301.459
301.44
301.421
301.403
301.386
301.369
301.352
301.336
301.321
301.306
301.292
301.278
301.265
301.252
301.239
301.227
301.216
301.205
301.194
301.184
301.175
301.165
301.156
301.148
301.14
301.132
301.125
301.118
301.112
301.106
301.101
301.096
301.091
301.087
301.083
301.08
301.077
301.075
301.073
301.071
301.07
301.069
301.068
301.068
301.068
301.068
301.069
301.07
301.071
301.072
301.074
301.077
301.08
301.083
301.086
301.09
301.094
301.099
301.104
301.109
301.115
301.121
301.128
301.135
301.142
301.15
301.158
301.166
301.175
301.185
301.194
301.205
301.215
301.226
301.237
301.249
301.261
301.274
301.287
301.3
301.314
301.329
301.343
301.359
301.374
301.39
301.407
301.424
301.441
301.459
301.477
301.496
301.515
301.535
301.555
301.575
301.596
301.618
301.64
301.662
301.685
301.708
301.731
301.755
301.78
301.805
301.83
301.856
301.882
301.909
301.936
301.963
301.991
302.019
302.047
302.076
302.105
302.135
302.165
302.195
302.226
302.256
302.288
302.319
302.351
302.383
302.415
302.447
302.48
302.513
302.546
302.58
302.613
302.647
302.682
302.716
302.751
302.786
302.822
302.858
302.894
302.931
302.968
303.006
303.044
303.083
303.123
303.163
303.204
303.246
303.288
303.33
303.372
303.413
303.453
303.489
303.52
303.545
303.559
303.563
302.477
302.479
302.472
302.457
302.436
302.41
302.38
302.348
302.313
302.277
302.239
302.201
302.163
302.125
302.088
302.05
302.013
301.977
301.941
301.906
301.872
301.839
301.806
301.774
301.743
301.713
301.683
301.655
301.627
301.6
301.573
301.548
301.523
301.499
301.476
301.453
301.432
301.41
301.39
301.37
301.351
301.332
301.313
301.296
301.279
301.262
301.246
301.23
301.215
301.2
301.186
301.172
301.159
301.146
301.134
301.122
301.111
301.1
301.089
301.079
301.069
301.06
301.051
301.043
301.035
301.027
301.02
301.013
301.007
301.001
300.995
300.99
300.986
300.981
300.978
300.974
300.971
300.969
300.966
300.964
300.963
300.962
300.961
300.96
300.96
300.96
300.96
300.961
300.962
300.963
300.965
300.967
300.969
300.972
300.976
300.979
300.983
300.987
300.992
300.997
301.003
301.009
301.015
301.021
301.028
301.036
301.044
301.052
301.06
301.069
301.079
301.088
301.099
301.109
301.12
301.132
301.144
301.156
301.168
301.182
301.195
301.209
301.223
301.238
301.253
301.269
301.285
301.302
301.319
301.336
301.354
301.372
301.391
301.41
301.43
301.45
301.471
301.492
301.513
301.535
301.557
301.58
301.603
301.627
301.651
301.675
301.7
301.725
301.751
301.777
301.803
301.83
301.857
301.885
301.913
301.941
301.969
301.998
302.028
302.057
302.087
302.117
302.147
302.178
302.209
302.24
302.271
302.303
302.334
302.366
302.398
302.431
302.463
302.496
302.529
302.562
302.595
302.629
302.663
302.697
302.731
302.766
302.801
302.836
302.871
302.907
302.943
302.979
303.016
303.052
303.089
303.125
303.16
303.193
303.225
303.252
303.276
303.293
303.301
303.301
302.477
302.479
302.472
302.457
302.436
302.41
302.38
302.348
302.313
302.277
302.239
302.201
302.163
302.125
302.088
302.05
302.013
301.977
301.941
301.906
301.872
301.839
301.806
301.774
301.743
301.713
301.683
301.655
301.627
301.6
301.573
301.548
301.523
301.499
301.476
301.453
301.432
301.41
301.39
301.37
301.351
301.332
301.313
301.296
301.279
301.262
301.246
301.23
301.215
301.2
301.186
301.172
301.159
301.146
301.134
301.122
301.111
301.1
301.089
301.079
301.069
301.06
301.051
301.043
301.035
301.027
301.02
301.013
301.007
301.001
300.995
300.99
300.986
300.981
300.978
300.974
300.971
300.969
300.966
300.964
300.963
300.962
300.961
300.96
300.96
300.96
300.96
300.961
300.962
300.963
300.965
300.967
300.969
300.972
300.976
300.979
300.983
300.987
300.992
300.997
301.003
301.009
301.015
301.021
301.028
301.036
301.044
301.052
301.06
301.069
301.079
301.088
301.099
301.109
301.12
301.132
301.144
301.156
301.168
301.182
301.195
301.209
301.223
301.238
301.253
301.269
301.285
301.302
301.319
301.336
301.354
301.372
301.391
301.41
301.43
301.45
301.471
301.492
301.513
301.535
301.557
301.58
301.603
301.627
301.651
301.675
301.7
301.725
301.751
301.777
301.803
301.83
301.857
301.885
301.913
301.941
301.969
301.998
302.028
302.057
302.087
302.117
302.147
302.178
302.209
302.24
302.271
302.303
302.334
302.366
302.398
302.431
302.463
302.496
302.529
302.562
302.595
302.629
302.663
302.697
302.731
302.766
302.801
302.836
302.871
302.907
302.943
302.979
303.016
303.052
303.089
303.125
303.16
303.193
303.225
303.252
303.276
303.293
303.301
303.301
302.308
302.308
302.301
302.288
302.27
302.248
302.222
302.194
302.163
302.13
302.097
302.063
302.028
301.993
301.958
301.924
301.889
301.855
301.822
301.789
301.756
301.724
301.693
301.663
301.633
301.604
301.576
301.548
301.521
301.495
301.469
301.445
301.421
301.397
301.375
301.353
301.331
301.31
301.29
301.271
301.252
301.233
301.215
301.198
301.181
301.164
301.148
301.133
301.118
301.103
301.089
301.076
301.063
301.05
301.038
301.026
301.015
301.004
300.993
300.983
300.974
300.964
300.955
300.947
300.939
300.931
300.924
300.917
300.911
300.905
300.899
300.894
300.889
300.885
300.881
300.878
300.874
300.872
300.869
300.867
300.865
300.864
300.862
300.862
300.861
300.861
300.861
300.862
300.862
300.864
300.865
300.867
300.869
300.872
300.875
300.878
300.882
300.886
300.89
300.895
300.9
300.906
300.912
300.918
300.925
300.932
300.94
300.947
300.956
300.964
300.973
300.983
300.993
301.003
301.014
301.025
301.036
301.048