/*--------------------------------*- C++ -*----------------------------------*\
  =========                 |
  \\      /  F ield         | OpenFOAM: The Open Source CFD Toolbox
   \\    /   O peration     | Website:  https://openfoam.org
    \\  /    A nd           | Version:  8
     \\/     M anipulation  |
\*---------------------------------------------------------------------------*/
FoamFile
{
    version     2.0;
    format      ascii;
    class       volVectorField;
    location    "4800";
    object      U;
}
// * * * * * * * * * * * * * * * * * * * * * * * * * * * * * * * * * * * * * //

dimensions      [0 1 -1 0 0 0 0];

internalField   nonuniform List<vector> 
46000
(
(0.00244967 -1.92501e-06 -0.00248817)
(0.0118743 3.31394e-05 -0.00678115)
(0.0212353 3.21325e-05 -0.00626814)
(0.027748 1.61737e-05 -0.00384416)
(0.0308192 4.48327e-06 -0.00134525)
(0.0308325 -3.48253e-07 0.000795152)
(0.0282846 -1.43325e-06 0.00250678)
(0.0236992 -1.22004e-06 0.00383175)
(0.0175124 -7.78253e-07 0.00484301)
(0.0100795 -4.29968e-07 0.00561124)
(0.00168158 -2.14863e-07 0.00618578)
(-0.00746415 -1.01566e-07 0.00659642)
(-0.017143 -5.25954e-08 0.00687948)
(-0.0272325 -3.42638e-08 0.00707105)
(-0.03761 -2.12824e-08 0.00719073)
(-0.0481835 2.79277e-10 0.00725298)
(-0.0588763 3.22937e-08 0.00726897)
(-0.0696252 6.72052e-08 0.0072474)
(-0.0803774 9.21668e-08 0.00719515)
(-0.0910887 9.37556e-08 0.00711765)
(-0.101721 6.34179e-08 0.00701924)
(-0.112244 2.64936e-09 0.00690342)
(-0.122627 -7.42065e-08 0.00677304)
(-0.132849 -1.42003e-07 0.00663049)
(-0.142888 -1.72546e-07 0.00647779)
(-0.152726 -1.46075e-07 0.00631669)
(-0.162348 -6.1569e-08 0.00614867)
(-0.17174 6.1047e-08 0.00597498)
(-0.180891 1.91995e-07 0.00579659)
(-0.189791 3.14556e-07 0.00561428)
(-0.19843 4.48294e-07 0.00542866)
(-0.2068 6.54236e-07 0.00524022)
(-0.214893 1.00874e-06 0.0050494)
(-0.222704 1.5527e-06 0.00485648)
(-0.230224 2.24636e-06 0.00466162)
(-0.237447 2.96587e-06 0.0044648)
(-0.244367 3.55119e-06 0.00426615)
(-0.250976 3.8793e-06 0.00406659)
(-0.257268 3.95878e-06 0.00386943)
(-0.263239 4.0909e-06 0.00368354)
(-0.2689 4.77849e-06 0.00352755)
(-0.274279 5.22031e-06 0.00342849)
(-0.279427 2.35985e-06 0.00339613)
(-0.284394 3.14631e-06 0.00335008)
(-0.289087 3.92017e-06 0.00317756)
(-0.293331 -6.57385e-06 0.00314047)
(-0.297578 -2.97765e-05 0.00371615)
(-0.302108 1.41679e-05 0.00344242)
(-0.305115 0.00024641 0.00127775)
(-0.307953 0.000181324 0.00341275)
(-0.312641 3.6862e-05 0.00365919)
(-0.314891 0.000298957 -0.00196243)
(-0.314903 0.000189027 -0.000891654)
(-0.316604 2.96224e-05 0.00155406)
(-0.319217 -3.46636e-05 0.00199009)
(-0.320915 -4.61686e-05 0.00110869)
(-0.321815 0.00026974 0.00157865)
(-0.323471 0.000131814 0.00568426)
(-0.324959 -0.000131125 -0.000273762)
(-0.324259 -0.00040779 -0.00542675)
(-0.322808 -0.000567401 -0.000916572)
(-0.322819 -0.000353833 0.00193329)
(-0.324325 -0.000268668 0.00311902)
(-0.325009 8.83831e-05 -0.000314221)
(-0.322869 0.000253196 -0.00292251)
(-0.320897 -0.000248993 0.00113891)
(-0.321255 -0.000124067 0.00395783)
(-0.321188 0.000310206 -0.00195554)
(-0.317842 0.000847074 -0.00630817)
(-0.314683 0.000773145 -0.00263305)
(-0.313937 -0.000305722 0.00385425)
(-0.312786 -0.000655243 -0.0024881)
(-0.308713 -0.000268224 -0.00761654)
(-0.304807 -0.000106132 -0.00191266)
(-0.303172 -4.20972e-05 0.000532941)
(-0.302505 -1.75902e-05 0.00068086)
(-0.300482 -8.32666e-06 -0.00254297)
(-0.295865 -4.33435e-06 -0.00483344)
(-0.290999 -1.60619e-06 -0.00383336)
(-0.287285 7.04544e-08 -0.00240417)
(-0.284119 3.81308e-07 -0.00200063)
(-0.280778 5.20486e-08 -0.00205137)
(-0.277207 -2.03283e-07 -0.00219119)
(-0.273434 -3.74614e-07 -0.00231674)
(-0.269501 -4.75742e-07 -0.00241737)
(-0.265437 -3.24545e-07 -0.0024992)
(-0.261261 -8.88431e-09 -0.00256778)
(-0.256987 1.6711e-07 -0.00262692)
(-0.25263 9.44962e-08 -0.00267917)
(-0.248198 -6.14553e-08 -0.00272616)
(-0.2437 -1.06397e-07 -0.0027688)
(-0.239143 -5.79209e-09 -0.00280754)
(-0.234533 1.39121e-07 -0.00284252)
(-0.229878 2.17494e-07 -0.00287378)
(-0.225183 1.92295e-07 -0.00290126)
(-0.220454 9.84009e-08 -0.00292498)
(-0.215697 -4.50011e-09 -0.00294502)
(-0.210917 -7.32083e-08 -0.00296151)
(-0.206122 -9.48563e-08 -0.00297461)
(-0.201316 -7.93001e-08 -0.00298445)
(-0.196505 -4.49212e-08 -0.0029911)
(-0.191695 -7.99266e-09 -0.00299461)
(-0.186889 2.16751e-08 -0.00299502)
(-0.182093 4.04978e-08 -0.00299236)
(-0.177312 4.87651e-08 -0.00298671)
(-0.17255 4.83678e-08 -0.00297815)
(-0.167811 4.14039e-08 -0.00296676)
(-0.1631 2.99571e-08 -0.00295263)
(-0.158421 1.63296e-08 -0.00293583)
(-0.153778 3.08497e-09 -0.00291644)
(-0.149174 -7.44408e-09 -0.00289455)
(-0.144614 -1.38832e-08 -0.00287022)
(-0.140102 -1.62812e-08 -0.00284355)
(-0.135639 -1.58767e-08 -0.00281461)
(-0.13123 -1.42601e-08 -0.00278349)
(-0.126878 -1.24669e-08 -0.00275026)
(-0.122586 -1.05645e-08 -0.00271502)
(-0.118356 -7.80968e-09 -0.00267783)
(-0.114191 -3.38018e-09 -0.00263878)
(-0.110093 2.9908e-09 -0.00259794)
(-0.106066 1.06313e-08 -0.00255539)
(-0.102112 1.81135e-08 -0.0025112)
(-0.0982316 2.38232e-08 -0.00246545)
(-0.0944281 2.65819e-08 -0.00241822)
(-0.0907031 2.6065e-08 -0.00236959)
(-0.0870586 2.28734e-08 -0.00231963)
(-0.083496 1.82638e-08 -0.0022684)
(-0.0800171 1.372e-08 -0.00221599)
(-0.0766233 1.04812e-08 -0.00216245)
(-0.0733158 9.23944e-09 -0.00210785)
(-0.0700961 1.00285e-08 -0.00205225)
(-0.0669652 1.23758e-08 -0.00199572)
(-0.0639242 1.54937e-08 -0.00193833)
(-0.0609741 1.85689e-08 -0.00188013)
(-0.0581159 2.09747e-08 -0.00182119)
(-0.0553503 2.23824e-08 -0.00176158)
(-0.0526779 2.27501e-08 -0.00170137)
(-0.0500995 2.22975e-08 -0.00164063)
(-0.0476155 2.13328e-08 -0.00157942)
(-0.0452264 2.02045e-08 -0.00151781)
(-0.0429324 1.9201e-08 -0.00145589)
(-0.0407337 1.85026e-08 -0.00139371)
(-0.0386305 1.81911e-08 -0.00133137)
(-0.0366226 1.82834e-08 -0.00126894)
(-0.0347101 1.8708e-08 -0.0012065)
(-0.0328926 1.93897e-08 -0.00114415)
(-0.0311698 2.02302e-08 -0.00108198)
(-0.0295412 2.10927e-08 -0.00102009)
(-0.028006 2.19137e-08 -0.000958573)
(-0.0265636 2.25929e-08 -0.00089755)
(-0.025213 2.30837e-08 -0.000837131)
(-0.023953 2.33842e-08 -0.00077744)
(-0.0227824 2.3501e-08 -0.000718605)
(-0.0216997 2.34641e-08 -0.000660759)
(-0.0207032 2.33504e-08 -0.000604044)
(-0.0197911 2.32167e-08 -0.000548607)
(-0.0189613 2.30679e-08 -0.000494603)
(-0.0182115 2.29475e-08 -0.000442193)
(-0.0175392 2.28455e-08 -0.000391546)
(-0.0169415 2.27033e-08 -0.000342837)
(-0.0164155 2.24759e-08 -0.000296247)
(-0.0159579 2.21329e-08 -0.000251964)
(-0.0155651 2.16142e-08 -0.000210182)
(-0.0152333 2.09197e-08 -0.000171101)
(-0.0149584 2.00609e-08 -0.000134926)
(-0.0147359 1.90428e-08 -0.000101866)
(-0.0145611 1.79373e-08 -7.21334e-05)
(-0.0144289 1.67678e-08 -4.59461e-05)
(-0.0143341 1.55845e-08 -2.3523e-05)
(-0.014271 1.43975e-08 -5.0853e-06)
(-0.0142335 1.31967e-08 9.14507e-06)
(-0.0142154 1.19553e-08 1.89461e-05)
(-0.0142101 1.05961e-08 2.40972e-05)
(-0.0142104 9.08545e-09 2.43804e-05)
(-0.0142093 7.37973e-09 1.95819e-05)
(-0.0141991 5.50561e-09 9.49451e-06)
(-0.0141718 3.48644e-09 -6.07968e-06)
(-0.0141194 1.39595e-09 -2.73261e-05)
(-0.0140333 -6.85377e-10 -5.44137e-05)
(-0.0139049 -2.77101e-09 -8.74893e-05)
(-0.0137253 -4.91474e-09 -0.00012667)
(-0.0134853 -7.19728e-09 -0.000172032)
(-0.0131759 -9.75657e-09 -0.000223594)
(-0.0127878 -1.25929e-08 -0.000281296)
(-0.012312 -1.56899e-08 -0.000344963)
(-0.0117398 -1.90478e-08 -0.000414256)
(-0.011063 -2.26402e-08 -0.000488591)
(-0.0102746 -2.66526e-08 -0.000567027)
(-0.00936897 -3.11364e-08 -0.000648081)
(-0.0083431 -3.61532e-08 -0.000729439)
(-0.00719782 -4.16403e-08 -0.000807506)
(-0.00593994 -4.76498e-08 -0.000876685)
(-0.00458558 -5.44741e-08 -0.000928229)
(-0.00316532 -6.25792e-08 -0.000948443)
(-0.00173218 -7.24103e-08 -0.000916019)
(-0.000374495 -8.43435e-08 -0.000798313)
(0.000770968 -9.74645e-08 -0.000549276)
(0.00148433 -1.06659e-07 -0.000123334)
(0.00152625 -8.82675e-08 0.000412483)
(0.000574855 -3.21815e-08 0.000615144)
(0.0023824 -1.92607e-06 -0.00241214)
(0.0118336 3.31623e-05 -0.0067066)
(0.0212382 3.21375e-05 -0.00622902)
(0.0277582 1.61737e-05 -0.00382812)
(0.0308274 4.48317e-06 -0.00133967)
(0.0308389 -3.48246e-07 0.000796755)
(0.0282892 -1.43324e-06 0.00250711)
(0.0237022 -1.22003e-06 0.00383173)
(0.017514 -7.7825e-07 0.0048429)
(0.0100803 -4.29966e-07 0.0056111)
(0.00168175 -2.14862e-07 0.00618564)
(-0.00746426 -1.01565e-07 0.00659629)
(-0.0171432 -5.25953e-08 0.00687936)
(-0.0272326 -3.42637e-08 0.00707096)
(-0.0376101 -2.12823e-08 0.00719067)
(-0.0481834 2.79276e-10 0.00725293)
(-0.0588761 3.22936e-08 0.00726893)
(-0.0696249 6.72051e-08 0.00724736)
(-0.0803771 9.21666e-08 0.00719508)
(-0.0910884 9.37554e-08 0.00711752)
(-0.101721 6.34177e-08 0.00701905)
(-0.112244 2.64936e-09 0.00690316)
(-0.122628 -7.42064e-08 0.00677273)
(-0.13285 -1.42003e-07 0.00663016)
(-0.142889 -1.72546e-07 0.0064775)
(-0.152727 -1.46075e-07 0.00631649)
(-0.162349 -6.15689e-08 0.00614859)
(-0.17174 6.10469e-08 0.00597501)
(-0.180891 1.91995e-07 0.00579669)
(-0.18979 3.14556e-07 0.00561438)
(-0.198428 4.48294e-07 0.00542866)
(-0.206797 6.54236e-07 0.00524004)
(-0.21489 1.00874e-06 0.0050489)
(-0.222698 1.5527e-06 0.00485546)
(-0.230215 2.24638e-06 0.00465965)
(-0.237434 2.96594e-06 0.0044611)
(-0.244347 3.55137e-06 0.00425927)
(-0.250944 3.87974e-06 0.00405396)
(-0.257216 3.95969e-06 0.0038471)
(-0.263157 4.09266e-06 0.00364781)
(-0.268774 4.7819e-06 0.00348754)
(-0.274107 5.22553e-06 0.00345177)
(-0.279269 2.36232e-06 0.00367405)
(-0.284541 3.148e-06 0.00405051)
(-0.289843 3.91854e-06 0.00375733)
(-0.294285 -6.56809e-06 0.00239126)
(-0.297366 -2.97946e-05 0.00146492)
(-0.300057 1.42224e-05 0.00219416)
(-0.303598 0.000247592 0.00432563)
(-0.308256 0.000182114 0.00525293)
(-0.312149 3.71828e-05 0.0022843)
(-0.314208 0.000302297 0.00113042)
(-0.316021 0.000191166 0.00100586)
(-0.31797 2.99963e-05 0.00106754)
(-0.319826 -3.52067e-05 0.000277755)
(-0.319871 -4.73243e-05 -0.00130207)
(-0.319997 0.000282824 0.0058629)
(-0.32282 0.000143197 0.0104974)
(-0.326045 -0.000141355 -0.000556965)
(-0.32463 -0.000433888 -0.0104546)
(-0.322856 -0.000579649 -0.00541266)
(-0.323326 -0.000354851 0.000306343)
(-0.323492 -0.000268442 -0.000455693)
(-0.32293 8.81457e-05 0.00127665)
(-0.323804 0.000250616 0.00200334)
(-0.322677 -0.000245418 -0.00249415)
(-0.320586 -0.000123364 0.000239778)
(-0.318992 0.000312599 -0.000615535)
(-0.316859 0.000882559 0.00307239)
(-0.316434 0.000844026 0.00819173)
(-0.316483 -0.000333066 -0.00213188)
(-0.312691 -0.000678449 -0.012224)
(-0.307894 -0.000270993 -0.00840132)
(-0.30446 -0.000106453 -0.00187982)
(-0.303034 -4.21421e-05 0.000574035)
(-0.302452 -1.75973e-05 0.000696086)
(-0.300462 -8.32738e-06 -0.00253816)
(-0.295857 -4.33392e-06 -0.00483486)
(-0.290997 -1.60596e-06 -0.00383644)
(-0.287286 7.04478e-08 -0.00240692)
(-0.284119 3.81293e-07 -0.00200291)
(-0.280776 5.20482e-08 -0.00205221)
(-0.277204 -2.03283e-07 -0.00219107)
(-0.273433 -3.74615e-07 -0.00231677)
(-0.269502 -4.75742e-07 -0.00241771)
(-0.265437 -3.24545e-07 -0.0024994)
(-0.26126 -8.88431e-09 -0.00256764)
(-0.256987 1.6711e-07 -0.00262657)
(-0.252629 9.44961e-08 -0.00267886)
(-0.248198 -6.14553e-08 -0.00272604)
(-0.2437 -1.06397e-07 -0.0027689)
(-0.239143 -5.79208e-09 -0.00280776)
(-0.234534 1.39121e-07 -0.00284276)
(-0.229878 2.17493e-07 -0.00287393)
(-0.225183 1.92295e-07 -0.00290129)
(-0.220453 9.84009e-08 -0.00292491)
(-0.215696 -4.50011e-09 -0.00294491)
(-0.210917 -7.32083e-08 -0.00296142)
(-0.206121 -9.48562e-08 -0.00297459)
(-0.201316 -7.93e-08 -0.00298449)
(-0.196505 -4.49211e-08 -0.00299118)
(-0.191694 -7.99265e-09 -0.0029947)
(-0.186889 2.16751e-08 -0.0029951)
(-0.182093 4.04977e-08 -0.00299244)
(-0.177312 4.87651e-08 -0.00298679)
(-0.172549 4.83677e-08 -0.00297823)
(-0.167811 4.14039e-08 -0.00296684)
(-0.1631 2.99571e-08 -0.0029527)
(-0.158421 1.63296e-08 -0.0029359)
(-0.153777 3.08497e-09 -0.00291651)
(-0.149174 -7.44408e-09 -0.0028946)
(-0.144614 -1.38832e-08 -0.00287027)
(-0.140101 -1.62812e-08 -0.00284359)
(-0.135639 -1.58767e-08 -0.00281464)
(-0.13123 -1.42601e-08 -0.00278351)
(-0.126878 -1.24669e-08 -0.00275028)
(-0.122585 -1.05645e-08 -0.00271504)
(-0.118355 -7.80967e-09 -0.00267785)
(-0.114191 -3.38017e-09 -0.00263879)
(-0.110093 2.9908e-09 -0.00259795)
(-0.106066 1.06313e-08 -0.0025554)
(-0.102112 1.81135e-08 -0.00251121)
(-0.0982314 2.38232e-08 -0.00246547)
(-0.0944279 2.65819e-08 -0.00241824)
(-0.090703 2.60649e-08 -0.00236961)
(-0.0870584 2.28734e-08 -0.00231965)
(-0.0834959 1.82638e-08 -0.00226844)
(-0.080017 1.372e-08 -0.00221602)
(-0.0766232 1.04812e-08 -0.00216249)
(-0.0733157 9.23943e-09 -0.00210789)
(-0.070096 1.00285e-08 -0.00205229)
(-0.0669651 1.23758e-08 -0.00199576)
(-0.0639241 1.54937e-08 -0.00193836)
(-0.060974 1.85689e-08 -0.00188016)
(-0.0581158 2.09747e-08 -0.00182123)
(-0.0553501 2.23824e-08 -0.00176162)
(-0.0526778 2.27501e-08 -0.00170141)
(-0.0500994 2.22975e-08 -0.00164067)
(-0.0476154 2.13328e-08 -0.00157946)
(-0.0452263 2.02044e-08 -0.00151786)
(-0.0429323 1.9201e-08 -0.00145593)
(-0.0407336 1.85025e-08 -0.00139376)
(-0.0386304 1.81911e-08 -0.00133142)
(-0.0366225 1.82834e-08 -0.00126899)
(-0.03471 1.8708e-08 -0.00120655)
(-0.0328925 1.93897e-08 -0.0011442)
(-0.0311697 2.02302e-08 -0.00108203)
(-0.0295411 2.10927e-08 -0.00102014)
(-0.0280059 2.19136e-08 -0.000958624)
(-0.0265635 2.25929e-08 -0.000897601)
(-0.0252129 2.30837e-08 -0.000837184)
(-0.0239529 2.33842e-08 -0.000777495)
(-0.0227823 2.3501e-08 -0.000718662)
(-0.0216996 2.34641e-08 -0.000660818)
(-0.0207031 2.33504e-08 -0.000604105)
(-0.019791 2.32167e-08 -0.00054867)
(-0.0189612 2.30678e-08 -0.000494669)
(-0.0182114 2.29474e-08 -0.000442262)
(-0.0175391 2.28455e-08 -0.000391617)
(-0.0169414 2.27033e-08 -0.00034291)
(-0.0164154 2.24759e-08 -0.000296323)
(-0.0159578 2.21329e-08 -0.000252042)
(-0.015565 2.16142e-08 -0.000210263)
(-0.0152332 2.09197e-08 -0.000171185)
(-0.0149583 2.00608e-08 -0.000135012)
(-0.0147358 1.90427e-08 -0.000101953)
(-0.014561 1.79372e-08 -7.22229e-05)
(-0.0144289 1.67678e-08 -4.60373e-05)
(-0.0143341 1.55845e-08 -2.36158e-05)
(-0.0142709 1.43975e-08 -5.17946e-06)
(-0.0142335 1.31967e-08 9.04952e-06)
(-0.0142154 1.19553e-08 1.88492e-05)
(-0.01421 1.05961e-08 2.39989e-05)
(-0.0142104 9.08544e-09 2.42806e-05)
(-0.0142092 7.37972e-09 1.94806e-05)
(-0.014199 5.5056e-09 9.3918e-06)
(-0.0141718 3.48644e-09 -6.18377e-06)
(-0.0141193 1.39595e-09 -2.74315e-05)
(-0.0140333 -6.85377e-10 -5.45203e-05)
(-0.0139049 -2.77101e-09 -8.75972e-05)
(-0.0137252 -4.91474e-09 -0.000126779)
(-0.0134853 -7.19728e-09 -0.000172143)
(-0.0131758 -9.75657e-09 -0.000223707)
(-0.0127877 -1.25929e-08 -0.000281411)
(-0.0123119 -1.56898e-08 -0.000345081)
(-0.0117397 -1.90477e-08 -0.000414376)
(-0.011063 -2.26401e-08 -0.000488715)
(-0.0102746 -2.66526e-08 -0.000567156)
(-0.00936896 -3.11364e-08 -0.000648214)
(-0.0083431 -3.61531e-08 -0.000729577)
(-0.00719782 -4.16402e-08 -0.000807651)
(-0.00593995 -4.76498e-08 -0.000876836)
(-0.00458559 -5.44741e-08 -0.000928388)
(-0.00316534 -6.25791e-08 -0.000948612)
(-0.00173221 -7.24102e-08 -0.0009162)
(-0.000374528 -8.43434e-08 -0.000798509)
(0.000770926 -9.74643e-08 -0.00054949)
(0.00148429 -1.06659e-07 -0.000123571)
(0.00152615 -8.82676e-08 0.00041223)
(0.000574763 -3.21815e-08 0.000614942)
(0.00651012 -3.3559e-05 -0.0125573)
(0.013564 -2.9549e-06 -0.0141725)
(0.0174844 2.95717e-06 -0.0110684)
(0.0193729 2.29016e-06 -0.00634599)
(0.0191414 6.71128e-07 -0.00165246)
(0.0170584 -1.76147e-07 0.00246066)
(0.0133236 -3.92421e-07 0.00586359)
(0.00816334 -3.46699e-07 0.00860068)
(0.00180253 -2.42547e-07 0.0107702)
(-0.00555167 -1.54869e-07 0.0124729)
(-0.0137012 -9.9018e-08 0.0137929)
(-0.0224919 -6.99782e-08 0.0147985)
(-0.0317849 -5.80535e-08 0.0155517)
(-0.0414658 -5.37619e-08 0.0161057)
(-0.0514338 -5.0093e-08 0.0164972)
(-0.0616057 -4.36192e-08 0.0167554)
(-0.071911 -3.44333e-08 0.0169032)
(-0.0822897 -2.52994e-08 0.0169591)
(-0.092691 -2.04045e-08 0.0169378)
(-0.103071 -2.37158e-08 0.0168511)
(-0.113393 -3.69817e-08 0.0167089)
(-0.123624 -5.79356e-08 0.0165192)
(-0.133736 -7.97281e-08 0.0162886)
(-0.143705 -9.24723e-08 0.0160226)
(-0.153509 -8.69929e-08 0.015726)
(-0.163129 -5.96213e-08 0.0154027)
(-0.172549 -1.54972e-08 0.0150561)
(-0.181755 3.27266e-08 0.014689)
(-0.190734 7.24301e-08 0.0143039)
(-0.199476 1.02498e-07 0.0139028)
(-0.20797 1.41596e-07 0.0134872)
(-0.216209 2.24539e-07 0.0130586)
(-0.224186 3.83432e-07 0.012618)
(-0.231892 6.21664e-07 0.0121662)
(-0.239325 8.97358e-07 0.0117035)
(-0.246478 1.12815e-06 0.0112301)
(-0.253349 1.21225e-06 0.0107461)
(-0.259936 1.05719e-06 0.0102523)
(-0.26624 6.4212e-07 0.00975204)
(-0.272263 1.02496e-07 0.00925358)
(-0.278012 -4.71901e-07 0.00877398)
(-0.283487 -1.13155e-06 0.0083363)
(-0.288692 4.99379e-07 0.00794643)
(-0.293623 2.78101e-06 0.00753036)
(-0.298305 6.0252e-06 0.00697296)
(-0.302784 1.3381e-05 0.00635751)
(-0.306722 2.72853e-05 0.00587878)
(-0.309914 8.17246e-06 0.00531739)
(-0.31375 -0.00014447 0.00468711)
(-0.317267 -9.10562e-05 0.00467034)
(-0.318985 3.79679e-05 0.00449973)
(-0.321848 -0.000161852 0.00365365)
(-0.325621 -9.57927e-05 0.00331485)
(-0.327794 1.22112e-06 0.00331189)
(-0.328961 3.27983e-05 0.00289934)
(-0.330341 4.46651e-05 0.00206625)
(-0.331823 -0.000211386 0.00131998)
(-0.33221 -0.000148837 0.00112704)
(-0.332277 5.22314e-05 0.00092707)
(-0.333519 0.000262472 0.000441899)
(-0.33472 0.000352169 -7.79434e-05)
(-0.334527 0.000198079 -0.00037627)
(-0.333024 0.000161146 -0.00049064)
(-0.331837 -8.63131e-05 -0.00103213)
(-0.332199 -0.000185461 -0.00171511)
(-0.332107 0.000209393 -0.00194984)
(-0.329731 0.000125475 -0.00215538)
(-0.327171 -0.000188478 -0.00249717)
(-0.326652 -0.00057637 -0.00254897)
(-0.325948 -0.00052775 -0.00251278)
(-0.323147 0.000281837 -0.00264597)
(-0.319932 0.000493687 -0.00348171)
(-0.318459 0.000127823 -0.00413384)
(-0.316746 3.22473e-05 -0.00391746)
(-0.313389 8.96422e-06 -0.00368779)
(-0.309201 2.33533e-06 -0.00402579)
(-0.305464 5.07342e-07 -0.00494601)
(-0.303022 3.77759e-07 -0.00553308)
(-0.300542 2.18622e-07 -0.0054519)
(-0.29716 -2.45663e-08 -0.0052781)
(-0.293332 1.72757e-08 -0.00538703)
(-0.289479 1.24083e-07 -0.00565977)
(-0.285584 1.52054e-08 -0.00594373)
(-0.281623 -1.90538e-07 -0.00619321)
(-0.277581 -2.2226e-07 -0.00640625)
(-0.273448 -7.19908e-08 -0.00658969)
(-0.269223 6.75721e-08 -0.00674993)
(-0.264912 7.61982e-08 -0.00689167)
(-0.26052 1.61132e-09 -0.00701804)
(-0.256055 -4.81687e-08 -0.00713107)
(-0.251523 -2.53907e-08 -0.00723208)
(-0.24693 3.88665e-08 -0.00732194)
(-0.242284 8.84204e-08 -0.00740124)
(-0.237589 9.26833e-08 -0.00747036)
(-0.232851 5.80507e-08 -0.00752954)
(-0.228077 1.02727e-08 -0.00757905)
(-0.223273 -2.71272e-08 -0.00761915)
(-0.218443 -4.35726e-08 -0.00765014)
(-0.213594 -4.07018e-08 -0.00767234)
(-0.208732 -2.6387e-08 -0.00768602)
(-0.203861 -9.02806e-09 -0.0076914)
(-0.198987 5.58063e-09 -0.00768871)
(-0.194115 1.4889e-08 -0.00767816)
(-0.189249 1.88108e-08 -0.00765995)
(-0.184394 1.84502e-08 -0.00763433)
(-0.179555 1.5152e-08 -0.00760153)
(-0.174736 1.00646e-08 -0.00756179)
(-0.169942 4.18682e-09 -0.00751536)
(-0.165176 -1.51078e-09 -0.00746247)
(-0.160443 -6.13075e-09 -0.00740338)
(-0.155746 -9.07019e-09 -0.00733831)
(-0.15109 -1.02447e-08 -0.0072675)
(-0.146477 -1.0074e-08 -0.00719119)
(-0.141912 -9.23416e-09 -0.0071096)
(-0.137397 -8.27936e-09 -0.00702297)
(-0.132936 -7.40201e-09 -0.00693152)
(-0.128532 -6.43583e-09 -0.00683546)
(-0.124188 -5.07475e-09 -0.00673503)
(-0.119906 -3.15736e-09 -0.00663042)
(-0.11569 -8.34944e-10 -0.00652184)
(-0.111541 1.44213e-09 -0.00640949)
(-0.107462 3.11637e-09 -0.00629358)
(-0.103456 3.75706e-09 -0.00617429)
(-0.099525 3.22834e-09 -0.00605181)
(-0.0956705 1.74779e-09 -0.00592632)
(-0.0918947 -2.24632e-10 -0.00579801)
(-0.0881996 -2.13592e-09 -0.00566703)
(-0.0845868 -3.53043e-09 -0.00553357)
(-0.081058 -4.15987e-09 -0.00539777)
(-0.0776148 -4.01537e-09 -0.0052598)
(-0.0742586 -3.30095e-09 -0.00511982)
(-0.0709907 -2.31869e-09 -0.00497797)
(-0.0678125 -1.38485e-09 -0.00483439)
(-0.064725 -7.3858e-10 -0.00468926)
(-0.0617295 -4.94126e-10 -0.0045427)
(-0.0588268 -6.48679e-10 -0.00439486)
(-0.0560179 -1.10849e-09 -0.00424591)
(-0.0533036 -1.73492e-09 -0.00409598)
(-0.0506845 -2.39387e-09 -0.00394523)
(-0.0481612 -2.97152e-09 -0.00379382)
(-0.0457344 -3.40804e-09 -0.0036419)
(-0.0434042 -3.68428e-09 -0.00348965)
(-0.0411711 -3.80187e-09 -0.00333722)
(-0.0390352 -3.80313e-09 -0.00318481)
(-0.0369965 -3.71921e-09 -0.00303259)
(-0.035055 -3.59247e-09 -0.00288077)
(-0.0332105 -3.46198e-09 -0.00272955)
(-0.0314627 -3.3535e-09 -0.00257915)
(-0.029811 -3.28908e-09 -0.0024298)
(-0.0282548 -3.2783e-09 -0.00228174)
(-0.0267934 -3.32283e-09 -0.00213523)
(-0.0254257 -3.40813e-09 -0.00199054)
(-0.0241508 -3.52382e-09 -0.00184795)
(-0.0229671 -3.64912e-09 -0.00170777)
(-0.0218733 -3.76156e-09 -0.00157031)
(-0.0208676 -3.84949e-09 -0.0014359)
(-0.019948 -3.91249e-09 -0.0013049)
(-0.0191125 -3.9468e-09 -0.00117767)
(-0.0183585 -3.96157e-09 -0.00105459)
(-0.0176835 -3.97385e-09 -0.000936054)
(-0.0170846 -3.98615e-09 -0.000822487)
(-0.0165585 -4.01346e-09 -0.000714313)
(-0.0161019 -4.05661e-09 -0.000611979)
(-0.0157111 -4.11062e-09 -0.000515944)
(-0.015382 -4.16298e-09 -0.00042668)
(-0.0151103 -4.20621e-09 -0.000344673)
(-0.0148914 -4.22114e-09 -0.000270419)
(-0.0147204 -4.20108e-09 -0.000204424)
(-0.014592 -4.13602e-09 -0.000147202)
(-0.0145008 -4.03179e-09 -9.9274e-05)
(-0.0144408 -3.89503e-09 -6.11636e-05)
(-0.0144059 -3.74073e-09 -3.33973e-05)
(-0.0143896 -3.58474e-09 -1.65003e-05)
(-0.014385 -3.43706e-09 -1.09931e-05)
(-0.0143851 -3.29687e-09 -1.73883e-05)
(-0.0143824 -3.15581e-09 -3.61847e-05)
(-0.0143694 -2.98636e-09 -6.78614e-05)
(-0.0143381 -2.77681e-09 -0.000112869)
(-0.0142803 -2.51213e-09 -0.000171622)
(-0.0141877 -2.20062e-09 -0.00024448)
(-0.014052 -1.8648e-09 -0.000331736)
(-0.0138644 -1.5339e-09 -0.000433585)
(-0.0136165 -1.21124e-09 -0.000550088)
(-0.0132999 -8.85972e-10 -0.000681122)
(-0.0129064 -5.30497e-10 -0.000826303)
(-0.0124282 -1.42283e-10 -0.000984874)
(-0.0118584 2.70349e-10 -0.00115554)
(-0.0111909 6.70643e-10 -0.00133623)
(-0.0104214 1.05611e-09 -0.00152372)
(-0.00954755 1.47028e-09 -0.00171304)
(-0.00857032 1.92162e-09 -0.00189665)
(-0.00749496 2.3692e-09 -0.00206302)
(-0.00633286 2.66156e-09 -0.00219455)
(-0.0051038 2.66629e-09 -0.0022643)
(-0.00383888 2.24069e-09 -0.00223126)
(-0.0025845 1.04541e-09 -0.00203416)
(-0.00140367 -1.30201e-09 -0.00158602)
(-0.000393307 -3.34963e-09 -0.000781125)
(0.00034934 9.81314e-09 0.000437482)
(0.0003506 7.06041e-08 0.00158087)
(0.00646035 -3.3554e-05 -0.0125215)
(0.0135376 -2.95496e-06 -0.0141433)
(0.0174767 2.95714e-06 -0.0110556)
(0.0193731 2.29013e-06 -0.00633967)
(0.0191432 6.7112e-07 -0.00164911)
(0.0170602 -1.76145e-07 0.00246228)
(0.0133251 -3.92417e-07 0.00586429)
(0.00816421 -3.46696e-07 0.00860096)
(0.00180295 -2.42545e-07 0.0107703)
(-0.00555154 -1.54868e-07 0.0124729)
(-0.0137012 -9.90172e-08 0.0137928)
(-0.022492 -6.99777e-08 0.0147984)
(-0.031785 -5.80531e-08 0.0155517)
(-0.0414658 -5.37615e-08 0.0161056)
(-0.0514337 -5.00926e-08 0.0164971)
(-0.0616056 -4.3619e-08 0.0167553)
(-0.0719108 -3.44331e-08 0.0169032)
(-0.0822895 -2.52992e-08 0.0169591)
(-0.0926908 -2.04044e-08 0.0169377)
(-0.103071 -2.37156e-08 0.0168511)
(-0.113393 -3.69815e-08 0.0167088)
(-0.123624 -5.79353e-08 0.0165191)
(-0.133736 -7.97276e-08 0.0162884)
(-0.143705 -9.24717e-08 0.0160225)
(-0.153509 -8.69924e-08 0.0157259)
(-0.163129 -5.96209e-08 0.0154026)
(-0.172549 -1.54971e-08 0.015056)
(-0.181755 3.27264e-08 0.014689)
(-0.190734 7.24296e-08 0.014304)
(-0.199475 1.02498e-07 0.0139028)
(-0.20797 1.41595e-07 0.0134871)
(-0.216209 2.24538e-07 0.0130583)
(-0.224184 3.8343e-07 0.0126173)
(-0.231891 6.21661e-07 0.0121648)
(-0.239322 8.97358e-07 0.011701)
(-0.246475 1.12816e-06 0.0112256)
(-0.253346 1.21228e-06 0.0107381)
(-0.259935 1.05725e-06 0.0102384)
(-0.266245 6.42205e-07 0.00972852)
(-0.272283 1.02523e-07 0.00921621)
(-0.278058 -4.72117e-07 0.00872308)
(-0.283564 -1.13234e-06 0.00829868)
(-0.288771 4.99807e-07 0.00801211)
(-0.29354 2.78308e-06 0.00778149)
(-0.297859 6.02644e-06 0.00723999)
(-0.302179 1.33734e-05 0.00625553)
(-0.306777 2.72636e-05 0.00532748)
(-0.311135 8.17937e-06 0.00486551)
(-0.314533 -0.000145106 0.0047984)
(-0.31679 -9.17747e-05 0.00465277)
(-0.319202 3.8403e-05 0.00417037)
(-0.322286 -0.000164428 0.00377199)
(-0.324973 -9.786e-05 0.00348124)
(-0.326973 1.25267e-06 0.00320276)
(-0.328532 3.37391e-05 0.00265899)
(-0.330931 4.62917e-05 0.00180886)
(-0.332869 -0.000224564 0.00153372)
(-0.332332 -0.000163361 0.00158003)
(-0.331437 5.68246e-05 0.00125457)
(-0.3331 0.000284188 0.000680154)
(-0.334711 0.000364912 0.000468707)
(-0.334277 0.000199003 8.52006e-05)
(-0.333713 0.000159914 -0.000923647)
(-0.333259 -8.54241e-05 -0.0012137)
(-0.331478 -0.000183401 -0.0012776)
(-0.330706 0.00020596 -0.0019827)
(-0.330219 0.00012314 -0.00239926)
(-0.328787 -0.000187309 -0.00275326)
(-0.327576 -0.000597636 -0.00264072)
(-0.324785 -0.000583637 -0.00247649)
(-0.321251 0.00031237 -0.00297802)
(-0.319927 0.000516239 -0.00360974)
(-0.3191 0.000129534 -0.00395083)
(-0.31697 3.2386e-05 -0.00380442)
(-0.313454 8.97871e-06 -0.0036387)
(-0.309218 2.33679e-06 -0.00400636)
(-0.305466 5.07365e-07 -0.00493849)
(-0.303023 3.77645e-07 -0.00553018)
(-0.300545 2.18542e-07 -0.0054509)
(-0.297163 -2.45603e-08 -0.00527813)
(-0.293332 1.72738e-08 -0.00538722)
(-0.289477 1.24078e-07 -0.00565966)
(-0.285583 1.52053e-08 -0.00594361)
(-0.281623 -1.90538e-07 -0.00619328)
(-0.277581 -2.22259e-07 -0.00640634)
(-0.273447 -7.19905e-08 -0.00658965)
(-0.269223 6.75718e-08 -0.00674978)
(-0.264911 7.61978e-08 -0.00689148)
(-0.26052 1.61132e-09 -0.00701788)
(-0.256055 -4.81684e-08 -0.00713098)
(-0.251523 -2.53905e-08 -0.00723208)
(-0.24693 3.88663e-08 -0.00732202)
(-0.242284 8.842e-08 -0.00740135)
(-0.237589 9.26829e-08 -0.00747044)
(-0.232851 5.80505e-08 -0.00752957)
(-0.228077 1.02726e-08 -0.00757901)
(-0.223272 -2.71271e-08 -0.00761908)
(-0.218442 -4.35724e-08 -0.00765009)
(-0.213594 -4.07017e-08 -0.00767231)
(-0.208731 -2.63869e-08 -0.00768602)
(-0.203861 -9.02802e-09 -0.00769142)
(-0.198987 5.5806e-09 -0.00768874)
(-0.194115 1.4889e-08 -0.00767819)
(-0.189249 1.88107e-08 -0.00765998)
(-0.184394 1.84501e-08 -0.00763436)
(-0.179555 1.51519e-08 -0.00760156)
(-0.174736 1.00646e-08 -0.00756182)
(-0.169942 4.1868e-09 -0.00751538)
(-0.165176 -1.51078e-09 -0.0074625)
(-0.160443 -6.13072e-09 -0.0074034)
(-0.155746 -9.07015e-09 -0.00733833)
(-0.151089 -1.02447e-08 -0.00726752)
(-0.146477 -1.0074e-08 -0.0071912)
(-0.141912 -9.23412e-09 -0.00710961)
(-0.137397 -8.27933e-09 -0.00702298)
(-0.132936 -7.40198e-09 -0.00693152)
(-0.128532 -6.4358e-09 -0.00683547)
(-0.124188 -5.07473e-09 -0.00673503)
(-0.119906 -3.15735e-09 -0.00663042)
(-0.115689 -8.34941e-10 -0.00652184)
(-0.111541 1.44213e-09 -0.0064095)
(-0.107462 3.11635e-09 -0.00629358)
(-0.103456 3.75704e-09 -0.00617429)
(-0.0995249 3.22833e-09 -0.00605181)
(-0.0956704 1.74779e-09 -0.00592633)
(-0.0918946 -2.24631e-10 -0.00579801)
(-0.0881995 -2.13592e-09 -0.00566704)
(-0.0845867 -3.53042e-09 -0.00553358)
(-0.0810579 -4.15986e-09 -0.00539778)
(-0.0776147 -4.01535e-09 -0.00525982)
(-0.0742584 -3.30094e-09 -0.00511983)
(-0.0709906 -2.31868e-09 -0.00497798)
(-0.0678124 -1.38485e-09 -0.00483441)
(-0.0647249 -7.38577e-10 -0.00468927)
(-0.0617294 -4.94124e-10 -0.00454271)
(-0.0588267 -6.48677e-10 -0.00439488)
(-0.0560178 -1.10849e-09 -0.00424592)
(-0.0533035 -1.73492e-09 -0.004096)
(-0.0506844 -2.39386e-09 -0.00394525)
(-0.0481611 -2.97151e-09 -0.00379384)
(-0.0457343 -3.40803e-09 -0.00364192)
(-0.0434041 -3.68427e-09 -0.00348966)
(-0.041171 -3.80185e-09 -0.00333724)
(-0.0390351 -3.80312e-09 -0.00318482)
(-0.0369964 -3.7192e-09 -0.00303261)
(-0.0350549 -3.59246e-09 -0.00288079)
(-0.0332104 -3.46197e-09 -0.00272957)
(-0.0314626 -3.35349e-09 -0.00257917)
(-0.0298109 -3.28907e-09 -0.00242982)
(-0.0282547 -3.27829e-09 -0.00228176)
(-0.0267933 -3.32282e-09 -0.00213525)
(-0.0254256 -3.40812e-09 -0.00199056)
(-0.0241507 -3.52381e-09 -0.00184797)
(-0.022967 -3.64911e-09 -0.00170779)
(-0.0218732 -3.76155e-09 -0.00157033)
(-0.0208675 -3.84948e-09 -0.00143592)
(-0.0199479 -3.91248e-09 -0.00130492)
(-0.0191124 -3.94679e-09 -0.00117769)
(-0.0183584 -3.96155e-09 -0.00105461)
(-0.0176834 -3.97384e-09 -0.000936077)
(-0.0170845 -3.98614e-09 -0.00082251)
(-0.0165584 -4.01345e-09 -0.000714337)
(-0.0161018 -4.0566e-09 -0.000612003)
(-0.015711 -4.1106e-09 -0.000515968)
(-0.0153819 -4.16297e-09 -0.000426704)
(-0.0151102 -4.2062e-09 -0.000344698)
(-0.0148913 -4.22112e-09 -0.000270444)
(-0.0147203 -4.20107e-09 -0.000204449)
(-0.014592 -4.13601e-09 -0.000147227)
(-0.0145007 -4.03178e-09 -9.92985e-05)
(-0.0144407 -3.89502e-09 -6.1188e-05)
(-0.0144058 -3.74072e-09 -3.34216e-05)
(-0.0143895 -3.58473e-09 -1.65244e-05)
(-0.0143849 -3.43706e-09 -1.10172e-05)
(-0.014385 -3.29686e-09 -1.74123e-05)
(-0.0143824 -3.1558e-09 -3.62087e-05)
(-0.0143693 -2.98635e-09 -6.78853e-05)
(-0.014338 -2.77681e-09 -0.000112893)
(-0.0142802 -2.51212e-09 -0.000171646)
(-0.0141877 -2.20061e-09 -0.000244504)
(-0.0140519 -1.8648e-09 -0.000331761)
(-0.0138644 -1.5339e-09 -0.00043361)
(-0.0136165 -1.21124e-09 -0.000550114)
(-0.0132999 -8.8597e-10 -0.000681149)
(-0.0129064 -5.30496e-10 -0.000826331)
(-0.0124282 -1.42282e-10 -0.000984903)
(-0.0118584 2.70349e-10 -0.00115557)
(-0.0111909 6.70642e-10 -0.00133626)
(-0.0104214 1.05611e-09 -0.00152375)
(-0.00954754 1.47028e-09 -0.00171308)
(-0.00857031 1.92161e-09 -0.00189669)
(-0.00749496 2.3692e-09 -0.00206307)
(-0.00633286 2.66156e-09 -0.0021946)
(-0.0051038 2.66629e-09 -0.00226436)
(-0.00383889 2.24069e-09 -0.00223133)
(-0.00258451 1.0454e-09 -0.00203424)
(-0.00140369 -1.302e-09 -0.00158612)
(-0.000393343 -3.34963e-09 -0.000781241)
(0.000349255 9.81315e-09 0.000437333)
(0.00035047 7.06043e-08 0.00158071)
(0.00567473 -2.52113e-05 -0.0223141)
(0.0102668 -5.78147e-06 -0.0183108)