/*--------------------------------*- C++ -*----------------------------------*\
  =========                 |
  \\      /  F ield         | OpenFOAM: The Open Source CFD Toolbox
   \\    /   O peration     | Website:  https://openfoam.org
    \\  /    A nd           | Version:  8
     \\/     M anipulation  |
\*---------------------------------------------------------------------------*/
FoamFile
{
    version     2.0;
    format      ascii;
    class       volScalarField;
    location    "4600";
    object      alphat;
}
// * * * * * * * * * * * * * * * * * * * * * * * * * * * * * * * * * * * * * //

dimensions      [1 -1 -1 0 0 0 0];

internalField   nonuniform List<scalar> 
48000
(
5.46447e-05
9.53228e-05
0.000118061
0.000134755
0.000148659
0.000160448
0.000170694
0.000179781
0.000188061
0.000195788
0.000202934
0.000209621
0.000215907
0.000221839
0.000227454
0.000232782
0.000237847
0.000242669
0.000247264
0.000251645
0.000255823
0.000259807
0.000263607
0.00026723
0.000270681
0.000273966
0.000277092
0.000280062
0.000282881
0.000285555
0.000288086
0.000290479
0.000292737
0.000294865
0.000296866
0.000298744
0.000300503
0.000302146
0.000303677
0.000305099
0.000306416
0.000307631
0.000308747
0.000309768
0.000310697
0.000311555
0.000312334
0.000313031
0.000313649
0.00031419
0.000314659
0.000315058
0.00031539
0.00031566
0.000315869
0.00031602
0.000316118
0.000316163
0.000316159
0.000316108
0.000316012
0.000315875
0.000315698
0.000315483
0.000315232
0.000314948
0.000314632
0.000314286
0.000313912
0.00031351
0.000313084
0.000312633
0.00031216
0.000311666
0.000311152
0.000310618
0.000310067
0.000309499
0.000308914
0.000308315
0.0003077
0.000307072
0.000306431
0.000305777
0.000305111
0.000304433
0.000303744
0.000303045
0.000302334
0.000301614
0.000300883
0.000300143
0.000299393
0.000298634
0.000297865
0.000297087
0.000296299
0.000295502
0.000294696
0.00029388
0.000293054
0.000292219
0.000291374
0.000290519
0.000289654
0.000288779
0.000287893
0.000286996
0.000286088
0.000285169
0.000284238
0.000283295
0.00028234
0.000281373
0.000280392
0.000279399
0.000278392
0.000277371
0.000276335
0.000275285
0.00027422
0.00027314
0.000272044
0.000270932
0.000269803
0.000268658
0.000267495
0.000266314
0.000265115
0.000263898
0.000262661
0.000261406
0.00026013
0.000258835
0.000257519
0.000256182
0.000254824
0.000253444
0.000252042
0.000250617
0.00024917
0.000247699
0.000246204
0.000244686
0.000243143
0.000241575
0.000239982
0.000238364
0.000236719
0.000235048
0.00023335
0.000231625
0.000229872
0.000228091
0.000226282
0.000224443
0.000222575
0.000220677
0.000218748
0.000216788
0.000214797
0.000212773
0.000210715
0.000208624
0.000206498
0.000204337
0.000202138
0.000199902
0.000197627
0.000195311
0.000192953
0.000190552
0.000188105
0.00018561
0.000183065
0.000180467
0.000177813
0.0001751
0.000172323
0.000169482
0.000166581
0.000163618
0.000160567
0.000157415
0.00015415
0.000150758
0.000147223
0.000143521
0.000139626
0.000135502
0.000131103
0.000126394
0.000121307
0.000115701
0.000109403
0.000102136
9.34167e-05
8.23423e-05
6.84054e-05
0.00023932
5.46451e-05
9.53231e-05
0.000118061
0.000134756
0.000148659
0.000160448
0.000170694
0.000179781
0.000188061
0.000195788
0.000202934
0.000209621
0.000215907
0.000221839
0.000227454
0.000232782
0.000237847
0.000242669
0.000247264
0.000251645
0.000255823
0.000259807
0.000263607
0.00026723
0.000270681
0.000273966
0.000277092
0.000280062
0.000282882
0.000285555
0.000288086
0.000290479
0.000292737
0.000294865
0.000296866
0.000298745
0.000300503
0.000302146
0.000303677
0.000305099
0.000306416
0.000307631
0.000308747
0.000309768
0.000310697
0.000311555
0.000312334
0.000313031
0.000313649
0.00031419
0.000314659
0.000315058
0.00031539
0.00031566
0.000315869
0.00031602
0.000316118
0.000316163
0.000316159
0.000316108
0.000316012
0.000315875
0.000315698
0.000315483
0.000315232
0.000314948
0.000314632
0.000314286
0.000313912
0.00031351
0.000313084
0.000312633
0.00031216
0.000311666
0.000311152
0.000310618
0.000310067
0.000309499
0.000308914
0.000308315
0.0003077
0.000307072
0.000306431
0.000305777
0.000305111
0.000304433
0.000303744
0.000303045
0.000302334
0.000301614
0.000300883
0.000300143
0.000299393
0.000298634
0.000297865
0.000297087
0.000296299
0.000295502
0.000294696
0.00029388
0.000293054
0.000292219
0.000291374
0.000290519
0.000289654
0.000288779
0.000287893
0.000286996
0.000286088
0.000285169
0.000284238
0.000283295
0.00028234
0.000281373
0.000280392
0.000279399
0.000278392
0.000277371
0.000276335
0.000275285
0.00027422
0.00027314
0.000272044
0.000270932
0.000269803
0.000268658
0.000267495
0.000266314
0.000265115
0.000263898
0.000262661
0.000261406
0.00026013
0.000258835
0.000257519
0.000256182
0.000254824
0.000253444
0.000252042
0.000250617
0.00024917
0.000247699
0.000246204
0.000244686
0.000243143
0.000241575
0.000239982
0.000238364
0.000236719
0.000235048
0.00023335
0.000231625
0.000229872
0.000228091
0.000226282
0.000224443
0.000222575
0.000220677
0.000218748
0.000216788
0.000214797
0.000212773
0.000210715
0.000208624
0.000206498
0.000204337
0.000202138
0.000199902
0.000197627
0.000195311
0.000192953
0.000190552
0.000188105
0.00018561
0.000183065
0.000180467
0.000177813
0.0001751
0.000172323
0.000169482
0.000166581
0.000163618
0.000160567
0.000157415
0.00015415
0.000150758
0.000147223
0.000143521
0.000139626
0.000135502
0.000131103
0.000126394
0.000121307
0.000115701
0.000109403
0.000102136
9.3416e-05
8.23411e-05
6.84111e-05
0.000239328
8.3047e-05
0.00061614
0.000975077
0.00122572
0.00141477
0.00156769
0.00169868
0.00181389
0.00191682
0.00200962
0.00209458
0.00217291
0.00224558
0.00231334
0.00237675
0.00243629
0.00249231
0.00254514
0.00259503
0.0026422
0.00268683
0.00272911
0.00276915
0.0028071
0.00284307
0.00287715
0.00290944
0.00294002
0.00296897
0.00299636
0.00302225
0.00304672
0.0030698
0.00309157
0.00311206
0.00313133
0.00314943
0.0031664
0.00318229
0.00319712
0.00321095
0.0032238
0.0032357
0.00324668
0.00325669
0.00326553
0.00327346
0.0032806
0.00328703
0.0032928
0.00329794
0.00330248
0.00330645
0.00330987
0.00331277
0.00331518
0.00331711
0.00331858
0.00331962
0.00332024
0.00332047
0.00332032
0.0033198
0.00331894
0.00331775
0.00331625
0.00331444
0.00331234
0.00330997
0.00330734
0.00330445
0.00330132
0.00329797
0.00329439
0.0032906
0.00328661
0.00328243
0.00327806
0.00327351
0.00326878
0.00326389
0.00325884
0.00325363
0.00324827
0.00324276
0.00323711
0.00323133
0.0032254
0.00321934
0.00321315
0.00320683
0.00320038
0.0031938
0.0031871
0.00318027
0.00317332
0.00316625
0.00315905
0.00315172
0.00314427
0.00313669
0.00312899
0.00312115
0.00311318
0.00310508
0.00309685
0.00308848
0.00307997
0.00307132
0.00306253
0.00305359
0.0030445
0.00303526
0.00302586
0.0030163
0.00300658
0.0029967
0.00298664
0.00297642
0.00296602
0.00295544
0.00294467
0.00293372
0.00292258
0.00291124
0.0028997
0.00288796
0.00287602
0.00286386
0.00285149
0.0028389
0.00282609
0.00281305
0.00279978
0.00278627
0.00277253
0.00275854
0.00274431
0.00272982
0.00271508
0.00270008
0.00268481
0.00266928
0.00265348
0.0026374
0.00262104
0.00260439
0.00258745
0.00257022
0.00255269
0.00253486
0.00251672
0.00249826
0.00247949
0.00246039
0.00244096
0.00242119
0.00240108
0.00238062
0.0023598
0.00233862
0.00231706
0.00229511
0.00227278
0.00225003
0.00222687
0.00220328
0.00217924
0.00215474
0.00212975
0.00210427
0.00207826
0.0020517
0.00202456
0.0019968
0.00196839
0.00193928
0.00190941
0.0018787
0.00184704
0.00181429
0.00178033
0.00174514
0.00170866
0.00167074
0.00163118
0.00158977
0.00154619
0.00150004
0.00145074
0.00139741
0.00133843
0.00127269
0.00119843
0.00111256
0.00100988
0.000880982
0.000706912
0.000444399
5.94443e-05
8.30473e-05
0.000616145
0.000975084
0.00122573
0.00141478
0.0015677
0.00169868
0.0018139
0.00191683
0.00200963
0.00209459
0.00217292
0.00224559
0.00231335
0.00237676
0.00243629
0.00249232
0.00254514
0.00259503
0.0026422
0.00268684
0.00272911
0.00276916
0.00280711
0.00284307
0.00287715
0.00290944
0.00294003
0.00296898
0.00299637
0.00302226
0.00304672
0.00306981
0.00309157
0.00311206
0.00313134
0.00314944
0.00316641
0.00318229
0.00319713
0.00321095
0.0032238
0.00323571
0.00324668
0.00325669
0.00326553
0.00327346
0.0032806
0.00328704
0.0032928
0.00329794
0.00330248
0.00330645
0.00330987
0.00331278
0.00331518
0.00331711
0.00331858
0.00331962
0.00332025
0.00332047
0.00332032
0.00331981
0.00331895
0.00331776
0.00331625
0.00331444
0.00331235
0.00330997
0.00330734
0.00330445
0.00330133
0.00329797
0.00329439
0.00329061
0.00328662
0.00328243
0.00327806
0.00327351
0.00326878
0.00326389
0.00325884
0.00325363
0.00324827
0.00324277
0.00323712
0.00323133
0.0032254
0.00321934
0.00321315
0.00320683
0.00320038
0.00319381
0.0031871
0.00318028
0.00317333
0.00316625
0.00315905
0.00315172
0.00314427
0.00313669
0.00312899
0.00312115
0.00311319
0.00310509
0.00309685
0.00308848
0.00307998
0.00307133
0.00306253
0.00305359
0.0030445
0.00303526
0.00302586
0.0030163
0.00300658
0.0029967
0.00298665
0.00297642
0.00296602
0.00295544
0.00294467
0.00293372
0.00292258
0.00291124
0.00289971
0.00288797
0.00287602
0.00286386
0.00285149
0.0028389
0.00282609
0.00281305
0.00279978
0.00278627
0.00277253
0.00275854
0.00274431
0.00272982
0.00271508
0.00270008
0.00268482
0.00266928
0.00265348
0.0026374
0.00262104
0.00260439
0.00258746
0.00257022
0.0025527
0.00253486
0.00251672
0.00249827
0.00247949
0.00246039
0.00244096
0.00242119
0.00240108
0.00238062
0.0023598
0.00233862
0.00231706
0.00229512
0.00227278
0.00225003
0.00222687
0.00220328
0.00217924
0.00215474
0.00212976
0.00210427
0.00207826
0.0020517
0.00202456
0.0019968
0.00196839
0.00193928
0.00190941
0.0018787
0.00184705
0.00181429
0.00178033
0.00174515
0.00170866
0.00167074
0.00163118
0.00158977
0.0015462
0.00150004
0.00145074
0.00139741
0.00133843
0.0012727
0.00119844
0.00111256
0.00100988
0.000880979
0.00070691
0.000444399
5.94379e-05
0.000102202
0.000935246
0.00166413
0.00221062
0.00264022
0.00299551
0.00329999
0.00356742
0.00380606
0.00402142
0.00421763
0.00439765
0.00456373
0.00471763
0.00486075
0.00499422
0.00511898
0.00523583
0.00534544
0.0054484
0.00554522
0.00563635
0.00572218
0.00580308
0.00587936
0.00595131
0.0060192
0.00608327
0.00614373
0.00620079
0.00625463
0.00630542
0.00635333
0.0063985
0.00644106
0.00648115
0.00651889
0.00655437
0.00658772
0.00661902
0.00664835
0.0066758
0.00670143
0.00672527
0.00674733
0.00676752
0.00678607
0.00680311
0.00681878
0.00683316
0.00684633
0.00685836
0.00686929
0.00687919
0.00688809
0.00689604
0.00690308
0.00690925
0.00691459
0.00691912
0.00692288
0.00692591
0.00692823
0.00692987
0.00693085
0.00693121
0.00693096
0.00693014
0.00692875
0.00692682
0.00692437
0.00692143
0.006918
0.0069141
0.00690976
0.00690497
0.00689977
0.00689415
0.00688814
0.00688174
0.00687497
0.00686783
0.00686034
0.00685249
0.00684431
0.00683578
0.00682693
0.00681776
0.00680826
0.00679845
0.00678833
0.00677789
0.00676715
0.0067561
0.00674475
0.00673309
0.00672112
0.00670885
0.00669627
0.00668339
0.00667019
0.00665668
0.00664285
0.0066287
0.00661423
0.00659944
0.00658431
0.00656884
0.00655304
0.00653688
0.00652038
0.00650352
0.00648629
0.00646869
0.00645072
0.00643236
0.00641361
0.00639446
0.00637491
0.00635494
0.00633456
0.00631374
0.00629249
0.00627079
0.00624864
0.00622603
0.00620295
0.00617939
0.00615534
0.0061308
0.00610575
0.00608018
0.00605409
0.00602747
0.00600031
0.0059726
0.00594432
0.00591548
0.00588605
0.00585603
0.00582541
0.00579418
0.00576233
0.00572984
0.00569671
0.00566292
0.00562847
0.00559333
0.00555751
0.00552098
0.00548373
0.00544575
0.00540703
0.00536754
0.00532727
0.00528621
0.00524433
0.00520163
0.00515807
0.00511363
0.0050683
0.00502204
0.00497483
0.00492664
0.00487744
0.00482719
0.00477585
0.00472338
0.00466973
0.00461485
0.00455868
0.00450116
0.00444221
0.00438174
0.00431967
0.00425587
0.00419021
0.00412255
0.00405269
0.0039804
0.0039054
0.00382745
0.00374627
0.00366154
0.0035728
0.00347947
0.00338088
0.0032761
0.00316397
0.0030429
0.00291072
0.00276437
0.00259991
0.00241274
0.00219526
0.00193584
0.001616
0.00120578
0.000661433
7.23081e-05
0.000102202
0.000935253
0.00166414
0.00221064
0.00264023
0.00299553
0.00330001
0.00356743
0.00380608
0.00402144
0.00421764
0.00439766
0.00456374
0.00471765
0.00486076
0.00499423
0.00511899
0.00523584
0.00534545
0.00544841
0.00554523
0.00563636
0.00572219
0.00580309
0.00587937
0.00595132
0.00601921
0.00608328
0.00614374
0.00620079
0.00625463
0.00630543
0.00635334
0.0063985
0.00644107
0.00648116
0.00651889
0.00655438
0.00658772
0.00661902
0.00664835
0.0066758
0.00670143
0.00672528
0.00674733
0.00676753
0.00678607
0.00680312
0.00681878
0.00683317
0.00684634
0.00685836
0.0068693
0.00687919
0.00688809
0.00689604
0.00690309
0.00690926
0.00691459
0.00691912
0.00692289
0.00692591
0.00692823
0.00692987
0.00693086
0.00693121
0.00693097
0.00693014
0.00692875
0.00692682
0.00692438
0.00692143
0.006918
0.0069141
0.00690976
0.00690497
0.00689977
0.00689416
0.00688814
0.00688175
0.00687497
0.00686784
0.00686034
0.00685249
0.00684431
0.00683579
0.00682693
0.00681776
0.00680826
0.00679845
0.00678833
0.00677789
0.00676715
0.0067561
0.00674475
0.00673309
0.00672112
0.00670885
0.00669628
0.00668339
0.00667019
0.00665668
0.00664285
0.0066287
0.00661423
0.00659944
0.00658431
0.00656884
0.00655304
0.00653688
0.00652038
0.00650352
0.00648629
0.00646869
0.00645072
0.00643236
0.00641361
0.00639446
0.00637491
0.00635494
0.00633456
0.00631374
0.00629249
0.00627079
0.00624864
0.00622603
0.00620295
0.00617939
0.00615534
0.0061308
0.00610575
0.00608018
0.0060541
0.00602748
0.00600031
0.0059726
0.00594432
0.00591548
0.00588605
0.00585603
0.00582541
0.00579418
0.00576233
0.00572984
0.00569671
0.00566292
0.00562847
0.00559334
0.00555751
0.00552098
0.00548373
0.00544575
0.00540703
0.00536754
0.00532727
0.00528621
0.00524433
0.00520163
0.00515807
0.00511363
0.0050683
0.00502204
0.00497483
0.00492664
0.00487744
0.00482719
0.00477585
0.00472338
0.00466973
0.00461485
0.00455868
0.00450116
0.00444221
0.00438174
0.00431967
0.00425587
0.00419021
0.00412255
0.00405269
0.0039804
0.0039054
0.00382745
0.00374627
0.00366154
0.0035728
0.00347947
0.00338088
0.0032761
0.00316397
0.0030429
0.00291072
0.00276437
0.00259991
0.00241274
0.00219526
0.00193583
0.00161599
0.00120578
0.000661435
7.23096e-05
0.000115665
0.00113216
0.00213139
0.00292562
0.00357331
0.00411917
0.00459133
0.0050078
0.00538048
0.00571754
0.00602493
0.00630707
0.00656733
0.00680838
0.00703235
0.00724097
0.00743573
0.00761785
0.0077884
0.00794831
0.00809841
0.00823941
0.00837197
0.00849668
0.00861407
0.00872462
0.00882877
0.00892694
0.00901948
0.00910675
0.00918906
0.00926671
0.00933996
0.00940906
0.00947424
0.00953573
0.00959372
0.00964838
0.0096999
0.00974843
0.0097941
0.00983706
0.00987739
0.00991519
0.00995052
0.00998342
0.0100141
0.0100426
0.0100692
0.0100939
0.010117
0.0101383
0.0101582
0.0101765
0.0101934
0.010209
0.0102233
0.0102364
0.0102482
0.0102589
0.0102685
0.0102771
0.0102846
0.0102912
0.0102968
0.0103015
0.0103054
0.0103083
0.0103105
0.0103119
0.0103125
0.0103123
0.0103115
0.0103099
0.0103077
0.0103048
0.0103013
0.0102971
0.0102923
0.0102869
0.010281
0.0102744
0.0102673
0.0102597
0.0102515
0.0102428
0.0102336
0.0102238
0.0102135
0.0102027
0.0101914
0.0101796
0.0101673
0.0101545
0.0101412
0.0101274
0.0101131
0.0100982
0.0100829
0.0100671
0.0100507
0.0100339
0.0100165
0.00999861
0.00998018
0.0099612
0.00994168
0.00992161
0.00990099
0.00987979
0.00985802
0.00983566
0.00981271
0.00978915
0.00976498
0.00974019
0.00971476
0.00968868
0.00966195
0.00963454
0.00960646
0.00957768
0.0095482
0.009518
0.00948707
0.00945539
0.00942296
0.00938975
0.00935576
0.00932097
0.00928536
0.00924893
0.00921165
0.00917351
0.0091345
0.0090946
0.00905379
0.00901205
0.00896938
0.00892576
0.00888115
0.00883556
0.00878895
0.00874132
0.00869263
0.00864288
0.00859203
0.00854007
0.00848698
0.00843272
0.00837729
0.00832064
0.00826276
0.00820361
0.00814317
0.0080814
0.00801827
0.00795375
0.00788779
0.00782036
0.00775141
0.00768089
0.00760875
0.00753495
0.00745941
0.00738207
0.00730286
0.0072217
0.0071385
0.00705317
0.0069656
0.00687566
0.00678322
0.00668813
0.00659021
0.00648926
0.00638505
0.00627729
0.00616568
0.00604984
0.00592933
0.00580369
0.00567237
0.00553471
0.00538988
0.00523688
0.00507443
0.00490093
0.00471438
0.00451217
0.00429087
0.004046
0.00377161
0.00346038
0.00310175
0.0026808
0.00217642
0.00155994
0.00080509
8.2324e-05
0.000115665
0.00113217
0.00213141
0.00292563
0.00357333
0.00411919
0.00459135
0.00500782
0.0053805
0.00571756
0.00602495
0.00630709
0.00656735
0.0068084
0.00703236
0.00724099
0.00743575
0.00761786
0.00778842
0.00794833
0.00809842
0.00823942
0.00837199
0.00849669
0.00861408
0.00872463
0.00882878
0.00892695
0.00901949
0.00910676
0.00918907
0.00926672
0.00933996
0.00940907
0.00947425
0.00953574
0.00959372
0.00964839
0.00969991
0.00974844
0.00979411
0.00983706
0.00987739
0.0099152
0.00995053
0.00998343
0.0100141
0.0100426
0.0100692
0.0100939
0.010117
0.0101384
0.0101582
0.0101765
0.0101935
0.010209
0.0102233
0.0102364
0.0102482
0.0102589
0.0102685
0.0102771
0.0102846
0.0102912
0.0102968
0.0103015
0.0103054
0.0103083
0.0103105
0.0103119
0.0103125
0.0103123
0.0103115
0.0103099
0.0103077
0.0103048
0.0103013
0.0102971
0.0102923
0.0102869
0.010281
0.0102744
0.0102673
0.0102597
0.0102515
0.0102428
0.0102336
0.0102238
0.0102135
0.0102027
0.0101914
0.0101796
0.0101673
0.0101545
0.0101412
0.0101274
0.0101131
0.0100982
0.0100829
0.0100671
0.0100507
0.0100339
0.0100165
0.00999861
0.00998017
0.0099612
0.00994168
0.00992161
0.00990098
0.00987979
0.00985801
0.00983566
0.00981271
0.00978915
0.00976498
0.00974018
0.00971475
0.00968868
0.00966194
0.00963454
0.00960646
0.00957768
0.0095482
0.009518
0.00948707
0.00945539
0.00942295
0.00938975
0.00935576
0.00932096
0.00928536
0.00924892
0.00921165
0.00917351
0.0091345
0.00909459
0.00905378
0.00901205
0.00896938
0.00892575
0.00888115
0.00883556
0.00878895
0.00874131
0.00869263
0.00864287
0.00859203
0.00854007
0.00848697
0.00843272
0.00837728
0.00832064
0.00826276
0.00820361
0.00814317
0.0080814
0.00801827
0.00795375
0.00788779
0.00782036
0.0077514
0.00768089
0.00760875
0.00753494
0.0074594
0.00738206
0.00730285
0.00722169
0.0071385
0.00705317
0.00696559
0.00687566
0.00678322
0.00668813
0.00659021
0.00648926
0.00638504
0.00627729
0.00616568
0.00604983
0.00592933
0.00580369
0.00567237
0.0055347
0.00538988
0.00523688
0.00507443
0.00490093
0.00471438
0.00451216
0.00429087
0.004046
0.00377161
0.00346038
0.00310175
0.0026808
0.00217642
0.00155994
0.000805091
8.23244e-05
0.000126623
0.00126584
0.00246617
0.00346107
0.0042929
0.00500431
0.0056252
0.00617602
0.00667092
0.00711999
0.0075306
0.00790829
0.00825734
0.00858112
0.00888234
0.00916325
0.00942572
0.00967134
0.00990149
0.0101174
0.0103201
0.0105105
0.0106896
0.0108581
0.0110167
0.011166
0.0113068
0.0114394
0.0115645
0.0116824
0.0117937
0.0118988
0.011998
0.0120916
0.01218
0.0122636
0.0123425
0.012417
0.0124874
0.0125539
0.0126167
0.0126759
0.0127318
0.0127844
0.0128339
0.0128804
0.0129241
0.0129652
0.0130037
0.0130399
0.0130739
0.0131058
0.0131357
0.0131637
0.0131899
0.0132143
0.0132372
0.0132584
0.0132781
0.0132964
0.0133132
0.0133287
0.0133429
0.0133559
0.0133676
0.0133782
0.0133877
0.013396
0.0134033
0.0134096
0.0134149
0.0134192
0.0134226
0.0134251
0.0134266
0.0134274
0.0134272
0.0134262
0.0134244
0.0134219
0.0134185
0.0134144
0.0134095
0.0134038
0.0133975
0.0133904
0.0133825
0.013374
0.0133648
0.0133548
0.0133442
0.0133329
0.0133209
0.0133081
0.0132947
0.0132806
0.0132658
0.0132503
0.0132341
0.0132171
0.0131995
0.0131811
0.013162
0.0131422
0.0131217
0.0131003
0.0130783
0.0130554
0.0130318
0.0130074
0.0129821
0.0129561
0.0129292
0.0129015
0.012873
0.0128435
0.0128132
0.012782
0.0127499
0.0127168
0.0126828
0.0126478
0.0126119
0.0125749
0.0125369
0.012498
0.0124579
0.0124168
0.0123746
0.0123312
0.0122868
0.0122412
0.0121944
0.0121464
0.0120972
0.0120468
0.0119951
0.0119421
0.0118878
0.0118322
0.0117752
0.0117168
0.0116571
0.0115958
0.0115331
0.0114689
0.0114031
0.0113358
0.0112669
0.0111963
0.0111241
0.0110501
0.0109744
0.0108969
0.0108176
0.0107363
0.0106531
0.0105679
0.0104807
0.0103913
0.0102998
0.0102059
0.0101098
0.0100112
0.00991012
0.00980642
0.00969999
0.00959072
0.00947847
0.00936311
0.00924445
0.00912233
0.00899654
0.00886684
0.00873297
0.00859464
0.0084515
0.00830314
0.00814911
0.00798888
0.00782183
0.00764725
0.00746431
0.00727201
0.00706915
0.00685427
0.00662556
0.00638079
0.00611718
0.00583121
0.00551844
0.00517325
0.00478841
0.00435462
0.00386012
0.00328907
0.00262111
0.0018327
0.000914528
9.03231e-05
0.000126623
0.00126584
0.00246618
0.00346109
0.00429292
0.00500433
0.00562523
0.00617604
0.00667095
0.00712002
0.00753062
0.00790831
0.00825736
0.00858114
0.00888237
0.00916328
0.00942574
0.00967136
0.00990151
0.0101174
0.0103201
0.0105105
0.0106896
0.0108581
0.0110167
0.011166
0.0113068
0.0114394
0.0115645
0.0116824
0.0117938
0.0118988
0.011998
0.0120916
0.0121801
0.0122636
0.0123425
0.012417
0.0124874
0.0125539
0.0126167
0.0126759
0.0127318
0.0127844
0.0128339
0.0128804
0.0129241
0.0129652
0.0130037
0.0130399
0.0130739
0.0131058
0.0131357
0.0131637
0.0131899
0.0132143
0.0132372
0.0132584
0.0132781
0.0132964
0.0133132
0.0133287
0.0133429
0.0133559
0.0133676
0.0133782
0.0133877
0.013396
0.0134033
0.0134096
0.0134149
0.0134192
0.0134226
0.0134251
0.0134266
0.0134274
0.0134272
0.0134262
0.0134244
0.0134219
0.0134185
0.0134144
0.0134095
0.0134038
0.0133975
0.0133904
0.0133825
0.013374
0.0133648
0.0133548
0.0133442
0.0133329
0.0133209
0.0133081
0.0132947
0.0132806
0.0132658
0.0132503
0.0132341
0.0132171
0.0131995
0.0131811
0.013162
0.0131422
0.0131217
0.0131003
0.0130783
0.0130554
0.0130318
0.0130074
0.0129821
0.0129561
0.0129292
0.0129015
0.012873
0.0128435
0.0128132
0.012782
0.0127499
0.0127168
0.0126828
0.0126478
0.0126119
0.0125749
0.0125369
0.0124979
0.0124579
0.0124168
0.0123746
0.0123312
0.0122868
0.0122412
0.0121944
0.0121464
0.0120972
0.0120468
0.0119951
0.0119421
0.0118878
0.0118322
0.0117752
0.0117168
0.011657
0.0115958
0.0115331
0.0114689
0.0114031
0.0113358
0.0112669
0.0111963
0.0111241
0.0110501
0.0109744
0.0108969
0.0108176
0.0107363
0.0106531
0.0105679
0.0104807
0.0103913
0.0102998
0.0102059
0.0101098
0.0100112
0.00991012
0.00980641
0.00969999
0.00959072
0.00947847
0.0093631
0.00924445
0.00912233
0.00899653
0.00886684
0.00873297
0.00859464
0.00845149
0.00830314
0.00814911
0.00798888
0.00782183
0.00764725
0.0074643
0.00727201
0.00706915
0.00685427
0.00662556
0.00638079
0.00611718
0.00583121
0.00551843
0.00517325
0.0047884
0.00435462
0.00386012
0.00328907
0.00262111
0.0018327
0.000914527
9.03231e-05
0.000135894
0.00137146
0.00272547
0.00388144
0.00486585
0.00571769
0.00646701
0.00713548
0.00773867
0.00828793
0.00879167
0.00925631
0.00968678
0.010087
0.0104602
0.0108089
0.0111353
0.0114412
0.0117284
0.0119982
0.0122518
0.0124905
0.0127151
0.0129266
0.013126
0.0133139
0.0134911
0.0136582
0.013816
0.0139649
0.0141056
0.0142384
0.014364
0.0144827
0.0145949
0.0147011
0.0148015
0.0148965
0.0149864
0.0150715
0.015152
0.0152282
0.0153002
0.0153684
0.0154328
0.0154936
0.015551
0.0156053
0.0156565
0.0157049
0.0157506
0.0157938
0.0158346
0.015873
0.0159093
0.0159434
0.0159756
0.0160059
0.0160343
0.016061
0.016086
0.0161093
0.0161311
0.0161514
0.0161702
0.0161876
0.0162037
0.0162184
0.0162319
0.0162441
0.0162551
0.0162649
0.0162736
0.0162811
0.0162876
0.016293
0.0162974
0.0163007
0.0163031
0.0163044
0.0163048
0.0163043
0.0163028
0.0163003
0.016297
0.0162927
0.0162876
0.0162815
0.0162746
0.0162668
0.0162581
0.0162485
0.016238
0.0162266
0.0162144
0.0162013
0.0161873
0.0161724
0.0161566
0.0161398
0.0161222
0.0161037
0.0160842
0.0160638
0.0160424
0.0160201
0.0159968
0.0159725
0.0159472
0.0159209
0.0158936
0.0158652
0.0158358
0.0158053
0.0157737
0.0157409
0.0157071
0.0156721
0.0156359
0.0155985
0.01556
0.0155201
0.0154791
0.0154367
0.0153931
0.0153481
0.0153018
0.0152541
0.015205
0.0151545
0.0151026
0.0150491
0.0149942
0.0149377
0.0148797
0.0148201
0.0147588
0.0146959
0.0146313
0.014565
0.0144969
0.014427
0.0143553
0.0142817
0.0142063
0.0141288
0.0140494
0.013968
0.0138844
0.0137987
0.0137109
0.0136208
0.0135284
0.0134337
0.0133365
0.0132369
0.0131347
0.0130299
0.0129224
0.0128121
0.0126989
0.0125828
0.0124635
0.0123411
0.0122153
0.0120861
0.0119532
0.0118166
0.011676
0.0115313
0.0113822
0.0112285
0.0110699
0.0109061
0.0107367
0.0105614
0.0103796
0.0101909
0.00999468
0.00979019
0.00957664
0.00935309
0.00911844
0.00887138
0.00861034
0.00833343
0.00803838
0.0077224
0.00738208
0.0070132
0.00661055
0.00616766
0.00567643
0.00512674
0.00450638
0.00379985
0.00298893
0.00205562
0.00100436
9.70767e-05
0.000135894
0.00137147
0.00272549
0.00388146
0.00486587
0.00571771
0.00646704
0.00713551
0.0077387
0.00828795
0.0087917
0.00925633
0.00968681
0.010087
0.0104602
0.0108089
0.0111353
0.0114413
0.0117284
0.0119982
0.0122519
0.0124905
0.0127151
0.0129267
0.013126
0.0133139
0.0134911
0.0136583
0.013816
0.0139649
0.0141056
0.0142385
0.014364
0.0144827
0.0145949
0.0147011
0.0148015
0.0148965
0.0149864
0.0150715
0.015152
0.0152282
0.0153002
0.0153684
0.0154328
0.0154936
0.015551
0.0156053
0.0156565
0.0157049
0.0157506
0.0157938
0.0158346
0.015873
0.0159093
0.0159435
0.0159756
0.0160059
0.0160343
0.016061
0.016086
0.0161093
0.0161311
0.0161514
0.0161702
0.0161876
0.0162037
0.0162184
0.0162319
0.0162441
0.0162551
0.0162649
0.0162736
0.0162811
0.0162876
0.016293
0.0162974
0.0163007
0.0163031
0.0163044
0.0163048
0.0163043
0.0163028
0.0163003
0.016297
0.0162927
0.0162876
0.0162815
0.0162746
0.0162668
0.0162581
0.0162485
0.016238
0.0162266
0.0162144
0.0162013
0.0161873
0.0161724
0.0161566
0.0161398
0.0161222
0.0161037
0.0160842
0.0160638
0.0160424
0.0160201
0.0159968
0.0159725
0.0159472
0.0159209
0.0158936
0.0158652
0.0158358
0.0158053
0.0157737
0.0157409
0.0157071
0.0156721
0.0156359
0.0155985
0.01556
0.0155201
0.0154791
0.0154367
0.0153931
0.0153481
0.0153018
0.0152541
0.015205
0.0151545
0.0151026
0.0150491
0.0149942
0.0149377
0.0148797
0.0148201
0.0147588
0.0146959
0.0146313
0.014565
0.0144969
0.014427
0.0143553
0.0142817
0.0142063
0.0141288
0.0140494
0.013968
0.0138844
0.0137987
0.0137109
0.0136208
0.0135284
0.0134337
0.0133365
0.0132369
0.0131347
0.0130299
0.0129224
0.0128121
0.0126989
0.0125828
0.0124635
0.0123411
0.0122153
0.0120861
0.0119532
0.0118166
0.011676
0.0115313
0.0113822
0.0112285
0.0110699
0.0109061
0.0107367
0.0105614
0.0103796
0.0101909
0.00999468
0.00979019
0.00957664
0.00935309
0.00911844
0.00887137
0.00861033
0.00833343
0.00803838
0.0077224
0.00738207
0.00701319
0.00661055
0.00616766
0.00567643
0.00512674
0.00450638
0.00379985
0.00298893
0.00205562
0.00100436
9.70767e-05
0.00014409
0.00146174
0.00293915
0.00422604
0.00533695
0.00630731
0.00716659
0.007937
0.00863497
0.00927271
0.00985939
0.010402
0.0109061
0.011376
0.0118151
0.0122264
0.0126122
0.0129747
0.0133157
0.0136365
0.0139388
0.0142236
0.0144922
0.0147456
0.0149847
0.0152104
0.0154236
0.0156249
0.0158152
0.015995
0.016165
0.0163259
0.016478
0.0166221
0.0167584
0.0168876
0.0170099
0.0171258
0.0172357
0.0173399
0.0174386
0.0175323
0.0176211
0.0177053
0.0177851
0.0178608
0.0179325
0.0180005
0.018065
0.0181261
0.0181841
0.0182391
0.0182912
0.0183407
0.0183876
0.018432
0.0184741
0.018514
0.0185517
0.0185874
0.0186211
0.0186529
0.0186829
0.0187111
0.0187376
0.0187625
0.0187858
0.0188075
0.0188278
0.0188466
0.0188639
0.01888
0.0188946
0.018908
0.0189201
0.0189309
0.0189405
0.018949
0.0189562
0.0189623
0.0189672
0.018971
0.0189737
0.0189753
0.0189758
0.0189752
0.0189735
0.0189708
0.018967
0.0189621
0.0189562
0.0189493
0.0189412
0.0189321
0.018922
0.0189108
0.0188985
0.0188851
0.0188706
0.0188551
0.0188384
0.0188206
0.0188017
0.0187817
0.0187605
0.0187381
0.0187146
0.0186898
0.0186639
0.0186367
0.0186082
0.0185785
0.0185475
0.0185152
0.0184815
0.0184465
0.0184102
0.0183724
0.0183332
0.0182926
0.0182504
0.0182068
0.0181617
0.018115
0.0180667
0.0180168
0.0179653
0.0179121
0.0178571
0.0178005
0.0177421
0.0176818
0.0176198
0.0175558
0.01749
0.0174222
0.0173524
0.0172806
0.0172067
0.0171307
0.0170526
0.0169723
0.0168897
0.0168048
0.0167175
0.0166279
0.0165358
0.0164412
0.0163441
0.0162443
0.0161418
0.0160365
0.0159284
0.0158174
0.0157035
0.0155864
0.0154662
0.0153427
0.0152158
0.0150855
0.0149516
0.014814
0.0146725
0.014527
0.0143774
0.0142235
0.0140651
0.0139019
0.0137338
0.0135605
0.0133818
0.0131972
0.0130066
0.0128094
0.0126052
0.0123936
0.012174
0.0119457
0.011708
0.0114599
0.0112006
0.0109288
0.0106432
0.0103423
0.010024
0.00968621
0.00932616
0.00894063
0.00852569
0.0080766
0.00758759
0.00705165
0.00646024
0.00580301
0.00506759
0.00423955
0.00330307
0.00224527
0.00108138
0.000102984
0.00014409
0.00146175
0.00293917
0.00422606
0.00533698
0.00630733
0.00716661
0.00793703
0.008635
0.00927274
0.00985942
0.0104021
0.0109061
0.011376
0.0118151
0.0122264
0.0126123
0.0129748
0.0133157
0.0136366
0.0139388
0.0142237
0.0144923
0.0147456
0.0149847
0.0152105
0.0154236
0.0156249
0.0158152
0.015995
0.0161651
0.0163259
0.0164781
0.0166221
0.0167584
0.0168876
0.0170099
0.0171258
0.0172357
0.0173399
0.0174386
0.0175323
0.0176211
0.0177053
0.0177851
0.0178608
0.0179325
0.0180005
0.018065
0.0181261
0.0181841
0.0182391
0.0182912
0.0183407
0.0183876
0.018432
0.0184741
0.018514
0.0185517
0.0185874
0.0186211
0.0186529
0.0186829
0.0187111
0.0187376
0.0187625
0.0187858
0.0188075
0.0188278
0.0188466
0.0188639
0.01888
0.0188946
0.018908
0.0189201
0.0189309
0.0189405
0.018949
0.0189562
0.0189623
0.0189672
0.018971
0.0189737
0.0189753
0.0189758
0.0189752
0.0189735
0.0189708
0.018967
0.0189621
0.0189562
0.0189493
0.0189412
0.0189321
0.018922
0.0189108
0.0188985
0.0188851
0.0188706
0.0188551
0.0188384
0.0188206
0.0188017
0.0187817
0.0187605
0.0187381
0.0187146
0.0186898
0.0186639
0.0186367
0.0186082
0.0185785
0.0185475
0.0185152
0.0184815
0.0184465
0.0184102
0.0183724
0.0183332
0.0182926
0.0182504
0.0182068
0.0181617
0.018115
0.0180667
0.0180168
0.0179653
0.0179121
0.0178571
0.0178005
0.0177421
0.0176818
0.0176198
0.0175558
0.01749
0.0174222
0.0173524
0.0172806
0.0172067
0.0171307
0.0170526
0.0169723
0.0168897
0.0168048