/*--------------------------------*- C++ -*----------------------------------*\
  =========                 |
  \\      /  F ield         | OpenFOAM: The Open Source CFD Toolbox
   \\    /   O peration     | Website:  https://openfoam.org
    \\  /    A nd           | Version:  8
     \\/     M anipulation  |
\*---------------------------------------------------------------------------*/
FoamFile
{
    version     2.0;
    format      ascii;
    class       volScalarField;
    location    "4600";
    object      k;
}
// * * * * * * * * * * * * * * * * * * * * * * * * * * * * * * * * * * * * * //

dimensions      [0 2 -2 0 0 0 0];

internalField   nonuniform List<scalar> 
48000
(
0.0324805
0.0847337
0.129979
0.169338
0.206085
0.240066
0.271708
0.301404
0.329809
0.357467
0.384036
0.409763
0.434707
0.458921
0.482447
0.505315
0.527545
0.549152
0.570143
0.590523
0.610294
0.629453
0.647999
0.665929
0.683239
0.699925
0.715985
0.731416
0.746216
0.760385
0.773923
0.786831
0.799113
0.810772
0.821813
0.832243
0.84207
0.851301
0.859947
0.868018
0.875525
0.882481
0.888896
0.894783
0.900157
0.905136
0.909666
0.91373
0.917338
0.920506
0.923252
0.925595
0.927549
0.929134
0.930364
0.931257
0.931829
0.932095
0.93207
0.931769
0.931207
0.930397
0.929354
0.928089
0.926615
0.924945
0.92309
0.92106
0.918867
0.916519
0.914027
0.911399
0.908643
0.905768
0.902781
0.899689
0.896498
0.893215
0.889845
0.886394
0.882866
0.879266
0.875597
0.871864
0.868071
0.864219
0.860313
0.856354
0.852345
0.848288
0.844185
0.840037
0.835845
0.83161
0.827334
0.823016
0.818659
0.814261
0.809823
0.805346
0.800828
0.796271
0.791673
0.787034
0.782354
0.777632
0.772868
0.76806
0.763209
0.758312
0.75337
0.748381
0.743344
0.738258
0.733122
0.727936
0.722698
0.717407
0.712061
0.706661
0.701204
0.695691
0.690119
0.684487
0.678796
0.673044
0.667229
0.661352
0.655411
0.649406
0.643335
0.637199
0.630997
0.624727
0.618391
0.611986
0.605514
0.598973
0.592365
0.585687
0.578941
0.572127
0.565244
0.558293
0.551274
0.544188
0.537034
0.529814
0.522528
0.515177
0.50776
0.50028
0.492737
0.485131
0.477464
0.469737
0.46195
0.454104
0.446201
0.438241
0.430225
0.422155
0.41403
0.405853
0.397623
0.389342
0.381009
0.372625
0.364191
0.355706
0.34717
0.338582
0.329942
0.321248
0.312499
0.303692
0.294824
0.285894
0.276899
0.267843
0.258752
0.24963
0.240406
0.231058
0.221574
0.211931
0.202107
0.192071
0.181787
0.171207
0.160271
0.148965
0.137214
0.124825
0.111605
0.0972667
0.0813427
0.0630135
0.0409667
0.024397
0.0324809
0.0847341
0.12998
0.169338
0.206086
0.240067
0.271708
0.301405
0.329809
0.357467
0.384036
0.409763
0.434707
0.458921
0.482447
0.505315
0.527545
0.549152
0.570143
0.590524
0.610294
0.629453
0.648
0.665929
0.683239
0.699926
0.715986
0.731416
0.746217
0.760385
0.773923
0.786831
0.799113
0.810772
0.821813
0.832243
0.84207
0.851301
0.859947
0.868018
0.875526
0.882481
0.888896
0.894783
0.900157
0.905136
0.909666
0.91373
0.917338
0.920506
0.923253
0.925595
0.927549
0.929134
0.930364
0.931257
0.931829
0.932095
0.93207
0.931769
0.931207
0.930397
0.929354
0.928089
0.926615
0.924945
0.92309
0.92106
0.918867
0.916519
0.914027
0.911399
0.908643
0.905768
0.902781
0.899689
0.896498
0.893215
0.889845
0.886394
0.882866
0.879265
0.875597
0.871864
0.868071
0.864219
0.860313
0.856354
0.852345
0.848288
0.844185
0.840037
0.835844
0.83161
0.827334
0.823016
0.818659
0.814261
0.809823
0.805346
0.800828
0.796271
0.791673
0.787034
0.782354
0.777632
0.772868
0.76806
0.763209
0.758312
0.75337
0.748381
0.743344
0.738258
0.733122
0.727936
0.722698
0.717407
0.712061
0.706661
0.701204
0.695691
0.690119
0.684487
0.678796
0.673044
0.667229
0.661352
0.655411
0.649406
0.643335
0.637199
0.630996
0.624727
0.618391
0.611986
0.605514
0.598973
0.592364
0.585687
0.578941
0.572127
0.565244
0.558293
0.551274
0.544188
0.537034
0.529814
0.522528
0.515177
0.50776
0.50028
0.492737
0.485131
0.477464
0.469737
0.46195
0.454104
0.446201
0.438241
0.430225
0.422155
0.41403
0.405853
0.397623
0.389342
0.381009
0.372625
0.364191
0.355706
0.34717
0.338582
0.329942
0.321248
0.312499
0.303692
0.294825
0.285894
0.276899
0.267843
0.258752
0.24963
0.240406
0.231058
0.221574
0.211931
0.202107
0.192071
0.181787
0.171207
0.160271
0.148965
0.137214
0.124825
0.111605
0.0972667
0.0813426
0.0630134
0.0409676
0.0243971
0.0865406
0.217812
0.309697
0.390524
0.464791
0.534305
0.600414
0.663302
0.723673
0.781972
0.838439
0.893275
0.946621
0.998579
1.04922
1.0986
1.14674
1.19366
1.23937
1.28386
1.32713
1.36915
1.40993
1.44943
1.48764
1.52455
1.56014
1.59439
1.62729
1.65884
1.68902
1.71783
1.74528
1.77136
1.79608
1.81946
1.84149
1.86221
1.88162
1.89974
1.9166
1.93223
1.94664
1.95988
1.97195
1.98291
1.9928
2.00164
2.00948
2.01634
2.02226
2.02729
2.03145
2.03479
2.03735
2.03915
2.04023
2.04063
2.04039
2.03953
2.0381
2.03611
2.0336
2.0306
2.02714
2.02325
2.01894
2.01425
2.0092
2.00381
1.9981
1.99209
1.9858
1.97925
1.97246
1.96544
1.9582
1.95077
1.94314
1.93535
1.92738
1.91926
1.911
1.90259
1.89406
1.88541
1.87664
1.86776
1.85878
1.84969
1.84051
1.83124
1.82187
1.81242
1.80288
1.79325
1.78354
1.77375
1.76388
1.75393
1.74389
1.73378
1.72358
1.71329
1.70292
1.69247
1.68193
1.67129
1.66057
1.64976
1.63885
1.62784
1.61674
1.60553
1.59422
1.58281
1.57128
1.55965
1.54791
1.53605
1.52407
1.51197
1.49976
1.48742
1.47495
1.46236
1.44963
1.43678
1.42379
1.41067
1.39741
1.38401
1.37048
1.35681
1.34299
1.32904
1.31494
1.3007
1.28632
1.27179
1.25712
1.24231
1.22735
1.21226
1.19702
1.18164
1.16613
1.15047
1.13468
1.11875
1.10269
1.0865
1.07017
1.05372
1.03714
1.02044
1.00361
0.986662
0.969596
0.952415
0.935119
0.917711
0.900193
0.882566
0.864833
0.846993
0.829049
0.811001
0.79285
0.774594
0.756234
0.737768
0.719194
0.700509
0.681709
0.662788
0.643741
0.624561
0.605237
0.58576
0.56612
0.546295
0.526248
0.505958
0.48541
0.464554
0.44335
0.42174
0.399653
0.377002
0.353674
0.329513
0.304383
0.278042
0.250158
0.220259
0.187629
0.151026
0.10738
0.0423515
0.0865411
0.217813
0.309698
0.390525
0.464791
0.534305
0.600414
0.663302
0.723673
0.781972
0.838439
0.893275
0.946621
0.998579
1.04922
1.0986
1.14674
1.19366
1.23937
1.28386
1.32713
1.36915
1.40993
1.44943
1.48764
1.52455
1.56014
1.59439
1.62729
1.65884
1.68902
1.71783
1.74528
1.77136
1.79608
1.81946
1.84149
1.86221
1.88162
1.89974
1.9166
1.93223
1.94664
1.95987
1.97195
1.98291
1.9928
2.00164
2.00948
2.01634
2.02226
2.02729
2.03145
2.03479
2.03734
2.03915
2.04023
2.04063
2.04039
2.03953
2.0381
2.03611
2.0336
2.0306
2.02714
2.02325
2.01894
2.01425
2.0092
2.00381
1.9981
1.99209
1.9858
1.97925
1.97246
1.96544
1.9582
1.95077
1.94314
1.93534
1.92738
1.91926
1.911
1.90259
1.89406
1.88541
1.87664
1.86776
1.85878
1.84969
1.84051
1.83123
1.82187
1.81242
1.80288
1.79325
1.78354
1.77375
1.76388
1.75393
1.74389
1.73378
1.72358
1.71329
1.70292
1.69247
1.68193
1.67129
1.66057
1.64976
1.63885
1.62784
1.61674
1.60553
1.59422
1.58281
1.57128
1.55965
1.54791
1.53605
1.52407
1.51197
1.49976
1.48742
1.47495
1.46236
1.44963
1.43678
1.42379
1.41067
1.39741
1.38401
1.37048
1.35681
1.34299
1.32904
1.31494
1.3007
1.28631
1.27179
1.25712
1.24231
1.22735
1.21226
1.19702
1.18164
1.16613
1.15047
1.13468
1.11875
1.10269
1.0865
1.07017
1.05372
1.03714
1.02044
1.00361
0.986661
0.969596
0.952414
0.935119
0.917711
0.900193
0.882566
0.864832
0.846993
0.829049
0.811001
0.79285
0.774594
0.756234
0.737768
0.719194
0.700509
0.681708
0.662788
0.643741
0.62456
0.605237
0.58576
0.566119
0.546294
0.526248
0.505958
0.485409
0.464554
0.44335
0.42174
0.399653
0.377002
0.353673
0.329512
0.304383
0.278041
0.250157
0.220259
0.187629
0.151025
0.10738
0.0423502
0.131065
0.310727
0.425692
0.523975
0.614079
0.699102
0.780345
0.858436
0.93385
1.00693
1.07792
1.147
1.2143
1.27993
1.34395
1.40641
1.46734
1.52676
1.58466
1.64105
1.69591
1.74921
1.80095
1.8511
1.89963
1.94652
1.99175
2.03531
2.07716
2.11731
2.15574
2.19244
2.22741
2.26065
2.29217
2.32197
2.35008
2.3765
2.40126
2.42439
2.4459
2.46583
2.48422
2.50109
2.5165
2.53047
2.54306
2.55431
2.56427
2.57297
2.58047
2.58681
2.59204
2.5962
2.59935
2.60153
2.60278
2.60315
2.60268
2.60142
2.59941
2.59669
2.5933
2.58928
2.58465
2.57947
2.57376
2.56755
2.56088
2.55377
2.54625
2.53835
2.53009
2.5215
2.51259
2.50339
2.49392
2.4842
2.47424
2.46405
2.45366
2.44307
2.4323
2.42136
2.41026
2.399
2.3876
2.37607
2.3644
2.35261
2.3407
2.32868
2.31655
2.30431
2.29196
2.27951
2.26697
2.25432
2.24157
2.22872
2.21578
2.20273
2.18959
2.17634
2.163
2.14954
2.13599
2.12232
2.10854
2.09466
2.08065
2.06653
2.05229
2.03793
2.02344
2.00882
1.99407
1.97919
1.96416
1.949
1.9337
1.91825
1.90265
1.8869
1.87099
1.85493
1.83871
1.82233
1.80578
1.78907
1.77219
1.75514
1.73793
1.72054
1.70297
1.68524
1.66733
1.64924
1.63098
1.61254
1.59392
1.57513
1.55617
1.53702
1.51771
1.49822
1.47856
1.45873
1.43873
1.41857
1.39824
1.37775
1.35709
1.33628
1.31532
1.2942
1.27292
1.25151
1.22994
1.20824
1.18639
1.16441
1.14229
1.12003
1.09765
1.07514
1.0525
1.02973
1.00684
0.983813
0.960663
0.937384
0.913973
0.890426
0.86674
0.842907
0.81892
0.79477
0.770447
0.745936
0.721221
0.69628
0.671083
0.6456
0.619795
0.593617
0.567034
0.539976
0.512366
0.484108
0.455082
0.425135
0.394071
0.361662
0.327555
0.291233
0.251853
0.20769
0.153535
0.0654994
0.131066
0.310727
0.425692
0.523975
0.614079
0.699102
0.780345
0.858436
0.93385
1.00693
1.07792
1.147
1.2143
1.27993
1.34395
1.40641
1.46734
1.52676
1.58466
1.64105
1.69591
1.74921
1.80095
1.8511
1.89963
1.94652
1.99175
2.03531
2.07716
2.11731
2.15574
2.19243
2.2274
2.26065
2.29217
2.32197
2.35008
2.3765
2.40126
2.42439
2.4459
2.46583
2.48422
2.50109
2.51649
2.53047
2.54306
2.55431
2.56427
2.57297
2.58047
2.58681
2.59204
2.5962
2.59935
2.60152
2.60278
2.60315
2.60268
2.60142
2.59941
2.59669
2.5933
2.58927
2.58465
2.57947
2.57376
2.56755
2.56088
2.55377
2.54625
2.53835
2.53009
2.5215
2.51259
2.50339
2.49392
2.4842
2.47424
2.46405
2.45366
2.44307
2.4323
2.42136
2.41026
2.399
2.3876
2.37607
2.3644
2.35261
2.3407
2.32868
2.31655
2.30431
2.29196
2.27951
2.26696
2.25432
2.24157
2.22872
2.21578
2.20273
2.18959
2.17634
2.163
2.14954
2.13598
2.12232
2.10854
2.09465
2.08065
2.06653
2.05229
2.03793
2.02344
2.00882
1.99407
1.97918
1.96416
1.949
1.9337
1.91825
1.90265
1.88689
1.87099
1.85493
1.83871
1.82233
1.80578
1.78907
1.77219
1.75514
1.73793
1.72054
1.70297
1.68524
1.66733
1.64924
1.63098
1.61254
1.59392
1.57513
1.55616
1.53702
1.51771
1.49822
1.47856
1.45873
1.43873
1.41857
1.39824
1.37775
1.35709
1.33628
1.31531
1.29419
1.27292
1.25151
1.22994
1.20824
1.18639
1.16441
1.14229
1.12003
1.09765
1.07514
1.0525
1.02973
1.00683
0.983813
0.960663
0.937384
0.913973
0.890426
0.866739
0.842906
0.818919
0.79477
0.770446
0.745936
0.721221
0.696279
0.671083
0.6456
0.619795
0.593617
0.567034
0.539976
0.512366
0.484108
0.455082
0.425135
0.394071
0.361662
0.327555
0.291233
0.251853
0.207689
0.153535
0.0654997
0.167872
0.389625
0.523286
0.633987
0.735039
0.830519
0.922031
1.01034
1.0959
1.17901
1.25986
1.33863
1.41541
1.49031
1.56338
1.63466
1.70419
1.77198
1.83803
1.90233
1.96488
2.02566
2.08465
2.14182
2.19715
2.25062
2.3022
2.35188
2.39963
2.44545
2.48931
2.53122
2.57116
2.60914
2.64517
2.67924
2.71139
2.74162
2.76995
2.79642
2.82105
2.84388
2.86494
2.88427
2.90191
2.91792
2.93234
2.94522
2.95661
2.96655
2.97511
2.98233
2.98827
2.99298
2.99651
2.99891
3.00025
3.00056
2.9999
2.99833
2.99588
2.99261
2.98856
2.98377
2.97829
2.97216
2.96541
2.95809
2.95022
2.94186
2.93301
2.92373
2.91402
2.90394
2.89349
2.8827
2.8716
2.8602
2.84853
2.83661
2.82444
2.81205
2.79946
2.78666
2.77369
2.76054
2.74722
2.73376
2.72014
2.70639
2.6925
2.67848
2.66434
2.65008
2.63571
2.62121
2.60661
2.5919
2.57708
2.56214
2.5471
2.53195
2.51669
2.50131
2.48582
2.47022
2.4545
2.43866
2.4227
2.40662
2.39041
2.37406
2.35759
2.34098
2.32423
2.30733
2.29029
2.2731
2.25576
2.23826
2.2206
2.20278
2.1848
2.16664
2.14832
2.12982
2.11114
2.09228
2.07324
2.05401
2.0346
2.015
1.99521
1.97522
1.95505
1.93467
1.91411
1.89334
1.87238
1.85122
1.82987
1.80832
1.78657
1.76463
1.74249
1.72016
1.69763
1.67492
1.65202
1.62893
1.60565
1.5822
1.55856
1.53475
1.51076
1.4866
1.46227
1.43778
1.41313
1.38831
1.36334
1.33821
1.31293
1.28751
1.26194
1.23622
1.21036
1.18435
1.15821
1.13192
1.10549
1.07892
1.0522
1.02533
0.998306
0.97112
0.943765
0.916232
0.888508
0.860579
0.832427
0.80403
0.775361
0.746388
0.717073
0.687373
0.657236
0.626596
0.595383
0.563502
0.530834
0.497227
0.46248
0.426354
0.388476
0.348265
0.304679
0.255388
0.193109
0.0850262
0.167872
0.389626
0.523286
0.633987
0.735039
0.830518
0.922031
1.01034
1.0959
1.179
1.25986
1.33863
1.41541
1.49031
1.56338
1.63466
1.70419
1.77198
1.83803
1.90233
1.96488
2.02566
2.08465
2.14182
2.19715
2.25062
2.3022
2.35188
2.39963
2.44545
2.48931
2.53122
2.57116
2.60914
2.64517
2.67924
2.71139
2.74162
2.76995
2.79642
2.82105
2.84388
2.86494
2.88427
2.90191
2.91792
2.93234
2.94522
2.95661
2.96655
2.97511
2.98233
2.98827
2.99297
2.9965
2.99891
3.00024
3.00056
2.9999
2.99833
2.99588
2.99261
2.98856
2.98377
2.97829
2.97216
2.96541
2.95809
2.95022
2.94185
2.93301
2.92372
2.91402
2.90394
2.89349
2.8827
2.8716
2.8602
2.84853
2.83661
2.82444
2.81205
2.79946
2.78666
2.77369
2.76054
2.74722
2.73375
2.72014
2.70639
2.6925
2.67848
2.66434
2.65008
2.6357
2.62121
2.60661
2.5919
2.57707
2.56214
2.5471
2.53195
2.51669
2.50131
2.48582
2.47022
2.4545
2.43866
2.4227
2.40662
2.39041
2.37406
2.35759
2.34098
2.32423
2.30733
2.29029
2.2731
2.25576
2.23826
2.2206
2.20278
2.1848
2.16664
2.14832
2.12982
2.11114
2.09228
2.07324
2.05401
2.0346
2.015
1.99521
1.97522
1.95504
1.93467
1.9141
1.89334
1.87238
1.85122
1.82987
1.80832
1.78657
1.76463
1.74249
1.72016
1.69763
1.67492
1.65202
1.62893
1.60565
1.5822
1.55856
1.53475
1.51076
1.4866
1.46227
1.43778
1.41312
1.38831
1.36334
1.33821
1.31293
1.28751
1.26193
1.23622
1.21036
1.18435
1.15821
1.13192
1.10549
1.07892
1.0522
1.02533
0.998306
0.97112
0.943765
0.916232
0.888508
0.860579
0.832427
0.80403
0.775361
0.746388
0.717073
0.687373
0.657236
0.626596
0.595382
0.563502
0.530833
0.497226
0.46248
0.426353
0.388476
0.348265
0.304679
0.255388
0.193109
0.0850264
0.201185
0.460485
0.612054
0.73443
0.845119
0.949392
1.04932
1.14584
1.23947
1.3305
1.41911
1.50545
1.58962
1.67168
1.7517
1.82972
1.90576
1.97985
2.052
2.1222
2.19044
2.25672
2.32102
2.38332
2.4436
2.50184
2.55803
2.61214
2.66417
2.71408
2.76188
2.80756
2.85111
2.89253
2.93184
2.96903
3.00413
3.03715
3.06811
3.09705
3.12399
3.14896
3.17201
3.19318
3.21251
3.23004
3.24584
3.25996
3.27243
3.28333
3.29269
3.30059
3.30707
3.3122
3.31603
3.31862
3.32002
3.3203
3.3195
3.31768
3.3149
3.3112
3.30663
3.30125
3.2951
3.28822
3.28066
3.27246
3.26365
3.25429
3.24439
3.23401
3.22316
3.21188
3.2002
3.18814
3.17573
3.163
3.14996
3.13664
3.12306
3.10922
3.09516
3.08088
3.06639
3.05172
3.03686
3.02184
3.00665
2.99132
2.97583
2.96021
2.94445
2.92856
2.91255
2.89641
2.88015
2.86377
2.84728
2.83066
2.81393
2.79708
2.78011
2.76302
2.74581
2.72848
2.71102
2.69344
2.67572
2.65787
2.63988
2.62176
2.60349
2.58508
2.56651
2.5478
2.52892
2.50989
2.49069
2.47133
2.45179
2.43208
2.41219
2.39212
2.37186
2.35142
2.33078
2.30995
2.28893
2.26771
2.24628
2.22465
2.20282
2.18078
2.15853
2.13607
2.1134
2.09052
2.06742
2.04411
2.02059
1.99686
1.97292
1.94876
1.9244
1.89982
1.87504
1.85005
1.82486
1.79947
1.77387
1.74808
1.7221
1.69592
1.66955
1.643
1.61627
1.58935
1.56226
1.535
1.50756
1.47996
1.45219
1.42427
1.39618
1.36793
1.33953
1.31098
1.28227
1.25341
1.22439
1.19522
1.16589
1.1364
1.10674
1.07691
1.04691
1.01671
0.986309
0.955695
0.924849
0.893748
0.862368
0.830677
0.79864
0.766214
0.733348
0.69998
0.666037
0.631424
0.596021
0.559686
0.522213
0.48332
0.442611
0.399395
0.352376
0.298582
0.228824
0.102363
0.201186
0.460485
0.612054
0.73443
0.845119
0.949392
1.04932
1.14584
1.23947
1.3305
1.41911
1.50545
1.58961
1.67168
1.7517
1.82972
1.90576
1.97985
2.052
2.12219
2.19044
2.25672
2.32102
2.38332
2.4436
2.50184
2.55803
2.61214
2.66416
2.71408
2.76188
2.80755
2.8511
2.89253
2.93183
2.96903
3.00413
3.03715
3.06811
3.09705
3.12399
3.14896
3.17201
3.19318
3.21251
3.23004
3.24584
3.25995
3.27243
3.28332
3.29269
3.30059
3.30707
3.3122
3.31603
3.31862
3.32002
3.3203
3.3195
3.31768
3.3149
3.3112
3.30663
3.30125
3.2951
3.28822
3.28066
3.27246
3.26365
3.25429
3.24439
3.23401
3.22316
3.21188
3.2002
3.18814
3.17573
3.163
3.14996
3.13664
3.12306
3.10922
3.09516
3.08088
3.06639
3.05172
3.03686
3.02184
3.00665
2.99132
2.97583
2.96021
2.94445
2.92856
2.91255
2.89641
2.88015
2.86377
2.84728
2.83066
2.81393
2.79708
2.78011
2.76302
2.74581
2.72848
2.71102
2.69344
2.67572
2.65787
2.63988
2.62176
2.60349
2.58508
2.56651
2.5478
2.52892
2.50989
2.49069
2.47132
2.45179
2.43208
2.41219
2.39212
2.37186
2.35142
2.33078
2.30995
2.28893
2.2677
2.24628
2.22465
2.20282
2.18078
2.15853
2.13607
2.1134
2.09051
2.06742
2.04411
2.02059
1.99686
1.97292
1.94876
1.9244
1.89982
1.87504
1.85005
1.82486
1.79947
1.77387
1.74808
1.7221
1.69592
1.66955
1.643
1.61627
1.58935
1.56226
1.535
1.50756
1.47996
1.45219
1.42427
1.39618
1.36793
1.33953
1.31098
1.28227
1.25341
1.22439
1.19522
1.16589
1.1364
1.10674
1.07691
1.0469
1.01671
0.986309
0.955695
0.924849
0.893748
0.862368
0.830677
0.79864
0.766214
0.733348
0.69998
0.666037
0.631424
0.596021
0.559686
0.522213
0.48332
0.442611
0.399395
0.352376
0.298582
0.228824
0.102363
0.231724
0.526842
0.695678
0.829652
0.949619
1.06206
1.16957
1.27333
1.37394
1.47172
1.56687
1.65953
1.7498
1.83773
1.92339
2.00683
2.08806
2.16713
2.24404
2.3188
2.39142
2.4619
2.53022
2.59638
2.66037
2.72218
2.78179
2.83919
2.89437
2.94731
2.99802
3.04648
3.0927
3.13668
3.17842
3.21794
3.25525
3.29036
3.32331
3.35411
3.3828
3.40942
3.434
3.45658
3.47721
3.49595
3.51283
3.52791
3.54125
3.5529
3.56292
3.57137
3.57831
3.58379
3.58788
3.59063
3.59211
3.59238
3.59149
3.58949
3.58646
3.58243
3.57747
3.57163
3.56495
3.55748
3.54927
3.54037
3.53081
3.52064
3.5099
3.49862
3.48684
3.47459
3.4619
3.44881
3.43533
3.4215
3.40733
3.39286
3.3781
3.36307
3.34779
3.33227
3.31653
3.30059
3.28445
3.26813
3.25164
3.23498
3.21816
3.20119
3.18408
3.16683
3.14944
3.13192
3.11427
3.0965
3.0786
3.06057
3.04242
3.02414
3.00574
2.98721
2.96856
2.94977
2.93085
2.9118
2.8926
2.87327
2.8538
2.83417
2.8144
2.79447
2.77439
2.75414
2.73373
2.71315
2.69239
2.67146
2.65035
2.62905
2.60757
2.58589
2.56402
2.54195
2.51968
2.4972
2.47452
2.45162
2.42851
2.40519
2.38165
2.35789
2.33391
2.30971
2.28529
2.26064
2.23576
2.21066
2.18534
2.15978
2.13401
2.10801
2.08179
2.05534
2.02867
2.00179
1.97469
1.94737
1.91984
1.8921
1.86415
1.836
1.80765
1.77909
1.75035
1.72141
1.69228
1.66296
1.63346
1.60379
1.57393
1.5439
1.5137
1.48334
1.4528
1.4221
1.39123
1.3602
1.329
1.29764
1.26611
1.23441
1.20253
1.17047
1.13822
1.10578
1.07312
1.04025
1.00713
0.97376
0.940104
0.906136
0.871822
0.837122
0.801986
0.766356
0.730155
0.693294
0.65565
0.617069
0.577332
0.536122
0.492983
0.447097
0.396895
0.338791
0.261873
0.118244
0.231724
0.526842
0.695678
0.829652
0.949619
1.06206
1.16957
1.27333
1.37394
1.47172
1.56687
1.65953
1.7498
1.83773
1.92339
2.00683
2.08806
2.16713
2.24404
2.3188
2.39142
2.4619
2.53022
2.59638
2.66037
2.72218
2.78179
2.83919
2.89436
2.94731
2.99802
3.04648
3.0927
3.13668
3.17842
3.21794
3.25525
3.29036
3.32331
3.35411
3.3828
3.40942
3.434
3.45658
3.47721
3.49595
3.51283
3.52791
3.54125
3.5529
3.56292
3.57137
3.57831
3.58379
3.58788
3.59063
3.59211
3.59238
3.59149
3.58949
3.58646
3.58243
3.57747
3.57163
3.56495
3.55748
3.54927
3.54037
3.53081
3.52064
3.5099
3.49862
3.48684
3.47459
3.4619
3.44881
3.43533
3.4215
3.40733
3.39286
3.3781
3.36307
3.34779
3.33227
3.31653
3.30059
3.28445
3.26813
3.25163
3.23497
3.21816
3.20119
3.18408
3.16683
3.14944
3.13192
3.11427
3.0965
3.0786
3.06057
3.04242
3.02414
3.00574
2.98721
2.96856
2.94977
2.93085
2.9118
2.8926
2.87327
2.8538
2.83417
2.8144
2.79447
2.77439
2.75414
2.73373
2.71315
2.69239
2.67146
2.65035
2.62905
2.60757
2.58589
2.56402
2.54195
2.51968
2.4972
2.47452
2.45162
2.42851
2.40519
2.38165
2.35789
2.33391
2.30971
2.28529
2.26064
2.23576
2.21066
2.18534
2.15978
2.13401
2.10801
2.08179
2.05534
2.02867
2.00179
1.97469
1.94737
1.91984
1.8921
1.86415
1.836
1.80765
1.77909
1.75035
1.72141
1.69228
1.66296
1.63346
1.60379
1.57393
1.5439
1.5137
1.48334
1.4528
1.4221
1.39123
1.3602
1.329
1.29764
1.26611
1.23441
1.20253
1.17047
1.13822
1.10578
1.07312
1.04025
1.00713
0.97376
0.940103
0.906136
0.871822
0.837122
0.801986
0.766355
0.730155
0.693293
0.65565
0.617069
0.577332
0.536122
0.492983
0.447097
0.396895
0.338792
0.261873
0.118244
0.26052
0.590287
0.776048
0.921588
1.05073
1.17109
1.28577
1.3962
1.50312
1.60691
1.7078
1.80593
1.90141
1.9943
2.08467
2.17257
2.25803
2.3411
2.42179
2.50014
2.57616
2.64986
2.72124
2.79032
2.85708
2.92153
2.98367
3.04348
3.10097
3.15613
3.20896
3.25946
3.30763
3.35348
3.39701
3.43824
3.47718
3.51385
3.54828
3.58049
3.61051
3.63837
3.66413
3.6878
3.70945
3.72912
3.74685
3.76271
3.77675
3.78902
3.79958
3.80848
3.8158
3.82159
3.82592
3.82883
3.8304
3.83069
3.82975
3.82765
3.82444
3.82018
3.81492
3.80872
3.80164
3.79371
3.785
3.77554
3.76538
3.75457
3.74314
3.73114
3.7186
3.70556
3.69205
3.6781
3.66374
3.649
3.6339
3.61847
3.60273
3.5867
3.5704
3.55385
3.53707
3.52006
3.50284
3.48542
3.46782
3.45004
3.4321
3.41399
3.39573
3.37732
3.35877
3.34008
3.32125
3.30228
3.28319
3.26396
3.2446
3.2251
3.20548
3.18572
3.16583
3.1458
3.12563
3.10532
3.08487
3.06427
3.04352
3.02261
3.00155
2.98032
2.95894
2.93738
2.91565
2.89374
2.87166
2.84938
2.82692
2.80427
2.78142
2.75837
2.73511
2.71165
2.68798
2.66409
2.63999
2.61566
2.59111
2.56634
2.54134
2.51611
2.49065
2.46496
2.43903
2.41287
2.38647
2.35983
2.33296
2.30585
2.27851
2.25092
2.22311
2.19506
2.16678
2.13826
2.10952
2.08055
2.05136
2.02194
1.99231
1.96246
1.93239
1.90211
1.87163
1.84094
1.81005
1.77896
1.74767
1.7162
1.68453
1.65268
1.62065
1.58843
1.55604
1.52346
1.49071
1.45779
1.42468
1.39141
1.35795
1.32431
1.29048
1.25646
1.22225
1.18783
1.1532
1.11834
1.08323
1.04786
1.01221
0.976248
0.939941
0.903252
0.866132
0.828522
0.790349
0.751518
0.711903
0.671338
0.629582
0.586282
0.540884
0.492447
0.43914
0.376805
0.292953
0.133072
0.26052
0.590288
0.776048
0.921588
1.05073
1.17109
1.28577
1.3962
1.50312
1.60691
1.7078
1.80593
1.90141
1.9943
2.08467
2.17256
2.25803
2.34109
2.42179
2.50014
2.57616
2.64986
2.72124
2.79032
2.85708
2.92153
2.98367
3.04348
3.10097
3.15613
3.20896
3.25946
3.30763
3.35348
3.39701
3.43824
3.47718
3.51385
3.54828
3.58049
3.61051
3.63837
3.66413
3.6878
3.70945
3.72912
3.74685
3.76271
3.77675
3.78902
3.79958
3.80848
3.8158
3.82159
3.82592
3.82883
3.8304
3.83069
3.82975
3.82765
3.82444
3.82018
3.81492
3.80872
3.80164
3.79371
3.78499
3.77554
3.76538
3.75457
3.74314
3.73114
3.7186
3.70556
3.69205
3.6781
3.66374
3.649
3.6339
3.61847
3.60273
3.5867
3.5704
3.55385
3.53707
3.52006
3.50284
3.48542
3.46782
3.45004
3.4321
3.41399
3.39573
3.37732
3.35877
3.34008
3.32125
3.30228
3.28319
3.26396
3.2446
3.2251
3.20548
3.18572
3.16583
3.1458
3.12563
3.10532
3.08487
3.06427
3.04351
3.02261
3.00155
2.98032
2.95894
2.93738
2.91565
2.89374
2.87166
2.84938
2.82692
2.80427
2.78142
2.75837
2.73511
2.71165
2.68798
2.66409
2.63999
2.61566
2.59111
2.56634
2.54134
2.51611
2.49065
2.46496
2.43903
2.41287
2.38647
2.35983
2.33296
2.30585
2.2785
2.25092
2.22311
2.19506
2.16678
2.13826
2.10952
2.08055
2.05136
2.02194
1.99231
1.96246
1.93239
1.90211
1.87163
1.84094
1.81005
1.77896
1.74767
1.7162
1.68453
1.65268
1.62065
1.58843
1.55604
1.52346
1.49071
1.45779
1.42468
1.3914
1.35795
1.32431
1.29048
1.25646
1.22225
1.18783
1.1532
1.11834
1.08323
1.04786
1.01221
0.976248
0.939941
0.903252
0.866132
0.828522
0.790349
0.751518
0.711903
0.671338
0.629582
0.586282
0.540884
0.492447
0.43914
0.376805
0.292953
0.133072
0.28863
0.651664
0.854209
1.01129
1.14956
1.27769
1.39929
1.51604
1.62882
1.73809
1.84413
1.9471
2.04711
2.14426
2.23861
2.33022
2.41916
2.50546
2.58917
2.67033
2.74897
2.82512
2.8988
2.97002
3.03881
3.10517
3.16911
3.23064
3.28976
3.34647
3.40079
3.45271
3.50225
3.54941
3.59421
3.63665
3.67676
3.71455
3.75005
3.78328
3.81428
3.84308
3.86971
3.89421
3.91664
3.93703
3.95543
3.97191
3.9865
3.99927
4.01027
4.01957
4.02722
4.03328
4.03782
4.0409
4.04257
4.04291
4.04197
4.03981
4.03649
4.03207
4.0266
4.02015
4.01276
4.00449
3.99538
3.98549
3.97487
3.96355
3.95158
3.939
3.92585
3.91217
3.89799
3.88335
3.86827
3.85278
3.83692
3.8207
3.80415
3.78729
3.77015
3.75273
3.73507
3.71716
3.69904
3.6807
3.66217
3.64345
3.62455
3.60547
3.58624
3.56685
3.5473
3.52761
3.50777
3.48779
3.46767
3.44742
3.42702
3.40648
3.38581
3.365
3.34404
3.32295
3.30171
3.28032
3.25878
3.23708
3.21524
3.19323
3.17105
3.14871
3.1262
3.10352
3.08065
3.0576
3.03436
3.01093
2.98731
2.96348
2.93945
2.91521
2.89076
2.8661
2.84121
2.81611
2.79078
2.76521
2.73942
2.71339
2.68713
2.66063
2.63389
2.6069
2.57967
2.5522
2.52448
2.49651
2.4683
2.43984
2.41113
2.38217
2.35297
2.32353
2.29384
2.26391
2.23374
2.20333
2.17268
2.1418
2.11069
2.07935
2.04778
2.01599
1.98398
1.95175
1.91931
1.88666
1.8538
1.82073
1.78746
1.754
1.72033
1.68648
1.65243
1.61819
1.58376
1.54914
1.51433
1.47933
1.44415
1.40877
1.37319
1.33741
1.30143
1.26523
1.22882
1.19216
1.15526
1.11809
1.08064
1.04287
1.00476
0.966273
0.927355
0.88795
0.847981
0.807348
0.76592
0.72351
0.679855
0.634554
0.58697
0.536028
0.479644
0.413126
0.322518
0.147102
0.288631
0.651664
0.854209
1.01129
1.14956
1.27769
1.39929
1.51604
1.62882
1.73809
1.84413
1.9471
2.04711
2.14426
2.23861
2.33022
2.41916
2.50546
2.58917
2.67033
2.74897
2.82512
2.8988
2.97002
3.03881
3.10517
3.16911
3.23064
3.28976
3.34647
3.40079
3.45271
3.50225
3.54941
3.59421
3.63665
3.67676
3.71455
3.75005
3.78328
3.81428
3.84307
3.8697
3.89421
3.91664
3.93703
3.95543
3.97191
3.9865
3.99927
4.01027
4.01957
4.02722
4.03328
4.03782
4.0409
4.04257
4.04291
4.04197
4.03981
4.03649
4.03207
4.0266
4.02015
4.01276
4.00449
3.99538
3.98549
3.97487
3.96355
3.95158
3.939
3.92585
3.91217
3.89799
3.88335
3.86827
3.85278
3.83692
3.8207
3.80415
3.78729
3.77015
3.75273
3.73506
3.71716
3.69904
3.6807
3.66217
3.64345
3.62454
3.60547
3.58624
3.56685
3.5473
3.52761
3.50777
3.48779
3.46767
3.44742
3.42702
3.40648
3.38581
3.365
3.34404
3.32295
3.3017
3.28032
3.25878
3.23708
3.21524
3.19323
3.17105
3.14871
3.1262
3.10352
3.08065
3.0576
3.03436
3.01093
2.98731
2.96348
2.93945
2.91521
2.89076
2.8661
2.84121
2.81611
2.79077
2.76521
2.73942
2.71339
2.68713
2.66063
2.63389
2.6069
2.57967
2.5522
2.52448
2.49651
2.4683
2.43983
2.41113
2.38217
2.35297
2.32353
2.29384
2.26391
2.23374
2.20333
2.17268
2.1418
2.11069
2.07935
2.04778
2.01599
1.98398
1.95175
1.91931
1.88666
1.8538
1.82073
1.78746
1.754
1.72033
1.68648
1.65243
1.61819
1.58376
1.54914
1.51433
1.47933
1.44415
1.40877
1.37319
1.33741
1.30143
1.26523
1.22882
1.19216
1.15526
1.11809
1.08064
1.04287
1.00476
0.966273
0.927355
0.88795
0.847981
0.807348
0.76592
0.72351
0.679855
0.634554
0.58697
0.536028
0.479644
0.413127
0.322519
0.147102
0.316556
0.711816
0.93087
1.0994
1.24675
1.38255
1.51087
1.63367
1.75196
1.8663
1.97702
2.08431
2.18832
2.28914
2.38688
2.4816
2.57338
2.66228
2.74837
2.8317
2.91232
2.99027
3.06561
3.13835
3.20854
3.2762
3.34135
3.40401
3.46419
3.52191
3.57719
3.63003
3.68044
3.72845
3.77407
3.8173
3.85818
3.89672
3.93295
3.96688
3.99856
4.02801
4.05527
4.08038
4.10338
4.12432
4.14323
4.16018
4.17521
4.18838
4.19975
4.20937
4.21731
4.22361
4.22836
4.23159
4.23338
4.23379
4.23288
4.23071
4.22734
4.22283
4.21723
4.2106
4.203
4.19448
4.18509
4.17489
4.16391
4.1522
4.13981
4.12679
4.11317
4.09898
4.08427
4.06907
4.05341
4.03732
4.02083
4.00397
3.98676
3.96922
3.95138
3.93325
3.91486
3.89621
3.87733
3.85823
3.83892
3.8194
3.7997
3.77982
3.75976
3.73954
3.71916
3.69862
3.67793
3.65709
3.6361
3.61496
3.59368
3.57226
3.55069
3.52897
3.50711
3.4851
3.46294
3.44062
3.41815
3.39552
3.37273
3.34977
3.32664
3.30334
3.27986
3.2562
3.23235
3.20832
3.18409
3.15966
3.13503
3.11019
3.08514
3.05987
3.03439
3.00868
2.98275
2.95659
2.93019
2.90356
2.87668
2.84957
2.82221
2.7946
2.76674
2.73863
2.71027
2.68166
2.65279
2.62366
2.59427
2.56463
2.53474
2.50458
2.47417
2.4435
2.41258
2.3814
2.34998
2.3183
2.28637
2.2542
2.22179
2.18913
2.15623
2.1231
2.08974
2.05614
2.02232
1.98827
1.954
1.91951
1.88481
1.84989
1.81476
1.77943
1.74388
1.70814
1.67219
1.63603
1.59968
1.56312
1.52635
1.48939
1.45221
1.41483
1.37722
1.33939
1.30134
1.26303
1.22448
1.18565
1.14653
1.1071
1.06732
1.02716
0.986574
0.945492
0.903838
0.861508
0.818354
0.774176
0.728677
0.681411
0.631662
0.57821
0.518743
0.448071
0.350876
0.160578
0.316556
0.711816
0.93087
1.0994
1.24675
1.38255
1.51087
1.63367
1.75196
1.8663
1.97702
2.08431
2.18832
2.28914
2.38688
2.4816
2.57338
2.66228
2.74837
2.8317
2.91232
2.99027
3.06561
3.13835
3.20854
3.2762
3.34135
3.40401
3.46419
3.52191
3.57719
3.63003
3.68044
3.72845
3.77407
3.8173
3.85818
3.89672
3.93295
3.96688
3.99856
4.02801
4.05527
4.08038
4.10338
4.12432
4.14323
4.16018
4.17521
4.18838
4.19975
4.20937
4.21731
4.22361
4.22835
4.23159
4.23338
4.23379
4.23288
4.23071
4.22734
4.22283
4.21723
4.2106
4.203
4.19448
4.18509
4.17489
4.16391
4.1522
4.13981
4.12679
4.11316
4.09898
4.08427
4.06907
4.05341
4.03732
4.02083
4.00397
3.98676
3.96922
3.95138
3.93325
3.91486
3.89621
3.87733
3.85823
3.83892
3.8194
3.7997
3.77982
3.75976
3.73954
3.71916
3.69862
3.67793
3.65709
3.6361
3.61496
3.59368
3.57226
3.55069
3.52897
3.50711
3.4851
3.46294
3.44062
3.41815
3.39552
3.37273
3.34977
3.32664
3.30334
3.27986
3.2562
3.23235
3.20832
3.18409
3.15966
3.13503
3.11019
3.08514
3.05987
3.03439
3.00868
2.98275
2.95659
2.93019
2.90356
2.87668
2.84957
2.82221
2.7946
2.76674
2.73863
2.71027
2.68166
2.65279
2.62366
2.59427
2.56463
2.53474
2.50458
2.47417
2.4435
2.41258
2.3814
2.34998
2.3183
2.28637
2.2542
2.22179
2.18913
2.15623
2.1231
2.08974
2.05614
2.02232
1.98827
1.954
1.91951
1.88481
1.84989
1.81476
1.77943
1.74388
1.70814
1.67219
1.63603
1.59968
1.56312
1.52635
1.48939
1.45221
1.41483
1.37722
1.33939
1.30134
1.26303
1.22448
1.18565
1.14653
1.1071
1.06732
1.02716
0.986574
0.945492
0.903838
0.861508
0.818354
0.774176
0.728677
0.681411
0.631663
0.57821
0.518743
0.448072
0.350877
0.160578
0.344023
0.771088
1.00645
1.18636
1.3427
1.48606
1.62094
1.74956
1.87307