/*--------------------------------*- C++ -*----------------------------------*\
  =========                 |
  \\      /  F ield         | OpenFOAM: The Open Source CFD Toolbox
   \\    /   O peration     | Website:  https://openfoam.org
    \\  /    A nd           | Version:  8
     \\/     M anipulation  |
\*---------------------------------------------------------------------------*/
FoamFile
{
    version     2.0;
    format      ascii;
    class       volScalarField;
    location    "4600";
    object      nut;
}
// * * * * * * * * * * * * * * * * * * * * * * * * * * * * * * * * * * * * * //

dimensions      [0 2 -1 0 0 0 0];

internalField   nonuniform List<scalar> 
48000
(
5.43446e-05
9.47993e-05
0.000117413
0.000134015
0.000147843
0.000159567
0.000169757
0.000178793
0.000187028
0.000194712
0.000201819
0.000208469
0.000214721
0.00022062
0.000226204
0.000231503
0.000236541
0.000241336
0.000245906
0.000250262
0.000254417
0.00025838
0.000262159
0.000265761
0.000269194
0.000272461
0.000275569
0.000278523
0.000281327
0.000283986
0.000286503
0.000288882
0.000291128
0.000293245
0.000295235
0.000297103
0.000298852
0.000300486
0.000302008
0.000303422
0.000304731
0.00030594
0.00030705
0.000308065
0.000308989
0.000309842
0.000310617
0.00031131
0.000311924
0.000312462
0.000312928
0.000313325
0.000313656
0.000313923
0.000314131
0.000314282
0.000314379
0.000314423
0.000314419
0.000314368
0.000314274
0.000314137
0.000313961
0.000313747
0.000313498
0.000313215
0.0003129
0.000312556
0.000312184
0.000311784
0.00031136
0.000310912
0.000310442
0.00030995
0.000309438
0.000308908
0.000308359
0.000307794
0.000307213
0.000306616
0.000306005
0.000305381
0.000304743
0.000304092
0.00030343
0.000302756
0.000302071
0.000301375
0.000300668
0.000299952
0.000299225
0.000298489
0.000297743
0.000296988
0.000296223
0.000295449
0.000294666
0.000293873
0.000293071
0.00029226
0.000291439
0.000290608
0.000289768
0.000288918
0.000288057
0.000287186
0.000286305
0.000285413
0.00028451
0.000283596
0.00028267
0.000281733
0.000280783
0.000279821
0.000278846
0.000277858
0.000276856
0.000275841
0.000274811
0.000273767
0.000272708
0.000271633
0.000270543
0.000269437
0.000268315
0.000267175
0.000266019
0.000264845
0.000263652
0.000262442
0.000261212
0.000259964
0.000258695
0.000257407
0.000256098
0.000254768
0.000253418
0.000252045
0.000250651
0.000249234
0.000247795
0.000246332
0.000244846
0.000243336
0.000241801
0.000240242
0.000238658
0.000237048
0.000235413
0.000233751
0.000232062
0.000230347
0.000228604
0.000226833
0.000225033
0.000223205
0.000221347
0.000219459
0.000217541
0.000215592
0.000213611
0.000211598
0.000209553
0.000207473
0.000205359
0.000203209
0.000201023
0.000198799
0.000196536
0.000194233
0.000191888
0.0001895
0.000187067
0.000184586
0.000182055
0.000179472
0.000176832
0.000174133
0.000171372
0.000168547
0.000165662
0.000162716
0.000159681
0.000156546
0.000153299
0.000149926
0.00014641
0.000142729
0.000138855
0.000134754
0.000130379
0.000125697
0.000120637
0.000115062
0.000108799
0.000101573
9.29011e-05
8.18879e-05
6.80279e-05
0.000237999
5.43449e-05
9.47995e-05
0.000117413
0.000134015
0.000147843
0.000159567
0.000169757
0.000178793
0.000187028
0.000194713
0.000201819
0.00020847
0.000214721
0.00022062
0.000226205
0.000231503
0.000236541
0.000241336
0.000245906
0.000250262
0.000254417
0.00025838
0.000262159
0.000265762
0.000269194
0.000272461
0.000275569
0.000278523
0.000281327
0.000283986
0.000286503
0.000288882
0.000291128
0.000293245
0.000295235
0.000297103
0.000298852
0.000300486
0.000302008
0.000303422
0.000304731
0.00030594
0.00030705
0.000308065
0.000308989
0.000309842
0.000310617
0.00031131
0.000311924
0.000312462
0.000312928
0.000313325
0.000313656
0.000313923
0.000314131
0.000314282
0.000314379
0.000314423
0.000314419
0.000314368
0.000314274
0.000314137
0.000313961
0.000313747
0.000313498
0.000313215
0.0003129
0.000312556
0.000312184
0.000311784
0.00031136
0.000310912
0.000310442
0.00030995
0.000309438
0.000308908
0.000308359
0.000307794
0.000307213
0.000306616
0.000306005
0.000305381
0.000304743
0.000304092
0.00030343
0.000302756
0.000302071
0.000301375
0.000300668
0.000299952
0.000299225
0.000298489
0.000297743
0.000296988
0.000296223
0.000295449
0.000294666
0.000293873
0.000293071
0.00029226
0.000291439
0.000290608
0.000289768
0.000288918
0.000288057
0.000287186
0.000286305
0.000285413
0.00028451
0.000283596
0.00028267
0.000281733
0.000280783
0.000279821
0.000278846
0.000277858
0.000276856
0.000275841
0.000274811
0.000273767
0.000272708
0.000271633
0.000270543
0.000269437
0.000268315
0.000267175
0.000266019
0.000264845
0.000263652
0.000262442
0.000261212
0.000259963
0.000258695
0.000257407
0.000256098
0.000254768
0.000253418
0.000252045
0.000250651
0.000249234
0.000247795
0.000246332
0.000244846
0.000243336
0.000241801
0.000240242
0.000238658
0.000237048
0.000235413
0.000233751
0.000232062
0.000230347
0.000228604
0.000226833
0.000225033
0.000223205
0.000221347
0.000219459
0.000217541
0.000215592
0.000213611
0.000211598
0.000209553
0.000207473
0.000205359
0.000203209
0.000201023
0.000198799
0.000196536
0.000194233
0.000191888
0.0001895
0.000187067
0.000184586
0.000182055
0.000179472
0.000176832
0.000174133
0.000171372
0.000168547
0.000165662
0.000162716
0.000159681
0.000156546
0.000153299
0.000149926
0.00014641
0.000142729
0.000138855
0.000134754
0.000130379
0.000125697
0.000120637
0.000115062
0.000108799
0.000101572
9.29005e-05
8.18867e-05
6.80335e-05
0.000238008
8.25909e-05
0.000612756
0.000969721
0.00121899
0.001407
0.00155908
0.00168935
0.00180393
0.00190629
0.00199859
0.00208308
0.00216098
0.00223325
0.00230063
0.0023637
0.0024229
0.00247862
0.00253116
0.00258077
0.00262768
0.00267207
0.00271411
0.00275394
0.00279168
0.00282745
0.00286134
0.00289345
0.00292387
0.00295266
0.0029799
0.00300565
0.00302997
0.00305293
0.00307458
0.00309496
0.00311412
0.00313212
0.003149
0.00316479
0.00317955
0.0031933
0.00320608
0.00321791
0.00322883
0.00323878
0.00324757
0.00325546
0.00326256
0.00326896
0.00327469
0.0032798
0.00328431
0.00328826
0.00329166
0.00329455
0.00329694
0.00329886
0.00330032
0.00330135
0.00330197
0.0033022
0.00330205
0.00330153
0.00330068
0.00329949
0.00329799
0.00329619
0.00329411
0.00329175
0.00328913
0.00328626
0.00328315
0.00327981
0.00327625
0.00327248
0.00326851
0.00326435
0.00326
0.00325547
0.00325078
0.00324591
0.00324089
0.00323571
0.00323037
0.0032249
0.00321928
0.00321352
0.00320763
0.0032016
0.00319544
0.00318915
0.00318274
0.0031762
0.00316953
0.00316274
0.00315583
0.00314879
0.00314163
0.00313435
0.00312693
0.0031194
0.00311173
0.00310394
0.00309602
0.00308796
0.00307977
0.00307145
0.00306299
0.00305439
0.00304564
0.00303675
0.00302771
0.00301851
0.00300917
0.00299966
0.00299
0.00298017
0.00297017
0.00296
0.00294966
0.00293913
0.00292843
0.00291754
0.00290645
0.00289518
0.00288371
0.00287203
0.00286015
0.00284806
0.00283576
0.00282324
0.00281049
0.00279753
0.00278433
0.0027709
0.00275723
0.00274332
0.00272916
0.00271476
0.0027001
0.00268518
0.00267
0.00265455
0.00263884
0.00262284
0.00260657
0.00259002
0.00257317
0.00255604
0.00253861
0.00252087
0.00250283
0.00248448
0.00246581
0.00244681
0.00242749
0.00240783
0.00238783
0.00236748
0.00234678
0.00232571
0.00230427
0.00228245
0.00226023
0.00223761
0.00221458
0.00219112
0.00216721
0.00214285
0.002118
0.00209266
0.00206679
0.00204038
0.00201339
0.00198578
0.00195753
0.00192858
0.00189887
0.00186833
0.00183685
0.00180428
0.0017705
0.00173551
0.00169923
0.00166152
0.00162218
0.001581
0.00153766
0.00149176
0.00144273
0.0013897
0.00133104
0.00126567
0.00119182
0.00110642
0.0010043
0.00087612
0.000703011
0.000441947
5.91162e-05
8.25912e-05
0.000612761
0.000969729
0.001219
0.00140701
0.00155909
0.00168935
0.00180394
0.0019063
0.00199859
0.00208308
0.00216098
0.00223326
0.00230064
0.0023637
0.00242291
0.00247863
0.00253116
0.00258078
0.00262769
0.00267208
0.00271412
0.00275395
0.00279169
0.00282745
0.00286135
0.00289346
0.00292387
0.00295266
0.0029799
0.00300565
0.00302998
0.00305294
0.00307458
0.00309496
0.00311413
0.00313213
0.003149
0.0031648
0.00317955
0.0031933
0.00320608
0.00321792
0.00322883
0.00323879
0.00324758
0.00325546
0.00326257
0.00326896
0.0032747
0.00327981
0.00328432
0.00328826
0.00329167
0.00329455
0.00329694
0.00329886
0.00330033
0.00330136
0.00330198
0.0033022
0.00330205
0.00330154
0.00330068
0.0032995
0.003298
0.0032962
0.00329411
0.00329175
0.00328913
0.00328626
0.00328315
0.00327981
0.00327625
0.00327249
0.00326852
0.00326435
0.00326001
0.00325548
0.00325078
0.00324591
0.00324089
0.00323571
0.00323038
0.0032249
0.00321928
0.00321352
0.00320763
0.0032016
0.00319544
0.00318916
0.00318274
0.0031762
0.00316954
0.00316275
0.00315583
0.0031488
0.00314164
0.00313435
0.00312694
0.0031194
0.00311174
0.00310394
0.00309602
0.00308797
0.00307978
0.00307145
0.00306299
0.00305439
0.00304564
0.00303675
0.00302771
0.00301852
0.00300917
0.00299967
0.00299
0.00298017
0.00297017
0.00296
0.00294966
0.00293914
0.00292843
0.00291754
0.00290646
0.00289518
0.00288371
0.00287203
0.00286015
0.00284806
0.00283576
0.00282324
0.0028105
0.00279753
0.00278433
0.0027709
0.00275723
0.00274332
0.00272917
0.00271476
0.0027001
0.00268518
0.00267
0.00265456
0.00263884
0.00262285
0.00260657
0.00259002
0.00257318
0.00255604
0.00253861
0.00252087
0.00250283
0.00248448
0.00246581
0.00244681
0.00242749
0.00240783
0.00238783
0.00236749
0.00234678
0.00232571
0.00230427
0.00228245
0.00226024
0.00223762
0.00221458
0.00219112
0.00216721
0.00214285
0.002118
0.00209266
0.00206679
0.00204038
0.00201339
0.00198579
0.00195753
0.00192858
0.00189887
0.00186833
0.00183685
0.00180428
0.0017705
0.00173552
0.00169923
0.00166152
0.00162218
0.001581
0.00153766
0.00149176
0.00144273
0.0013897
0.00133104
0.00126567
0.00119182
0.00110642
0.0010043
0.000876117
0.000703009
0.000441947
5.91099e-05
0.000101641
0.00093011
0.00165499
0.00219848
0.00262572
0.00297906
0.00328187
0.00354782
0.00378516
0.00399933
0.00419446
0.00437349
0.00453867
0.00469172
0.00483405
0.00496678
0.00509086
0.00520707
0.00531608
0.00541847
0.00551476
0.00560538
0.00569075
0.0057712
0.00584706
0.00591862
0.00598613
0.00604984
0.00610997
0.00616672
0.00622026
0.00627077
0.00631842
0.00636333
0.00640566
0.00644553
0.00648306
0.00651835
0.00655151
0.00658263
0.0066118
0.0066391
0.00666459
0.0066883
0.00671023
0.00673031
0.00674875
0.0067657
0.00678128
0.00679558
0.00680868
0.00682064
0.00683151
0.00684135
0.0068502
0.0068581
0.0068651
0.00687124
0.00687654
0.00688105
0.00688479
0.0068878
0.0068901
0.00689173
0.00689271
0.00689306
0.00689281
0.00689199
0.0068906
0.00688868
0.00688625
0.00688332
0.0068799
0.00687603
0.0068717
0.00686694
0.00686177
0.00685618
0.0068502
0.00684384
0.0068371
0.00683
0.00682254
0.00681474
0.00680659
0.00679812
0.00678931
0.00678019
0.00677074
0.00676098
0.00675091
0.00674053
0.00672985
0.00671886
0.00670757
0.00669597
0.00668407
0.00667187
0.00665936
0.00664654
0.00663341
0.00661998
0.00660622
0.00659215
0.00657776
0.00656304
0.006548
0.00653262
0.0065169
0.00650083
0.00648442
0.00646765
0.00645051
0.00643301
0.00641514
0.00639688
0.00637823
0.00635919
0.00633974
0.00631989
0.00629961
0.00627891
0.00625778
0.0062362
0.00621417
0.00619168
0.00616873
0.0061453
0.00612138
0.00609697
0.00607206
0.00604664
0.00602069
0.00599422
0.00596721
0.00593964
0.00591152
0.00588284
0.00585357
0.00582372
0.00579327
0.00576221
0.00573053
0.00569822
0.00566527
0.00563167
0.00559741
0.00556247
0.00552684
0.00549051
0.00545347
0.0054157
0.00537719
0.00533792
0.00529787
0.00525704
0.00521539
0.00517292
0.0051296
0.00508541
0.00504033
0.00499432
0.00494738
0.00489945
0.00485052
0.00480055
0.00474949
0.00469731
0.00464396
0.00458938
0.00453353
0.00447632
0.00441769
0.00435756
0.00429583
0.00423238
0.00416709
0.0040998
0.00403032
0.00395843
0.00388385
0.00380632
0.0037256
0.00364134
0.00355308
0.00346027
0.00336222
0.00325802
0.00314651
0.00302611
0.00289465
0.00274912
0.00258556
0.00239943
0.00218315
0.00192515
0.00160708
0.00119913
0.000657782
7.19091e-05
0.000101641
0.000930116
0.001655
0.0021985
0.00262573
0.00297908
0.00328188
0.00354784
0.00378517
0.00399935
0.00419448
0.00437351
0.00453868
0.00469173
0.00483406
0.0049668
0.00509087
0.00520708
0.00531609
0.00541848
0.00551477
0.00560539
0.00569076
0.00577121
0.00584707
0.00591863
0.00598614
0.00604985
0.00610998
0.00616672
0.00622027
0.00627078
0.00631842
0.00636334
0.00640567
0.00644554
0.00648306
0.00651835
0.00655151
0.00658264
0.00661181
0.00663911
0.00666459
0.0066883
0.00671023
0.00673032
0.00674876
0.00676571
0.00678129
0.00679559
0.00680868
0.00682064
0.00683151
0.00684135
0.0068502
0.00685811
0.00686511
0.00687124
0.00687654
0.00688105
0.00688479
0.0068878
0.00689011
0.00689173
0.00689271
0.00689306
0.00689281
0.00689199
0.00689061
0.00688869
0.00688625
0.00688332
0.00687991
0.00687603
0.00687171
0.00686695
0.00686177
0.00685618
0.0068502
0.00684384
0.0068371
0.00683
0.00682254
0.00681474
0.0068066
0.00679812
0.00678931
0.00678019
0.00677074
0.00676098
0.00675091
0.00674054
0.00672985
0.00671886
0.00670757
0.00669597
0.00668407
0.00667187
0.00665936
0.00664654
0.00663341
0.00661998
0.00660622
0.00659215
0.00657776
0.00656305
0.006548
0.00653262
0.0065169
0.00650083
0.00648442
0.00646765
0.00645052
0.00643301
0.00641514
0.00639688
0.00637823
0.00635919
0.00633974
0.00631989
0.00629961
0.00627891
0.00625778
0.0062362
0.00621417
0.00619168
0.00616873
0.0061453
0.00612138
0.00609697
0.00607206
0.00604664
0.00602069
0.00599422
0.00596721
0.00593964
0.00591152
0.00588284
0.00585357
0.00582372
0.00579327
0.00576221
0.00573053
0.00569822
0.00566527
0.00563167
0.00559741
0.00556247
0.00552684
0.00549051
0.00545347
0.0054157
0.00537719
0.00533792
0.00529787
0.00525704
0.00521539
0.00517292
0.0051296
0.00508541
0.00504033
0.00499432
0.00494738
0.00489945
0.00485052
0.00480055
0.00474949
0.00469731
0.00464396
0.00458938
0.00453353
0.00447632
0.00441769
0.00435756
0.00429583
0.00423238
0.00416709
0.0040998
0.00403032
0.00395843
0.00388385
0.00380632
0.0037256
0.00364134
0.00355308
0.00346027
0.00336222
0.00325802
0.00314651
0.00302611
0.00289465
0.00274912
0.00258556
0.00239943
0.00218315
0.00192515
0.00160708
0.00119913
0.000657785
7.19105e-05
0.00011503
0.00112595
0.00211969
0.00290955
0.00355368
0.00409655
0.00456611
0.0049803
0.00535093
0.00568613
0.00599184
0.00627243
0.00653126
0.00677099
0.00699372
0.0072012
0.00739489
0.007576
0.00774562
0.00790465
0.00805392
0.00819415
0.00832598
0.00845
0.00856674
0.00867668
0.00878026
0.00887789
0.00896992
0.00905671
0.00913857
0.00921579
0.00928863
0.00935735
0.00942218
0.00948332
0.00954099
0.00959535
0.00964658
0.00969484
0.00974026
0.00978298
0.00982309
0.00986068
0.00989581
0.00992853
0.009959
0.00998738
0.0100138
0.0100384
0.0100613
0.0100826
0.0101023
0.0101205
0.0101374
0.0101529
0.0101671
0.01018
0.0101918
0.0102025
0.010212
0.0102205
0.010228
0.0102346
0.0102401
0.0102448
0.0102486
0.0102516
0.0102537
0.0102551
0.0102557
0.0102556
0.0102547
0.0102532
0.0102509
0.010248
0.0102445
0.0102404
0.0102356
0.0102303
0.0102243
0.0102178
0.0102108
0.0102032
0.010195
0.0101864
0.0101772
0.0101674
0.0101572
0.0101465
0.0101352
0.0101235
0.0101113
0.0100985
0.0100853
0.0100715
0.0100573
0.0100426
0.0100273
0.0100116
0.00999533
0.00997857
0.00996128
0.00994348
0.00992514
0.00990627
0.00988686
0.0098669
0.00984638
0.0098253
0.00980365
0.00978141
0.00975858
0.00973516
0.00971112
0.00968646
0.00966117
0.00963524
0.00960865
0.0095814
0.00955347
0.00952485
0.00949553
0.00946549
0.00943473
0.00940323
0.00937097
0.00933795
0.00930414
0.00926954
0.00923413
0.0091979
0.00916082
0.00912289
0.0090841
0.00904441
0.00900383
0.00896233
0.00891989
0.0088765
0.00883215
0.0087868
0.00874046
0.00869308
0.00864466
0.00859518
0.00854462
0.00849295
0.00844014
0.00838619
0.00833106
0.00827472
0.00821716
0.00815834
0.00809823
0.00803681
0.00797403
0.00790986
0.00784426
0.0077772
0.00770863
0.0076385
0.00756676
0.00749336
0.00741824
0.00734133
0.00726255
0.00718184
0.00709911
0.00701425
0.00692716
0.00683772
0.00674579
0.00665122
0.00655384
0.00645345
0.00634981
0.00624265
0.00613165
0.00601645
0.00589661
0.00577166
0.00564107
0.00550416
0.00536013
0.00520798
0.00504642
0.00487388
0.00468836
0.00448726
0.00426719
0.00402367
0.0037508
0.00344128
0.00308463
0.002666
0.0021644
0.00155133
0.000800647
8.18697e-05
0.00011503
0.00112595
0.0021197
0.00290956
0.0035537
0.00409657
0.00456613
0.00498032
0.00535095
0.00568616
0.00599186
0.00627245
0.00653128
0.006771
0.00699374
0.00720122
0.0073949
0.00757602
0.00774563
0.00790467
0.00805393
0.00819416
0.00832599
0.00845002
0.00856676
0.0086767
0.00878028
0.0088779
0.00896993
0.00905672
0.00913858
0.00921579
0.00928864
0.00935736
0.00942218
0.00948333
0.00954099
0.00959536
0.00964659
0.00969485
0.00974027
0.00978298
0.00982309
0.00986068
0.00989582
0.00992853
0.009959
0.00998739
0.0100138
0.0100384
0.0100613
0.0100826
0.0101023
0.0101205
0.0101374
0.0101529
0.0101671
0.01018
0.0101918
0.0102025
0.010212
0.0102205
0.010228
0.0102346
0.0102401
0.0102448
0.0102486
0.0102516
0.0102537
0.0102551
0.0102557
0.0102556
0.0102547
0.0102532
0.0102509
0.010248
0.0102445
0.0102404
0.0102356
0.0102303
0.0102243
0.0102178
0.0102108
0.0102032
0.010195
0.0101864
0.0101772
0.0101674
0.0101572
0.0101465
0.0101352
0.0101235
0.0101113
0.0100985
0.0100853
0.0100715
0.0100573
0.0100426
0.0100273
0.0100116
0.00999533
0.00997857
0.00996128
0.00994348
0.00992514
0.00990627
0.00988686
0.0098669
0.00984638
0.0098253
0.00980365
0.00978141
0.00975858
0.00973516
0.00971112
0.00968646
0.00966117
0.00963523
0.00960865
0.0095814
0.00955347
0.00952485
0.00949553
0.00946549
0.00943473
0.00940323
0.00937097
0.00933794
0.00930414
0.00926954
0.00923413
0.00919789
0.00916082
0.00912289
0.0090841
0.00904441
0.00900383
0.00896233
0.00891989
0.0088765
0.00883215
0.0087868
0.00874045
0.00869308
0.00864466
0.00859518
0.00854462
0.00849294
0.00844014
0.00838619
0.00833106
0.00827472
0.00821716
0.00815834
0.00809823
0.0080368
0.00797402
0.00790986
0.00784426
0.0077772
0.00770863
0.0076385
0.00756676
0.00749336
0.00741824
0.00734132
0.00726255
0.00718184
0.0070991
0.00701424
0.00692715
0.00683771
0.00674579
0.00665122
0.00655384
0.00645345
0.00634981
0.00624265
0.00613165
0.00601645
0.00589661
0.00577166
0.00564106
0.00550416
0.00536013
0.00520797
0.00504642
0.00487388
0.00468836
0.00448726
0.00426719
0.00402367
0.00375079
0.00344128
0.00308463
0.002666
0.0021644
0.00155133
0.000800648
8.18701e-05
0.000125927
0.00125888
0.00245262
0.00344206
0.00426933
0.00497683
0.00559431
0.0061421
0.00663428
0.00708089
0.00748924
0.00786485
0.00821198
0.00853398
0.00883355
0.00911292
0.00937395
0.00961822
0.0098471
0.0100618
0.0102634
0.0104528
0.0106309
0.0107984
0.0109561
0.0111047
0.0112446
0.0113765
0.0115009
0.0116182
0.0117289
0.0118334
0.011932
0.0120252
0.0121131
0.0121962
0.0122746
0.0123488
0.0124188
0.0124849
0.0125473
0.0126062
0.0126618
0.0127141
0.0127633
0.0128096
0.0128531
0.0128939
0.0129322
0.0129682
0.013002
0.0130337
0.0130634
0.0130913
0.0131173
0.0131416
0.0131643
0.0131854
0.013205
0.0132232
0.01324
0.0132554
0.0132695
0.0132824
0.0132941
0.0133046
0.013314
0.0133223
0.0133296
0.0133358
0.013341
0.0133453
0.0133487
0.0133511
0.0133527
0.0133534
0.0133532
0.0133523
0.0133505
0.0133479
0.0133446
0.0133405
0.0133356
0.01333
0.0133236
0.0133166
0.0133088
0.0133003
0.0132911
0.0132812
0.0132707
0.0132594
0.0132474
0.0132348
0.0132214
0.0132074
0.0131927
0.0131772
0.0131611
0.0131443
0.0131267
0.0131085
0.0130895
0.0130698
0.0130493
0.0130281
0.0130061
0.0129834
0.0129599
0.0129356
0.0129105
0.0128846
0.0128579
0.0128304
0.012802
0.0127727
0.0127425
0.0127115
0.0126795
0.0126466
0.0126128
0.012578
0.0125423
0.0125055
0.0124678
0.012429
0.0123892
0.0123483
0.0123063
0.0122632
0.012219
0.0121736
0.0121271
0.0120794
0.0120305
0.0119803
0.0119289
0.0118762
0.0118222
0.0117669
0.0117102
0.0116522
0.0115927
0.0115318
0.0114695
0.0114056
0.0113402
0.0112733
0.0112047
0.0111345
0.0110627
0.0109892
0.0109139
0.0108368
0.0107579
0.0106771
0.0105943
0.0105096
0.0104229
0.010334
0.0102429
0.0101496
0.010054
0.00995596
0.00985543
0.0097523
0.00964646
0.00953779
0.00942616
0.00931143
0.00919344
0.00907199
0.00894689
0.00881791
0.00868478
0.00854721
0.00840485
0.00825732
0.00810414
0.00794479
0.00777866
0.00760505
0.00742311
0.00723188
0.00703014
0.00681645
0.006589
0.00634558
0.00608342
0.00579903
0.00548798
0.0051447
0.00476198
0.00433059
0.00383882
0.00327091
0.00260665
0.00182259
0.000909481
8.98246e-05
0.000125928
0.00125889
0.00245264
0.00344208
0.00426935
0.00497685
0.00559433
0.00614212
0.00663431
0.00708091
0.00748926
0.00786488
0.00821201
0.00853401
0.00883358
0.00911294
0.00937397
0.00961824
0.00984712
0.0100618
0.0102634
0.0104528
0.0106309
0.0107984
0.0109562
0.0111047
0.0112446
0.0113766
0.0115009
0.0116183
0.0117289
0.0118334
0.011932
0.0120252
0.0121131
0.0121962
0.0122747
0.0123488
0.0124188
0.0124849
0.0125473
0.0126062
0.0126618
0.0127141
0.0127634
0.0128096
0.0128531
0.0128939
0.0129322
0.0129682
0.013002
0.0130337
0.0130634
0.0130913
0.0131173
0.0131416
0.0131643
0.0131854
0.013205
0.0132232
0.01324
0.0132554
0.0132695
0.0132824
0.0132941
0.0133046
0.013314
0.0133223
0.0133296
0.0133358
0.013341
0.0133453
0.0133487
0.0133511
0.0133527
0.0133534
0.0133532
0.0133523
0.0133505
0.0133479
0.0133446
0.0133405
0.0133356
0.01333
0.0133236
0.0133166
0.0133088
0.0133003
0.0132911
0.0132812
0.0132707
0.0132594
0.0132474
0.0132348
0.0132214
0.0132074
0.0131927
0.0131772
0.0131611
0.0131443
0.0131267
0.0131085
0.0130895
0.0130698
0.0130493
0.0130281
0.0130061
0.0129834
0.0129599
0.0129356
0.0129105
0.0128846
0.0128579
0.0128304
0.012802
0.0127727
0.0127425
0.0127115
0.0126795
0.0126466
0.0126128
0.012578
0.0125423
0.0125055
0.0124678
0.012429
0.0123892
0.0123483
0.0123063
0.0122632
0.012219
0.0121736
0.0121271
0.0120794
0.0120305
0.0119803
0.0119289
0.0118762
0.0118222
0.0117669
0.0117102
0.0116522
0.0115927
0.0115318
0.0114695
0.0114056
0.0113402
0.0112733
0.0112047
0.0111345
0.0110627
0.0109892
0.0109139
0.0108368
0.0107579
0.0106771
0.0105943
0.0105096
0.0104229
0.010334
0.0102429
0.0101496
0.010054
0.00995596
0.00985543
0.0097523
0.00964646
0.00953779
0.00942616
0.00931143
0.00919343
0.00907198
0.00894689
0.0088179
0.00868478
0.00854721
0.00840485
0.00825731
0.00810414
0.00794479
0.00777866
0.00760504
0.00742311
0.00723187
0.00703014
0.00681644
0.006589
0.00634558
0.00608342
0.00579903
0.00548798
0.0051447
0.00476198
0.00433059
0.00383882
0.00327091
0.00260665
0.00182259
0.00090948
8.98247e-05
0.000135147
0.00136393
0.00271051
0.00386012
0.00483912
0.00568629
0.0064315
0.00709629
0.00769617
0.00824241
0.00874339
0.00920547
0.00963357
0.0100316
0.0104027
0.0107495
0.0110741
0.0113784
0.011664
0.0119323
0.0121845
0.0124218
0.0126452
0.0128556
0.0130539
0.0132407
0.0134169
0.0135832
0.0137401
0.0138882
0.0140281
0.0141602
0.0142851
0.0144031
0.0145147
0.0146203
0.0147201
0.0148146
0.014904
0.0149886
0.0150687
0.0151444
0.0152161
0.0152839
0.0153479
0.0154084
0.0154655
0.0155195
0.0155704
0.0156186
0.015664
0.0157069
0.0157475
0.0157857
0.0158218
0.0158557
0.0158877
0.0159178
0.0159461
0.0159726
0.0159975
0.0160207
0.0160423
0.0160625
0.0160812
0.0160985
0.0161145
0.0161291
0.0161425
0.0161546
0.0161656
0.0161753
0.016184
0.0161915
0.0161979
0.0162033
0.0162076
0.0162109
0.0162133
0.0162146
0.016215
0.0162144
0.0162129
0.0162105
0.0162072
0.016203
0.0161978
0.0161918
0.0161849
0.0161771
0.0161684
0.0161589
0.0161485
0.0161372
0.016125
0.016112
0.016098
0.0160832
0.0160675
0.0160509
0.0160333
0.0160149
0.0159955
0.0159752
0.015954
0.0159318
0.0159086
0.0158844
0.0158593
0.0158331
0.0158059
0.0157777
0.0157484
0.0157181
0.0156866
0.0156541
0.0156204
0.0155856
0.0155496
0.0155125
0.0154741
0.0154345
0.0153937
0.0153516
0.0153082
0.0152635
0.0152174
0.01517
0.0151212
0.0150709
0.0150193
0.0149661
0.0149115
0.0148553
0.0147976
0.0147383
0.0146774
0.0146148
0.0145506
0.0144846
0.0144169
0.0143474
0.0142761
0.0142029
0.0141279
0.0140509
0.0139719
0.0138909
0.0138078
0.0137226
0.0136352
0.0135456
0.0134538
0.0133596
0.0132629
0.0131639
0.0130623
0.012958
0.0128511
0.0127414
0.0126289
0.0125133
0.0123948
0.012273
0.0121479
0.0120194
0.0118873
0.0117514
0.0116116
0.0114677
0.0113194
0.0111665
0.0110088
0.0108459
0.0106775
0.0105031
0.0103223
0.0101347
0.00993953
0.00973616
0.00952379
0.00930147
0.00906812
0.00882242
0.00856282
0.00828744
0.00799402
0.00767979
0.00734134
0.00697449
0.00657407
0.00613363
0.00564511
0.00509845
0.00448151
0.00377888
0.00297243
0.00204428
0.000998815
9.65409e-05
0.000135147
0.00136394
0.00271052
0.00386014
0.00483915
0.00568631
0.00643152
0.00709632
0.0076962
0.00824243
0.00874341
0.00920549
0.0096336
0.0100316
0.0104027
0.0107495
0.0110741
0.0113784
0.011664
0.0119323
0.0121846
0.0124219
0.0126452
0.0128556
0.0130539
0.0132407
0.013417
0.0135832
0.0137401
0.0138882
0.0140281
0.0141602
0.0142851
0.0144031
0.0145147
0.0146203
0.0147201
0.0148146
0.014904
0.0149886
0.0150687
0.0151445
0.0152161
0.0152839
0.0153479
0.0154084
0.0154655
0.0155195
0.0155704
0.0156186
0.015664
0.0157069
0.0157475
0.0157857
0.0158218
0.0158557
0.0158877
0.0159178
0.0159461
0.0159726
0.0159975
0.0160207
0.0160423
0.0160625
0.0160812
0.0160985
0.0161145
0.0161291
0.0161425
0.0161546
0.0161656
0.0161753
0.016184
0.0161915
0.0161979
0.0162033
0.0162076
0.0162109
0.0162133
0.0162146
0.016215
0.0162144
0.0162129
0.0162105
0.0162072
0.016203
0.0161978
0.0161918
0.0161849
0.0161771
0.0161684
0.0161589
0.0161485
0.0161372
0.016125
0.016112
0.016098
0.0160832
0.0160675
0.0160509
0.0160333
0.0160149
0.0159955
0.0159752
0.015954
0.0159318
0.0159086
0.0158844
0.0158593
0.0158331
0.0158059
0.0157777
0.0157484
0.0157181
0.0156866
0.0156541
0.0156204
0.0155856
0.0155496
0.0155125
0.0154741
0.0154345
0.0153937
0.0153516
0.0153082
0.0152635
0.0152174
0.01517
0.0151212
0.0150709
0.0150193
0.0149661
0.0149115
0.0148553
0.0147976
0.0147383
0.0146774
0.0146148
0.0145505
0.0144846
0.0144169
0.0143474
0.0142761
0.0142029
0.0141279
0.0140509
0.0139719
0.0138909
0.0138078
0.0137226
0.0136352
0.0135456
0.0134538
0.0133596
0.0132629
0.0131639
0.0130623
0.012958
0.0128511
0.0127414
0.0126289
0.0125133
0.0123948
0.012273
0.0121479
0.0120194
0.0118873
0.0117514
0.0116116
0.0114677
0.0113194
0.0111665
0.0110088
0.0108459
0.0106775
0.0105031
0.0103223
0.0101347
0.00993952
0.00973616
0.00952379
0.00930147
0.00906811
0.00882241
0.00856281
0.00828744
0.00799402
0.00767978
0.00734133
0.00697449
0.00657407
0.00613362
0.00564511
0.00509845
0.00448151
0.00377888
0.00297243
0.00204428
0.000998814
9.65409e-05
0.000143298
0.00145372
0.00292301
0.00420283
0.00530764
0.00627267
0.00712723
0.00789341
0.00858755
0.00922178
0.00980524
0.0103449
0.0108462
0.0113135
0.0117502
0.0121592
0.012543
0.0129035
0.0132425
0.0135616
0.0138622
0.0141455
0.0144126
0.0146646
0.0149024
0.0151269
0.0153388
0.0155391
0.0157283
0.0159071
0.0160762
0.0162361
0.0163875
0.0165307
0.0166663
0.0167947
0.0169164
0.0170317
0.017141
0.0172445
0.0173428
0.0174359
0.0175242
0.017608
0.0176873
0.0177626
0.0178339
0.0179015
0.0179656
0.0180264
0.0180841
0.0181387
0.0181906
0.0182398
0.0182864
0.0183306
0.0183725
0.0184121
0.0184497
0.0184851
0.0185186
0.0185503
0.0185801
0.0186081
0.0186345
0.0186592
0.0186824
0.018704
0.0187241
0.0187428
0.0187601
0.018776
0.0187906
0.0188039
0.0188159
0.0188267
0.0188362
0.0188446
0.0188518
0.0188578
0.0188627
0.0188665
0.0188691
0.0188707
0.0188712
0.0188706
0.018869
0.0188662
0.0188625
0.0188576
0.0188518
0.0188448
0.0188368
0.0188278
0.0188177
0.0188065
0.0187943
0.018781
0.0187666
0.0187511
0.0187345
0.0187169
0.018698
0.0186781
0.018657
0.0186348
0.0186114
0.0185867
0.0185609
0.0185339
0.0185056
0.018476
0.0184452
0.0184131
0.0183796
0.0183448
0.0183086
0.0182711
0.0182321
0.0181917
0.0181498
0.0181064
0.0180615
0.018015
0.017967
0.0179174
0.0178662
0.0178132
0.0177586
0.0177023
0.0176442
0.0175843
0.0175226
0.017459
0.0173935
0.0173261
0.0172567
0.0171853
0.0171118
0.0170362
0.0169585
0.0168786
0.0167965
0.016712
0.0166253
0.0165362
0.0164446
0.0163505
0.0162539
0.0161546
0.0160527
0.015948
0.0158406
0.0157302
0.0156168
0.0155004
0.0153808
0.015258
0.0151318
0.0150022
0.0148691
0.0147322
0.0145915
0.0144469
0.0142981
0.014145
0.0139874
0.0138252
0.013658
0.0134857
0.0133079
0.0131244
0.0129348
0.0127387
0.0125357
0.0123252
0.0121068
0.0118798
0.0116433
0.0113967
0.0111388
0.0108685
0.0105845
0.0102852
0.00996869
0.00963275
0.00927469
0.00889129
0.00847864
0.00803202
0.00754571
0.00701273
0.00642459
0.00577099
0.00503962
0.00421615
0.00328484
0.00223288
0.00107541
0.000102415
0.000143299
0.00145372
0.00292302
0.00420285
0.00530766
0.00627269
0.00712725
0.00789344
0.00858758
0.00922181
0.00980527
0.0103449
0.0108462
0.0113135
0.0117502
0.0121593
0.012543
0.0129035
0.0132425
0.0135617
0.0138622
0.0141455
0.0144127
0.0146646
0.0149024
0.0151269
0.0153389
0.0155391
0.0157283
0.0159071
0.0160762
0.0162362
0.0163875
0.0165307
0.0166663
0.0167947
0.0169164
0.0170317
0.017141
0.0172446
0.0173428
0.0174359
0.0175242
0.017608
0.0176873
0.0177626
0.0178339
0.0179015
0.0179656
0.0180264
0.0180841
0.0181387
0.0181906
0.0182398
0.0182864
0.0183306
0.0183725
0.0184121
0.0184497
0.0184851
0.0185186
0.0185503
0.0185801
0.0186081
0.0186345
0.0186592
0.0186824
0.018704
0.0187241
0.0187428
0.0187601
0.018776
0.0187906
0.0188039
0.0188159
0.0188267
0.0188362
0.0188446
0.0188518
0.0188578
0.0188627
0.0188665
0.0188691
0.0188707
0.0188712
0.0188706
0.018869
0.0188662
0.0188625
0.0188576
0.0188518
0.0188448
0.0188368
0.0188278
0.0188177
0.0188065
0.0187943
0.018781
0.0187666
0.0187511
0.0187345
0.0187169
0.018698
0.0186781
0.018657
0.0186348
0.0186114
0.0185867
0.0185609
0.0185339
0.0185056
0.018476
0.0184452
0.0184131
0.0183796
0.0183448
0.0183086
0.0182711
0.0182321
0.0181917
0.0181498
0.0181064
0.0180615
0.018015
0.017967
0.0179174
0.0178661
0.0178132
0.0177586
0.0177023
0.0176442
0.0175843
0.0175226
0.017459
0.0173935
0.0173261
0.0172567
0.0171853
0.0171118
0.0170362
0.0169585
0.0168786
0.0167965
0.016712
0.0166253
0.0165362
0.0164446