/*--------------------------------*- C++ -*----------------------------------*\
  =========                 |
  \\      /  F ield         | OpenFOAM: The Open Source CFD Toolbox
   \\    /   O peration     | Website:  https://openfoam.org
    \\  /    A nd           | Version:  8
     \\/     M anipulation  |
\*---------------------------------------------------------------------------*/
FoamFile
{
    version     2.0;
    format      ascii;
    class       volVectorField;
    location    "4600";
    object      U;
}
// * * * * * * * * * * * * * * * * * * * * * * * * * * * * * * * * * * * * * //

dimensions      [0 1 -1 0 0 0 0];

internalField   nonuniform List<vector> 
48000
(
(-0.0158654 2.82291e-07 0.0174389)
(-0.0364442 3.55753e-08 0.0185171)
(-0.0514908 3.26438e-08 0.0103172)
(-0.0573308 1.62343e-08 0.00188808)
(-0.0548769 6.04968e-09 -0.00444574)
(-0.0468159 -1.34795e-09 -0.00883563)
(-0.0347438 -6.16802e-09 -0.0118153)
(-0.0200124 -9.33571e-09 -0.013811)
(-0.003539 -1.19742e-08 -0.0150648)
(0.0141099 -1.36266e-08 -0.0156667)
(0.0321271 -1.3341e-08 -0.0158049)
(0.0504036 -1.21721e-08 -0.0156995)
(0.0685976 -1.06073e-08 -0.015425)
(0.0865407 -8.86733e-09 -0.015032)
(0.104095 -7.04361e-09 -0.0145552)
(0.12116 -5.24654e-09 -0.0140193)
(0.137659 -3.52181e-09 -0.0134423)
(0.153536 -1.91512e-09 -0.0128377)
(0.16875 -4.49288e-10 -0.0122155)
(0.183272 8.85185e-10 -0.0115837)
(0.19708 2.07688e-09 -0.0109482)
(0.210165 3.13342e-09 -0.010314)
(0.222519 4.08716e-09 -0.00968479)
(0.234142 4.90574e-09 -0.00906377)
(0.245038 5.61771e-09 -0.00845346)
(0.255216 6.2345e-09 -0.00785595)
(0.264684 6.7523e-09 -0.00727292)
(0.273458 7.17682e-09 -0.0067058)
(0.281553 7.52329e-09 -0.00615571)
(0.288986 7.7879e-09 -0.00562358)
(0.295777 7.99349e-09 -0.00511014)
(0.301946 8.12104e-09 -0.00461597)
(0.307515 8.20099e-09 -0.00414148)
(0.312506 8.21623e-09 -0.00368697)
(0.316942 8.18006e-09 -0.00325262)
(0.320847 8.10391e-09 -0.00283848)
(0.324245 7.97637e-09 -0.00244454)
(0.327159 7.82217e-09 -0.00207069)
(0.329615 7.64704e-09 -0.00171673)
(0.331635 7.4205e-09 -0.0013824)
(0.333245 7.19778e-09 -0.00106739)
(0.334466 6.93317e-09 -0.00077134)
(0.335323 6.66666e-09 -0.000493845)
(0.335838 6.37921e-09 -0.000234449)
(0.336033 6.07653e-09 7.78563e-06)
(0.335931 5.78147e-09 0.000233241)
(0.335551 5.4845e-09 0.000442002)
(0.334914 5.18753e-09 0.000634843)
(0.33404 4.88485e-09 0.000812532)
(0.332947 4.5974e-09 0.000975737)
(0.331653 4.30805e-09 0.00112509)
(0.330175 4.03583e-09 0.00126124)
(0.328531 3.77122e-09 0.0013848)
(0.326735 3.51613e-09 0.00149643)
(0.324802 3.27437e-09 0.00159676)
(0.322747 3.04974e-09 0.00168643)
(0.320582 2.84034e-09 0.00176606)
(0.31832 2.64808e-09 0.00183628)
(0.315972 2.47104e-09 0.00189768)
(0.31355 2.30733e-09 0.00195085)
(0.311064 2.15694e-09 0.00199637)
(0.308523 2.0294e-09 0.00203478)
(0.305935 1.91899e-09 0.00206662)
(0.30331 1.82571e-09 0.00209241)
(0.300654 1.74386e-09 0.00211264)
(0.297974 1.68104e-09 0.00212777)
(0.295276 1.63536e-09 0.00213825)
(0.292567 1.603e-09 0.00214451)
(0.289851 1.58967e-09 0.00214696)
(0.287133 1.58777e-09 0.00214597)
(0.284418 1.59539e-09 0.00214191)
(0.281708 1.62204e-09 0.00213511)
(0.279008 1.6525e-09 0.00212588)
(0.276319 1.70009e-09 0.00211453)
(0.273646 1.75339e-09 0.00210133)
(0.27099 1.81621e-09 0.00208653)
(0.268352 1.88855e-09 0.00207038)
(0.265735 1.9666e-09 0.00205308)
(0.26314 2.05607e-09 0.00203485)
(0.260568 2.14935e-09 0.00201587)
(0.25802 2.25405e-09 0.0019963)
(0.255497 2.36065e-09 0.00197632)
(0.252998 2.47297e-09 0.00195606)
(0.250525 2.58719e-09 0.00193565)
(0.248078 2.70331e-09 0.0019152)
(0.245656 2.82323e-09 0.00189484)
(0.243259 2.94126e-09 0.00187466)
(0.240888 3.06499e-09 0.00185473)
(0.238541 3.19254e-09 0.00183516)
(0.236219 3.31627e-09 0.00181599)
(0.23392 3.44952e-09 0.00179732)
(0.231645 3.58468e-09 0.00177918)
(0.229392 3.71032e-09 0.00176163)
(0.22716 3.85309e-09 0.00174473)
(0.22495 3.98063e-09 0.0017285)
(0.22276 4.09865e-09 0.001713)
(0.220588 4.23e-09 0.00169826)
(0.218435 4.36135e-09 0.0016843)
(0.216299 4.48889e-09 0.00167115)
(0.214179 4.60882e-09 0.00165885)
(0.212074 4.72874e-09 0.00164741)
(0.209983 4.85819e-09 0.00163685)
(0.207905 4.98763e-09 0.0016272)
(0.205838 5.10946e-09 0.00161847)
(0.203782 5.22939e-09 0.00161068)
(0.201736 5.35502e-09 0.00160385)
(0.199698 5.47685e-09 0.00159798)
(0.197666 5.59868e-09 0.00159309)
(0.195641 5.71861e-09 0.00158919)
(0.19362 5.83282e-09 0.0015863)
(0.191602 5.94894e-09 0.00158443)
(0.189586 6.07267e-09 0.00158359)
(0.187571 6.1926e-09 0.00158378)
(0.185556 6.303e-09 0.00158501)
(0.183538 6.41912e-09 0.00158731)
(0.181518 6.53714e-09 0.00159066)
(0.179493 6.65326e-09 0.00159509)
(0.177462 6.77319e-09 0.0016006)
(0.175424 6.88169e-09 0.00160719)
(0.173378 6.99781e-09 0.00161487)
(0.171322 7.11202e-09 0.00162365)
(0.169255 7.22053e-09 0.00163353)
(0.167175 7.34045e-09 0.00164452)
(0.165082 7.45276e-09 0.00165661)
(0.162974 7.56127e-09 0.00166981)
(0.160849 7.67548e-09 0.00168413)
(0.158707 7.77637e-09 0.00169955)
(0.156545 7.89058e-09 0.00171608)
(0.154363 8.0048e-09 0.00173372)
(0.152159 8.1114e-09 0.00175246)
(0.149933 8.22752e-09 0.00177229)
(0.147682 8.33031e-09 0.00179321)
(0.145406 8.44452e-09 0.00181521)
(0.143103 8.55493e-09 0.00183828)
(0.140771 8.66153e-09 0.0018624)
(0.138411 8.77194e-09 0.00188756)
(0.13602 8.88615e-09 0.00191374)
(0.133598 9.00037e-09 0.00194093)
(0.131143 9.09555e-09 0.00196909)
(0.128655 9.20595e-09 0.0019982)
(0.126131 9.30113e-09 0.00202823)
(0.123572 9.41916e-09 0.00205916)
(0.120976 9.52576e-09 0.00209094)
(0.118343 9.63236e-09 0.00212353)
(0.115671 9.74276e-09 0.00215691)
(0.11296 9.84556e-09 0.00219101)
(0.11021 9.94835e-09 0.00222578)
(0.107419 1.00511e-08 0.00226117)
(0.104586 1.01616e-08 0.00229713)
(0.101713 1.02605e-08 0.00233357)
(0.0987975 1.03748e-08 0.00237044)
(0.09584 1.04814e-08 0.00240764)
(0.0928403 1.06032e-08 0.0024451)
(0.0897984 1.0725e-08 0.00248272)
(0.0867144 1.08697e-08 0.0025204)
(0.0835885 1.10144e-08 0.00255802)
(0.0804212 1.11895e-08 0.00259548)
(0.0772129 1.13837e-08 0.00263263)
(0.0739644 1.15931e-08 0.00266933)
(0.0706767 1.18405e-08 0.00270542)
(0.0673508 1.20918e-08 0.00274073)
(0.0639882 1.23697e-08 0.00277508)
(0.0605904 1.26667e-08 0.00280824)
(0.0571593 1.29598e-08 0.00283999)
(0.0536972 1.32797e-08 0.00287007)
(0.0502064 1.35804e-08 0.0028982)
(0.0466899 1.38583e-08 0.00292407)
(0.0431509 1.41249e-08 0.0029473)
(0.0395931 1.4319e-08 0.00296752)
(0.0360207 1.45246e-08 0.00298427)
(0.0324384 1.46883e-08 0.00299706)
(0.0288516 1.4814e-08 0.00300531)
(0.0252663 1.49396e-08 0.00300838)
(0.0216893 1.50386e-08 0.00300554)
(0.0181284 1.51376e-08 0.00299596)
(0.0145922 1.52366e-08 0.00297868)
(0.0110905 1.52975e-08 0.00295259)
(0.00763436 1.52708e-08 0.00291636)
(0.00423703 1.50995e-08 0.00286833)
(0.000914258 1.45969e-08 0.0028051)
(-0.00232412 1.35995e-08 0.00271958)
(-0.00544282 1.22783e-08 0.00261125)
(-0.00843129 1.08925e-08 0.00248272)
(-0.0112599 9.60567e-09 0.00233179)
(-0.0139007 8.90133e-09 0.00215401)
(-0.01632 9.38485e-09 0.00194434)
(-0.0184785 1.17491e-08 0.00169758)
(-0.0203304 1.65234e-08 0.00140677)
(-0.021822 2.35439e-08 0.00106383)
(-0.0228902 3.1699e-08 0.000658766)
(-0.0234619 3.85825e-08 0.000179475)
(-0.0234502 4.07374e-08 -0.000385779)
(-0.0227584 3.55291e-08 -0.0010484)
(-0.0212839 2.36734e-08 -0.00181929)
(-0.0189179 1.12694e-08 -0.00269936)
(-0.0155729 8.7795e-09 -0.00365634)
(-0.0112342 2.0521e-08 -0.00457041)
(-0.00619735 2.78688e-08 -0.00507254)
(-0.000673108 7.15757e-09 -0.00356868)
(0.0012992 -8.28758e-08 0.0017488)
(-0.0158663 2.82288e-07 0.0174381)
(-0.0364444 3.55752e-08 0.0185168)
(-0.0514907 3.26437e-08 0.010317)
(-0.0573308 1.62342e-08 0.00188791)
(-0.0548768 6.04966e-09 -0.0044459)
(-0.0468157 -1.34795e-09 -0.00883578)
(-0.0347436 -6.16801e-09 -0.0118154)
(-0.0200122 -9.33569e-09 -0.0138112)
(-0.00353885 -1.19742e-08 -0.0150649)
(0.0141101 -1.36265e-08 -0.0156669)
(0.0321272 -1.3341e-08 -0.015805)
(0.0504037 -1.21721e-08 -0.0156996)
(0.0685977 -1.06073e-08 -0.0154252)
(0.0865408 -8.86732e-09 -0.0150321)
(0.104095 -7.0436e-09 -0.0145553)
(0.12116 -5.24653e-09 -0.0140194)
(0.137659 -3.52181e-09 -0.0134424)
(0.153536 -1.91511e-09 -0.0128378)
(0.16875 -4.49287e-10 -0.0122156)
(0.183272 8.85184e-10 -0.0115838)
(0.19708 2.07688e-09 -0.0109483)
(0.210165 3.13342e-09 -0.0103141)
(0.222519 4.08716e-09 -0.00968488)
(0.234142 4.90573e-09 -0.00906386)
(0.245038 5.61771e-09 -0.00845355)
(0.255216 6.23449e-09 -0.00785604)
(0.264684 6.75229e-09 -0.00727301)
(0.273458 7.17681e-09 -0.00670588)
(0.281553 7.52328e-09 -0.00615579)
(0.288986 7.78789e-09 -0.00562366)
(0.295777 7.99349e-09 -0.00511022)
(0.301946 8.12103e-09 -0.00461605)
(0.307515 8.20099e-09 -0.00414156)
(0.312506 8.21622e-09 -0.00368705)
(0.316942 8.18005e-09 -0.00325269)
(0.320847 8.10391e-09 -0.00283856)
(0.324245 7.97636e-09 -0.00244462)
(0.327159 7.82217e-09 -0.00207076)
(0.329615 7.64703e-09 -0.0017168)
(0.331635 7.4205e-09 -0.00138247)
(0.333245 7.19777e-09 -0.00106746)
(0.334466 6.93317e-09 -0.000771412)
(0.335323 6.66666e-09 -0.000493916)
(0.335838 6.37921e-09 -0.000234519)
(0.336033 6.07653e-09 7.71646e-06)
(0.335931 5.78146e-09 0.000233173)
(0.335551 5.48449e-09 0.000441935)
(0.334914 5.18753e-09 0.000634777)
(0.334039 4.88485e-09 0.000812466)
(0.332946 4.5974e-09 0.000975672)
(0.331653 4.30804e-09 0.00112503)
(0.330175 4.03582e-09 0.00126117)
(0.328531 3.77122e-09 0.00138474)
(0.326735 3.51613e-09 0.00149637)
(0.324802 3.27437e-09 0.0015967)
(0.322747 3.04974e-09 0.00168637)
(0.320582 2.84034e-09 0.001766)
(0.31832 2.64808e-09 0.00183622)
(0.315972 2.47104e-09 0.00189762)
(0.31355 2.30733e-09 0.00195079)
(0.311064 2.15694e-09 0.00199631)
(0.308523 2.0294e-09 0.00203473)
(0.305935 1.91899e-09 0.00206657)
(0.30331 1.82571e-09 0.00209236)
(0.300654 1.74386e-09 0.00211258)
(0.297974 1.68104e-09 0.00212771)
(0.295276 1.63535e-09 0.0021382)
(0.292567 1.60299e-09 0.00214446)
(0.289851 1.58967e-09 0.00214691)
(0.287133 1.58777e-09 0.00214592)
(0.284418 1.59538e-09 0.00214186)
(0.281708 1.62204e-09 0.00213506)
(0.279008 1.6525e-09 0.00212584)
(0.276319 1.70009e-09 0.00211449)
(0.273646 1.75339e-09 0.00210128)
(0.270989 1.81621e-09 0.00208649)
(0.268352 1.88855e-09 0.00207033)
(0.265735 1.9666e-09 0.00205303)
(0.26314 2.05607e-09 0.0020348)
(0.260568 2.14935e-09 0.00201582)
(0.25802 2.25405e-09 0.00199626)
(0.255497 2.36065e-09 0.00197628)
(0.252998 2.47297e-09 0.00195601)
(0.250525 2.58718e-09 0.0019356)
(0.248078 2.70331e-09 0.00191516)
(0.245656 2.82323e-09 0.0018948)
(0.243259 2.94126e-09 0.00187461)
(0.240888 3.06499e-09 0.00185469)
(0.238541 3.19254e-09 0.00183511)
(0.236219 3.31627e-09 0.00181595)
(0.23392 3.44952e-09 0.00179727)
(0.231645 3.58468e-09 0.00177914)
(0.229392 3.71032e-09 0.00176159)
(0.22716 3.85309e-09 0.00174468)
(0.22495 3.98063e-09 0.00172846)
(0.222759 4.09865e-09 0.00171296)
(0.220588 4.23e-09 0.00169821)
(0.218435 4.36135e-09 0.00168426)
(0.216299 4.48889e-09 0.00167111)
(0.214179 4.60881e-09 0.00165881)
(0.212074 4.72874e-09 0.00164737)
(0.209983 4.85818e-09 0.00163681)
(0.207905 4.98763e-09 0.00162716)
(0.205838 5.10946e-09 0.00161843)
(0.203782 5.22938e-09 0.00161064)
(0.201736 5.35502e-09 0.0016038)
(0.199698 5.47685e-09 0.00159794)
(0.197666 5.59868e-09 0.00159305)
(0.195641 5.7186e-09 0.00158915)
(0.19362 5.83282e-09 0.00158626)
(0.191602 5.94894e-09 0.00158439)
(0.189586 6.07267e-09 0.00158354)
(0.187571 6.19259e-09 0.00158373)
(0.185555 6.303e-09 0.00158497)
(0.183538 6.41912e-09 0.00158726)
(0.181518 6.53714e-09 0.00159062)
(0.179493 6.65326e-09 0.00159505)
(0.177462 6.77318e-09 0.00160055)
(0.175424 6.88169e-09 0.00160714)
(0.173378 6.99781e-09 0.00161483)
(0.171322 7.11202e-09 0.0016236)
(0.169255 7.22052e-09 0.00163348)
(0.167175 7.34045e-09 0.00164447)
(0.165082 7.45276e-09 0.00165656)
(0.162974 7.56126e-09 0.00166976)
(0.160849 7.67548e-09 0.00168408)
(0.158706 7.77637e-09 0.0016995)
(0.156545 7.89058e-09 0.00171603)
(0.154363 8.00479e-09 0.00173367)
(0.152159 8.11139e-09 0.00175241)
(0.149933 8.22751e-09 0.00177224)
(0.147682 8.33031e-09 0.00179316)
(0.145406 8.44452e-09 0.00181516)
(0.143103 8.55493e-09 0.00183823)
(0.140771 8.66153e-09 0.00186235)
(0.138411 8.77193e-09 0.00188751)
(0.13602 8.88615e-09 0.00191369)
(0.133598 9.00036e-09 0.00194087)
(0.131143 9.09554e-09 0.00196903)
(0.128655 9.20595e-09 0.00199814)
(0.126131 9.30113e-09 0.00202817)
(0.123572 9.41915e-09 0.0020591)
(0.120976 9.52575e-09 0.00209088)
(0.118343 9.63235e-09 0.00212347)
(0.115671 9.74276e-09 0.00215684)
(0.11296 9.84555e-09 0.00219094)
(0.11021 9.94835e-09 0.00222572)
(0.107419 1.00511e-08 0.00226111)
(0.104586 1.01615e-08 0.00229706)
(0.101713 1.02605e-08 0.00233351)
(0.0987975 1.03747e-08 0.00237037)
(0.09584 1.04813e-08 0.00240757)
(0.0928403 1.06032e-08 0.00244503)
(0.0897985 1.0725e-08 0.00248265)
(0.0867144 1.08697e-08 0.00252033)
(0.0835886 1.10144e-08 0.00255795)
(0.0804212 1.11895e-08 0.0025954)
(0.0772129 1.13837e-08 0.00263255)
(0.0739644 1.1593e-08 0.00266925)
(0.0706767 1.18405e-08 0.00270534)
(0.0673508 1.20918e-08 0.00274066)
(0.0639882 1.23697e-08 0.002775)
(0.0605904 1.26667e-08 0.00280816)
(0.0571594 1.29598e-08 0.00283991)
(0.0536972 1.32796e-08 0.00286999)
(0.0502064 1.35804e-08 0.00289812)
(0.0466899 1.38583e-08 0.00292398)
(0.0431509 1.41248e-08 0.00294722)
(0.0395931 1.4319e-08 0.00296743)
(0.0360207 1.45246e-08 0.00298418)
(0.0324384 1.46883e-08 0.00299696)
(0.0288516 1.48139e-08 0.00300521)
(0.0252663 1.49396e-08 0.00300828)
(0.0216894 1.50386e-08 0.00300544)
(0.0181284 1.51376e-08 0.00299586)
(0.0145922 1.52365e-08 0.00297858)
(0.0110905 1.52975e-08 0.00295249)
(0.00763437 1.52708e-08 0.00291625)
(0.00423705 1.50995e-08 0.00286822)
(0.000914274 1.45969e-08 0.00280499)
(-0.00232411 1.35994e-08 0.00271947)
(-0.00544281 1.22783e-08 0.00261114)
(-0.00843127 1.08925e-08 0.00248261)
(-0.0112599 9.60566e-09 0.00233167)
(-0.0139007 8.90132e-09 0.0021539)
(-0.01632 9.38484e-09 0.00194422)
(-0.0184784 1.17491e-08 0.00169747)
(-0.0203304 1.65234e-08 0.00140665)
(-0.0218219 2.35439e-08 0.00106371)
(-0.0228902 3.1699e-08 0.000658638)
(-0.0234619 3.85825e-08 0.000179337)
(-0.0234502 4.07373e-08 -0.000385931)
(-0.0227585 3.5529e-08 -0.00104856)
(-0.0212839 2.36733e-08 -0.00181948)
(-0.018918 1.12694e-08 -0.00269954)
(-0.015573 8.77949e-09 -0.00365651)
(-0.0112343 2.0521e-08 -0.00457056)
(-0.00619752 2.7869e-08 -0.00507273)
(-0.00067341 7.15759e-09 -0.00356905)
(0.0012989 -8.28758e-08 0.00174797)
(-0.0152797 2.74573e-08 0.0411578)
(-0.0226936 2.01376e-09 0.0284729)
(-0.0237776 3.46832e-09 0.013937)
(-0.0210744 -9.62511e-11 0.000596024)
(-0.0148319 -1.33742e-09 -0.00996019)
(-0.00583472 -2.28448e-09 -0.0176821)
(0.00545297 -3.01262e-09 -0.0231236)
(0.0184177 -3.55325e-09 -0.0268112)
(0.0326093 -3.93302e-09 -0.0292026)
(0.047641 -4.09864e-09 -0.0305916)
(0.0631818 -4.03581e-09 -0.0312464)
(0.0789882 -3.90636e-09 -0.031394)
(0.0948437 -3.72265e-09 -0.0311635)
(0.110588 -3.51181e-09 -0.0306535)
(0.126093 -3.28622e-09 -0.0299334)
(0.141259 -3.05921e-09 -0.0290551)
(0.156006 -2.83886e-09 -0.0280576)
(0.170273 -2.62993e-09 -0.0269712)
(0.184013 -2.43385e-09 -0.0258197)
(0.197189 -2.25252e-09 -0.0246219)
(0.209774 -2.08547e-09 -0.0233933)
(0.221749 -1.9346e-09 -0.0221462)
(0.233102 -1.7942e-09 -0.0208912)
(0.243824 -1.66904e-09 -0.0196369)
(0.253914 -1.55339e-09 -0.0183905)
(0.263373 -1.44963e-09 -0.0171583)
(0.272205 -1.35826e-09 -0.0159454)
(0.280419 -1.27925e-09 -0.0147563)
(0.288025 -1.20929e-09 -0.0135948)
(0.295034 -1.14837e-09 -0.012464)
(0.301461 -1.09554e-09 -0.0113665)
(0.307323 -1.05223e-09 -0.0103046)
(0.312635 -1.01558e-09 -0.00928001)
(0.317416 -9.88454e-10 -0.00829414)
(0.321686 -9.68939e-10 -0.00734807)
(0.325464 -9.53708e-10 -0.00644258)
(0.32877 -9.44187e-10 -0.00557816)
(0.331624 -9.39902e-10 -0.00475507)
(0.334048 -9.38948e-10 -0.00397333)
(0.336063 -9.42277e-10 -0.00323278)
(0.33769 -9.49414e-10 -0.00253304)
(0.338948 -9.58454e-10 -0.0018736)
(0.33986 -9.68446e-10 -0.00125381)
(0.340445 -9.81294e-10 -0.00067286)
(0.340723 -9.91762e-10 -0.000129849)
(0.340715 -1.00604e-09 0.000376284)
(0.340438 -1.02317e-09 0.000846726)
(0.339911 -1.03839e-09 0.00128268)
(0.339153 -1.04981e-09 0.00168536)
(0.338181 -1.06219e-09 0.00205607)
(0.337011 -1.07265e-09 0.00239612)
(0.33566 -1.08265e-09 0.00270685)
(0.334142 -1.09073e-09 0.00298962)
(0.332473 -1.0974e-09 0.00324581)
(0.330666 -1.10215e-09 0.00347679)
(0.328735 -1.10453e-09 0.00368395)
(0.326693 -1.10738e-09 0.00386864)
(0.32455 -1.10405e-09 0.00403221)
(0.322319 -1.10167e-09 0.00417597)
(0.320009 -1.09596e-09 0.00430123)
(0.31763 -1.09072e-09 0.00440922)
(0.315193 -1.0812e-09 0.00450118)
(0.312704 -1.07311e-09 0.00457828)
(0.310173 -1.06216e-09 0.00464166)
(0.307606 -1.04979e-09 0.00469241)
(0.305009 -1.03551e-09 0.00473157)
(0.302391 -1.02075e-09 0.00476015)
(0.299755 -1.00409e-09 0.0047791)
(0.297107 -9.8696e-10 0.00478931)
(0.294452 -9.69826e-10 0.00479163)
(0.291794 -9.52693e-10 0.00478687)
(0.289137 -9.33179e-10 0.00477579)
(0.286485 -9.1319e-10 0.00475909)
(0.283839 -8.94153e-10 0.00473745)
(0.281204 -8.77495e-10 0.00471146)
(0.278582 -8.56555e-10 0.00468173)
(0.275974 -8.38946e-10 0.00464877)
(0.273382 -8.21336e-10 0.00461309)
(0.270808 -8.04679e-10 0.00457515)
(0.268253 -7.86118e-10 0.00453536)
(0.265718 -7.69937e-10 0.00449412)
(0.263204 -7.54232e-10 0.00445178)
(0.260712 -7.38527e-10 0.00440866)
(0.258242 -7.24726e-10 0.00436508)
(0.255794 -7.10448e-10 0.00432129)
(0.253369 -7.00454e-10 0.00427755)
(0.250967 -6.88557e-10 0.00423408)
(0.248587 -6.79515e-10 0.00419108)
(0.246229 -6.69521e-10 0.00414874)
(0.243893 -6.60003e-10 0.00410723)
(0.241578 -6.52389e-10 0.0040667)
(0.239285 -6.44299e-10 0.00402728)
(0.237012 -6.38588e-10 0.0039891)
(0.234759 -6.3383e-10 0.00395226)
(0.232524 -6.30975e-10 0.00391687)
(0.230309 -6.28596e-10 0.00388301)
(0.22811 -6.26217e-10 0.00385077)
(0.225929 -6.2479e-10 0.00382021)
(0.223763 -6.25743e-10 0.00379141)
(0.221612 -6.26219e-10 0.00376442)
(0.219474 -6.27172e-10 0.0037393)
(0.21735 -6.28601e-10 0.0037161)
(0.215237 -6.31457e-10 0.00369485)
(0.213135 -6.33837e-10 0.00367561)
(0.211043 -6.38597e-10 0.0036584)
(0.208959 -6.42881e-10 0.00364326)
(0.206883 -6.4669e-10 0.00363022)
(0.204813 -6.50974e-10 0.00361932)
(0.202748 -6.57161e-10 0.00361057)
(0.200687 -6.62873e-10 0.003604)
(0.198629 -6.70013e-10 0.00359963)
(0.196572 -6.74297e-10 0.00359749)
(0.194516 -6.81913e-10 0.0035976)
(0.192459 -6.90956e-10 0.00359996)
(0.1904 -6.9762e-10 0.00360461)
(0.188337 -7.04759e-10 0.00361154)
(0.18627 -7.11423e-10 0.00362078)
(0.184197 -7.20466e-10 0.00363234)
(0.182116 -7.28082e-10 0.00364622)
(0.180028 -7.34745e-10 0.00366243)
(0.17793 -7.44741e-10 0.00368098)
(0.17582 -7.52356e-10 0.00370188)
(0.173699 -7.62351e-10 0.00372511)
(0.171565 -7.70442e-10 0.00375069)
(0.169415 -7.77582e-10 0.00377861)
(0.16725 -7.87577e-10 0.00380886)
(0.165067 -7.96144e-10 0.00384143)
(0.162866 -8.06615e-10 0.00387632)
(0.160646 -8.13279e-10 0.00391349)
(0.158405 -8.2375e-10 0.00395295)
(0.156141 -8.31841e-10 0.00399465)
(0.153854 -8.4136e-10 0.00403859)
(0.151543 -8.50879e-10 0.00408471)
(0.149207 -8.58971e-10 0.00413299)
(0.146843 -8.6849e-10 0.00418339)
(0.144452 -8.76581e-10 0.00423586)
(0.142032 -8.861e-10 0.00429034)
(0.139583 -8.96095e-10 0.00434678)
(0.137102 -9.05614e-10 0.00440512)
(0.13459 -9.15608e-10 0.00446528)
(0.132045 -9.26079e-10 0.00452719)
(0.129466 -9.33694e-10 0.00459077)
(0.126853 -9.45593e-10 0.0046559)
(0.124205 -9.56539e-10 0.00472251)
(0.121521 -9.66534e-10 0.00479047)
(0.118801 -9.78433e-10 0.00485968)
(0.116044 -9.89379e-10 0.00492999)
(0.11325 -1.00033e-09 0.00500126)
(0.110418 -1.01127e-09 0.00507336)
(0.107548 -1.0246e-09 0.00514611)
(0.10464 -1.03697e-09 0.00521933)
(0.101693 -1.04792e-09 0.00529284)
(0.0987087 -1.05839e-09 0.00536644)
(0.095686 -1.06648e-09 0.00543989)
(0.0926255 -1.07981e-09 0.00551297)
(0.0895276 -1.08742e-09 0.0055854)
(0.0863929 -1.09456e-09 0.00565693)
(0.0832223 -1.10218e-09 0.00572723)
(0.0800165 -1.10979e-09 0.00579599)
(0.0767768 -1.11407e-09 0.00586286)
(0.0735043 -1.12074e-09 0.00592744)
(0.0702007 -1.1293e-09 0.00598931)
(0.0668678 -1.14025e-09 0.00604803)
(0.0635075 -1.1531e-09 0.00610308)
(0.0601221 -1.17071e-09 0.00615392)
(0.0567144 -1.19641e-09 0.00619995)
(0.0532872 -1.22496e-09 0.00624049)
(0.049844 -1.26208e-09 0.00627483)
(0.0463884 -1.30872e-09 0.00630213)
(0.0429245 -1.35631e-09 0.00632149)
(0.0394572 -1.40771e-09 0.00633191)
(0.0359916 -1.45816e-09 0.00633225)
(0.0325336 -1.50765e-09 0.00632123)
(0.0290896 -1.55334e-09 0.00629742)
(0.0256669 -1.59902e-09 0.00625921)
(0.0222736 -1.6371e-09 0.00620472)
(0.0189189 -1.67612e-09 0.00613184)
(0.0156128 -1.72752e-09 0.00603804)
(0.0123668 -1.79605e-09 0.00592031)
(0.00919393 -1.89885e-09 0.00577489)
(0.00610771 -2.02068e-09 0.005596)
(0.00312489 -2.15488e-09 0.0053799)
(0.000262064 -2.29765e-09 0.0051235)
(-0.00245964 -2.39854e-09 0.00482085)
(-0.00501634 -2.37285e-09 0.00446538)
(-0.00738387 -2.11871e-09 0.00404922)
(-0.00953378 -1.52954e-09 0.00356292)
(-0.011435 -5.5299e-10 0.00299495)
(-0.0130527 7.08155e-10 0.00233249)
(-0.0143492 1.92171e-09 0.00156079)
(-0.0152839 2.48803e-09 0.000663674)
(-0.0158155 1.66091e-09 -0.000373649)
(-0.0159009 -9.46086e-10 -0.00156114)
(-0.0155044 -4.57152e-09 -0.00290015)
(-0.0146025 -6.5865e-09 -0.00436632)
(-0.0131958 -3.18283e-09 -0.0058722)
(-0.0113266 6.0592e-09 -0.00719057)
(-0.00904946 5.07691e-09 -0.00781059)
(-0.00633193 -1.23012e-08 -0.0064655)
(-0.00380122 -1.81211e-07 -0.00118362)
(-0.01528 2.74572e-08 0.0411575)
(-0.0226936 2.01375e-09 0.0284727)
(-0.0237776 3.4683e-09 0.0139369)
(-0.0210743 -9.62506e-11 0.00059593)
(-0.0148318 -1.33741e-09 -0.00996027)
(-0.00583464 -2.28447e-09 -0.0176821)
(0.00545305 -3.01261e-09 -0.0231237)
(0.0184177 -3.55324e-09 -0.0268112)
(0.0326094 -3.93301e-09 -0.0292026)
(0.0476411 -4.09862e-09 -0.0305916)
(0.0631819 -4.0358e-09 -0.0312465)
(0.0789883 -3.90635e-09 -0.0313941)
(0.0948437 -3.72264e-09 -0.0311636)
(0.110588 -3.5118e-09 -0.0306535)
(0.126093 -3.28622e-09 -0.0299334)
(0.141259 -3.0592e-09 -0.0290551)
(0.156006 -2.83885e-09 -0.0280576)
(0.170273 -2.62992e-09 -0.0269713)
(0.184013 -2.43384e-09 -0.0258197)
(0.197189 -2.25251e-09 -0.024622)
(0.209774 -2.08547e-09 -0.0233933)
(0.221749 -1.9346e-09 -0.0221462)
(0.233102 -1.7942e-09 -0.0208912)
(0.243824 -1.66903e-09 -0.0196369)
(0.253914 -1.55338e-09 -0.0183905)
(0.263373 -1.44963e-09 -0.0171583)
(0.272205 -1.35825e-09 -0.0159454)
(0.280419 -1.27925e-09 -0.0147563)
(0.288024 -1.20929e-09 -0.0135948)
(0.295034 -1.14837e-09 -0.012464)
(0.301461 -1.09554e-09 -0.0113665)
(0.307322 -1.05223e-09 -0.0103046)
(0.312635 -1.01558e-09 -0.00928002)
(0.317416 -9.88452e-10 -0.00829415)
(0.321686 -9.68938e-10 -0.00734808)
(0.325464 -9.53706e-10 -0.00644259)
(0.328769 -9.44186e-10 -0.00557817)
(0.331624 -9.39901e-10 -0.00475508)
(0.334048 -9.38947e-10 -0.00397335)
(0.336063 -9.42276e-10 -0.00323279)
(0.337689 -9.49413e-10 -0.00253305)
(0.338948 -9.58453e-10 -0.00187361)
(0.33986 -9.68445e-10 -0.00125382)
(0.340445 -9.81293e-10 -0.000672872)
(0.340723 -9.91761e-10 -0.000129862)
(0.340714 -1.00604e-09 0.000376271)
(0.340438 -1.02317e-09 0.000846713)
(0.339911 -1.03839e-09 0.00128266)
(0.339153 -1.04981e-09 0.00168535)
(0.338181 -1.06219e-09 0.00205606)
(0.337011 -1.07265e-09 0.00239611)
(0.335659 -1.08265e-09 0.00270683)
(0.334142 -1.09073e-09 0.0029896)
(0.332473 -1.09739e-09 0.00324579)
(0.330666 -1.10215e-09 0.00347678)
(0.328735 -1.10453e-09 0.00368394)
(0.326693 -1.10738e-09 0.00386863)
(0.32455 -1.10405e-09 0.00403219)
(0.322318 -1.10167e-09 0.00417596)
(0.320009 -1.09596e-09 0.00430121)
(0.31763 -1.09072e-09 0.0044092)
(0.315193 -1.0812e-09 0.00450116)
(0.312704 -1.07311e-09 0.00457826)
(0.310173 -1.06216e-09 0.00464164)
(0.307605 -1.04978e-09 0.00469239)
(0.305009 -1.03551e-09 0.00473156)
(0.302391 -1.02075e-09 0.00476014)
(0.299755 -1.00409e-09 0.00477908)
(0.297107 -9.86959e-10 0.00478929)
(0.294452 -9.69826e-10 0.00479161)
(0.291794 -9.52692e-10 0.00478686)
(0.289137 -9.33179e-10 0.00477578)
(0.286485 -9.13189e-10 0.00475908)
(0.283839 -8.94152e-10 0.00473743)
(0.281204 -8.77495e-10 0.00471145)
(0.278582 -8.56554e-10 0.00468171)
(0.275974 -8.38945e-10 0.00464876)
(0.273382 -8.21336e-10 0.00461308)
(0.270808 -8.04679e-10 0.00457513)
(0.268253 -7.86118e-10 0.00453535)
(0.265718 -7.69937e-10 0.0044941)
(0.263204 -7.54231e-10 0.00445176)
(0.260712 -7.38526e-10 0.00440865)
(0.258242 -7.24725e-10 0.00436506)
(0.255794 -7.10448e-10 0.00432128)
(0.253369 -7.00454e-10 0.00427753)
(0.250967 -6.88556e-10 0.00423406)
(0.248587 -6.79514e-10 0.00419107)
(0.246229 -6.6952e-10 0.00414873)
(0.243893 -6.60003e-10 0.00410722)
(0.241578 -6.52388e-10 0.00406669)
(0.239285 -6.44298e-10 0.00402727)
(0.237012 -6.38588e-10 0.00398909)
(0.234759 -6.33829e-10 0.00395225)
(0.232524 -6.30975e-10 0.00391686)
(0.230309 -6.28596e-10 0.003883)
(0.22811 -6.26217e-10 0.00385076)
(0.225929 -6.2479e-10 0.0038202)
(0.223763 -6.25742e-10 0.0037914)
(0.221612 -6.26219e-10 0.00376441)
(0.219474 -6.27172e-10 0.00373929)
(0.21735 -6.286e-10 0.00371609)
(0.215237 -6.31456e-10 0.00369484)
(0.213135 -6.33837e-10 0.00367559)
(0.211043 -6.38597e-10 0.00365839)
(0.208959 -6.42881e-10 0.00364325)
(0.206883 -6.46689e-10 0.00363021)
(0.204813 -6.50973e-10 0.0036193)
(0.202748 -6.57161e-10 0.00361056)
(0.200687 -6.62873e-10 0.00360399)
(0.198629 -6.70012e-10 0.00359962)
(0.196572 -6.74297e-10 0.00359748)
(0.194516 -6.81912e-10 0.00359759)
(0.192459 -6.90955e-10 0.00359995)
(0.1904 -6.97619e-10 0.0036046)
(0.188337 -7.04759e-10 0.00361153)
(0.18627 -7.11422e-10 0.00362077)
(0.184197 -7.20466e-10 0.00363233)
(0.182116 -7.28081e-10 0.00364621)
(0.180028 -7.34745e-10 0.00366242)
(0.17793 -7.4474e-10 0.00368097)
(0.17582 -7.52355e-10 0.00370187)
(0.173699 -7.62351e-10 0.0037251)
(0.171565 -7.70442e-10 0.00375068)
(0.169415 -7.77582e-10 0.0037786)
(0.16725 -7.87577e-10 0.00380885)
(0.165067 -7.96144e-10 0.00384142)
(0.162866 -8.06615e-10 0.0038763)
(0.160646 -8.13278e-10 0.00391348)
(0.158405 -8.23749e-10 0.00395294)
(0.156141 -8.31841e-10 0.00399464)
(0.153854 -8.4136e-10 0.00403857)
(0.151543 -8.50879e-10 0.0040847)
(0.149207 -8.5897e-10 0.00413298)
(0.146843 -8.68489e-10 0.00418338)
(0.144452 -8.7658e-10 0.00423584)
(0.142032 -8.86099e-10 0.00429033)
(0.139583 -8.96094e-10 0.00434677)
(0.137102 -9.05613e-10 0.00440511)
(0.13459 -9.15608e-10 0.00446527)
(0.132045 -9.26079e-10 0.00452718)
(0.129466 -9.33694e-10 0.00459075)
(0.126853 -9.45592e-10 0.00465589)
(0.124205 -9.56539e-10 0.0047225)
(0.121521 -9.66533e-10 0.00479046)
(0.118801 -9.78432e-10 0.00485966)
(0.116044 -9.89378e-10 0.00492997)
(0.11325 -1.00032e-09 0.00500125)
(0.110418 -1.01127e-09 0.00507334)
(0.107548 -1.0246e-09 0.00514609)
(0.10464 -1.03697e-09 0.00521932)
(0.101693 -1.04792e-09 0.00529283)
(0.0987087 -1.05839e-09 0.00536642)
(0.095686 -1.06648e-09 0.00543987)
(0.0926255 -1.07981e-09 0.00551295)
(0.0895276 -1.08742e-09 0.00558539)
(0.086393 -1.09456e-09 0.00565691)
(0.0832223 -1.10217e-09 0.00572722)
(0.0800165 -1.10979e-09 0.00579598)
(0.0767768 -1.11407e-09 0.00586284)
(0.0735043 -1.12074e-09 0.00592742)
(0.0702007 -1.1293e-09 0.0059893)
(0.0668678 -1.14025e-09 0.00604801)
(0.0635075 -1.1531e-09 0.00610306)
(0.0601221 -1.17071e-09 0.0061539)
(0.0567144 -1.19641e-09 0.00619993)
(0.0532873 -1.22496e-09 0.00624048)
(0.049844 -1.26208e-09 0.00627481)
(0.0463884 -1.30872e-09 0.00630211)
(0.0429246 -1.35631e-09 0.00632148)
(0.0394572 -1.40771e-09 0.00633189)
(0.0359916 -1.45816e-09 0.00633223)
(0.0325336 -1.50765e-09 0.00632121)
(0.0290896 -1.55334e-09 0.0062974)
(0.0256669 -1.59902e-09 0.00625919)
(0.0222736 -1.6371e-09 0.0062047)
(0.0189189 -1.67612e-09 0.00613182)
(0.0156128 -1.72752e-09 0.00603802)
(0.0123668 -1.79605e-09 0.00592029)
(0.00919394 -1.89884e-09 0.00577487)
(0.00610772 -2.02067e-09 0.00559598)
(0.0031249 -2.15488e-09 0.00537987)
(0.000262073 -2.29765e-09 0.00512348)
(-0.00245963 -2.39854e-09 0.00482083)
(-0.00501633 -2.37284e-09 0.00446536)
(-0.00738386 -2.11871e-09 0.0040492)
(-0.00953377 -1.52954e-09 0.0035629)
(-0.011435 -5.52989e-10 0.00299493)
(-0.0130527 7.08154e-10 0.00233247)
(-0.0143492 1.92171e-09 0.00156076)
(-0.0152839 2.48803e-09 0.000663645)
(-0.0158155 1.66091e-09 -0.000373681)
(-0.0159009 -9.46085e-10 -0.00156117)
(-0.0155044 -4.57152e-09 -0.00290019)
(-0.0146026 -6.58649e-09 -0.00436636)
(-0.0131958 -3.18283e-09 -0.00587224)
(-0.0113266 6.05922e-09 -0.00719062)
(-0.00904955 5.07697e-09 -0.00781067)
(-0.00633211 -1.23011e-08 -0.00646563)
(-0.00380164 -1.81207e-07 -0.00118392)
(-0.00714118 4.09808e-08 0.056082)
(-0.00818558 2.40404e-09 0.0292308)
(-0.00368658 4.57534e-09 0.00902921)
(0.0028699 2.90873e-09 -0.00716981)
(0.0110883 2.69173e-09 -0.0198122)
(0.0206696 2.51518e-09 -0.0293387)
(0.031487 2.35004e-09 -0.0362926)
(0.0433492 2.18015e-09 -0.041191)
(0.056046 1.99359e-09 -0.0444868)
(0.0693675 1.79799e-09 -0.0465306)
(0.0831246 1.62571e-09 -0.0476116)
(0.097138 1.46676e-09 -0.0479629)
(0.111245 1.33684e-09 -0.0477542)
(0.125311 1.22976e-09 -0.0471145)
(0.139224 1.14457e-09 -0.0461418)
(0.152889 1.07485e-09 -0.0449113)
(0.166233 1.01893e-09 -0.0434817)
(0.179192 9.72292e-10 -0.0418996)
(0.191718 9.34458e-10 -0.040202)
(0.203772 9.01859e-10 -0.0384192)
(0.215323 8.74733e-10 -0.0365758)
(0.226349 8.50939e-10 -0.0346925)
(0.236832 8.30714e-10 -0.0327863)
(0.246761 8.10964e-10 -0.0308719)
(0.256129 7.94308e-10 -0.0289614)
(0.264935 7.78604e-10 -0.0270654)
(0.273178 7.63614e-10 -0.0251927)
(0.280863 7.50766e-10 -0.0233511)
(0.287996 7.37203e-10 -0.021547)
(0.294587 7.24592e-10 -0.019786)
(0.300645 7.1222e-10 -0.0180729)
(0.306184 6.99371e-10 -0.0164114)
(0.311217 6.86046e-10 -0.014805)
(0.315759 6.73198e-10 -0.0132562)
(0.319827 6.59635e-10 -0.011767)
(0.323437 6.47024e-10 -0.0103391)
(0.326608 6.32748e-10 -0.00897356)
(0.329356 6.1871e-10 -0.00767107)
(0.331701 6.04195e-10 -0.00643193)
(0.333661 5.89681e-10 -0.00525613)
(0.335255 5.75166e-10 -0.00414332)