/*--------------------------------*- C++ -*----------------------------------*\
  =========                 |
  \\      /  F ield         | OpenFOAM: The Open Source CFD Toolbox
   \\    /   O peration     | Website:  https://openfoam.org
    \\  /    A nd           | Version:  8
     \\/     M anipulation  |
\*---------------------------------------------------------------------------*/
FoamFile
{
    version     2.0;
    format      ascii;
    class       volScalarField;
    location    "1200";
    object      epsilon;
}
// * * * * * * * * * * * * * * * * * * * * * * * * * * * * * * * * * * * * * //

dimensions      [0 2 -3 0 0 0 0];

internalField   nonuniform List<scalar> 
48000
(
0.19432
0.953549
1.20232
1.79364
2.40376
3.00654
3.61461
4.22527
4.83895
5.45821
6.08389
6.71664
7.35693
8.00501
8.66092
9.32458
9.99573
10.674
11.3589
12.0499
12.7462
13.4472
14.1521
14.86
15.5701
16.2815
16.9933
17.7045
18.4144
19.1219
19.8262
20.5264
21.2216
21.9111
22.5941
23.2697
23.9373
24.5962
25.2456
25.885
26.5137
27.1313
27.7371
28.3308
28.9117
29.4796
30.0341
30.5746
31.1011
31.6131
32.1103
32.5926
33.0597
33.5114
33.9476
34.368
34.7726
35.1612
35.5336
35.8898
36.2293
36.5544
36.8639
37.1575
37.4351
37.6966
37.9421
38.1716
38.3852
38.5829
38.7649
38.9312
39.0821
39.2175
39.3377
39.4428
39.5329
39.6082
39.6688
39.715
39.7469
39.7646
39.7685
39.7586
39.7352
39.6985
39.6486
39.5859
39.5104
39.4225
39.3223
39.21
39.0859
38.9503
38.8032
38.645
38.4758
38.296
38.1056
37.905
37.6944
37.4739
37.2439
37.0044
36.7558
36.4983
36.232
35.9571
35.674
35.3827
35.0835
34.7765
34.462
34.1402
33.8112
33.4753
33.1326
32.7832
32.4274
32.0654
31.6973
31.3233
30.9435
30.5582
30.1675
29.7715
29.3704
28.9645
28.5538
28.1385
27.7188
27.2949
26.867
26.4351
25.9996
25.5605
25.1181
24.6725
24.2239
23.7726
23.3187
22.8624
22.404
21.9436
21.4815
21.0178
20.5529
20.0869
19.6201
19.1527
18.6849
18.2171
17.7495
17.2822
16.8157
16.3501
15.8858
15.423
14.9619
14.5029
14.0462
13.5922
13.141
12.693
12.2485
11.8078
11.371
10.9386
10.5107
10.0876
9.66964
9.257
8.84994
8.44869
8.05346
7.66446
7.28188
6.90587
6.5366
6.17418
5.81871
5.47027
5.12892
4.7947
4.46779
4.14841
3.83885
3.53769
3.24156
2.9499
2.66192
2.37654
2.09252
1.80868
1.52911
1.24923
0.994215
1.09502
0.180465
0.178457
0.194414
0.954208
1.2017
1.79347
2.40386
3.00673
3.61482
4.2255
4.83917
5.45843
6.08412
6.71688
7.35717
8.00523
8.66115
9.3248
9.99595
10.6742
11.3591
12.0501
12.7464
13.4474
14.1523
14.8602
15.5703
16.2816
16.9934
17.7047
18.4145
19.122
19.8263
20.5265
21.2217
21.9112
22.5942
23.2698
23.9374
24.5962
25.2457
25.885
26.5138
27.1313
27.7372
28.3308
28.9118
29.4796
30.0341
30.5746
31.1011
31.6131
32.1103
32.5926
33.0597
33.5114
33.9476
34.368
34.7726
35.1612
35.5336
35.8897
36.2293
36.5543
36.8638
37.1574
37.435
37.6965
37.942
38.1715
38.3851
38.5828
38.7648
38.9312
39.082
39.2174
39.3376
39.4427
39.5328
39.6081
39.6687
39.7149
39.7468
39.7645
39.7684
39.7585
39.7351
39.6984
39.6485
39.5858
39.5103
39.4224
39.3222
39.2099
39.0858
38.9501
38.8031
38.6449
38.4757
38.2959
38.1055
37.9049
37.6943
37.4738
37.2438
37.0043
36.7557
36.4982
36.2319
35.957
35.6739
35.3826
35.0834
34.7764
34.4619
34.1401
33.8111
33.4752
33.1325
32.7831
32.4273
32.0653
31.6972
31.3232
30.9434
30.5581
30.1674
29.7714
29.3703
28.9644
28.5537
28.1384
27.7187
27.2948
26.8669
26.435
25.9995
25.5604
25.118
24.6724
24.2238
23.7725
23.3186
22.8623
22.4039
21.9435
21.4814
21.0177
20.5528
20.0868
19.62
19.1526
18.6849
18.2171
17.7494
17.2822
16.8157
16.3501
15.8857
15.4229
14.9618
14.5028
14.0462
13.5921
13.141
12.693
12.2485
11.8077
11.371
10.9385
10.5106
10.0876
9.66961
9.25697
8.84992
8.44867
8.05344
7.66444
7.28186
6.90585
6.53658
6.17416
5.8187
5.47026
5.12891
4.79469
4.46778
4.1484
3.83884
3.53768
3.24156
2.94989
2.66192
2.37653
2.09251
1.80868
1.52912
1.2493
0.994394
1.09507
0.180429
0.17854
0.325102
0.650793
0.818186
1.03658
1.26886
1.50698
1.75041
1.99841
2.25072
2.50757
2.76914
3.03559
3.307
3.58343
3.86486
4.15119
4.44231
4.738
5.03805
5.34216
5.65002
5.96128
6.27556
6.59245
6.91153
7.23235
7.55448
7.87744
8.20077
8.524
8.84668
9.16834
9.48853
9.80681
10.1228
10.4359
10.7459
11.0524
11.355
11.6532
11.9469
12.2357
12.5192
12.7973
13.0696
13.3359
13.596
13.8497
14.0969
14.3372
14.5706
14.797
15.0163
15.2282
15.4328
15.6299
15.8194
16.0014
16.1758
16.3425
16.5016
16.6537
16.7984
16.9354
17.0649
17.1867
17.301
17.4076
17.5067
17.5984
17.6825
17.7593
17.8288
17.891
17.946
17.9939
18.0348
18.0687
18.0958
18.1161
18.1297
18.1368
18.1373
18.1314
18.1193
18.1009
18.0765
18.0461
18.0098
17.9677
17.9199
17.8666
17.8079
17.7438
17.6744
17.5999
17.5204
17.436
17.3468
17.2529
17.1544
17.0514
16.944
16.8324
16.7166
16.5967
16.4728
16.3451
16.2136
16.0784
15.9396
15.7974
15.6517
15.5027
15.3506
15.1953
15.037
14.8757
14.7115
14.5446
14.3749
14.2026
14.0278
13.8505
13.6709
13.4889
13.3047
13.1183
12.9299
12.7395
12.5471
12.353
12.157
11.9594
11.7602
11.5595
11.3573
11.1538
10.9491
10.7432
10.5362
10.3282
10.1194
9.90975
9.69943
9.48852
9.27712
9.06535
8.85331
8.64112
8.42888
8.21672
8.00474
7.79307
7.58183
7.37114
7.16113
6.95193
6.74365
6.53643
6.3304
6.12569
5.92242
5.72073
5.52074
5.32258
5.12639
4.93228
4.74037
4.55079
4.36365
4.17906
3.99714
3.81797
3.64166
3.4683
3.29795
3.13071
2.96661
2.80572
2.64808
2.49372
2.34264
2.19489
2.05049
1.9095
1.77209
1.63795
1.50643
1.37763
1.25137
1.12739
1.00567
0.886544
0.771527
0.661191
0.562876
0.5064
0.363895
0.296043
0.32523
0.649592
0.818252
1.03641
1.26872
1.50687
1.75031
1.9983
2.25061
2.50745
2.76902
3.03545
3.30686
3.58329
3.86471
4.15103
4.44214
4.73783
5.03787
5.34198
5.64983
5.96109
6.27536
6.59224
6.91132
7.23214
7.55426
7.87721
8.20054
8.52377
8.84645
9.1681
9.48829
9.80657
10.1225
10.4357
10.7457
11.0522
11.3547
11.653
11.9467
12.2354
12.519
12.797
13.0693
13.3356
13.5958
13.8495
14.0966
14.3369
14.5704
14.7968
15.016
15.2279
15.4325
15.6296
15.8192
16.0012
16.1755
16.3422
16.5013
16.6534
16.7981
16.9352
17.0646
17.1865
17.3007
17.4073
17.5065
17.5981
17.6823
17.7591
17.8285
17.8907
17.9457
17.9937
18.0345
18.0685
18.0955
18.1158
18.1295
18.1365
18.137
18.1312
18.119
18.1007
18.0762
18.0458
18.0095
17.9674
17.9197
17.8664
17.8076
17.7435
17.6742
17.5997
17.5202
17.4358
17.3466
17.2527
17.1542
17.0512
16.9438
16.8322
16.7163
16.5964
16.4726
16.3448
16.2133
16.0782
15.9394
15.7971
15.6515
15.5025
15.3504
15.1951
15.0367
14.8755
14.7113
14.5444
14.3747
14.2024
14.0276
13.8504
13.6707
13.4887
13.3045
13.1182
12.9297
12.7393
12.547
12.3528
12.1569
11.9592
11.76
11.5593
11.3572
11.1537
10.9489
10.743
10.5361
10.3281
10.1192
9.90961
9.69929
9.48838
9.27699
9.06522
8.85319
8.641
8.42876
8.2166
8.00462
7.79296
7.58172
7.37104
7.16103
6.95183
6.74355
6.53634
6.33031
6.1256
5.92233
5.72064
5.52065
5.3225
5.12631
4.9322
4.74029
4.55071
4.36358
4.17899
3.99707
3.81791
3.6416
3.46824
3.2979
3.13065
2.96656
2.80567
2.64803
2.49367
2.3426
2.19485
2.05045
1.90946
1.77205
1.63792
1.5064
1.3776
1.25135
1.12737
1.00565
0.886524
0.771477
0.660976
0.562102
0.505754
0.363412
0.29613
2.34922
1.04523
0.940331
1.03829
1.18001
1.33828
1.50621
1.68113
1.86181
2.04768
2.23847
2.43404
2.6343
2.83917
3.04857
3.26239
3.48049
3.70271
3.92885
4.1587
4.39198
4.62845
4.86779
5.10969
5.35381
5.59982
5.84735
6.09603
6.34549
6.59535
6.84524
7.09478
7.3436
7.59133
7.83761
8.08209
8.32443
8.5643
8.80139
9.0354
9.26603
9.49302
9.71611
9.93505
10.1496
10.3596
10.5648
10.7651
10.9602
11.1501
11.3345
11.5134
11.6867
11.8543
12.016
12.1718
12.3217
12.4656
12.6034
12.7352
12.8609
12.9807
13.0946
13.2025
13.3043
13.4001
13.4898
13.5736
13.6513
13.723
13.7889
13.8489
13.903
13.9514
13.9941
14.0312
14.0627
14.0886
14.1092
14.1243
14.1342
14.1389
14.1384
14.1329
14.1224
14.107
14.0869
14.062
14.0324
13.9983
13.9598
13.9168
13.8696
13.8182
13.7627
13.7031
13.6396
13.5723
13.5011
13.4264
13.348
13.2661
13.1807
13.0921
13.0002
12.9051
12.8069
12.7057
12.6015
12.4945
12.3848
12.2723
12.1572
12.0395
11.9193
11.7968
11.6718
11.5447
11.4153
11.2837
11.1501
11.0145
10.8769
10.7375
10.5962
10.4532
10.3085
10.1621
10.0142
9.86478
9.71393
9.56169
9.40815
9.25335
9.09737
8.94028
8.78213
8.62301
8.46298
8.30211
8.14047
7.97814
7.81519
7.65171
7.48777
7.32345
7.15884
6.99402
6.82908
6.6641
6.49918
6.3344
6.16986
6.00566
5.8419
5.67866
5.51605
5.35417
5.19311
5.03299
4.8739
4.71595
4.55923
4.40386
4.24992
4.09753
3.94678
3.79776
3.65058
3.50533
3.3621
3.22097
3.08203
2.94535
2.81102
2.67909
2.54963
2.42271
2.29835
2.17662
2.05754
1.94115
1.82747
1.71652
1.60834
1.50295
1.40037
1.30053
1.20333
1.10878
1.0169
0.927784
0.841871
0.759686
0.682335
0.611621
0.552969
0.531089
0.648971
1.68591
2.34894
1.04521
0.941611
1.03849
1.17993
1.33816
1.50608
1.681
1.86167
2.04754
2.23833
2.43389
2.63415
2.83902
3.04842
3.26224
3.48034
3.70255
3.92869
4.15853
4.39182
4.62828
4.86762
5.10952
5.35365
5.59966
5.84718
6.09586
6.34532
6.59519
6.84508
7.09462
7.34344
7.59116
7.83745
8.08193
8.32427
8.56415
8.80124
9.03525
9.26588
9.49287
9.71596
9.9349
10.1495
10.3595
10.5647
10.7649
10.9601
11.1499
11.3344
11.5133
11.6866
11.8541
12.0159
12.1717
12.3216
12.4655
12.6033
12.7351
12.8608
12.9806
13.0945
13.2024
13.3042
13.4
13.4897
13.5734
13.6512
13.7229
13.7888
13.8488
13.9029
13.9513
13.994
14.0311
14.0626
14.0885
14.1091
14.1242
14.1341
14.1388
14.1383
14.1328
14.1223
14.107
14.0868
14.0619
14.0323
13.9982
13.9597
13.9168
13.8695
13.8181
13.7626
13.703
13.6395
13.5722
13.5011
13.4263
13.3479
13.266
13.1807
13.092
13.0001
12.905
12.8068
12.7056
12.6015
12.4945
12.3847
12.2722
12.1571
12.0394
11.9193
11.7967
11.6718
11.5446
11.4152
11.2837
11.1501
11.0144
10.8769
10.7374
10.5961
10.4531
10.3084
10.1621
10.0142
9.86474
9.71388
9.56165
9.4081
9.25331
9.09733
8.94024
8.7821
8.62297
8.46294
8.30207
8.14043
7.9781
7.81516
7.65168
7.48774
7.32342
7.15881
6.99399
6.82905
6.66407
6.49915
6.33437
6.16984
6.00564
5.84187
5.67863
5.51603
5.35414
5.19309
5.03297
4.87388
4.71593
4.55922
4.40384
4.2499
4.09751
3.94676
3.79775
3.65057
3.50532
3.36208
3.22095
3.08201
2.94534
2.811
2.67908
2.54962
2.42269
2.29834
2.17661
2.05753
1.94114
1.82745
1.71651
1.60833
1.50294
1.40036
1.30052
1.20332
1.10877
1.01689
0.927781
0.84187
0.759687
0.682327
0.611535
0.552528
0.530047
0.649108
1.68504
2.11532
1.17018
1.09054
1.1454
1.24522
1.36683
1.50162
1.64562
1.79678
1.95395
2.11649
2.284
2.4562
2.63291
2.81397
2.99921
3.18849
3.38163
3.57844
3.77872
3.98224
4.18877
4.39805
4.60979
4.82371
5.03951
5.25687
5.47548
5.69501
5.91513
6.1355
6.35579
6.57567
6.79481
7.01289
7.22959
7.4446
7.65762
7.86837
8.07657
8.28194
8.48424
8.68322
8.87866
9.07034
9.25807
9.44165
9.62091
9.7957
9.96587
10.1313
10.2918
10.4474
10.5979
10.7432
10.8832
11.018
11.1474
11.2715
11.3901
11.5033
11.6111
11.7136
11.8106
11.9022
11.9884
12.0691
12.1445
12.2144
12.279
12.3383
12.3922
12.441
12.4845
12.5229
12.5563
12.5846
12.6079
12.6263
12.6399
12.6488
12.6529
12.6524
12.6473
12.6378
12.6238
12.6056
12.583
12.5563
12.5255
12.4906
12.4518
12.4092
12.3627
12.3126
12.2588
12.2015
12.1407
12.0765
12.009
11.9383
11.8644
11.7874
11.7074
11.6245
11.5388
11.4502
11.359
11.2651
11.1687
11.0697
10.9684
10.8646
10.7586
10.6504
10.54
10.4275
10.313
10.1965
10.078
9.95779
9.83575
9.71197
9.58653
9.45947
9.33087
9.20076
9.06922
8.9363
8.80205
8.66654
8.52983
8.39197
8.25302
8.11305
7.97211
7.83026
7.68758
7.54412
7.39995
7.25514
7.10976
6.96387
6.81754
6.67086
6.52388
6.3767
6.22938
6.08201
5.93467
5.78743
5.64039
5.49362
5.34722
5.20126
5.05585
4.91107
4.767
4.62375
4.4814
4.34005
4.19978
4.06069
3.92287
3.78642
3.65141
3.51795
3.38611
3.25598
3.12765
3.0012
2.8767
2.75422
2.63384
2.51562
2.39962
2.2859
2.17452
2.06551
1.95893
1.85481
1.75318
1.6541
1.55758
1.46367
1.37241
1.28384
1.19799
1.11492
1.03472
0.957587
0.883811
0.813911
0.748697
0.689632
0.639437
0.604512
0.605459
0.737676
1.72353
2.11497
1.17126
1.09095
1.1454
1.24511
1.3667
1.50148
1.64548
1.79663
1.9538
2.11634
2.28385
2.45605
2.63276
2.81382
2.99906
3.18834
3.38147
3.57828
3.77856
3.98209
4.18862
4.39789
4.60964
4.82356
5.03936
5.25673
5.47534
5.69487
5.91499
6.13536
6.35565
6.57553
6.79468
7.01276
7.22946
7.44448
7.6575
7.86826
8.07645
8.28183
8.48413
8.68312
8.87856
9.07024
9.25797
9.44155
9.62082
9.79561
9.96578
10.1312
10.2917
10.4473
10.5978
10.7431
10.8832
11.0179
11.1474
11.2714
11.39
11.5033
11.6111
11.7135
11.8106
11.9022
11.9883
12.0691
12.1444
12.2144
12.2789
12.3382
12.3922
12.4409
12.4845
12.5229
12.5562
12.5845
12.6079
12.6263
12.6399
12.6487
12.6529
12.6524
12.6473
12.6378
12.6238
12.6055
12.583
12.5563
12.5254
12.4906
12.4518
12.4092
12.3627
12.3126
12.2588
12.2015
12.1407
12.0765
12.009
11.9383
11.8644
11.7874
11.7074
11.6245
11.5388
11.4502
11.359
11.2651
11.1687
11.0697
10.9683
10.8646
10.7586
10.6504
10.54
10.4275
10.3129
10.1964
10.078
9.95778
9.83574
9.71197
9.58652
9.45947
9.33086
9.20076
9.06922
8.93629
8.80205
8.66654
8.52983
8.39197
8.25302
8.11305
7.97211
7.83026
7.68758
7.54412
7.39995
7.25514
7.10976
6.96387
6.81754
6.67086
6.52388
6.3767
6.22939
6.08201
5.93467
5.78743
5.64039
5.49362
5.34722
5.20127
5.05585
4.91107
4.76701
4.62375
4.4814
4.34005
4.19978
4.06069
3.92288
3.78642
3.65141
3.51795
3.38611
3.25599
3.12766
3.0012
2.8767
2.75422
2.63384
2.51562
2.39962
2.2859
2.17452
2.06551
1.95893
1.85481
1.75318
1.6541
1.55758
1.46367
1.37241
1.28384
1.19799
1.11492
1.03472
0.957589
0.883814
0.813916
0.748703
0.689634
0.639416
0.604424
0.605467
0.738524
1.72334
2.72033
1.43737
1.2831
1.2969
1.36742
1.46571
1.58065
1.70695
1.84176
1.98346
2.13104
2.28385
2.44147
2.60357
2.76991
2.94028
3.1145
3.29237
3.4737
3.65829
3.84594
4.03641
4.22946
4.42486
4.62234
4.82162
5.02244
5.22449
5.42749
5.63115
5.83515
6.0392
6.243
6.44624
6.64864
6.8499
7.04973
7.24787
7.44403
7.63796
7.8294
8.01813
8.2039
8.3865
8.56573
8.74139
8.9133
9.08129
9.24521
9.4049
9.56025
9.71112
9.85741
9.99902
10.1359
10.2679
10.395
10.5171
10.6342
10.7463
10.8533
10.9553
11.0521
11.1439
11.2307
11.3123
11.3888
11.4603
11.5267
11.588
11.6444
11.6958
11.7422
11.7837
11.8204
11.8523
11.8795
11.9019
11.9198
11.933
11.9417
11.946
11.9459
11.9415
11.9329
11.92
11.9031
11.8821
11.8572
11.8283
11.7957
11.7593
11.7192
11.6755
11.6284
11.5777
11.5237
11.4664
11.4059
11.3423
11.2755
11.2058
11.1331
11.0576
10.9793
10.8982
10.8146
10.7283
10.6396
10.5484
10.4549
10.359
10.2609
10.1607
10.0583
9.95384
9.84742
9.73908
9.62886
9.51684
9.40307
9.28761
9.17051
9.05183
8.93163
8.80997
8.6869
8.56247
8.43675
8.30979
8.18164
8.05237
7.92202
7.79067
7.65836
7.52515
7.39111
7.2563
7.12078
6.98461
6.84786
6.71059
6.57287
6.43478
6.29637
6.15772
6.01891
5.88001
5.74109
5.60224
5.46353
5.32504
5.18685
5.04905
4.91171
4.77493
4.63879
4.50337
4.36876
4.23505
4.10233
3.97068
3.84018
3.71093
3.58302
3.45651
3.3315
3.20807
3.0863
2.96626
2.84803
2.73169
2.61729
2.5049
2.39459
2.28642
2.18044
2.0767
1.97525
1.87614
1.77941
1.68511
1.59328
1.50398
1.41726
1.3332
1.25186
1.17335
1.09781
1.02543
0.956515
0.891502
0.831067
0.776271
0.728896
0.692228
0.67351
0.692382
0.821545
1.64372
2.72041
1.4375
1.28308
1.29679
1.36728
1.46556
1.5805
1.70679
1.84161
1.98331
2.13089
2.2837
2.44131
2.60341
2.76975
2.94013
3.11434
3.29222
3.47355
3.65814
3.84579
4.03626
4.22932
4.42471
4.62219
4.82148
5.0223
5.22435
5.42736
5.63101
5.83502
6.03907
6.24287
6.44612
6.64852
6.84978
7.04962
7.24776
7.44392
7.63786
7.82931
8.01803
8.20381
8.38641
8.56564
8.74131
8.91322
9.08121
9.24513
9.40483
9.56018
9.71106
9.85735
9.99896
10.1358
10.2678
10.3949
10.517
10.6342
10.7462
10.8533
10.9552
11.0521
11.1439
11.2306
11.3123
11.3888
11.4603
11.5267
11.588
11.6444
11.6957
11.7422
11.7837
11.8204
11.8523
11.8795
11.9019
11.9197
11.933
11.9417
11.946
11.9459
11.9415
11.9329
11.92
11.9031
11.8821
11.8571
11.8283
11.7957
11.7593
11.7192
11.6755
11.6284
11.5777
11.5237
11.4664
11.4059
11.3423
11.2755
11.2058
11.1331
11.0576
10.9793
10.8983
10.8146
10.7283
10.6396
10.5484
10.4549
10.359
10.2609
10.1607
10.0583
9.95385
9.84743
9.73908
9.62887
9.51685
9.40308
9.28761
9.17051
9.05184
8.93164
8.80998
8.68691
8.56248
8.43676
8.3098
8.18165
8.05238
7.92203
7.79068
7.65837
7.52516
7.39112
7.25631
7.12079
6.98462
6.84787
6.7106
6.57288
6.43479
6.29638
6.15773
6.01892
5.88002
5.74111
5.60225
5.46354
5.32505
5.18686
5.04906
4.91172
4.77494
4.6388
4.50338
4.36877
4.23506
4.10234
3.97069
3.84019
3.71094
3.58302
3.45652
3.33151
3.20808
3.08631
2.96627
2.84804
2.73169
2.61729
2.50491
2.3946
2.28643
2.18044
2.0767
1.97525
1.87614
1.77941
1.68511
1.59328
1.50398
1.41727
1.3332
1.25186
1.17335
1.09781
1.02543
0.956519
0.891507
0.831074
0.776279
0.728902
0.692216
0.673446
0.692341
0.821753
1.6445
3.3869
1.7356
1.4994
1.47529
1.522
1.6029
1.70395
1.81847
1.94285
2.07497
2.2135
2.35755
2.50653
2.66
2.81765
2.9792
3.14441
3.31309
3.48502
3.66
3.83782
4.01827
4.20113
4.38617
4.57315
4.76183
4.95195
5.14324
5.33545
5.52831
5.72154
5.91487
6.10803
6.30073
6.49272
6.68372
6.87346
7.0617
7.24817
7.43264
7.61486
7.79462
7.97169
8.14586
8.31694
8.48474
8.64908
8.8098
8.96674
9.11975
9.26872
9.41351
9.55401
9.69013
9.82177
9.94885
10.0713
10.1891
10.3021
10.4104
10.5138
10.6124
10.7062
10.7951
10.8792
10.9584
11.0327
11.1022
11.1668
11.2266
11.2816
11.3318
11.3772
11.418
11.454
11.4855
11.5124
11.5347
11.5526
11.566
11.5751
11.5799
11.5804
11.5768
11.569
11.5572
11.5414
11.5217
11.4982
11.4708
11.4398
11.4051
11.3668
11.325
11.2798
11.2313
11.1795
11.1244
11.0662
11.005
10.9407
10.8736
10.8035
10.7307
10.6552
10.577
10.4962
10.4129
10.3272
10.239
10.1486
10.0559
9.96105
9.86405
9.76498
9.66391
9.5609
9.456
9.34928
9.2408
9.1306
9.01876
8.90532
8.79034
8.67388
8.55599
8.43673
8.31615
8.19431
8.07127
7.94708
7.8218
7.69548
7.56819
7.43997
7.3109
7.18102
7.05041
6.91911
6.7872
6.65475
6.5218
6.38844
6.25472
6.12072
5.98651
5.85216
5.71775
5.58335
5.44902
5.31487
5.18095
5.04735
4.91415
4.78143
4.64928
4.51778
4.387
4.25704
4.12798
3.9999
3.87289
3.74703
3.62239
3.49908
3.37715
3.2567
3.1378
3.02053
2.90495
2.79114
2.67918
2.56911
2.46101
2.35494
2.25096
2.14911
2.04945
1.95204
1.85693
1.76416
1.67379
1.58589
1.50052
1.41776
1.33771
1.26048
1.18623
1.11515
1.04754
0.983792
0.924466
0.870411
0.822934
0.784207
0.758206
0.753395
0.792575
0.963311
2.00992
3.38716
1.73555
1.49928
1.47515
1.52185
1.60274
1.70379
1.81831
1.9427
2.07482
2.21334
2.35739
2.50637
2.65985
2.81749
2.97904
3.14426
3.31293
3.48486
3.65985
3.83767
4.01812
4.20099
4.38603
4.57301
4.76169
4.95181
5.14311
5.33532
5.52818
5.72142
5.91475
6.10791
6.30062
6.49261
6.68361
6.87336
7.0616
7.24807
7.43254
7.61477
7.79453
7.9716
8.14578
8.31686
8.48466
8.64901
8.80973
8.96667
9.11969
9.26866
9.41345
9.55396
9.69008
9.82172
9.9488
10.0713
10.189
10.3021
10.4103
10.5138
10.6124
10.7062
10.7951
10.8792
10.9584
11.0327
11.1022
11.1668
11.2266
11.2815
11.3317
11.3772
11.418
11.454
11.4855
11.5124
11.5347
11.5526
11.566
11.5751
11.5799
11.5804
11.5768
11.569
11.5572
11.5414
11.5217
11.4982
11.4708
11.4398
11.4051
11.3668
11.325
11.2798
11.2313
11.1795
11.1244
11.0662
11.005
10.9407
10.8736
10.8035
10.7307
10.6552
10.577
10.4962
10.4129
10.3272
10.2391
10.1486
10.0559
9.96106
9.86406
9.76499
9.66392
9.56091
9.45602
9.3493
9.24081
9.13062
9.01877
8.90533
8.79035
8.67389
8.556
8.43674
8.31616
8.19432
8.07128
7.94709
7.82181
7.69549
7.5682
7.43999
7.31091
7.18104
7.05042
6.91913
6.78722
6.65476
6.52181
6.38845
6.25473
6.12073
5.98653
5.85218
5.71776
5.58336
5.44904
5.31488
5.18096
5.04736
4.91416
4.78145
4.64929
4.51779
4.38701
4.25705
4.12799
3.99991
3.8729
3.74704
3.6224
3.49909
3.37716
3.25671
3.13781
3.02054
2.90496
2.79115
2.67918
2.56912
2.46102
2.35495
2.25096
2.14912
2.04946
1.95205
1.85693
1.76416
1.6738
1.5859
1.50053
1.41777
1.33771
1.26048
1.18623
1.11516
1.04755
0.983797
0.924471
0.870417
0.822941
0.784215
0.758212
0.753394
0.792605
0.963428
2.01013
4.08096
2.05007
1.73309
1.67377
1.69982
1.76659
1.85701
1.96301
2.08017
2.2059
2.33855
2.47702
2.62055
2.76859
2.92074
3.07665
3.23607
3.39875
3.56447
3.73301
3.90418
4.07776
4.25355
4.43133
4.61089
4.79199
4.9744
5.1579
5.34223
5.52717
5.71245
5.89783
6.08307
6.2679
6.4521
6.6354
6.81756
6.99835
7.17754
7.35489
7.53018
7.7032
7.87374
8.04161
8.2066
8.36855
8.52728
8.68263
8.83444
8.98258
9.1269
9.2673
9.40366
9.53587
9.66384
9.78748
9.90673
10.0215
10.1318
10.2375
10.3386
10.4351
10.5269
10.614
10.6965
10.7742
10.8473
10.9157
10.9794
11.0384
11.0927
11.1424
11.1875
11.2281
11.264
11.2955
11.3225
11.3451
11.3634
11.3773
11.3869
11.3924
11.3936
11.3908
11.384
11.3732
11.3584
11.3398
11.3175
11.2914
11.2616
11.2283
11.1914
11.1512
11.1075
11.0605
11.0103
10.9569
10.9004
10.8409
10.7784
10.713
10.6447
10.5738
10.5001
10.4238
10.3449
10.2636
10.1798
10.0936
10.0052
9.91453
9.82168
9.72671
9.6297
9.5307
9.42977
9.32697
9.22235
9.11598
9.00792
8.89821
8.78692
8.6741
8.55981
8.44411
8.32704
8.20867
8.08906
7.96825
7.8463
7.72327
7.59922
7.47421
7.34829
7.22152
7.09397
6.96569
6.83675
6.7072
6.57712
6.44657
6.31561
6.18432
6.05276
5.921
5.78911
5.65718
5.52526
5.39344
5.2618
5.13041
4.99935
4.86869
4.73853
4.60894
4.48
4.35179
4.2244
4.09791
3.9724
3.84795
3.72464
3.60255
3.48177
3.36236
3.24441
3.12799
3.01317
2.90002
2.78861
2.67901
2.57127
2.46547
2.36166
2.2599
2.16024
2.06274
1.96745
1.87444
1.78376
1.69548
1.60967
1.52642
1.44583
1.36802
1.29316
1.22143
1.15311
1.08854
1.02822
0.972842
0.923414
0.881516
0.849768
0.832997
0.841483
0.902788
1.12421
2.41981
4.08128
2.04999
1.73296
1.67361
1.69965
1.76642
1.85685
1.96284
2.08001
2.20574
2.33839
2.47686
2.62039
2.76843
2.92058
3.0765
3.23591
3.39859
3.56431
3.73286
3.90403
4.07762
4.25341
4.43119
4.61075
4.79185
4.97427
5.15777
5.34211
5.52704
5.71233
5.89771
6.08295
6.26779
6.45199
6.63529
6.81746
6.99826
7.17744
7.3548
7.53009
7.70312
7.87366
8.04153
8.20653
8.36848
8.52721
8.68256
8.83438
8.98252
9.12685
9.26725
9.40361
9.53582
9.66379
9.78744
9.9067
10.0215
10.1318
10.2375
10.3386
10.435
10.5269
10.614
10.6965
10.7742
10.8473
10.9157
10.9794
11.0384
11.0927
11.1424
11.1875
11.228
11.264
11.2955
11.3225
11.3451
11.3634
11.3773
11.3869
11.3924
11.3936
11.3908
11.384
11.3732
11.3584
11.3398
11.3175
11.2914
11.2616
11.2283
11.1915
11.1512
11.1075
11.0605
11.0103
10.9569
10.9004
10.8409
10.7784
10.713
10.6447
10.5738
10.5001
10.4238
10.3449
10.2636
10.1798
10.0937
10.0052
9.91454
9.82169
9.72673
9.62971
9.53071
9.42978
9.32698
9.22236
9.11599
9.00793
8.89822
8.78693
8.67411
8.55983
8.44412
8.32706
8.20869
8.08907
7.96826
7.84631
7.72329
7.59924
7.47422
7.3483
7.22154
7.09398
6.9657
6.83676
6.70721
6.57713
6.44658
6.31562
6.18433
6.05277
5.92101
5.78913
5.65719
5.52527
5.39346
5.26181
5.13042
4.99936
4.8687
4.73854
4.60895
4.48001
4.3518
4.22441
4.09792
3.97241
3.84796
3.72465
3.60256
3.48178
3.36237
3.24442
3.128
3.01318
2.90003
2.78862
2.67901
2.57128
2.46548
2.36167
2.25991
2.16025
2.06274
1.96746
1.87445
1.78377
1.69549
1.60968
1.52643
1.44584
1.36803
1.29316
1.22144
1.15311
1.08855
1.02823
0.972846
0.923419
0.881521
0.849772
0.833
0.841482
0.902797
1.12426
2.41987
4.79829
2.379
1.98229
1.88956
1.89695
1.95164
2.03348
2.13295
2.24486
2.36615
2.49485
2.62965
2.76963
2.91414
3.06267
3.21485
3.37035
3.5289
3.69026
3.85423
4.02057
4.18911
4.35962
4.53192
4.70579
4.88104
5.05745
5.23481
5.4129
5.59151
5.77041
5.94938
6.12819
6.30662
6.48444
6.66143
6.83736
7.01202
7.18519
7.35666
7.52622
7.69368
7.85882
8.02147
8.18145
8.33857
8.49269
8.64362
8.79124
8.9354
9.07596
9.21281
9.34583
9.47491
9.59997
9.72091
9.83765
9.95013
10.0583
10.1621
10.2614
10.3563
10.4467
10.5326
10.6139
10.6907
10.763
10.8307
10.8938
10.9524
11.0065
11.056
11.1011
11.1417
11.1778
11.2095
11.2369
11.2599
11.2786
11.2931
11.3034
11.3095
11.3116
11.3096
11.3037
11.2938
11.28
11.2625
11.2412
11.2162
11.1876
11.1554
11.1198
11.0807
11.0383
10.9926
10.9437
10.8916
10.8364
10.7783
10.7171
10.6531
10.5862
10.5166
10.4443
10.3694
10.2919
10.212
10.1296
10.0448
9.95774
9.86845
9.77697
9.68338
9.58774
9.4901
9.39053
9.28908
9.18581
9.08078
8.97406
8.86568
8.75572
8.64422
8.53125
8.41686
8.30111
8.18404
8.06573
7.94622
7.82558
7.70385
7.5811
7.45738
7.33276
7.20729
7.08104
6.95406
6.82643
6.69819
6.56942
6.44019
6.31055
6.18059
6.05036
5.91994
5.78939
5.65881
5.52824
5.39778
5.2675
5.13748
5.00779
4.87851
4.74973
4.62151
4.49395
4.36713
4.24112
4.116
3.99185
3.86876
3.74681
3.62606
3.5066
3.3885
3.27184
3.15669
3.04312
2.93119
2.82098
2.71254
2.60594
2.50124
2.3985
2.29777
2.19912
2.1026
2.00828
1.91621
1.82647
1.73913
1.65428
1.57203
1.49249
1.41583
1.34223
1.27194
1.20527
1.14265
1.08466
1.0321
0.986188
0.948765
0.922934
0.914434
0.935525
1.01879
1.29183
2.83614
4.79867
2.37891
1.98213
1.88939
1.89678
1.95146
2.03331
2.13277
2.24469
2.36598
2.49468
2.62948
2.76946
2.91397
3.06251
3.21469
3.37019
3.52874
3.69011
3.85407
4.02042
4.18896
4.35948
4.53178
4.70565
4.8809
5.05732
5.23468
5.41278
5.59139
5.77029
5.94926
6.12808
6.30651
6.48433
6.66132
6.83726
7.01193
7.1851
7.35658
7.52614
7.69359
7.85874
8.0214
8.18138
8.33851
8.49262
8.64356
8.79119
8.93535
9.07591
9.21276
9.34578
9.47487
9.59993
9.72087
9.83762
9.9501
10.0583
10.162
10.2614
10.3563
10.4467
10.5326
10.6139
10.6907
10.763
10.8307
10.8938
10.9524
11.0065
11.056
11.1011
11.1416
11.1778
11.2095
11.2369
11.2599
11.2786
11.2931
11.3034
11.3096
11.3116
11.3096
11.3037
11.2938
11.28
11.2625
11.2412
11.2162
11.1876
11.1555
11.1198
11.0808
11.0383
10.9926
10.9437
10.8916
10.8365
10.7783
10.7171
10.6531
10.5862
10.5166
10.4443
10.3694
10.2919
10.212
10.1296
10.0448
9.95776
9.86846
9.77698
9.68339
9.58775
9.49011
9.39054
9.28909
9.18582
9.0808
8.97407
8.86569
8.75573
8.64424
8.53127
8.41687
8.30112
8.18406
8.06574
7.94623
7.82559
7.70386
7.58111
7.45739
7.33277
7.20731
7.08105
6.95408
6.82644
6.6982
6.56944
6.4402
6.31056
6.1806
6.05037
5.91995
5.78941
5.65882
5.52826
5.3978
5.26752
5.13749
5.0078
4.87852
4.74974
4.62152
4.49396
4.36714
4.24112
4.11601
3.99186
3.86877
3.74682
3.62607
3.50661
3.38851
3.27185
3.1567
3.04313
2.9312
2.82098
2.71255
2.60595
2.50125
2.3985
2.29778
2.19913
2.10261
2.00828
1.91622
1.82647
1.73913
1.65429
1.57203
1.4925
1.41583
1.34223
1.27194
1.20527
1.14265
1.08466
1.03211
0.986192
0.948768
0.922936
0.914434
0.935524
1.0188
1.29186
2.83616
5.54422
2.7236
2.24691
2.1218
2.11182
2.15578
2.23039
2.32466
2.43263
2.55075
2.67675
2.80911
2.94677
3.08895
3.23507
3.38469
3.53745
3.69304
3.85121
4.01173
4.17438
4.33897
4.5053
4.67319
4.84244
5.01286
5.18428
5.35649
5.5293
5.70252
5.87595
6.04939
6.22264
6.39549
6.56774
6.7392
6.90965
7.07891
7.24677
7.41303
7.5775
7.74
7.90035
8.05836
8.21387
8.3667
8.5167
8.66371
8.8076
8.94822
9.08544
9.21914
9.34921
9.47554
9.59803
9.71659
9.83115
9.94163
10.048
10.1501
10.2479
10.3415
10.4307
10.5156
10.596
10.6721
10.7437
10.8109
10.8737
10.932
10.9859
11.0354
11.0805
11.1212
11.1576
11.1896
11.2174
11.2409
11.2601
11.2752
11.2862
11.293
11.2959
11.2947
11.2896
11.2806
11.2677
11.2511
11.2308
11.2069
11.1793
11.1482
11.1136
11.0756
11.0343
10.9897
10.9419
10.8909
10.8368
10.7798
10.7197
10.6568
10.5911
10.5226
10.4514
10.3775
10.3011
10.2222
10.1409
10.0572
9.97115
9.88287
9.7924
9.6998
9.60513
9.50845
9.40982
9.3093
9.20695
9.10283
8.99698
8.88948
8.78037
8.66972
8.55758
8.444
8.32905
8.21278
8.09524
7.9765
7.85661
7.73563
7.61362
7.49063
7.36673
7.24198
7.11644
6.99017
6.86323
6.73569
6.60761
6.47907
6.35012
6.22083
6.09129
5.96155
5.83169
5.70178
5.5719
5.44212
5.31251
5.18317
5.05415
4.92555
4.79743
4.66988
4.54299
4.41682
4.29145
4.16698
4.04347
3.921
3.79965
3.67949
3.56061
3.44307
3.32694
3.21229
3.0992
2.98773
2.87794
2.7699
2.66366
2.55929
2.45684
2.35638
2.25797
2.16166
2.06752
1.97563
1.88606
1.7989
1.71425
1.63223
1.553
1.47673
1.40364
1.33403
1.26826
1.20683
1.1504
1.09991
1.05674
1.02303
1.00239
1.00146
1.03452
1.13937
1.46371
3.25732
5.54466
2.72349
2.24674
2.12162
2.11164
2.15559
2.2302
2.32448
2.43245
2.55057
2.67658
2.80894
2.9466
3.08878
3.2349
3.38453
3.53729
3.69288
3.85105
4.01157
4.17423
4.33882
4.50516
4.67305
4.8423
5.01273
5.18415
5.35636
5.52918
5.7024
5.87583
6.04927
6.22252
6.39538
6.56764
6.7391
6.90956
7.07882
7.24668
7.41294
7.57742
7.73993
7.90028
8.05829
8.2138
8.36663
8.51664
8.66366
8.80754
8.94817
9.08539
9.21909
9.34917
9.4755
9.59799
9.71656
9.83112
9.9416
10.0479
10.15
10.2479
10.3415
10.4307
10.5156
10.596
10.6721
10.7437
10.8109
10.8737
10.932
10.9859
11.0354
11.0805
11.1212
11.1576
11.1896
11.2174
11.2409
11.2602
11.2752
11.2862
11.2931
11.2959
11.2947
11.2896
11.2806
11.2678
11.2512
11.2308
11.2069
11.1793
11.1482
11.1136
11.0756
11.0343
10.9897
10.9419
10.8909
10.8369
10.7798
10.7197
10.6568
10.5911
10.5226
10.4514
10.3775
10.3011
10.2222
10.1409
10.0572
9.97116
9.88288
9.79241
9.69981
9.60514
9.50846
9.40984
9.30932
9.20697
9.10284
8.997
8.88949
8.78039
8.66973
8.55759
8.44401
8.32906
8.21279
8.09525
7.97651
7.85662
7.73564
7.61363
7.49064
7.36674
7.24199
7.11645
6.99018
6.86324
6.7357
6.60762
6.47908
6.35013
6.22085
6.0913
5.96156
5.8317
5.70179
5.57191
5.44213
5.31252
5.18318
5.05416
4.92556
4.79744
4.66989
4.543
4.41683
4.29146
4.16699
4.04347
3.921
3.79965
3.6795
3.56061
3.44307
3.32694
3.2123
3.09921
2.98774
2.87795
2.7699
2.66367
2.55929
2.45685
2.35639
2.25797
2.16167
2.06753
1.97564
1.88607
1.7989
1.71425
1.63224
1.55301
1.47673
1.40365
1.33403
1.26826
1.20683
1.1504
1.09991
1.05674
1.02303
1.00239
1.00146
1.03452
1.13938
1.46375
3.25734
6.32146
3.08526
2.5276
2.37058
2.34405
2.37819
2.4465
2.53649
2.64142
2.75724
2.88139
3.01213
3.14827
3.28891
3.4334
3.58123
3.732
3.88537
4.04108
4.19887
4.35853
4.51987
4.68269
4.84682
5.01209
5.17832
5.34535
5.513
5.6811
5.84949
6.01798
6.1864
6.35457
6.52232
6.68946
6.85582
7.0212
7.18544
7.34835
7.50976
7.66949
7.82735
7.9832
8.13685
8.28814
8.43693
8.58304
8.72635
8.86671
9.00397
9.13803
9.26874
9.39601
9.51973
9.63978
9.75609
9.86857
9.97714
10.0817
10.1823
10.2787
10.371
10.4591
10.543
10.6226
10.698
10.769
10.8358
10.8982
10.9563
11.01
11.0595
11.1047
11.1455
11.1821
11.2144
11.2426
11.2665
11.2863
11.3019
11.3135
11.321
11.3245
11.3241
11.3198
11.3116
11.2996
11.2839
11.2645
11.2414
11.2148
11.1846
11.151
11.114
11.0736
11.03
10.9831
10.9332
10.8801
10.824
10.7649
10.7029
10.6381