/*--------------------------------*- C++ -*----------------------------------*\
  =========                 |
  \\      /  F ield         | OpenFOAM: The Open Source CFD Toolbox
   \\    /   O peration     | Website:  https://openfoam.org
    \\  /    A nd           | Version:  8
     \\/     M anipulation  |
\*---------------------------------------------------------------------------*/
FoamFile
{
    version     2.0;
    format      ascii;
    class       volScalarField;
    location    "1200";
    object      k;
}
// * * * * * * * * * * * * * * * * * * * * * * * * * * * * * * * * * * * * * //

dimensions      [0 2 -2 0 0 0 0];

internalField   nonuniform List<scalar> 
48000
(
0.0199467
0.0223811
0.0265112
0.0348816
0.0423685
0.0491747
0.0555965
0.0616941
0.0675313
0.073176
0.0786659
0.0840294
0.0892876
0.0944563
0.0995472
0.104569
0.109527
0.114427
0.11927
0.124058
0.128791
0.13347
0.138093
0.142659
0.147167
0.151615
0.156001
0.160322
0.164578
0.168765
0.172883
0.176928
0.180899
0.184795
0.188614
0.192353
0.196013
0.199591
0.203088
0.2065
0.209829
0.213072
0.21623
0.219303
0.222288
0.225188
0.228
0.230726
0.233364
0.235916
0.238382
0.24076
0.243053
0.24526
0.247381
0.249417
0.251369
0.253236
0.255019
0.256717
0.258332
0.259873
0.261336
0.26272
0.264025
0.265251
0.266399
0.267471
0.268465
0.269385
0.270229
0.271
0.271698
0.272324
0.272878
0.273362
0.273777
0.274123
0.274401
0.274612
0.274758
0.274839
0.274855
0.274808
0.274699
0.274529
0.274298
0.274007
0.273658
0.273251
0.272786
0.272266
0.27169
0.27106
0.270377
0.269641
0.268853
0.268013
0.267124
0.266185
0.265197
0.264162
0.263079
0.26195
0.260775
0.259554
0.25829
0.256982
0.25563
0.254237
0.252801
0.251324
0.249806
0.248248
0.246651
0.245014
0.243339
0.241625
0.239874
0.238085
0.236259
0.234397
0.232498
0.230564
0.228594
0.22659
0.22455
0.222476
0.220368
0.218227
0.216051
0.213843
0.211602
0.209329
0.207023
0.204686
0.202317
0.199918
0.197487
0.195027
0.192537
0.190017
0.187469
0.184892
0.182287
0.179655
0.176996
0.17431
0.1716
0.168864
0.166103
0.16332
0.160513
0.157684
0.154833
0.151963
0.149072
0.146163
0.143235
0.140291
0.137331
0.134355
0.131366
0.128364
0.12535
0.122325
0.11929
0.116246
0.113195
0.110137
0.107074
0.104006
0.100935
0.0978609
0.0947851
0.0917082
0.0886308
0.0855534
0.0824761
0.0793991
0.076322
0.0732443
0.070165
0.0670831
0.0639986
0.0609115
0.0578425
0.0547766
0.0516758
0.0485277
0.045316
0.0420166
0.0385993
0.0350275
0.0313278
0.0274102
0.023537
0.0230106
0.0212199
0.0173171
0.0199558
0.0223828
0.0265196
0.0348858
0.042371
0.0491769
0.0555987
0.0616963
0.0675334
0.073178
0.0786678
0.0840312
0.0892894
0.094458
0.0995489
0.10457
0.109529
0.114428
0.119271
0.124059
0.128792
0.133471
0.138094
0.14266
0.147168
0.151616
0.156002
0.160323
0.164579
0.168766
0.172883
0.176929
0.1809
0.184796
0.188614
0.192354
0.196013
0.199592
0.203088
0.2065
0.209829
0.213072
0.216231
0.219303
0.222288
0.225188
0.228
0.230726
0.233364
0.235916
0.238381
0.24076
0.243053
0.24526
0.247381
0.249417
0.251368
0.253235
0.255018
0.256717
0.258332
0.259873
0.261336
0.26272
0.264024
0.265251
0.266399
0.26747
0.268465
0.269384
0.270229
0.271
0.271698
0.272323
0.272878
0.273362
0.273776
0.274122
0.274401
0.274612
0.274758
0.274838
0.274854
0.274808
0.274699
0.274528
0.274297
0.274007
0.273657
0.27325
0.272786
0.272265
0.27169
0.27106
0.270376
0.26964
0.268852
0.268013
0.267123
0.266184
0.265197
0.264161
0.263078
0.261949
0.260774
0.259554
0.258289
0.256981
0.25563
0.254236
0.2528
0.251324
0.249806
0.248248
0.24665
0.245014
0.243338
0.241625
0.239873
0.238084
0.236259
0.234396
0.232498
0.230564
0.228594
0.226589
0.22455
0.222476
0.220368
0.218226
0.216051
0.213843
0.211602
0.209328
0.207023
0.204685
0.202317
0.199917
0.197487
0.195026
0.192536
0.190017
0.187468
0.184891
0.182286
0.179654
0.176995
0.17431
0.171599
0.168863
0.166103
0.163319
0.160512
0.157683
0.154833
0.151962
0.149072
0.146162
0.143235
0.140291
0.13733
0.134355
0.131366
0.128364
0.125349
0.122324
0.119289
0.116246
0.113195
0.110137
0.107074
0.104006
0.100935
0.0978607
0.0947849
0.091708
0.0886307
0.0855532
0.082476
0.079399
0.0763219
0.0732442
0.0701649
0.0670831
0.0639985
0.0609115
0.0578425
0.0547766
0.0516757
0.0485277
0.045316
0.0420165
0.0385992
0.0350272
0.0313268
0.0274073
0.0235311
0.0230127
0.0212278
0.0173142
0.0298241
0.044975
0.0634093
0.0799649
0.0950004
0.108988
0.122232
0.13491
0.147147
0.159034
0.17064
0.182016
0.193202
0.204225
0.215108
0.225866
0.236509
0.247046
0.257481
0.267814
0.278047
0.288177
0.298203
0.30812
0.317924
0.327611
0.337176
0.346613
0.355917
0.365084
0.374106
0.382981
0.391702
0.400266
0.408668
0.416903
0.424969
0.432862
0.440578
0.448116
0.455472
0.462645
0.469632
0.476432
0.483044
0.489467
0.495699
0.501741
0.507592
0.513253
0.518722
0.524
0.529089
0.533987
0.538697
0.543218
0.547551
0.551698
0.555659
0.559434
0.563023
0.566423
0.569644
0.57269
0.575563
0.578262
0.580791
0.583149
0.58534
0.587365
0.589225
0.590923
0.592461
0.59384
0.595062
0.596129
0.597044
0.597808
0.598423
0.598892
0.599215
0.599396
0.599436
0.599337
0.599101
0.598731
0.598228
0.597594
0.596831
0.595941
0.594926
0.593788
0.592529
0.59115
0.589654
0.588043
0.586318
0.58448
0.582533
0.580477
0.578315
0.576047
0.573677
0.571204
0.568631
0.56596
0.563191
0.560327
0.557368
0.554317
0.551174
0.547941
0.544618
0.541208
0.537712
0.534129
0.530462
0.526712
0.52288
0.518966
0.514971
0.510897
0.506744
0.502513
0.498205
0.49382
0.48936
0.484826
0.480217
0.475535
0.470781
0.465955
0.461058
0.456091
0.451054
0.445949
0.440776
0.435536
0.43023
0.424859
0.419424
0.413926
0.408366
0.402745
0.397065
0.391325
0.385529
0.379677
0.37377
0.36781
0.361798
0.355737
0.349627
0.343471
0.33727
0.331027
0.324742
0.318419
0.312059
0.305664
0.299237
0.29278
0.286296
0.279786
0.273252
0.266699
0.260127
0.25354
0.246939
0.240328
0.233709
0.227083
0.220453
0.213821
0.207189
0.200559
0.19393
0.187306
0.180685
0.174068
0.167454
0.160841
0.154227
0.147608
0.14098
0.134336
0.127668
0.120959
0.114181
0.107326
0.100363
0.093251
0.0859379
0.0783498
0.0703766
0.0619096
0.0526908
0.0423435
0.0323501
0.0230643
0.0298153
0.044974
0.0634154
0.0799668
0.0950016
0.108989
0.122233
0.134912
0.147148
0.159035
0.170641
0.182017
0.193202
0.204226
0.215108
0.225866
0.23651
0.247047
0.257481
0.267814
0.278047
0.288177
0.298203
0.30812
0.317924
0.327611
0.337176
0.346613
0.355917
0.365083
0.374106
0.38298
0.391701
0.400265
0.408667
0.416902
0.424968
0.432861
0.440577
0.448115
0.455471
0.462643
0.46963
0.476431
0.483042
0.489465
0.495698
0.50174
0.507591
0.513251
0.51872
0.523999
0.529087
0.533985
0.538695
0.543216
0.547549
0.551696
0.555657
0.559432
0.563021
0.566421
0.569642
0.572688
0.575561
0.57826
0.580789
0.583147
0.585338
0.587363
0.589223
0.590921
0.592459
0.593838
0.59506
0.596127
0.597042
0.597806
0.598421
0.598889
0.599213
0.599394
0.599434
0.599335
0.599099
0.598729
0.598226
0.597592
0.596829
0.595939
0.594924
0.593786
0.592527
0.591148
0.589652
0.588041
0.586315
0.584478
0.582531
0.580475
0.578313
0.576045
0.573675
0.571202
0.568629
0.565958
0.563189
0.560325
0.557367
0.554315
0.551172
0.547939
0.544617
0.541206
0.53771
0.534127
0.530461
0.52671
0.522878
0.518964
0.514969
0.510895
0.506742
0.502511
0.498203
0.493819
0.489359
0.484824
0.480215
0.475534
0.470779
0.465953
0.461056
0.456089
0.451052
0.445947
0.440774
0.435534
0.430229
0.424858
0.419423
0.413925
0.408365
0.402744
0.397063
0.391324
0.385527
0.379675
0.373768
0.367808
0.361797
0.355735
0.349626
0.34347
0.337269
0.331025
0.324741
0.318418
0.312058
0.305663
0.299236
0.292779
0.286294
0.279784
0.273251
0.266698
0.260126
0.253539
0.246938
0.240327
0.233708
0.227082
0.220452
0.21382
0.207188
0.200558
0.19393
0.187305
0.180684
0.174067
0.167453
0.16084
0.154226
0.147608
0.140979
0.134335
0.127667
0.120958
0.114181
0.107325
0.100363
0.0932506
0.0859375
0.0783496
0.0703767
0.0619103
0.0526906
0.0423453
0.0323524
0.0230563
0.0346315
0.0627681
0.0871546
0.107319
0.125546
0.142645
0.158959
0.174675
0.189915
0.204771
0.219313
0.233595
0.247657
0.261531
0.275241
0.288804
0.302231
0.315532
0.328709
0.341765
0.3547
0.367512
0.380196
0.392749
0.405164
0.417437
0.429559
0.441525
0.453328
0.464961
0.476417
0.487689
0.498772
0.50966
0.520345
0.530824
0.541092
0.551143
0.560973
0.570579
0.579957
0.589105
0.598019
0.606698
0.615139
0.623341
0.631303
0.639023
0.646502
0.653739
0.660733
0.667485
0.673995
0.680263
0.686291
0.69208
0.697629
0.70294
0.708015
0.712854
0.717458
0.721828
0.725965
0.729876
0.733564
0.737031
0.740279
0.74331
0.746126
0.748729
0.751122
0.753307
0.755287
0.757064
0.75864
0.760018
0.7612
0.76219
0.762989
0.7636
0.764026
0.764269
0.764332
0.764217
0.763927
0.763465
0.762833
0.762033
0.761068
0.759941
0.758654
0.75721
0.75561
0.753858
0.751956
0.749906
0.747711
0.745372
0.742892
0.740274
0.73752
0.734631
0.73161
0.728459
0.72518
0.721775
0.718245
0.714594
0.710822
0.706931
0.702924
0.698801
0.694564
0.690215
0.685756
0.681188
0.676512
0.671729
0.666841
0.66185
0.656756
0.65156
0.646264
0.640869
0.635376
0.629786
0.624099
0.618318
0.612442
0.606474
0.600414
0.594262
0.58802
0.58169
0.575271
0.568766
0.562175
0.555499
0.548739
0.541898
0.534975
0.527973
0.520892
0.513735
0.506502
0.499196
0.491817
0.484368
0.476851
0.469267
0.461619
0.453908
0.446137
0.438308
0.430423
0.422485
0.414496
0.40646
0.398378
0.390253
0.382089
0.373888
0.365653
0.357388
0.349095
0.340777
0.332438
0.324081
0.315709
0.307325
0.298931
0.290531
0.282128
0.273723
0.265319
0.256919
0.248522
0.240131
0.231746
0.223366
0.214991
0.206619
0.198246
0.189868
0.181479
0.17307
0.164631
0.156145
0.147591
0.138944
0.130173
0.121232
0.112078
0.102632
0.0927803
0.0823794
0.0711217
0.0583777
0.0429292
0.024459
0.0346247
0.0627773
0.0871578
0.107319
0.125546
0.142645
0.15896
0.174675
0.189915
0.204771
0.219313
0.233594
0.247657
0.261531
0.275241
0.288803
0.302231
0.315531
0.328708
0.341764
0.354699
0.367511
0.380195
0.392748
0.405163
0.417435
0.429558
0.441524
0.453327
0.464959
0.476415
0.487688
0.498771
0.509658
0.520344
0.530823
0.54109
0.551141
0.560971
0.570577
0.579955
0.589103
0.598017
0.606696
0.615137
0.623339
0.631301
0.639021
0.6465
0.653736
0.66073
0.667482
0.673992
0.680261
0.686289
0.692077
0.697626
0.702938
0.708013
0.712851
0.717455
0.721825
0.725962
0.729873
0.733561
0.737028
0.740276
0.743307
0.746123
0.748726
0.751119
0.753305
0.755284
0.757061
0.758637
0.760015
0.761198
0.762187
0.762986
0.763598
0.764023
0.764266
0.764329
0.764215
0.763925
0.763462
0.76283
0.76203
0.761066
0.759939
0.758652
0.757207
0.755608
0.753856
0.751953
0.749903
0.747708
0.745369
0.74289
0.740272
0.737517
0.734629
0.731608
0.728457
0.725177
0.721772
0.718243
0.714591
0.710819
0.706929
0.702921
0.698798
0.694562
0.690213
0.685754
0.681185
0.676509
0.671727
0.666839
0.661848
0.656753
0.651558
0.646262
0.640867
0.635374
0.629783
0.624097
0.618316
0.61244
0.606472
0.600411
0.59426
0.588018
0.581688
0.575269
0.568764
0.562173
0.555497
0.548737
0.541896
0.534973
0.527971
0.52089
0.513733
0.5065
0.499194
0.491815
0.484366
0.476849
0.469265
0.461617
0.453906
0.446135
0.438306
0.430421
0.422483
0.414495
0.406458
0.398376
0.390252
0.382087
0.373886
0.365652
0.357386
0.349093
0.340776
0.332437
0.32408
0.315708
0.307323
0.29893
0.29053
0.282127
0.273722
0.265318
0.256917
0.248521
0.24013
0.231745
0.223365
0.21499
0.206618
0.198245
0.189867
0.181478
0.173069
0.16463
0.156144
0.14759
0.138944
0.130172
0.121231
0.112078
0.102631
0.0927807
0.0823805
0.0711226
0.0583794
0.0429273
0.0244609
0.0353308
0.0799105
0.107512
0.130041
0.150416
0.169574
0.187909
0.205627
0.222858
0.239693
0.256199
0.272431
0.288427
0.304218
0.31983
0.335278
0.350575
0.36573
0.380746
0.395627
0.41037
0.424975
0.439437
0.453751
0.467911
0.48191
0.495742
0.509398
0.522872
0.536155
0.549241
0.562121
0.574789
0.587238
0.599461
0.611452
0.623205
0.634715
0.645978
0.656988
0.667741
0.678235
0.688465
0.698428
0.708124
0.717548
0.726701
0.735579
0.744184
0.752513
0.760566
0.768344
0.775846
0.783073
0.790026
0.796704
0.80311
0.809244
0.815108
0.820702
0.826029
0.831089
0.835884
0.840417
0.844692
0.848714
0.852484
0.856004
0.859277
0.862305
0.865091
0.867637
0.869947
0.872023
0.873868
0.875484
0.876875
0.878044
0.878992
0.879724
0.880242
0.880549
0.880649
0.880543
0.880234
0.879727
0.879024
0.878127
0.877039
0.875764
0.874305
0.872663
0.870842
0.868845
0.866675
0.864333
0.861824
0.859149
0.856311
0.853313
0.850157
0.846846
0.843383
0.839768
0.836006
0.832098
0.828047
0.823854
0.819522
0.815053
0.810449
0.805711
0.800843
0.795844
0.790718
0.785466
0.780089
0.774589
0.768968
0.763227
0.757368
0.751392
0.7453
0.739093
0.732774
0.726342
0.7198
0.713148
0.706388
0.699521
0.692548
0.685471
0.678289
0.671006
0.663621
0.656137
0.648554
0.640874
0.633098
0.625228
0.617265
0.609211
0.601068
0.592836
0.584519
0.576117
0.567633
0.559069
0.550427
0.541709
0.532918
0.524056
0.515125
0.506129
0.497069
0.48795
0.478773
0.469542
0.46026
0.450931
0.441557
0.432142
0.422689
0.413203
0.403686
0.394142
0.384574
0.374987
0.365384
0.355767
0.346141
0.336508
0.326873
0.317236
0.307601
0.29797
0.288344
0.278725
0.269114
0.259509
0.24991
0.240314
0.230719
0.22112
0.211511
0.201883
0.192223
0.182519
0.172749
0.162889
0.152909
0.142768
0.132413
0.121767
0.110721
0.0991
0.0865918
0.072444
0.0541903
0.0244457
0.0353415
0.0799146
0.107511
0.13004
0.150416
0.169574
0.187909
0.205627
0.222857
0.239692
0.256199
0.27243
0.288426
0.304217
0.319829
0.335277
0.350574
0.365729
0.380745
0.395625
0.410369
0.424974
0.439436
0.453749
0.467909
0.481908
0.49574
0.509396
0.52287
0.536153
0.549239
0.562119
0.574787
0.587236
0.599459
0.61145
0.623203
0.634713
0.645976
0.656986
0.667739
0.678232
0.688462
0.698426
0.708121
0.717546
0.726698
0.735577
0.744181
0.75251
0.760564
0.768342
0.775844
0.783071
0.790023
0.796702
0.803108
0.809242
0.815106
0.8207
0.826026
0.831086
0.835882
0.840414
0.84469
0.848712
0.852481
0.856001
0.859274
0.862302
0.865088
0.867635
0.869945
0.872021
0.873866
0.875482
0.876873
0.878041
0.87899
0.879722
0.88024
0.880547
0.880646
0.88054
0.880232
0.879725
0.879021
0.878124
0.877037
0.875762
0.874302
0.872661
0.87084
0.868843
0.866672
0.864331
0.861821
0.859146
0.856309
0.853311
0.850155
0.846844
0.84338
0.839766
0.836004
0.832096
0.828045
0.823852
0.81952
0.815051
0.810447
0.805709
0.80084
0.795842
0.790716
0.785464
0.780087
0.774587
0.768966
0.763225
0.757366
0.75139
0.745298
0.739091
0.732772
0.72634
0.719798
0.713146
0.706386
0.699519
0.692546
0.685469
0.678287
0.671004
0.663619
0.656135
0.648552
0.640872
0.633097
0.625227
0.617264
0.60921
0.601066
0.592835
0.584517
0.576116
0.567632
0.559068
0.550425
0.541708
0.532916
0.524054
0.515124
0.506127
0.497068
0.487948
0.478772
0.469541
0.460259
0.45093
0.441556
0.432141
0.422688
0.413202
0.403685
0.394141
0.384573
0.374986
0.365382
0.355766
0.34614
0.336507
0.326872
0.317235
0.3076
0.297969
0.288344
0.278725
0.269113
0.259508
0.249909
0.240313
0.230719
0.22112
0.21151
0.201882
0.192223
0.182518
0.172748
0.162889
0.152908
0.142767
0.132412
0.121766
0.110721
0.0991005
0.086592
0.0724454
0.0541867
0.02445
0.0417064
0.0948944
0.126001
0.150859
0.173141
0.19402
0.21399
0.233301
0.252101
0.270488
0.28853
0.306282
0.323782
0.341061
0.358143
0.375045
0.391779
0.408355
0.424776
0.441046
0.457164
0.473127
0.488932
0.504574
0.520047
0.535345
0.55046
0.565385
0.580112
0.594633
0.60894
0.623026
0.636883
0.650504
0.663883
0.677012
0.689885
0.702497
0.714842
0.726915
0.738712
0.750229
0.761462
0.772408
0.783064
0.793427
0.803496
0.813269
0.822744
0.831921
0.840799
0.849377
0.857656
0.865635
0.873315
0.880697
0.887781
0.894569
0.901062
0.90726
0.913166
0.918781
0.924107
0.929146
0.9339
0.938375
0.942572
0.946496
0.950147
0.953529
0.956645
0.959496
0.962087
0.964419
0.966497
0.968322
0.969899
0.971229
0.972317
0.973166
0.973778
0.974157
0.974305
0.974227
0.973925
0.973403
0.972663
0.971709
0.970544
0.969172
0.967594
0.965815
0.963838
0.961665
0.959299
0.956745
0.954003
0.951079
0.947973
0.94469
0.941231
0.937601
0.933801
0.929834
0.925702
0.921409
0.916956
0.912347
0.907582
0.902666
0.897599
0.892385
0.887024
0.88152
0.875874
0.870088
0.864163
0.858103
0.851907
0.845579
0.839119
0.832529
0.825811
0.818966
0.811996
0.804901
0.797684
0.790346
0.782888
0.775311
0.767617
0.759807
0.751882
0.743845
0.735696
0.727436
0.719068
0.710593
0.702012
0.693327
0.68454
0.675652
0.666666
0.657583
0.648405
0.639135
0.629774
0.620326
0.610792
0.601174
0.591477
0.581701
0.571851
0.561929
0.551939
0.541882
0.531764
0.521586
0.511353
0.501068
0.490735
0.480358
0.46994
0.459485
0.448997
0.43848
0.427938
0.417375
0.406794
0.396199
0.385593
0.374981
0.364365
0.353747
0.343132
0.33252
0.321913
0.311314
0.300722
0.290136
0.279557
0.268983
0.258409
0.247832
0.237246
0.226642
0.216009
0.205334
0.194598
0.183779
0.172846
0.161761
0.150467
0.138886
0.126894
0.114281
0.100662
0.0851682
0.0650729
0.0292073
0.0417107
0.0948961
0.126001
0.150859
0.17314
0.19402
0.213989
0.2333
0.2521
0.270487
0.28853
0.306281
0.323781
0.34106
0.358141
0.375043
0.391778
0.408353
0.424775
0.441045
0.457162
0.473125
0.48893
0.504573
0.520046
0.535344
0.550459
0.565383
0.58011
0.594631
0.608938
0.623024
0.636881
0.650502
0.663881
0.67701
0.689883
0.702495
0.71484
0.726913
0.73871
0.750227
0.76146
0.772406
0.783062
0.793425
0.803494
0.813267
0.822742
0.831919
0.840797
0.849375
0.857654
0.865633
0.873313
0.880695
0.887779
0.894567
0.90106
0.907258
0.913164
0.918779
0.924105
0.929143
0.933898
0.938372
0.94257
0.946494
0.950145
0.953527
0.956642
0.959494
0.962085
0.964417
0.966495
0.96832
0.969897
0.971227
0.972315
0.973164
0.973776
0.974155
0.974303
0.974225
0.973923
0.973401
0.972661
0.971707
0.970542
0.96917
0.967592
0.965813
0.963836
0.961663
0.959298
0.956743
0.954001
0.951077
0.947971
0.944688
0.94123
0.937599
0.933799
0.929832
0.9257
0.921407
0.916954
0.912345
0.907581
0.902664
0.897598
0.892383
0.887023
0.881518
0.875872
0.870086
0.864162
0.858101
0.851906
0.845577
0.839117
0.832527
0.825809
0.818964
0.811994
0.8049
0.797683
0.790344
0.782886
0.775309
0.767615
0.759805
0.751881
0.743844
0.735694
0.727435
0.719067
0.710592
0.702011
0.693326
0.684538
0.675651
0.666664
0.657581
0.648404
0.639133
0.629773
0.620324
0.61079
0.601173
0.591476
0.5817
0.57185
0.561928
0.551938
0.541881
0.531763
0.521585
0.511352
0.501067
0.490734
0.480357
0.469939
0.459484
0.448996
0.438479
0.427937
0.417374
0.406793
0.396198
0.385592
0.37498
0.364364
0.353747
0.343131
0.332519
0.321913
0.311313
0.300721
0.290136
0.279557
0.268982
0.258409
0.247832
0.237245
0.226641
0.216009
0.205333
0.194598
0.183778
0.172846
0.16176
0.150467
0.138886
0.126894
0.114281
0.100662
0.0851688
0.0650706
0.0291997
0.0482228
0.108884
0.14353
0.170722
0.194844
0.217323
0.238768
0.259483
0.279644
0.29936
0.318708
0.337741
0.356502
0.375022
0.393323
0.411424
0.429338
0.447074
0.464637
0.48203
0.499253
0.516305
0.533183
0.549882
0.566397
0.582721
0.598848
0.614771
0.630483
0.645974
0.661239
0.67627
0.691059
0.705598
0.719882
0.733903
0.747656
0.761134
0.774331
0.787243
0.799865
0.812192
0.824221
0.835948
0.84737
0.858484
0.869288
0.87978
0.889957
0.89982
0.909367
0.918597
0.927509
0.936105
0.944383
0.952345
0.959991
0.967322
0.974338
0.981042
0.987434
0.993516
0.99929
1.00476
1.00992
1.01478
1.01935
1.02362
1.0276
1.03129
1.0347
1.03782
1.04066
1.04323
1.04551
1.04753
1.04928
1.05077
1.05199
1.05295
1.05366
1.05412
1.05433
1.05429
1.05401
1.0535
1.05275
1.05176
1.05055
1.04912
1.04746
1.04559
1.04349
1.04119
1.03868
1.03597
1.03305
1.02993
1.02662
1.02311
1.01942
1.01553
1.01147
1.00722
1.00279
0.99819
0.993415
0.98847
0.983356
0.978078
0.972636
0.967033
0.961273
0.955355
0.949284
0.943061
0.936687
0.930166
0.923498
0.916686
0.909731
0.902635
0.895399
0.888026
0.880517
0.872874
0.865097
0.857189
0.849151
0.840984
0.832691
0.824272
0.815729
0.807063
0.798277
0.789372
0.780349
0.77121
0.761957
0.752592
0.743116
0.733532
0.723841
0.714046
0.70415
0.694153
0.68406
0.673871
0.663591
0.653221
0.642765
0.632226
0.621606
0.610909
0.600139
0.589298
0.57839
0.567419
0.556389
0.545304
0.534167
0.522982
0.511754
0.500486
0.489183
0.477849
0.466487
0.455102
0.443697
0.432278
0.420846
0.409406
0.39796
0.386512
0.375065
0.36362
0.35218
0.340745
0.329316
0.317894
0.306476
0.295062
0.283649
0.272232
0.260806
0.249363
0.237893
0.226383
0.214817
0.203172
0.191418
0.179515
0.167405
0.154999
0.142156
0.128634
0.113965
0.097116
0.074929
0.0339941
0.0482259
0.108886
0.143531
0.170722
0.194843
0.217322
0.238767
0.259482
0.279643
0.299359
0.318707
0.33774
0.356501
0.37502
0.393322
0.411423
0.429337
0.447073
0.464636
0.482029
0.499252
0.516304
0.533182
0.549881
0.566395
0.58272
0.598847
0.61477
0.630481
0.645973
0.661238
0.676268
0.691057
0.705597
0.719881
0.733902
0.747654
0.761132
0.774329
0.787241
0.799863
0.812191
0.824219
0.835946
0.847368
0.858482
0.869286
0.879778
0.889956
0.899818
0.909365
0.918595
0.927508
0.936103
0.944382
0.952343
0.959989
0.96732
0.974336
0.98104
0.987432
0.993514
0.999289
1.00476
1.00992
1.01478
1.01935
1.02362
1.0276
1.03129
1.0347
1.03782
1.04066
1.04322
1.04551
1.04753
1.04928
1.05076
1.05199
1.05295
1.05366
1.05412
1.05433
1.05429
1.05401
1.0535
1.05275
1.05176
1.05055
1.04912
1.04746
1.04558
1.04349
1.04119
1.03868
1.03596
1.03305
1.02993
1.02662
1.02311
1.01941
1.01553
1.01146
1.00722
1.00279
0.998189
0.993414
0.988468
0.983355
0.978076
0.972634
0.967032
0.961271
0.955354
0.949283
0.943059
0.936686
0.930164
0.923497
0.916684
0.909729
0.902633
0.895398
0.888025
0.880516
0.872872
0.865096
0.857188
0.84915
0.840983
0.83269
0.824271
0.815728
0.807062
0.798276
0.789371
0.780348
0.771209
0.761956
0.75259
0.743115
0.733531
0.72384
0.714045
0.704149
0.694152
0.684059
0.67387
0.66359
0.65322
0.642764
0.632225
0.621605
0.610908
0.600138
0.589297
0.578389
0.567419
0.556389
0.545303
0.534166
0.522981
0.511753
0.500485
0.489182
0.477848
0.466486
0.455101
0.443697
0.432277
0.420845
0.409405
0.397959
0.386512
0.375064
0.36362
0.352179
0.340744
0.329316
0.317893
0.306476
0.295062
0.283649
0.272232
0.260806
0.249363
0.237893
0.226383
0.214817
0.203171
0.191418
0.179515
0.167405
0.154999
0.142157
0.128634
0.113965
0.0971162
0.0749281
0.0339921
0.0545989
0.122399
0.160543
0.190071
0.21602
0.240061
0.262913
0.284941
0.306352
0.327273
0.347789
0.36796
0.387829
0.407431
0.426788
0.44592
0.464842
0.483562
0.502087
0.520421
0.538564
0.556518
0.574278
0.591842
0.609205
0.626363
0.643308
0.660035
0.676536
0.692806
0.708836
0.724621
0.740152
0.755423
0.770428
0.78516
0.799613
0.813782
0.82766
0.841243
0.854525
0.867503
0.880173
0.89253
0.904572
0.916294
0.927696
0.938774
0.949527
0.959953
0.970051
0.979819
0.989258
0.998366
1.00714
1.01559
1.02371
1.0315
1.03896
1.04609
1.0529
1.05938
1.06554
1.07138
1.0769
1.0821
1.08699
1.09157
1.09584
1.09981
1.10347
1.10684
1.10991
1.11268
1.11516
1.11736
1.11927
1.1209
1.12226
1.12334
1.12414
1.12469
1.12496
1.12498
1.12474
1.12425
1.1235
1.12251
1.12128
1.1198
1.1181
1.11615
1.11398
1.11158
1.10897
1.10613
1.10307
1.0998
1.09633
1.09265
1.08876
1.08468
1.08039
1.07592
1.07125
1.0664
1.06136
1.05614
1.05074
1.04516
1.03941
1.03348
1.02739
1.02113
1.0147
1.00811
1.00136
0.994451
0.987386
0.980166
0.972794
0.96527
0.957597
0.949777
0.941812
0.933702
0.92545
0.917058
0.908527
0.899858
0.891054
0.882116
0.873045
0.863843
0.854513
0.845055
0.835472
0.825766
0.815938
0.80599
0.795924
0.785743
0.775449
0.765044
0.754531
0.743911
0.733188
0.722365
0.711443
0.700427
0.689319
0.678123
0.666841
0.655478
0.644036
0.63252
0.620933
0.609279
0.597561
0.585785
0.573954
0.562073
0.550144
0.538174
0.526165
0.514122
0.502049
0.489951
0.477831
0.465693
0.45354
0.441377
0.429206
0.417031
0.404853
0.392675
0.3805
0.368327
0.356157
0.343991
0.331828
0.319667
0.307503
0.295335
0.283156
0.270959
0.258736
0.246473
0.234155
0.22176
0.209256
0.196601
0.183731
0.170548
0.156889
0.142476
0.126767
0.108566
0.0842759
0.0385152
0.054602
0.122401
0.160544
0.190072
0.21602
0.24006
0.262912
0.28494
0.306351
0.327272
0.347788
0.367959
0.387828
0.407429
0.426787
0.445919
0.464841
0.483561
0.502086
0.520419
0.538563
0.556516
0.574277
0.591841
0.609204
0.626361
0.643307
0.660033
0.676535
0.692804
0.708835
0.724619
0.74015
0.755422
0.770427
0.785159
0.799612
0.81378
0.827658
0.841241
0.854524
0.867502
0.880171
0.892529
0.90457
0.916293
0.927695
0.938773
0.949526
0.959951
0.970049
0.979818
0.989256
0.998365
1.00714
1.01559
1.02371
1.0315
1.03896
1.04609
1.0529
1.05938
1.06554
1.07138
1.0769
1.0821
1.08699
1.09157
1.09584
1.09981
1.10347
1.10684
1.1099
1.11268
1.11516
1.11736
1.11927
1.1209
1.12226
1.12333
1.12414
1.12468
1.12496
1.12498
1.12474
1.12424
1.1235
1.12251
1.12128
1.1198
1.11809
1.11615
1.11398
1.11158
1.10896
1.10613
1.10307
1.0998
1.09633
1.09265
1.08876
1.08468
1.08039
1.07592
1.07125
1.0664
1.06136
1.05614
1.05074
1.04516
1.03941
1.03348
1.02739
1.02113
1.0147
1.00811
1.00136
0.99445
0.987385
0.980165
0.972792
0.965269
0.957596
0.949776
0.941811
0.933701
0.925449
0.917057
0.908526
0.899857
0.891053
0.882115
0.873044
0.863842
0.854512
0.845055
0.835472
0.825765
0.815937
0.805989
0.795923
0.785743
0.775448
0.765043
0.75453
0.74391
0.733187
0.722364
0.711442
0.700426
0.689318
0.678122
0.66684
0.655477
0.644035
0.632519
0.620932
0.609278
0.597561
0.585785
0.573954
0.562072
0.550144
0.538173
0.526164
0.514121
0.502049
0.48995
0.47783
0.465692
0.45354
0.441377
0.429206
0.41703
0.404853
0.392675
0.380499
0.368326
0.356157
0.343991
0.331828
0.319666
0.307503
0.295335
0.283156
0.270959
0.258736
0.246473
0.234155
0.22176
0.209256
0.196601
0.183731
0.170548
0.156889
0.142476
0.126768
0.108566
0.084276
0.038515
0.0608227
0.135652
0.177276
0.209156
0.236945
0.262541
0.286776
0.310075
0.332677
0.354729
0.376329
0.397543
0.41842
0.438995
0.459295
0.47934
0.499146
0.518724
0.53808
0.557221
0.576148
0.594862
0.613363
0.631648
0.649714
0.667557
0.685172
0.702553
0.719696
0.736593
0.75324
0.769629
0.785755
0.801611
0.817192
0.832492
0.847504
0.862224
0.876646
0.890766
0.904578
0.918078
0.931263
0.944129
0.956672
0.968888
0.980776
0.992334
1.00356
1.01445
1.025
1.03521
1.04509
1.05462
1.06382
1.07268
1.08119
1.08937
1.09721
1.10471
1.11187
1.1187
1.12519
1.13135
1.13718
1.14268
1.14786
1.15271
1.15724
1.16145
1.16535
1.16893
1.1722
1.17517
1.17784
1.1802
1.18226
1.18403
1.18551
1.18671
1.18762
1.18824
1.18859
1.18867
1.18848
1.18802
1.18729
1.18631
1.18507
1.18358
1.18184
1.17985
1.17763
1.17516
1.17246
1.16953
1.16637
1.16299
1.15938
1.15556
1.15152
1.14728
1.14282
1.13816
1.1333
1.12824
1.12298
1.11753
1.11189
1.10606
1.10005
1.09385
1.08748
1.08092
1.0742
1.0673
1.06023
1.05299
1.04559
1.03802
1.03029
1.0224
1.01436
1.00615
0.997797
0.989288
0.980628
0.971819
0.962863
0.953762
0.944517
0.93513
0.925604
0.915939
0.906138
0.896203
0.886135
0.875937
0.86561
0.855157
0.844579
0.83388
0.823062
0.812126
0.801076
0.789915
0.778644
0.767268
0.755788
0.744209
0.732533
0.720763
0.708904
0.696959
0.684931
0.672824
0.660643
0.648391
0.636072
0.62369
0.611251
0.598757
0.586213
0.573624
0.560993
0.548325
0.535624
0.522895
0.51014
0.497364
0.484571
0.471763
0.458944
0.446117
0.433284
0.420446
0.407607
0.394766
0.381925
0.369083
0.35624
0.343395
0.330543
0.317684
0.30481
0.291916
0.278993
0.266029
0.253007
0.239905
0.22669
0.213315
0.199711
0.185765
0.171297
0.155991
0.139237
0.119668
0.093269
0.0428171
0.060826
0.135654
0.177277
0.209156
0.236944
0.26254
0.286776
0.310074
0.332675
0.354728
0.376328
0.397542
0.418419
0.438994
0.459294
0.479339
0.499145
0.518722
0.538079
0.557219
0.576146
0.594861
0.613362
0.631647
0.649713
0.667556
0.685171
0.702552
0.719694
0.736592
0.753238
0.769628
0.785754
0.80161
0.817191
0.83249
0.847503
0.862223
0.876645
0.890764
0.904576
0.918077
0.931262
0.944127
0.95667
0.968887
0.980775
0.992332
1.00356
1.01444
1.025
1.03521
1.04509
1.05462
1.06382
1.07268
1.08119
1.08937
1.09721
1.10471
1.11187
1.1187
1.12519
1.13135
1.13718
1.14268
1.14786
1.15271
1.15724
1.16145
1.16534
1.16893
1.1722
1.17517
1.17783
1.1802
1.18226
1.18403
1.18551
1.18671
1.18761
1.18824
1.18859
1.18867
1.18847
1.18801
1.18729
1.18631
1.18507
1.18358
1.18184
1.17985
1.17763
1.17516
1.17246
1.16953
1.16637
1.16299
1.15938
1.15556
1.15152
1.14728
1.14282
1.13816
1.1333
1.12823
1.12298
1.11753
1.11189
1.10606
1.10005
1.09385
1.08748
1.08092
1.0742
1.0673
1.06023
1.05299
1.04559
1.03802
1.03029
1.0224
1.01436
1.00615
0.997796
0.989287
0.980627
0.971818
0.962862
0.953761
0.944516
0.93513
0.925603
0.915938
0.906137
0.896202
0.886134
0.875936
0.865609
0.855156
0.844579
0.83388
0.823061
0.812126
0.801076
0.789914
0.778644
0.767267
0.755788
0.744208
0.732532
0.720763
0.708903
0.696958
0.68493
0.672824
0.660642
0.64839
0.636071
0.62369
0.61125
0.598756
0.586212
0.573623
0.560992
0.548325
0.535624
0.522894
0.51014
0.497364
0.48457
0.471763
0.458944
0.446116
0.433283
0.420446
0.407607
0.394766
0.381925
0.369083
0.35624
0.343394
0.330543
0.317683
0.30481
0.291916
0.278993
0.266029
0.253007
0.239905
0.22669
0.213316
0.199711
0.185765
0.171297
0.155991
0.139237
0.119669
0.0932695
0.0428173
0.0669738
0.148779
0.193887
0.228143
0.257794
0.284959
0.310576
0.335126
0.358887
0.382027
0.404657
0.426851
0.448665
0.470137
0.491297
0.512168
0.532767
0.553106
0.573194
0.593039
0.612644
0.632011
0.651141
0.670034
0.688687
0.707098
0.725264
0.743181
0.760844
0.778249
0.795391
0.812264
0.828864
0.845186
0.861223
0.876972
0.892427
0.907583
0.922436
0.936981
0.951213
0.965129
0.978724
0.991996
1.00494
1.01755
1.02983
1.04178
1.05338
1.06465
1.07557
1.08616
1.09639
1.10628
1.11583
1.12503
1.13388
1.14238
1.15054
1.15835
1.16582
1.17294
1.17972
1.18616
1.19226
1.19802
1.20344
1.20853
1.21329
1.21772
1.22183
1.22561
1.22907
1.23221
1.23504
1.23756
1.23977
1.24167
1.24327
1.24457
1.24558
1.24629
1.24672
1.24686
1.24672
1.2463
1.24561
1.24464
1.24341
1.24192
1.24016
1.23815
1.23589
1.23337
1.23062
1.22762
1.22438
1.2209
1.2172
1.21327
1.20911
1.20473
1.20013
1.19532
1.1903
1.18507
1.17963
1.17399
1.16815
1.16211
1.15588
1.14946
1.14285
1.13605
1.12907
1.12191
1.11456
1.10705
1.09935
1.09149
1.08346
1.07525
1.06688
1.05835
1.04966
1.0408
1.03179
1.02262
1.0133
1.00382