/*--------------------------------*- C++ -*----------------------------------*\
  =========                 |
  \\      /  F ield         | OpenFOAM: The Open Source CFD Toolbox
   \\    /   O peration     | Website:  https://openfoam.org
    \\  /    A nd           | Version:  8
     \\/     M anipulation  |
\*---------------------------------------------------------------------------*/
FoamFile
{
    version     2.0;
    format      ascii;
    class       volVectorField;
    location    "1200";
    object      U;
}
// * * * * * * * * * * * * * * * * * * * * * * * * * * * * * * * * * * * * * //

dimensions      [0 1 -1 0 0 0 0];

internalField   nonuniform List<vector> 
48000
(
(-0.00667396 -3.58212e-06 0.00755458)
(-0.011158 -2.0044e-06 0.00602011)
(-0.0157208 -2.78148e-06 0.00227177)
(-0.0147143 -2.92034e-06 -0.00188706)
(-0.0108842 -2.49848e-06 -0.00412897)
(-0.0053185 -2.26839e-06 -0.00547037)
(0.00143997 -2.07245e-06 -0.00623211)
(0.00878809 -1.8366e-06 -0.00658451)
(0.016457 -1.63267e-06 -0.00670586)
(0.0242672 -1.50151e-06 -0.00669818)
(0.0320868 -1.40056e-06 -0.00661216)
(0.039839 -1.30478e-06 -0.00647863)
(0.0474728 -1.21672e-06 -0.00631664)
(0.0549554 -1.13612e-06 -0.00613809)
(0.062265 -1.06091e-06 -0.00595043)
(0.0693878 -9.9382e-07 -0.00575832)
(0.0763146 -9.32156e-07 -0.00556464)
(0.0830397 -8.65063e-07 -0.00537113)
(0.0895593 -7.87454e-07 -0.00517884)
(0.0958711 -7.08559e-07 -0.00498834)
(0.101974 -6.40926e-07 -0.00479998)
(0.107867 -5.87182e-07 -0.00461392)
(0.11355 -5.41543e-07 -0.00443024)
(0.119024 -5.00915e-07 -0.00424899)
(0.124289 -4.68984e-07 -0.00407022)
(0.129346 -4.49098e-07 -0.00389398)
(0.134197 -4.36751e-07 -0.00372033)
(0.138842 -4.2194e-07 -0.00354934)
(0.143284 -3.97657e-07 -0.00338112)
(0.147524 -3.65421e-07 -0.00321578)
(0.151566 -3.32461e-07 -0.00305344)
(0.155412 -3.0423e-07 -0.00289424)
(0.159064 -2.80122e-07 -0.00273833)
(0.162527 -2.55467e-07 -0.00258585)
(0.165803 -2.27e-07 -0.00243694)
(0.168896 -1.96766e-07 -0.00229173)
(0.171811 -1.71017e-07 -0.00215035)
(0.174552 -1.55229e-07 -0.00201291)
(0.177123 -1.49994e-07 -0.0018795)
(0.179528 -1.50256e-07 -0.0017502)
(0.181773 -1.48722e-07 -0.00162508)
(0.183862 -1.40521e-07 -0.00150415)
(0.185801 -1.257e-07 -0.00138744)
(0.187594 -1.0835e-07 -0.00127495)
(0.189246 -9.3395e-08 -0.00116665)
(0.190763 -8.34162e-08 -0.00106254)
(0.19215 -7.75036e-08 -0.000962548)
(0.19341 -7.25237e-08 -0.000866632)
(0.194551 -6.5545e-08 -0.000774718)
(0.195575 -5.59394e-08 -0.000686723)
(0.196489 -4.55875e-08 -0.000602561)
(0.197296 -3.76875e-08 -0.000522137)
(0.198002 -3.47254e-08 -0.000445353)
(0.19861 -3.70365e-08 -0.000372105)
(0.199126 -4.26484e-08 -0.000302283)
(0.199552 -4.83364e-08 -0.000235774)
(0.199895 -5.115e-08 -0.000172457)
(0.200156 -4.98136e-08 -0.000112212)
(0.200341 -4.51536e-08 -5.49175e-05)
(0.200453 -3.95341e-08 -4.43027e-07)
(0.200495 -3.57764e-08 5.146e-05)
(0.20047 -3.59249e-08 0.000100832)
(0.200382 -4.0524e-08 0.000147594)
(0.200235 -4.83784e-08 0.000191889)
(0.20003 -5.73558e-08 0.000233873)
(0.199771 -6.49932e-08 0.000273679)
(0.199461 -6.95047e-08 0.000311421)
(0.199102 -7.03728e-08 0.000347205)
(0.198697 -6.82598e-08 0.000381132)
(0.198247 -6.48447e-08 0.000413296)
(0.197756 -6.20159e-08 0.000443787)
(0.197225 -6.14563e-08 0.000472691)
(0.196657 -6.40071e-08 0.000500091)
(0.196052 -6.95962e-08 0.000526068)
(0.195413 -7.72944e-08 0.000550697)
(0.194742 -8.56018e-08 0.000574054)
(0.19404 -9.2885e-08 0.000596211)
(0.193309 -9.77621e-08 0.000617236)
(0.19255 -9.93725e-08 0.000637198)
(0.191765 -9.75337e-08 0.000656159)
(0.190954 -9.2649e-08 0.000674179)
(0.19012 -8.56475e-08 0.000691318)
(0.189262 -7.76637e-08 0.000707628)
(0.188383 -6.98246e-08 0.000723162)
(0.187482 -6.3101e-08 0.000737968)
(0.186562 -5.81212e-08 0.000752091)
(0.185623 -5.51249e-08 0.000765576)
(0.184665 -5.40056e-08 0.000778464)
(0.183689 -5.44129e-08 0.000790792)
(0.182697 -5.57874e-08 0.000802598)
(0.181689 -5.75349e-08 0.000813916)
(0.180665 -5.9054e-08 0.000824778)
(0.179626 -5.98839e-08 0.000835214)
(0.178573 -5.96631e-08 0.000845252)
(0.177506 -5.82011e-08 0.000854921)
(0.176426 -5.5498e-08 0.000864244)
(0.175333 -5.16755e-08 0.000873245)
(0.174227 -4.69812e-08 0.000881947)
(0.173109 -4.18186e-08 0.000890373)
(0.17198 -3.65456e-08 0.000898542)
(0.170839 -3.16305e-08 0.000906476)
(0.169687 -2.74311e-08 0.000914196)
(0.168524 -2.42825e-08 0.00092172)
(0.167351 -2.2436e-08 0.000929071)
(0.166167 -2.2021e-08 0.000936268)
(0.164973 -2.30299e-08 0.000943332)
(0.163769 -2.53524e-08 0.000950284)
(0.162555 -2.87751e-08 0.000957147)
(0.161332 -3.29706e-08 0.000963943)
(0.160098 -3.76497e-08 0.000970695)
(0.158856 -4.24621e-08 0.000977427)
(0.157603 -4.71488e-08 0.000984162)
(0.156341 -5.14738e-08 0.000990927)
(0.15507 -5.52353e-08 0.000997746)
(0.153789 -5.83039e-08 0.00100464)
(0.152498 -6.05731e-08 0.00101165)
(0.151198 -6.18675e-08 0.00101879)
(0.149887 -6.21112e-08 0.0010261)
(0.148566 -6.12317e-08 0.00103359)
(0.147235 -5.91377e-08 0.0010413)
(0.145893 -5.59168e-08 0.00104925)
(0.14454 -5.1786e-08 0.00105748)
(0.143176 -4.71221e-08 0.00106601)
(0.141799 -4.25763e-08 0.00107488)
(0.140411 -3.87919e-08 0.00108411)
(0.13901 -3.64162e-08 0.00109373)
(0.137595 -3.59821e-08 0.00110376)
(0.136167 -3.76193e-08 0.00111426)
(0.134725 -4.1042e-08 0.00112523)
(0.133267 -4.55726e-08 0.00113671)
(0.131795 -5.01603e-08 0.00114873)
(0.130306 -5.37162e-08 0.00116131)
(0.1288 -5.53381e-08 0.00117449)
(0.127276 -5.44853e-08 0.00118827)
(0.125735 -5.13101e-08 0.0012027)
(0.124174 -4.65129e-08 0.00121779)
(0.122593 -4.10876e-08 0.00123357)
(0.120991 -3.61306e-08 0.00125006)
(0.119368 -3.23919e-08 0.00126729)
(0.117722 -3.01e-08 0.00128528)
(0.116053 -2.89921e-08 0.00130407)
(0.11436 -2.84781e-08 0.00132368)
(0.112641 -2.80212e-08 0.00134413)
(0.110895 -2.73626e-08 0.00136545)
(0.109122 -2.67458e-08 0.00138767)
(0.107321 -2.65364e-08 0.00141081)
(0.10549 -2.71227e-08 0.00143491)
(0.103628 -2.84857e-08 0.00146)
(0.101734 -3.01038e-08 0.0014861)
(0.0998073 -3.13107e-08 0.00151327)
(0.0978463 -3.16076e-08 0.00154154)
(0.0958497 -3.11279e-08 0.00157093)
(0.0938162 -3.05721e-08 0.0016015)
(0.0917447 -3.06216e-08 0.00163327)
(0.0896336 -3.14592e-08 0.00166629)
(0.0874816 -3.23577e-08 0.0017006)
(0.0852874 -3.19465e-08 0.00173623)
(0.0830494 -2.93461e-08 0.00177324)
(0.0807661 -2.49145e-08 0.00181166)
(0.0784362 -2.03154e-08 0.00185151)
(0.076058 -1.76656e-08 0.00189282)
(0.0736301 -1.75437e-08 0.00193559)
(0.071151 -1.84575e-08 0.00197985)
(0.0686192 -1.77036e-08 0.00202559)
(0.0660334 -1.3668e-08 0.00207279)
(0.0633923 -7.78198e-09 0.00212141)
(0.0606947 -4.04328e-09 0.00217139)
(0.0579394 -5.60425e-09 0.00222263)
(0.0551255 -1.14369e-08 0.00227499)
(0.0522526 -1.59828e-08 0.0023283)
(0.0493201 -1.42238e-08 0.00238233)
(0.0463282 -6.67789e-09 0.00243681)
(0.0432774 -8.37588e-11 0.00249135)
(0.0401685 -1.11933e-09 0.00254551)
(0.0370034 -8.57389e-09 0.0025987)
(0.0337846 -1.33558e-08 0.00265025)
(0.0305154 -8.56628e-09 0.00269929)
(0.0272006 1.45436e-09 0.00274481)
(0.0238461 4.75904e-09 0.00278553)
(0.0204595 -3.03056e-09 0.00281992)
(0.0170505 -1.14902e-08 0.0028461)
(0.013631 -7.99519e-09 0.00286178)
(0.0102162 3.31991e-09 0.00286411)
(0.0068235 5.83269e-09 0.0028495)
(0.00347962 -4.72859e-09 0.00281322)
(0.000205696 -1.2541e-08 0.00274395)
(-0.0029594 -6.3657e-09 0.00262773)
(-0.005958 3.22092e-09 0.0024628)
(-0.00875139 6.98247e-09 0.00224812)
(-0.0112691 7.40888e-09 0.00197221)
(-0.0134342 -1.09039e-08 0.00161733)
(-0.0151479 -6.08548e-08 0.00116341)
(-0.0162894 -8.98811e-08 0.000586973)
(-0.0167203 -4.45139e-08 -0.00013897)
(-0.0162374 1.90966e-08 -0.00102967)
(-0.0148663 4.61542e-08 -0.00211113)
(-0.0117487 3.8246e-08 -0.00367938)
(-0.00823129 1.59873e-09 -0.00389227)
(-0.00422516 -1.31891e-07 -0.00297964)
(-0.00162748 -3.80153e-07 -0.00177287)
(-0.00667377 -3.57805e-06 0.00755367)
(-0.0111581 -2.00372e-06 0.00601785)
(-0.0157195 -2.7805e-06 0.00226966)
(-0.0147126 -2.92015e-06 -0.00188945)
(-0.0108824 -2.49835e-06 -0.00413093)
(-0.00531677 -2.26828e-06 -0.005472)
(0.00144166 -2.07234e-06 -0.00623352)
(0.00878959 -1.83651e-06 -0.00658577)
(0.0164582 -1.6326e-06 -0.00670699)
(0.0242683 -1.50145e-06 -0.00669919)
(0.0320876 -1.4005e-06 -0.00661305)
(0.0398397 -1.30473e-06 -0.00647943)
(0.0474734 -1.21668e-06 -0.00631737)
(0.0549558 -1.13609e-06 -0.00613876)
(0.0622654 -1.06088e-06 -0.00595104)
(0.0693881 -9.93797e-07 -0.00575887)
(0.0763148 -9.32136e-07 -0.00556512)
(0.0830398 -8.65045e-07 -0.00537155)
(0.0895594 -7.87439e-07 -0.00517919)
(0.0958712 -7.08546e-07 -0.00498865)
(0.101974 -6.40915e-07 -0.00480024)
(0.107867 -5.87172e-07 -0.00461414)
(0.11355 -5.41535e-07 -0.00443043)
(0.119024 -5.00909e-07 -0.00424915)
(0.124289 -4.68977e-07 -0.00407036)
(0.129346 -4.49092e-07 -0.0038941)
(0.134196 -4.36746e-07 -0.00372043)
(0.138842 -4.21936e-07 -0.00354942)
(0.143283 -3.97653e-07 -0.00338118)
(0.147524 -3.65417e-07 -0.00321581)
(0.151566 -3.32458e-07 -0.00305345)
(0.155411 -3.04227e-07 -0.00289423)
(0.159064 -2.8012e-07 -0.00273831)
(0.162527 -2.55464e-07 -0.00258582)
(0.165803 -2.26998e-07 -0.0024369)
(0.168896 -1.96765e-07 -0.00229168)
(0.171811 -1.71016e-07 -0.00215029)
(0.174552 -1.55228e-07 -0.00201285)
(0.177122 -1.49993e-07 -0.00187945)
(0.179528 -1.50255e-07 -0.00175015)
(0.181772 -1.48721e-07 -0.00162503)
(0.183862 -1.4052e-07 -0.0015041)
(0.1858 -1.25699e-07 -0.00138739)
(0.187593 -1.08349e-07 -0.00127489)
(0.189246 -9.33945e-08 -0.0011666)
(0.190763 -8.34158e-08 -0.00106248)
(0.192149 -7.75032e-08 -0.00096249)
(0.19341 -7.25234e-08 -0.000866574)
(0.19455 -6.55447e-08 -0.000774659)
(0.195575 -5.59391e-08 -0.000686664)
(0.196488 -4.55873e-08 -0.000602503)
(0.197296 -3.76873e-08 -0.000522082)
(0.198001 -3.47253e-08 -0.000445302)
(0.19861 -3.70363e-08 -0.000372058)
(0.199125 -4.26482e-08 -0.00030224)
(0.199552 -4.83362e-08 -0.000235734)
(0.199894 -5.11498e-08 -0.000172419)
(0.200156 -4.98134e-08 -0.000112175)
(0.200341 -4.51534e-08 -5.48791e-05)
(0.200452 -3.9534e-08 -4.02878e-07)
(0.200494 -3.57762e-08 5.15021e-05)
(0.20047 -3.59247e-08 0.000100876)
(0.200382 -4.05239e-08 0.00014764)
(0.200234 -4.83782e-08 0.000191936)
(0.20003 -5.73557e-08 0.000233921)
(0.199771 -6.4993e-08 0.000273728)
(0.199461 -6.95045e-08 0.00031147)
(0.199102 -7.03726e-08 0.000347255)
(0.198696 -6.82596e-08 0.000381183)
(0.198247 -6.48445e-08 0.000413349)
(0.197756 -6.20158e-08 0.000443842)
(0.197225 -6.14561e-08 0.00047275)
(0.196656 -6.40069e-08 0.000500155)
(0.196052 -6.9596e-08 0.000526135)
(0.195413 -7.72942e-08 0.000550769)
(0.194742 -8.56015e-08 0.00057413)
(0.19404 -9.28848e-08 0.00059629)
(0.193309 -9.77618e-08 0.000617319)
(0.19255 -9.93723e-08 0.000637282)
(0.191765 -9.75334e-08 0.000656245)
(0.190954 -9.26487e-08 0.000674267)
(0.19012 -8.56472e-08 0.000691406)
(0.189262 -7.76635e-08 0.000707717)
(0.188383 -6.98244e-08 0.000723251)
(0.187482 -6.31009e-08 0.000738057)
(0.186562 -5.8121e-08 0.000752181)
(0.185622 -5.51247e-08 0.000765666)
(0.184665 -5.40054e-08 0.000778554)
(0.183689 -5.44128e-08 0.000790883)
(0.182697 -5.57872e-08 0.000802689)
(0.181689 -5.75347e-08 0.000814007)
(0.180665 -5.90538e-08 0.000824869)
(0.179626 -5.98838e-08 0.000835306)
(0.178573 -5.9663e-08 0.000845346)
(0.177506 -5.8201e-08 0.000855016)
(0.176426 -5.54979e-08 0.000864341)
(0.175333 -5.16754e-08 0.000873345)
(0.174227 -4.69811e-08 0.000882051)
(0.173109 -4.18185e-08 0.000890479)
(0.17198 -3.65455e-08 0.000898651)
(0.170839 -3.16304e-08 0.000906587)
(0.169687 -2.7431e-08 0.000914306)
(0.168524 -2.42825e-08 0.00092183)
(0.167351 -2.2436e-08 0.000929178)
(0.166167 -2.2021e-08 0.000936371)
(0.164973 -2.30299e-08 0.00094343)
(0.163769 -2.53523e-08 0.000950377)
(0.162555 -2.8775e-08 0.000957236)
(0.161331 -3.29705e-08 0.000964027)
(0.160098 -3.76496e-08 0.000970776)
(0.158855 -4.24619e-08 0.000977506)
(0.157603 -4.71486e-08 0.000984241)
(0.156341 -5.14736e-08 0.000991007)
(0.15507 -5.52352e-08 0.000997829)
(0.153789 -5.83038e-08 0.00100473)
(0.152498 -6.05729e-08 0.00101174)
(0.151197 -6.18674e-08 0.00101889)
(0.149887 -6.2111e-08 0.0010262)
(0.148566 -6.12316e-08 0.00103369)
(0.147235 -5.91376e-08 0.0010414)
(0.145893 -5.59167e-08 0.00104936)
(0.14454 -5.17858e-08 0.00105759)
(0.143176 -4.7122e-08 0.00106612)
(0.141799 -4.25762e-08 0.00107499)
(0.140411 -3.87918e-08 0.00108422)
(0.13901 -3.64161e-08 0.00109383)
(0.137595 -3.59821e-08 0.00110387)
(0.136167 -3.76192e-08 0.00111436)
(0.134725 -4.10419e-08 0.00112533)
(0.133267 -4.55725e-08 0.00113681)
(0.131795 -5.01602e-08 0.00114883)
(0.130306 -5.37161e-08 0.00116141)
(0.1288 -5.5338e-08 0.00117458)
(0.127276 -5.44852e-08 0.00118837)
(0.125735 -5.13099e-08 0.00120279)
(0.124174 -4.65128e-08 0.00121788)
(0.122593 -4.10875e-08 0.00123366)
(0.120991 -3.61305e-08 0.00125016)
(0.119368 -3.23918e-08 0.00126739)
(0.117722 -3.00999e-08 0.00128539)
(0.116053 -2.8992e-08 0.00130418)
(0.11436 -2.8478e-08 0.00132378)
(0.112641 -2.80212e-08 0.00134423)
(0.110895 -2.73625e-08 0.00136555)
(0.109122 -2.67457e-08 0.00138777)
(0.107321 -2.65363e-08 0.00141091)
(0.10549 -2.71227e-08 0.001435)
(0.103628 -2.84856e-08 0.00146009)
(0.101734 -3.01037e-08 0.0014862)
(0.0998073 -3.13106e-08 0.00151337)
(0.0978462 -3.16076e-08 0.00154164)
(0.0958497 -3.11278e-08 0.00157104)
(0.0938162 -3.0572e-08 0.00160161)
(0.0917447 -3.06215e-08 0.00163338)
(0.0896336 -3.14591e-08 0.0016664)
(0.0874816 -3.23576e-08 0.00170071)
(0.0852874 -3.19464e-08 0.00173636)
(0.0830494 -2.93461e-08 0.00177337)
(0.0807662 -2.49145e-08 0.00181179)
(0.0784362 -2.03153e-08 0.00185164)
(0.076058 -1.76655e-08 0.00189295)
(0.0736301 -1.75437e-08 0.00193573)
(0.071151 -1.84574e-08 0.00197999)
(0.0686193 -1.77036e-08 0.00202573)
(0.0660335 -1.36679e-08 0.00207293)
(0.0633924 -7.78196e-09 0.00212156)
(0.0606947 -4.04327e-09 0.00217155)
(0.0579394 -5.60423e-09 0.00222278)
(0.0551256 -1.14369e-08 0.00227514)
(0.0522526 -1.59827e-08 0.00232845)
(0.0493202 -1.42238e-08 0.00238249)
(0.0463283 -6.67787e-09 0.00243697)
(0.0432774 -8.37585e-11 0.00249152)
(0.0401686 -1.11932e-09 0.00254568)
(0.0370035 -8.57386e-09 0.00259887)
(0.0337847 -1.33557e-08 0.00265042)
(0.0305155 -8.56624e-09 0.00269947)
(0.0272007 1.45436e-09 0.00274499)
(0.0238462 4.75903e-09 0.00278572)
(0.0204596 -3.03055e-09 0.00282011)
(0.0170506 -1.14902e-08 0.00284629)
(0.0136311 -7.99516e-09 0.00286198)
(0.0102163 3.3199e-09 0.00286432)
(0.00682361 5.83266e-09 0.00284972)
(0.00347974 -4.72856e-09 0.00281345)
(0.000205801 -1.2541e-08 0.00274417)
(-0.0029593 -6.36567e-09 0.00262794)
(-0.00595789 3.22091e-09 0.00246302)
(-0.00875127 6.98244e-09 0.00224835)
(-0.011269 7.40885e-09 0.00197245)
(-0.0134341 -1.09039e-08 0.0016176)
(-0.0151478 -6.08546e-08 0.00116372)
(-0.0162892 -8.98809e-08 0.000587227)
(-0.0167202 -4.45143e-08 -0.000138791)
(-0.0162373 1.90975e-08 -0.00102945)
(-0.0148663 4.61635e-08 -0.00211089)
(-0.0117485 3.82641e-08 -0.00367919)
(-0.00823138 1.59934e-09 -0.00389177)
(-0.00422486 -1.31904e-07 -0.00297904)
(-0.00162711 -3.80166e-07 -0.0017731)
(-0.00373689 -1.72386e-06 0.0125676)
(-0.00470732 -9.27969e-07 0.00699241)
(-0.0032711 -6.66031e-07 0.000785612)
(-0.000113032 -4.92992e-07 -0.00451307)
(0.0039838 -3.93879e-07 -0.00815357)
(0.00896365 -3.35325e-07 -0.0105105)
(0.014592 -2.96635e-07 -0.0119591)
(0.0206663 -2.65646e-07 -0.012782)
(0.0270345 -2.41742e-07 -0.0132007)
(0.0335736 -2.23188e-07 -0.0133578)
(0.0401919 -2.07407e-07 -0.0133427)
(0.0468232 -1.94414e-07 -0.0132139)
(0.0534188 -1.82614e-07 -0.0130093)
(0.0599432 -1.70745e-07 -0.0127541)
(0.0663706 -1.60288e-07 -0.0124648)
(0.0726815 -1.51628e-07 -0.0121525)
(0.0788616 -1.41565e-07 -0.0118247)
(0.0849 -1.27614e-07 -0.0114864)
(0.0907884 -1.11755e-07 -0.011141)
(0.0965203 -9.81506e-08 -0.0107909)
(0.102091 -8.83334e-08 -0.0104378)
(0.107496 -8.06321e-08 -0.0100828)
(0.112733 -7.34324e-08 -0.00972697)
(0.117798 -6.74331e-08 -0.00937096)
(0.122692 -6.40826e-08 -0.00901546)
(0.127412 -6.29528e-08 -0.0086611)
(0.131957 -6.14203e-08 -0.00830845)
(0.136328 -5.69772e-08 -0.00795808)
(0.140525 -4.95434e-08 -0.00761056)
(0.144548 -4.12949e-08 -0.00726647)
(0.148398 -3.4498e-08 -0.00692637)
(0.152077 -2.96009e-08 -0.00659081)
(0.155587 -2.52625e-08 -0.00626034)
(0.158929 -2.00151e-08 -0.00593545)
(0.162106 -1.38026e-08 -0.00561665)
(0.16512 -8.13739e-09 -0.00530438)
(0.167975 -4.87363e-09 -0.00499905)
(0.170673 -4.64521e-09 -0.00470104)
(0.173218 -6.3547e-09 -0.00441067)
(0.175615 -7.90429e-09 -0.00412822)
(0.177865 -7.56736e-09 -0.0038539)
(0.179974 -5.01747e-09 -0.00358791)
(0.181945 -1.31302e-09 -0.00333036)
(0.183783 1.95359e-09 -0.00308135)
(0.185491 3.703e-09 -0.00284093)
(0.187075 3.91047e-09 -0.0026091)
(0.188537 3.42598e-09 -0.00238582)
(0.189883 3.28318e-09 -0.00217104)
(0.191116 3.97799e-09 -0.00196466)
(0.192241 5.23626e-09 -0.00176654)
(0.193261 6.24897e-09 -0.00157655)
(0.194181 6.22135e-09 -0.00139452)
(0.195005 4.88118e-09 -0.00122027)
(0.195737 2.63202e-09 -0.00105358)
(0.19638 3.21958e-10 -0.000894261)
(0.196939 -1.16669e-09 -0.000742072)
(0.197416 -1.36088e-09 -0.000596785)
(0.197815 -3.68151e-10 -0.000458159)
(0.19814 1.20423e-09 -0.000325945)
(0.198394 2.5596e-09 -0.000199882)
(0.19858 3.04786e-09 -7.96943e-05)
(0.198701 2.42061e-09 3.48288e-05)
(0.19876 9.11022e-10 0.000143824)
(0.198759 -8.95526e-10 0.000247483)
(0.198702 -2.31469e-09 0.000346062)
(0.198591 -2.8182e-09 0.000439816)
(0.198429 -2.21e-09 0.000528982)
(0.198217 -6.53801e-10 0.000613782)
(0.197958 1.41543e-09 0.000694429)
(0.197655 3.42755e-09 0.000771127)
(0.197308 4.91141e-09 0.000844073)
(0.196921 5.58053e-09 0.000913453)
(0.196496 5.42252e-09 0.00097945)
(0.196032 4.66392e-09 0.00104224)
(0.195534 3.68165e-09 0.00110199)
(0.195001 2.90592e-09 0.00115886)
(0.194436 2.67558e-09 0.001213)
(0.193841 3.20002e-09 0.00126458)
(0.193215 4.49734e-09 0.00131373)
(0.192561 6.43522e-09 0.00136059)
(0.19188 8.73098e-09 0.0014053)
(0.191173 1.10715e-08 0.00144797)
(0.19044 1.31426e-08 0.00148874)
(0.189684 1.47179e-08 0.0015277)
(0.188905 1.5662e-08 0.00156498)
(0.188104 1.596e-08 0.00160067)
(0.187281 1.56934e-08 0.00163487)
(0.186438 1.50091e-08 0.00166767)
(0.185575 1.40954e-08 0.00169916)
(0.184694 1.31312e-08 0.00172942)
(0.183794 1.22955e-08 0.00175853)
(0.182876 1.16996e-08 0.00178655)
(0.181941 1.14236e-08 0.00181357)
(0.180989 1.14731e-08 0.00183964)
(0.180021 1.18167e-08 0.00186482)
(0.179038 1.23869e-08 0.00188918)
(0.178039 1.30769e-08 0.00191276)
(0.177026 1.37622e-08 0.00193563)
(0.175998 1.43304e-08 0.00195782)
(0.174957 1.46855e-08 0.00197938)
(0.173901 1.47331e-08 0.00200038)
(0.172833 1.44456e-08 0.00202084)
(0.171751 1.37993e-08 0.00204082)
(0.170657 1.28313e-08 0.00206037)
(0.16955 1.1594e-08 0.00207953)
(0.16843 1.01844e-08 0.00209836)
(0.167298 8.70525e-09 0.0021169)
(0.166155 7.26992e-09 0.0021352)
(0.164999 5.97927e-09 0.00215333)
(0.163832 4.90372e-09 0.00217132)
(0.162652 4.11467e-09 0.00218924)
(0.161461 3.61878e-09 0.00220714)
(0.160259 3.41414e-09 0.00222508)
(0.159044 3.47982e-09 0.0022431)
(0.157818 3.76821e-09 0.00226127)
(0.15658 4.25554e-09 0.00227965)
(0.15533 4.89896e-09 0.00229829)
(0.154068 5.67373e-09 0.00231725)
(0.152793 6.55701e-09 0.0023366)
(0.151506 7.52595e-09 0.00235639)
(0.150206 8.52535e-09 0.00237669)
(0.148893 9.48763e-09 0.00239755)
(0.147566 1.03119e-08 0.00241906)
(0.146226 1.08849e-08 0.00244126)
(0.144872 1.11019e-08 0.00246422)
(0.143503 1.08906e-08 0.00248801)
(0.142119 1.02453e-08 0.00251269)
(0.140719 9.24777e-09 0.00253832)
(0.139303 8.08276e-09 0.00256496)
(0.137871 6.98818e-09 0.00259268)
(0.136421 6.2077e-09 0.00262153)
(0.134954 5.95071e-09 0.00265156)
(0.133468 6.30669e-09 0.00268284)
(0.131963 7.2109e-09 0.00271541)
(0.130438 8.46063e-09 0.00274932)
(0.128892 9.74652e-09 0.00278462)
(0.127325 1.07583e-08 0.00282136)
(0.125736 1.12799e-08 0.00285959)
(0.124125 1.12256e-08 0.00289936)
(0.122489 1.06993e-08 0.00294071)
(0.120829 9.90833e-09 0.00298369)
(0.119143 9.105e-09 0.00302836)
(0.117431 8.43017e-09 0.00307475)
(0.115692 7.92857e-09 0.00312292)
(0.113924 7.50882e-09 0.00317291)
(0.112127 7.04338e-09 0.00322479)
(0.1103 6.45802e-09 0.00327859)
(0.108442 5.7908e-09 0.00333438)
(0.106552 5.2083e-09 0.0033922)
(0.104628 4.85137e-09 0.00345212)
(0.10267 4.75333e-09 0.00351418)
(0.100677 4.78665e-09 0.00357845)
(0.0986466 4.7381e-09 0.00364497)
(0.0965787 4.45542e-09 0.00371381)
(0.094472 4.0252e-09 0.003785)
(0.0923253 3.7349e-09 0.0038586)
(0.0901374 3.87481e-09 0.00393465)
(0.0879071 4.49539e-09 0.00401319)
(0.0856333 5.2616e-09 0.00409424)
(0.0833148 5.6309e-09 0.0041778)
(0.0809505 5.25018e-09 0.00426387)
(0.0785392 4.32407e-09 0.00435242)
(0.0760799 3.54549e-09 0.00444339)
(0.0735718 3.53026e-09 0.00453669)
(0.0710138 4.23365e-09 0.00463219)
(0.0684053 4.74001e-09 0.00472972)
(0.0657455 3.98332e-09 0.00482902)
(0.0630342 1.86269e-09 0.00492979)
(0.060271 -4.54013e-10 0.00503165)
(0.0574561 -1.26781e-09 0.00513409)
(0.0545899 -1.40868e-10 0.00523652)
(0.0516732 1.44104e-09 0.0053382)
(0.0487072 1.30588e-09 0.00543823)
(0.0456938 -1.02415e-09 0.00553553)
(0.0426355 -3.44555e-09 0.0056288)
(0.0395355 -3.41128e-09 0.00571648)
(0.036398 -1.12504e-09 0.00579672)
(0.0332282 1.59904e-10 0.00586731)
(0.0300326 -1.86364e-09 0.00592561)
(0.0268191 -5.17975e-09 0.00596849)
(0.0235972 -5.60045e-09 0.00599221)
(0.0203785 -2.7336e-09 0.00599226)
(0.0171769 -1.10981e-09 0.00596318)
(0.0140089 -3.54644e-09 0.00589818)
(0.0108945 -6.35999e-09 0.00578905)
(0.00785674 -5.38344e-09 0.00562393)
(0.00492245 -3.29517e-09 0.00538803)
(0.00212409 -4.45066e-09 0.00506963)
(-0.000503838 -5.66708e-09 0.00465425)
(-0.00291335 -9.59424e-10 0.00412156)
(-0.00505569 6.96725e-09 0.00344671)
(-0.00687597 5.24447e-09 0.0026001)
(-0.00831325 -1.32073e-08 0.00154907)
(-0.00930584 -2.52569e-08 0.000262591)
(-0.00978599 -1.65816e-08 -0.00126126)
(-0.00970652 -1.01825e-08 -0.0029868)
(-0.00905055 -5.7353e-09 -0.004685)
(-0.00780465 -1.46659e-08 -0.00573368)
(-0.00529807 -9.38218e-08 -0.00596434)
(-0.00270101 -6.69801e-08 -0.00498681)
(-0.00373585 -1.7235e-06 0.012565)
(-0.00470696 -9.28198e-07 0.00698811)
(-0.00326977 -6.65641e-07 0.000781197)
(-0.000111863 -4.92807e-07 -0.00451671)
(0.00398484 -3.93819e-07 -0.00815659)
(0.00896452 -3.35293e-07 -0.0105131)
(0.0145927 -2.96612e-07 -0.0119614)
(0.0206669 -2.65627e-07 -0.012784)
(0.0270349 -2.41727e-07 -0.0132025)
(0.0335739 -2.23176e-07 -0.0133594)
(0.0401921 -2.07395e-07 -0.0133441)
(0.0468233 -1.94404e-07 -0.0132152)
(0.0534188 -1.82606e-07 -0.0130106)
(0.0599432 -1.70737e-07 -0.0127553)
(0.0663705 -1.60281e-07 -0.0124659)
(0.0726813 -1.51622e-07 -0.0121535)
(0.0788614 -1.4156e-07 -0.0118256)
(0.0848998 -1.27609e-07 -0.0114872)
(0.0907882 -1.11752e-07 -0.0111418)
(0.0965201 -9.81476e-08 -0.0107916)
(0.102091 -8.83308e-08 -0.0104385)
(0.107496 -8.06298e-08 -0.0100834)
(0.112732 -7.34305e-08 -0.00972751)
(0.117798 -6.74313e-08 -0.00937146)
(0.122692 -6.4081e-08 -0.00901592)
(0.127411 -6.29513e-08 -0.00866152)
(0.131957 -6.1419e-08 -0.00830883)
(0.136328 -5.6976e-08 -0.00795843)
(0.140525 -4.95424e-08 -0.00761088)
(0.144548 -4.12941e-08 -0.00726676)
(0.148398 -3.44973e-08 -0.00692663)
(0.152077 -2.96003e-08 -0.00659105)
(0.155586 -2.52621e-08 -0.00626055)
(0.158928 -2.00148e-08 -0.00593564)
(0.162105 -1.38024e-08 -0.00561682)
(0.165119 -8.13727e-09 -0.00530453)
(0.167974 -4.87355e-09 -0.00499919)
(0.170673 -4.64515e-09 -0.00470117)
(0.173218 -6.35462e-09 -0.00441079)
(0.175614 -7.90418e-09 -0.00412832)
(0.177865 -7.56727e-09 -0.003854)
(0.179974 -5.01741e-09 -0.00358799)
(0.181945 -1.313e-09 -0.00333044)
(0.183783 1.95357e-09 -0.00308142)
(0.185491 3.70296e-09 -0.00284099)
(0.187074 3.91043e-09 -0.00260915)
(0.188537 3.42594e-09 -0.00238588)
(0.189882 3.28315e-09 -0.00217109)
(0.191115 3.97795e-09 -0.0019647)
(0.19224 5.23621e-09 -0.00176658)
(0.193261 6.24891e-09 -0.00157659)
(0.194181 6.22129e-09 -0.00139456)
(0.195005 4.88113e-09 -0.0012203)
(0.195737 2.632e-09 -0.00105362)
(0.19638 3.21955e-10 -0.00089429)
(0.196938 -1.16668e-09 -0.0007421)
(0.197415 -1.36087e-09 -0.000596812)
(0.197815 -3.68148e-10 -0.000458185)
(0.19814 1.20422e-09 -0.00032597)
(0.198394 2.55958e-09 -0.000199906)
(0.198579 3.04784e-09 -7.97169e-05)
(0.1987 2.42059e-09 3.48077e-05)
(0.198759 9.11015e-10 0.000143804)
(0.198759 -8.9552e-10 0.000247465)
(0.198702 -2.31467e-09 0.000346045)
(0.198591 -2.81818e-09 0.000439801)
(0.198428 -2.20999e-09 0.000528968)
(0.198216 -6.53797e-10 0.000613768)
(0.197958 1.41542e-09 0.000694417)
(0.197654 3.42753e-09 0.000771116)
(0.197308 4.91138e-09 0.000844062)
(0.196921 5.5805e-09 0.000913444)
(0.196495 5.42249e-09 0.000979442)
(0.196032 4.6639e-09 0.00104223)
(0.195534 3.68163e-09 0.00110198)
(0.195001 2.9059e-09 0.00115885)
(0.194436 2.67556e-09 0.001213)
(0.19384 3.2e-09 0.00126458)
(0.193215 4.49731e-09 0.00131373)
(0.192561 6.43518e-09 0.00136059)
(0.19188 8.73093e-09 0.0014053)
(0.191172 1.10714e-08 0.00144797)
(0.19044 1.31425e-08 0.00148874)
(0.189684 1.47178e-08 0.0015277)
(0.188905 1.5662e-08 0.00156498)
(0.188104 1.59599e-08 0.00160067)
(0.187281 1.56934e-08 0.00163487)
(0.186438 1.5009e-08 0.00166767)
(0.185575 1.40953e-08 0.00169916)
(0.184693 1.31311e-08 0.00172942)
(0.183793 1.22954e-08 0.00175853)
(0.182875 1.16996e-08 0.00178655)
(0.18194 1.14236e-08 0.00181357)
(0.180989 1.14731e-08 0.00183964)
(0.180021 1.18167e-08 0.00186483)
(0.179038 1.23868e-08 0.00188919)
(0.178039 1.30769e-08 0.00191277)
(0.177026 1.37621e-08 0.00193564)
(0.175998 1.43304e-08 0.00195783)
(0.174957 1.46854e-08 0.0019794)
(0.173901 1.4733e-08 0.00200039)
(0.172833 1.44455e-08 0.00202085)
(0.171751 1.37993e-08 0.00204083)
(0.170656 1.28313e-08 0.00206038)
(0.169549 1.15939e-08 0.00207954)
(0.16843 1.01843e-08 0.00209836)
(0.167298 8.70521e-09 0.0021169)
(0.166155 7.26989e-09 0.00213521)
(0.164999 5.97924e-09 0.00215333)
(0.163831 4.9037e-09 0.00217132)
(0.162652 4.11466e-09 0.00218924)
(0.161461 3.61876e-09 0.00220714)
(0.160258 3.41413e-09 0.00222508)
(0.159044 3.4798e-09 0.0022431)
(0.157818 3.7682e-09 0.00226128)
(0.15658 4.25552e-09 0.00227966)
(0.15533 4.89894e-09 0.0022983)
(0.154067 5.67371e-09 0.00231726)
(0.152793 6.55699e-09 0.00233661)
(0.151506 7.52592e-09 0.0023564)
(0.150206 8.52532e-09 0.0023767)
(0.148893 9.48759e-09 0.00239757)
(0.147566 1.03119e-08 0.00241907)
(0.146226 1.08848e-08 0.00244127)
(0.144872 1.11019e-08 0.00246423)
(0.143503 1.08906e-08 0.00248802)
(0.142118 1.02452e-08 0.0025127)
(0.140719 9.24774e-09 0.00253833)
(0.139303 8.08273e-09 0.00256497)
(0.137871 6.98815e-09 0.00259269)
(0.136421 6.20767e-09 0.00262153)
(0.134954 5.95069e-09 0.00265157)
(0.133468 6.30666e-09 0.00268284)
(0.131963 7.21088e-09 0.00271541)
(0.130438 8.4606e-09 0.00274933)
(0.128892 9.74648e-09 0.00278463)
(0.127325 1.07583e-08 0.00282137)
(0.125736 1.12798e-08 0.0028596)
(0.124125 1.12256e-08 0.00289937)
(0.122489 1.06992e-08 0.00294072)
(0.120829 9.90829e-09 0.0029837)
(0.119143 9.10497e-09 0.00302837)
(0.117431 8.43014e-09 0.00307476)
(0.115692 7.92854e-09 0.00312292)
(0.113924 7.50879e-09 0.00317292)
(0.112127 7.04336e-09 0.00322479)
(0.1103 6.458e-09 0.0032786)
(0.108442 5.79078e-09 0.00333438)
(0.106552 5.20828e-09 0.00339221)
(0.104628 4.85135e-09 0.00345213)
(0.10267 4.75331e-09 0.00351419)
(0.100677 4.78663e-09 0.00357846)
(0.0986465 4.73809e-09 0.00364498)
(0.0965787 4.4554e-09 0.00371382)
(0.094472 4.02518e-09 0.00378501)
(0.0923253 3.73488e-09 0.00385861)
(0.0901374 3.8748e-09 0.00393467)
(0.0879071 4.49537e-09 0.00401321)
(0.0856333 5.26158e-09 0.00409425)
(0.0833148 5.63088e-09 0.00417782)
(0.0809504 5.25016e-09 0.00426389)
(0.0785392 4.32405e-09 0.00435244)
(0.0760799 3.54547e-09 0.0044434)
(0.0735718 3.53024e-09 0.00453671)
(0.0710138 4.23363e-09 0.00463221)
(0.0684053 4.73999e-09 0.00472973)
(0.0657455 3.9833e-09 0.00482904)
(0.0630342 1.86268e-09 0.00492981)
(0.060271 -4.54011e-10 0.00503166)
(0.0574561 -1.2678e-09 0.00513411)
(0.0545899 -1.40867e-10 0.00523654)
(0.0516732 1.44103e-09 0.00533822)
(0.0487072 1.30588e-09 0.00543825)
(0.0456938 -1.02414e-09 0.00553555)
(0.0426355 -3.44553e-09 0.00562882)
(0.0395355 -3.41127e-09 0.0057165)
(0.036398 -1.12503e-09 0.00579674)
(0.0332282 1.59903e-10 0.00586733)
(0.0300326 -1.86363e-09 0.00592564)
(0.0268191 -5.17972e-09 0.00596853)
(0.0235972 -5.60041e-09 0.00599225)
(0.0203785 -2.73358e-09 0.00599229)
(0.0171769 -1.1098e-09 0.00596322)
(0.0140089 -3.54642e-09 0.00589822)
(0.0108945 -6.35995e-09 0.0057891)
(0.00785676 -5.3834e-09 0.00562398)
(0.00492247 -3.29514e-09 0.00538808)
(0.00212411 -4.45063e-09 0.00506968)
(-0.000503807 -5.66704e-09 0.0046543)
(-0.00291332 -9.59417e-10 0.00412161)
(-0.00505565 6.9672e-09 0.00344677)
(-0.00687594 5.24444e-09 0.00260018)
(-0.00831323 -1.32073e-08 0.00154915)
(-0.00930579 -2.52574e-08 0.000262659)
(-0.00978593 -1.65832e-08 -0.0012612)
(-0.00970651 -1.01861e-08 -0.00298676)
(-0.00905059 -5.73967e-09 -0.00468491)
(-0.00780456 -1.46726e-08 -0.00573356)
(-0.00529767 -9.37527e-08 -0.00596474)
(-0.00270181 -6.69582e-08 -0.00498642)
(-0.00101215 -1.46788e-06 0.0156868)
(0.00106633 -7.57556e-07 0.00513326)
(0.00469512 -4.60283e-07 -0.00319023)
(0.00877627 -3.09252e-07 -0.00915597)
(0.0131191 -2.28101e-07 -0.0133289)
(0.0177982 -1.8653e-07 -0.0161721)
(0.0228028 -1.61717e-07 -0.0180352)
(0.028091 -1.45452e-07 -0.0191895)
(0.0336032 -1.32906e-07 -0.0198447)
(0.0392733 -1.21371e-07 -0.0201513)
(0.0450419 -1.1137e-07 -0.0202141)
(0.0508591 -1.03383e-07 -0.0201058)
(0.0566839 -9.63539e-08 -0.0198771)
(0.0624837 -9.00431e-08 -0.019563)
(0.0682323 -8.48764e-08 -0.0191879)
(0.0739091 -7.99467e-08 -0.018769)
(0.0794975 -7.3666e-08 -0.0183181)
(0.0849842 -6.58747e-08 -0.0178438)
(0.0903584 -5.81105e-08 -0.0173521)
(0.0956115 -5.18841e-08 -0.0168474)
(0.100736 -4.72881e-08 -0.0163331)
(0.105727 -4.34613e-08 -0.0158114)
(0.110578 -4.00071e-08 -0.0152846)
(0.115287 -3.74576e-08 -0.0147541)
(0.11985 -3.6254e-08 -0.0142214)
(0.124264 -3.57053e-08 -0.0136879)
(0.128527 -3.43399e-08 -0.0131546)
(0.132639 -3.12536e-08 -0.0126228)
(0.136599 -2.6968e-08 -0.0120935)