/*--------------------------------*- C++ -*----------------------------------*\
  =========                 |
  \\      /  F ield         | OpenFOAM: The Open Source CFD Toolbox
   \\    /   O peration     | Website:  https://openfoam.org
    \\  /    A nd           | Version:  8
     \\/     M anipulation  |
\*---------------------------------------------------------------------------*/
FoamFile
{
    version     2.0;
    format      ascii;
    class       volScalarField;
    location    "4500";
    object      alphat;
}
// * * * * * * * * * * * * * * * * * * * * * * * * * * * * * * * * * * * * * //

dimensions      [1 -1 -1 0 0 0 0];

internalField   nonuniform List<scalar> 
46000
(
2.41647e-06
8.84861e-06
1.54796e-05
2.15784e-05
2.73207e-05
3.28639e-05
3.82743e-05
4.3572e-05
4.87863e-05
5.39393e-05
5.90485e-05
6.41245e-05
6.91405e-05
7.41166e-05
7.90578e-05
8.39652e-05
8.88378e-05
9.36738e-05
9.84704e-05
0.000103224
0.000107932
0.000112588
0.000117189
0.00012173
0.000126206
0.000130612
0.000134943
0.000139192
0.000143357
0.00014743
0.000151407
0.000155284
0.000159055
0.000162715
0.000166259
0.000169685
0.000172987
0.00017616
0.000179202
0.000182109
0.000184876
0.000187501
0.000189977
0.000192302
0.000194467
0.000196463
0.000198278
0.000199894
0.000201286
0.000202428
0.000203295
0.000203878
0.000204194
0.000204296
0.000204268
0.000204199
0.00020416
0.000204192
0.000204313
0.000204524
0.000204809
0.000205125
0.000205403
0.000205565
0.000205551
0.000205321
0.000204856
0.00020416
0.000203255
0.00020217
0.000200931
0.000199562
0.000198078
0.000196493
0.000194815
0.000193053
0.000191213
0.0001893
0.000187321
0.000185279
0.00018318
0.000181029
0.000178829
0.000176586
0.000174303
0.000171984
0.000169634
0.000167256
0.000164855
0.000162434
0.000159996
0.000157546
0.000155086
0.000152619
0.00015015
0.00014768
0.000145213
0.000142751
0.000140296
0.000137852
0.000135421
0.000133004
0.000130604
0.000128222
0.00012586
0.000123521
0.000121204
0.000118912
0.000116646
0.000114406
0.000112195
0.000110012
0.000107858
0.000105734
0.000103641
0.000101579
9.95479e-05
9.75484e-05
9.55805e-05
9.36443e-05
9.17397e-05
8.98668e-05
8.80252e-05
8.62148e-05
8.44353e-05
8.26865e-05
8.09678e-05
7.92789e-05
7.76192e-05
7.59884e-05
7.43858e-05
7.28109e-05
7.12631e-05
6.97417e-05
6.82462e-05
6.67758e-05
6.533e-05
6.39081e-05
6.25094e-05
6.11332e-05
5.97788e-05
5.84457e-05
5.71331e-05
5.58403e-05
5.45668e-05
5.33119e-05
5.2075e-05
5.08555e-05
4.96528e-05
4.84664e-05
4.72956e-05
4.61399e-05
4.49989e-05
4.38721e-05
4.27589e-05
4.16589e-05
4.05717e-05
3.94969e-05
3.8434e-05
3.73827e-05
3.63426e-05
3.53134e-05
3.42947e-05
3.32862e-05
3.22875e-05
3.12984e-05
3.03187e-05
2.93479e-05
2.83862e-05
2.74335e-05
2.64889e-05
2.55521e-05
2.46228e-05
2.37006e-05
2.27851e-05
2.18761e-05
2.09733e-05
2.00761e-05
1.91842e-05
1.82971e-05
1.74144e-05
1.65359e-05
1.56614e-05
1.47897e-05
1.392e-05
1.30516e-05
1.21832e-05
1.13139e-05
1.04423e-05
9.56678e-06
8.68547e-06
7.79605e-06
6.8956e-06
5.98043e-06
5.04573e-06
4.08503e-06
3.08923e-06
2.05165e-06
9.96111e-07
1.9782e-07
2.41521e-06
8.84599e-06
1.54774e-05
2.15778e-05
2.73207e-05
3.28641e-05
3.82745e-05
4.35722e-05
4.87864e-05
5.39393e-05
5.90486e-05
6.41245e-05
6.91405e-05
7.41166e-05
7.90578e-05
8.39652e-05
8.88378e-05
9.36737e-05
9.84703e-05
0.000103224
0.000107931
0.000112588
0.000117189
0.00012173
0.000126206
0.000130612
0.000134942
0.000139192
0.000143357
0.00014743
0.000151407
0.000155284
0.000159054
0.000162714
0.000166259
0.000169685
0.000172986
0.00017616
0.000179202
0.000182109
0.000184876
0.0001875
0.000189977
0.000192301
0.000194466
0.000196463
0.000198278
0.000199893
0.000201285
0.000202426
0.000203292
0.000203874
0.000204189
0.000204291
0.000204263
0.000204195
0.000204156
0.00020419
0.000204312
0.000204524
0.00020481
0.000205127
0.000205406
0.000205568
0.000205554
0.000205323
0.000204857
0.00020416
0.000203255
0.000202169
0.000200931
0.000199561
0.000198078
0.000196492
0.000194815
0.000193052
0.000191212
0.0001893
0.00018732
0.000185279
0.00018318
0.000181028
0.000178829
0.000176585
0.000174302
0.000171984
0.000169634
0.000167256
0.000164855
0.000162434
0.000159996
0.000157545
0.000155085
0.000152619
0.000150149
0.00014768
0.000145212
0.00014275
0.000140296
0.000137852
0.000135421
0.000133004
0.000130604
0.000128222
0.00012586
0.00012352
0.000121204
0.000118912
0.000116645
0.000114406
0.000112194
0.000110011
0.000107858
0.000105734
0.000103641
0.000101579
9.95477e-05
9.75482e-05
9.55803e-05
9.36441e-05
9.17395e-05
8.98665e-05
8.8025e-05
8.62146e-05
8.44352e-05
8.26863e-05
8.09676e-05
7.92787e-05
7.76191e-05
7.59882e-05
7.43856e-05
7.28107e-05
7.12629e-05
6.97415e-05
6.8246e-05
6.67757e-05
6.53299e-05
6.3908e-05
6.25092e-05
6.1133e-05
5.97787e-05
5.84455e-05
5.71329e-05
5.58402e-05
5.45667e-05
5.33118e-05
5.20749e-05
5.08554e-05
4.96527e-05
4.84662e-05
4.72955e-05
4.61398e-05
4.49988e-05
4.3872e-05
4.27588e-05
4.16588e-05
4.05716e-05
3.94968e-05
3.84339e-05
3.73826e-05
3.63425e-05
3.53133e-05
3.42946e-05
3.32861e-05
3.22874e-05
3.12984e-05
3.03186e-05
2.93478e-05
2.83861e-05
2.74334e-05
2.64889e-05
2.55521e-05
2.46227e-05
2.37005e-05
2.27851e-05
2.18761e-05
2.09732e-05
2.0076e-05
1.91842e-05
1.82971e-05
1.74144e-05
1.65359e-05
1.56614e-05
1.47897e-05
1.392e-05
1.30515e-05
1.21832e-05
1.13139e-05
1.04423e-05
9.56676e-06
8.68546e-06
7.79603e-06
6.89558e-06
5.98042e-06
5.04572e-06
4.08503e-06
3.08922e-06
2.05165e-06
9.9611e-07
1.9782e-07
8.18295e-06
6.38738e-05
0.000106292
0.000135929
0.000159033
0.000178289
0.00019495
0.000209919
0.000223687
0.000236553
0.000248702
0.000260277
0.000271388
0.000282098
0.000292454
0.000302493
0.000312242
0.000321725
0.000330957
0.000339952
0.000348719
0.000357266
0.000365597
0.000373716
0.000381626
0.000389328
0.000396822
0.000404107
0.000411185
0.000418052
0.000424708
0.000431152
0.00043738
0.000443392
0.000449186
0.000454759
0.000460109
0.000465235
0.000470135
0.000474807
0.000479249
0.000483458
0.000487433
0.000491168
0.00049466
0.0004979
0.000500876
0.000503568
0.000505952
0.000507997
0.000509671
0.000510953
0.000511844
0.000512386
0.000512672
0.000512833
0.000512969
0.000513119
0.000513308
0.000513555
0.000513902
0.000514336
0.000514733
0.000515026
0.000515139
0.000514993
0.000514529
0.000513726
0.0005126
0.000511189
0.000509533
0.000507666
0.000505615
0.0005034
0.000501034
0.00049853
0.000495895
0.000493138
0.000490266
0.000487285
0.000484201
0.000481021
0.00047775
0.000474393
0.000470957
0.000467447
0.000463867
0.000460224
0.000456522
0.000452766
0.000448962
0.000445113
0.000441226
0.000437303
0.00043335
0.000429371
0.00042537
0.000421351
0.000417318
0.000413274
0.000409224
0.00040517
0.000401116
0.000397065
0.000393019
0.000388982
0.000384956
0.000380944
0.000376947
0.000372968
0.000369009
0.000365072
0.000361158
0.000357269
0.000353406
0.000349571
0.000345763
0.000341985
0.000338238
0.00033452
0.000330834
0.00032718
0.000323558
0.000319967
0.000316409
0.000312882
0.000309388
0.000305925
0.000302493
0.000299091
0.00029572
0.000292379
0.000289066
0.000285781
0.000282524
0.000279293
0.000276088
0.000272907
0.00026975
0.000266615
0.000263501
0.000260408
0.000257334
0.000254278
0.000251239
0.000248216
0.000245206
0.000242211
0.000239226
0.000236253
0.000233289
0.000230333
0.000227384
0.000224441
0.000221502
0.000218566
0.000215631
0.000212697
0.000209761
0.000206823
0.000203881
0.000200934
0.000197979
0.000195015
0.000192041
0.000189055
0.000186054
0.000183036
0.000179997
0.000176936
0.000173853
0.000170745
0.00016761
0.000164443
0.000161242
0.000158003
0.00015472
0.00015139
0.000148005
0.00014456
0.000141045
0.000137448
0.000133761
0.000129973
0.00012607
0.000122035
0.000117849
0.000113486
0.000108914
0.000104094
9.8975e-05
9.34876e-05
8.75375e-05
8.09892e-05
7.36367e-05
6.51429e-05
5.48953e-05
4.15947e-05
2.21437e-05
9.07814e-07
8.18509e-06
6.38737e-05
0.000106289
0.000135929
0.000159035
0.000178292
0.000194952
0.000209922
0.000223689
0.000236556
0.000248704
0.00026028
0.000271391
0.000282101
0.000292457
0.000302495
0.000312245
0.000321728
0.00033096
0.000339955
0.000348723
0.000357269
0.0003656
0.00037372
0.00038163
0.000389331
0.000396825
0.000404111
0.000411188
0.000418056
0.000424712
0.000431155
0.000437384
0.000443396
0.00044919
0.000454763
0.000460113
0.000465239
0.000470139
0.000474811
0.000479253
0.000483462
0.000487436
0.000491172
0.000494664
0.000497904
0.000500878
0.00050357
0.000505952
0.000507994
0.000509664
0.000510941
0.000511827
0.000512366
0.000512651
0.000512812
0.000512948
0.000513101
0.000513296
0.000513548
0.000513901
0.000514339
0.000514741
0.000515037
0.000515152
0.000515006
0.00051454
0.000513734
0.000512607
0.000511194
0.000509537
0.00050767
0.000505619
0.000503404
0.000501038
0.000498533
0.000495899
0.000493142
0.000490269
0.000487288
0.000484205
0.000481024
0.000477753
0.000474397
0.000470961
0.00046745
0.000463871
0.000460227
0.000456525
0.00045277
0.000448965
0.000445117
0.000441229
0.000437306
0.000433353
0.000429374
0.000425373
0.000421354
0.000417321
0.000413277
0.000409227
0.000405173
0.000401119
0.000397068
0.000393022
0.000388985
0.000384959
0.000380946
0.00037695
0.000372971
0.000369012
0.000365075
0.000361161
0.000357272
0.000353408
0.000349573
0.000345766
0.000341988
0.00033824
0.000334522
0.000330836
0.000327182
0.00032356
0.000319969
0.000316411
0.000312884
0.00030939
0.000305926
0.000302494
0.000299093
0.000295722
0.00029238
0.000289067
0.000285783
0.000282525
0.000279295
0.000276089
0.000272908
0.000269751
0.000266616
0.000263503
0.00026041
0.000257336
0.00025428
0.00025124
0.000248217
0.000245208
0.000242212
0.000239228
0.000236254
0.00023329
0.000230334
0.000227385
0.000224442
0.000221503
0.000218567
0.000215632
0.000212698
0.000209762
0.000206824
0.000203882
0.000200934
0.00019798
0.000195016
0.000192042
0.000189056
0.000186055
0.000183037
0.000179998
0.000176937
0.000173854
0.000170746
0.00016761
0.000164444
0.000161243
0.000158003
0.000154721
0.00015139
0.000148006
0.000144561
0.000141046
0.000137448
0.000133761
0.000129973
0.00012607
0.000122036
0.00011785
0.000113486
0.000108914
0.000104095
9.89754e-05
9.34879e-05
8.75378e-05
8.09895e-05
7.36369e-05
6.51431e-05
5.48954e-05
4.15948e-05
2.21437e-05
9.07817e-07
1.46249e-05
0.000103187
0.00018656
0.000249243
0.000298073
0.000337715
0.000371117
0.000400156
0.000426011
0.00044947
0.000471073
0.000491191
0.000510097
0.000527983
0.00054499
0.000561226
0.000576778
0.000591711
0.000606079
0.000619926
0.000633285
0.000646186
0.00065865
0.000670698
0.000682344
0.000693603
0.000704484
0.000714997
0.000725149
0.000734946
0.000744394
0.000753498
0.00076226
0.000770685
0.000778774
0.000786531
0.000793957
0.000801054
0.000807825
0.000814269
0.00082039
0.000826186
0.000831658
0.000836804
0.000841621
0.000846099
0.000850223
0.000853966
0.000857289
0.000860136
0.000862448
0.000864171
0.000865295
0.000865875
0.000866054
0.000866039
0.000866022
0.000866137
0.000866452
0.000866985
0.000867742
0.000868686
0.000869709
0.000870688
0.000871454
0.000871836
0.000871719
0.000871074
0.000869937
0.000868377
0.000866462
0.00086425
0.000861783
0.00085909
0.000856191
0.000853101
0.000849833
0.000846395
0.000842797
0.000839046
0.000835149
0.000831114
0.000826946
0.000822654
0.000818242
0.000813718
0.000809088
0.000804357
0.000799532
0.000794619
0.000789624
0.000784552
0.000779408
0.0007742
0.000768931
0.000763608
0.000758235
0.000752817
0.00074736
0.000741867
0.000736344
0.000730795
0.000725224
0.000719634
0.000714031
0.000708418
0.000702797
0.000697173
0.000691549
0.000685928
0.000680312
0.000674704
0.000669107
0.000663522
0.000657953
0.0006524
0.000646865
0.000641351
0.000635858
0.000630387
0.000624939
0.000619516
0.000614118
0.000608745
0.000603398
0.000598076
0.000592781
0.000587511
0.000582267
0.000577049
0.000571855
0.000566685
0.000561538
0.000556414
0.000551312
0.00054623
0.000541168
0.000536124
0.000531096
0.000526085
0.000521087
0.000516102
0.000511128
0.000506163
0.000501206
0.000496255
0.000491308
0.000486363
0.000481419
0.000476473
0.000471524
0.000466569
0.000461606
0.000456634
0.000451649
0.00044665
0.000441634
0.000436598
0.000431541
0.000426459
0.000421349
0.000416208
0.000411034
0.000405822
0.000400569
0.000395271
0.000389923
0.000384519
0.000379053
0.000373521
0.000367919
0.000362242
0.000356484
0.000350635
0.000344687
0.000338631
0.000332454
0.000326144
0.000319684
0.000313058
0.000306244
0.000299215
0.000291942
0.000284397
0.000276542
0.000268332
0.000259709
0.000250605
0.000240932
0.00023058
0.000219403
0.000207209
0.000193732
0.000178594
0.000161233
0.000140766
0.000115718
8.35145e-05
4.04504e-05
1.87927e-06
1.46257e-05
0.000103189
0.000186562
0.000249246
0.000298077
0.00033772
0.000371122
0.00040016
0.000426015
0.000449475
0.000471077
0.000491196
0.000510102
0.000527988
0.000544994
0.000561231
0.000576782
0.000591716
0.000606084
0.000619931
0.00063329
0.000646191
0.000658655
0.000670703
0.000682349
0.000693608
0.000704489
0.000715002
0.000725154
0.000734951
0.000744399
0.000753503
0.000762265
0.00077069
0.000778779
0.000786536
0.000793962
0.00080106
0.00080783
0.000814275
0.000820395
0.000826191
0.000831663
0.000836809
0.000841626
0.000846103
0.000850227
0.000853968
0.000857287
0.000860129
0.00086243
0.000864138
0.000865242
0.000865803
0.00086597
0.000865952
0.000865943
0.000866073
0.000866405
0.000866955
0.00086773
0.000868695
0.000869738
0.000870731
0.000871499
0.000871874
0.000871747
0.000871092
0.000869949
0.000868385
0.000866468
0.000864255
0.000861788
0.000859094
0.000856195
0.000853106
0.000849837
0.0008464
0.000842801
0.00083905
0.000835153
0.000831118
0.00082695
0.000822658
0.000818246
0.000813722
0.000809091
0.00080436
0.000799536
0.000794622
0.000789627
0.000784555
0.000779412
0.000774203
0.000768935
0.000763611
0.000758238
0.00075282
0.000747363
0.00074187
0.000736347
0.000730798
0.000725226
0.000719637
0.000714034
0.00070842
0.0007028
0.000697176
0.000691552
0.00068593
0.000680314
0.000674706
0.000669109
0.000663524
0.000657955
0.000652402
0.000646867
0.000641353
0.000635859
0.000630388
0.000624941
0.000619518
0.000614119
0.000608746
0.000603399
0.000598078
0.000592782
0.000587513
0.000582269
0.00057705
0.000571856
0.000566686
0.000561539
0.000556415
0.000551313
0.000546231
0.000541169
0.000536125
0.000531097
0.000526085
0.000521088
0.000516103
0.000511128
0.000506164
0.000501207
0.000496255
0.000491308
0.000486364
0.000481419
0.000476474
0.000471524
0.000466569
0.000461607
0.000456634
0.000451649
0.00044665
0.000441634
0.000436599
0.000431541
0.000426459
0.000421349
0.000416209
0.000411034
0.000405822
0.000400569
0.000395271
0.000389923
0.000384519
0.000379053
0.000373521
0.000367919
0.000362243
0.000356484
0.000350635
0.000344687
0.000338631
0.000332454
0.000326144
0.000319684
0.000313059
0.000306244
0.000299215
0.000291942
0.000284397
0.000276542
0.000268332
0.000259709
0.000250605
0.000240932
0.00023058
0.000219403
0.000207209
0.000193732
0.000178594
0.000161234
0.000140766
0.000115718
8.35146e-05
4.04502e-05
1.87928e-06
2.07228e-05
0.000131479
0.000246312
0.000339318
0.000414456
0.000476429
0.000528853
0.00057424
0.000614321
0.000650306
0.000683061
0.000713211
0.000741216
0.000767421
0.000792083
0.000815404
0.000837542
0.000858621
0.000878744
0.000897991
0.000916431
0.00093412
0.000951104
0.000967423
0.00098311
0.000998194
0.0010127
0.00102665
0.00104006
0.00105294
0.00106532
0.0010772
0.0010886
0.00109952
0.00110997
0.00111997
0.00112952
0.00113862
0.00114729
0.00115552
0.00116333
0.00117072
0.00117768
0.00118423
0.00119036
0.00119606
0.0012013
0.00120605
0.00121025
0.0012138
0.00121659
0.00121853
0.0012196
0.00121989
0.00121964
0.00121922
0.00121895
0.00121904
0.00121957
0.00122054
0.00122192
0.00122367
0.00122564
0.00122759
0.00122922
0.00123028
0.0012306
0.00123017
0.00122907
0.00122741
0.00122529
0.00122278
0.00121995
0.00121684
0.00121347
0.00120985
0.00120602
0.00120197
0.00119771
0.00119327
0.00118863
0.00118382
0.00117884
0.0011737
0.00116839
0.00116294
0.00115735
0.00115163
0.00114577
0.0011398
0.0011337
0.00112751
0.0011212
0.00111481
0.00110832
0.00110175
0.0010951
0.00108839
0.0010816
0.00107476
0.00106786
0.00106091
0.00105391
0.00104688
0.00103981
0.00103271
0.00102558
0.00101843
0.00101126
0.00100408
0.000996881
0.000989678
0.000982469
0.000975259
0.000968049
0.000960842
0.00095364
0.000946445
0.000939259
0.000932083
0.000924919
0.000917768
0.000910632
0.00090351
0.000896403
0.000889312
0.000882237
0.000875178
0.000868134
0.000861106
0.000854093
0.000847094
0.000840109
0.000833136
0.000826175
0.000819224
0.000812282
0.000805348
0.000798419
0.000791495
0.000784573
0.000777651
0.000770728
0.000763801
0.000756869
0.000749928
0.000742978
0.000736014
0.000729035
0.000722037
0.000715019
0.000707977
0.000700909
0.00069381
0.000686679
0.00067951
0.000672302
0.00066505
0.000657751
0.000650399
0.00064299
0.00063552
0.000627984
0.000620375
0.000612688
0.000604915
0.000597051
0.000589085
0.000581009
0.000572812
0.00056449
0.000556032
0.000547424
0.000538654
0.000529706
0.000520562
0.000511202
0.000501602
0.000491736
0.000481573
0.000471076
0.000460201
0.000448897
0.000437111
0.000424776
0.000411811
0.000398117
0.000383572
0.000368025
0.000351284
0.000333102
0.000313157
0.000291012
0.00026607
0.000237478
0.000203992
0.00016375
0.00011407
5.28862e-05
2.8415e-06
2.07228e-05
0.00013148
0.000246316
0.000339323
0.000414462
0.000476436
0.00052886
0.000574247
0.000614328
0.000650313
0.000683068
0.000713217
0.000741223
0.000767427
0.00079209
0.000815411
0.000837548
0.000858628
0.00087875
0.000897997
0.000916437
0.000934126
0.00095111
0.000967429
0.000983116
0.0009982
0.00101271
0.00102665
0.00104006
0.00105295
0.00106533
0.00107721
0.0010886
0.00109952
0.00110998
0.00111997
0.00112952
0.00113862
0.00114729
0.00115553
0.00116333
0.00117072
0.00117769
0.00118424
0.00119037
0.00119606
0.0012013
0.00120606
0.00121025
0.00121379
0.00121658
0.00121851
0.00121956
0.00121984
0.0012196
0.0012192
0.00121897
0.00121909
0.00121965
0.00122063
0.00122203
0.00122379
0.00122577
0.00122772
0.00122933
0.00123035
0.00123064
0.0012302
0.00122909
0.00122742
0.0012253
0.00122279
0.00121996
0.00121684
0.00121347
0.00120986
0.00120602
0.00120197
0.00119772
0.00119327
0.00118864
0.00118383
0.00117884
0.0011737
0.0011684
0.00116295
0.00115736
0.00115163
0.00114578
0.0011398
0.00113371
0.00112751
0.00112121
0.00111481
0.00110832
0.00110175
0.00109511
0.00108839
0.0010816
0.00107476
0.00106786
0.00106091
0.00105391
0.00104688
0.00103981
0.00103271
0.00102558
0.00101843
0.00101126
0.00100408
0.000996882
0.000989679
0.000982471
0.00097526
0.00096805
0.000960843
0.000953641
0.000946446
0.00093926
0.000932084
0.00092492
0.000917769
0.000910633
0.00090351
0.000896404
0.000889313
0.000882237
0.000875178
0.000868135
0.000861107
0.000854094
0.000847095
0.00084011
0.000833137
0.000826176
0.000819225
0.000812283
0.000805348
0.000798419
0.000791495
0.000784573
0.000777651
0.000770728
0.000763801
0.000756869
0.000749928
0.000742977
0.000736014
0.000729034
0.000722037
0.000715019
0.000707977
0.000700908
0.00069381
0.000686678
0.00067951
0.000672302
0.00066505
0.00065775
0.000650398
0.00064299
0.00063552
0.000627983
0.000620374
0.000612687
0.000604915
0.00059705
0.000589084
0.000581008
0.000572812
0.00056449
0.000556031
0.000547424
0.000538654
0.000529705
0.000520561
0.000511201
0.000501601
0.000491736
0.000481573
0.000471075
0.0004602
0.000448896
0.000437111
0.000424776
0.000411811
0.000398117
0.000383572
0.000368025
0.000351284
0.000333102
0.000313157
0.000291012
0.00026607
0.000237478
0.000203992
0.00016375
0.00011407
5.2886e-05
2.84151e-06
2.6577e-05
0.000154421
0.000293737
0.000412426
0.000511479
0.00059492
0.000666335
0.000728475
0.000783384
0.000832574
0.000877167
0.000918004
0.000955721
0.000990805
0.00102363
0.0010545
0.00108363
0.00111123
0.00113743
0.00116238
0.00118616
0.00120887
0.00123058
0.00125136
0.00127125
0.0012903
0.00130855
0.00132604
0.00134279
0.00135884
0.00137421
0.00138892
0.00140299
0.00141644
0.00142928
0.00144153
0.0014532
0.00146431
0.00147487
0.00148488
0.00149436
0.00150331
0.00151175
0.00151967
0.00152707
0.00153396
0.00154029
0.00154604
0.00155111
0.00155541
0.00155881
0.00156118
0.00156249
0.00156289
0.00156268
0.00156228
0.0015621
0.00156236
0.00156315
0.00156446
0.00156627
0.00156851
0.00157101
0.00157347
0.00157552
0.00157687
0.00157735
0.00157697
0.00157582
0.00157401
0.00157167
0.00156888
0.0015657
0.0015622
0.00155838
0.00155428
0.00154992
0.0015453
0.00154044
0.00153535
0.00153003
0.0015245
0.00151876
0.00151283
0.00150671
0.0015004
0.00149392
0.00148727
0.00148046
0.0014735
0.0014664
0.00145916
0.00145178
0.00144429
0.00143667
0.00142895
0.00142112
0.0014132
0.00140518
0.00139708
0.0013889
0.00138065
0.00137233
0.00136395
0.00135551
0.00134703
0.00133849
0.00132992
0.0013213
0.00131266
0.00130398
0.00129528
0.00128656
0.00127782
0.00126907
0.00126031
0.00125153
0.00124275
0.00123396
0.00122517
0.00121638
0.00120759
0.0011988
0.00119001
0.00118122
0.00117244
0.00116366
0.00115489
0.00114612
0.00113735
0.00112859
0.00111982
0.00111106
0.0011023
0.00109354
0.00108478
0.00107601
0.00106723
0.00105845
0.00104966
0.00104085
0.00103203
0.0010232
0.00101434
0.00100547
0.000996566
0.000987638
0.000978678
0.000969684
0.000960653
0.00095158
0.000942463
0.000933298
0.000924079
0.000914804
0.000905467
0.000896063
0.000886588
0.000877036
0.000867401
0.000857676
0.000847856
0.000837933
0.000827898
0.000817744
0.00080746
0.000797036
0.000786461
0.000775722
0.000764805
0.000753699
0.000742387
0.000730852
0.000719073
0.000707028
0.00069469
0.000682029
0.000669012
0.000655599
0.000641744
0.000627394
0.000612488
0.000596952
0.000580706
0.000563653
0.000545675
0.000526631
0.000506347
0.00048461
0.000461155
0.000435643
0.000407643
0.000376586
0.00034172
0.000302023
0.0002561
0.000202062
0.00013763
6.25241e-05
3.77676e-06
2.65769e-05
0.000154423
0.000293741
0.000412432
0.000511486
0.000594928
0.000666343
0.000728483
0.000783393
0.000832583
0.000877176
0.000918012
0.00095573
0.000990814
0.00102364
0.0010545
0.00108364
0.00111123
0.00113744
0.00116238
0.00118617
0.00120888
0.00123059
0.00125136
0.00127125
0.0012903
0.00130856
0.00132605
0.0013428
0.00135885
0.00137422
0.00138893
0.001403
0.00141645
0.00142929
0.00144154
0.00145321
0.00146432
0.00147487
0.00148488
0.00149436
0.00150332
0.00151175
0.00151967
0.00152708
0.00153396
0.0015403
0.00154604
0.00155112
0.00155542
0.00155881
0.00156118
0.00156249
0.0015629
0.00156272
0.00156237
0.00156223
0.00156254
0.00156335
0.00156467
0.00156648
0.00156872
0.00157121
0.00157364
0.00157565
0.00157695
0.00157741
0.001577
0.00157584
0.00157402
0.00157167
0.00156888
0.00156571
0.0015622
0.00155839
0.00155429
0.00154992
0.0015453
0.00154044
0.00153535
0.00153003
0.0015245
0.00151877
0.00151283
0.00150671
0.0015004
0.00149392
0.00148727
0.00148047
0.00147351
0.0014664
0.00145916
0.00145179
0.00144429
0.00143668
0.00142895
0.00142112
0.0014132
0.00140518
0.00139708
0.0013889
0.00138065
0.00137233
0.00136395
0.00135552
0.00134703
0.00133849
0.00132992
0.00132131
0.00131266
0.00130398
0.00129529
0.00128656
0.00127783
0.00126907
0.00126031
0.00125153
0.00124275
0.00123396
0.00122517
0.00121638
0.00120759
0.0011988
0.00119001
0.00118122
0.00117244
0.00116366
0.00115489
0.00114612
0.00113735
0.00112859
0.00111982
0.00111106
0.0011023
0.00109354
0.00108478
0.00107601
0.00106723
0.00105845
0.00104966
0.00104085
0.00103203
0.0010232
0.00101434
0.00100547
0.000996566
0.000987637
0.000978677
0.000969684
0.000960652
0.00095158
0.000942463
0.000933297
0.000924079
0.000914803
0.000905466
0.000896062
0.000886587
0.000877035
0.0008674
0.000857676
0.000847855
0.000837932
0.000827897
0.000817743
0.000807459
0.000797036
0.000786461
0.000775722
0.000764804
0.000753698
0.000742386
0.000730851
0.000719072
0.000707027
0.000694689
0.000682029
0.000669011
0.000655598
0.000641743
0.000627393
0.000612487
0.000596951
0.000580705
0.000563652
0.000545674
0.00052663
0.000506346
0.00048461
0.000461154
0.000435643
0.000407642
0.000376586
0.00034172
0.000302023
0.0002561
0.000202062
0.00013763
6.25238e-05
3.77678e-06
3.22978e-05
0.000174118
0.000333221
0.000473687
0.000593975
0.000697168
0.000786556
0.000864903
0.000934398
0.000996734
0.00105322
0.00110486
0.00115243
0.00119656
0.00123771
0.00127628
0.00131256
0.00134681
0.00137922
0.00140998
0.00143921
0.00146703
0.00149355
0.00151885
0.00154301
0.00156608
0.00158812
0.00160919
0.00162932
0.00164855
0.00166693
0.00168448
0.00170122
0.00171719
0.00173241
0.0017469
0.00176068
0.00177377
0.00178619
0.00179795
0.00180906
0.00181955
0.00182942
0.00183868
0.00184733
0.00185536
0.00186277
0.0018695
0.0018755
0.00188066
0.00188487
0.00188802
0.0018901
0.00189122
0.0018917
0.00189192
0.00189225
0.00189291
0.00189398
0.00189547
0.00189735
0.00189958
0.00190199
0.00190428
0.00190614
0.00190727
0.00190756
0.00190698
0.00190562
0.00190358
0.00190098
0.00189788
0.00189437
0.00189047
0.00188623
0.00188167
0.0018768
0.00187164
0.0018662
0.0018605
0.00185454
0.00184833
0.00184188
0.00183521
0.00182831
0.0018212
0.00181389
0.00180638
0.00179868
0.0017908
0.00178275
0.00177453
0.00176616
0.00175763
0.00174897
0.00174017
0.00173124
0.00172219
0.00171303
0.00170376
0.00169439
0.00168492
0.00167537
0.00166573
0.00165602
0.00164624
0.0016364
0.00162649
0.00161653
0.00160652
0.00159647
0.00158637
0.00157623
0.00156607
0.00155587
0.00154564
0.0015354
0.00152513
0.00151484
0.00150453
0.00149421
0.00148388
0.00147353
0.00146318
0.00145281
0.00144243
0.00143205
0.00142165
0.00141125
0.00140084
0.00139041
0.00137998
0.00136953
0.00135907
0.0013486
0.0013381
0.00132759
0.00131706
0.00130651
0.00129593
0.00128532
0.00127469
0.00126402
0.00125331
0.00124256
0.00123177
0.00122094
0.00121005
0.00119911
0.00118811
0.00117705
0.00116592
0.00115472
0.00114344
0.00113208
0.00112063
0.00110908
0.00109743
0.00108568
0.0010738
0.00106181
0.00104968
0.00103741
0.00102499
0.0010124
0.000999635
0.000986682
0.000973523
0.000960143
0.000946524
0.000932648
0.000918494
0.000904038
0.000889252
0.000874107
0.000858567
0.000842593
0.000826138
0.000809152
0.000791574
0.000773335
0.000754355
0.00073454
0.00071378
0.000691952
0.000668903
0.000644452
0.00061838
0.000590419
0.000560241
0.000527434
0.000491484
0.000451733
0.000407335
0.000357197
0.000299905
0.000233717
0.000156882
7.05915e-05
4.69286e-06
3.22978e-05
0.00017412
0.000333225
0.000473693
0.000593982
0.000697177
0.000786565
0.000864913
0.000934408
0.000996744
0.00105323
0.00110487
0.00115244
0.00119657
0.00123772
0.00127629
0.00131257
0.00134682
0.00137923
0.00140999
0.00143922
0.00146704
0.00149356
0.00151886
0.00154302
0.00156609
0.00158813
0.0016092
0.00162933
0.00164856
0.00166694
0.00168448
0.00170123
0.0017172
0.00173242
0.00174691
0.00176069
0.00177378
0.0017862
0.00179796
0.00180907
0.00181956
0.00182943
0.00183869
0.00184734
0.00185537
0.00186278
0.00186951
0.00187551
0.00188068
0.00188489
0.00188804
0.00189012
0.00189127
0.00189178
0.00189205
0.00189241
0.0018931
0.00189419
0.00189568
0.00189757
0.00189979
0.00190217
0.00190443
0.00190624
0.00190734
0.0019076
0.001907
0.00190563
0.00190359
0.00190098
0.00189789
0.00189437
0.00189048
0.00188624
0.00188167
0.0018768
0.00187164
0.00186621
0.0018605
0.00185454
0.00184833
0.00184189
0.00183521
0.00182831
0.0018212
0.00181389
0.00180638
0.00179868
0.0017908
0.00178275
0.00177453
0.00176616
0.00175764
0.00174897
0.00174017
0.00173124
0.00172219
0.00171303
0.00170376
0.00169439
0.00168492
0.00167537
0.00166574
0.00165603
0.00164624
0.0016364
0.00162649
0.00161653
0.00160652
0.00159647
0.00158637
0.00157624
0.00156607
0.00155587
0.00154565
0.0015354
0.00152513
0.00151484
0.00150453
0.00149421
0.00148388
0.00147353
0.00146318
0.00145281
0.00144243
0.00143205
0.00142165
0.00141125
0.00140084
0.00139041
0.00137998
0.00136953
0.00135907
0.0013486
0.0013381
0.00132759
0.00131706
0.00130651
0.00129593
0.00128532
0.00127469
0.00126402
0.00125331
0.00124256
0.00123177
0.00122094
0.00121005
0.00119911
0.00118811
0.00117705
0.00116592
0.00115472
0.00114344
0.00113208
0.00112062
0.00110908
0.00109743
0.00108568
0.0010738
0.00106181
0.00104968
0.00103741
0.00102499
0.0010124
0.000999635
0.000986681
0.000973522
0.000960143
0.000946523
0.000932647
0.000918493
0.000904037
0.000889252
0.000874106
0.000858566
0.000842592
0.000826137
0.000809151
0.000791573
0.000773335
0.000754354
0.000734539
0.000713779
0.000691951
0.000668902
0.000644452
0.00061838
0.000590419
0.00056024
0.000527434
0.000491484
0.000451733
0.000407336
0.000357197
0.000299906
0.000233717
0.000156882
7.05913e-05
4.69288e-06
3.79116e-05
0.000191608
0.000367379
0.000526549
0.000665607
0.000786693
0.000892706
0.000986309
0.00106973
0.00114475
0.00121282
0.00127505
0.00133234
0.00138542
0.00143483
0.00148106
0.00152446
0.00156534
0.00160395
0.00164051
0.00167518
0.00170812
0.00173944
0.00176926
0.00179767
0.00182475
0.00185057
0.0018752
0.0018987
0.0019211
0.00194246
0.00196283
0.00198222
0.00200069
0.00201826
0.00203496
0.00205082
0.00206586
0.00208011
0.00209358
0.0021063
0.00211828
0.00212955
0.0021401
0.00214995
0.00215911
0.00216756
0.00217528
0.00218221
0.0021883
0.00219345
0.00219759
0.00220072
0.00220294
0.00220449
0.00220566
0.00220674
0.00220793
0.00220929
0.00221085
0.0022126
0.0022145
0.00221643
0.00221815
0.00221942
0.00222004
0.00221988
0.00221893
0.00221725
0.00221491
0.002212
0.00220858
0.0022047
0.00220042
0.00219576
0.00219073
0.00218537
0.00217969
0.00217369
0.0021674
0.00216082
0.00215396
0.00214684
0.00213945
0.00213182
0.00212394
0.00211584
0.00210751
0.00209896
0.00209021
0.00208127
0.00207213
0.00206281
0.00205332
0.00204366
0.00203385
0.00202388
0.00201377
0.00200353
0.00199316
0.00198267
0.00197207
0.00196136
0.00195055
0.00193964
0.00192865
0.00191757
0.00190642
0.0018952
0.00188391
0.00187256
0.00186115
0.00184969
0.00183819
0.00182664
0.00181504
0.00180342
0.00179175
0.00178006
0.00176833
0.00175658
0.0017448
0.00173299
0.00172116
0.00170931
0.00169744
0.00168554
0.00167363
0.00166169
0.00164973
0.00163774
0.00162573
0.0016137
0.00160164
0.00158955
0.00157742
0.00156527
0.00155308
0.00154085
0.00152858