/*--------------------------------*- C++ -*----------------------------------*\
  =========                 |
  \\      /  F ield         | OpenFOAM: The Open Source CFD Toolbox
   \\    /   O peration     | Website:  https://openfoam.org
    \\  /    A nd           | Version:  8
     \\/     M anipulation  |
\*---------------------------------------------------------------------------*/
FoamFile
{
    version     2.0;
    format      ascii;
    class       volScalarField;
    location    "4500";
    object      epsilon;
}
// * * * * * * * * * * * * * * * * * * * * * * * * * * * * * * * * * * * * * //

dimensions      [0 2 -3 0 0 0 0];

internalField   nonuniform List<scalar> 
46000
(
43.7739
144.772
252.55
351.516
444.584
534.331
621.85
707.482
791.71
874.902
957.344
1039.21
1120.07
1200.26
1279.86
1358.88
1437.32
1515.14
1592.3
1668.76
1744.45
1819.3
1893.25
1966.22
2038.12
2108.88
2178.42
2246.65
2313.49
2378.86
2442.69
2504.88
2565.36
2624.06
2680.9
2735.82
2788.75
2839.62
2888.37
2934.95
2979.29
3021.33
3061.02
3098.28
3133
3165.06
3194.23
3220.2
3242.46
3260.32
3272.93
3279.51
3279.71
3274.26
3265.4
3256.5
3250.64
3249.04
3251.17
3256.03
3263.36
3273.3
3284.72
3294.76
3300.75
3301.25
3296.1
3285.97
3271.78
3254.39
3234.43
3212.35
3188.44
3162.91
3135.92
3107.57
3077.98
3047.24
3015.42
2982.61
2948.89
2914.32
2878.98
2842.94
2806.27
2769.03
2731.28
2693.1
2654.53
2615.65
2576.5
2537.15
2497.65
2458.04
2418.39
2378.73
2339.11
2299.57
2260.17
2220.92
2181.88
2143.07
2104.52
2066.28
2028.36
1990.78
1953.58
1916.77
1880.38
1844.42
1808.9
1773.84
1739.25
1705.15
1671.53
1638.41
1605.79
1573.67
1542.06
1510.96
1480.36
1450.28
1420.69
1391.61
1363.02
1334.92
1307.3
1280.17
1253.5
1227.29
1201.54
1176.23
1151.35
1126.89
1102.86
1079.22
1055.98
1033.11
1010.62
988.495
966.715
945.275
924.162
903.368
882.88
862.691
842.788
823.163
803.806
784.708
765.861
747.254
728.881
710.733
692.802
675.082
657.564
640.243
623.111
606.163
589.393
572.795
556.363
540.093
523.978
508.015
492.198
476.523
460.992
445.602
430.34
415.199
400.176
385.264
370.458
355.752
341.142
326.619
312.179
297.812
283.511
269.275
255.099
240.964
226.858
212.766
198.672
184.557
170.399
156.172
141.844
127.378
112.724
97.8217
82.5905
66.9224
50.6639
33.6967
16.3929
3.61536
43.8138
144.836
252.604
351.542
444.594
534.334
621.852
707.483
791.711
874.903
957.345
1039.21
1120.07
1200.26
1279.86
1358.88
1437.31
1515.14
1592.3
1668.76
1744.45
1819.3
1893.25
1966.21
2038.12
2108.88
2178.41
2246.65
2313.49
2378.86
2442.68
2504.87
2565.36
2624.05
2680.9
2735.82
2788.74
2839.61
2888.37
2934.94
2979.28
3021.33
3061.02
3098.27
3133
3165.05
3194.23
3220.19
3242.45
3260.29
3272.89
3279.43
3279.59
3274.12
3265.25
3256.37
3250.53
3248.96
3251.13
3256.01
3263.37
3273.34
3284.79
3294.84
3300.82
3301.29
3296.12
3285.97
3271.78
3254.38
3234.42
3212.34
3188.44
3162.91
3135.91
3107.57
3077.98
3047.23
3015.41
2982.61
2948.88
2914.32
2878.98
2842.94
2806.27
2769.02
2731.28
2693.09
2654.53
2615.64
2576.5
2537.15
2497.64
2458.04
2418.38
2378.72
2339.1
2299.57
2260.16
2220.92
2181.87
2143.06
2104.52
2066.27
2028.35
1990.78
1953.58
1916.77
1880.38
1844.41
1808.9
1773.84
1739.25
1705.14
1671.52
1638.4
1605.78
1573.67
1542.06
1510.95
1480.36
1450.27
1420.69
1391.6
1363.01
1334.92
1307.3
1280.16
1253.49
1227.29
1201.53
1176.22
1151.35
1126.89
1102.85
1079.22
1055.97
1033.11
1010.62
988.493
966.713
945.272
924.16
903.365
882.878
862.689
842.786
823.161
803.804
784.707
765.859
747.252
728.879
710.731
692.801
675.08
657.563
640.241
623.11
606.162
589.392
572.794
556.362
540.092
523.977
508.014
492.197
476.522
460.991
445.601
430.339
415.198
400.175
385.263
370.457
355.751
341.141
326.619
312.178
297.811
283.511
269.275
255.098
240.964
226.858
212.766
198.672
184.557
170.399
156.172
141.844
127.377
112.724
97.8216
82.5905
66.9224
50.6639
33.6967
16.3929
3.61535
157.407
132.926
165.429
205.231
247.099
290.004
333.64
377.727
422.202
467.049
512.142
557.501
603.043
648.776
694.688
740.754
786.935
833.187
879.459
925.696
971.837
1017.82
1063.58
1109.04
1154.14
1198.81
1242.97
1286.55
1329.47
1371.67
1413.06
1453.58
1493.16
1531.73
1569.22
1605.57
1640.71
1674.58
1707.14
1738.31
1768.05
1796.29
1823
1848.09
1871.49
1893.12
1912.83
1930.44
1945.67
1958.17
1967.53
1973.43
1975.77
1975.01
1972.21
1968.94
1966.69
1966.2
1967.35
1969.65
1972.74
1976.5
1980.48
1983.36
1983.79
1981.06
1975.14
1966.4
1955.32
1942.33
1927.76
1911.83
1894.72
1876.55
1857.42
1837.4
1816.58
1795.02
1772.78
1749.93
1726.51
1702.57
1678.19
1653.4
1628.25
1602.8
1577.1
1551.18
1525.09
1498.87
1472.58
1446.23
1419.88
1393.55
1367.29
1341.12
1315.08
1289.19
1263.48
1237.97
1212.69
1187.66
1162.89
1138.42
1114.24
1090.39
1066.86
1043.68
1020.85
998.376
976.272
954.543
933.192
912.223
891.639
871.44
851.628
832.202
813.16
794.5
776.22
758.314
740.78
723.611
706.803
690.35
674.245
658.482
643.053
627.951
613.169
598.698
584.532
570.661
557.079
543.776
530.744
517.976
505.464
493.199
481.173
469.378
457.808
446.454
435.31
424.367
413.62
403.061
392.684
382.482
372.451
362.583
352.873
343.317
333.908
324.642
315.515
306.522
297.659
288.921
280.306
271.81
263.429
255.16
247
238.946
230.996
223.148
215.402
207.754
200.199
192.735
185.358
178.065
170.856
163.726
156.674
149.698
142.794
135.961
129.196
122.5
115.869
109.299
102.785
96.3231
89.908
83.5347
77.1974
70.8895
64.6035
58.3306
52.0612
45.7846
39.4906
33.1746
26.857
20.6675
15.275
17.8122
157.347
132.923
165.432
205.232
247.098
290.001
333.636
377.723
422.197
467.043
512.136
557.495
603.036
648.768
694.68
740.745
786.926
833.178
879.449
925.685
971.825
1017.81
1063.57
1109.03
1154.13
1198.8
1242.96
1286.53
1329.46
1371.65
1413.04
1453.57
1493.14
1531.71
1569.2
1605.55
1640.69
1674.56
1707.12
1738.29
1768.03
1796.27
1822.98
1848.07
1871.48
1893.1
1912.82
1930.43
1945.66
1958.16
1967.53
1973.42
1975.75
1974.98
1972.19
1968.93
1966.7
1966.23
1967.38
1969.68
1972.77
1976.53
1980.52
1983.38
1983.79
1981.04
1975.11
1966.37
1955.3
1942.31
1927.73
1911.81
1894.7
1876.53
1857.39
1837.38
1816.56
1795
1772.76
1749.91
1726.49
1702.56
1678.17
1653.38
1628.24
1602.79
1577.08
1551.16
1525.07
1498.86
1472.56
1446.21
1419.86
1393.54
1367.28
1341.11
1315.06
1289.17
1263.46
1237.95
1212.67
1187.64
1162.88
1138.41
1114.23
1090.38
1066.85
1043.67
1020.84
998.364
976.261
954.532
933.181
912.212
891.628
871.43
851.619
832.193
813.151
794.491
776.211
758.306
740.771
723.603
706.795
690.342
674.238
658.474
643.046
627.944
613.162
598.692
584.526
570.655
557.073
543.77
530.739
517.971
505.458
493.193
481.167
469.373
457.803
446.45
435.305
424.363
413.615
403.057
392.68
382.478
372.447
362.579
352.87
343.313
333.905
324.639
315.512
306.519
297.656
288.918
280.303
271.807
263.426
255.157
246.997
238.944
230.994
223.146
215.4
207.752
200.197
192.733
185.356
178.064
170.854
163.725
156.673
149.696
142.793
135.959
129.195
122.499
115.868
109.298
102.784
96.3222
89.9071
83.5339
77.1967
70.8889
64.6029
58.3301
52.0608
45.7843
39.4903
33.1744
26.8568
20.6674
15.275
17.8122
277.808
173.977
176.645
196.204
221.471
249.554
279.347
310.294
342.079
374.542
407.556
441.042
474.93
509.172
543.727
578.554
613.61
648.849
684.222
719.679
755.168
790.634
826.019
861.267
896.316
931.106
965.575
999.661
1033.3
1066.43
1098.99
1130.92
1162.16
1192.64
1222.32
1251.12
1279.01
1305.92
1331.8
1356.61
1380.3
1402.81
1424.11
1444.15
1462.86
1480.19
1496.05
1510.36
1522.99
1533.8
1542.63
1549.39
1554.08
1556.92
1558.38
1559.09
1559.62
1560.25
1560.94
1561.5
1561.8
1561.77
1561.14
1559.39
1556.02
1550.83
1543.85
1535.27
1525.29
1514.06
1501.74
1488.44
1474.23
1459.21
1443.43
1426.96
1409.86
1392.17
1373.96
1355.26
1336.13
1316.61
1296.74
1276.56
1256.13
1235.47
1214.63
1193.64
1172.55
1151.38
1130.17
1108.95
1087.76
1066.61
1045.54
1024.58
1003.75
983.061
962.549
942.228
922.116
902.231
882.587
863.198
844.076
825.233
806.677
788.417
770.46
752.813
735.481
718.466
701.772
685.401
669.354
653.632
638.232
623.154
608.397
593.957
579.831
566.015
552.505
539.297
526.384
513.763
501.426
489.369
477.584
466.065
454.806
443.8
433.041
422.52
412.232
402.17
392.326
382.694
373.267
364.038
355.001
346.15
337.477
328.977
320.643
312.47
304.453
296.584
288.86
281.275
273.825
266.503
259.306
252.23
245.271
238.423
231.685
225.051
218.52
212.087
205.75
199.505
193.351
187.284
181.303
175.405
169.588
163.851
158.192
152.61
147.101
141.664
136.296
130.996
125.762
120.593
115.487
110.443
105.459
100.536
95.6702
90.8629
86.113
81.4181
76.7765
72.1866
67.6469
63.156
58.7128
54.3165
49.9671
45.6662
41.418
37.2326
33.1323
29.1674
25.4618
22.3733
21.4059
36.2889
277.784
173.971
176.642
196.201
221.468
249.55
279.343
310.289
342.074
374.537
407.551
441.037
474.924
509.166
543.721
578.548
613.603
648.842
684.214
719.672
755.16
790.625
826.011
861.258
896.307
931.096
965.565
999.651
1033.29
1066.42
1098.98
1130.91
1162.15
1192.63
1222.3
1251.11
1278.99
1305.9
1331.79
1356.6
1380.28
1402.8
1424.1
1444.13
1462.85
1480.17
1496.04
1510.36
1522.99
1533.8
1542.65
1549.43
1554.15
1557.03
1558.52
1559.24
1559.77
1560.39
1561.05
1561.58
1561.86
1561.79
1561.13
1559.35
1555.96
1550.77
1543.81
1535.24
1525.26
1514.05
1501.73
1488.42
1474.22
1459.19
1443.42
1426.95
1409.85
1392.16
1373.95
1355.25
1336.12
1316.59
1296.72
1276.55
1256.12
1235.46
1214.62
1193.63
1172.54
1151.37
1130.16
1108.94
1087.75
1066.6
1045.54
1024.57
1003.74
983.053
962.541
942.22
922.109
902.224
882.58
863.191
844.07
825.226
806.67
788.411
770.455
752.808
735.475
718.461
701.767
685.396
669.349
653.627
638.227
623.15
608.393
593.953
579.827
566.011
552.501
539.293
526.381
513.759
501.423
489.365
477.58
466.062
454.803
443.797
433.038
422.518
412.23
402.167
392.324
382.692
373.265
364.036
354.999
346.147
337.475
328.975
320.641
312.468
304.451
296.582
288.859
281.274
273.823
266.501
259.305
252.229
245.269
238.422
231.683
225.05
218.519
212.086
205.748
199.504
193.35
187.283
181.302
175.404
169.587
163.85
158.191
152.609
147.1
141.663
136.295
130.995
125.761
120.592
115.486
110.442
105.459
100.535
95.6697
90.8624
86.1125
81.4176
76.7761
72.1862
67.6466
63.1557
58.7125
54.3163
49.9669
45.666
41.4178
37.2324
33.1321
29.1673
25.4617
22.3733
21.406
36.289
390.911
221.13
202.543
209.539
225.324
245.367
267.924
292.157
317.6
343.973
371.091
398.824
427.075
455.769
484.844
514.245
543.922
573.824
603.901
634.105
664.384
694.688
724.964
755.158
785.218
815.087
844.711
874.033
902.997
931.548
959.63
987.187
1014.16
1040.51
1066.17
1091.1
1115.24
1138.54
1160.97
1182.48
1203.02
1222.55
1241.03
1258.42
1274.69
1289.78
1303.67
1316.29
1327.64
1337.67
1346.4
1353.85
1360.07
1365.15
1369.16
1372.19
1374.32
1375.57
1375.97
1375.47
1374.06
1371.7
1368.31
1363.82
1358.2
1351.51
1343.82
1335.19
1325.66
1315.28
1304.06
1292.06
1279.32
1265.89
1251.81
1237.14
1221.92
1206.2
1190.02
1173.42
1156.46
1139.15
1121.55
1103.7
1085.62
1067.36
1048.94
1030.41
1011.8
993.13
974.438
955.75
937.092
918.491
899.971
881.553
863.26
845.11
827.124
809.316
791.704
774.301
757.121
740.175
723.474
707.027
690.842
674.926
659.286
643.925
628.849
614.059
599.559
585.349
571.431
557.803
544.465
531.415
518.651
506.171
493.971
482.048
470.397
459.015
447.896
437.035
426.427
416.067
405.949
396.066
386.413
376.984
367.773
358.773
349.978
341.382
332.979
324.762
316.726
308.865
301.171
293.641
286.268
279.046
271.97
265.035
258.236
251.568
245.026
238.605
232.302
226.111
220.03
214.053
208.177
202.4
196.717
191.125
185.622
180.204
174.87
169.615
164.44
159.34
154.314
149.36
144.477
139.663
134.916
130.235
125.619
121.065
116.573
112.14
107.766
103.45
99.1906
94.987
90.8388
86.7453
82.7062
78.7214
74.7907
70.9138
67.0903
63.3203
59.6043
55.9435
52.3396
48.796
45.318
41.9144
38.6001
35.4012
32.3657
29.5887
27.2835
26.0353
28.2433
54.3482
390.912
221.127
202.54
209.535
225.32
245.363
267.92
292.153
317.595
343.968
371.086
398.819
427.07
455.763
484.838
514.24
543.916
573.818
603.895
634.098
664.378
694.681
724.957
755.151
785.21
815.079
844.703
874.025
902.989
931.54
959.621
987.178
1014.16
1040.5
1066.16
1091.09
1115.23
1138.54
1160.96
1182.47
1203.01
1222.54
1241.02
1258.42
1274.68
1289.77
1303.66
1316.29
1327.63
1337.67
1346.41
1353.87
1360.12
1365.21
1369.22
1372.23
1374.32
1375.54
1375.91
1375.4
1373.97
1371.58
1368.18
1363.69
1358.09
1351.43
1343.76
1335.15
1325.64
1315.26
1304.05
1292.05
1279.31
1265.88
1251.8
1237.13
1221.91
1206.19
1190.01
1173.42
1156.45
1139.14
1121.55
1103.69
1085.61
1067.35
1048.94
1030.41
1011.79
993.124
974.432
955.744
937.087
918.486
899.965
881.548
863.255
845.106
827.119
809.312
791.7
774.297
757.117
740.171
723.47
707.023
690.838
674.923
659.282
643.922
628.845
614.056
599.556
585.346
571.428
557.8
544.462
531.412
518.649
506.169
493.969
482.046
470.395
459.013
447.894
437.033
426.425
416.065
405.947
396.064
386.412
376.983
367.771
358.771
349.977
341.381
332.978
324.761
316.725
308.863
301.17
293.64
286.267
279.045
271.969
265.034
258.235
251.567
245.025
238.605
232.301
226.111
220.029
214.052
208.177
202.399
196.716
191.124
185.621
180.204
174.869
169.615
164.439
159.339
154.313
149.36
144.476
139.662
134.915
130.235
125.619
121.065
116.573
112.14
107.766
103.45
99.1903
94.9868
90.8385
86.7451
82.706
78.7211
74.7905
70.9136
67.0901
63.3201
59.6042
55.9433
52.3395
48.7959
45.3179
41.9143
38.6
35.4012
32.3657
29.5887
27.2835
26.0354
28.2435
54.3483
499.136
269.928
233.274
230.438
239.253
253.7
271.444
291.359
312.822
335.454
359.005
383.3
408.212
433.64
459.506
485.74
512.282
539.077
566.071
593.212
620.45
647.735
675.015
702.24
729.359
756.32
783.072
809.563
835.74
861.552
886.948
911.877
936.288
960.132
983.361
1005.93
1027.79
1048.9
1069.21
1088.69
1107.29
1124.99
1141.73
1157.5
1172.25
1185.96
1198.6
1210.16
1220.64
1230.08
1238.53
1246.06
1252.74
1258.56
1263.44
1267.26
1269.9
1271.3
1271.49
1270.48
1268.28
1264.9
1260.37
1254.8
1248.33
1241.11
1233.22
1224.67
1215.47
1205.58
1195
1183.76
1171.86
1159.35
1146.26
1132.64
1118.52
1103.94
1088.95
1073.58
1057.87
1041.86
1025.58
1009.07
992.361
975.487
958.479
941.368
924.185
906.958
889.713
872.478
855.276
838.131
821.066
804.101
787.255
770.547
753.994
737.611
721.412
705.411
689.62
674.049
658.707
643.604
628.747
614.141
599.792
585.706
571.884
558.33
545.046
532.032
519.29
506.818
494.615
482.681
471.013
459.608
448.464
437.576
426.942
416.556
406.415
396.513
386.845
377.407
368.193
359.198
350.415
341.839
333.465
325.287
317.298
309.493
301.867
294.413
287.125
279.999
273.029
266.209
259.534
252.999
246.599
240.329
234.184
228.16
222.252
216.456
210.768
205.185
199.701
194.314
189.02
183.817
178.7
173.668
168.716
163.844
159.048
154.326
149.676
145.095
140.583
136.138
131.757
127.44
123.185
118.991
114.856
110.78
106.761
102.797
98.8896
95.0364
91.2372
87.4916
83.7994
80.1604
76.5749
73.0431
69.5657
66.1432
62.7766
59.4673
56.2175
53.0304
49.9104
46.8643
43.902
41.039
38.2996
35.7239
33.3833
31.414
30.1143
30.2925
35.214
71.7848
499.142
269.925
233.27
230.434
239.248
253.696
271.44
291.355
312.818
335.45
359
383.296
408.207
433.635
459.501
485.735
512.277
539.071
566.065
593.206
620.444
647.729
675.009
702.234
729.353
756.314
783.066
809.556
835.733
861.545
886.941
911.87
936.281
960.125
983.354
1005.92
1027.78
1048.89
1069.2
1088.68
1107.29
1124.98
1141.73
1157.49
1172.24
1185.95
1198.59
1210.15
1220.63
1230.07
1238.53
1246.06
1252.74
1258.55
1263.41
1267.2
1269.8
1271.17
1271.33
1270.32
1268.11
1264.73
1260.21
1254.66
1248.22
1241.04
1233.17
1224.65
1215.45
1205.57
1195
1183.75
1171.85
1159.34
1146.25
1132.63
1118.51
1103.93
1088.94
1073.58
1057.87
1041.86
1025.58
1009.07
992.356
975.482
958.474
941.364
924.181
906.953
889.709
872.474
855.272
838.127
821.062
804.097
787.251
770.544
753.99
737.607
721.409
705.408
689.617
674.046
658.705
643.601
628.744
614.138
599.79
585.703
571.882
558.328
545.044
532.03
519.288
506.816
494.614
482.68
471.011
459.607
448.462
437.575
426.94
416.555
406.413
396.511
386.844
377.406
368.192
359.196
350.414
341.838
333.464
325.286
317.297
309.492
301.866
294.412
287.124
279.999
273.028
266.208
259.534
252.999
246.599
240.328
234.184
228.16
222.252
216.456
210.768
205.184
199.7
194.314
189.02
183.816
178.7
173.667
168.716
163.844
159.048
154.325
149.675
145.095
140.583
136.138
131.757
127.44
123.185
118.991
114.856
110.78
106.76
102.797
98.8894
95.0362
91.237
87.4914
83.7992
80.1603
76.5748
73.043
69.5656
66.1431
62.7765
59.4672
56.2174
53.0303
49.9103
46.8642
43.902
41.039
38.2995
35.7239
33.3833
31.414
30.1143
30.2926
35.2143
71.785
604.645
319.706
266.444
255.031
258.093
268.14
282.246
299.003
317.632
337.658
358.771
380.751
403.44
426.715
450.478
474.648
499.155
523.935
548.93
574.086
599.35
624.671
649.999
675.283
700.474
725.523
750.379
774.995
799.32
823.307
846.905
870.069
892.751
914.905
936.485
957.448
977.751
997.354
1016.22
1034.3
1051.57
1067.99
1083.53
1098.16
1111.85
1124.58
1136.33
1147.1
1156.9
1165.76
1173.75
1180.94
1187.36
1192.99
1197.73
1201.43
1203.94
1205.19
1205.2
1203.98
1201.56
1197.96
1193.25
1187.57
1181.07
1173.9
1166.14
1157.81
1148.88
1139.35
1129.2
1118.44
1107.08
1095.16
1082.7
1069.75
1056.33
1042.49
1028.27
1013.68
998.785
983.602
968.17
952.521
936.686
920.699
904.587
888.381
872.108
855.796
839.469
823.153
806.871
790.645
774.495
758.442
742.504
726.697
711.039
695.543
680.223
665.092
650.16
635.438
620.935
606.658
592.615
578.812
565.253
551.943
538.884
526.081
513.533
501.243
489.21
477.434
465.914
454.649
443.636
432.874
422.359
412.088
402.057
392.263
382.701
373.366
364.254
355.359
346.678
338.204
329.932
321.857
313.973
306.276
298.758
291.416
284.243
277.233
270.383
263.685
257.136
250.729
244.461
238.325
232.318
226.435
220.67
215.021
209.482
204.05
198.72
193.489
188.354
183.311
178.356
173.487
168.702
163.996
159.367
154.814
150.333
145.923
141.581
137.306
133.097
128.95
124.866
120.842
116.878
112.972
109.123
105.331
101.593
97.9109
94.2823
90.7073
87.1855
83.7169
80.3017
76.9401
73.6326
70.3802
67.184
64.0456
60.9669
57.9506
55.0004
52.1212
49.3201
46.607
43.9962
41.5089
39.1783
37.0578
35.2403
33.9014
33.422
34.8288
42.2286
88.7962
604.649
319.702
266.44
255.027
258.089
268.136
282.242
298.998
317.627
337.654
358.766
380.746
403.435
426.71
450.473
474.643
499.15
523.929
548.925
574.081
599.345
624.665
649.993
675.277
700.468
725.517
750.373
774.989
799.314
823.3
846.899
870.063
892.745
914.898
936.478
957.441
977.745
997.347
1016.21
1034.29
1051.56
1067.98
1083.53
1098.15
1111.84
1124.57
1136.32
1147.09
1156.89
1165.75
1173.74
1180.92
1187.34
1192.96
1197.68
1201.35
1203.83
1205.06
1205.06
1203.84
1201.42
1197.83
1193.13
1187.47
1181
1173.86
1166.11
1157.79
1148.87
1139.34
1129.19
1118.43
1107.08
1095.15
1082.7
1069.74
1056.33
1042.49
1028.26
1013.68
998.781
983.598
968.166
952.517
936.682
920.695
904.583
888.377
872.105
855.792
839.466
823.15
806.868
790.641
774.492
758.439
742.501
726.695
711.036
695.541
680.221
665.09
650.158
635.436
620.933
606.656
592.613
578.81
565.251
551.941
538.883
526.079
513.531
501.241
489.208
477.432
465.913
454.647
443.635
432.873
422.358
412.087
402.056
392.262
382.699
373.365
364.253
355.358
346.677
338.203
329.931
321.856
313.973
306.275
298.758
291.415
284.242
277.233
270.382
263.685
257.135
250.729
244.46
238.325
232.318
226.434
220.67
215.02
209.481
204.049
198.719
193.489
188.354
183.31
178.356
173.487
168.701
163.995
159.367
154.813
150.333
145.923
141.581
137.306
133.096
128.95
124.866
120.842
116.877
112.972
109.123
105.33
101.593
97.9108
94.2822
90.7071
87.1854
83.7168
80.3016
76.94
73.6325
70.3802
67.184
64.0456
60.9669
57.9506
55.0003
52.1212
49.3201
46.607
43.9961
41.5089
39.1783
37.0578
35.2403
33.9014
33.422
34.8289
42.229
88.7965
707.962
370.232
301.187
281.889
279.897
286.231
297.374
311.636
328.085
346.153
365.468
385.769
406.867
428.617
450.903
473.632
496.723
520.104
543.713
567.491
591.383
615.335
639.298
663.22
687.053
710.749
734.259
757.537
780.535
803.207
825.506
847.388
868.809
889.724
910.091
929.869
949.018
967.5
985.277
1002.31
1018.58
1034.04
1048.66
1062.42
1075.3
1087.27
1098.32
1108.44
1117.65
1125.97
1133.44
1140.11
1146
1151.09
1155.31
1158.53
1160.67
1161.65
1161.48
1160.17
1157.75
1154.24
1149.71
1144.27
1138.04
1131.14
1123.64
1115.55
1106.87
1097.61
1087.76
1077.34
1066.35
1054.83
1042.81
1030.32
1017.38
1004.05
990.347
976.307
961.965
947.352
932.501
917.444
902.21
886.829
871.33
855.741
840.088
824.397
808.693
792.999
777.338
761.729
746.195
730.753
715.42
700.214
685.15
670.241
655.501
640.942
626.574
612.407
598.449
584.709
571.193
557.907
544.856
532.043
519.473
507.146
495.066
483.233
471.647
460.308
449.216
438.368
427.764
417.4
407.274
397.382
387.723
378.29
369.081
360.092
351.317
342.752
334.392
326.232
318.268
310.493
302.903
295.493
288.256
281.189
274.285
267.54
260.948
254.504
248.204
242.042
236.014
230.114
224.339
218.683
213.143
207.715
202.393
197.176
192.058
187.036
182.106
177.267
172.513
167.843
163.253
158.742
154.305
149.942
145.65
141.427
137.27
133.179
129.151
125.185
121.279
117.434
113.646
109.916
106.242
102.624
99.0607
95.5517
92.0966
88.6952
85.3476
82.054
78.8147
75.6305
72.5023
69.4316
66.4201
63.47
60.5845
57.7671
55.0232
52.3594
49.785
47.3129
44.9615
42.7577
40.7428
38.9829
37.5917
36.783
37.0191
39.5436
49.2905
105.564
707.964
370.227
301.183
281.885
279.893
286.227
297.369
311.632
328.081
346.149
365.463
385.764
406.862
428.612
450.899
473.627
496.718
520.099
543.708
567.486
591.378
615.33
639.292
663.215
687.048
710.743
734.254
757.531
780.529
803.201
825.5
847.382
868.803
889.718
910.085
929.863
949.012
967.493
985.27
1002.31
1018.57
1034.03
1048.65
1062.42
1075.29
1087.26
1098.31
1108.43
1117.64
1125.96
1133.43
1140.09
1145.98
1151.07
1155.27
1158.48
1160.6
1161.57
1161.4
1160.09
1157.67
1154.17
1149.65
1144.22
1138.01
1131.12
1123.62
1115.54
1106.87
1097.61
1087.76
1077.33
1066.34
1054.83
1042.8
1030.31
1017.38
1004.05
990.343
976.303
961.961
947.349
932.498
917.44
902.206
886.826
871.327
855.738
840.085
824.394
808.69
792.996
777.335
761.727
746.192
730.75
715.418
700.212
685.148
670.239
655.499
640.94
626.572
612.405
598.447
584.708
571.192
557.906
544.854
532.042
519.471
507.145
495.065
483.232
471.646
460.307
449.215
438.367
427.762
417.399
407.273
397.381
387.722
378.289
369.08
360.091
351.316
342.751
334.391
326.232
318.267
310.492
302.902
295.492
288.256
281.188
274.285
267.539
260.947
254.504
248.204
242.042
236.013
230.114
224.338
218.683
213.143
207.714
202.393
197.175
192.057
187.035
182.106
177.266
172.513
167.843
163.253
158.741
154.305
149.942
145.65
141.426
137.27
133.178
129.15
125.185
121.279
117.433
113.646
109.916
106.242
102.624
99.0606
95.5515
92.0965
88.6951
85.3475
82.0539
78.8146
75.6304
72.5023
69.4315
66.42
63.47
60.5844
57.7671
55.0231
52.3593
49.7849
47.3129
44.9615
42.7577
40.7428
38.9829
37.5916
36.7829
37.0191
39.5437
49.2909
105.564
809.55
421.387
337.133
310.388
303.782
306.837
315.447
327.638
342.322
358.842
376.763
395.785
415.689
436.308
457.508
479.184
501.244
523.61
546.213
568.989
591.88
614.832
637.791
660.709
683.534
706.221
728.722
750.99
772.981
794.65
815.953
836.846
857.289
877.238
896.655
915.5
933.736
951.327
968.237
984.434
999.887
1014.57
1028.44
1041.5
1053.7
1065.04
1075.5
1085.07
1093.75
1101.57
1108.54
1114.69
1120.03
1124.55
1128.21
1130.93
1132.65
1133.33
1132.98
1131.6
1129.2
1125.82
1121.51
1116.33
1110.39
1103.76
1096.49
1088.61
1080.15
1071.09
1061.47
1051.29
1040.57
1029.35
1017.64
1005.48
992.897
979.93
966.607
952.961
939.023
924.824
910.395
895.766
880.966
866.024
850.966
835.82
820.612
805.366
790.106
774.854
759.632
744.46
729.358
714.344
699.434
684.645
669.992
655.488
641.146
626.977
612.992
599.2
585.61
572.229
559.064
546.121
533.404
520.917
508.664
496.647
484.868
473.328
462.026
450.964
440.141
429.554
419.203
409.086
399.199
389.54
380.105
370.892
361.895
353.112
344.537
336.167
327.997
320.021
312.235
304.634
297.214
289.968
282.893
275.982
269.232
262.636
256.19
249.89
243.729
237.704
231.81
226.042
220.396
214.868
209.453
204.148
198.948
193.85
188.849
183.944
179.13
174.404
169.763
165.205
160.726
156.324
151.997
147.742
143.557
139.44
135.39
131.404
127.481
123.62
119.819
116.078
112.394
108.768
105.199
101.685
98.2262
94.8226
91.4737
88.1796
84.9404
81.7567
78.6292
75.559
72.5474
69.5964
66.7082
63.886
61.1335
58.4556
55.8589
53.3518
50.9458
48.6565
46.5063
44.5274
42.769
41.3095
40.283
39.9413
40.8282
44.4035
56.4219
122.215
809.551
421.382
337.129
310.384
303.778
306.833
315.443
327.633
342.318
358.837
376.759
395.781
415.685
436.303
457.504
479.179
501.239
523.605
546.208
568.984
591.875
614.827
637.786
660.703
683.529
706.216
728.716
750.985
772.976
794.644
815.947
836.841
857.283
877.233
896.65
915.495
933.731
951.321
968.231
984.428
999.881
1014.56
1028.44
1041.49
1053.69
1065.03
1075.49
1085.06
1093.75
1101.56
1108.53
1114.68
1120.02
1124.54
1128.19
1130.9
1132.62
1133.3
1132.95
1131.56
1129.17
1125.79
1121.48
1116.31
1110.38
1103.75
1096.48
1088.61
1080.14
1071.09
1061.47
1051.29
1040.57
1029.34
1017.63
1005.47
992.893
979.926
966.604
952.958
939.02
924.821
910.392
895.763
880.963
866.021
850.963
835.818
820.609
805.363
790.103
774.851
759.629
744.458
729.356
714.341
699.432
684.643
669.99
655.486
641.144
626.975
612.99
599.198
585.608
572.227
559.063
546.119
533.402
520.916
508.663
496.646
484.867
473.326
462.025
450.963
440.14
429.553
419.202
409.085
399.198
389.539
380.104
370.891
361.895
353.111
344.537
336.166
327.996
320.02
312.234
304.634
297.213
289.968
282.892
275.982
269.231
262.636
256.19
249.889
243.729
237.704
231.809
226.042
220.396
214.867
209.453
204.147
198.947
193.849
188.849
183.944
179.13
174.404
169.763
165.205
160.726
156.324
151.997
147.742
143.557
139.44
135.39
131.404
127.481
123.62
119.819
116.078
112.394
108.768
105.198
101.685
98.2261
94.8225
91.4736
88.1795
84.9403
81.7566
78.6292
75.5589
72.5474
69.5963
66.7082
63.8859
61.1334
58.4556
55.8589
53.3518
50.9457
48.6565
46.5062
44.5274
42.769
41.3095
40.2829
39.9412
40.8282
44.4036
56.4224
122.215
910.036
473.267
374.121
340.228
329.301
329.373
335.742
346.15
359.355
374.605
391.409
409.424
428.402
448.154
468.532
489.415
510.702
532.308
554.156
576.18
598.317
620.51
642.706
664.852
686.9
708.803
730.513
751.987
773.179
794.047
814.548
834.642
854.288
873.448
892.082
910.154
927.63
944.474
960.654
976.141
990.903
1004.92
1018.15
1030.59
1042.21
1052.99
1062.92
1072
1080.21
1087.57
1094.09
1099.77
1104.63
1108.66
1111.83
1114.11
1115.46
1115.87
1115.33
1113.84
1111.43
1108.12
1103.94
1098.95
1093.21
1086.77
1079.68
1071.97
1063.66
1054.77
1045.31
1035.32
1024.8
1013.8
1002.32
990.416
978.103
965.414
952.381
939.033
925.402
911.518
897.409
883.104
868.632
854.02
839.294
824.481
809.605
794.69
779.759
764.834
749.936
735.084
720.297
705.593
690.988
676.498
662.138
647.92
633.857
619.961
606.242
592.708
579.369
566.231
553.302
540.587
528.091
515.817
503.77
491.951
480.363
469.007
457.882
446.991
436.33
425.901
415.701
405.728
395.979
386.453
377.146
368.055
359.176
350.505
342.038
333.772
325.7
317.82
310.126
302.613
295.277
288.113
281.116
274.282
267.604
261.079
254.702
248.468
242.372
236.41
230.578
224.87
219.282
213.812
208.453
203.203
198.058
193.014
188.067
183.214
178.452
173.778
169.189
164.682
160.254
155.903
151.627
147.423
143.289
139.223
135.224
131.29
127.419
123.61
119.861
116.173
112.543
108.971
105.456
101.998
98.5966
95.251
91.9615
88.7283
85.5519
82.4331
79.3728
76.3725
73.434
70.5597
67.7524
65.0159
62.3548
59.7753
57.2849
54.8939
52.6157
50.4689
48.4795
46.6849
45.1421
43.9415
43.2375
43.3204
44.8158
49.401
63.6492
138.848
910.037
473.261
374.116
340.224
329.296
329.369
335.738
346.145
359.351
374.601
391.404
409.419
428.397
448.149
468.527
489.41
510.697
532.303
554.151
576.175
598.312
620.505
642.701
664.847
686.895
708.798
730.508
751.981
773.174
794.042
814.543
834.637
854.283
873.442
892.076
910.149
927.624
944.468
960.649
976.135
990.898
1004.91
1018.15
1030.58
1042.2
1052.98
1062.92
1071.99
1080.21
1087.57
1094.08
1099.77
1104.63
1108.65
1111.82
1114.1
1115.45
1115.86
1115.32
1113.83
1111.42
1108.11
1103.93
1098.95
1093.2
1086.77
1079.67
1071.96
1063.65
1054.76
1045.31
1035.31
1024.8
1013.79
1002.32
990.413
978.099
965.411
952.378
939.03
925.4
911.515
897.406
883.101
868.629
854.017
839.292
824.479
809.603
794.688
779.757
764.832
749.933
735.081
720.295
705.591
690.986
676.496
662.136
647.918
633.856
619.96
606.24
592.707
579.367
566.23
553.301
540.586
528.089
515.816
503.769
491.95
480.362
469.005
457.881
446.989
436.329
425.9
415.7
405.727
395.979
386.453
377.146
368.054
359.175
350.504
342.038
333.771
325.699
317.819
310.125
302.612
295.277
288.113
281.116
274.281
267.604
261.079
254.702
248.468
242.372
236.41
230.577
224.869
219.282
213.811
208.453
203.203
198.058
193.013
188.066
183.214
178.452
173.778
169.189
164.682
160.254
155.903
151.627
147.422
143.289
139.223
135.224
131.289
127.418
123.61
119.861
116.173
112.543
108.971
105.456
101.998
98.5964
95.2508
91.9614
88.7282
85.5518
82.433
79.3727
76.3724
73.434
70.5596
67.7523
65.0158
62.3548
59.7752
57.2849
54.8938
52.6157
50.4689
48.4794
46.6848
45.142
43.9414
43.2375
43.3203
44.8158
49.4012
63.6498
138.849
1009.93
525.951
412.125
371.272
356.222
353.517
357.853
366.684
378.614
392.797
408.68
425.883
444.127
463.202
482.943
503.218
523.914
544.939
566.21
587.655
609.21
630.813
652.41
673.947
695.376
716.649
737.719
758.543
779.078
799.282
819.114
838.535
857.506
875.991
893.954
911.359
928.174
944.367
959.907
974.766
988.916
1002.33
1014.99
1026.88
1037.96
1048.23
1057.68
1066.3
1074.07
1081.01
1087.11
1092.38
1096.82
1100.43
1103.2
1105.11
1106.15
1106.3
1105.57
1103.96
1101.49
1098.18
1094.05
1089.15
1083.52
1077.2
1070.23
1062.63
1054.43
1045.67
1036.34
1026.49
1016.13
1005.3
994.013
982.303
970.199
957.729
944.924
931.813
918.425
904.788
890.931
876.881
862.667
848.314
833.848
819.294
804.675
790.016
775.338
760.663
746.01
731.399
716.849
702.376
687.997
673.726
659.579
645.567
631.704
618
604.466
591.111
577.943
564.969
552.196
539.63
527.276
515.137
503.218
491.52
480.046
468.798
457.775
446.978
436.408
426.062
415.939