/*--------------------------------*- C++ -*----------------------------------*\
  =========                 |
  \\      /  F ield         | OpenFOAM: The Open Source CFD Toolbox
   \\    /   O peration     | Website:  https://openfoam.org
    \\  /    A nd           | Version:  8
     \\/     M anipulation  |
\*---------------------------------------------------------------------------*/
FoamFile
{
    version     2.0;
    format      ascii;
    class       volScalarField;
    location    "4500";
    object      k;
}
// * * * * * * * * * * * * * * * * * * * * * * * * * * * * * * * * * * * * * //

dimensions      [0 2 -2 0 0 0 0];

internalField   nonuniform List<scalar> 
46000
(
0.0347903
0.120849
0.210857
0.293481
0.371175
0.446098
0.519162
0.590651
0.660969
0.730421
0.799247
0.867591
0.9351
1.00204
1.06849
1.13446
1.19995
1.26492
1.32934
1.39317
1.45635
1.51885
1.58058
1.64149
1.70152
1.76059
1.81865
1.87561
1.93141
1.98599
2.03927
2.09119
2.14168
2.19068
2.23814
2.28399
2.32817
2.37064
2.41134
2.45022
2.48723
2.52232
2.55545
2.58653
2.61549
2.6422
2.6665
2.68812
2.7067
2.72176
2.73281
2.73943
2.74161
2.74002
2.73613
2.73194
2.72921
2.72872
2.73038
2.73378
2.7387
2.74491
2.75148
2.75669
2.75904
2.75767
2.75236
2.74344
2.73143
2.71687
2.70022
2.68181
2.66187
2.64057
2.61805
2.59439
2.5697
2.54404
2.51748
2.49009
2.46194
2.43309
2.40359
2.37351
2.34289
2.3118
2.28029
2.24842
2.21622
2.18376
2.15109
2.11824
2.08526
2.05219
2.01909
1.98598
1.95291
1.9199
1.88701
1.85424
1.82165
1.78925
1.75707
1.72515
1.69349
1.66212
1.63106
1.60033
1.56995
1.53993
1.51028
1.48101
1.45213
1.42366
1.39559
1.36794
1.34071
1.31389
1.2875
1.26154
1.236
1.21088
1.18618
1.16189
1.13803
1.11457
1.09151
1.06885
1.04659
1.02471
1.00321
0.982074
0.961304
0.940888
0.920817
0.901084
0.881678
0.86259
0.843813
0.825337
0.807153
0.789252
0.771625
0.754263
0.737158
0.720301
0.703684
0.687299
0.671138
0.655192
0.639456
0.623921
0.608581
0.593429
0.578458
0.563663
0.549037
0.534575
0.520271
0.506121
0.492119
0.478261
0.464542
0.450957
0.437503
0.424175
0.410969
0.397881
0.384913
0.372064
0.359321
0.34668
0.334136
0.321685
0.309323
0.297045
0.284846
0.272721
0.260663
0.248668
0.236728
0.224841
0.213005
0.201203
0.189425
0.177659
0.16589
0.154105
0.142283
0.130403
0.11844
0.106361
0.0941251
0.0816818
0.0689639
0.0558812
0.0423053
0.0281376
0.0136889
0.0028678
0.0347969
0.120858
0.210865
0.293488
0.37118
0.4461
0.519164
0.590653
0.66097
0.730422
0.799247
0.867592
0.9351
1.00204
1.06849
1.13446
1.19995
1.26491
1.32934
1.39317
1.45635
1.51884
1.58058
1.64149
1.70152
1.76059
1.81864
1.87561
1.93141
1.98598
2.03926
2.09118
2.14168
2.19068
2.23814
2.28398
2.32817
2.37063
2.41133
2.45021
2.48723
2.52232
2.55544
2.58653
2.61548
2.6422
2.6665
2.68811
2.70668
2.72174
2.73277
2.73937
2.74154
2.73993
2.73604
2.73186
2.72914
2.72867
2.73035
2.73377
2.73871
2.74494
2.75153
2.75674
2.75909
2.7577
2.75238
2.74345
2.73143
2.71687
2.70022
2.68181
2.66187
2.64057
2.61804
2.59439
2.56969
2.54403
2.51747
2.49009
2.46194
2.43308
2.40359
2.3735
2.34289
2.3118
2.28029
2.24841
2.21622
2.18376
2.15108
2.11823
2.08525
2.05219
2.01909
1.98598
1.9529
1.9199
1.887
1.85424
1.82165
1.78925
1.75707
1.72514
1.69348
1.66212
1.63106
1.60033
1.56995
1.53992
1.51027
1.481
1.45213
1.42365
1.39559
1.36794
1.3407
1.31389
1.2875
1.26153
1.23599
1.21087
1.18617
1.16189
1.13802
1.11456
1.09151
1.06885
1.04659
1.02471
1.0032
0.982072
0.961302
0.940886
0.920815
0.901081
0.881675
0.862588
0.843811
0.825335
0.807151
0.78925
0.771623
0.754261
0.737156
0.7203
0.703683
0.687297
0.671136
0.655191
0.639454
0.62392
0.608579
0.593427
0.578457
0.563661
0.549036
0.534574
0.52027
0.50612
0.492118
0.47826
0.464541
0.450956
0.437502
0.424174
0.410968
0.39788
0.384913
0.372063
0.35932
0.346679
0.334135
0.321684
0.309322
0.297044
0.284845
0.27272
0.260663
0.248667
0.236727
0.224841
0.213004
0.201203
0.189424
0.177658
0.16589
0.154104
0.142283
0.130403
0.11844
0.106361
0.0941249
0.0816817
0.0689638
0.0558811
0.0423053
0.0281377
0.0136889
0.0028678
0.120766
0.309879
0.445727
0.561208
0.665868
0.763587
0.856237
0.945194
1.03135
1.11532
1.19735
1.27781
1.35686
1.43469
1.51142
1.5871
1.66181
1.73554
1.80831
1.88011
1.9509
2.02067
2.08937
2.15696
2.22338
2.28859
2.35252
2.41512
2.47633
2.53608
2.59433
2.65101
2.70605
2.75941
2.81103
2.86085
2.90883
2.9549
2.99903
3.04117
3.08128
3.11929
3.15517
3.18886
3.22028
3.24933
3.27585
3.29964
3.32038
3.33768
3.3511
3.36028
3.36516
3.36626
3.36479
3.36251
3.36099
3.36102
3.36257
3.36529
3.369
3.37356
3.37819
3.38154
3.38222
3.37937
3.37276
3.36263
3.34945
3.3337
3.31577
3.29598
3.27455
3.25166
3.22743
3.20196
3.17535
3.14767
3.119
3.0894
3.05894
3.02769
2.99571
2.96306
2.92979
2.89597
2.86166
2.82691
2.79176
2.75629
2.72053
2.68454
2.64836
2.61204
2.57563
2.53916
2.50268
2.46623
2.42984
2.39355
2.35739
2.3214
2.28559
2.25001
2.21467
2.1796
2.14482
2.11035
2.07621
2.04242
2.00898
1.97593
1.94325
1.91097
1.8791
1.84764
1.8166
1.78597
1.75578
1.726
1.69666
1.66774
1.63925
1.61119
1.58354
1.55631
1.52949
1.50308
1.47706
1.45144
1.42621
1.40135
1.37686
1.35273
1.32895
1.30551
1.28241
1.25963
1.23716
1.21499
1.19311
1.17152
1.1502
1.12913
1.10832
1.08776
1.06742
1.0473
1.0274
1.0077
0.988195
0.968874
0.949728
0.93075
0.911931
0.893262
0.874736
0.856345
0.838081
0.819938
0.801906
0.783981
0.766153
0.748417
0.730765
0.713191
0.695686
0.678245
0.66086
0.643526
0.626235
0.608978
0.591745
0.574527
0.557314
0.540097
0.522863
0.5056
0.488295
0.470931
0.453491
0.435956
0.418307
0.400521
0.382566
0.364411
0.346016
0.327334
0.308311
0.288876
0.268947
0.248415
0.227139
0.204932
0.181529
0.156541
0.12935
0.0988238
0.0620332
0.0135754
0.120758
0.309875
0.445727
0.561209
0.665869
0.763587
0.856237
0.945194
1.03135
1.11532
1.19735
1.27781
1.35686
1.43469
1.51141
1.5871
1.6618
1.73554
1.80831
1.8801
1.9509
2.02067
2.08937
2.15695
2.22338
2.28858
2.35251
2.41511
2.47632
2.53608
2.59433
2.651
2.70605
2.75941
2.81103
2.86085
2.90882
2.9549
2.99903
3.04117
3.08127
3.11929
3.15517
3.18886
3.22028
3.24932
3.27585
3.29964
3.32037
3.33766
3.35107
3.36022
3.36509
3.36617
3.3647
3.36243
3.36094
3.36099
3.36255
3.36529
3.36902
3.3736
3.37825
3.38159
3.38226
3.37939
3.37277
3.36264
3.34945
3.33369
3.31576
3.29597
3.27455
3.25165
3.22742
3.20196
3.17534
3.14766
3.11899
3.08939
3.05894
3.02769
2.9957
2.96305
2.92979
2.89597
2.86165
2.8269
2.79176
2.75628
2.72052
2.68453
2.64835
2.61204
2.57562
2.53916
2.50268
2.46622
2.42984
2.39355
2.35739
2.32139
2.28559
2.25
2.21466
2.17959
2.14481
2.11034
2.07621
2.04241
2.00898
1.97592
1.94325
1.91097
1.8791
1.84764
1.81659
1.78597
1.75577
1.726
1.69666
1.66774
1.63925
1.61118
1.58354
1.55631
1.52949
1.50307
1.47706
1.45144
1.4262
1.40135
1.37686
1.35273
1.32895
1.30551
1.28241
1.25962
1.23715
1.21499
1.19311
1.17151
1.15019
1.12913
1.10832
1.08775
1.06742
1.0473
1.0274
1.0077
0.988193
0.968871
0.949726
0.930748
0.911928
0.89326
0.874734
0.856343
0.838079
0.819935
0.801904
0.783978
0.766151
0.748415
0.730763
0.713189
0.695684
0.678243
0.660858
0.643524
0.626233
0.608976
0.591743
0.574525
0.557313
0.540095
0.522862
0.505599
0.488293
0.470929
0.45349
0.435954
0.418306
0.400519
0.382565
0.36441
0.346015
0.327334
0.30831
0.288876
0.268946
0.248414
0.227139
0.204931
0.181529
0.156541
0.129349
0.0988237
0.0620332
0.0135754
0.21401
0.449804
0.609306
0.742075
0.862014
0.973804
1.07986
1.18161
1.27992
1.37547
1.4687
1.55994
1.64944
1.73736
1.82385
1.90899
1.99285
2.07545
2.15681
2.23693
2.3158
2.3934
2.46968
2.54461
2.61814
2.69022
2.7608
2.82983
2.89724
2.96299
3.027
3.08922
3.1496
3.20808
3.2646
3.31911
3.37157
3.42192
3.47011
3.5161
3.55984
3.6013
3.64042
3.67715
3.71142
3.74316
3.77223
3.79846
3.82164
3.84145
3.85759
3.86981
3.87812
3.88291
3.88508
3.88587
3.88643
3.88742
3.88893
3.89076
3.89277
3.89479
3.89624
3.89619
3.89364
3.88795
3.8789
3.86665
3.85151
3.83384
3.81398
3.79218
3.76863
3.7435
3.71691
3.68897
3.65976
3.62937
3.59787
3.56535
3.53187
3.4975
3.4623
3.42635
3.3897
3.35242
3.31457
3.27621
3.2374
3.1982
3.15865
3.11882
3.07876
3.03852
2.99814
2.95767
2.91716
2.87665
2.83618
2.79579
2.75552
2.71539
2.67545
2.63573
2.59625
2.55704
2.51812
2.47953
2.44127
2.40337
2.36584
2.32871
2.29198
2.25567
2.21978
2.18433
2.14933
2.11477
2.08066
2.04701
2.01382
1.98109
1.94881
1.91699
1.88562
1.85471
1.82423
1.79419
1.76459
1.73541
1.70664
1.67829
1.65033
1.62277
1.59558
1.56877
1.54231
1.51621
1.49044
1.465
1.43987
1.41505
1.39052
1.36628
1.3423
1.31858
1.29511
1.27188
1.24887
1.22608
1.20349
1.1811
1.15889
1.13686
1.11499
1.09327
1.0717
1.05027
1.02896
1.00777
0.986693
0.965716
0.944832
0.924033
0.90331
0.882654
0.862057
0.841511
0.821007
0.800537
0.780091
0.75966
0.739232
0.718796
0.69834
0.677852
0.657316
0.636719
0.616043
0.59527
0.574378
0.553346
0.532146
0.510751
0.489126
0.467231
0.445019
0.422435
0.399412
0.375869
0.351707
0.3268
0.300986
0.274047
0.245682
0.215438
0.182553
0.145424
0.0990338
0.0278045
0.214006
0.449801
0.609305
0.742074
0.862013
0.973803
1.07986
1.1816
1.27992
1.37547
1.4687
1.55994
1.64944
1.73736
1.82385
1.90899
1.99284
2.07544
2.15681
2.23693
2.3158
2.39339
2.46967
2.5446
2.61813
2.69022
2.7608
2.82983
2.89724
2.96298
3.02699
3.08922
3.1496
3.20807
3.2646
3.31911
3.37156
3.42191
3.4701
3.51609
3.55984
3.60129
3.64041
3.67714
3.71142
3.74315
3.77222
3.79846
3.82163
3.84144
3.85757
3.86979
3.87809
3.88288
3.88505
3.88586
3.88644
3.88745
3.88896
3.8908
3.89282
3.89484
3.89629
3.89623
3.89367
3.88796
3.87891
3.86665
3.8515
3.83384
3.81397
3.79217
3.76862
3.7435
3.71691
3.68896
3.65975
3.62936
3.59787
3.56534
3.53186
3.49749
3.4623
3.42634
3.38969
3.35242
3.31457
3.27621
3.2374
3.19819
3.15865
3.11882
3.07876
3.03851
2.99813
2.95766
2.91715
2.87664
2.83617
2.79578
2.75551
2.71539
2.67545
2.63572
2.59624
2.55703
2.51812
2.47952
2.44126
2.40336
2.36584
2.3287
2.29198
2.25566
2.21978
2.18433
2.14932
2.11476
2.08066
2.04701
2.01382
1.98108
1.94881
1.91699
1.88562
1.8547
1.82423
1.79419
1.76458
1.7354
1.70664
1.67829
1.65033
1.62276
1.59558
1.56877
1.54231
1.5162
1.49044
1.465
1.43987
1.41505
1.39052
1.36627
1.3423
1.31858
1.29511
1.27188
1.24887
1.22608
1.20349
1.1811
1.15889
1.13685
1.11498
1.09327
1.0717
1.05026
1.02896
1.00777
0.98669
0.965714
0.94483
0.924031
0.903307
0.882652
0.862055
0.841509
0.821005
0.800535
0.780089
0.759658
0.73923
0.718794
0.698339
0.67785
0.657315
0.636717
0.616041
0.595268
0.574377
0.553344
0.532144
0.510749
0.489125
0.46723
0.445018
0.422434
0.399411
0.375868
0.351706
0.326799
0.300985
0.274046
0.245681
0.215437
0.182553
0.145424
0.0990339
0.0278046
0.301841
0.571826
0.748987
0.894036
1.02448
1.14607
1.26159
1.37261
1.48005
1.58457
1.68661
1.78648
1.88443
1.98063
2.07521
2.16826
2.25982
2.34995
2.43865
2.52592
2.61176
2.69612
2.77899
2.86033
2.94008
3.01819
3.09462
3.16931
3.24219
3.31322
3.38234
3.44948
3.51458
3.5776
3.63847
3.69715
3.75358
3.80772
3.85951
3.90891
3.95589
4.00038
4.04237
4.08178
4.11857
4.15268
4.184
4.21242
4.23779
4.25991
4.27861
4.29377
4.30543
4.31389
4.31972
4.32367
4.32647
4.32854
4.33003
4.3309
4.33107
4.33038
4.32845
4.32473
4.31864
4.30979
4.29804
4.28344
4.2662
4.24655
4.22472
4.20091
4.17528
4.14798
4.11912
4.0888
4.05711
4.02415
3.98998
3.9547
3.91837
3.88107
3.84287
3.80383
3.76403
3.72353
3.68241
3.64071
3.59851
3.55587
3.51285
3.4695
3.42588
3.38204
3.33804
3.29394
3.24976
3.20558
3.16141
3.11732
3.07334
3.02951
2.98586
2.94243
2.89924
2.85634
2.81374
2.77147
2.72956
2.68803
2.64689
2.60616
2.56586
2.526
2.4866
2.44766
2.40919
2.3712
2.3337
2.29668
2.26016
2.22412
2.18858
2.15353
2.11896
2.08488
2.05127
2.01814
1.98547
1.95326
1.9215
1.89018
1.8593
1.82883
1.79878
1.76912
1.73986
1.71097
1.68245
1.65428
1.62646
1.59896
1.57178
1.5449
1.51832
1.49201
1.46598
1.44019
1.41465
1.38935
1.36426
1.33938
1.31469
1.2902
1.26587
1.24172
1.21771
1.19385
1.17013
1.14653
1.12304
1.09966
1.07637
1.05317
1.03004
1.00699
0.983988
0.961037
0.938125
0.915241
0.892376
0.869519
0.846657
0.823779
0.80087
0.777918
0.754906
0.731819
0.708638
0.685343
0.661912
0.63832
0.614539
0.590538
0.566282
0.541728
0.516826
0.491518
0.465735
0.439393
0.412387
0.38459
0.355831
0.325885
0.29443
0.26096
0.224558
0.183123
0.129895
0.041774
0.301841
0.571825
0.748986
0.894034
1.02448
1.14606
1.26159
1.37261
1.48005
1.58457
1.6866
1.78648
1.88443
1.98063
2.07521
2.16825
2.25982
2.34995
2.43865
2.52592
2.61175
2.69612
2.77899
2.86032
2.94007
3.01819
3.09462
3.1693
3.24219
3.31322
3.38233
3.44947
3.51458
3.57759
3.63847
3.69715
3.75358
3.80771
3.8595
3.90891
3.95588
4.00038
4.04236
4.08177
4.11857
4.15267
4.184
4.21242
4.23778
4.2599
4.2786
4.29376
4.30543
4.31389
4.31973
4.3237
4.3265
4.32858
4.33007
4.33095
4.33111
4.33041
4.32848
4.32475
4.31865
4.3098
4.29803
4.28343
4.26619
4.24654
4.22471
4.2009
4.17528
4.14797
4.11911
4.08879
4.0571
4.02414
3.98998
3.9547
3.91837
3.88106
3.84286
3.80382
3.76403
3.72353
3.6824
3.64071
3.59851
3.55586
3.51284
3.46949
3.42587
3.38204
3.33804
3.29393
3.24976
3.20557
3.16141
3.11732
3.07334
3.0295
2.98585
2.94242
2.89924
2.85633
2.81374
2.77147
2.72956
2.68802
2.64688
2.60615
2.56586
2.526
2.48659
2.44766
2.40919
2.3712
2.3337
2.29668
2.26015
2.22412
2.18858
2.15352
2.11896
2.08487
2.05127
2.01813
1.98547
1.95326
1.9215
1.89018
1.85929
1.82883
1.79877
1.76912
1.73986
1.71097
1.68245
1.65428
1.62645
1.59896
1.57178
1.5449
1.51832
1.49201
1.46597
1.44019
1.41465
1.38934
1.36425
1.33937
1.31469
1.29019
1.26587
1.24171
1.21771
1.19385
1.17013
1.14652
1.12304
1.09965
1.07637
1.05317
1.03004
1.00699
0.983986
0.961036
0.938123
0.915239
0.892374
0.869517
0.846655
0.823777
0.800869
0.777916
0.754905
0.731817
0.708636
0.685341
0.66191
0.638318
0.614537
0.590537
0.566281
0.541727
0.516825
0.491517
0.465734
0.439392
0.412387
0.384589
0.35583
0.325885
0.29443
0.26096
0.224558
0.183123
0.129895
0.0417741
0.385974
0.684195
0.877194
1.033
1.17207
1.30154
1.42466
1.54313
1.65796
1.76979
1.87908
1.98612
2.09115
2.19431
2.29574
2.39549
2.49364
2.5902
2.68518
2.77859
2.8704
2.9606
3.04913
3.13597
3.22107
3.30437
3.38582
3.46537
3.54295
3.61851
3.69199
3.76333
3.83248
3.89937
3.96395
4.02617
4.08597
4.14332
4.19815
4.25044
4.30013
4.34718
4.39156
4.43322
4.47212
4.5082
4.5414
4.57164
4.59883
4.62287
4.64368
4.66122
4.67557
4.68692
4.6956
4.70201
4.70654
4.70947
4.71093
4.71096
4.70954
4.70656
4.70182
4.69503
4.68592
4.6743
4.66009
4.64332
4.62411
4.60258
4.57891
4.55323
4.52569
4.49639
4.46546
4.43299
4.39906
4.36378
4.32722
4.28946
4.25058
4.21066
4.16977
4.12798
4.08538
4.04201
3.99797
3.95331
3.90811
3.86242
3.81631
3.76984
3.72307
3.67606
3.62887
3.58154
3.53414
3.48671
3.43929
3.39193
3.34468
3.29758
3.25067
3.20397
3.15753
3.11138
3.06554
3.02005
2.97493
2.9302
2.88589
2.84201
2.79858
2.75561
2.71313
2.67113
2.62963
2.58864
2.54816
2.50819
2.46875
2.42983
2.39143
2.35355
2.31619
2.27934
2.243
2.20717
2.17183
2.13697
2.1026
2.0687
2.03527
2.00228
1.96973
1.93761
1.9059
1.8746
1.84369
1.81316
1.78299
1.75318
1.7237
1.69455
1.66571
1.63717
1.60892
1.58094
1.55322
1.52575
1.49851
1.4715
1.44469
1.41809
1.39167
1.36543
1.33935
1.31342
1.28764
1.26198
1.23645
1.21103
1.18571
1.16048
1.13533
1.11025
1.08523
1.06026
1.03533
1.01043
0.985539
0.96066
0.935773
0.910867
0.885928
0.860939
0.835887
0.810753
0.785519
0.760164
0.734666
0.708999
0.683134
0.65704
0.63068
0.604011
0.576983
0.549538
0.521605
0.493101
0.463919
0.433929
0.402956
0.370762
0.336992
0.301064
0.261865
0.216785
0.157555
0.0552919
0.385976
0.684194
0.877193
1.033
1.17207
1.30154
1.42465
1.54312
1.65795
1.76979
1.87908
1.98612
2.09115
2.19431
2.29573
2.39549
2.49363
2.59019
2.68518
2.77859
2.8704
2.96059
3.04913
3.13597
3.22106
3.30436
3.38582
3.46536
3.54295
3.61851
3.69199
3.76333
3.83247
3.89936
3.96394
4.02616
4.08597
4.14331
4.19815
4.25043
4.30012
4.34718
4.39156
4.43322
4.47212
4.50819
4.54139
4.57163
4.59882
4.62287
4.64368
4.66122
4.67557
4.68692
4.69561
4.70202
4.70656
4.70948
4.71094
4.71098
4.70955
4.70657
4.70182
4.69503
4.68592
4.6743
4.66009
4.64332
4.6241
4.60258
4.5789
4.55323
4.52568
4.49639
4.46546
4.43298
4.39906
4.36378
4.32721
4.28945
4.25058
4.21065
4.16976
4.12798
4.08537
4.04201
3.99797
3.95331
3.9081
3.86241
3.8163
3.76983
3.72307
3.67606
3.62886
3.58154
3.53413
3.4867
3.43928
3.39193
3.34468
3.29758
3.25066
3.20397
3.15753
3.11137
3.06554
3.02005
2.97493
2.9302
2.88589
2.842
2.79857
2.75561
2.71312
2.67112
2.62963
2.58863
2.54815
2.50819
2.46875
2.42983
2.39143
2.35355
2.31619
2.27934
2.243
2.20716
2.17182
2.13697
2.1026
2.0687
2.03526
2.00227
1.96973
1.9376
1.9059
1.8746
1.84369
1.81316
1.78299
1.75317
1.7237
1.69455
1.66571
1.63717
1.60892
1.58094
1.55322
1.52575
1.49851
1.4715
1.44469
1.41809
1.39167
1.36542
1.33935
1.31342
1.28763
1.26198
1.23645
1.21103
1.18571
1.16048
1.13533
1.11025
1.08523
1.06026
1.03533
1.01042
0.985538
0.960658
0.935772
0.910866
0.885926
0.860938
0.835886
0.810752
0.785518
0.760163
0.734665
0.708998
0.683133
0.657039
0.630679
0.60401
0.576982
0.549537
0.521605
0.4931
0.463919
0.433929
0.402956
0.370762
0.336992
0.301064
0.261865
0.216785
0.157556
0.055292
0.468059
0.790256
0.997997
1.16407
1.31124
1.44786
1.57769
1.70266
1.82389
1.94206
2.05763
2.17089
2.28206
2.39129
2.49869
2.60431
2.7082
2.81038
2.91086
3.00963
3.10666
3.20193
3.2954
3.38703
3.47676
3.56455
3.65033
3.73407
3.81569
3.89513
3.97234
4.04727
4.11984
4.19001
4.25772
4.32292
4.38556
4.44559
4.50296
4.55763
4.60957
4.65873
4.70508
4.74858
4.78918
4.82686
4.86157
4.89326
4.92188
4.94739
4.96976
4.98901
5.0052
5.01845
5.02896
5.03692
5.04252
5.04595
5.04731
5.04667
5.04404
5.03938
5.03259
5.02356
5.01218
4.99839
4.98217
4.96354
4.94257
4.91935
4.894
4.86663
4.83734
4.80625
4.77345
4.73904
4.70312
4.66577
4.62707
4.58711
4.54597
4.50372
4.46045
4.41623
4.37114
4.32524
4.27862
4.23135
4.18348
4.1351
4.08627
4.03705
3.9875
3.93769
3.88767
3.83751
3.78725
3.73694
3.68665
3.63641
3.58627
3.53628
3.48647
3.43689
3.38757
3.33854
3.28983
3.24148
3.19352
3.14596
3.09883
3.05214
3.00593
2.9602
2.91497
2.87025
2.82605
2.78238
2.73925
2.69666
2.65462
2.61312
2.57217
2.53176
2.4919
2.45258
2.4138
2.37554
2.33781
2.30059
2.26388
2.22767
2.19194
2.15669
2.1219
2.08757
2.05367
2.0202
1.98715
1.95449
1.92222
1.89033
1.85879
1.8276
1.79674
1.7662
1.73596
1.70601
1.67633
1.64692
1.61776
1.58883
1.56013
1.53164
1.50335
1.47524
1.4473
1.41953
1.39191
1.36443
1.33708
1.30985
1.28272
1.25568
1.22874
1.20186
1.17505
1.14829
1.12158
1.09489
1.06822
1.04156
1.0149
0.98821
0.96149
0.934721
0.907886
0.880968
0.853949
0.826807
0.799521
0.772063
0.744405
0.716515
0.688358
0.65989
0.631062
0.601814
0.572077
0.541765
0.510772
0.478961
0.446147
0.412071
0.376333
0.338253
0.296512
0.248012
0.183199
0.0684974
0.468061
0.790256
0.997995
1.16407
1.31124
1.44786
1.57769
1.70266
1.82389
1.94206
2.05762
2.17089
2.28206
2.39129
2.49868
2.60431
2.7082
2.81038
2.91086
3.00963
3.10666
3.20193
3.2954
3.38702
3.47675
3.56454
3.65033
3.73406
3.81568
3.89513
3.97234
4.04726
4.11984
4.19001
4.25772
4.32291
4.38555
4.44558
4.50295
4.55763
4.60957
4.65873
4.70508
4.74857
4.78918
4.82686
4.86156
4.89325
4.92187
4.94738
4.96976
4.98901
5.0052
5.01845
5.02896
5.03691
5.04252
5.04595
5.04731
5.04667
5.04404
5.03937
5.03258
5.02355
5.01217
4.99838
4.98216
4.96353
4.94256
4.91935
4.894
4.86662
4.83733
4.80624
4.77344
4.73904
4.70312
4.66576
4.62707
4.5871
4.54596
4.50372
4.46045
4.41623
4.37113
4.32524
4.27862
4.23134
4.18348
4.1351
4.08626
4.03704
3.9875
3.93768
3.88767
3.8375
3.78724
3.73694
3.68665
3.63641
3.58627
3.53628
3.48647
3.43689
3.38756
3.33853
3.28983
3.24148
3.19351
3.14595
3.09882
3.05214
3.00593
2.9602
2.91497
2.87025
2.82605
2.78238
2.73925
2.69666
2.65461
2.61311
2.57216
2.53176
2.4919
2.45258
2.41379
2.37554
2.33781
2.30059
2.26388
2.22767
2.19194
2.15669
2.1219
2.08756
2.05367
2.0202
1.98715
1.95449
1.92222
1.89033
1.85879
1.8276
1.79674
1.7662
1.73596
1.70601
1.67633
1.64692
1.61776
1.58883
1.56013
1.53164
1.50334
1.47524
1.4473
1.41953
1.39191
1.36443
1.33708
1.30984
1.28272
1.25568
1.22873
1.20186
1.17505
1.14829
1.12158
1.09489
1.06822
1.04156
1.0149
0.988209
0.961489
0.934719
0.907885
0.880967
0.853948
0.826807
0.79952
0.772062
0.744404
0.716515
0.688357
0.659889
0.631061
0.601813
0.572076
0.541765
0.510772
0.47896
0.446147
0.412071
0.376333
0.338254
0.296512
0.248012
0.183199
0.0684976
0.548495
0.891722
1.11366
1.2898
1.44494
1.58847
1.72462
1.85562
1.9827
2.10663
2.22786
2.34672
2.46342
2.5781
2.69084
2.80171
2.91074
3.01794
3.12332
3.22685
3.32851
3.42827
3.52609
3.62192
3.71571
3.80742
3.89698
3.98434
4.06944
4.15222
4.23263
4.31061
4.38609
4.45903
4.52937
4.59707
4.66206
4.72431
4.78377
4.84041
4.89418
4.94504
4.99297
5.03793
5.07989
5.11883
5.1547
5.18749
5.21718
5.24374
5.26718
5.28753
5.30485
5.31921
5.33071
5.33948
5.34561
5.34922
5.35039
5.34919
5.34566
5.33978
5.33155
5.32092
5.30789
5.29245
5.27461
5.25442
5.23193
5.20721
5.18034
5.15143
5.12057
5.08786
5.05339
5.01726
4.97955
4.94036
4.89976
4.85784
4.8147
4.77039
4.72501
4.67864
4.63135
4.58322
4.53432
4.48473
4.43452
4.38376
4.33252
4.28086
4.22886
4.17657
4.12405
4.07137
4.01858
3.96573
3.91288
3.86008
3.80738
3.75481
3.70243
3.65027
3.59838
3.54678
3.49551
3.44461
3.39409
3.34399
3.29433
3.24514
3.19642
3.14821
3.10051
3.05333
3.0067
2.96061
2.91508
2.87011
2.82571
2.78187
2.7386
2.6959
2.65377
2.6122
2.57119
2.53072
2.49081
2.45143
2.41258
2.37425
2.33642
2.2991
2.26225
2.22589
2.18998
2.15452
2.11949
2.08488
2.05068
2.01687
1.98343
1.95036
1.91763
1.88524
1.85317
1.8214
1.78992
1.75872
1.72779
1.6971
1.66664
1.63641
1.60639
1.57656
1.54692
1.51745
1.48814
1.45897
1.42994
1.40104
1.37225
1.34356
1.31496
1.28644
1.25799
1.22959
1.20124
1.17293
1.14463
1.11635
1.08805
1.05975
1.03141
1.00302
0.974565
0.946031
0.917397
0.888641
0.859742
0.830673
0.801406
0.771908
0.742145
0.712074
0.681644
0.650797
0.619462
0.587552
0.554955
0.521526
0.487067
0.451287
0.413732
0.373618
0.329418
0.277595
0.207479
0.0815263
0.548496
0.891722
1.11366
1.2898
1.44494
1.58846
1.72462
1.85562
1.9827
2.10662
2.22786
2.34672
2.46342
2.5781
2.69084
2.80171
2.91074
3.01794
3.12332
3.22685
3.32851
3.42827
3.52608
3.62191
3.71571
3.80741
3.89697
3.98433
4.06944
4.15222
4.23263
4.3106
4.38609
4.45903
4.52937
4.59706
4.66206
4.72431
4.78377
4.8404
4.89417
4.94504
4.99296
5.03792
5.07989
5.11882
5.1547
5.18749
5.21717
5.24374
5.26718
5.28753
5.30484
5.3192
5.33071
5.33947
5.3456
5.3492
5.35038
5.34918
5.34564
5.33977
5.33153
5.32091
5.30788
5.29244
5.27461
5.25442
5.23192
5.2072
5.18034
5.15143
5.12057
5.08786
5.05339
5.01725
4.97955
4.94035
4.89975
4.85784
4.81469
4.77039
4.72501
4.67864
4.63135
4.58322
4.53432
4.48473
4.43452
4.38376
4.33251
4.28086
4.22885
4.17656
4.12405
4.07136
4.01857
3.96573
3.91288
3.86008
3.80737
3.75481
3.70243
3.65027
3.59837
3.54678
3.49551
3.4446
3.39409
3.34399
3.29433
3.24513
3.19642
3.1482
3.1005
3.05333
3.00669
2.96061
2.91508
2.87011
2.8257
2.78187
2.7386
2.6959
2.65377
2.6122
2.57118
2.53072
2.4908
2.45143
2.41258
2.37424
2.33642
2.29909
2.26225
2.22588
2.18998
2.15451
2.11949
2.08488
2.05068
2.01686
1.98343
1.95036
1.91763
1.88524
1.85317
1.8214
1.78992
1.75872
1.72778
1.69709
1.66664
1.63641
1.60639
1.57656
1.54692
1.51745
1.48813
1.45897
1.42994
1.40104
1.37225
1.34356
1.31496
1.28644
1.25799
1.22959
1.20124
1.17293
1.14463
1.11634
1.08805
1.05975
1.0314
1.00302
0.974564
0.94603
0.917396
0.88864
0.859741
0.830672
0.801405
0.771908
0.742145
0.712073
0.681643
0.650797
0.619462
0.587551
0.554955
0.521526
0.487067
0.451287
0.413732
0.373618
0.329418
0.277596
0.207479
0.0815266
0.627633
0.989915
1.22558
1.41169
1.57482
1.7252
1.86756
2.00437
2.13702
2.26636
2.39289
2.51694
2.63874
2.75842
2.87607
2.99174
3.10545
3.21721
3.32701
3.43484
3.54066
3.64444
3.74614
3.84571
3.94309
4.03825
4.13111
4.22163
4.30975
4.39541
4.47855
4.55913
4.63708
4.71235
4.78489
4.85465
4.92159
4.98565
5.04681
5.10502
5.16025
5.21246
5.26162
5.30772
5.35071
5.39059
5.42733
5.46092
5.49134
5.51861
5.54272
5.56372
5.58164
5.59655
5.60852
5.6176
5.62387
5.62742
5.6283
5.62659
5.62232
5.61552
5.60621
5.59439
5.58009
5.56334
5.54419
5.52267
5.49885
5.47279
5.44457
5.41428
5.382
5.34784
5.31187
5.27419
5.23489
5.19406
5.15178
5.10813
5.0632
5.01708
4.96984
4.92156
4.87233
4.82222
4.77131
4.71968
4.66739
4.61453
4.56116
4.50735
4.45316
4.39867
4.34394
4.28903
4.23399
4.17888
4.12376
4.06867
4.01368
3.95881
3.90413
3.84967
3.79547
3.74156
3.68799
3.63478
3.58197
3.52958
3.47763
3.42616
3.37518
3.32471
3.27476
3.22535
3.1765
3.1282
3.08048
3.03333
2.98676
2.94078
2.89539
2.85057
2.80634
2.7627
2.71962
2.67712
2.63518
2.59379
2.55296
2.51265
2.47288
2.43362
2.39486
2.3566
2.31881
2.28148
2.24461
2.20817
2.17215
2.13654
2.10133
2.06649
2.03201
1.99788
1.96408
1.93061
1.89743
1.86454
1.83193
1.79958
1.76748
1.73561
1.70395
1.67251
1.64125
1.61018
1.57928
1.54853
1.51792
1.48745
1.45709
1.42684
1.39669
1.36663
1.33663
1.3067
1.27681
1.24697
1.21714
1.18733
1.15752
1.1277
1.09784
1.06794
1.03798
1.00794
0.977802
0.947546
0.917149
0.886585
0.855828
0.824843
0.793597
0.762045
0.730139
0.697818
0.665009
0.631621
0.597537
0.562599
0.52659
0.489184
0.449867
0.407752
0.361115
0.30602
0.230806
0.0944749
0.627635
0.989914
1.22558
1.41169
1.57482
1.7252
1.86756
2.00437
2.13702
2.26635
2.39288
2.51694
2.63874
2.75842
2.87607
2.99173
3.10544
3.21721
3.32701
3.43484
3.54066
3.64444
3.74614
3.8457
3.94309
4.03824
4.13111
4.22163
4.30974
4.3954
4.47855
4.55912
4.63707
4.71234
4.78488
4.85465
4.92158
4.98565
5.04681
5.10502
5.16024
5.21245
5.26162
5.30771
5.35071
5.39059
5.42733
5.46091
5.49134
5.5186
5.54272
5.56371
5.58164
5.59655
5.60851
5.61759
5.62386
5.62741
5.62829
5.62658
5.62231
5.61551
5.6062
5.59438
5.58008
5.56334
5.54418
5.52267
5.49884
5.47278
5.44456
5.41427
5.382
5.34783
5.31187
5.27419
5.23489
5.19406
5.15177
5.10812
5.0632
5.01707
4.96983
4.92156
4.87233
4.82222
4.77131
4.71967
4.66739
4.61452
4.56115
4.50734
4.45316
4.39867
4.34394
4.28902
4.23398
4.17887
4.12375
4.06867
4.01367
3.95881
3.90413
3.84966
3.79546
3.74156
3.68799
3.63478
3.58197
3.52958
3.47763
3.42616
3.37518
3.3247
3.27476
3.22535
3.17649
3.1282
3.08048
3.03333
2.98676
2.94078
2.89538
2.85057
2.80634
2.76269
2.71962
2.67712
2.63518
2.59379
2.55295
2.51265
2.47288
2.43362
2.39486
2.35659
2.31881
2.28148
2.24461
2.20817
2.17215
2.13654
2.10133
2.06649
2.03201
1.99788
1.96408
1.9306
1.89743
1.86454
1.83193
1.79958
1.76748
1.7356
1.70395
1.67251
1.64125
1.61018
1.57928
1.54853
1.51792
1.48745
1.45709
1.42684
1.39669
1.36662
1.33663
1.3067
1.27681
1.24697
1.21714
1.18733
1.15752
1.1277
1.09784
1.06794
1.03798
1.00794
0.977801
0.947545
0.917148
0.886585
0.855827
0.824843
0.793596
0.762045
0.730139
0.697818
0.665009
0.631621
0.597537
0.562599
0.52659
0.489184
0.449868
0.407752
0.361115
0.30602
0.230807
0.0944753
0.705957
1.08578
1.33465
1.53074
1.70193
1.85922
2.00777
2.15032
2.28841
2.42297
2.55456
2.68355
2.81016
2.93454
3.05677
3.17689
3.29494
3.4109
3.52477
3.63653
3.74613
3.85355
3.95874
4.06166
4.16224
4.26045
4.35622
4.44951
4.54025
4.62839
4.71388
4.79666
4.87668
4.9539
5.02826
5.09972
5.16823
5.23376
5.29626
5.3557
5.41206
5.46529
5.51538
5.56231
5.60605
5.64659
5.68392
5.71803
5.74891
5.77659
5.80107
5.82238
5.84057
5.85567
5.86774
5.87683
5.883
5.88631
5.88682
5.88459
5.87966
5.87207
5.86186
5.84906
5.83372
5.81588
5.7956
5.77293
5.74793
5.72068
5.69124
5.65971
5.62616
5.59069
5.55338
5.51433
5.47361
5.43132
5.38754
5.34236
5.29586
5.24813
5.19924
5.14929
5.09834
5.04649
4.99381
4.94037
4.88625
4.83153
4.77628
4.72056
4.66445
4.60801
4.55132
4.49442
4.43738
4.38025
4.32311
4.26598
4.20894
4.15202
4.09527
4.03874
3.98246
3.92648
3.87082
3.81554
3.76064
3.70617
3.65215
3.59861
3.54556
3.49302
3.44102
3.38956
3.33866
3.28834
3.2386
3.18944
3.14087
3.0929
3.04553
2.99875
2.95257
2.90699
2.86199
2.81758
2.77374
2.73048
2.68777
2.64562
2.60401
2.56292
2.52236
2.4823
2.44273
2.40364
2.36501
2.32684
2.2891
2.25178
2.21486
2.17834
2.14219
2.1064
2.07096
2.03585
2.00105
1.96655
1.93234
1.8984
1.86471
1.83127
1.79806
1.76506
1.73226
1.69966
1.66723
1.63496
1.60284
1.57086
1.53901
1.50727
1.47563
1.44408
1.41261
1.3812
1.34985
1.31854
1.28726
1.25599
1.22473
1.19346
1.16216
1.13082
1.09942
1.06794
1.03637
1.00469
0.97287
0.940888
0.908716
0.876321
0.843667
0.810712
0.777405
0.743683
0.709471
0.674672
0.63916
0.602764
0.565241
0.526232
0.485162
0.441039
0.391958
0.333618
0.253465
0.107419
0.705957
1.08578
1.33465
1.53073
1.70193
1.85921
2.00777
2.15032
2.28841
2.42296
2.55456
2.68355
2.81016
2.93454
3.05676
3.17689
3.29493
3.4109
3.52477
3.63652
3.74613
3.85355
3.95874
4.06165
4.16224
4.26045
4.35622
4.4495
4.54024
4.62838
4.71387
4.79666
4.87668
4.9539
5.02826
5.09972
5.16823
5.23375
5.29626
5.3557
5.41205
5.46529
5.51538
5.56231
5.60605
5.64659
5.68391
5.71802
5.74891
5.77659
5.80107
5.82238
5.84056
5.85566
5.86773
5.87683
5.883
5.88631
5.88682
5.88458
5.87965
5.87206
5.86185
5.84906
5.83372
5.81588
5.7956
5.77293
5.74793
5.72067
5.69124
5.6597
5.62616
5.59069
5.55338
5.51432
5.47361
5.43131
5.38754
5.34235
5.29586
5.24812
5.19924
5.14928
5.09834
5.04649
4.9938
4.94037
4.88625
4.83153
4.77627
4.72056
4.66445
4.60801
4.55131
4.49441
4.43737
4.38025
4.3231
4.26598
4.20894
4.15202
4.09527
4.03873
3.98246
3.92647
3.87082
3.81553
3.76064
3.70617
3.65215
3.5986
3.54555
3.49302
3.44101
3.38956
3.33866
3.28834
3.23859
3.18943
3.14087
3.0929
3.04553
2.99875
2.95257
2.90699
2.86199
2.81758
2.77374
2.73048
2.68777
2.64562
2.604
2.56292
2.52236
2.4823
2.44273
2.40364
2.36501
2.32684
2.28909
2.25177
2.21486
2.17834
2.14219
2.1064
2.07096
2.03584
2.00105
1.96655
1.93234
1.8984
1.86471
1.83127
1.79806
1.76506
1.73226
1.69966
1.66722
1.63496
1.60284
1.57086
1.53901
1.50726
1.47563
1.44408
1.41261
1.3812
1.34985
1.31854
1.28726
1.25599
1.22473
1.19346
1.16216
1.13081
1.09942
1.06794
1.03637
1.00469
0.97287
0.940888
0.908715
0.876321
0.843667
0.810712
0.777405
0.743683
0.709471
0.674672
0.63916
0.602764
0.565241
0.526233
0.485162
0.44104
0.391958
0.333619
0.253466
0.107419
0.783858
1.17997
1.44166
1.64769
1.82702
1.9913
2.1461
2.29439
2.43788
2.57757
2.7141
2.84786
2.97909
3.10794
3.23451
3.35884
3.48095
3.60084