/*--------------------------------*- C++ -*----------------------------------*\
  =========                 |
  \\      /  F ield         | OpenFOAM: The Open Source CFD Toolbox
   \\    /   O peration     | Website:  https://openfoam.org
    \\  /    A nd           | Version:  8
     \\/     M anipulation  |
\*---------------------------------------------------------------------------*/
FoamFile
{
    version     2.0;
    format      ascii;
    class       volScalarField;
    location    "4500";
    object      nut;
}
// * * * * * * * * * * * * * * * * * * * * * * * * * * * * * * * * * * * * * //

dimensions      [0 2 -1 0 0 0 0];

internalField   nonuniform List<scalar> 
46000
(
2.48853e-06
9.07915e-06
1.58442e-05
2.20525e-05
2.78899e-05
3.35191e-05
3.90088e-05
4.43802e-05
4.96636e-05
5.48819e-05
6.00532e-05
6.51884e-05
7.02606e-05
7.52905e-05
8.02832e-05
8.524e-05
9.016e-05
9.50415e-05
9.98818e-05
0.000104678
0.000109425
0.000114121
0.000118759
0.000123336
0.000127846
0.000132284
0.000136646
0.000140926
0.000145119
0.000149219
0.000153223
0.000157124
0.000160917
0.000164599
0.000168165
0.00017161
0.000174929
0.00017812
0.000181178
0.000184099
0.00018688
0.000189516
0.000192004
0.000194338
0.000196511
0.000198515
0.000200336
0.000201956
0.000203351
0.000204495
0.000205363
0.000205947
0.000206263
0.000206365
0.000206338
0.00020627
0.000206228
0.000206255
0.000206371
0.000206576
0.000206855
0.000207163
0.000207432
0.000207584
0.000207561
0.000207323
0.000206849
0.000206144
0.000205229
0.000204133
0.000202882
0.000201501
0.000200004
0.000198405
0.000196713
0.000194936
0.000193081
0.000191154
0.000189159
0.000187101
0.000184987
0.000182819
0.000180603
0.000178342
0.000176042
0.000173707
0.000171339
0.000168945
0.000166526
0.000164087
0.000161632
0.000159164
0.000156686
0.000154202
0.000151715
0.000149227
0.000146742
0.000144263
0.000141791
0.00013933
0.000136881
0.000134446
0.000132029
0.00012963
0.000127251
0.000124894
0.000122561
0.000120252
0.000117969
0.000115714
0.000113486
0.000111287
0.000109117
0.000106977
0.000104869
0.000102791
0.000100745
9.873e-05
9.67471e-05
9.47961e-05
9.28769e-05
9.09894e-05
8.91335e-05
8.7309e-05
8.55156e-05
8.37528e-05
8.20205e-05
8.0318e-05
7.8645e-05
7.70009e-05
7.53852e-05
7.37973e-05
7.22366e-05
7.07026e-05
6.91944e-05
6.77116e-05
6.62534e-05
6.48192e-05
6.34082e-05
6.20199e-05
6.06535e-05
5.93084e-05
5.79838e-05
5.66792e-05
5.53939e-05
5.41272e-05
5.28786e-05
5.16473e-05
5.04329e-05
4.92348e-05
4.80523e-05
4.6885e-05
4.57322e-05
4.45937e-05
4.34687e-05
4.2357e-05
4.12579e-05
4.01712e-05
3.90964e-05
3.80331e-05
3.6981e-05
3.59396e-05
3.49087e-05
3.38879e-05
3.28769e-05
3.18754e-05
3.0883e-05
2.98996e-05
2.89251e-05
2.79595e-05
2.7002e-05
2.60521e-05
2.51095e-05
2.41739e-05
2.32449e-05
2.23223e-05
2.14056e-05
2.04945e-05
1.95884e-05
1.8687e-05
1.77897e-05
1.68965e-05
1.60071e-05
1.51202e-05
1.42351e-05
1.33509e-05
1.24666e-05
1.15809e-05
1.06925e-05
9.79982e-06
8.9008e-06
7.99304e-06
7.07354e-06
6.13844e-06
5.1827e-06
4.19954e-06
3.17931e-06
2.11462e-06
1.02879e-06
2.04734e-07
2.48721e-06
9.07645e-06
1.5842e-05
2.20518e-05
2.78899e-05
3.35193e-05
3.9009e-05
4.43803e-05
4.96637e-05
5.4882e-05
6.00533e-05
6.51884e-05
7.02607e-05
7.52905e-05
8.02832e-05
8.52399e-05
9.016e-05
9.50415e-05
9.98818e-05
0.000104678
0.000109425
0.000114121
0.000118759
0.000123336
0.000127846
0.000132284
0.000136646
0.000140926
0.000145119
0.000149219
0.000153223
0.000157123
0.000160917
0.000164599
0.000168165
0.000171609
0.000174929
0.00017812
0.000181178
0.000184099
0.000186879
0.000189516
0.000192003
0.000194337
0.000196511
0.000198515
0.000200336
0.000201956
0.00020335
0.000204493
0.000205361
0.000205943
0.000206258
0.000206361
0.000206334
0.000206265
0.000206225
0.000206253
0.00020637
0.000206576
0.000206856
0.000207165
0.000207435
0.000207587
0.000207564
0.000207325
0.00020685
0.000206144
0.000205229
0.000204132
0.000202882
0.0002015
0.000200003
0.000198404
0.000196713
0.000194936
0.000193081
0.000191153
0.000189158
0.000187101
0.000184986
0.000182818
0.000180602
0.000178342
0.000176042
0.000173706
0.000171339
0.000168944
0.000166526
0.000164087
0.000161632
0.000159164
0.000156686
0.000154202
0.000151715
0.000149227
0.000146742
0.000144263
0.000141791
0.000139329
0.00013688
0.000134446
0.000132029
0.00012963
0.000127251
0.000124894
0.000122561
0.000120252
0.000117969
0.000115713
0.000113485
0.000111286
0.000109117
0.000106977
0.000104868
0.000102791
0.000100744
9.87298e-05
9.67469e-05
9.47959e-05
9.28767e-05
9.09892e-05
8.91333e-05
8.73088e-05
8.55154e-05
8.37526e-05
8.20203e-05
8.03178e-05
7.86448e-05
7.70007e-05
7.5385e-05
7.37972e-05
7.22365e-05
7.07024e-05
6.91943e-05
6.77114e-05
6.62532e-05
6.4819e-05
6.34081e-05
6.20197e-05
6.06533e-05
5.93082e-05
5.79837e-05
5.66791e-05
5.53938e-05
5.41271e-05
5.28785e-05
5.16472e-05
5.04328e-05
4.92347e-05
4.80522e-05
4.68848e-05
4.57321e-05
4.45936e-05
4.34686e-05
4.23569e-05
4.12578e-05
4.01711e-05
3.90963e-05
3.8033e-05
3.69809e-05
3.59395e-05
3.49086e-05
3.38878e-05
3.28768e-05
3.18753e-05
3.0883e-05
2.98995e-05
2.89251e-05
2.79595e-05
2.70019e-05
2.6052e-05
2.51094e-05
2.41738e-05
2.32449e-05
2.23223e-05
2.14056e-05
2.04944e-05
1.95884e-05
1.8687e-05
1.77897e-05
1.68965e-05
1.6007e-05
1.51202e-05
1.42351e-05
1.33509e-05
1.24666e-05
1.15809e-05
1.06925e-05
9.7998e-06
8.90078e-06
7.99303e-06
7.07353e-06
6.13843e-06
5.18269e-06
4.19953e-06
3.17931e-06
2.11461e-06
1.02879e-06
2.04734e-07
8.33886e-06
6.50156e-05
0.000108086
0.000138117
0.000161491
0.000180948
0.000197767
0.000212866
0.000226744
0.000239706
0.000251939
0.000263589
0.000274768
0.00028554
0.000295951
0.000306041
0.000315838
0.000325364
0.000334636
0.000343668
0.000352469
0.000361047
0.000369407
0.000377553
0.000385487
0.000393211
0.000400726
0.000408031
0.000415125
0.000422008
0.000428679
0.000435135
0.000441375
0.000447398
0.0004532
0.000458781
0.000464138
0.000469269
0.000474174
0.000478848
0.000483292
0.000487503
0.000491477
0.000495212
0.000498702
0.000501939
0.000504911
0.000507598
0.000509977
0.000512015
0.000513682
0.000514956
0.000515842
0.000516379
0.000516661
0.000516816
0.000516943
0.000517079
0.000517253
0.000517484
0.000517816
0.000518232
0.00051861
0.000518884
0.00051898
0.000518819
0.000518341
0.000517523
0.000516383
0.000514957
0.000513284
0.0005114
0.000509332
0.000507099
0.000504716
0.000502193
0.00049954
0.000496765
0.000493874
0.000490874
0.000487772
0.000484573
0.000481284
0.000477908
0.000474454
0.000470925
0.000467326
0.000463665
0.000459944
0.00045617
0.000452348
0.000448481
0.000444575
0.000440635
0.000436664
0.000432668
0.000428649
0.000424613
0.000420563
0.000416503
0.000412436
0.000408366
0.000404296
0.000400229
0.000396168
0.000392115
0.000388074
0.000384047
0.000380036
0.000376043
0.00037207
0.000368119
0.000364192
0.000360289
0.000356414
0.000352565
0.000348746
0.000344956
0.000341196
0.000337468
0.00033377
0.000330105
0.000326472
0.000322871
0.000319302
0.000315766
0.000312262
0.000308789
0.000305348
0.000301938
0.000298558
0.000295207
0.000291886
0.000288593
0.000285328
0.000282089
0.000278876
0.000275687
0.000272522
0.00026938
0.000266259
0.000263159
0.000260077
0.000257014
0.000253967
0.000250936
0.00024792
0.000244916
0.000241924
0.000238943
0.000235971
0.000233007
0.00023005
0.000227098
0.00022415
0.000221205
0.000218261
0.000215317
0.000212372
0.000209423
0.00020647
0.000203511
0.000200545
0.000197569
0.000194582
0.000191582
0.000188567
0.000185534
0.000182479
0.000179402
0.000176301
0.000173175
0.00017002
0.000166834
0.000163611
0.00016035
0.000157044
0.000153689
0.000150278
0.000146806
0.000143262
0.000139634
0.000135914
0.000132092
0.000128152
0.000124078
0.00011985
0.000115441
0.00011082
0.000105946
0.000100767
9.52138e-05
8.91891e-05
8.25547e-05
7.51002e-05
6.64806e-05
5.60681e-05
4.25283e-05
2.26731e-05
9.3117e-07
8.34103e-06
6.50155e-05
0.000108084
0.000138117
0.000161492
0.000180951
0.000197769
0.000212868
0.000226747
0.000239709
0.000251941
0.000263592
0.000274771
0.000285542
0.000295954
0.000306044
0.000315841
0.000325367
0.000334639
0.000343671
0.000352472
0.00036105
0.00036941
0.000377556
0.00038549
0.000393215
0.000400729
0.000408034
0.000415129
0.000422012
0.000428683
0.000435139
0.000441379
0.000447402
0.000453204
0.000458785
0.000464142
0.000469273
0.000474178
0.000478852
0.000483296
0.000487507
0.000491481
0.000495216
0.000498706
0.000501943
0.000504913
0.0005076
0.000509976
0.000512011
0.000513674
0.000514944
0.000515825
0.000516359
0.00051664
0.000516795
0.000516922
0.000517061
0.00051724
0.000517478
0.000517815
0.000518235
0.000518617
0.000518895
0.000518993
0.000518832
0.000518352
0.000517532
0.00051639
0.000514962
0.000513289
0.000511405
0.000509336
0.000507103
0.00050472
0.000502197
0.000499544
0.000496769
0.000493878
0.000490878
0.000487776
0.000484577
0.000481287
0.000477912
0.000474457
0.000470928
0.00046733
0.000463668
0.000459948
0.000456174
0.000452351
0.000448484
0.000444578
0.000440638
0.000436667
0.000432671
0.000428652
0.000424616
0.000420566
0.000416506
0.000412439
0.000408369
0.000404299
0.000400232
0.00039617
0.000392118
0.000388077
0.00038405
0.000380038
0.000376045
0.000372072
0.000368121
0.000364194
0.000360292
0.000356416
0.000352568
0.000348748
0.000344958
0.000341198
0.00033747
0.000333772
0.000330107
0.000326474
0.000322873
0.000319304
0.000315768
0.000312264
0.000308791
0.00030535
0.000301939
0.000298559
0.000295209
0.000291888
0.000288595
0.000285329
0.000282091
0.000278877
0.000275689
0.000272524
0.000269381
0.000266261
0.00026316
0.000260079
0.000257015
0.000253969
0.000250938
0.000247921
0.000244917
0.000241926
0.000238944
0.000235973
0.000233009
0.000230051
0.000227099
0.000224151
0.000221206
0.000218262
0.000215318
0.000212373
0.000209424
0.000206471
0.000203512
0.000200545
0.00019757
0.000194583
0.000191583
0.000188567
0.000185535
0.000182479
0.000179402
0.000176302
0.000173176
0.000170021
0.000166834
0.000163612
0.00016035
0.000157044
0.000153689
0.000150279
0.000146806
0.000143263
0.000139635
0.000135915
0.000132092
0.000128152
0.000124079
0.00011985
0.000115441
0.00011082
0.000105946
0.000100768
9.52141e-05
8.91894e-05
8.2555e-05
7.51004e-05
6.64808e-05
5.60682e-05
4.25284e-05
2.2673e-05
9.31172e-07
1.48376e-05
0.000104664
0.000189152
0.000252598
0.000301963
0.000341996
0.000375693
0.000404963
0.000431003
0.000454616
0.000476345
0.00049657
0.000515567
0.000533531
0.000550605
0.0005669
0.000582502
0.000597478
0.000611884
0.000625763
0.00063915
0.000652074
0.000664558
0.000676622
0.000688282
0.000699551
0.00071044
0.000720959
0.000731115
0.000740914
0.000750363
0.000759465
0.000768224
0.000776644
0.000784728
0.000792478
0.000799897
0.000806985
0.000813746
0.000820179
0.000826288
0.000832071
0.00083753
0.000842662
0.000847464
0.000851927
0.000856034
0.00085976
0.000863064
0.000865893
0.000868183
0.000869886
0.000870987
0.000871545
0.000871702
0.000871662
0.00087162
0.000871709
0.000871999
0.000872509
0.000873244
0.000874167
0.000875169
0.000876129
0.000876878
0.000877244
0.00087711
0.000876447
0.00087529
0.000873709
0.000871773
0.000869539
0.00086705
0.000864334
0.000861413
0.000858302
0.000855011
0.000851552
0.000847932
0.000844159
0.000840241
0.000836184
0.000831996
0.000827683
0.000823251
0.000818706
0.000814056
0.000809306
0.000804462
0.00079953
0.000794517
0.000789427
0.000784266
0.00077904
0.000773755
0.000768415
0.000763026
0.000757593
0.00075212
0.000746613
0.000741075
0.000735512
0.000729928
0.000724325
0.00071871
0.000713084
0.000707452
0.000701817
0.000696183
0.000690551
0.000684926
0.000679309
0.000673703
0.00066811
0.000662533
0.000656972
0.000651431
0.00064591
0.000640411
0.000634935
0.000629482
0.000624055
0.000618652
0.000613276
0.000607925
0.000602601
0.000597303
0.000592031
0.000586786
0.000581566
0.000576371
0.0005712
0.000566053
0.000560929
0.000555827
0.000550746
0.000545684
0.00054064
0.000535614
0.000530603
0.000525607
0.000520623
0.00051565
0.000510687
0.000505732
0.000500782
0.000495836
0.000490893
0.000485949
0.000481004
0.000476055
0.000471101
0.000466138
0.000461165
0.000456179
0.000451178
0.00044616
0.000441122
0.000436061
0.000430975
0.000425861
0.000420714
0.000415533
0.000410314
0.000405052
0.000399744
0.000394384
0.000388968
0.000383488
0.00037794
0.000372321
0.000366626
0.000360846
0.000354975
0.000349002
0.000342919
0.000336713
0.00033037
0.000323876
0.000317213
0.000310357
0.000303284
0.000295961
0.000288363
0.00028045
0.000272176
0.000263483
0.0002543
0.000244541
0.00023409
0.000222803
0.000210481
0.000196854
0.000181539
0.00016396
0.000143215
0.000117797
8.50709e-05
4.12359e-05
1.91734e-06
1.48384e-05
0.000104666
0.000189155
0.000252601
0.000301967
0.000342
0.000375698
0.000404967
0.000431008
0.00045462
0.000476349
0.000496575
0.000515572
0.000533536
0.00055061
0.000566905
0.000582506
0.000597483
0.000611889
0.000625768
0.000639155
0.000652079
0.000664563
0.000676627
0.000688287
0.000699556
0.000710445
0.000720964
0.00073112
0.000740919
0.000750368
0.00075947
0.000768229
0.00077665
0.000784734
0.000792484
0.000799902
0.00080699
0.000813751
0.000820185
0.000826293
0.000832076
0.000837535
0.000842667
0.000847469
0.000851931
0.000856038
0.000859762
0.000863063
0.000865885
0.000868165
0.000869852
0.000870934
0.000871472
0.000871616
0.000871574
0.00087154
0.000871644
0.000871952
0.000872479
0.000873232
0.000874175
0.000875198
0.000876172
0.000876924
0.000877282
0.000877138
0.000876465
0.000875302
0.000873717
0.000871779
0.000869544
0.000867055
0.000864339
0.000861418
0.000858306
0.000855015
0.000851556
0.000847936
0.000844163
0.000840245
0.000836188
0.000832
0.000827686
0.000823254
0.00081871
0.00081406
0.00080931
0.000804466
0.000799534
0.00079452
0.00078943
0.000784269
0.000779043
0.000773758
0.000768418
0.000763029
0.000757596
0.000752123
0.000746616
0.000741078
0.000735515
0.00072993
0.000724328
0.000718712
0.000713087
0.000707455
0.00070182
0.000696185
0.000690553
0.000684928
0.000679311
0.000673705
0.000668112
0.000662535
0.000656974
0.000651433
0.000645912
0.000640413
0.000634936
0.000629484
0.000624056
0.000618654
0.000613277
0.000607926
0.000602602
0.000597304
0.000592033
0.000586787
0.000581567
0.000576372
0.000571201
0.000566054
0.00056093
0.000555828
0.000550747
0.000545685
0.000540641
0.000535615
0.000530604
0.000525608
0.000520624
0.000515651
0.000510688
0.000505732
0.000500782
0.000495837
0.000490893
0.00048595
0.000481005
0.000476056
0.000471101
0.000466138
0.000461165
0.000456179
0.000451179
0.000446161
0.000441123
0.000436062
0.000430976
0.000425861
0.000420715
0.000415534
0.000410314
0.000405052
0.000399744
0.000394384
0.000388968
0.000383488
0.00037794
0.000372321
0.000366626
0.000360846
0.000354975
0.000349002
0.000342919
0.000336713
0.00033037
0.000323876
0.000317213
0.000310357
0.000303284
0.000295961
0.000288363
0.00028045
0.000272176
0.000263483
0.0002543
0.000244541
0.00023409
0.000222803
0.000210481
0.000196854
0.000181539
0.00016396
0.000143215
0.000117797
8.50709e-05
4.12358e-05
1.91735e-06
2.09759e-05
0.000133083
0.000249272
0.000343311
0.000419221
0.000481777
0.00053465
0.00058039
0.000620751
0.000656964
0.000689905
0.000720208
0.000748341
0.000774652
0.000799403
0.000822798
0.000844996
0.000866126
0.000886289
0.000905569
0.000924035
0.000941743
0.000958741
0.00097507
0.000990762
0.00100585
0.00102035
0.00103429
0.00104769
0.00106057
0.00107293
0.0010848
0.00109618
0.00110708
0.00111752
0.00112749
0.00113702
0.0011461
0.00115474
0.00116295
0.00117073
0.00117809
0.00118503
0.00119156
0.00119766
0.00120332
0.00120854
0.00121326
0.00121742
0.00122094
0.0012237
0.0012256
0.00122663
0.00122687
0.00122659
0.00122612
0.00122581
0.00122586
0.00122636
0.00122729
0.00122865
0.00123037
0.00123232
0.00123425
0.00123587
0.00123691
0.00123721
0.00123676
0.00123564
0.00123395
0.0012318
0.00122927
0.00122641
0.00122327
0.00121987
0.00121623
0.00121237
0.00120829
0.00120401
0.00119954
0.00119488
0.00119005
0.00118504
0.00117987
0.00117455
0.00116908
0.00116347
0.00115772
0.00115185
0.00114585
0.00113974
0.00113352
0.00112721
0.00112079
0.00111429
0.00110771
0.00110104
0.00109431
0.00108751
0.00108066
0.00107374
0.00106678
0.00105978
0.00105273
0.00104566
0.00103855
0.00103141
0.00102425
0.00101708
0.00100989
0.00100269
0.000995483
0.000988272
0.000981059
0.000973847
0.000966638
0.000959436
0.000952241
0.000945055
0.000937881
0.000930719
0.000923571
0.000916438
0.00090932
0.000902217
0.000895131
0.000888062
0.000881009
0.000873972
0.000866951
0.000859946
0.000852955
0.000845979
0.000839015
0.000832063
0.000825122
0.00081819
0.000811266
0.000804348
0.000797434
0.000790523
0.000783612
0.000776701
0.000769785
0.000762864
0.000755934
0.000748994
0.000742041
0.000735073
0.000728086
0.000721077
0.000714045
0.000706985
0.000699895
0.000692771
0.00068561
0.000678408
0.000671161
0.000663865
0.000656516
0.000649109
0.00064164
0.000634102
0.000626491
0.0006188
0.000611021
0.000603149
0.000595173
0.000587085
0.000578874
0.000570535
0.000562056
0.000553426
0.000544631
0.000535653
0.000526477
0.00051708
0.000507441
0.00049753
0.000487317
0.000476765
0.000465829
0.000454457
0.000442597
0.000430179
0.000417121
0.000403324
0.000388662
0.000372984
0.000356093
0.00033774
0.000317596
0.000295217
0.000269993
0.000241058
0.00020714
0.000166341
0.000115922
5.37667e-05
2.88981e-06
2.09758e-05
0.000133084
0.000249276
0.000343316
0.000419227
0.000481784
0.000534657
0.000580396
0.000620758
0.000656971
0.000689912
0.000720215
0.000748348
0.000774659
0.000799409
0.000822804
0.000845003
0.000866133
0.000886296
0.000905576
0.000924042
0.00094175
0.000958748
0.000975076
0.000990768
0.00100585
0.00102036
0.0010343
0.0010477
0.00106057
0.00107294
0.00108481
0.00109618
0.00110709
0.00111752
0.0011275
0.00113702
0.0011461
0.00115475
0.00116296
0.00117074
0.0011781
0.00118504
0.00119156
0.00119766
0.00120333
0.00120854
0.00121326
0.00121742
0.00122094
0.00122368
0.00122558
0.00122659
0.00122682
0.00122654
0.0012261
0.00122582
0.00122591
0.00122643
0.00122738
0.00122876
0.0012305
0.00123245
0.00123438
0.00123598
0.00123698
0.00123726
0.00123679
0.00123565
0.00123396
0.00123181
0.00122927
0.00122641
0.00122327
0.00121987
0.00121623
0.00121237
0.0012083
0.00120402
0.00119954
0.00119489
0.00119005
0.00118505
0.00117988
0.00117455
0.00116908
0.00116347
0.00115772
0.00115185
0.00114585
0.00113974
0.00113353
0.00112721
0.0011208
0.00111429
0.00110771
0.00110105
0.00109431
0.00108752
0.00108066
0.00107375
0.00106679
0.00105978
0.00105274
0.00104566
0.00103855
0.00103141
0.00102426
0.00101708
0.00100989
0.00100269
0.000995485
0.000988273
0.00098106
0.000973848
0.000966639
0.000959437
0.000952242
0.000945056
0.000937882
0.00093072
0.000923572
0.000916439
0.00090932
0.000902218
0.000895132
0.000888063
0.000881009
0.000873973
0.000866952
0.000859947
0.000852956
0.000845979
0.000839016
0.000832064
0.000825122
0.00081819
0.000811266
0.000804348
0.000797434
0.000790523
0.000783613
0.000776701
0.000769785
0.000762864
0.000755934
0.000748994
0.000742041
0.000735073
0.000728085
0.000721077
0.000714044
0.000706985
0.000699894
0.000692771
0.000685609
0.000678407
0.00067116
0.000663865
0.000656516
0.000649109
0.000641639
0.000634102
0.000626491
0.000618799
0.000611021
0.000603148
0.000595172
0.000587084
0.000578873
0.000570534
0.000562056
0.000553426
0.00054463
0.000535653
0.000526476
0.00051708
0.00050744
0.00049753
0.000487317
0.000476764
0.000465828
0.000454457
0.000442596
0.000430178
0.000417121
0.000403323
0.000388662
0.000372984
0.000356093
0.00033774
0.000317595
0.000295217
0.000269993
0.000241058
0.00020714
0.000166342
0.000115922
5.37665e-05
2.88982e-06
2.68621e-05
0.000156082
0.000296871
0.000416764
0.000516763
0.000600947
0.000672949
0.000735557
0.000790844
0.000840339
0.000885182
0.000926224
0.000964111
0.000999334
0.00103228
0.00106323
0.00109245
0.0011201
0.00114636
0.00117134
0.00119515
0.00121788
0.0012396
0.00126038
0.00128027
0.00129931
0.00131755
0.00133503
0.00135177
0.00136779
0.00138314
0.00139782
0.00141186
0.00142528
0.00143809
0.0014503
0.00146194
0.00147301
0.00148353
0.0014935
0.00150294
0.00151186
0.00152025
0.00152813
0.0015355
0.00154234
0.00154863
0.00155433
0.00155937
0.00156362
0.00156697
0.00156929
0.00157055
0.00157088
0.00157061
0.00157016
0.00156992
0.00157014
0.00157088
0.00157215
0.00157392
0.00157613
0.00157861
0.00158105
0.00158308
0.0015844
0.00158486
0.00158446
0.00158327
0.00158143
0.00157906
0.00157623
0.00157303
0.00156949
0.00156564
0.00156151
0.00155712
0.00155247
0.00154758
0.00154246
0.00153711
0.00153156
0.0015258
0.00151984
0.00151369
0.00150736
0.00150086
0.00149419
0.00148736
0.00148038
0.00147326
0.001466
0.00145861
0.0014511
0.00144347
0.00143573
0.00142789
0.00141995
0.00141193
0.00140382
0.00139563
0.00138737
0.00137904
0.00137066
0.00136221
0.00135372
0.00134518
0.00133661
0.00132799
0.00131935
0.00131067
0.00130197
0.00129326
0.00128452
0.00127577
0.00126701
0.00125824
0.00124947
0.00124069
0.0012319
0.00122312
0.00121434
0.00120556
0.00119679
0.00118801
0.00117924
0.00117048
0.00116172
0.00115297
0.00114422
0.00113547
0.00112672
0.00111798
0.00110924
0.00110049
0.00109175
0.001083
0.00107425
0.00106548
0.00105671
0.00104793
0.00103913
0.00103032
0.00102149
0.00101263
0.00100375
0.000994842
0.000985903
0.00097693
0.000967918
0.000958866
0.000949768
0.00094062
0.000931419
0.00092216
0.000912839
0.000903449
0.000893987
0.000884447
0.000874822
0.000865107
0.000855293
0.000845375
0.000835343
0.000825189
0.000814904
0.000804476
0.000793894
0.000783144
0.000772214
0.00076109
0.000749758
0.000738198
0.000726391
0.000714312
0.000701936
0.000689232
0.000676166
0.000662697
0.00064878
0.00063436
0.000619376
0.000603753
0.000587409
0.000570247
0.000552146
0.000532963
0.000512523
0.00049061
0.000466952
0.000441207
0.000412936
0.000381562
0.000346317
0.000306163
0.000259679
0.00020494
0.000139625
6.34445e-05
3.83294e-06
2.6862e-05
0.000156084
0.000296875
0.00041677
0.000516771
0.000600955
0.000672958
0.000735566
0.000790852
0.000840348
0.000885191
0.000926233
0.00096412
0.000999343
0.00103228
0.00106324
0.00109245
0.00112011
0.00114636
0.00117134
0.00119516
0.00121789
0.00123961
0.00126039
0.00128028
0.00129932
0.00131756
0.00133504
0.00135177
0.0013678
0.00138315
0.00139783
0.00141187
0.00142529
0.0014381
0.00145031
0.00146195
0.00147302
0.00148354
0.00149351
0.00150295
0.00151186
0.00152026
0.00152814
0.00153551
0.00154235
0.00154864
0.00155434
0.00155937
0.00156363
0.00156697
0.00156928
0.00157055
0.00157089
0.00157065
0.00157025
0.00157006
0.00157031
0.00157108
0.00157236
0.00157414
0.00157635
0.00157882
0.00158122
0.00158321
0.00158449
0.00158492
0.00158449
0.00158329
0.00158144
0.00157906
0.00157624
0.00157303
0.00156949
0.00156565
0.00156152
0.00155712
0.00155247
0.00154758
0.00154246
0.00153712
0.00153156
0.0015258
0.00151984
0.00151369
0.00150736
0.00150086
0.00149419
0.00148736
0.00148038
0.00147326
0.001466
0.00145861
0.0014511
0.00144347
0.00143573
0.00142789
0.00141995
0.00141193
0.00140382
0.00139563
0.00138737
0.00137904
0.00137066
0.00136222
0.00135372
0.00134519
0.00133661
0.00132799
0.00131935
0.00131067
0.00130198
0.00129326
0.00128452
0.00127577
0.00126701
0.00125824
0.00124947
0.00124069
0.0012319
0.00122312
0.00121434
0.00120556
0.00119679
0.00118801
0.00117924
0.00117048
0.00116172
0.00115297
0.00114422
0.00113547
0.00112672
0.00111798
0.00110924
0.00110049
0.00109175
0.001083
0.00107425
0.00106548
0.00105671
0.00104793
0.00103913
0.00103032
0.00102148
0.00101263
0.00100375
0.000994842
0.000985903
0.000976929
0.000967918
0.000958865
0.000949767
0.00094062
0.000931419
0.00092216
0.000912838
0.000903449
0.000893987
0.000884446
0.000874822
0.000865106
0.000855293
0.000845374
0.000835342
0.000825189
0.000814903
0.000804475
0.000793893
0.000783144
0.000772213
0.00076109
0.000749757
0.000738198
0.00072639
0.000714312
0.000701936
0.000689232
0.000676165
0.000662696
0.000648779
0.00063436
0.000619375
0.000603752
0.000587409
0.000570246
0.000552145
0.000532963
0.000512523
0.000490609
0.000466951
0.000441207
0.000412936
0.000381561
0.000346317
0.000306163
0.000259679
0.00020494
0.000139625
6.34443e-05
3.83295e-06
3.26095e-05
0.000175804
0.00033643
0.000478201
0.000599557
0.000703615
0.000793702
0.000872617
0.000942573
0.00100529
0.00106208
0.00111398
0.00116177
0.00120607
0.00124736
0.00128604
0.00132242
0.00135674
0.00138922
0.00142001
0.00144927
0.00147712
0.00150365
0.00152895
0.0015531
0.00157616
0.00159818
0.00161923
0.00163933
0.00165854
0.00167688
0.00169438
0.00171109
0.00172702
0.00174219
0.00175664
0.00177037
0.00178341
0.00179578
0.00180749
0.00181855
0.00182899
0.0018388
0.00184801
0.0018566
0.00186458
0.00187193
0.00187861
0.00188456
0.00188966
0.00189381
0.0018969
0.00189891
0.00189997
0.00190038
0.00190053
0.0019008
0.0019014
0.00190242
0.00190385
0.0019057
0.00190789
0.00191026
0.00191252
0.00191435
0.00191545
0.0019157
0.00191509
0.00191369
0.00191162
0.00190897
0.00190584
0.00190229
0.00189836
0.00189408
0.00188948
0.00188458
0.00187938
0.00187391
0.00186818
0.00186219
0.00185595
0.00184947
0.00184277
0.00183585
0.00182872
0.00182138
0.00181385
0.00180613
0.00179823
0.00179016
0.00178193
0.00177354
0.001765
0.00175632
0.00174751
0.00173857
0.00172951
0.00172034
0.00171106
0.00170168
0.00169221
0.00168265
0.00167302
0.00166331
0.00165353
0.00164368
0.00163378
0.00162382
0.00161382
0.00160377
0.00159368
0.00158355
0.00157339
0.00156321
0.00155299
0.00154276
0.0015325
0.00152223
0.00151194
0.00150163
0.00149132
0.00148099
0.00147066
0.00146031
0.00144996
0.00143959
0.00142922
0.00141885
0.00140846
0.00139806
0.00138765
0.00137723
0.0013668
0.00135636
0.00134589
0.00133541
0.00132491
0.00131439
0.00130384
0.00129327
0.00128266
0.00127202
0.00126135
0.00125063
0.00123988
0.00122907
0.00121822
0.00120731
0.00119634
0.0011853
0.0011742
0.00116303
0.00115178
0.00114044
0.00112901
0.00111749
0.00110586
0.00109413
0.00108227
0.00107029
0.00105818
0.00104592
0.0010335
0.00102092
0.00100816
0.000995207
0.000982044
0.000968656
0.000955024
0.000941132
0.000926956
0.000912474
0.000897657
0.000882474
0.00086689
0.000850865
0.000834353
0.0008173
0.000799648
0.000781325
0.000762249
0.000742326
0.000721447
0.000699483
0.000676282
0.000651659
0.000625392
0.00059721
0.000566778
0.000533681
0.000497394
0.00045725
0.000412389
0.000361699
0.000303745
0.000236752
0.000158946
7.15289e-05
4.7555e-06
3.26095e-05
0.000175806
0.000336435
0.000478208
0.000599565
0.000703624
0.000793711
0.000872627
0.000942584
0.0010053
0.00106209
0.00111399
0.00116178
0.00120608
0.00124737
0.00128605
0.00132243
0.00135675
0.00138923
0.00142002
0.00144928
0.00147713
0.00150366
0.00152896
0.00155311
0.00157617
0.00159819
0.00161924
0.00163934
0.00165855
0.00167689
0.00169439
0.0017111
0.00172703
0.0017422
0.00175664
0.00177038
0.00178342
0.00179579
0.00180749
0.00181856
0.00182899
0.00183881
0.00184801
0.00185661
0.00186459
0.00187194
0.00187863
0.00188457
0.00188968
0.00189383
0.00189692
0.00189894
0.00190002
0.00190046
0.00190066
0.00190096
0.00190159
0.00190263
0.00190407
0.00190591
0.0019081
0.00191045
0.00191268
0.00191446
0.00191552
0.00191574
0.00191511
0.0019137
0.00191163
0.00190898
0.00190585
0.00190229
0.00189836
0.00189408
0.00188948
0.00188458
0.00187939
0.00187392
0.00186818
0.00186219
0.00185595
0.00184948
0.00184278
0.00183585
0.00182872
0.00182138
0.00181385
0.00180613
0.00179823
0.00179016
0.00178193
0.00177354
0.001765
0.00175632
0.00174751
0.00173857
0.00172951
0.00172034
0.00171106
0.00170168
0.00169221
0.00168266
0.00167302
0.00166331
0.00165353
0.00164368
0.00163378
0.00162382
0.00161382
0.00160377
0.00159368
0.00158355
0.00157339
0.00156321
0.00155299
0.00154276
0.0015325
0.00152223
0.00151194
0.00150163
0.00149132
0.00148099
0.00147066
0.00146031
0.00144996
0.00143959
0.00142922
0.00141885
0.00140846
0.00139806
0.00138765
0.00137723
0.0013668
0.00135636
0.00134589
0.00133541
0.00132491
0.00131439
0.00130384
0.00129327
0.00128266
0.00127202
0.00126135
0.00125063
0.00123988
0.00122907
0.00121822
0.00120731
0.00119634
0.0011853
0.0011742
0.00116303
0.00115178
0.00114044
0.00112901
0.00111749
0.00110586
0.00109413
0.00108227
0.00107029
0.00105818
0.00104592
0.0010335
0.00102092
0.00100816
0.000995206
0.000982043
0.000968655
0.000955023
0.000941131
0.000926955
0.000912473
0.000897656
0.000882473
0.000866889
0.000850864
0.000834352
0.0008173
0.000799647
0.000781324
0.000762248
0.000742326
0.000721446
0.000699482
0.000676281
0.000651658
0.000625391
0.000597209
0.000566778
0.000533681
0.000497394
0.00045725
0.00041239
0.000361699
0.000303745
0.000236753
0.000158946
7.15286e-05
4.75552e-06
3.82452e-05
0.000193298
0.000370608
0.000531141
0.000671346
0.000793382
0.000900179
0.000994429
0.00107838
0.00115385
0.00122228
0.00128481
0.00134236
0.00139564
0.00144522
0.00149159
0.0015351
0.00157607
0.00161475
0.00165136
0.00168606
0.00171902
0.00175035
0.00178017
0.00180857
0.00183564
0.00186144
0.00188604
0.0019095
0.00193186
0.00195318
0.0019735
0.00199285
0.00201126
0.00202878
0.00204542
0.00206122
0.0020762
0.00209038
0.00210379
0.00211645
0.00212837
0.00213956
0.00215005
0.00215984
0.00216893
0.00217732
0.00218496
0.00219183
0.00219785
0.00220293
0.00220701
0.00221006
0.00221221
0.00221369
0.00221478
0.0022158
0.00221691
0.00221821
0.00221971
0.00222142
0.00222327
0.00222515
0.00222683
0.00222806
0.00222863
0.00222843
0.00222744
0.00222571
0.00222333
0.00222037
0.00221691
0.00221299
0.00220867
0.00220396
0.0021989
0.0021935
0.00218778
0.00218175
0.00217542
0.00216881
0.00216192
0.00215476
0.00214735
0.00213969
0.00213179
0.00212366
0.00211531
0.00210674
0.00209797
0.00208901
0.00207985
0.00207052
0.00206101
0.00205134
0.00204152
0.00203154
0.00202143
0.00201118
0.0020008
0.00199031
0.00197971
0.00196899
0.00195818
0.00194728
0.00193629
0.00192522
0.00191408
0.00190286
0.00189159
0.00188025
0.00186885
0.00185741
0.00184592
0.00183438
0.00182281
0.0018112
0.00179956
0.00178789
0.00177618
0.00176445
0.0017527
0.00174092
0.00172912
0.0017173
0.00170546
0.0016936
0.00168171
0.00166981
0.00165788
0.00164593
0.00163396
0.00162196
0.00160994
0.00159789
0.00158581
0.00157369
0.00156154