/*--------------------------------*- C++ -*----------------------------------*\
  =========                 |
  \\      /  F ield         | OpenFOAM: The Open Source CFD Toolbox
   \\    /   O peration     | Website:  https://openfoam.org
    \\  /    A nd           | Version:  8
     \\/     M anipulation  |
\*---------------------------------------------------------------------------*/
FoamFile
{
    version     2.0;
    format      ascii;
    class       surfaceScalarField;
    location    "4500";
    object      phi;
}
// * * * * * * * * * * * * * * * * * * * * * * * * * * * * * * * * * * * * * //

dimensions      [1 0 -1 0 0 0 0];

internalField   nonuniform List<scalar> 
114370
(
7.89838e-10
4.6807e-14
-7.89887e-10
1.98895e-09
-3.2804e-12
-1.18699e-09
2.98627e-09
-2.88897e-12
-9.9849e-10
3.58633e-09
-1.42169e-12
-6.0006e-10
3.78775e-09
-4.29842e-13
-2.01228e-10
3.643e-09
-1.90827e-14
1.44821e-10
3.21548e-09
8.49238e-14
4.27497e-10
2.56356e-09
8.22e-14
6.51862e-10
1.73582e-09
5.79149e-14
8.27691e-10
7.70977e-10
3.68943e-14
9.64791e-10
-2.99788e-10
2.28818e-14
1.07073e-09
-1.45072e-09
1.43112e-14
1.15091e-09
-2.66133e-09
9.10111e-15
1.21059e-09
-3.91584e-09
5.85326e-15
1.25449e-09
-5.20145e-09
3.89517e-15
1.2856e-09
-6.50773e-09
2.89758e-15
1.30626e-09
-7.82606e-09
2.53328e-15
1.31831e-09
-9.14928e-09
2.46843e-15
1.3232e-09
-1.04714e-08
2.47222e-15
1.32209e-09
-1.17873e-08
2.45903e-15
1.31591e-09
-1.30928e-08
2.43686e-15
1.30544e-09
-1.43841e-08
2.43089e-15
1.29129e-09
-1.56582e-08
2.44487e-15
1.27399e-09
-1.69122e-08
2.4544e-15
1.25397e-09
-1.81438e-08
2.42052e-15
1.23159e-09
-1.9351e-08
2.31117e-15
1.20716e-09
-2.0532e-08
2.11498e-15
1.18093e-09
-2.16851e-08
1.85537e-15
1.15313e-09
-2.28091e-08
1.58008e-15
1.12396e-09
-2.39027e-08
1.34692e-15
1.09358e-09
-2.49649e-08
1.20023e-15
1.06214e-09
-2.59947e-08
1.15518e-15
1.02977e-09
-2.69913e-08
1.18737e-15
9.966e-10
-2.79541e-08
1.24549e-15
9.62719e-10
-2.88824e-08
1.28164e-15
9.28227e-10
-2.97756e-08
1.29503e-15
8.93208e-10
-3.06334e-08
1.35011e-15
8.5774e-10
-3.14553e-08
1.54147e-15
8.21894e-10
-3.22411e-08
1.90511e-15
7.85735e-10
-3.29904e-08
2.34188e-15
7.4932e-10
-3.37031e-08
2.65022e-15
7.12697e-10
-3.43791e-08
2.68329e-15
6.75904e-10
-3.50181e-08
2.5025e-15
6.3897e-10
-3.562e-08
2.33489e-15
6.01905e-10
-3.61847e-08
2.32091e-15
5.6469e-10
-3.6712e-08
2.35415e-15
5.27265e-10
-3.72015e-08
2.30799e-15
4.89512e-10
-3.76528e-08
2.35133e-15
4.51246e-10
-3.80651e-08
2.66345e-15
4.12252e-10
-3.84376e-08
2.80348e-15
3.72459e-10
-3.87702e-08
2.07901e-15
3.32569e-10
-3.90657e-08
4.25522e-16
2.9556e-10
-3.93345e-08
-2.04252e-15
2.6879e-10
-3.95967e-08
-5.0821e-15
2.62154e-10
-3.9862e-08
-9.40056e-15
2.6533e-10
-4.00931e-08
-1.50417e-14
2.31105e-10
-4.0241e-08
-1.78831e-14
1.4797e-10
-4.03137e-08
-1.69614e-14
7.26192e-11
-4.03524e-08
-1.19495e-14
3.87302e-11
-4.04158e-08
-6.4845e-15
6.34204e-11
-4.0476e-08
-5.03502e-15
6.01912e-11
-4.04479e-08
-3.96309e-15
-2.81444e-11
-4.03351e-08
-1.14182e-15
-1.12768e-10
-4.02118e-08
3.60484e-15
-1.23327e-10
-4.01047e-08
8.24285e-15
-1.07148e-10
-3.99916e-08
1.05468e-14
-1.13144e-10
-3.98526e-08
1.04576e-14
-1.38981e-10
-3.96821e-08
9.09681e-15
-1.70565e-10
-3.94804e-08
6.96202e-15
-2.01667e-10
-3.92498e-08
5.18018e-15
-2.30593e-10
-3.89925e-08
3.89155e-15
-2.57354e-10
-3.87102e-08
2.55934e-15
-2.82344e-10
-3.84042e-08
1.55986e-15
-3.05913e-10
-3.80759e-08
1.2577e-15
-3.283e-10
-3.77263e-08
1.16397e-15
-3.49653e-10
-3.73562e-08
6.90984e-16
-3.70055e-10
-3.69667e-08
-8.95885e-17
-3.89547e-10
-3.65586e-08
-6.8834e-16
-4.08149e-10
-3.61327e-08
-8.23433e-16
-4.25871e-10
-3.569e-08
-6.30988e-16
-4.42723e-10
-3.52312e-08
-4.10408e-16
-4.5871e-10
-3.47574e-08
-3.22642e-16
-4.73836e-10
-3.42693e-08
-3.26763e-16
-4.88104e-10
-3.37678e-08
-3.09471e-16
-5.01516e-10
-3.32537e-08
-2.18182e-16
-5.14075e-10
-3.27279e-08
-9.05184e-17
-5.25787e-10
-3.21913e-08
-4.43375e-18
-5.36659e-10
-3.16446e-08
-1.06146e-17
-5.46697e-10
-3.10887e-08
-1.0814e-16
-5.55911e-10
-3.05244e-08
-2.56568e-16
-5.64309e-10
-2.99525e-08
-4.0337e-16
-5.71901e-10
-2.93738e-08
-5.07563e-16
-5.78697e-10
-2.87891e-08
-5.48275e-16
-5.84709e-10
-2.81991e-08
-5.27622e-16
-5.89951e-10
-2.76047e-08
-4.61975e-16
-5.94436e-10
-2.70065e-08
-3.76216e-16
-5.9818e-10
-2.64053e-08
-2.94034e-16
-6.01198e-10
-2.58018e-08
-2.33266e-16
-6.03506e-10
-2.51966e-08
-2.01771e-16
-6.05121e-10
-2.45906e-08
-2.00145e-16
-6.06062e-10
-2.39842e-08
-2.2221e-16
-6.06345e-10
-2.33782e-08
-2.57393e-16
-6.0599e-10
-2.27732e-08
-2.97022e-16
-6.05014e-10
-2.21698e-08
-3.29766e-16
-6.03437e-10
-2.15685e-08
-3.50475e-16
-6.0128e-10
-2.09699e-08
-3.54542e-16
-5.9856e-10
-2.03746e-08
-3.42075e-16
-5.95299e-10
-1.97831e-08
-3.16489e-16
-5.91515e-10
-1.91958e-08
-2.83096e-16
-5.8723e-10
-1.86134e-08
-2.47048e-16
-5.82463e-10
-1.80361e-08
-2.15282e-16
-5.77234e-10
-1.74646e-08
-1.90184e-16
-5.71562e-10
-1.68991e-08
-1.72729e-16
-5.65467e-10
-1.63401e-08
-1.62972e-16
-5.58968e-10
-1.5788e-08
-1.58799e-16
-5.52084e-10
-1.52432e-08
-1.57554e-16
-5.44833e-10
-1.4706e-08
-1.57555e-16
-5.37233e-10
-1.41766e-08
-1.5734e-16
-5.29301e-10
-1.36556e-08
-1.57016e-16
-5.21055e-10
-1.31431e-08
-1.55824e-16
-5.12512e-10
-1.26394e-08
-1.53115e-16
-5.03686e-10
-1.21448e-08
-1.4878e-16
-4.94594e-10
-1.16595e-08
-1.42276e-16
-4.8525e-10
-1.11839e-08
-1.32629e-16
-4.75668e-10
-1.0718e-08
-1.19295e-16
-4.65863e-10
-1.02621e-08
-1.01407e-16
-4.55846e-10
-9.8165e-09
-7.94001e-17
-4.45632e-10
-9.38126e-09
-5.28392e-17
-4.35231e-10
-8.9566e-09
-2.21585e-17
-4.24656e-10
-8.54268e-09
1.1341e-17
-4.13917e-10
-8.13966e-09
4.70087e-17
-4.03025e-10
-7.74766e-09
8.38689e-17
-3.91991e-10
-7.36684e-09
1.21054e-16
-3.80823e-10
-6.99731e-09
1.57914e-16
-3.69532e-10
-6.63918e-09
1.94123e-16
-3.58126e-10
-6.29257e-09
2.30223e-16
-3.46616e-10
-5.95756e-09
2.65565e-16
-3.35011e-10
-5.63425e-09
3.00255e-16
-3.23319e-10
-5.3227e-09
3.34945e-16
-3.11549e-10
-5.023e-09
3.69418e-16
-2.99712e-10
-4.73519e-09
4.03566e-16
-2.87817e-10
-4.45932e-09
4.35978e-16
-2.75874e-10
-4.19544e-09
4.68715e-16
-2.63893e-10
-3.94356e-09
5.00476e-16
-2.51886e-10
-3.70371e-09
5.31153e-16
-2.39865e-10
-3.47588e-09
5.60203e-16
-2.27841e-10
-3.26007e-09
5.89035e-16
-2.15829e-10
-3.05625e-09
6.17e-16
-2.03842e-10
-2.86437e-09
6.44855e-16
-1.91896e-10
-2.68438e-09
6.72602e-16
-1.80008e-10
-2.51621e-09
7.0165e-16
-1.68195e-10
-2.35975e-09
7.32648e-16
-1.56476e-10
-2.21491e-09
7.66464e-16
-1.44871e-10
-2.08153e-09
8.0375e-16
-1.33403e-10
-1.95947e-09
8.44613e-16
-1.22094e-10
-1.84853e-09
8.8992e-16
-1.10969e-10
-1.7485e-09
9.38262e-16
-1.00054e-10
-1.65916e-09
9.91375e-16
-8.93789e-11
-1.58022e-09
1.04665e-15
-7.89715e-11
-1.51139e-09
1.10269e-15
-6.88637e-11
-1.45234e-09
1.1584e-15
-5.90883e-11
-1.40271e-09
1.21216e-15
-4.968e-11
-1.36207e-09
1.26159e-15
-4.06749e-11
-1.33001e-09
1.30754e-15
-3.21108e-11
-1.30603e-09
1.3485e-15
-2.4027e-11
-1.28961e-09
1.38426e-15
-1.64643e-11
-1.2802e-09
1.41503e-15
-9.46499e-12
-1.27718e-09
1.44017e-15
-3.07268e-12
-1.27991e-09
1.46356e-15
2.66841e-12
-1.28768e-09
1.48045e-15
7.71276e-12
-1.29975e-09
1.49279e-15
1.20126e-11
-1.31533e-09
1.49753e-15
1.55194e-11
-1.33358e-09
1.49079e-15
1.81841e-11
-1.3536e-09
1.46973e-15
1.99569e-11
-1.37446e-09
1.42959e-15
2.07877e-11
-1.39516e-09
1.37015e-15
2.06256e-11
-1.41465e-09
1.28946e-15
1.942e-11
-1.43184e-09
1.18947e-15
1.712e-11
-1.44559e-09
1.06974e-15
1.36757e-11
-1.4547e-09
9.24001e-16
9.03815e-12
-1.45793e-09
7.50503e-16
3.16056e-12
-1.45401e-09
5.36462e-16
-3.99873e-12
-1.44161e-09
2.74711e-16
-1.24753e-11
-1.41938e-09
-3.86485e-17
-2.22987e-11
-1.38597e-09
-4.01663e-16
-3.34859e-11
-1.34e-09
-8.06959e-16
-4.60326e-11
-1.28016e-09
-1.25085e-15
-5.99039e-11
-1.20521e-09
-1.7303e-15
-7.5016e-11
-1.11405e-09
-2.24271e-15
-9.121e-11
-1.00589e-09
-2.78633e-15
-1.08207e-10
-8.80392e-10
-3.35163e-15
-1.25539e-10
-7.37995e-10
-3.92364e-15
-1.42429e-10
-5.80413e-10
-4.49564e-15
-1.57605e-10
-4.11437e-10
-5.07585e-15
-1.68991e-10
-2.38235e-10
-5.65992e-15
-1.73206e-10
-7.33928e-11
-6.21271e-15
-1.64838e-10
6.21755e-11
-6.65224e-15
-1.35554e-10
1.36145e-10
-6.79288e-15
-7.39463e-11
1.11434e-10
-5.64607e-15
2.47413e-11
-2.1202e-15
1.11469e-10
7.84956e-10
-7.85204e-10
1.99101e-09
-1.18571e-09
2.9882e-09
-9.98008e-10
3.58668e-09
-6.00085e-10
3.78731e-09
-2.01391e-10
3.64243e-09
1.44698e-10
3.21502e-09
4.27435e-10
2.56325e-09
6.51835e-10
1.73561e-09
8.27679e-10
7.70851e-10
9.64785e-10
-2.99862e-10
1.07073e-09
-1.45076e-09
1.15091e-09
-2.66135e-09
1.21059e-09
-3.91585e-09
1.25449e-09
-5.20145e-09
1.2856e-09
-6.50772e-09
1.30626e-09
-7.82605e-09
1.31831e-09
-9.14926e-09
1.3232e-09
-1.04714e-08
1.32208e-09
-1.17873e-08
1.31591e-09
-1.30928e-08
1.30543e-09
-1.43841e-08
1.29129e-09
-1.56581e-08
1.27399e-09
-1.69121e-08
1.25397e-09
-1.81438e-08
1.23159e-09
-1.9351e-08
1.20715e-09
-2.05319e-08
1.18092e-09
-2.16851e-08
1.15313e-09
-2.28091e-08
1.12395e-09
-2.39027e-08
1.09357e-09
-2.49649e-08
1.06213e-09
-2.59947e-08
1.02977e-09
-2.69913e-08
9.96595e-10
-2.79541e-08
9.62714e-10
-2.88823e-08
9.28222e-10
-2.97756e-08
8.93203e-10
-3.06333e-08
8.57736e-10
-3.14553e-08
8.21891e-10
-3.2241e-08
7.85733e-10
-3.29904e-08
7.49319e-10
-3.37031e-08
7.12695e-10
-3.4379e-08
6.75902e-10
-3.5018e-08
6.38967e-10
-3.56199e-08
6.01902e-10
-3.61847e-08
5.64688e-10
-3.67119e-08
5.27262e-10
-3.72015e-08
4.89505e-10
-3.76527e-08
4.51239e-10
-3.8065e-08
4.12248e-10
-3.84375e-08
3.7246e-10
-3.87701e-08
3.32575e-10
-3.90657e-08
2.95576e-10
-3.93345e-08
2.68816e-10
-3.95967e-08
2.62165e-10
-3.9862e-08
2.6529e-10
-4.0093e-08
2.31036e-10
-4.02409e-08
1.47896e-10
-4.03135e-08
7.25686e-11
-4.03522e-08
3.87281e-11
-4.04157e-08
6.34503e-11
-4.0476e-08
6.02331e-11
-4.04479e-08
-2.81083e-11
-4.03351e-08
-1.12775e-10
-4.02118e-08
-1.23343e-10
-4.01047e-08
-1.07145e-10
-3.99916e-08
-1.13137e-10
-3.98526e-08
-1.38973e-10
-3.9682e-08
-1.70554e-10
-3.94804e-08
-2.0166e-10
-3.92498e-08
-2.30591e-10
-3.89924e-08
-2.57355e-10
-3.87101e-08
-2.82342e-10
-3.84042e-08
-3.05908e-10
-3.80759e-08
-3.28296e-10
-3.77262e-08
-3.49652e-10
-3.73562e-08
-3.70056e-10
-3.69667e-08
-3.89548e-10
-3.65585e-08
-4.08148e-10
-3.61326e-08
-4.2587e-10
-3.56899e-08
-4.42722e-10
-3.52312e-08
-4.5871e-10
-3.47574e-08
-4.73837e-10
-3.42693e-08
-4.88105e-10
-3.37678e-08
-5.01516e-10
-3.32537e-08
-5.14075e-10
-3.27279e-08
-5.25787e-10
-3.21912e-08
-5.36658e-10
-3.16446e-08
-5.46697e-10
-3.10886e-08
-5.55911e-10
-3.05243e-08
-5.64309e-10
-2.99524e-08
-5.719e-10
-2.93737e-08
-5.78696e-10
-2.8789e-08
-5.84709e-10
-2.81991e-08
-5.8995e-10
-2.76046e-08
-5.94435e-10
-2.70064e-08
-5.98179e-10
-2.64052e-08
-6.01197e-10
-2.58017e-08
-6.03505e-10
-2.51966e-08
-6.05121e-10
-2.45905e-08
-6.06061e-10
-2.39842e-08
-6.06345e-10
-2.33782e-08
-6.05989e-10
-2.27732e-08
-6.05013e-10
-2.21697e-08
-6.03437e-10
-2.15685e-08
-6.01279e-10
-2.09699e-08
-5.98559e-10
-2.03746e-08
-5.95298e-10
-1.97831e-08
-5.91515e-10
-1.91958e-08
-5.8723e-10
-1.86134e-08
-5.82463e-10
-1.80361e-08
-5.77233e-10
-1.74645e-08
-5.71562e-10
-1.68991e-08
-5.65467e-10
-1.63401e-08
-5.58968e-10
-1.5788e-08
-5.52083e-10
-1.52432e-08
-5.44832e-10
-1.47059e-08
-5.37232e-10
-1.41766e-08
-5.29301e-10
-1.36556e-08
-5.21055e-10
-1.31431e-08
-5.12511e-10
-1.26394e-08
-5.03686e-10
-1.21448e-08
-4.94593e-10
-1.16595e-08
-4.85249e-10
-1.11838e-08
-4.75668e-10
-1.0718e-08
-4.65862e-10
-1.02621e-08
-4.55846e-10
-9.81648e-09
-4.45632e-10
-9.38125e-09
-4.35232e-10
-8.95659e-09
-4.24656e-10
-8.54267e-09
-4.13918e-10
-8.13964e-09
-4.03026e-10
-7.74765e-09
-3.91991e-10
-7.36682e-09
-3.80823e-10
-6.99729e-09
-3.69532e-10
-6.63917e-09
-3.58127e-10
-6.29255e-09
-3.46617e-10
-5.95754e-09
-3.35012e-10
-5.63423e-09
-3.2332e-10
-5.32269e-09
-3.11551e-10
-5.02298e-09
-2.99714e-10
-4.73517e-09
-2.87819e-10
-4.45931e-09
-2.75876e-10
-4.19542e-09
-2.63895e-10
-3.94355e-09
-2.51888e-10
-3.7037e-09
-2.39867e-10
-3.47587e-09
-2.27844e-10
-3.26005e-09
-2.15832e-10
-3.05623e-09
-2.03845e-10
-2.86435e-09
-1.919e-10
-2.68436e-09
-1.80012e-10
-2.51619e-09
-1.68199e-10
-2.35974e-09
-1.5648e-10
-2.21489e-09
-1.44875e-10
-2.08151e-09
-1.33407e-10
-1.95945e-09
-1.22098e-10
-1.84851e-09
-1.10973e-10
-1.74849e-09
-1.00059e-10
-1.65914e-09
-8.93841e-11
-1.5802e-09
-7.89769e-11
-1.51138e-09
-6.88694e-11
-1.45233e-09
-5.90942e-11
-1.40269e-09
-4.96862e-11
-1.36206e-09
-4.06813e-11
-1.32999e-09
-3.21175e-11
-1.30601e-09
-2.4034e-11
-1.2896e-09
-1.64716e-11
-1.28019e-09
-9.4725e-12
-1.27717e-09
-3.08044e-12
-1.27989e-09
2.66037e-12
-1.28766e-09
7.70445e-12
-1.29974e-09
1.2004e-11
-1.31532e-09
1.55105e-11
-1.33357e-09
1.81749e-11
-1.35359e-09
1.99474e-11
-1.37445e-09
2.07779e-11
-1.39514e-09
2.06156e-11
-1.41464e-09
1.94097e-11
-1.43183e-09
1.71096e-11
-1.44558e-09
1.36651e-11
-1.45469e-09
9.02742e-12
-1.45793e-09
3.14973e-12
-1.454e-09
-4.00963e-12
-1.4416e-09
-1.24862e-11
-1.41938e-09
-2.23096e-11
-1.38596e-09
-3.34966e-11
-1.34e-09
-4.60431e-11
-1.28016e-09
-5.9914e-11
-1.2052e-09
-7.50257e-11
-1.11405e-09
-9.12193e-11
-1.00589e-09
-1.08216e-10
-8.80394e-10
-1.25547e-10
-7.37998e-10
-1.42436e-10
-5.80417e-10
-1.57612e-10
-4.11441e-10
-1.68997e-10
-2.38239e-10
-1.73212e-10
-7.33968e-11
-1.64844e-10
6.21719e-11
-1.35561e-10
1.36143e-10
-7.39537e-11
1.11435e-10
2.47349e-11
1.11468e-10
1.20089e-09
3.367e-12
-2.00357e-09
1.91099e-09
3.33748e-13
-1.89747e-09
2.27504e-09
-2.14096e-13
-1.36288e-09
2.37633e-09
-1.77168e-13
-7.01287e-10
2.23689e-09
-6.02313e-14
-6.17468e-11
1.88057e-09
4.51822e-15
5.01134e-10
1.33449e-09
2.42113e-14
9.73548e-10
6.26321e-10
2.36682e-14
1.36e-09
-2.17247e-10
1.76903e-14
1.67123e-09
-1.17146e-09
1.20498e-14
1.91898e-09
-2.21466e-09
8.06813e-15
2.11391e-09
-3.32882e-09
5.49679e-15
2.26506e-09
-4.49854e-09
3.80822e-15
2.3803e-09
-5.71052e-09
2.66289e-15
2.46645e-09
-6.95352e-09
1.91034e-15
2.52859e-09
-8.2181e-09
1.45093e-15
2.57083e-09
-9.49626e-09
1.17724e-15
2.59644e-09
-1.07812e-08
9.8937e-16
2.60809e-09
-1.2067e-08
8.32427e-16
2.60792e-09
-1.33489e-08
6.95895e-16
2.5977e-09
-1.46224e-08
5.89476e-16
2.57889e-09
-1.58838e-08
5.1927e-16
2.55269e-09
-1.71299e-08
4.77958e-16
2.52011e-09
-1.8358e-08
4.48519e-16
2.48199e-09
-1.95655e-08
4.10759e-16
2.43906e-09
-2.07503e-08
3.49065e-16
2.39192e-09
-2.19105e-08
2.57745e-16
2.3411e-09
-2.30445e-08
1.45853e-16
2.28703e-09
-2.41507e-08
3.4259e-17
2.23013e-09
-2.52279e-08
-5.33468e-17
2.17071e-09
-2.62749e-08
-1.02409e-16
2.1091e-09
-2.72907e-08
-1.1431e-16
2.04556e-09
-2.82744e-08
-1.03904e-16
1.98032e-09
-2.92254e-08
-8.8564e-17
1.91359e-09
-3.01428e-08
-7.19775e-17
1.84559e-09
-3.10261e-08
-3.26226e-17
1.77647e-09
-3.18747e-08
6.88843e-17
1.7064e-09
-3.26884e-08
2.57236e-16
1.63552e-09
-3.34667e-08
4.99391e-16
1.56397e-09
-3.42093e-08
6.95468e-16
1.49188e-09
-3.49159e-08
7.37819e-16
1.41935e-09
-3.55865e-08
6.09042e-16
1.34648e-09
-3.6221e-08
4.19741e-16
1.27335e-09
-3.68191e-08
3.06294e-16
1.20004e-09
-3.73811e-08
2.7155e-16
1.12659e-09
-3.79069e-08
1.78642e-16
1.05304e-09
-3.83967e-08
-5.40666e-17
9.7935e-10
-3.8851e-08
-3.70343e-16
9.05493e-10
-3.92702e-08
-7.81625e-16
8.31435e-10
-3.96551e-08
-1.36048e-15
7.57304e-10
-4.00064e-08
-1.85961e-15
6.83818e-10
-4.0324e-08
-1.96153e-15
6.13206e-10
-4.06055e-08
-1.37348e-15
5.50252e-10
-4.08438e-08
1.23876e-16
5.00403e-10
-4.10352e-08
1.1275e-15
4.56765e-10
-4.11958e-08
1.0657e-15
3.91664e-10
-4.13455e-08
5.10663e-16
2.97692e-10
-4.1479e-08
-1.28309e-16
2.06124e-10
-4.15759e-08
-1.33282e-16
1.35622e-10
-4.16105e-08
-2.75885e-16
9.79476e-11
-4.15974e-08
-1.06177e-15
4.71297e-11
-4.15775e-08
-2.09166e-15
-4.81027e-11
-4.15504e-08
-2.20786e-15
-1.39857e-10
-4.14859e-08
-2.85772e-15
-1.87759e-10
-4.13773e-08
-2.57712e-15
-2.15783e-10
-4.12362e-08
-9.46507e-16
-2.54251e-10
-4.10703e-08
3.90391e-16
-3.04842e-10
-4.0881e-08
1.06501e-15
-3.5988e-10
-4.06679e-08
1.53837e-15
-4.14799e-10
-4.04307e-08
1.89992e-15
-4.67813e-10
-4.01695e-08
1.72044e-15
-5.18516e-10
-3.98849e-08
1.14191e-15
-5.66975e-10
-3.95775e-08
7.41004e-16
-6.13351e-10
-3.9248e-08
6.25578e-16
-6.57788e-10
-3.88973e-08
4.80078e-16
-7.00387e-10
-3.85261e-08
1.51931e-16
-7.41211e-10
-3.81354e-08
-1.98389e-16
-7.80295e-10
-3.77259e-08
-3.7323e-16
-8.17652e-10
-3.72984e-08
-3.53213e-16
-8.53293e-10
-3.68539e-08
-2.59105e-16
-8.87223e-10
-3.63932e-08
-2.01561e-16
-9.19447e-10
-3.59171e-08
-2.01575e-16
-9.49968e-10
-3.54264e-08
-2.16429e-16
-9.78792e-10
-3.4922e-08
-2.04747e-16
-1.00592e-09
-3.44047e-08
-1.61231e-16
-1.03137e-09
-3.38754e-08
-1.09366e-16
-1.05513e-09
-3.33348e-08
-7.62165e-17
-1.07723e-09
-3.27838e-08
-7.43737e-17
-1.09768e-09
-3.22232e-08
-9.85247e-17
-1.1165e-09
-3.16538e-08
-1.33382e-16
-1.13369e-09
-3.10764e-08
-1.6225e-16
-1.14929e-09
-3.04918e-08
-1.73173e-16
-1.16331e-09
-2.99008e-08
-1.62467e-16
-1.17577e-09
-2.9304e-08
-1.33194e-16
-1.18671e-09
-2.87023e-08
-9.33502e-17
-1.19614e-09
-2.80964e-08
-5.24762e-17
-1.2041e-09
-2.74869e-08
-1.85953e-17
-1.21061e-09
-2.68747e-08
3.11544e-18
-1.21572e-09
-2.62604e-08
1.15176e-17
-1.21944e-09
-2.56446e-08
7.58693e-18
-1.22182e-09
-2.50281e-08
-5.58655e-18
-1.22289e-09
-2.44114e-08
-2.3639e-17
-1.22269e-09
-2.37951e-08
-4.25858e-17
-1.22124e-09
-2.318e-08
-5.81717e-17
-1.2186e-09
-2.25665e-08
-6.81739e-17
-1.21479e-09
-2.19552e-08
-7.11289e-17
-1.20986e-09
-2.13466e-08
-6.78496e-17
-1.20384e-09
-2.07413e-08
-5.99084e-17
-1.19677e-09
-2.01399e-08
-4.96632e-17
-1.18869e-09
-1.95427e-08
-3.96077e-17
-1.17964e-09
-1.89503e-08
-3.12057e-17
-1.16965e-09
-1.83631e-08
-2.55956e-17
-1.15877e-09
-1.77815e-08
-2.25604e-17
-1.14703e-09
-1.7206e-08
-2.14769e-17
-1.13447e-09
-1.66369e-08
-2.14233e-17
-1.12113e-09
-1.60747e-08
-2.14241e-17
-1.10703e-09
-1.55197e-08
-2.11538e-17
-1.09222e-09
-1.49723e-08
-2.00162e-17
-1.07673e-09
-1.44327e-08
-1.82281e-17
-1.0606e-09
-1.39014e-08
-1.58709e-17
-1.04384e-09
-1.33786e-08
-1.29174e-17
-1.0265e-09
-1.28646e-08
-9.53035e-18
-1.0086e-09
-1.23596e-08
-5.81809e-18
-9.90179e-10
-1.18641e-08
-1.88907e-18
-9.71256e-10
-1.1378e-08
2.01275e-18
-9.51861e-10
-1.09019e-08
5.9958e-18
-9.32018e-10
-1.04357e-08
9.92453e-18
-9.11753e-10
-9.97989e-09
1.37989e-17
-8.91088e-10
-9.5345e-09
1.74564e-17
-8.70047e-10
-9.09976e-09
2.08155e-17
-8.4865e-10
-8.67587e-09
2.40661e-17
-8.2692e-10
-8.26298e-09
2.69642e-17
-8.04875e-10
-7.86127e-09
2.94556e-17
-7.82536e-10
-7.47088e-09
3.16215e-17
-7.59921e-10
-7.09196e-09
3.31638e-17
-7.3705e-10
-6.72464e-09
3.42722e-17
-7.1394e-10
-6.36905e-09
3.48112e-17
-6.9061e-10
-6.02529e-09
3.49434e-17
-6.67079e-10
-5.69348e-09
3.40454e-17
-6.43365e-10
-5.37371e-09
3.30387e-17
-6.19488e-10
-5.06607e-09
3.10018e-17
-5.95466e-10
-4.77064e-09
2.84767e-17
-5.71321e-10
-4.48747e-09
2.54905e-17
-5.47073e-10
-4.21662e-09
2.17721e-17
-5.22747e-10
-3.95814e-09
1.77824e-17
-4.98364e-10
-3.71205e-09
1.34129e-17
-4.73951e-10
-3.47836e-09
8.79901e-18
-4.49536e-10
-3.25707e-09
4.2661e-18
-4.25146e-10
-3.04817e-09
-1.58775e-19
-4.00814e-10
-2.85163e-09
-4.34012e-18
-3.76573e-10
-2.66739e-09
-8.35927e-18
-3.52458e-10
-2.49539e-09
-1.16741e-17
-3.28509e-10
-2.33552e-09
-1.44473e-17
-3.04766e-10
-2.18768e-09
-1.695e-17
-2.81274e-10
-2.05172e-09
-1.89653e-17
-2.5808e-10
-1.92749e-09
-2.04389e-17
-2.35233e-10
-1.81479e-09
-2.22384e-17
-2.12788e-10
-1.7134e-09
-2.39842e-17
-1.90802e-10
-1.62308e-09
-2.62727e-17
-1.69333e-10
-1.54354e-09
-2.92665e-17
-1.48446e-10
-1.47446e-09
-3.32908e-17
-1.28207e-10
-1.4155e-09
-3.87253e-17
-1.08686e-10
-1.36626e-09
-4.57324e-17
-8.99556e-11
-1.32633e-09
-5.42581e-17
-7.20926e-11
-1.29523e-09
-6.39228e-17
-5.51762e-11
-1.27246e-09
-7.47808e-17
-3.92888e-11
-1.25746e-09
-8.64525e-17
-2.45154e-11
-1.24965e-09
-9.8667e-17
-1.09437e-11
-1.24838e-09
-1.11099e-16
1.33648e-12
-1.25296e-09
-1.23856e-16
1.22336e-11
-1.26266e-09
-1.37157e-16
2.16531e-11
-1.27671e-09
-1.51488e-16
2.94981e-11
-1.29426e-09
-1.67663e-16
3.5671e-11
-1.31444e-09
-1.85737e-16
4.00733e-11
-1.33633e-09
-2.06141e-16
4.26061e-11
-1.35895e-09
-2.28281e-16
4.31704e-11
-1.38127e-09
-2.5194e-16
4.16678e-11
-1.40222e-09
-2.7587e-16
3.80015e-11
-1.4207e-09
-2.99584e-16
3.20773e-11
-1.43554e-09
-3.24383e-16
2.38054e-11
-1.44555e-09
-3.50538e-16
1.31022e-11
-1.44952e-09
-3.8038e-16
-1.05464e-13
-1.44619e-09
-4.13475e-16
-1.58752e-11
-1.43431e-09
-4.49009e-16
-3.42463e-11
-1.41263e-09
-4.83459e-16
-5.52311e-11
-1.37993e-09
-5.14927e-16
-7.87989e-11
-1.33504e-09
-5.41191e-16
-1.04857e-10
-1.27689e-09
-5.629e-16
-1.33218e-10
-1.20458e-09
-5.79188e-16
-1.6356e-10
-1.11748e-09
-5.86583e-16
-1.9535e-10
-1.01531e-09
-5.81939e-16
-2.27738e-10
-8.98374e-10
-5.65147e-16
-2.59389e-10
-7.67776e-10
-5.39563e-16
-2.88219e-10
-6.25776e-10
-5.13312e-16
-3.10996e-10
-4.76246e-10
-4.88223e-16
-3.22734e-10
-3.25216e-10
-4.66873e-16
-3.15856e-10
-1.81565e-10
-4.51806e-16
-2.79185e-10
-5.82685e-11
-4.02305e-16
-1.97216e-10
1.84371e-11
4.08362e-16
-5.19278e-11
4.03892e-15
1.29928e-10
1.20088e-09
-2.0065e-09
1.91196e-09
-1.89893e-09
2.27561e-09
-1.36335e-09
2.3764e-09
-7.01509e-10
2.23673e-09
-6.19043e-11
1.88037e-09
5.0103e-10
1.33433e-09
9.73486e-10
6.26209e-10
1.35996e-09
-2.17318e-10
1.67121e-09
-1.1715e-09
1.91897e-09
-2.21468e-09
2.1139e-09
-3.32883e-09
2.26505e-09
-4.49854e-09
2.3803e-09
-5.71051e-09
2.46645e-09
-6.95351e-09
2.52859e-09
-8.21809e-09
2.57083e-09
-9.49624e-09
2.59644e-09
-1.07812e-08
2.60809e-09
-1.2067e-08
2.60792e-09
-1.33488e-08
2.5977e-09
-1.46223e-08
2.57888e-09
-1.58838e-08
2.55268e-09
-1.71299e-08
2.52011e-09
-1.8358e-08
2.48199e-09
-1.95655e-08
2.43906e-09
-2.07503e-08
2.39192e-09
-2.19105e-08
2.3411e-09
-2.30445e-08
2.28703e-09
-2.41507e-08
2.23012e-09
-2.52278e-08
2.17071e-09
-2.62748e-08
2.1091e-09
-2.72907e-08
2.04555e-09
-2.82744e-08
1.98031e-09
-2.92253e-08
1.91359e-09
-3.01427e-08
1.84559e-09
-3.1026e-08
1.77647e-09
-3.18747e-08
1.70639e-09
-3.26884e-08
1.63552e-09
-3.34666e-08
1.56398e-09
-3.42092e-08
1.49188e-09
-3.49159e-08
1.41935e-09
-3.55865e-08
1.34648e-09
-3.62209e-08
1.27335e-09
-3.68191e-08
1.20004e-09
-3.7381e-08
1.12659e-09
-3.79068e-08
1.05304e-09
-3.83967e-08
9.79349e-10
-3.8851e-08
9.05493e-10
-3.92702e-08
8.31438e-10
-3.9655e-08
7.57311e-10
-4.00063e-08
6.83828e-10
-4.0324e-08
6.13216e-10
-4.06054e-08
5.50264e-10
-4.08437e-08
5.0041e-10
-4.10352e-08
4.56746e-10
-4.11958e-08
3.91619e-10
-4.13456e-08
2.97634e-10
-4.14791e-08
2.0608e-10
-4.1576e-08
1.35617e-10
-4.16105e-08
9.7977e-11
-4.15974e-08
4.71626e-11
-4.15775e-08
-4.80772e-11
-4.15504e-08
-1.39853e-10
-4.1486e-08
-1.87761e-10
-4.13773e-08
-2.15781e-10
-4.12362e-08
-2.54255e-10
-4.10703e-08
-3.04847e-10
-4.0881e-08
-3.59879e-10
-4.06679e-08
-4.14795e-10
-4.04307e-08
-4.67812e-10
-4.01695e-08
-5.18518e-10
-3.98849e-08
-5.66975e-10
-3.95774e-08
-6.13348e-10
-3.92479e-08
-6.57784e-10
-3.88972e-08
-7.00385e-10
-3.85261e-08
-7.41211e-10
-3.81353e-08
-7.80294e-10
-3.77258e-08
-8.17652e-10
-3.72984e-08
-8.53292e-10
-3.68539e-08
-8.87222e-10
-3.63932e-08
-9.19446e-10
-3.5917e-08
-9.49968e-10
-3.54264e-08
-9.78792e-10
-3.49219e-08
-1.00592e-09
-3.44047e-08
-1.03136e-09
-3.38753e-08
-1.05513e-09
-3.33347e-08
-1.07723e-09
-3.27838e-08
-1.09768e-09
-3.22232e-08
-1.1165e-09
-3.16538e-08
-1.13369e-09
-3.10764e-08
-1.14929e-09
-3.04918e-08
-1.16331e-09
-2.99007e-08
-1.17577e-09
-2.9304e-08
-1.18671e-09
-2.87023e-08
-1.19614e-09
-2.80963e-08
-1.2041e-09
-2.74869e-08
-1.21061e-09
-2.68747e-08
-1.21572e-09
-2.62604e-08
-1.21944e-09
-2.56446e-08
-1.22182e-09
-2.50281e-08
-1.22289e-09
-2.44114e-08
-1.22269e-09
-2.37951e-08
-1.22124e-09
-2.31799e-08
-1.2186e-09
-2.25664e-08
-1.21479e-09
-2.19551e-08
-1.20986e-09
-2.13466e-08
-1.20384e-09
-2.07413e-08
-1.19677e-09
-2.01399e-08
-1.18869e-09
-1.95427e-08
-1.17964e-09
-1.89503e-08
-1.16965e-09
-1.8363e-08
-1.15877e-09
-1.77815e-08
-1.14703e-09
-1.7206e-08
-1.13447e-09
-1.66369e-08
-1.12113e-09
-1.60747e-08
-1.10703e-09
-1.55197e-08
-1.09222e-09
-1.49723e-08
-1.07673e-09
-1.44327e-08
-1.06059e-09
-1.39014e-08
-1.04384e-09
-1.33786e-08
-1.0265e-09
-1.28646e-08
-1.0086e-09
-1.23596e-08
-9.90179e-10
-1.1864e-08
-9.71256e-10
-1.1378e-08
-9.5186e-10
-1.09019e-08
-9.32018e-10
-1.04357e-08
-9.11752e-10
-9.97987e-09
-8.91088e-10
-9.53448e-09
-8.70047e-10
-9.09974e-09
-8.4865e-10
-8.67585e-09
-8.2692e-10
-8.26296e-09
-8.04875e-10
-7.86125e-09
-7.82536e-10
-7.47086e-09
-7.59921e-10
-7.09194e-09
-7.3705e-10
-6.72462e-09
-7.1394e-10
-6.36903e-09
-6.90611e-10
-6.02527e-09
-6.6708e-10
-5.69347e-09
-6.43366e-10
-5.3737e-09
-6.19488e-10
-5.06606e-09
-5.95466e-10
-4.77062e-09
-5.71321e-10
-4.48746e-09
-5.47074e-10
-4.21661e-09
-5.22747e-10
-3.95812e-09
-4.98365e-10
-3.71203e-09
-4.73952e-10
-3.47834e-09
-4.49537e-10
-3.25706e-09
-4.25147e-10
-3.04816e-09
-4.00815e-10
-2.85162e-09
-3.76574e-10
-2.66738e-09
-3.52459e-10
-2.49537e-09
-3.2851e-10
-2.3355e-09
-3.04767e-10
-2.18766e-09
-2.81275e-10
-2.05171e-09
-2.5808e-10
-1.92747e-09
-2.35234e-10
-1.81477e-09
-2.12789e-10
-1.71339e-09
-1.90802e-10
-1.62306e-09
-1.69334e-10
-1.54352e-09
-1.48447e-10
-1.47445e-09
-1.28208e-10
-1.41548e-09
-1.08686e-10
-1.36625e-09
-8.99562e-11
-1.32632e-09
-7.20932e-11
-1.29522e-09
-5.51768e-11
-1.27245e-09
-3.92893e-11
-1.25745e-09
-2.45158e-11
-1.24964e-09
-1.09442e-11
-1.24836e-09
1.33604e-12
-1.25295e-09
1.22332e-11
-1.26265e-09
2.16527e-11
-1.27669e-09
2.94977e-11
-1.29425e-09
3.56706e-11
-1.31443e-09
4.0073e-11
-1.33632e-09
4.26058e-11
-1.35894e-09
4.317e-11
-1.38126e-09
4.16674e-11
-1.40221e-09
3.80011e-11
-1.42069e-09
3.20769e-11
-1.43553e-09
2.3805e-11
-1.44555e-09
1.31018e-11
-1.44951e-09
-1.0597e-13
-1.44619e-09
-1.58758e-11
-1.43431e-09
-3.42469e-11
-1.41263e-09
-5.52319e-11
-1.37993e-09
-7.87998e-11
-1.33503e-09
-1.04857e-10
-1.27688e-09
-1.33219e-10
-1.20458e-09
-1.63562e-10
-1.11748e-09
-1.95352e-10
-1.01531e-09
-2.2774e-10
-8.98374e-10
-2.59391e-10
-7.67776e-10
-2.88222e-10
-6.25778e-10
-3.11e-10
-4.76248e-10
-3.22738e-10
-3.25219e-10
-3.15862e-10
-1.81569e-10
-2.79193e-10
-5.82734e-11
-1.97224e-10
1.84335e-11
-5.19362e-11
1.29924e-10
9.73424e-10
2.25321e-12
-2.97542e-09
1.33664e-09
5.01712e-13
-2.26078e-09
1.36383e-09
1.08317e-13
-1.39018e-09
1.18634e-09
1.09599e-14
-5.23832e-10
8.45859e-10
3.6731e-15
2.78701e-10
3.61111e-10
9.89994e-15
9.8585e-10
-2.54469e-10
1.24888e-14
1.5891e-09
-9.87176e-10
1.1335e-14
2.09267e-09
-1.82245e-09
8.81129e-15
2.50648e-09
-2.74569e-09
6.37246e-15
2.8422e-09
-3.74297e-09
4.52814e-15
3.11117e-09
-4.80158e-09
3.26554e-15
3.32366e-09
-5.90996e-09
2.38381e-15
3.48867e-09
-7.05753e-09
1.73915e-15
3.61401e-09
-8.235e-09
1.28259e-15
3.70605e-09
-9.43423e-09
9.81735e-16
3.77005e-09
-1.06481e-08
7.80002e-16
3.81031e-09
-1.18704e-08
6.19334e-16
3.83039e-09
-1.30957e-08
4.7127e-16
3.83324e-09
-1.43193e-08
3.38927e-16
3.8213e-09
-1.55371e-08
2.36264e-16
3.79662e-09
-1.67453e-08
1.70356e-16
3.7609e-09
-1.79408e-08
1.35049e-16
3.71559e-09
-1.91208e-08
1.1583e-16
3.66192e-09
-2.02826e-08
9.62713e-17
3.60093e-09
-2.14242e-08
6.30928e-17
3.5335e-09
-2.25436e-08
1.02633e-17
3.46043e-09
-2.36389e-08
-5.78128e-17
3.38236e-09
-2.47087e-08
-1.27339e-16
3.2999e-09
-2.57515e-08
-1.80954e-16
3.21355e-09
-2.67662e-08
-2.04673e-16
3.12376e-09
-2.77516e-08
-1.93412e-16
3.03095e-09
-2.87068e-08
-1.50574e-16
2.93548e-09
-2.96309e-08
-8.39642e-17
2.83767e-09
-3.05231e-08
6.02392e-20
2.73782e-09
-3.13829e-08
1.00849e-16
2.63619e-09
-3.22095e-08
2.1862e-16
2.53304e-09
-3.30026e-08
3.39521e-16
2.42859e-09
-3.37617e-08
4.23423e-16
2.32304e-09
-3.44864e-08
4.16619e-16
2.21659e-09
-3.51765e-08
2.98766e-16
2.10942e-09
-3.58317e-08
1.25578e-16
2.00169e-09
-3.64519e-08
2.11433e-18
1.89354e-09
-3.7037e-08
-1.86204e-17
1.78511e-09
-3.75869e-08
5.58268e-19
1.67652e-09
-3.81018e-08
-2.68413e-17
1.56787e-09
-3.85817e-08
-7.27777e-17
1.45924e-09
-3.90269e-08
-7.10726e-17
1.35071e-09
-3.94379e-08
-7.39559e-17
1.24242e-09
-3.98153e-08
-1.37033e-16
1.13468e-09
-4.01597e-08
-3.24461e-16
1.02819e-09
-4.0471e-08
-6.41997e-16
9.24496e-10
-4.07469e-08
-7.07925e-16
8.26232e-10
-4.0982e-08
-8.67042e-16
7.35461e-10
-4.11736e-08
-1.41383e-15
6.48357e-10
-4.13331e-08
-1.83076e-15
5.51187e-10
-4.1474e-08
-1.90126e-15
4.38637e-10
-4.15948e-08
-1.14225e-15
3.26831e-10
-4.16817e-08
-4.37344e-16
2.22604e-10
-4.17187e-08
-6.84061e-16
1.34915e-10
-4.17146e-08
-1.26595e-15
4.30154e-11
-4.16961e-08
-1.20008e-15
-6.66403e-11
-4.16643e-08
-6.23512e-16
-1.71691e-10
-4.15987e-08
-4.98089e-16
-2.533e-10
-4.14924e-08
-2.93363e-16
-3.22162e-10
-4.13529e-08
1.40489e-17
-3.9376e-10
-4.11872e-08
1.18896e-16
-4.70531e-10
-4.09975e-08
3.07268e-16
-5.49588e-10
-4.07841e-08
5.68477e-16
-6.28186e-10
-4.0547e-08
6.85701e-16
-7.04866e-10
-4.02865e-08
6.13797e-16
-7.7904e-10
-4.00029e-08
5.00894e-16
-8.50543e-10
-3.96969e-08
4.59832e-16
-9.19377e-10
-3.93691e-08
4.15326e-16
-9.85587e-10
-3.90203e-08
2.58266e-16
-1.04922e-09
-3.86512e-08
2.04333e-17
-1.1103e-09
-3.82627e-08
-1.71294e-16
-1.16884e-09
-3.78555e-08
-2.39572e-16
-1.22486e-09
-3.74304e-08
-2.12182e-16
-1.27834e-09
-3.69883e-08
-1.6563e-16
-1.3293e-09
-3.65301e-08
-1.4957e-16
-1.37772e-09
-3.60564e-08
-1.61903e-16
-1.42363e-09
-3.55682e-08
-1.73911e-16
-1.46701e-09
-3.50662e-08
-1.64614e-16
-1.50787e-09
-3.45514e-08
-1.35178e-16
-1.54624e-09
-3.40244e-08
-1.01256e-16
-1.5821e-09
-3.34861e-08
-7.92199e-17
-1.6155e-09
-3.29374e-08
-7.56828e-17
-1.64643e-09
-3.23789e-08
-8.68773e-17
-1.67494e-09
-3.18116e-08
-1.03357e-16
-1.70103e-09
-3.12361e-08
-1.15338e-16
-1.72475e-09
-3.06533e-08
-1.16639e-16
-1.74611e-09
-3.00639e-08
-1.05594e-16
-1.76517e-09
-2.94687e-08
-8.49536e-17
-1.78194e-09
-2.88684e-08
-5.92852e-17
-1.79648e-09
-2.82636e-08
-3.40099e-17
-1.80882e-09
-2.76552e-08
-1.35051e-17
-1.81901e-09
-2.70439e-08
-6.98053e-19
-1.82709e-09
-2.64302e-08
3.39469e-18
-1.83311e-09
-2.58149e-08
-4.95007e-19
-1.83712e-09
-2.51986e-08
-1.03478e-17
-1.83918e-09
-2.4582e-08
-2.33042e-17
-1.83933e-09
-2.39656e-08
-3.65315e-17
-1.83763e-09
-2.33501e-08
-4.75228e-17
-1.83413e-09
-2.2736e-08
-5.45431e-17
-1.82888e-09
-2.21239e-08
-5.72267e-17
-1.82195e-09
-2.15143e-08
-5.6102e-17
-1.81339e-09
-2.09078e-08
-5.22939e-17
-1.80325e-09
-2.03049e-08
-4.71847e-17
-1.7916e-09
-1.97061e-08