/*--------------------------------*- C++ -*----------------------------------*\
  =========                 |
  \\      /  F ield         | OpenFOAM: The Open Source CFD Toolbox
   \\    /   O peration     | Website:  https://openfoam.org
    \\  /    A nd           | Version:  8
     \\/     M anipulation  |
\*---------------------------------------------------------------------------*/
FoamFile
{
    version     2.0;
    format      ascii;
    class       volScalarField;
    location    "4500";
    object      T;
}
// * * * * * * * * * * * * * * * * * * * * * * * * * * * * * * * * * * * * * //

dimensions      [0 0 0 1 0 0 0];

internalField   nonuniform List<scalar> 
46000
(
309.652
308.464
307.672
307.166
306.803
306.516
306.276
306.07
305.888
305.725
305.577
305.44
305.314
305.197
305.088
304.985
304.888
304.797
304.71
304.628
304.551
304.477
304.406
304.339
304.275
304.214
304.156
304.101
304.048
303.997
303.949
303.903
303.859
303.817
303.777
303.739
303.702
303.668
303.635
303.603
303.573
303.545
303.518
303.492
303.468
303.445
303.424
303.404
303.386
303.37
303.357
303.348
303.343
303.343
303.345
303.347
303.343
303.334
303.323
303.311
303.297
303.28
303.261
303.243
303.229
303.219
303.212
303.208
303.206
303.206
303.206
303.207
303.21
303.213
303.216
303.221
303.226
303.232
303.239
303.247
303.255
303.264
303.273
303.283
303.294
303.306
303.318
303.331
303.344
303.359
303.373
303.389
303.405
303.421
303.439
303.457
303.475
303.494
303.514
303.534
303.555
303.576
303.598
303.62
303.643
303.667
303.691
303.715
303.74
303.766
303.792
303.819
303.846
303.874
303.902
303.931
303.96
303.989
304.019
304.05
304.081
304.113
304.145
304.178
304.211
304.244
304.278
304.313
304.348
304.383
304.419
304.456
304.493
304.53
304.568
304.607
304.646
304.685
304.725
304.766
304.807
304.849
304.891
304.934
304.977
305.021
305.065
305.11
305.156
305.202
305.249
305.297
305.345
305.394
305.443
305.493
305.544
305.595
305.648
305.7
305.754
305.808
305.863
305.919
305.976
306.033
306.091
306.151
306.211
306.272
306.334
306.397
306.461
306.527
306.594
306.662
306.733
306.805
306.878
306.955
307.033
307.114
307.199
307.286
307.378
307.475
307.577
307.685
307.801
307.927
308.064
308.215
308.386
308.581
308.81
309.089
309.445
309.926
310.587
311.257
309.65
308.464
307.672
307.166
306.803
306.516
306.276
306.07
305.888
305.725
305.577
305.44
305.314
305.197
305.088
304.985
304.888
304.797
304.71
304.628
304.551
304.477
304.406
304.339
304.275
304.214
304.156
304.101
304.048
303.997
303.949
303.903
303.859
303.817
303.777
303.739
303.702
303.668
303.635
303.603
303.573
303.545
303.518
303.492
303.468
303.445
303.424
303.404
303.386
303.37
303.357
303.348
303.343
303.343
303.346
303.347
303.343
303.334
303.323
303.311
303.297
303.28
303.26
303.242
303.228
303.219
303.212
303.208
303.206
303.206
303.206
303.207
303.21
303.213
303.216
303.221
303.226
303.232
303.239
303.247
303.255
303.264
303.273
303.283
303.294
303.306
303.318
303.331
303.344
303.359
303.373
303.389
303.405
303.421
303.439
303.457
303.475
303.494
303.514
303.534
303.555
303.576
303.598
303.62
303.643
303.667
303.691
303.715
303.74
303.766
303.792
303.819
303.846
303.874
303.902
303.931
303.96
303.989
304.019
304.05
304.081
304.113
304.145
304.178
304.211
304.244
304.278
304.313
304.348
304.383
304.419
304.456
304.493
304.53
304.568
304.607
304.646
304.685
304.725
304.766
304.807
304.849
304.891
304.934
304.977
305.021
305.065
305.11
305.156
305.202
305.249
305.297
305.345
305.394
305.443
305.493
305.544
305.595
305.648
305.7
305.754
305.808
305.863
305.919
305.976
306.033
306.091
306.151
306.211
306.272
306.334
306.397
306.461
306.527
306.594
306.662
306.733
306.805
306.878
306.955
307.033
307.114
307.199
307.286
307.378
307.475
307.577
307.685
307.801
307.927
308.064
308.215
308.386
308.581
308.81
309.089
309.445
309.926
310.587
311.257
306.232
305.854
305.535
305.28
305.073
304.898
304.748
304.615
304.494
304.384
304.283
304.188
304.1
304.017
303.939
303.865
303.795
303.728
303.664
303.604
303.546
303.49
303.437
303.387
303.338
303.292
303.248
303.205
303.164
303.125
303.088
303.052
303.017
302.984
302.953
302.922
302.893
302.865
302.839
302.813
302.789
302.765
302.743
302.722
302.702
302.682
302.664
302.647
302.63
302.616
302.602
302.592
302.583
302.578
302.574
302.569
302.562
302.553
302.542
302.531
302.52
302.506
302.492
302.478
302.467
302.458
302.452
302.446
302.442
302.439
302.436
302.434
302.433
302.432
302.431
302.432
302.432
302.434
302.435
302.438
302.441
302.444
302.448
302.452
302.457
302.462
302.467
302.474
302.48
302.487
302.495
302.503
302.512
302.52
302.53
302.54
302.55
302.561
302.572
302.584
302.596
302.609
302.622
302.635
302.649
302.663
302.678
302.693
302.709
302.725
302.742
302.759
302.776
302.794
302.813
302.831
302.851
302.87
302.89
302.911
302.932
302.954
302.976
302.998
303.021
303.044
303.068
303.092
303.117
303.142
303.168
303.194
303.221
303.248
303.276
303.304
303.333
303.362
303.392
303.422
303.452
303.484
303.515
303.548
303.581
303.614
303.648
303.682
303.717
303.753
303.789
303.826
303.863
303.9
303.939
303.977
304.017
304.057
304.097
304.138
304.18
304.222
304.265
304.308
304.352
304.396
304.441
304.487
304.533
304.58
304.628
304.677
304.726
304.776
304.827
304.879
304.932
304.986
305.042
305.099
305.158
305.219
305.282
305.347
305.416
305.488
305.564
305.645
305.732
305.826
305.929
306.043
306.172
306.321
306.496
306.707
306.973
307.317
307.783
308.361
306.232
305.854
305.534
305.28
305.073
304.898
304.748
304.615
304.494
304.384
304.283
304.188
304.1
304.017
303.939
303.865
303.795
303.728
303.664
303.604
303.546
303.49
303.437
303.387
303.338
303.292
303.248
303.205
303.164
303.125
303.088
303.052
303.017
302.984
302.953
302.922
302.893
302.865
302.839
302.813
302.789
302.765
302.743
302.722
302.702
302.682
302.664
302.647
302.63
302.616
302.602
302.592
302.583
302.578
302.574
302.569
302.562
302.553
302.542
302.531
302.519
302.506
302.491
302.478
302.467
302.458
302.452
302.446
302.442
302.439
302.436
302.434
302.433
302.432
302.431
302.432
302.432
302.434
302.435
302.438
302.441
302.444
302.448
302.452
302.457
302.462
302.467
302.474
302.48
302.487
302.495
302.503
302.512
302.521
302.53
302.54
302.55
302.561
302.572
302.584
302.596
302.609
302.622
302.635
302.649
302.663
302.678
302.693
302.709
302.725
302.742
302.759
302.776
302.794
302.813
302.831
302.851
302.87
302.89
302.911
302.932
302.954
302.976
302.998
303.021
303.044
303.068
303.092
303.117
303.142
303.168
303.194
303.221
303.248
303.276
303.304
303.333
303.362
303.392
303.422
303.452
303.484
303.515
303.548
303.581
303.614
303.648
303.682
303.717
303.753
303.789
303.826
303.863
303.9
303.939
303.977
304.017
304.057
304.097
304.138
304.18
304.222
304.265
304.308
304.352
304.396
304.441
304.487
304.533
304.58
304.628
304.677
304.726
304.776
304.827
304.879
304.932
304.986
305.042
305.099
305.158
305.219
305.282
305.347
305.416
305.488
305.564
305.645
305.732
305.826
305.929
306.043
306.172
306.321
306.496
306.707
306.973
307.317
307.783
308.361
304.778
304.703
304.568
304.427
304.294
304.172
304.06
303.957
303.861
303.773
303.689
303.611
303.537
303.466
303.4
303.336
303.275
303.218
303.162
303.109
303.058
303.01
302.963
302.918
302.876
302.834
302.795
302.757
302.72
302.685
302.651
302.619
302.588
302.558
302.529
302.502
302.475
302.45
302.425
302.402
302.379
302.358
302.337
302.317
302.298
302.28
302.263
302.246
302.231
302.216
302.202
302.19
302.179
302.169
302.159
302.15
302.141
302.131
302.121
302.11
302.1
302.09
302.08
302.07
302.062
302.055
302.049
302.043
302.039
302.034
302.031
302.027
302.025
302.023
302.021
302.02
302.019
302.018
302.018
302.019
302.02
302.021
302.023
302.025
302.028
302.031
302.035
302.038
302.043
302.048
302.053
302.058
302.065
302.071
302.078
302.085
302.093
302.101
302.11
302.119
302.128
302.138
302.148
302.159
302.17
302.181
302.193
302.206
302.218
302.232
302.245
302.259
302.274
302.289
302.304
302.32
302.336
302.353
302.37
302.388
302.406
302.424
302.443
302.463
302.482
302.503
302.524
302.545
302.567
302.589
302.612
302.635
302.659
302.683
302.708
302.733
302.759
302.785
302.812
302.839
302.867
302.895
302.924
302.953
302.983
303.013
303.044
303.076
303.108
303.14
303.173
303.207
303.241
303.275
303.31
303.346
303.382
303.419
303.456
303.493
303.531
303.57
303.609
303.649
303.689
303.73
303.771
303.813
303.855
303.898
303.941
303.985
304.03
304.075
304.121
304.168
304.216
304.265
304.314
304.365
304.418
304.472
304.527
304.585
304.645
304.708
304.774
304.844
304.918
304.999
305.086
305.181
305.287
305.406
305.542
305.699
305.883
306.098
306.35
306.618
304.778
304.703
304.568
304.427
304.294
304.172
304.06
303.957
303.861
303.773
303.689
303.611
303.537
303.466
303.4
303.336
303.275
303.218
303.162
303.109
303.058
303.01
302.963
302.918
302.876
302.834
302.795
302.757
302.72
302.685
302.651
302.619
302.588
302.558
302.529
302.502
302.475
302.45
302.425
302.402
302.379
302.358
302.337
302.317
302.298
302.28
302.263
302.246
302.231
302.216
302.202
302.19
302.179
302.169
302.159
302.15
302.141
302.131
302.12
302.11
302.1
302.09
302.079
302.07
302.062
302.055
302.049
302.043
302.039
302.034
302.031
302.027
302.025
302.023
302.021
302.02
302.019
302.018
302.018
302.019
302.02
302.021
302.023
302.025
302.028
302.031
302.035
302.038
302.043
302.048
302.053
302.058
302.065
302.071
302.078
302.085
302.093
302.101
302.11
302.119
302.128
302.138
302.148
302.159
302.17
302.181
302.193
302.206
302.218
302.232
302.245
302.259
302.274
302.289
302.304
302.32
302.336
302.353
302.37
302.388
302.406
302.424
302.443
302.463
302.482
302.503
302.524
302.545
302.567
302.589
302.612
302.635
302.659
302.683
302.708
302.733
302.759
302.785
302.812
302.839
302.867
302.895
302.924
302.953
302.983
303.013
303.044
303.076
303.108
303.14
303.173
303.207
303.241
303.275
303.31
303.346
303.382
303.419
303.456
303.493
303.531
303.57
303.609
303.649
303.689
303.73
303.771
303.813
303.855
303.898
303.941
303.985
304.03
304.075
304.121
304.168
304.216
304.265
304.314
304.365
304.418
304.472
304.527
304.585
304.645
304.708
304.774
304.844
304.918
304.999
305.086
305.181
305.287
305.406
305.542
305.699
305.883
306.098
306.35
306.618
304.022
304.018
303.958
303.877
303.789
303.7
303.614
303.532
303.453
303.378
303.307
303.239
303.174
303.112
303.052
302.995
302.941
302.888
302.838
302.79
302.743
302.698
302.655
302.614
302.574
302.536
302.499
302.464
302.43
302.397
302.365
302.335
302.306
302.278
302.251
302.225
302.199
302.175
302.152
302.13
302.108
302.088
302.068
302.049
302.03
302.013
301.996
301.98
301.965
301.95
301.936
301.923
301.91
301.898
301.886
301.875
301.864
301.854
301.844
301.834
301.825
301.816
301.807
301.8
301.793
301.787
301.781
301.776
301.771
301.766
301.762
301.758
301.755
301.752
301.749
301.747
301.746
301.744
301.744
301.743
301.743
301.744
301.744
301.746
301.747
301.749
301.752
301.755
301.758
301.761
301.766
301.77
301.775
301.78
301.786
301.792
301.798
301.805
301.812
301.82
301.828
301.836
301.845
301.855
301.864
301.874
301.885
301.896
301.907
301.919
301.931
301.944
301.957
301.97
301.984
301.999
302.014
302.029
302.045
302.061
302.077
302.094
302.112
302.13
302.148
302.167
302.186
302.206
302.227
302.247
302.269
302.291
302.313
302.336
302.359
302.383
302.407
302.432
302.457
302.483
302.509
302.536
302.563
302.591
302.619
302.648
302.678
302.708
302.738
302.769
302.801
302.832
302.865
302.898
302.931
302.965
303
303.035
303.07
303.106
303.142
303.179
303.216
303.254
303.292
303.331
303.37
303.41
303.45
303.49
303.531
303.573
303.615
303.658
303.701
303.745
303.79
303.835
303.882
303.929
303.978
304.027
304.079
304.131
304.186
304.243
304.303
304.365
304.432
304.502
304.577
304.659
304.747
304.844
304.95
305.066
305.193
305.326
305.459
305.572
304.022
304.018
303.958
303.877
303.789
303.7
303.614
303.532
303.453
303.378
303.307
303.239
303.174
303.112
303.052
302.995
302.941
302.888
302.838
302.79
302.743
302.698
302.655
302.614
302.574
302.536
302.499
302.464
302.43
302.397
302.365
302.335
302.306
302.278
302.251
302.225
302.199
302.175
302.152
302.13
302.108
302.088
302.068
302.049
302.03
302.013
301.996
301.98
301.965
301.95
301.936
301.923
301.91
301.898
301.886
301.875
301.864
301.854
301.844
301.834
301.825
301.816
301.807
301.8
301.793
301.787
301.781
301.776
301.771
301.766
301.762
301.758
301.755
301.752
301.749
301.747
301.746
301.744
301.744
301.743
301.743
301.744
301.744
301.746
301.747
301.749
301.752
301.755
301.758
301.761
301.766
301.77
301.775
301.78
301.786
301.792
301.798
301.805
301.812
301.82
301.828
301.836
301.845
301.855
301.864
301.874
301.885
301.896
301.907
301.919
301.931
301.944
301.957
301.97
301.984
301.999
302.014
302.029
302.045
302.061
302.077
302.094
302.112
302.13
302.148
302.167
302.186
302.206
302.227
302.247
302.269
302.291
302.313
302.336
302.359
302.383
302.407
302.432
302.457
302.483
302.509
302.536
302.563
302.591
302.619
302.648
302.678
302.708
302.738
302.769
302.801
302.832
302.865
302.898
302.931
302.965
303
303.035
303.07
303.106
303.142
303.179
303.216
303.254
303.292
303.331
303.37
303.41
303.45
303.49
303.531
303.573
303.615
303.658
303.701
303.745
303.79
303.835
303.882
303.929
303.978
304.027
304.079
304.131
304.186
304.243
304.303
304.365
304.432
304.502
304.577
304.659
304.747
304.844
304.95
305.066
305.193
305.326
305.459
305.572
303.538
303.548
303.519
303.469
303.409
303.343
303.276
303.21
303.144
303.08
303.018
302.958
302.901
302.845
302.791
302.739
302.689
302.641
302.595
302.55
302.507
302.465
302.425
302.386
302.349
302.313
302.278
302.245
302.212
302.181
302.151
302.122
302.094
302.067
302.041
302.016
301.992
301.969
301.947
301.925
301.904
301.884
301.865
301.846
301.829
301.812
301.795
301.779
301.764
301.75
301.736
301.722
301.709
301.696
301.684
301.672
301.661
301.65
301.64
301.631
301.622
301.613
301.606
301.598
301.592
301.586
301.58
301.574
301.569
301.564
301.56
301.555
301.552
301.548
301.545
301.543
301.541
301.539
301.538
301.537
301.536
301.536
301.536
301.537
301.538
301.539
301.541
301.543
301.546
301.549
301.552
301.556
301.56
301.564
301.569
301.574
301.58
301.586
301.592
301.599
301.606
301.614
301.622
301.63
301.639
301.649
301.658
301.668
301.679
301.69
301.701
301.713
301.725
301.737
301.751
301.764
301.778
301.792
301.807
301.822
301.838
301.854
301.871
301.888
301.905
301.923
301.942
301.961
301.98
302
302.02
302.041
302.062
302.084
302.107
302.129
302.153
302.177
302.201
302.226
302.251
302.277
302.303
302.33
302.358
302.386
302.414
302.443
302.472
302.502
302.533
302.564
302.595
302.627
302.659
302.692
302.725
302.759
302.793
302.828
302.863
302.899
302.934
302.971
303.008
303.045
303.083
303.121
303.159
303.198
303.237
303.277
303.317
303.358
303.399
303.441
303.484
303.527
303.57
303.615
303.661
303.707
303.755
303.804
303.854
303.906
303.961
304.017
304.076
304.138
304.204
304.273
304.347
304.425
304.507
304.593
304.68
304.764
304.836
304.885
303.538
303.548
303.519
303.469
303.409
303.343
303.276
303.21
303.144
303.08
303.018
302.958
302.901
302.845
302.791
302.739
302.689
302.641
302.595
302.55
302.507
302.465
302.425
302.386
302.349
302.313
302.278
302.245
302.212
302.181
302.151
302.122
302.094
302.067
302.041
302.016
301.992
301.969
301.947
301.925
301.904
301.884
301.865
301.846
301.829
301.812
301.795
301.779
301.764
301.75
301.736
301.722
301.709
301.696
301.684
301.672
301.661
301.65
301.64
301.631
301.622
301.613
301.606
301.599
301.592
301.586
301.58
301.574
301.569
301.564
301.56
301.555
301.552
301.548
301.545
301.543
301.541
301.539
301.538
301.537
301.536
301.536
301.536
301.537
301.538
301.539
301.541
301.543
301.546
301.549
301.552
301.556
301.56
301.564
301.569
301.574
301.58
301.586
301.592
301.599
301.606
301.614
301.622
301.63
301.639
301.649
301.658
301.668
301.679
301.69
301.701
301.713
301.725
301.737
301.751
301.764
301.778
301.792
301.807
301.822
301.838
301.854
301.871
301.888
301.905
301.923
301.942
301.961
301.98
302
302.02
302.041
302.062
302.084
302.107
302.129
302.153
302.177
302.201
302.226
302.251
302.277
302.303
302.33
302.358
302.386
302.414
302.443
302.472
302.502
302.533
302.564
302.595
302.627
302.659
302.692
302.725
302.759
302.793
302.828
302.863
302.899
302.934
302.971
303.008
303.045
303.083
303.121
303.159
303.198
303.237
303.277
303.317
303.358
303.399
303.441
303.484
303.527
303.57
303.615
303.661
303.707
303.755
303.804
303.854
303.906
303.961
304.017
304.076
304.138
304.204
304.273
304.347
304.425
304.507
304.593
304.68
304.764
304.836
304.885
303.186
303.196
303.18
303.147
303.104
303.054
303.001
302.946
302.891
302.836
302.782
302.729
302.678
302.627
302.579
302.531
302.485
302.44
302.397
302.355
302.315
302.276
302.238
302.201
302.166
302.132
302.099
302.067
302.036
302.006
301.977
301.949
301.923
301.897
301.872
301.847
301.824
301.802
301.78
301.759
301.739
301.719
301.701
301.683
301.665
301.648
301.632
301.617
301.602
301.587
301.573
301.56
301.547
301.534
301.522
301.51
301.499
301.488
301.478
301.469
301.46
301.451
301.443
301.436
301.43
301.423
301.417
301.411
301.406
301.401
301.396
301.392
301.388
301.384
301.381
301.378
301.375
301.373
301.371
301.37
301.369
301.368
301.368
301.368
301.369
301.37
301.371
301.373
301.375
301.377
301.38
301.383
301.387
301.391
301.395
301.4
301.405
301.41
301.416
301.422
301.429
301.436
301.443
301.451
301.459
301.468
301.477
301.487
301.496
301.507
301.517
301.528
301.54
301.552
301.564
301.577
301.59
301.604
301.618
301.633
301.648
301.663
301.679
301.696
301.712
301.73
301.747
301.766
301.784
301.804
301.823
301.844
301.864
301.885
301.907
301.929
301.952
301.975
301.999
302.023
302.047
302.073
302.098
302.124
302.151
302.178
302.206
302.234
302.263
302.292
302.321
302.351
302.382
302.413
302.444
302.476
302.509
302.542
302.575
302.608
302.643
302.677
302.712
302.747
302.783
302.819
302.855
302.892
302.929
302.967
303.005
303.043
303.082
303.121
303.16
303.2
303.241
303.282
303.323
303.365
303.408
303.452
303.497
303.542
303.589
303.637
303.686
303.737
303.79
303.845
303.902
303.961
304.022
304.085
304.149
304.213
304.274
304.328
304.368
304.39
303.186
303.196
303.18
303.147
303.104
303.054
303.001
302.946
302.891
302.836
302.782
302.729
302.678
302.627
302.579
302.531
302.485
302.44
302.397
302.355
302.315
302.276
302.238
302.201
302.166
302.132
302.099
302.067
302.036
302.006
301.977
301.949
301.923
301.897
301.872
301.847
301.824
301.802
301.78
301.759
301.739
301.719
301.701
301.683
301.665
301.648
301.632
301.617
301.602
301.587
301.573
301.56
301.547
301.534
301.522
301.51
301.499
301.488
301.478
301.469
301.46
301.451
301.443
301.436
301.43
301.423
301.417
301.411
301.406
301.401
301.396
301.392
301.388
301.384
301.381
301.378
301.375
301.373
301.371
301.37
301.369
301.368
301.368
301.368
301.369
301.37
301.371
301.373
301.375
301.377
301.38
301.383
301.387
301.391
301.395
301.4
301.405
301.41
301.416
301.422
301.429
301.436
301.443
301.451
301.459
301.468
301.477
301.487
301.496
301.507
301.517
301.528
301.54
301.552
301.564
301.577
301.59
301.604
301.618
301.633
301.648
301.663
301.679
301.696
301.712
301.73
301.747
301.766
301.784
301.804
301.823
301.844
301.864
301.885
301.907
301.929
301.952
301.975
301.999
302.023
302.047
302.073
302.098
302.124
302.151
302.178
302.206
302.234
302.263
302.292
302.321
302.351
302.382
302.413
302.444
302.476
302.509
302.542
302.575
302.608
302.643
302.677
302.712
302.747
302.783
302.819
302.855
302.892
302.929
302.967
303.005
303.043
303.082
303.121
303.16
303.2
303.241
303.282
303.323
303.365
303.408
303.452
303.497
303.542
303.589
303.637
303.686
303.737
303.79
303.845
303.902
303.961
304.022
304.085
304.149
304.213
304.274
304.328
304.368
304.39
302.908
302.915
302.905
302.882
302.849
302.81
302.767
302.722
302.675
302.628
302.58
302.533
302.487
302.441
302.396
302.353
302.31
302.269
302.228
302.189
302.151
302.114
302.078
302.044
302.01
301.977
301.946
301.915
301.886
301.857
301.829
301.803
301.777
301.752
301.727
301.704
301.681
301.659
301.638
301.618
301.598
301.579
301.561
301.543
301.526
301.509
301.494
301.478
301.463
301.449
301.435
301.422
301.409
301.397
301.385
301.373
301.362
301.351
301.341
301.332
301.323
301.314
301.306
301.299
301.292
301.285
301.279
301.273
301.267
301.262
301.257
301.253
301.248
301.244
301.241
301.238
301.235
301.233
301.231
301.229
301.228
301.227
301.226
301.226
301.226
301.227
301.228
301.229
301.23
301.232
301.235
301.238
301.241
301.244
301.248
301.252
301.257
301.262
301.268
301.273
301.28
301.286
301.293
301.3
301.308
301.316
301.325
301.334
301.343
301.353
301.363
301.374
301.385
301.396
301.408
301.42
301.433
301.446
301.46
301.474
301.488
301.503
301.519
301.535
301.551
301.568
301.585
301.603
301.621
301.64
301.659
301.678
301.699
301.719
301.74
301.762
301.784
301.806
301.829
301.853
301.877
301.902
301.927
301.952
301.978
302.005
302.032
302.059
302.087
302.116
302.145
302.174
302.204
302.234
302.265
302.296
302.328
302.36
302.392
302.425
302.458
302.492
302.526
302.56
302.595
302.63
302.665
302.701
302.737
302.773
302.81
302.847
302.884
302.922
302.96
302.998
303.037
303.076
303.115
303.155
303.196
303.237
303.279
303.321
303.364
303.409
303.454
303.5
303.547
303.595
303.645
303.695
303.746
303.797
303.847
303.895
303.938
303.974
303.998
304.007
302.908
302.915
302.905
302.882
302.849
302.81
302.767
302.722
302.675
302.628
302.58
302.533
302.487
302.441
302.396
302.353
302.31
302.269
302.228
302.189
302.151
302.114
302.078
302.044
302.01
301.977
301.946
301.915
301.886
301.857
301.829
301.803
301.777
301.752
301.727
301.704
301.681
301.659
301.638
301.618
301.598
301.579
301.561
301.543
301.526
301.509
301.494
301.478
301.463
301.449
301.435
301.422
301.409
301.397
301.385
301.373
301.362
301.351
301.341
301.332
301.323
301.314
301.306
301.299
301.292
301.285
301.279
301.273
301.267
301.262
301.257
301.253
301.248
301.244
301.241
301.238
301.235
301.233
301.231
301.229
301.228
301.227
301.226
301.226
301.226
301.227
301.228
301.229
301.23
301.232
301.235
301.238
301.241
301.244
301.248
301.252
301.257
301.262
301.268
301.273
301.28
301.286
301.293
301.3
301.308
301.316
301.325
301.334
301.343
301.353
301.363
301.374
301.385
301.396
301.408
301.42
301.433
301.446
301.46
301.474
301.488
301.503
301.519
301.535
301.551
301.568
301.585
301.603
301.621
301.64
301.659
301.678
301.699
301.719
301.74
301.762
301.784
301.806
301.829
301.853
301.877
301.902
301.927
301.952
301.978
302.005
302.032
302.059
302.087
302.116
302.145
302.174
302.204
302.234
302.265
302.296
302.328
302.36
302.392
302.425
302.458
302.492
302.526
302.56
302.595
302.63
302.665
302.701
302.737
302.773
302.81
302.847
302.884
302.922
302.96
302.998
303.037
303.076
303.115
303.155
303.196
303.237
303.279
303.321
303.364
303.409
303.454
303.5
303.547
303.595
303.645
303.695
303.746
303.797
303.847
303.895
303.938
303.974
303.998
304.007
302.678
302.682
302.674
302.656
302.631
302.599
302.564
302.526
302.485
302.444
302.402
302.36
302.318
302.276
302.235
302.195
302.156
302.117
302.079
302.043
302.007
301.972
301.938
301.905
301.873
301.842
301.811
301.782
301.754
301.726
301.699
301.673
301.648
301.624
301.601
301.578
301.556
301.534
301.514
301.494
301.475
301.456
301.438
301.421
301.404
301.388
301.372
301.357
301.342
301.328
301.315
301.301
301.289
301.276
301.264
301.253
301.242
301.231
301.221
301.212
301.203
301.194
301.186
301.179
301.171
301.165
301.158
301.152
301.146
301.141
301.136
301.131
301.126
301.122
301.119
301.115
301.112
301.11
301.107
301.105
301.104
301.103
301.102
301.101
301.101
301.101
301.102
301.103
301.104
301.106
301.108
301.111
301.113
301.117
301.12
301.124
301.128
301.133
301.138
301.143
301.149
301.155
301.162
301.169
301.176
301.184
301.192
301.201
301.21
301.219
301.229
301.239
301.25
301.261
301.272
301.284
301.296
301.309
301.322
301.336
301.35
301.365
301.38
301.395
301.411
301.427
301.444
301.461
301.479
301.497
301.516
301.535
301.555
301.575
301.595
301.617
301.638
301.66
301.683
301.706
301.729
301.754
301.778
301.803
301.829
301.855
301.881
301.908
301.935
301.963
301.992
302.02
302.05
302.079
302.109
302.14
302.171
302.202
302.234
302.266
302.298
302.331
302.364
302.398
302.431
302.465
302.5
302.535
302.569
302.605
302.64
302.676
302.712
302.748
302.785
302.822
302.859
302.896
302.934
302.972
303.01
303.049
303.088
303.127
303.167
303.208
303.249
303.291
303.333
303.376
303.419
303.461
303.504
303.546
303.585
303.622
303.653
303.677
303.692
303.695
302.678
302.682
302.674
302.656
302.631
302.599
302.564
302.526
302.485
302.444
302.402
302.36
302.318
302.276
302.235
302.195
302.156
302.117
302.079
302.043
302.007
301.972
301.938
301.905
301.873
301.842
301.811
301.782
301.754
301.726
301.699
301.673
301.648
301.624
301.601
301.578
301.556
301.534
301.514
301.494
301.475
301.456
301.438
301.421
301.404
301.388
301.372
301.357
301.342
301.328
301.315
301.301
301.289
301.276
301.264
301.253
301.242
301.231
301.221
301.212
301.203
301.194
301.186
301.179
301.171
301.165
301.158
301.152
301.146
301.141
301.136
301.131
301.126
301.122
301.119
301.115
301.112
301.11
301.107
301.105
301.104
301.103
301.102
301.101
301.101
301.101
301.102
301.103
301.104
301.106
301.108
301.111
301.113
301.117
301.12
301.124
301.128
301.133
301.138
301.143
301.149
301.155
301.162
301.169
301.176
301.184
301.192
301.201
301.21
301.219
301.229
301.239
301.25
301.261
301.272
301.284
301.296
301.309
301.322
301.336
301.35
301.365
301.38
301.395
301.411
301.427
301.444
301.461
301.479
301.497
301.516
301.535
301.555
301.575
301.595
301.617
301.638
301.66
301.683
301.706
301.729
301.754
301.778
301.803
301.829
301.855
301.881
301.908
301.935
301.963
301.992
302.02
302.05
302.079
302.109
302.14
302.171
302.202
302.234
302.266
302.298
302.331
302.364
302.398
302.431
302.465
302.5
302.535
302.569
302.605
302.64
302.676
302.712
302.748
302.785
302.822
302.859
302.896
302.934
302.972
303.01
303.049
303.088
303.127
303.167
303.208
303.249
303.291
303.333
303.376
303.419
303.461
303.504
303.546
303.585
303.622
303.653
303.677
303.692
303.694
302.48
302.482
302.475
302.46
302.439
302.413
302.383
302.35
302.315
302.279
302.242
302.204
302.166
302.128
302.09
302.053
302.016
301.98
301.945
301.91
301.876
301.843
301.811
301.78
301.749
301.719
301.69
301.662
301.635
301.608
301.582
301.557
301.533
301.509
301.486
301.464
301.443
301.422
301.402
301.382
301.364
301.345
301.328
301.311
301.294
301.278
301.263
301.248
301.233
301.219
301.206
301.193
301.18
301.168
301.156
301.145
301.134
301.124
301.114
301.104
301.095
301.087
301.078
301.071
301.063
301.056
301.05
301.043
301.037
301.032
301.027
301.022
301.017
301.013
301.009
301.005
301.002
300.999
300.997
300.995
300.993
300.992
300.991
300.99
300.989
300.989
300.99
300.991
300.992
300.993
300.995
300.997
300.999
301.002
301.006
301.009
301.013
301.018
301.022
301.027
301.033
301.039
301.045
301.052
301.059
301.066
301.074
301.082
301.091
301.1
301.109
301.119
301.129
301.14
301.151
301.163
301.175
301.187
301.2
301.213
301.227
301.241
301.255
301.27
301.286
301.302
301.318
301.335
301.353
301.37
301.389
301.407
301.427
301.446
301.467
301.487
301.508
301.53
301.552
301.575
301.598
301.622
301.646
301.67
301.695
301.721
301.747
301.773
301.8
301.827
301.855
301.883
301.912
301.941
301.97
302
302.031
302.061
302.092
302.124
302.155
302.187
302.22
302.252
302.285
302.319
302.352
302.386
302.42
302.454
302.488
302.523
302.558
302.593
302.628
302.663
302.699
302.735
302.771
302.807
302.843
302.88
302.916
302.953
302.99
303.028
303.065
303.103
303.141
303.178
303.216
303.253
303.288
303.322
303.354
303.382
303.405
303.422
303.431
303.43
302.48
302.482
302.475
302.46
302.439
302.413
302.383
302.35
302.315
302.279
302.242
302.204
302.166
302.128
302.09
302.053
302.016
301.98
301.945
301.91
301.876
301.843
301.811
301.78
301.749
301.719
301.69
301.662
301.635
301.608
301.582
301.557
301.533
301.509
301.486
301.464
301.443
301.422
301.402
301.382
301.364
301.345
301.328
301.311
301.294
301.278
301.263
301.248
301.233
301.219
301.206
301.193
301.18
301.168
301.156
301.145
301.134
301.124
301.114
301.104
301.095
301.087
301.078
301.071
301.063
301.056
301.05
301.043
301.037
301.032
301.027
301.022
301.017
301.013
301.009
301.005
301.002
300.999
300.997
300.995
300.993
300.992
300.991
300.99
300.989
300.989
300.99
300.991
300.992
300.993
300.995
300.997
300.999
301.002
301.006
301.009
301.013
301.018
301.022
301.027
301.033
301.039
301.045
301.052
301.059
301.066
301.074
301.082
301.091
301.1
301.109
301.119
301.129
301.14
301.151
301.163
301.175
301.187
301.2
301.213
301.227
301.241
301.255
301.27
301.286
301.302
301.318
301.335
301.353
301.37
301.389
301.407
301.427
301.446
301.467
301.487
301.508
301.53
301.552
301.575
301.598
301.622
301.646
301.67
301.695
301.721
301.747
301.773
301.8
301.827
301.855
301.883
301.912
301.941
301.97
302
302.031
302.061
302.092
302.124
302.155
302.187
302.22
302.252
302.285
302.319
302.352
302.386
302.42
302.454
302.488
302.523
302.558
302.593
302.628
302.663
302.699
302.735
302.771
302.807
302.843
302.88
302.916
302.953
302.99
303.028
303.065
303.103
303.141
303.178
303.216
303.253
303.288
303.322
303.354
303.382
303.405
303.422
303.431
303.43
302.307
302.307
302.3
302.287
302.269
302.247
302.221
302.192
302.161
302.129
302.095
302.061
302.026
301.992
301.957
301.922
301.888
301.855
301.821
301.789
301.757
301.725
301.694
301.664
301.635
301.607
301.579
301.552
301.525
301.5
301.475
301.45
301.427
301.404
301.382
301.36
301.339
301.319
301.299
301.28
301.262
301.244
301.227
301.21
301.194
301.178
301.163
301.148
301.134
301.12
301.107
301.094
301.081
301.069
301.058
301.047
301.036
301.025
301.015
301.006
300.997
300.988
300.98
300.972
300.965
300.957
300.951
300.944
300.938
300.932
300.927
300.922
300.917
300.913
300.909
300.905
300.902
300.899
300.896
300.894
300.892
300.89
300.889
300.888
300.888
300.887
300.887
300.888
300.889
300.89
300.892
300.893
300.896
300.898
300.901
300.905
300.908
300.912
300.917
300.922
300.927
300.933
300.939
300.945
300.952
300.959
300.966
300.974
300.982
300.991
301
301.01
301.02
301.03
301.041