/*--------------------------------*- C++ -*----------------------------------*\
  =========                 |
  \\      /  F ield         | OpenFOAM: The Open Source CFD Toolbox
   \\    /   O peration     | Website:  https://openfoam.org
    \\  /    A nd           | Version:  8
     \\/     M anipulation  |
\*---------------------------------------------------------------------------*/
FoamFile
{
    version     2.0;
    format      ascii;
    class       volVectorField;
    location    "4500";
    object      U;
}
// * * * * * * * * * * * * * * * * * * * * * * * * * * * * * * * * * * * * * //

dimensions      [0 1 -1 0 0 0 0];

internalField   nonuniform List<vector> 
46000
(
(0.00229199 1.88442e-06 -0.00233372)
(0.0110197 -2.0172e-05 -0.00644016)
(0.0199277 -2.07656e-05 -0.00598136)
(0.0262348 -1.04746e-05 -0.00370768)
(0.0292277 -2.6606e-06 -0.00135166)
(0.0293123 5.74057e-07 0.000675005)
(0.0269665 1.28088e-06 0.00230101)
(0.0226858 1.11099e-06 0.0035625)
(0.0168831 7.83311e-07 0.00452697)
(0.00989524 5.11331e-07 0.00526106)
(0.00199113 3.24432e-07 0.00581202)
(-0.00662828 2.03443e-07 0.00620748)
(-0.0157547 1.26306e-07 0.00648096)
(-0.0252748 7.80395e-08 0.00666757)
(-0.0350719 4.99205e-08 0.00678594)
(-0.0450592 3.60839e-08 0.0068498)
(-0.0551642 3.09812e-08 0.00686977)
(-0.0653272 2.98792e-08 0.0068541)
(-0.0754982 2.99145e-08 0.00680932)
(-0.0856355 3.01163e-08 0.00674062)
(-0.0957036 3.05477e-08 0.00665217)
(-0.105672 3.13694e-08 0.00654734)
(-0.115516 3.24612e-08 0.00642888)
(-0.125213 3.34012e-08 0.00629903)
(-0.134744 3.36254e-08 0.00615965)
(-0.144092 3.26819e-08 0.00601229)
(-0.153242 3.0409e-08 0.00585824)
(-0.162183 2.71112e-08 0.0056986)
(-0.170903 2.34558e-08 0.00553429)
(-0.179393 2.02978e-08 0.00536611)
(-0.187643 1.83538e-08 0.00519475)
(-0.195648 1.79467e-08 0.00502079)
(-0.2034 1.87656e-08 0.00484475)
(-0.210893 1.99588e-08 0.00466708)
(-0.218124 2.05445e-08 0.00448816)
(-0.225087 2.01661e-08 0.00430835)
(-0.231779 1.96191e-08 0.00412794)
(-0.238197 2.06374e-08 0.00394723)
(-0.244339 2.45803e-08 0.00376645)
(-0.250203 3.08689e-08 0.00358582)
(-0.255786 3.67392e-08 0.00340551)
(-0.261089 3.91461e-08 0.00322567)
(-0.266108 3.75277e-08 0.0030464)
(-0.270845 3.44328e-08 0.00286776)
(-0.275297 3.27963e-08 0.00268971)
(-0.279464 3.30744e-08 0.00251209)
(-0.283343 3.46457e-08 0.00233447)
(-0.286933 3.88655e-08 0.00215618)
(-0.290228 4.5852e-08 0.00197647)
(-0.293222 4.8772e-08 0.00179577)
(-0.295909 4.09789e-08 0.00162089)
(-0.298298 2.3636e-08 0.00147905)
(-0.30043 -9.1456e-09 0.00143999)
(-0.302417 -7.0313e-08 0.00159271)
(-0.304455 -1.65736e-07 0.00181525)
(-0.306488 -2.64367e-07 0.00160194)
(-0.307974 -3.08713e-07 0.000820752)
(-0.308764 -2.65485e-07 0.000150568)
(-0.309058 -1.8634e-07 -6.74552e-05)
(-0.309359 -1.23575e-07 0.000374259)
(-0.309997 -1.01883e-07 0.000491049)
(-0.310234 -8.38944e-08 -0.000326212)
(-0.30953 -3.36937e-08 -0.00107206)
(-0.308484 5.19761e-08 -0.000989333)
(-0.307612 1.28309e-07 -0.000627428)
(-0.306815 1.7419e-07 -0.000504166)
(-0.305861 1.8834e-07 -0.000587391)
(-0.304675 1.64666e-07 -0.000734493)
(-0.303244 1.16535e-07 -0.000884621)
(-0.301584 7.90592e-08 -0.00102296)
(-0.299712 5.62923e-08 -0.00114937)
(-0.297644 3.70917e-08 -0.00126658)
(-0.295391 2.42433e-08 -0.00137689)
(-0.292962 1.97879e-08 -0.00148183)
(-0.290367 1.55641e-08 -0.00158228)
(-0.287613 5.37797e-09 -0.00167869)
(-0.284707 -7.18632e-09 -0.00177122)
(-0.281655 -1.49978e-08 -0.00185994)
(-0.278465 -1.57149e-08 -0.00194487)
(-0.275142 -1.25914e-08 -0.00202605)
(-0.271694 -9.79511e-09 -0.0021035)
(-0.268128 -8.73882e-09 -0.00217722)
(-0.264449 -8.25482e-09 -0.0022472)
(-0.260665 -6.8612e-09 -0.00231343)
(-0.256781 -4.35603e-09 -0.0023759)
(-0.252805 -1.73605e-09 -0.00243464)
(-0.248742 -2.3327e-10 -0.00248967)
(-0.244599 -4.1607e-10 -0.00254099)
(-0.240383 -2.03207e-09 -0.00258864)
(-0.2361 -4.33119e-09 -0.00263263)
(-0.231755 -6.48595e-09 -0.00267299)
(-0.227355 -7.913e-09 -0.00270975)
(-0.222906 -8.36463e-09 -0.00274293)
(-0.218414 -7.93542e-09 -0.00277258)
(-0.213884 -6.93025e-09 -0.00279876)
(-0.209323 -5.74963e-09 -0.0028215)
(-0.204736 -4.7401e-09 -0.00284087)
(-0.200129 -4.12363e-09 -0.00285692)
(-0.195506 -3.9593e-09 -0.00286971)
(-0.190873 -4.19898e-09 -0.00287931)
(-0.186236 -4.71221e-09 -0.00288578)
(-0.181598 -5.34358e-09 -0.00288919)
(-0.176965 -5.97005e-09 -0.0028896)
(-0.172342 -6.45359e-09 -0.00288709)
(-0.167733 -6.74012e-09 -0.00288173)
(-0.163142 -6.7797e-09 -0.0028736)
(-0.158573 -6.5831e-09 -0.00286279)
(-0.154032 -6.21014e-09 -0.00284936)
(-0.149521 -5.74065e-09 -0.00283341)
(-0.145044 -5.25279e-09 -0.00281501)
(-0.140605 -4.84306e-09 -0.00279424)
(-0.136207 -4.53978e-09 -0.00277119)
(-0.131854 -4.34713e-09 -0.00274593)
(-0.127549 -4.24931e-09 -0.00271856)
(-0.123295 -4.20309e-09 -0.00268914)
(-0.119095 -4.16186e-09 -0.00265777)
(-0.114951 -4.10564e-09 -0.00262451)
(-0.110866 -4.02112e-09 -0.00258945)
(-0.106843 -3.9316e-09 -0.00255266)
(-0.102884 -3.8404e-09 -0.00251422)
(-0.0989905 -3.76251e-09 -0.0024742)
(-0.0951655 -3.7046e-09 -0.00243267)
(-0.0914108 -3.66168e-09 -0.00238969)
(-0.0877282 -3.61209e-09 -0.00234535)
(-0.0841195 -3.53418e-09 -0.00229969)
(-0.0805864 -3.40293e-09 -0.00225279)
(-0.0771305 -3.20335e-09 -0.00220469)
(-0.0737531 -2.92207e-09 -0.00215548)
(-0.0704559 -2.55573e-09 -0.00210519)
(-0.0672399 -2.12098e-09 -0.00205388)
(-0.0641065 -1.63613e-09 -0.00200161)
(-0.0610569 -1.11449e-09 -0.00194843)
(-0.0580921 -5.84403e-10 -0.00189439)
(-0.055213 -5.75358e-11 -0.00183954)
(-0.0524208 4.56106e-10 -0.00178393)
(-0.0497161 9.59856e-10 -0.0017276)
(-0.0470997 1.4437e-09 -0.00167062)
(-0.0445725 1.91599e-09 -0.00161302)
(-0.0421351 2.38337e-09 -0.00155486)
(-0.039788 2.84921e-09 -0.00149619)
(-0.0375317 3.3185e-09 -0.00143706)
(-0.0353667 3.77455e-09 -0.00137753)
(-0.0332934 4.24241e-09 -0.00131766)
(-0.0313119 4.71205e-09 -0.0012575)
(-0.0294226 5.17849e-09 -0.00119713)
(-0.0276254 5.63503e-09 -0.00113662)
(-0.0259204 6.09002e-09 -0.00107604)
(-0.0243075 6.54013e-09 -0.00101546)
(-0.0227864 6.98536e-09 -0.000954975)
(-0.0213568 7.42737e-09 -0.000894678)
(-0.0200183 7.87286e-09 -0.000834664)
(-0.0187701 8.33687e-09 -0.000775039)
(-0.0176116 8.82777e-09 -0.000715915)
(-0.0165418 9.34725e-09 -0.000657414)
(-0.0155596 9.91706e-09 -0.000599662)
(-0.0146637 1.05372e-08 -0.000542797)
(-0.0138526 1.12011e-08 -0.000486964)
(-0.0131246 1.19405e-08 -0.000432317)
(-0.0124779 1.27186e-08 -0.000379018)
(-0.0119103 1.35304e-08 -0.000327239)
(-0.0114193 1.4356e-08 -0.000277159)
(-0.0110023 1.51851e-08 -0.000228969)
(-0.0106564 1.59844e-08 -0.000182863)
(-0.0103783 1.67606e-08 -0.000139049)
(-0.0101645 1.74935e-08 -9.77389e-05)
(-0.0100112 1.81798e-08 -5.91534e-05)
(-0.00991431 1.88228e-08 -2.35209e-05)
(-0.00986921 1.94024e-08 8.92068e-06)
(-0.00987112 1.99756e-08 3.79345e-05)
(-0.00991486 2.04953e-08 6.32839e-05)
(-0.00999489 2.09717e-08 8.47153e-05)
(-0.0101053 2.13779e-08 0.000101967)
(-0.0102397 2.16602e-08 0.000114781)
(-0.0103915 2.17716e-08 0.000122894)
(-0.0105536 2.16414e-08 0.000126045)
(-0.0107186 2.12561e-08 0.000123969)
(-0.0108784 2.05988e-08 0.000116404)
(-0.0110249 1.96793e-08 0.000103089)
(-0.0111494 1.8521e-08 8.37686e-05)
(-0.0112428 1.70901e-08 5.81949e-05)
(-0.0112957 1.53529e-08 2.61276e-05)
(-0.0112982 1.31915e-08 -1.26397e-05)
(-0.0112403 1.04977e-08 -5.82683e-05)
(-0.0111116 7.20387e-09 -0.000110893)
(-0.0109014 3.28593e-09 -0.000170585)
(-0.0105991 -1.14911e-09 -0.000237296)
(-0.0101941 -6.04131e-09 -0.000310801)
(-0.00967635 -1.13005e-08 -0.000390607)
(-0.00903646 -1.68464e-08 -0.000475793)
(-0.00826674 -2.26463e-08 -0.000564762)
(-0.00736219 -2.85661e-08 -0.000654829)
(-0.00632239 -3.44147e-08 -0.000741543)
(-0.00515444 -4.00211e-08 -0.000817578)
(-0.00387782 -4.54338e-08 -0.0008709)
(-0.00253198 -5.0574e-08 -0.000881875)
(-0.00119006 -5.51068e-08 -0.000818966)
(2.66041e-05 -5.81028e-08 -0.000633929)
(0.000910683 -5.7513e-08 -0.000266239)
(0.00119933 -4.0863e-08 0.000260573)
(0.000498883 -9.48522e-09 0.000534472)
(0.00236354 1.88325e-06 -0.00241361)
(0.0110648 -2.01554e-05 -0.00651865)
(0.0199221 -2.07612e-05 -0.00602227)
(0.0262206 -1.04743e-05 -0.00372417)
(0.0292172 -2.66062e-06 -0.00135722)
(0.0293055 5.74062e-07 0.000673476)
(0.0269623 1.28088e-06 0.00230066)
(0.0226831 1.11099e-06 0.00356237)
(0.0168814 7.83308e-07 0.00452686)
(0.0098941 5.11329e-07 0.00526095)
(0.00199042 3.24431e-07 0.00581191)
(-0.0066287 2.03442e-07 0.00620737)
(-0.0157549 1.26306e-07 0.00648086)
(-0.025275 7.80392e-08 0.00666748)
(-0.035072 4.99203e-08 0.00678585)
(-0.0450592 3.60838e-08 0.00684972)
(-0.0551641 3.09811e-08 0.0068697)
(-0.0653271 2.98791e-08 0.00685403)
(-0.0754981 2.99145e-08 0.00680926)
(-0.0856354 3.01162e-08 0.00674057)
(-0.0957035 3.05476e-08 0.00665213)
(-0.105672 3.13693e-08 0.0065473)
(-0.115516 3.24611e-08 0.00642885)
(-0.125213 3.34011e-08 0.006299)
(-0.134744 3.36253e-08 0.00615963)
(-0.144091 3.26819e-08 0.00601227)
(-0.153242 3.04089e-08 0.00585822)
(-0.162183 2.71111e-08 0.00569857)
(-0.170903 2.34557e-08 0.00553426)
(-0.179392 2.02978e-08 0.00536608)
(-0.187643 1.83537e-08 0.00519472)
(-0.195648 1.79467e-08 0.00502075)
(-0.203399 1.87656e-08 0.00484472)
(-0.210893 1.99587e-08 0.00466704)
(-0.218123 2.05445e-08 0.00448813)
(-0.225086 2.01661e-08 0.00430832)
(-0.231779 1.9619e-08 0.00412792)
(-0.238197 2.06374e-08 0.00394721)
(-0.244339 2.45802e-08 0.00376644)
(-0.250203 3.08689e-08 0.00358581)
(-0.255786 3.67392e-08 0.00340551)
(-0.261088 3.9146e-08 0.00322566)
(-0.266108 3.75277e-08 0.00304639)
(-0.270844 3.44328e-08 0.00286776)
(-0.275296 3.27963e-08 0.00268972)
(-0.279463 3.30743e-08 0.00251208)
(-0.283343 3.46457e-08 0.00233444)
(-0.286932 3.88655e-08 0.00215617)
(-0.290227 4.58522e-08 0.00197652)
(-0.293221 4.87723e-08 0.00179592)
(-0.295909 4.09794e-08 0.00162113)
(-0.298297 2.36365e-08 0.00147938)
(-0.30043 -9.14587e-09 0.00144032)
(-0.302417 -7.03153e-08 0.00159264)
(-0.304455 -1.65742e-07 0.00181437)
(-0.306488 -2.64375e-07 0.00160065)
(-0.307973 -3.08721e-07 0.000819496)
(-0.308763 -2.65489e-07 0.000149624)
(-0.309057 -1.86342e-07 -6.78698e-05)
(-0.309359 -1.23575e-07 0.000374137)
(-0.309996 -1.01882e-07 0.000491196)
(-0.310234 -8.38931e-08 -0.000325839)
(-0.30953 -3.3693e-08 -0.00107204)
(-0.308484 5.1975e-08 -0.000989321)
(-0.307612 1.28306e-07 -0.000627062)
(-0.306815 1.74187e-07 -0.000503714)
(-0.305861 1.88337e-07 -0.000587021)
(-0.304675 1.64665e-07 -0.000734217)
(-0.303244 1.16535e-07 -0.000884482)
(-0.301584 7.90591e-08 -0.00102295)
(-0.299712 5.62923e-08 -0.00114941)
(-0.297644 3.70916e-08 -0.00126658)
(-0.29539 2.42433e-08 -0.00137685)
(-0.292962 1.97879e-08 -0.0014818)
(-0.290367 1.55641e-08 -0.00158228)
(-0.287613 5.37797e-09 -0.0016787)
(-0.284706 -7.18631e-09 -0.00177123)
(-0.281655 -1.49978e-08 -0.00185993)
(-0.278464 -1.57149e-08 -0.00194486)
(-0.275142 -1.25914e-08 -0.00202605)
(-0.271694 -9.7951e-09 -0.0021035)
(-0.268128 -8.73881e-09 -0.00217722)
(-0.264449 -8.25481e-09 -0.0022472)
(-0.260664 -6.8612e-09 -0.00231342)
(-0.256781 -4.35603e-09 -0.0023759)
(-0.252804 -1.73605e-09 -0.00243464)
(-0.248742 -2.3327e-10 -0.00248966)
(-0.244599 -4.16069e-10 -0.00254099)
(-0.240383 -2.03207e-09 -0.00258864)
(-0.236099 -4.33119e-09 -0.00263263)
(-0.231754 -6.48594e-09 -0.00267299)
(-0.227355 -7.91299e-09 -0.00270974)
(-0.222906 -8.36462e-09 -0.00274293)
(-0.218413 -7.93541e-09 -0.00277258)
(-0.213884 -6.93025e-09 -0.00279875)
(-0.209323 -5.74962e-09 -0.0028215)
(-0.204736 -4.7401e-09 -0.00284087)
(-0.200128 -4.12363e-09 -0.00285692)
(-0.195506 -3.9593e-09 -0.00286971)
(-0.190873 -4.19897e-09 -0.00287931)
(-0.186235 -4.71221e-09 -0.00288578)
(-0.181598 -5.34357e-09 -0.00288918)
(-0.176965 -5.97004e-09 -0.00288959)
(-0.172342 -6.45358e-09 -0.00288708)
(-0.167732 -6.74011e-09 -0.00288172)
(-0.163142 -6.7797e-09 -0.0028736)
(-0.158573 -6.58309e-09 -0.00286278)
(-0.154032 -6.21014e-09 -0.00284936)
(-0.14952 -5.74064e-09 -0.0028334)
(-0.145044 -5.25278e-09 -0.002815)
(-0.140605 -4.84306e-09 -0.00279423)
(-0.136207 -4.53978e-09 -0.00277118)
(-0.131854 -4.34712e-09 -0.00274593)
(-0.127549 -4.24931e-09 -0.00271855)
(-0.123295 -4.20309e-09 -0.00268914)
(-0.119095 -4.16186e-09 -0.00265776)
(-0.114951 -4.10564e-09 -0.0026245)
(-0.110866 -4.02112e-09 -0.00258944)
(-0.106843 -3.9316e-09 -0.00255266)
(-0.102883 -3.84039e-09 -0.00251422)
(-0.0989903 -3.76251e-09 -0.0024742)
(-0.0951654 -3.7046e-09 -0.00243266)
(-0.0914107 -3.66168e-09 -0.00238969)
(-0.0877281 -3.61209e-09 -0.00234535)
(-0.0841194 -3.53417e-09 -0.00229969)
(-0.0805863 -3.40293e-09 -0.00225279)
(-0.0771303 -3.20335e-09 -0.0022047)
(-0.073753 -2.92207e-09 -0.00215548)
(-0.0704557 -2.55573e-09 -0.00210519)
(-0.0672398 -2.12098e-09 -0.00205388)
(-0.0641064 -1.63612e-09 -0.00200161)
(-0.0610568 -1.11449e-09 -0.00194843)
(-0.0580919 -5.84402e-10 -0.00189439)
(-0.0552129 -5.75357e-11 -0.00183954)
(-0.0524206 4.56105e-10 -0.00178393)
(-0.0497159 9.59855e-10 -0.00172761)
(-0.0470996 1.4437e-09 -0.00167063)
(-0.0445724 1.91598e-09 -0.00161303)
(-0.042135 2.38337e-09 -0.00155487)
(-0.0397878 2.84921e-09 -0.0014962)
(-0.0375316 3.31849e-09 -0.00143707)
(-0.0353666 3.77455e-09 -0.00137754)
(-0.0332932 4.2424e-09 -0.00131767)
(-0.0313118 4.71205e-09 -0.00125752)
(-0.0294224 5.17848e-09 -0.00119715)
(-0.0276253 5.63502e-09 -0.00113664)
(-0.0259203 6.09002e-09 -0.00107606)
(-0.0243074 6.54013e-09 -0.00101548)
(-0.0227863 6.98535e-09 -0.000955002)
(-0.0213567 7.42737e-09 -0.000894707)
(-0.0200181 7.87286e-09 -0.000834695)
(-0.01877 8.33686e-09 -0.000775072)
(-0.0176115 8.82776e-09 -0.00071595)
(-0.0165416 9.34724e-09 -0.00065745)
(-0.0155594 9.91705e-09 -0.0005997)
(-0.0146635 1.05372e-08 -0.000542837)
(-0.0138525 1.12011e-08 -0.000487007)
(-0.0131245 1.19405e-08 -0.000432361)
(-0.0124778 1.27186e-08 -0.000379065)
(-0.0119101 1.35304e-08 -0.000327288)
(-0.0114191 1.43559e-08 -0.000277211)
(-0.0110022 1.51851e-08 -0.000229022)
(-0.0106562 1.59844e-08 -0.000182919)
(-0.0103782 1.67606e-08 -0.000139107)
(-0.0101644 1.74935e-08 -9.77997e-05)
(-0.0100111 1.81798e-08 -5.92168e-05)
(-0.00991419 1.88228e-08 -2.35869e-05)
(-0.0098691 1.94024e-08 8.85201e-06)
(-0.00987101 1.99755e-08 3.7863e-05)
(-0.00991475 2.04953e-08 6.32095e-05)
(-0.00999478 2.09717e-08 8.46379e-05)
(-0.0101052 2.13779e-08 0.000101887)
(-0.0102396 2.16602e-08 0.000114697)
(-0.0103914 2.17715e-08 0.000122807)
(-0.0105536 2.16414e-08 0.000125954)
(-0.0107185 2.12561e-08 0.000123875)
(-0.0108783 2.05987e-08 0.000116307)
(-0.0110248 1.96793e-08 0.000102988)
(-0.0111493 1.8521e-08 8.3665e-05)
(-0.0112428 1.70901e-08 5.80884e-05)
(-0.0112957 1.53529e-08 2.60183e-05)
(-0.0112982 1.31915e-08 -1.27517e-05)
(-0.0112403 1.04977e-08 -5.83829e-05)
(-0.0111115 7.20386e-09 -0.00011101)
(-0.0109013 3.28593e-09 -0.000170705)
(-0.0105991 -1.14911e-09 -0.000237417)
(-0.0101941 -6.04131e-09 -0.000310924)
(-0.00967635 -1.13004e-08 -0.000390731)
(-0.00903646 -1.68464e-08 -0.000475918)
(-0.00826674 -2.26462e-08 -0.000564889)
(-0.0073622 -2.85661e-08 -0.000654958)
(-0.00632241 -3.44147e-08 -0.000741675)
(-0.00515446 -4.00211e-08 -0.000817713)
(-0.00387784 -4.54338e-08 -0.000871039)
(-0.00253201 -5.05739e-08 -0.000882022)
(-0.00119009 -5.51067e-08 -0.000819122)
(2.65736e-05 -5.81027e-08 -0.000634098)
(0.000910659 -5.75129e-08 -0.000266421)
(0.00119927 -4.08631e-08 0.000260387)
(0.000498823 -9.48522e-09 0.000534332)
(0.00618057 2.1545e-05 -0.0116592)
(0.0128761 2.24244e-06 -0.0134514)
(0.0165987 -1.74988e-06 -0.0105662)
(0.0184154 -1.35591e-06 -0.00610754)
(0.0182048 -3.00262e-07 -0.00165652)
(0.0162354 2.44459e-07 0.00225005)
(0.0127028 3.73158e-07 0.00548421)
(0.0078213 3.24695e-07 0.0080862)
(0.00180444 2.36135e-07 0.0101489)
(-0.00515231 1.5923e-07 0.0117681)
(-0.0128612 1.0429e-07 0.0130245)
(-0.021177 6.75466e-08 0.0139826)
(-0.0299687 4.3196e-08 0.0147012)
(-0.0391286 2.73397e-08 0.0152311)
(-0.048562 1.76793e-08 0.0156075)
(-0.0581906 1.23045e-08 0.015858)
(-0.0679481 9.44893e-09 0.0160044)
(-0.0777782 7.76003e-09 0.0160642)
(-0.087633 6.57337e-09 0.0160513)
(-0.0974716 5.74808e-09 0.015977)
(-0.107259 5.33009e-09 0.0158505)
(-0.116964 5.30171e-09 0.0156795)
(-0.126562 5.50359e-09 0.0154701)
(-0.136029 5.68841e-09 0.0152276)
(-0.145345 5.59364e-09 0.0149564)
(-0.154493 5.03375e-09 0.0146602)
(-0.163458 3.95533e-09 0.0143422)
(-0.172227 2.50766e-09 0.0140051)
(-0.180786 1.00142e-09 0.0136512)
(-0.189128 -1.99745e-10 0.0132826)
(-0.197241 -8.43568e-10 0.0129012)
(-0.205118 -8.94143e-10 0.0125084)
(-0.212752 -5.57923e-10 0.0121057)
(-0.220137 -1.81936e-10 0.0116944)
(-0.227267 -1.63894e-11 0.0112756)
(-0.234137 6.65646e-11 0.0108504)
(-0.240745 6.5106e-10 0.0104196)
(-0.247085 2.42847e-09 0.00998422)
(-0.253156 5.46301e-09 0.00954496)
(-0.258955 8.68892e-09 0.00910253)
(-0.26448 1.03849e-08 0.00865754)
(-0.269729 9.60246e-09 0.0082105)
(-0.274703 7.24881e-09 0.0077618)
(-0.279399 5.29107e-09 0.00731167)
(-0.283818 4.53788e-09 0.00686008)
(-0.28796 3.79584e-09 0.00640656)
(-0.291827 1.78689e-09 0.0059501)
(-0.295421 -1.74512e-09 0.00548902)
(-0.298745 -8.22858e-09 0.00502124)
(-0.301804 -1.87594e-08 0.00454571)
(-0.304605 -2.68008e-08 0.00406687)
(-0.307155 -2.50468e-08 0.00360501)
(-0.309446 -1.67925e-08 0.00321105)
(-0.311442 9.87704e-10 0.00295559)
(-0.313079 2.14315e-08 0.00277636)
(-0.314362 1.63493e-08 0.00239276)
(-0.315532 1.41068e-08 0.00174683)
(-0.316632 8.32775e-09 0.00111905)
(-0.317553 -1.00461e-08 0.000736698)
(-0.318081 -7.07613e-09 0.000674202)
(-0.318067 -1.06778e-08 0.000466593)
(-0.317868 -2.7791e-08 -0.000217182)
(-0.317733 -2.4069e-08 -0.000896727)
(-0.317416 -4.13454e-08 -0.00115496)
(-0.316725 -4.62936e-08 -0.0012342)
(-0.315742 -1.48611e-08 -0.00143924)
(-0.314557 1.37786e-08 -0.00177172)
(-0.313193 2.37629e-08 -0.0021399)
(-0.311652 2.5863e-08 -0.00250044)
(-0.309929 2.71215e-08 -0.00284038)
(-0.308021 2.38409e-08 -0.0031593)
(-0.305933 1.69315e-08 -0.00346005)
(-0.303668 1.209e-08 -0.00374541)
(-0.301232 9.64603e-09 -0.0040174)
(-0.298631 5.93394e-09 -0.0042773)
(-0.295871 1.84046e-10 -0.00452586)
(-0.292959 -4.82473e-09 -0.00476347)
(-0.289901 -6.78427e-09 -0.00499034)
(-0.286703 -6.08771e-09 -0.00520658)
(-0.283372 -4.6558e-09 -0.00541227)
(-0.279914 -3.831e-09 -0.00560748)
(-0.276335 -3.63654e-09 -0.00579224)
(-0.272642 -3.41825e-09 -0.00596659)
(-0.268842 -2.75004e-09 -0.00613057)
(-0.26494 -1.75286e-09 -0.00628422)
(-0.260943 -8.53013e-10 -0.0064276)
(-0.256857 -4.08472e-10 -0.00656081)
(-0.252689 -5.11238e-10 -0.00668392)
(-0.248445 -1.00348e-09 -0.00679704)
(-0.24413 -1.61715e-09 -0.00690028)
(-0.239752 -2.09038e-09 -0.00699376)
(-0.235315 -2.25411e-09 -0.0070776)
(-0.230826 -2.06812e-09 -0.00715197)
(-0.226291 -1.60283e-09 -0.007217)
(-0.221716 -1.00201e-09 -0.00727288)
(-0.217105 -4.22708e-10 -0.00731978)
(-0.212465 1.44861e-11 -0.0073579)
(-0.207801 2.48221e-10 -0.00738743)
(-0.203118 2.78478e-10 -0.00740857)
(-0.198422 1.42123e-10 -0.00742154)
(-0.193717 -1.04907e-10 -0.00742656)
(-0.189008 -3.95478e-10 -0.00742383)
(-0.184301 -6.74052e-10 -0.0074136)
(-0.179599 -8.83837e-10 -0.00739609)
(-0.174907 -9.95394e-10 -0.00737152)
(-0.170231 -9.94201e-10 -0.00734015)
(-0.165573 -8.95582e-10 -0.0073022)
(-0.160938 -7.29791e-10 -0.00725792)
(-0.15633 -5.33718e-10 -0.00720753)
(-0.151752 -3.47165e-10 -0.00715129)
(-0.147209 -1.93766e-10 -0.00708941)
(-0.142704 -8.67972e-11 -0.00702215)
(-0.13824 -2.08732e-11 -0.00694972)
(-0.133821 1.76853e-11 -0.00687236)
(-0.129449 4.71231e-11 -0.00679028)
(-0.125128 7.9467e-11 -0.00670371)
(-0.120861 1.2011e-10 -0.00661286)
(-0.116649 1.71958e-10 -0.00651793)
(-0.112497 2.2713e-10 -0.00641913)
(-0.108405 2.79404e-10 -0.00631665)
(-0.104378 3.25045e-10 -0.00621067)
(-0.100416 3.61979e-10 -0.00610139)
(-0.0965222 3.90617e-10 -0.00598897)
(-0.0926987 4.14279e-10 -0.00587359)
(-0.0889473 4.35038e-10 -0.00575539)
(-0.0852699 4.62025e-10 -0.00563455)
(-0.0816682 4.96072e-10 -0.0055112)
(-0.0781438 5.39669e-10 -0.00538548)
(-0.0746985 5.9282e-10 -0.00525754)
(-0.0713337 6.51374e-10 -0.0051275)
(-0.0680507 7.13259e-10 -0.00499548)
(-0.0648511 7.75151e-10 -0.0048616)
(-0.061736 8.32069e-10 -0.00472599)
(-0.0587068 8.8152e-10 -0.00458875)
(-0.0557644 9.20594e-10 -0.00444999)
(-0.05291 9.48458e-10 -0.00430982)
(-0.0501445 9.65524e-10 -0.00416835)
(-0.047469 9.73868e-10 -0.0040257)
(-0.0448843 9.685e-10 -0.00388196)
(-0.0423911 9.57727e-10 -0.00373725)
(-0.0399901 9.34898e-10 -0.00359169)
(-0.0376821 9.06244e-10 -0.00344539)
(-0.0354675 8.70931e-10 -0.00329849)
(-0.0333468 8.27295e-10 -0.00315112)
(-0.0313205 7.8032e-10 -0.00300342)
(-0.0293887 7.26265e-10 -0.00285554)
(-0.0275517 6.69699e-10 -0.00270765)
(-0.0258095 6.10205e-10 -0.00255991)
(-0.0241622 5.48615e-10 -0.00241252)
(-0.0226095 4.87006e-10 -0.00226568)
(-0.0211511 4.2413e-10 -0.00211961)
(-0.0197866 3.66643e-10 -0.00197453)
(-0.0185155 3.13296e-10 -0.00183071)
(-0.0173368 2.62428e-10 -0.0016884)
(-0.0162498 2.17366e-10 -0.0015479)
(-0.0152532 1.82276e-10 -0.00140952)
(-0.0143457 1.48002e-10 -0.00127358)
(-0.0135258 1.17043e-10 -0.00114043)
(-0.0127918 8.6067e-11 -0.00101044)
(-0.0121415 5.00778e-11 -0.000884)
(-0.0115728 7.40692e-12 -0.000761525)
(-0.0110831 -4.77799e-11 -0.000643445)
(-0.0106695 -1.19654e-10 -0.000530215)
(-0.0103291 -2.07388e-10 -0.00042231)
(-0.0100584 -3.09324e-10 -0.000320223)
(-0.00985374 -4.26299e-10 -0.000224471)
(-0.00971099 -5.54988e-10 -0.000135584)
(-0.00962581 -6.91226e-10 -5.41151e-05)
(-0.00959348 -8.31677e-10 1.93741e-05)
(-0.00960892 -9.78022e-10 8.43038e-05)
(-0.0096667 -1.13276e-09 0.000140072)
(-0.00976101 -1.29924e-09 0.000186062)
(-0.00988567 -1.49165e-09 0.000221651)
(-0.0100341 -1.71584e-09 0.000246206)
(-0.0101994 -1.97516e-09 0.000259086)
(-0.0103743 -2.26713e-09 0.000259648)
(-0.0105509 -2.5851e-09 0.000247243)
(-0.0107214 -2.91237e-09 0.000221227)
(-0.0108772 -3.23309e-09 0.000180965)
(-0.0110097 -3.55812e-09 0.000125839)
(-0.0111098 -3.88497e-09 5.5259e-05)
(-0.0111681 -4.24457e-09 -3.13055e-05)
(-0.011175 -4.6411e-09 -0.000134302)
(-0.011121 -5.07627e-09 -0.000254087)
(-0.0109964 -5.51417e-09 -0.000390859)
(-0.0107913 -5.93058e-09 -0.000544556)
(-0.0104967 -6.28869e-09 -0.000714727)
(-0.0101036 -6.58682e-09 -0.000900328)
(-0.00960434 -6.80988e-09 -0.0010994)
(-0.00899268 -6.92519e-09 -0.00130856)
(-0.00826474 -6.89751e-09 -0.00152219)
(-0.00742013 -6.70913e-09 -0.00173114)
(-0.00646361 -6.37997e-09 -0.00192063)
(-0.00540731 -5.997e-09 -0.00206687)
(-0.00427373 -5.60862e-09 -0.00213187)
(-0.00310005 -5.2397e-09 -0.00205581)
(-0.00194041 -4.85422e-09 -0.00174782)
(-0.000880638 -3.88625e-09 -0.00108304)
(-1.84295e-05 6.49555e-09 4.59401e-05)
(0.000209671 4.05842e-08 0.00123735)
(0.00623108 2.1549e-05 -0.0116953)
(0.0129034 2.24234e-06 -0.0134818)
(0.0166065 -1.74984e-06 -0.01058)
(0.0184149 -1.35589e-06 -0.00611401)
(0.0182026 -3.00258e-07 -0.0016596)
(0.0162334 2.44456e-07 0.00224869)
(0.0127013 3.73154e-07 0.00548362)
(0.00782029 3.24692e-07 0.00808592)
(0.00180379 2.36133e-07 0.0101488)
(-0.0051527 1.59228e-07 0.011768)
(-0.0128614 1.04289e-07 0.0130244)
(-0.0211771 6.7546e-08 0.0139825)
(-0.0299687 4.31956e-08 0.0147011)
(-0.0391286 2.73395e-08 0.0152311)
(-0.0485619 1.76791e-08 0.0156074)
(-0.0581905 1.23044e-08 0.0158579)
(-0.067948 9.44886e-09 0.0160044)
(-0.0777781 7.75997e-09 0.0160642)
(-0.0876329 6.57332e-09 0.0160513)
(-0.0974715 5.74804e-09 0.015977)
(-0.107259 5.33005e-09 0.0158505)
(-0.116964 5.30167e-09 0.0156795)
(-0.126562 5.50355e-09 0.0154701)
(-0.136029 5.68837e-09 0.0152276)
(-0.145345 5.5936e-09 0.0149564)
(-0.154493 5.03371e-09 0.0146602)
(-0.163458 3.95531e-09 0.0143422)
(-0.172226 2.50765e-09 0.0140051)
(-0.180786 1.00141e-09 0.0136512)
(-0.189127 -1.99744e-10 0.0132826)
(-0.19724 -8.43562e-10 0.0129011)
(-0.205118 -8.94137e-10 0.0125084)
(-0.212752 -5.57919e-10 0.0121057)
(-0.220136 -1.81935e-10 0.0116944)
(-0.227266 -1.63893e-11 0.0112756)
(-0.234137 6.65641e-11 0.0108504)
(-0.240745 6.51056e-10 0.0104196)
(-0.247085 2.42846e-09 0.00998421)
(-0.253156 5.46298e-09 0.00954495)
(-0.258955 8.68887e-09 0.00910252)
(-0.26448 1.03848e-08 0.00865753)
(-0.269729 9.60239e-09 0.00821049)
(-0.274702 7.24876e-09 0.00776179)
(-0.279398 5.29104e-09 0.00731167)
(-0.283817 4.53785e-09 0.00686008)
(-0.28796 3.79582e-09 0.00640656)
(-0.291827 1.78688e-09 0.00595008)
(-0.295421 -1.74511e-09 0.00548899)
(-0.298745 -8.2286e-09 0.00502123)
(-0.301804 -1.87595e-08 0.00454571)
(-0.304605 -2.68013e-08 0.00406688)
(-0.307155 -2.50476e-08 0.00360505)
(-0.309445 -1.67933e-08 0.00321115)
(-0.311442 9.87767e-10 0.00295573)
(-0.313079 2.14329e-08 0.00277634)
(-0.314362 1.63504e-08 0.00239256)
(-0.315532 1.41076e-08 0.00174651)
(-0.316632 8.32811e-09 0.00111882)
(-0.317553 -1.00464e-08 0.000736796)
(-0.318081 -7.0762e-09 0.00067469)
(-0.318067 -1.06777e-08 0.000467106)
(-0.317868 -2.77904e-08 -0.000216899)
(-0.317733 -2.40682e-08 -0.000896708)
(-0.317416 -4.13436e-08 -0.00115498)
(-0.316725 -4.62916e-08 -0.00123422)
(-0.315742 -1.48606e-08 -0.00143931)
(-0.314557 1.37782e-08 -0.00177178)
(-0.313193 2.37625e-08 -0.0021399)
(-0.311652 2.58627e-08 -0.0025004)
(-0.309928 2.71213e-08 -0.00284036)
(-0.308021 2.38407e-08 -0.0031593)
(-0.305932 1.69314e-08 -0.00346004)
(-0.303667 1.209e-08 -0.00374538)
(-0.301232 9.64597e-09 -0.00401737)
(-0.298631 5.9339e-09 -0.00427728)
(-0.295871 1.84045e-10 -0.00452585)
(-0.292959 -4.8247e-09 -0.00476347)
(-0.289901 -6.78423e-09 -0.00499034)
(-0.286703 -6.08767e-09 -0.00520657)
(-0.283371 -4.65577e-09 -0.00541227)
(-0.279913 -3.83098e-09 -0.00560747)
(-0.276335 -3.63652e-09 -0.00579224)
(-0.272642 -3.41823e-09 -0.00596659)
(-0.268841 -2.75003e-09 -0.00613056)
(-0.264939 -1.75285e-09 -0.00628421)
(-0.260943 -8.53008e-10 -0.0064276)
(-0.256857 -4.08469e-10 -0.0065608)
(-0.252689 -5.11235e-10 -0.00668391)
(-0.248444 -1.00348e-09 -0.00679703)
(-0.24413 -1.61714e-09 -0.00690027)
(-0.239751 -2.09037e-09 -0.00699375)
(-0.235315 -2.2541e-09 -0.0070776)
(-0.230826 -2.06811e-09 -0.00715196)
(-0.226291 -1.60283e-09 -0.00721699)
(-0.221715 -1.00201e-09 -0.00727287)
(-0.217105 -4.22706e-10 -0.00731977)
(-0.212465 1.4486e-11 -0.00735789)
(-0.207801 2.4822e-10 -0.00738742)
(-0.203118 2.78476e-10 -0.00740856)
(-0.198421 1.42122e-10 -0.00742154)
(-0.193716 -1.04907e-10 -0.00742655)
(-0.189008 -3.95476e-10 -0.00742383)
(-0.1843 -6.74048e-10 -0.00741359)
(-0.179599 -8.83832e-10 -0.00739608)
(-0.174907 -9.95389e-10 -0.00737152)
(-0.17023 -9.94195e-10 -0.00734014)
(-0.165573 -8.95578e-10 -0.00730219)
(-0.160938 -7.29787e-10 -0.00725791)
(-0.15633 -5.33716e-10 -0.00720752)
(-0.151752 -3.47163e-10 -0.00715128)
(-0.147209 -1.93765e-10 -0.00708941)
(-0.142704 -8.67967e-11 -0.00702214)
(-0.13824 -2.08731e-11 -0.00694972)
(-0.133821 1.76852e-11 -0.00687235)
(-0.129449 4.71228e-11 -0.00679028)
(-0.125128 7.94666e-11 -0.00670371)
(-0.12086 1.2011e-10 -0.00661285)
(-0.116649 1.71957e-10 -0.00651793)
(-0.112496 2.27129e-10 -0.00641912)
(-0.108405 2.79402e-10 -0.00631664)
(-0.104377 3.25044e-10 -0.00621067)
(-0.100416 3.61977e-10 -0.00610139)
(-0.0965221 3.90615e-10 -0.00598897)
(-0.0926986 4.14277e-10 -0.00587358)
(-0.0889472 4.35037e-10 -0.00575539)
(-0.0852698 4.62023e-10 -0.00563455)
(-0.081668 4.96069e-10 -0.0055112)
(-0.0781437 5.39667e-10 -0.00538548)
(-0.0746984 5.92817e-10 -0.00525754)
(-0.0713335 6.51372e-10 -0.00512749)
(-0.0680506 7.13256e-10 -0.00499548)
(-0.064851 7.75148e-10 -0.0048616)
(-0.0617359 8.32066e-10 -0.00472599)
(-0.0587066 8.81516e-10 -0.00458875)
(-0.0557642 9.2059e-10 -0.00444999)
(-0.0529098 9.48454e-10 -0.00430982)
(-0.0501444 9.65521e-10 -0.00416836)
(-0.0474689 9.73864e-10 -0.0040257)
(-0.0448842 9.68496e-10 -0.00388196)
(-0.042391 9.57723e-10 -0.00373725)
(-0.03999 9.34895e-10 -0.00359169)
(-0.037682 9.06241e-10 -0.0034454)
(-0.0354674 8.70928e-10 -0.0032985)
(-0.0333467 8.27292e-10 -0.00315113)
(-0.0313204 7.80318e-10 -0.00300343)
(-0.0293886 7.26262e-10 -0.00285555)
(-0.0275516 6.69696e-10 -0.00270766)
(-0.0258094 6.10203e-10 -0.00255992)
(-0.0241621 5.48613e-10 -0.00241253)
(-0.0226094 4.87005e-10 -0.00226569)
(-0.021151 4.24129e-10 -0.00211962)
(-0.0197865 3.66641e-10 -0.00197454)
(-0.0185153 3.13295e-10 -0.00183072)
(-0.0173367 2.62427e-10 -0.00168841)
(-0.0162497 2.17366e-10 -0.00154792)
(-0.0152531 1.82276e-10 -0.00140953)
(-0.0143456 1.48002e-10 -0.00127359)
(-0.0135257 1.17042e-10 -0.00114044)
(-0.0127917 8.60667e-11 -0.00101045)
(-0.0121414 5.00776e-11 -0.000884014)
(-0.0115727 7.4069e-12 -0.000761538)
(-0.0110829 -4.77797e-11 -0.000643459)
(-0.0106694 -1.19653e-10 -0.000530229)
(-0.010329 -2.07388e-10 -0.000422324)
(-0.0100583 -3.09323e-10 -0.000320238)
(-0.00985363 -4.26298e-10 -0.000224486)
(-0.00971088 -5.54986e-10 -0.0001356)
(-0.0096257 -6.91224e-10 -5.41312e-05)
(-0.00959338 -8.31675e-10 1.93576e-05)
(-0.00960882 -9.78019e-10 8.42869e-05)
(-0.00966661 -1.13276e-09 0.000140055)
(-0.00976092 -1.29924e-09 0.000186044)
(-0.00988559 -1.49164e-09 0.000221632)
(-0.010034 -1.71583e-09 0.000246187)
(-0.0101993 -1.97515e-09 0.000259066)
(-0.0103742 -2.26713e-09 0.000259627)
(-0.0105509 -2.58509e-09 0.000247221)
(-0.0107213 -2.91236e-09 0.000221205)
(-0.0108772 -3.23308e-09 0.000180942)
(-0.0110097 -3.55811e-09 0.000125815)
(-0.0111097 -3.88496e-09 5.52346e-05)
(-0.011168 -4.24456e-09 -3.13307e-05)
(-0.011175 -4.64109e-09 -0.000134328)
(-0.011121 -5.07626e-09 -0.000254114)
(-0.0109963 -5.51416e-09 -0.000390887)
(-0.0107913 -5.93056e-09 -0.000544585)
(-0.0104966 -6.28868e-09 -0.000714757)
(-0.0101036 -6.5868e-09 -0.00090036)
(-0.00960432 -6.80986e-09 -0.00109943)
(-0.00899267 -6.92517e-09 -0.0013086)
(-0.00826473 -6.8975e-09 -0.00152223)
(-0.00742013 -6.70912e-09 -0.00173119)
(-0.00646361 -6.37996e-09 -0.00192067)
(-0.00540732 -5.99698e-09 -0.00206692)
(-0.00427374 -5.60861e-09 -0.00213193)
(-0.00310007 -5.23969e-09 -0.00205588)
(-0.00194043 -4.85421e-09 -0.0017479)
(-0.000880668 -3.88624e-09 -0.00108314)
(-1.84918e-05 6.49555e-09 4.58293e-05)
(0.00020958 4.05843e-08 0.00123725)
(0.00541545 1.78346e-05 -0.0209604)
(0.00980078 4.33199e-06 -0.0173867)