/*--------------------------------*- C++ -*----------------------------------*\
  =========                 |
  \\      /  F ield         | OpenFOAM: The Open Source CFD Toolbox
   \\    /   O peration     | Website:  https://openfoam.org
    \\  /    A nd           | Version:  8
     \\/     M anipulation  |
\*---------------------------------------------------------------------------*/
FoamFile
{
    version     2.0;
    format      ascii;
    class       volScalarField;
    location    "3600";
    object      alphat;
}
// * * * * * * * * * * * * * * * * * * * * * * * * * * * * * * * * * * * * * //

dimensions      [1 -1 -1 0 0 0 0];

internalField   nonuniform List<scalar> 
46000
(
1.18142e-06
4.9513e-06
9.10163e-06
1.29556e-05
1.65925e-05
2.01083e-05
2.35464e-05
2.69159e-05
3.02353e-05
3.3518e-05
3.67752e-05
4.00155e-05
4.32204e-05
4.6403e-05
4.95662e-05
5.27103e-05
5.58344e-05
5.89372e-05
6.20167e-05
6.50707e-05
6.80966e-05
7.10914e-05
7.40521e-05
7.69754e-05
7.9858e-05
8.26963e-05
8.5487e-05
8.82263e-05
9.09107e-05
9.35367e-05
9.61007e-05
9.85993e-05
0.000101029
0.000103387
0.000105669
0.000107872
0.000109995
0.000112033
0.000113985
0.000115847
0.000117617
0.000119295
0.000120876
0.000122361
0.000123747
0.000125033
0.000126218
0.000127301
0.000128283
0.000129161
0.000129937
0.00013061
0.000131182
0.000131651
0.000132019
0.000132287
0.000132456
0.000132528
0.000132504
0.000132386
0.000132177
0.00013188
0.000131498
0.000131032
0.000130483
0.000129853
0.000129145
0.000128361
0.000127505
0.000126579
0.000125587
0.000124531
0.000123415
0.000122243
0.000121016
0.000119739
0.000118416
0.000117048
0.000115639
0.000114194
0.000112714
0.000111203
0.000109665
0.000108102
0.000106517
0.000104913
0.000103293
0.00010166
0.000100017
9.83658e-05
9.67093e-05
9.505e-05
9.33901e-05
9.17318e-05
9.00773e-05
8.84286e-05
8.67875e-05
8.51558e-05
8.35353e-05
8.19274e-05
8.03337e-05
7.87555e-05
7.71941e-05
7.56505e-05
7.41259e-05
7.26211e-05
7.1137e-05
6.96743e-05
6.82338e-05
6.68158e-05
6.5421e-05
6.40497e-05
6.27021e-05
6.13785e-05
6.00791e-05
5.88039e-05
5.7553e-05
5.63262e-05
5.51235e-05
5.39447e-05
5.27896e-05
5.16579e-05
5.05494e-05
4.94635e-05
4.84e-05
4.73585e-05
4.63384e-05
4.53393e-05
4.43606e-05
4.3402e-05
4.24627e-05
4.15422e-05
4.064e-05
3.97555e-05
3.88881e-05
3.80372e-05
3.72022e-05
3.63826e-05
3.55776e-05
3.47868e-05
3.40096e-05
3.32454e-05
3.24937e-05
3.17538e-05
3.10254e-05
3.03078e-05
2.96006e-05
2.89033e-05
2.82154e-05
2.75365e-05
2.68662e-05
2.62038e-05
2.55502e-05
2.49045e-05
2.4266e-05
2.36346e-05
2.30098e-05
2.23914e-05
2.17791e-05
2.11729e-05
2.05723e-05
1.99773e-05
1.93876e-05
1.88032e-05
1.82243e-05
1.76518e-05
1.70845e-05
1.65221e-05
1.59644e-05
1.54113e-05
1.48629e-05
1.43189e-05
1.37795e-05
1.32444e-05
1.27137e-05
1.21872e-05
1.1665e-05
1.11469e-05
1.06326e-05
1.01218e-05
9.61515e-06
9.11208e-06
8.61223e-06
8.11556e-06
7.62164e-06
7.13014e-06
6.64056e-06
6.15231e-06
5.66467e-06
5.1767e-06
4.68791e-06
4.1983e-06
3.70501e-06
3.20556e-06
2.69694e-06
2.17523e-06
1.63552e-06
1.07414e-06
5.08827e-07
9.80377e-08
1.1815e-06
4.95148e-06
9.10183e-06
1.29558e-05
1.65927e-05
2.01085e-05
2.35466e-05
2.6916e-05
3.02355e-05
3.35181e-05
3.67753e-05
4.00156e-05
4.32205e-05
4.64031e-05
4.95663e-05
5.27103e-05
5.58345e-05
5.89372e-05
6.20168e-05
6.50707e-05
6.80966e-05
7.10914e-05
7.4052e-05
7.69754e-05
7.98579e-05
8.26963e-05
8.54869e-05
8.82262e-05
9.09106e-05
9.35366e-05
9.61006e-05
9.85992e-05
0.000101029
0.000103386
0.000105669
0.000107872
0.000109995
0.000112033
0.000113984
0.000115847
0.000117617
0.000119294
0.000120876
0.00012236
0.000123746
0.000125032
0.000126218
0.000127301
0.000128282
0.000129161
0.000129937
0.00013061
0.000131181
0.000131651
0.000132019
0.000132287
0.000132456
0.000132528
0.000132504
0.000132386
0.000132177
0.000131879
0.000131498
0.000131032
0.000130483
0.000129853
0.000129144
0.000128361
0.000127504
0.000126579
0.000125586
0.000124531
0.000123415
0.000122242
0.000121016
0.000119739
0.000118415
0.000117048
0.000115639
0.000114194
0.000112714
0.000111203
0.000109665
0.000108101
0.000106516
0.000104913
0.000103293
0.00010166
0.000100017
9.83656e-05
9.67091e-05
9.50498e-05
9.33899e-05
9.17316e-05
9.00771e-05
8.84283e-05
8.67873e-05
8.51556e-05
8.35351e-05
8.19272e-05
8.03335e-05
7.87553e-05
7.71939e-05
7.56503e-05
7.41257e-05
7.26209e-05
7.11368e-05
6.96742e-05
6.82336e-05
6.68157e-05
6.54208e-05
6.40495e-05
6.27019e-05
6.13784e-05
6.00789e-05
5.88038e-05
5.75528e-05
5.63261e-05
5.51234e-05
5.39446e-05
5.27895e-05
5.16578e-05
5.05492e-05
4.94634e-05
4.83999e-05
4.73584e-05
4.63383e-05
4.53392e-05
4.43605e-05
4.34018e-05
4.24626e-05
4.15421e-05
4.06399e-05
3.97554e-05
3.8888e-05
3.80371e-05
3.72021e-05
3.63825e-05
3.55775e-05
3.47867e-05
3.40095e-05
3.32453e-05
3.24936e-05
3.17537e-05
3.10253e-05
3.03077e-05
2.96005e-05
2.89032e-05
2.82154e-05
2.75365e-05
2.68662e-05
2.62037e-05
2.55502e-05
2.49044e-05
2.4266e-05
2.36345e-05
2.30097e-05
2.23913e-05
2.17791e-05
2.11728e-05
2.05722e-05
1.99772e-05
1.93876e-05
1.88032e-05
1.82243e-05
1.76518e-05
1.70845e-05
1.6522e-05
1.59643e-05
1.54113e-05
1.48628e-05
1.43189e-05
1.37794e-05
1.32444e-05
1.27137e-05
1.21872e-05
1.1665e-05
1.11469e-05
1.06326e-05
1.01217e-05
9.61513e-06
9.11206e-06
8.61222e-06
8.11554e-06
7.62163e-06
7.13013e-06
6.64055e-06
6.15231e-06
5.66466e-06
5.1767e-06
4.68791e-06
4.1983e-06
3.70501e-06
3.20557e-06
2.69695e-06
2.17524e-06
1.63553e-06
1.07415e-06
5.08832e-07
9.80376e-08
4.55255e-06
4.85196e-05
8.31665e-05
0.000107085
0.000125578
0.000140894
0.000154051
0.000165811
0.00017658
0.000186602
0.00019603
0.000204982
0.000213549
0.000221781
0.000229718
0.000237391
0.000244824
0.000252036
0.000259041
0.000265851
0.000272475
0.000278919
0.000285189
0.000291289
0.00029722
0.000302986
0.000308587
0.000314023
0.000319296
0.000324403
0.000329346
0.000334123
0.000338733
0.000343176
0.000347449
0.000351552
0.000355483
0.000359242
0.000362828
0.000366238
0.000369474
0.000372533
0.000375415
0.00037812
0.000380647
0.000382997
0.000385168
0.000387163
0.00038898
0.000390621
0.000392086
0.000393377
0.000394494
0.00039544
0.000396216
0.000396823
0.000397264
0.000397541
0.000397656
0.000397611
0.000397409
0.000397051
0.000396539
0.000395879
0.000395074
0.00039413
0.00039305
0.000391839
0.0003905
0.000389037
0.000387455
0.000385757
0.00038395
0.000382036
0.00038002
0.000377907
0.000375701
0.000373406
0.000371029
0.000368571
0.00036604
0.000363438
0.000360771
0.000358042
0.000355257
0.00035242
0.000349534
0.000346604
0.000343635
0.00034063
0.000337593
0.000334529
0.00033144
0.000328331
0.000325205
0.000322065
0.000318916
0.00031576
0.000312599
0.000309438
0.000306279
0.000303125
0.000299977
0.000296839
0.000293713
0.000290601
0.000287505
0.000284427
0.000281368
0.00027833
0.000275314
0.000272323
0.000269356
0.000266415
0.000263501
0.000260615
0.000257757
0.000254928
0.000252128
0.000249357
0.000246616
0.000243904
0.000241223
0.00023857
0.000235947
0.000233352
0.000230786
0.000228248
0.000225737
0.000223253
0.000220794
0.00021836
0.000215951
0.000213564
0.0002112
0.000208857
0.000206534
0.00020423
0.000201944
0.000199674
0.00019742
0.000195181
0.000192954
0.000190739
0.000188534
0.000186339
0.000184153
0.000181973
0.000179799
0.000177629
0.000175464
0.000173302
0.00017114
0.000168979
0.000166815
0.00016465
0.000162481
0.000160307
0.000158128
0.000155941
0.000153747
0.000151543
0.000149328
0.0001471
0.000144855
0.000142589
0.000140307
0.000138009
0.000135694
0.000133359
0.000131005
0.000128628
0.000126228
0.000123802
0.000121348
0.000118864
0.000116347
0.000113793
0.0001112
0.000108564
0.000105878
0.000103135
0.000100331
9.74553e-05
9.44988e-05
9.14497e-05
8.82926e-05
8.50088e-05
8.15735e-05
7.79528e-05
7.40934e-05
6.99316e-05
6.54156e-05
6.04358e-05
5.48273e-05
4.832e-05
4.04241e-05
3.01226e-05
1.51628e-05
4.60778e-07
4.55268e-06
4.85215e-05
8.31692e-05
0.000107088
0.000125581
0.000140897
0.000154054
0.000165814
0.000176583
0.000186605
0.000196034
0.000204986
0.000213552
0.000221784
0.000229722
0.000237395
0.000244828
0.00025204
0.000259045
0.000265855
0.000272479
0.000278924
0.000285194
0.000291293
0.000297225
0.000302991
0.000308591
0.000314028
0.0003193
0.000324408
0.000329351
0.000334128
0.000338738
0.00034318
0.000347454
0.000351557
0.000355488
0.000359247
0.000362833
0.000366244
0.000369479
0.000372538
0.00037542
0.000378125
0.000380652
0.000383002
0.000385174
0.000387168
0.000388985
0.000390626
0.000392091
0.000393382
0.0003945
0.000395445
0.000396221
0.000396828
0.000397269
0.000397546
0.000397661
0.000397617
0.000397415
0.000397057
0.000396545
0.000395884
0.00039508
0.000394135
0.000393056
0.000391844
0.000390505
0.000389042
0.00038746
0.000385762
0.000383955
0.00038204
0.000380024
0.000377911
0.000375705
0.000373411
0.000371033
0.000368576
0.000366044
0.000363443
0.000360775
0.000358047
0.000355262
0.000352424
0.000349538
0.000346608
0.000343639
0.000340634
0.000337597
0.000334532
0.000331444
0.000328335
0.000325209
0.000322069
0.00031892
0.000315763
0.000312603
0.000309442
0.000306283
0.000303128
0.000299981
0.000296843
0.000293717
0.000290604
0.000287508
0.00028443
0.000281371
0.000278333
0.000275317
0.000272326
0.000269359
0.000266418
0.000263504
0.000260618
0.00025776
0.00025493
0.00025213
0.000249359
0.000246618
0.000243907
0.000241225
0.000238572
0.000235949
0.000233354
0.000230788
0.00022825
0.000225739
0.000223254
0.000220796
0.000218362
0.000215953
0.000213566
0.000211202
0.000208859
0.000206536
0.000204232
0.000201946
0.000199676
0.000197422
0.000195182
0.000192955
0.00019074
0.000188536
0.000186341
0.000184154
0.000181974
0.0001798
0.00017763
0.000175465
0.000173303
0.000171141
0.00016898
0.000166816
0.000164651
0.000162482
0.000160308
0.000158129
0.000155942
0.000153748
0.000151544
0.000149329
0.000147101
0.000144855
0.00014259
0.000140308
0.00013801
0.000135694
0.00013336
0.000131005
0.000128629
0.000126228
0.000123802
0.000121349
0.000118865
0.000116347
0.000113794
0.000111201
0.000108565
0.000105878
0.000103136
0.000100331
9.74558e-05
9.44993e-05
9.14501e-05
8.82931e-05
8.50092e-05
8.15739e-05
7.79532e-05
7.40937e-05
6.99318e-05
6.54158e-05
6.0436e-05
5.48275e-05
4.83202e-05
4.04242e-05
3.01226e-05
1.51627e-05
4.60778e-07
8.55265e-06
8.0705e-05
0.000151106
0.000203725
0.000244534
0.000277555
0.0003053
0.000329356
0.000350724
0.000370067
0.000387835
0.000404341
0.000419814
0.000434416
0.000448267
0.000461461
0.000474068
0.000486149
0.000497748
0.000508902
0.000519643
0.000529994
0.000539977
0.000549608
0.000558901
0.000567868
0.000576519
0.000584862
0.000592903
0.00060065
0.000608106
0.000615276
0.000622163
0.000628772
0.000635103
0.00064116
0.000646944
0.000652459
0.000657705
0.000662684
0.000667397
0.000671848
0.000676036
0.000679963
0.000683632
0.000687044
0.000690201
0.000693105
0.000695758
0.000698162
0.00070032
0.000702233
0.000703905
0.000705338
0.000706535
0.000707499
0.000708233
0.00070874
0.000709023
0.000709084
0.000708927
0.000708553
0.000707963
0.000707166
0.000706168
0.000704975
0.000703594
0.000702029
0.000700285
0.000698368
0.000696282
0.000694035
0.000691629
0.000689072
0.000686369
0.000683524
0.000680544
0.000677434
0.0006742
0.000670847
0.000667381
0.000663808
0.000660132
0.00065636
0.000652497
0.000648549
0.00064452
0.000640417
0.000636244
0.000632008
0.000627711
0.000623361
0.000618962
0.000614518
0.000610035
0.000605517
0.000600968
0.000596394
0.000591797
0.000587182
0.000582554
0.000577915
0.00057327
0.000568621
0.000563973
0.000559328
0.00055469
0.00055006
0.000545443
0.000540839
0.000536252
0.000531683
0.000527134
0.000522608
0.000518105
0.000513626
0.000509174
0.00050475
0.000500353
0.000495984
0.000491645
0.000487335
0.000483054
0.000478804
0.000474582
0.000470389
0.000466226
0.00046209
0.000457981
0.000453899
0.000449843
0.000445811
0.000441802
0.000437815
0.000433849
0.000429902
0.000425973
0.00042206
0.000418161
0.000414275
0.0004104
0.000406534
0.000402676
0.000398823
0.000394974
0.000391126
0.000387279
0.00038343
0.000379577
0.000375719
0.000371855
0.000367981
0.000364095
0.000360194
0.000356278
0.000352343
0.000348388
0.000344411
0.00034041
0.000336383
0.000332326
0.000328239
0.000324116
0.000319955
0.000315748
0.000311491
0.000307187
0.000302835
0.000298432
0.000293975
0.000289461
0.000284885
0.000280243
0.000275529
0.000270737
0.00026586
0.000260891
0.000255821
0.00025064
0.000245335
0.000239891
0.000234293
0.00022852
0.000222547
0.000216344
0.000209877
0.000203101
0.000195962
0.000188387
0.000180283
0.000171521
0.000161926
0.000151303
0.000139345
0.00012559
0.000109309
8.92952e-05
6.34709e-05
2.91655e-05
9.79122e-07
8.55281e-06
8.07076e-05
0.000151111
0.000203731
0.000244541
0.000277562
0.000305307
0.000329362
0.00035073
0.000370073
0.000387841
0.000404347
0.00041982
0.000434422
0.000448274
0.000461467
0.000474075
0.000486155
0.000497754
0.000508909
0.000519649
0.000530001
0.000539983
0.000549614
0.000558908
0.000567875
0.000576526
0.000584868
0.00059291
0.000600657
0.000608113
0.000615283
0.00062217
0.000628779
0.00063511
0.000641167
0.000646952
0.000652466
0.000657712
0.000662691
0.000667404
0.000671855
0.000676043
0.00067997
0.000683639
0.000687051
0.000690208
0.000693112
0.000695765
0.000698169
0.000700327
0.00070224
0.000703912
0.000705345
0.000706542
0.000707506
0.00070824
0.000708746
0.000709029
0.000709091
0.000708933
0.000708559
0.000707969
0.000707172
0.000706174
0.000704982
0.0007036
0.000702035
0.000700291
0.000698374
0.000696288
0.00069404
0.000691635
0.000689078
0.000686374
0.00068353
0.00068055
0.00067744
0.000674206
0.000670853
0.000667387
0.000663813
0.000660137
0.000656365
0.000652502
0.000648554
0.000644525
0.000640422
0.000636249
0.000632012
0.000627716
0.000623366
0.000618966
0.000614523
0.000610039
0.000605521
0.000600972
0.000596397
0.000591801
0.000587186
0.000582557
0.000577918
0.000573273
0.000568625
0.000563976
0.000559331
0.000554693
0.000550063
0.000545445
0.000540842
0.000536254
0.000531685
0.000527137
0.00052261
0.000518107
0.000513629
0.000509177
0.000504752
0.000500355
0.000495986
0.000491647
0.000487337
0.000483056
0.000478805
0.000474584
0.000470391
0.000466227
0.000462091
0.000457983
0.000453901
0.000449844
0.000445812
0.000441803
0.000437816
0.00043385
0.000429903
0.000425974
0.000422061
0.000418162
0.000414276
0.000410401
0.000406535
0.000402677
0.000398824
0.000394974
0.000391127
0.000387279
0.00038343
0.000379577
0.00037572
0.000371855
0.000367982
0.000364095
0.000360195
0.000356278
0.000352343
0.000348388
0.000344411
0.00034041
0.000336383
0.000332327
0.000328239
0.000324116
0.000319955
0.000315749
0.000311491
0.000307187
0.000302835
0.000298432
0.000293975
0.000289461
0.000284885
0.000280243
0.000275529
0.000270737
0.00026586
0.000260891
0.000255821
0.00025064
0.000245335
0.000239891
0.000234293
0.00022852
0.000222547
0.000216344
0.000209877
0.000203101
0.000195962
0.000188387
0.000180283
0.000171521
0.000161926
0.000151303
0.000139345
0.00012559
0.000109309
8.92953e-05
6.34709e-05
2.91653e-05
9.79122e-07
1.23919e-05
0.000103552
0.000201338
0.000280233
0.000343786
0.000396114
0.000440335
0.000478587
0.000512336
0.000542608
0.00057013
0.000595432
0.000618902
0.000640831
0.000661439
0.000680897
0.000699341
0.000716876
0.000733591
0.000749555
0.000764828
0.000779457
0.000793483
0.00080694
0.000819857
0.000832258
0.000844164
0.000855594
0.000866565
0.000877088
0.000887178
0.000896844
0.000906096
0.000914944
0.000923393
0.000931453
0.000939129
0.000946426
0.000953352
0.00095991
0.000966107
0.000971946
0.000977433
0.000982571
0.000987365
0.00099182
0.000995939
0.000999727
0.00100319
0.00100633
0.00100915
0.00101165
0.00101385
0.00101574
0.00101733
0.00101862
0.00101962
0.00102033
0.00102075
0.0010209
0.00102077
0.00102037
0.00101969
0.00101876
0.00101757
0.00101613
0.00101446
0.00101255
0.00101041
0.00100806
0.00100549
0.00100272
0.00099974
0.00099657
0.000993212
0.000989672
0.000985958
0.000982075
0.000978031
0.000973831
0.000969482
0.000964991
0.000960365
0.00095561
0.000950732
0.000945737
0.000940633
0.000935425
0.000930121
0.000924725
0.000919244
0.000913685
0.000908053
0.000902353
0.000896592
0.000890776
0.000884909
0.000878998
0.000873047
0.00086706
0.000861045
0.000855003
0.000848942
0.000842864
0.000836773
0.000830675
0.000824572
0.000818468
0.000812366
0.00080627
0.000800183
0.000794106
0.000788044
0.000781997
0.000775968
0.000769958
0.00076397
0.000758005
0.000752063
0.000746146
0.000740254
0.000734388
0.000728548
0.000722734
0.000716946
0.000711184
0.000705447
0.000699735
0.000694046
0.00068838
0.000682735
0.00067711
0.000671504
0.000665914
0.00066034
0.000654779
0.00064923
0.00064369
0.000638157
0.000632629
0.000627104
0.000621579
0.000616052
0.000610521
0.000604983
0.000599436
0.000593877
0.000588305
0.000582716
0.000577109
0.00057148
0.000565827
0.000560144
0.000554431
0.000548683
0.000542899
0.000537075
0.000531209
0.000525297
0.000519336
0.000513322
0.00050725
0.000501118
0.000494917
0.000488642
0.000482286
0.000475849
0.000469328
0.000462717
0.000456012
0.000449205
0.000442289
0.000435256
0.000428096
0.000420798
0.00041335
0.000405737
0.000397943
0.000389949
0.000381734
0.00037327
0.000364527
0.000355469
0.000346051
0.00033622
0.000325912
0.000315046
0.000303524
0.000291222
0.000277978
0.000263582
0.000247757
0.00023014
0.000210253
0.000187386
0.000160506
0.000128077
8.79358e-05
3.88068e-05
1.50254e-06
1.23921e-05
0.000103555
0.000201344
0.000280241
0.000343795
0.000396124
0.000440345
0.000478596
0.000512346
0.000542617
0.00057014
0.000595441
0.000618911
0.00064084
0.000661448
0.000680907
0.00069935
0.000716885
0.0007336
0.000749565
0.000764837
0.000779466
0.000793492
0.000806949
0.000819866
0.000832267
0.000844173
0.000855603
0.000866574
0.000877097
0.000887187
0.000896853
0.000906105
0.000914952
0.000923402
0.000931462
0.000939137
0.000946435
0.000953361
0.000959919
0.000966116
0.000971955
0.000977441
0.000982579
0.000987374
0.000991828
0.000995947
0.000999735
0.0010032
0.00100633
0.00100915
0.00101166
0.00101386
0.00101575
0.00101733
0.00101863
0.00101962
0.00102034
0.00102076
0.00102091
0.00102078
0.00102038
0.0010197
0.00101877
0.00101758
0.00101614
0.00101446
0.00101256
0.00101042
0.00100807
0.0010055
0.00100272
0.000999746
0.000996576
0.000993218
0.000989678
0.000985964
0.000982081
0.000978036
0.000973836
0.000969487
0.000964997
0.00096037
0.000955615
0.000950736
0.000945742
0.000940638
0.00093543
0.000930125
0.000924729
0.000919248
0.000913689
0.000908056
0.000902357
0.000896596
0.00089078
0.000884913
0.000879001
0.00087305
0.000867064
0.000861048
0.000855006
0.000848945
0.000842866
0.000836776
0.000830677
0.000824574
0.00081847
0.000812369
0.000806273
0.000800185
0.000794109
0.000788046
0.000781999
0.000775969
0.00076996
0.000763972
0.000758006
0.000752064
0.000746147
0.000740255
0.000734389
0.000728549
0.000722735
0.000716947
0.000711185
0.000705448
0.000699735
0.000694047
0.00068838
0.000682735
0.00067711
0.000671504
0.000665915
0.00066034
0.000654779
0.00064923
0.00064369
0.000638157
0.000632629
0.000627104
0.000621579
0.000616052
0.000610521
0.000604983
0.000599436
0.000593877
0.000588304
0.000582715
0.000577108
0.00057148
0.000565826
0.000560144
0.00055443
0.000548683
0.000542898
0.000537075
0.000531208
0.000525296
0.000519335
0.000513321
0.00050725
0.000501117
0.000494916
0.000488641
0.000482285
0.000475848
0.000469327
0.000462716
0.000456011
0.000449204
0.000442288
0.000435255
0.000428095
0.000420797
0.000413349
0.000405736
0.000397942
0.000389948
0.000381733
0.000373269
0.000364526
0.000355468
0.00034605
0.000336219
0.000325911
0.000315045
0.000303524
0.000291221
0.000277977
0.000263581
0.000247756
0.00023014
0.000210253
0.000187386
0.000160506
0.000128078
8.79358e-05
3.88066e-05
1.50254e-06
1.61051e-05
0.000121913
0.000240971
0.000342078
0.000426246
0.000497067
0.000557654
0.000610363
0.000656932
0.000698641
0.000736439
0.000771038
0.000802975
0.000832661
0.000860417
0.000886492
0.000911086
0.000934359
0.000956441
0.00097744
0.000997445
0.00101653
0.00103475
0.00105217
0.00106884
0.00108478
0.00110003
0.00111462
0.00112859
0.00114194
0.00115471
0.00116691
0.00117855
0.00118965
0.00120023
0.00121029
0.00121986
0.00122893
0.00123752
0.00124564
0.0012533
0.0012605
0.00126726
0.00127357
0.00127946
0.00128492
0.00128996
0.00129459
0.00129882
0.00130266
0.0013061
0.00130915
0.00131183
0.00131414
0.00131608
0.00131766
0.00131889
0.00131977
0.00132031
0.00132051
0.00132039
0.00131993
0.00131915
0.00131807
0.00131667
0.00131499
0.00131301
0.00131076
0.00130824
0.00130545
0.00130241
0.00129912
0.00129559
0.00129182
0.00128783
0.00128362
0.0012792
0.00127458
0.00126976
0.00126475
0.00125957
0.0012542
0.00124868
0.00124299
0.00123715
0.00123117
0.00122505
0.0012188
0.00121243
0.00120595
0.00119936
0.00119266
0.00118587
0.001179
0.00117204
0.00116501
0.00115791
0.00115075
0.00114353
0.00113626
0.00112895
0.0011216
0.00111421
0.0011068
0.00109936
0.00109191
0.00108443
0.00107695
0.00106946
0.00106197
0.00105448
0.00104699
0.0010395
0.00103203
0.00102457
0.00101712
0.00100969
0.00100227
0.000994874
0.000987496
0.000980138
0.0009728
0.000965484
0.000958188
0.000950914
0.00094366
0.000936425
0.00092921
0.000922013
0.000914832
0.000907666
0.000900514
0.000893373
0.000886242
0.000879119
0.000872001
0.000864885
0.000857771
0.000850654
0.000843532
0.000836402
0.000829262
0.000822109
0.00081494
0.000807751
0.00080054
0.000793303
0.000786039
0.000778744
0.000771414
0.000764047
0.000756637
0.00074918
0.000741674
0.000734115
0.000726498
0.00071882
0.000711078
0.000703266
0.00069538
0.000687416
0.000679367
0.000671228
0.00066299
0.000654648
0.000646191
0.000637618
0.000628921
0.000620093
0.000611126
0.000602009
0.000592732
0.000583281
0.000573643
0.0005638
0.000553734
0.000543424
0.000532845
0.000521968
0.000510759
0.000499181
0.000487187
0.000474723
0.000461724
0.000448113
0.000433794
0.000418653
0.000402548
0.000385301
0.000366691
0.000346433
0.000324161
0.000299395
0.000271518
0.000239679
0.000202713
0.000159055
0.000106863
4.63217e-05
2.01723e-06
1.61053e-05
0.000121916
0.000240977
0.000342087
0.000426256
0.000497079
0.000557666
0.000610375
0.000656944
0.000698653
0.000736452
0.00077105
0.000802987
0.000832674
0.000860429
0.000886504
0.000911098
0.000934371
0.000956453
0.000977452
0.000997456
0.00101654
0.00103477
0.00105219
0.00106885
0.00108479
0.00110004
0.00111463
0.0011286
0.00114195
0.00115472
0.00116692
0.00117856
0.00118966
0.00120024
0.00121031
0.00121987
0.00122894
0.00123753
0.00124565
0.00125331
0.00126051
0.00126727
0.00127358
0.00127947
0.00128493
0.00128997
0.0012946
0.00129883
0.00130266
0.00130611
0.00130916
0.00131184
0.00131415
0.00131609
0.00131767
0.0013189
0.00131978
0.00132032
0.00132052
0.00132039
0.00131994
0.00131916
0.00131807
0.00131668
0.00131499
0.00131302
0.00131077
0.00130824
0.00130546
0.00130241
0.00129912
0.00129559
0.00129183
0.00128784
0.00128363
0.00127921
0.00127459
0.00126977
0.00126476
0.00125957
0.00125421
0.00124868
0.00124299
0.00123716
0.00123117
0.00122506
0.00121881
0.00121244
0.00120595
0.00119936
0.00119267
0.00118588
0.001179
0.00117205
0.00116501
0.00115791
0.00115075
0.00114353
0.00113627
0.00112895
0.0011216
0.00111422
0.0011068
0.00109937
0.00109191
0.00108444
0.00107695
0.00106946
0.00106197
0.00105448
0.00104699
0.00103951
0.00103203
0.00102457
0.00101712
0.00100969
0.00100227
0.000994876
0.000987497
0.000980139
0.000972801
0.000965485
0.000958189
0.000950915
0.00094366
0.000936426
0.000929211
0.000922013
0.000914832
0.000907666
0.000900514
0.000893373
0.000886242
0.000879119
0.000872001
0.000864885
0.00085777
0.000850653
0.000843532
0.000836402
0.000829262
0.000822109
0.000814939
0.00080775
0.000800539
0.000793303
0.000786038
0.000778743
0.000771414
0.000764046
0.000756636
0.00074918
0.000741673
0.000734114
0.000726497
0.000718819
0.000711077
0.000703265
0.000695379
0.000687415
0.000679366
0.000671226
0.000662989
0.000654646
0.00064619
0.000637616
0.00062892
0.000620092
0.000611125
0.000602008
0.000592731
0.00058328
0.000573642
0.000563799
0.000553733
0.000543423
0.000532844
0.000521967
0.000510758
0.00049918
0.000487186
0.000474722
0.000461723
0.000448112
0.000433793
0.000418652
0.000402547
0.000385301
0.000366691
0.000346433
0.000324161
0.000299395
0.000271518
0.00023968
0.000202714
0.000159055
0.000106863
4.63215e-05
2.01723e-06
1.97571e-05
0.000137573
0.000273813
0.000393735
0.000496182
0.000583973
0.000659992
0.000726625
0.000785738
0.00083877
0.000886828
0.000930764
0.000971239
0.00100877
0.00104376
0.00107655
0.00110737
0.00113646
0.00116399
0.00119008
0.00121488
0.00123846
0.00126093
0.00128235
0.00130278
0.00132229
0.0013409
0.00135867
0.00137564
0.00139183
0.00140727
0.00142199
0.00143601
0.00144936
0.00146205
0.0014741
0.00148553
0.00149635
0.00150658
0.00151623
0.00152531
0.00153384
0.00154183
0.00154929
0.00155622
0.00156265
0.00156858
0.00157402
0.00157897
0.00158346
0.00158748
0.00159105
0.00159417
0.00159686
0.00159912
0.00160095
0.00160238
0.0016034
0.00160402
0.00160425
0.00160409
0.00160357
0.00160267
0.00160141
0.0015998
0.00159785
0.00159557
0.00159297
0.00159005
0.00158684
0.00158332
0.00157952
0.00157544
0.0015711
0.00156649
0.00156163
0.00155653
0.00155119
0.00154562
0.00153984
0.00153384
0.00152765
0.00152126
0.00151468
0.00150793
0.00150101
0.00149393
0.00148669
0.00147931
0.0014718
0.00146416
0.00145639
0.00144851
0.00144053
0.00143245
0.00142428
0.00141602
0.00140769
0.00139928
0.00139081
0.00138229
0.00137371
0.00136508
0.00135642
0.00134772
0.001339
0.00133025
0.00132147
0.00131269
0.00130389
0.00129509
0.00128628
0.00127747
0.00126867
0.00125987
0.00125107
0.00124229
0.00123352
0.00122476
0.00121601
0.00120728
0.00119857
0.00118987
0.00118118
0.00117251
0.00116386
0.00115522
0.00114659
0.00113797
0.00112937
0.00112077
0.00111218
0.00110359
0.001095
0.00108641
0.00107782
0.00106922
0.00106061
0.00105199
0.00104336
0.0010347
0.00102602
0.00101732
0.00100859
0.000999825
0.000991024
0.000982184
0.0009733
0.00096437
0.000955388
0.000946351
0.000937253
0.00092809
0.000918859
0.000909553
0.000900169
0.000890702
0.000881146
0.000871497
0.000861748
0.000851894
0.000841926
0.000831838
0.000821621
0.000811266
0.000800763
0.000790106
0.000779284
0.000768288
0.000757106
0.000745724
0.000734127
0.000722298
0.000710217
0.000697862
0.000685208
0.000672225
0.00065888
0.000645135
0.000630946
0.00061626
0.000601016
0.000585143
0.000568555
0.00055115
0.000532807
0.000513378
0.000492681
0.000470496
0.000446545
0.000420484
0.000391875
0.000360166
0.000324644
0.000284398
0.00023824
0.000184711
0.000122389
5.26332e-05
2.52579e-06
1.97573e-05
0.000137576
0.000273819
0.000393744
0.000496193
0.000583985
0.000660006
0.000726639
0.000785753
0.000838785
0.000886843
0.000930779
0.000971254
0.00100878
0.00104378
0.00107656
0.00110739
0.00113648
0.001164
0.0011901
0.00121489
0.00123848
0.00126094
0.00128236
0.0013028
0.0013223
0.00134092
0.00135869
0.00137565
0.00139184
0.00140728
0.001422
0.00143602
0.00144937
0.00146206
0.00147411
0.00148554
0.00149636
0.00150659
0.00151624
0.00152532
0.00153385
0.00154184
0.0015493
0.00155624
0.00156266
0.00156859
0.00157403
0.00157898
0.00158347
0.00158749
0.00159106
0.00159418
0.00159687
0.00159913
0.00160096
0.00160239
0.0016034
0.00160403
0.00160426
0.0016041
0.00160357
0.00160268
0.00160142
0.00159981
0.00159786
0.00159558
0.00159298
0.00159006
0.00158684
0.00158333
0.00157953
0.00157545
0.0015711
0.0015665
0.00156164
0.00155653
0.00155119
0.00154563
0.00153984
0.00153385
0.00152765
0.00152126
0.00151469
0.00150793
0.00150101
0.00149393
0.0014867
0.00147932
0.0014718
0.00146416
0.0014564
0.00144852
0.00144054
0.00143245
0.00142428
0.00141602
0.00140769
0.00139928
0.00139081
0.00138229
0.00137371
0.00136509
0.00135642
0.00134773
0.001339
0.00133025
0.00132148
0.00131269
0.00130389
0.00129509
0.00128628
0.00127747
0.00126867
0.00125987
0.00125107
0.00124229
0.00123352
0.00122476
0.00121601
0.00120728
0.00119857
0.00118987
0.00118118
0.00117251
0.00116386
0.00115522
0.00114659
0.00113797
0.00112937
0.00112077
0.00111218
0.00110359
0.001095
0.00108641
0.00107782
0.00106922
0.00106061
0.00105199
0.00104336
0.0010347
0.00102602
0.00101732
0.00100859
0.000999825
0.000991024
0.000982183
0.0009733
0.000964369
0.000955387
0.00094635
0.000937252
0.00092809
0.000918858
0.000909552
0.000900168
0.000890701
0.000881145
0.000871496
0.000861747
0.000851893
0.000841925
0.000831837
0.00082162
0.000811265
0.000800762
0.000790105
0.000779283
0.000768287
0.000757105
0.000745723
0.000734126
0.000722297
0.000710216
0.000697861
0.000685207
0.000672224
0.000658879
0.000645134
0.000630945
0.000616259
0.000601015
0.000585142
0.000568554
0.000551149
0.000532806
0.000513377
0.000492681
0.000470495
0.000446545
0.000420483
0.000391875
0.000360167
0.000324645
0.000284399
0.000238241
0.000184711
0.000122389
5.26329e-05
2.5258e-06
2.33632e-05
0.000151402
0.000302125
0.000438207
0.000556793
0.000659925
0.000750182
0.000829876
0.000900916
0.000964829
0.00102283
0.00107587
0.00112471
0.00116995
0.00121208
0.00125149
0.00128849
0.00132334
0.00135625
0.00138741
0.00141695
0.001445
0.00147168
0.00149706
0.00152124
0.00154427
0.00156622
0.00158714
0.00160707
0.00162606
0.00164414
0.00166136
0.00167773
0.00169328
0.00170805
0.00172205
0.00173531
0.00174784
0.00175967
0.00177082
0.00178129
0.00179111
0.0018003
0.00180886
0.00181681
0.00182417
0.00183094
0.00183715
0.00184279
0.0018479
0.00185246
0.00185651
0.00186004
0.00186307
0.00186561
0.00186767
0.00186926
0.00187039
0.00187106
0.0018713
0.0018711
0.00187048
0.00186944
0.00186799
0.00186615
0.00186392
0.00186133
0.00185837
0.00185506
0.00185141
0.00184742
0.00184311
0.00183849
0.00183357
0.00182836
0.00182286
0.00181709
0.00181105
0.00180476
0.00179822
0.00179144
0.00178444
0.00177722
0.00176978
0.00176215
0.00175433
0.00174633
0.00173815
0.00172981
0.00172131
0.00171267
0.00170388
0.00169497
0.00168594
0.00167679
0.00166753
0.00165818
0.00164874
0.00163921
0.00162961
0.00161994
0.00161021
0.00160042
0.00159058
0.0015807
0.00157078
0.00156083
0.00155085
0.00154085
0.00153083
0.00152079
0.00151075
0.0015007
0.00149065
0.0014806
0.00147055