/*--------------------------------*- C++ -*----------------------------------*\
  =========                 |
  \\      /  F ield         | OpenFOAM: The Open Source CFD Toolbox
   \\    /   O peration     | Website:  https://openfoam.org
    \\  /    A nd           | Version:  8
     \\/     M anipulation  |
\*---------------------------------------------------------------------------*/
FoamFile
{
    version     2.0;
    format      ascii;
    class       volScalarField;
    location    "3600";
    object      epsilon;
}
// * * * * * * * * * * * * * * * * * * * * * * * * * * * * * * * * * * * * * //

dimensions      [0 2 -3 0 0 0 0];

internalField   nonuniform List<scalar> 
46000
(
21.4201
81.0554
148.657
211.283
270.295
327.281
382.958
437.48
491.159
544.211
596.823
649.136
700.856
752.196
803.202
853.882
904.225
954.208
1003.8
1052.97
1101.68
1149.87
1197.51
1244.53
1290.89
1336.53
1381.39
1425.42
1468.57
1510.76
1551.95
1592.09
1631.11
1668.97
1705.62
1741
1775.06
1807.78
1839.09
1868.97
1897.37
1924.27
1949.63
1973.43
1995.65
2016.26
2035.25
2052.6
2068.31
2082.37
2094.79
2105.55
2114.67
2122.15
2128.01
2132.27
2134.94
2136.04
2135.6
2133.66
2130.25
2125.42
2119.24
2111.71
2102.84
2092.68
2081.26
2068.62
2054.83
2039.91
2023.94
2006.94
1988.98
1970.11
1950.37
1929.83
1908.53
1886.52
1863.87
1840.62
1816.82
1792.52
1767.78
1742.64
1717.15
1691.36
1665.32
1639.06
1612.64
1586.09
1559.45
1532.77
1506.08
1479.42
1452.82
1426.31
1399.92
1373.68
1347.63
1321.77
1296.15
1270.77
1245.66
1220.84
1196.32
1172.12
1148.26
1124.74
1101.57
1078.76
1056.33
1034.27
1012.6
991.312
970.411
949.899
929.776
910.042
890.695
871.731
853.148
834.941
817.105
799.634
782.522
765.763
749.348
733.27
717.521
702.092
686.975
672.16
657.639
643.402
629.438
615.74
602.298
589.1
576.14
563.406
550.89
538.582
526.474
514.557
502.823
491.262
479.867
468.631
457.545
446.603
435.797
425.118
414.58
404.166
393.868
383.681
373.601
363.621
353.74
343.952
334.255
324.645
315.121
305.678
296.323
287.068
277.895
268.799
259.777
250.828
241.951
233.145
224.408
215.74
207.141
198.608
190.14
181.736
173.392
165.101
156.876
148.706
140.585
132.513
124.482
116.488
108.522
100.575
92.6343
84.6849
76.7182
68.7343
60.6864
52.5333
44.2251
35.6962
26.8644
17.6651
8.38155
1.79402
21.4209
81.0578
148.66
211.285
270.298
327.283
382.96
437.483
491.161
544.213
596.825
649.138
700.857
752.197
803.203
853.883
904.225
954.209
1003.8
1052.97
1101.68
1149.87
1197.51
1244.53
1290.89
1336.53
1381.39
1425.42
1468.56
1510.76
1551.95
1592.09
1631.11
1668.97
1705.61
1740.99
1775.06
1807.77
1839.09
1868.96
1897.37
1924.27
1949.63
1973.43
1995.65
2016.26
2035.24
2052.6
2068.31
2082.37
2094.78
2105.54
2114.66
2122.15
2128.01
2132.27
2134.93
2136.04
2135.6
2133.66
2130.24
2125.42
2119.24
2111.71
2102.84
2092.67
2081.25
2068.62
2054.82
2039.91
2023.93
2006.94
1988.98
1970.1
1950.37
1929.82
1908.52
1886.52
1863.87
1840.61
1816.81
1792.52
1767.77
1742.63
1717.15
1691.36
1665.31
1639.06
1612.63
1586.08
1559.45
1532.77
1506.08
1479.42
1452.81
1426.3
1399.92
1373.68
1347.62
1321.77
1296.14
1270.77
1245.66
1220.84
1196.32
1172.12
1148.26
1124.73
1101.57
1078.76
1056.33
1034.27
1012.6
991.309
970.408
949.897
929.774
910.04
890.693
871.729
853.146
834.939
817.103
799.632
782.52
765.761
749.346
733.268
717.519
702.09
686.973
672.159
657.637
643.4
629.437
615.739
602.296
589.099
576.138
563.405
550.889
538.581
526.473
514.556
502.821
491.261
479.866
468.63
457.544
446.602
435.796
425.117
414.579
404.165
393.867
383.68
373.6
363.62
353.739
343.951
334.254
324.645
315.12
305.678
296.322
287.067
277.895
268.798
259.777
250.828
241.951
233.144
224.408
215.74
207.14
198.607
190.139
181.736
173.392
165.101
156.876
148.705
140.585
132.512
124.482
116.488
108.522
100.575
92.6342
84.6849
76.7182
68.7344
60.6865
52.5334
44.2252
35.6964
26.8645
17.6652
8.38163
1.79402
87.8761
74.8098
95.2099
119.604
145.056
171.026
197.381
223.963
250.749
277.721
304.829
332.091
359.459
386.941
414.53
442.214
469.968
497.768
525.583
553.38
581.125
608.778
636.301
663.652
690.789
717.666
744.241
770.467
796.299
821.692
846.6
870.978
894.782
917.969
940.496
962.323
983.409
1003.72
1023.21
1041.85
1059.62
1076.47
1092.39
1107.35
1121.32
1134.29
1146.23
1157.15
1167.01
1175.83
1183.58
1190.28
1195.91
1200.48
1204
1206.48
1207.92
1208.35
1207.78
1206.23
1203.73
1200.31
1196.01
1190.84
1184.81
1177.94
1170.27
1161.83
1152.65
1142.76
1132.2
1121
1109.2
1096.84
1083.96
1070.59
1056.77
1042.53
1027.91
1012.96
997.694
982.162
966.395
950.425
934.286
918.009
901.626
885.166
868.657
852.127
835.602
819.106
802.664
786.298
770.029
753.876
737.857
721.991
706.292
690.775
675.453
660.338
645.441
630.773
616.34
602.15
588.211
574.527
561.102
547.94
535.043
522.413
510.051
497.957
486.13
474.569
463.272
452.237
441.461
430.94
420.671
410.648
400.868
391.325
382.015
372.931
364.069
355.421
346.982
338.747
330.708
322.859
315.194
307.707
300.392
293.241
286.249
279.41
272.717
266.165
259.747
253.458
247.293
241.246
235.311
229.484
223.759
218.132
212.598
207.153
201.792
196.516
191.323
186.206
181.163
176.189
171.282
166.438
161.656
156.934
152.268
147.659
143.104
138.603
134.158
129.771
125.435
121.148
116.909
112.717
108.57
104.468
100.411
96.398
92.4286
88.5023
84.6187
80.7772
76.9766
73.2162
69.4966
65.8154
62.171
58.5657
54.9964
51.4618
47.9594
44.4868
41.0411
37.6198
34.2226
30.8489
27.4863
24.1262
20.7601
17.3819
13.9979
10.6715
7.7665
9.08045
87.8784
74.8086
95.2077
119.601
145.053
171.022
197.377
223.958
250.744
277.716
304.823
332.085
359.452
386.933
414.523
442.205
469.959
497.759
525.573
553.37
581.114
608.767
636.289
663.64
690.776
717.653
744.227
770.453
796.284
821.677
846.584
870.962
894.766
917.952
940.479
962.304
983.39
1003.7
1023.19
1041.84
1059.6
1076.45
1092.37
1107.33
1121.3
1134.27
1146.21
1157.13
1166.99
1175.81
1183.56
1190.25
1195.88
1200.46
1203.98
1206.45
1207.9
1208.33
1207.75
1206.21
1203.7
1200.29
1195.99
1190.81
1184.78
1177.92
1170.25
1161.81
1152.63
1142.74
1132.18
1120.98
1109.18
1096.82
1083.94
1070.57
1056.75
1042.51
1027.89
1012.94
997.676
982.144
966.377
950.407
934.269
917.992
901.609
885.149
868.641
852.111
835.586
819.091
802.65
786.284
770.015
753.862
737.844
721.978
706.279
690.762
675.44
660.326
645.43
630.761
616.329
602.14
588.2
574.516
561.092
547.93
535.033
522.404
510.042
497.948
486.121
474.561
463.264
452.23
441.454
430.933
420.663
410.641
400.861
391.319
382.009
372.925
364.063
355.415
346.977
338.741
330.702
322.854
315.189
307.703
300.387
293.237
286.245
279.406
272.713
266.161
259.743
253.455
247.289
241.242
235.307
229.48
223.756
218.129
212.595
207.15
201.789
196.513
191.32
186.204
181.16
176.186
171.279
166.436
161.654
156.931
152.266
147.657
143.102
138.601
134.156
129.769
125.433
121.147
116.908
112.715
108.569
104.467
100.41
96.3967
92.4274
88.5011
84.6176
80.7761
76.9756
73.2152
69.4957
65.8146
62.1702
58.5649
54.9957
51.4611
47.9588
44.4862
41.0406
37.6193
34.2222
30.8485
27.486
24.126
20.7599
17.3817
13.9979
10.6714
7.76651
9.08045
162.718
100.038
102.388
114.506
129.843
146.751
164.61
183.102
202.056
221.383
241.016
260.914
281.037
301.361
321.863
342.52
363.306
384.196
405.162
426.174
447.203
468.215
489.178
510.057
530.816
551.42
571.832
592.014
611.928
631.537
650.804
669.689
688.158
706.172
723.697
740.698
757.141
772.994
788.226
802.808
816.712
829.913
842.386
854.11
865.065
875.234
884.602
893.155
900.883
907.778
913.835
919.05
923.421
926.952
929.645
931.508
932.548
932.778
932.212
930.865
928.758
925.915
922.359
918.104
913.165
907.564
901.324
894.47
887.028
879.026
870.494
861.459
851.952
842.003
831.642
820.9
809.807
798.393
786.688
774.722
762.524
750.123
737.547
724.822
711.976
699.033
686.02
672.96
659.875
646.788
633.719
620.688
607.715
594.816
582.008
569.306
556.725
544.278
531.978
519.834
507.859
496.059
484.445
473.022
461.796
450.775
439.961
429.358
418.97
408.799
398.845
389.11
379.594
370.297
361.216
352.352
343.702
335.264
327.034
319.01
311.188
303.565
296.136
288.898
281.845
274.973
268.277
261.753
255.394
249.198
243.157
237.267
231.523
225.92
220.452
215.114
209.901
204.809
199.833
194.966
190.206
185.547
180.985
176.515
172.134
167.837
163.619
159.479
155.41
151.411
147.48
143.614
139.811
136.068
132.381
128.747
125.166
121.633
118.148
114.708
111.313
107.96
104.65
101.38
98.1521
94.9657
91.8183
88.7085
85.635
82.5971
79.5942
76.6257
73.6914
70.791
67.9241
65.0906
62.2903
59.523
56.7883
54.0861
51.4163
48.7786
46.1724
43.5981
41.0547
38.5434
36.0633
33.614
31.1955
28.808
26.453
24.1325
21.8471
19.6007
17.4035
15.2806
13.2952
11.6355
11.1113
18.9956
162.721
100.036
102.385
114.502
129.84
146.747
164.606
183.097
202.052
221.379
241.011
260.909
281.032
301.355
321.857
342.513
363.299
384.189
405.154
426.167
447.195
468.207
489.169
510.048
530.807
551.411
571.822
592.004
611.918
631.527
650.793
669.678
688.146
706.161
723.685
740.686
757.129
772.982
788.213
802.795
816.699
829.9
842.373
854.097
865.052
875.221
884.588
893.141
900.869
907.764
913.821
919.036
923.407
926.938
929.631
931.494
932.534
932.764
932.198
930.851
928.745
925.901
922.345
918.09
913.152
907.551
901.311
894.457
887.015
879.014
870.481
861.446
851.94
841.991
831.63
820.888
809.795
798.382
786.677
774.711
762.514
750.113
737.536
724.812
711.966
699.024
686.011
672.951
659.866
646.779
633.711
620.68
607.707
594.808
582
569.299
556.718
544.271
531.971
519.828
507.852
496.053
484.438
473.016
461.791
450.769
439.955
429.353
418.965
408.794
398.84
389.105
379.59
370.292
361.212
352.348
343.698
335.26
327.03
319.006
311.185
303.562
296.133
288.894
281.842
274.97
268.274
261.75
255.392
249.195
243.154
237.265
231.521
225.917
220.449
215.112
209.899
204.807
199.831
194.965
190.204
185.546
180.983
176.514
172.132
167.835
163.618
159.477
155.409
151.41
147.478
143.613
139.81
136.067
132.38
128.746
125.165
121.632
118.147
114.707
111.312
107.959
104.649
101.379
98.1514
94.965
91.8177
88.7078
85.6344
82.5965
79.5936
76.6252
73.6909
70.7905
67.9236
65.0902
62.2899
59.5226
56.7879
54.0858
51.416
48.7782
46.1721
43.5978
41.0545
38.5432
36.063
33.6138
31.1953
28.8078
26.4528
24.1323
21.847
19.6006
17.4034
15.2805
13.2952
11.6355
11.1114
18.9956
233.976
128.72
118.174
122.773
132.446
144.548
158.077
172.552
187.709
203.389
219.488
235.936
252.676
269.667
286.874
304.267
321.815
339.491
357.265
375.11
392.995
410.89
428.765
446.589
464.33
481.955
499.431
516.726
533.804
550.634
567.182
583.413
599.296
614.798
629.886
644.531
658.702
672.37
685.508
698.089
710.088
721.482
732.25
742.371
751.827
760.604
768.685
776.06
782.719
788.654
793.858
798.33
802.067
805.071
807.344
808.892
809.721
809.843
809.268
808.01
806.085
803.513
800.311
796.495
792.081
787.087
781.535
775.446
768.844
761.753
754.198
746.205
737.8
729.011
719.863
710.383
700.599
690.537
680.224
669.685
658.947
648.035
636.974
625.787
614.498
603.13
591.704
580.242
568.764
557.289
545.835
534.42
523.06
511.771
500.566
489.46
478.465
467.592
456.853
446.256
435.81
425.524
415.404
405.457
395.687
386.099
376.697
367.484
358.462
349.634
341
332.56
324.315
316.264
308.406
300.74
293.263
285.974
278.87
271.948
265.204
258.636
252.24
246.012
239.947
234.042
228.293
222.694
217.242
211.932
206.76
201.72
196.808
192.02
187.351
182.796
178.351
174.012
169.775
165.634
161.586
157.627
153.752
149.959
146.242
142.6
139.027
135.521
132.078
128.697
125.376
122.111
118.9
115.741
112.63
109.567
106.548
103.571
100.636
97.7406
94.8832
92.0628
89.2786
86.5298
83.816
81.1368
78.491
75.8775
73.2954
70.7441
68.223
65.7318
63.2702
60.838
58.4352
56.0616
53.7172
51.4021
49.1161
46.8596
44.6324
42.435
40.2673
38.1299
36.0231
33.9477
31.9041
29.894
27.9188
25.9808
24.0835
22.2322
20.4348
18.7043
17.0653
15.5677
14.3236
13.6451
14.8354
28.8703
233.98
128.717
118.17
122.769
132.442
144.544
158.073
172.548
187.704
203.384
219.484
235.931
252.67
269.661
286.869
304.261
321.809
339.485
357.259
375.103
392.988
410.883
428.758
446.582
464.323
481.947
499.424
516.718
533.796
550.626
567.173
583.405
599.287
614.789
629.877
644.522
658.693
672.361
685.499
698.079
710.078
721.473
732.24
742.361
751.817
760.594
768.675
776.05
782.709
788.643
793.848
798.32
802.057
805.061
807.334
808.882
809.711
809.833
809.258
808
806.076
803.503
800.302
796.486
792.072
787.078
781.526
775.437
768.835
761.744
754.189
746.197
737.792
729.003
719.855
710.376
700.592
690.53
680.217
669.678
658.94
648.028
636.967
625.78
614.491
603.123
591.698
580.236
568.758
557.283
545.83
534.415
523.055
511.766
500.561
489.455
478.46
467.588
456.848
446.252
435.806
425.52
415.4
405.453
395.683
386.095
376.694
367.481
358.459
349.631
340.997
332.557
324.312
316.261
308.403
300.737
293.261
285.972
278.868
271.945
265.202
258.634
252.238
246.01
239.945
234.041
228.291
222.693
217.241
211.931
206.758
201.718
196.807
192.019
187.349
182.795
178.35
174.011
169.774
165.633
161.585
157.626
153.751
149.958
146.241
142.599
139.026
135.52
132.078
128.697
125.375
122.11
118.899
115.74
112.63
109.566
106.547
103.571
100.636
97.7402
94.8828
92.0625
89.2782
86.5294
83.8156
81.1365
78.4907
75.8772
73.2951
70.7438
68.2227
65.7315
63.27
60.8378
58.435
56.0614
53.7171
51.4019
49.116
46.8594
44.6323
42.4348
40.2672
38.1298
36.023
33.9476
31.904
29.8939
27.9187
25.9807
24.0835
22.2322
20.4347
18.7042
17.0653
15.5676
14.3235
13.6452
14.8356
28.8703
302.618
158.354
136.783
135.504
141.034
149.82
160.5
172.423
185.229
198.702
212.699
227.12
241.893
256.962
272.281
287.81
303.516
319.365
335.327
351.372
367.471
383.593
399.708
415.788
431.801
447.718
463.506
479.136
494.576
509.795
524.763
539.448
553.82
567.85
581.508
594.765
607.595
619.97
631.865
643.255
654.118
664.431
674.176
683.333
691.885
699.819
707.12
713.777
719.782
725.126
729.805
733.814
737.153
739.821
741.823
743.161
743.843
743.877
743.273
742.044
740.204
737.767
734.752
731.172
727.044
722.385
717.214
711.552
705.419
698.839
691.835
684.429
676.647
668.512
660.049
651.283
642.239
632.941
623.413
613.679
603.764
593.69
583.481
573.158
562.743
552.257
541.72
531.151
520.57
509.993
499.437
488.919
478.454
468.056
457.737
447.512
437.39
427.383
417.5
407.75
398.142
388.681
379.376
370.231
361.251
352.441
343.803
335.341
327.057
318.951
311.026
303.282
295.718
288.334
281.129
274.102
267.25
260.572
254.066
247.728
241.556
235.547
229.696
224.001
218.457
213.062
207.81
202.698
197.721
192.876
188.158
183.563
179.086
174.724
170.472
166.326
162.282
158.335
154.482
150.719
147.041
143.446
139.929
136.487
133.116
129.814
126.576
123.4
120.283
117.224
114.219
111.266
108.364
105.508
102.698
99.9311
97.2054
94.5192
91.871
89.2592
86.6828
84.1406
81.6316
79.1552
76.7108
74.2977
71.9153
69.5625
67.2388
64.9435
62.6764
60.4369
58.2251
56.0407
53.8838
51.7543
49.6524
47.5782
45.5319
43.514
41.5247
39.5646
37.6343
35.7346
33.8665
32.0313
30.2306
28.4666
26.7423
25.0619
23.4314
21.8592
20.3585
18.9505
17.6728
16.5975
15.883
15.9635
18.6248
38.5133
302.621
158.351
136.779
135.5
141.029
149.816
160.496
172.418
185.225
198.697
212.694
227.115
241.888
256.957
272.276
287.805
303.51
319.36
335.322
351.367
367.465
383.587
399.702
415.782
431.795
447.711
463.499
479.129
494.569
509.788
524.755
539.44
553.813
567.842
581.5
594.758
607.587
619.962
631.857
643.247
654.11
664.423
674.168
683.324
691.877
699.811
707.112
713.769
719.774
725.118
729.796
733.806
737.145
739.813
741.815
743.153
743.835
743.869
743.266
742.037
740.196
737.76
734.745
731.165
727.037
722.378
717.207
711.545
705.413
698.833
691.828
684.423
676.641
668.506
660.043
651.278
642.233
632.935
623.407
613.674
603.759
593.685
583.476
573.153
562.738
552.252
541.715
531.147
520.565
509.989
499.433
488.916
478.45
468.052
457.734
447.508
437.386
427.379
417.497
407.747
398.139
388.679
379.373
370.229
361.249
352.438
343.801
335.339
327.054
318.949
311.024
303.28
295.716
288.332
281.127
274.1
267.249
260.571
254.065
247.727
241.555
235.545
229.695
223.999
218.456
213.06
207.809
202.697
197.72
192.875
188.157
183.562
179.085
174.723
170.471
166.325
162.281
158.334
154.481
150.718
147.041
143.445
139.928
136.487
133.116
129.813
126.576
123.4
120.283
117.223
114.218
111.266
108.363
105.508
102.698
99.9308
97.2051
94.5189
91.8707
89.259
86.6826
84.1404
81.6314
79.1551
76.7106
74.2976
71.9151
69.5624
67.2386
64.9434
62.6762
60.4368
58.225
56.0406
53.8837
51.7542
49.6523
47.5781
45.5319
43.5139
41.5246
39.5645
37.6342
35.7345
33.8664
32.0312
30.2305
28.4666
26.7422
25.0619
23.4314
21.8592
20.3584
18.9505
17.6728
16.5975
15.883
15.9636
18.625
38.5134
369.936
188.62
156.86
150.443
152.561
158.75
167.291
177.362
188.511
200.465
213.043
226.121
239.607
253.432
267.538
281.879
296.414
311.106
325.923
340.831
355.8
370.799
385.8
400.771
415.683
430.507
445.214
459.773
474.156
488.332
502.273
515.949
529.332
542.395
555.109
567.448
579.387
590.899
601.961
612.551
622.647
632.229
641.277
649.776
657.708
665.061
671.821
677.978
683.523
688.45
692.753
696.429
699.477
701.897
703.691
704.863
705.42
705.369
704.719
703.482
701.67
699.298
696.38
692.931
688.966
684.502
679.558
674.152
668.305
662.038
655.371
648.327
640.93
633.201
625.164
616.841
608.257
599.434
590.395
581.163
571.76
562.207
552.528
542.741
532.868
522.928
512.941
502.924
492.895
482.871
472.868
462.9
452.982
443.128
433.35
423.66
414.068
404.585
395.22
385.981
376.875
367.911
359.093
350.427
341.918
333.57
325.385
317.367
309.517
301.838
294.329
286.992
279.826
272.831
266.006
259.349
252.86
246.535
240.373
234.372
228.527
222.837
217.299
211.907
206.661
201.554
196.584
191.748
187.04
182.457
177.995
173.65
169.418
165.295
161.276
157.359
153.538
149.811
146.172
142.619
139.148
135.756
132.438
129.192
126.013
122.9
119.849
116.857
113.921
111.041
108.213
105.435
102.704
100.019
97.3767
94.776
92.2148
89.6916
87.2049
84.7532
82.3355
79.9506
77.5977
75.2759
72.9847
70.7235
68.4915
66.2881
64.1127
61.9648
59.844
57.7502
55.6832
53.6429
51.6294
49.6428
47.6833
45.7512
43.8469
41.9709
40.1238
38.3066
36.52
34.7653
33.0442
31.3583
29.7103
28.1032
26.5414
25.0306
23.5789
22.1982
20.9062
19.7316
18.7239
17.9763
17.6924
18.4264
22.4371
48.0017
369.939
188.616
156.856
150.439
152.557
158.746
167.286
177.357
188.507
200.46
213.039
226.117
239.603
253.427
267.533
281.874
296.409
311.101
325.918
340.826
355.794
370.794
385.794
400.765
415.677
430.501
445.208
459.767
474.149
488.325
502.266
515.942
529.326
542.388
555.102
567.442
579.38
590.892
601.954
612.544
622.64
632.222
641.27
649.769
657.701
665.054
671.814
677.971
683.516
688.443
692.746
696.423
699.47
701.89
703.684
704.856
705.413
705.362
704.713
703.476
701.664
699.291
696.374
692.925
688.96
684.497
679.552
674.147
668.3
662.032
655.366
648.322
640.925
633.196
625.159
616.836
608.252
599.429
590.391
581.158
571.755
562.203
552.524
542.737
532.864
522.925
512.937
502.921
492.892
482.868
472.864
462.897
452.979
443.125
433.347
423.657
414.065
404.582
395.217
385.978
376.873
367.909
359.091
350.425
341.916
333.568
325.383
317.365
309.516
301.836
294.328
286.99
279.825
272.83
266.004
259.348
252.858
246.534
240.372
234.371
228.526
222.836
217.298
211.906
206.66
201.553
196.584
191.747
187.039
182.456
177.994
173.649
169.417
165.294
161.276
157.358
153.538
149.81
146.172
142.619
139.148
135.755
132.438
129.191
126.013
122.9
119.848
116.856
113.921
111.041
108.213
105.434
102.704
100.018
97.3765
94.7758
92.2146
89.6914
87.2047
84.753
82.3353
79.9504
77.5975
75.2758
72.9846
70.7233
68.4914
66.288
64.1126
61.9647
59.8439
57.7501
55.6831
53.6429
51.6293
49.6427
47.6832
45.7511
43.8468
41.9708
40.1238
38.3065
36.5199
34.7653
33.0441
31.3583
29.7103
28.1032
26.5414
25.0306
23.5789
22.1981
20.9062
19.7316
18.7238
17.9763
17.6924
18.4265
22.4374
48.0019
436.247
219.438
177.938
166.785
165.905
169.907
176.714
185.333
195.221
206.047
217.595
229.716
242.3
255.262
268.538
282.071
295.815
309.729
323.776
337.92
352.13
366.374
380.62
394.841
409.005
423.083
437.048
450.87
464.52
477.97
491.193
504.16
516.845
529.22
541.261
552.941
564.237
575.124
585.58
595.584
605.115
614.155
622.686
630.691
638.156
645.068
651.415
657.187
662.376
666.976
670.982
674.391
677.201
679.413
681.03
682.054
682.492
682.351
681.64
680.37
678.551
676.197
673.322
669.941
666.067
661.718
656.911
651.664
645.996
639.927
633.477
626.668
619.521
612.057
604.299
596.269
587.988
579.479
570.763
561.863
552.798
543.591
534.261
524.828
515.313
505.733
496.106
486.451
476.784
467.121
457.477
447.867
438.304
428.802
419.372
410.025
400.773
391.624
382.588
373.672
364.885
356.232
347.72
339.354
331.137
323.075
315.17
307.424
299.841
292.42
285.164
278.073
271.147
264.385
257.786
251.35
245.074
238.958
232.998
227.193
221.539
216.034
210.675
205.459
200.381
195.44
190.63
185.949
181.393
176.957
172.639
168.433
164.337
160.347
156.457
152.666
148.968
145.361
141.84
138.402
135.044
131.762
128.553
125.413
122.339
119.329
116.379
113.487
110.651
107.869
105.137
102.455
99.8182
97.2263
94.6768
92.1678
89.6978
87.265
84.8682
82.5059
80.1772
77.8808
75.616
73.3819
71.1779
69.0034
66.8578
64.7405
62.6509
60.5887
58.5535
56.5451
54.5636
52.6087
50.6807
48.7798
46.9062
45.0604
43.243
41.4545
39.6959
37.9683
36.2729
34.6113
32.9855
31.3981
29.8522
28.352
26.9029
25.5122
24.1903
22.9519
21.8192
20.8275
20.038
19.5648
19.6556
20.9843
26.2777
57.4118
436.25
219.433
177.934
166.781
165.9
169.903
176.71
185.329
195.216
206.042
217.591
229.711
242.295
255.258
268.533
282.066
295.81
309.724
323.771
337.915
352.125
366.368
380.615
394.835
408.999
423.078
437.042
450.864
464.514
477.964
491.187
504.154
516.839
529.214
541.255
552.935
564.23
575.118
585.574
595.578
605.109
614.149
622.679
630.684
638.149
645.061
651.408
657.181
662.37
666.97
670.976
674.385
677.195
679.407
681.024
682.048
682.486
682.346
681.635
680.364
678.545
676.191
673.317
669.935
666.062
661.713
656.906
651.659
645.991
639.922
633.473
626.664
619.516
612.053
604.295
596.265
587.984
579.475
570.76
561.859
552.795
543.587
534.257
524.825
515.309
505.729
496.103
486.448
476.781
467.118
457.475
447.865
438.302
428.799
419.369
410.023
400.771
391.622
382.586
373.67
364.883
356.23
347.718
339.352
331.136
323.073
315.168
307.423
299.839
292.419
285.163
278.072
271.145
264.383
257.785
251.349
245.073
238.957
232.997
227.192
221.538
216.033
210.674
205.458
200.381
195.439
190.63
185.949
181.392
176.957
172.638
168.433
164.337
160.346
156.457
152.665
148.968
145.36
141.84
138.402
135.044
131.762
128.552
125.412
122.339
119.329
116.379
113.487
110.651
107.868
105.137
102.454
99.818
97.2261
94.6766
92.1676
89.6976
87.2648
84.868
82.5058
80.177
77.8807
75.6159
73.3818
71.1778
69.0033
66.8577
64.7404
62.6508
60.5886
58.5534
56.5451
54.5635
52.6087
50.6807
48.7797
46.9062
45.0604
43.2429
41.4545
39.6959
37.9683
36.2728
34.6113
32.9855
31.3981
29.8522
28.352
26.9029
25.5122
24.1903
22.9519
21.8191
20.8275
20.038
19.5648
19.6556
20.9844
26.278
57.412
501.812
250.764
199.823
184.186
180.567
182.644
187.975
195.398
204.276
214.224
224.989
236.397
248.322
260.665
273.351
286.316
299.508
312.88
326.393
340.007
353.689
367.406
381.125
394.817
408.452
422
435.433
448.722
461.841
474.761
487.455
499.897
512.06
523.92
535.451
546.63
557.433
567.838
577.824
587.37
596.457
605.067
613.185
620.794
627.881
634.434
640.442
645.895
650.787
655.11
658.862
662.038
664.639
666.664
668.116
668.999
669.318
669.081
668.295
666.97
665.118
662.752
659.883
656.527
652.698
648.411
643.683
638.532
632.976
627.034
620.726
614.071
607.091
599.805
592.236
584.404
576.33
568.036
559.541
550.868
542.035
533.064
523.974
514.784
505.513
496.178
486.798
477.389
467.967
458.548
449.146
439.776
430.45
421.181
411.981
402.862
393.832
384.901
376.078
367.372
358.788
350.334
342.015
333.837
325.803
317.918
310.185
302.607
295.185
287.92
280.815
273.87
267.084
260.458
253.99
247.68
241.526
235.526
229.679
223.982
218.433
213.029
207.766
202.643
197.655
192.8
188.073
183.472
178.992
174.631
170.384
166.247
162.218
158.292
154.465
150.734
147.095
143.544
140.079
136.695
133.389
130.158
126.999
123.908
120.882
117.92
115.016
112.171
109.381
106.644
103.957
101.319
98.7268
96.1788
93.673
91.2077
88.7813
86.3922
84.0391
81.7207
79.4359
77.1838
74.9633
72.7738
70.6145
68.4849
66.3844
64.3124
62.2685
60.2524
58.2637
56.3022
54.368
52.4611
50.5815
48.7297
46.9059
45.1108
43.345
41.6093
39.9049
38.233
36.5952
34.9935
33.4304
31.909
30.4331
29.0078
27.6396
26.3376
25.1139
23.9863
22.9812
22.1406
21.5363
21.3034
21.7344
23.6227
30.1615
66.8037
501.814
250.759
199.818
184.182
180.563
182.639
187.971
195.394
204.272
214.219
224.984
236.393
248.317
260.66
273.346
286.311
299.503
312.875
326.388
340.002
353.684
367.4
381.12
394.812
408.446
421.994
435.427
448.717
461.835
474.755
487.449
499.891
512.054
523.914
535.446
546.624
557.427
567.832
577.818
587.364
596.451
605.062
613.179
620.788
627.876
634.428
640.436
645.889
650.781
655.105
658.856
662.033
664.633
666.658
668.111
668.994
669.313
669.075
668.29
666.965
665.113
662.747
659.879
656.523
652.693
648.407
643.679
638.528
632.972
627.03
620.722
614.067
607.087
599.802
592.232
584.4
576.327
568.032
559.538
550.864
542.032
533.061
523.971
514.781
505.51
496.176
486.795
477.386
467.964
458.545
449.144
439.773
430.448
421.179
411.979
402.859
393.83
384.899
376.076
367.37
358.786
350.332
342.013
333.835
325.802
317.917
310.184
302.605
295.183
287.919
280.814
273.869
267.083
260.457
253.989
247.679
241.525
235.525
229.678
223.981
218.432
213.028
207.765
202.642
197.654
192.799
188.072
183.471
178.992
174.63
170.383
166.247
162.217
158.291
154.464
150.733
147.094
143.544
140.078
136.694
133.389
130.158
126.998
123.907
120.882
117.919
115.016
112.171
109.381
106.644
103.957
101.319
98.7266
96.1785
93.6728
91.2075
88.7811
86.392
84.0389
81.7205
79.4358
77.1836
74.9632
72.7737
70.6144
68.4848
66.3843
64.3123
62.2684
60.2523
58.2636
56.3021
54.3679
52.461
50.5815
48.7296
46.9059
45.1108
43.3449
41.6093
39.9048
38.2329
36.5951
34.9935
33.4304
31.9089
30.433
29.0077
27.6396
26.3376
25.1139
23.9863
22.9812
22.1406
21.5363
21.3034
21.7344
23.6228
30.1619
66.804
567.065
282.697
222.454
202.498
196.31
196.636
200.668
207.071
215.113
224.355
234.507
245.372
256.805
268.694
280.955
293.516
306.317
319.31
332.447
345.69
359
372.344
385.688
399.001
412.252
425.413
438.455
451.349
464.069
476.587
488.878
500.915
512.673
524.129
535.258
546.037
556.444
566.459
576.061
585.23
593.949
602.202
609.972
617.246
624.01
630.253
635.966
641.14
645.768
649.844
653.365
656.328
658.733
660.581
661.874
662.615
662.811
662.468
661.595
660.2
658.295
655.892
653.003
649.642
645.823
641.561
636.873
631.775
626.285
620.421
614.203
607.649
600.779
593.614
586.173
578.477
570.546
562.4
554.06
545.545
536.875
528.069
519.146
510.126
501.024
491.861
482.651
473.411
464.158
454.906
445.669
436.461
427.295
418.183
409.136
400.166
391.281
382.492
373.807
365.233
356.777
348.447
340.247
332.183
324.26
316.48
308.847
301.365
294.034
286.857
279.835
272.968
266.256
259.7
253.298
247.051
240.955
235.011
229.216
223.567
218.063
212.701
207.478
202.391
197.438
192.614
187.917
183.343
178.889
174.551
170.326
166.209
162.198
158.289
154.477
150.761
147.135
143.597
140.143
136.77
133.474
130.253
127.102
124.02
121.003
118.048
115.153
112.316
109.534
106.805
104.127
101.497
98.9135
96.3744
93.8778
91.4221
89.0058
86.6273
84.2853
81.9786
79.706
77.4667
75.2598
73.0843
70.9398
68.8255
66.741
64.6857
62.6593
60.6613
58.6915
56.7498
54.8362
52.9507
51.0936
49.2652
47.4659
45.6965
43.9576
42.2503
40.576
38.9361
37.3324
35.7675
34.2441
32.7659
31.3375
29.9648
28.6555
27.4199
26.2724
25.2335
24.3338
23.6219
23.1803
23.1652
23.9138
26.3404
34.1054
76.2284
567.067
282.691
222.449
202.493
196.305
196.632
200.664
207.066
215.109
224.35
234.503
245.368
256.8
268.69
280.95
293.511
306.313
319.305
332.442
345.685
358.995
372.339
385.683
398.995
412.247
425.408
438.449
451.344
464.064
476.582
488.872
500.909
512.668
524.123
535.252
546.031
556.439
566.454
576.055
585.225
593.944
602.197
609.967
617.24
624.005
630.248
635.961
641.135
645.762
649.839
653.359
656.323
658.728
660.576
661.869
662.61
662.806
662.464
661.59
660.196
658.291
655.888
652.999
649.638
645.819
641.557
636.869
631.771
626.281
620.417
614.199
607.645
600.776
593.61
586.17
578.474
570.543
562.397
554.057
545.542
536.872
528.066
519.144
510.123
501.022
491.858
482.648
473.409
464.156
454.904
445.667
436.459
427.293
418.181
409.134
400.164
391.279
382.49
373.805
365.231
356.776
348.445
340.246
332.182
324.258
316.479
308.846
301.364
294.033
286.856
279.834
272.966
266.255
259.699
253.297
247.05
240.954
235.01
229.215
223.566
218.062
212.7
207.477
202.391
197.437
192.614
187.917
183.343
178.889
174.55
170.325
166.209
162.197
158.288
154.477
150.76
147.135
143.597
140.143
136.769
133.474
130.252
127.102
124.02
121.003
118.048
115.153
112.316
109.534
106.805
104.127
101.497
98.9132
96.3741
93.8776
91.4219
89.0056
86.6271
84.2851
81.9784
79.7059
77.4666
75.2596
73.0842
70.9396
68.8254
66.7409
64.6856
62.6592
60.6612
58.6914
56.7498
54.8361
52.9507
51.0935
49.2651
47.4659
45.6964
43.9575
42.2503
40.5759
38.936
37.3324
35.7675
34.2441
32.7659
31.3375
29.9648
28.6554
27.4199
26.2724
25.2335
24.3338
23.6219
23.1803
23.1652
23.9138
26.3405
34.1058
76.2287
632.352
315.3
245.843
221.662
213.019
211.716
214.576
220.085
227.419
236.08
245.745
256.19
267.252
278.81
290.765
303.04
315.57
328.298
341.176
354.16
367.211
380.291
393.368
406.408
419.381
432.256
445.005
457.6
470.014
482.221
494.195
505.91
517.344
528.472
539.271
549.72
559.797
569.483
578.759
587.606
596.008
603.949
611.414
618.391
624.867
630.833
636.278
641.196
645.58
649.425
652.728
655.488
657.704
659.378
660.511
661.108
661.175
660.718
659.745
658.266
656.291
653.832
650.902
647.512
643.678
639.413
634.735
629.658
624.201
618.38
612.215
605.724
598.925
591.838
584.483
576.879
569.046
561.003
552.77
544.366
535.809
527.119
518.314
509.411
500.429
491.384
482.292
473.17
464.032
454.894
445.768
436.669
427.609
418.6
409.652
400.777
391.985
383.283
374.681
366.187
357.807
349.548
341.415
333.414
325.548
317.822
310.24
302.803
295.514
288.374
281.385
274.548
267.863
261.33
254.948
248.717
242.635
236.7