/*--------------------------------*- C++ -*----------------------------------*\
  =========                 |
  \\      /  F ield         | OpenFOAM: The Open Source CFD Toolbox
   \\    /   O peration     | Website:  https://openfoam.org
    \\  /    A nd           | Version:  8
     \\/     M anipulation  |
\*---------------------------------------------------------------------------*/
FoamFile
{
    version     2.0;
    format      ascii;
    class       volScalarField;
    location    "3600";
    object      k;
}
// * * * * * * * * * * * * * * * * * * * * * * * * * * * * * * * * * * * * * //

dimensions      [0 2 -2 0 0 0 0];

internalField   nonuniform List<scalar> 
46000
(
0.0170292
0.0677005
0.124154
0.176452
0.225731
0.273319
0.319813
0.365344
0.41017
0.454472
0.498407
0.542092
0.585282
0.628154
0.670748
0.713069
0.755108
0.796847
0.838262
0.879323
0.919995
0.96024
1.00002
1.03929
1.078
1.11611
1.15357
1.19034
1.22637
1.2616
1.296
1.32952
1.3621
1.39372
1.42432
1.45386
1.48231
1.50962
1.53577
1.56072
1.58444
1.60691
1.62809
1.64796
1.66651
1.68372
1.69958
1.71407
1.72719
1.73893
1.7493
1.75829
1.76591
1.77216
1.77705
1.78061
1.78284
1.78376
1.7834
1.78177
1.77893
1.7749
1.76974
1.76345
1.75605
1.74756
1.73803
1.72748
1.71596
1.70351
1.69017
1.67598
1.66099
1.64523
1.62875
1.6116
1.59381
1.57544
1.55653
1.53711
1.51724
1.49695
1.47629
1.4553
1.43402
1.41249
1.39074
1.36881
1.34675
1.32458
1.30234
1.28006
1.25778
1.23551
1.2133
1.19116
1.16913
1.14722
1.12546
1.10387
1.08248
1.06128
1.04032
1.01959
0.999116
0.978909
0.958979
0.939336
0.919989
0.900945
0.882212
0.863792
0.845692
0.827914
0.810459
0.793329
0.776524
0.760044
0.743886
0.728049
0.712529
0.697324
0.682428
0.667837
0.653546
0.639549
0.625839
0.612412
0.599258
0.586373
0.573747
0.561374
0.549246
0.537355
0.525693
0.514252
0.503024
0.492002
0.481177
0.470542
0.460088
0.449809
0.439696
0.429743
0.419942
0.410286
0.400769
0.391384
0.382126
0.372986
0.363962
0.355042
0.346241
0.337543
0.328942
0.320434
0.312015
0.303681
0.295428
0.287253
0.279154
0.271129
0.263174
0.255288
0.247475
0.239746
0.232085
0.224488
0.216954
0.20948
0.202067
0.194712
0.187416
0.180177
0.172995
0.165869
0.158797
0.151779
0.144811
0.137887
0.131018
0.124194
0.117412
0.110671
0.103964
0.0972883
0.0906356
0.0839985
0.0773667
0.0707277
0.0640743
0.0574064
0.0506849
0.0438756
0.0369367
0.0298135
0.0224373
0.0147541
0.00700056
0.00142275
0.0170301
0.0677028
0.124157
0.176454
0.225734
0.273321
0.319815
0.365346
0.410171
0.454473
0.498408
0.542094
0.585283
0.628155
0.670749
0.713069
0.755109
0.796848
0.838263
0.879323
0.919995
0.96024
1.00002
1.03928
1.078
1.11611
1.15357
1.19034
1.22637
1.2616
1.296
1.32951
1.3621
1.39372
1.42432
1.45386
1.48231
1.50962
1.53577
1.56072
1.58444
1.6069
1.62808
1.64796
1.66651
1.68372
1.69958
1.71407
1.72719
1.73893
1.7493
1.75829
1.7659
1.77215
1.77705
1.7806
1.78283
1.78375
1.78339
1.78177
1.77892
1.77489
1.76974
1.76345
1.75605
1.74756
1.73802
1.72748
1.71596
1.70351
1.69017
1.67598
1.66098
1.64522
1.62875
1.61159
1.59381
1.57544
1.55652
1.53711
1.51724
1.49695
1.47629
1.4553
1.43402
1.41248
1.39073
1.36881
1.34675
1.32458
1.30234
1.28006
1.25778
1.23551
1.2133
1.19116
1.16913
1.14722
1.12546
1.10387
1.08247
1.06128
1.04031
1.01959
0.999114
0.978907
0.958976
0.939334
0.919987
0.900943
0.882209
0.86379
0.84569
0.827912
0.810457
0.793327
0.776522
0.760042
0.743884
0.728047
0.712527
0.697322
0.682426
0.667835
0.653544
0.639547
0.625838
0.61241
0.599257
0.586371
0.573746
0.561372
0.549244
0.537353
0.525691
0.514251
0.503023
0.492001
0.481176
0.470541
0.460087
0.449808
0.439695
0.429742
0.419941
0.410285
0.400768
0.391383
0.382125
0.372986
0.363961
0.355041
0.34624
0.337542
0.328942
0.320434
0.312014
0.30368
0.295427
0.287252
0.279154
0.271128
0.263173
0.255288
0.247474
0.239745
0.232084
0.224488
0.216953
0.20948
0.202066
0.194712
0.187415
0.180177
0.172995
0.165868
0.158797
0.151779
0.14481
0.137886
0.131017
0.124194
0.117412
0.110671
0.103964
0.0972881
0.0906355
0.0839984
0.0773666
0.0707276
0.0640743
0.0574064
0.050685
0.0438757
0.0369368
0.0298136
0.0224374
0.0147543
0.00700063
0.00142275
0.0673456
0.20272
0.299254
0.380434
0.453548
0.521499
0.585676
0.647106
0.706463
0.764165
0.820438
0.875547
0.929623
0.982795
1.03515
1.08674
1.13761
1.18777
1.23724
1.286
1.33404
1.38136
1.42791
1.47368
1.51863
1.56273
1.60594
1.64822
1.68954
1.72984
1.7691
1.80726
1.8443
1.88016
1.91482
1.94823
1.98037
2.01118
2.04065
2.06875
2.09543
2.12069
2.1445
2.16683
2.18767
2.20701
2.22483
2.24112
2.25588
2.2691
2.28079
2.29095
2.29958
2.3067
2.31231
2.31642
2.31906
2.32025
2.32001
2.31837
2.31535
2.311
2.30535
2.29842
2.29025
2.28086
2.2703
2.25859
2.24579
2.23194
2.21708
2.20125
2.1845
2.16687
2.14842
2.12919
2.10922
2.08856
2.06727
2.04537
2.02294
1.99999
1.9766
1.95278
1.92861
1.9041
1.87931
1.85427
1.82904
1.80363
1.7781
1.75248
1.7268
1.70109
1.6754
1.64973
1.62414
1.59864
1.57326
1.54803
1.52296
1.49807
1.4734
1.44896
1.42475
1.40081
1.37713
1.35375
1.33066
1.30787
1.2854
1.26325
1.24143
1.21994
1.19879
1.17798
1.15751
1.13738
1.1176
1.09815
1.07904
1.06027
1.04182
1.02371
1.00592
0.98844
0.971275
0.954414
0.937849
0.921575
0.905581
0.889862
0.874407
0.859209
0.844257
0.829545
0.815061
0.800797
0.786744
0.772892
0.759232
0.745755
0.732452
0.719314
0.706331
0.693495
0.680797
0.66823
0.655784
0.643451
0.631225
0.619107
0.607088
0.595158
0.583311
0.571539
0.559837
0.548198
0.536618
0.52509
0.513612
0.502177
0.490781
0.479421
0.468093
0.456796
0.445529
0.434285
0.42306
0.411851
0.400654
0.389466
0.378282
0.3671
0.355914
0.344722
0.333517
0.322294
0.311046
0.299766
0.288445
0.277072
0.265633
0.254123
0.242521
0.23081
0.218964
0.206956
0.194748
0.182296
0.169538
0.156406
0.142816
0.128637
0.113684
0.0976855
0.0802117
0.0604868
0.0366353
0.00691103
0.0673475
0.202722
0.299256
0.380435
0.453548
0.521499
0.585676
0.647106
0.706463
0.764164
0.820438
0.875546
0.929622
0.982794
1.03515
1.08674
1.13761
1.18777
1.23723
1.28599
1.33404
1.38135
1.42791
1.47368
1.51863
1.56273
1.60594
1.64822
1.68953
1.72984
1.76909
1.80726
1.84429
1.88016
1.91482
1.94823
1.98036
2.01118
2.04065
2.06874
2.09543
2.12069
2.14449
2.16682
2.18766
2.207
2.22482
2.24111
2.25587
2.2691
2.28079
2.29095
2.29958
2.30669
2.3123
2.31642
2.31906
2.32025
2.32001
2.31836
2.31534
2.31099
2.30534
2.29842
2.29024
2.28085
2.27029
2.25859
2.24579
2.23193
2.21707
2.20124
2.18449
2.16687
2.14841
2.12918
2.10921
2.08856
2.06726
2.04537
2.02293
1.99999
1.97659
1.95278
1.9286
1.90409
1.8793
1.85427
1.82903
1.80363
1.7781
1.75247
1.72679
1.70109
1.67539
1.64973
1.62414
1.59864
1.57326
1.54802
1.52295
1.49807
1.4734
1.44895
1.42475
1.4008
1.37713
1.35374
1.33065
1.30787
1.2854
1.26325
1.24143
1.21994
1.19879
1.17798
1.15751
1.13738
1.11759
1.09814
1.07904
1.06026
1.04182
1.0237
1.00591
0.988436
0.971271
0.95441
0.937846
0.921571
0.905578
0.889858
0.874404
0.859205
0.844254
0.829541
0.815058
0.800794
0.786741
0.772889
0.759229
0.745752
0.732449
0.719311
0.706328
0.693492
0.680795
0.668227
0.655781
0.643449
0.631223
0.619105
0.607085
0.595156
0.583309
0.571537
0.559835
0.548196
0.536615
0.525088
0.51361
0.502175
0.490779
0.479419
0.468091
0.456795
0.445527
0.434283
0.423059
0.41185
0.400653
0.389464
0.378281
0.367098
0.355913
0.34472
0.333516
0.322293
0.311045
0.299764
0.288444
0.277071
0.265632
0.254122
0.24252
0.230809
0.218963
0.206955
0.194748
0.182295
0.169538
0.156405
0.142816
0.128637
0.113683
0.0976852
0.0802115
0.0604867
0.0366353
0.00691103
0.125301
0.301755
0.417626
0.51269
0.598005
0.677181
0.752062
0.823701
0.89278
0.959794
1.02508
1.08888
1.15138
1.21271
1.27298
1.33225
1.39057
1.44797
1.50447
1.56006
1.61474
1.6685
1.72131
1.77315
1.82399
1.8738
1.92254
1.97017
2.01665
2.06195
2.10602
2.14882
2.19031
2.23046
2.26921
2.30655
2.34242
2.3768
2.40966
2.44096
2.47067
2.49877
2.52525
2.55007
2.57322
2.59469
2.61447
2.63254
2.6489
2.66356
2.6765
2.68774
2.69729
2.70514
2.71133
2.71585
2.71874
2.72001
2.7197
2.71782
2.71441
2.70951
2.70315
2.69536
2.68619
2.67565
2.66381
2.65069
2.63634
2.62082
2.60416
2.58642
2.56764
2.54787
2.52717
2.50559
2.48317
2.45997
2.43604
2.41142
2.38618
2.36036
2.33401
2.30718
2.27991
2.25226
2.22427
2.19599
2.16746
2.13871
2.10981
2.08077
2.05166
2.02249
1.9933
1.96414
1.93503
1.90601
1.87709
1.84832
1.81972
1.79131
1.76311
1.73515
1.70745
1.68002
1.65288
1.62604
1.59952
1.57334
1.54749
1.522
1.49686
1.47209
1.44768
1.42365
1.39999
1.37671
1.35381
1.33129
1.30913
1.28736
1.26595
1.2449
1.22421
1.20388
1.1839
1.16425
1.14494
1.12595
1.10728
1.08891
1.07084
1.05306
1.03555
1.01832
1.00133
0.984601
0.968103
0.951831
0.935773
0.91992
0.90426
0.888783
0.87348
0.858339
0.843351
0.828505
0.813793
0.799204
0.784738
0.770385
0.756135
0.741981
0.727913
0.713923
0.700004
0.686149
0.672352
0.658606
0.644905
0.631244
0.617618
0.604022
0.590451
0.576901
0.563371
0.549853
0.536344
0.522838
0.50933
0.495817
0.482292
0.468752
0.455191
0.441602
0.42798
0.414316
0.400604
0.386833
0.372992
0.359068
0.345047
0.330913
0.316641
0.302215
0.287604
0.272774
0.25768
0.242269
0.226474
0.210206
0.193364
0.175798
0.157295
0.137536
0.115984
0.0915065
0.0606389
0.0145328
0.125304
0.301757
0.417627
0.512689
0.598004
0.67718
0.752061
0.8237
0.892778
0.959792
1.02507
1.08888
1.15138
1.21271
1.27298
1.33225
1.39057
1.44797
1.50446
1.56005
1.61474
1.66849
1.7213
1.77315
1.82399
1.8738
1.92253
1.97016
2.01665
2.06194
2.10601
2.14881
2.19031
2.23045
2.26921
2.30654
2.34242
2.3768
2.40965
2.44095
2.47066
2.49877
2.52524
2.55006
2.57321
2.59468
2.61446
2.63253
2.6489
2.66355
2.6765
2.68774
2.69728
2.70514
2.71132
2.71585
2.71873
2.72001
2.71969
2.71781
2.7144
2.7095
2.70314
2.69536
2.68618
2.67565
2.6638
2.65068
2.63634
2.62081
2.60415
2.58641
2.56763
2.54787
2.52717
2.50558
2.48316
2.45996
2.43603
2.41142
2.38618
2.36035
2.334
2.30717
2.27991
2.25226
2.22427
2.19598
2.16745
2.13871
2.1098
2.08077
2.05165
2.02248
1.9933
1.96413
1.93503
1.906
1.87709
1.84832
1.81971
1.7913
1.76311
1.73515
1.70744
1.68001
1.65287
1.62604
1.59952
1.57333
1.54749
1.52199
1.49686
1.47208
1.44768
1.42364
1.39999
1.37671
1.35381
1.33128
1.30913
1.28735
1.26594
1.2449
1.22421
1.20388
1.18389
1.16425
1.14493
1.12594
1.10727
1.0889
1.07084
1.05305
1.03555
1.01831
1.00133
0.984597
0.9681
0.951827
0.93577
0.919916
0.904256
0.88878
0.873476
0.858336
0.843348
0.828502
0.81379
0.799201
0.784735
0.770382
0.756133
0.741978
0.72791
0.71392
0.700001
0.686147
0.672349
0.658603
0.644903
0.631242
0.617616
0.60402
0.590449
0.576899
0.563369
0.549851
0.536342
0.522836
0.509328
0.495815
0.48229
0.46875
0.455189
0.4416
0.427978
0.414315
0.400602
0.386831
0.37299
0.359067
0.345046
0.330911
0.31664
0.302214
0.287603
0.272773
0.257679
0.242268
0.226473
0.210205
0.193364
0.175797
0.157295
0.137536
0.115984
0.0915065
0.0606389
0.0145328
0.180629
0.38728
0.517372
0.622058
0.71552
0.802255
0.884428
0.963207
1.03931
1.11322
1.18528
1.25572
1.32474
1.39246
1.45898
1.52437
1.58867
1.65192
1.71413
1.7753
1.83542
1.89449
1.95247
2.00935
2.06509
2.11966
2.17301
2.22512
2.27594
2.32543
2.37355
2.42025
2.46549
2.50924
2.55146
2.5921
2.63113
2.66851
2.70421
2.7382
2.77045
2.80094
2.82965
2.85654
2.88162
2.90485
2.92624
2.94576
2.96343
2.97924
2.99318
3.00527
3.01551
3.02392
3.03051
3.03529
3.03829
3.03954
3.03906
3.03688
3.03303
3.02756
3.02049
3.01187
3.00173
2.99012
2.97707
2.96264
2.94687
2.92982
2.91152
2.89204
2.87142
2.84973
2.82701
2.80332
2.77871
2.75325
2.72698
2.69995
2.67224
2.64388
2.61493
2.58545
2.55548
2.52508
2.4943
2.46319
2.43179
2.40016
2.36833
2.33635
2.30427
2.27212
2.23995
2.20778
2.17567
2.14363
2.11171
2.07993
2.04833
2.01692
1.98574
1.95481
1.92416
1.89379
1.86374
1.83401
1.80462
1.77559
1.74693
1.71865
1.69075
1.66325
1.63614
1.60945
1.58316
1.55728
1.53181
1.50675
1.4821
1.45786
1.43403
1.41059
1.38754
1.36488
1.3426
1.3207
1.29916
1.27797
1.25714
1.23664
1.21646
1.1966
1.17705
1.15779
1.13882
1.12011
1.10167
1.08347
1.06551
1.04778
1.03025
1.01293
0.995801
0.978848
0.962064
0.945436
0.928953
0.91261
0.896401
0.880313
0.864338
0.848465
0.832685
0.81699
0.801371
0.785821
0.770332
0.754897
0.73951
0.724164
0.708853
0.693572
0.678316
0.663079
0.647858
0.632648
0.617441
0.602234
0.58702
0.571795
0.556552
0.541286
0.52599
0.510659
0.495284
0.479858
0.464371
0.448814
0.433173
0.417437
0.401588
0.385609
0.369478
0.35317
0.336652
0.319894
0.302848
0.285459
0.267659
0.249358
0.230441
0.210757
0.19008
0.168051
0.144021
0.116498
0.0807116
0.0221586
0.180631
0.387281
0.517372
0.622057
0.715518
0.802253
0.884426
0.963205
1.03931
1.11322
1.18527
1.25572
1.32474
1.39246
1.45898
1.52436
1.58867
1.65192
1.71412
1.77529
1.83542
1.89448
1.95247
2.00935
2.06509
2.11965
2.17301
2.22512
2.27594
2.32542
2.37354
2.42024
2.46549
2.50924
2.55145
2.59209
2.63112
2.6685
2.7042
2.73819
2.77045
2.80094
2.82964
2.85654
2.88161
2.90484
2.92623
2.94576
2.96342
2.97923
2.99317
3.00526
3.01551
3.02391
3.0305
3.03528
3.03829
3.03953
3.03905
3.03687
3.03302
3.02755
3.02048
3.01186
3.00173
2.99011
2.97707
2.96264
2.94687
2.92981
2.91151
2.89203
2.87142
2.84972
2.827
2.80331
2.77871
2.75324
2.72697
2.69995
2.67223
2.64387
2.61492
2.58544
2.55547
2.52507
2.49429
2.46318
2.43179
2.40015
2.36832
2.33635
2.30426
2.27212
2.23994
2.20778
2.17566
2.14362
2.1117
2.07992
2.04832
2.01692
1.98574
1.95481
1.92415
1.89379
1.86373
1.834
1.80462
1.77559
1.74693
1.71864
1.69074
1.66324
1.63614
1.60944
1.58315
1.55727
1.53181
1.50675
1.4821
1.45786
1.43402
1.41058
1.38754
1.36488
1.3426
1.3207
1.29916
1.27797
1.25713
1.23663
1.21646
1.1966
1.17705
1.15779
1.13881
1.12011
1.10167
1.08347
1.06551
1.04777
1.03025
1.01293
0.995798
0.978846
0.962061
0.945433
0.928951
0.912608
0.896398
0.880311
0.864335
0.848462
0.832683
0.816988
0.801369
0.785819
0.77033
0.754895
0.739508
0.724162
0.708851
0.69357
0.678314
0.663077
0.647856
0.632646
0.61744
0.602232
0.587019
0.571793
0.55655
0.541284
0.525989
0.510657
0.495283
0.479857
0.46437
0.448813
0.433172
0.417436
0.401587
0.385608
0.369477
0.353169
0.336651
0.319893
0.302847
0.285459
0.267659
0.249358
0.230441
0.210757
0.19008
0.168051
0.144021
0.116499
0.0807117
0.0221587
0.233995
0.465718
0.6085
0.721547
0.821626
0.914386
1.00233
1.08677
1.16846
1.24792
1.32546
1.40133
1.47571
1.54871
1.62043
1.69092
1.76024
1.8284
1.89541
1.96129
2.02601
2.08956
2.15192
2.21305
2.27293
2.33152
2.38878
2.44466
2.49914
2.55216
2.60368
2.65367
2.70206
2.74883
2.79394
2.83734
2.87899
2.91887
2.95693
2.99315
3.0275
3.05995
3.09048
3.11907
3.14569
3.17035
3.19303
3.21371
3.23241
3.24911
3.26381
3.27654
3.28729
3.29607
3.30292
3.30783
3.31085
3.31198
3.31127
3.30875
3.30444
3.2984
3.29065
3.28124
3.2702
3.25759
3.24345
3.22782
3.21076
3.19233
3.17257
3.15154
3.12929
3.10589
3.08139
3.05584
3.02931
3.00186
2.97354
2.94441
2.91453
2.88395
2.85274
2.82095
2.78864
2.75585
2.72265
2.68909
2.65522
2.62108
2.58672
2.5522
2.51756
2.48284
2.44808
2.41333
2.37862
2.34399
2.30948
2.27511
2.24092
2.20695
2.1732
2.13972
2.10653
2.07364
2.04108
2.00887
1.97702
1.94555
1.91447
1.88379
1.85353
1.82368
1.79426
1.76528
1.73673
1.70863
1.68096
1.65373
1.62694
1.60059
1.57467
1.54918
1.52411
1.49946
1.47522
1.45138
1.42793
1.40487
1.38217
1.35985
1.33787
1.31624
1.29493
1.27394
1.25326
1.23287
1.21276
1.19292
1.17334
1.15399
1.13488
1.11599
1.0973
1.0788
1.06049
1.04235
1.02436
1.00653
0.988841
0.971284
0.953848
0.936522
0.919297
0.902164
0.885113
0.868136
0.851226
0.834374
0.817574
0.800818
0.7841
0.767414
0.750754
0.734115
0.717492
0.700879
0.684269
0.667658
0.651038
0.634404
0.61775
0.60107
0.584356
0.567603
0.550801
0.533943
0.517018
0.500017
0.482926
0.465732
0.44842
0.430969
0.41336
0.395565
0.377554
0.359292
0.340732
0.321821
0.302491
0.282649
0.262177
0.240914
0.218612
0.19486
0.168871
0.138786
0.0987074
0.0296227
0.233998
0.465719
0.608499
0.721545
0.821624
0.914383
1.00233
1.08676
1.16846
1.24791
1.32546
1.40133
1.47571
1.54871
1.62042
1.69092
1.76023
1.82839
1.89541
1.96128
2.026
2.08955
2.15191
2.21304
2.27292
2.33151
2.38877
2.44466
2.49914
2.55216
2.60368
2.65366
2.70206
2.74883
2.79393
2.83733
2.87899
2.91886
2.95693
2.99315
3.02749
3.05994
3.09047
3.11906
3.14569
3.17035
3.19302
3.21371
3.2324
3.2491
3.26381
3.27653
3.28728
3.29607
3.30291
3.30783
3.31084
3.31198
3.31127
3.30874
3.30444
3.29839
3.29064
3.28123
3.27019
3.25758
3.24344
3.22781
3.21076
3.19232
3.17256
3.15153
3.12929
3.10588
3.08138
3.05584
3.02931
3.00185
2.97353
2.9444
2.91452
2.88395
2.85274
2.82095
2.78863
2.75585
2.72265
2.68909
2.65521
2.62107
2.58672
2.5522
2.51756
2.48284
2.44808
2.41333
2.37862
2.34399
2.30947
2.27511
2.24092
2.20694
2.1732
2.13972
2.10652
2.07364
2.04108
2.00887
1.97702
1.94554
1.91446
1.88379
1.85352
1.82368
1.79426
1.76528
1.73673
1.70862
1.68095
1.65373
1.62694
1.60059
1.57467
1.54918
1.52411
1.49946
1.47521
1.45137
1.42793
1.40486
1.38217
1.35984
1.33787
1.31623
1.29493
1.27394
1.25326
1.23287
1.21276
1.19292
1.17333
1.15399
1.13488
1.11599
1.0973
1.0788
1.06049
1.04234
1.02436
1.00653
0.988839
0.971282
0.953846
0.93652
0.919295
0.902162
0.885111
0.868134
0.851224
0.834372
0.817572
0.800816
0.784098
0.767412
0.750753
0.734114
0.717491
0.700877
0.684268
0.667656
0.651037
0.634403
0.617749
0.601068
0.584355
0.567601
0.5508
0.533941
0.517017
0.500016
0.482925
0.465732
0.448419
0.430969
0.413359
0.395564
0.377554
0.359291
0.340731
0.321821
0.30249
0.282649
0.262177
0.240914
0.218612
0.19486
0.168871
0.138786
0.0987077
0.0296227
0.286382
0.539621
0.694224
0.815232
0.921519
1.01972
1.11275
1.20209
1.28862
1.37284
1.45511
1.53567
1.61468
1.69226
1.76849
1.84343
1.91711
1.98955
2.06075
2.13072
2.19944
2.26689
2.33304
2.39787
2.46133
2.52339
2.58402
2.64316
2.70077
2.75682
2.81125
2.86402
2.91509
2.96442
3.01197
3.05768
3.10154
3.1435
3.18352
3.22159
3.25766
3.29171
3.32372
3.35368
3.38156
3.40735
3.43104
3.45263
3.47211
3.48948
3.50475
3.51792
3.52901
3.53803
3.545
3.54994
3.55287
3.55382
3.55283
3.54992
3.54514
3.53852
3.5301
3.51993
3.50805
3.4945
3.47934
3.46262
3.44439
3.42471
3.40363
3.3812
3.3575
3.33257
3.30648
3.27929
3.25105
3.22184
3.19171
3.16072
3.12893
3.09641
3.06321
3.0294
2.99502
2.96014
2.92482
2.88911
2.85306
2.81673
2.78016
2.74342
2.70653
2.66956
2.63254
2.59553
2.55855
2.52164
2.48486
2.44822
2.41177
2.37553
2.33954
2.30382
2.2684
2.23329
2.19854
2.16414
2.13012
2.0965
2.06329
2.0305
1.99815
1.96624
1.93478
1.90378
1.87323
1.84315
1.81354
1.78439
1.7557
1.72748
1.69971
1.6724
1.64553
1.61911
1.59312
1.56756
1.54241
1.51767
1.49332
1.46937
1.44578
1.42256
1.39969
1.37715
1.35494
1.33304
1.31144
1.29013
1.26909
1.2483
1.22777
1.20746
1.18738
1.1675
1.14781
1.12831
1.10898
1.08981
1.0708
1.05193
1.03318
1.01456
0.996041
0.977623
0.959294
0.941045
0.922869
0.904756
0.886699
0.868691
0.850725
0.832794
0.814893
0.797014
0.779153
0.761303
0.743458
0.725612
0.707758
0.689889
0.672
0.654083
0.636133
0.61814
0.600097
0.581995
0.563824
0.545574
0.527231
0.508783
0.490213
0.471502
0.45263
0.43357
0.414293
0.394761
0.374932
0.354748
0.33414
0.313015
0.291248
0.268659
0.244974
0.219714
0.191946
0.159464
0.115401
0.0369772
0.286385
0.539621
0.694222
0.81523
0.921516
1.01972
1.11274
1.20209
1.28861
1.37284
1.45511
1.53567
1.61468
1.69226
1.76849
1.84342
1.9171
1.98954
2.06075
2.13072
2.19944
2.26688
2.33304
2.39786
2.46132
2.52339
2.58401
2.64315
2.70077
2.75681
2.81124
2.86402
2.91509
2.96442
3.01196
3.05768
3.10153
3.14349
3.18352
3.22158
3.25765
3.2917
3.32372
3.35367
3.38155
3.40734
3.43103
3.45262
3.4721
3.48947
3.50474
3.51792
3.52901
3.53803
3.54499
3.54993
3.55286
3.55382
3.55282
3.54991
3.54513
3.53851
3.53009
3.51992
3.50804
3.4945
3.47934
3.46262
3.44439
3.4247
3.40362
3.3812
3.35749
3.33257
3.30647
3.27928
3.25105
3.22183
3.1917
3.16071
3.12893
3.0964
3.06321
3.02939
2.99501
2.96014
2.92482
2.8891
2.85306
2.81672
2.78016
2.74341
2.70653
2.66956
2.63254
2.59552
2.55854
2.52164
2.48485
2.44822
2.41177
2.37553
2.33954
2.30382
2.26839
2.23329
2.19853
2.16413
2.13012
2.0965
2.06329
2.0305
1.99815
1.96624
1.93478
1.90377
1.87323
1.84315
1.81354
1.78439
1.7557
1.72748
1.69971
1.6724
1.64553
1.61911
1.59312
1.56755
1.54241
1.51767
1.49332
1.46936
1.44578
1.42256
1.39968
1.37715
1.35494
1.33304
1.31144
1.29013
1.26909
1.2483
1.22777
1.20746
1.18737
1.1675
1.14781
1.12831
1.10898
1.08981
1.0708
1.05192
1.03318
1.01456
0.996039
0.977621
0.959292
0.941044
0.922867
0.904754
0.886697
0.86869
0.850724
0.832793
0.814891
0.797012
0.779152
0.761302
0.743457
0.725611
0.707757
0.689888
0.671999
0.654083
0.636132
0.618139
0.600096
0.581994
0.563823
0.545573
0.527231
0.508782
0.490212
0.471502
0.452629
0.43357
0.414292
0.394761
0.374931
0.354748
0.33414
0.313015
0.291248
0.268659
0.244974
0.219714
0.191946
0.159465
0.115401
0.0369773
0.338027
0.610304
0.776328
0.905145
1.01754
1.121
1.21882
1.31272
1.40367
1.49223
1.57878
1.66356
1.74675
1.82845
1.90873
1.98766
2.06525
2.14152
2.21647
2.2901
2.36238
2.4333
2.50282
2.57091
2.63754
2.70266
2.76623
2.82822
2.88857
2.94724
3.00418
3.05936
3.11273
3.16424
3.21385
3.26153
3.30724
3.35093
3.39259
3.43217
3.46966
3.50502
3.53823
3.56928
3.59814
3.62482
3.64929
3.67156
3.69161
3.70947
3.72512
3.73858
3.74987
3.75899
3.76596
3.77082
3.77359
3.77428
3.77295
3.76962
3.76434
3.75713
3.74806
3.73715
3.72446
3.71003
3.69392
3.67619
3.65687
3.63604
3.61376
3.59007
3.56504
3.53874
3.51122
3.48255
3.45279
3.422
3.39026
3.35761
3.32413
3.28988
3.25491
3.2193
3.1831
3.14637
3.10917
3.07155
3.03358
2.99531
2.95678
2.91806
2.8792
2.84023
2.80121
2.76218
2.72319
2.68427
2.64547
2.60681
2.56835
2.5301
2.49211
2.45439
2.41698
2.3799
2.34317
2.30682
2.27087
2.23532
2.2002
2.16552
2.13129
2.09752
2.06422
2.03139
1.99905
1.96719
1.93581
1.90492
1.87451
1.84459
1.81514
1.78617
1.75767
1.72963
1.70204
1.6749
1.6482
1.62192
1.59606
1.5706
1.54554
1.52086
1.49654
1.47258
1.44896
1.42567
1.40269
1.38001
1.35762
1.33551
1.31365
1.29204
1.27065
1.24949
1.22853
1.20777
1.18719
1.16679
1.14654
1.12645
1.10649
1.08666
1.06694
1.04733
1.02782
1.0084
0.989047
0.969768
0.950551
0.931387
0.91227
0.893192
0.874147
0.855129
0.836131
0.817147
0.798169
0.779193
0.76021
0.741214
0.722198
0.703155
0.684078
0.664959
0.64579
0.626561
0.607262
0.587884
0.568412
0.548834
0.529133
0.509292
0.489288
0.469097
0.448689
0.428027
0.407068
0.385753
0.364011
0.341743
0.318814
0.295021
0.270055
0.243367
0.213879
0.179068
0.131218
0.0442783
0.338029
0.610304
0.776326
0.905143
1.01754
1.12099
1.21882
1.31272
1.40366
1.49222
1.57877
1.66356
1.74674
1.82844
1.90873
1.98765
2.06524
2.14151
2.21647
2.2901
2.36238
2.4333
2.50282
2.57091
2.63753
2.70266
2.76623
2.82821
2.88856
2.94723
3.00418
3.05936
3.11272
3.16423
3.21385
3.26153
3.30723
3.35093
3.39259
3.43217
3.46965
3.50501
3.53822
3.56927
3.59814
3.62481
3.64928
3.67155
3.69161
3.70946
3.72512
3.73858
3.74986
3.75898
3.76596
3.77082
3.77358
3.77428
3.77295
3.76962
3.76433
3.75713
3.74805
3.73714
3.72445
3.71003
3.69392
3.67618
3.65687
3.63604
3.61375
3.59006
3.56503
3.53873
3.51121
3.48254
3.45278
3.422
3.39025
3.35761
3.32412
3.28987
3.25491
3.2193
3.18309
3.14636
3.10916
3.07155
3.03358
2.9953
2.95678
2.91806
2.87919
2.84022
2.8012
2.76218
2.72318
2.68427
2.64546
2.60681
2.56834
2.5301
2.4921
2.45439
2.41698
2.3799
2.34317
2.30682
2.27086
2.23532
2.2002
2.16552
2.13129
2.09752
2.06422
2.03139
1.99904
1.96718
1.93581
1.90492
1.87451
1.84458
1.81514
1.78617
1.75767
1.72963
1.70204
1.6749
1.6482
1.62192
1.59606
1.5706
1.54554
1.52086
1.49654
1.47258
1.44896
1.42567
1.40269
1.38001
1.35762
1.3355
1.31365
1.29203
1.27065
1.24949
1.22853
1.20777
1.18719
1.16678
1.14654
1.12645
1.10649
1.08666
1.06694
1.04733
1.02782
1.00839
0.989046
0.969767
0.95055
0.931386
0.912269
0.893191
0.874146
0.855128
0.83613
0.817146
0.798168
0.779192
0.760209
0.741213
0.722197
0.703154
0.684078
0.664959
0.645789
0.62656
0.607262
0.587883
0.568411
0.548833
0.529133
0.509291
0.489287
0.469097
0.448689
0.428027
0.407067
0.385753
0.364011
0.341743
0.318814
0.295021
0.270056
0.243368
0.213879
0.179069
0.131219
0.0442784
0.389126
0.678788
0.855875
0.992475
1.11102
1.2197
1.32224
1.42056
1.51572
1.60839
1.69895
1.78768
1.87474
1.96026
2.04429
2.12689
2.20807
2.28786
2.36624
2.4432
2.51872
2.59278
2.66535
2.73638
2.80584
2.8737
2.9399
3.0044
3.06716
3.12813
3.18727
3.24453
3.29988
3.35326
3.40464
3.45399
3.50125
3.5464
3.5894
3.63024
3.66887
3.70528
3.73944
3.77134
3.80097
3.82831
3.85336
3.87611
3.89657
3.91473
3.93061
3.94421
3.95556
3.96466
3.97154
3.97622
3.97874
3.97912
3.97739
3.9736
3.96778
3.95999
3.95025
3.93862
3.92514
3.90987
3.89286
3.87417
3.85384
3.83195
3.80855
3.7837
3.75747
3.72991
3.7011
3.67109
3.63995
3.60775
3.57455
3.54042
3.50543
3.46962
3.43308
3.39586
3.35803
3.31965
3.28077
3.24146
3.20177
3.16177
3.1215
3.08101
3.04037
2.99962
2.95881
2.91799
2.87719
2.83647
2.79586
2.7554
2.71512
2.67507
2.63527
2.59576
2.55655
2.51769
2.47918
2.44106
2.40335
2.36605
2.3292
2.29279
2.25685
2.22138
2.1864
2.15191
2.11791
2.08441
2.05142
2.01892
1.98693
1.95544
1.92444
1.89393
1.86391
1.83437
1.8053
1.77669
1.74854
1.72082
1.69354
1.66668
1.64023
1.61418
1.5885
1.5632
1.53825
1.51364
1.48936
1.4654
1.44173
1.41835
1.39524
1.37238
1.34977
1.32739
1.30522
1.28326
1.26149
1.23991
1.21849
1.19724
1.17612
1.15515
1.13429
1.11355
1.09291
1.07237
1.0519
1.03152
1.0112
0.99094
0.970732
0.950569
0.930442
0.910346
0.890275
0.87022
0.850176
0.830135
0.810091
0.790035
0.769962
0.749863
0.729731
0.709558
0.689335
0.669053
0.648703
0.628272
0.607749
0.58712
0.566368
0.545477
0.524424
0.503185
0.481729
0.460021
0.438013
0.415647
0.392847
0.369507
0.345478
0.320536
0.294327
0.26623
0.235032
0.197925
0.146428
0.0515713
0.389128
0.678788
0.855873
0.992472
1.11101
1.2197
1.32224
1.42055
1.51572
1.60838
1.69895
1.78768
1.87474
1.96025
2.04428
2.12688
2.20807
2.28785
2.36623
2.4432
2.51872
2.59278
2.66534
2.73638
2.80584
2.87369
2.93989
3.00439
3.06715
3.12812
3.18726
3.24453
3.29987
3.35326
3.40464
3.45398
3.50124
3.54639
3.5894
3.63023
3.66886
3.70527
3.73943
3.77134
3.80096
3.8283
3.85335
3.8761
3.89656
3.91472
3.9306
3.94421
3.95555
3.96465
3.97153
3.97622
3.97873
3.97911
3.97739
3.9736
3.96778
3.95998
3.95024
3.93861
3.92514
3.90987
3.89286
3.87416
3.85384
3.83195
3.80855
3.7837
3.75746
3.72991
3.70109
3.67108
3.63995
3.60775
3.57455
3.54042
3.50542
3.46962
3.43308
3.39586
3.35803
3.31964
3.28076
3.24145
3.20177
3.16176
3.12149
3.08101
3.04037
2.99962
2.95881
2.91799
2.87719
2.83647
2.79585
2.75539
2.71512
2.67507
2.63527
2.59575
2.55655
2.51768
2.47918
2.44106
2.40334
2.36605
2.32919
2.29279
2.25685
2.22138
2.1864
2.15191
2.11791
2.08441
2.05142
2.01892
1.98693
1.95543
1.92444
1.89393
1.86391
1.83437
1.8053
1.77669
1.74853
1.72082
1.69354
1.66668
1.64023
1.61417
1.5885
1.5632
1.53825
1.51364
1.48936
1.4654
1.44173
1.41835
1.39524
1.37238
1.34977
1.32739
1.30522
1.28326
1.26149
1.23991
1.21849
1.19724
1.17612
1.15515
1.13429
1.11355
1.09291
1.07236
1.0519
1.03152
1.0112
0.990939
0.970731
0.950568
0.930441
0.910346
0.890274
0.87022
0.850175
0.830135
0.81009
0.790034
0.769961
0.749862
0.72973
0.709557
0.689334
0.669053
0.648702
0.628272
0.607749
0.587119
0.566368
0.545477
0.524424
0.503185
0.481729
0.46002
0.438012
0.415647
0.392847
0.369507
0.345478
0.320537
0.294327
0.26623
0.235033
0.197925
0.146429
0.0515715
0.440014
0.745822
0.933625
1.07803
1.20279
1.31677
1.42405
1.52674
1.62606
1.72272
1.81716
1.90967
2.00042
2.08955
2.17712
2.26317
2.34773
2.4308
2.51237
2.59242
2.67094
2.74789
2.82325
2.89696
2.96901
3.03933
3.10789
3.17465
3.23955
3.30256
3.36364
3.42272
3.47979
3.53478
3.58768
3.63842
3.68699
3.73335
3.77746
3.81931
3.85886
3.89609
3.93099
3.96354
3.99373
4.02154
4.04699
4.07005
4.09074
4.10906
4.12502
4.13864
4.14992
4.1589
4.16558
4.17
4.1722
4.17219
4.17002
4.16573
4.15935
4.15094
4.14053
4.12818
4.11394
4.09785
4.07998
4.06038
4.0391
4.01622
3.99178
3.96586
3.93851
3.9098
3.8798
3.84858
3.81619
3.78271
3.7482
3.71273
3.67636
3.63916
3.6012
3.56254
3.52324
3.48337
3.44299
3.40216
3.36093
3.31937
3.27754
3.23547
3.19324
3.15089
3.10847
3.06603
3.02361
2.98126
2.93901
2.89691
2.855
2.81332
2.77188
2.73073
2.6899
2.6494
2.60928
2.56954
2.53022
2.49132
2.45287
2.41488
2.37737
2.34033
2.3038
2.26776
2.23223
2.19722
2.16271
2.12872
2.09525
2.06229
2.02983
1.99789
1.96644
1.93548
1.90501
1.87502
1.84549
1.81641
1.78779
1.75959
1.73182
1.70445
1.67748
1.65089
1.62467
1.59881
1.57328
1.54807
1.52318
1.49857
1.47426
1.4502
1.4264
1.40284
1.3795
1.35638
1.33347
1.31074
1.28819
1.26581
1.24358
1.22149
1.19953
1.17769
1.15596
1.13433
1.11279
1.09133
1.06995
1.04863
1.02737
1.00616
0.984987
0.963852
0.942746
0.921661
0.90059
0.879527
0.858462
0.837389
0.816302
0.79519
0.774048
0.752867
0.731637
0.71035
0.688994
0.66756
0.646034
0.624403
0.60265
0.580759
0.558706
0.536468
0.514013
0.491304
0.468293
0.444917
0.421095
0.396713
0.371606
0.345526
0.318075
0.288565
0.255652
0.21626
0.161219
0.0588949
0.440016
0.745822
0.933623
1.07803
1.20278
1.31677
1.42404
1.52674
1.62606
1.72271
1.81715
1.90966
2.00042
2.08955
2.17712
2.26317
2.34773
2.43079
2.51236
2.59242
2.67094
2.74789
2.82324
2.89696
2.969
3.03933
3.10789
3.17464
3.23955
3.30256
3.36363
3.42272
3.47978
3.53478
3.58767
3.63842
3.68699
3.73334
3.77746
3.8193
3.85885
3.89609
3.93099
3.96354
3.99372
4.02154
4.04698
4.07005
4.09074
4.10906
4.12502
4.13863
4.14992
4.15889
4.16558
4.17
4.17219
4.17218
4.17001
4.16572
4.15935
4.15093
4.14053
4.12818
4.11394
4.09785
4.07998
4.06037
4.0391
4.01621
3.99178
3.96585
3.93851
3.9098
3.8798
3.84857
3.81619
3.7827
3.74819
3.71272
3.67635
3.63916
3.6012
3.56254
3.52324
3.48337
3.44299
3.40215
3.36093
3.31937
3.27753
3.23547
3.19324
3.15089
3.10847
3.06602
3.0236
2.98125
2.93901
2.89691
2.855
2.81331
2.77188
2.73073
2.68989
2.6494
2.60928
2.56954
2.53022
2.49132
2.45287
2.41488
2.37736
2.34033
2.30379
2.26776
2.23223
2.19721
2.16271
2.12872
2.09525
2.06229
2.02983
1.99788
1.96644
1.93548
1.90501
1.87501
1.84548
1.81641
1.78778
1.75959
1.73182
1.70445
1.67748
1.65089
1.62467
1.5988
1.57327
1.54807
1.52317
1.49857
1.47425
1.4502
1.4264
1.40284
1.3795
1.35638
1.33347
1.31074
1.28819
1.26581
1.24358
1.22149
1.19953
1.17769
1.15596
1.13433
1.11279
1.09133