/*--------------------------------*- C++ -*----------------------------------*\
  =========                 |
  \\      /  F ield         | OpenFOAM: The Open Source CFD Toolbox
   \\    /   O peration     | Website:  https://openfoam.org
    \\  /    A nd           | Version:  8
     \\/     M anipulation  |
\*---------------------------------------------------------------------------*/
FoamFile
{
    version     2.0;
    format      ascii;
    class       volScalarField;
    location    "3600";
    object      nut;
}
// * * * * * * * * * * * * * * * * * * * * * * * * * * * * * * * * * * * * * //

dimensions      [0 2 -1 0 0 0 0];

internalField   nonuniform List<scalar> 
46000
(
1.21846e-06
5.08914e-06
9.33211e-06
1.32626e-05
1.69664e-05
2.05429e-05
2.40373e-05
2.74592e-05
3.08281e-05
3.41577e-05
3.74597e-05
4.0743e-05
4.39889e-05
4.7211e-05
5.04122e-05
5.35929e-05
5.67524e-05
5.98894e-05
6.30019e-05
6.60879e-05
6.91446e-05
7.21692e-05
7.51587e-05
7.81099e-05
8.10193e-05
8.38836e-05
8.66992e-05
8.94625e-05
9.217e-05
9.48181e-05
9.74034e-05
9.99222e-05
0.000102371
0.000104747
0.000107047
0.000109267
0.000111405
0.000113458
0.000115424
0.000117299
0.000119081
0.000120769
0.000122361
0.000123855
0.000125249
0.000126543
0.000127734
0.000128824
0.00012981
0.000130692
0.000131472
0.000132147
0.00013272
0.00013319
0.000133558
0.000133825
0.000133992
0.000134062
0.000134035
0.000133913
0.000133699
0.000133396
0.000133009
0.000132537
0.00013198
0.000131343
0.000130626
0.000129834
0.000128968
0.000128033
0.00012703
0.000125964
0.000124837
0.000123653
0.000122415
0.000121126
0.00011979
0.000118409
0.000116988
0.000115529
0.000114035
0.000112511
0.000110958
0.000109381
0.000107782
0.000106163
0.000104529
0.000102881
0.000101223
9.95574e-05
9.78861e-05
9.62118e-05
9.4537e-05
9.28638e-05
9.11944e-05
8.95308e-05
8.78749e-05
8.62284e-05
8.45932e-05
8.29707e-05
8.13625e-05
7.97699e-05
7.81941e-05
7.66363e-05
7.50976e-05
7.35789e-05
7.2081e-05
7.06047e-05
6.91506e-05
6.77194e-05
6.63114e-05
6.4927e-05
6.35666e-05
6.22304e-05
6.09185e-05
5.9631e-05
5.83679e-05
5.71292e-05
5.59148e-05
5.47244e-05
5.35579e-05
5.2415e-05
5.12954e-05
5.01986e-05
4.91245e-05
4.80724e-05
4.70419e-05
4.60326e-05
4.50439e-05
4.40753e-05
4.31263e-05
4.21963e-05
4.12846e-05
4.03908e-05
3.95142e-05
3.86542e-05
3.78102e-05
3.69817e-05
3.6168e-05
3.53686e-05
3.45828e-05
3.38101e-05
3.30499e-05
3.23018e-05
3.1565e-05
3.08392e-05
3.01238e-05
2.94184e-05
2.87224e-05
2.80354e-05
2.73571e-05
2.66866e-05
2.6025e-05
2.53712e-05
2.47247e-05
2.40852e-05
2.34523e-05
2.28259e-05
2.22055e-05
2.15911e-05
2.09823e-05
2.03791e-05
1.97812e-05
1.91884e-05
1.86011e-05
1.80202e-05
1.74444e-05
1.68734e-05
1.63071e-05
1.57453e-05
1.51881e-05
1.46353e-05
1.40869e-05
1.35429e-05
1.3003e-05
1.24674e-05
1.19359e-05
1.14084e-05
1.08846e-05
1.03642e-05
9.84795e-06
9.33509e-06
8.82534e-06
8.31864e-06
7.81457e-06
7.31277e-06
6.81273e-06
6.31386e-06
5.81539e-06
5.31637e-06
4.81627e-06
4.31508e-06
3.80986e-06
3.29803e-06
2.77645e-06
2.24103e-06
1.68658e-06
1.10906e-06
5.2624e-07
1.01548e-07
1.21854e-06
5.08933e-06
9.33231e-06
1.32628e-05
1.69666e-05
2.0543e-05
2.40374e-05
2.74593e-05
3.08283e-05
3.41579e-05
3.74599e-05
4.07431e-05
4.3989e-05
4.72111e-05
5.04123e-05
5.3593e-05
5.67524e-05
5.98894e-05
6.3002e-05
6.60879e-05
6.91446e-05
7.21692e-05
7.51587e-05
7.81099e-05
8.10193e-05
8.38835e-05
8.66991e-05
8.94624e-05
9.21699e-05
9.48181e-05
9.74033e-05
9.99221e-05
0.000102371
0.000104747
0.000107047
0.000109267
0.000111405
0.000113458
0.000115423
0.000117298
0.000119081
0.000120769
0.000122361
0.000123855
0.000125249
0.000126543
0.000127734
0.000128823
0.00012981
0.000130692
0.000131471
0.000132147
0.000132719
0.000133189
0.000133557
0.000133825
0.000133992
0.000134062
0.000134034
0.000133913
0.000133699
0.000133396
0.000133009
0.000132536
0.00013198
0.000131342
0.000130626
0.000129834
0.000128968
0.000128033
0.00012703
0.000125964
0.000124837
0.000123653
0.000122415
0.000121126
0.000119789
0.000118409
0.000116987
0.000115528
0.000114035
0.000112511
0.000110958
0.000109381
0.000107781
0.000106163
0.000104529
0.000102881
0.000101223
9.95572e-05
9.78859e-05
9.62116e-05
9.45368e-05
9.28636e-05
9.11942e-05
8.95306e-05
8.78747e-05
8.62282e-05
8.4593e-05
8.29705e-05
8.13623e-05
7.97697e-05
7.81939e-05
7.66362e-05
7.50974e-05
7.35787e-05
7.20808e-05
7.06045e-05
6.91505e-05
6.77192e-05
6.63112e-05
6.49268e-05
6.35664e-05
6.22302e-05
6.09183e-05
5.96308e-05
5.83678e-05
5.71291e-05
5.59146e-05
5.47243e-05
5.35578e-05
5.24149e-05
5.12952e-05
5.01985e-05
4.91243e-05
4.80722e-05
4.70418e-05
4.60325e-05
4.50438e-05
4.40752e-05
4.31262e-05
4.21962e-05
4.12845e-05
4.03907e-05
3.95141e-05
3.86541e-05
3.78102e-05
3.69816e-05
3.61679e-05
3.53685e-05
3.45827e-05
3.381e-05
3.30499e-05
3.23017e-05
3.15649e-05
3.08391e-05
3.01238e-05
2.94183e-05
2.87223e-05
2.80354e-05
2.7357e-05
2.66865e-05
2.60249e-05
2.53711e-05
2.47247e-05
2.40851e-05
2.34523e-05
2.28258e-05
2.22055e-05
2.1591e-05
2.09823e-05
2.0379e-05
1.97811e-05
1.91884e-05
1.86011e-05
1.80201e-05
1.74443e-05
1.68734e-05
1.6307e-05
1.57453e-05
1.51881e-05
1.46353e-05
1.40869e-05
1.35428e-05
1.3003e-05
1.24674e-05
1.19359e-05
1.14084e-05
1.08846e-05
1.03642e-05
9.84793e-06
9.33507e-06
8.82532e-06
8.31862e-06
7.81455e-06
7.31275e-06
6.81272e-06
6.31385e-06
5.81538e-06
5.31636e-06
4.81628e-06
4.31509e-06
3.80987e-06
3.29804e-06
2.77646e-06
2.24103e-06
1.68659e-06
1.10907e-06
5.26245e-07
1.01548e-07
4.64505e-06
4.94398e-05
8.46527e-05
0.000108907
0.00012763
0.000143116
0.000156406
0.000168274
0.000179135
0.000189238
0.000198737
0.000207751
0.000216375
0.000224659
0.000232644
0.000240361
0.000247834
0.000255084
0.000262124
0.000268967
0.000275621
0.000282094
0.000288391
0.000294516
0.000300471
0.000306259
0.000311881
0.000317337
0.000322627
0.000327752
0.000332711
0.000337503
0.000342127
0.000346581
0.000350866
0.00035498
0.000358921
0.000362689
0.000366282
0.0003697
0.000372941
0.000376005
0.000378891
0.000381599
0.000384129
0.00038648
0.000388652
0.000390646
0.000392462
0.000394101
0.000395564
0.000396851
0.000397964
0.000398905
0.000399675
0.000400276
0.000400709
0.000400978
0.000401085
0.000401031
0.000400819
0.00040045
0.000399927
0.000399255
0.000398438
0.000397481
0.000396388
0.000395163
0.000393809
0.000392332
0.000390735
0.000389022
0.000387199
0.000385269
0.000383237
0.000381107
0.000378885
0.000376574
0.000374179
0.000371704
0.000369155
0.000366536
0.000363851
0.000361105
0.000358302
0.000355447
0.000352543
0.000349596
0.000346609
0.000343586
0.000340531
0.000337449
0.000334343
0.000331216
0.000328073
0.000324916
0.000321749
0.000318576
0.000315399
0.000312221
0.000309045
0.000305875
0.000302711
0.000299557
0.000296415
0.000293288
0.000290176
0.000287083
0.000284009
0.000280957
0.000277927
0.000274921
0.000271941
0.000268987
0.00026606
0.00026316
0.00026029
0.000257448
0.000254636
0.000251853
0.000249101
0.000246378
0.000243685
0.000241022
0.000238388
0.000235784
0.000233208
0.00023066
0.00022814
0.000225646
0.000223179
0.000220737
0.000218319
0.000215924
0.000213552
0.000211202
0.000208871
0.00020656
0.000204266
0.00020199
0.000199729
0.000197482
0.000195249
0.000193028
0.000190817
0.000188616
0.000186422
0.000184236
0.000182056
0.00017988
0.000177708
0.00017554
0.000173372
0.000171204
0.000169034
0.000166861
0.000164685
0.000162504
0.000160317
0.000158123
0.00015592
0.000153708
0.000151484
0.000149247
0.000146991
0.000144714
0.000142422
0.000140112
0.000137784
0.000135436
0.000133068
0.000130676
0.00012826
0.000125818
0.000123347
0.000120844
0.000118307
0.000115733
0.000113118
0.000110458
0.000107747
0.000104978
0.000102145
9.924e-05
9.62514e-05
9.31677e-05
8.99736e-05
8.66496e-05
8.31708e-05
7.95024e-05
7.55901e-05
7.13688e-05
6.67856e-05
6.17285e-05
5.60285e-05
4.9409e-05
4.13669e-05
3.0856e-05
1.55531e-05
4.73392e-07
4.64518e-06
4.94417e-05
8.46555e-05
0.00010891
0.000127633
0.000143119
0.000156409
0.000168277
0.000179139
0.000189241
0.00019874
0.000207755
0.000216378
0.000224663
0.000232648
0.000240364
0.000247838
0.000255088
0.000262128
0.000268971
0.000275625
0.000282099
0.000288395
0.00029452
0.000300476
0.000306263
0.000311885
0.000317341
0.000322632
0.000327757
0.000332716
0.000337507
0.000342131
0.000346586
0.000350871
0.000354985
0.000358926
0.000362694
0.000366287
0.000369705
0.000372946
0.00037601
0.000378897
0.000381605
0.000384134
0.000386485
0.000388657
0.000390651
0.000392467
0.000394106
0.000395569
0.000396856
0.00039797
0.00039891
0.00039968
0.000400281
0.000400715
0.000400984
0.00040109
0.000401036
0.000400824
0.000400456
0.000399932
0.00039926
0.000398443
0.000397486
0.000396393
0.000395168
0.000393814
0.000392337
0.00039074
0.000389027
0.000387204
0.000385274
0.000383242
0.000381112
0.000378889
0.000376578
0.000374183
0.000371709
0.00036916
0.000366541
0.000363856
0.000361109
0.000358306
0.000355451
0.000352547
0.0003496
0.000346613
0.00034359
0.000340535
0.000337453
0.000334347
0.00033122
0.000328076
0.00032492
0.000321753
0.00031858
0.000315402
0.000312225
0.000309049
0.000305878
0.000302714
0.00029956
0.000296419
0.000293291
0.000290179
0.000287086
0.000284012
0.00028096
0.00027793
0.000274924
0.000271944
0.000268989
0.000266062
0.000263163
0.000260292
0.000257451
0.000254638
0.000251856
0.000249103
0.00024638
0.000243687
0.000241024
0.000238391
0.000235786
0.00023321
0.000230662
0.000228142
0.000225648
0.000223181
0.000220739
0.000218321
0.000215926
0.000213554
0.000211203
0.000208873
0.000206561
0.000204268
0.000201991
0.00019973
0.000197484
0.000195251
0.000193029
0.000190818
0.000188617
0.000186424
0.000184237
0.000182057
0.000179881
0.000177709
0.000175541
0.000173373
0.000171205
0.000169035
0.000166862
0.000164686
0.000162505
0.000160318
0.000158124
0.000155921
0.000153709
0.000151485
0.000149248
0.000146992
0.000144715
0.000142422
0.000140113
0.000137785
0.000135437
0.000133068
0.000130677
0.000128261
0.000125819
0.000123347
0.000120845
0.000118308
0.000115734
0.000113119
0.000110459
0.000107748
0.000104979
0.000102146
9.92406e-05
9.62519e-05
9.31682e-05
8.99741e-05
8.66501e-05
8.31712e-05
7.95029e-05
7.55904e-05
7.13691e-05
6.67859e-05
6.17287e-05
5.60287e-05
4.94091e-05
4.1367e-05
3.08561e-05
1.5553e-05
4.73392e-07
8.68397e-06
8.19194e-05
0.000153309
0.000206598
0.000247875
0.000281236
0.000309238
0.000333495
0.000355025
0.000374502
0.000392381
0.000408981
0.000424536
0.000439208
0.000453121
0.000466368
0.000479023
0.000491145
0.000502781
0.000513969
0.000524738
0.000535116
0.000545122
0.000554773
0.000564085
0.000573068
0.000581733
0.000590089
0.000598142
0.000605898
0.000613362
0.000620539
0.000627432
0.000634044
0.000640379
0.000646438
0.000652224
0.000657738
0.000662983
0.00066796
0.000672671
0.000677118
0.000681301
0.000685224
0.000688887
0.000692292
0.000695441
0.000698337
0.00070098
0.000703374
0.000705521
0.000707423
0.000709083
0.000710504
0.000711687
0.000712637
0.000713357
0.000713849
0.000714116
0.000714161
0.000713987
0.000713596
0.000712988
0.000712173
0.000711156
0.000709945
0.000708544
0.000706959
0.000705195
0.000703258
0.000701153
0.000698884
0.000696458
0.00069388
0.000691156
0.00068829
0.000685289
0.000682158
0.000678903
0.000675529
0.000672042
0.000668447
0.00066475
0.000660958
0.000657074
0.000653105
0.000649056
0.000644932
0.000640739
0.000636482
0.000632166
0.000627797
0.000623378
0.000618915
0.000614413
0.000609877
0.00060531
0.000600717
0.000596103
0.000591471
0.000586826
0.00058217
0.000577509
0.000572845
0.000568181
0.000563521
0.000558868
0.000554225
0.000549593
0.000544976
0.000540376
0.000535794
0.000531234
0.000526696
0.000522181
0.000517693
0.00051323
0.000508796
0.000504389
0.000500012
0.000495664
0.000491347
0.000487059
0.000482801
0.000478573
0.000474374
0.000470204
0.000466063
0.00046195
0.000457864
0.000453803
0.000449768
0.000445756
0.000441766
0.000437798
0.000433849
0.000429918
0.000426004
0.000422104
0.000418217
0.000414342
0.000410476
0.000406618
0.000402765
0.000398916
0.000395069
0.000391223
0.000387374
0.000383522
0.000379666
0.000375802
0.00037193
0.000368044
0.000364144
0.000360227
0.000356293
0.000352337
0.00034836
0.000344358
0.000340329
0.000336271
0.00033218
0.000328054
0.000323888
0.000319677
0.000315413
0.000311101
0.00030674
0.000302327
0.000297859
0.000293332
0.000288742
0.000284084
0.000279351
0.00027454
0.000269641
0.000264648
0.000259551
0.000254339
0.000249002
0.000243523
0.000237885
0.000232069
0.000226048
0.000219793
0.000213268
0.000206428
0.000199217
0.000191563
0.000183369
0.000174504
0.00016479
0.000154028
0.000141905
0.000127948
0.000111414
9.1063e-05
6.47683e-05
2.97838e-05
1.00067e-06
8.68413e-06
8.19221e-05
0.000153314
0.000206604
0.000247881
0.000281242
0.000309245
0.000333502
0.000355032
0.000374508
0.000392388
0.000408988
0.000424542
0.000439215
0.000453127
0.000466374
0.00047903
0.000491152
0.000502788
0.000513975
0.000524745
0.000535123
0.000545129
0.00055478
0.000564092
0.000573075
0.00058174
0.000590096
0.000598149
0.000605905
0.000613369
0.000620546
0.000627439
0.000634051
0.000640386
0.000646445
0.000652231
0.000657745
0.00066299
0.000667967
0.000672678
0.000677125
0.000681309
0.000685231
0.000688894
0.000692299
0.000695448
0.000698344
0.000700987
0.000703381
0.000705528
0.00070743
0.00070909
0.00071051
0.000711694
0.000712644
0.000713364
0.000713855
0.000714123
0.000714168
0.000713994
0.000713602
0.000712995
0.000712179
0.000711163
0.000709951
0.00070855
0.000706965
0.000705201
0.000703264
0.000701158
0.00069889
0.000696464
0.000693886
0.000691161
0.000688296
0.000685295
0.000682164
0.000678908
0.000675534
0.000672047
0.000668452
0.000664756
0.000660963
0.000657079
0.000653109
0.00064906
0.000644937
0.000640744
0.000636487
0.000632171
0.000627801
0.000623382
0.00061892
0.000614417
0.000609881
0.000605314
0.000600721
0.000596107
0.000591475
0.000586829
0.000582174
0.000577512
0.000572848
0.000568184
0.000563525
0.000558871
0.000554228
0.000549596
0.000544979
0.000540378
0.000535797
0.000531236
0.000526698
0.000522184
0.000517695
0.000513233
0.000508798
0.000504392
0.000500014
0.000495666
0.000491349
0.000487061
0.000482802
0.000478574
0.000474376
0.000470206
0.000466065
0.000461952
0.000457865
0.000453805
0.000449769
0.000445757
0.000441767
0.000437799
0.00043385
0.000429919
0.000426005
0.000422105
0.000418218
0.000414343
0.000410477
0.000406618
0.000402766
0.000398917
0.00039507
0.000391223
0.000387375
0.000383523
0.000379666
0.000375803
0.00037193
0.000368044
0.000364144
0.000360228
0.000356293
0.000352338
0.00034836
0.000344358
0.000340329
0.000336271
0.00033218
0.000328054
0.000323888
0.000319677
0.000315413
0.000311101
0.00030674
0.000302327
0.000297859
0.000293332
0.000288742
0.000284084
0.000279351
0.00027454
0.000269641
0.000264648
0.000259551
0.000254339
0.000249002
0.000243523
0.000237885
0.000232069
0.000226048
0.000219793
0.000213268
0.000206428
0.000199217
0.000191563
0.000183369
0.000174504
0.00016479
0.000154028
0.000141905
0.000127949
0.000111414
9.10631e-05
6.47683e-05
2.97836e-05
1.00067e-06
1.255e-05
0.000104869
0.000203858
0.000283663
0.000347894
0.000400733
0.000445347
0.000483907
0.000517904
0.000548376
0.000576064
0.000601503
0.000625089
0.000647115
0.000667805
0.000687334
0.000705837
0.000723423
0.000740181
0.000756183
0.000771487
0.000786143
0.000800191
0.000813666
0.000826597
0.00083901
0.000850926
0.000862363
0.000873338
0.000883865
0.000893955
0.000903621
0.000912871
0.000921714
0.000930159
0.000938212
0.000945881
0.00095317
0.000960086
0.000966634
0.000972819
0.000978646
0.000984119
0.000989244
0.000994023
0.000998462
0.00100257
0.00100634
0.00100978
0.0010129
0.0010157
0.00101819
0.00102036
0.00102223
0.0010238
0.00102507
0.00102605
0.00102673
0.00102714
0.00102726
0.00102711
0.00102668
0.00102598
0.00102502
0.0010238
0.00102234
0.00102064
0.00101871
0.00101655
0.00101417
0.00101157
0.00100877
0.00100577
0.00100257
0.000999189
0.000995624
0.000991884
0.000987975
0.000983906
0.000979681
0.000975307
0.000970792
0.000966141
0.000961362
0.00095646
0.000951442
0.000946315
0.000941085
0.000935757
0.00093034
0.000924838
0.000919257
0.000913604
0.000907885
0.000902104
0.000896269
0.000890383
0.000884453
0.000878484
0.000872481
0.000866449
0.000860391
0.000854314
0.000848221
0.000842117
0.000836004
0.000829888
0.000823772
0.000817658
0.000811551
0.000805453
0.000799366
0.000793294
0.000787239
0.000781201
0.000775185
0.00076919
0.000763218
0.000757271
0.000751349
0.000745453
0.000739583
0.00073374
0.000727924
0.000722135
0.000716372
0.000710634
0.000704922
0.000699234
0.00069357
0.000687927
0.000682305
0.000676702
0.000671116
0.000665547
0.000659991
0.000654447
0.000648913
0.000643386
0.000637865
0.000632347
0.00062683
0.000621311
0.000615789
0.000610259
0.000604721
0.000599171
0.000593608
0.000588029
0.000582431
0.000576812
0.000571167
0.000565494
0.000559789
0.00055405
0.000548275
0.000542459
0.000536599
0.000530694
0.000524739
0.00051873
0.000512663
0.000506533
0.000500334
0.00049406
0.000487702
0.000481263
0.000474737
0.00046812
0.000461406
0.000454588
0.000447659
0.00044061
0.000433431
0.000426111
0.000418638
0.000410996
0.000403169
0.000395138
0.00038688
0.000378369
0.000369573
0.000360455
0.000350971
0.000341065
0.000330673
0.000319713
0.000308085
0.000295662
0.000282279
0.000267724
0.000251714
0.000233879
0.000213731
0.000190546
0.000163268
0.00013033
8.95168e-05
3.95198e-05
1.53066e-06
1.25502e-05
0.000104872
0.000203864
0.000283671
0.000347903
0.000400743
0.000445357
0.000483917
0.000517914
0.000548386
0.000576074
0.000601513
0.000625098
0.000647124
0.000667815
0.000687343
0.000705846
0.000723433
0.000740191
0.000756192
0.000771496
0.000786152
0.0008002
0.000813675
0.000826606
0.000839019
0.000850935
0.000862372
0.000873347
0.000883874
0.000893964
0.00090363
0.00091288
0.000921723
0.000930168
0.000938221
0.000945889
0.000953179
0.000960095
0.000966643
0.000972828
0.000978655
0.000984128
0.000989252
0.000994032
0.000998471
0.00100257
0.00100634
0.00100979
0.00101291
0.00101571
0.00101819
0.00102037
0.00102224
0.00102381
0.00102508
0.00102605
0.00102674
0.00102714
0.00102727
0.00102711
0.00102669
0.00102599
0.00102503
0.00102381
0.00102235
0.00102065
0.00101871
0.00101655
0.00101417
0.00101158
0.00100878
0.00100578
0.00100258
0.000999195
0.000995629
0.000991889
0.000987981
0.000983911
0.000979686
0.000975313
0.000970797
0.000966146
0.000961367
0.000956465
0.000951447
0.000946319
0.000941089
0.000935762
0.000930344
0.000924842
0.000919261
0.000913608
0.000907888
0.000902108
0.000896272
0.000890387
0.000884457
0.000878488
0.000872484
0.000866452
0.000860395
0.000854317
0.000848224
0.000842119
0.000836007
0.000829891
0.000823774
0.000817661
0.000811553
0.000805455
0.000799369
0.000793296
0.000787241
0.000781203
0.000775186
0.000769191
0.000763219
0.000757272
0.00075135
0.000745454
0.000739584
0.000733741
0.000727925
0.000722136
0.000716373
0.000710635
0.000704923
0.000699235
0.00069357
0.000687928
0.000682305
0.000676702
0.000671117
0.000665547
0.000659991
0.000654447
0.000648913
0.000643386
0.000637865
0.000632347
0.00062683
0.000621311
0.000615788
0.000610259
0.000604721
0.000599171
0.000593608
0.000588028
0.00058243
0.000576811
0.000571167
0.000565494
0.000559789
0.00055405
0.000548274
0.000542458
0.000536599
0.000530693
0.000524738
0.000518729
0.000512662
0.000506532
0.000500333
0.000494059
0.000487702
0.000481262
0.000474736
0.000468119
0.000461405
0.000454587
0.000447658
0.000440609
0.00043343
0.00042611
0.000418637
0.000410995
0.000403168
0.000395137
0.00038688
0.000378368
0.000369572
0.000360455
0.00035097
0.000341065
0.000330672
0.000319712
0.000308084
0.000295661
0.000282279
0.000267724
0.000251714
0.000233879
0.000213731
0.000190546
0.000163268
0.00013033
8.95168e-05
3.95196e-05
1.53066e-06
1.62841e-05
0.000123271
0.00024363
0.000345796
0.000430793
0.000502264
0.000563364
0.000616483
0.000663382
0.000705361
0.000743381
0.000778162
0.000810252
0.000840066
0.000867928
0.000894093
0.000918762
0.000942098
0.000964233
0.000985275
0.00100532
0.00102443
0.00104268
0.00106011
0.00107679
0.00109274
0.001108
0.00112259
0.00113656
0.00114991
0.00116267
0.00117486
0.00118649
0.00119758
0.00120815
0.0012182
0.00122775
0.0012368
0.00124538
0.00125348
0.00126112
0.0012683
0.00127503
0.00128133
0.00128719
0.00129262
0.00129764
0.00130225
0.00130645
0.00131026
0.00131367
0.0013167
0.00131935
0.00132163
0.00132354
0.00132509
0.00132629
0.00132714
0.00132765
0.00132782
0.00132766
0.00132718
0.00132637
0.00132525
0.00132383
0.00132211
0.0013201
0.00131782
0.00131526
0.00131244
0.00130937
0.00130605
0.00130248
0.00129869
0.00129467
0.00129043
0.00128598
0.00128133
0.00127648
0.00127144
0.00126623
0.00126084
0.00125528
0.00124957
0.0012437
0.0012377
0.00123155
0.00122528
0.00121889
0.00121238
0.00120576
0.00119905
0.00119224
0.00118534
0.00117836
0.00117131
0.00116419
0.00115701
0.00114978
0.00114249
0.00113517
0.0011278
0.0011204
0.00111297
0.00110552
0.00109805
0.00109057
0.00108308
0.00107558
0.00106808
0.00106058
0.00105308
0.00104559
0.00103811
0.00103065
0.0010232
0.00101576
0.00100834
0.00100094
0.000993564
0.000986207
0.000978871
0.000971557
0.000964265
0.000956994
0.000949745
0.000942517
0.000935308
0.000928118
0.000920945
0.000913788
0.000906646
0.000899516
0.000892396
0.000885284
0.000878179
0.000871077
0.000863976
0.000856874
0.000849767
0.000842653
0.000835529
0.000828393
0.00082124
0.000814069
0.000806876
0.000799657
0.000792411
0.000785134
0.000777823
0.000770474
0.000763082
0.000755644
0.000748156
0.000740614
0.000733014
0.000725353
0.000717626
0.000709829
0.000701958
0.000694006
0.000685969
0.000677839
0.00066961
0.000661274
0.000652823
0.000644252
0.000635555
0.000626725
0.000617752
0.000608627
0.000599338
0.000589872
0.000580214
0.000570348
0.000560254
0.00054991
0.000539292
0.00052837
0.00051711
0.000505472
0.000493411
0.000480871
0.000467786
0.000454076
0.000439647
0.000424381
0.000408133
0.000390724
0.000371927
0.000351454
0.00032893
0.000303869
0.000275642
0.00024338
0.000205895
0.000161592
0.000108594
4.70815e-05
2.0506e-06
1.62842e-05
0.000123274
0.000243636
0.000345805
0.000430803
0.000502276
0.000563377
0.000616495
0.000663395
0.000705373
0.000743393
0.000778175
0.000810264
0.000840078
0.000867941
0.000894105
0.000918774
0.00094211
0.000964245
0.000985287
0.00100533
0.00102444
0.00104269
0.00106013
0.0010768
0.00109275
0.00110801
0.0011226
0.00113657
0.00114992
0.00116268
0.00117487
0.0011865
0.0011976
0.00120816
0.00121821
0.00122776
0.00123682
0.00124539
0.00125349
0.00126113
0.00126831
0.00127504
0.00128134
0.0012872
0.00129263
0.00129765
0.00130226
0.00130646
0.00131027
0.00131368
0.00131671
0.00131936
0.00132164
0.00132355
0.0013251
0.0013263
0.00132715
0.00132766
0.00132783
0.00132767
0.00132719
0.00132638
0.00132526
0.00132383
0.00132211
0.00132011
0.00131782
0.00131527
0.00131245
0.00130938
0.00130605
0.00130249
0.0012987
0.00129467
0.00129044
0.00128599
0.00128133
0.00127648
0.00127145
0.00126623
0.00126084
0.00125529
0.00124957
0.00124371
0.0012377
0.00123156
0.00122528
0.00121889
0.00121238
0.00120577
0.00119905
0.00119224
0.00118534
0.00117837
0.00117132
0.0011642
0.00115702
0.00114978
0.0011425
0.00113517
0.0011278
0.0011204
0.00111298
0.00110553
0.00109806
0.00109057
0.00108308
0.00107558
0.00106808
0.00106058
0.00105308
0.00104559
0.00103812
0.00103065
0.0010232
0.00101576
0.00100834
0.00100094
0.000993566
0.000986208
0.000978872
0.000971558
0.000964266
0.000956995
0.000949746
0.000942517
0.000935309
0.000928118
0.000920946
0.000913789
0.000906646
0.000899516
0.000892396
0.000885285
0.000878179
0.000871077
0.000863976
0.000856874
0.000849767
0.000842653
0.000835529
0.000828392
0.00082124
0.000814068
0.000806875
0.000799657
0.000792411
0.000785134
0.000777823
0.000770473
0.000763082
0.000755643
0.000748155
0.000740613
0.000733013
0.000725352
0.000717625
0.000709828
0.000701957
0.000694005
0.000685968
0.000677838
0.000669609
0.000661273
0.000652821
0.000644251
0.000635554
0.000626724
0.000617751
0.000608626
0.000599337
0.000589871
0.000580213
0.000570347
0.000560253
0.000549909
0.000539291
0.000528368
0.000517109
0.000505471
0.00049341
0.00048087
0.000467785
0.000454075
0.000439646
0.00042438
0.000408132
0.000390723
0.000371927
0.000351454
0.00032893
0.000303869
0.000275642
0.00024338
0.000205895
0.000161592
0.000108594
4.70812e-05
2.0506e-06
1.9953e-05
0.000138942
0.000276521
0.000397587
0.000500965
0.000589509
0.000666137
0.000733264
0.00079278
0.000846144
0.000894476
0.000938639
0.000979303
0.00101699
0.00105212
0.00108501
0.00111593
0.00114509
0.00117268
0.00119883
0.00122366
0.00124728
0.00126977
0.00129121
0.00131165
0.00133116
0.00134978
0.00136755
0.00138451
0.00140069
0.00141612
0.00143083
0.00144484
0.00145817
0.00147084
0.00148286
0.00149427
0.00150507
0.00151527
0.00152489
0.00153395
0.00154245
0.00155041
0.00155784
0.00156474
0.00157114
0.00157703
0.00158244
0.00158736
0.00159181
0.0015958
0.00159933
0.00160242
0.00160507
0.00160729
0.00160909
0.00161047
0.00161145
0.00161204
0.00161223
0.00161204
0.00161147
0.00161053
0.00160924
0.00160759
0.0016056
0.00160328
0.00160065
0.00159769
0.00159444
0.00159089
0.00158705
0.00158294
0.00157856
0.00157391
0.00156902
0.00156388
0.00155851
0.00155291
0.00154709
0.00154107
0.00153484
0.00152842
0.00152181
0.00151503
0.00150808
0.00150098
0.00149372
0.00148631
0.00147877
0.00147111
0.00146332
0.00145542
0.00144741
0.00143931
0.00143112
0.00142284
0.00141449
0.00140607
0.00139759
0.00138905
0.00138045
0.00137182
0.00136314
0.00135444
0.0013457
0.00133694
0.00132816
0.00131937
0.00131057
0.00130176
0.00129295
0.00128414
0.00127533
0.00126653
0.00125774
0.00124896
0.00124019
0.00123143
0.00122269
0.00121397
0.00120526
0.00119657
0.00118789
0.00117923
0.00117059
0.00116196
0.00115335
0.00114474
0.00113615
0.00112757
0.00111899
0.00111042
0.00110185
0.00109329
0.00108471
0.00107614
0.00106755
0.00105895
0.00105034
0.00104171
0.00103306
0.00102438
0.00101568
0.00100694
0.000998165
0.000989352
0.000980496
0.000971593
0.000962639
0.00095363
0.00094456
0.000935425
0.00092622
0.000916942
0.000907584
0.000898142
0.000888611
0.000878985
0.000869259
0.000859425
0.000849477
0.000839406
0.000829205
0.000818863
0.000808371
0.000797721
0.000786905
0.000775911
0.000764727
0.000753339
0.000741733
0.000729889
0.000717788
0.000705408
0.000692723
0.000679702
0.000666313
0.000652516
0.000638265
0.000623509
0.000608184
0.000592218
0.000575525
0.000558
0.000539521
0.000519936
0.000499063
0.000476675
0.000452492
0.000426162
0.000397243
0.00036517
0.000329219
0.000288461
0.00024169
0.000187419
0.000124202
5.34188e-05
2.56362e-06
1.99532e-05
0.000138944
0.000276528
0.000397596
0.000500977
0.000589522
0.000666151
0.000733278
0.000792795
0.000846159
0.000894491
0.000938654
0.000979318
0.00101701
0.00105213
0.00108502
0.00111594
0.00114511
0.00117269
0.00119884
0.00122367
0.00124729
0.00126979
0.00129122
0.00131167
0.00133118
0.0013498
0.00136757
0.00138453
0.00140071
0.00141614
0.00143084
0.00144485
0.00145818
0.00147085
0.00148288
0.00149428
0.00150508
0.00151528
0.0015249
0.00153396
0.00154246
0.00155042
0.00155785
0.00156475
0.00157115
0.00157704
0.00158245
0.00158737
0.00159182
0.00159581
0.00159934
0.00160243
0.00160507
0.0016073
0.00160909
0.00161048
0.00161146
0.00161205
0.00161224
0.00161205
0.00161148
0.00161054
0.00160925
0.0016076
0.00160561
0.00160329
0.00160065
0.0015977
0.00159445
0.0015909
0.00158706
0.00158295
0.00157856
0.00157392
0.00156903
0.00156389
0.00155851
0.00155292
0.0015471
0.00154107
0.00153485
0.00152842
0.00152182
0.00151504
0.00150809
0.00150098
0.00149372
0.00148632
0.00147878
0.00147111
0.00146332
0.00145542
0.00144742
0.00143932
0.00143112
0.00142285
0.0014145
0.00140607
0.00139759
0.00138905
0.00138046
0.00137182
0.00136315
0.00135444
0.0013457
0.00133694
0.00132816
0.00131937
0.00131057
0.00130176
0.00129295
0.00128414
0.00127533
0.00126653
0.00125774
0.00124896
0.00124019
0.00123143
0.00122269
0.00121397
0.00120526
0.00119657
0.00118789
0.00117923
0.00117059
0.00116196
0.00115335
0.00114474
0.00113615
0.00112757
0.00111899
0.00111042
0.00110185
0.00109329
0.00108471
0.00107614
0.00106755
0.00105895
0.00105034
0.00104171
0.00103306
0.00102438
0.00101568
0.00100694
0.000998165
0.000989352
0.000980495
0.000971593
0.000962639
0.000953629
0.000944559
0.000935424
0.00092622
0.000916941
0.000907583
0.000898141
0.00088861
0.000878984
0.000869258
0.000859424
0.000849476
0.000839405
0.000829204
0.000818862
0.00080837
0.00079772
0.000786904
0.00077591
0.000764726
0.000753338
0.000741731
0.000729888
0.000717787
0.000705407
0.000692722
0.000679701
0.000666312
0.000652515
0.000638264
0.000623507
0.000608183
0.000592217
0.000575524
0.000557999
0.00053952
0.000519936
0.000499062
0.000476674
0.000452491
0.000426162
0.000397243
0.00036517
0.000329219
0.000288462
0.00024169
0.000187419
0.000124202
5.34185e-05
2.56363e-06
2.35729e-05
0.000152765
0.000304834
0.000442101
0.000561683
0.000665639
0.000756575
0.000836829
0.000908331
0.000972628
0.00103094
0.00108425
0.00113331
0.00117875
0.00122103
0.00126057
0.00129768
0.00133261
0.0013656
0.00139681
0.0014264
0.00145449
0.00148119
0.00150659
0.00153078
0.00155382
0.00157576
0.00159668
0.0016166
0.00163558
0.00165365
0.00167084
0.00168719
0.00170272
0.00171746
0.00173144
0.00174466
0.00175717
0.00176896
0.00178007
0.00179051
0.0018003
0.00180945
0.00181797
0.00182588
0.0018332
0.00183993
0.00184609
0.0018517
0.00185676
0.00186128
0.00186528
0.00186877
0.00187176
0.00187426
0.00187627
0.00187782
0.0018789
0.00187953
0.00187972
0.00187948
0.00187881
0.00187772
0.00187623
0.00187435
0.00187208
0.00186944
0.00186644
0.00186309
0.00185939
0.00185536
0.00185102
0.00184636
0.00184139
0.00183614
0.0018306
0.00182479
0.00181872
0.00181239
0.00180581
0.001799
0.00179197
0.00178471
0.00177725
0.00176959
0.00176173
0.0017537
0.0017455
0.00173713
0.00172861
0.00171994
0.00171113
0.0017022
0.00169314
0.00168397
0.0016747
0.00166533
0.00165587
0.00164633
0.00163671
0.00162703
0.00161728
0.00160748
0.00159763
0.00158774
0.00157782
0.00156786
0.00155788
0.00154787
0.00153785
0.00152782
0.00151777
0.00150773
0.00149768