/*--------------------------------*- C++ -*----------------------------------*\
  =========                 |
  \\      /  F ield         | OpenFOAM: The Open Source CFD Toolbox
   \\    /   O peration     | Website:  https://openfoam.org
    \\  /    A nd           | Version:  8
     \\/     M anipulation  |
\*---------------------------------------------------------------------------*/
FoamFile
{
    version     2.0;
    format      ascii;
    class       surfaceScalarField;
    location    "3600";
    object      phi;
}
// * * * * * * * * * * * * * * * * * * * * * * * * * * * * * * * * * * * * * //

dimensions      [1 0 -1 0 0 0 0];

internalField   nonuniform List<scalar> 
114370
(
5.90344e-10
1.24797e-13
-5.90468e-10
1.508e-09
4.44483e-14
-9.19528e-10
2.29818e-09
2.02855e-14
-7.91109e-10
2.78081e-09
1.1716e-14
-4.83301e-10
2.95028e-09
8.40256e-15
-1.70033e-10
2.84669e-09
6.93613e-15
1.03095e-10
2.51973e-09
6.28774e-15
3.26515e-10
2.01558e-09
6.09889e-15
5.0375e-10
1.37262e-09
6.1278e-15
6.42597e-10
6.21445e-10
6.15782e-15
7.50841e-10
-2.13464e-10
6.04844e-15
8.34604e-10
-1.11202e-09
5.76418e-15
8.98274e-10
-2.0583e-09
5.4292e-15
9.46024e-10
-3.04014e-09
5.14161e-15
9.81604e-10
-4.04775e-09
4.90618e-15
1.00739e-09
-5.07319e-09
4.72323e-15
1.02523e-09
-6.10995e-09
4.5778e-15
1.03658e-09
-7.15268e-09
4.44788e-15
1.04255e-09
-8.19688e-09
4.31406e-15
1.04404e-09
-9.2388e-09
4.16777e-15
1.04176e-09
-1.02752e-08
4.00967e-15
1.03628e-09
-1.13034e-08
3.84507e-15
1.02805e-09
-1.2321e-08
3.67971e-15
1.01744e-09
-1.33258e-08
3.51945e-15
1.00476e-09
-1.43162e-08
3.36569e-15
9.90257e-10
-1.52905e-08
3.2192e-15
9.74135e-10
-1.62471e-08
3.07878e-15
9.56567e-10
-1.71849e-08
2.94422e-15
9.37698e-10
-1.81027e-08
2.8127e-15
9.1765e-10
-1.89993e-08
2.68529e-15
8.96529e-10
-1.98738e-08
2.55984e-15
8.74426e-10
-2.07253e-08
2.43867e-15
8.51422e-10
-2.1553e-08
2.32238e-15
8.27588e-10
-2.23561e-08
2.21217e-15
8.0299e-10
-2.31338e-08
2.11014e-15
7.77687e-10
-2.38856e-08
2.01792e-15
7.51733e-10
-2.46109e-08
1.93568e-15
7.25182e-10
-2.5309e-08
1.86362e-15
6.98082e-10
-2.59796e-08
1.80079e-15
6.70481e-10
-2.66221e-08
1.74587e-15
6.42425e-10
-2.72361e-08
1.69637e-15
6.1396e-10
-2.78213e-08
1.65007e-15
5.8513e-10
-2.83773e-08
1.60459e-15
5.55979e-10
-2.8904e-08
1.55758e-15
5.26551e-10
-2.94009e-08
1.50695e-15
4.96889e-10
-2.9868e-08
1.45252e-15
4.67037e-10
-3.03051e-08
1.39299e-15
4.37038e-10
-3.07121e-08
1.32913e-15
4.06937e-10
-3.10889e-08
1.26191e-15
3.76774e-10
-3.14356e-08
1.19338e-15
3.46595e-10
-3.17521e-08
1.12507e-15
3.16441e-10
-3.20385e-08
1.05856e-15
2.86354e-10
-3.22949e-08
9.95616e-16
2.56378e-10
-3.25215e-08
9.37609e-16
2.26554e-10
-3.27185e-08
8.85024e-16
1.96923e-10
-3.28861e-08
8.37805e-16
1.67526e-10
-3.30246e-08
7.96387e-16
1.38404e-10
-3.31342e-08
7.59522e-16
1.09596e-10
-3.32154e-08
7.27428e-16
8.11402e-11
-3.32686e-08
6.99075e-16
5.30727e-11
-3.3294e-08
6.73811e-16
2.54247e-11
-3.32923e-08
6.52614e-16
-1.77161e-12
-3.32639e-08
6.35049e-16
-2.84802e-11
-3.32093e-08
6.19543e-16
-5.46715e-11
-3.3129e-08
6.06911e-16
-8.0324e-11
-3.30237e-08
5.9688e-16
-1.05412e-10
-3.28938e-08
5.89452e-16
-1.29908e-10
-3.27401e-08
5.84952e-16
-1.53782e-10
-3.25632e-08
5.83432e-16
-1.77011e-10
-3.23636e-08
5.84082e-16
-1.99571e-10
-3.21423e-08
5.88254e-16
-2.21441e-10
-3.18997e-08
5.94704e-16
-2.42603e-10
-3.16368e-08
6.03918e-16
-2.6304e-10
-3.13541e-08
6.16169e-16
-2.82737e-10
-3.10525e-08
6.31455e-16
-3.01681e-10
-3.07327e-08
6.4918e-16
-3.19862e-10
-3.03955e-08
6.69779e-16
-3.37269e-10
-3.00417e-08
6.93575e-16
-3.53896e-10
-2.9672e-08
7.203e-16
-3.69736e-10
-2.92873e-08
7.50114e-16
-3.84786e-10
-2.88883e-08
7.82693e-16
-3.99043e-10
-2.84759e-08
8.18254e-16
-4.12506e-10
-2.80508e-08
8.56958e-16
-4.25176e-10
-2.76138e-08
8.98048e-16
-4.37056e-10
-2.71658e-08
9.41903e-16
-4.4815e-10
-2.67074e-08
9.88739e-16
-4.58462e-10
-2.62395e-08
1.03774e-15
-4.68e-10
-2.57628e-08
1.0887e-15
-4.76771e-10
-2.52781e-08
1.14226e-15
-4.84786e-10
-2.47862e-08
1.19782e-15
-4.92055e-10
-2.42877e-08
1.25523e-15
-4.9859e-10
-2.37834e-08
1.31454e-15
-5.04403e-10
-2.3274e-08
1.37617e-15
-5.09509e-10
-2.27602e-08
1.43905e-15
-5.13923e-10
-2.22426e-08
1.50421e-15
-5.1766e-10
-2.1722e-08
1.57046e-15
-5.20738e-10
-2.11989e-08
1.63833e-15
-5.23174e-10
-2.06741e-08
1.70717e-15
-5.24986e-10
-2.0148e-08
1.77786e-15
-5.26193e-10
-1.96213e-08
1.84964e-15
-5.26814e-10
-1.90946e-08
1.92282e-15
-5.26869e-10
-1.85683e-08
1.99709e-15
-5.26378e-10
-1.80431e-08
2.0719e-15
-5.25363e-10
-1.75194e-08
2.14801e-15
-5.23843e-10
-1.69977e-08
2.22477e-15
-5.21839e-10
-1.64784e-08
2.30207e-15
-5.19373e-10
-1.59621e-08
2.38013e-15
-5.16466e-10
-1.54491e-08
2.45841e-15
-5.13137e-10
-1.49399e-08
2.5368e-15
-5.09409e-10
-1.44347e-08
2.61541e-15
-5.05302e-10
-1.39341e-08
2.6939e-15
-5.00835e-10
-1.34382e-08
2.77197e-15
-4.96029e-10
-1.29475e-08
2.85035e-15
-4.90903e-10
-1.24622e-08
2.92766e-15
-4.85476e-10
-1.19826e-08
3.00388e-15
-4.79766e-10
-1.1509e-08
3.07999e-15
-4.73791e-10
-1.10416e-08
3.15415e-15
-4.67568e-10
-1.05806e-08
3.22831e-15
-4.61112e-10
-1.01264e-08
3.29965e-15
-4.54438e-10
-9.67903e-09
3.36959e-15
-4.47563e-10
-9.23873e-09
3.43919e-15
-4.40497e-10
-8.80567e-09
3.50533e-15
-4.33255e-10
-8.38003e-09
3.56963e-15
-4.25847e-10
-7.96196e-09
3.63197e-15
-4.18284e-10
-7.5516e-09
3.69236e-15
-4.10576e-10
-7.14908e-09
3.74972e-15
-4.02729e-10
-6.75455e-09
3.80382e-15
-3.94751e-10
-6.36813e-09
3.85586e-15
-3.86649e-10
-5.98993e-09
3.9052e-15
-3.78427e-10
-5.62008e-09
3.95095e-15
-3.70088e-10
-5.25868e-09
3.99378e-15
-3.61636e-10
-4.90585e-09
4.03303e-15
-3.53072e-10
-4.5617e-09
4.07022e-15
-3.44396e-10
-4.22634e-09
4.10307e-15
-3.35608e-10
-3.89988e-09
4.13256e-15
-3.26706e-10
-3.58245e-09
4.15988e-15
-3.17689e-10
-3.27416e-09
4.18319e-15
-3.08553e-10
-2.97512e-09
4.20368e-15
-2.99295e-10
-2.68548e-09
4.22125e-15
-2.89911e-10
-2.40535e-09
4.23469e-15
-2.80396e-10
-2.13488e-09
4.24662e-15
-2.70745e-10
-1.8742e-09
4.25377e-15
-2.60953e-10
-1.62347e-09
4.25854e-15
-2.51015e-10
-1.38283e-09
4.26222e-15
-2.40926e-10
-1.15243e-09
4.26396e-15
-2.30681e-10
-9.32447e-10
4.26374e-15
-2.20277e-10
-7.2303e-10
4.26069e-15
-2.09711e-10
-5.24346e-10
4.25635e-15
-1.9898e-10
-3.3656e-10
4.25049e-15
-1.88086e-10
-1.5982e-10
4.24463e-15
-1.77043e-10
5.73998e-12
4.23335e-15
-1.65866e-10
1.5994e-10
4.20992e-15
-1.54509e-10
3.02591e-10
4.18411e-15
-1.42961e-10
4.33538e-10
4.16805e-15
-1.31261e-10
5.52641e-10
4.15828e-15
-1.19418e-10
6.5977e-10
4.15242e-15
-1.07447e-10
7.54812e-10
4.1511e-15
-9.5362e-11
8.37671e-10
4.15651e-15
-8.31817e-11
9.08272e-10
4.16864e-15
-7.09263e-11
9.66565e-10
4.18727e-15
-5.862e-11
1.01253e-09
4.21305e-15
-4.62909e-11
1.04616e-09
4.24556e-15
-3.39708e-11
1.06752e-09
4.28652e-15
-2.16961e-11
1.07669e-09
4.33377e-15
-9.50782e-12
1.0738e-09
4.39507e-15
2.55142e-12
1.05901e-09
4.47136e-15
1.44405e-11
1.03255e-09
4.55655e-15
2.61099e-11
9.94698e-10
4.65301e-15
3.74999e-11
9.45791e-10
4.76096e-15
4.8549e-11
8.86238e-10
4.88192e-15
5.91903e-11
8.16518e-10
5.01242e-15
6.93519e-11
7.37188e-10
5.15831e-15
7.89569e-11
6.48887e-10
5.31353e-15
8.79227e-11
5.52341e-10
5.48284e-15
9.6161e-11
4.48373e-10
5.66776e-15
1.03577e-10
3.37906e-10
5.87002e-15
1.10069e-10
2.21971e-10
6.09267e-15
1.15528e-10
1.0172e-10
6.33939e-15
1.19837e-10
-2.15702e-11
6.60648e-15
1.22867e-10
-1.46457e-10
6.87445e-15
1.24454e-10
-2.71344e-10
7.15717e-15
1.24446e-10
-3.9449e-10
7.4607e-15
1.22696e-10
-5.13988e-10
7.76901e-15
1.19038e-10
-6.27724e-10
8.07646e-15
1.13266e-10
-7.33352e-10
8.38087e-15
1.05146e-10
-8.28287e-10
8.69527e-15
9.4441e-11
-9.09669e-10
9.03786e-15
8.08752e-11
-9.74351e-10
9.4338e-15
6.4161e-11
-1.01888e-09
9.89264e-15
4.39946e-11
-1.03952e-09
1.04001e-14
2.00861e-11
-1.03232e-09
1.09047e-14
-7.77863e-12
-9.93294e-10
1.13671e-14
-3.96204e-11
-9.18782e-10
1.18096e-14
-7.5133e-11
-8.06114e-10
1.22903e-14
-1.13317e-10
-6.55079e-10
1.28877e-14
-1.51719e-10
-4.70709e-10
1.36323e-14
-1.85096e-10
-2.68507e-10
1.44833e-14
-2.02982e-10
-8.41245e-11
1.52543e-14
-1.85238e-10
1.88272e-11
1.71962e-14
-1.03927e-10
8.55424e-15
1.77157e-11
5.90051e-10
-5.90738e-10
1.5079e-09
-9.19701e-10
2.29813e-09
-7.91211e-10
2.78078e-09
-4.83376e-10
2.95025e-09
-1.70093e-10
2.84666e-09
1.03042e-10
2.5197e-09
3.26469e-10
2.01555e-09
5.03709e-10
1.3726e-09
6.42559e-10
6.21426e-10
7.50807e-10
-2.13481e-10
8.34573e-10
-1.11203e-09
8.98246e-10
-2.05831e-09
9.45998e-10
-3.04015e-09
9.8158e-10
-4.04775e-09
1.00737e-09
-5.07318e-09
1.02521e-09
-6.10995e-09
1.03656e-09
-7.15267e-09
1.04254e-09
-8.19687e-09
1.04403e-09
-9.23879e-09
1.04175e-09
-1.02752e-08
1.03626e-09
-1.13034e-08
1.02803e-09
-1.23209e-08
1.01743e-09
-1.33258e-08
1.00475e-09
-1.43162e-08
9.90244e-10
-1.52904e-08
9.74123e-10
-1.62471e-08
9.56556e-10
-1.71849e-08
9.37687e-10
-1.81026e-08
9.17639e-10
-1.89993e-08
8.96518e-10
-1.98738e-08
8.74415e-10
-2.07253e-08
8.51412e-10
-2.1553e-08
8.27578e-10
-2.2356e-08
8.0298e-10
-2.31338e-08
7.77677e-10
-2.38856e-08
7.51724e-10
-2.46108e-08
7.25173e-10
-2.5309e-08
6.98073e-10
-2.59795e-08
6.70473e-10
-2.6622e-08
6.42417e-10
-2.72361e-08
6.13952e-10
-2.78213e-08
5.85122e-10
-2.83773e-08
5.55971e-10
-2.89039e-08
5.26542e-10
-2.94009e-08
4.96881e-10
-2.98679e-08
4.67029e-10
-3.0305e-08
4.3703e-10
-3.0712e-08
4.06928e-10
-3.10889e-08
3.76766e-10
-3.14355e-08
3.46586e-10
-3.1752e-08
3.16432e-10
-3.20384e-08
2.86346e-10
-3.22949e-08
2.5637e-10
-3.25215e-08
2.26545e-10
-3.27185e-08
1.96914e-10
-3.28861e-08
1.67517e-10
-3.30245e-08
1.38395e-10
-3.31342e-08
1.09587e-10
-3.32154e-08
8.1131e-11
-3.32685e-08
5.30634e-11
-3.3294e-08
2.54153e-11
-3.32923e-08
-1.78116e-12
-3.32638e-08
-2.84899e-11
-3.32092e-08
-5.46813e-11
-3.3129e-08
-8.0334e-11
-3.30236e-08
-1.05422e-10
-3.28938e-08
-1.29918e-10
-3.274e-08
-1.53793e-10
-3.25631e-08
-1.77022e-10
-3.23636e-08
-1.99582e-10
-3.21422e-08
-2.21452e-10
-3.18997e-08
-2.42615e-10
-3.16367e-08
-2.63052e-10
-3.1354e-08
-2.82749e-10
-3.10524e-08
-3.01693e-10
-3.07326e-08
-3.19874e-10
-3.03954e-08
-3.37282e-10
-3.00416e-08
-3.53909e-10
-2.9672e-08
-3.69749e-10
-2.92872e-08
-3.84799e-10
-2.88883e-08
-3.99056e-10
-2.84759e-08
-4.1252e-10
-2.80508e-08
-4.2519e-10
-2.76138e-08
-4.37071e-10
-2.71657e-08
-4.48164e-10
-2.67074e-08
-4.58477e-10
-2.62395e-08
-4.68015e-10
-2.57628e-08
-4.76787e-10
-2.52781e-08
-4.84803e-10
-2.47861e-08
-4.92072e-10
-2.42876e-08
-4.98607e-10
-2.37833e-08
-5.0442e-10
-2.32739e-08
-5.09527e-10
-2.27601e-08
-5.13941e-10
-2.22426e-08
-5.17679e-10
-2.17219e-08
-5.20757e-10
-2.11989e-08
-5.23193e-10
-2.0674e-08
-5.25006e-10
-2.01479e-08
-5.26213e-10
-1.96213e-08
-5.26834e-10
-1.90945e-08
-5.2689e-10
-1.85683e-08
-5.264e-10
-1.8043e-08
-5.25385e-10
-1.75193e-08
-5.23865e-10
-1.69976e-08
-5.21862e-10
-1.64784e-08
-5.19396e-10
-1.59621e-08
-5.16489e-10
-1.54491e-08
-5.13162e-10
-1.49398e-08
-5.09434e-10
-1.44347e-08
-5.05327e-10
-1.3934e-08
-5.00861e-10
-1.34382e-08
-4.96056e-10
-1.29474e-08
-4.9093e-10
-1.24621e-08
-4.85504e-10
-1.19825e-08
-4.79794e-10
-1.15089e-08
-4.7382e-10
-1.10415e-08
-4.67597e-10
-1.05806e-08
-4.61141e-10
-1.01264e-08
-4.54469e-10
-9.679e-09
-4.47593e-10
-9.2387e-09
-4.40529e-10
-8.80565e-09
-4.33287e-10
-8.38001e-09
-4.2588e-10
-7.96193e-09
-4.18318e-10
-7.55157e-09
-4.10609e-10
-7.14906e-09
-4.02763e-10
-6.75453e-09
-3.94786e-10
-6.36811e-09
-3.86685e-10
-5.98991e-09
-3.78463e-10
-5.62005e-09
-3.70125e-10
-5.25865e-09
-3.61673e-10
-4.90582e-09
-3.53109e-10
-4.56167e-09
-3.44434e-10
-4.22631e-09
-3.35646e-10
-3.89986e-09
-3.26745e-10
-3.58242e-09
-3.17729e-10
-3.27413e-09
-3.08594e-10
-2.9751e-09
-2.99336e-10
-2.68545e-09
-2.89953e-10
-2.40533e-09
-2.80438e-10
-2.13486e-09
-2.70787e-10
-1.87418e-09
-2.60996e-10
-1.62345e-09
-2.51058e-10
-1.3828e-09
-2.4097e-10
-1.15241e-09
-2.30726e-10
-9.32422e-10
-2.20322e-10
-7.23005e-10
-2.09756e-10
-5.24321e-10
-1.99026e-10
-3.36535e-10
-1.88132e-10
-1.59795e-10
-1.7709e-10
5.7649e-12
-1.65913e-10
1.59965e-10
-1.54557e-10
3.02616e-10
-1.4301e-10
4.33564e-10
-1.31309e-10
5.52666e-10
-1.19467e-10
6.59795e-10
-1.07496e-10
7.54837e-10
-9.54117e-11
8.37696e-10
-8.32317e-11
9.08298e-10
-7.09767e-11
9.6659e-10
-5.86709e-11
1.01255e-09
-4.63421e-11
1.04619e-09
-3.40225e-11
1.06755e-09
-2.17483e-11
1.07672e-09
-9.56043e-12
1.07382e-09
2.49829e-12
1.05904e-09
1.43868e-11
1.03258e-09
2.60556e-11
9.94721e-10
3.7445e-11
9.45814e-10
4.84935e-11
8.8626e-10
5.9134e-11
8.1654e-10
6.92949e-11
7.37209e-10
7.88991e-11
6.48907e-10
8.7864e-11
5.52361e-10
9.61013e-11
4.48392e-10
1.03516e-10
3.37924e-10
1.10007e-10
2.21988e-10
1.15465e-10
1.01736e-10
1.19773e-10
-2.15553e-11
1.22802e-10
-1.46443e-10
1.24388e-10
-2.71331e-10
1.24378e-10
-3.94478e-10
1.22627e-10
-5.13977e-10
1.18968e-10
-6.27714e-10
1.13193e-10
-7.33343e-10
1.05071e-10
-8.28279e-10
9.43648e-11
-9.09662e-10
8.0797e-11
-9.74346e-10
6.40805e-11
-1.01888e-09
4.39114e-11
-1.03952e-09
2e-11
-1.03232e-09
-7.86821e-12
-9.93294e-10
-3.97138e-11
-9.18784e-10
-7.5231e-11
-8.0612e-10
-1.1342e-10
-6.55088e-10
-1.51829e-10
-4.70725e-10
-1.85213e-10
-2.68536e-10
-2.03109e-10
-8.41793e-11
-1.85376e-10
1.87299e-11
-1.04084e-10
1.75546e-11
9.28225e-10
3.87571e-14
-1.52042e-09
1.49701e-09
-3.31201e-15
-1.49e-09
1.78148e-09
-4.19282e-15
-1.07636e-09
1.85108e-09
-4.38051e-15
-5.53509e-10
1.72762e-09
-4.14094e-15
-4.71017e-11
1.43235e-09
-3.79361e-15
3.97899e-10
9.88006e-10
-3.35882e-15
7.70452e-10
4.17018e-10
-2.88779e-15
1.07437e-09
-2.59309e-10
-2.44164e-15
1.31858e-09
-1.02151e-09
-2.07408e-15
1.51273e-09
-1.85278e-09
-1.79504e-15
1.66558e-09
-2.73916e-09
-1.57248e-15
1.7844e-09
-3.66889e-09
-1.37583e-15
1.87551e-09
-4.63184e-09
-1.19322e-15
1.94433e-09
-5.61954e-09
-1.02075e-15
1.99489e-09
-6.62492e-09
-8.61386e-16
2.03042e-09
-7.64201e-09
-7.19507e-16
2.05349e-09
-8.66575e-09
-6.00395e-16
2.06613e-09
-9.69185e-09
-5.05514e-16
2.06999e-09
-1.07166e-08
-4.33589e-16
2.06639e-09
-1.17369e-08
-3.8118e-16
2.05642e-09
-1.27499e-08
-3.43216e-16
2.04095e-09
-1.37533e-08
-3.15931e-16
2.0207e-09
-1.4745e-08
-2.9572e-16
1.99627e-09
-1.5723e-08
-2.80225e-16
1.96814e-09
-1.66857e-08
-2.68009e-16
1.93673e-09
-1.76316e-08
-2.58313e-16
1.90237e-09
-1.85594e-08
-2.50216e-16
1.86537e-09
-1.94678e-08
-2.43257e-16
1.82597e-09
-2.03557e-08
-2.36731e-16
1.78438e-09
-2.12222e-08
-2.30503e-16
1.74079e-09
-2.20662e-08
-2.23706e-16
1.69536e-09
-2.28869e-08
-2.1604e-16
1.64825e-09
-2.36836e-08
-2.07074e-16
1.59958e-09
-2.44555e-08
-1.96237e-16
1.54947e-09
-2.52019e-08
-1.83448e-16
1.49805e-09
-2.59222e-08
-1.68951e-16
1.4454e-09
-2.66158e-08
-1.53017e-16
1.39164e-09
-2.72823e-08
-1.36405e-16
1.33686e-09
-2.79211e-08
-1.19875e-16
1.28116e-09
-2.85318e-08
-1.04428e-16
1.22461e-09
-2.91141e-08
-9.08519e-17
1.16733e-09
-2.96675e-08
-7.96334e-17
1.10938e-09
-3.01919e-08
-7.1315e-17
1.05087e-09
-3.0687e-08
-6.57612e-17
9.91868e-10
-3.11525e-08
-6.26737e-17
9.32475e-10
-3.15883e-08
-6.14292e-17
8.72773e-10
-3.19942e-08
-6.14315e-17
8.12848e-10
-3.23703e-08
-6.17859e-17
7.52787e-10
-3.27165e-08
-6.18692e-17
6.92674e-10
-3.30327e-08
-6.09224e-17
6.32595e-10
-3.3319e-08
-5.89726e-17
5.72635e-10
-3.35756e-08
-5.54506e-17
5.12876e-10
-3.38025e-08
-5.03835e-17
4.53402e-10
-3.39999e-08
-4.41238e-17
3.94294e-10
-3.41681e-08
-3.68881e-17
3.35633e-10
-3.43073e-08
-2.90019e-17
2.77497e-10
-3.44177e-08
-2.06819e-17
2.19964e-10
-3.44997e-08
-1.23348e-17
1.63109e-10
-3.45537e-08
-4.28576e-18
1.07002e-10
-3.45801e-08
3.95305e-18
5.17134e-11
-3.45792e-08
1.13516e-17
-2.69103e-12
-3.45516e-08
1.81268e-17
-5.61486e-11
-3.44978e-08
2.48207e-17
-1.086e-10
-3.44182e-08
3.1325e-17
-1.5999e-10
-3.43134e-08
3.75311e-17
-2.10261e-10
-3.4184e-08
4.33849e-17
-2.59361e-10
-3.40306e-08
4.9076e-17
-3.07237e-10
-3.38539e-08
5.44962e-17
-3.53843e-10
-3.36544e-08
5.95368e-17
-3.99133e-10
-3.34328e-08
6.43065e-17
-4.43067e-10
-3.31899e-08
6.87509e-17
-4.85608e-10
-3.29263e-08
7.30597e-17
-5.26723e-10
-3.26427e-08
7.69621e-17
-5.66382e-10
-3.23399e-08
8.05662e-17
-6.04561e-10
-3.20186e-08
8.39264e-17
-6.41236e-10
-3.16796e-08
8.69072e-17
-6.76389e-10
-3.13236e-08
8.96169e-17
-7.10005e-10
-3.09513e-08
9.20827e-17
-7.42071e-10
-3.05636e-08
9.40606e-17
-7.7258e-10
-3.01612e-08
9.58758e-17
-8.01526e-10
-2.97449e-08
9.72032e-17
-8.28907e-10
-2.93155e-08
9.82866e-17
-8.54725e-10
-2.88736e-08
9.89093e-17
-8.78984e-10
-2.84202e-08
9.90169e-17
-9.0169e-10
-2.79559e-08
9.88535e-17
-9.22855e-10
-2.74815e-08
9.80938e-17
-9.4249e-10
-2.69978e-08
9.69005e-17
-9.60612e-10
-2.65054e-08
9.52463e-17
-9.77238e-10
-2.60052e-08
9.32398e-17
-9.92388e-10
-2.54978e-08
9.05286e-17
-1.00609e-09
-2.4984e-08
8.7465e-17
-1.01836e-09
-2.44644e-08
8.39407e-17
-1.02923e-09
-2.39397e-08
8.00098e-17
-1.03872e-09
-2.34106e-08
7.56452e-17
-1.04688e-09
-2.28778e-08
7.07657e-17
-1.05372e-09
-2.23418e-08
6.55609e-17
-1.05929e-09
-2.18033e-08
5.98411e-17
-1.06362e-09
-2.12629e-08
5.38232e-17
-1.06675e-09
-2.07211e-08
4.72633e-17
-1.0687e-09
-2.01786e-08
4.05678e-17
-1.06953e-09
-1.96359e-08
3.33845e-17
-1.06926e-09
-1.90934e-08
2.57133e-17
-1.06794e-09
-1.85518e-08
1.78253e-17
-1.06561e-09
-1.80115e-08
9.53082e-18
-1.06231e-09
-1.74729e-08
9.6528e-19
-1.05808e-09
-1.69366e-08
-8.0068e-18
-1.05295e-09
-1.64029e-08
-1.71686e-17
-1.04697e-09
-1.58723e-08
-2.67369e-17
-1.04018e-09
-1.53452e-08
-3.67659e-17
-1.03262e-09
-1.48219e-08
-4.67408e-17
-1.02433e-09
-1.43028e-08
-5.71763e-17
-1.01533e-09
-1.37882e-08
-6.78829e-17
-1.00568e-09
-1.32784e-08
-7.88063e-17
-9.95406e-10
-1.27738e-08
-8.99465e-17
-9.84543e-10
-1.22747e-08
-1.01385e-16
-9.73125e-10
-1.17813e-08
-1.1285e-16
-9.61185e-10
-1.12938e-08
-1.24478e-16
-9.48754e-10
-1.08126e-08
-1.36486e-16
-9.35861e-10
-1.03378e-08
-1.48493e-16
-9.22533e-10
-9.86976e-09
-1.60636e-16
-9.08796e-10
-9.40856e-09
-1.7286e-16
-8.94673e-10
-8.95444e-09
-1.8503e-16
-8.80187e-10
-8.50759e-09
-1.97146e-16
-8.65357e-10
-8.06819e-09
-2.09452e-16
-8.50201e-10
-7.63642e-09
-2.21676e-16
-8.34735e-10
-7.21243e-09
-2.33928e-16
-8.18972e-10
-6.79639e-09
-2.46098e-16
-8.02923e-10
-6.38847e-09
-2.58078e-16
-7.86598e-10
-5.9888e-09
-2.69896e-16
-7.70003e-10
-5.59754e-09
-2.81823e-16
-7.53143e-10
-5.21484e-09
-2.9337e-16
-7.36021e-10
-4.84085e-09
-3.04701e-16
-7.18639e-10
-4.47573e-09
-3.1576e-16
-7.00994e-10
-4.11961e-09
-3.26603e-16
-6.83084e-10
-3.77266e-09
-3.36904e-16
-6.64905e-10
-3.43503e-09
-3.47151e-16
-6.46451e-10
-3.10689e-09
-3.56911e-16
-6.27715e-10
-2.78839e-09
-3.66291e-16
-6.08688e-10
-2.4797e-09
-3.75238e-16
-5.89361e-10
-2.181e-09
-3.8386e-16
-5.69725e-10
-1.89247e-09
-3.92212e-16
-5.4977e-10
-1.61429e-09
-3.99696e-16
-5.29485e-10
-1.34665e-09
-4.06639e-16
-5.08861e-10
-1.08973e-09
-4.12769e-16
-4.87889e-10
-8.43744e-10
-4.19008e-16
-4.66562e-10
-6.0888e-10
-4.24598e-16
-4.44875e-10
-3.85338e-10
-4.29754e-16
-4.22825e-10
-1.73314e-10
-4.34098e-16
-4.00417e-10
2.69961e-11
-4.38117e-16
-3.77661e-10
2.15363e-10
-4.42732e-16
-3.54545e-10
3.91575e-10
-4.44801e-16
-3.31036e-10
5.55451e-10
-4.43998e-16
-3.07153e-10
7.06799e-10
-4.4184e-16
-2.82928e-10
8.45442e-10
-4.38871e-16
-2.58381e-10
9.71211e-10
-4.34872e-16
-2.33538e-10
1.08395e-09
-4.30658e-16
-2.0843e-10
1.18354e-09
-4.2574e-16
-1.83092e-10
1.26984e-09
-4.19956e-16
-1.57565e-10
1.34279e-09
-4.1401e-16
-1.31898e-10
1.40231e-09
-4.07903e-16
-1.06147e-10
1.44838e-09
-4.01418e-16
-8.03753e-11
1.48099e-09
-3.94718e-16
-5.46554e-11
1.50021e-09
-3.87855e-16
-2.90668e-11
1.50611e-09
-3.80824e-16
-3.69712e-12
1.49884e-09
-3.74127e-16
2.13623e-11
1.47858e-09
-3.66782e-16
4.60093e-11
1.44559e-09
-3.60035e-16
7.0127e-11
1.40019e-09
-3.5356e-16
9.35904e-11
1.34275e-09
-3.47792e-16
1.16265e-10
1.27372e-09
-3.43436e-16
1.38004e-10
1.19364e-09
-3.3984e-16
1.58653e-10
1.10314e-09
-3.37384e-16
1.78043e-10
1.00291e-09
-3.36286e-16
1.95996e-10
8.93769e-10
-3.35351e-16
2.1232e-10
7.76622e-10
-3.35015e-16
2.26808e-10
6.52494e-10
-3.34463e-16
2.39242e-10
5.22523e-10
-3.33154e-16
2.49384e-10
3.8798e-10
-3.31847e-16
2.56978e-10
2.50261e-10
-3.27668e-16
2.61732e-10
1.10904e-10
-3.21212e-16
2.63351e-10
-2.83897e-11
-3.17468e-16
2.61529e-10
-1.65733e-10
-3.1947e-16
2.55909e-10
-2.99066e-10
-3.28084e-16
2.46115e-10
-4.26169e-10
-3.4114e-16
2.31751e-10
-5.44616e-10
-3.55062e-16
2.12378e-10
-6.5178e-10
-3.62584e-16
1.87514e-10
-7.44829e-10
-3.56982e-16
1.56668e-10
-8.20737e-10
-3.42592e-16
1.19342e-10
-8.76318e-10
-3.30802e-16
7.50848e-11
-9.08279e-10
-3.3997e-16
2.35771e-11
-9.13342e-10
-3.75642e-16
-3.51911e-11
-8.88474e-10
-4.26568e-16
-1.00667e-10
-8.31224e-10
-4.63459e-16
-1.71271e-10
-7.40245e-10
-4.69157e-16
-2.43451e-10
-6.16066e-10
-4.57158e-16
-3.10091e-10
-4.62146e-10
-4.3362e-16
-3.5781e-10
-2.86072e-10
-3.60406e-16
-3.62373e-10
-1.07898e-10
3.2699e-16
-2.83442e-10
-7.72833e-15
-9.11228e-11
9.28045e-10
-1.52049e-09
1.49696e-09
-1.49003e-09
1.78144e-09
-1.07637e-09
1.85105e-09
-5.53513e-10
1.7276e-09
-4.71032e-11
1.43233e-09
3.97899e-10
9.87989e-10
7.70451e-10
4.17004e-10
1.07437e-09
-2.59319e-10
1.31858e-09
-1.02152e-09
1.51273e-09
-1.85278e-09
1.66558e-09
-2.73917e-09
1.7844e-09
-3.66889e-09
1.87551e-09
-4.63183e-09
1.94432e-09
-5.61954e-09
1.99488e-09
-6.62491e-09
2.03042e-09
-7.642e-09
2.05348e-09
-8.66573e-09
2.06612e-09
-9.69183e-09
2.06998e-09
-1.07166e-08
2.06639e-09
-1.17369e-08
2.05642e-09
-1.27499e-08
2.04095e-09
-1.37533e-08
2.0207e-09
-1.47449e-08
1.99627e-09
-1.57229e-08
1.96814e-09
-1.66856e-08
1.93672e-09
-1.76315e-08
1.90237e-09
-1.85593e-08
1.86537e-09
-1.94677e-08
1.82596e-09
-2.03557e-08
1.78437e-09
-2.12221e-08
1.74079e-09
-2.20662e-08
1.69536e-09
-2.28869e-08
1.64825e-09
-2.36836e-08
1.59958e-09
-2.44554e-08
1.54947e-09
-2.52018e-08
1.49804e-09
-2.59221e-08
1.4454e-09
-2.66158e-08
1.39164e-09
-2.72822e-08
1.33686e-09
-2.7921e-08
1.28115e-09
-2.85317e-08
1.22461e-09
-2.9114e-08
1.16732e-09
-2.96675e-08
1.10938e-09
-3.01919e-08
1.05086e-09
-3.06869e-08
9.91866e-10
-3.11524e-08
9.32473e-10
-3.15882e-08
8.72771e-10
-3.19942e-08
8.12846e-10
-3.23703e-08
7.52785e-10
-3.27164e-08
6.92672e-10
-3.30326e-08
6.32593e-10
-3.3319e-08
5.72633e-10
-3.35755e-08
5.12874e-10
-3.38024e-08
4.53399e-10
-3.39999e-08
3.94292e-10
-3.41681e-08
3.3563e-10
-3.43072e-08
2.77495e-10
-3.44176e-08
2.19962e-10
-3.44997e-08
1.63106e-10
-3.45537e-08
1.07e-10
-3.458e-08
5.1711e-11
-3.45792e-08
-2.69351e-12
-3.45516e-08
-5.61511e-11
-3.44977e-08
-1.08603e-10
-3.44181e-08
-1.59992e-10
-3.43133e-08
-2.10264e-10
-3.4184e-08
-2.59363e-10
-3.40306e-08
-3.0724e-10
-3.38538e-08
-3.53845e-10
-3.36543e-08
-3.99135e-10
-3.34328e-08
-4.43069e-10
-3.31899e-08
-4.8561e-10
-3.29262e-08
-5.26725e-10
-3.26427e-08
-5.66385e-10
-3.23399e-08
-6.04564e-10
-3.20186e-08
-6.41239e-10
-3.16796e-08
-6.76392e-10
-3.13235e-08
-7.10008e-10
-3.09513e-08
-7.42074e-10
-3.05636e-08
-7.72583e-10
-3.01612e-08
-8.01529e-10
-2.97449e-08
-8.28911e-10
-2.93154e-08
-8.54728e-10
-2.88736e-08
-8.78987e-10
-2.84202e-08
-9.01693e-10
-2.79559e-08
-9.22858e-10
-2.74815e-08
-9.42493e-10
-2.69977e-08
-9.60615e-10
-2.65054e-08
-9.77241e-10
-2.60052e-08
-9.92392e-10
-2.54978e-08
-1.00609e-09
-2.4984e-08
-1.01836e-09
-2.44644e-08
-1.02923e-09
-2.39397e-08
-1.03873e-09
-2.34106e-08
-1.04688e-09
-2.28777e-08
-1.05373e-09
-2.23417e-08
-1.0593e-09
-2.18032e-08
-1.06363e-09
-2.12628e-08
-1.06675e-09
-2.07211e-08
-1.06871e-09
-2.01786e-08
-1.06953e-09
-1.96358e-08
-1.06927e-09
-1.90934e-08
-1.06795e-09
-1.85518e-08
-1.06562e-09
-1.80115e-08
-1.06232e-09
-1.74729e-08
-1.05808e-09
-1.69366e-08
-1.05296e-09
-1.64029e-08
-1.04698e-09
-1.58723e-08
-1.04019e-09
-1.53452e-08
-1.03263e-09
-1.48218e-08
-1.02433e-09
-1.43027e-08
-1.01534e-09
-1.37881e-08
-1.00569e-09
-1.32784e-08
-9.9541e-10
-1.27738e-08
-9.84547e-10
-1.22747e-08
-9.7313e-10
-1.17812e-08
-9.6119e-10
-1.12938e-08
-9.48759e-10
-1.08126e-08
-9.35866e-10
-1.03378e-08
-9.22538e-10
-9.86974e-09
-9.08801e-10
-9.40853e-09
-8.94678e-10
-8.95441e-09
-8.80192e-10
-8.50757e-09
-8.65363e-10
-8.06817e-09
-8.50207e-10
-7.63639e-09
-8.34741e-10
-7.21241e-09
-8.18978e-10
-6.79637e-09
-8.02929e-10
-6.38844e-09
-7.86604e-10
-5.98877e-09
-7.70009e-10
-5.59751e-09
-7.53149e-10
-5.21482e-09
-7.36027e-10
-4.84083e-09
-7.18645e-10
-4.4757e-09
-7.01e-10
-4.11959e-09
-6.83091e-10
-3.77264e-09
-6.64912e-10
-3.43501e-09
-6.46458e-10
-3.10686e-09
-6.27722e-10
-2.78836e-09
-6.08695e-10
-2.47968e-09
-5.89368e-10
-2.18098e-09
-5.69732e-10
-1.89245e-09
-5.49777e-10
-1.61427e-09
-5.29492e-10
-1.34662e-09
-5.08868e-10
-1.08971e-09
-4.87897e-10
-8.43721e-10
-4.6657e-10
-6.08857e-10
-4.44883e-10
-3.85315e-10
-4.22833e-10
-1.7329e-10
-4.00424e-10
2.70196e-11
-3.77669e-10
2.15387e-10
-3.54552e-10
3.91599e-10
-3.31043e-10
5.55474e-10
-3.07161e-10
7.06823e-10
-2.82936e-10
8.45466e-10
-2.58389e-10
9.71235e-10
-2.33546e-10
1.08398e-09
-2.08438e-10
1.18356e-09
-1.831e-10
1.26987e-09
-1.57573e-10
1.34281e-09
-1.31906e-10
1.40233e-09
-1.06155e-10
1.4484e-09
-8.03836e-11
1.48102e-09
-5.46637e-11
1.50023e-09
-2.90751e-11
1.50613e-09
-3.70546e-12
1.49886e-09
2.1354e-11
1.4786e-09
4.6001e-11
1.44562e-09
7.01186e-11
1.40021e-09
9.3582e-11
1.34277e-09
1.16256e-10
1.27374e-09
1.37996e-10
1.19366e-09
1.58644e-10
1.10316e-09
1.78035e-10
1.00293e-09
1.95988e-10
8.93786e-10
2.12311e-10
7.76639e-10
2.268e-10
6.5251e-10
2.39234e-10
5.22538e-10
2.49375e-10
3.87994e-10
2.56969e-10
2.50274e-10
2.61724e-10
1.10917e-10
2.63342e-10
-2.83781e-11
2.6152e-10
-1.65722e-10
2.55899e-10
-2.99056e-10
2.46105e-10
-4.2616e-10
2.31741e-10
-5.44608e-10
2.12367e-10
-6.51773e-10
1.87503e-10
-7.44823e-10
1.56656e-10
-8.20732e-10
1.19329e-10
-8.76313e-10
7.50716e-11
-9.08276e-10
2.35627e-11
-9.1334e-10
-3.52069e-11
-8.88473e-10
-1.00685e-10
-8.31225e-10
-1.71291e-10
-7.40248e-10
-2.43474e-10
-6.16073e-10
-3.10119e-10
-4.6216e-10
-3.57843e-10
-2.86108e-10
-3.62413e-10
-1.07989e-10
-2.83494e-10
-9.11837e-11
7.70459e-10
1.50184e-14
-2.29181e-09
1.05228e-09
-5.33089e-15
-1.77265e-09
1.05946e-09
-3.29475e-15
-1.08379e-09
9.01691e-10
-2.76255e-15
-3.95923e-10
6.1467e-10
-2.4157e-15
2.39771e-10
2.14524e-10
-2.15393e-15
7.97917e-10
-2.87519e-10
-1.88884e-15
1.27238e-09
-8.80431e-10
-1.61999e-15
1.66718e-09
-1.55275e-09
-1.37468e-15
1.99081e-09
-2.29313e-09
-1.17553e-15
2.25302e-09
-3.09079e-09
-1.01975e-15
2.46316e-09
-3.936e-09
-8.88033e-16
2.62953e-09
-4.81996e-09
-7.67347e-16
2.7594e-09
-5.7347e-09
-6.5387e-16
2.859e-09
-6.67322e-09
-5.49933e-16
2.93334e-09
-7.62942e-09
-4.57975e-16
2.98657e-09
-8.59803e-09
-3.80193e-16
3.02203e-09
-9.57442e-09
-3.179e-16
3.04247e-09
-1.05546e-08
-2.71288e-16
3.05011e-09
-1.1535e-08
-2.39243e-16
3.04679e-09
-1.25127e-08
-2.19382e-16
3.03402e-09
-1.34848e-08
-2.09034e-16
3.01305e-09
-1.44491e-08
-2.05354e-16
2.98489e-09
-1.54033e-08
-2.05794e-16
2.95042e-09
-1.63455e-08
-2.08374e-16
2.91035e-09
-1.72741e-08
-2.11578e-16
2.86529e-09
-1.81875e-08
-2.14388e-16
2.81574e-09
-1.90843e-08
-2.15965e-16
2.76213e-09
-1.99632e-08
-2.15793e-16
2.70485e-09
-2.08231e-08
-2.13589e-16
2.64422e-09
-2.16628e-08
-2.09147e-16
2.58051e-09
-2.24815e-08
-2.0247e-16
2.51399e-09
-2.32781e-08
-1.93827e-16
2.44487e-09
-2.40519e-08
-1.83314e-16
2.37335e-09
-2.48021e-08
-1.71296e-16
2.29963e-09
-2.5528e-08
-1.58044e-16
2.22387e-09
-2.62288e-08
-1.44021e-16
2.14624e-09
-2.69041e-08
-1.29725e-16
2.06689e-09
-2.75532e-08
-1.15579e-16
1.98596e-09
-2.81757e-08
-1.02232e-16
1.9036e-09
-2.87711e-08
-9.00781e-17
1.81995e-09
-2.93389e-08
-7.94144e-17
1.73515e-09
-2.98789e-08
-7.0255e-17
1.64931e-09
-3.03906e-08
-6.24236e-17
1.56259e-09
-3.08739e-08
-5.55136e-17
1.47511e-09
-3.13285e-08
-4.91457e-17
1.387e-09
-3.17541e-08
-4.27912e-17
1.2984e-09
-3.21507e-08
-3.61384e-17
1.20942e-09
-3.25181e-08
-2.88621e-17
1.12021e-09
-3.28564e-08
-2.08404e-17
1.03088e-09
-3.31654e-08
-1.19512e-17
9.41572e-10
-3.34452e-08
-2.34364e-18
8.52405e-10
-3.36958e-08
7.99583e-18
7.63506e-10
-3.39174e-08
1.88639e-17
6.74999e-10
-3.41102e-08
3.00438e-17
5.87005e-10
-3.42742e-08
4.13592e-17
4.99644e-10
-3.44098e-08
5.26476e-17
4.13034e-10
-3.45171e-08
6.39225e-17
3.27289e-10
-3.45966e-08
7.48722e-17
2.42521e-10
-3.46484e-08
8.54966e-17
1.58837e-10
-3.46731e-08
9.57823e-17
7.63411e-11
-3.46709e-08
1.05797e-16
-4.86855e-12
-3.46424e-08
1.15446e-16
-8.46954e-11
-3.4588e-08
1.24878e-16
-1.63047e-10
-3.45081e-08
1.33903e-16
-2.39836e-10
-3.44034e-08
1.42631e-16
-3.14979e-10
-3.42744e-08
1.51019e-16
-3.88396e-10
-3.41217e-08
1.59123e-16
-4.60012e-10
-3.39458e-08
1.66902e-16
-5.29755e-10
-3.37474e-08
1.74315e-16
-5.9756e-10
-3.35271e-08
1.81375e-16
-6.63367e-10
-3.32856e-08
1.88056e-16
-7.27119e-10
-3.30236e-08
1.94547e-16
-7.88768e-10
-3.27418e-08
2.00686e-16
-8.48269e-10
-3.24408e-08
2.06473e-16
-9.05582e-10
-3.21214e-08
2.11907e-16
-9.60675e-10
-3.17843e-08
2.17097e-16
-1.01352e-09
-3.14302e-08
2.21922e-16
-1.06409e-09
-3.10599e-08
2.26434e-16
-1.11237e-09
-3.06742e-08
2.30581e-16
-1.15835e-09
-3.02737e-08
2.34443e-16
-1.20201e-09
-2.98593e-08
2.3794e-16
-1.24335e-09
-2.94317e-08
2.41138e-16
-1.28238e-09
-2.89916e-08
2.44024e-16
-1.3191e-09
-2.85398e-08
2.46491e-16
-1.35352e-09
-2.8077e-08
2.48713e-16
-1.38566e-09
-2.7604e-08
2.50488e-16
-1.41552e-09
-2.71215e-08
2.52019e-16
-1.44314e-09
-2.66303e-08
2.53253e-16
-1.46854e-09
-2.6131e-08
2.54296e-16
-1.49175e-09
-2.56243e-08
2.54906e-16
-1.5128e-09
-2.51109e-08
2.55326e-16
-1.53173e-09
-2.45916e-08
2.55434e-16
-1.54857e-09
-2.4067e-08
2.55325e-16
-1.56337e-09
-2.35378e-08
2.55054e-16
-1.57617e-09
-2.30045e-08
2.54404e-16
-1.58703e-09
-2.24679e-08
2.53848e-16
-1.59598e-09
-2.19285e-08
2.52899e-16
-1.60307e-09
-2.13869e-08
2.51856e-16
-1.60837e-09
-2.08437e-08
2.5069e-16
-1.61192e-09
-2.02995e-08
2.49417e-16
-1.61378e-09
-1.97548e-08
2.47953e-16
-1.614e-09
-1.92101e-08
2.46408e-16
-1.61265e-09
-1.8666e-08
2.4485e-16
-1.60978e-09
-1.81229e-08
2.4321e-16
-1.60544e-09
-1.75814e-08
2.4153e-16
-1.59971e-09
-1.70417e-08
2.39782e-16
-1.59263e-09
-1.65045e-08
2.37912e-16
-1.58426e-09
-1.59701e-08
2.36191e-16
-1.57466e-09
-1.54388e-08
2.34389e-16
-1.56389e-09
-1.49112e-08
2.32627e-16
-1.55201e-09
-1.43875e-08
2.3092e-16
-1.53907e-09
-1.38681e-08
2.29159e-16
-1.52512e-09
-1.33534e-08
2.27533e-16
-1.51021e-09
-1.28436e-08
2.26029e-16