/*--------------------------------*- C++ -*----------------------------------*\
  =========                 |
  \\      /  F ield         | OpenFOAM: The Open Source CFD Toolbox
   \\    /   O peration     | Website:  https://openfoam.org
    \\  /    A nd           | Version:  8
     \\/     M anipulation  |
\*---------------------------------------------------------------------------*/
FoamFile
{
    version     2.0;
    format      ascii;
    class       volScalarField;
    location    "3600";
    object      T;
}
// * * * * * * * * * * * * * * * * * * * * * * * * * * * * * * * * * * * * * //

dimensions      [0 0 0 1 0 0 0];

internalField   nonuniform List<scalar> 
46000
(
310.133
309.029
308.232
307.716
307.345
307.052
306.806
306.595
306.41
306.243
306.091
305.952
305.824
305.705
305.594
305.49
305.392
305.3
305.213
305.13
305.052
304.978
304.908
304.841
304.778
304.718
304.661
304.606
304.554
304.505
304.458
304.413
304.371
304.33
304.292
304.255
304.22
304.187
304.156
304.126
304.098
304.071
304.046
304.022
303.999
303.978
303.958
303.939
303.922
303.905
303.89
303.876
303.863
303.851
303.84
303.83
303.821
303.813
303.806
303.8
303.795
303.79
303.787
303.784
303.782
303.781
303.781
303.781
303.783
303.785
303.788
303.792
303.797
303.802
303.809
303.816
303.823
303.832
303.841
303.851
303.862
303.873
303.886
303.898
303.912
303.926
303.941
303.957
303.973
303.99
304.007
304.025
304.044
304.063
304.083
304.104
304.125
304.147
304.169
304.192
304.215
304.239
304.263
304.288
304.313
304.339
304.366
304.392
304.42
304.447
304.476
304.504
304.533
304.563
304.593
304.623
304.654
304.685
304.717
304.749
304.781
304.814
304.848
304.881
304.916
304.95
304.985
305.02
305.056
305.093
305.129
305.167
305.204
305.243
305.281
305.32
305.36
305.4
305.441
305.483
305.525
305.567
305.61
305.654
305.699
305.744
305.79
305.836
305.884
305.932
305.981
306.03
306.081
306.132
306.184
306.237
306.29
306.345
306.4
306.457
306.514
306.572
306.631
306.691
306.752
306.814
306.877
306.941
307.005
307.071
307.138
307.206
307.276
307.346
307.418
307.491
307.565
307.641
307.719
307.798
307.88
307.963
308.049
308.138
308.229
308.325
308.424
308.529
308.639
308.757
308.884
309.021
309.174
309.346
309.546
309.787
310.091
310.495
311.03
311.524
310.133
309.029
308.232
307.716
307.345
307.052
306.806
306.595
306.41
306.243
306.091
305.952
305.824
305.705
305.594
305.49
305.392
305.3
305.213
305.13
305.052
304.978
304.908
304.841
304.778
304.718
304.661
304.606
304.554
304.505
304.458
304.413
304.371
304.33
304.292
304.255
304.22
304.187
304.156
304.126
304.098
304.071
304.046
304.022
303.999
303.978
303.958
303.939
303.922
303.905
303.89
303.876
303.863
303.851
303.84
303.83
303.821
303.813
303.806
303.8
303.795
303.79
303.787
303.784
303.782
303.781
303.781
303.781
303.783
303.785
303.788
303.792
303.797
303.802
303.809
303.816
303.823
303.832
303.841
303.851
303.862
303.873
303.886
303.898
303.912
303.926
303.941
303.957
303.973
303.99
304.007
304.025
304.044
304.063
304.083
304.104
304.125
304.147
304.169
304.192
304.215
304.239
304.263
304.288
304.313
304.339
304.366
304.392
304.42
304.447
304.476
304.504
304.533
304.563
304.593
304.623
304.654
304.685
304.717
304.749
304.781
304.814
304.848
304.881
304.916
304.95
304.985
305.021
305.056
305.093
305.129
305.167
305.204
305.243
305.281
305.32
305.36
305.4
305.441
305.483
305.525
305.567
305.61
305.654
305.699
305.744
305.79
305.836
305.884
305.932
305.981
306.03
306.081
306.132
306.184
306.237
306.29
306.345
306.4
306.457
306.514
306.572
306.631
306.691
306.752
306.814
306.877
306.941
307.005
307.071
307.138
307.206
307.276
307.346
307.418
307.491
307.565
307.641
307.719
307.798
307.88
307.963
308.049
308.138
308.229
308.325
308.424
308.529
308.639
308.757
308.884
309.022
309.174
309.346
309.546
309.787
310.091
310.495
311.03
311.523
306.638
306.204
305.852
305.578
305.358
305.175
305.018
304.879
304.755
304.643
304.539
304.443
304.354
304.27
304.192
304.118
304.049
303.983
303.921
303.861
303.805
303.752
303.701
303.652
303.606
303.562
303.52
303.48
303.442
303.406
303.371
303.338
303.306
303.276
303.247
303.219
303.193
303.168
303.144
303.121
303.099
303.078
303.058
303.039
303.021
303.004
302.988
302.972
302.958
302.944
302.931
302.918
302.906
302.895
302.885
302.875
302.866
302.857
302.85
302.842
302.835
302.829
302.824
302.819
302.814
302.81
302.807
302.804
302.801
302.8
302.798
302.797
302.797
302.797
302.798
302.799
302.801
302.803
302.806
302.809
302.813
302.817
302.822
302.827
302.833
302.839
302.845
302.852
302.86
302.868
302.876
302.885
302.894
302.904
302.914
302.924
302.935
302.947
302.959
302.971
302.984
302.997
303.01
303.024
303.039
303.053
303.068
303.084
303.1
303.117
303.133
303.151
303.168
303.186
303.205
303.224
303.243
303.263
303.283
303.304
303.325
303.347
303.369
303.391
303.414
303.438
303.461
303.486
303.511
303.536
303.562
303.589
303.616
303.643
303.671
303.7
303.729
303.759
303.79
303.821
303.853
303.885
303.919
303.952
303.987
304.022
304.058
304.095
304.133
304.171
304.21
304.25
304.291
304.332
304.375
304.418
304.462
304.507
304.552
304.599
304.646
304.694
304.744
304.794
304.844
304.896
304.949
305.002
305.056
305.111
305.168
305.224
305.282
305.341
305.401
305.462
305.524
305.587
305.651
305.717
305.784
305.852
305.922
305.995
306.069
306.147
306.228
306.312
306.402
306.497
306.6
306.713
306.838
306.98
307.146
307.347
307.597
307.923
308.365
308.882
306.638
306.204
305.852
305.578
305.358
305.175
305.018
304.879
304.755
304.643
304.539
304.443
304.354
304.27
304.192
304.118
304.049
303.983
303.921
303.861
303.805
303.752
303.701
303.652
303.606
303.562
303.52
303.48
303.442
303.406
303.371
303.338
303.306
303.276
303.247
303.219
303.193
303.168
303.144
303.121
303.099
303.078
303.058
303.039
303.021
303.004
302.988
302.972
302.958
302.944
302.931
302.918
302.906
302.895
302.885
302.875
302.866
302.857
302.85
302.842
302.835
302.829
302.824
302.819
302.814
302.81
302.807
302.804
302.801
302.8
302.798
302.797
302.797
302.797
302.798
302.799
302.801
302.803
302.806
302.809
302.813
302.817
302.822
302.827
302.833
302.839
302.845
302.852
302.86
302.868
302.876
302.885
302.894
302.904
302.914
302.924
302.935
302.947
302.959
302.971
302.984
302.997
303.01
303.024
303.039
303.053
303.068
303.084
303.1
303.117
303.133
303.151
303.168
303.186
303.205
303.224
303.243
303.263
303.283
303.304
303.325
303.347
303.369
303.391
303.414
303.438
303.461
303.486
303.511
303.536
303.562
303.589
303.616
303.643
303.671
303.7
303.729
303.759
303.79
303.821
303.853
303.885
303.919
303.952
303.987
304.022
304.058
304.095
304.133
304.171
304.21
304.25
304.291
304.332
304.375
304.418
304.462
304.507
304.552
304.599
304.646
304.694
304.744
304.794
304.844
304.896
304.949
305.002
305.056
305.111
305.168
305.225
305.282
305.341
305.401
305.462
305.524
305.587
305.651
305.717
305.784
305.852
305.922
305.995
306.07
306.147
306.228
306.312
306.402
306.497
306.6
306.713
306.838
306.98
307.146
307.347
307.597
307.923
308.365
308.882
305.041
304.941
304.789
304.635
304.492
304.363
304.245
304.137
304.039
303.947
303.862
303.782
303.707
303.637
303.57
303.507
303.448
303.391
303.337
303.286
303.237
303.19
303.146
303.104
303.063
303.025
302.988
302.953
302.919
302.887
302.856
302.827
302.799
302.772
302.746
302.722
302.698
302.675
302.654
302.633
302.613
302.594
302.576
302.559
302.542
302.527
302.512
302.497
302.483
302.47
302.458
302.446
302.434
302.423
302.413
302.404
302.394
302.386
302.377
302.37
302.363
302.356
302.349
302.344
302.338
302.333
302.329
302.325
302.321
302.318
302.315
302.313
302.311
302.31
302.309
302.308
302.308
302.308
302.309
302.31
302.311
302.313
302.316
302.318
302.322
302.325
302.329
302.333
302.338
302.343
302.349
302.355
302.361
302.368
302.375
302.383
302.391
302.399
302.408
302.417
302.427
302.436
302.447
302.458
302.469
302.48
302.492
302.505
302.517
302.53
302.544
302.558
302.572
302.587
302.602
302.618
302.634
302.651
302.668
302.685
302.703
302.722
302.74
302.76
302.78
302.8
302.821
302.842
302.864
302.886
302.909
302.933
302.957
302.981
303.007
303.032
303.059
303.086
303.114
303.142
303.171
303.201
303.231
303.262
303.294
303.327
303.36
303.394
303.429
303.465
303.501
303.539
303.577
303.615
303.655
303.695
303.737
303.779
303.821
303.865
303.91
303.955
304.001
304.048
304.096
304.145
304.194
304.244
304.295
304.347
304.399
304.453
304.507
304.562
304.617
304.674
304.731
304.79
304.849
304.909
304.971
305.033
305.097
305.163
305.23
305.3
305.372
305.447
305.526
305.609
305.698
305.793
305.898
306.014
306.145
306.296
306.471
306.677
306.92
307.178
305.041
304.941
304.789
304.635
304.492
304.363
304.245
304.137
304.039
303.947
303.862
303.782
303.707
303.637
303.57
303.507
303.448
303.391
303.337
303.286
303.237
303.19
303.146
303.104
303.063
303.025
302.988
302.953
302.919
302.887
302.856
302.827
302.799
302.772
302.746
302.722
302.698
302.675
302.654
302.633
302.613
302.594
302.576
302.559
302.542
302.527
302.512
302.497
302.483
302.47
302.458
302.446
302.434
302.423
302.413
302.404
302.394
302.386
302.377
302.37
302.363
302.356
302.349
302.344
302.338
302.333
302.329
302.325
302.321
302.318
302.315
302.313
302.311
302.31
302.309
302.308
302.308
302.308
302.309
302.31
302.311
302.313
302.316
302.318
302.322
302.325
302.329
302.333
302.338
302.343
302.349
302.355
302.361
302.368
302.375
302.383
302.391
302.399
302.408
302.417
302.427
302.436
302.447
302.458
302.469
302.48
302.492
302.505
302.517
302.53
302.544
302.558
302.572
302.587
302.602
302.618
302.634
302.651
302.668
302.685
302.703
302.722
302.74
302.76
302.78
302.8
302.821
302.842
302.864
302.886
302.909
302.933
302.957
302.981
303.007
303.032
303.059
303.086
303.114
303.142
303.171
303.201
303.231
303.262
303.294
303.327
303.36
303.394
303.429
303.465
303.501
303.539
303.577
303.615
303.655
303.695
303.737
303.779
303.821
303.865
303.91
303.955
304.001
304.048
304.096
304.145
304.194
304.244
304.295
304.347
304.399
304.453
304.507
304.562
304.617
304.674
304.731
304.79
304.849
304.909
304.971
305.033
305.097
305.163
305.23
305.3
305.372
305.447
305.526
305.609
305.698
305.793
305.898
306.014
306.145
306.296
306.471
306.677
306.92
307.178
304.199
304.188
304.12
304.031
303.936
303.842
303.751
303.665
303.584
303.507
303.434
303.365
303.299
303.237
303.178
303.121
303.068
303.017
302.968
302.922
302.877
302.835
302.794
302.755
302.718
302.683
302.649
302.616
302.585
302.556
302.527
302.5
302.474
302.449
302.425
302.402
302.379
302.358
302.338
302.319
302.3
302.282
302.265
302.248
302.233
302.218
302.203
302.189
302.176
302.163
302.151
302.139
302.128
302.117
302.107
302.098
302.088
302.08
302.071
302.063
302.056
302.049
302.042
302.036
302.03
302.025
302.02
302.015
302.011
302.007
302.004
302.001
301.998
301.996
301.994
301.993
301.991
301.991
301.99
301.99
301.991
301.992
301.993
301.994
301.996
301.999
302.001
302.004
302.008
302.012
302.016
302.021
302.026
302.031
302.037
302.043
302.049
302.056
302.063
302.071
302.079
302.087
302.096
302.105
302.115
302.125
302.135
302.146
302.157
302.169
302.181
302.193
302.206
302.22
302.233
302.247
302.262
302.277
302.292
302.308
302.325
302.342
302.359
302.377
302.395
302.414
302.433
302.453
302.473
302.494
302.516
302.538
302.561
302.584
302.608
302.632
302.657
302.683
302.709
302.736
302.764
302.792
302.822
302.851
302.882
302.913
302.945
302.978
303.012
303.046
303.081
303.117
303.153
303.191
303.229
303.268
303.308
303.349
303.39
303.432
303.475
303.519
303.564
303.609
303.655
303.702
303.75
303.798
303.847
303.897
303.947
303.999
304.051
304.103
304.157
304.211
304.265
304.321
304.377
304.434
304.492
304.551
304.611
304.673
304.735
304.8
304.866
304.934
305.005
305.08
305.158
305.241
305.329
305.425
305.528
305.64
305.761
305.887
306.014
306.124
304.199
304.188
304.12
304.031
303.936
303.842
303.751
303.665
303.584
303.507
303.434
303.365
303.299
303.237
303.178
303.121
303.068
303.017
302.968
302.922
302.877
302.835
302.794
302.755
302.718
302.683
302.649
302.616
302.585
302.556
302.527
302.5
302.474
302.449
302.425
302.402
302.379
302.358
302.338
302.319
302.3
302.282
302.265
302.248
302.233
302.218
302.203
302.189
302.176
302.163
302.151
302.139
302.128
302.117
302.107
302.098
302.088
302.08
302.071
302.063
302.056
302.049
302.042
302.036
302.03
302.025
302.02
302.015
302.011
302.007
302.004
302.001
301.998
301.996
301.994
301.993
301.991
301.991
301.99
301.99
301.991
301.992
301.993
301.994
301.996
301.999
302.001
302.004
302.008
302.012
302.016
302.021
302.026
302.031
302.037
302.043
302.049
302.056
302.063
302.071
302.079
302.087
302.096
302.105
302.115
302.125
302.135
302.146
302.157
302.169
302.181
302.193
302.206
302.22
302.233
302.247
302.262
302.277
302.292
302.308
302.325
302.342
302.359
302.377
302.395
302.414
302.433
302.453
302.473
302.494
302.516
302.538
302.561
302.584
302.608
302.632
302.657
302.683
302.709
302.736
302.764
302.792
302.822
302.851
302.882
302.913
302.945
302.978
303.012
303.046
303.081
303.117
303.153
303.191
303.229
303.268
303.308
303.349
303.39
303.432
303.475
303.519
303.564
303.609
303.655
303.702
303.75
303.798
303.847
303.897
303.947
303.999
304.051
304.103
304.157
304.211
304.265
304.321
304.377
304.434
304.492
304.551
304.611
304.673
304.735
304.8
304.866
304.934
305.005
305.08
305.158
305.241
305.329
305.425
305.528
305.64
305.761
305.887
306.014
306.124
303.663
303.671
303.638
303.584
303.519
303.449
303.379
303.309
303.241
303.175
303.112
303.052
302.994
302.938
302.885
302.834
302.785
302.738
302.694
302.651
302.61
302.57
302.533
302.496
302.462
302.429
302.397
302.366
302.337
302.309
302.282
302.256
302.232
302.208
302.185
302.163
302.142
302.122
302.103
302.084
302.066
302.049
302.033
302.017
302.001
301.987
301.973
301.959
301.946
301.934
301.922
301.91
301.9
301.889
301.879
301.869
301.86
301.851
301.843
301.835
301.827
301.82
301.813
301.807
301.801
301.795
301.79
301.785
301.78
301.776
301.772
301.769
301.765
301.763
301.76
301.758
301.757
301.755
301.754
301.754
301.753
301.754
301.754
301.755
301.756
301.758
301.76
301.762
301.764
301.767
301.771
301.775
301.779
301.783
301.788
301.793
301.799
301.805
301.811
301.818
301.825
301.832
301.84
301.849
301.857
301.866
301.876
301.885
301.896
301.906
301.917
301.929
301.941
301.953
301.966
301.979
301.992
302.006
302.021
302.036
302.051
302.067
302.084
302.101
302.118
302.136
302.154
302.173
302.193
302.213
302.233
302.255
302.276
302.299
302.322
302.345
302.369
302.394
302.42
302.446
302.473
302.5
302.528
302.557
302.587
302.617
302.649
302.681
302.713
302.747
302.781
302.816
302.851
302.888
302.925
302.963
303.002
303.042
303.082
303.123
303.165
303.208
303.251
303.296
303.34
303.386
303.432
303.479
303.527
303.576
303.625
303.674
303.724
303.775
303.827
303.879
303.932
303.985
304.039
304.093
304.149
304.205
304.261
304.319
304.378
304.438
304.499
304.562
304.626
304.693
304.762
304.833
304.908
304.987
305.068
305.151
305.234
305.313
305.379
305.424
303.663
303.671
303.638
303.584
303.519
303.449
303.379
303.309
303.241
303.175
303.112
303.052
302.994
302.938
302.885
302.834
302.785
302.738
302.694
302.651
302.61
302.57
302.533
302.496
302.462
302.429
302.397
302.366
302.337
302.309
302.282
302.256
302.232
302.208
302.185
302.163
302.142
302.122
302.103
302.084
302.066
302.049
302.033
302.017
302.001
301.987
301.973
301.959
301.946
301.934
301.922
301.91
301.9
301.889
301.879
301.869
301.86
301.851
301.843
301.835
301.827
301.82
301.813
301.807
301.801
301.795
301.79
301.785
301.78
301.776
301.772
301.769
301.765
301.763
301.76
301.758
301.757
301.755
301.754
301.754
301.753
301.754
301.754
301.755
301.756
301.758
301.76
301.762
301.764
301.767
301.771
301.775
301.779
301.783
301.788
301.793
301.799
301.805
301.811
301.818
301.825
301.832
301.84
301.849
301.857
301.866
301.876
301.885
301.896
301.906
301.917
301.929
301.941
301.953
301.966
301.979
301.992
302.006
302.021
302.036
302.051
302.067
302.084
302.101
302.118
302.136
302.154
302.173
302.193
302.213
302.233
302.255
302.276
302.299
302.322
302.345
302.369
302.394
302.42
302.446
302.473
302.5
302.528
302.557
302.587
302.617
302.649
302.681
302.713
302.747
302.781
302.816
302.851
302.888
302.925
302.963
303.002
303.042
303.082
303.123
303.165
303.208
303.251
303.296
303.34
303.386
303.432
303.479
303.527
303.576
303.625
303.674
303.724
303.775
303.827
303.879
303.932
303.985
304.039
304.093
304.149
304.205
304.261
304.319
304.378
304.438
304.499
304.562
304.626
304.693
304.762
304.833
304.908
304.987
305.068
305.151
305.234
305.313
305.379
305.424
303.273
303.283
303.265
303.229
303.183
303.131
303.075
303.018
302.961
302.905
302.85
302.797
302.745
302.695
302.647
302.6
302.555
302.512
302.471
302.431
302.393
302.356
302.321
302.287
302.254
302.223
302.193
302.164
302.137
302.11
302.084
302.06
302.036
302.013
301.992
301.971
301.951
301.931
301.913
301.895
301.877
301.861
301.845
301.829
301.815
301.8
301.787
301.773
301.761
301.749
301.737
301.726
301.715
301.704
301.694
301.685
301.676
301.667
301.658
301.65
301.643
301.635
301.628
301.622
301.615
301.61
301.604
301.599
301.594
301.589
301.585
301.582
301.578
301.575
301.572
301.57
301.568
301.566
301.564
301.563
301.563
301.562
301.562
301.563
301.563
301.564
301.566
301.567
301.569
301.572
301.575
301.578
301.581
301.585
301.589
301.594
301.599
301.604
301.61
301.616
301.622
301.629
301.636
301.644
301.652
301.66
301.669
301.678
301.688
301.698
301.708
301.719
301.73
301.741
301.753
301.766
301.779
301.792
301.806
301.82
301.835
301.85
301.866
301.882
301.899
301.916
301.934
301.952
301.971
301.99
302.01
302.031
302.052
302.074
302.096
302.119
302.142
302.167
302.191
302.217
302.243
302.27
302.298
302.326
302.355
302.385
302.415
302.446
302.478
302.511
302.544
302.579
302.614
302.649
302.686
302.723
302.761
302.8
302.84
302.88
302.921
302.963
303.005
303.049
303.092
303.137
303.182
303.228
303.275
303.322
303.369
303.418
303.467
303.516
303.566
303.616
303.667
303.718
303.77
303.822
303.875
303.929
303.982
304.037
304.092
304.148
304.205
304.262
304.321
304.381
304.442
304.504
304.567
304.631
304.695
304.758
304.816
304.866
304.902
304.919
303.273
303.283
303.265
303.229
303.183
303.131
303.075
303.018
302.961
302.905
302.85
302.797
302.745
302.695
302.647
302.6
302.555
302.512
302.471
302.431
302.393
302.356
302.321
302.287
302.254
302.223
302.193
302.164
302.137
302.11
302.084
302.06
302.036
302.013
301.992
301.971
301.951
301.931
301.913
301.895
301.877
301.861
301.845
301.829
301.815
301.8
301.787
301.773
301.761
301.749
301.737
301.726
301.715
301.704
301.694
301.685
301.676
301.667
301.658
301.65
301.643
301.635
301.628
301.622
301.615
301.61
301.604
301.599
301.594
301.589
301.585
301.582
301.578
301.575
301.572
301.57
301.568
301.566
301.564
301.563
301.563
301.562
301.562
301.563
301.563
301.564
301.566
301.567
301.569
301.572
301.575
301.578
301.581
301.585
301.589
301.594
301.599
301.604
301.61
301.616
301.622
301.629
301.636
301.644
301.652
301.66
301.669
301.678
301.688
301.698
301.708
301.719
301.73
301.741
301.753
301.766
301.779
301.792
301.806
301.82
301.835
301.85
301.866
301.882
301.899
301.916
301.934
301.952
301.971
301.99
302.01
302.031
302.052
302.074
302.096
302.119
302.142
302.167
302.191
302.217
302.243
302.27
302.298
302.326
302.355
302.385
302.415
302.446
302.478
302.511
302.544
302.579
302.614
302.649
302.686
302.723
302.761
302.8
302.84
302.88
302.921
302.963
303.005
303.049
303.092
303.137
303.182
303.228
303.275
303.322
303.37
303.418
303.467
303.516
303.566
303.616
303.667
303.718
303.77
303.822
303.875
303.929
303.982
304.037
304.092
304.148
304.205
304.262
304.321
304.381
304.442
304.504
304.567
304.631
304.695
304.758
304.816
304.866
304.902
304.919
302.965
302.973
302.962
302.937
302.902
302.861
302.816
302.769
302.721
302.673
302.625
302.578
302.531
302.486
302.442
302.4
302.359
302.319
302.281
302.244
302.208
302.173
302.14
302.108
302.078
302.048
302.019
301.992
301.966
301.94
301.916
301.892
301.87
301.848
301.827
301.807
301.787
301.769
301.751
301.733
301.717
301.701
301.685
301.67
301.656
301.642
301.628
301.616
301.603
301.591
301.58
301.568
301.558
301.547
301.538
301.528
301.519
301.51
301.502
301.494
301.486
301.478
301.471
301.465
301.458
301.452
301.447
301.441
301.436
301.431
301.427
301.423
301.419
301.416
301.413
301.41
301.408
301.405
301.404
301.402
301.401
301.4
301.4
301.4
301.4
301.401
301.402
301.403
301.405
301.407
301.409
301.412
301.415
301.418
301.422
301.426
301.43
301.435
301.44
301.446
301.452
301.458
301.465
301.472
301.479
301.487
301.495
301.504
301.513
301.522
301.532
301.542
301.553
301.564
301.576
301.588
301.6
301.613
301.626
301.64
301.654
301.669
301.684
301.7
301.716
301.732
301.75
301.767
301.786
301.805
301.824
301.844
301.865
301.886
301.907
301.93
301.953
301.977
302.001
302.026
302.052
302.078
302.105
302.133
302.161
302.19
302.22
302.251
302.282
302.314
302.347
302.381
302.415
302.45
302.486
302.523
302.56
302.598
302.637
302.677
302.717
302.758
302.8
302.842
302.885
302.929
302.973
303.018
303.063
303.109
303.156
303.203
303.25
303.298
303.347
303.395
303.445
303.494
303.544
303.594
303.645
303.696
303.747
303.798
303.85
303.902
303.955
304.008
304.061
304.115
304.169
304.223
304.277
304.33
304.381
304.428
304.47
304.503
304.524
304.529
302.965
302.973
302.962
302.937
302.902
302.861
302.816
302.769
302.721
302.673
302.625
302.578
302.531
302.486
302.442
302.4
302.359
302.319
302.281
302.244
302.208
302.173
302.14
302.108
302.078
302.048
302.019
301.992
301.966
301.94
301.916
301.892
301.87
301.848
301.827
301.807
301.787
301.769
301.751
301.733
301.717
301.701
301.685
301.67
301.656
301.642
301.628
301.616
301.603
301.591
301.58
301.568
301.558
301.547
301.538
301.528
301.519
301.51
301.502
301.494
301.486
301.478
301.471
301.465
301.458
301.452
301.447
301.441
301.436
301.431
301.427
301.423
301.419
301.416
301.413
301.41
301.408
301.405
301.404
301.402
301.401
301.4
301.4
301.4
301.4
301.401
301.402
301.403
301.405
301.407
301.409
301.412
301.415
301.418
301.422
301.426
301.43
301.435
301.44
301.446
301.452
301.458
301.465
301.472
301.479
301.487
301.495
301.504
301.513
301.522
301.532
301.542
301.553
301.564
301.576
301.588
301.6
301.613
301.626
301.64
301.654
301.669
301.684
301.7
301.716
301.732
301.75
301.767
301.786
301.805
301.824
301.844
301.865
301.886
301.907
301.93
301.953
301.977
302.001
302.026
302.052
302.078
302.105
302.133
302.161
302.19
302.22
302.251
302.282
302.314
302.347
302.381
302.415
302.45
302.486
302.523
302.56
302.598
302.637
302.677
302.717
302.758
302.8
302.842
302.885
302.929
302.973
303.018
303.063
303.109
303.156
303.203
303.25
303.298
303.347
303.395
303.445
303.494
303.544
303.594
303.645
303.696
303.747
303.798
303.85
303.902
303.955
304.008
304.061
304.115
304.169
304.223
304.277
304.33
304.381
304.428
304.47
304.503
304.524
304.529
302.71
302.715
302.706
302.687
302.66
302.628
302.591
302.551
302.51
302.468
302.426
302.384
302.343
302.302
302.262
302.223
302.185
302.148
302.112
302.078
302.044
302.012
301.981
301.951
301.921
301.893
301.866
301.84
301.815
301.791
301.767
301.745
301.723
301.702
301.682
301.663
301.644
301.626
301.608
301.592
301.575
301.56
301.545
301.53
301.516
301.502
301.489
301.477
301.464
301.453
301.441
301.43
301.42
301.41
301.4
301.39
301.381
301.372
301.364
301.356
301.348
301.341
301.334
301.327
301.32
301.314
301.308
301.303
301.298
301.293
301.288
301.284
301.28
301.276
301.273
301.27
301.267
301.265
301.263
301.261
301.26
301.259
301.258
301.258
301.258
301.258
301.259
301.259
301.261
301.262
301.264
301.267
301.269
301.272
301.276
301.279
301.283
301.288
301.292
301.298
301.303
301.309
301.315
301.322
301.329
301.336
301.344
301.352
301.361
301.37
301.379
301.389
301.399
301.41
301.421
301.432
301.444
301.457
301.469
301.483
301.497
301.511
301.526
301.541
301.557
301.573
301.59
301.607
301.625
301.643
301.662
301.682
301.702
301.723
301.744
301.766
301.788
301.812
301.836
301.86
301.885
301.911
301.938
301.965
301.993
302.022
302.051
302.081
302.112
302.144
302.176
302.209
302.243
302.278
302.313
302.349
302.386
302.423
302.461
302.5
302.54
302.58
302.621
302.662
302.705
302.747
302.791
302.835
302.879
302.924
302.97
303.015
303.062
303.108
303.155
303.203
303.25
303.298
303.346
303.394
303.443
303.491
303.54
303.589
303.638
303.686
303.735
303.784
303.833
303.881
303.929
303.976
304.022
304.066
304.107
304.144
304.175
304.198
304.21
304.21
302.71
302.715
302.706
302.687
302.66
302.628
302.591
302.551
302.51
302.468
302.426
302.384
302.343
302.302
302.262
302.223
302.185
302.148
302.112
302.078
302.044
302.012
301.981
301.951
301.921
301.893
301.866
301.84
301.815
301.791
301.767
301.745
301.723
301.702
301.682
301.663
301.644
301.626
301.608
301.592
301.575
301.56
301.545
301.53
301.516
301.502
301.489
301.477
301.464
301.453
301.441
301.43
301.42
301.41
301.4
301.39
301.381
301.372
301.364
301.356
301.348
301.341
301.334
301.327
301.32
301.314
301.308
301.303
301.298
301.293
301.288
301.284
301.28
301.276
301.273
301.27
301.267
301.265
301.263
301.261
301.26
301.259
301.258
301.258
301.258
301.258
301.259
301.259
301.261
301.262
301.264
301.267
301.269
301.272
301.276
301.279
301.283
301.288
301.292
301.298
301.303
301.309
301.315
301.322
301.329
301.336
301.344
301.352
301.361
301.37
301.379
301.389
301.399
301.41
301.421
301.432
301.444
301.457
301.469
301.483
301.497
301.511
301.526
301.541
301.557
301.573
301.59
301.607
301.625
301.643
301.662
301.682
301.702
301.723
301.744
301.766
301.788
301.812
301.836
301.86
301.885
301.911
301.938
301.965
301.993
302.022
302.051
302.081
302.112
302.144
302.176
302.209
302.243
302.278
302.313
302.349
302.386
302.423
302.461
302.5
302.54
302.58
302.621
302.662
302.705
302.747
302.791
302.835
302.879
302.924
302.97
303.015
303.062
303.108
303.155
303.203
303.25
303.298
303.346
303.394
303.443
303.491
303.54
303.589
303.638
303.686
303.735
303.784
303.833
303.881
303.929
303.976
304.022
304.066
304.107
304.144
304.175
304.198
304.21
304.21
302.49
302.493
302.485
302.47
302.448
302.421
302.39
302.356
302.321
302.284
302.247
302.209
302.172
302.135
302.098
302.063
302.028
301.993
301.96
301.928
301.896
301.866
301.837
301.808
301.78
301.754
301.728
301.703
301.679
301.656
301.634
301.612
301.591
301.571
301.551
301.533
301.515
301.497
301.48
301.464
301.448
301.433
301.418
301.404
301.39
301.377
301.364
301.352
301.34
301.328
301.317
301.306
301.296
301.286
301.276
301.266
301.257
301.249
301.24
301.232
301.224
301.217
301.21
301.203
301.196
301.19
301.184
301.178
301.173
301.168
301.163
301.159
301.155
301.151
301.148
301.144
301.142
301.139
301.137
301.135
301.133
301.132
301.131
301.13
301.13
301.13
301.13
301.131
301.132
301.133
301.135
301.137
301.139
301.142
301.145
301.148
301.152
301.156
301.16
301.165
301.17
301.176
301.181
301.188
301.194
301.201
301.209
301.217
301.225
301.233
301.242
301.252
301.262
301.272
301.283
301.294
301.305
301.317
301.33
301.343
301.356
301.37
301.384
301.399
301.415
301.43
301.447
301.464
301.481
301.499
301.518
301.537
301.557
301.577
301.598
301.62
301.642
301.665
301.688
301.712
301.737
301.763
301.789
301.816
301.843
301.871
301.9
301.93
301.961
301.992
302.024
302.056
302.089
302.123
302.158
302.194
302.23
302.267
302.304
302.343
302.381
302.421
302.461
302.502
302.543
302.585
302.628
302.671
302.714
302.758
302.803
302.848
302.893
302.938
302.984
303.03
303.076
303.122
303.168
303.215
303.261
303.308
303.354
303.4
303.446
303.492
303.537
303.582
303.627
303.671
303.713
303.755
303.794
303.831
303.865
303.895
303.919
303.935
303.943
303.94
302.49
302.493
302.485
302.47
302.448
302.421
302.39
302.356
302.321
302.284
302.247
302.209
302.172
302.135
302.098
302.063
302.028
301.993
301.96
301.928
301.896
301.866
301.837
301.808
301.78
301.754
301.728
301.703
301.679
301.656
301.634
301.612
301.591
301.571
301.551
301.533
301.515
301.497
301.48
301.464
301.448
301.433
301.418
301.404
301.39
301.377
301.364
301.352
301.34
301.328
301.317
301.306
301.296
301.286
301.276
301.266
301.257
301.249
301.24
301.232
301.224
301.217
301.21
301.203
301.196
301.19
301.184
301.178
301.173
301.168
301.163
301.159
301.155
301.151
301.148
301.144
301.142
301.139
301.137
301.135
301.133
301.132
301.131
301.13
301.13
301.13
301.13
301.131
301.132
301.133
301.135
301.137
301.139
301.142
301.145
301.148
301.152
301.156
301.16
301.165
301.17
301.176
301.181
301.188
301.194
301.201
301.209
301.217
301.225
301.233
301.242
301.252
301.262
301.272
301.283
301.294
301.305
301.317
301.33
301.343
301.356
301.37
301.384
301.399
301.415
301.43
301.447
301.464
301.481
301.499
301.518
301.537
301.557
301.577
301.598
301.62
301.642
301.665
301.688
301.712
301.737
301.763
301.789
301.816
301.843
301.871
301.9
301.93
301.961
301.992
302.024
302.056
302.089
302.123
302.158
302.194
302.23
302.267
302.304
302.343
302.381
302.421
302.461
302.502
302.543
302.585
302.628
302.671
302.714
302.758
302.803
302.848
302.893
302.938
302.984
303.03
303.076
303.122
303.168
303.215
303.261
303.308
303.354
303.4
303.446
303.492
303.537
303.582
303.627
303.671
303.713
303.755
303.794
303.831
303.865
303.895
303.919
303.935
303.943
303.94
302.297
302.297
302.29
302.277
302.258
302.235
302.208
302.179
302.148
302.116
302.083
302.049
302.015
301.982
301.948
301.915
301.883
301.851
301.82
301.79
301.76
301.732
301.704
301.677
301.651
301.625
301.601
301.577
301.554
301.532
301.51
301.49
301.47
301.45
301.431
301.413
301.396
301.379
301.362
301.347
301.331
301.316
301.302
301.288
301.275
301.262
301.249
301.237
301.225
301.214
301.203
301.192
301.182
301.172
301.162
301.153
301.144
301.135
301.127
301.119
301.111
301.103
301.096
301.089
301.083
301.076
301.07
301.065
301.059
301.054
301.049
301.045
301.04
301.037
301.033
301.03
301.026
301.024
301.021
301.019
301.017
301.016
301.015
301.014
301.013
301.013
301.013
301.013
301.014
301.015
301.016
301.018
301.02
301.022
301.025
301.028
301.032
301.035
301.039
301.044
301.049
301.054
301.06
301.065
301.072
301.078
301.086
301.093
301.101
301.109
301.118
301.127
301.136
301.146
301.157
301.167
301.179
301.19
301.203
301.215