/*--------------------------------*- C++ -*----------------------------------*\
  =========                 |
  \\      /  F ield         | OpenFOAM: The Open Source CFD Toolbox
   \\    /   O peration     | Website:  https://openfoam.org
    \\  /    A nd           | Version:  8
     \\/     M anipulation  |
\*---------------------------------------------------------------------------*/
FoamFile
{
    version     2.0;
    format      ascii;
    class       volVectorField;
    location    "3600";
    object      U;
}
// * * * * * * * * * * * * * * * * * * * * * * * * * * * * * * * * * * * * * //

dimensions      [0 1 -1 0 0 0 0];

internalField   nonuniform List<vector> 
46000
(
(0.00159337 1.47911e-06 -0.00163001)
(0.00824193 5.37938e-07 -0.00480257)
(0.0153037 2.59922e-07 -0.00469301)
(0.0203107 1.57336e-07 -0.00301233)
(0.0227547 1.18767e-07 -0.00119791)
(0.0229065 1.02216e-07 0.000385354)
(0.0211345 9.572e-08 0.00166611)
(0.0178315 9.38125e-08 0.00266528)
(0.0133246 9.34147e-08 0.00343385)
(0.00788082 9.24734e-08 0.00402282)
(0.00171325 8.96106e-08 0.00446877)
(-0.00502325 8.45179e-08 0.00479296)
(-0.0121629 7.88967e-08 0.00502127)
(-0.0196203 7.40286e-08 0.00518194)
(-0.0273047 6.98803e-08 0.00528966)
(-0.03515 6.63936e-08 0.0053553)
(-0.0431013 6.34387e-08 0.00538719)
(-0.0511135 6.08294e-08 0.0053918)
(-0.0591494 5.83913e-08 0.00537417)
(-0.0671776 5.60239e-08 0.00533827)
(-0.0751719 5.37135e-08 0.00528723)
(-0.0831098 5.145e-08 0.00522357)
(-0.090972 4.92466e-08 0.00514927)
(-0.0987416 4.7118e-08 0.00506594)
(-0.106404 4.50593e-08 0.0049749)
(-0.113946 4.30568e-08 0.0048772)
(-0.121357 4.11021e-08 0.00477371)
(-0.128626 3.92036e-08 0.00466517)
(-0.135744 3.7341e-08 0.00455217)
(-0.142702 3.55376e-08 0.00443522)
(-0.149492 3.3775e-08 0.00431475)
(-0.156108 3.20916e-08 0.00419113)
(-0.162543 3.04938e-08 0.00406467)
(-0.168792 2.89941e-08 0.00393567)
(-0.174848 2.76124e-08 0.00380438)
(-0.180706 2.63612e-08 0.00367101)
(-0.186363 2.52362e-08 0.0035358)
(-0.191813 2.4239e-08 0.00339893)
(-0.197053 2.33538e-08 0.00326059)
(-0.202078 2.25704e-08 0.00312095)
(-0.206887 2.18573e-08 0.0029802)
(-0.211476 2.11993e-08 0.00283849)
(-0.215842 2.05682e-08 0.00269599)
(-0.219984 1.99389e-08 0.00255287)
(-0.223899 1.92881e-08 0.00240928)
(-0.227586 1.86125e-08 0.00226539)
(-0.231043 1.78964e-08 0.00212136)
(-0.23427 1.71395e-08 0.00197734)
(-0.237266 1.63529e-08 0.0018335)
(-0.240031 1.55531e-08 0.00168999)
(-0.242565 1.47567e-08 0.00154697)
(-0.244868 1.39797e-08 0.0014046)
(-0.246941 1.32368e-08 0.00126303)
(-0.248786 1.25498e-08 0.00112244)
(-0.250403 1.19253e-08 0.000982957)
(-0.251793 1.13633e-08 0.000844751)
(-0.25296 1.08712e-08 0.000707973)
(-0.253905 1.04366e-08 0.000572767)
(-0.254632 1.00653e-08 0.000439265)
(-0.255141 9.7464e-09 0.000307555)
(-0.255438 9.46918e-09 0.000177661)
(-0.255525 9.25522e-09 4.96106e-05)
(-0.255406 9.09619e-09 -7.61066e-05)
(-0.255084 8.96881e-09 -0.000199141)
(-0.254564 8.88138e-09 -0.000319639)
(-0.25385 8.83058e-09 -0.000437594)
(-0.252946 8.81558e-09 -0.000552913)
(-0.251857 8.84137e-09 -0.000665484)
(-0.250589 8.90545e-09 -0.0007752)
(-0.249145 8.99784e-09 -0.000881964)
(-0.247531 9.13601e-09 -0.000985688)
(-0.245753 9.30249e-09 -0.00108629)
(-0.243815 9.50394e-09 -0.0011837)
(-0.241724 9.74286e-09 -0.00127785)
(-0.239485 1.00201e-08 -0.00136869)
(-0.237105 1.03273e-08 -0.00145616)
(-0.234588 1.06695e-08 -0.00154022)
(-0.231941 1.105e-08 -0.00162083)
(-0.22917 1.14672e-08 -0.00169796)
(-0.22628 1.19243e-08 -0.00177158)
(-0.223279 1.24173e-08 -0.00184168)
(-0.220171 1.29462e-08 -0.00190824)
(-0.216963 1.35158e-08 -0.00197126)
(-0.213662 1.41172e-08 -0.00203074)
(-0.210272 1.47553e-08 -0.00208667)
(-0.206801 1.54342e-08 -0.00213909)
(-0.203253 1.61432e-08 -0.002188)
(-0.199635 1.68806e-08 -0.00223342)
(-0.195953 1.76523e-08 -0.00227539)
(-0.192212 1.84548e-08 -0.00231394)
(-0.188418 1.92858e-08 -0.00234911)
(-0.184577 2.01419e-08 -0.00238094)
(-0.180694 2.10297e-08 -0.00240949)
(-0.176774 2.19435e-08 -0.00243481)
(-0.172823 2.28841e-08 -0.00245696)
(-0.168846 2.38465e-08 -0.00247599)
(-0.164847 2.48307e-08 -0.00249198)
(-0.160832 2.58351e-08 -0.002505)
(-0.156805 2.68663e-08 -0.00251512)
(-0.15277 2.79144e-08 -0.00252241)
(-0.148733 2.89893e-08 -0.00252696)
(-0.144697 3.00828e-08 -0.00252885)
(-0.140667 3.11831e-08 -0.00252816)
(-0.136646 3.23086e-08 -0.00252498)
(-0.132638 3.3446e-08 -0.0025194)
(-0.128648 3.45987e-08 -0.0025115)
(-0.124677 3.57632e-08 -0.00250137)
(-0.12073 3.6938e-08 -0.00248911)
(-0.11681 3.81147e-08 -0.00247481)
(-0.112919 3.93017e-08 -0.00245855)
(-0.109061 4.04923e-08 -0.00244042)
(-0.105238 4.16814e-08 -0.00242052)
(-0.101453 4.28792e-08 -0.00239893)
(-0.0977081 4.40705e-08 -0.00237573)
(-0.0940054 4.52505e-08 -0.00235101)
(-0.0903471 4.64324e-08 -0.00232486)
(-0.0867353 4.75929e-08 -0.00229734)
(-0.0831718 4.87586e-08 -0.00226854)
(-0.0796582 4.98913e-08 -0.00223852)
(-0.0761963 5.10093e-08 -0.00220736)
(-0.0727875 5.21275e-08 -0.00217512)
(-0.0694332 5.32027e-08 -0.00214186)
(-0.0661347 5.42547e-08 -0.00210763)
(-0.0628934 5.52887e-08 -0.00207249)
(-0.0597103 5.62946e-08 -0.00203648)
(-0.0565866 5.7269e-08 -0.00199964)
(-0.0535232 5.82003e-08 -0.00196201)
(-0.0505213 5.91051e-08 -0.00192362)
(-0.0475816 5.99735e-08 -0.00188449)
(-0.0447052 6.08037e-08 -0.00184464)
(-0.041893 6.15925e-08 -0.00180409)
(-0.0391457 6.23347e-08 -0.00176285)
(-0.0364644 6.30487e-08 -0.00172091)
(-0.0338498 6.37045e-08 -0.00167829)
(-0.0313029 6.43155e-08 -0.00163497)
(-0.0288245 6.48965e-08 -0.00159094)
(-0.0264155 6.5421e-08 -0.0015462)
(-0.024077 6.59073e-08 -0.00150072)
(-0.0218098 6.63503e-08 -0.00145449)
(-0.019615 6.674e-08 -0.00140748)
(-0.0174936 6.71065e-08 -0.00135968)
(-0.0154467 6.74063e-08 -0.00131105)
(-0.0134755 6.76661e-08 -0.00126158)
(-0.011581 6.79094e-08 -0.00121124)
(-0.00976459 6.81127e-08 -0.00116002)
(-0.00802737 6.82894e-08 -0.00110788)
(-0.00637066 6.84261e-08 -0.00105482)
(-0.00479573 6.85295e-08 -0.00100084)
(-0.00330391 6.86063e-08 -0.000945929)
(-0.00189642 6.86665e-08 -0.000890226)
(-0.000574563 6.86365e-08 -0.000833873)
(0.000661385 6.83955e-08 -0.000776231)
(0.00180836 6.81043e-08 -0.000717306)
(0.00286619 6.79438e-08 -0.000657614)
(0.00383326 6.78539e-08 -0.000597253)
(0.00470857 6.7811e-08 -0.000536298)
(0.00549113 6.78253e-08 -0.000474832)
(0.00618009 6.79169e-08 -0.000412951)
(0.00677473 6.80858e-08 -0.000350766)
(0.00727453 6.83321e-08 -0.000288408)
(0.00767914 6.86693e-08 -0.000226026)
(0.00798846 6.9094e-08 -0.00016379)
(0.00820264 6.96198e-08 -0.000101894)
(0.00832213 7.02198e-08 -4.05522e-05)
(0.00834768 7.1021e-08 2.00243e-05)
(0.0082805 7.20214e-08 7.96193e-05)
(0.0081219 7.31433e-08 0.000137963)
(0.0078738 7.44238e-08 0.000194751)
(0.00753854 7.58663e-08 0.000249666)
(0.00711896 7.75045e-08 0.000302364)
(0.00661843 7.92916e-08 0.000352473)
(0.00604089 8.13251e-08 0.0003996)
(0.00539093 8.35044e-08 0.000443321)
(0.00467376 8.59103e-08 0.000483186)
(0.00389535 8.85195e-08 0.000518711)
(0.00306239 9.13758e-08 0.000549384)
(0.00218242 9.4456e-08 0.000574654)
(0.00126383 9.78142e-08 0.000593931)
(0.000316227 1.0137e-07 0.000606516)
(-0.00065078 1.04847e-07 0.000611313)
(-0.00162402 1.08478e-07 0.000607561)
(-0.00259161 1.12449e-07 0.000594814)
(-0.0035391 1.16611e-07 0.000572396)
(-0.00445087 1.20952e-07 0.000539284)
(-0.0053097 1.25486e-07 0.000494291)
(-0.00609637 1.30314e-07 0.000436329)
(-0.00678975 1.35592e-07 0.000364093)
(-0.00736643 1.4151e-07 0.000276265)
(-0.00780065 1.48144e-07 0.000171462)
(-0.00806427 1.55362e-07 4.84251e-05)
(-0.00812698 1.6266e-07 -9.36008e-05)
(-0.00795712 1.69622e-07 -0.000254162)
(-0.00752408 1.76483e-07 -0.000430887)
(-0.00680117 1.83614e-07 -0.000617321)
(-0.0057734 1.91718e-07 -0.000798344)
(-0.00445316 2.0129e-07 -0.00094218)
(-0.00290703 2.12304e-07 -0.000985677)
(-0.00131249 2.22902e-07 -0.000807737)
(-3.48523e-05 2.54417e-07 -0.000277863)
(0.000223089 1.25494e-07 0.000237583)
(0.00159211 1.4791e-06 -0.00163126)
(0.00824071 5.37931e-07 -0.00480362)
(0.0153033 2.59918e-07 -0.00469365)
(0.0203104 1.57334e-07 -0.0030128)
(0.0227544 1.18766e-07 -0.00119828)
(0.0229063 1.02215e-07 0.000385034)
(0.0211343 9.5719e-08 0.00166583)
(0.0178313 9.38116e-08 0.00266503)
(0.0133245 9.34139e-08 0.00343363)
(0.00788066 9.24727e-08 0.00402261)
(0.0017131 8.96099e-08 0.00446858)
(-0.00502337 8.45172e-08 0.00479278)
(-0.012163 7.88962e-08 0.00502111)
(-0.0196204 7.40281e-08 0.0051818)
(-0.0273047 6.98798e-08 0.00528953)
(-0.03515 6.63932e-08 0.00535517)
(-0.0431013 6.34383e-08 0.00538707)
(-0.0511135 6.08291e-08 0.00539168)
(-0.0591493 5.8391e-08 0.00537406)
(-0.0671775 5.60236e-08 0.00533817)
(-0.0751718 5.37133e-08 0.00528714)
(-0.0831097 5.14498e-08 0.00522348)
(-0.0909718 4.92464e-08 0.00514918)
(-0.0987414 4.71178e-08 0.00506586)
(-0.106404 4.50591e-08 0.00497482)
(-0.113946 4.30566e-08 0.00487712)
(-0.121357 4.1102e-08 0.00477364)
(-0.128626 3.92034e-08 0.0046651)
(-0.135743 3.73408e-08 0.0045521)
(-0.142701 3.55375e-08 0.00443515)
(-0.149492 3.37749e-08 0.00431468)
(-0.156108 3.20915e-08 0.00419106)
(-0.162543 3.04937e-08 0.00406461)
(-0.168791 2.8994e-08 0.00393561)
(-0.174847 2.76123e-08 0.00380431)
(-0.180706 2.63611e-08 0.00367095)
(-0.186362 2.52361e-08 0.00353574)
(-0.191812 2.4239e-08 0.00339887)
(-0.197052 2.33537e-08 0.00326052)
(-0.202078 2.25704e-08 0.00312089)
(-0.206887 2.18572e-08 0.00298013)
(-0.211476 2.11992e-08 0.00283843)
(-0.215842 2.05681e-08 0.00269593)
(-0.219984 1.99388e-08 0.00255281)
(-0.223898 1.92881e-08 0.00240922)
(-0.227585 1.86125e-08 0.00226533)
(-0.231043 1.78963e-08 0.00212129)
(-0.23427 1.71395e-08 0.00197727)
(-0.237266 1.63529e-08 0.00183342)
(-0.240031 1.5553e-08 0.00168991)
(-0.242565 1.47567e-08 0.00154689)
(-0.244868 1.39796e-08 0.00140452)
(-0.246941 1.32368e-08 0.00126295)
(-0.248785 1.25498e-08 0.00112235)
(-0.250402 1.19252e-08 0.000982872)
(-0.251793 1.13632e-08 0.000844664)
(-0.25296 1.08712e-08 0.000707883)
(-0.253905 1.04366e-08 0.000572676)
(-0.254631 1.00652e-08 0.000439171)
(-0.255141 9.74637e-09 0.000307458)
(-0.255438 9.46915e-09 0.000177563)
(-0.255524 9.2552e-09 4.95097e-05)
(-0.255405 9.09617e-09 -7.621e-05)
(-0.255083 8.96879e-09 -0.000199247)
(-0.254563 8.88136e-09 -0.000319747)
(-0.253849 8.83056e-09 -0.000437705)
(-0.252946 8.81556e-09 -0.000553026)
(-0.251857 8.84135e-09 -0.0006656)
(-0.250588 8.90543e-09 -0.000775319)
(-0.249144 8.99781e-09 -0.000882086)
(-0.247531 9.13598e-09 -0.000985812)
(-0.245752 9.30246e-09 -0.00108642)
(-0.243815 9.50391e-09 -0.00118383)
(-0.241724 9.74283e-09 -0.00127799)
(-0.239485 1.00201e-08 -0.00136883)
(-0.237104 1.03273e-08 -0.0014563)
(-0.234588 1.06695e-08 -0.00154036)
(-0.231941 1.105e-08 -0.00162098)
(-0.229169 1.14671e-08 -0.00169811)
(-0.22628 1.19243e-08 -0.00177174)
(-0.223278 1.24173e-08 -0.00184184)
(-0.220171 1.29461e-08 -0.0019084)
(-0.216963 1.35158e-08 -0.00197142)
(-0.213661 1.41172e-08 -0.0020309)
(-0.210272 1.47553e-08 -0.00208684)
(-0.2068 1.54342e-08 -0.00213926)
(-0.203253 1.61432e-08 -0.00218817)
(-0.199635 1.68806e-08 -0.0022336)
(-0.195953 1.76522e-08 -0.00227557)
(-0.192212 1.84548e-08 -0.00231412)
(-0.188418 1.92857e-08 -0.0023493)
(-0.184577 2.01418e-08 -0.00238114)
(-0.180694 2.10297e-08 -0.00240969)
(-0.176774 2.19435e-08 -0.00243501)
(-0.172823 2.28841e-08 -0.00245716)
(-0.168845 2.38465e-08 -0.0024762)
(-0.164847 2.48307e-08 -0.00249219)
(-0.160831 2.58351e-08 -0.00250522)
(-0.156804 2.68663e-08 -0.00251534)
(-0.15277 2.79143e-08 -0.00252264)
(-0.148733 2.89893e-08 -0.00252719)
(-0.144697 3.00827e-08 -0.00252909)
(-0.140667 3.1183e-08 -0.0025284)
(-0.136646 3.23085e-08 -0.00252522)
(-0.132638 3.3446e-08 -0.00251964)
(-0.128647 3.45986e-08 -0.00251175)
(-0.124677 3.57631e-08 -0.00250163)
(-0.12073 3.69379e-08 -0.00248937)
(-0.11681 3.81146e-08 -0.00247507)
(-0.112919 3.93016e-08 -0.00245882)
(-0.109061 4.04922e-08 -0.00244069)
(-0.105238 4.16813e-08 -0.0024208)
(-0.101453 4.28791e-08 -0.00239921)
(-0.0977078 4.40704e-08 -0.00237602)
(-0.0940051 4.52504e-08 -0.00235131)
(-0.0903469 4.64323e-08 -0.00232516)
(-0.0867351 4.75928e-08 -0.00229764)
(-0.0831715 4.87585e-08 -0.00226885)
(-0.079658 4.98912e-08 -0.00223884)
(-0.0761961 5.10092e-08 -0.00220768)
(-0.0727873 5.21274e-08 -0.00217545)
(-0.069433 5.32026e-08 -0.00214219)
(-0.0661345 5.42546e-08 -0.00210797)
(-0.0628932 5.52886e-08 -0.00207283)
(-0.0597101 5.62944e-08 -0.00203683)
(-0.0565864 5.72689e-08 -0.002)
(-0.053523 5.82002e-08 -0.00196237)
(-0.0505211 5.9105e-08 -0.00192398)
(-0.0475814 5.99734e-08 -0.00188486)
(-0.044705 6.08036e-08 -0.00184502)
(-0.0418928 6.15923e-08 -0.00180447)
(-0.0391455 6.23345e-08 -0.00176323)
(-0.0364642 6.30486e-08 -0.00172131)
(-0.0338496 6.37044e-08 -0.00167869)
(-0.0313027 6.43153e-08 -0.00163537)
(-0.0288243 6.48964e-08 -0.00159135)
(-0.0264153 6.54209e-08 -0.00154661)
(-0.0240768 6.59071e-08 -0.00150114)
(-0.0218096 6.63501e-08 -0.00145492)
(-0.0196148 6.67398e-08 -0.00140792)
(-0.0174934 6.71063e-08 -0.00136012)
(-0.0154466 6.74061e-08 -0.0013115)
(-0.0134753 6.76659e-08 -0.00126204)
(-0.0115808 6.79092e-08 -0.0012117)
(-0.0097644 6.81125e-08 -0.00116048)
(-0.00802718 6.82893e-08 -0.00110835)
(-0.00637047 6.8426e-08 -0.0010553)
(-0.00479554 6.85294e-08 -0.00100133)
(-0.00330372 6.86062e-08 -0.000946419)
(-0.00189623 6.86664e-08 -0.000890723)
(-0.00057437 6.86363e-08 -0.000834375)
(0.000661578 6.83953e-08 -0.000776738)
(0.00180856 6.81041e-08 -0.000717817)
(0.00286638 6.79437e-08 -0.00065813)
(0.00383346 6.78537e-08 -0.000597774)
(0.00470877 6.78109e-08 -0.000536824)
(0.00549133 6.78252e-08 -0.000475363)
(0.00618028 6.79167e-08 -0.000413487)
(0.00677493 6.80857e-08 -0.000351308)
(0.00727472 6.8332e-08 -0.000288956)
(0.00767934 6.86692e-08 -0.000226579)
(0.00798865 6.90939e-08 -0.000164349)
(0.00820283 6.96197e-08 -0.000102458)
(0.00832233 7.02196e-08 -4.11226e-05)
(0.00834786 7.10209e-08 1.94477e-05)
(0.00828069 7.20212e-08 7.90361e-05)
(0.00812208 7.31432e-08 0.000137373)
(0.00787398 7.44236e-08 0.000194154)
(0.00753872 7.58661e-08 0.000249062)
(0.00711914 7.75044e-08 0.000301752)
(0.0066186 7.92915e-08 0.000351853)
(0.00604106 8.1325e-08 0.000398972)
(0.00539109 8.35043e-08 0.000442684)
(0.00467392 8.59102e-08 0.000482539)
(0.00389549 8.85193e-08 0.000518054)
(0.00306253 9.13756e-08 0.000548716)
(0.00218255 9.44558e-08 0.000573974)
(0.00126396 9.7814e-08 0.00059324)
(0.000316345 1.0137e-07 0.000605812)
(-0.00065067 1.04847e-07 0.000610598)
(-0.00162391 1.08478e-07 0.000606835)
(-0.00259151 1.12448e-07 0.000594076)
(-0.00353901 1.16611e-07 0.000571644)
(-0.00445078 1.20952e-07 0.000538518)
(-0.00530962 1.25485e-07 0.00049351)
(-0.0060963 1.30313e-07 0.000435532)
(-0.00678969 1.35591e-07 0.000363277)
(-0.00736638 1.4151e-07 0.000275428)
(-0.00780061 1.48144e-07 0.000170602)
(-0.00806424 1.55361e-07 4.75398e-05)
(-0.00812696 1.62659e-07 -9.4514e-05)
(-0.00795711 1.69621e-07 -0.000255106)
(-0.00752409 1.76483e-07 -0.000431867)
(-0.0068012 1.83613e-07 -0.000618345)
(-0.00577346 1.91717e-07 -0.000799417)
(-0.00445325 2.01289e-07 -0.000943309)
(-0.0029072 2.12303e-07 -0.000986868)
(-0.00131276 2.229e-07 -0.000808993)
(-3.55599e-05 2.54416e-07 -0.000279155)
(0.000222537 1.25494e-07 0.000236542)
(0.0045892 4.61903e-07 -0.00872176)
(0.0100731 -3.23743e-08 -0.0105528)
(0.0130379 -4.11554e-08 -0.00839518)
(0.0144053 -4.43769e-08 -0.00488455)
(0.0141421 -4.17972e-08 -0.00135252)
(0.0124775 -3.82455e-08 0.0017511)
(0.00958004 -3.36054e-08 0.00431806)
(0.00562615 -2.87073e-08 0.00637948)
(0.000786187 -2.42448e-08 0.00801108)
(-0.00478314 -2.06779e-08 0.00929038)
(-0.0109368 -1.80719e-08 0.0102839)
(-0.0175617 -1.60581e-08 0.0110438)
(-0.0245569 -1.42865e-08 0.011617)
(-0.0318406 -1.26352e-08 0.0120444)
(-0.0393408 -1.10632e-08 0.0123538)
(-0.0469988 -9.60441e-09 0.0125674)
(-0.054765 -8.28834e-09 0.0127022)
(-0.0625975 -7.15727e-09 0.0127719)
(-0.070461 -6.22271e-09 0.0127871)
(-0.0783251 -5.47451e-09 0.0127564)
(-0.086164 -4.88761e-09 0.0126868)
(-0.0939553 -4.42322e-09 0.0125837)
(-0.101679 -4.0509e-09 0.0124517)
(-0.109319 -3.74441e-09 0.0122945)
(-0.11686 -3.48418e-09 0.0121151)
(-0.124288 -3.25687e-09 0.0119161)
(-0.131592 -3.05666e-09 0.0116995)
(-0.138761 -2.8752e-09 0.0114672)
(-0.145784 -2.70792e-09 0.0112205)
(-0.152654 -2.54817e-09 0.0109608)
(-0.159363 -2.39761e-09 0.0106892)
(-0.165902 -2.24541e-09 0.0104068)
(-0.172266 -2.08952e-09 0.0101142)
(-0.178447 -1.92535e-09 0.00981245)
(-0.184441 -1.74792e-09 0.00950213)
(-0.190242 -1.55558e-09 0.00918394)
(-0.195845 -1.3504e-09 0.00885853)
(-0.201246 -1.13487e-09 0.00852647)
(-0.20644 -9.16053e-10 0.00818836)
(-0.211424 -6.99757e-10 0.00784474)
(-0.216195 -4.95944e-10 0.00749617)
(-0.22075 -3.12909e-10 0.00714319)
(-0.225085 -1.55629e-10 0.00678633)
(-0.229198 -3.11526e-11 0.00642612)
(-0.233088 6.30162e-11 0.00606308)
(-0.236753 1.26883e-10 0.00569776)
(-0.240191 1.66263e-10 0.00533066)
(-0.243402 1.88213e-10 0.00496233)
(-0.246384 1.99376e-10 0.00459327)
(-0.249138 2.08051e-10 0.00422401)
(-0.251662 2.2212e-10 0.00385508)
(-0.253959 2.4117e-10 0.00348698)
(-0.256027 2.74325e-10 0.00312023)
(-0.257868 3.19926e-10 0.00275534)
(-0.259483 3.77556e-10 0.0023928)
(-0.260874 4.4431e-10 0.00203311)
(-0.262042 5.177e-10 0.00167676)
(-0.262989 5.96896e-10 0.00132422)
(-0.263719 6.76918e-10 0.00097597)
(-0.264233 7.55695e-10 0.000632453)
(-0.264534 8.38204e-10 0.000294104)
(-0.264626 9.09511e-10 -3.86477e-05)
(-0.264511 9.74598e-10 -0.000365514)
(-0.264195 1.03885e-09 -0.000686219)
(-0.263679 1.10187e-09 -0.00100038)
(-0.26297 1.16156e-09 -0.00130764)
(-0.26207 1.21545e-09 -0.00160766)
(-0.260985 1.26603e-09 -0.00190011)
(-0.259719 1.31329e-09 -0.00218469)
(-0.258277 1.35515e-09 -0.00246113)
(-0.256664 1.39329e-09 -0.00272918)
(-0.254886 1.42604e-09 -0.00298862)
(-0.252947 1.45671e-09 -0.00323923)
(-0.250852 1.48076e-09 -0.00348086)
(-0.248609 1.50066e-09 -0.00371333)
(-0.246221 1.51682e-09 -0.00393652)
(-0.243695 1.5276e-09 -0.00415031)
(-0.241036 1.53548e-09 -0.00435463)
(-0.238251 1.5388e-09 -0.00454938)
(-0.235345 1.53673e-09 -0.00473454)
(-0.232323 1.53217e-09 -0.00491007)
(-0.229193 1.52222e-09 -0.00507596)
(-0.225959 1.50813e-09 -0.00523222)
(-0.222628 1.48989e-09 -0.00537888)
(-0.219205 1.46585e-09 -0.005516)
(-0.215697 1.4389e-09 -0.00564364)
(-0.212109 1.40408e-09 -0.00576187)
(-0.208446 1.36594e-09 -0.00587081)
(-0.204715 1.32116e-09 -0.00597056)
(-0.200921 1.27306e-09 -0.00606125)
(-0.19707 1.21708e-09 -0.00614303)
(-0.193166 1.15653e-09 -0.00621605)
(-0.189216 1.09018e-09 -0.00628049)
(-0.185224 1.01926e-09 -0.00633652)
(-0.181196 9.42525e-10 -0.00638433)
(-0.177137 8.59152e-10 -0.00642413)
(-0.173052 7.72457e-10 -0.00645613)
(-0.168944 6.79532e-10 -0.00648054)
(-0.16482 5.81624e-10 -0.0064976)
(-0.160684 4.779e-10 -0.00650753)
(-0.156539 3.71679e-10 -0.00651057)
(-0.15239 2.59227e-10 -0.00650696)
(-0.148242 1.40541e-10 -0.00649695)
(-0.144098 1.85259e-11 -0.00648079)
(-0.139961 -1.08895e-10 -0.00645872)
(-0.135837 -2.39646e-10 -0.006431)
(-0.131727 -3.7539e-10 -0.00639788)
(-0.127636 -5.14468e-10 -0.0063596)
(-0.123566 -6.58955e-10 -0.00631642)
(-0.119522 -8.09683e-10 -0.00626858)
(-0.115505 -9.59182e-10 -0.00621631)
(-0.111519 -1.11534e-09 -0.00615986)
(-0.107565 -1.27567e-09 -0.00609946)
(-0.103648 -1.43809e-09 -0.00603532)
(-0.0997681 -1.60385e-09 -0.00596767)
(-0.0959288 -1.77254e-09 -0.00589671)
(-0.0921321 -1.94416e-09 -0.00582264)
(-0.0883798 -2.11497e-09 -0.00574566)
(-0.084674 -2.29245e-09 -0.00566595)
(-0.0810165 -2.46995e-09 -0.00558366)
(-0.0774089 -2.64914e-09 -0.00549897)
(-0.0738529 -2.82961e-09 -0.00541202)
(-0.0703502 -3.00927e-09 -0.00532295)
(-0.066902 -3.18813e-09 -0.00523186)
(-0.0635099 -3.37075e-09 -0.00513888)
(-0.0601752 -3.5505e-09 -0.0050441)
(-0.0568992 -3.7307e-09 -0.00494759)
(-0.0536832 -3.90969e-09 -0.00484943)
(-0.0505283 -4.08704e-09 -0.00474968)
(-0.0474357 -4.26194e-09 -0.00464836)
(-0.0444067 -4.43687e-09 -0.00454551)
(-0.0414424 -4.60685e-09 -0.00444115)
(-0.0385438 -4.77603e-09 -0.00433527)
(-0.0357123 -4.94026e-09 -0.00422787)
(-0.0329488 -5.09955e-09 -0.00411893)
(-0.0302547 -5.25388e-09 -0.00400841)
(-0.027631 -5.40576e-09 -0.00389627)
(-0.025079 -5.55102e-09 -0.00378247)
(-0.0226 -5.69217e-09 -0.00366695)
(-0.0201953 -5.82587e-09 -0.00354965)
(-0.0178661 -5.95378e-09 -0.0034305)
(-0.0156138 -6.07842e-09 -0.00330944)
(-0.0134399 -6.19061e-09 -0.00318641)
(-0.0113457 -6.29702e-09 -0.00306133)
(-0.00933276 -6.39265e-09 -0.00293414)
(-0.00740253 -6.48665e-09 -0.0028048)
(-0.00555657 -6.57238e-09 -0.00267327)
(-0.0037964 -6.65149e-09 -0.00253952)
(-0.0021236 -6.71981e-09 -0.00240357)
(-0.000539641 -6.78651e-09 -0.00226558)
(0.000953974 -6.86158e-09 -0.00212545)
(0.00235515 -6.89753e-09 -0.00198282)
(0.00366259 -6.88854e-09 -0.00183776)
(0.00487483 -6.86374e-09 -0.0016906)
(0.00599038 -6.82647e-09 -0.00154146)
(0.00700788 -6.77255e-09 -0.00139052)
(0.00792607 -6.71448e-09 -0.00123795)
(0.0087438 -6.64392e-09 -0.00108396)
(0.00946008 -6.56171e-09 -0.00092881)
(0.0100741 -6.47701e-09 -0.000772794)
(0.0105852 -6.38898e-09 -0.000616256)
(0.010993 -6.29012e-09 -0.000459587)
(0.0112974 -6.18793e-09 -0.000303232)
(0.0114984 -6.07989e-09 -0.000147691)
(0.0115967 -5.96841e-09 6.4949e-06)
(0.0115929 -5.86121e-09 0.000158787)
(0.0114884 -5.74234e-09 0.000308563)
(0.0112847 -5.62849e-09 0.000455086)
(0.010984 -5.51548e-09 0.000597578)
(0.0105888 -5.40665e-09 0.000735198)
(0.0101025 -5.31203e-09 0.000867039)
(0.00952857 -5.22494e-09 0.000992125)
(0.00887155 -5.15039e-09 0.00110941)
(0.00813646 -5.09342e-09 0.00121777)
(0.00732909 -5.04399e-09 0.00131599)
(0.00645599 -5.01046e-09 0.00140277)
(0.00552457 -4.98784e-09 0.00147674)
(0.0045431 -4.97278e-09 0.00153636)
(0.00352086 -4.97366e-09 0.00157999)
(0.00246801 -4.94278e-09 0.00160563)
(0.00139595 -4.87258e-09 0.00161136)
(0.000317056 -4.8208e-09 0.00159526)
(-0.000755034 -4.81089e-09 0.001555)
(-0.00180465 -4.83615e-09 0.00148807)
(-0.00281567 -4.87985e-09 0.00139177)
(-0.00377 -4.92191e-09 0.00126307)
(-0.00464816 -4.90867e-09 0.00109856)
(-0.005429 -4.78138e-09 0.000894719)
(-0.00608979 -4.59196e-09 0.000647867)
(-0.00660638 -4.43938e-09 0.000354524)
(-0.00695353 -4.4971e-09 1.20541e-05)
(-0.00710538 -4.84116e-09 -0.00037996)
(-0.00703679 -5.4404e-09 -0.000818011)
(-0.00672574 -6.08504e-09 -0.00129076)
(-0.00615602 -6.59507e-09 -0.00177089)
(-0.00532272 -7.03532e-09 -0.0022009)
(-0.00423655 -7.37219e-09 -0.00246774)
(-0.00293685 -7.10107e-09 -0.00236034)
(-0.00151004 3.34085e-09 -0.00155479)
(-0.000284178 -1.18642e-07 -6.72587e-05)
(0.00458825 4.61896e-07 -0.00872275)
(0.0100725 -3.23734e-08 -0.0105532)
(0.0130376 -4.11543e-08 -0.0083954)
(0.0144051 -4.43758e-08 -0.00488468)
(0.0141418 -4.17963e-08 -0.0013526)
(0.0124773 -3.82447e-08 0.00175104)
(0.00957989 -3.36047e-08 0.004318)
(0.00562603 -2.87068e-08 0.00637943)
(0.000786088 -2.42444e-08 0.00801102)
(-0.00478321 -2.06776e-08 0.00929032)
(-0.0109368 -1.80717e-08 0.0102838)
(-0.0175617 -1.60579e-08 0.0110437)
(-0.0245569 -1.42863e-08 0.0116169)
(-0.0318406 -1.2635e-08 0.0120443)
(-0.0393407 -1.1063e-08 0.0123538)
(-0.0469987 -9.60429e-09 0.0125673)
(-0.0547649 -8.28823e-09 0.0127022)
(-0.0625974 -7.15718e-09 0.0127719)
(-0.0704608 -6.22263e-09 0.0127871)
(-0.078325 -5.47444e-09 0.0127564)
(-0.0861638 -4.88755e-09 0.0126867)
(-0.0939551 -4.42316e-09 0.0125837)
(-0.101679 -4.05085e-09 0.0124517)
(-0.109319 -3.74437e-09 0.0122945)
(-0.11686 -3.48414e-09 0.0121151)
(-0.124288 -3.25683e-09 0.0119161)
(-0.131592 -3.05662e-09 0.0116995)
(-0.13876 -2.87517e-09 0.0114671)
(-0.145784 -2.70789e-09 0.0112205)
(-0.152654 -2.54814e-09 0.0109608)
(-0.159362 -2.39758e-09 0.0106892)
(-0.165902 -2.24539e-09 0.0104067)
(-0.172265 -2.08949e-09 0.0101142)
(-0.178447 -1.92533e-09 0.00981242)
(-0.184441 -1.7479e-09 0.0095021)
(-0.190242 -1.55556e-09 0.00918392)
(-0.195845 -1.35038e-09 0.0088585)
(-0.201245 -1.13486e-09 0.00852645)
(-0.20644 -9.16043e-10 0.00818833)
(-0.211424 -6.9975e-10 0.00784472)
(-0.216195 -4.95938e-10 0.00749615)
(-0.220749 -3.12906e-10 0.00714317)
(-0.225084 -1.55627e-10 0.0067863)
(-0.229198 -3.11523e-11 0.00642609)
(-0.233088 6.30155e-11 0.00606306)
(-0.236753 1.26882e-10 0.00569773)
(-0.240191 1.66261e-10 0.00533064)
(-0.243402 1.88211e-10 0.0049623)
(-0.246384 1.99374e-10 0.00459324)
(-0.249137 2.08048e-10 0.00422399)
(-0.251662 2.22118e-10 0.00385505)
(-0.253958 2.41167e-10 0.00348695)
(-0.256026 2.74322e-10 0.0031202)
(-0.257867 3.19922e-10 0.00275531)
(-0.259483 3.77552e-10 0.00239277)
(-0.260873 4.44306e-10 0.00203308)
(-0.262041 5.17695e-10 0.00167673)
(-0.262989 5.96889e-10 0.00132419)
(-0.263718 6.76911e-10 0.000975938)
(-0.264232 7.55688e-10 0.000632419)
(-0.264533 8.38195e-10 0.00029407)
(-0.264625 9.09502e-10 -3.86825e-05)
(-0.264511 9.74588e-10 -0.000365549)
(-0.264194 1.03884e-09 -0.000686255)
(-0.263679 1.10186e-09 -0.00100042)
(-0.262969 1.16155e-09 -0.00130768)
(-0.26207 1.21544e-09 -0.0016077)
(-0.260985 1.26602e-09 -0.00190015)
(-0.259719 1.31327e-09 -0.00218474)
(-0.258277 1.35514e-09 -0.00246118)
(-0.256664 1.39328e-09 -0.00272922)
(-0.254885 1.42602e-09 -0.00298866)
(-0.252946 1.4567e-09 -0.00323928)
(-0.250852 1.48074e-09 -0.0034809)
(-0.248608 1.50064e-09 -0.00371337)
(-0.24622 1.51681e-09 -0.00393657)
(-0.243694 1.52759e-09 -0.00415036)
(-0.241036 1.53547e-09 -0.00435467)
(-0.23825 1.53878e-09 -0.00454943)
(-0.235344 1.53671e-09 -0.00473459)
(-0.232323 1.53216e-09 -0.00491012)
(-0.229193 1.52221e-09 -0.00507601)
(-0.225959 1.50812e-09 -0.00523227)
(-0.222628 1.48988e-09 -0.00537894)
(-0.219205 1.46584e-09 -0.00551606)
(-0.215697 1.43889e-09 -0.00564369)
(-0.212108 1.40407e-09 -0.00576193)
(-0.208446 1.36592e-09 -0.00587086)
(-0.204715 1.32114e-09 -0.00597061)
(-0.200921 1.27305e-09 -0.00606131)
(-0.197069 1.21707e-09 -0.00614309)
(-0.193166 1.15652e-09 -0.00621611)
(-0.189216 1.09017e-09 -0.00628055)
(-0.185224 1.01925e-09 -0.00633658)
(-0.181196 9.42517e-10 -0.00638439)
(-0.177137 8.59145e-10 -0.0064242)
(-0.173051 7.7245e-10 -0.0064562)
(-0.168944 6.79527e-10 -0.00648061)
(-0.16482 5.81619e-10 -0.00649767)
(-0.160683 4.77896e-10 -0.0065076)
(-0.156539 3.71676e-10 -0.00651064)
(-0.15239 2.59225e-10 -0.00650703)
(-0.148241 1.4054e-10 -0.00649702)
(-0.144097 1.85258e-11 -0.00648086)
(-0.139961 -1.08894e-10 -0.0064588)
(-0.135836 -2.39644e-10 -0.00643108)
(-0.131727 -3.75387e-10 -0.00639796)
(-0.127636 -5.14464e-10 -0.00635969)
(-0.123566 -6.5895e-10 -0.0063165)
(-0.119522 -8.09677e-10 -0.00626866)
(-0.115505 -9.59175e-10 -0.0062164)
(-0.111518 -1.11533e-09 -0.00615995)
(-0.107565 -1.27566e-09 -0.00609954)
(-0.103647 -1.43808e-09 -0.00603541)
(-0.0997678 -1.60384e-09 -0.00596776)
(-0.0959286 -1.77253e-09 -0.0058968)
(-0.0921319 -1.94415e-09 -0.00582274)
(-0.0883796 -2.11495e-09 -0.00574576)
(-0.0846738 -2.29243e-09 -0.00566604)
(-0.0810163 -2.46994e-09 -0.00558376)
(-0.0774087 -2.64913e-09 -0.00549907)
(-0.0738527 -2.82959e-09 -0.00541213)
(-0.0703499 -3.00925e-09 -0.00532305)
(-0.0669018 -3.18811e-09 -0.00523197)
(-0.0635097 -3.37073e-09 -0.00513899)
(-0.060175 -3.55048e-09 -0.00504421)
(-0.056899 -3.73068e-09 -0.0049477)
(-0.053683 -3.90966e-09 -0.00484955)
(-0.0505281 -4.08701e-09 -0.00474979)
(-0.0474355 -4.26191e-09 -0.00464848)
(-0.0444065 -4.43684e-09 -0.00454563)
(-0.0414422 -4.60682e-09 -0.00444127)
(-0.0385436 -4.776e-09 -0.00433539)
(-0.0357121 -4.94023e-09 -0.00422799)
(-0.0329486 -5.09952e-09 -0.00411905)
(-0.0302545 -5.25385e-09 -0.00400853)
(-0.0276308 -5.40573e-09 -0.0038964)
(-0.0250789 -5.55099e-09 -0.0037826)
(-0.0225999 -5.69214e-09 -0.00366708)
(-0.0201951 -5.82584e-09 -0.00354978)
(-0.0178659 -5.95375e-09 -0.00343064)
(-0.0156137 -6.07838e-09 -0.00330958)
(-0.0134397 -6.19058e-09 -0.00318654)
(-0.0113455 -6.29698e-09 -0.00306146)
(-0.00933258 -6.39262e-09 -0.00293428)
(-0.00740235 -6.48662e-09 -0.00280494)
(-0.00555639 -6.57235e-09 -0.00267341)
(-0.00379622 -6.65146e-09 -0.00253966)
(-0.00212342 -6.71978e-09 -0.00240372)
(-0.00053946 -6.78648e-09 -0.00226573)
(0.000954154 -6.86155e-09 -0.0021256)
(0.00235533 -6.89751e-09 -0.00198297)
(0.00366277 -6.88851e-09 -0.00183791)
(0.00487502 -6.86372e-09 -0.00169075)
(0.00599056 -6.82644e-09 -0.00154162)
(0.00700807 -6.77252e-09 -0.00139067)
(0.00792625 -6.71446e-09 -0.0012381)
(0.00874398 -6.6439e-09 -0.00108412)
(0.00946026 -6.56169e-09 -0.000928967)
(0.0100743 -6.47698e-09 -0.000772953)
(0.0105854 -6.38896e-09 -0.000616416)
(0.0109932 -6.2901e-09 -0.000459748)
(0.0112975 -6.18791e-09 -0.000303394)
(0.0114986 -6.07987e-09 -0.000147854)
(0.0115968 -5.96839e-09 6.33047e-06)
(0.0115931 -5.86119e-09 0.000158621)
(0.0114885 -5.74232e-09 0.000308396)
(0.0112848 -5.62847e-09 0.000454918)
(0.0109841 -5.51546e-09 0.000597408)
(0.010589 -5.40663e-09 0.000735026)
(0.0101026 -5.31201e-09 0.000866866)
(0.00952872 -5.22492e-09 0.00099195)
(0.0088717 -5.15038e-09 0.00110923)
(0.0081366 -5.0934e-09 0.00121759)
(0.00732923 -5.04397e-09 0.00131581)
(0.00645613 -5.01045e-09 0.00140259)
(0.0055247 -4.98783e-09 0.00147655)
(0.00454322 -4.97277e-09 0.00153617)
(0.00352097 -4.97365e-09 0.0015798)
(0.00246812 -4.94276e-09 0.00160544)
(0.00139605 -4.87256e-09 0.00161116)
(0.000317149 -4.82079e-09 0.00159506)
(-0.000754947 -4.81088e-09 0.00155479)
(-0.00180457 -4.83613e-09 0.00148786)
(-0.0028156 -4.87984e-09 0.00139155)
(-0.00376994 -4.9219e-09 0.00126284)
(-0.0046481 -4.90865e-09 0.00109833)
(-0.00542894 -4.78137e-09 0.000894477)
(-0.00608975 -4.59195e-09 0.000647613)
(-0.00660634 -4.43936e-09 0.000354256)
(-0.0069535 -4.49709e-09 1.17707e-05)
(-0.00710536 -4.84115e-09 -0.000380263)
(-0.00703678 -5.44039e-09 -0.000818338)
(-0.00672574 -6.08503e-09 -0.00129111)
(-0.00615604 -6.59505e-09 -0.00177128)
(-0.00532276 -7.03531e-09 -0.00220135)
(-0.00423663 -7.37217e-09 -0.00246827)
(-0.002937 -7.10106e-09 -0.00236097)
(-0.00151054 3.34085e-09 -0.00155563)
(-0.000284882 -1.18642e-07 -6.8339e-05)
(0.00424757 2.05717e-07 -0.0160842)
(0.00776365 -5.36227e-08 -0.0136756)
(0.00843106 -3.19316e-08 -0.00909377)
(0.00781876 -2.71252e-08 -0.00411566)