/*--------------------------------*- C++ -*----------------------------------*\
  =========                 |
  \\      /  F ield         | OpenFOAM: The Open Source CFD Toolbox
   \\    /   O peration     | Website:  https://openfoam.org
    \\  /    A nd           | Version:  8
     \\/     M anipulation  |
\*---------------------------------------------------------------------------*/
FoamFile
{
    version     2.0;
    format      ascii;
    class       surfaceScalarField;
    location    "1700";
    object      phi;
}
// * * * * * * * * * * * * * * * * * * * * * * * * * * * * * * * * * * * * * //

dimensions      [1 0 -1 0 0 0 0];

internalField   nonuniform List<scalar> 
119360
(
-2.47422e-07
-1.51423e-11
2.47437e-07
-3.95735e-07
-6.74375e-13
1.48451e-07
-4.2945e-07
2.3046e-14
3.37735e-08
-3.73079e-07
-3.96854e-13
-5.63246e-08
-2.58085e-07
-1.05006e-12
-1.14953e-07
-1.07082e-07
-1.59741e-12
-1.50963e-07
6.45769e-08
-1.79336e-12
-1.71621e-07
2.46409e-07
-1.80886e-12
-1.81796e-07
4.31648e-07
-1.7327e-12
-1.85206e-07
6.162e-07
-1.60497e-12
-1.84522e-07
7.97415e-07
-1.52298e-12
-1.81187e-07
9.73612e-07
-1.50478e-12
-1.76172e-07
1.14374e-06
-1.48413e-12
-1.70104e-07
1.30717e-06
-1.46356e-12
-1.63406e-07
1.46355e-06
-1.46698e-12
-1.56362e-07
1.61274e-06
-1.45771e-12
-1.49166e-07
1.75471e-06
-1.39326e-12
-1.41954e-07
1.88955e-06
-1.29534e-12
-1.34814e-07
2.01738e-06
-1.21097e-12
-1.2781e-07
2.13838e-06
-1.14582e-12
-1.20983e-07
2.25276e-06
-1.0693e-12
-1.14357e-07
2.36073e-06
-9.69272e-13
-1.07947e-07
2.46251e-06
-8.73738e-13
-1.01763e-07
2.55834e-06
-8.14841e-13
-9.5806e-08
2.64843e-06
-7.91915e-13
-9.0075e-08
2.73302e-06
-7.77427e-13
-8.45662e-08
2.81231e-06
-7.54501e-13
-7.92742e-08
2.88652e-06
-7.33685e-13
-7.41928e-08
2.95585e-06
-7.33407e-13
-6.9315e-08
3.0205e-06
-7.5081e-13
-6.46338e-08
3.08067e-06
-7.59998e-13
-6.01421e-08
3.13652e-06
-7.34407e-13
-5.5833e-08
3.18824e-06
-6.71763e-13
-5.16999e-08
3.236e-06
-5.94991e-13
-4.77366e-08
3.27995e-06
-5.31181e-13
-4.39374e-08
3.32027e-06
-4.91213e-13
-4.02968e-08
3.3571e-06
-4.65623e-13
-3.68096e-08
3.39059e-06
-4.38006e-13
-3.3471e-08
3.42088e-06
-4.0198e-13
-3.02764e-08
3.44812e-06
-3.66619e-13
-2.72215e-08
3.47244e-06
-3.488e-13
-2.43022e-08
3.49398e-06
-3.5993e-13
-2.15146e-08
3.51285e-06
-3.95402e-13
-1.88549e-08
3.52918e-06
-4.37812e-13
-1.63193e-08
3.5431e-06
-4.65762e-13
-1.39041e-08
3.55472e-06
-4.6604e-13
-1.16057e-08
3.56416e-06
-4.38673e-13
-9.42042e-09
3.57152e-06
-3.95153e-13
-7.34485e-09
3.57691e-06
-3.51243e-13
-5.37549e-09
3.58044e-06
-3.18631e-13
-3.5089e-09
3.5822e-06
-3.00589e-13
-1.74161e-09
3.58228e-06
-2.94095e-13
-6.91692e-11
3.58078e-06
-2.93262e-13
1.5103e-09
3.5778e-06
-2.95233e-13
2.99852e-09
3.57341e-06
-3.02505e-13
4.40006e-09
3.5677e-06
-3.20546e-13
5.71879e-09
3.56076e-06
-3.54214e-13
6.95825e-09
3.55265e-06
-4.04063e-13
8.12185e-09
3.54344e-06
-4.64265e-13
9.21289e-09
3.53322e-06
-5.23023e-13
1.02347e-08
3.52204e-06
-5.68015e-13
1.11904e-08
3.50997e-06
-5.89665e-13
1.20834e-08
3.49707e-06
-5.85446e-13
1.29166e-08
3.48339e-06
-5.61437e-13
1.36931e-08
3.46899e-06
-5.29491e-13
1.44158e-08
3.45391e-06
-5.04317e-13
1.50875e-08
3.43822e-06
-4.97988e-13
1.57109e-08
3.42194e-06
-5.17417e-13
1.62886e-08
3.40513e-06
-5.61549e-13
1.68233e-08
3.38783e-06
-6.22528e-13
1.73174e-08
3.37007e-06
-6.88975e-13
1.77733e-08
3.3519e-06
-7.48122e-13
1.81934e-08
3.33334e-06
-7.90422e-13
1.858e-08
3.31442e-06
-8.10905e-13
1.89352e-08
3.29518e-06
-8.09767e-13
1.92612e-08
3.27564e-06
-7.92059e-13
1.95599e-08
3.25583e-06
-7.64581e-13
1.98332e-08
3.23576e-06
-7.35605e-13
2.00829e-08
3.21547e-06
-7.11013e-13
2.03106e-08
3.19498e-06
-6.9386e-13
2.0518e-08
3.17429e-06
-6.84618e-13
2.07065e-08
3.15344e-06
-6.80205e-13
2.08776e-08
3.13243e-06
-6.7643e-13
2.10328e-08
3.11128e-06
-6.68242e-13
2.11732e-08
3.09e-06
-6.52061e-13
2.13003e-08
3.06861e-06
-6.2536e-13
2.14151e-08
3.04711e-06
-5.88001e-13
2.15188e-08
3.02552e-06
-5.4226e-13
2.16125e-08
3.00384e-06
-4.91134e-13
2.16972e-08
2.98209e-06
-4.39204e-13
2.17737e-08
2.96026e-06
-3.90659e-13
2.18429e-08
2.93838e-06
-3.49026e-13
2.19058e-08
2.91643e-06
-3.1633e-13
2.19629e-08
2.89444e-06
-2.93598e-13
2.2015e-08
2.87239e-06
-2.79776e-13
2.20629e-08
2.8503e-06
-2.73031e-13
2.21072e-08
2.82816e-06
-2.69839e-13
2.21484e-08
2.80599e-06
-2.67647e-13
2.21872e-08
2.78378e-06
-2.63261e-13
2.22242e-08
2.76153e-06
-2.54824e-13
2.22599e-08
2.73925e-06
-2.41501e-13
2.22949e-08
2.71694e-06
-2.23599e-13
2.23296e-08
2.69458e-06
-2.0306e-13
2.23646e-08
2.67219e-06
-1.8252e-13
2.24003e-08
2.64977e-06
-1.65007e-13
2.24372e-08
2.6273e-06
-1.53599e-13
2.24757e-08
2.6048e-06
-1.50546e-13
2.25164e-08
2.58225e-06
-1.57013e-13
2.25597e-08
2.55965e-06
-1.7264e-13
2.2606e-08
2.537e-06
-1.96065e-13
2.26557e-08
2.5143e-06
-2.23627e-13
2.27094e-08
2.49154e-06
-2.51798e-13
2.27675e-08
2.46872e-06
-2.76057e-13
2.28304e-08
2.44583e-06
-2.92682e-13
2.28986e-08
2.42286e-06
-2.98816e-13
2.29725e-08
2.39982e-06
-2.93904e-13
2.30526e-08
2.37669e-06
-2.79249e-13
2.31392e-08
2.35346e-06
-2.58099e-13
2.3233e-08
2.33014e-06
-2.35423e-13
2.33341e-08
2.3067e-06
-2.16438e-13
2.34432e-08
2.28315e-06
-2.05919e-13
2.35605e-08
2.25947e-06
-2.0714e-13
2.36865e-08
2.23566e-06
-2.20324e-13
2.38217e-08
2.2117e-06
-2.42889e-13
2.39664e-08
2.18759e-06
-2.70395e-13
2.41212e-08
2.16331e-06
-2.96318e-13
2.42865e-08
2.13886e-06
-3.15053e-13
2.44628e-08
2.11421e-06
-3.23214e-13
2.46506e-08
2.08937e-06
-3.21076e-13
2.48504e-08
2.06432e-06
-3.12722e-13
2.50626e-08
2.03904e-06
-3.05089e-13
2.52876e-08
2.01352e-06
-3.06311e-13
2.55259e-08
1.98775e-06
-3.22603e-13
2.57779e-08
1.96171e-06
-3.55604e-13
2.60439e-08
1.9354e-06
-4.01318e-13
2.63242e-08
1.90879e-06
-4.51e-13
2.66194e-08
1.88187e-06
-4.92995e-13
2.69298e-08
1.85462e-06
-5.16254e-13
2.72558e-08
1.82704e-06
-5.14394e-13
2.75978e-08
1.79909e-06
-4.87665e-13
2.79562e-08
1.77077e-06
-4.4259e-13
2.83314e-08
1.74206e-06
-3.90382e-13
2.87238e-08
1.71294e-06
-3.41338e-13
2.91335e-08
1.68339e-06
-3.01814e-13
2.9561e-08
1.6534e-06
-2.73059e-13
3.00064e-08
1.62294e-06
-2.50827e-13
3.047e-08
1.592e-06
-2.30621e-13
3.09521e-08
1.56056e-06
-2.09027e-13
3.14527e-08
1.5286e-06
-1.8785e-13
3.19722e-08
1.4961e-06
-1.71224e-13
3.25106e-08
1.46304e-06
-1.6262e-13
3.30679e-08
1.42941e-06
-1.59289e-13
3.36441e-08
1.39518e-06
-1.53544e-13
3.4239e-08
1.36033e-06
-1.33588e-13
3.48526e-08
1.32486e-06
-9.32587e-14
3.54846e-08
1.28873e-06
-3.41671e-14
3.61346e-08
1.25194e-06
3.18912e-14
3.68021e-08
1.21446e-06
9.11216e-14
3.74863e-08
1.17628e-06
1.36002e-13
3.81864e-08
1.13738e-06
1.69476e-13
3.89012e-08
1.09776e-06
2.02255e-13
3.96294e-08
1.05739e-06
2.44249e-13
4.03694e-08
1.01627e-06
2.94126e-13
4.11194e-08
9.74397e-07
3.40672e-13
4.18772e-08
9.31757e-07
3.72313e-13
4.264e-08
8.88351e-07
3.8991e-13
4.34049e-08
8.44181e-07
4.09173e-13
4.41681e-08
7.99251e-07
4.45782e-13
4.49255e-08
7.53575e-07
4.99212e-13
4.56721e-08
7.07166e-07
5.5006e-13
4.64023e-08
6.6005e-07
5.76039e-13
4.71095e-08
6.12256e-07
5.7826e-13
4.7786e-08
5.63824e-07
5.83256e-13
4.84229e-08
5.14803e-07
6.17117e-13
4.90099e-08
4.65257e-07
6.74183e-13
4.95351e-08
4.1526e-07
7.2109e-13
4.99846e-08
3.64905e-07
7.38132e-13
5.03422e-08
3.14303e-07
7.51288e-13
5.05889e-08
2.63586e-07
8.05078e-13
5.07025e-08
2.12915e-07
9.02112e-13
5.06569e-08
1.62479e-07
9.88265e-13
5.04209e-08
1.12506e-07
1.03328e-12
4.99571e-08
6.32718e-08
1.10434e-12
4.92181e-08
1.51055e-08
1.30895e-12
4.81493e-08
-3.1569e-08
1.64574e-12
4.66569e-08
-7.62342e-08
2.02671e-12
4.4647e-08
-1.18297e-07
2.44238e-12
4.20433e-08
-1.57069e-07
2.99066e-12
3.8753e-08
-1.91724e-07
3.74817e-12
3.46332e-08
-2.21225e-07
4.70524e-12
2.94789e-08
-2.4432e-07
5.94275e-12
2.30688e-08
-2.59476e-07
7.57872e-12
1.5128e-08
-2.64841e-07
9.15146e-12
5.3355e-09
-2.58304e-07
9.15451e-12
-6.56767e-09
-2.37658e-07
5.75617e-12
-2.06772e-08
-2.0101e-07
-3.757e-13
-3.66781e-08
-1.47824e-07
3.75752e-11
-5.32559e-08
-8.3347e-08
1.41235e-10
-6.46579e-08
-2.61986e-08
5.80331e-10
-5.77797e-08
1.14856e-09
-2.73983e-08
-2.47379e-07
2.47443e-07
-3.95729e-07
1.48448e-07
-4.29447e-07
3.37718e-08
-3.73074e-07
-5.63249e-08
-2.58078e-07
-1.14952e-07
-1.07075e-07
-1.50961e-07
6.4584e-08
-1.71619e-07
2.46415e-07
-1.81794e-07
4.31654e-07
-1.85205e-07
6.16204e-07
-1.84521e-07
7.97418e-07
-1.81186e-07
9.73613e-07
-1.76171e-07
1.14374e-06
-1.70103e-07
1.30717e-06
-1.63405e-07
1.46355e-06
-1.56361e-07
1.61273e-06
-1.49165e-07
1.75471e-06
-1.41952e-07
1.88954e-06
-1.34813e-07
2.01737e-06
-1.27809e-07
2.13838e-06
-1.20981e-07
2.25275e-06
-1.14355e-07
2.36072e-06
-1.07946e-07
2.46251e-06
-1.01761e-07
2.55833e-06
-9.58044e-08
2.64842e-06
-9.00734e-08
2.73301e-06
-8.45645e-08
2.8123e-06
-7.92725e-08
2.88651e-06
-7.4191e-08
2.95585e-06
-6.93132e-08
3.0205e-06
-6.46319e-08
3.08066e-06
-6.01401e-08
3.13651e-06
-5.58309e-08
3.18823e-06
-5.16978e-08
3.23599e-06
-4.77345e-08
3.27995e-06
-4.39353e-08
3.32026e-06
-4.02948e-08
3.35709e-06
-3.68077e-08
3.39058e-06
-3.34691e-08
3.42088e-06
-3.02746e-08
3.44812e-06
-2.72197e-08
3.47244e-06
-2.43005e-08
3.49397e-06
-2.15129e-08
3.51284e-06
-1.88532e-08
3.52918e-06
-1.63176e-08
3.5431e-06
-1.39024e-08
3.55472e-06
-1.1604e-08
3.56416e-06
-9.41879e-09
3.57152e-06
-7.34327e-09
3.57691e-06
-5.37398e-09
3.58043e-06
-3.50749e-09
3.58219e-06
-1.74028e-09
3.58227e-06
-6.79248e-11
3.58078e-06
1.51147e-09
3.57779e-06
2.99963e-09
3.57341e-06
4.40112e-09
3.5677e-06
5.71981e-09
3.56075e-06
6.95925e-09
3.55264e-06
8.12284e-09
3.54344e-06
9.21392e-09
3.53322e-06
1.02358e-08
3.52204e-06
1.11916e-08
3.50997e-06
1.20846e-08
3.49707e-06
1.29179e-08
3.48339e-06
1.36945e-08
3.46898e-06
1.44172e-08
3.45391e-06
1.50889e-08
3.43821e-06
1.57124e-08
3.42194e-06
1.62902e-08
3.40513e-06
1.68249e-08
3.38783e-06
1.7319e-08
3.37007e-06
1.7775e-08
3.3519e-06
1.81952e-08
3.33333e-06
1.85819e-08
3.31442e-06
1.89372e-08
3.29517e-06
1.92633e-08
3.27564e-06
1.95621e-08
3.25582e-06
1.98354e-08
3.23576e-06
2.00851e-08
3.21547e-06
2.03128e-08
3.19498e-06
2.05202e-08
3.17429e-06
2.07087e-08
3.15344e-06
2.08798e-08
3.13243e-06
2.1035e-08
3.11128e-06
2.11754e-08
3.09e-06
2.13024e-08
3.0686e-06
2.14172e-08
3.04711e-06
2.15209e-08
3.02552e-06
2.16146e-08
3.00384e-06
2.16992e-08
2.98209e-06
2.17756e-08
2.96026e-06
2.18448e-08
2.93838e-06
2.19075e-08
2.91643e-06
2.19646e-08
2.89443e-06
2.20166e-08
2.87239e-06
2.20645e-08
2.8503e-06
2.21087e-08
2.82816e-06
2.21498e-08
2.80599e-06
2.21886e-08
2.78378e-06
2.22256e-08
2.76153e-06
2.22613e-08
2.73925e-06
2.22962e-08
2.71693e-06
2.23309e-08
2.69458e-06
2.23658e-08
2.67219e-06
2.24014e-08
2.64977e-06
2.24382e-08
2.6273e-06
2.24767e-08
2.6048e-06
2.25173e-08
2.58225e-06
2.25605e-08
2.55965e-06
2.26067e-08
2.537e-06
2.26564e-08
2.5143e-06
2.27101e-08
2.49154e-06
2.27681e-08
2.46872e-06
2.2831e-08
2.44583e-06
2.28993e-08
2.42286e-06
2.29732e-08
2.39982e-06
2.30534e-08
2.37669e-06
2.31401e-08
2.35346e-06
2.32339e-08
2.33014e-06
2.33351e-08
2.3067e-06
2.34441e-08
2.28315e-06
2.35614e-08
2.25947e-06
2.36874e-08
2.23566e-06
2.38225e-08
2.2117e-06
2.39672e-08
2.18759e-06
2.41219e-08
2.16331e-06
2.42872e-08
2.13885e-06
2.44635e-08
2.11421e-06
2.46513e-08
2.08937e-06
2.48511e-08
2.06432e-06
2.50633e-08
2.03904e-06
2.52884e-08
2.01352e-06
2.55267e-08
1.98775e-06
2.57787e-08
1.96171e-06
2.60447e-08
1.9354e-06
2.63252e-08
1.90879e-06
2.66204e-08
1.88187e-06
2.69309e-08
1.85462e-06
2.72569e-08
1.82704e-06
2.7599e-08
1.79909e-06
2.79575e-08
1.77077e-06
2.83328e-08
1.74206e-06
2.87251e-08
1.71294e-06
2.91348e-08
1.68339e-06
2.95623e-08
1.6534e-06
3.00076e-08
1.62294e-06
3.04712e-08
1.592e-06
3.09532e-08
1.56056e-06
3.14538e-08
1.5286e-06
3.19732e-08
1.4961e-06
3.25116e-08
1.46304e-06
3.30688e-08
1.42941e-06
3.3645e-08
1.39518e-06
3.42399e-08
1.36033e-06
3.48535e-08
1.32486e-06
3.54854e-08
1.28873e-06
3.61354e-08
1.25194e-06
3.68028e-08
1.21446e-06
3.74869e-08
1.17628e-06
3.81869e-08
1.13738e-06
3.89016e-08
1.09776e-06
3.96296e-08
1.05739e-06
4.03695e-08
1.01627e-06
4.11194e-08
9.74398e-07
4.18771e-08
9.31758e-07
4.26398e-08
8.88352e-07
4.34046e-08
8.44181e-07
4.41676e-08
7.99252e-07
4.49249e-08
7.53575e-07
4.56714e-08
7.07167e-07
4.64015e-08
6.60051e-07
4.71086e-08
6.12257e-07
4.7785e-08
5.63825e-07
4.84218e-08
5.14805e-07
4.90087e-08
4.65259e-07
4.95339e-08
4.15262e-07
4.99834e-08
3.64908e-07
5.03409e-08
3.14306e-07
5.05876e-08
2.63589e-07
5.07012e-08
2.12919e-07
5.06555e-08
1.62483e-07
5.04196e-08
1.12511e-07
4.99557e-08
6.32779e-08
4.92167e-08
1.51131e-08
4.81481e-08
-3.15596e-08
4.66559e-08
-7.62229e-08
4.46461e-08
-1.18283e-07
4.20424e-08
-1.57052e-07
3.87521e-08
-1.91701e-07
3.46322e-08
-2.21196e-07
2.94777e-08
-2.4428e-07
2.30673e-08
-2.59424e-07
1.5126e-08
-2.64775e-07
5.33299e-09
-2.58223e-07
-6.57082e-09
-2.37554e-07
-2.06892e-08
-2.00849e-07
-3.67385e-08
-1.47357e-07
-5.34954e-08
-8.21427e-08
-6.51205e-08
-2.50252e-08
-5.65966e-08
-2.39353e-08
-1.26177e-07
-4.12701e-12
3.73762e-07
-1.24836e-07
5.0603e-13
1.47202e-07
-7.20511e-08
7.08667e-13
-1.89673e-08
1.32812e-08
6.44012e-13
-1.41619e-07
1.23817e-07
5.15054e-13
-2.25454e-07
2.52897e-07
4.47687e-13
-2.8001e-07
3.94593e-07
3.85679e-13
-3.13285e-07
5.44117e-07
3.13304e-13
-3.31291e-07
6.97672e-07
2.67971e-13
-3.38736e-07
8.52285e-07
2.34767e-13
-3.39112e-07
1.00579e-06
2.00086e-13
-3.34675e-07
1.15665e-06
1.73634e-13
-3.27006e-07
1.30375e-06
1.5274e-13
-3.17193e-07
1.44636e-06
1.27392e-13
-3.05995e-07
1.58397e-06
1.05666e-13
-2.9395e-07
1.71626e-06
1.02612e-13
-2.81435e-07
1.84304e-06
1.14678e-13
-2.68721e-07
1.96424e-06
1.24656e-13
-2.55999e-07
2.07986e-06
1.26307e-13
-2.43403e-07
2.18992e-06
1.29346e-13
-2.31027e-07
2.29452e-06
1.41718e-13
-2.18936e-07
2.39376e-06
1.57885e-13
-2.07171e-07
2.48777e-06
1.66961e-13
-1.95759e-07
2.5767e-06
1.66635e-13
-1.84715e-07
2.66069e-06
1.64366e-13
-1.74045e-07
2.73989e-06
1.66718e-13
-1.6375e-07
2.81445e-06
1.71651e-13
-1.53826e-07
2.88455e-06
1.72172e-13
-1.44267e-07
2.95031e-06
1.65732e-13
-1.35064e-07
3.0119e-06
1.58099e-13
-1.26209e-07
3.06947e-06
1.57919e-13
-1.17692e-07
3.12316e-06
1.68473e-13
-1.09503e-07
3.17311e-06
1.84911e-13
-1.01632e-07
3.21946e-06
1.98733e-13
-9.40699e-08
3.26235e-06
2.04881e-13
-8.68075e-08
3.30191e-06
2.04756e-13
-7.9836e-08
3.33826e-06
2.03722e-13
-7.3147e-08
3.37154e-06
2.05547e-13
-6.67327e-08
3.40187e-06
2.09356e-13
-6.05855e-08
3.42936e-06
2.10439e-13
-5.46979e-08
3.45414e-06
2.04416e-13
-4.90631e-08
3.47631e-06
1.90524e-13
-4.36743e-08
3.496e-06
1.72795e-13
-3.85248e-08
3.5133e-06
1.57245e-13
-3.36081e-08
3.52833e-06
1.48731e-13
-2.89178e-08
3.54119e-06
1.48356e-13
-2.44477e-08
3.55197e-06
1.53421e-13
-2.01912e-08
3.56078e-06
1.59236e-13
-1.61423e-08
3.56772e-06
1.61939e-13
-1.22945e-08
3.57286e-06
1.59926e-13
-8.64149e-09
3.57631e-06
1.54087e-13
-5.17684e-09
3.57815e-06
1.46704e-13
-1.89401e-09
3.57846e-06
1.39207e-13
1.21221e-09
3.57732e-06
1.31886e-13
4.14659e-09
3.57482e-06
1.23792e-13
6.91573e-09
3.57102e-06
1.13449e-13
9.5266e-09
3.566e-06
1.00113e-13
1.19857e-08
3.55984e-06
8.47187e-14
1.42993e-08
3.55259e-06
6.98868e-14
1.64737e-08
3.54432e-06
5.88608e-14
1.8515e-08
3.53509e-06
5.43991e-14
2.04291e-08
3.52496e-06
5.75631e-14
2.2222e-08
3.51399e-06
6.71075e-14
2.38994e-08
3.50223e-06
8.01595e-14
2.5467e-08
3.48973e-06
9.27571e-14
2.69302e-08
3.47654e-06
1.0149e-13
2.82945e-08
3.4627e-06
1.04373e-13
2.95649e-08
3.44825e-06
1.01243e-13
3.07467e-08
3.43324e-06
9.40301e-14
3.18448e-08
3.41771e-06
8.56965e-14
3.28638e-08
3.40169e-06
7.94237e-14
3.38083e-08
3.38522e-06
7.77652e-14
3.46829e-08
3.36832e-06
8.18418e-14
3.54917e-08
3.35104e-06
9.1407e-14
3.62389e-08
3.33339e-06
1.04913e-13
3.69284e-08
3.3154e-06
1.20182e-13
3.75639e-08
3.29711e-06
1.34872e-13
3.81491e-08
3.27852e-06
1.47296e-13
3.86873e-08
3.25967e-06
1.56421e-13
3.91818e-08
3.24057e-06
1.62246e-13
3.96358e-08
3.22125e-06
1.655e-13
4.00523e-08
3.20171e-06
1.67315e-13
4.04339e-08
3.18198e-06
1.69008e-13
4.07836e-08
3.16207e-06
1.71561e-13
4.11037e-08
3.14199e-06
1.75482e-13
4.13967e-08
3.12176e-06
1.80714e-13
4.1665e-08
3.10139e-06
1.86761e-13
4.19105e-08
3.08089e-06
1.92593e-13
4.21355e-08
3.06026e-06
1.97259e-13
4.23419e-08
3.03952e-06
1.99899e-13
4.25314e-08
3.01867e-06
1.99861e-13
4.27058e-08
2.99773e-06
1.96937e-13
4.28668e-08
2.97669e-06
1.91375e-13
4.30159e-08
2.95557e-06
1.83749e-13
4.31546e-08
2.93436e-06
1.74881e-13
4.32842e-08
2.91307e-06
1.65767e-13
4.34061e-08
2.89171e-06
1.57156e-13
4.35215e-08
2.87028e-06
1.49901e-13
4.36317e-08
2.84878e-06
1.44173e-13
4.37377e-08
2.82721e-06
1.40062e-13
4.38407e-08
2.80557e-06
1.37279e-13
4.39417e-08
2.78387e-06
1.35232e-13
4.40417e-08
2.76211e-06
1.33192e-13
4.41418e-08
2.74027e-06
1.30403e-13
4.42428e-08
2.71838e-06
1.26288e-13
4.43457e-08
2.69641e-06
1.20411e-13
4.44515e-08
2.67437e-06
1.12771e-13
4.45611e-08
2.65226e-06
1.03556e-13
4.46754e-08
2.63008e-06
9.33907e-14
4.47953e-08
2.60782e-06
8.30448e-14
4.49218e-08
2.58548e-06
7.34691e-14
4.50558e-08
2.56306e-06
6.56142e-14
4.51981e-08
2.54055e-06
6.02782e-14
4.53497e-08
2.51794e-06
5.78288e-14
4.55113e-08
2.49524e-06
5.84325e-14
4.56839e-08
2.47243e-06
6.16244e-14
4.58682e-08
2.44951e-06
6.6544e-14
4.60652e-08
2.42648e-06
7.21021e-14
4.62756e-08
2.40332e-06
7.69524e-14
4.65004e-08
2.38003e-06
8.00194e-14
4.67403e-08
2.3566e-06
8.04704e-14
4.69961e-08
2.33302e-06
7.82152e-14
4.72689e-08
2.30929e-06
7.36772e-14
4.75594e-08
2.2854e-06
6.79387e-14
4.78686e-08
2.26133e-06
6.23946e-14
4.81973e-08
2.23708e-06
5.83075e-14
4.85464e-08
2.21263e-06
5.67532e-14
4.89169e-08
2.18798e-06
5.78149e-14
4.93096e-08
2.16311e-06
6.08541e-14
4.97254e-08
2.13801e-06
6.43721e-14
5.01652e-08
2.11268e-06
6.65787e-14
5.06297e-08
2.08709e-06
6.6093e-14
5.11198e-08
2.06124e-06
6.2235e-14
5.16363e-08
2.03511e-06
5.57124e-14
5.21799e-08
2.0087e-06
4.82947e-14
5.27513e-08
1.98197e-06
4.25285e-14
5.33514e-08
1.95493e-06
4.08978e-14
5.39808e-08
1.92756e-06
4.47906e-14
5.46401e-08
1.89984e-06
5.42275e-14
5.533e-08
1.87175e-06
6.75154e-14
5.60512e-08
1.84329e-06
8.18581e-14
5.68042e-08
1.81444e-06
9.43828e-14
5.75896e-08
1.78517e-06
1.03154e-13
5.84081e-08
1.75549e-06
1.07775e-13
5.92599e-08
1.72536e-06
1.09364e-13
6.01457e-08
1.69477e-06
1.09503e-13
6.10658e-08
1.66371e-06
1.09433e-13
6.20205e-08
1.63216e-06
1.09142e-13
6.301e-08
1.60011e-06
1.07733e-13
6.40345e-08
1.56754e-06
1.03952e-13
6.5094e-08
1.53443e-06
9.788e-14
6.61884e-08
1.50076e-06
9.11909e-14
6.73174e-08
1.46653e-06
8.6646e-14
6.84807e-08
1.43171e-06
8.64378e-14
6.96775e-08
1.39629e-06
9.06081e-14
7.09071e-08
1.36027e-06
9.65825e-14
7.21685e-08
1.32361e-06
1.00392e-13
7.34602e-08
1.28633e-06
9.92956e-14
7.47805e-08
1.24839e-06
9.35224e-14
7.61276e-08
1.20979e-06
8.62851e-14
7.74988e-08
1.17053e-06
8.10602e-14
7.88913e-08
1.1306e-06
7.85552e-14
8.03016e-08
1.09e-06
7.59948e-14
8.17256e-08
1.04872e-06
6.94098e-14
8.31586e-08
1.00676e-06
5.74471e-14
8.4595e-08
9.64135e-07
4.3833e-14
8.60284e-08
9.20848e-07
3.43683e-14
8.74513e-08
8.76914e-07
3.1114e-14
8.88552e-08
8.3235e-07
2.96707e-14
9.02301e-08
7.87182e-07
2.25306e-14
9.15646e-08
7.41439e-07
7.20257e-15
9.28456e-08
6.95158e-07
-1.00128e-14
9.40582e-08
6.48387e-07
-1.92901e-14
9.51849e-08
6.01182e-07
-1.83256e-14
9.62059e-08
5.53608e-07
-1.57999e-14
9.70983e-08
5.05746e-07
-2.13302e-14
9.78355e-08
4.5769e-07
-3.18495e-14
9.83872e-08
4.09549e-07
-3.40769e-14
9.87178e-08
3.61453e-07
-2.26763e-14
9.87863e-08
3.13553e-07
-1.23582e-14
9.85445e-08
2.66025e-07
-2.00048e-14
9.79357e-08
2.19075e-07
-3.49304e-14
9.6893e-08
1.72945e-07
-2.36755e-14
9.53348e-08
1.27914e-07
2.78527e-14
9.31659e-08
8.43023e-08
9.51184e-14
9.02542e-08
4.24755e-08
1.56555e-13
8.64588e-08
2.85775e-09
2.30163e-13
8.16455e-08
-3.40362e-08
3.36939e-13
7.56309e-08
-6.76204e-08
4.67612e-13
6.82003e-08
-9.72569e-08
6.38309e-13
5.90972e-08
-1.22227e-07
9.15656e-13
4.80201e-08
-1.4175e-07
1.30347e-12
3.46299e-08
-1.55015e-07
1.69302e-12
1.85767e-08
-1.61205e-07
1.73532e-12
-4.03519e-10
-1.59584e-07
-1.89959e-13
-2.23245e-08
-1.4963e-07
-9.96613e-12
-4.66524e-08
-1.31056e-07
-3.543e-11
-7.18301e-08
-1.02313e-07
-9.95563e-11
-9.33418e-08
-5.9001e-08
-5.29891e-11
-1.01087e-07
-1.30649e-09
-8.51249e-08
-1.26162e-07
3.73763e-07
-1.24831e-07
1.47198e-07
-7.2047e-08
-1.89706e-08
1.32847e-08
-1.41622e-07
1.2382e-07
-2.25456e-07
2.529e-07
-2.80012e-07
3.94594e-07
-3.13287e-07
5.44117e-07
-3.31293e-07
6.97671e-07
-3.38737e-07
8.52284e-07
-3.39113e-07
1.00579e-06
-3.34676e-07
1.15664e-06
-3.27007e-07
1.30375e-06
-3.17193e-07
1.44636e-06
-3.05996e-07
1.58396e-06
-2.9395e-07
1.71625e-06
-2.81436e-07
1.84304e-06
-2.68721e-07
1.96424e-06
-2.55999e-07
2.07985e-06
-2.43403e-07
2.18991e-06
-2.31028e-07
2.29451e-06
-2.18936e-07
2.39375e-06
-2.07171e-07
2.48777e-06
-1.9576e-07
2.57669e-06
-1.84716e-07
2.66068e-06
-1.74046e-07
2.73988e-06
-1.6375e-07
2.81445e-06
-1.53826e-07
2.88454e-06
-1.44267e-07
2.95031e-06
-1.35064e-07
3.0119e-06
-1.26209e-07
3.06947e-06
-1.17692e-07
3.12316e-06
-1.09503e-07
3.17311e-06
-1.01632e-07
3.21946e-06
-9.407e-08
3.26235e-06
-8.68076e-08
3.3019e-06
-7.98361e-08
3.33826e-06
-7.31472e-08
3.37154e-06
-6.67329e-08
3.40186e-06
-6.05856e-08
3.42935e-06
-5.46981e-08
3.45413e-06
-4.90633e-08
3.47631e-06
-4.36745e-08
3.49599e-06
-3.8525e-08
3.51329e-06
-3.36083e-08
3.52832e-06
-2.89181e-08
3.54118e-06
-2.44479e-08
3.55197e-06
-2.01915e-08
3.56078e-06
-1.61425e-08
3.56771e-06
-1.22948e-08
3.57286e-06
-8.64175e-09
3.57631e-06
-5.17711e-09
3.57814e-06
-1.89428e-09
3.57845e-06
1.21194e-09
3.57732e-06
4.14632e-09
3.57481e-06
6.91546e-09
3.57102e-06
9.52633e-09
3.566e-06
1.19854e-08
3.55983e-06
1.42991e-08
3.55258e-06
1.64735e-08
3.54431e-06
1.85148e-08
3.53509e-06
2.04289e-08
3.52496e-06
2.22218e-08
3.51399e-06
2.38993e-08
3.50223e-06
2.54668e-08
3.48973e-06
2.69301e-08
3.47653e-06
2.82943e-08
3.46269e-06
2.95648e-08
3.44825e-06
3.07466e-08
3.43324e-06
3.18446e-08
3.41771e-06
3.28636e-08
3.40169e-06
3.38082e-08
3.38522e-06
3.46828e-08
3.36832e-06
3.54916e-08
3.35104e-06
3.62388e-08
3.33339e-06
3.69283e-08
3.3154e-06
3.75638e-08
3.29711e-06
3.81489e-08
3.27852e-06
3.86871e-08
3.25967e-06
3.91816e-08
3.24057e-06
3.96356e-08
3.22125e-06
4.00521e-08
3.20171e-06
4.04337e-08
3.18198e-06
4.07834e-08
3.16207e-06
4.11035e-08
3.14199e-06
4.13965e-08
3.12176e-06
4.16647e-08
3.10139e-06
4.19103e-08
3.08088e-06
4.21353e-08
3.06026e-06
4.23417e-08
3.03952e-06
4.25312e-08
3.01867e-06
4.27056e-08
2.99773e-06
4.28666e-08
2.97669e-06
4.30157e-08
2.95556e-06
4.31544e-08
2.93436e-06
4.3284e-08
2.91307e-06
4.34059e-08
2.89171e-06
4.35214e-08
2.87028e-06
4.36316e-08
2.84878e-06
4.37376e-08
2.82721e-06
4.38406e-08
2.80557e-06
4.39416e-08
2.78387e-06
4.40416e-08
2.76211e-06
4.41417e-08
2.74027e-06
4.42426e-08
2.71837e-06
4.43455e-08
2.69641e-06
4.44513e-08
2.67437e-06
4.45609e-08
2.65226e-06
4.46752e-08
2.63008e-06
4.47951e-08
2.60782e-06
4.49216e-08
2.58548e-06
4.50556e-08
2.56306e-06
4.5198e-08
2.54055e-06
4.53495e-08
2.51794e-06
4.55112e-08
2.49524e-06
4.56838e-08
2.47243e-06
4.58682e-08
2.44951e-06
4.60652e-08
2.42647e-06
4.62756e-08
2.40332e-06
4.65003e-08
2.38003e-06
4.67402e-08
2.3566e-06
4.69961e-08
2.33302e-06
4.72688e-08
2.30929e-06
4.75593e-08
2.2854e-06
4.78684e-08
2.26133e-06
4.81971e-08
2.23708e-06
4.85462e-08
2.21263e-06
4.89167e-08
2.18798e-06
4.93094e-08
2.16311e-06
4.97252e-08
2.13801e-06
5.0165e-08
2.11268e-06
5.06295e-08
2.08709e-06
5.11197e-08
2.06124e-06
5.16362e-08
2.03511e-06
5.21798e-08
2.0087e-06
5.27513e-08
1.98197e-06
5.33514e-08
1.95493e-06
5.39807e-08
1.92756e-06
5.464e-08
1.89984e-06
5.53299e-08
1.87175e-06
5.60511e-08
1.84329e-06
5.68041e-08
1.81444e-06
5.75895e-08
1.78517e-06
5.84079e-08
1.75549e-06
5.92598e-08
1.72536e-06
6.01456e-08
1.69477e-06
6.10656e-08
1.66371e-06
6.20203e-08
1.63216e-06
6.30099e-08
1.60011e-06
6.40344e-08
1.56754e-06
6.50939e-08
1.53443e-06
6.61883e-08
1.50076e-06
6.73173e-08
1.46653e-06
6.84805e-08
1.43171e-06
6.96774e-08
1.39629e-06
7.0907e-08
1.36027e-06
7.21683e-08
1.32361e-06
7.346e-08
1.28633e-06
7.47804e-08
1.24839e-06
7.61275e-08
1.20979e-06
7.74987e-08
1.17053e-06
7.88912e-08
1.1306e-06
8.03014e-08
1.09e-06
8.17254e-08
1.04872e-06
8.31584e-08
1.00676e-06
8.45948e-08
9.64135e-07
8.60282e-08
9.20848e-07
8.74512e-08
8.76914e-07
8.88551e-08
8.32351e-07
9.02299e-08
7.87182e-07
9.15645e-08
7.41439e-07
9.28456e-08
6.95159e-07
9.40581e-08
6.48388e-07
9.51849e-08
6.01182e-07
9.62059e-08
5.53609e-07
9.70983e-08
5.05747e-07
9.78356e-08
4.57691e-07
9.83873e-08
4.0955e-07
9.8718e-08
3.61454e-07
9.87864e-08
3.13554e-07
9.85446e-08
2.66027e-07
9.79359e-08
2.19078e-07
9.68933e-08
1.72948e-07
9.53351e-08
1.27918e-07
9.31663e-08
8.43067e-08
9.02546e-08
4.24808e-08
8.64592e-08
2.86425e-09
8.16459e-08
-3.40281e-08
7.56312e-08
-6.76101e-08
6.82004e-08
-9.72437e-08
5.9097e-08
-1.2221e-07
4.80193e-08
-1.41727e-07
3.46276e-08
-1.54984e-07
1.85721e-08
-1.61165e-07
-4.11235e-10
-1.59543e-07
-2.23369e-08
-1.49656e-07
-4.66628e-08
-1.31411e-07
-7.18102e-08
-1.03607e-07
-9.30676e-08
-5.98378e-08
-1.00476e-07
-8.51098e-08
-6.4371e-10
-1.79881e-13
3.74452e-07
6.51032e-08
7.79253e-13
8.14954e-08
1.53847e-07
5.4121e-13
-1.07701e-07
2.52685e-07
4.29835e-13
-2.40449e-07
3.60882e-07
3.71168e-13
-3.33644e-07
4.776e-07
3.32162e-13
-3.96723e-07
6.01303e-07
2.98153e-13
-4.36983e-07
7.30199e-07
2.73449e-13
-4.60182e-07
8.62376e-07
2.51205e-13
-4.70908e-07
9.95963e-07
2.27754e-13
-4.72695e-07
1.1294e-06
2.06712e-13
-4.68105e-07
1.26142e-06
1.88653e-13
-4.59022e-07
1.39104e-06
1.70157e-13
-4.46816e-07
1.51754e-06
1.50856e-13
-4.32488e-07
1.64036e-06
1.37179e-13
-4.16768e-07
1.75912e-06
1.32373e-13
-4.00192e-07
1.87356e-06
1.30597e-13
-3.83153e-07
1.9835e-06
1.25955e-13
-3.65939e-07
2.08886e-06
1.20237e-13
-3.48758e-07
2.1896e-06
1.18412e-13
-3.31761e-07
2.28572e-06
1.20899e-13
-3.15056e-07
2.37727e-06
1.23584e-13
-2.98717e-07
2.46431e-06
1.23272e-13
-2.82796e-07
2.54693e-06
1.20843e-13
-2.67326e-07
2.62521e-06
1.19403e-13
-2.52325e-07
2.69927e-06
1.19972e-13
-2.37805e-07
2.76922e-06
1.20257e-13
-2.23767e-07
2.83516e-06
1.17356e-13
-2.1021e-07
2.89723e-06
1.11198e-13
-1.97127e-07
2.95553e-06
1.05352e-13
-1.8451e-07
3.0102e-06
1.03811e-13
-1.72351e-07
3.06134e-06
1.07503e-13
-1.60638e-07
3.10907e-06
1.13491e-13
-1.49361e-07
3.15351e-06
1.17706e-13
-1.38509e-07
3.19478e-06
1.18237e-13
-1.28071e-07
3.23298e-06
1.16523e-13
-1.18038e-07
3.26824e-06
1.15468e-13
-1.08397e-07
3.30065e-06
1.16624e-13
-9.91405e-08
3.33033e-06
1.18677e-13
-9.02579e-08
3.35737e-06
1.1865e-13
-8.17403e-08
3.38189e-06
1.1406e-13
-7.35784e-08
3.40398e-06
1.05015e-13
-6.57635e-08
3.42375e-06
9.41518e-14
-5.82868e-08
3.44128e-06
8.49786e-14
-5.11397e-08
3.45668e-06
7.99895e-14
-4.43136e-08
3.47004e-06
7.93996e-14
-3.78001e-08
3.48144e-06
8.13702e-14
-3.15905e-08
3.49098e-06
8.332e-14
-2.56764e-08
3.49873e-06
8.34067e-14
-2.0049e-08
3.5048e-06
8.12314e-14
-1.46998e-08
3.50924e-06
7.76266e-14
-9.62005e-09
3.51215e-06
7.38865e-14
-4.80099e-09
3.5136e-06
7.06668e-14
-2.34476e-10
3.51366e-06
6.77281e-14
4.08687e-09
3.51241e-06
6.41337e-14
8.17141e-09
3.50991e-06
5.89226e-14
1.20286e-08
3.50623e-06
5.18241e-14
1.56674e-08
3.50144e-06
4.35355e-14
1.90966e-08
3.49559e-06
3.57518e-14
2.2325e-08
3.48875e-06
3.03706e-14
2.53612e-08
3.48096e-06
2.8877e-14
2.82137e-08
3.4723e-06
3.16508e-14
3.08906e-08
3.4628e-06
3.78142e-14
3.34003e-08
3.45252e-06
4.55493e-14
3.57507e-08
3.4415e-06
5.26825e-14
3.79495e-08
3.4298e-06
5.73402e-14
4.00046e-08
3.41744e-06
5.85926e-14
4.19231e-08
3.40448e-06
5.65786e-14
4.37125e-08
3.39095e-06
5.24673e-14
4.53797e-08
3.37688e-06
4.7898e-14
4.69316e-08
3.36232e-06
4.46193e-14
4.83746e-08
3.34729e-06
4.39341e-14
4.97152e-08
3.33182e-06
4.62811e-14
5.09594e-08
3.31595e-06
5.14731e-14
5.21131e-08
3.2997e-06
5.85924e-14
5.3182e-08
3.2831e-06
6.64281e-14
5.41715e-08
3.26617e-06
7.37868e-14
5.50868e-08
3.24893e-06
7.97976e-14
5.59327e-08
3.2314e-06
8.39731e-14
5.67141e-08
3.2136e-06
8.63982e-14
5.74355e-08
3.19556e-06
8.74633e-14
5.81011e-08
3.17728e-06
8.77547e-14
5.87151e-08
3.15879e-06
8.79386e-14
5.92814e-08
3.14009e-06
8.8478e-14
5.98036e-08
3.12121e-06
8.96195e-14
6.02853e-08
3.10215e-06
9.13386e-14
6.07298e-08
3.08292e-06
9.33786e-14
6.11402e-08
3.06354e-06
9.53354e-14
6.15197e-08
3.04402e-06
9.68914e-14
6.18709e-08
3.02436e-06
9.76703e-14
6.21967e-08
3.00457e-06
9.75506e-14
6.24995e-08
2.98465e-06
9.65392e-14
6.27817e-08
2.96463e-06
9.47785e-14
6.30457e-08
2.94449e-06
9.25181e-14
6.32935e-08
2.92425e-06
9.00461e-14
6.35274e-08
2.90391e-06
8.75828e-14
6.37492e-08
2.88348e-06
8.53311e-14
6.39608e-08
2.86295e-06
8.33258e-14
6.41639e-08
2.84233e-06
8.15078e-14
6.43603e-08
2.82162e-06
7.9669e-14
6.45517e-08
2.80082e-06
7.7622e-14
6.47395e-08
2.77994e-06
7.51691e-14
6.49253e-08
2.75897e-06
7.21368e-14
6.51106e-08
2.73792e-06
6.83863e-14
6.52969e-08
2.71678e-06
6.39975e-14
6.54855e-08
2.69556e-06
5.90674e-14
6.56778e-08
2.67425e-06
5.38424e-14
6.58753e-08
2.65284e-06
4.85653e-14
6.60793e-08
2.63135e-06
4.36214e-14
6.62911e-08
2.60976e-06
3.93331e-14
6.65121e-08
2.58808e-06
3.60302e-14
6.67437e-08
2.56629e-06
3.39486e-14
6.69871e-08
2.5444e-06
3.32685e-14
6.72437e-08
2.52239e-06
3.39763e-14
6.75146e-08
2.50028e-06
3.58672e-14
6.78013e-08
2.47804e-06
3.86739e-14
6.81049e-08
2.45568e-06
4.18173e-14
6.84267e-08
2.43319e-06
4.469e-14
6.87679e-08
2.41056e-06
4.67439e-14
6.91299e-08
2.38779e-06
4.74343e-14
6.95138e-08
2.36487e-06
4.65184e-14
6.9921e-08
2.34179e-06
4.40308e-14
7.03527e-08
2.31854e-06
4.03948e-14
7.08102e-08
2.29511e-06
3.62453e-14
7.12949e-08
2.2715e-06
3.23838e-14
7.18079e-08
2.2477e-06
2.96048e-14
7.23506e-08
2.22369e-06
2.84009e-14
7.29243e-08
2.19947e-06
2.8838e-14
7.35302e-08
2.17503e-06
3.05173e-14
7.41696e-08
2.15035e-06
3.26475e-14
7.48436e-08
2.12543e-06
3.42712e-14
7.55536e-08
2.10025e-06
3.46216e-14
7.63005e-08
2.07481e-06
3.33414e-14
7.70856e-08
2.04908e-06
3.07567e-14
7.79099e-08
2.02306e-06
2.77209e-14
7.87745e-08
1.99673e-06
2.54727e-14
7.96803e-08
1.97008e-06
2.50876e-14
8.06283e-08
1.94311e-06
2.7197e-14
8.16196e-08
1.91578e-06
3.16691e-14
8.26549e-08
1.8881e-06
3.76366e-14
8.37351e-08
1.86005e-06
4.37671e-14
8.4861e-08