/*--------------------------------*- C++ -*----------------------------------*\
  =========                 |
  \\      /  F ield         | OpenFOAM: The Open Source CFD Toolbox
   \\    /   O peration     | Website:  https://openfoam.org
    \\  /    A nd           | Version:  8
     \\/     M anipulation  |
\*---------------------------------------------------------------------------*/
FoamFile
{
    version     2.0;
    format      ascii;
    class       volVectorField;
    location    "1700";
    object      U;
}
// * * * * * * * * * * * * * * * * * * * * * * * * * * * * * * * * * * * * * //

dimensions      [0 1 -1 0 0 0 0];

internalField   nonuniform List<vector> 
48000
(
(-0.0132282 -9.58836e-07 0.0146415)
(-0.0229435 8.70488e-08 0.0101743)
(-0.0304375 7.48313e-08 0.00258206)
(-0.0283974 -5.64141e-10 -0.00322319)
(-0.0222293 -9.07995e-08 -0.00693)
(-0.0128563 -1.62165e-07 -0.0091857)
(-0.00162914 -1.97307e-07 -0.010457)
(0.0106712 -2.1154e-07 -0.0109894)
(0.0232796 -2.05661e-07 -0.0110557)
(0.0360146 -1.89473e-07 -0.01089)
(0.0485871 -1.77899e-07 -0.0105851)
(0.0608637 -1.72553e-07 -0.0101982)
(0.0727528 -1.67634e-07 -0.00976569)
(0.084199 -1.64204e-07 -0.00931061)
(0.0951702 -1.63047e-07 -0.00884797)
(0.105651 -1.59357e-07 -0.0083875)
(0.115635 -1.50117e-07 -0.00793542)
(0.125126 -1.38516e-07 -0.00749569)
(0.134131 -1.28156e-07 -0.00707067)
(0.142662 -1.18124e-07 -0.00666166)
(0.15073 -1.05777e-07 -0.00626925)
(0.158352 -9.16673e-08 -0.00589355)
(0.165541 -7.94763e-08 -0.00553434)
(0.172314 -7.18084e-08 -0.0051912)
(0.178686 -6.78869e-08 -0.00486357)
(0.184672 -6.53361e-08 -0.0045508)
(0.190289 -6.3223e-08 -0.00425223)
(0.195549 -6.25301e-08 -0.0039672)
(0.200468 -6.39502e-08 -0.00369503)
(0.20506 -6.60138e-08 -0.00343511)
(0.209336 -6.59186e-08 -0.00318681)
(0.213312 -6.17572e-08 -0.00294957)
(0.216998 -5.41769e-08 -0.00272288)
(0.220406 -4.57324e-08 -0.00250626)
(0.223548 -3.87651e-08 -0.00229928)
(0.226436 -3.38765e-08 -0.00210153)
(0.229078 -3.01416e-08 -0.00191263)
(0.231487 -2.64714e-08 -0.00173224)
(0.233672 -2.29306e-08 -0.00156004)
(0.235642 -2.07148e-08 -0.00139575)
(0.237408 -2.10955e-08 -0.00123909)
(0.238978 -2.4267e-08 -0.00108978)
(0.240361 -2.8908e-08 -0.000947595)
(0.241566 -3.29323e-08 -0.000812272)
(0.242601 -3.45771e-08 -0.000683583)
(0.243475 -3.33169e-08 -0.000561305)
(0.244195 -2.98865e-08 -0.000445225)
(0.244769 -2.56871e-08 -0.000335137)
(0.245205 -2.20321e-08 -0.00023084)
(0.245509 -1.95765e-08 -0.000132136)
(0.245688 -1.82706e-08 -3.88247e-05)
(0.245749 -1.78023e-08 4.94993e-05)
(0.245699 -1.78899e-08 0.000132866)
(0.245544 -1.86627e-08 0.000211188)
(0.245289 -2.05321e-08 0.000284786)
(0.244941 -2.3852e-08 0.00035392)
(0.244506 -2.86225e-08 0.000418804)
(0.243988 -3.43639e-08 0.000479631)
(0.243393 -4.02042e-08 0.000536587)
(0.242726 -4.50622e-08 0.000589852)
(0.241991 -4.81423e-08 0.000639603)
(0.241192 -4.91055e-08 0.000686011)
(0.240335 -4.81956e-08 0.000729241)
(0.239422 -4.6212e-08 0.000769452)
(0.238458 -4.41409e-08 0.0008068)
(0.237446 -4.29568e-08 0.000841438)
(0.23639 -4.32728e-08 0.000873516)
(0.235293 -4.53135e-08 0.000903177)
(0.234157 -4.87439e-08 0.000930564)
(0.232987 -5.28976e-08 0.000955813)
(0.231783 -5.70208e-08 0.000979055)
(0.23055 -6.03369e-08 0.00100042)
(0.229289 -6.2389e-08 0.00102001)
(0.228003 -6.3021e-08 0.00103796)
(0.226694 -6.23738e-08 0.00105437)
(0.225363 -6.08242e-08 0.00106934)
(0.224012 -5.87836e-08 0.00108297)
(0.222644 -5.67124e-08 0.00109536)
(0.221259 -5.48773e-08 0.0011066)
(0.219859 -5.33392e-08 0.00111677)
(0.218446 -5.20562e-08 0.00112596)
(0.217021 -5.07808e-08 0.00113426)
(0.215584 -4.92541e-08 0.00114172)
(0.214137 -4.71906e-08 0.00114842)
(0.212681 -4.44874e-08 0.00115443)
(0.211216 -4.10761e-08 0.00115981)
(0.209744 -3.70671e-08 0.00116461)
(0.208266 -3.27497e-08 0.00116889)
(0.206781 -2.83828e-08 0.00117271)
(0.20529 -2.4351e-08 0.00117611)
(0.203795 -2.09321e-08 0.00117913)
(0.202295 -1.83584e-08 0.00118182)
(0.20079 -1.67099e-08 0.00118423)
(0.199282 -1.59713e-08 0.00118638)
(0.197771 -1.59941e-08 0.00118832)
(0.196256 -1.65386e-08 0.00119009)
(0.194739 -1.72391e-08 0.00119171)
(0.193218 -1.7833e-08 0.00119322)
(0.191695 -1.80196e-08 0.00119465)
(0.19017 -1.76274e-08 0.00119602)
(0.188642 -1.65728e-08 0.00119738)
(0.187112 -1.49015e-08 0.00119873)
(0.18558 -1.28341e-08 0.00120012)
(0.184045 -1.06412e-08 0.00120157)
(0.182507 -8.66142e-09 0.00120309)
(0.180967 -7.23752e-09 0.00120472)
(0.179424 -6.65121e-09 0.00120648)
(0.177879 -7.07e-09 0.00120839)
(0.17633 -8.5396e-09 0.00121047)
(0.174778 -1.09458e-08 0.00121276)
(0.173222 -1.39954e-08 0.00121527)
(0.171663 -1.73343e-08 0.00121803)
(0.170099 -2.04905e-08 0.00122106)
(0.168531 -2.30452e-08 0.00122439)
(0.166958 -2.46175e-08 0.00122804)
(0.16538 -2.50478e-08 0.00123204)
(0.163796 -2.43244e-08 0.00123641)
(0.162206 -2.26606e-08 0.00124117)
(0.16061 -2.04448e-08 0.00124636)
(0.159006 -1.81643e-08 0.00125199)
(0.157394 -1.63254e-08 0.00125809)
(0.155774 -1.53507e-08 0.00126468)
(0.154145 -1.54459e-08 0.00127179)
(0.152507 -1.65462e-08 0.00127944)
(0.150858 -1.8446e-08 0.00128765)
(0.149199 -2.06695e-08 0.00129646)
(0.147527 -2.27672e-08 0.00130589)
(0.145843 -2.43853e-08 0.00131596)
(0.144146 -2.54209e-08 0.0013267)
(0.142435 -2.6091e-08 0.00133815)
(0.140709 -2.68029e-08 0.00135032)
(0.138966 -2.81392e-08 0.00136325)
(0.137207 -3.05226e-08 0.00137695)
(0.135431 -3.40595e-08 0.00139147)
(0.133635 -3.83769e-08 0.00140681)
(0.13182 -4.274e-08 0.001423)
(0.129984 -4.61551e-08 0.00144007)
(0.128127 -4.76741e-08 0.00145805)
(0.126246 -4.67718e-08 0.00147696)
(0.124342 -4.34938e-08 0.00149683)
(0.122412 -3.84721e-08 0.00151768)
(0.120456 -3.28412e-08 0.00153953)
(0.118473 -2.76367e-08 0.00156242)
(0.116461 -2.35668e-08 0.00158634)
(0.114419 -2.07723e-08 0.00161134)
(0.112346 -1.88801e-08 0.00163743)
(0.11024 -1.73534e-08 0.00166462)
(0.108101 -1.57124e-08 0.00169295)
(0.105926 -1.39497e-08 0.00172243)
(0.103716 -1.24078e-08 0.00175307)
(0.101467 -1.14522e-08 0.0017849)
(0.09918 -1.09991e-08 0.00181792)
(0.0968526 -1.04813e-08 0.00185213)
(0.0944837 -8.86323e-09 0.00188754)
(0.0920721 -5.4253e-09 0.00192415)
(0.0896165 -8.37587e-11 0.00196195)
(0.0871157 6.28193e-09 0.00200093)
(0.0845685 1.23849e-08 0.00204108)
(0.0819738 1.72924e-08 0.00208236)
(0.0793305 2.09017e-08 0.00212472)
(0.0766376 2.39323e-08 0.00216811)
(0.0738943 2.73968e-08 0.00221246)
(0.0710998 3.1562e-08 0.00225769)
(0.0682535 3.57994e-08 0.0023037)
(0.065355 3.90812e-08 0.00235038)
(0.062404 4.10915e-08 0.00239758)
(0.0594005 4.26981e-08 0.0024451)
(0.0563447 4.50814e-08 0.00249273)
(0.0532371 4.85727e-08 0.00254023)
(0.0500788 5.21743e-08 0.0025873)
(0.0468711 5.43597e-08 0.00263359)
(0.0436158 5.49231e-08 0.00267871)
(0.0403153 5.53876e-08 0.00272215)
(0.0369725 5.76111e-08 0.00276332)
(0.0335914 6.1662e-08 0.00280157)
(0.0301767 6.57738e-08 0.0028361)
(0.026734 6.87282e-08 0.00286599)
(0.0232703 7.20253e-08 0.0028901)
(0.0197938 7.84443e-08 0.00290712)
(0.0163146 8.83811e-08 0.00291545)
(0.0128444 9.88358e-08 0.0029132)
(0.0093979 1.08316e-07 0.00289808)
(0.00599087 1.2158e-07 0.00286714)
(0.00264979 1.46426e-07 0.00281657)
(-0.000615004 1.83471e-07 0.00273491)
(-0.00375382 2.28578e-07 0.00261439)
(-0.00673561 2.82367e-07 0.00245601)
(-0.00951929 3.51201e-07 0.00225748)
(-0.0120504 4.43625e-07 0.0020097)
(-0.0142672 5.67794e-07 0.00169892)
(-0.0160911 7.40747e-07 0.00131065)
(-0.0174272 9.85207e-07 0.000826134)
(-0.0181615 1.29057e-06 0.000222351)
(-0.0181543 1.58106e-06 -0.000520539)
(-0.0172554 1.7947e-06 -0.00141409)
(-0.0152974 2.03318e-06 -0.00244729)
(-0.0123463 7.05407e-06 -0.00353273)
(-0.00814661 9.79835e-06 -0.00427314)
(-0.00296648 2.64914e-05 -0.00342755)
(-0.000991986 5.96266e-05 -0.00130605)
(-0.013227 -9.5882e-07 0.014641)
(-0.0229427 8.70441e-08 0.0101736)
(-0.0304373 7.48283e-08 0.00258153)
(-0.0283971 -5.64121e-10 -0.00322361)
(-0.0222289 -9.07966e-08 -0.00693028)
(-0.0128558 -1.6216e-07 -0.00918587)
(-0.00162865 -1.97302e-07 -0.0104571)
(0.0106717 -2.11534e-07 -0.0109895)
(0.02328 -2.05656e-07 -0.0110558)
(0.036015 -1.89468e-07 -0.0108902)
(0.0485874 -1.77895e-07 -0.0105852)
(0.0608638 -1.7255e-07 -0.0101984)
(0.0727529 -1.67631e-07 -0.00976583)
(0.084199 -1.64201e-07 -0.00931074)
(0.0951702 -1.63044e-07 -0.00884809)
(0.10565 -1.59355e-07 -0.00838759)
(0.115635 -1.50115e-07 -0.0079355)
(0.125126 -1.38514e-07 -0.00749575)
(0.134131 -1.28155e-07 -0.00707071)
(0.142661 -1.18123e-07 -0.00666169)
(0.15073 -1.05776e-07 -0.00626928)
(0.158351 -9.16664e-08 -0.00589357)
(0.165541 -7.94756e-08 -0.00553437)
(0.172313 -7.18078e-08 -0.00519123)
(0.178685 -6.78864e-08 -0.00486359)
(0.184672 -6.53356e-08 -0.00455082)
(0.190288 -6.32226e-08 -0.00425225)
(0.195549 -6.25297e-08 -0.00396721)
(0.200468 -6.39498e-08 -0.00369504)
(0.205059 -6.60134e-08 -0.0034351)
(0.209336 -6.59182e-08 -0.00318678)
(0.213311 -6.17569e-08 -0.00294954)
(0.216997 -5.41766e-08 -0.00272284)
(0.220406 -4.57321e-08 -0.00250622)
(0.223548 -3.87649e-08 -0.00229924)
(0.226435 -3.38763e-08 -0.00210149)
(0.229078 -3.01414e-08 -0.00191259)
(0.231487 -2.64712e-08 -0.00173221)
(0.233671 -2.29305e-08 -0.00156002)
(0.235642 -2.07147e-08 -0.00139573)
(0.237407 -2.10954e-08 -0.00123907)
(0.238977 -2.42669e-08 -0.00108977)
(0.240361 -2.89079e-08 -0.000947572)
(0.241566 -3.29322e-08 -0.000812244)
(0.242601 -3.45769e-08 -0.00068355)
(0.243475 -3.33167e-08 -0.000561271)
(0.244195 -2.98864e-08 -0.000445192)
(0.244769 -2.5687e-08 -0.000335108)
(0.245204 -2.20321e-08 -0.000230815)
(0.245508 -1.95764e-08 -0.000132117)
(0.245687 -1.82705e-08 -3.881e-05)
(0.245749 -1.78022e-08 4.95096e-05)
(0.245699 -1.78898e-08 0.000132872)
(0.245543 -1.86627e-08 0.000211191)
(0.245289 -2.0532e-08 0.000284786)
(0.244941 -2.3852e-08 0.00035392)
(0.244506 -2.86224e-08 0.000418804)
(0.243988 -3.43638e-08 0.000479634)
(0.243393 -4.02041e-08 0.000536595)
(0.242726 -4.50621e-08 0.000589866)
(0.241991 -4.81422e-08 0.000639622)
(0.241192 -4.91054e-08 0.000686034)
(0.240335 -4.81955e-08 0.000729267)
(0.239422 -4.62119e-08 0.00076948)
(0.238458 -4.41408e-08 0.000806831)
(0.237446 -4.29567e-08 0.000841472)
(0.23639 -4.32727e-08 0.000873553)
(0.235292 -4.53134e-08 0.000903219)
(0.234157 -4.87437e-08 0.000930612)
(0.232986 -5.28974e-08 0.000955867)
(0.231783 -5.70207e-08 0.000979115)
(0.23055 -6.03368e-08 0.00100048)
(0.229289 -6.23889e-08 0.00102008)
(0.228003 -6.30209e-08 0.00103803)
(0.226694 -6.23737e-08 0.00105444)
(0.225363 -6.08241e-08 0.00106941)
(0.224012 -5.87834e-08 0.00108304)
(0.222644 -5.67123e-08 0.00109543)
(0.221259 -5.48772e-08 0.00110666)
(0.219859 -5.33391e-08 0.00111683)
(0.218446 -5.20561e-08 0.00112602)
(0.21702 -5.07807e-08 0.00113431)
(0.215584 -4.9254e-08 0.00114177)
(0.214137 -4.71905e-08 0.00114847)
(0.212681 -4.44873e-08 0.00115447)
(0.211216 -4.10761e-08 0.00115985)
(0.209744 -3.7067e-08 0.00116464)
(0.208266 -3.27497e-08 0.00116892)
(0.206781 -2.83828e-08 0.00117274)
(0.20529 -2.43509e-08 0.00117613)
(0.203795 -2.0932e-08 0.00117915)
(0.202294 -1.83584e-08 0.00118184)
(0.20079 -1.67098e-08 0.00118424)
(0.199282 -1.59712e-08 0.00118639)
(0.197771 -1.59941e-08 0.00118833)
(0.196256 -1.65385e-08 0.0011901)
(0.194738 -1.72391e-08 0.00119172)
(0.193218 -1.7833e-08 0.00119323)
(0.191695 -1.80195e-08 0.00119466)
(0.19017 -1.76274e-08 0.00119604)
(0.188642 -1.65728e-08 0.00119739)
(0.187112 -1.49014e-08 0.00119875)
(0.185579 -1.28341e-08 0.00120014)
(0.184044 -1.06412e-08 0.00120158)
(0.182507 -8.6614e-09 0.0012031)
(0.180967 -7.2375e-09 0.00120473)
(0.179424 -6.65119e-09 0.00120648)
(0.177879 -7.06999e-09 0.00120838)
(0.17633 -8.53958e-09 0.00121047)
(0.174778 -1.09457e-08 0.00121275)
(0.173222 -1.39953e-08 0.00121526)
(0.171663 -1.73343e-08 0.00121801)
(0.170099 -2.04905e-08 0.00122105)
(0.168531 -2.30451e-08 0.00122438)
(0.166958 -2.46175e-08 0.00122803)
(0.16538 -2.50477e-08 0.00123204)
(0.163796 -2.43243e-08 0.00123641)
(0.162206 -2.26606e-08 0.00124118)
(0.16061 -2.04448e-08 0.00124637)
(0.159006 -1.81643e-08 0.00125201)
(0.157394 -1.63254e-08 0.00125811)
(0.155774 -1.53507e-08 0.0012647)
(0.154145 -1.54459e-08 0.0012718)
(0.152507 -1.65462e-08 0.00127945)
(0.150858 -1.8446e-08 0.00128766)
(0.149199 -2.06694e-08 0.00129646)
(0.147527 -2.27672e-08 0.00130588)
(0.145843 -2.43853e-08 0.00131595)
(0.144146 -2.54208e-08 0.0013267)
(0.142435 -2.60909e-08 0.00133814)
(0.140708 -2.68028e-08 0.00135032)
(0.138966 -2.81392e-08 0.00136325)
(0.137207 -3.05225e-08 0.00137696)
(0.135431 -3.40594e-08 0.00139148)
(0.133635 -3.83768e-08 0.00140683)
(0.13182 -4.27399e-08 0.00142303)
(0.129984 -4.6155e-08 0.00144011)
(0.128127 -4.7674e-08 0.00145809)
(0.126246 -4.67717e-08 0.00147701)
(0.124342 -4.34937e-08 0.00149688)
(0.122412 -3.8472e-08 0.00151773)
(0.120456 -3.28411e-08 0.00153958)
(0.118473 -2.76366e-08 0.00156246)
(0.116461 -2.35667e-08 0.00158638)
(0.114419 -2.07722e-08 0.00161137)
(0.112346 -1.888e-08 0.00163746)
(0.11024 -1.73533e-08 0.00166465)
(0.108101 -1.57124e-08 0.00169297)
(0.105926 -1.39497e-08 0.00172245)
(0.103716 -1.24077e-08 0.0017531)
(0.101467 -1.14521e-08 0.00178492)
(0.09918 -1.09991e-08 0.00181794)
(0.0968526 -1.04813e-08 0.00185215)
(0.0944838 -8.86321e-09 0.00188756)
(0.0920721 -5.42529e-09 0.00192417)
(0.0896165 -8.37585e-11 0.00196197)
(0.0871157 6.28192e-09 0.00200095)
(0.0845685 1.23849e-08 0.0020411)
(0.0819738 1.72924e-08 0.00208237)
(0.0793305 2.09017e-08 0.00212472)
(0.0766376 2.39322e-08 0.0021681)
(0.0738943 2.73968e-08 0.00221245)
(0.0710998 3.15619e-08 0.00225767)
(0.0682535 3.57993e-08 0.00230369)
(0.065355 3.90811e-08 0.00235036)
(0.062404 4.10913e-08 0.00239755)
(0.0594005 4.2698e-08 0.00244506)
(0.0563447 4.50813e-08 0.00249269)
(0.0532372 4.85725e-08 0.00254018)
(0.0500789 5.21742e-08 0.00258725)
(0.0468712 5.43595e-08 0.00263355)
(0.0436159 5.4923e-08 0.00267867)
(0.0403153 5.53875e-08 0.0027221)
(0.0369726 5.76109e-08 0.00276327)
(0.0335915 6.16618e-08 0.00280152)
(0.0301768 6.57735e-08 0.00283606)
(0.0267341 6.87279e-08 0.00286595)
(0.0232704 7.2025e-08 0.00289007)
(0.019794 7.8444e-08 0.00290708)
(0.0163148 8.83808e-08 0.00291541)
(0.0128447 9.88354e-08 0.00291318)
(0.00939824 1.08315e-07 0.00289808)
(0.00599125 1.2158e-07 0.00286713)
(0.00265024 1.46426e-07 0.00281657)
(-0.000614441 1.8347e-07 0.00273494)
(-0.00375312 2.28578e-07 0.00261444)
(-0.00673476 2.82367e-07 0.00245607)
(-0.00951826 3.51201e-07 0.00225753)
(-0.0120491 4.43626e-07 0.00200977)
(-0.0142655 5.67795e-07 0.001699)
(-0.0160888 7.40751e-07 0.00131069)
(-0.017424 9.85216e-07 0.000826119)
(-0.0181573 1.29059e-06 0.00022236)
(-0.0181485 1.58114e-06 -0.000520403)
(-0.0172473 1.79506e-06 -0.00141374)
(-0.0152829 2.03531e-06 -0.00244668)
(-0.0123474 7.09535e-06 -0.00353131)
(-0.00810784 1.01272e-05 -0.00425194)
(-0.00294805 3.00228e-05 -0.00321795)
(-0.00113986 7.77582e-05 -0.000974732)
(-0.00807435 -3.30951e-07 0.0259646)
(-0.00968126 3.27197e-08 0.0133244)
(-0.0073934 5.45978e-08 0.00175667)
(-0.0024591 4.95456e-08 -0.00739693)
(0.00435949 3.90667e-08 -0.0136135)
(0.0126811 3.39109e-08 -0.0175778)
(0.0220517 2.71258e-08 -0.0199359)
(0.0321111 1.9684e-08 -0.0211593)
(0.042556 1.52263e-08 -0.0216243)
(0.0531662 1.177e-08 -0.0216091)
(0.0637622 8.57165e-09 -0.0212761)
(0.0742211 6.46798e-09 -0.0207373)
(0.0844541 4.64702e-09 -0.0200665)
(0.0943995 2.35682e-09 -0.0193138)
(0.104016 8.25244e-10 -0.0185138)
(0.113275 1.22971e-09 -0.0176904)
(0.122162 2.75069e-09 -0.01686)
(0.130667 3.92139e-09 -0.0160342)
(0.138787 4.68662e-09 -0.0152209)
(0.146525 6.04769e-09 -0.0144254)
(0.153885 8.31967e-09 -0.0136512)
(0.160873 1.0605e-08 -0.0129005)
(0.167498 1.19232e-08 -0.0121745)
(0.173769 1.22925e-08 -0.0114738)
(0.179696 1.24371e-08 -0.0107985)
(0.18529 1.27693e-08 -0.0101483)
(0.19056 1.29892e-08 -0.00952284)
(0.195519 1.26379e-08 -0.00892141)
(0.200175 1.18336e-08 -0.00834336)
(0.20454 1.13196e-08 -0.00778797)
(0.208624 1.17974e-08 -0.0072545)
(0.212436 1.33022e-08 -0.00674221)
(0.215988 1.51858e-08 -0.0062504)
(0.219288 1.66783e-08 -0.0057784)
(0.222346 1.74616e-08 -0.00532557)
(0.225171 1.77586e-08 -0.00489128)
(0.227772 1.79974e-08 -0.00447498)
(0.230158 1.83315e-08 -0.00407612)
(0.232337 1.85247e-08 -0.00369418)
(0.234317 1.81592e-08 -0.00332868)
(0.236107 1.70303e-08 -0.00297916)
(0.237716 1.5338e-08 -0.00264515)
(0.239149 1.36275e-08 -0.00232622)
(0.240416 1.24378e-08 -0.00202195)
(0.241522 1.20342e-08 -0.00173192)
(0.242477 1.22978e-08 -0.0014557)
(0.243286 1.28508e-08 -0.0011929)
(0.243956 1.32744e-08 -0.000943101)
(0.244494 1.33357e-08 -0.000705904)
(0.244907 1.30102e-08 -0.000480897)
(0.2452 1.24277e-08 -0.000267666)
(0.24538 1.17443e-08 -6.57969e-05)
(0.245452 1.09857e-08 0.000125014)
(0.245422 1.01009e-08 0.000305071)
(0.245296 9.00301e-09 0.000474825)
(0.245078 7.65523e-09 0.000634718)
(0.244775 6.12851e-09 0.000785162)
(0.24439 4.62035e-09 0.000926561)
(0.243929 3.3944e-09 0.00105931)
(0.243395 2.68053e-09 0.00118378)
(0.242794 2.59915e-09 0.00130037)
(0.24213 3.11026e-09 0.00140944)
(0.241405 4.02447e-09 0.00151135)
(0.240625 5.08097e-09 0.00160645)
(0.239792 6.00137e-09 0.0016951)
(0.23891 6.59243e-09 0.00177762)
(0.237982 6.78945e-09 0.00185435)
(0.237011 6.64096e-09 0.00192561)
(0.236 6.31971e-09 0.00199169)
(0.234952 6.0294e-09 0.00205291)
(0.233869 5.95563e-09 0.00210954)
(0.232755 6.22689e-09 0.00216187)
(0.23161 6.86221e-09 0.00221016)
(0.230437 7.80735e-09 0.00225466)
(0.229238 8.93477e-09 0.00229561)
(0.228016 1.01012e-08 0.00233325)
(0.226771 1.11634e-08 0.00236781)
(0.225506 1.204e-08 0.00239949)
(0.224221 1.26901e-08 0.0024285)
(0.222919 1.31351e-08 0.00245503)
(0.221601 1.34354e-08 0.00247927)
(0.220268 1.36662e-08 0.00250139)
(0.218921 1.39051e-08 0.00252157)
(0.217561 1.4193e-08 0.00253995)
(0.21619 1.45461e-08 0.00255668)
(0.214807 1.49311e-08 0.00257192)
(0.213414 1.5299e-08 0.00258578)
(0.212012 1.55645e-08 0.0025984)
(0.210601 1.56616e-08 0.00260989)
(0.209182 1.55383e-08 0.00262037)
(0.207756 1.51647e-08 0.00262994)
(0.206322 1.45489e-08 0.0026387)
(0.204882 1.37356e-08 0.00264675)
(0.203436 1.279e-08 0.00265418)
(0.201984 1.17996e-08 0.00266107)
(0.200526 1.08578e-08 0.00266751)
(0.199064 1.00349e-08 0.00267356)
(0.197596 9.4058e-09 0.00267931)
(0.196124 8.98272e-09 0.00268483)
(0.194646 8.76047e-09 0.00269017)
(0.193165 8.70526e-09 0.00269541)
(0.191678 8.74714e-09 0.0027006)
(0.190187 8.8052e-09 0.00270581)
(0.188692 8.78902e-09 0.0027111)
(0.187192 8.63102e-09 0.00271652)
(0.185688 8.27123e-09 0.00272212)
(0.184179 7.70014e-09 0.00272798)
(0.182665 6.92156e-09 0.00273413)
(0.181146 5.99641e-09 0.00274064)
(0.179622 4.99605e-09 0.00274756)
(0.178093 4.02711e-09 0.00275495)
(0.176558 3.19047e-09 0.00276287)
(0.175017 2.58798e-09 0.00277135)
(0.173469 2.27959e-09 0.00278047)
(0.171915 2.30148e-09 0.00279027)
(0.170355 2.63366e-09 0.00280081)
(0.168787 3.20474e-09 0.00281213)
(0.167211 3.91575e-09 0.00282428)
(0.165627 4.63531e-09 0.00283733)
(0.164034 5.23876e-09 0.00285131)
(0.162432 5.61758e-09 0.00286629)
(0.16082 5.72608e-09 0.00288231)
(0.159198 5.56332e-09 0.00289944)
(0.157565 5.19402e-09 0.00291771)
(0.15592 4.73335e-09 0.0029372)
(0.154263 4.28504e-09 0.00295795)
(0.152593 3.97285e-09 0.00298003)
(0.15091 3.83103e-09 0.00300348)
(0.149211 3.84912e-09 0.00302837)
(0.147498 3.93383e-09 0.00305474)
(0.145769 3.96143e-09 0.00308264)
(0.144023 3.83008e-09 0.00311214)
(0.142259 3.48838e-09 0.00314327)
(0.140477 2.99249e-09 0.00317609)
(0.138675 2.48708e-09 0.00321065)
(0.136853 2.17774e-09 0.00324698)
(0.135009 2.27292e-09 0.00328513)
(0.133143 2.88017e-09 0.00332516)
(0.131254 3.98808e-09 0.00336709)
(0.129341 5.43102e-09 0.00341097)
(0.127402 6.93297e-09 0.00345685)
(0.125436 8.21315e-09 0.00350475)
(0.123444 9.07359e-09 0.00355473)
(0.121422 9.46954e-09 0.0036068)
(0.119371 9.51523e-09 0.00366101)
(0.117289 9.37817e-09 0.00371737)
(0.115176 9.21255e-09 0.00377593)
(0.113029 9.0555e-09 0.00383668)
(0.110848 8.8442e-09 0.00389966)
(0.108632 8.45682e-09 0.00396487)
(0.106379 7.8705e-09 0.00403231)
(0.10409 7.20519e-09 0.00410197)
(0.101761 6.70739e-09 0.00417383)
(0.0993937 6.59318e-09 0.00424787)
(0.0969854 6.91394e-09 0.00432403)
(0.0945356 7.47645e-09 0.00440228)
(0.0920434 7.91429e-09 0.00448253)
(0.0895079 7.92666e-09 0.00456469)
(0.0869283 7.46313e-09 0.00464865)
(0.0843039 6.76165e-09 0.00473427)
(0.0816342 6.15154e-09 0.00482138)
(0.0789186 5.77748e-09 0.00490978)
(0.0761568 5.4729e-09 0.00499923)
(0.0733486 4.91038e-09 0.00508946)
(0.0704941 3.89195e-09 0.00518013)
(0.0675934 2.64127e-09 0.00527086)
(0.064647 1.62283e-09 0.00536121)
(0.0616557 1.09268e-09 0.00545065)
(0.0586206 8.11893e-10 0.00553858)
(0.055543 2.16061e-10 0.00562431)
(0.0524248 -9.6323e-10 0.00570704)
(0.0492684 -2.3405e-09 0.00578583)
(0.0460766 -3.16476e-09 0.00585962)
(0.0428529 -3.13431e-09 0.00592715)
(0.0396015 -2.77643e-09 0.00598701)
(0.0363274 -2.80212e-09 0.00603751)
(0.0330365 -3.07529e-09 0.00607674)
(0.0297357 -2.69647e-09 0.00610244)
(0.0264333 -1.2126e-09 0.00611196)
(0.0231386 4.15941e-10 0.00610221)
(0.0198631 9.7846e-10 0.00606952)
(0.0166197 1.185e-09 0.00600948)
(0.0134234 3.51789e-09 0.00591658)
(0.0102926 9.35057e-09 0.0057845)
(0.00724689 1.73172e-08 0.00560288)
(0.00431051 2.59273e-08 0.00536137)
(0.00151054 3.62335e-08 0.00505211)
(-0.00112349 4.98976e-08 0.00466279)
(-0.00354975 6.73272e-08 0.00417839)
(-0.00572904 9.10329e-08 0.00357955)
(-0.0076141 1.27847e-07 0.00284329)
(-0.00915323 1.83311e-07 0.0019425)
(-0.0102909 2.57614e-07 0.000848017)
(-0.0109722 3.33952e-07 -0.00046256)
(-0.0111407 3.15759e-07 -0.0019907)
(-0.0107502 -2.07121e-07 -0.00368884)
(-0.00978592 -1.40687e-06 -0.00540909)
(-0.00824647 -4.95176e-06 -0.00665488)
(-0.0055434 1.72757e-06 -0.00639208)
(-0.00303598 -6.00324e-05 -0.00414655)
(-0.00807402 -3.30932e-07 0.0259643)
(-0.00968095 3.27175e-08 0.0133239)
(-0.00739313 5.45948e-08 0.00175631)
(-0.00245883 4.95429e-08 -0.00739722)
(0.00435973 3.90647e-08 -0.0136137)
(0.0126813 3.39094e-08 -0.017578)
(0.0220519 2.71246e-08 -0.019936)
(0.0321112 1.96832e-08 -0.0211594)
(0.042556 1.52257e-08 -0.0216244)
(0.0531662 1.17696e-08 -0.0216092)
(0.0637621 8.57138e-09 -0.0212762)
(0.074221 6.46778e-09 -0.0207374)
(0.0844539 4.64689e-09 -0.0200665)
(0.0943992 2.35675e-09 -0.0193139)
(0.104015 8.25224e-10 -0.0185139)
(0.113275 1.22968e-09 -0.0176904)
(0.122161 2.75063e-09 -0.01686)
(0.130666 3.92131e-09 -0.0160342)
(0.138787 4.68652e-09 -0.0152209)
(0.146525 6.04758e-09 -0.0144254)
(0.153885 8.31952e-09 -0.0136512)
(0.160873 1.06048e-08 -0.0129005)
(0.167498 1.1923e-08 -0.0121745)
(0.173769 1.22923e-08 -0.0114738)
(0.179696 1.2437e-08 -0.0107985)
(0.18529 1.27691e-08 -0.0101483)
(0.19056 1.2989e-08 -0.00952285)
(0.195518 1.26377e-08 -0.00892142)
(0.200174 1.18334e-08 -0.00834337)
(0.204539 1.13194e-08 -0.00778798)
(0.208623 1.17972e-08 -0.0072545)
(0.212436 1.3302e-08 -0.00674221)
(0.215988 1.51857e-08 -0.0062504)
(0.219288 1.66781e-08 -0.0057784)
(0.222346 1.74614e-08 -0.00532556)
(0.225171 1.77584e-08 -0.00489128)
(0.227772 1.79973e-08 -0.00447498)
(0.230157 1.83314e-08 -0.00407612)
(0.232336 1.85246e-08 -0.00369418)
(0.234317 1.81591e-08 -0.00332868)
(0.236107 1.70302e-08 -0.00297916)
(0.237715 1.53379e-08 -0.00264515)
(0.239149 1.36274e-08 -0.00232623)
(0.240415 1.24377e-08 -0.00202195)
(0.241522 1.20341e-08 -0.00173192)
(0.242477 1.22977e-08 -0.0014557)
(0.243286 1.28507e-08 -0.0011929)
(0.243956 1.32743e-08 -0.000943105)
(0.244494 1.33357e-08 -0.00070591)
(0.244907 1.30101e-08 -0.000480904)
(0.2452 1.24276e-08 -0.000267675)
(0.24538 1.17442e-08 -6.58072e-05)
(0.245452 1.09856e-08 0.000125002)
(0.245422 1.01009e-08 0.000305059)
(0.245296 9.00296e-09 0.000474811)
(0.245078 7.65519e-09 0.000634704)
(0.244775 6.12847e-09 0.000785149)
(0.24439 4.62032e-09 0.000926549)
(0.243929 3.39439e-09 0.0010593)
(0.243395 2.68052e-09 0.00118378)
(0.242794 2.59913e-09 0.00130037)
(0.242129 3.11025e-09 0.00140943)
(0.241405 4.02445e-09 0.00151134)
(0.240624 5.08095e-09 0.00160645)
(0.239791 6.00134e-09 0.0016951)
(0.238909 6.5924e-09 0.00177762)
(0.237981 6.78942e-09 0.00185435)
(0.237011 6.64093e-09 0.00192561)
(0.236 6.31969e-09 0.0019917)
(0.234952 6.02938e-09 0.00205292)
(0.233869 5.9556e-09 0.00210955)
(0.232754 6.22686e-09 0.00216188)
(0.231609 6.86219e-09 0.00221017)
(0.230437 7.80732e-09 0.00225466)
(0.229238 8.93473e-09 0.00229562)
(0.228016 1.01012e-08 0.00233326)
(0.226771 1.11634e-08 0.00236781)
(0.225505 1.204e-08 0.00239949)
(0.224221 1.26901e-08 0.0024285)
(0.222919 1.3135e-08 0.00245503)
(0.221601 1.34353e-08 0.00247927)
(0.220268 1.36661e-08 0.00250139)
(0.218921 1.3905e-08 0.00252157)
(0.217561 1.41929e-08 0.00253995)
(0.216189 1.4546e-08 0.00255668)
(0.214807 1.4931e-08 0.00257192)
(0.213414 1.52989e-08 0.00258578)
(0.212012 1.55645e-08 0.00259839)
(0.210601 1.56615e-08 0.00260989)
(0.209182 1.55383e-08 0.00262036)
(0.207755 1.51647e-08 0.00262993)
(0.206322 1.45489e-08 0.0026387)
(0.204882 1.37355e-08 0.00264675)
(0.203436 1.27899e-08 0.00265418)
(0.201984 1.17996e-08 0.00266107)
(0.200526 1.08578e-08 0.0026675)
(0.199064 1.00349e-08 0.00267356)
(0.197596 9.40577e-09 0.00267931)
(0.196123 8.98269e-09 0.00268482)
(0.194646 8.76044e-09 0.00269017)
(0.193164 8.70523e-09 0.00269541)
(0.191678 8.74711e-09 0.0027006)
(0.190187 8.80517e-09 0.00270581)
(0.188692 8.78899e-09 0.0027111)
(0.187192 8.63099e-09 0.00271651)
(0.185688 8.2712e-09 0.00272212)
(0.184179 7.70012e-09 0.00272797)
(0.182665 6.92154e-09 0.00273412)
(0.181146 5.99639e-09 0.00274063)
(0.179622 4.99604e-09 0.00274755)
(0.178093 4.0271e-09 0.00275494)
(0.176557 3.19046e-09 0.00276285)
(0.175016 2.58797e-09 0.00277135)
(0.173469 2.27958e-09 0.00278047)
(0.171915 2.30147e-09 0.00279027)
(0.170355 2.63365e-09 0.00280081)
(0.168787 3.20473e-09 0.00281213)
(0.167211 3.91573e-09 0.00282429)
(0.165627 4.6353e-09 0.00283733)
(0.164034 5.23874e-09 0.00285131)
(0.162432 5.61756e-09 0.00286629)
(0.16082 5.72606e-09 0.00288231)
(0.159198 5.56331e-09 0.00289943)
(0.157565 5.194e-09 0.00291771)
(0.15592 4.73333e-09 0.00293719)
(0.154263 4.28503e-09 0.00295794)
(0.152593 3.97284e-09 0.00298002)
(0.150909 3.83102e-09 0.00300347)
(0.149211 3.8491e-09 0.00302836)
(0.147498 3.93381e-09 0.00305473)
(0.145769 3.96142e-09 0.00308264)
(0.144023 3.83007e-09 0.00311213)
(0.142259 3.48837e-09 0.00314327)
(0.140477 2.99248e-09 0.00317609)
(0.138675 2.48707e-09 0.00321065)
(0.136853 2.17773e-09 0.00324698)
(0.135009 2.27291e-09 0.00328514)
(0.133143 2.88016e-09 0.00332516)
(0.131254 3.98807e-09 0.00336709)
(0.129341 5.431e-09 0.00341098)
(0.127402 6.93295e-09 0.00345685)
(0.125436 8.21313e-09 0.00350476)
(0.123444 9.07356e-09 0.00355473)
(0.121422 9.46951e-09 0.0036068)
(0.119371 9.5152e-09 0.003661)
(0.117289 9.37814e-09 0.00371737)
(0.115175 9.21252e-09 0.00377592)
(0.113029 9.05548e-09 0.00383668)
(0.110848 8.84417e-09 0.00389966)
(0.108632 8.45679e-09 0.00396487)
(0.106379 7.87048e-09 0.00403231)
(0.10409 7.20517e-09 0.00410196)
(0.101761 6.70737e-09 0.00417383)
(0.0993937 6.59316e-09 0.00424786)
(0.0969854 6.91391e-09 0.00432403)
(0.0945356 7.47643e-09 0.00440228)
(0.0920434 7.91426e-09 0.00448252)
(0.0895079 7.92663e-09 0.00456469)
(0.0869283 7.4631e-09 0.00464865)
(0.0843039 6.76162e-09 0.00473426)
(0.0816342 6.15152e-09 0.00482137)
(0.0789186 5.77746e-09 0.00490977)
(0.0761568 5.47288e-09 0.00499922)
(0.0733486 4.91036e-09 0.00508944)
(0.0704941 3.89193e-09 0.00518012)
(0.0675934 2.64126e-09 0.00527085)
(0.064647 1.62283e-09 0.00536119)
(0.0616557 1.09267e-09 0.00545063)
(0.0586206 8.1189e-10 0.00553856)
(0.055543 2.1606e-10 0.00562429)
(0.0524248 -9.63226e-10 0.00570702)
(0.0492684 -2.34049e-09 0.00578582)
(0.0460766 -3.16475e-09 0.0058596)
(0.042853 -3.13429e-09 0.00592714)
(0.0396016 -2.77641e-09 0.005987)
(0.0363275 -2.80211e-09 0.00603751)
(0.0330366 -3.07528e-09 0.00607674)
(0.0297358 -2.69646e-09 0.00610244)
(0.0264333 -1.2126e-09 0.00611196)
(0.0231388 4.15939e-10 0.00610222)
(0.0198632 9.78455e-10 0.00606953)
(0.0166198 1.185e-09 0.0060095)
(0.0134236 3.51787e-09 0.0059166)
(0.0102928 9.35053e-09 0.00578453)
(0.00724716 1.73171e-08 0.00560291)
(0.00431085 2.59272e-08 0.00536141)
(0.00151094 3.62333e-08 0.00505215)
(-0.001123 4.98974e-08 0.00466283)
(-0.00354913 6.73268e-08 0.00417841)
(-0.00572825 9.10325e-08 0.00357956)
(-0.00761308 1.27846e-07 0.00284325)
(-0.00915186 1.8331e-07 0.00194236)
(-0.0102891 2.57615e-07 0.000847719)
(-0.0109696 3.33969e-07 -0.000463057)
(-0.0111371 3.15875e-07 -0.00199142)
(-0.0107451 -2.07592e-07 -0.00368882)
(-0.00978755 -1.42611e-06 -0.00540636)
(-0.0082698 -5.32066e-06 -0.00663123)
(-0.00570027 2.4342e-06 -0.00629559)
(-0.00299361 -0.000141768 -0.00355614)
(-0.000793884 4.21975e-08 0.0321608)
(0.00162004 6.15106e-08 0.00999431)
(0.00729549 4.20343e-08 -0.00464572)
(0.0137687 3.51155e-08 -0.01501)
(0.0208889 3.22868e-08 -0.0222022)
(0.0286273 3.00142e-08 -0.0269936)
(0.0369021 2.75087e-08 -0.0299948)
(0.0455968 2.56352e-08 -0.0316837)
(0.0545818 2.35219e-08 -0.0324351)
(0.0637246 2.1047e-08 -0.0325321)
(0.0729049 1.88895e-08 -0.0321728)
(0.0820267 1.70072e-08 -0.0314993)
(0.0910136 1.50097e-08 -0.0306122)
(0.0998074 1.30512e-08 -0.0295834)
(0.108365 1.17628e-08 -0.0284647)
(0.116655 1.12564e-08 -0.0272931)
(0.124655 1.09375e-08 -0.0260955)
(0.132352 1.04263e-08 -0.0248912)
(0.139737 1.00365e-08 -0.023694)
(0.146804 1.01945e-08 -0.0225136)
(0.153555 1.07722e-08 -0.0213569)
(0.15999 1.12557e-08 -0.0202287)
(0.166113 1.13495e-08 -0.0191317)
(0.171929 1.12072e-08 -0.0180681)
(0.177445 1.11234e-08 -0.0170387)
(0.182668 1.11034e-08 -0.0160438)
(0.187604 1.08954e-08 -0.0150835)
(0.192262 1.03423e-08 -0.0141574)
(0.19665 9.61466e-09 -0.0132647)
(0.200776 9.12303e-09 -0.0124049)
(0.204647 9.14586e-09 -0.0115771)
(0.208274 9.62081e-09 -0.0107804)
(0.211662 1.02185e-08 -0.0100141)
(0.214821 1.06231e-08 -0.00927736)
(0.217758 1.0752e-08 -0.00856926)
(0.220482 1.07501e-08 -0.00788906)
(0.222999 1.07982e-08 -0.00723602)
(0.225317 1.09185e-08 -0.00660941)
(0.227445 1.09371e-08 -0.00600852)
(0.229388 1.06306e-08 -0.00543269)
(0.231154 9.89816e-09 -0.00488127)