/*--------------------------------*- C++ -*----------------------------------*\
  =========                 |
  \\      /  F ield         | OpenFOAM: The Open Source CFD Toolbox
   \\    /   O peration     | Website:  https://openfoam.org
    \\  /    A nd           | Version:  8
     \\/     M anipulation  |
\*---------------------------------------------------------------------------*/
FoamFile
{
    version     2.0;
    format      ascii;
    class       volScalarField;
    location    "2100";
    object      alphat;
}
// * * * * * * * * * * * * * * * * * * * * * * * * * * * * * * * * * * * * * //

dimensions      [1 -1 -1 0 0 0 0];

internalField   nonuniform List<scalar> 
46000
(
1.08425e-07
5.55811e-07
1.16015e-06
1.76019e-06
2.34375e-06
2.91135e-06
3.46664e-06
4.01348e-06
4.55245e-06
5.08518e-06
5.6127e-06
6.13552e-06
6.65392e-06
7.16804e-06
7.67791e-06
8.18345e-06
8.68454e-06
9.18101e-06
9.67264e-06
1.01592e-05
1.06404e-05
1.1116e-05
1.15855e-05
1.20488e-05
1.25053e-05
1.29548e-05
1.33967e-05
1.38306e-05
1.42561e-05
1.46726e-05
1.50797e-05
1.54767e-05
1.58632e-05
1.62385e-05
1.66021e-05
1.69534e-05
1.72918e-05
1.76167e-05
1.79276e-05
1.82238e-05
1.85048e-05
1.877e-05
1.9019e-05
1.92512e-05
1.94663e-05
1.96638e-05
1.98432e-05
2.00044e-05
2.01471e-05
2.02709e-05
2.03758e-05
2.04616e-05
2.05283e-05
2.05759e-05
2.06046e-05
2.06143e-05
2.06053e-05
2.0578e-05
2.05325e-05
2.04692e-05
2.03887e-05
2.02915e-05
2.01793e-05
2.00533e-05
1.99124e-05
1.97569e-05
1.95874e-05
1.94047e-05
1.92096e-05
1.90027e-05
1.8785e-05
1.85571e-05
1.83199e-05
1.80742e-05
1.78209e-05
1.75608e-05
1.72947e-05
1.70234e-05
1.67477e-05
1.64684e-05
1.61863e-05
1.5902e-05
1.56165e-05
1.53303e-05
1.50441e-05
1.47585e-05
1.44743e-05
1.41919e-05
1.3912e-05
1.36351e-05
1.33616e-05
1.3092e-05
1.28267e-05
1.25662e-05
1.23108e-05
1.20608e-05
1.18165e-05
1.15781e-05
1.1346e-05
1.11203e-05
1.09011e-05
1.06887e-05
1.0483e-05
1.02844e-05
1.00927e-05
9.908e-06
9.7304e-06
9.55986e-06
9.39635e-06
9.23983e-06
9.09026e-06
8.94756e-06
8.81164e-06
8.68241e-06
8.55974e-06
8.44352e-06
8.33362e-06
8.22988e-06
8.13215e-06
8.04027e-06
7.95406e-06
7.87334e-06
7.79798e-06
7.72765e-06
7.66212e-06
7.60139e-06
7.54511e-06
7.49306e-06
7.445e-06
7.4007e-06
7.35992e-06
7.32242e-06
7.28795e-06
7.25624e-06
7.22706e-06
7.20013e-06
7.17518e-06
7.15193e-06
7.13012e-06
7.10945e-06
7.08963e-06
7.07035e-06
7.05133e-06
7.03224e-06
7.01277e-06
6.99259e-06
6.97138e-06
6.9488e-06
6.92452e-06
6.89819e-06
6.86946e-06
6.838e-06
6.80346e-06
6.76549e-06
6.72374e-06
6.67789e-06
6.62761e-06
6.57257e-06
6.51247e-06
6.44702e-06
6.37594e-06
6.29898e-06
6.21591e-06
6.12651e-06
6.03064e-06
5.92917e-06
5.8222e-06
5.70877e-06
5.58868e-06
5.46192e-06
5.32857e-06
5.18875e-06
5.04262e-06
4.8904e-06
4.73235e-06
4.56876e-06
4.39999e-06
4.22643e-06
4.04851e-06
3.86668e-06
3.68145e-06
3.49332e-06
3.30282e-06
3.11051e-06
2.91691e-06
2.72256e-06
2.52797e-06
2.33357e-06
2.13962e-06
1.94545e-06
1.75349e-06
1.56225e-06
1.37137e-06
1.1803e-06
9.87545e-07
7.95868e-07
5.98984e-07
3.92955e-07
1.85838e-07
3.56212e-08
1.08612e-07
5.57073e-07
1.16196e-06
1.76185e-06
2.34431e-06
2.91167e-06
3.46683e-06
4.01361e-06
4.55254e-06
5.08527e-06
5.61279e-06
6.13561e-06
6.65403e-06
7.16816e-06
7.67803e-06
8.18358e-06
8.68467e-06
9.18114e-06
9.67277e-06
1.01593e-05
1.06405e-05
1.11161e-05
1.15856e-05
1.20489e-05
1.25054e-05
1.29549e-05
1.33968e-05
1.38307e-05
1.42562e-05
1.46727e-05
1.50798e-05
1.54768e-05
1.58633e-05
1.62386e-05
1.66022e-05
1.69535e-05
1.72919e-05
1.76168e-05
1.79277e-05
1.82239e-05
1.85049e-05
1.87701e-05
1.90191e-05
1.92514e-05
1.94664e-05
1.96639e-05
1.98434e-05
2.00046e-05
2.01472e-05
2.0271e-05
2.03759e-05
2.04617e-05
2.05284e-05
2.0576e-05
2.06046e-05
2.06144e-05
2.06054e-05
2.0578e-05
2.05325e-05
2.04693e-05
2.03887e-05
2.02916e-05
2.01793e-05
2.00534e-05
1.99125e-05
1.9757e-05
1.95875e-05
1.94048e-05
1.92097e-05
1.90028e-05
1.8785e-05
1.85571e-05
1.83199e-05
1.80743e-05
1.7821e-05
1.75609e-05
1.72947e-05
1.70234e-05
1.67477e-05
1.64684e-05
1.61863e-05
1.59021e-05
1.56165e-05
1.53303e-05
1.50441e-05
1.47586e-05
1.44743e-05
1.4192e-05
1.3912e-05
1.36351e-05
1.33616e-05
1.3092e-05
1.28268e-05
1.25662e-05
1.23108e-05
1.20608e-05
1.18165e-05
1.15781e-05
1.1346e-05
1.11203e-05
1.09011e-05
1.06886e-05
1.0483e-05
1.02843e-05
1.00927e-05
9.908e-06
9.7304e-06
9.55985e-06
9.39634e-06
9.23983e-06
9.09025e-06
8.94755e-06
8.81163e-06
8.68239e-06
8.55973e-06
8.44351e-06
8.3336e-06
8.22986e-06
8.13213e-06
8.04025e-06
7.95404e-06
7.87332e-06
7.79796e-06
7.72763e-06
7.6621e-06
7.60136e-06
7.54509e-06
7.49303e-06
7.44498e-06
7.40067e-06
7.35989e-06
7.32239e-06
7.28791e-06
7.25621e-06
7.22702e-06
7.20009e-06
7.17514e-06
7.1519e-06
7.13008e-06
7.10941e-06
7.08959e-06
7.07031e-06
7.05129e-06
7.03219e-06
7.01272e-06
6.99254e-06
6.97133e-06
6.94875e-06
6.92447e-06
6.89813e-06
6.86941e-06
6.83795e-06
6.8034e-06
6.76543e-06
6.72369e-06
6.67784e-06
6.62755e-06
6.57251e-06
6.51242e-06
6.44697e-06
6.37589e-06
6.29893e-06
6.21586e-06
6.12646e-06
6.0306e-06
5.92913e-06
5.82216e-06
5.70873e-06
5.58864e-06
5.46189e-06
5.32854e-06
5.18872e-06
5.0426e-06
4.89038e-06
4.73232e-06
4.56874e-06
4.39998e-06
4.22642e-06
4.0485e-06
3.86667e-06
3.68144e-06
3.49331e-06
3.30281e-06
3.1105e-06
2.9169e-06
2.72255e-06
2.52796e-06
2.33356e-06
2.13961e-06
1.94544e-06
1.75348e-06
1.56224e-06
1.37136e-06
1.18029e-06
9.87543e-07
7.95865e-07
5.98981e-07
3.92953e-07
1.85836e-07
3.56209e-08
5.08827e-07
1.60192e-05
3.1532e-05
4.21506e-05
5.02191e-05
5.68588e-05
6.25858e-05
6.76761e-05
7.22961e-05
7.65487e-05
8.05031e-05
8.42088e-05
8.77021e-05
9.1011e-05
9.4157e-05
9.71573e-05
0.000100026
0.000102774
0.000105411
0.000107946
0.000110384
0.000112731
0.000114993
0.000117174
0.000119276
0.000121304
0.000123259
0.000125145
0.000126962
0.000128713
0.000130398
0.000132019
0.000133576
0.000135071
0.000136503
0.000137872
0.000139179
0.000140424
0.000141607
0.000142727
0.000143785
0.000144779
0.00014571
0.000146577
0.00014738
0.000148118
0.000148792
0.000149401
0.000149944
0.000150422
0.000150835
0.000151183
0.000151465
0.000151682
0.000151834
0.000151921
0.000151945
0.000151906
0.000151803
0.000151639
0.000151412
0.000151122
0.000150766
0.000150346
0.000149867
0.000149335
0.000148749
0.000148114
0.00014743
0.0001467
0.000145926
0.00014511
0.000144253
0.000143359
0.00014243
0.000141467
0.000140473
0.00013945
0.000138402
0.000137329
0.000136235
0.000135121
0.000133991
0.000132847
0.000131691
0.000130524
0.000129351
0.000128172
0.000126991
0.000125809
0.000124628
0.000123451
0.00012228
0.000121116
0.000119961
0.000118818
0.000117688
0.000116573
0.000115475
0.000114394
0.000113332
0.000112292
0.000111273
0.000110278
0.000109307
0.000108361
0.000107441
0.000106548
0.000105683
0.000104846
0.000104037
0.000103258
0.000102508
0.000101787
0.000101096
0.000100434
9.98022e-05
9.91994e-05
9.86257e-05
9.80807e-05
9.75639e-05
9.70748e-05
9.66126e-05
9.61768e-05
9.57663e-05
9.53797e-05
9.50163e-05
9.46752e-05
9.43551e-05
9.4055e-05
9.37736e-05
9.35095e-05
9.32616e-05
9.30282e-05
9.28081e-05
9.25996e-05
9.24013e-05
9.22115e-05
9.20286e-05
9.18508e-05
9.16765e-05
9.15039e-05
9.13311e-05
9.11563e-05
9.09775e-05
9.0793e-05
9.06006e-05
9.03984e-05
9.01843e-05
8.99563e-05
8.97123e-05
8.94503e-05
8.9168e-05
8.88634e-05
8.85344e-05
8.81788e-05
8.77946e-05
8.73796e-05
8.69318e-05
8.64491e-05
8.59296e-05
8.53712e-05
8.47717e-05
8.41286e-05
8.34378e-05
8.26891e-05
8.18856e-05
8.10285e-05
8.01179e-05
7.91532e-05
7.81337e-05
7.70586e-05
7.5927e-05
7.47385e-05
7.34922e-05
7.21876e-05
7.08243e-05
6.94018e-05
6.79196e-05
6.63772e-05
6.47739e-05
6.31089e-05
6.13811e-05
5.95891e-05
5.77308e-05
5.58034e-05
5.3803e-05
5.17243e-05
4.95607e-05
4.73036e-05
4.49247e-05
4.23954e-05
3.96701e-05
3.66717e-05
3.32461e-05
2.9066e-05
2.39543e-05
1.72351e-05
7.78032e-06
1.63924e-07
5.0832e-07
1.60186e-05
3.15322e-05
4.2153e-05
5.02272e-05
5.68655e-05
6.25911e-05
6.76806e-05
7.23002e-05
7.65527e-05
8.05071e-05
8.42128e-05
8.77062e-05
9.10152e-05
9.41613e-05
9.71617e-05
0.00010003
0.000102779
0.000105416
0.00010795
0.000110389
0.000112736
0.000114998
0.000117179
0.000119281
0.000121309
0.000123264
0.00012515
0.000126967
0.000128718
0.000130403
0.000132024
0.000133582
0.000135076
0.000136508
0.000137878
0.000139185
0.00014043
0.000141613
0.000142733
0.00014379
0.000144785
0.000145716
0.000146583
0.000147386
0.000148124
0.000148798
0.000149407
0.000149951
0.000150429
0.000150841
0.000151189
0.000151471
0.000151688
0.00015184
0.000151928
0.000151951
0.000151912
0.000151809
0.000151645
0.000151418
0.000151128
0.000150772
0.000150352
0.000149873
0.00014934
0.000148755
0.00014812
0.000147436
0.000146706
0.000145932
0.000145115
0.000144259
0.000143365
0.000142435
0.000141472
0.000140478
0.000139455
0.000138407
0.000137334
0.00013624
0.000135126
0.000133996
0.000132852
0.000131695
0.000130529
0.000129355
0.000128177
0.000126995
0.000125813
0.000124632
0.000123455
0.000122283
0.000121119
0.000119965
0.000118822
0.000117692
0.000116577
0.000115478
0.000114397
0.000113335
0.000112295
0.000111276
0.000110281
0.000109309
0.000108363
0.000107444
0.000106551
0.000105685
0.000104848
0.000104039
0.00010326
0.00010251
0.000101789
0.000101098
0.000100436
9.98039e-05
9.92011e-05
9.86273e-05
9.80822e-05
9.75654e-05
9.70762e-05
9.6614e-05
9.61781e-05
9.57675e-05
9.53809e-05
9.50174e-05
9.46762e-05
9.4356e-05
9.40559e-05
9.37744e-05
9.35103e-05
9.32622e-05
9.30289e-05
9.28087e-05
9.26002e-05
9.24018e-05
9.22119e-05
9.20289e-05
9.18511e-05
9.16768e-05
9.15041e-05
9.13313e-05
9.11564e-05
9.09776e-05
9.0793e-05
9.06006e-05
9.03983e-05
9.01842e-05
8.99562e-05
8.97122e-05
8.94501e-05
8.91678e-05
8.88632e-05
8.85342e-05
8.81786e-05
8.77943e-05
8.73793e-05
8.69315e-05
8.64488e-05
8.59292e-05
8.53708e-05
8.47713e-05
8.41282e-05
8.34374e-05
8.26886e-05
8.18851e-05
8.1028e-05
8.01174e-05
7.91527e-05
7.81332e-05
7.70581e-05
7.59266e-05
7.4738e-05
7.34917e-05
7.21872e-05
7.0824e-05
6.94015e-05
6.79193e-05
6.63769e-05
6.47736e-05
6.31086e-05
6.13808e-05
5.95888e-05
5.77306e-05
5.58032e-05
5.38028e-05
5.17242e-05
4.95605e-05
4.73035e-05
4.49246e-05
4.23953e-05
3.967e-05
3.66716e-05
3.3246e-05
2.9066e-05
2.39543e-05
1.72352e-05
7.78033e-06
1.63924e-07
1.0848e-06
3.07596e-05
6.61013e-05
9.2421e-05
0.000112676
0.0001291
0.000142966
0.000155019
0.000165724
0.000175387
0.000184215
0.000192357
0.000199922
0.000206993
0.000213635
0.000219898
0.000225822
0.000231442
0.000236785
0.000241874
0.000246727
0.000251362
0.000255793
0.000260031
0.000264087
0.000267971
0.000271689
0.000275249
0.000278657
0.000281918
0.000285037
0.000288017
0.000290862
0.000293574
0.000296157
0.000298613
0.000300944
0.000303151
0.000305236
0.000307199
0.000309043
0.000310769
0.000312376
0.000313866
0.000315239
0.000316497
0.000317639
0.000318667
0.000319581
0.000320382
0.000321069
0.000321646
0.000322111
0.000322465
0.000322711
0.000322848
0.000322878
0.000322801
0.00032262
0.000322333
0.000321942
0.000321445
0.000320841
0.00032013
0.000319321
0.000318418
0.000317427
0.00031635
0.000315192
0.000313954
0.000312641
0.000311255
0.0003098
0.000308279
0.000306696
0.000305054
0.000303356
0.000301606
0.000299809
0.000297967
0.000296084
0.000294164
0.000292211
0.000290229
0.000288222
0.000286192
0.000284145
0.000282083
0.000280012
0.000277933
0.000275851
0.00027377
0.000271692
0.000269622
0.000267563
0.000265517
0.000263489
0.000261481
0.000259496
0.000257536
0.000255605
0.000253705
0.000251838
0.000250007
0.000248213
0.000246459
0.000244746
0.000243076
0.000241449
0.000239868
0.000238334
0.000236846
0.000235406
0.000234014
0.000232671
0.000231377
0.000230131
0.000228934
0.000227785
0.000226684
0.00022563
0.000224621
0.000223657
0.000222735
0.000221855
0.000221014
0.000220211
0.000219444
0.000218711
0.00021801
0.000217339
0.000216696
0.000216077
0.000215481
0.000214905
0.000214345
0.0002138
0.000213266
0.00021274
0.000212219
0.0002117
0.000211179
0.000210654
0.000210121
0.000209576
0.000209016
0.000208438
0.000207837
0.00020721
0.000206554
0.000205864
0.000205138
0.000204371
0.000203559
0.0002027
0.000201789
0.000200822
0.000199797
0.000198709
0.000197556
0.000196333
0.000195038
0.000193665
0.000192211
0.000190669
0.00018903
0.00018729
0.000185451
0.000183513
0.000181475
0.000179335
0.000177092
0.000174744
0.000172288
0.000169723
0.000167045
0.000164252
0.000161341
0.000158308
0.000155148
0.000151857
0.000148428
0.000144855
0.000141127
0.000137234
0.000133162
0.000128892
0.0001244
0.000119656
0.000114613
0.000109201
0.000103323
9.68247e-05
8.94573e-05
8.0827e-05
7.03062e-05
5.69899e-05
3.94967e-05
1.65307e-05
3.55414e-07
1.08496e-06
3.07644e-05
6.61081e-05
9.24301e-05
0.000112687
0.000129112
0.000142977
0.000155029
0.000165734
0.000175397
0.000184225
0.000192366
0.000199931
0.000207003
0.000213644
0.000219907
0.000225832
0.000231452
0.000236795
0.000241884
0.000246737
0.000251372
0.000255803
0.000260041
0.000264097
0.000267981
0.000271699
0.000275259
0.000278667
0.000281928
0.000285047
0.000288027
0.000290872
0.000293584
0.000296168
0.000298624
0.000300954
0.000303161
0.000305246
0.00030721
0.000309054
0.000310779
0.000312386
0.000313876
0.00031525
0.000316508
0.00031765
0.000318678
0.000319592
0.000320392
0.00032108
0.000321656
0.000322121
0.000322476
0.000322721
0.000322858
0.000322888
0.000322812
0.00032263
0.000322343
0.000321952
0.000321455
0.000320851
0.00032014
0.00031933
0.000318428
0.000317437
0.00031636
0.000315201
0.000313963
0.00031265
0.000311264
0.000309809
0.000308288
0.000306704
0.000305062
0.000303364
0.000301614
0.000299817
0.000297974
0.000296091
0.000294171
0.000292218
0.000290236
0.000288228
0.000286199
0.000284151
0.00028209
0.000280018
0.000277939
0.000275857
0.000273775
0.000271698
0.000269627
0.000267568
0.000265522
0.000263494
0.000261485
0.0002595
0.00025754
0.000255609
0.000253709
0.000251842
0.000250011
0.000248217
0.000246462
0.000244749
0.000243079
0.000241452
0.000239871
0.000238336
0.000236848
0.000235408
0.000234016
0.000232673
0.000231378
0.000230133
0.000228935
0.000227786
0.000226685
0.000225631
0.000224622
0.000223658
0.000222736
0.000221855
0.000221014
0.000220211
0.000219444
0.000218711
0.00021801
0.000217339
0.000216696
0.000216077
0.000215481
0.000214904
0.000214345
0.000213799
0.000213265
0.000212739
0.000212218
0.000211699
0.000211178
0.000210653
0.00021012
0.000209575
0.000209015
0.000208436
0.000207835
0.000207209
0.000206552
0.000205863
0.000205136
0.000204369
0.000203557
0.000202698
0.000201787
0.00020082
0.000199795
0.000198707
0.000197554
0.000196331
0.000195036
0.000193663
0.000192209
0.000190667
0.000189028
0.000187288
0.000185449
0.000183511
0.000181473
0.000179333
0.00017709
0.000174742
0.000172287
0.000169721
0.000167044
0.000164251
0.00016134
0.000158307
0.000155147
0.000151856
0.000148427
0.000144853
0.000141126
0.000137233
0.000133161
0.000128891
0.0001244
0.000119655
0.000114612
0.000109201
0.000103323
9.68243e-05
8.9457e-05
8.08268e-05
7.03061e-05
5.69899e-05
3.94967e-05
1.65307e-05
3.55415e-07
1.6709e-06
4.09819e-05
9.15099e-05
0.000132261
0.000164926
0.000191878
0.000214746
0.000234602
0.000252163
0.000267923
0.000282233
0.000295347
0.000307459
0.000318713
0.000329223
0.000339082
0.000348361
0.000357119
0.000365407
0.000373266
0.000380728
0.000387825
0.00039458
0.000401016
0.000407151
0.000413001
0.00041858
0.0004239
0.000428972
0.000433805
0.000438409
0.00044279
0.000446955
0.000450909
0.000454659
0.000458208
0.000461562
0.000464723
0.000467696
0.000470483
0.000473088
0.000475514
0.000477762
0.000479836
0.000481738
0.000483469
0.000485032
0.00048643
0.000487663
0.000488735
0.000489646
0.000490399
0.000490996
0.000491438
0.000491728
0.000491868
0.000491859
0.000491703
0.000491402
0.000490957
0.000490369
0.000489639
0.000488767
0.000487755
0.000486609
0.000485337
0.000483943
0.000482433
0.00048081
0.00047908
0.000477246
0.000475313
0.000473285
0.000471167
0.000468963
0.000466678
0.000464317
0.000461884
0.000459384
0.000456822
0.000454203
0.000451532
0.000448815
0.000446055
0.000443258
0.00044043
0.000437575
0.000434698
0.000431805
0.000428899
0.000425987
0.000423073
0.000420161
0.000417256
0.000414364
0.000411487
0.00040863
0.000405798
0.000402995
0.000400223
0.000397487
0.00039479
0.000392136
0.000389527
0.000386965
0.000384454
0.000381996
0.000379593
0.000377247
0.000374959
0.00037273
0.000370562
0.000368456
0.000366412
0.00036443
0.000362511
0.000360655
0.000358861
0.000357129
0.000355458
0.000353846
0.000352292
0.000350793
0.000349348
0.000347954
0.00034661
0.000345313
0.00034406
0.000342849
0.000341677
0.00034054
0.000339436
0.000338361
0.000337311
0.000336283
0.000335273
0.000334277
0.000333291
0.000332311
0.000331332
0.000330351
0.000329363
0.000328362
0.000327346
0.000326308
0.000325244
0.00032415
0.00032302
0.000321849
0.000320634
0.000319368
0.000318047
0.000316666
0.000315221
0.000313706
0.000312116
0.000310448
0.000308696
0.000306856
0.000304924
0.000302894
0.000300763
0.000298525
0.000296174
0.000293704
0.000291107
0.000288378
0.000285515
0.000282517
0.000279382
0.000276107
0.000272689
0.000269124
0.00026541
0.000261539
0.000257509
0.000253311
0.00024894
0.000244386
0.000239639
0.000234689
0.000229521
0.00022412
0.000218464
0.00021253
0.000206288
0.000199699
0.000192714
0.000185267
0.000177268
0.000168591
0.000159057
0.000148403
0.000136242
0.000121996
0.000104804
8.33989e-05
5.62649e-05
2.29775e-05
5.59428e-07
1.67147e-06
4.09849e-05
9.15181e-05
0.000132272
0.00016494
0.000191893
0.000214762
0.000234618
0.000252178
0.000267938
0.000282248
0.000295363
0.000307474
0.000318728
0.000329238
0.000339097
0.000348376
0.000357134
0.000365422
0.00037328
0.000380743
0.000387839
0.000394595
0.000401031
0.000407165
0.000413015
0.000418594
0.000423914
0.000428986
0.00043382
0.000438423
0.000442804
0.000446969
0.000450924
0.000454673
0.000458223
0.000461576
0.000464737
0.00046771
0.000470497
0.000473102
0.000475528
0.000477776
0.00047985
0.000481752
0.000483483
0.000485046
0.000486444
0.000487677
0.000488748
0.00048966
0.000490413
0.000491009
0.000491451
0.000491741
0.000491881
0.000491872
0.000491716
0.000491414
0.00049097
0.000490382
0.000489652
0.00048878
0.000487767
0.000486621
0.000485349
0.000483955
0.000482444
0.000480821
0.000479091
0.000477257
0.000475323
0.000473295
0.000471177
0.000468973
0.000466688
0.000464326
0.000461893
0.000459393
0.000456831
0.000454212
0.000451541
0.000448823
0.000446063
0.000443266
0.000440437
0.000437582
0.000434705
0.000431811
0.000428906
0.000425993
0.000423079
0.000420167
0.000417262
0.000414369
0.000411492
0.000408635
0.000405803
0.000402999
0.000400227
0.000397491
0.000394794
0.000392139
0.00038953
0.000386968
0.000384457
0.000381999
0.000379596
0.000377249
0.000374961
0.000372732
0.000370564
0.000368458
0.000366413
0.000364431
0.000362512
0.000360656
0.000358862
0.000357129
0.000355458
0.000353846
0.000352292
0.000350793
0.000349347
0.000347954
0.000346609
0.000345312
0.000344059
0.000342848
0.000341676
0.000340539
0.000339434
0.000338359
0.000337309
0.000336281
0.000335271
0.000334275
0.000333289
0.000332309
0.00033133
0.000330349
0.00032936
0.00032836
0.000327343
0.000326305
0.000325241
0.000324147
0.000323017
0.000321846
0.000320631
0.000319365
0.000318044
0.000316663
0.000315217
0.000313702
0.000312113
0.000310444
0.000308693
0.000306853
0.00030492
0.000302891
0.00030076
0.000298521
0.000296171
0.000293701
0.000291104
0.000288375
0.000285512
0.000282514
0.000279378
0.000276103
0.000272686
0.000269122
0.000265407
0.000261537
0.000257506
0.000253309
0.000248937
0.000244383
0.000239637
0.000234687
0.000229519
0.000224118
0.000218462
0.000212529
0.000206287
0.000199698
0.000192713
0.000185266
0.000177267
0.00016859
0.000159056
0.000148403
0.000136242
0.000121996
0.000104804
8.33989e-05
5.62649e-05
2.29775e-05
5.59429e-07
2.25511e-06
4.8933e-05
0.00011117
0.000164064
0.000207898
0.000244778
0.000276405
0.000304008
0.000328465
0.000350409
0.000370304
0.0003885
0.000405262
0.000420796
0.000435266
0.0004488
0.000461505
0.000473466
0.000484756
0.000495433
0.000505549
0.000515145
0.000524259
0.000532921
0.000541158
0.000548995
0.00055645
0.000563543
0.000570289
0.000576702
0.000582794
0.000588577
0.000594059
0.00059925
0.000604158
0.00060879
0.000613153
0.000617253
0.000621096
0.000624687
0.000628031
0.000631132
0.000633996
0.000636626
0.000639027
0.000641202
0.000643155
0.00064489
0.000646411
0.00064772
0.000648821
0.000649718
0.000650414
0.000650912
0.000651215
0.000651327
0.00065125
0.000650988
0.000650542
0.000649917
0.000649113
0.000648134
0.000646981
0.000645657
0.000644169
0.000642524
0.000640729
0.000638788
0.000636708
0.000634495
0.000632153
0.000629689
0.000627107
0.000624413
0.000621614
0.000618714
0.000615719
0.000612636
0.00060947
0.000606227
0.000602914
0.000599536
0.000596099
0.000592611
0.000589077
0.000585503
0.000581895
0.000578261
0.000574604
0.000570933
0.000567252
0.000563568
0.000559886
0.000556212
0.000552552
0.00054891
0.000545293
0.000541704
0.000538149
0.000534633
0.000531158
0.000527731
0.000524354
0.000521031
0.000517765
0.00051456
0.000511418
0.000508341
0.000505331
0.00050239
0.000499521
0.000496723
0.000493997
0.000491345
0.000488767
0.000486262
0.00048383
0.000481471
0.000479184
0.000476967
0.000474818
0.000472734
0.000470714
0.000468755
0.000466855
0.00046501
0.000463217
0.000461473
0.000459774
0.000458118
0.0004565
0.000454915
0.000453361
0.000451832
0.000450323
0.000448831
0.00044735
0.000445875
0.000444402
0.000442925
0.000441438
0.000439937
0.000438416
0.000436869
0.000435291
0.000433675
0.000432017
0.00043031
0.000428549
0.000426728
0.00042484
0.000422881
0.000420844
0.000418725
0.000416517
0.000414214
0.000411812
0.000409306
0.000406689
0.000403958
0.000401106
0.000398128
0.000395018
0.000391771
0.00038838
0.000384837
0.000381137
0.000377275
0.000373249
0.000369056
0.00036469
0.000360147
0.000355422
0.000350508
0.000345397
0.000340081
0.00033455
0.00032879
0.00032279
0.000316532
0.000309997
0.000303164
0.000296005
0.000288489
0.000280576
0.00027222
0.00026336
0.00025392
0.0002438
0.000232868
0.000220943
0.000207774
0.000193013
0.000176164
0.000156531
0.000133133
0.000104645
6.95425e-05
2.82166e-05
7.68204e-07
2.25528e-06
4.89363e-05
0.000111178
0.000164077
0.000207914
0.000244796
0.000276424
0.000304028
0.000328485
0.000350429
0.000370325
0.00038852
0.000405282
0.000420817
0.000435286
0.00044882
0.000461525
0.000473486
0.000484775
0.000495453
0.000505568
0.000515164
0.000524278
0.00053294
0.000541177
0.000549014
0.000556469
0.000563562
0.000570308
0.000576721
0.000582813
0.000588595
0.000594077
0.000599268
0.000604176
0.000608808
0.000613171
0.000617271
0.000621114
0.000624705
0.000628049
0.00063115
0.000634014
0.000636644
0.000639045
0.000641219
0.000643173
0.000644907
0.000646428
0.000647737
0.000648838
0.000649735
0.00065043
0.000650928
0.000651231
0.000651343
0.000651266
0.000651003
0.000650557
0.000649931
0.000649128
0.000648148
0.000646995
0.000645671
0.000644183
0.000642538
0.000640742
0.000638801
0.000636721
0.000634508
0.000632166
0.000629701
0.000627119
0.000624425
0.000621625
0.000618725
0.00061573
0.000612646
0.00060948
0.000606237
0.000602923
0.000599545
0.000596109
0.00059262
0.000589086
0.000585511
0.000581904
0.000578268
0.000574612
0.00057094
0.000567259
0.000563575
0.000559893
0.000556219
0.000552558
0.000548916
0.000545298
0.000541709
0.000538154
0.000534637
0.000531163
0.000527735
0.000524358
0.000521035
0.000517769
0.000514563
0.000511421
0.000508344
0.000505334
0.000502393
0.000499523
0.000496725
0.000493999
0.000491347
0.000488768
0.000486263
0.000483831
0.000481472
0.000479185
0.000476968
0.000474818
0.000472735
0.000470714
0.000468755
0.000466854
0.000465009
0.000463216
0.000461472
0.000459773
0.000458117
0.000456498
0.000454914
0.000453359
0.00045183
0.000450321
0.000448829
0.000447348
0.000445873
0.000444399
0.000442922
0.000441435
0.000439934
0.000438413
0.000436866
0.000435287
0.000433672
0.000432013
0.000430306
0.000428545
0.000426724
0.000424836
0.000422877
0.00042084
0.000418721
0.000416512
0.00041421
0.000411808
0.000409302
0.000406685
0.000403954
0.000401101
0.000398124
0.000395014
0.000391767
0.000388376
0.000384833
0.000381133
0.000377271
0.000373246
0.000369052
0.000364686
0.000360144
0.000355419
0.000350505
0.000345394
0.000340078
0.000334547
0.000328788
0.000322787
0.000316529
0.000309995
0.000303162
0.000296003
0.000288487
0.000280574
0.000272218
0.000263358
0.000253918
0.000243799
0.000232867
0.000220942
0.000207774
0.000193012
0.000176164
0.000156531
0.000133133
0.000104645
6.95426e-05
2.82166e-05
7.68206e-07
2.83925e-06
5.56352e-05
0.00012732
0.000190403
0.000243997
0.000289841
0.000329574
0.000364478
0.000395518
0.000423419
0.00044873
0.000471875
0.00049318
0.000512905
0.000531254
0.000548396
0.000564464
0.000579571
0.000593809
0.000607256
0.000619979
0.000632032
0.000643463
0.000654312
0.000664617
0.000674406
0.000683706
0.000692542
0.000700933
0.000708898
0.000716452
0.000723611
0.000730387
0.000736792
0.000742836
0.00074853
0.000753882
0.000758901
0.000763594
0.000767969
0.000772032
0.00077579
0.00077925
0.000782418
0.000785298
0.000787897
0.000790221
0.000792274
0.000794062
0.00079559
0.000796862
0.000797884
0.000798661
0.000799196
0.000799495
0.000799562
0.000799401
0.000799018
0.000798414
0.000797596
0.000796566
0.000795329
0.000793888
0.000792248
0.000790415
0.000788396
0.0007862
0.000783833
0.000781301
0.000778612
0.000775773
0.000772788
0.000769666
0.000766413
0.000763036
0.000759541
0.000755936
0.000752227
0.000748422
0.000744528
0.000740551
0.000736499
0.00073238
0.000728201
0.000723968
0.000719689
0.000715372
0.000711024
0.000706651
0.000702261
0.000697862
0.000693458
0.000689058
0.000684669
0.000680295
0.000675944
0.000671622
0.000667333
0.000663085
0.000658882
0.000654728
0.000650629
0.000646589
0.000642612
0.000638702
0.000634862
0.000631094
0.000627402
0.000623788
0.000620253
0.000616799
0.000613428
0.000610139
0.000606934
0.000603811
0.000600772
0.000597816
0.000594941
0.000592145
0.000589427
0.000586784
0.000584213
0.000581711
0.000579276
0.000576903
0.00057459
0.000572332
0.000570126
0.000567967
0.000565851
0.000563774
0.000561729
0.000559713
0.00055772
0.000555746
0.000553783
0.000551827
0.000549873
0.000547913
0.000545943
0.000543956
0.000541946
0.000539907
0.000537832
0.000535714
0.000533549
0.000531328
0.000529046
0.000526696
0.000524271
0.000521766
0.000519174
0.000516488
0.000513702
0.000510811
0.000507807
0.000504687
0.000501442
0.000498069
0.000494561
0.000490912
0.000487117
0.00048317
0.000479063
0.000474792
0.000470347
0.000465724
0.000460915
0.000455918
0.000450726
0.000445334
0.000439734
0.000433919
0.00042788
0.000421605
0.000415083
0.000408298
0.000401234
0.000393871
0.000386186
0.000378153
0.000369741
0.000360911
0.000351622
0.000341818
0.000331437
0.000320396
0.000308596
0.000295905
0.000282152
0.00026711
0.000250473
0.000231824
0.000210593
0.000186004
0.000157017
0.000122307
8.05084e-05
3.27113e-05
9.8219e-07
2.83921e-06
5.56387e-05
0.00012733
0.000190417
0.000244014
0.000289861
0.000329596
0.000364501
0.000395542
0.000423443
0.000448755
0.000471899
0.000493205
0.000512929
0.000531279
0.00054842
0.000564488
0.000579595
0.000593833
0.000607281
0.000620003
0.000632056
0.000643487
0.000654336
0.00066464
0.000674429
0.00068373
0.000692565
0.000700956
0.000708921
0.000716475
0.000723634
0.00073041
0.000736814
0.000742859
0.000748552
0.000753904
0.000758923
0.000763616
0.00076799
0.000772053
0.000775811
0.000779271
0.000782438
0.000785318
0.000787918
0.000790241
0.000792294
0.000794082
0.000795609
0.000796881
0.000797903
0.000798679
0.000799214
0.000799513
0.00079958
0.000799419
0.000799035
0.000798432
0.000797613
0.000796583
0.000795345
0.000793904
0.000792263
0.00079043
0.000788412
0.000786215
0.000783848
0.000781316
0.000778627
0.000775786
0.000772802
0.000769679
0.000766426
0.000763049
0.000759554
0.000755948
0.000752239
0.000748434
0.000744539
0.000740562
0.00073651
0.000732391
0.000728211
0.000723978
0.000719699
0.000715381
0.000711033
0.00070666
0.00070227
0.00069787
0.000693466
0.000689066
0.000684676
0.000680302
0.000675951
0.000671628
0.00066734
0.000663091
0.000658887
0.000654734
0.000650635
0.000646594
0.000642617
0.000638707
0.000634866
0.000631098
0.000627406
0.000623792
0.000620257
0.000616803
0.000613431
0.000610142
0.000606936
0.000603814
0.000600775
0.000597818
0.000594943
0.000592147
0.000589428
0.000586785
0.000584214
0.000581712
0.000579276
0.000576903
0.00057459
0.000572332
0.000570126
0.000567967
0.000565851
0.000563773
0.000561728
0.000559712
0.000557719
0.000555744
0.000553781
0.000551825
0.000549871
0.000547911
0.000545941
0.000543953
0.000541943
0.000539904
0.000537828
0.000535711
0.000533545
0.000531324
0.000529042
0.000526692
0.000524267
0.000521762
0.000519169
0.000516483
0.000513698
0.000510806
0.000507803
0.000504682
0.000501438
0.000498065
0.000494556
0.000490908
0.000487113
0.000483165
0.000479059
0.000474787
0.000470343
0.000465719
0.000460911
0.000455914
0.000450722
0.00044533
0.000439731
0.000433916
0.000427877
0.000421602
0.00041508
0.000408295
0.000401231
0.000393868
0.000386184
0.000378151
0.000369738
0.000360909
0.00035162
0.000341817
0.000331435
0.000320395
0.000308595
0.000295904
0.000282151
0.00026711
0.000250473
0.000231824
0.000210593
0.000186004
0.000157018
0.000122308
8.05086e-05
3.27114e-05
9.82192e-07
3.42958e-06
6.15685e-05
0.000141203
0.000212969
0.000275076
0.000328907
0.000375992
0.000417609
0.000454767
0.000488249
0.000518667
0.000546498
0.000572122
0.000595839
0.000617893
0.000638483
0.000657772
0.000675893
0.00069296
0.000709067
0.000724293
0.000738708
0.000752368
0.000765324
0.00077762
0.000789291
0.000800371
0.000810889
0.00082087
0.000830335
0.000839304
0.000847795
0.000855825
0.000863406
0.000870552
0.000877276
0.000883588
0.000889498
0.000895016
0.000900151
0.000904912
0.000909307
0.000913344
0.00091703
0.000920374
0.000923381
0.00092606
0.000928418
0.00093046
0.000932193
0.000933624
0.00093476
0.000935605
0.000936168
0.000936453
0.000936466
0.000936214
0.000935701
0.000934934
0.000933917
0.000932657
0.000931159
0.000929427