/*--------------------------------*- C++ -*----------------------------------*\
  =========                 |
  \\      /  F ield         | OpenFOAM: The Open Source CFD Toolbox
   \\    /   O peration     | Website:  https://openfoam.org
    \\  /    A nd           | Version:  8
     \\/     M anipulation  |
\*---------------------------------------------------------------------------*/
FoamFile
{
    version     2.0;
    format      ascii;
    class       volScalarField;
    location    "2100";
    object      epsilon;
}
// * * * * * * * * * * * * * * * * * * * * * * * * * * * * * * * * * * * * * //

dimensions      [0 2 -3 0 0 0 0];

internalField   nonuniform List<scalar> 
46000
(
1.97153
9.10583
18.9853
28.7756
38.2745
47.5007
56.5192
65.3937
74.1366
82.7732
91.3209
99.7886
108.181
116.502
124.751
132.927
141.03
149.056
157.004
164.868
172.645
180.33
187.918
195.404
202.781
210.042
217.182
224.193
231.067
237.795
244.371
250.784
257.026
263.088
268.961
274.634
280.098
285.344
290.363
295.144
299.68
303.961
307.978
311.725
315.194
318.378
321.272
323.87
326.168
328.162
329.85
331.23
332.302
333.066
333.522
333.674
333.524
333.076
332.336
331.309
330.003
328.429
326.61
324.571
322.29
319.773
317.032
314.077
310.922
307.578
304.058
300.375
296.542
292.573
288.481
284.278
279.979
275.597
271.144
266.633
262.077
257.487
252.875
248.253
243.632
239.022
234.432
229.874
225.354
220.883
216.467
212.115
207.833
203.628
199.505
195.469
191.525
187.679
183.932
180.289
176.752
173.324
170.006
166.8
163.708
160.729
157.864
155.114
152.477
149.953
147.542
145.242
143.052
140.97
138.994
137.122
135.353
133.684
132.111
130.634
129.248
127.952
126.742
125.613
124.563
123.59
122.689
121.857
121.089
120.382
119.733
119.136
118.589
118.086
117.624
117.199
116.806
116.441
116.098
115.775
115.465
115.164
114.867
114.57
114.266
113.95
113.618
113.263
112.881
112.466
112.012
111.513
110.964
110.36
109.694
108.961
108.156
107.274
106.309
105.257
104.114
102.874
101.535
100.092
98.5436
96.9036
95.1736
93.3377
91.3928
89.3386
87.1763
84.9076
82.5353
80.0627
77.4939
74.8338
72.088
69.2626
66.3647
63.4017
60.3814
57.3123
54.2029
51.0621
47.8986
44.721
41.5375
38.3554
35.1786
31.9969
28.8493
25.7117
22.5781
19.4398
16.272
13.12
9.88031
6.4871
3.0713
0.654338
1.97246
9.1105
18.9921
28.7826
38.2795
47.5046
56.5221
65.3961
74.1385
82.775
91.3227
99.7904
108.183
116.504
124.752
132.929
141.032
149.058
157.005
164.869
172.646
180.332
187.92
195.405
202.782
210.044
217.184
224.195
231.068
237.797
244.372
250.786
257.028
263.09
268.962
274.635
280.1
285.346
290.365
295.146
299.682
303.962
307.98
311.727
315.196
318.38
321.274
323.871
326.169
328.164
329.852
331.232
332.304
333.067
333.524
333.676
333.526
333.078
332.338
331.311
330.005
328.43
326.612
324.573
322.291
319.775
317.033
314.079
310.923
307.579
304.059
300.376
296.543
292.574
288.481
284.279
279.98
275.598
271.145
266.634
262.077
257.487
252.876
248.254
243.632
239.022
234.433
229.874
225.354
220.883
216.468
212.115
207.833
203.628
199.504
195.469
191.525
187.678
183.932
180.289
176.752
173.323
170.006
166.8
163.707
160.729
157.864
155.113
152.476
149.953
147.542
145.241
143.051
140.969
138.993
137.121
135.352
133.683
132.111
130.633
129.247
127.951
126.741
125.613
124.562
123.589
122.688
121.856
121.088
120.381
119.732
119.135
118.588
118.085
117.623
117.198
116.805
116.44
116.098
115.774
115.464
115.163
114.867
114.569
114.265
113.949
113.617
113.263
112.88
112.465
112.011
111.512
110.963
110.359
109.693
108.96
108.155
107.273
106.308
105.257
104.113
102.873
101.534
100.091
98.5429
96.9029
95.1729
93.3371
91.3921
89.338
87.1756
84.907
82.5348
80.0622
77.4934
74.8333
72.0875
69.2622
66.3644
63.4013
60.3811
57.312
54.2026
51.0618
47.8983
44.7207
41.5373
38.3553
35.1785
31.9967
28.8492
25.7116
22.5781
19.4397
16.2719
13.1199
9.88027
6.48707
3.07127
0.654332
9.91826
8.46648
11.6007
15.2182
18.9343
22.6641
26.3855
30.1
33.8076
37.5105
41.2107
44.9088
48.6046
52.2972
55.9855
59.6676
63.3416
67.005
70.6553
74.2897
77.9051
81.4982
85.0654
88.603
92.1071
95.5733
98.9973
102.374
105.7
108.968
112.174
115.313
118.379
121.365
124.267
127.078
129.793
132.405
134.909
137.298
139.569
141.714
143.729
145.608
147.349
148.945
150.394
151.693
152.837
153.826
154.658
155.33
155.844
156.198
156.393
156.43
156.312
156.04
155.618
155.049
154.338
153.491
152.52
151.432
150.223
148.896
147.457
145.912
144.267
142.528
140.704
138.8
136.825
134.785
132.687
130.539
128.348
126.12
123.863
121.583
119.286
116.98
114.669
112.36
110.058
107.768
105.496
103.245
101.02
98.8263
96.6661
94.5434
92.4612
90.4225
88.4297
86.4852
84.591
82.7488
80.9601
79.2262
77.548
75.9264
74.3619
72.8549
71.4056
70.0141
68.6801
67.4034
66.1836
65.02
63.9121
62.8589
61.8597
60.9133
60.0189
59.1752
58.3809
57.635
56.9359
56.2824
55.6728
55.1058
54.5808
54.0955
53.6482
53.2375
52.8615
52.5184
52.2064
51.9239
51.6689
51.4397
51.2344
51.0512
50.888
50.7429
50.6141
50.4993
50.3966
50.3038
50.2188
50.1393
50.0632
49.988
49.9114
49.831
49.7443
49.6488
49.5419
49.421
49.2836
49.1268
48.9481
48.7448
48.5141
48.2533
47.96
47.6314
47.2652
46.8588
46.4101
45.9169
45.3774
44.7901
44.1548
43.4748
42.7491
41.9739
41.1474
40.2688
39.3383
38.3564
37.3241
36.2429
35.1145
33.9412
32.7257
31.4709
30.18
28.8568
27.505
26.1288
24.7323
23.3198
21.8958
20.4644
19.0298
17.5955
16.1645
14.7384
13.3228
11.9148
10.518
9.13959
7.77892
6.45216
5.1443
3.87188
2.78234
3.25795
9.9161
8.46151
11.5981
15.2166
18.9321
22.6622
26.3838
30.0983
33.8058
37.5086
41.2087
44.9066
48.6022
52.2946
55.9827
59.6646
63.3383
67.0016
70.6517
74.2859
77.9011
81.494
85.061
88.5985
92.1023
95.5684
98.9922
102.369
105.694
108.963
112.169
115.307
118.373
121.359
124.261
127.072
129.786
132.398
134.902
137.291
139.561
141.706
143.721
145.601
147.341
148.937
150.386
151.684
152.829
153.818
154.649
155.322
155.835
156.189
156.384
156.422
156.304
156.032
155.609
155.04
154.329
153.483
152.512
151.424
150.215
148.888
147.449
145.904
144.259
142.521
140.696
138.793
136.818
134.777
132.68
130.532
128.341
126.113
123.856
121.576
119.28
116.974
114.663
112.354
110.052
107.763
105.49
103.24
101.015
98.8214
96.6614
94.5387
92.4567
90.4181
88.4255
86.4811
84.587
82.745
80.9564
79.2226
77.5445
75.923
74.3586
72.8518
71.4026
70.0111
68.6773
67.4007
66.1809
65.0175
63.9096
62.8565
61.8573
60.9111
60.0167
59.173
58.3789
57.633
56.934
56.2805
55.671
55.104
54.5791
54.0939
53.6467
53.236
52.86
52.517
52.2051
51.9226
51.6677
51.4386
51.2333
51.0501
50.887
50.742
50.6131
50.4984
50.3957
50.303
50.218
50.1386
50.0625
49.9873
49.9107
49.8304
49.7437
49.6482
49.5414
49.4206
49.2831
49.1264
48.9477
48.7444
48.5137
48.253
47.9597
47.6312
47.2649
46.8586
46.4099
45.9167
45.3773
44.79
44.1547
43.4747
42.749
41.9739
41.1473
40.2688
39.3383
38.3564
37.3241
36.2428
35.1145
33.9412
32.7257
31.4709
30.18
28.8568
27.505
26.1288
24.7323
23.3198
21.8958
20.4644
19.0298
17.5955
16.1645
14.7384
13.3228
11.9148
10.518
9.13959
7.77892
6.45216
5.1443
3.87188
2.78234
3.25796
20.7525
12.1288
12.7339
14.5955
16.8273
19.2183
21.6925
24.2176
26.7776
29.3635
31.9701
34.5934
37.2304
39.8784
42.5349
45.1975
47.8636
50.5309
53.1966
55.8583
58.513
61.1579
63.79
66.406
69.0027
71.5764
74.1237
76.6406
79.1231
81.5671
83.9684
86.3225
88.6248
90.8708
93.0558
95.1749
97.2234
99.1966
101.09
102.898
104.617
106.242
107.77
109.196
110.516
111.727
112.826
113.811
114.678
115.427
116.055
116.561
116.945
117.207
117.347
117.367
117.266
117.047
116.713
116.267
115.711
115.051
114.292
113.44
112.494
111.459
110.338
109.136
107.858
106.509
105.094
103.62
102.091
100.513
98.8921
97.2335
95.5428
93.8254
92.0865
90.3315
88.5652
86.7924
85.018
83.2462
81.4813
79.7274
77.9881
76.2671
74.5677
72.8929
71.2456
69.6284
68.0436
66.4934
64.9797
63.5042
62.0684
60.6735
59.3206
58.0107
56.7444
55.5224
54.3449
53.2122
52.1244
51.0814
50.0832
49.1294
48.2197
47.3535
46.5303
45.7495
45.0104
44.3122
43.654
43.0349
42.4541
41.9105
41.4031
40.9306
40.4928
40.0882
39.7158
39.3742
39.0622
38.7785
38.5218
38.2908
38.0841
37.9006
37.7387
37.5972
37.4746
37.3696
37.2807
37.2064
37.1453
37.0959
37.0565
37.0256
37.0015
36.9826
36.9672
36.9535
36.9397
36.924
36.9045
36.8791
36.846
36.8032
36.7485
36.6799
36.5953
36.4925
36.3694
36.2239
36.0539
35.8573
35.632
35.3762
35.0879
34.7654
34.4073
34.0122
33.5797
33.11
32.6024
32.0553
31.4676
30.8386
30.1683
29.4569
28.705
27.9138
27.0845
26.2188
25.3189
24.3869
23.4255
22.4376
21.4262
20.3947
19.3464
18.2849
17.2138
16.1367
15.0571
13.9786
12.9045
11.838
10.783
9.74288
8.72245
7.72824
6.76887
5.86279
5.03275
4.34927
4.12415
6.96582
20.7544
12.1265
12.7321
14.5939
16.8256
19.2165
21.6907
24.2158
26.7757
29.3615
31.968
34.5912
37.2281
39.876
42.5324
45.1948
47.8609
50.528
53.1937
55.8552
58.5098
61.1546
63.7865
66.4025
68.999
71.5727
74.1198
76.6365
79.119
81.5629
83.964
86.318
88.6203
90.8662
93.051
95.17
97.2185
99.1916
101.085
102.893
104.612
106.237
107.764
109.19
110.51
111.721
112.821
113.805
114.672
115.421
116.049
116.555
116.939
117.201
117.342
117.361
117.26
117.041
116.707
116.261
115.705
115.046
114.287
113.434
112.489
111.454
110.333
109.131
107.853
106.504
105.089
103.615
102.086
100.508
98.8875
97.229
95.5384
93.8211
92.0824
90.3274
88.5612
86.7886
85.0142
83.2426
81.4778
79.724
77.9848
76.2639
74.5646
72.8899
71.2427
69.6256
68.0409
66.4908
64.9772
63.5018
62.066
60.6712
59.3185
58.0086
56.7425
55.5205
54.343
53.2104
52.1227
51.0798
50.0817
49.1279
48.2182
47.3521
46.529
45.7483
45.0092
44.311
43.6529
43.0339
42.4531
41.9095
41.4022
40.9298
40.492
40.0875
39.7151
39.3735
39.0615
38.7778
38.5212
38.2902
38.0836
37.9001
37.7382
37.5967
37.4742
37.3692
37.2803
37.2061
37.145
37.0956
37.0562
37.0253
37.0013
36.9825
36.9671
36.9534
36.9396
36.9239
36.9044
36.8791
36.846
36.8032
36.7485
36.6799
36.5953
36.4925
36.3695
36.224
36.054
35.8574
35.6321
35.3763
35.088
34.7656
34.4074
34.0124
33.5799
33.1102
32.6026
32.0555
31.4678
30.8388
30.1685
29.457
28.7052
27.9139
27.0847
26.219
25.319
24.3871
23.4257
22.4377
21.4264
20.3948
19.3465
18.285
17.2139
16.1368
15.0572
13.9787
12.9045
11.838
10.7831
9.74292
8.72247
7.72826
6.76888
5.8628
5.03275
4.34927
4.12415
6.96583
31.6191
16.2384
15.0164
15.844
17.2983
19.0347
20.9263
22.9151
24.9704
27.0745
29.2163
31.3879
33.5839
35.7997
38.0314
40.2759
42.53
44.7908
47.0554
49.3209
51.5846
53.8435
56.0947
58.3349
60.5611
62.7699
64.9579
67.1215
69.2571
71.3608
73.4288
75.457
77.4414
79.3778
81.2619
83.0895
84.8564
86.5582
88.1909
89.7503
91.2323
92.6332
93.9492
95.1769
96.3129
97.3544
98.2985
99.1429
99.8856
100.525
101.059
101.488
101.811
102.027
102.137
102.142
102.043
101.841
101.539
101.138
100.643
100.057
99.3828
98.6251
97.7863
96.8693
95.8779
94.8161
93.688
92.4984
91.2519
89.9533
88.6075
87.2193
85.7937
84.3355
82.8496
81.3406
79.8133
78.2722
76.7216
75.1658
73.6088
72.0545
70.5067
68.9688
67.4442
65.936
64.4471
62.9802
61.5377
60.1219
58.735
57.3787
56.0548
54.7647
53.5098
52.2911
51.1096
49.966
48.8611
47.7952
46.7687
45.7818
44.8346
43.9271
43.059
42.2303
41.4404
40.6891
39.9757
39.2999
38.6609
38.0581
37.4907
36.958
36.4591
35.9931
35.5595
35.1574
34.7859
34.4439
34.1305
33.8446
33.5851
33.3508
33.1408
32.9538
32.7887
32.6444
32.5198
32.4136
32.3246
32.2516
32.1934
32.1487
32.1162
32.0945
32.0824
32.0783
32.081
32.0889
32.1005
32.1142
32.1286
32.1418
32.1524
32.1584
32.1582
32.15
32.132
32.1021
32.0587
31.9996
31.9231
31.8272
31.7099
31.5694
31.4039
31.2115
30.9905
30.7395
30.4568
30.1415
29.7927
29.4097
28.992
28.5385
28.0485
27.5213
26.957
26.3556
25.7178
25.0443
24.3364
23.5954
22.8231
22.0216
21.1931
20.3402
19.4655
18.572
17.6628
16.741
15.81
14.8732
13.9341
12.9963
12.0638
11.1405
10.2314
9.34165
8.47853
7.65154
6.87464
6.17118
5.58513
5.2413
5.64795
10.8676
31.6226
16.2376
15.015
15.8424
17.2966
19.0329
20.9245
22.9132
24.9685
27.0726
29.2142
31.3859
33.5818
35.7975
38.0292
40.2736
42.5276
44.7883
47.0528
49.3183
51.5819
53.8407
56.0918
58.3319
60.558
62.7667
64.9546
67.1182
69.2537
71.3574
73.4253
75.4534
77.4377
79.374
81.2581
83.0856
84.8524
86.5542
88.1868
89.7462
91.2282
92.629
93.945
95.1726
96.3086
97.35
98.2941
99.1385
99.8812
100.52
101.055
101.484
101.806
102.022
102.133
102.138
102.038
101.837
101.534
101.134
100.639
100.053
99.3787
98.6211
97.7823
96.8654
95.8741
94.8123
93.6843
92.4948
91.2483
89.9498
88.6041
87.216
85.7904
84.3323
82.8465
81.3377
79.8104
78.2694
76.7189
75.1631
73.6062
72.052
70.5043
68.9665
67.442
65.9339
64.445
62.9781
61.5357
60.1201
58.7332
57.377
56.0532
54.7631
53.5083
52.2896
51.1082
49.9647
48.8598
47.794
46.7676
45.7807
44.8336
43.9261
43.0581
42.2293
41.4395
40.6882
39.975
39.2992
38.6602
38.0574
37.49
36.9574
36.4585
35.9926
35.559
35.1569
34.7854
34.4435
34.1301
33.8442
33.5847
33.3505
33.1405
32.9535
32.7885
32.6442
32.5196
32.4134
32.3244
32.2515
32.1933
32.1486
32.1161
32.0944
32.0823
32.0783
32.081
32.0889
32.1005
32.1143
32.1286
32.1419
32.1524
32.1585
32.1584
32.1502
32.1321
32.1023
32.0588
31.9998
31.9233
31.8274
31.7101
31.5697
31.4041
31.2117
30.9908
30.7397
30.4571
30.1418
29.7929
29.4099
28.9923
28.5388
28.0487
27.5216
26.9572
26.3559
25.718
25.0445
24.3366
23.5956
22.8233
22.0218
21.1933
20.3404
19.4657
18.5722
17.6629
16.7411
15.8101
14.8733
13.9342
12.9964
12.0639
11.1406
10.2314
9.34169
8.47855
7.65156
6.87465
6.17119
5.58513
5.2413
5.64796
10.8676
42.3566
20.4939
17.6879
17.717
18.6233
19.9283
21.4552
23.1219
24.8845
26.7171
28.6031
30.5313
32.4934
34.4831
36.4953
38.5257
40.5704
42.6259
44.6889
46.7562
48.8247
50.8912
52.9526
55.0055
57.0469
59.0733
61.0812
63.0672
65.0276
66.9587
68.8567
70.7178
72.538
74.3134
76.04
77.7138
79.3308
80.8872
82.3789
83.8023
85.1537
86.4296
87.6266
88.7416
89.7717
90.7142
91.5667
92.327
92.9935
93.5645
94.0391
94.4163
94.6958
94.8776
94.9619
94.9495
94.8416
94.6395
94.3453
93.9611
93.4897
92.934
92.2973
91.5831
90.794
89.9332
89.004
88.0103
86.9559
85.845
84.6819
83.4709
82.2167
80.9235
79.596
78.2385
76.8555
75.4514
74.0304
72.5967
71.1543
69.7072
68.259
66.8134
65.3738
63.9434
62.5254
61.1225
59.7376
58.373
57.0311
55.714
54.4237
53.1618
51.93
50.7296
49.5619
48.4278
47.3284
46.2642
45.236
44.2441
43.2888
42.3705
41.4892
40.6448
39.8372
39.0663
38.3317
37.6331
36.97
36.3419
35.7483
35.1886
34.662
34.1679
33.7056
33.2744
32.8738
32.5027
32.1604
31.846
31.5584
31.2968
31.0601
30.8473
30.6575
30.4896
30.3425
30.2152
30.1067
30.0158
29.9415
29.8825
29.8379
29.8062
29.7865
29.7774
29.7777
29.786
29.8011
29.8216
29.8461
29.873
29.901
29.9285
29.9538
29.9755
29.9918
30.001
30.0015
29.9914
29.9689
29.9323
29.8797
29.8094
29.7194
29.608
29.4736
29.3143
29.1287
28.9151
28.6724
28.3992
28.0947
27.7581
27.3887
26.9856
26.5484
26.0765
25.5698
25.0286
24.4533
23.8446
23.2036
22.5315
21.8299
21.1006
20.3456
19.5673
18.7679
17.9502
17.1171
16.2713
15.4162
14.5551
13.6915
12.8292
11.9726
11.1264
10.2965
9.48984
8.71562
7.98641
7.32092
6.75065
6.33883
6.25547
7.21511
14.8359
42.3591
20.4931
17.6864
17.7153
18.6215
19.9265
21.4534
23.1201
24.8826
26.7152
28.6012
30.5293
32.4913
34.4809
36.4931
38.5234
40.5681
42.6236
44.6865
46.7538
48.8222
50.8886
52.9499
55.0028
57.0441
59.0704
61.0783
63.0643
65.0246
66.9557
68.8536
70.7146
72.5348
74.3102
76.0367
77.7104
79.3274
80.8837
82.3754
83.7988
85.1502
86.426
87.623
88.738
89.7681
90.7105
91.563
92.3234
92.9898
93.5609
94.0354
94.4126
94.6922
94.8739
94.9583
94.946
94.838
94.636
94.3418
93.9577
93.4863
92.9306
92.2941
91.5799
90.7909
89.9301
89.001
88.0073
86.9529
85.8421
84.6791
83.4682
82.214
80.9209
79.5934
78.236
76.8532
75.4491
74.0282
72.5945
71.1522
69.7051
68.257
66.8115
65.3719
63.9416
62.5237
61.1209
59.736
58.3715
57.0296
55.7126
54.4223
53.1605
51.9288
50.7285
49.5608
48.4268
47.3273
46.2632
45.235
44.2431
43.288
42.3697
41.4884
40.644
39.8365
39.0656
38.331
37.6325
36.9694
36.3414
35.7478
35.1881
34.6615
34.1675
33.7051
33.274
32.8734
32.5024
32.1601
31.8457
31.5582
31.2965
31.0599
30.8471
30.6573
30.4894
30.3423
30.2151
30.1066
30.0157
29.9414
29.8825
29.8378
29.8062
29.7865
29.7774
29.7777
29.7861
29.8012
29.8217
29.8461
29.8731
29.9011
29.9286
29.954
29.9756
29.992
30.0012
30.0017
29.9916
29.9691
29.9325
29.8799
29.8096
29.7196
29.6083
29.4738
29.3146
29.1289
28.9154
28.6726
28.3994
28.0949
27.7583
27.3889
26.9859
26.5486
26.0767
25.57
25.0288
24.4535
23.8448
23.2038
22.5317
21.8301
21.1008
20.3458
19.5674
18.768
17.9504
17.1172
16.2715
15.4163
14.5552
13.6915
12.8293
11.9726
11.1265
10.2965
9.48987
8.71564
7.98642
7.32092
6.75065
6.33882
6.25546
7.21512
14.8359
53.0368
24.8618
20.5907
19.9322
20.3984
21.3773
22.6423
24.0881
25.658
27.3184
29.0477
30.831
32.6577
34.5196
36.4103
38.3242
40.2568
42.2037
44.1612
46.1256
48.0932
50.0607
52.0245
53.9813
55.9275
57.8595
59.7738
61.6668
63.5347
65.3737
67.1801
68.9501
70.6796
72.3649
74.0021
75.5874
77.1168
78.5868
79.9936
81.3337
82.6038
83.8005
84.9209
85.9621
86.9215
87.7966
88.5853
89.2859
89.8967
90.4166
90.8445
91.18
91.4226
91.5726
91.6304
91.5967
91.4726
91.2597
90.9597
90.5748
90.1074
89.5604
88.9367
88.2393
87.4712
86.6353
85.7351
84.7739
83.7555
82.6839
81.5631
80.3971
79.1902
77.9466
76.6704
75.3659
74.0372
72.6884
71.3236
69.9467
68.5615
67.1717
65.7808
64.3922
63.0092
61.635
60.2723
58.9239
57.5925
56.2804
54.9897
53.7226
52.4809
51.2662
50.0802
48.924
47.7989
46.7059
45.6459
44.6196
43.6275
42.6702
41.748
40.8611
40.0096
39.1935
38.4128
37.6671
36.9564
36.2802
35.6382
35.0299
34.4547
33.9122
33.4016
32.9224
32.4741
32.0561
31.6675
31.3076
30.9756
30.6706
30.3916
30.1379
29.9084
29.7022
29.5184
29.356
29.2141
29.0915
28.9873
28.9005
28.83
28.7747
28.7335
28.7053
28.6889
28.6832
28.6869
28.6987
28.7175
28.7418
28.7704
28.8018
28.8345
28.8672
28.8983
28.9261
28.9492
28.9659
28.9745
28.9733
28.9607
28.9348
28.894
28.8364
28.7604
28.6643
28.5465
28.4052
28.2391
28.0467
27.8267
27.5779
27.2995
26.9906
26.6505
26.2786
25.8742
25.4371
24.9672
24.4647
23.9299
23.3636
22.7667
22.1402
21.4856
20.8045
20.0987
19.3701
18.621
17.8537
17.0708
16.2751
15.4695
14.6573
13.8422
13.0281
12.2198
11.4226
10.6434
9.89056
9.17517
8.51272
7.92667
7.45712
7.18598
7.3321
8.81349
18.8885
53.0385
24.8607
20.5891
19.9304
20.3966
21.3755
22.6405
24.0862
25.6561
27.3165
29.0457
30.829
32.6557
34.5175
36.4081
38.322
40.2545
42.2015
44.1589
46.1232
48.0908
50.0582
52.022
53.9787
55.9248
57.8568
59.7711
61.664
63.5319
65.3709
67.1772
68.9471
70.6766
72.3619
73.9991
75.5843
77.1137
78.5836
79.9904
81.3305
82.6006
83.7973
84.9177
85.9589
86.9182
87.7933
88.5821
89.2827
89.8935
90.4134
90.8413
91.1768
91.4195
91.5695
91.6273
91.5936
91.4696
91.2567
90.9567
90.5718
90.1045
89.5575
88.9339
88.2366
87.4685
86.6327
85.7325
84.7713
83.7531
82.6815
81.5607
80.3948
79.188
77.9444
76.6683
75.3638
74.0352
72.6865
71.3218
69.9449
68.5597
67.17
65.7791
64.3906
63.0077
61.6335
60.2709
58.9226
57.5912
56.2791
54.9885
53.7214
52.4798
51.2652
50.0791
48.923
47.7979
46.705
45.645
44.6187
43.6267
42.6695
41.7473
40.8604
40.009
39.1929
38.4122
37.6666
36.9559
36.2797
35.6377
35.0294
34.4543
33.9117
33.4012
32.922
32.4737
32.0557
31.6672
31.3073
30.9753
30.6703
30.3914
30.1376
29.9082
29.702
29.5182
29.3559
29.2139
29.0914
28.9872
28.9004
28.8299
28.7746
28.7334
28.7052
28.6889
28.6832
28.6869
28.6987
28.7175
28.7419
28.7705
28.8019
28.8346
28.8673
28.8984
28.9263
28.9494
28.9661
28.9747
28.9735
28.9609
28.935
28.8942
28.8366
28.7606
28.6646
28.5467
28.4054
28.2393
28.0469
27.8269
27.5782
27.2997
26.9908
26.6507
26.2788
25.8744
25.4373
24.9674
24.4648
23.9301
23.3638
22.7668
22.1404
21.4858
20.8047
20.0988
19.3702
18.6211
17.8538
17.0709
16.2752
15.4696
14.6574
13.8423
13.0282
12.2198
11.4227
10.6434
9.89058
9.17517
8.51272
7.92666
7.45711
7.18597
7.33209
8.8135
18.8885
63.7911
29.3631
23.6882
22.4023
22.4894
23.2024
24.265
25.5487
26.9843
28.5306
30.161
31.8573
33.6065
35.3984
37.2252
39.0803
40.9581
42.8537
44.7625
46.6803
48.6031
50.5269
52.4479
54.3623
56.2664
58.1562
60.0279
61.8778
63.7018
65.4962
67.2569
68.9801
70.6618
72.2982
73.8854
75.4197
76.8973
78.3147
79.6683
80.9549
82.1713
83.3144
84.3816
85.3701
86.2777
87.1022
87.8418
88.495
89.0604
89.5371
89.9243
90.2217
90.4293
90.5472
90.5761
90.5168
90.3705
90.1387
89.8233
89.4262
88.95
88.3973
87.7708
87.0736
86.3083
85.4782
84.5862
83.636
82.6309
81.5749
80.4717
79.3251
78.1393
76.9182
75.6657
74.386
73.083
71.7606
70.4227
69.0729
67.715
66.3525
64.9888
63.6273
62.2709
60.9227
59.5856
58.2621
56.9548
55.666
54.3977
53.1521
51.9309
50.7358
49.5682
48.4295
47.3209
46.2432
45.1975
44.1845
43.2046
42.2585
41.3465
40.4688
39.6256
38.8168
38.0425
37.3024
36.5964
35.9241
35.2853
34.6794
34.106
33.5646
33.0545
32.5754
32.1269
31.7081
31.3183
30.9567
30.6226
30.3152
30.0335
29.7767
29.544
29.3343
29.1469
28.9808
28.8349
28.7084
28.6002
28.5094
28.4349
28.3756
28.3305
28.2984
28.2783
28.269
28.2692
28.2779
28.2936
28.3151
28.3411
28.3702
28.4011
28.4321
28.462
28.4891
28.5118
28.5287
28.5381
28.5382
28.5276
28.5044
28.4671
28.414
28.3433
28.2536
28.1432
28.0106
27.8544
27.6733
27.466
27.2315
26.9688
26.6772
26.3559
26.0045
25.6224
25.2094
24.7654
24.2907
23.7855
23.2505
22.6864
22.0943
21.4754
20.831
20.1627
19.4722
18.7615
18.0327
17.288
16.5299
15.7614
14.9856
14.2061
13.427
12.6535
11.8914
11.1485
10.4344
9.76205
9.1498
8.62585
8.2391
8.09073
8.45267
10.4488
23.0176
63.7926
29.3617
23.6864
22.4005
22.4876
23.2006
24.2632
25.5468
26.9824
28.5286
30.159
31.8553
33.6044
35.3963
37.223
39.0781
40.9559
42.8514
44.7602
46.678
48.6007
50.5245
52.4454
54.3598
56.2638
58.1536
60.0253
61.8751
63.6991
65.4934
67.2541
68.9772
70.6589
72.2953
73.8825
75.4168
76.8943
78.3117
79.6653
80.9519
82.1683
83.3114
84.3785
85.3671
86.2746
87.0992
87.8388
88.492
89.0574
89.5341
89.9214
90.2188
90.4264
90.5444
90.5733
90.514
90.3677
90.136
89.8206
89.4236
88.9474
88.3947
87.7683
87.0711
86.3059
85.4758
84.5839
83.6337
82.6287
81.5727
80.4695
79.3231
78.1373
76.9162
75.6638
74.3842
73.0812
71.7589
70.421
69.0713
67.7135
66.351
64.9874
63.6258
62.2695
60.9214
59.5843
58.2609
56.9536
55.6648
54.3966
53.1511
51.9299
50.7349
49.5673
48.4286
47.32
46.2424
45.1967
44.1837
43.2039
42.2578
41.3459
40.4682
39.625
38.8162
38.0419
37.3019
36.5959
35.9236
35.2848
34.6789
34.1056
33.5641
33.0541
32.5751
32.1265
31.7077
31.318
30.9564
30.6224
30.3149
30.0332
29.7765
29.5438
29.3341
29.1467
28.9806
28.8348
28.7083
28.6001
28.5093
28.4348
28.3755
28.3304
28.2984
28.2783
28.269
28.2692
28.2779
28.2936
28.3151
28.3412
28.3703
28.4011
28.4322
28.4621
28.4892
28.5119
28.5288
28.5382
28.5384
28.5277
28.5046
28.4673
28.4141
28.3435
28.2538
28.1434
28.0108
27.8546
27.6735
27.4662
27.2317
26.969
26.6774
26.3561
26.0047
25.6226
25.2096
24.7656
24.2908
23.7856
23.2506
22.6865
22.0944
21.4755
20.8311
20.1628
19.4723
18.7616
18.0327
17.288
16.53
15.7615
14.9857
14.2061
13.4271
12.6535
11.8914
11.1485
10.4344
9.76204
9.14979
8.62583
8.23907
8.09071
8.45265
10.4488
23.0177
74.7672
34.043
26.9835
25.1026
24.8473
25.333
26.2322
27.3929
28.7333
30.2046
31.7753
33.4239
35.1348
36.8961
38.6984
40.5341
42.3965
44.2799
46.179
48.089
50.0052
51.9233
53.839
55.748
57.6462
59.5293
61.3933
63.234
65.0472
66.8289
68.5749
70.2812
71.9438
73.5588
75.1222
76.6304
78.0797
79.4665
80.7877
82.0399
83.2202
84.3259
85.3544
86.3033
87.1706
87.9546
88.6535
89.2662
89.7916
90.2291
90.5781
90.8386
91.0108
91.0949
91.0919
91.0027
90.8287
90.5713
90.2326
89.8146
89.3196
88.7503
88.1095
87.3999
86.6244
85.7859
84.8876
83.9329
82.9251
81.8679
80.7651
79.6202
78.4373
77.22
75.9724
74.6982
73.4013
72.0854
70.7543
69.4115
68.0607
66.7052
65.3483
63.9933
62.6432
61.3008
59.969
58.6503
57.3471
56.0618
54.7964
53.5529
52.3331
51.1387
49.971
48.8314
47.7212
46.6412
45.5925
44.5756
43.5914
42.6402
41.7224
40.8384
39.9882
39.172
38.3896
37.6411
36.9262
36.2446
35.596
34.9801
34.3963
33.8442
33.3233
32.8335
32.3739
31.9439
31.5428
31.1699
30.8243
30.5053
30.2121
29.9438
29.6996
29.4785
29.2798
29.1023
28.9453
28.8078
28.6887
28.5872
28.5021
28.4324
28.3771
28.335
28.3051
28.2862
28.2771
28.2766
28.2835
28.2964
28.3141
28.3352
28.3583
28.382
28.4048
28.4252
28.4417
28.4528
28.4568
28.4522
28.4374
28.4107
28.3706
28.3154
28.2437
28.1537
28.0442
27.9136
27.7606
27.584
27.3827
27.1557
26.902
26.621
26.3121
25.9747
25.6085
25.2132
24.789
24.3358
23.8541
23.3443
22.8072
22.2436
21.6544
21.0409
20.4043
19.7461
19.0679
18.3716
17.6591
16.9328
16.1952
15.4494
14.699
13.9483
13.2025
12.4682
11.7537
11.0699
10.4316
9.85984
9.38756
9.07253
9.03528
9.60045
12.1008
27.1379
74.7687
34.0413
26.9816
25.1007
24.8454
25.3311
26.2303
27.391
28.7314
30.2026
31.7733
33.4219
35.1327
36.894
38.6963
40.5319
42.3943
44.2776
46.1767
48.0866
50.0028
51.9209
53.8365
55.7455
57.6436
59.5267
61.3907
63.2313
65.0445
66.8262
68.5722
70.2785
71.941
73.556
75.1194
76.6276
78.0768
79.4637
80.7848
82.037
83.2173
84.323
85.3515
86.3004
87.1678
87.9517
88.6506
89.2634
89.7888
90.2263
90.5754
90.8359
91.008
91.0922
91.0893
91.0001
90.8261
90.5688
90.2301
89.8121
89.3172
88.7479
88.1071
87.3976
86.6221
85.7837
84.8855
83.9308
82.9231
81.866
80.7631
79.6183
78.4354
77.2182
75.9707
74.6965
73.3996
72.0838
70.7527
69.41
68.0592
66.7038
65.347
63.992
62.6419
61.2996
59.9678
58.6491
57.346
56.0607
54.7954
53.5519
52.3322
51.1377
49.9701
48.8306
47.7203
46.6404
45.5917
44.5749
43.5907
42.6395
41.7218
40.8378
39.9876
39.1714
38.3891
37.6406
36.9257
36.2441
35.5955
34.9796
34.3958
33.8437
33.3229
32.8331
32.3735
31.9435
31.5425
31.1695
30.824
30.505
30.2119
29.9436
29.6994
29.4783
29.2796
29.1021
28.9452
28.8076
28.6886
28.587
28.5019
28.4323
28.377
28.3349
28.3051
28.2862
28.2771
28.2766
28.2835
28.2964
28.3141
28.3352
28.3583
28.382
28.4048
28.4252
28.4418
28.4528
28.4569
28.4523
28.4375
28.4108
28.3707
28.3156
28.2438
28.1539
28.0443
27.9137
27.7608
27.5842
27.3829
27.1558
26.9021
26.6211
26.3122
25.9748
25.6086
25.2134
24.7891
24.3359
23.8542
23.3444
22.8073
22.2436
21.6545
21.0409
20.4043
19.7461
19.068
18.3717
17.6592
16.9329
16.1953
15.4495
14.699
13.9483
13.2025
12.4682
11.7537
11.0699
10.4316
9.85982
9.38753
9.07249
9.03524
9.60042
12.1008
27.138
86.0656
38.9448
30.4949
28.0336
27.4584
27.7428
28.5063
29.5725
30.8466
32.2722
33.8127
35.4433
37.1459
38.9065
40.7145
42.5609
44.438
46.3392
48.2585
50.1903
52.1295
54.071
56.01
57.9418
59.8618
61.7654
63.6481
65.5053
67.3327
69.1259
70.8805
72.5923
74.2572
75.8711
77.4301
78.9304
80.3684
81.7408
83.0442
84.2757
85.4324
86.5119
87.5117
88.4299
89.2646
90.0144
90.6779
91.2542
91.7425
92.1426
92.4541
92.6773
92.8125
92.8605
92.8222
92.6987
92.4916
92.2026
91.8337
91.3869
90.8648
90.2698
89.6049
88.8728
88.0762
87.2181
86.3017
85.3301
84.3069
83.2354
82.1194
80.9623
79.7681
78.5403
77.2828
75.9992
74.6933
73.3687
72.029
70.6779
69.3186
67.9545
66.5889
65.2249
63.8655
62.5134
61.1715
59.8422
58.528
57.231
55.9535
54.6973
53.4642
52.2559
51.0738
49.9193
48.7935
47.6975
46.6323
45.5984
44.5968
43.6277
42.6917
41.789
40.9199
40.0845
39.2827
38.5145
37.7797
37.078
36.4093
35.7731
35.169
34.5966
34.0557
33.5458
33.0662
32.6163
32.1955
31.8029
31.4379
31.0996
30.7873
30.5001
30.2372
29.9977
29.7807
29.5854
29.4107
29.2558
29.1196
29.0012
28.8995
28.8136
28.7423
28.6846
28.6393
28.6052
28.5813
28.5663
28.5589
28.5578
28.5619
28.5696
28.5797
28.5907
28.6011
28.6096
28.6145
28.6145
28.6079
28.5932
28.5689
28.5334
28.4851
28.4226
28.3443
28.2489
28.135
28.0011
27.8462
27.6691
27.4687
27.2441
26.9947
26.7196
26.4185
26.0908
25.7363
25.3548
24.9463
24.511
24.0491
23.5611
23.0475
22.5091
21.9465
21.3608
20.753
20.1242
19.4757
18.809
18.1259
17.4284
16.7188
16
15.2755
14.5497
13.8281
13.1176
12.4272
11.769
11.1594
10.6222
10.195
9.94456
10.0107
10.7711
13.7722
31.2505
86.0673
38.943
30.4929
28.0316
27.4565
27.7408
28.5043
29.5705
30.8446
32.2701
33.8107
35.4412
37.1437
38.9044
40.7123
42.5586
44.4357
46.3369
48.2561
50.1879
52.127
54.0685
56.0075
57.9393
59.8592
61.7628
63.6454
65.5026
67.33
69.1231
70.8777
72.5895
74.2544
75.8683
77.4272
78.9275
80.3656
81.7379
83.0413
84.2728
85.4296
86.509
87.5089
88.4271
89.2618
90.0116
90.6751
91.2514
91.7398
92.1399
92.4514
92.6746
92.8099
92.8579
92.8196
92.6962
92.4892
92.2002
91.8312
91.3845
90.8624
90.2676
89.6027
88.8706
88.074
87.216
86.2996
85.3281
84.3049
83.2335
82.1175
80.9605
79.7663
78.5386
77.2811
75.9975
74.6917
73.3672
72.0276
70.6764
69.3172
67.9532
66.5876
65.2237
63.8643
62.5123
61.1703
59.8411
58.5269
57.23
55.9525
54.6963
53.4633
52.255
51.0729
49.9184
48.7927
47.6968
46.6315
45.5977
44.596
43.627
42.691
41.7884
40.9193
40.0839
39.2821
38.5139
37.7791
37.0775
36.4088
35.7726
35.1685
34.5961
34.0553
33.5454
33.0658
32.616
32.1951
31.8026
31.4375
31.0993
30.787
30.4998
30.2369
29.9974
29.7805
29.5851
29.4105
29.2555
29.1194
29.001
28.8994
28.8134
28.7422
28.6844
28.6391
28.6051
28.5812
28.5662
28.5588
28.5578
28.5618
28.5696
28.5796
28.5906
28.6011
28.6096
28.6146
28.6145
28.6079
28.5933
28.5689
28.5334
28.4852
28.4227
28.3444
28.249
28.1351
28.0012
27.8463
27.6692
27.4688
27.2442
26.9948
26.7197
26.4186
26.0909
25.7364
25.3549
24.9464
24.5111
24.0492
23.5612
23.0476
22.5091
21.9466
21.3609
20.753
20.1242
19.4757
18.8091
18.126
17.4284
16.7188
16
15.2755
14.5497
13.8281
13.1175
12.4272
11.769
11.1594
10.6222
10.195
9.94451
10.0106
10.7711
13.7722
31.2506
97.8122
44.1172
34.2485
31.2086
30.3264
30.4273
31.0756
32.0695
33.3004
34.7039
36.2385
37.8755
39.5944
41.3794
43.2181
45.1003
47.0172
48.9614
50.9258
52.9044
54.891
56.8802
58.8665
60.8447
62.8095
64.7561
66.6793
68.5744
70.4365
72.261
74.0432
75.7787
77.4632
79.0924
80.6624
82.1694
83.6098
84.9802
86.2774
87.4986
88.6413
89.7029
90.6815
91.5753
92.3828
93.1027
93.7341
94.2764
94.7291
95.0922
95.3658
95.5504
95.6466
95.6554
95.5779
95.4157
95.1703
94.8437
94.4379
93.9553
93.3982
92.7695
92.0718
91.3079
90.4807
89.593
88.648
87.649
86.5992
85.5021
84.3612
83.1802
81.9625
80.7119
79.432
78.1264
76.7988
75.4527
74.0917
72.7191
71.3384
69.9528
68.5654
67.1794
65.7977
64.423
63.058
61.7053
60.3673
59.0461
57.7438
56.4624
55.2038
53.9694
52.7608
51.5794
50.4264
49.3028
48.2095
47.1475
46.1172
45.1194
44.1544
43.2226
42.3242
41.4594
40.6281
39.8304
39.0662
38.3351
37.637
36.9716
36.3383