/*--------------------------------*- C++ -*----------------------------------*\
  =========                 |
  \\      /  F ield         | OpenFOAM: The Open Source CFD Toolbox
   \\    /   O peration     | Website:  https://openfoam.org
    \\  /    A nd           | Version:  8
     \\/     M anipulation  |
\*---------------------------------------------------------------------------*/
FoamFile
{
    version     2.0;
    format      ascii;
    class       volScalarField;
    location    "2100";
    object      k;
}
// * * * * * * * * * * * * * * * * * * * * * * * * * * * * * * * * * * * * * //

dimensions      [0 2 -2 0 0 0 0];

internalField   nonuniform List<scalar> 
46000
(
0.00156764
0.00762098
0.0158829
0.0240678
0.0320116
0.039728
0.0472703
0.054692
0.0620029
0.0692252
0.0763732
0.0834545
0.0904733
0.0974319
0.104331
0.11117
0.117947
0.12466
0.131308
0.137886
0.144391
0.150819
0.157166
0.163427
0.169597
0.175672
0.181644
0.187508
0.193257
0.198886
0.204386
0.209751
0.214972
0.220043
0.224955
0.229701
0.234272
0.238661
0.242859
0.246858
0.250653
0.254234
0.257595
0.260729
0.263631
0.266295
0.268716
0.27089
0.272813
0.274481
0.275894
0.277049
0.277946
0.278585
0.278967
0.279094
0.278969
0.278596
0.277977
0.277119
0.276027
0.274711
0.273191
0.271486
0.269579
0.267475
0.265183
0.262712
0.260074
0.257277
0.254334
0.251254
0.248048
0.244729
0.241306
0.237792
0.234197
0.230531
0.226807
0.223034
0.219223
0.215384
0.211526
0.20766
0.203794
0.199938
0.196099
0.192285
0.188504
0.184763
0.181069
0.177428
0.173845
0.170327
0.166877
0.1635
0.1602
0.156981
0.153845
0.150796
0.147836
0.144967
0.14219
0.139507
0.136918
0.134424
0.132026
0.129723
0.127515
0.125402
0.123383
0.121456
0.119622
0.117878
0.116222
0.114654
0.113172
0.111772
0.110455
0.109216
0.108054
0.106967
0.105952
0.105005
0.104123
0.103306
0.10255
0.101851
0.101206
0.100611
0.100065
0.099563
0.099102
0.0986786
0.0982893
0.0979307
0.0975989
0.0972903
0.0970011
0.0967275
0.0964654
0.0962109
0.0959597
0.0957077
0.0954506
0.095184
0.0949034
0.0946044
0.0942823
0.0939324
0.0935502
0.0931308
0.0926696
0.092162
0.0916032
0.0909887
0.090314
0.0895747
0.0887667
0.087886
0.0869288
0.0858916
0.0847712
0.0835647
0.0822701
0.080899
0.0794531
0.0779188
0.0762936
0.0745773
0.0727709
0.070876
0.0688946
0.0668296
0.0646845
0.0624633
0.0601707
0.0578119
0.0553926
0.052919
0.0503978
0.0478359
0.0452405
0.0426189
0.0399785
0.0373263
0.0346693
0.0320135
0.0293622
0.0267065
0.0240794
0.0214607
0.0188453
0.0162259
0.0135818
0.0109509
0.00824668
0.00541433
0.0025632
0.000518187
0.00156936
0.00763156
0.0158982
0.024082
0.0320175
0.0397319
0.0472728
0.0546939
0.0620044
0.0692265
0.0763745
0.0834559
0.0904748
0.0974334
0.104332
0.111171
0.117948
0.124662
0.131309
0.137887
0.144392
0.15082
0.157167
0.163428
0.169599
0.175673
0.181645
0.187509
0.193259
0.198887
0.204387
0.209752
0.214974
0.220045
0.224957
0.229702
0.234273
0.238662
0.24286
0.24686
0.250654
0.254235
0.257596
0.260731
0.263633
0.266297
0.268718
0.270891
0.272814
0.274483
0.275895
0.27705
0.277947
0.278586
0.278968
0.279096
0.278971
0.278597
0.277978
0.27712
0.276028
0.274712
0.273192
0.271487
0.26958
0.267476
0.265184
0.262713
0.260075
0.257278
0.254334
0.251255
0.248049
0.24473
0.241307
0.237793
0.234197
0.230532
0.226807
0.223034
0.219223
0.215384
0.211527
0.207661
0.203795
0.199938
0.196099
0.192285
0.188504
0.184764
0.181069
0.177428
0.173846
0.170327
0.166877
0.1635
0.1602
0.156981
0.153845
0.150796
0.147836
0.144967
0.14219
0.139507
0.136918
0.134424
0.132026
0.129723
0.127515
0.125402
0.123382
0.121456
0.119621
0.117877
0.116222
0.114654
0.113171
0.111772
0.110454
0.109215
0.108054
0.106966
0.105951
0.105004
0.104123
0.103306
0.102549
0.10185
0.101205
0.100611
0.100064
0.0995624
0.0991014
0.098678
0.0982887
0.0979301
0.0975983
0.0972897
0.0970005
0.0967269
0.0964648
0.0962102
0.095959
0.095707
0.0954499
0.0951833
0.0949027
0.0946037
0.0942815
0.0939317
0.0935494
0.0931301
0.0926689
0.0921613
0.0916025
0.090988
0.0903133
0.089574
0.088766
0.0878853
0.0869281
0.085891
0.0847706
0.083564
0.0822695
0.0808985
0.0794525
0.0779182
0.076293
0.0745768
0.0727705
0.0708755
0.0688942
0.0668292
0.0646842
0.062463
0.0601704
0.0578116
0.0553923
0.0529188
0.0503976
0.0478357
0.0452403
0.0426188
0.0399783
0.0373262
0.0346692
0.0320134
0.0293621
0.0267064
0.0240794
0.0214606
0.0188452
0.0162258
0.0135818
0.0109508
0.00824665
0.0054143
0.00256318
0.000518183
0.00757986
0.0392588
0.0644233
0.0852617
0.10376
0.120748
0.136647
0.151729
0.166164
0.180067
0.193521
0.206584
0.2193
0.231703
0.243817
0.255663
0.267255
0.278606
0.289723
0.300614
0.311284
0.321734
0.331969
0.341986
0.351787
0.361369
0.370729
0.379864
0.388769
0.39744
0.40587
0.414053
0.421983
0.429652
0.437052
0.444175
0.451014
0.457558
0.463801
0.469734
0.475349
0.480637
0.485592
0.490205
0.49447
0.498382
0.501933
0.505121
0.50794
0.510389
0.512463
0.514163
0.515488
0.516438
0.517015
0.517222
0.517063
0.516542
0.515665
0.514438
0.51287
0.510969
0.508748
0.506219
0.50339
0.500268
0.496867
0.493198
0.489275
0.485113
0.480724
0.476123
0.471327
0.466348
0.461203
0.455907
0.450475
0.444923
0.439265
0.433516
0.427691
0.421805
0.415871
0.409904
0.403918
0.397924
0.391936
0.385967
0.380027
0.374129
0.368281
0.362496
0.356782
0.351149
0.345604
0.340156
0.334813
0.32958
0.324463
0.31947
0.314604
0.30987
0.305273
0.300815
0.296499
0.292328
0.288304
0.284428
0.280701
0.277124
0.273696
0.270419
0.26729
0.264309
0.261474
0.258784
0.256237
0.253829
0.25156
0.249425
0.247421
0.245546
0.243796
0.242167
0.240653
0.239251
0.237955
0.236761
0.235662
0.234655
0.233733
0.232891
0.232122
0.231422
0.230784
0.230201
0.229668
0.229177
0.228723
0.228297
0.227894
0.227505
0.227124
0.226743
0.226354
0.225949
0.22552
0.225059
0.224558
0.224009
0.223402
0.222729
0.221982
0.221151
0.220228
0.219205
0.218071
0.21682
0.215443
0.213931
0.212276
0.210471
0.208509
0.206383
0.204086
0.201613
0.198965
0.196135
0.193117
0.189909
0.186507
0.182912
0.179123
0.175142
0.17097
0.166611
0.162069
0.157348
0.152453
0.147392
0.14217
0.136796
0.131275
0.125617
0.119828
0.113913
0.107879
0.101727
0.0954581
0.0890655
0.0825376
0.0758387
0.0689391
0.0617984
0.0542958
0.0462471
0.0374986
0.0276048
0.01573
0.00247195
0.00757526
0.0392465
0.0644163
0.0852596
0.103762
0.12075
0.136648
0.15173
0.166164
0.180067
0.193521
0.206584
0.2193
0.231703
0.243817
0.255663
0.267255
0.278605
0.289722
0.300613
0.311282
0.321733
0.331967
0.341985
0.351785
0.361367
0.370727
0.379862
0.388767
0.397438
0.405868
0.414051
0.421981
0.42965
0.43705
0.444173
0.451011
0.457556
0.463799
0.469732
0.475346
0.480634
0.485589
0.490202
0.494467
0.498379
0.50193
0.505118
0.507937
0.510385
0.51246
0.51416
0.515484
0.516434
0.517012
0.517219
0.51706
0.516539
0.515661
0.514435
0.512867
0.510966
0.508744
0.506216
0.503386
0.500265
0.496863
0.493195
0.489272
0.485109
0.48072
0.47612
0.471323
0.466345
0.4612
0.455904
0.450472
0.444919
0.439261
0.433512
0.427687
0.421801
0.415868
0.409901
0.403914
0.397921
0.391933
0.385964
0.380024
0.374125
0.368278
0.362493
0.356779
0.351146
0.345601
0.340153
0.33481
0.329577
0.324461
0.319467
0.314601
0.309868
0.30527
0.300812
0.296496
0.292325
0.288301
0.284425
0.280698
0.277121
0.273694
0.270416
0.267287
0.264306
0.261472
0.258782
0.256234
0.253827
0.251558
0.249423
0.247419
0.245544
0.243794
0.242165
0.240651
0.239249
0.237953
0.236759
0.235661
0.234653
0.233731
0.232889
0.232121
0.23142
0.230782
0.2302
0.229666
0.229176
0.228721
0.228296
0.227892
0.227504
0.227123
0.226741
0.226352
0.225947
0.225519
0.225058
0.224557
0.224008
0.223401
0.222728
0.221981
0.22115
0.220227
0.219204
0.21807
0.216819
0.215442
0.21393
0.212275
0.21047
0.208508
0.206382
0.204085
0.201612
0.198965
0.196135
0.193117
0.189908
0.186506
0.182911
0.179123
0.175141
0.17097
0.166611
0.162069
0.157347
0.152453
0.147392
0.14217
0.136795
0.131275
0.125617
0.119827
0.113913
0.107879
0.101727
0.0954579
0.0890654
0.0825375
0.0758386
0.068939
0.0617983
0.0542958
0.046247
0.0374986
0.0276048
0.01573
0.00247195
0.0159601
0.064943
0.0975054
0.123389
0.14624
0.167241
0.186935
0.205631
0.223527
0.240761
0.25743
0.273604
0.289337
0.304671
0.319637
0.334259
0.348558
0.362547
0.376238
0.389639
0.402757
0.415596
0.428158
0.440443
0.452451
0.46418
0.475627
0.486788
0.497657
0.508229
0.518497
0.528453
0.53809
0.547399
0.556371
0.564997
0.573268
0.581174
0.588706
0.595854
0.602609
0.608963
0.614906
0.620432
0.625533
0.630202
0.634433
0.638221
0.641562
0.644454
0.646893
0.64888
0.650413
0.651495
0.652128
0.652314
0.652059
0.651369
0.650251
0.648712
0.646763
0.644414
0.641677
0.638566
0.63509
0.631264
0.6271
0.622613
0.617818
0.612733
0.607374
0.601758
0.595902
0.589825
0.583545
0.577078
0.570445
0.563662
0.556749
0.549722
0.542599
0.535399
0.528137
0.520831
0.513498
0.506152
0.498809
0.491485
0.484194
0.476949
0.469763
0.462649
0.455619
0.448684
0.441855
0.435141
0.428552
0.422096
0.415781
0.409614
0.403602
0.397751
0.392065
0.38655
0.381209
0.376045
0.371062
0.366261
0.361644
0.357211
0.352963
0.348901
0.345023
0.341329
0.337817
0.334484
0.33133
0.32835
0.325542
0.322902
0.320429
0.318117
0.315961
0.313957
0.312098
0.310379
0.308794
0.307336
0.306
0.304779
0.303666
0.302653
0.301735
0.300903
0.300149
0.299467
0.298848
0.298283
0.297764
0.297283
0.296831
0.296399
0.295977
0.295557
0.295127
0.294679
0.294203
0.293688
0.293124
0.2925
0.291806
0.291031
0.290163
0.289192
0.288108
0.286898
0.285552
0.28406
0.28241
0.280593
0.278599
0.276417
0.274039
0.271456
0.26866
0.265646
0.262407
0.258938
0.255232
0.251285
0.247093
0.242656
0.237971
0.23304
0.227863
0.222443
0.216784
0.21089
0.204767
0.19842
0.191857
0.185083
0.178108
0.170936
0.163576
0.156033
0.148311
0.140412
0.132333
0.124067
0.115599
0.106902
0.0979319
0.0886199
0.0788485
0.0684518
0.0571115
0.0442085
0.0278573
0.00530995
0.015962
0.0649419
0.0975038
0.123388
0.146239
0.167241
0.186934
0.20563
0.223526
0.24076
0.257428
0.273602
0.289335
0.304669
0.319635
0.334257
0.348555
0.362544
0.376235
0.389636
0.402754
0.415593
0.428154
0.440439
0.452447
0.464176
0.475623
0.486784
0.497653
0.508225
0.518493
0.528449
0.538086
0.547394
0.556366
0.564992
0.573263
0.581169
0.588701
0.595849
0.602604
0.608958
0.614901
0.620427
0.625527
0.630196
0.634427
0.638215
0.641557
0.644448
0.646888
0.648874
0.650408
0.651489
0.652122
0.652308
0.652054
0.651363
0.650245
0.648706
0.646757
0.644408
0.641671
0.63856
0.635085
0.631258
0.627094
0.622607
0.617813
0.612728
0.607368
0.601752
0.595897
0.58982
0.583539
0.577073
0.570439
0.563657
0.556743
0.549716
0.542594
0.535393
0.528132
0.520826
0.513492
0.506147
0.498805
0.491481
0.484189
0.476944
0.469758
0.462645
0.455615
0.44868
0.44185
0.435137
0.428547
0.422092
0.415777
0.40961
0.403598
0.397747
0.392061
0.386546
0.381205
0.376042
0.371059
0.366257
0.36164
0.357208
0.35296
0.348898
0.34502
0.341326
0.337814
0.334481
0.331327
0.328347
0.325539
0.3229
0.320426
0.318114
0.315959
0.313955
0.312096
0.310377
0.308792
0.307334
0.305998
0.304777
0.303664
0.302651
0.301733
0.300901
0.300148
0.299465
0.298846
0.298281
0.297763
0.297282
0.29683
0.296398
0.295976
0.295555
0.295126
0.294678
0.294202
0.293687
0.293123
0.292499
0.291805
0.29103
0.290162
0.289191
0.288107
0.286897
0.285551
0.284059
0.282409
0.280592
0.278598
0.276416
0.274038
0.271455
0.26866
0.265645
0.262407
0.258937
0.255231
0.251284
0.247093
0.242655
0.237971
0.233039
0.227862
0.222443
0.216784
0.21089
0.204767
0.19842
0.191857
0.185083
0.178107
0.170936
0.163576
0.156033
0.148311
0.140412
0.132333
0.124067
0.115599
0.106902
0.0979319
0.0886199
0.0788484
0.0684517
0.0571114
0.0442085
0.0278573
0.00530996
0.0244039
0.0865945
0.124405
0.153591
0.179171
0.202683
0.224782
0.245814
0.265992
0.28546
0.304316
0.322636
0.340474
0.357873
0.374866
0.391478
0.407729
0.423633
0.439202
0.454445
0.469366
0.48397
0.498257
0.512227
0.52588
0.539211
0.552216
0.56489
0.577226
0.589218
0.600857
0.612134
0.623041
0.633567
0.643702
0.653437
0.662761
0.671663
0.680133
0.688161
0.695738
0.702853
0.709499
0.715666
0.721348
0.726537
0.731229
0.735417
0.739098
0.742269
0.744929
0.747077
0.748713
0.74984
0.750461
0.75058
0.750203
0.749336
0.747989
0.746169
0.743889
0.741161
0.737996
0.734411
0.730416
0.726027
0.72126
0.71613
0.710655
0.704853
0.698742
0.692343
0.685674
0.678755
0.671607
0.664249
0.656702
0.648986
0.641121
0.633128
0.625026
0.616835
0.608573
0.600261
0.591916
0.583555
0.575198
0.56686
0.558557
0.550305
0.54212
0.534014
0.526002
0.518097
0.510311
0.502654
0.495138
0.487773
0.480566
0.473527
0.466664
0.459982
0.453488
0.447188
0.441086
0.435185
0.42949
0.424002
0.418723
0.413656
0.408799
0.404154
0.39972
0.395496
0.39148
0.38767
0.384063
0.380657
0.37745
0.374437
0.371614
0.368977
0.366519
0.364235
0.362118
0.360162
0.358361
0.356707
0.355193
0.353811
0.352555
0.351415
0.350384
0.349453
0.348613
0.347856
0.347172
0.346551
0.345985
0.345463
0.344974
0.34451
0.344059
0.34361
0.343152
0.342674
0.342164
0.341612
0.341004
0.340329
0.339574
0.338728
0.337777
0.33671
0.335514
0.334176
0.332685
0.331027
0.329191
0.327165
0.324939
0.3225
0.31984
0.316947
0.313814
0.310434
0.306798
0.302901
0.298735
0.294295
0.289578
0.284581
0.279303
0.273743
0.267903
0.261784
0.255389
0.248722
0.241789
0.234594
0.227144
0.219445
0.211503
0.203326
0.19492
0.186288
0.177436
0.168364
0.15907
0.149549
0.139787
0.129758
0.119424
0.108718
0.0975286
0.085658
0.0727029
0.0578561
0.0383846
0.00830872
0.0244094
0.0865956
0.124404
0.15359
0.17917
0.202682
0.22478
0.245812
0.265991
0.285458
0.304314
0.322633
0.340471
0.357871
0.374863
0.391475
0.407726
0.42363
0.439199
0.454442
0.469363
0.483966
0.498253
0.512223
0.525876
0.539206
0.552212
0.564885
0.577222
0.589213
0.600852
0.612129
0.623036
0.633562
0.643697
0.653432
0.662755
0.671657
0.680128
0.688156
0.695732
0.702848
0.709493
0.715661
0.721342
0.726532
0.731223
0.735411
0.739092
0.742263
0.744923
0.747071
0.748707
0.749834
0.750455
0.750574
0.750197
0.74933
0.747983
0.746163
0.743883
0.741155
0.73799
0.734405
0.73041
0.726022
0.721254
0.716124
0.710649
0.704847
0.698737
0.692337
0.685668
0.67875
0.671601
0.664243
0.656696
0.64898
0.641116
0.633123
0.625021
0.616829
0.608568
0.600256
0.591911
0.583551
0.575193
0.566855
0.558552
0.550301
0.542115
0.53401
0.525998
0.518093
0.510307
0.50265
0.495134
0.487769
0.480562
0.473524
0.46666
0.459978
0.453485
0.447185
0.441082
0.435182
0.429486
0.423999
0.41872
0.413653
0.408796
0.404151
0.399717
0.395493
0.391477
0.387667
0.384061
0.380655
0.377447
0.374434
0.371612
0.368975
0.366517
0.364232
0.362116
0.36016
0.358359
0.356705
0.355191
0.35381
0.352553
0.351413
0.350382
0.349451
0.348612
0.347854
0.34717
0.34655
0.345983
0.345461
0.344973
0.344509
0.344057
0.343608
0.343151
0.342673
0.342163
0.341611
0.341003
0.340328
0.339573
0.338727
0.337777
0.33671
0.335513
0.334176
0.332684
0.331026
0.32919
0.327165
0.324938
0.3225
0.319839
0.316947
0.313814
0.310433
0.306798
0.3029
0.298734
0.294295
0.289578
0.284581
0.279303
0.273743
0.267903
0.261784
0.255389
0.248722
0.241789
0.234594
0.227144
0.219445
0.211503
0.203326
0.19492
0.186288
0.177436
0.168364
0.15907
0.149549
0.139787
0.129758
0.119424
0.108718
0.0975286
0.085658
0.072703
0.0578562
0.0383846
0.00830874
0.0327723
0.106178
0.14866
0.180717
0.208537
0.234038
0.258013
0.280866
0.302832
0.324062
0.344659
0.364698
0.384235
0.403312
0.42196
0.440205
0.458064
0.475551
0.492678
0.50945
0.525873
0.541947
0.557674
0.573052
0.588076
0.602743
0.617047
0.63098
0.644535
0.657702
0.670474
0.682838
0.694786
0.706305
0.717386
0.728016
0.738184
0.74788
0.757093
0.765812
0.774026
0.781728
0.788906
0.795555
0.801665
0.807231
0.812248
0.81671
0.820615
0.823961
0.826746
0.82897
0.830636
0.831746
0.832303
0.832315
0.831786
0.830726
0.829144
0.82705
0.824456
0.821375
0.817822
0.813812
0.809358
0.804477
0.799185
0.793501
0.787444
0.781031
0.774285
0.767225
0.759872
0.752248
0.744375
0.736273
0.727967
0.719476
0.710823
0.70203
0.693118
0.684108
0.675022
0.665879
0.656699
0.647503
0.638309
0.629134
0.619998
0.610917
0.601907
0.592984
0.584162
0.575456
0.566879
0.558443
0.55016
0.542041
0.534096
0.526333
0.518762
0.51139
0.504223
0.497268
0.49053
0.484012
0.47772
0.471655
0.46582
0.460217
0.454845
0.449706
0.4448
0.440123
0.435677
0.431457
0.427461
0.423689
0.420136
0.416797
0.413669
0.410744
0.408018
0.405484
0.403136
0.400965
0.398966
0.39713
0.395449
0.393915
0.39252
0.391255
0.390111
0.389077
0.388146
0.387306
0.386548
0.385861
0.385235
0.384658
0.38412
0.383609
0.383113
0.382621
0.38212
0.381598
0.381042
0.380439
0.379777
0.379042
0.37822
0.377299
0.376265
0.375104
0.373802
0.372347
0.370724
0.368921
0.366925
0.364723
0.362303
0.359654
0.356764
0.353623
0.350223
0.346554
0.342609
0.338381
0.333863
0.329049
0.323935
0.318519
0.312798
0.306771
0.300439
0.293804
0.286867
0.279632
0.272103
0.264283
0.256179
0.247794
0.239135
0.230208
0.221015
0.211563
0.201854
0.191889
0.181668
0.171184
0.160427
0.149375
0.137992
0.126212
0.11392
0.100898
0.0866907
0.07021
0.0480329
0.0113648
0.0327745
0.10618
0.14866
0.180716
0.208536
0.234036
0.258011
0.280864
0.30283
0.32406
0.344656
0.364696
0.384233
0.403309
0.421957
0.440202
0.458061
0.475548
0.492675
0.509447
0.525869
0.541944
0.557671
0.573048
0.588072
0.602739
0.617043
0.630976
0.64453
0.657698
0.670469
0.682834
0.694781
0.706301
0.717381
0.728011
0.738179
0.747875
0.757088
0.765807
0.774021
0.781722
0.788901
0.795549
0.80166
0.807226
0.812242
0.816705
0.82061
0.823955
0.82674
0.828964
0.83063
0.83174
0.832298
0.832309
0.831781
0.830721
0.829138
0.827044
0.82445
0.821369
0.817817
0.813806
0.809352
0.804471
0.79918
0.793496
0.787438
0.781026
0.77428
0.767219
0.759867
0.752243
0.744369
0.736268
0.727962
0.719471
0.710818
0.702025
0.693113
0.684103
0.675017
0.665874
0.656695
0.647499
0.638304
0.62913
0.619994
0.610913
0.601903
0.59298
0.584158
0.575452
0.566875
0.558439
0.550157
0.542037
0.534092
0.52633
0.518759
0.511387
0.50422
0.497265
0.490527
0.484009
0.477717
0.471652
0.465818
0.460214
0.454843
0.449704
0.444797
0.440121
0.435674
0.431455
0.427459
0.423687
0.420134
0.416795
0.413667
0.410742
0.408016
0.405482
0.403134
0.400963
0.398964
0.397128
0.395447
0.393914
0.392519
0.391254
0.390109
0.389076
0.388145
0.387305
0.386547
0.38586
0.385234
0.384657
0.384119
0.383608
0.383112
0.38262
0.382119
0.381597
0.381041
0.380438
0.379776
0.379041
0.37822
0.377299
0.376264
0.375103
0.373802
0.372346
0.370724
0.368921
0.366925
0.364723
0.362303
0.359653
0.356763
0.353623
0.350222
0.346554
0.342609
0.338381
0.333862
0.329049
0.323935
0.318519
0.312797
0.306771
0.300439
0.293804
0.286867
0.279632
0.272103
0.264283
0.256179
0.247794
0.239135
0.230208
0.221015
0.211563
0.201854
0.191889
0.181668
0.171184
0.160427
0.149375
0.137992
0.126212
0.11392
0.100898
0.0866907
0.07021
0.0480329
0.0113649
0.0411106
0.12459
0.171511
0.206337
0.236268
0.263586
0.289238
0.313696
0.337229
0.360001
0.382123
0.403674
0.424708
0.445267
0.465383
0.485078
0.504369
0.52327
0.541788
0.559928
0.577693
0.595084
0.612099
0.628733
0.644983
0.66084
0.676298
0.691348
0.705981
0.720185
0.73395
0.747265
0.760117
0.772495
0.784387
0.79578
0.806664
0.817026
0.826854
0.83614
0.844872
0.853041
0.860639
0.867658
0.874091
0.879932
0.885177
0.889822
0.893865
0.897305
0.900141
0.902376
0.904011
0.90505
0.905499
0.905365
0.904654
0.903377
0.901544
0.899167
0.896258
0.892832
0.888904
0.884491
0.879606
0.874268
0.868495
0.862306
0.85572
0.848758
0.841441
0.833792
0.825832
0.817584
0.809071
0.800316
0.791342
0.782172
0.772829
0.763337
0.753718
0.743995
0.734189
0.724323
0.714417
0.704492
0.694569
0.684666
0.674804
0.664999
0.655269
0.645631
0.636101
0.626694
0.617423
0.608303
0.599346
0.590564
0.581966
0.573564
0.565366
0.557381
0.549615
0.542076
0.534769
0.527699
0.520869
0.514284
0.507945
0.501855
0.496014
0.490422
0.48508
0.479987
0.47514
0.470537
0.466178
0.46206
0.458178
0.454527
0.451103
0.447899
0.44491
0.442128
0.439546
0.437157
0.434954
0.432927
0.431069
0.429371
0.427822
0.426415
0.425139
0.423983
0.422938
0.421994
0.421138
0.42036
0.419648
0.41899
0.418375
0.41779
0.417222
0.416659
0.416088
0.415495
0.414866
0.414188
0.413447
0.412629
0.411719
0.410704
0.409568
0.408298
0.406879
0.405297
0.403538
0.401588
0.399434
0.397062
0.394461
0.391618
0.388521
0.385162
0.381529
0.377614
0.373409
0.368906
0.364099
0.358983
0.353552
0.347804
0.341736
0.335347
0.328636
0.321604
0.314252
0.306583
0.298598
0.290301
0.281694
0.272782
0.263567
0.254054
0.244244
0.234142
0.223749
0.213065
0.20209
0.19082
0.179243
0.167342
0.155079
0.142387
0.129142
0.115096
0.0997247
0.081732
0.0571203
0.0144896
0.041111
0.124591
0.17151
0.206335
0.236266
0.263584
0.289235
0.313694
0.337226
0.359998
0.382121
0.403671
0.424705
0.445265
0.46538
0.485075
0.504366
0.523267
0.541784
0.559925
0.57769
0.595081
0.612095
0.62873
0.644979
0.660836
0.676294
0.691344
0.705977
0.720181
0.733946
0.747261
0.760113
0.772491
0.784383
0.795776
0.806659
0.817021
0.82685
0.836135
0.844867
0.853036
0.860634
0.867653
0.874086
0.879927
0.885172
0.889817
0.89386
0.8973
0.900136
0.902371
0.904006
0.905045
0.905494
0.90536
0.904649
0.903372
0.901539
0.899162
0.896253
0.892827
0.8889
0.884486
0.879601
0.874264
0.868491
0.862301
0.855715
0.848753
0.841437
0.833787
0.825827
0.817579
0.809066
0.800311
0.791337
0.782167
0.772825
0.763333
0.753714
0.743991
0.734185
0.724319
0.714413
0.704488
0.694565
0.684663
0.6748
0.664995
0.655266
0.645628
0.636098
0.626691
0.61742
0.6083
0.599343
0.590561
0.581963
0.573561
0.565363
0.557378
0.549613
0.542074
0.534766
0.527696
0.520867
0.514281
0.507943
0.501852
0.496012
0.49042
0.485078
0.479985
0.475138
0.470535
0.466176
0.462058
0.458176
0.454525
0.451101
0.447898
0.444908
0.442126
0.439545
0.437156
0.434953
0.432926
0.431068
0.429369
0.427821
0.426414
0.425137
0.423982
0.422937
0.421993
0.421137
0.420359
0.419647
0.418989
0.418374
0.417789
0.417222
0.416659
0.416087
0.415494
0.414865
0.414188
0.413447
0.412628
0.411719
0.410703
0.409568
0.408298
0.406879
0.405297
0.403538
0.401588
0.399434
0.397062
0.394461
0.391618
0.388521
0.385161
0.381528
0.377614
0.373409
0.368906
0.364099
0.358983
0.353552
0.347804
0.341736
0.335347
0.328636
0.321604
0.314252
0.306583
0.298598
0.290301
0.281694
0.272782
0.263567
0.254054
0.244244
0.234142
0.223749
0.213065
0.20209
0.19082
0.179243
0.167342
0.155079
0.142387
0.129142
0.115096
0.0997247
0.0817321
0.0571203
0.0144897
0.0495166
0.142337
0.193598
0.2312
0.263247
0.292358
0.319635
0.345628
0.370642
0.394865
0.418418
0.441383
0.463819
0.485766
0.507257
0.528311
0.548946
0.569172
0.588996
0.60842
0.627445
0.64607
0.66429
0.6821
0.699493
0.716459
0.73299
0.749075
0.764701
0.779858
0.794533
0.808713
0.822384
0.835534
0.848151
0.86022
0.871731
0.882671
0.893029
0.902794
0.911957
0.92051
0.928443
0.93575
0.942425
0.948464
0.953863
0.95862
0.962732
0.966202
0.969029
0.971216
0.972768
0.97369
0.973988
0.97367
0.972745
0.971224
0.969119
0.966442
0.963207
0.959431
0.955129
0.950317
0.945013
0.939234
0.933
0.92633
0.919246
0.911769
0.903921
0.895725
0.887204
0.878381
0.869281
0.859928
0.850345
0.840557
0.830588
0.820461
0.810201
0.799831
0.789374
0.778853
0.768289
0.757705
0.747122
0.73656
0.726039
0.715577
0.705194
0.694907
0.684732
0.674685
0.664782
0.655036
0.64546
0.636068
0.62687
0.617878
0.6091
0.600545
0.592222
0.584138
0.576298
0.568707
0.561371
0.554292
0.547474
0.540919
0.534627
0.528599
0.522835
0.517333
0.512094
0.507115
0.502395
0.49793
0.493716
0.489749
0.486021
0.482528
0.479263
0.476219
0.473388
0.470764
0.468336
0.466098
0.464039
0.46215
0.460423
0.458846
0.457409
0.456101
0.454913
0.453831
0.452845
0.451942
0.451111
0.450338
0.449612
0.448918
0.448243
0.447575
0.446899
0.4462
0.445465
0.44468
0.443828
0.442896
0.441869
0.440732
0.439469
0.438066
0.436508
0.434781
0.432869
0.43076
0.428439
0.425892
0.423108
0.420075
0.416781
0.413215
0.409368
0.405231
0.400796
0.396056
0.391004
0.385635
0.379943
0.373926
0.36758
0.360904
0.353897
0.346557
0.338885
0.330882
0.322547
0.313881
0.304886
0.295563
0.285912
0.275934
0.265631
0.255003
0.24405
0.232771
0.221165
0.209227
0.196948
0.184307
0.171267
0.157755
0.143633
0.128621
0.112125
0.0926813
0.0657092
0.0176763
0.0495171
0.142338
0.193597
0.231199
0.263245
0.292356
0.319633
0.345625
0.37064
0.394863
0.418415
0.441381
0.463816
0.485764
0.507254
0.528309
0.548943
0.569169
0.588993
0.608417
0.627442
0.646067
0.664287
0.682097
0.699489
0.716456
0.732986
0.749071
0.764698
0.779855
0.794529
0.808709
0.82238
0.83553
0.848146
0.860216
0.871727
0.882666
0.893024
0.90279
0.911953
0.920505
0.928438
0.935745
0.942421
0.94846
0.953859
0.958615
0.962728
0.966197
0.969024
0.971212
0.972763
0.973685
0.973983
0.973665
0.97274
0.97122
0.969114
0.966437
0.963203
0.959426
0.955124
0.950313
0.945008
0.93923
0.932995
0.926326
0.919242
0.911765
0.903917
0.895721
0.8872
0.878377
0.869277
0.859924
0.850341
0.840553
0.830584
0.820457
0.810197
0.799827
0.78937
0.778849
0.768286
0.757702
0.747119
0.736557
0.726036
0.715574
0.705191
0.694904
0.684729
0.674682
0.664779
0.655033
0.645458
0.636065
0.626868
0.617875
0.609097
0.600543
0.59222
0.584135
0.576295
0.568705
0.561369
0.55429
0.547472
0.540917
0.534625
0.528597
0.522833
0.517332
0.512092
0.507113
0.502393
0.497929
0.493715
0.489747
0.48602
0.482527
0.479262
0.476218
0.473387
0.470762
0.468335
0.466096
0.464038
0.462149
0.460422
0.458845
0.457408
0.456101
0.454912
0.45383
0.452844
0.451941
0.45111
0.450337
0.449611
0.448917
0.448243
0.447575
0.446898
0.4462
0.445465
0.444679
0.443828
0.442896
0.441869
0.440731
0.439468
0.438066
0.436508
0.43478
0.432869
0.430759
0.428438
0.425892
0.423108
0.420075
0.41678
0.413215
0.409368
0.405231
0.400796
0.396056
0.391004
0.385635
0.379943
0.373926
0.36758
0.360904
0.353897
0.346557
0.338885
0.330882
0.322547
0.313881
0.304886
0.295563
0.285912
0.275934
0.265631
0.255003
0.24405
0.232771
0.221165
0.209227
0.196948
0.184307
0.171267
0.157755
0.143633
0.128621
0.112125
0.0926814
0.0657093
0.0176764
0.0581048
0.159787
0.215348
0.255775
0.289997
0.320945
0.349871
0.377403
0.403891
0.429547
0.454505
0.478856
0.50266
0.525963
0.548793
0.571172
0.593115
0.61463
0.635723
0.656394
0.676642
0.696463
0.71585
0.734796
0.75329
0.771323
0.788883
0.805956
0.82253
0.83859
0.854123
0.869115
0.883551
0.897418
0.910701
0.923387
0.935465
0.946921
0.957746
0.967928
0.977459
0.98633
0.994535
1.00207
1.00892
1.0151
1.02059
1.0254
1.02952
1.03297
1.03573
1.03782
1.03925
1.04001
1.04011
1.03958
1.0384
1.03661
1.03421
1.03121
1.02763
1.02349
1.01881
1.01359
1.00787
1.00165
0.994961
0.987822
0.980254
0.972279
0.96392
0.9552
0.946145
0.936777
0.927122
0.917204
0.907048
0.89668
0.886123
0.875403
0.864543
0.853569
0.842505
0.831372
0.820196
0.808997
0.797798
0.786619
0.775483
0.764407
0.753412
0.742515
0.731734
0.721086
0.710586
0.700248
0.690088
0.680117
0.670348
0.660792
0.651459
0.642359
0.633499
0.624887
0.61653
0.608433
0.600602
0.593039
0.585748
0.578731
0.57199
0.565525
0.559336
0.553423
0.547784
0.54242
0.537328
0.532503
0.527942
0.52364
0.51959
0.515786
0.512223
0.508893
0.505787
0.502898
0.500218
0.497737
0.495446
0.493336
0.491395
0.489613
0.48798
0.486485
0.485115
0.483858
0.482703
0.481637
0.480647
0.47972
0.478842
0.478
0.47718
0.476367
0.475546
0.474704
0.473825
0.472894
0.471895
0.470815
0.469636
0.468344
0.466923
0.465359
0.463636
0.461739
0.459653
0.457366
0.454862
0.452129
0.449155
0.445927
0.442435
0.438667
0.434616
0.430272
0.425628
0.420676
0.41541
0.409824
0.403914
0.397676
0.391107
0.384204
0.376964
0.369387
0.36147
0.353211
0.34461
0.335663
0.32637
0.316729
0.306736
0.296391
0.285691
0.274634
0.263217
0.251438
0.239294
0.226778
0.21388
0.200577
0.186828
0.172553
0.157597
0.141649
0.124046
0.103164
0.073931
0.0208591
0.0581059
0.159788
0.215347
0.255774
0.289995
0.320943
0.349869
0.377401
0.403889
0.429545
0.454503
0.478853
0.502658
0.52596
0.54879
0.571169
0.593112
0.614627
0.63572
0.656391
0.676639
0.69646
0.715847
0.734792
0.753287
0.77132
0.788879
0.805952
0.822526
0.838587
0.85412
0.869111
0.883547
0.897414
0.910697
0.923383
0.935461
0.946917
0.957742
0.967924
0.977455
0.986326
0.994531
1.00206
1.00892
1.01509
1.02059
1.02539
1.02952
1.03296
1.03573
1.03782
1.03924
1.04
1.04011
1.03957
1.0384
1.03661
1.0342
1.03121
1.02763
1.02349
1.0188
1.01359
1.00786
1.00165
0.994957
0.987818
0.98025
0.972275
0.963916
0.955197
0.946141
0.936773
0.927118
0.917201
0.907045
0.896676
0.886119
0.875399
0.86454
0.853566
0.842502
0.831369
0.820193
0.808994
0.797795
0.786617
0.77548
0.764404
0.753409
0.742513
0.731732
0.721084
0.710583
0.700246
0.690086
0.680115
0.670346
0.66079
0.651457
0.642357
0.633497
0.624885
0.616528
0.608431
0.6006
0.593037
0.585746
0.57873
0.571988
0.565524
0.559335
0.553421
0.547783
0.542419
0.537326
0.532502
0.527941
0.523638
0.519589
0.515785
0.512222
0.508891
0.505786
0.502897
0.500217
0.497736
0.495445
0.493335
0.491394
0.489612
0.487979
0.486484
0.485114
0.483857
0.482703
0.481637
0.480647
0.47972
0.478842
0.478
0.477179
0.476366
0.475546
0.474703
0.473824
0.472893
0.471895
0.470814
0.469636
0.468344
0.466923
0.465359
0.463635
0.461738
0.459653
0.457365
0.454862
0.452129
0.449155
0.445927
0.442434
0.438667
0.434616
0.430272
0.425628
0.420676
0.415409
0.409824
0.403914
0.397676
0.391107
0.384204
0.376964
0.369387
0.36147
0.353211
0.34461
0.335663
0.32637
0.316729
0.306736
0.296391
0.285691
0.274634
0.263217
0.251439
0.239294
0.226778
0.21388
0.200577
0.186828
0.172553
0.157597
0.141649
0.124046
0.103164
0.0739311
0.0208592
0.0669517
0.177209
0.237076
0.280402
0.316883
0.349746
0.380385
0.409507
0.437508
0.464624
0.491008
0.516758
0.541942
0.566605
0.590779
0.614485
0.637736
0.66054
0.682899
0.704813
0.726277
0.747286
0.76783
0.7879
0.807483
0.826566
0.845136
0.863177
0.880675
0.897614
0.913977
0.929751
0.944919
0.959466
0.973378
0.986642
0.999244
1.01117
1.02242
1.03297
1.04282
1.05196
1.06039
1.0681
1.07508
1.08134
1.08688
1.09169
1.09578
1.09915
1.10181
1.10376
1.10501
1.10557
1.10544
1.10465
1.1032
1.1011
1.09837
1.09503
1.09109
1.08657
1.08148
1.07585
1.0697
1.06303
1.05589
1.04828
1.04023
1.03176
1.0229
1.01367
1.00409
0.994189
0.983995
0.973531
0.962822