/*--------------------------------*- C++ -*----------------------------------*\
  =========                 |
  \\      /  F ield         | OpenFOAM: The Open Source CFD Toolbox
   \\    /   O peration     | Website:  https://openfoam.org
    \\  /    A nd           | Version:  8
     \\/     M anipulation  |
\*---------------------------------------------------------------------------*/
FoamFile
{
    version     2.0;
    format      ascii;
    class       volScalarField;
    location    "2100";
    object      nut;
}
// * * * * * * * * * * * * * * * * * * * * * * * * * * * * * * * * * * * * * //

dimensions      [0 2 -1 0 0 0 0];

internalField   nonuniform List<scalar> 
46000
(
1.12184e-07
5.74043e-07
1.19588e-06
1.81172e-06
2.40961e-06
2.99045e-06
3.55814e-06
4.11675e-06
4.66697e-06
5.21052e-06
5.74849e-06
6.28146e-06
6.80975e-06
7.33352e-06
7.85282e-06
8.36761e-06
8.87778e-06
9.38316e-06
9.88356e-06
1.03787e-05
1.08684e-05
1.13523e-05
1.18301e-05
1.23015e-05
1.2766e-05
1.32233e-05
1.36729e-05
1.41143e-05
1.45472e-05
1.49709e-05
1.53849e-05
1.57888e-05
1.61819e-05
1.65637e-05
1.69335e-05
1.72908e-05
1.76349e-05
1.79653e-05
1.82814e-05
1.85825e-05
1.88681e-05
1.91378e-05
1.93908e-05
1.96268e-05
1.98454e-05
2.00459e-05
2.02282e-05
2.03919e-05
2.05367e-05
2.06624e-05
2.07687e-05
2.08557e-05
2.09233e-05
2.09714e-05
2.10002e-05
2.10098e-05
2.10005e-05
2.09723e-05
2.09258e-05
2.08613e-05
2.07791e-05
2.06801e-05
2.05658e-05
2.04375e-05
2.0294e-05
2.01356e-05
1.99632e-05
1.97773e-05
1.95787e-05
1.93682e-05
1.91467e-05
1.89149e-05
1.86736e-05
1.84238e-05
1.81662e-05
1.79017e-05
1.7631e-05
1.73551e-05
1.70748e-05
1.67908e-05
1.65039e-05
1.62149e-05
1.59245e-05
1.56334e-05
1.53424e-05
1.5052e-05
1.4763e-05
1.44759e-05
1.41912e-05
1.39095e-05
1.36314e-05
1.33572e-05
1.30874e-05
1.28225e-05
1.25626e-05
1.23083e-05
1.20598e-05
1.18174e-05
1.15812e-05
1.13516e-05
1.11286e-05
1.09125e-05
1.07033e-05
1.05011e-05
1.03061e-05
1.01182e-05
9.9375e-06
9.76397e-06
9.59759e-06
9.43833e-06
9.28614e-06
9.14093e-06
9.00263e-06
8.87114e-06
8.74633e-06
8.62809e-06
8.51627e-06
8.41073e-06
8.31132e-06
8.21786e-06
8.13018e-06
8.0481e-06
7.97148e-06
7.89997e-06
7.83338e-06
7.77166e-06
7.71449e-06
7.66163e-06
7.61284e-06
7.56789e-06
7.52652e-06
7.4885e-06
7.45357e-06
7.42147e-06
7.39194e-06
7.36471e-06
7.33951e-06
7.31606e-06
7.29406e-06
7.27324e-06
7.25329e-06
7.23391e-06
7.21478e-06
7.1956e-06
7.17604e-06
7.15576e-06
7.13444e-06
7.11173e-06
7.08729e-06
7.06077e-06
7.03182e-06
7.00008e-06
6.96521e-06
6.92685e-06
6.88464e-06
6.83826e-06
6.78736e-06
6.73161e-06
6.67071e-06
6.60435e-06
6.53224e-06
6.45414e-06
6.36979e-06
6.27898e-06
6.18156e-06
6.0784e-06
5.96963e-06
5.85423e-06
5.732e-06
5.60295e-06
5.46714e-06
5.32468e-06
5.17575e-06
5.02054e-06
4.85932e-06
4.6924e-06
4.52012e-06
4.34288e-06
4.1611e-06
3.97526e-06
3.78584e-06
3.59338e-06
3.3984e-06
3.20147e-06
3.00312e-06
2.80389e-06
2.60431e-06
2.40481e-06
2.20567e-06
2.00617e-06
1.80884e-06
1.61213e-06
1.41567e-06
1.2189e-06
1.02028e-06
8.22635e-07
6.19484e-07
4.06707e-07
1.92525e-07
3.69329e-08
1.12378e-07
5.75344e-07
1.19774e-06
1.81343e-06
2.4102e-06
2.99078e-06
3.55833e-06
4.11689e-06
4.66706e-06
5.2106e-06
5.74858e-06
6.28156e-06
6.80986e-06
7.33364e-06
7.85295e-06
8.36774e-06
8.87791e-06
9.38329e-06
9.88369e-06
1.03789e-05
1.08686e-05
1.13525e-05
1.18302e-05
1.23016e-05
1.27661e-05
1.32234e-05
1.36729e-05
1.41144e-05
1.45472e-05
1.4971e-05
1.5385e-05
1.57889e-05
1.6182e-05
1.65638e-05
1.69336e-05
1.72909e-05
1.7635e-05
1.79654e-05
1.82815e-05
1.85826e-05
1.88683e-05
1.91379e-05
1.93909e-05
1.9627e-05
1.98455e-05
2.00461e-05
2.02284e-05
2.0392e-05
2.05368e-05
2.06625e-05
2.07688e-05
2.08558e-05
2.09234e-05
2.09715e-05
2.10003e-05
2.10099e-05
2.10005e-05
2.09724e-05
2.09259e-05
2.08613e-05
2.07792e-05
2.06802e-05
2.05658e-05
2.04376e-05
2.0294e-05
2.01357e-05
1.99632e-05
1.97773e-05
1.95788e-05
1.93683e-05
1.91468e-05
1.8915e-05
1.86737e-05
1.84239e-05
1.81662e-05
1.79017e-05
1.76311e-05
1.73552e-05
1.70748e-05
1.67908e-05
1.65039e-05
1.62149e-05
1.59245e-05
1.56334e-05
1.53424e-05
1.50521e-05
1.4763e-05
1.44759e-05
1.41912e-05
1.39095e-05
1.36314e-05
1.33572e-05
1.30874e-05
1.28225e-05
1.25626e-05
1.23083e-05
1.20598e-05
1.18174e-05
1.15812e-05
1.13516e-05
1.11286e-05
1.09125e-05
1.07033e-05
1.05011e-05
1.03061e-05
1.01182e-05
9.93749e-06
9.76396e-06
9.59758e-06
9.43832e-06
9.28613e-06
9.14092e-06
9.00262e-06
8.87113e-06
8.74632e-06
8.62807e-06
8.51625e-06
8.41072e-06
8.3113e-06
8.21784e-06
8.13016e-06
8.04808e-06
7.97146e-06
7.89995e-06
7.83336e-06
7.77164e-06
7.71447e-06
7.6616e-06
7.61281e-06
7.56786e-06
7.52649e-06
7.48847e-06
7.45354e-06
7.42144e-06
7.39191e-06
7.36468e-06
7.33948e-06
7.31602e-06
7.29403e-06
7.2732e-06
7.25325e-06
7.23387e-06
7.21474e-06
7.19556e-06
7.17599e-06
7.15571e-06
7.13439e-06
7.11168e-06
7.08724e-06
7.06071e-06
7.03176e-06
7.00003e-06
6.96515e-06
6.92679e-06
6.88459e-06
6.8382e-06
6.7873e-06
6.73156e-06
6.67065e-06
6.60429e-06
6.53219e-06
6.45409e-06
6.36974e-06
6.27893e-06
6.18151e-06
6.07836e-06
5.96959e-06
5.85419e-06
5.73197e-06
5.60292e-06
5.46711e-06
5.32465e-06
5.17572e-06
5.02051e-06
4.8593e-06
4.69238e-06
4.5201e-06
4.34286e-06
4.16109e-06
3.97525e-06
3.78583e-06
3.59337e-06
3.39839e-06
3.20146e-06
3.00311e-06
2.80389e-06
2.6043e-06
2.40481e-06
2.20566e-06
2.00617e-06
1.80883e-06
1.61212e-06
1.41566e-06
1.21889e-06
1.02027e-06
8.22632e-07
6.19482e-07
4.06705e-07
1.92523e-07
3.69326e-08
5.2135e-07
1.63837e-05
3.21993e-05
4.29919e-05
5.11746e-05
5.7898e-05
6.36909e-05
6.88358e-05
7.35025e-05
7.77963e-05
8.17878e-05
8.55273e-05
8.90521e-05
9.23905e-05
9.55645e-05
9.85917e-05
0.000101486
0.000104259
0.000106921
0.000109479
0.000111941
0.000114311
0.000116596
0.000118799
0.000120923
0.000122972
0.000124949
0.000126855
0.000128692
0.000130462
0.000132167
0.000133806
0.000135382
0.000136893
0.000138342
0.000139727
0.000141049
0.000142309
0.000143505
0.000144638
0.000145707
0.000146712
0.000147653
0.000148529
0.00014934
0.000150086
0.000150766
0.00015138
0.000151928
0.00015241
0.000152826
0.000153175
0.000153458
0.000153675
0.000153827
0.000153913
0.000153935
0.000153893
0.000153787
0.000153618
0.000153386
0.000153091
0.000152728
0.000152301
0.000151815
0.000151274
0.00015068
0.000150036
0.000149342
0.000148603
0.000147818
0.000146991
0.000146124
0.000145219
0.000144278
0.000143303
0.000142297
0.000141263
0.000140202
0.000139117
0.00013801
0.000136885
0.000135742
0.000134585
0.000133416
0.000132237
0.000131051
0.00012986
0.000128666
0.000127471
0.000126278
0.000125089
0.000123905
0.000122729
0.000121563
0.000120409
0.000119267
0.000118141
0.000117032
0.00011594
0.000114868
0.000113818
0.000112789
0.000111784
0.000110804
0.000109849
0.000108921
0.00010802
0.000107147
0.000106302
0.000105487
0.000104701
0.000103944
0.000103217
0.000102521
0.000101854
0.000101217
0.00010061
0.000100032
9.94834e-05
9.89634e-05
9.84713e-05
9.80067e-05
9.75686e-05
9.71563e-05
9.67683e-05
9.64038e-05
9.60618e-05
9.57412e-05
9.54409e-05
9.51596e-05
9.48959e-05
9.46486e-05
9.44162e-05
9.41972e-05
9.39901e-05
9.37934e-05
9.36054e-05
9.34244e-05
9.32488e-05
9.30768e-05
9.29066e-05
9.27364e-05
9.25643e-05
9.23884e-05
9.22067e-05
9.20172e-05
9.1818e-05
9.1607e-05
9.1382e-05
9.11411e-05
9.0882e-05
9.06027e-05
9.0301e-05
8.99748e-05
8.96219e-05
8.92403e-05
8.88277e-05
8.83822e-05
8.79016e-05
8.73839e-05
8.6827e-05
8.62288e-05
8.55867e-05
8.48964e-05
8.41476e-05
8.33434e-05
8.2485e-05
8.15724e-05
8.06052e-05
7.95825e-05
7.85034e-05
7.73671e-05
7.61728e-05
7.492e-05
7.36079e-05
7.22359e-05
7.08035e-05
6.93101e-05
6.77551e-05
6.61376e-05
6.44568e-05
6.27113e-05
6.08996e-05
5.90194e-05
5.70677e-05
5.50402e-05
5.29316e-05
5.07347e-05
4.84407e-05
4.60206e-05
4.34448e-05
4.06667e-05
3.76071e-05
3.4108e-05
2.98336e-05
2.46007e-05
1.77129e-05
8.00371e-06
1.68801e-07
5.2083e-07
1.63831e-05
3.21994e-05
4.29943e-05
5.11828e-05
5.79048e-05
6.36963e-05
6.88403e-05
7.35067e-05
7.78004e-05
8.17918e-05
8.55314e-05
8.90563e-05
9.23948e-05
9.55689e-05
9.85962e-05
0.000101491
0.000104264
0.000106926
0.000109484
0.000111946
0.000114316
0.000116601
0.000118804
0.000120928
0.000122977
0.000124954
0.00012686
0.000128697
0.000130468
0.000132172
0.000133812
0.000135387
0.000136899
0.000138347
0.000139733
0.000141055
0.000142315
0.000143511
0.000144644
0.000145713
0.000146718
0.000147659
0.000148535
0.000149346
0.000150092
0.000150772
0.000151387
0.000151935
0.000152417
0.000152832
0.000153181
0.000153464
0.000153682
0.000153833
0.00015392
0.000153941
0.000153899
0.000153793
0.000153624
0.000153392
0.000153097
0.000152735
0.000152307
0.000151821
0.00015128
0.000150686
0.000150041
0.000149348
0.000148608
0.000147824
0.000146997
0.00014613
0.000145224
0.000144283
0.000143308
0.000142303
0.000141268
0.000140207
0.000139122
0.000138015
0.000136889
0.000135747
0.000134589
0.00013342
0.000132241
0.000131055
0.000129864
0.00012867
0.000127475
0.000126282
0.000125093
0.000123909
0.000122733
0.000121567
0.000120412
0.000119271
0.000118145
0.000117035
0.000115943
0.000114872
0.000113821
0.000112792
0.000111787
0.000110807
0.000109852
0.000108924
0.000108023
0.000107149
0.000106305
0.000105489
0.000104703
0.000103946
0.000103219
0.000102523
0.000101856
0.000101219
0.000100612
0.000100034
9.94849e-05
9.89649e-05
9.84728e-05
9.8008e-05
9.75699e-05
9.71575e-05
9.67694e-05
9.64049e-05
9.60628e-05
9.57422e-05
9.54418e-05
9.51604e-05
9.48967e-05
9.46493e-05
9.44168e-05
9.41978e-05
9.39906e-05
9.37939e-05
9.36058e-05
9.34248e-05
9.32492e-05
9.30771e-05
9.29069e-05
9.27366e-05
9.25645e-05
9.23885e-05
9.22068e-05
9.20173e-05
9.1818e-05
9.16069e-05
9.13819e-05
9.1141e-05
9.08819e-05
9.06025e-05
9.03008e-05
8.99746e-05
8.96217e-05
8.924e-05
8.88274e-05
8.83819e-05
8.79013e-05
8.73835e-05
8.68266e-05
8.62284e-05
8.55862e-05
8.4896e-05
8.41471e-05
8.33429e-05
8.24845e-05
8.15719e-05
8.06047e-05
7.9582e-05
7.85029e-05
7.73666e-05
7.61724e-05
7.49196e-05
7.36075e-05
7.22355e-05
7.08032e-05
6.93098e-05
6.77548e-05
6.61373e-05
6.44565e-05
6.27111e-05
6.08994e-05
5.90192e-05
5.70674e-05
5.504e-05
5.29314e-05
5.07345e-05
4.84406e-05
4.60204e-05
4.34447e-05
4.06666e-05
3.7607e-05
3.41079e-05
2.98336e-05
2.46007e-05
1.7713e-05
8.00372e-06
1.68802e-07
1.1047e-06
3.12959e-05
6.71955e-05
9.38806e-05
0.000114382
0.000130983
0.000144982
0.00015714
0.000167932
0.000177668
0.000186559
0.000194757
0.000202373
0.000209492
0.000216178
0.000222482
0.000228448
0.000234107
0.000239488
0.000244613
0.000249504
0.000254175
0.000258641
0.000262914
0.000267005
0.000270923
0.000274675
0.000278268
0.000281708
0.000285001
0.00028815
0.00029116
0.000294034
0.000296774
0.000299384
0.000301865
0.000304219
0.000306449
0.000308554
0.000310538
0.0003124
0.000314142
0.000315764
0.000317268
0.000318653
0.000319921
0.000321072
0.000322107
0.000323027
0.000323832
0.000324523
0.0003251
0.000325566
0.000325919
0.000326162
0.000326296
0.000326321
0.000326239
0.00032605
0.000325755
0.000325355
0.000324849
0.000324233
0.000323511
0.000322688
0.000321772
0.000320767
0.000319676
0.000318502
0.000317248
0.000315919
0.000314517
0.000313045
0.000311506
0.000309905
0.000308245
0.000306529
0.000304762
0.000302946
0.000301085
0.000299184
0.000297245
0.000295274
0.000293273
0.000291247
0.000289199
0.000287133
0.000285054
0.000282963
0.000280867
0.000278767
0.000276668
0.000274574
0.000272487
0.000270411
0.000268349
0.000266305
0.000264281
0.00026228
0.000260306
0.000258361
0.000256446
0.000254566
0.000252722
0.000250916
0.000249149
0.000247425
0.000245743
0.000244107
0.000242516
0.000240972
0.000239475
0.000238027
0.000236628
0.000235278
0.000233977
0.000232725
0.000231523
0.000230369
0.000229264
0.000228206
0.000227195
0.000226228
0.000225305
0.000224423
0.000223582
0.000222778
0.000222012
0.00022128
0.00022058
0.000219911
0.000219269
0.000218653
0.00021806
0.000217487
0.000216932
0.00021639
0.000215861
0.00021534
0.000214824
0.00021431
0.000213795
0.000213276
0.000212749
0.000212211
0.000211657
0.000211086
0.000210492
0.000209872
0.000209223
0.000208541
0.000207822
0.000207063
0.000206259
0.000205407
0.000204504
0.000203545
0.000202528
0.000201448
0.000200302
0.000199087
0.000197799
0.000196434
0.000194987
0.000193451
0.000191818
0.000190083
0.000188249
0.000186315
0.000184281
0.000182144
0.000179902
0.000177555
0.000175099
0.000172532
0.000169851
0.000167053
0.000164135
0.000161092
0.000157921
0.000154615
0.000151168
0.000147573
0.00014382
0.000139896
0.000135788
0.000131477
0.000126936
0.000122134
0.000117025
0.000111535
0.000105566
9.89584e-05
9.14587e-05
8.26634e-05
7.19295e-05
5.83289e-05
4.04425e-05
1.69351e-05
3.64293e-07
1.10486e-06
3.13009e-05
6.72024e-05
9.38897e-05
0.000114393
0.000130994
0.000144993
0.00015715
0.000167942
0.000177678
0.000186569
0.000194767
0.000202383
0.000209501
0.000216187
0.000222492
0.000228457
0.000234117
0.000239497
0.000244623
0.000249513
0.000254185
0.000258651
0.000262924
0.000267015
0.000270933
0.000274685
0.000278278
0.000281719
0.000285011
0.00028816
0.00029117
0.000294044
0.000296784
0.000299394
0.000301875
0.00030423
0.000306459
0.000308565
0.000310549
0.000312411
0.000314153
0.000315775
0.000317278
0.000318664
0.000319932
0.000321083
0.000322118
0.000323038
0.000323843
0.000324534
0.000325111
0.000325576
0.00032593
0.000326173
0.000326307
0.000326332
0.000326249
0.00032606
0.000325766
0.000325365
0.000324859
0.000324243
0.00032352
0.000322698
0.000321782
0.000320777
0.000319685
0.000318511
0.000317258
0.000315928
0.000314525
0.000313053
0.000311515
0.000309914
0.000308254
0.000306538
0.00030477
0.000302953
0.000301093
0.000299191
0.000297253
0.000295281
0.00029328
0.000291254
0.000289206
0.00028714
0.00028506
0.00028297
0.000280873
0.000278773
0.000276674
0.000274579
0.000272492
0.000270416
0.000268354
0.000266309
0.000264285
0.000262285
0.00026031
0.000258365
0.00025645
0.00025457
0.000252725
0.000250919
0.000249153
0.000247428
0.000245746
0.000244109
0.000242518
0.000240974
0.000239477
0.000238029
0.00023663
0.000235279
0.000233979
0.000232727
0.000231524
0.000230371
0.000229265
0.000228207
0.000227196
0.000226229
0.000225306
0.000224424
0.000223582
0.000222779
0.000222012
0.00022128
0.00022058
0.000219911
0.000219269
0.000218653
0.00021806
0.000217487
0.000216931
0.00021639
0.00021586
0.000215339
0.000214823
0.000214309
0.000213794
0.000213275
0.000212748
0.000212209
0.000211656
0.000211084
0.00021049
0.000209871
0.000209222
0.000208539
0.00020782
0.000207061
0.000206257
0.000205405
0.000204502
0.000203543
0.000202526
0.000201446
0.0002003
0.000199085
0.000197797
0.000196432
0.000194985
0.000193449
0.000191816
0.000190081
0.000188247
0.000186313
0.000184279
0.000182142
0.000179901
0.000177553
0.000175097
0.00017253
0.000169849
0.000167051
0.000164133
0.000161091
0.000157919
0.000154613
0.000151167
0.000147572
0.000143819
0.000139895
0.000135787
0.000131476
0.000126935
0.000122133
0.000117024
0.000111535
0.000105565
9.8958e-05
9.14583e-05
8.26632e-05
7.19294e-05
5.83288e-05
4.04425e-05
1.69351e-05
3.64294e-07
1.69516e-06
4.15604e-05
9.27579e-05
0.000134001
0.000167022
0.000194237
0.000217306
0.00023732
0.000255009
0.000270877
0.000285278
0.000298473
0.000310655
0.000321975
0.000332546
0.000342462
0.000351795
0.000360607
0.000368946
0.000376854
0.000384367
0.000391512
0.000398316
0.000404799
0.000410981
0.000416877
0.000422502
0.000427867
0.000432983
0.000437859
0.000442505
0.000446926
0.00045113
0.000455122
0.000458908
0.000462492
0.000465877
0.000469069
0.00047207
0.000474884
0.000477513
0.00047996
0.000482228
0.00048432
0.000486237
0.000487981
0.000489556
0.000490962
0.000492202
0.000493278
0.000494192
0.000494946
0.000495542
0.000495982
0.000496268
0.000496401
0.000496384
0.00049622
0.000495908
0.000495452
0.000494851
0.000494107
0.000493219
0.00049219
0.000491027
0.000489736
0.000488323
0.000486793
0.00048515
0.000483398
0.000481543
0.000479588
0.000477538
0.000475397
0.00047317
0.000470862
0.000468477
0.000466021
0.000463497
0.000460912
0.000458269
0.000455575
0.000452834
0.000450051
0.000447231
0.000444379
0.000441501
0.000438602
0.000435686
0.000432759
0.000429825
0.000426889
0.000423957
0.000421031
0.000418119
0.000415222
0.000412347
0.000409496
0.000406674
0.000403885
0.000401132
0.000398419
0.000395749
0.000393124
0.000390548
0.000388024
0.000385553
0.000383137
0.000380779
0.00037848
0.000376241
0.000374063
0.000371948
0.000369896
0.000367906
0.000365981
0.000364118
0.000362319
0.000360583
0.000358908
0.000357293
0.000355736
0.000354235
0.000352789
0.000351395
0.000350051
0.000348755
0.000347504
0.000346295
0.000345125
0.000343992
0.000342891
0.000341821
0.000340776
0.000339753
0.000338749
0.000337759
0.00033678
0.000335807
0.000334836
0.000333863
0.000332883
0.000331891
0.000330884
0.000329855
0.000328802
0.000327717
0.000326598
0.000325438
0.000324234
0.000322979
0.00032167
0.000320301
0.000318868
0.000317365
0.000315788
0.000314133
0.000312394
0.000310567
0.000308648
0.000306631
0.000304513
0.000302289
0.000299951
0.000297495
0.00029491
0.000292193
0.000289342
0.000286355
0.00028323
0.000279965
0.000276556
0.000272999
0.00026929
0.000265425
0.000261397
0.0002572
0.000252826
0.000248267
0.000243512
0.000238549
0.000233364
0.000227939
0.000222254
0.000216283
0.000209996
0.000203351
0.000196299
0.000188772
0.000180678
0.000171886
0.000162214
0.000151393
0.000139027
0.000124525
0.000107007
8.51752e-05
5.74781e-05
2.34782e-05
5.71711e-07
1.69574e-06
4.15635e-05
9.27662e-05
0.000134013
0.000167036
0.000194252
0.000217322
0.000237336
0.000255025
0.000270892
0.000285293
0.000298488
0.000310671
0.00032199
0.000332561
0.000342477
0.00035181
0.000360622
0.000368961
0.000376869
0.000384381
0.000391527
0.00039833
0.000404814
0.000410995
0.000416892
0.000422516
0.000427881
0.000432997
0.000437874
0.000442519
0.000446941
0.000451145
0.000455137
0.000458922
0.000462506
0.000465892
0.000469083
0.000472084
0.000474898
0.000477527
0.000479974
0.000482243
0.000484334
0.000486251
0.000487995
0.00048957
0.000490976
0.000492216
0.000493292
0.000494206
0.00049496
0.000495556
0.000495995
0.000496281
0.000496414
0.000496398
0.000496233
0.000495921
0.000495464
0.000494864
0.000494119
0.000493231
0.000492202
0.000491039
0.000489748
0.000488335
0.000486804
0.000485161
0.000483409
0.000481554
0.000479598
0.000477548
0.000475407
0.00047318
0.000470872
0.000468487
0.00046603
0.000463506
0.000460921
0.000458278
0.000455583
0.000452842
0.000450059
0.000447239
0.000444387
0.000441509
0.000438609
0.000435693
0.000432765
0.000429831
0.000426895
0.000423962
0.000421037
0.000418124
0.000415227
0.000412351
0.000409501
0.000406679
0.000403889
0.000401136
0.000398423
0.000395752
0.000393128
0.000390552
0.000388027
0.000385555
0.00038314
0.000380781
0.000378482
0.000376243
0.000374065
0.00037195
0.000369897
0.000367908
0.000365982
0.000364119
0.00036232
0.000360583
0.000358908
0.000357293
0.000355736
0.000354235
0.000352789
0.000351395
0.000350051
0.000348754
0.000347503
0.000346294
0.000345124
0.000343991
0.00034289
0.000341819
0.000340774
0.000339751
0.000338747
0.000337757
0.000336778
0.000335805
0.000334834
0.000333861
0.00033288
0.000331889
0.000330881
0.000329853
0.000328799
0.000327714
0.000326595
0.000325435
0.000324231
0.000322976
0.000321667
0.000320298
0.000318864
0.000317362
0.000315785
0.000314129
0.00031239
0.000310563
0.000308644
0.000306628
0.00030451
0.000302285
0.000299948
0.000297491
0.000294907
0.00029219
0.000289339
0.000286352
0.000283227
0.000279962
0.000276553
0.000272996
0.000269288
0.000265422
0.000261394
0.000257198
0.000252824
0.000248265
0.00024351
0.000238547
0.000233362
0.000227937
0.000222252
0.000216282
0.000209994
0.00020335
0.000196298
0.000188771
0.000180677
0.000171885
0.000162213
0.000151393
0.000139027
0.000124525
0.000107006
8.51752e-05
5.74782e-05
2.34782e-05
5.71712e-07
2.28211e-06
4.95095e-05
0.000112449
0.000165902
0.000210162
0.000247368
0.00027925
0.000307057
0.000331679
0.00035376
0.000373773
0.000392071
0.000408924
0.00042454
0.000439085
0.000452691
0.000465463
0.000477489
0.000488842
0.000499582
0.000509758
0.000519415
0.000528588
0.000537308
0.000545604
0.000553498
0.00056101
0.000568159
0.00057496
0.000581426
0.00058757
0.000593403
0.000598933
0.000604171
0.000609124
0.000613798
0.000618202
0.000622339
0.000626217
0.00062984
0.000633214
0.000636343
0.00063923
0.000641882
0.000644301
0.000646492
0.000648459
0.000650204
0.000651732
0.000653047
0.000654151
0.000655048
0.000655742
0.000656236
0.000656533
0.000656637
0.00065655
0.000656275
0.000655816
0.000655176
0.000654355
0.000653358
0.000652185
0.000650841
0.000649331
0.000647664
0.000645844
0.00064388
0.000641775
0.000639535
0.000637167
0.000634676
0.000632067
0.000629347
0.000626519
0.000623592
0.000620569
0.000617458
0.000614264
0.000610994
0.000607652
0.000604247
0.000600783
0.000597268
0.000593707
0.000590106
0.000586472
0.000582812
0.00057913
0.000575433
0.000571728
0.00056802
0.000564315
0.000560618
0.000556935
0.000553272
0.000549633
0.000546024
0.000542449
0.000538913
0.000535421
0.000531975
0.000528581
0.000525242
0.000521961
0.000518741
0.000515585
0.000512495
0.000509473
0.000506521
0.000503641
0.000500833
0.000498099
0.000495439
0.000492853
0.000490342
0.000487904
0.000485541
0.00048325
0.00048103
0.000478879
0.000476794
0.000474773
0.000472814
0.000470914
0.000469071
0.00046728
0.000465539
0.000463844
0.000462192
0.000460579
0.000459
0.000457451
0.000455929
0.000454428
0.000452943
0.000451471
0.000450005
0.000448541
0.000447074
0.000445598
0.000444108
0.000442598
0.000441063
0.000439497
0.000437895
0.00043625
0.000434557
0.00043281
0.000431003
0.000429131
0.000427187
0.000425166
0.000423063
0.000420872
0.000418587
0.000416203
0.000413714
0.000411116
0.000408403
0.00040557
0.000402611
0.000399522
0.000396294
0.000392923
0.000389399
0.000385718
0.000381876
0.000377868
0.000373692
0.000369344
0.000364818
0.000360107
0.000355207
0.000350108
0.000344801
0.000339276
0.00033352
0.000327519
0.000321256
0.000314711
0.000307861
0.000300678
0.000293129
0.000285173
0.000276763
0.000267835
0.000258312
0.000248091
0.000237035
0.000224961
0.000211611
0.00019663
0.000179512
0.000159543
0.000135726
0.000106703
7.09219e-05
2.87791e-05
7.83528e-07
2.28228e-06
4.95127e-05
0.000112458
0.000165915
0.000210178
0.000247386
0.000279269
0.000307077
0.000331699
0.000353781
0.000373793
0.000392091
0.000408944
0.00042456
0.000439105
0.000452711
0.000465483
0.000477509
0.000488862
0.000499601
0.000509778
0.000519434
0.000528607
0.000537328
0.000545623
0.000553517
0.000561029
0.000568178
0.000574979
0.000581445
0.000587589
0.000593421
0.000598952
0.00060419
0.000609142
0.000613817
0.00061822
0.000622358
0.000626235
0.000629858
0.000633232
0.00063636
0.000639248
0.0006419
0.000644319
0.00064651
0.000648476
0.000650221
0.000651749
0.000653063
0.000654167
0.000655065
0.000655758
0.000656252
0.000656549
0.000656652
0.000656565
0.000656291
0.000655832
0.000655191
0.00065437
0.000653372
0.0006522
0.000650855
0.000649345
0.000647677
0.000645858
0.000643893
0.000641788
0.000639548
0.00063718
0.000634688
0.000632079
0.000629358
0.000626531
0.000623603
0.00062058
0.000617469
0.000614274
0.000611004
0.000607662
0.000604257
0.000600793
0.000597277
0.000593715
0.000590115
0.000586481
0.00058282
0.000579138
0.000575441
0.000571735
0.000568027
0.000564321
0.000560624
0.000556941
0.000553277
0.000549638
0.000546029
0.000542454
0.000538918
0.000535425
0.00053198
0.000528586
0.000525246
0.000521965
0.000518745
0.000515588
0.000512498
0.000509476
0.000506524
0.000503643
0.000500835
0.000498101
0.00049544
0.000492854
0.000490343
0.000487906
0.000485542
0.000483251
0.000481031
0.000478879
0.000476794
0.000474773
0.000472814
0.000470914
0.00046907
0.000467279
0.000465538
0.000463843
0.000462191
0.000460577
0.000458998
0.00045745
0.000455927
0.000454426
0.000452941
0.000451469
0.000450003
0.000448539
0.000447071
0.000445595
0.000444105
0.000442595
0.00044106
0.000439494
0.000437891
0.000436246
0.000434553
0.000432806
0.000430999
0.000429127
0.000427183
0.000425162
0.000423059
0.000420868
0.000418582
0.000416198
0.00041371
0.000411112
0.000408399
0.000405566
0.000402607
0.000399517
0.00039629
0.000392918
0.000389395
0.000385714
0.000381872
0.000377864
0.000373689
0.00036934
0.000364814
0.000360104
0.000355204
0.000350105
0.000344798
0.000339273
0.000333517
0.000327517
0.000321254
0.000314709
0.000307859
0.000300676
0.000293127
0.000285172
0.000276761
0.000267834
0.00025831
0.000248089
0.000237034
0.00022496
0.000211611
0.000196629
0.000179511
0.000159543
0.000135726
0.000106704
7.09221e-05
2.87791e-05
7.8353e-07
2.86796e-06
5.6192e-05
0.000128574
0.000192239
0.000246295
0.000292505
0.00033253
0.00036767
0.000398904
0.000426967
0.000452417
0.000475681
0.000497093
0.000516914
0.000535353
0.000552577
0.000568724
0.000583906
0.000598218
0.000611737
0.00062453
0.000636653
0.000648153
0.000659071
0.000669443
0.000679299
0.000688665
0.000697566
0.000706021
0.000714048
0.000721663
0.000728881
0.000735714
0.000742174
0.000748271
0.000754015
0.000759414
0.000764477
0.000769211
0.000773624
0.000777722
0.000781512
0.000785
0.000788192
0.000791095
0.000793712
0.000796051
0.000798116
0.000799913
0.000801447
0.000802722
0.000803744
0.000804518
0.000805048
0.00080534
0.000805397
0.000805224
0.000804826
0.000804207
0.00080337
0.000802321
0.000801062
0.000799598
0.000797933
0.000796075
0.00079403
0.000791807
0.000789411
0.000786851
0.000784132
0.000781262
0.000778247
0.000775094
0.00077181
0.000768401
0.000764875
0.000761238
0.000757498
0.000753661
0.000749736
0.000745728
0.000741646
0.000737496
0.000733286
0.000729024
0.000724716
0.00072037
0.000715993
0.000711593
0.000707176
0.000702749
0.00069832
0.000693895
0.00068948
0.000685083
0.000680709
0.000676364
0.000672054
0.000667785
0.000663562
0.000659389
0.000655272
0.000651215
0.000647221
0.000643295
0.00063944
0.000635659
0.000631954
0.000628328
0.000624782
0.000621318
0.000617938
0.000614641
0.000611428
0.0006083
0.000605255
0.000602295
0.000599416
0.000596618
0.000593898
0.000591254
0.000588683
0.000586182
0.000583748
0.000581378
0.000579068
0.000576814
0.000574613
0.000572459
0.000570349
0.000568278
0.000566241
0.000564234
0.00056225
0.000560284
0.000558332
0.000556387
0.000554444
0.000552496
0.000550538
0.000548564
0.000546568
0.000544543
0.000542482
0.000540381
0.000538231
0.000536027
0.000533762
0.00053143
0.000529023
0.000526537
0.000523964
0.000521298
0.000518534
0.000515664
0.000512683
0.000509584
0.000506363
0.000503014
0.00049953
0.000495906
0.000492137
0.000488215
0.000484135
0.00047989
0.000475472
0.000470875
0.000466093
0.000461122
0.000455956
0.000450589
0.000445013
0.00043922
0.000433202
0.000426946
0.00042044
0.000413668
0.000406613
0.000399254
0.000391568
0.000383527
0.000375099
0.000366245
0.00035692
0.000347069
0.000336625
0.000325506
0.000313607
0.000300795
0.000286894
0.000271673
0.000254818
0.000235903
0.000214347
0.000189359
0.000159879
0.000124555
8.19971e-05
3.33177e-05
1.00037e-06
2.86793e-06
5.61955e-05
0.000128583
0.000192253
0.000246313
0.000292525
0.000332552
0.000367694
0.000398928
0.000426991
0.000452441
0.000475706
0.000497118
0.000516939
0.000535377
0.000552601
0.000568748
0.000583931
0.000598242
0.000611762
0.000624554
0.000636677
0.000648177
0.000659095
0.000669466
0.000679322
0.000688689
0.000697589
0.000706044
0.000714071
0.000721686
0.000728904
0.000735737
0.000742197
0.000748294
0.000754037
0.000759436
0.000764499
0.000769233
0.000773645
0.000777743
0.000781533
0.000785021
0.000788213
0.000791115
0.000793733
0.000796071
0.000798136
0.000799933
0.000801466
0.000802742
0.000803764
0.000804537
0.000805067
0.000805358
0.000805415
0.000805242
0.000804844
0.000804224
0.000803387
0.000802338
0.000801079
0.000799615
0.000797949
0.000796091
0.000794046
0.000791822
0.000789426
0.000786865
0.000784146
0.000781276
0.00077826
0.000775107
0.000771823
0.000768414
0.000764887
0.00076125
0.00075751
0.000753673
0.000749747
0.000745739
0.000741656
0.000737506
0.000733296
0.000729033
0.000724725
0.000720379
0.000716002
0.000711601
0.000707184
0.000702757
0.000698328
0.000693902
0.000689488
0.00068509
0.000680716
0.00067637
0.00067206
0.000667791
0.000663567
0.000659395
0.000655277
0.00065122
0.000647226
0.0006433
0.000639445
0.000635663
0.000631958
0.000628332
0.000624786
0.000621322
0.000617941
0.000614644
0.000611431
0.000608302
0.000605258
0.000602297
0.000599418
0.000596619
0.000593899
0.000591255
0.000588683
0.000586182
0.000583748
0.000581378
0.000579068
0.000576814
0.000574612
0.000572459
0.000570349
0.000568277
0.00056624
0.000564232
0.000562248
0.000560283
0.00055833
0.000556385
0.000554441
0.000552494
0.000550536
0.000548562
0.000546565
0.00054454
0.000542479
0.000540377
0.000538227
0.000536023
0.000533758
0.000531426
0.000529019
0.000526533
0.00052396
0.000521294
0.000518529
0.000515659
0.000512678
0.00050958
0.000506359
0.000503009
0.000499526
0.000495902
0.000492132
0.000488211
0.000484131
0.000479886
0.000475468
0.000470871
0.000466089
0.000461118
0.000455952
0.000450585
0.000445009
0.000439217
0.000433199
0.000426943
0.000420437
0.000413665
0.00040661
0.000399251
0.000391566
0.000383525
0.000375097
0.000366243
0.000356918
0.000347067
0.000336623
0.000325504
0.000313606
0.000300794
0.000286894
0.000271672
0.000254817
0.000235903
0.000214347
0.00018936
0.00015988
0.000124556
8.19974e-05
3.33178e-05
1.00037e-06
3.45927e-06
6.20975e-05
0.000142401
0.000214746
0.000277328
0.000331543
0.000378941
0.000420814
0.000458185
0.000491846
0.000522418
0.000550383
0.000576124
0.000599949
0.000622102
0.000642784
0.000662159
0.000680365
0.000697513
0.000713699
0.000729005
0.000743497
0.000757234
0.000770266
0.000782637
0.000794383
0.000805537
0.000816128
0.00082618
0.000835715
0.000844753
0.000853311
0.000861404
0.000869048
0.000876253
0.000883033
0.000889398
0.000895358
0.000900923
0.000906101
0.000910902
0.000915332
0.000919401
0.000923116
0.000926485
0.000929513
0.00093221
0.00093458
0.000936632
0.000938372
0.000939807
0.000940943
0.000941785
0.000942342
0.000942618
0.00094262
0.000942354
0.000941825
0.000941039
0.000940002
0.00093872
0.000937197
0.00093544