/*--------------------------------*- C++ -*----------------------------------*\
  =========                 |
  \\      /  F ield         | OpenFOAM: The Open Source CFD Toolbox
   \\    /   O peration     | Website:  https://openfoam.org
    \\  /    A nd           | Version:  8
     \\/     M anipulation  |
\*---------------------------------------------------------------------------*/
FoamFile
{
    version     2.0;
    format      ascii;
    class       surfaceScalarField;
    location    "2100";
    object      phi;
}
// * * * * * * * * * * * * * * * * * * * * * * * * * * * * * * * * * * * * * //

dimensions      [1 0 -1 0 0 0 0];

internalField   nonuniform List<scalar> 
114370
(
1.19598e-10
3.80152e-13
-1.19976e-10
2.34349e-10
2.53615e-12
-1.30881e-10
2.95218e-10
3.82693e-12
-6.95497e-11
3.00013e-10
3.23618e-12
-2.55716e-13
2.47173e-10
1.99059e-12
5.47391e-11
1.50965e-10
9.77478e-13
9.53581e-11
2.43986e-11
3.81557e-13
1.24915e-10
-1.23579e-10
9.81426e-14
1.46663e-10
-2.87451e-10
-1.18459e-14
1.63212e-10
-4.64118e-10
-4.00776e-14
1.76592e-10
-6.52031e-10
-3.2511e-14
1.8823e-10
-8.50656e-10
-1.13506e-14
1.99105e-10
-1.06008e-09
1.15377e-14
2.09859e-10
-1.28074e-09
2.92978e-14
2.20889e-10
-1.51323e-09
3.80559e-14
2.32422e-10
-1.75818e-09
3.64344e-14
2.44557e-10
-2.01621e-09
2.53561e-14
2.57312e-10
-2.28782e-09
7.65696e-15
2.70649e-10
-2.57342e-09
-1.32707e-14
2.84483e-10
-2.8733e-09
-3.45669e-14
2.98701e-10
-3.18763e-09
-5.38268e-14
3.13165e-10
-3.51643e-09
-6.92497e-14
3.27719e-10
-3.85957e-09
-8.00219e-14
3.42195e-10
-4.21675e-09
-8.62307e-14
3.56415e-10
-4.58755e-09
-8.84109e-14
3.70198e-10
-4.97134e-09
-8.71714e-14
3.83365e-10
-5.36734e-09
-8.30073e-14
3.9574e-10
-5.77462e-09
-7.63902e-14
4.07155e-10
-6.19208e-09
-6.78878e-14
4.17456e-10
-6.61847e-09
-5.80753e-14
4.26496e-10
-7.05244e-09
-4.73409e-14
4.34148e-10
-7.49248e-09
-3.59067e-14
4.403e-10
-7.93703e-09
-2.40633e-14
4.4486e-10
-8.38443e-09
-1.22788e-14
4.47753e-10
-8.83297e-09
-1.07719e-15
4.48922e-10
-9.28089e-09
9.11394e-15
4.48332e-10
-9.72642e-09
1.79663e-14
4.45966e-10
-1.01678e-08
2.52056e-14
4.41825e-10
-1.06033e-08
3.05751e-14
4.3593e-10
-1.10311e-08
3.3873e-14
4.28317e-10
-1.14497e-08
3.50063e-14
4.1904e-10
-1.18575e-08
3.39979e-14
4.08166e-10
-1.22529e-08
3.09458e-14
3.95775e-10
-1.26345e-08
2.6028e-14
3.81957e-10
-1.3001e-08
1.95269e-14
3.66814e-10
-1.33513e-08
1.18327e-14
3.50452e-10
-1.36841e-08
3.42137e-15
3.32987e-10
-1.39986e-08
-5.22736e-15
3.14535e-10
-1.42939e-08
-1.363e-14
2.95215e-10
-1.45691e-08
-2.13445e-14
2.75146e-10
-1.48236e-08
-2.79389e-14
2.54448e-10
-1.5057e-08
-3.30156e-14
2.33234e-10
-1.52686e-08
-3.62758e-14
2.11616e-10
-1.54583e-08
-3.75164e-14
1.89699e-10
-1.56257e-08
-3.67146e-14
1.67585e-10
-1.57708e-08
-3.4024e-14
1.45367e-10
-1.58935e-08
-2.97525e-14
1.23138e-10
-1.5994e-08
-2.43499e-14
1.00984e-10
-1.60723e-08
-1.83526e-14
7.89857e-11
-1.61288e-08
-1.23595e-14
5.7223e-11
-1.61639e-08
-6.93462e-15
3.57703e-11
-1.61779e-08
-2.53883e-15
1.4699e-11
-1.61713e-08
5.70022e-16
-5.93109e-12
-1.61446e-08
2.35332e-15
-2.60959e-11
-1.60983e-08
2.95201e-15
-4.57678e-11
-1.6033e-08
2.65797e-15
-6.48961e-11
-1.59492e-08
1.81726e-15
-8.34364e-11
-1.58475e-08
7.48226e-16
-1.01351e-10
-1.57287e-08
-3.01294e-16
-1.18611e-10
-1.55933e-08
-1.18644e-15
-1.35194e-10
-1.54421e-08
-1.87513e-15
-1.51085e-10
-1.52757e-08
-2.4079e-15
-1.66274e-10
-1.50949e-08
-2.83268e-15
-1.80754e-10
-1.49003e-08
-3.17593e-15
-1.9452e-10
-1.46926e-08
-3.4125e-15
-2.07571e-10
-1.44727e-08
-3.47017e-15
-2.19907e-10
-1.42411e-08
-3.27502e-15
-2.31531e-10
-1.39986e-08
-2.82811e-15
-2.42448e-10
-1.37459e-08
-2.22358e-15
-2.52667e-10
-1.34837e-08
-1.63748e-15
-2.622e-10
-1.32126e-08
-1.24502e-15
-2.71056e-10
-1.29333e-08
-1.13987e-15
-2.79251e-10
-1.26465e-08
-1.28887e-15
-2.86798e-10
-1.23528e-08
-1.535e-15
-2.93712e-10
-1.20528e-08
-1.64582e-15
-3.00008e-10
-1.17471e-08
-1.40167e-15
-3.05703e-10
-1.14363e-08
-6.85892e-16
-3.10813e-10
-1.1121e-08
4.91536e-16
-3.15356e-10
-1.08016e-08
1.99747e-15
-3.19351e-10
-1.04788e-08
3.6064e-15
-3.22817e-10
-1.0153e-08
5.09801e-15
-3.25777e-10
-9.82474e-09
6.30403e-15
-3.2825e-10
-9.4945e-09
7.14034e-15
-3.30257e-10
-9.1627e-09
7.5898e-15
-3.3182e-10
-8.82978e-09
7.6843e-15
-3.32957e-10
-8.49613e-09
7.5108e-15
-3.33688e-10
-8.16215e-09
7.20916e-15
-3.34032e-10
-7.8282e-09
6.94917e-15
-3.34008e-10
-7.49462e-09
6.88218e-15
-3.33636e-10
-7.16175e-09
7.10445e-15
-3.32937e-10
-6.8299e-09
7.63377e-15
-3.3193e-10
-6.49935e-09
8.41091e-15
-3.30634e-10
-6.17037e-09
9.31468e-15
-3.2907e-10
-5.84323e-09
1.02258e-14
-3.27257e-10
-5.51814e-09
1.10538e-14
-3.25214e-10
-5.19534e-09
1.17613e-14
-3.22958e-10
-4.87501e-09
1.23636e-14
-3.20506e-10
-4.55733e-09
1.29189e-14
-3.17878e-10
-4.24246e-09
1.34932e-14
-3.15089e-10
-3.93054e-09
1.41428e-14
-3.12157e-10
-3.62169e-09
1.48891e-14
-3.09098e-10
-3.31602e-09
1.57201e-14
-3.05928e-10
-3.01362e-09
1.65938e-14
-3.02664e-10
-2.71458e-09
1.7466e-14
-2.99321e-10
-2.41894e-09
1.82903e-14
-2.95914e-10
-2.12675e-09
1.90131e-14
-2.9246e-10
-1.83805e-09
1.95889e-14
-2.88974e-10
-1.55284e-09
1.99713e-14
-2.85474e-10
-1.27113e-09
2.01079e-14
-2.81974e-10
-9.92897e-10
1.99435e-14
-2.78495e-10
-7.18106e-10
1.94557e-14
-2.75045e-10
-4.46692e-10
1.86638e-14
-2.71665e-10
-1.78605e-10
1.76347e-14
-2.68335e-10
8.61005e-11
1.63489e-14
-2.64954e-10
3.47344e-10
1.47695e-14
-2.6149e-10
6.05116e-10
1.29529e-14
-2.58017e-10
8.59488e-10
1.10174e-14
-2.54614e-10
1.11052e-09
9.18477e-15
-2.51274e-10
1.35829e-09
7.65739e-15
-2.47999e-10
1.60285e-09
6.53896e-15
-2.44788e-10
1.84426e-09
5.82209e-15
-2.41639e-10
2.08259e-09
5.41224e-15
-2.38549e-10
2.31788e-09
5.16501e-15
-2.35517e-10
2.5502e-09
4.93556e-15
-2.32538e-10
2.77959e-09
4.59421e-15
-2.29604e-10
3.00609e-09
4.04862e-15
-2.26709e-10
3.22972e-09
3.24976e-15
-2.2384e-10
3.4505e-09
2.20242e-15
-2.20984e-10
3.66845e-09
9.45624e-16
-2.18127e-10
3.88352e-09
-4.5385e-16
-2.15247e-10
4.0957e-09
-1.89799e-15
-2.12324e-10
4.3049e-09
-3.29138e-15
-2.09329e-10
4.51103e-09
-4.55033e-15
-2.06233e-10
4.71397e-09
-5.60979e-15
-2.03004e-10
4.91353e-09
-6.43377e-15
-1.99602e-10
5.10951e-09
-7.00752e-15
-1.95986e-10
5.30164e-09
-7.34536e-15
-1.92111e-10
5.48963e-09
-7.49759e-15
-1.87925e-10
5.67309e-09
-7.49673e-15
-1.83376e-10
5.85161e-09
-7.39699e-15
-1.78406e-10
6.02472e-09
-7.23133e-15
-1.72956e-10
6.19185e-09
-7.02792e-15
-1.66961e-10
6.35241e-09
-6.82147e-15
-1.60357e-10
6.50571e-09
-6.62151e-15
-1.53075e-10
6.651e-09
-6.42024e-15
-1.45043e-10
6.78746e-09
-6.17647e-15
-1.36191e-10
6.91419e-09
-5.83511e-15
-1.26447e-10
7.03023e-09
-5.32983e-15
-1.15742e-10
7.13456e-09
-4.61335e-15
-1.04008e-10
7.22606e-09
-3.65054e-15
-9.11789e-11
7.30358e-09
-2.43359e-15
-7.71956e-11
7.36592e-09
-9.5427e-16
-6.20074e-11
7.41182e-09
7.72249e-16
-4.55777e-11
7.44003e-09
2.70172e-15
-2.78887e-11
7.44928e-09
4.79425e-15
-8.95394e-12
7.43828e-09
6.94578e-15
1.12832e-11
7.4056e-09
9.10333e-15
3.29328e-11
7.3498e-09
1.12361e-14
5.6013e-11
7.2695e-09
1.32757e-14
8.04847e-11
7.16336e-09
1.51569e-14
1.06292e-10
7.0301e-09
1.68292e-14
1.33359e-10
6.86857e-09
1.8259e-14
1.61586e-10
6.67772e-09
1.94351e-14
1.90848e-10
6.45669e-09
2.03581e-14
2.20987e-10
6.20478e-09
2.10425e-14
2.5181e-10
5.92154e-09
2.15037e-14
2.83083e-10
5.6068e-09
2.17618e-14
3.1453e-10
5.26071e-09
2.18239e-14
3.45823e-10
4.88381e-09
2.168e-14
3.76581e-10
4.47707e-09
2.12905e-14
4.06357e-10
4.04201e-09
2.05843e-14
4.34633e-10
3.58073e-09
1.94557e-14
4.6081e-10
3.09603e-09
1.77541e-14
4.84192e-10
2.59153e-09
1.53574e-14
5.0397e-10
2.07178e-09
1.21819e-14
5.19195e-10
1.54248e-09
8.2414e-15
5.28751e-10
1.01064e-09
3.63745e-15
5.31302e-10
4.84911e-10
-1.45784e-15
5.25231e-10
-2.4125e-11
-6.78297e-15
5.08582e-10
-5.02631e-10
-1.18089e-14
4.78121e-10
-9.33871e-10
-1.57163e-14
4.30943e-10
-1.29844e-09
-1.80798e-14
3.64368e-10
-1.57316e-09
-1.86878e-14
2.74622e-10
-1.73089e-09
-1.74388e-14
1.57725e-10
-1.74211e-09
-1.45464e-14
1.13089e-11
-1.58209e-09
-1.03687e-14
-1.59858e-10
-1.24311e-09
-5.52863e-15
-3.38758e-10
-7.63788e-10
-5.45974e-16
-4.79042e-10
-2.76219e-10
2.85213e-15
-4.87246e-10
5.45153e-15
-2.75861e-10
1.32527e-10
-1.33075e-10
2.45444e-10
-1.55474e-10
2.9508e-10
-8.93325e-11
2.94077e-10
-1.29432e-11
2.41183e-10
4.79036e-11
1.46844e-10
9.2132e-11
2.2004e-11
1.23526e-10
-1.2486e-10
1.46102e-10
-2.88099e-10
1.63e-10
-4.64414e-10
1.76521e-10
-6.52137e-10
1.8821e-10
-8.50666e-10
1.99091e-10
-1.06005e-09
2.09825e-10
-1.28071e-09
2.20822e-10
-1.51321e-09
2.32312e-10
-1.75818e-09
2.44408e-10
-2.01622e-09
2.57132e-10
-2.28783e-09
2.7045e-10
-2.57342e-09
2.84278e-10
-2.8733e-09
2.985e-10
-3.18761e-09
3.12978e-10
-3.51639e-09
3.27553e-10
-3.85951e-09
3.42053e-10
-4.21669e-09
3.56298e-10
-4.58748e-09
3.70106e-10
-4.97126e-09
3.83296e-10
-5.36726e-09
3.95692e-10
-5.77453e-09
4.07128e-10
-6.19197e-09
4.17447e-10
-6.61836e-09
4.26506e-10
-7.05231e-09
4.34176e-10
-7.49235e-09
4.40347e-10
-7.9369e-09
4.44924e-10
-8.3843e-09
4.47833e-10
-8.83284e-09
4.49017e-10
-9.28076e-09
4.48439e-10
-9.7263e-09
4.46081e-10
-1.01677e-08
4.41943e-10
-1.06032e-08
4.36047e-10
-1.1031e-08
4.28427e-10
-1.14496e-08
4.19138e-10
-1.18574e-08
4.08247e-10
-1.22528e-08
3.95835e-10
-1.26344e-08
3.81994e-10
-1.3001e-08
3.66827e-10
-1.33512e-08
3.50444e-10
-1.36841e-08
3.32959e-10
-1.39986e-08
3.14494e-10
-1.42938e-08
2.95167e-10
-1.4569e-08
2.75101e-10
-1.48236e-08
2.54412e-10
-1.50569e-08
2.33215e-10
-1.52685e-08
2.11619e-10
-1.54582e-08
1.89727e-10
-1.56256e-08
1.67637e-10
-1.57707e-08
1.45441e-10
-1.58934e-08
1.23229e-10
-1.59938e-08
1.01085e-10
-1.60722e-08
7.90902e-11
-1.61287e-08
5.73239e-11
-1.61638e-08
3.58621e-11
-1.61778e-08
1.47783e-11
-1.61712e-08
-5.86609e-12
-1.61445e-08
-2.60452e-11
-1.60982e-08
-4.57301e-11
-1.60329e-08
-6.48688e-11
-1.59491e-08
-8.34166e-11
-1.58474e-08
-1.01336e-10
-1.57286e-08
-1.18598e-10
-1.55932e-08
-1.35183e-10
-1.5442e-08
-1.51077e-10
-1.52756e-08
-1.66268e-10
-1.50948e-08
-1.8075e-10
-1.49002e-08
-1.9452e-10
-1.46926e-08
-2.07573e-10
-1.44726e-08
-2.19911e-10
-1.4241e-08
-2.31535e-10
-1.39985e-08
-2.42454e-10
-1.37458e-08
-2.52674e-10
-1.34836e-08
-2.62207e-10
-1.32125e-08
-2.71064e-10
-1.29333e-08
-2.79258e-10
-1.26465e-08
-2.86804e-10
-1.23527e-08
-2.93717e-10
-1.20527e-08
-3.00011e-10
-1.1747e-08
-3.05704e-10
-1.14362e-08
-3.10813e-10
-1.11209e-08
-3.15356e-10
-1.08015e-08
-3.19351e-10
-1.04787e-08
-3.22818e-10
-1.01529e-08
-3.25778e-10
-9.82465e-09
-3.28251e-10
-9.49441e-09
-3.30258e-10
-9.16261e-09
-3.3182e-10
-8.82969e-09
-3.32957e-10
-8.49605e-09
-3.33688e-10
-8.16207e-09
-3.34032e-10
-7.82813e-09
-3.3401e-10
-7.49455e-09
-3.33642e-10
-7.16169e-09
-3.32946e-10
-6.82983e-09
-3.31943e-10
-6.49928e-09
-3.30651e-10
-6.1703e-09
-3.29091e-10
-5.84316e-09
-3.2728e-10
-5.51808e-09
-3.25238e-10
-5.19528e-09
-3.22983e-10
-4.87495e-09
-3.20533e-10
-4.55728e-09
-3.17906e-10
-4.24241e-09
-3.15119e-10
-3.93048e-09
-3.12187e-10
-3.62163e-09
-3.09127e-10
-3.31596e-09
-3.05955e-10
-3.01356e-09
-3.02687e-10
-2.71451e-09
-2.99338e-10
-2.41887e-09
-2.95925e-10
-2.12669e-09
-2.92464e-10
-1.83799e-09
-2.88972e-10
-1.55279e-09
-2.85469e-10
-1.27108e-09
-2.81967e-10
-9.92838e-10
-2.78489e-10
-7.18045e-10
-2.75039e-10
-4.46627e-10
-2.71661e-10
-1.78537e-10
-2.68333e-10
8.6173e-11
-2.64954e-10
3.47421e-10
-2.61493e-10
6.05198e-10
-2.58022e-10
8.59574e-10
-2.54622e-10
1.11061e-09
-2.51284e-10
1.35838e-09
-2.48012e-10
1.60294e-09
-2.44803e-10
1.84435e-09
-2.41655e-10
2.08267e-09
-2.38566e-10
2.31796e-09
-2.35534e-10
2.55027e-09
-2.32554e-10
2.77965e-09
-2.2962e-10
3.00614e-09
-2.26724e-10
3.22977e-09
-2.23854e-10
3.45055e-09
-2.20998e-10
3.66848e-09
-2.1814e-10
3.88356e-09
-2.15259e-10
4.09573e-09
-2.12334e-10
4.30493e-09
-2.09337e-10
4.51107e-09
-2.06239e-10
4.714e-09
-2.03006e-10
4.91357e-09
-1.996e-10
5.10955e-09
-1.95979e-10
5.30169e-09
-1.92098e-10
5.48967e-09
-1.87906e-10
5.67313e-09
-1.83351e-10
5.85165e-09
-1.78376e-10
6.02475e-09
-1.72921e-10
6.19189e-09
-1.66923e-10
6.35245e-09
-1.60315e-10
6.50574e-09
-1.5303e-10
6.65103e-09
-1.44997e-10
6.78749e-09
-1.36143e-10
6.91423e-09
-1.26399e-10
7.03027e-09
-1.15693e-10
7.1346e-09
-1.03958e-10
7.2261e-09
-9.11283e-11
7.30363e-09
-7.71451e-11
7.36597e-09
-6.19578e-11
7.41187e-09
-4.553e-11
7.44008e-09
-2.78437e-11
7.44934e-09
-8.91197e-12
7.43833e-09
1.13223e-11
7.40566e-09
3.29692e-11
7.34987e-09
5.60467e-11
7.26956e-09
8.05155e-11
7.16341e-09
1.0632e-10
7.03015e-09
1.33382e-10
6.86861e-09
1.61604e-10
6.67776e-09
1.90859e-10
6.45672e-09
2.20988e-10
6.20481e-09
2.51799e-10
5.92157e-09
2.8306e-10
5.60684e-09
3.14495e-10
5.26075e-09
3.45779e-10
4.88385e-09
3.76529e-10
4.47712e-09
4.063e-10
4.04206e-09
4.34575e-10
3.58077e-09
4.60752e-10
3.09606e-09
4.84136e-10
2.59154e-09
5.03916e-10
2.07178e-09
5.19143e-10
1.54247e-09
5.28698e-10
1.01062e-09
5.31251e-10
4.84882e-10
5.25183e-10
-2.41526e-11
5.08538e-10
-5.02653e-10
4.78085e-10
-9.33884e-10
4.30918e-10
-1.29844e-09
3.64357e-10
-1.57315e-09
2.74625e-10
-1.73087e-09
1.57742e-10
-1.74208e-09
1.13377e-11
-1.58205e-09
-1.59818e-10
-1.24306e-09
-3.38707e-10
-7.63731e-10
-4.78977e-10
-2.76163e-10
-4.87162e-10
-2.75777e-10
1.15436e-10
-2.5622e-12
-2.24417e-10
1.6976e-10
-2.10813e-12
-1.68373e-10
1.45555e-10
-6.20811e-13
-4.5487e-11
7.58609e-11
-1.047e-13
6.78676e-11
-2.94019e-11
2.63407e-14
1.58085e-10
-1.62098e-10
2.6152e-14
2.26579e-10
-3.15936e-10
3.96065e-16
2.77906e-10
-4.86462e-10
-1.57213e-14
3.16918e-10
-6.7077e-10
-1.93529e-14
3.47682e-10
-8.67117e-10
-1.58921e-14
3.73355e-10
-1.07464e-09
-9.74714e-15
3.96233e-10
-1.29309e-09
-3.98901e-15
4.17933e-10
-1.52265e-09
-4.86517e-16
4.39555e-10
-1.76373e-09
-4.44779e-17
4.61811e-10
-2.01692e-09
-2.78206e-15
4.85118e-10
-2.28283e-09
-8.09742e-15
5.09679e-10
-2.56205e-09
-1.49134e-14
5.35529e-10
-2.85512e-09
-2.21112e-14
5.62583e-10
-3.16247e-09
-2.87759e-14
5.9066e-10
-3.48443e-09
-3.42619e-14
6.19511e-10
-3.82114e-09
-3.81139e-14
6.48838e-10
-4.17262e-09
-4.01052e-14
6.78308e-10
-4.53872e-09
-4.03333e-14
7.07565e-10
-4.91909e-09
-3.91077e-14
7.36242e-10
-5.31324e-09
-3.67251e-14
7.6397e-10
-5.72047e-09
-3.33944e-14
7.90387e-10
-6.13995e-09
-2.93019e-14
8.15145e-10
-6.57066e-09
-2.46564e-14
8.37913e-10
-7.01144e-09
-1.96526e-14
8.58385e-10
-7.46099e-09
-1.44206e-14
8.76283e-10
-7.91789e-09
-9.04264e-15
8.91358e-10
-8.38063e-09
-3.6072e-15
9.03397e-10
-8.84758e-09
1.74388e-15
9.12222e-10
-9.31709e-09
6.82819e-15
9.1769e-10
-9.7874e-09
1.14648e-14
9.19698e-10
-1.02568e-08
1.54872e-14
9.18177e-10
-1.07234e-08
1.87336e-14
9.13097e-10
-1.11856e-08
2.10447e-14
9.04463e-10
-1.16415e-08
2.22766e-14
8.92314e-10
-1.20895e-08
2.23254e-14
8.76721e-10
-1.25278e-08
2.11562e-14
8.57788e-10
-1.2955e-08
1.88198e-14
8.35647e-10
-1.33693e-08
1.54466e-14
8.10452e-10
-1.37696e-08
1.12504e-14
7.82386e-10
-1.41542e-08
6.52037e-15
7.51648e-10
-1.45222e-08
1.62506e-15
7.18452e-10
-1.48722e-08
-3.02458e-15
6.83028e-10
-1.52033e-08
-7.04082e-15
6.45609e-10
-1.55146e-08
-1.00939e-14
6.06435e-10
-1.58053e-08
-1.19574e-14
5.65743e-10
-1.60747e-08
-1.25168e-14
5.23767e-10
-1.63222e-08
-1.17917e-14
4.80732e-10
-1.65473e-08
-9.9332e-15
4.36854e-10
-1.67497e-08
-7.19295e-15
3.92336e-10
-1.69291e-08
-3.90854e-15
3.47372e-10
-1.70854e-08
-4.52607e-16
3.02145e-10
-1.72186e-08
2.82118e-15
2.5683e-10
-1.73285e-08
5.62774e-15
2.11596e-10
-1.74154e-08
7.77537e-15
1.66602e-10
-1.74795e-08
9.16868e-15
1.22003e-10
-1.7521e-08
9.7999e-15
7.7946e-11
-1.75402e-08
9.72466e-15
3.45693e-11
-1.75376e-08
9.06568e-15
-8.00385e-12
-1.75135e-08
7.99622e-15
-4.9674e-11
-1.74685e-08
6.71062e-15
-9.03494e-11
-1.74031e-08
5.39792e-15
-1.29939e-10
-1.73179e-08
4.21022e-15
-1.68363e-10
-1.72135e-08
3.23334e-15
-2.05554e-10
-1.70905e-08
2.48745e-15
-2.41459e-10
-1.69495e-08
1.93521e-15
-2.76036e-10
-1.67912e-08
1.50884e-15
-3.09255e-10
-1.66163e-08
1.15425e-15
-3.41092e-10
-1.64254e-08
8.51815e-16
-3.71534e-10
-1.62193e-08
6.08252e-16
-4.00569e-10
-1.59987e-08
4.44213e-16
-4.28192e-10
-1.57641e-08
3.76503e-16
-4.54405e-10
-1.55164e-08
3.98996e-16
-4.79212e-10
-1.52562e-08
4.70599e-16
-5.02624e-10
-1.49842e-08
5.26044e-16
-5.24657e-10
-1.47011e-08
5.00062e-16
-5.4533e-10
-1.44074e-08
3.66145e-16
-5.64661e-10
-1.4104e-08
1.52159e-16
-5.82675e-10
-1.37914e-08
-6.96863e-17
-5.99396e-10
-1.34703e-08
-2.14551e-16
-6.14851e-10
-1.31412e-08
-2.18684e-16
-6.2907e-10
-1.28049e-08
-6.94009e-17
-6.42085e-10
-1.24617e-08
1.98874e-16
-6.5393e-10
-1.21124e-08
5.25098e-16
-6.6464e-10
-1.17575e-08
8.4232e-16
-6.74249e-10
-1.13976e-08
1.08906e-15
-6.82794e-10
-1.1033e-08
1.22099e-15
-6.9031e-10
-1.06645e-08
1.22519e-15
-6.96835e-10
-1.02923e-08
1.11782e-15
-7.02404e-10
-9.91713e-09
9.26319e-16
-7.07056e-10
-9.5393e-09
6.73186e-16
-7.10826e-10
-9.15929e-09
3.91276e-16
-7.1375e-10
-8.77752e-09
1.28565e-16
-7.15864e-10
-8.39438e-09
-7.67265e-17
-7.17205e-10
-8.01028e-09
-2.11105e-16
-7.17809e-10
-7.62558e-09
-2.97126e-16
-7.17714e-10
-7.24064e-09
-3.722e-16
-7.16956e-10
-6.8558e-09
-4.84145e-16
-7.15571e-10
-6.47139e-09
-6.73457e-16
-7.13595e-10
-6.08773e-09
-9.56672e-16
-7.11062e-10
-5.70509e-09
-1.3185e-15
-7.08006e-10
-5.32377e-09
-1.72668e-15
-7.04459e-10
-4.94402e-09
-2.14521e-15
-7.00455e-10
-4.56609e-09
-2.53995e-15
-6.96024e-10
-4.19021e-09
-2.87955e-15
-6.91201e-10
-3.8166e-09
-3.14402e-15
-6.86017e-10
-3.44544e-09
-3.33315e-15
-6.80505e-10
-3.07693e-09
-3.45985e-15
-6.74699e-10
-2.71122e-09
-3.53353e-15
-6.68631e-10
-2.34847e-09
-3.56332e-15
-6.62333e-10
-1.9888e-09
-3.56209e-15
-6.55837e-10
-1.63234e-09
-3.54742e-15
-6.49176e-10
-1.27918e-09
-3.53467e-15
-6.42385e-10
-9.29392e-10
-3.54359e-15
-6.35504e-10
-5.83047e-10
-3.60767e-15
-6.28557e-10
-2.40184e-10
-3.76811e-15
-6.21592e-10
9.91294e-11
-4.05073e-15
-6.14591e-10
4.3471e-10
-4.42983e-15
-6.07477e-10
7.66445e-10
-4.8345e-15
-6.00301e-10
1.09434e-09
-5.19841e-15
-5.93078e-10
1.4184e-09
-5.47341e-15
-5.8578e-10
1.73863e-09
-5.66591e-15
-5.7847e-10
2.055e-09
-5.80019e-15
-5.71214e-10
2.36753e-09
-5.87496e-15
-5.64023e-10
2.67622e-09
-5.88274e-15
-5.56911e-10
2.9811e-09
-5.82612e-15
-5.49881e-10
3.28218e-09
-5.72529e-15
-5.42937e-10
3.5795e-09
-5.60527e-15
-5.36078e-10
3.87307e-09
-5.4909e-15
-5.29303e-10
4.16293e-09
-5.40081e-15
-5.22603e-10
4.44909e-09
-5.34466e-15
-5.15967e-10
4.73156e-09
-5.32092e-15
-5.0938e-10
5.01035e-09
-5.32374e-15
-5.0282e-10
5.28545e-09
-5.34455e-15
-4.96261e-10
5.55684e-09
-5.36979e-15
-4.89672e-10
5.82447e-09
-5.38278e-15
-4.83013e-10
6.08827e-09
-5.36053e-15
-4.7624e-10
6.34816e-09
-5.28049e-15
-4.69298e-10
6.60399e-09
-5.12791e-15
-4.62127e-10
6.85562e-09
-4.89684e-15
-4.54658e-10
7.10284e-09
-4.58912e-15
-4.46814e-10
7.3454e-09
-4.21548e-15
-4.38508e-10
7.58301e-09
-3.78818e-15
-4.29644e-10
7.81531e-09
-3.32294e-15
-4.20121e-10
8.04189e-09
-2.83644e-15
-4.09825e-10
8.26229e-09
-2.34236e-15
-3.98637e-10
8.47596e-09
-1.84979e-15
-3.86433e-10
8.68229e-09
-1.36686e-15
-3.73078e-10
8.88061e-09
-9.02472e-16
-3.58435e-10
9.07015e-09
-4.67673e-16
-3.42357e-10
9.25009e-09
-6.30084e-17
-3.24698e-10
9.4195e-09
3.16831e-16
-3.05304e-10
9.5774e-09
6.83662e-16
-2.84026e-10
9.72269e-09
1.04886e-15
-2.60713e-10
9.85424e-09
1.41537e-15
-2.35221e-10
9.9708e-09
1.78046e-15
-2.07409e-10
1.00711e-08
2.14024e-15
-1.77144e-10
1.01537e-08
2.48939e-15
-1.44308e-10
1.02173e-08
2.81815e-15
-1.08801e-10
1.02602e-08
3.10701e-15
-7.05437e-11
1.0281e-08
3.33307e-15
-2.9481e-11
1.02781e-08
3.47715e-15
1.4459e-11
1.02499e-08
3.53329e-15
6.13733e-11
1.01948e-08
3.49877e-15
1.11297e-10
1.01112e-08
3.37621e-15
1.64188e-10
9.99763e-09
3.16452e-15
2.19964e-10
9.85254e-09
2.86665e-15
2.78492e-10
9.67454e-09
2.49302e-15
3.3959e-10
9.46231e-09
2.0561e-15
4.03016e-10
9.21472e-09
1.56501e-15
4.68463e-10
8.93082e-09
1.02267e-15
5.35551e-10
8.60986e-09
4.3133e-16
6.03817e-10
8.2514e-09
-2.04904e-16
6.72706e-10
7.85532e-09
-8.9094e-16
7.41563e-10
7.4219e-09
-1.62604e-15
8.09618e-10
6.95185e-09
-2.40198e-15
8.75971e-10
6.44642e-09
-3.2103e-15
9.39575e-10
5.90751e-09
-4.05542e-15
9.99215e-10
5.33768e-09
-4.95662e-15
1.05348e-09
4.74036e-09
-5.92643e-15
1.10074e-09
4.11994e-09
-6.95137e-15
1.13908e-09
3.48192e-09
-8.00726e-15
1.16624e-09
2.83314e-09
-9.06548e-15
1.17959e-09
2.18201e-09
-1.0077e-14
1.17592e-09
1.53879e-09
-1.09468e-14
1.15144e-09
9.15542e-10
-1.15124e-14
1.10109e-09
3.26747e-10
-1.1654e-14
1.01956e-09
-2.09846e-10
-1.12762e-14
9.00884e-10
-6.73106e-10
-1.02678e-14
7.37904e-10
-1.03931e-09
-8.61612e-15
5.24044e-10
-1.28239e-09
-6.45717e-15
2.54582e-10
-1.37361e-09
-3.97275e-15
-6.83711e-11
-1.28448e-09
-1.2426e-15
-4.27566e-10
-9.89233e-10
1.89455e-15
-7.73899e-10
-4.86321e-10
5.53491e-15
-9.89676e-10
1.10178e-14
-7.61873e-10
1.12474e-10
-2.1085e-10
1.75241e-10
-1.64866e-10
1.48987e-10
-4.61297e-11
7.69811e-11
6.66937e-11
-2.94331e-11
1.5719e-10
-1.62476e-10
2.26035e-10
-3.16306e-10
2.77612e-10
-4.86723e-10
3.16765e-10
-6.70921e-10
3.47598e-10
-8.67186e-10
3.73302e-10
-1.07466e-09
3.96191e-10
-1.29308e-09
4.17893e-10
-1.52263e-09
4.39515e-10
-1.76371e-09
4.61769e-10
-2.0169e-09
4.85075e-10
-2.2828e-09
5.09636e-10
-2.56202e-09
5.35488e-10
-2.85508e-09
5.62544e-10
-3.16243e-09
5.90625e-10
-3.48437e-09
6.19482e-10
-3.82107e-09
6.48815e-10
-4.17254e-09
6.78291e-10
-4.53862e-09
7.07554e-10
-4.91899e-09
7.36235e-10
-5.31313e-09
7.63966e-10
-5.72036e-09
7.90385e-10
-6.13983e-09
8.15144e-10
-6.57054e-09
8.37913e-10
-7.01131e-09
8.58386e-10
-7.46086e-09
8.76285e-10
-7.91776e-09
8.91363e-10
-8.38049e-09
9.03406e-10
-8.84745e-09
9.12235e-10
-9.31695e-09
9.17708e-10
-9.78727e-09
9.1972e-10
-1.02566e-08
9.18202e-10
-1.07233e-08
9.13123e-10
-1.11855e-08
9.04488e-10
-1.16414e-08
8.92335e-10
-1.20894e-08
8.76738e-10
-1.25277e-08
8.57798e-10
-1.29549e-08
8.35649e-10
-1.33692e-08
8.10447e-10
-1.37695e-08
7.82373e-10
-1.41541e-08
7.51629e-10
-1.45221e-08
7.1843e-10
-1.48721e-08
6.83004e-10
-1.52032e-08
6.45587e-10
-1.55145e-08
6.06416e-10
-1.58052e-08
5.6573e-10
-1.60745e-08
5.23762e-10
-1.6322e-08
4.80735e-10
-1.65471e-08
4.36865e-10
-1.67496e-08
3.92353e-10
-1.6929e-08
3.47393e-10
-1.70853e-08
3.02168e-10
-1.72184e-08
2.56853e-10
-1.73284e-08
2.11615e-10
-1.74153e-08
1.66617e-10
-1.74794e-08
1.22012e-10
-1.75209e-08
7.79493e-11
-1.75401e-08
3.45668e-11
-1.75375e-08
-8.01083e-12
-1.75134e-08
-4.96842e-11
-1.74684e-08
-9.03613e-11
-1.7403e-08
-1.29951e-10
-1.73178e-08
-1.68373e-10
-1.72134e-08
-2.05562e-10
-1.70903e-08
-2.41465e-10
-1.69494e-08
-2.7604e-10
-1.67911e-08
-3.09257e-10
-1.66162e-08
-3.41095e-10
-1.64253e-08
-3.71537e-10
-1.62192e-08
-4.00573e-10
-1.59985e-08
-4.28198e-10
-1.5764e-08
-4.54412e-10
-1.55163e-08
-4.79219e-10
-1.52561e-08
-5.02632e-10
-1.49841e-08
-5.24666e-10
-1.47009e-08
-5.45338e-10
-1.44073e-08
-5.64668e-10
-1.41039e-08
-5.8268e-10
-1.37913e-08
-5.99398e-10
-1.34702e-08
-6.14851e-10
-1.31411e-08
-6.29069e-10
-1.28048e-08
-6.42083e-10
-1.24616e-08
-6.53928e-10
-1.21123e-08
-6.64638e-10
-1.17574e-08
-6.74248e-10
-1.13975e-08
-6.82792e-10
-1.10329e-08
-6.90308e-10
-1.06644e-08
-6.96831e-10
-1.02922e-08
-7.02399e-10
-9.91703e-09
-7.07048e-10
-9.53921e-09
-7.10816e-10
-9.1592e-09
-7.13738e-10
-8.77742e-09
-7.15852e-10
-8.39429e-09
-7.17194e-10
-8.01018e-09
-7.17801e-10
-7.62548e-09
-7.17709e-10
-7.24054e-09
-7.16953e-10
-6.85571e-09
-7.15571e-10
-6.47131e-09
-7.13596e-10
-6.08764e-09
-7.11063e-10
-5.70502e-09
-7.08006e-10
-5.3237e-09
-7.04458e-10
-4.94395e-09
-7.00452e-10
-4.56603e-09
-6.96022e-10
-4.19015e-09
-6.91198e-10
-3.81654e-09
-6.86014e-10
-3.44538e-09
-6.80502e-10
-3.07687e-09
-6.74695e-10
-2.71116e-09
-6.68623e-10
-2.34841e-09
-6.62321e-10
-1.98874e-09
-6.5582e-10
-1.63228e-09
-6.49155e-10
-1.27911e-09
-6.4236e-10
-9.29321e-10
-6.35479e-10
-5.82973e-10
-6.28533e-10
-2.40107e-10
-6.21571e-10
9.92096e-11
-6.14572e-10
4.34792e-10
-6.07461e-10
7.66528e-10
-6.00287e-10
1.09442e-09
-5.93067e-10
1.41848e-09
-5.85772e-10
1.73871e-09
-5.78463e-10
2.05508e-09
-5.71209e-10
2.36761e-09
-5.6402e-10
2.6763e-09
-5.56909e-10
2.98117e-09
-5.4988e-10
3.28225e-09
-5.42936e-10
3.57956e-09
-5.36077e-10
3.87313e-09
-5.293e-10
4.16299e-09
-5.22599e-10
4.44914e-09
-5.15962e-10
4.73161e-09
-5.09375e-10
5.0104e-09
-5.02815e-10
5.2855e-09
-4.96257e-10
5.55689e-09
-4.89668e-10
5.82451e-09
-4.8301e-10
6.08832e-09
-4.76237e-10
6.3482e-09
-4.69296e-10
6.60404e-09
-4.62126e-10
6.85567e-09
-4.54657e-10
7.10288e-09
-4.46812e-10
7.34544e-09
-4.38505e-10
7.58305e-09
-4.2964e-10
7.81535e-09
-4.20114e-10
8.04194e-09
-4.09816e-10
8.26233e-09
-3.98626e-10
8.476e-09
-3.8642e-10
8.68234e-09
-3.73065e-10
8.88065e-09
-3.58421e-10
9.0702e-09
-3.42344e-10
9.25014e-09
-3.24685e-10
9.41955e-09
-3.05292e-10
9.57744e-09
-2.84014e-10
9.72274e-09
-2.60702e-10
9.85428e-09
-2.35211e-10
9.97085e-09
-2.07399e-10
1.00711e-08
-1.77134e-10
1.01538e-08
-1.44299e-10
1.02173e-08
-1.08793e-10
1.02603e-08
-7.05371e-11
1.02811e-08
-2.94751e-11
1.02781e-08
1.44654e-11
1.02499e-08
6.13812e-11
1.01948e-08
1.11307e-10
1.01113e-08
1.642e-10
9.99768e-09
2.19978e-10
9.85259e-09
2.78508e-10
9.67458e-09
3.39605e-10
9.46236e-09
4.03029e-10
9.21477e-09
4.68472e-10
8.93087e-09
5.35555e-10
8.60991e-09
6.03814e-10
8.25146e-09
6.72697e-10
7.85538e-09
7.41551e-10
7.42196e-09
8.09606e-10
6.9519e-09
8.75961e-10
6.44647e-09
9.39569e-10
5.90755e-09
9.99214e-10
5.33772e-09
1.05349e-09
4.74039e-09
1.10075e-09
4.11996e-09
1.13908e-09
3.48193e-09
1.16625e-09
2.83315e-09
1.1796e-09
2.18201e-09
1.17592e-09
1.53879e-09
1.15143e-09
9.15541e-10
1.10109e-09
3.26744e-10
1.01956e-09
-2.09852e-10
9.00883e-10
-6.73113e-10
7.37907e-10
-1.03932e-09
5.2405e-10
-1.28239e-09
2.5459e-10
-1.37361e-09
-6.83599e-11
-1.28447e-09
-4.2755e-10
-9.89205e-10
-7.7387e-10
-4.86271e-10
-9.89624e-10
-7.61808e-10
5.46516e-11
7.04694e-13
-3.0213e-10
3.58991e-11
-3.99886e-13
-1.49753e-10
-3.51247e-11
-1.84023e-13
2.35481e-11
-1.33632e-10
-6.47016e-14
1.65472e-10
-2.53194e-10
-1.43173e-14
2.77188e-10
-3.90504e-10
-3.64556e-15
3.63676e-10
-5.43257e-10
-7.47884e-15
4.30637e-10
-7.09697e-10
-1.15945e-14
4.83496e-10
-8.88573e-10
-1.24014e-14
5.26817e-10
-1.07909e-09
-1.08301e-14
5.64205e-10
-1.28086e-09
-8.46187e-15
5.98362e-10
-1.49384e-09
-6.42488e-15
6.31243e-10
-1.71821e-09
-5.46095e-15
6.64206e-10
-1.95433e-09
-5.97239e-15
6.98142e-10
-2.20265e-09
-7.90554e-15
7.33577e-10
-2.46367e-09
-1.08735e-14
7.70758e-10
-2.73784e-09
-1.43534e-14
8.09716e-10
-3.02558e-09
-1.78134e-14
8.50313e-10
-3.32723e-09
-2.08694e-14
8.92285e-10
-3.643e-09
-2.32314e-14
9.35271e-10
-3.973e-09
-2.4651e-14
9.78841e-10
-4.31716e-09
-2.50744e-14
1.02251e-09
-4.67528e-09
-2.46307e-14
1.06578e-09
-5.04702e-09
-2.34331e-14
1.1081e-09
-5.43186e-09
-2.15508e-14
1.14896e-09
-5.82911e-09
-1.91008e-14
1.18782e-09
-6.23795e-09
-1.62318e-14
1.22419e-09
-6.6574e-09
-1.30505e-14
1.25758e-09
-7.08636e-09
-9.63247e-15
1.28756e-09
-7.52359e-09
-6.06773e-15
1.31371e-09
-7.96774e-09
-2.45842e-15
1.33569e-09
-8.41737e-09
1.10144e-15
1.35318e-09
-8.87095e-09
4.51112e-15
1.36593e-09
-9.32689e-09
7.6441e-15
1.37373e-09
-9.78356e-09
1.03576e-14
1.37643e-09
-1.02393e-08
1.2515e-14
1.37393e-09
-1.06924e-08
1.39936e-14
1.3662e-09
-1.11412e-08
1.46887e-14
1.35323e-09
-1.15841e-08
1.4528e-14
1.33509e-09
-1.20193e-08
1.34863e-14
1.31188e-09
-1.24453e-08
1.16067e-14
1.28374e-09
-1.28606e-08
9.00901e-15
1.25087e-09
-1.32637e-08
5.87149e-15
1.21348e-09
-1.36532e-08
2.43222e-15
1.17185e-09
-1.40278e-08
-1.03386e-15
1.12623e-09
-1.43863e-08
-4.20675e-15
1.07696e-09
-1.47275e-08
-6.77128e-15
1.02434e-09
-1.50505e-08
-8.47502e-15
9.68712e-10
-1.53544e-08
-9.16198e-15
9.1042e-10
-1.56384e-08
-8.81053e-15
8.49804e-10
-1.59017e-08
-7.51096e-15
7.87205e-10
-1.61438e-08
-5.46869e-15
7.22955e-10
-1.63642e-08
-2.96913e-15
6.57373e-10
-1.65625e-08
-3.297e-16
5.90768e-10
-1.67385e-08
2.13574e-15
5.23432e-10
-1.68919e-08
4.16858e-15
4.55646e-10
-1.70227e-08
5.60322e-15
3.87677e-10
-1.71308e-08
6.39129e-15
3.19777e-10
-1.72163e-08
6.58639e-15
2.52189e-10
-1.72793e-08
6.30607e-15
1.85139e-10
-1.73201e-08
5.69504e-15
1.18841e-10
-1.73389e-08
4.88799e-15
5.34949e-11
-1.7336e-08
4.00935e-15
-1.0719e-11
-1.73119e-08
3.16991e-15
-7.36373e-11
-1.72671e-08
2.4552e-15
-1.35112e-10
-1.72019e-08
1.91797e-15
-1.95012e-10
-1.71169e-08
1.5665e-15
-2.53224e-10
-1.70127e-08
1.36264e-15
-3.09648e-10
-1.68899e-08
1.24752e-15
-3.64205e-10
-1.67491e-08
1.16262e-15
-4.16828e-10
-1.65908e-08
1.07336e-15
-4.67469e-10
-1.64158e-08
9.78684e-16
-5.16089e-10
-1.62246e-08
9.0019e-16
-5.62662e-10
-1.6018e-08
8.57312e-16
-6.07168e-10
-1.57966e-08
8.53302e-16
-6.496e-10
-1.5561e-08
8.71382e-16
-6.89954e-10
-1.5312e-08
8.83687e-16
-7.28236e-10
-1.50502e-08
8.63654e-16
-7.64459e-10
-1.47762e-08
7.94992e-16
-7.98644e-10
-1.44907e-08
6.80467e-16
-8.30814e-10
-1.41944e-08
5.49678e-16
-8.60995e-10
-1.38878e-08
4.5136e-16
-8.89221e-10
-1.35717e-08
4.2769e-16
-9.15524e-10
-1.32466e-08
4.93197e-16
-9.39945e-10
-1.29132e-08
6.30209e-16
-9.62525e-10
-1.25719e-08
7.98636e-16
-9.8331e-10
-1.22235e-08
9.5408e-16
-1.00235e-09
-1.18685e-08
1.06743e-15
-1.01968e-09
-1.15074e-08
1.13023e-15
-1.03537e-09
-1.11407e-08
1.14301e-15
-1.04945e-09
-1.0769e-08
1.1063e-15
-1.06199e-09
-1.03929e-08
1.02481e-15
-1.07303e-09
-1.00127e-08
9.11499e-16
-1.08262e-09
-9.62893e-09
7.84364e-16
-1.09081e-09
-9.24211e-09
6.58044e-16
-1.09766e-09
-8.85266e-09
5.47368e-16
-1.10322e-09
-8.46101e-09
4.68871e-16
-1.10753e-09
-8.06757e-09
4.27432e-16
-1.11066e-09
-7.67275e-09
4.06894e-16
-1.11265e-09
-7.27692e-09
3.74674e-16
-1.11356e-09
-6.88047e-09
3.00305e-16
-1.11344e-09
-6.48374e-09
1.65352e-16
-1.11233e-09
-6.08708e-09
-3.44947e-17
-1.11029e-09
-5.69081e-09
-2.8712e-16
-1.10737e-09
-5.29524e-09
-5.67179e-16
-1.10361e-09
-4.90067e-09
-8.49759e-16
-1.09907e-09
-4.50738e-09
-1.11914e-15
-1.09379e-09
-4.11564e-09
-1.36472e-15
-1.08782e-09
-3.72569e-09
-1.57555e-15
-1.0812e-09
-3.33778e-09
-1.74397e-15
-1.07399e-09
-2.95211e-09
-1.87236e-15
-1.06623e-09
-2.56888e-09
-1.9696e-15
-1.05798e-09
-2.1883e-09
-2.04325e-15
-1.04927e-09
-1.81052e-09
-2.09923e-15
-1.04017e-09
-1.43569e-09
-2.14761e-15
-1.03072e-09
-1.06396e-09
-2.20147e-15
-1.02097e-09
-6.95429e-10
-2.27012e-15
-1.01097e-09