/*--------------------------------*- C++ -*----------------------------------*\
  =========                 |
  \\      /  F ield         | OpenFOAM: The Open Source CFD Toolbox
   \\    /   O peration     | Website:  https://openfoam.org
    \\  /    A nd           | Version:  8
     \\/     M anipulation  |
\*---------------------------------------------------------------------------*/
FoamFile
{
    version     2.0;
    format      ascii;
    class       volScalarField;
    location    "2100";
    object      T;
}
// * * * * * * * * * * * * * * * * * * * * * * * * * * * * * * * * * * * * * //

dimensions      [0 0 0 1 0 0 0];

internalField   nonuniform List<scalar> 
46000
(
311.171
310.587
309.959
309.48
309.112
308.817
308.572
308.362
308.179
308.018
307.874
307.745
307.628
307.521
307.425
307.336
307.256
307.182
307.114
307.051
306.994
306.941
306.892
306.848
306.806
306.768
306.732
306.699
306.669
306.64
306.614
306.589
306.565
306.544
306.523
306.503
306.485
306.467
306.451
306.435
306.42
306.406
306.392
306.379
306.367
306.355
306.344
306.334
306.324
306.315
306.307
306.299
306.292
306.286
306.28
306.276
306.272
306.268
306.266
306.264
306.264
306.264
306.264
306.265
306.267
306.27
306.274
306.279
306.284
306.29
306.298
306.306
306.315
306.324
306.335
306.346
306.359
306.372
306.385
306.4
306.415
306.431
306.447
306.464
306.482
306.5
306.518
306.538
306.557
306.577
306.598
306.618
306.639
306.661
306.682
306.704
306.726
306.748
306.77
306.792
306.815
306.837
306.859
306.881
306.903
306.925
306.947
306.968
306.989
307.01
307.031
307.052
307.072
307.092
307.111
307.13
307.149
307.168
307.186
307.204
307.221
307.238
307.255
307.271
307.287
307.303
307.319
307.334
307.349
307.364
307.378
307.393
307.407
307.421
307.435
307.449
307.464
307.478
307.492
307.507
307.521
307.536
307.552
307.568
307.584
307.601
307.618
307.637
307.655
307.675
307.696
307.718
307.741
307.765
307.79
307.817
307.846
307.875
307.907
307.941
307.976
308.013
308.053
308.094
308.138
308.184
308.232
308.282
308.335
308.39
308.449
308.51
308.574
308.64
308.71
308.783
308.859
308.938
309.019
309.104
309.192
309.282
309.375
309.471
309.569
309.669
309.771
309.875
309.981
310.09
310.2
310.313
310.431
310.556
310.693
310.846
311.031
311.271
311.578
311.839
311.171
310.586
309.958
309.48
309.112
308.817
308.572
308.362
308.179
308.018
307.874
307.745
307.628
307.521
307.425
307.336
307.255
307.181
307.114
307.051
306.994
306.941
306.892
306.848
306.806
306.768
306.732
306.699
306.669
306.64
306.614
306.589
306.565
306.543
306.523
306.503
306.485
306.467
306.451
306.435
306.42
306.405
306.392
306.379
306.367
306.355
306.344
306.334
306.324
306.315
306.307
306.299
306.292
306.286
306.28
306.276
306.272
306.268
306.266
306.264
306.264
306.264
306.264
306.265
306.267
306.27
306.274
306.279
306.284
306.29
306.298
306.306
306.315
306.324
306.335
306.346
306.359
306.372
306.385
306.4
306.415
306.431
306.447
306.464
306.482
306.5
306.518
306.538
306.557
306.577
306.598
306.618
306.639
306.661
306.682
306.704
306.726
306.748
306.77
306.792
306.815
306.837
306.859
306.881
306.903
306.925
306.947
306.968
306.989
307.01
307.031
307.052
307.072
307.092
307.111
307.13
307.149
307.168
307.186
307.204
307.221
307.238
307.255
307.271
307.287
307.303
307.319
307.334
307.349
307.364
307.378
307.393
307.407
307.421
307.435
307.449
307.464
307.478
307.492
307.507
307.521
307.536
307.552
307.568
307.584
307.601
307.618
307.637
307.656
307.675
307.696
307.718
307.741
307.765
307.79
307.817
307.846
307.876
307.907
307.941
307.976
308.013
308.053
308.094
308.138
308.184
308.232
308.282
308.335
308.39
308.449
308.51
308.574
308.64
308.71
308.783
308.859
308.938
309.019
309.104
309.192
309.282
309.375
309.471
309.569
309.669
309.771
309.875
309.981
310.09
310.2
310.313
310.431
310.556
310.693
310.846
311.031
311.271
311.578
311.839
308.007
307.418
306.908
306.523
306.224
305.983
305.784
305.616
305.471
305.346
305.236
305.139
305.053
304.977
304.91
304.85
304.796
304.749
304.707
304.67
304.637
304.608
304.582
304.56
304.54
304.522
304.507
304.493
304.481
304.47
304.461
304.453
304.445
304.438
304.431
304.425
304.419
304.414
304.408
304.403
304.397
304.392
304.387
304.381
304.376
304.37
304.364
304.359
304.353
304.347
304.342
304.336
304.33
304.325
304.319
304.314
304.309
304.304
304.299
304.294
304.29
304.286
304.283
304.279
304.276
304.274
304.271
304.269
304.268
304.267
304.267
304.267
304.267
304.268
304.27
304.272
304.274
304.277
304.28
304.284
304.288
304.293
304.298
304.304
304.31
304.317
304.324
304.331
304.339
304.347
304.355
304.364
304.373
304.383
304.393
304.403
304.413
304.424
304.435
304.446
304.457
304.469
304.481
304.492
304.505
304.517
304.529
304.542
304.554
304.567
304.58
304.593
304.606
304.619
304.633
304.646
304.659
304.673
304.686
304.7
304.714
304.727
304.741
304.755
304.769
304.783
304.797
304.812
304.826
304.84
304.855
304.87
304.885
304.9
304.916
304.931
304.947
304.964
304.98
304.997
305.015
305.033
305.051
305.071
305.09
305.111
305.132
305.154
305.177
305.201
305.225
305.251
305.278
305.307
305.336
305.367
305.4
305.434
305.47
305.508
305.548
305.589
305.633
305.679
305.727
305.777
305.83
305.886
305.944
306.005
306.068
306.135
306.204
306.277
306.353
306.432
306.514
306.599
306.687
306.779
306.873
306.971
307.071
307.173
307.278
307.385
307.493
307.602
307.713
307.825
307.937
308.052
308.169
308.291
308.423
308.576
308.758
308.991
309.304
309.631
308.007
307.417
306.907
306.523
306.223
305.983
305.784
305.616
305.471
305.346
305.236
305.139
305.053
304.977
304.91
304.85
304.796
304.749
304.707
304.67
304.637
304.608
304.582
304.56
304.54
304.522
304.507
304.493
304.481
304.47
304.461
304.453
304.445
304.438
304.431
304.425
304.419
304.414
304.408
304.403
304.397
304.392
304.387
304.381
304.376
304.37
304.364
304.359
304.353
304.347
304.342
304.336
304.33
304.325
304.319
304.314
304.309
304.304
304.299
304.294
304.29
304.286
304.283
304.279
304.276
304.274
304.271
304.269
304.268
304.267
304.267
304.267
304.267
304.268
304.27
304.272
304.274
304.277
304.28
304.284
304.288
304.293
304.299
304.304
304.31
304.317
304.324
304.331
304.339
304.347
304.355
304.364
304.373
304.383
304.393
304.403
304.413
304.424
304.435
304.446
304.457
304.469
304.481
304.492
304.505
304.517
304.529
304.542
304.555
304.567
304.58
304.593
304.606
304.619
304.633
304.646
304.659
304.673
304.686
304.7
304.714
304.727
304.741
304.755
304.769
304.783
304.797
304.812
304.826
304.84
304.855
304.87
304.885
304.9
304.916
304.931
304.947
304.964
304.98
304.997
305.015
305.033
305.051
305.071
305.09
305.111
305.132
305.154
305.177
305.201
305.225
305.251
305.278
305.307
305.336
305.367
305.4
305.434
305.47
305.508
305.548
305.589
305.633
305.679
305.727
305.777
305.83
305.886
305.944
306.005
306.068
306.135
306.204
306.277
306.353
306.432
306.514
306.599
306.687
306.779
306.873
306.971
307.071
307.173
307.278
307.385
307.493
307.602
307.713
307.825
307.937
308.052
308.169
308.291
308.423
308.576
308.758
308.991
309.304
309.631
306.005
305.713
305.428
305.182
304.971
304.791
304.635
304.5
304.382
304.279
304.188
304.109
304.038
303.976
303.921
303.873
303.83
303.793
303.761
303.733
303.709
303.688
303.67
303.655
303.643
303.632
303.623
303.616
303.61
303.606
303.602
303.599
303.596
303.594
303.592
303.59
303.589
303.587
303.585
303.584
303.582
303.579
303.577
303.574
303.571
303.568
303.564
303.56
303.556
303.552
303.547
303.542
303.538
303.533
303.527
303.522
303.517
303.512
303.507
303.502
303.497
303.492
303.487
303.483
303.479
303.475
303.471
303.467
303.464
303.461
303.459
303.456
303.454
303.453
303.452
303.451
303.451
303.451
303.451
303.452
303.453
303.455
303.457
303.46
303.462
303.466
303.469
303.473
303.477
303.482
303.487
303.492
303.498
303.504
303.511
303.517
303.524
303.531
303.539
303.547
303.555
303.563
303.572
303.581
303.59
303.599
303.609
303.619
303.629
303.639
303.649
303.66
303.671
303.682
303.693
303.704
303.716
303.728
303.739
303.752
303.764
303.776
303.789
303.802
303.815
303.828
303.842
303.855
303.869
303.883
303.898
303.912
303.927
303.943
303.958
303.974
303.99
304.007
304.024
304.042
304.06
304.079
304.098
304.118
304.138
304.159
304.181
304.204
304.228
304.253
304.279
304.306
304.334
304.363
304.394
304.426
304.459
304.495
304.532
304.57
304.611
304.653
304.698
304.745
304.794
304.845
304.899
304.955
305.014
305.076
305.14
305.207
305.277
305.35
305.426
305.505
305.588
305.673
305.761
305.852
305.946
306.042
306.141
306.241
306.344
306.448
306.553
306.659
306.765
306.871
306.976
307.082
307.187
307.294
307.405
307.523
307.652
307.795
307.959
308.124
306.005
305.713
305.428
305.182
304.971
304.791
304.635
304.5
304.382
304.279
304.188
304.108
304.038
303.976
303.921
303.873
303.83
303.793
303.761
303.733
303.709
303.688
303.67
303.655
303.643
303.632
303.623
303.616
303.61
303.606
303.602
303.599
303.596
303.594
303.592
303.59
303.589
303.587
303.585
303.584
303.582
303.579
303.577
303.574
303.571
303.568
303.564
303.56
303.556
303.552
303.547
303.542
303.538
303.533
303.528
303.522
303.517
303.512
303.507
303.502
303.497
303.492
303.487
303.483
303.479
303.475
303.471
303.467
303.464
303.461
303.459
303.456
303.454
303.453
303.452
303.451
303.451
303.451
303.451
303.452
303.453
303.455
303.457
303.46
303.462
303.466
303.469
303.473
303.477
303.482
303.487
303.492
303.498
303.504
303.511
303.517
303.524
303.531
303.539
303.547
303.555
303.563
303.572
303.581
303.59
303.599
303.609
303.619
303.629
303.639
303.649
303.66
303.671
303.682
303.693
303.704
303.716
303.728
303.739
303.752
303.764
303.776
303.789
303.802
303.815
303.828
303.842
303.855
303.869
303.883
303.898
303.913
303.927
303.943
303.958
303.974
303.99
304.007
304.024
304.042
304.06
304.079
304.098
304.118
304.138
304.159
304.181
304.204
304.228
304.253
304.279
304.306
304.334
304.363
304.394
304.426
304.459
304.495
304.532
304.57
304.611
304.653
304.698
304.745
304.794
304.845
304.899
304.955
305.014
305.076
305.14
305.207
305.277
305.35
305.426
305.505
305.588
305.673
305.761
305.852
305.946
306.042
306.141
306.241
306.344
306.448
306.553
306.659
306.765
306.871
306.976
307.082
307.187
307.294
307.405
307.523
307.652
307.795
307.959
308.124
304.771
304.64
304.485
304.33
304.183
304.048
303.926
303.818
303.721
303.635
303.558
303.49
303.43
303.377
303.331
303.29
303.254
303.224
303.197
303.174
303.155
303.139
303.126
303.115
303.106
303.099
303.094
303.09
303.088
303.086
303.085
303.085
303.085
303.086
303.086
303.087
303.088
303.088
303.089
303.089
303.089
303.088
303.087
303.086
303.084
303.082
303.08
303.077
303.074
303.07
303.067
303.063
303.058
303.054
303.049
303.044
303.039
303.034
303.029
303.024
303.019
303.014
303.009
303.004
302.999
302.994
302.99
302.986
302.982
302.978
302.974
302.971
302.968
302.966
302.964
302.962
302.96
302.959
302.958
302.958
302.958
302.958
302.958
302.959
302.961
302.962
302.965
302.967
302.97
302.973
302.976
302.98
302.984
302.989
302.994
302.999
303.004
303.01
303.016
303.022
303.029
303.036
303.043
303.051
303.058
303.066
303.075
303.083
303.092
303.101
303.11
303.12
303.129
303.139
303.15
303.16
303.171
303.182
303.193
303.204
303.216
303.227
303.24
303.252
303.264
303.277
303.29
303.303
303.317
303.331
303.345
303.359
303.374
303.389
303.405
303.42
303.437
303.453
303.47
303.488
303.506
303.525
303.544
303.564
303.585
303.607
303.629
303.652
303.676
303.701
303.727
303.754
303.783
303.812
303.843
303.876
303.91
303.945
303.983
304.022
304.063
304.105
304.15
304.197
304.247
304.298
304.352
304.409
304.468
304.529
304.594
304.661
304.731
304.804
304.88
304.958
305.04
305.124
305.212
305.302
305.394
305.489
305.585
305.684
305.784
305.885
305.987
306.088
306.19
306.29
306.39
306.487
306.583
306.677
306.77
306.862
306.952
307.036
307.109
307.161
304.771
304.64
304.485
304.33
304.183
304.048
303.926
303.818
303.721
303.635
303.558
303.49
303.43
303.377
303.331
303.29
303.254
303.224
303.197
303.174
303.155
303.139
303.126
303.115
303.106
303.099
303.094
303.09
303.088
303.086
303.085
303.085
303.085
303.086
303.086
303.087
303.088
303.088
303.089
303.089
303.089
303.088
303.087
303.086
303.084
303.082
303.08
303.077
303.074
303.07
303.067
303.063
303.058
303.054
303.049
303.044
303.039
303.034
303.029
303.024
303.019
303.014
303.009
303.004
302.999
302.994
302.99
302.986
302.982
302.978
302.974
302.971
302.968
302.966
302.964
302.962
302.96
302.959
302.958
302.958
302.958
302.958
302.958
302.959
302.961
302.962
302.965
302.967
302.97
302.973
302.976
302.98
302.984
302.989
302.994
302.999
303.004
303.01
303.016
303.022
303.029
303.036
303.043
303.051
303.058
303.066
303.075
303.083
303.092
303.101
303.11
303.12
303.129
303.139
303.15
303.16
303.171
303.182
303.193
303.204
303.216
303.227
303.24
303.252
303.264
303.277
303.29
303.303
303.317
303.331
303.345
303.359
303.374
303.389
303.405
303.42
303.437
303.453
303.47
303.488
303.506
303.525
303.544
303.564
303.585
303.607
303.629
303.652
303.676
303.701
303.727
303.754
303.783
303.812
303.843
303.876
303.91
303.945
303.983
304.022
304.063
304.105
304.15
304.197
304.247
304.298
304.352
304.409
304.468
304.529
304.594
304.661
304.731
304.804
304.88
304.958
305.04
305.124
305.212
305.302
305.394
305.489
305.585
305.684
305.784
305.885
305.987
306.088
306.19
306.29
306.39
306.487
306.583
306.677
306.77
306.862
306.952
307.036
307.109
307.161
303.944
303.881
303.793
303.693
303.591
303.49
303.396
303.309
303.23
303.158
303.093
303.036
302.985
302.939
302.9
302.865
302.835
302.809
302.787
302.768
302.753
302.74
302.73
302.722
302.716
302.712
302.709
302.708
302.708
302.708
302.709
302.711
302.713
302.715
302.718
302.72
302.722
302.724
302.726
302.727
302.728
302.729
302.729
302.729
302.729
302.728
302.726
302.724
302.722
302.719
302.716
302.712
302.708
302.704
302.7
302.695
302.691
302.686
302.681
302.676
302.67
302.665
302.66
302.655
302.65
302.645
302.64
302.636
302.631
302.627
302.623
302.619
302.616
302.613
302.61
302.607
302.605
302.603
302.602
302.6
302.6
302.599
302.599
302.599
302.599
302.6
302.601
302.603
302.605
302.607
302.61
302.613
302.616
302.619
302.623
302.628
302.632
302.637
302.642
302.648
302.653
302.659
302.666
302.673
302.679
302.687
302.694
302.702
302.71
302.718
302.727
302.736
302.745
302.754
302.764
302.774
302.784
302.794
302.805
302.815
302.827
302.838
302.85
302.861
302.874
302.886
302.899
302.911
302.925
302.938
302.952
302.966
302.981
302.996
303.011
303.027
303.043
303.059
303.076
303.094
303.112
303.131
303.15
303.17
303.19
303.212
303.234
303.257
303.281
303.307
303.333
303.36
303.388
303.418
303.449
303.482
303.516
303.552
303.589
303.628
303.669
303.712
303.757
303.804
303.854
303.905
303.959
304.016
304.075
304.136
304.2
304.267
304.337
304.409
304.485
304.563
304.644
304.727
304.813
304.902
304.993
305.086
305.18
305.277
305.374
305.472
305.57
305.668
305.765
305.86
305.953
306.044
306.132
306.215
306.294
306.367
306.431
306.483
306.515
306.519
303.943
303.881
303.793
303.693
303.59
303.49
303.396
303.309
303.23
303.158
303.093
303.036
302.985
302.939
302.9
302.865
302.835
302.809
302.787
302.768
302.753
302.74
302.73
302.722
302.716
302.712
302.709
302.708
302.708
302.708
302.709
302.711
302.713
302.715
302.718
302.72
302.722
302.724
302.726
302.727
302.728
302.729
302.729
302.729
302.729
302.728
302.726
302.724
302.722
302.719
302.716
302.712
302.708
302.704
302.7
302.695
302.691
302.686
302.681
302.676
302.67
302.665
302.66
302.655
302.65
302.645
302.64
302.636
302.631
302.627
302.623
302.619
302.616
302.613
302.61
302.607
302.605
302.603
302.602
302.6
302.6
302.599
302.599
302.599
302.599
302.6
302.601
302.603
302.605
302.607
302.61
302.613
302.616
302.619
302.623
302.628
302.632
302.637
302.642
302.648
302.653
302.659
302.666
302.673
302.679
302.687
302.694
302.702
302.71
302.718
302.727
302.736
302.745
302.754
302.764
302.774
302.784
302.794
302.805
302.816
302.827
302.838
302.85
302.861
302.874
302.886
302.899
302.911
302.925
302.938
302.952
302.966
302.981
302.996
303.011
303.027
303.043
303.059
303.076
303.094
303.112
303.13
303.15
303.17
303.19
303.212
303.234
303.257
303.281
303.307
303.333
303.36
303.388
303.418
303.449
303.482
303.516
303.552
303.589
303.628
303.669
303.712
303.757
303.804
303.854
303.905
303.959
304.016
304.075
304.136
304.2
304.267
304.337
304.409
304.485
304.563
304.644
304.727
304.813
304.902
304.993
305.086
305.18
305.277
305.374
305.472
305.57
305.668
305.765
305.86
305.954
306.044
306.132
306.215
306.294
306.367
306.431
306.483
306.514
306.519
303.337
303.303
303.25
303.184
303.111
303.036
302.963
302.894
302.829
302.77
302.716
302.667
302.624
302.586
302.552
302.522
302.497
302.475
302.457
302.441
302.429
302.419
302.412
302.407
302.403
302.401
302.4
302.401
302.402
302.404
302.407
302.41
302.414
302.417
302.421
302.425
302.428
302.431
302.434
302.437
302.439
302.44
302.442
302.442
302.442
302.442
302.441
302.44
302.438
302.436
302.433
302.43
302.427
302.423
302.419
302.415
302.41
302.406
302.401
302.396
302.391
302.386
302.38
302.375
302.37
302.365
302.36
302.355
302.351
302.346
302.342
302.338
302.334
302.331
302.327
302.324
302.322
302.319
302.317
302.315
302.314
302.313
302.312
302.312
302.312
302.312
302.313
302.313
302.315
302.316
302.318
302.321
302.323
302.326
302.33
302.333
302.337
302.341
302.346
302.351
302.356
302.362
302.367
302.374
302.38
302.387
302.394
302.401
302.408
302.416
302.424
302.433
302.441
302.45
302.459
302.469
302.479
302.489
302.499
302.509
302.52
302.531
302.542
302.554
302.565
302.578
302.59
302.603
302.615
302.629
302.642
302.656
302.671
302.685
302.7
302.716
302.732
302.748
302.765
302.782
302.8
302.819
302.838
302.858
302.878
302.9
302.922
302.945
302.969
302.994
303.02
303.048
303.076
303.106
303.137
303.17
303.204
303.239
303.277
303.316
303.357
303.4
303.445
303.492
303.541
303.593
303.647
303.703
303.762
303.823
303.887
303.954
304.023
304.095
304.17
304.247
304.327
304.41
304.494
304.582
304.671
304.762
304.854
304.948
305.043
305.138
305.232
305.327
305.419
305.51
305.598
305.683
305.763
305.838
305.906
305.967
306.016
306.052
306.067
306.057
303.337
303.303
303.25
303.184
303.111
303.036
302.963
302.894
302.829
302.77
302.716
302.667
302.624
302.586
302.552
302.522
302.497
302.475
302.457
302.441
302.429
302.419
302.412
302.407
302.403
302.401
302.4
302.401
302.402
302.404
302.407
302.41
302.414
302.417
302.421
302.425
302.428
302.431
302.434
302.437
302.439
302.44
302.442
302.442
302.442
302.442
302.441
302.44
302.438
302.436
302.433
302.43
302.427
302.423
302.419
302.415
302.41
302.406
302.401
302.396
302.391
302.386
302.38
302.375
302.37
302.365
302.36
302.355
302.351
302.346
302.342
302.338
302.334
302.331
302.327
302.324
302.322
302.319
302.317
302.315
302.314
302.313
302.312
302.312
302.312
302.312
302.313
302.313
302.315
302.316
302.318
302.321
302.323
302.326
302.33
302.333
302.337
302.341
302.346
302.351
302.356
302.362
302.367
302.374
302.38
302.387
302.394
302.401
302.408
302.416
302.424
302.433
302.441
302.45
302.459
302.469
302.479
302.489
302.499
302.509
302.52
302.531
302.542
302.554
302.565
302.578
302.59
302.603
302.615
302.629
302.642
302.656
302.67
302.685
302.7
302.716
302.732
302.748
302.765
302.782
302.8
302.819
302.838
302.858
302.878
302.9
302.922
302.945
302.969
302.994
303.02
303.048
303.076
303.106
303.137
303.17
303.204
303.239
303.277
303.316
303.357
303.4
303.445
303.492
303.541
303.593
303.647
303.703
303.762
303.823
303.887
303.954
304.023
304.095
304.17
304.247
304.327
304.41
304.494
304.582
304.671
304.762
304.854
304.948
305.043
305.138
305.232
305.327
305.419
305.51
305.598
305.683
305.763
305.838
305.906
305.967
306.016
306.052
306.067
306.057
302.861
302.84
302.805
302.759
302.706
302.65
302.594
302.539
302.486
302.438
302.393
302.352
302.316
302.283
302.255
302.23
302.209
302.191
302.176
302.164
302.154
302.147
302.142
302.138
302.137
302.137
302.138
302.14
302.142
302.146
302.15
302.155
302.159
302.164
302.169
302.173
302.178
302.182
302.186
302.189
302.192
302.194
302.196
302.198
302.199
302.199
302.199
302.198
302.197
302.195
302.193
302.19
302.187
302.184
302.18
302.176
302.172
302.167
302.163
302.158
302.153
302.148
302.143
302.138
302.132
302.127
302.122
302.117
302.113
302.108
302.103
302.099
302.095
302.091
302.088
302.085
302.082
302.079
302.076
302.074
302.072
302.071
302.07
302.069
302.068
302.068
302.069
302.069
302.07
302.071
302.073
302.074
302.077
302.079
302.082
302.085
302.089
302.093
302.097
302.101
302.106
302.111
302.117
302.122
302.128
302.135
302.141
302.148
302.155
302.163
302.17
302.178
302.187
302.195
302.204
302.213
302.223
302.232
302.242
302.252
302.263
302.273
302.284
302.296
302.307
302.319
302.331
302.343
302.356
302.369
302.383
302.396
302.41
302.425
302.44
302.455
302.471
302.487
302.504
302.521
302.539
302.557
302.576
302.596
302.616
302.638
302.66
302.683
302.707
302.732
302.758
302.785
302.814
302.843
302.874
302.907
302.941
302.977
303.014
303.053
303.094
303.137
303.182
303.229
303.279
303.33
303.384
303.44
303.499
303.56
303.623
303.69
303.758
303.83
303.904
303.98
304.059
304.141
304.224
304.31
304.398
304.487
304.577
304.669
304.761
304.853
304.944
305.035
305.124
305.21
305.294
305.373
305.448
305.516
305.577
305.629
305.67
305.698
305.709
305.698
302.861
302.84
302.805
302.759
302.706
302.65
302.594
302.539
302.486
302.438
302.393
302.352
302.316
302.283
302.255
302.23
302.209
302.191
302.176
302.164
302.154
302.147
302.142
302.138
302.137
302.137
302.138
302.14
302.142
302.146
302.15
302.155
302.159
302.164
302.169
302.173
302.178
302.182
302.186
302.189
302.192
302.194
302.196
302.198
302.199
302.199
302.199
302.198
302.197
302.195
302.193
302.19
302.187
302.184
302.18
302.176
302.172
302.167
302.163
302.158
302.153
302.148
302.143
302.138
302.132
302.127
302.122
302.117
302.113
302.108
302.103
302.099
302.095
302.091
302.088
302.085
302.082
302.079
302.076
302.074
302.072
302.071
302.07
302.069
302.068
302.068
302.069
302.069
302.07
302.071
302.073
302.074
302.077
302.079
302.082
302.085
302.089
302.093
302.097
302.101
302.106
302.111
302.117
302.122
302.128
302.135
302.141
302.148
302.155
302.163
302.17
302.178
302.187
302.195
302.204
302.213
302.223
302.232
302.242
302.252
302.263
302.273
302.284
302.296
302.307
302.319
302.331
302.343
302.356
302.369
302.383
302.396
302.41
302.425
302.44
302.455
302.471
302.487
302.504
302.521
302.539
302.557
302.576
302.596
302.616
302.638
302.66
302.683
302.707
302.732
302.758
302.785
302.814
302.843
302.874
302.907
302.941
302.977
303.014
303.053
303.094
303.137
303.182
303.229
303.279
303.33
303.384
303.44
303.499
303.56
303.623
303.69
303.758
303.83
303.904
303.98
304.059
304.141
304.224
304.31
304.398
304.487
304.577
304.669
304.761
304.853
304.944
305.035
305.124
305.21
305.294
305.373
305.448
305.516
305.577
305.629
305.67
305.698
305.709
305.698
302.467
302.453
302.428
302.395
302.356
302.314
302.27
302.226
302.184
302.144
302.108
302.074
302.043
302.016
301.993
301.972
301.955
301.94
301.928
301.919
301.912
301.907
301.903
301.902
301.902
301.903
301.906
301.909
301.913
301.918
301.923
301.929
301.935
301.94
301.946
301.951
301.957
301.962
301.966
301.97
301.974
301.977
301.98
301.982
301.983
301.984
301.984
301.984
301.983
301.982
301.98
301.978
301.976
301.973
301.969
301.965
301.961
301.957
301.952
301.948
301.943
301.938
301.933
301.928
301.923
301.918
301.912
301.908
301.903
301.898
301.893
301.889
301.885
301.881
301.877
301.873
301.87
301.867
301.865
301.862
301.86
301.858
301.857
301.856
301.855
301.854
301.854
301.854
301.855
301.856
301.857
301.859
301.86
301.863
301.865
301.868
301.871
301.875
301.879
301.883
301.887
301.892
301.897
301.902
301.908
301.914
301.921
301.927
301.934
301.941
301.949
301.956
301.964
301.973
301.981
301.99
301.999
302.009
302.018
302.028
302.038
302.049
302.06
302.071
302.082
302.093
302.105
302.118
302.13
302.143
302.156
302.169
302.183
302.198
302.212
302.227
302.243
302.259
302.276
302.293
302.31
302.329
302.348
302.367
302.388
302.409
302.431
302.454
302.478
302.503
302.529
302.556
302.584
302.614
302.645
302.678
302.712
302.748
302.785
302.824
302.865
302.908
302.953
303
303.049
303.101
303.154
303.21
303.269
303.329
303.393
303.459
303.527
303.598
303.671
303.747
303.825
303.905
303.988
304.072
304.158
304.245
304.334
304.423
304.512
304.602
304.69
304.778
304.863
304.946
305.025
305.1
305.17
305.233
305.29
305.337
305.374
305.398
305.409
305.401
302.467
302.452
302.428
302.395
302.356
302.314
302.27
302.226
302.184
302.144
302.108
302.074
302.043
302.016
301.993
301.972
301.955
301.94
301.928
301.919
301.912
301.907
301.903
301.902
301.902
301.903
301.906
301.909
301.913
301.918
301.923
301.929
301.935
301.94
301.946
301.951
301.957
301.962
301.966
301.97
301.974
301.977
301.98
301.982
301.983
301.984
301.984
301.984
301.983
301.982
301.98
301.978
301.976
301.973
301.969
301.965
301.961
301.957
301.952
301.948
301.943
301.938
301.933
301.928
301.923
301.918
301.912
301.908
301.903
301.898
301.893
301.889
301.885
301.881
301.877
301.873
301.87
301.867
301.865
301.862
301.86
301.858
301.857
301.856
301.855
301.854
301.854
301.854
301.855
301.856
301.857
301.859
301.86
301.863
301.865
301.868
301.871
301.875
301.879
301.883
301.887
301.892
301.897
301.902
301.908
301.914
301.921
301.927
301.934
301.941
301.949
301.956
301.964
301.973
301.981
301.99
301.999
302.009
302.018
302.028
302.038
302.049
302.06
302.071
302.082
302.093
302.105
302.118
302.13
302.143
302.156
302.169
302.183
302.198
302.212
302.227
302.243
302.259
302.276
302.293
302.31
302.329
302.348
302.367
302.388
302.409
302.431
302.454
302.478
302.503
302.529
302.556
302.584
302.614
302.645
302.678
302.712
302.748
302.785
302.824
302.865
302.908
302.953
303
303.049
303.101
303.154
303.21
303.269
303.329
303.393
303.459
303.527
303.598
303.671
303.747
303.825
303.905
303.988
304.072
304.158
304.245
304.334
304.423
304.512
304.602
304.69
304.778
304.863
304.946
305.025
305.1
305.17
305.233
305.29
305.337
305.374
305.398
305.409
305.401
302.131
302.12
302.102
302.077
302.048
302.015
301.981
301.946
301.912
301.88
301.85
301.823
301.798
301.775
301.756
301.739
301.725
301.714
301.704
301.697
301.693
301.69
301.688
301.689
301.69
301.693
301.697
301.701
301.707
301.712
301.718
301.725
301.731
301.738
301.744
301.751
301.757
301.762
301.767
301.772
301.776
301.78
301.783
301.786
301.788
301.789
301.79
301.79
301.79
301.789
301.788
301.786
301.784
301.781
301.778
301.774
301.77
301.766
301.762
301.757
301.753
301.748
301.743
301.738
301.733
301.728
301.723
301.718
301.713
301.708
301.703
301.699
301.694
301.69
301.686
301.683
301.679
301.676
301.673
301.671
301.668
301.666
301.665
301.663
301.662
301.662
301.661
301.661
301.661
301.662
301.663
301.664
301.666
301.668
301.67
301.673
301.675
301.679
301.682
301.686
301.69
301.695
301.7
301.705
301.71
301.716
301.722
301.729
301.735
301.742
301.749
301.757
301.765
301.773
301.781
301.79
301.799
301.808
301.817
301.827
301.837
301.847
301.858
301.869
301.88
301.891
301.903
301.915
301.927
301.94
301.953
301.966
301.98
301.994
302.009
302.024
302.039
302.055
302.071
302.088
302.106
302.124
302.143
302.162
302.183
302.204
302.226
302.249
302.273
302.298
302.324
302.351
302.379
302.409
302.44
302.473
302.507
302.542
302.58
302.619
302.66
302.703
302.748
302.795
302.844
302.895
302.949
303.005
303.063
303.123
303.186
303.252
303.32
303.39
303.463
303.538
303.615
303.694
303.775
303.858
303.942
304.028
304.114
304.201
304.289
304.375
304.461
304.546
304.628
304.707
304.783
304.855
304.921
304.981
305.034
305.078
305.113
305.136
305.148
305.146
302.131
302.12
302.102
302.077
302.048
302.015
301.981
301.946
301.912
301.88
301.85
301.823
301.798
301.775
301.756
301.739
301.725
301.714
301.704
301.697
301.693
301.69
301.688
301.689
301.69
301.693
301.697
301.701
301.707
301.712
301.718
301.725
301.731
301.738
301.744
301.751
301.757
301.762
301.767
301.772
301.776
301.78
301.783
301.786
301.788
301.789
301.79
301.79
301.79
301.789
301.788
301.786
301.784
301.781
301.778
301.774
301.77
301.766
301.762
301.757
301.753
301.748
301.743
301.738
301.733
301.728
301.723
301.718
301.713
301.708
301.703
301.699
301.694
301.69
301.686
301.683
301.679
301.676
301.673
301.671
301.668
301.666
301.665
301.663
301.662
301.662
301.661
301.661
301.661
301.662
301.663
301.664
301.666
301.668
301.67
301.673
301.675
301.679
301.682
301.686
301.69
301.695
301.7
301.705
301.71
301.716
301.722
301.729
301.735
301.742
301.749
301.757
301.765
301.773
301.781
301.79
301.799
301.808
301.817
301.827
301.837
301.847
301.858
301.869
301.88
301.891
301.903
301.915
301.927
301.94
301.953
301.966
301.98
301.994
302.009
302.024
302.039
302.055
302.071
302.088
302.106
302.124
302.143
302.162
302.183
302.204
302.226
302.249
302.273
302.298
302.324
302.351
302.379
302.409
302.44
302.473
302.507
302.542
302.58
302.619
302.66
302.703
302.748
302.795
302.844
302.895
302.949
303.005
303.063
303.123
303.186
303.252
303.32
303.39
303.463
303.538
303.615
303.694
303.775
303.858
303.942
304.028
304.114
304.201
304.289
304.375
304.461
304.546
304.628
304.707
304.783
304.855
304.921
304.981
305.034
305.078
305.113
305.136
305.148
305.146
301.837
301.828
301.813
301.795
301.772
301.746
301.719
301.692
301.665
301.639
301.615
301.593
301.572
301.554
301.539
301.526
301.515
301.506
301.499
301.494
301.492
301.49
301.491
301.492
301.495
301.499
301.504
301.51
301.516
301.523
301.53
301.537
301.544
301.552
301.559
301.566
301.572
301.578
301.584
301.589
301.594
301.598
301.602
301.605
301.608
301.609
301.611
301.611
301.611
301.611
301.61
301.608
301.606
301.604
301.601
301.598
301.594
301.59
301.586
301.582
301.577
301.573
301.568
301.563
301.558
301.553
301.548
301.543
301.538
301.533
301.528
301.524
301.519
301.515
301.511
301.507
301.504
301.5
301.497
301.495
301.492
301.49
301.488
301.487
301.485
301.484
301.484
301.484
301.484
301.484
301.485
301.486
301.487
301.489
301.491
301.493
301.496
301.499
301.502
301.506
301.51
301.514
301.519
301.524
301.529
301.535
301.541
301.547
301.553
301.56
301.567
301.574
301.582
301.59
301.598
301.607
301.615
301.624
301.634
301.643
301.653