/*--------------------------------*- C++ -*----------------------------------*\
  =========                 |
  \\      /  F ield         | OpenFOAM: The Open Source CFD Toolbox
   \\    /   O peration     | Website:  https://openfoam.org
    \\  /    A nd           | Version:  8
     \\/     M anipulation  |
\*---------------------------------------------------------------------------*/
FoamFile
{
    version     2.0;
    format      ascii;
    class       volVectorField;
    location    "2100";
    object      U;
}
// * * * * * * * * * * * * * * * * * * * * * * * * * * * * * * * * * * * * * //

dimensions      [0 1 -1 0 0 0 0];

internalField   nonuniform List<vector> 
46000
(
(0.000409075 6.26077e-06 -0.000451468)
(0.00146453 2.61522e-05 -0.000649462)
(0.00220019 3.79349e-05 -0.000449781)
(0.00245428 3.14944e-05 -0.000116332)
(0.00224247 1.96366e-05 0.000167816)
(0.00163729 1.02782e-05 0.000383026)
(0.000755351 4.6705e-06 0.000541926)
(-0.000322699 1.80699e-06 0.000659301)
(-0.00154125 5.08987e-07 0.000747802)
(-0.00286915 1.39661e-08 0.000818437)
(-0.00428843 -7.3056e-08 0.000878981)
(-0.00579097 3.42845e-08 0.000934766)
(-0.00737491 2.04914e-07 0.000989348)
(-0.00904219 3.53946e-07 0.00104497)
(-0.0107969 4.28368e-07 0.00110293)
(-0.0126439 4.04307e-07 0.00116387)
(-0.0145883 2.85646e-07 0.00122795)
(-0.0166349 9.90766e-08 0.00129503)
(-0.0187876 -1.21559e-07 0.00136469)
(-0.0210496 -3.47569e-07 0.00143638)
(-0.0234229 -5.54196e-07 0.00150938)
(-0.0259084 -7.22026e-07 0.00158289)
(-0.028506 -8.41531e-07 0.00165604)
(-0.031214 -9.12808e-07 0.00172793)
(-0.0340296 -9.412e-07 0.00179764)
(-0.0369487 -9.33043e-07 0.00186423)
(-0.0399658 -8.93422e-07 0.00192683)
(-0.0430741 -8.27104e-07 0.00198459)
(-0.0462656 -7.39977e-07 0.00203672)
(-0.0495312 -6.38118e-07 0.00208248)
(-0.0528608 -5.25719e-07 0.00212124)
(-0.0562431 -4.05037e-07 0.00215245)
(-0.0596662 -2.78938e-07 0.00217564)
(-0.0631176 -1.52227e-07 0.00219044)
(-0.0665842 -3.05021e-08 0.00219659)
(-0.0700526 8.14732e-08 0.00219394)
(-0.073509 1.79874e-07 0.00218242)
(-0.0769398 2.61526e-07 0.00216207)
(-0.0803314 3.23406e-07 0.00213302)
(-0.0836704 3.62925e-07 0.00209547)
(-0.0869439 3.78727e-07 0.00204973)
(-0.0901392 3.70686e-07 0.00199616)
(-0.0932446 3.39447e-07 0.00193518)
(-0.0962487 2.86745e-07 0.00186727)
(-0.0991411 2.15791e-07 0.00179294)
(-0.101912 1.31014e-07 0.00171275)
(-0.104552 3.80637e-08 0.00162727)
(-0.107054 -5.75232e-08 0.00153709)
(-0.10941 -1.5015e-07 0.0014428)
(-0.111614 -2.35004e-07 0.00134501)
(-0.113661 -3.07417e-07 0.00124429)
(-0.115545 -3.63023e-07 0.00114121)
(-0.117264 -3.98742e-07 0.00103632)
(-0.118814 -4.12319e-07 0.000930139)
(-0.120193 -4.03567e-07 0.000823155)
(-0.1214 -3.74231e-07 0.000715836)
(-0.122434 -3.27609e-07 0.000608623)
(-0.123296 -2.68619e-07 0.000501934)
(-0.123987 -2.03172e-07 0.000396169)
(-0.124508 -1.37925e-07 0.000291704)
(-0.124863 -7.91692e-08 0.000188879)
(-0.125053 -3.21698e-08 8.79476e-05)
(-0.125082 2.03742e-10 -1.08676e-05)
(-0.124954 1.76831e-08 -0.000107247)
(-0.124672 2.18578e-08 -0.000201015)
(-0.124242 1.61274e-08 -0.000292109)
(-0.123666 4.6362e-09 -0.00038033)
(-0.122951 -9.01472e-09 -0.000465485)
(-0.122099 -2.20591e-08 -0.000547433)
(-0.121118 -3.28539e-08 -0.000626076)
(-0.120012 -4.11744e-08 -0.000701351)
(-0.118786 -4.76609e-08 -0.000773216)
(-0.117445 -5.29271e-08 -0.000841645)
(-0.115996 -5.73218e-08 -0.00090662)
(-0.114443 -6.04727e-08 -0.000968133)
(-0.112792 -6.1283e-08 -0.00102618)
(-0.111049 -5.87262e-08 -0.00108078)
(-0.109218 -5.27382e-08 -0.00113196)
(-0.107306 -4.4412e-08 -0.00117977)
(-0.105318 -3.59812e-08 -0.00122427)
(-0.103259 -2.969e-08 -0.0012655)
(-0.101134 -2.67699e-08 -0.00130354)
(-0.0989484 -2.69125e-08 -0.00133846)
(-0.0967068 -2.83099e-08 -0.00137034)
(-0.094414 -2.81976e-08 -0.00139923)
(-0.0920747 -2.3901e-08 -0.00142522)
(-0.0896936 -1.40001e-08 -0.00144838)
(-0.0872751 1.4323e-09 -0.00146881)
(-0.0848233 2.07997e-08 -0.00148659)
(-0.0823425 4.14146e-08 -0.00150183)
(-0.0798366 6.06759e-08 -0.00151462)
(-0.0773096 7.6603e-08 -0.00152507)
(-0.074765 8.80977e-08 -0.00153329)
(-0.0722064 9.47464e-08 -0.00153938)
(-0.0696373 9.65817e-08 -0.00154342)
(-0.0670606 9.42777e-08 -0.00154553)
(-0.0644796 8.91699e-08 -0.00154578)
(-0.0618972 8.30644e-08 -0.00154429)
(-0.059316 7.77643e-08 -0.00154115)
(-0.0567387 7.46263e-08 -0.00153647)
(-0.0541677 7.42217e-08 -0.00153035)
(-0.0516054 7.63662e-08 -0.0015229)
(-0.0490539 8.01802e-08 -0.00151422)
(-0.0465152 8.47839e-08 -0.0015044)
(-0.0439911 8.95055e-08 -0.00149355)
(-0.0414836 9.42309e-08 -0.00148174)
(-0.038994 9.93198e-08 -0.00146908)
(-0.0365239 1.05579e-07 -0.00145565)
(-0.0340746 1.13727e-07 -0.00144154)
(-0.0316472 1.24295e-07 -0.00142683)
(-0.0292428 1.37285e-07 -0.00141161)
(-0.0268623 1.52161e-07 -0.00139595)
(-0.0245065 1.67919e-07 -0.00137994)
(-0.0221761 1.83424e-07 -0.00136365)
(-0.0198716 1.97511e-07 -0.00134716)
(-0.0175934 2.09025e-07 -0.00133055)
(-0.0153419 2.1703e-07 -0.00131389)
(-0.0131172 2.2074e-07 -0.00129728)
(-0.0109193 2.1944e-07 -0.00128073)
(-0.00874828 2.12552e-07 -0.00126436)
(-0.0066039 2.00034e-07 -0.00124841)
(-0.00448549 1.82597e-07 -0.00123342)
(-0.0023934 1.61863e-07 -0.00121903)
(-0.000326762 1.38537e-07 -0.00120375)
(0.00171498 1.13271e-07 -0.00118645)
(0.0037275 8.7223e-08 -0.00116818)
(0.00571485 6.15822e-08 -0.00115042)
(0.00767601 3.89529e-08 -0.0011332)
(0.00961171 2.1677e-08 -0.00111646)
(0.0115224 1.08251e-08 -0.00110018)
(0.0134087 6.01449e-09 -0.00108437)
(0.0152709 5.6713e-09 -0.00106898)
(0.0171095 7.71008e-09 -0.001054)
(0.0189249 1.00181e-08 -0.00103941)
(0.0207176 1.07987e-08 -0.00102515)
(0.0224878 8.74599e-09 -0.0010112)
(0.0242359 3.17316e-09 -0.000997478)
(0.0259619 -5.90683e-09 -0.000983934)
(0.0276661 -1.803e-08 -0.000970483)
(0.0293482 -3.22881e-08 -0.00095703)
(0.0310082 -4.73687e-08 -0.000943466)
(0.0326455 -6.19322e-08 -0.000929666)
(0.0342596 -7.47535e-08 -0.000915487)
(0.0358495 -8.48695e-08 -0.000900772)
(0.0374142 -9.1748e-08 -0.000885343)
(0.0389521 -9.52406e-08 -0.000869001)
(0.0404614 -9.56027e-08 -0.000851533)
(0.04194 -9.35407e-08 -0.000832705)
(0.0433851 -8.96604e-08 -0.00081227)
(0.0447939 -8.48234e-08 -0.000789968)
(0.0461628 -7.96695e-08 -0.000765521)
(0.0474878 -7.47574e-08 -0.00073864)
(0.0487644 -7.06329e-08 -0.000709025)
(0.0499878 -6.74848e-08 -0.000676364)
(0.0511522 -6.51516e-08 -0.000640341)
(0.0522518 -6.29866e-08 -0.000600639)
(0.0532796 -6.01409e-08 -0.000556942)
(0.0542287 -5.559e-08 -0.000508941)
(0.0550912 -4.85516e-08 -0.000456337)
(0.0558589 -3.84115e-08 -0.000398852)
(0.056523 -2.47842e-08 -0.00033624)
(0.0570742 -7.31106e-09 -0.000268309)
(0.0575031 1.40096e-08 -0.00019495)
(0.0577998 3.87343e-08 -0.000116178)
(0.0579539 6.63321e-08 -3.21112e-05)
(0.0579565 9.50244e-08 5.75682e-05)
(0.0577968 1.23833e-07 0.000153373)
(0.0574628 1.52353e-07 0.00025535)
(0.0569438 1.79318e-07 0.000363302)
(0.056229 2.03539e-07 0.000476885)
(0.0553081 2.24078e-07 0.000595667)
(0.0541716 2.40265e-07 0.000719107)
(0.0528107 2.51868e-07 0.000846542)
(0.0512177 2.59007e-07 0.000977159)
(0.0493863 2.62159e-07 0.00110998)
(0.0473119 2.61942e-07 0.00124385)
(0.0449916 2.58977e-07 0.00137741)
(0.0424252 2.53774e-07 0.00150906)
(0.0396149 2.46596e-07 0.00163697)
(0.0365663 2.37229e-07 0.00175899)
(0.0332887 2.25017e-07 0.00187269)
(0.0297957 2.0869e-07 0.00197524)
(0.0261059 1.86506e-07 0.0020634)
(0.022244 1.57024e-07 0.00213345)
(0.0182412 1.19275e-07 0.00218106)
(0.014137 7.33994e-08 0.00220116)
(0.00998053 2.04539e-08 0.00218778)
(0.00583072 -3.7902e-08 0.00213389)
(0.00177135 -9.89143e-08 0.0020298)
(-0.00213291 -1.56195e-07 0.00185391)
(-0.00571785 -1.99886e-07 0.00159669)
(-0.0088768 -2.24597e-07 0.0012558)
(-0.0114304 -2.27178e-07 0.000819304)
(-0.0131815 -2.06003e-07 0.000270915)
(-0.0139045 -1.62914e-07 -0.000391607)
(-0.0133629 -1.00534e-07 -0.00112333)
(-0.0114024 -2.66366e-08 -0.00180957)
(-0.00807231 4.73249e-08 -0.00215964)
(-0.00394968 8.53496e-08 -0.00170935)
(-0.000676234 9.83525e-08 -0.000710258)
(0.000455576 6.26088e-06 -0.00052136)
(0.00154447 2.61537e-05 -0.000795217)
(0.00223442 3.79374e-05 -0.000575752)
(0.00243324 3.14957e-05 -0.000198951)
(0.00220556 1.9637e-05 0.000123108)
(0.0016068 1.02783e-05 0.000362191)
(0.000735252 4.67053e-06 0.000533258)
(-0.000334724 1.80695e-06 0.000656026)
(-0.00154809 5.08968e-07 0.000746705)
(-0.00287286 1.39656e-08 0.000818161)
(-0.00429027 -7.30541e-08 0.00087898)
(-0.00579173 3.42837e-08 0.000934803)
(-0.0073751 2.0491e-07 0.000989296)
(-0.00904212 3.53939e-07 0.00104476)
(-0.0107967 4.2836e-07 0.00110254)
(-0.0126437 4.043e-07 0.0011633)
(-0.0145882 2.85642e-07 0.00122725)
(-0.0166348 9.9075e-08 0.00129425)
(-0.0187874 -1.21557e-07 0.00136389)
(-0.0210494 -3.47564e-07 0.0014356)
(-0.0234226 -5.54187e-07 0.00150866)
(-0.0259081 -7.22015e-07 0.00158226)
(-0.0285055 -8.41517e-07 0.00165553)
(-0.0312135 -9.12794e-07 0.00172752)
(-0.0340291 -9.41185e-07 0.00179733)
(-0.0369481 -9.33028e-07 0.00186401)
(-0.0399652 -8.93408e-07 0.0019267)
(-0.0430734 -8.27091e-07 0.00198453)
(-0.0462649 -7.39966e-07 0.00203672)
(-0.0495305 -6.38108e-07 0.00208256)
(-0.0528599 -5.25711e-07 0.00212139)
(-0.0562422 -4.05031e-07 0.00215267)
(-0.0596653 -2.78934e-07 0.00217594)
(-0.0631167 -1.52224e-07 0.00219081)
(-0.0665833 -3.05016e-08 0.00219704)
(-0.0700516 8.1472e-08 0.00219444)
(-0.0735081 1.79871e-07 0.00218296)
(-0.0769389 2.61522e-07 0.00216262)
(-0.0803306 3.23401e-07 0.00213356)
(-0.0836696 3.6292e-07 0.00209599)
(-0.0869431 3.78722e-07 0.0020502)
(-0.0901386 3.7068e-07 0.00199655)
(-0.093244 3.39442e-07 0.00193548)
(-0.0962481 2.8674e-07 0.00186746)
(-0.0991405 2.15788e-07 0.00179303)
(-0.101911 1.31012e-07 0.00171274)
(-0.104552 3.80632e-08 0.00162718)
(-0.107053 -5.75223e-08 0.00153693)
(-0.109409 -1.50148e-07 0.00144261)
(-0.111614 -2.35001e-07 0.00134482)
(-0.11366 -3.07413e-07 0.00124415)
(-0.115544 -3.63018e-07 0.00114114)
(-0.117263 -3.98736e-07 0.00103635)
(-0.118813 -4.12313e-07 0.000930273)
(-0.120192 -4.03561e-07 0.000823397)
(-0.121399 -3.74226e-07 0.000716174)
(-0.122433 -3.27604e-07 0.000609036)
(-0.123295 -2.68615e-07 0.000502393)
(-0.123986 -2.03169e-07 0.000396639)
(-0.124508 -1.37923e-07 0.000292154)
(-0.124862 -7.91681e-08 0.000189283)
(-0.125052 -3.21694e-08 8.82887e-05)
(-0.125081 2.03739e-10 -1.0597e-05)
(-0.124953 1.76829e-08 -0.000107046)
(-0.124672 2.18575e-08 -0.000200875)
(-0.124241 1.61272e-08 -0.000292018)
(-0.123665 4.63614e-09 -0.000380271)
(-0.12295 -9.0146e-09 -0.000465447)
(-0.122099 -2.20588e-08 -0.000547409)
(-0.121117 -3.28535e-08 -0.000626063)
(-0.120011 -4.11738e-08 -0.000701351)
(-0.118785 -4.76603e-08 -0.000773232)
(-0.117444 -5.29264e-08 -0.000841677)
(-0.115995 -5.73211e-08 -0.000906668)
(-0.114442 -6.04719e-08 -0.000968193)
(-0.112791 -6.12823e-08 -0.00102625)
(-0.111048 -5.87255e-08 -0.00108086)
(-0.109218 -5.27376e-08 -0.00113205)
(-0.107306 -4.44114e-08 -0.00117986)
(-0.105318 -3.59808e-08 -0.00122435)
(-0.103259 -2.96897e-08 -0.00126558)
(-0.101134 -2.67696e-08 -0.00130361)
(-0.0989478 -2.69122e-08 -0.00133852)
(-0.0967061 -2.83096e-08 -0.00137038)
(-0.0944133 -2.81972e-08 -0.00139926)
(-0.0920741 -2.39007e-08 -0.00142523)
(-0.089693 -1.39999e-08 -0.00144839)
(-0.0872745 1.43229e-09 -0.0014688)
(-0.0848227 2.07995e-08 -0.00148658)
(-0.0823418 4.14141e-08 -0.00150181)
(-0.0798359 6.06752e-08 -0.00151459)
(-0.0773089 7.66022e-08 -0.00152503)
(-0.0747643 8.80969e-08 -0.00153324)
(-0.0722057 9.47455e-08 -0.00153931)
(-0.0696366 9.65809e-08 -0.00154334)
(-0.06706 9.42769e-08 -0.00154543)
(-0.064479 8.91691e-08 -0.00154569)
(-0.0618966 8.30637e-08 -0.0015442)
(-0.0593155 7.77636e-08 -0.00154107)
(-0.0567382 7.46256e-08 -0.00153641)
(-0.0541672 7.42211e-08 -0.00153031)
(-0.0516049 7.63656e-08 -0.00152287)
(-0.0490533 8.01796e-08 -0.00151419)
(-0.0465146 8.47832e-08 -0.00150437)
(-0.0439906 8.95048e-08 -0.0014935)
(-0.0414831 9.42302e-08 -0.00148167)
(-0.0389935 9.93191e-08 -0.00146898)
(-0.0365235 1.05578e-07 -0.00145553)
(-0.0340742 1.13726e-07 -0.00144139)
(-0.0316468 1.24295e-07 -0.00142665)
(-0.0292424 1.37284e-07 -0.00141138)
(-0.0268619 1.5216e-07 -0.00139567)
(-0.0245061 1.67918e-07 -0.00137959)
(-0.0221756 1.83423e-07 -0.00136323)
(-0.0198711 1.9751e-07 -0.00134666)
(-0.0175929 2.09024e-07 -0.00132997)
(-0.0153414 2.17029e-07 -0.00131325)
(-0.0131167 2.20739e-07 -0.00129658)
(-0.0109188 2.19439e-07 -0.00128)
(-0.00874783 2.12551e-07 -0.00126361)
(-0.00660345 2.00033e-07 -0.00124764)
(-0.00448501 1.82596e-07 -0.00123264)
(-0.0023929 1.61862e-07 -0.00121826)
(-0.000326222 1.38536e-07 -0.00120299)
(0.00171556 1.13271e-07 -0.00118574)
(0.00372813 8.72225e-08 -0.00116752)
(0.00571551 6.15819e-08 -0.00114983)
(0.00767669 3.89527e-08 -0.00113266)
(0.0096124 2.16769e-08 -0.00111599)
(0.0115231 1.08251e-08 -0.00109977)
(0.0134093 6.01446e-09 -0.001084)
(0.0152715 5.67129e-09 -0.00106865)
(0.0171101 7.71006e-09 -0.00105369)
(0.0189255 1.00181e-08 -0.00103911)
(0.0207181 1.07987e-08 -0.00102487)
(0.0224883 8.74598e-09 -0.00101092)
(0.0242363 3.17315e-09 -0.000997218)
(0.0259623 -5.90682e-09 -0.000983682)
(0.0276664 -1.803e-08 -0.000970238)
(0.0293485 -3.22881e-08 -0.000956791)
(0.0310085 -4.73687e-08 -0.000943231)
(0.0326458 -6.19322e-08 -0.000929433)
(0.0342599 -7.47535e-08 -0.000915253)
(0.0358498 -8.48695e-08 -0.000900531)
(0.0374145 -9.1748e-08 -0.000885088)
(0.0389524 -9.52407e-08 -0.000868726)
(0.0404618 -9.56027e-08 -0.000851231)
(0.0419403 -9.35408e-08 -0.000832374)
(0.0433855 -8.96605e-08 -0.000811912)
(0.0447942 -8.48235e-08 -0.000789583)
(0.0461631 -7.96695e-08 -0.000765115)
(0.0474881 -7.47575e-08 -0.000738218)
(0.0487647 -7.0633e-08 -0.000708591)
(0.049988 -6.74849e-08 -0.000675924)
(0.0511525 -6.51517e-08 -0.000639901)
(0.052252 -6.29867e-08 -0.0006002)
(0.0532799 -6.0141e-08 -0.000556505)
(0.054229 -5.55901e-08 -0.000508505)
(0.0550915 -4.85517e-08 -0.000455902)
(0.0558592 -3.84115e-08 -0.000398418)
(0.0565233 -2.47842e-08 -0.000335809)
(0.0570746 -7.31107e-09 -0.000267884)
(0.0575034 1.40096e-08 -0.000194537)
(0.0578001 3.87344e-08 -0.000115779)
(0.0579543 6.63322e-08 -3.17293e-05)
(0.0579569 9.50246e-08 5.79355e-05)
(0.0577973 1.23833e-07 0.000153729)
(0.0574632 1.52353e-07 0.000255695)
(0.0569442 1.79318e-07 0.000363637)
(0.0562294 2.0354e-07 0.00047721)
(0.0553085 2.24078e-07 0.000595978)
(0.054172 2.40265e-07 0.000719394)
(0.052811 2.51868e-07 0.000846789)
(0.051218 2.59007e-07 0.000977352)
(0.0493866 2.62159e-07 0.00111011)
(0.0473121 2.61943e-07 0.00124391)
(0.0449919 2.58978e-07 0.00137739)
(0.0424254 2.53775e-07 0.00150898)
(0.0396152 2.46596e-07 0.00163684)
(0.0365666 2.37229e-07 0.00175884)
(0.033289 2.25017e-07 0.00187253)
(0.029796 2.0869e-07 0.00197509)
(0.0261062 1.86506e-07 0.00206327)
(0.0222442 1.57024e-07 0.00213334)
(0.0182413 1.19275e-07 0.00218096)
(0.014137 7.33995e-08 0.00220108)
(0.00998041 2.04539e-08 0.00218771)
(0.00583056 -3.79021e-08 0.00213384)
(0.00177117 -9.89144e-08 0.00202977)
(-0.00213307 -1.56195e-07 0.00185393)
(-0.00571796 -1.99886e-07 0.00159676)
(-0.00887684 -2.24597e-07 0.00125594)
(-0.0114304 -2.27178e-07 0.00081952)
(-0.0131814 -2.06003e-07 0.000271201)
(-0.0139043 -1.62914e-07 -0.000391257)
(-0.0133627 -1.00534e-07 -0.00112291)
(-0.0114021 -2.66366e-08 -0.00180909)
(-0.00807194 4.73251e-08 -0.00215909)
(-0.00394921 8.53499e-08 -0.00170875)
(-0.000675946 9.83527e-08 -0.000709783)
(0.000519359 -2.54049e-05 -0.00149892)
(0.00128595 -2.12299e-05 -0.00139325)
(0.00131731 -5.65122e-06 -0.000600331)
(0.000936103 -8.34218e-07 0.000196365)
(0.000244249 4.23585e-07 0.000836935)
(-0.000687555 5.11063e-07 0.00131834)
(-0.00180205 2.90169e-07 0.00167201)
(-0.00305876 9.8728e-08 0.00193418)
(-0.00443004 3.56709e-09 0.00213534)
(-0.00589865 -2.0027e-08 0.00229907)
(-0.00745483 -3.78298e-09 0.0024421)
(-0.00909457 2.26306e-08 0.00257604)
(-0.0108178 3.73418e-08 0.00270867)
(-0.012627 2.85426e-08 0.00284496)
(-0.0145262 -8.19775e-09 0.0029878)
(-0.0165202 -6.88951e-08 0.0031386)
(-0.0186138 -1.43611e-07 0.00329763)
(-0.0208116 -2.21394e-07 0.00346439)
(-0.0231176 -2.93205e-07 0.00363773)
(-0.0255346 -3.52641e-07 0.00381609)
(-0.0280648 -3.94937e-07 0.00399757)
(-0.0307089 -4.17453e-07 0.00418008)
(-0.0334664 -4.21003e-07 0.00436138)
(-0.0363353 -4.08816e-07 0.00453915)
(-0.0393126 -3.84109e-07 0.00471107)
(-0.0423936 -3.4916e-07 0.00487487)
(-0.0455723 -3.05969e-07 0.00502836)
(-0.0488417 -2.56769e-07 0.00516947)
(-0.0521932 -2.03679e-07 0.00529627)
(-0.0556175 -1.48121e-07 0.00540702)
(-0.059104 -9.09852e-08 0.00550017)
(-0.0626413 -3.31693e-08 0.00557439)
(-0.0662174 2.38925e-08 0.00562858)
(-0.0698196 7.83159e-08 0.00566185)
(-0.0734347 1.2819e-07 0.00567356)
(-0.0770492 1.71692e-07 0.00566333)
(-0.0806496 2.07024e-07 0.00563097)
(-0.0842221 2.32447e-07 0.00557654)
(-0.0877532 2.4639e-07 0.00550033)
(-0.0912296 2.47613e-07 0.00540279)
(-0.0946382 2.35623e-07 0.00528461)
(-0.0979664 2.10896e-07 0.00514662)
(-0.101202 1.7473e-07 0.00498981)
(-0.104334 1.294e-07 0.00481532)
(-0.107352 7.80417e-08 0.00462437)
(-0.110245 2.47523e-08 0.00441831)
(-0.113005 -2.58383e-08 0.00419854)
(-0.115623 -6.94823e-08 0.00396651)
(-0.118091 -1.02556e-07 0.00372368)
(-0.120404 -1.22692e-07 0.00347153)
(-0.122556 -1.28672e-07 0.00321151)
(-0.124541 -1.20732e-07 0.00294502)
(-0.126356 -1.00577e-07 0.00267343)
(-0.127997 -7.08887e-08 0.00239802)
(-0.129463 -3.53597e-08 0.00212002)
(-0.130752 1.92814e-09 0.00184063)
(-0.131862 3.71824e-08 0.00156094)
(-0.132794 6.73735e-08 0.00128203)
(-0.133549 9.04354e-08 0.00100492)
(-0.134127 1.05288e-07 0.000730568)
(-0.134531 1.11771e-07 0.000459906)
(-0.134762 1.10328e-07 0.000193815)
(-0.134824 1.02257e-07 -6.69623e-05)
(-0.134719 8.95891e-08 -0.000322026)
(-0.134452 7.45748e-08 -0.000570937)
(-0.134026 5.94025e-08 -0.000813069)
(-0.133445 4.58151e-08 -0.00104791)
(-0.132715 3.46534e-08 -0.00127503)
(-0.131839 2.60272e-08 -0.00149408)
(-0.130824 1.94674e-08 -0.00170482)
(-0.129672 1.41758e-08 -0.00190704)
(-0.128391 9.61416e-09 -0.00210062)
(-0.126984 5.73493e-09 -0.00228547)
(-0.125458 2.70972e-09 -0.00246153)
(-0.123818 7.93427e-10 -0.00262877)
(-0.122068 1.86017e-10 -0.0027872)
(-0.120215 7.9251e-10 -0.00293685)
(-0.118263 2.05885e-09 -0.00307779)
(-0.116217 3.1127e-09 -0.00321014)
(-0.114084 3.09167e-09 -0.00333401)
(-0.111868 1.67244e-09 -0.00344954)
(-0.109575 -7.46718e-10 -0.00355688)
(-0.107208 -3.21343e-09 -0.00365621)
(-0.104773 -4.66361e-09 -0.00374769)
(-0.102275 -4.34058e-09 -0.00383152)
(-0.0997191 -2.15093e-09 -0.00390789)
(-0.0971088 1.44879e-09 -0.00397703)
(-0.0944489 5.74197e-09 -0.00403915)
(-0.0917437 9.95865e-09 -0.00409447)
(-0.0889974 1.33504e-08 -0.00414321)
(-0.0862142 1.53681e-08 -0.00418563)
(-0.0833979 1.58789e-08 -0.00422197)
(-0.0805524 1.50937e-08 -0.00425246)
(-0.0776813 1.33026e-08 -0.00427734)
(-0.0747882 1.06738e-08 -0.00429685)
(-0.0718766 7.48895e-09 -0.00431122)
(-0.0689497 4.24741e-09 -0.00432068)
(-0.0660107 1.38343e-09 -0.00432545)
(-0.0630627 -9.27955e-10 -0.00432578)
(-0.0601085 -2.91769e-09 -0.00432189)
(-0.0571509 -4.96264e-09 -0.00431404)
(-0.0541927 -7.52056e-09 -0.00430244)
(-0.0512364 -1.09184e-08 -0.00428733)
(-0.0482844 -1.52054e-08 -0.00426894)
(-0.045339 -2.00723e-08 -0.00424747)
(-0.0424025 -2.50229e-08 -0.00422314)
(-0.0394769 -2.95463e-08 -0.00419615)
(-0.0365641 -3.31727e-08 -0.00416672)
(-0.033666 -3.55277e-08 -0.00413503)
(-0.0307843 -3.64503e-08 -0.0041013)
(-0.0279206 -3.60788e-08 -0.00406574)
(-0.0250764 -3.47567e-08 -0.00402854)
(-0.0222528 -3.28142e-08 -0.0039899)
(-0.0194513 -3.05731e-08 -0.00395003)
(-0.0166728 -2.83585e-08 -0.00390913)
(-0.0139183 -2.64755e-08 -0.00386738)
(-0.0111887 -2.5136e-08 -0.00382499)
(-0.00848452 -2.45986e-08 -0.00378222)
(-0.0058064 -2.53137e-08 -0.00373926)
(-0.0031548 -2.78589e-08 -0.00369659)
(-0.000529927 -3.25917e-08 -0.00365404)
(0.0020678 -3.91486e-08 -0.00361108)
(0.0046355 -4.64768e-08 -0.00356796)
(0.00717417 -5.36003e-08 -0.00352443)
(0.0096836 -5.97748e-08 -0.00347994)
(0.0121636 -6.48301e-08 -0.0034352)
(0.0146144 -6.88812e-08 -0.00339105)
(0.0170357 -7.17877e-08 -0.00334747)
(0.0194276 -7.33511e-08 -0.00330455)
(0.0217902 -7.3571e-08 -0.0032623)
(0.0241238 -7.27411e-08 -0.0032207)
(0.0264285 -7.12687e-08 -0.00317976)
(0.0287045 -6.95676e-08 -0.00313944)
(0.0309521 -6.79649e-08 -0.0030997)
(0.0331713 -6.66626e-08 -0.00306046)
(0.0353623 -6.57058e-08 -0.00302161)
(0.0375252 -6.50961e-08 -0.00298303)
(0.0396601 -6.48053e-08 -0.00294455)
(0.0417667 -6.47415e-08 -0.00290598)
(0.0438448 -6.47095e-08 -0.00286706)
(0.045894 -6.43752e-08 -0.00282753)
(0.0479137 -6.33895e-08 -0.00278705)
(0.0499031 -6.15052e-08 -0.00274525)
(0.0518611 -5.86302e-08 -0.0027017)
(0.0537863 -5.47978e-08 -0.00265592)
(0.0556769 -5.01516e-08 -0.00260739)
(0.057531 -4.48617e-08 -0.00255552)
(0.059346 -3.9147e-08 -0.00249966)
(0.061119 -3.32494e-08 -0.00243914)
(0.0628467 -2.73745e-08 -0.00237322)
(0.0645252 -2.16675e-08 -0.00230112)
(0.0661501 -1.62504e-08 -0.00222203)
(0.0677164 -1.1257e-08 -0.0021351)
(0.0692187 -6.82604e-09 -0.00203942)
(0.0706507 -2.94923e-09 -0.00193409)
(0.0720059 4.88621e-10 -0.00181818)
(0.0732768 3.7031e-09 -0.00169075)
(0.0744555 6.9266e-09 -0.00155088)
(0.0755333 1.02629e-08 -0.00139767)
(0.0765011 1.37571e-08 -0.00123027)
(0.0773491 1.74614e-08 -0.00104787)
(0.0780669 2.14075e-08 -0.000849738)
(0.0786438 2.55372e-08 -0.000635322)
(0.0790684 2.95776e-08 -0.000404224)
(0.0793288 3.31489e-08 -0.000156307)
(0.0794127 3.59259e-08 0.000108993)
(0.079308 3.77329e-08 0.000392689)
(0.0790023 3.83968e-08 0.000695077)
(0.0784834 3.78702e-08 0.00101582)
(0.077739 3.60204e-08 0.00135434)
(0.0767571 3.28182e-08 0.00170981)
(0.0755264 2.83451e-08 0.00208108)
(0.0740362 2.2768e-08 0.00246666)
(0.0722766 1.62386e-08 0.00286465)
(0.0702394 8.89024e-09 0.0032727)
(0.0679177 8.25786e-10 0.00368794)
(0.0653066 -7.87365e-09 0.00410694)
(0.0624034 -1.72545e-08 0.00452564)
(0.0592083 -2.72693e-08 0.00493924)
(0.0557247 -3.77443e-08 0.00534213)
(0.0519598 -4.85106e-08 0.00572775)
(0.0479251 -5.96037e-08 0.00608845)
(0.0436373 -7.12201e-08 0.00641533)
(0.0391192 -8.34443e-08 0.00669799)
(0.0344003 -9.60141e-08 0.00692418)
(0.0295182 -1.08629e-07 0.00707941)
(0.0245205 -1.21101e-07 0.0071464)
(0.019465 -1.33079e-07 0.00710392)
(0.0144251 -1.4354e-07 0.00692669)
(0.00948428 -1.50673e-07 0.00657677)
(0.00474914 -1.52957e-07 0.00601687)
(0.000338228 -1.48853e-07 0.00520823)
(-0.003594 -1.36635e-07 0.0040995)
(-0.00686776 -1.15789e-07 0.00264447)
(-0.0092935 -8.73977e-08 0.00081077)
(-0.0106583 -5.23046e-08 -0.00137042)
(-0.0107161 -1.0655e-08 -0.00372748)
(-0.00926491 3.73185e-08 -0.00579316)
(-0.00617079 8.35326e-08 -0.00652318)
(-0.00159473 1.41771e-07 -0.00414181)
(0.000505814 -2.54032e-05 -0.00149648)
(0.00130194 -2.12293e-05 -0.00143938)
(0.00134744 -5.65134e-06 -0.000640987)
(0.000949399 -8.34218e-07 0.000169564)
(0.000246698 4.23567e-07 0.000821293)
(-0.00068943 5.11034e-07 0.00131002)
(-0.00180492 2.90152e-07 0.00166794)
(-0.00306121 9.87229e-08 0.0019323)
(-0.00443171 3.56692e-09 0.00213451)
(-0.00589959 -2.00261e-08 0.00229869)
(-0.00745525 -3.78282e-09 0.00244189)
(-0.00909467 2.26297e-08 0.00257587)
(-0.0108177 3.73403e-08 0.00270849)
(-0.0126268 2.85415e-08 0.00284473)
(-0.014526 -8.19745e-09 0.00298752)
(-0.01652 -6.88926e-08 0.00313827)
(-0.0186135 -1.43606e-07 0.00329729)
(-0.0208113 -2.21386e-07 0.00346404)
(-0.0231172 -2.93195e-07 0.0036374)
(-0.0255342 -3.52629e-07 0.00381579)
(-0.0280643 -3.94923e-07 0.00399732)
(-0.0307083 -4.17439e-07 0.00417989)
(-0.0334657 -4.20988e-07 0.00436125)
(-0.0363346 -4.08802e-07 0.00453907)
(-0.0393118 -3.84096e-07 0.00471103)
(-0.0423927 -3.49149e-07 0.00487485)
(-0.0455714 -3.05959e-07 0.00502836)
(-0.0488408 -2.56761e-07 0.00516947)
(-0.0521923 -2.03672e-07 0.00529628)
(-0.0556165 -1.48116e-07 0.00540705)
(-0.059103 -9.09822e-08 0.00550022)
(-0.0626403 -3.31682e-08 0.00557448)
(-0.0662164 2.38917e-08 0.0056287)
(-0.0698186 7.83134e-08 0.00566201)
(-0.0734337 1.28186e-07 0.00567377)
(-0.0770483 1.71687e-07 0.00566357)
(-0.0806487 2.07018e-07 0.00563123)
(-0.0842212 2.32439e-07 0.00557681)
(-0.0877524 2.46382e-07 0.00550058)
(-0.0912287 2.47605e-07 0.00540302)
(-0.0946373 2.35615e-07 0.0052848)
(-0.0979656 2.10889e-07 0.00514677)
(-0.101201 1.74724e-07 0.0049899)
(-0.104333 1.29396e-07 0.00481534)
(-0.107351 7.80392e-08 0.00462435)
(-0.110244 2.47515e-08 0.00441824)
(-0.113004 -2.58375e-08 0.00419844)
(-0.115622 -6.948e-08 0.0039664)
(-0.118091 -1.02553e-07 0.00372357)
(-0.120403 -1.22688e-07 0.00347144)
(-0.122555 -1.28668e-07 0.00321146)
(-0.12454 -1.20728e-07 0.00294502)
(-0.126355 -1.00574e-07 0.00267348)
(-0.127996 -7.08864e-08 0.00239813)
(-0.129462 -3.53585e-08 0.00212018)
(-0.130751 1.92808e-09 0.00184082)
(-0.131861 3.71812e-08 0.00156116)
(-0.132793 6.73714e-08 0.00128226)
(-0.133548 9.04325e-08 0.00100513)
(-0.134126 1.05285e-07 0.000730749)
(-0.13453 1.11768e-07 0.000460046)
(-0.134761 1.10325e-07 0.000193909)
(-0.134823 1.02254e-07 -6.69111e-05)
(-0.134718 8.95864e-08 -0.000322013)
(-0.134451 7.45725e-08 -0.000570953)
(-0.134025 5.94007e-08 -0.000813101)
(-0.133444 4.58138e-08 -0.00104795)
(-0.132714 3.46524e-08 -0.00127506)
(-0.131838 2.60264e-08 -0.0014941)
(-0.130823 1.94668e-08 -0.00170483)
(-0.129671 1.41754e-08 -0.00190705)
(-0.12839 9.61388e-09 -0.00210064)
(-0.126983 5.73477e-09 -0.0022855)
(-0.125457 2.70964e-09 -0.00246157)
(-0.123817 7.93404e-10 -0.00262883)
(-0.122067 1.86011e-10 -0.00278726)
(-0.120214 7.92488e-10 -0.00293692)
(-0.118262 2.0588e-09 -0.00307788)
(-0.116217 3.11261e-09 -0.00321023)
(-0.114084 3.09158e-09 -0.0033341)
(-0.111868 1.6724e-09 -0.00344962)
(-0.109574 -7.46698e-10 -0.00355695)
(-0.107207 -3.21335e-09 -0.00365625)
(-0.104772 -4.66349e-09 -0.00374772)
(-0.102275 -4.34047e-09 -0.00383154)
(-0.0997183 -2.15088e-09 -0.00390791)
(-0.097108 1.44875e-09 -0.00397704)
(-0.0944481 5.74183e-09 -0.00403916)
(-0.0917429 9.95841e-09 -0.00409448)
(-0.0889967 1.33501e-08 -0.00414323)
(-0.0862134 1.53677e-08 -0.00418564)
(-0.0833971 1.58785e-08 -0.00422197)
(-0.0805516 1.50934e-08 -0.00425244)
(-0.0776806 1.33023e-08 -0.0042773)
(-0.0747875 1.06735e-08 -0.0042968)
(-0.0718759 7.48879e-09 -0.00431116)
(-0.068949 4.24732e-09 -0.0043206)
(-0.06601 1.3834e-09 -0.00432539)
(-0.0630619 -9.27936e-10 -0.00432574)
(-0.0601077 -2.91763e-09 -0.00432189)
(-0.0571502 -4.96254e-09 -0.00431406)
(-0.054192 -7.52042e-09 -0.00430248)
(-0.0512357 -1.09182e-08 -0.00428739)
(-0.0482837 -1.52051e-08 -0.00426899)
(-0.0453384 -2.00719e-08 -0.00424752)
(-0.0424019 -2.50225e-08 -0.00422318)
(-0.0394763 -2.95458e-08 -0.00419618)
(-0.0365636 -3.31721e-08 -0.00416674)
(-0.0336655 -3.55271e-08 -0.00413506)
(-0.0307839 -3.64497e-08 -0.00410133)
(-0.0279202 -3.60783e-08 -0.00406576)
(-0.0250759 -3.47562e-08 -0.00402854)
(-0.0222524 -3.28138e-08 -0.00398987)
(-0.0194509 -3.05727e-08 -0.00394995)
(-0.0166723 -2.83581e-08 -0.003909)
(-0.0139178 -2.64752e-08 -0.0038672)
(-0.0111882 -2.51357e-08 -0.00382477)
(-0.00848399 -2.45983e-08 -0.00378198)
(-0.00580584 -2.53134e-08 -0.00373903)
(-0.00315422 -2.78586e-08 -0.00369637)
(-0.000529319 -3.25914e-08 -0.00365384)
(0.00206843 -3.91482e-08 -0.0036109)
(0.00463613 -4.64763e-08 -0.00356779)
(0.0071748 -5.35998e-08 -0.00352428)
(0.00968423 -5.97743e-08 -0.00347982)
(0.0121643 -6.48295e-08 -0.0034351)
(0.014615 -6.88806e-08 -0.00339096)
(0.0170363 -7.17872e-08 -0.00334741)
(0.0194282 -7.33506e-08 -0.0033045)
(0.0217908 -7.35705e-08 -0.00326226)
(0.0241244 -7.27407e-08 -0.00322068)
(0.026429 -7.12683e-08 -0.00317974)
(0.028705 -6.95673e-08 -0.00313941)
(0.0309525 -6.79647e-08 -0.00309966)
(0.0331717 -6.66624e-08 -0.00306041)
(0.0353627 -6.57056e-08 -0.00302157)
(0.0375256 -6.5096e-08 -0.00298299)
(0.0396604 -6.48052e-08 -0.00294452)
(0.041767 -6.47414e-08 -0.00290595)
(0.0438451 -6.47094e-08 -0.00286704)
(0.0458943 -6.43751e-08 -0.00282751)
(0.0479141 -6.33895e-08 -0.00278703)
(0.0499034 -6.15052e-08 -0.00274523)
(0.0518614 -5.86302e-08 -0.00270168)
(0.0537866 -5.47978e-08 -0.0026559)
(0.0556772 -5.01516e-08 -0.00260736)
(0.0575313 -4.48618e-08 -0.00255546)
(0.0593463 -3.9147e-08 -0.00249958)
(0.0611194 -3.32495e-08 -0.00243904)
(0.0628471 -2.73745e-08 -0.00237309)
(0.0645255 -2.16676e-08 -0.00230098)
(0.0661504 -1.62505e-08 -0.00222188)
(0.0677168 -1.12571e-08 -0.00213494)
(0.069219 -6.82606e-09 -0.00203927)
(0.0706511 -2.94924e-09 -0.00193395)
(0.0720063 4.88623e-10 -0.00181804)
(0.0732772 3.70312e-09 -0.00169061)
(0.0744558 6.92663e-09 -0.00155074)
(0.0755337 1.02629e-08 -0.00139755)
(0.0765014 1.37572e-08 -0.00123014)
(0.0773494 1.74614e-08 -0.00104774)
(0.0780673 2.14076e-08 -0.000849616)
(0.0786442 2.55373e-08 -0.000635209)
(0.0790687 2.95778e-08 -0.00040412)
(0.0793292 3.3149e-08 -0.000156209)
(0.079413 3.59261e-08 0.000109094)
(0.0793083 3.77331e-08 0.000392801)
(0.0790026 3.8397e-08 0.000695204)
(0.0784837 3.78704e-08 0.00101596)
(0.0777393 3.60206e-08 0.0013545)
(0.0767575 3.28184e-08 0.00170998)
(0.0755268 2.83452e-08 0.00208125)
(0.0740365 2.27681e-08 0.0024668)
(0.072277 1.62387e-08 0.00286475)
(0.0702398 8.89028e-09 0.00327274)
(0.0679181 8.2579e-10 0.00368791)
(0.065307 -7.87369e-09 0.00410686)
(0.0624038 -1.72546e-08 0.00452551)
(0.0592088 -2.72694e-08 0.0049391)
(0.0557252 -3.77445e-08 0.00534199)
(0.0519602 -4.85109e-08 0.00572764)
(0.0479255 -5.96039e-08 0.00608837)
(0.0436376 -7.12205e-08 0.00641529)
(0.0391194 -8.34447e-08 0.00669798)
(0.0344004 -9.60145e-08 0.00692418)
(0.0295184 -1.08629e-07 0.0070794)
(0.0245206 -1.21102e-07 0.00714636)
(0.0194651 -1.3308e-07 0.00710386)
(0.0144251 -1.4354e-07 0.00692661)
(0.00948428 -1.50673e-07 0.00657669)
(0.00474912 -1.52958e-07 0.00601681)
(0.000338185 -1.48853e-07 0.00520821)
(-0.00359407 -1.36635e-07 0.00409952)
(-0.00686784 -1.15789e-07 0.00264454)
(-0.00929356 -8.73978e-08 0.000810881)
(-0.0106583 -5.23046e-08 -0.00137025)
(-0.010716 -1.06549e-08 -0.00372724)
(-0.00926481 3.73185e-08 -0.0057928)
(-0.00617049 8.35327e-08 -0.00652258)
(-0.00159437 1.41771e-07 -0.00414113)