/*--------------------------------*- C++ -*----------------------------------*\
  =========                 |
  \\      /  F ield         | OpenFOAM: The Open Source CFD Toolbox
   \\    /   O peration     | Website:  https://openfoam.org
    \\  /    A nd           | Version:  8
     \\/     M anipulation  |
\*---------------------------------------------------------------------------*/
FoamFile
{
    version     2.0;
    format      ascii;
    class       volScalarField;
    location    "800";
    object      alphat;
}
// * * * * * * * * * * * * * * * * * * * * * * * * * * * * * * * * * * * * * //

dimensions      [1 -1 -1 0 0 0 0];

internalField   nonuniform List<scalar> 
48000
(
0.000132003
0.000182846
3.81763e-05
4.28404e-05
4.9137e-05
5.24493e-05
5.57428e-05
5.87824e-05
6.15784e-05
6.42106e-05
6.67013e-05
6.90641e-05
7.13204e-05
7.34847e-05
7.55685e-05
7.75811e-05
7.95298e-05
8.14205e-05
8.32578e-05
8.50456e-05
8.67872e-05
8.84851e-05
9.01417e-05
9.17587e-05
9.33378e-05
9.48803e-05
9.63876e-05
9.78605e-05
9.93001e-05
0.000100707
0.000102082
0.000103426
0.000104739
0.000106022
0.000107275
0.000108498
0.000109692
0.000110858
0.000111995
0.000113103
0.000114184
0.000115237
0.000116263
0.000117261
0.000118232
0.000119176
0.000120094
0.000120985
0.000121849
0.000122688
0.0001235
0.000124287
0.000125048
0.000125784
0.000126495
0.00012718
0.000127841
0.000128478
0.00012909
0.000129678
0.000130242
0.000130782
0.000131299
0.000131793
0.000132264
0.000132713
0.000133138
0.000133542
0.000133923
0.000134283
0.000134621
0.000134938
0.000135233
0.000135508
0.000135762
0.000135996
0.000136209
0.000136404
0.000136579
0.000136735
0.000136872
0.00013699
0.000137089
0.00013717
0.000137232
0.000137276
0.000137302
0.000137311
0.000137301
0.000137275
0.000137231
0.000137169
0.000137092
0.000136997
0.000136886
0.000136759
0.000136615
0.000136455
0.00013628
0.000136089
0.000135882
0.00013566
0.000135423
0.00013517
0.000134903
0.00013462
0.000134323
0.000134011
0.000133685
0.000133344
0.000132988
0.000132619
0.000132235
0.000131836
0.000131424
0.000130997
0.000130556
0.000130101
0.000129632
0.000129149
0.000128652
0.00012814
0.000127614
0.000127075
0.00012652
0.000125952
0.000125369
0.000124772
0.00012416
0.000123534
0.000122893
0.000122237
0.000121567
0.000120881
0.000120181
0.000119466
0.000118735
0.00011799
0.000117229
0.000116453
0.000115661
0.000114854
0.000114031
0.000113193
0.000112338
0.000111468
0.000110582
0.00010968
0.000108762
0.000107827
0.000106876
0.000105909
0.000104925
0.000103925
0.000102908
0.000101875
0.000100824
9.97572e-05
9.86729e-05
9.75715e-05
9.64529e-05
9.5317e-05
9.41635e-05
9.29925e-05
9.18037e-05
9.05969e-05
8.93721e-05
8.81289e-05
8.68673e-05
8.55869e-05
8.42874e-05
8.29687e-05
8.16303e-05
8.02719e-05
7.8893e-05
7.7493e-05
7.60715e-05
7.46277e-05
7.31607e-05
7.16697e-05
7.01534e-05
6.86104e-05
6.70389e-05
6.54369e-05
6.3802e-05
6.21316e-05
6.04247e-05
5.86794e-05
5.69115e-05
5.50744e-05
5.31084e-05
5.07033e-05
4.57801e-05
3.34795e-05
3.06438e-05
3.10117e-05
3.41422e-05
0.000177049
0.00015535
0.00010406
0.000131973
0.00018264
3.81478e-05
4.28632e-05
4.91805e-05
5.24613e-05
5.57463e-05
5.87839e-05
6.15795e-05
6.42117e-05
6.67024e-05
6.90651e-05
7.13214e-05
7.34856e-05
7.55694e-05
7.7582e-05
7.95307e-05
8.14213e-05
8.32585e-05
8.50463e-05
8.67878e-05
8.84857e-05
9.01422e-05
9.17592e-05
9.33383e-05
9.48808e-05
9.6388e-05
9.7861e-05
9.93006e-05
0.000100708
0.000102083
0.000103426
0.000104739
0.000106022
0.000107275
0.000108498
0.000109692
0.000110858
0.000111995
0.000113104
0.000114184
0.000115237
0.000116263
0.000117261
0.000118232
0.000119176
0.000120094
0.000120985
0.000121849
0.000122688
0.0001235
0.000124287
0.000125048
0.000125784
0.000126495
0.00012718
0.000127841
0.000128478
0.00012909
0.000129678
0.000130242
0.000130782
0.000131299
0.000131793
0.000132264
0.000132712
0.000133138
0.000133542
0.000133923
0.000134283
0.000134621
0.000134938
0.000135233
0.000135508
0.000135762
0.000135995
0.000136209
0.000136404
0.000136579
0.000136735
0.000136872
0.00013699
0.000137089
0.00013717
0.000137232
0.000137276
0.000137302
0.00013731
0.000137301
0.000137274
0.00013723
0.000137169
0.000137091
0.000136997
0.000136886
0.000136758
0.000136615
0.000136455
0.00013628
0.000136089
0.000135882
0.00013566
0.000135422
0.00013517
0.000134902
0.00013462
0.000134323
0.000134011
0.000133685
0.000133344
0.000132988
0.000132618
0.000132234
0.000131836
0.000131424
0.000130997
0.000130556
0.000130101
0.000129632
0.000129149
0.000128651
0.00012814
0.000127614
0.000127074
0.00012652
0.000125952
0.000125369
0.000124771
0.00012416
0.000123533
0.000122892
0.000122237
0.000121566
0.000120881
0.000120181
0.000119466
0.000118735
0.00011799
0.000117229
0.000116453
0.000115661
0.000114854
0.000114031
0.000113193
0.000112338
0.000111468
0.000110582
0.00010968
0.000108761
0.000107827
0.000106876
0.000105909
0.000104925
0.000103925
0.000102908
0.000101875
0.000100824
9.97569e-05
9.86726e-05
9.75713e-05
9.64527e-05
9.53167e-05
9.41633e-05
9.29923e-05
9.18035e-05
9.05967e-05
8.93719e-05
8.81287e-05
8.68671e-05
8.55866e-05
8.42872e-05
8.29685e-05
8.16301e-05
8.02717e-05
7.88928e-05
7.74928e-05
7.60713e-05
7.46275e-05
7.31606e-05
7.16696e-05
7.01533e-05
6.86102e-05
6.70388e-05
6.54368e-05
6.38019e-05
6.21315e-05
6.04246e-05
5.86794e-05
5.69116e-05
5.50753e-05
5.31138e-05
5.07257e-05
4.58357e-05
3.35033e-05
3.06295e-05
3.09735e-05
3.41246e-05
0.000177154
0.000155374
0.000104052
0.000149507
0.000262814
0.000272844
0.000340878
0.000448032
0.00050784
0.000552634
0.000591274
0.00062601
0.00065771
0.000686984
0.000714354
0.000740149
0.000764615
0.000787935
0.000810251
0.000831674
0.000852294
0.000872185
0.000891407
0.000910011
0.000928039
0.000945529
0.000962513
0.000979018
0.000995068
0.00101069
0.00102589
0.00104069
0.00105511
0.00106917
0.00108286
0.00109621
0.00110922
0.0011219
0.00113425
0.0011463
0.00115803
0.00116946
0.0011806
0.00119144
0.00120199
0.00121225
0.00122224
0.00123194
0.00124138
0.00125053
0.00125942
0.00126805
0.0012764
0.0012845
0.00129233
0.00129991
0.00130724
0.00131431
0.00132113
0.0013277
0.00133402
0.00134011
0.00134595
0.00135155
0.00135691
0.00136204
0.00136694
0.0013716
0.00137604
0.00138025
0.00138424
0.00138801
0.00139156
0.00139489
0.00139801
0.00140091
0.00140361
0.00140609
0.00140836
0.00141041
0.00141219
0.00141378
0.00141518
0.00141639
0.00141741
0.00141824
0.00141888
0.00141934
0.00141962
0.00141972
0.00141964
0.00141939
0.00141896
0.00141836
0.00141759
0.00141665
0.00141554
0.00141427
0.00141283
0.00141123
0.00140948
0.00140756
0.00140548
0.00140325
0.00140087
0.00139833
0.00139563
0.00139279
0.0013898
0.00138665
0.00138336
0.00137992
0.00137634
0.0013726
0.00136873
0.0013647
0.00136053
0.00135622
0.00135176
0.00134716
0.00134241
0.00133751
0.00133248
0.00132729
0.00132196
0.00131649
0.00131086
0.00130509
0.00129918
0.00129311
0.0012869
0.00128054
0.00127403
0.00126736
0.00126055
0.00125359
0.00124647
0.0012392
0.00123177
0.00122419
0.00121646
0.00120857
0.00120053
0.00119232
0.00118396
0.00117545
0.00116677
0.00115793
0.00114894
0.00113978
0.00113047
0.00112099
0.00111135
0.00110155
0.00109158
0.00108145
0.00107116
0.0010607
0.00105008
0.00103929
0.00102833
0.0010172
0.00100591
0.000994444
0.000982808
0.000971
0.000959017
0.000946859
0.000934524
0.000922009
0.000909312
0.000896432
0.000883365
0.000870108
0.000856657
0.000843008
0.000829156
0.000815096
0.000800821
0.000786322
0.000771592
0.000756617
0.000741386
0.000725882
0.000710083
0.000693964
0.00067749
0.000660614
0.000643268
0.000625345
0.000606701
0.00058706
0.000566225
0.000543392
0.000515736
0.000474774
0.000409794
0.00036684
0.000330056
0.000282762
0.000320475
0.000249054
0.000118811
0.000149543
0.000263509
0.000273213
0.000340507
0.000447447
0.000507723
0.000552649
0.000591313
0.000626052
0.000657752
0.000687025
0.000714394
0.000740189
0.000764654
0.000787973
0.000810288
0.000831711
0.00085233
0.00087222
0.000891441
0.000910044
0.000928072
0.000945562
0.000962545
0.000979049
0.000995099
0.00101072
0.00102592
0.00104072
0.00105514
0.00106919
0.00108289
0.00109623
0.00110924
0.00112192
0.00113428
0.00114632
0.00115806
0.00116949
0.00118062
0.00119146
0.00120201
0.00121228
0.00122226
0.00123197
0.0012414
0.00125056
0.00125944
0.00126807
0.00127642
0.00128452
0.00129235
0.00129993
0.00130726
0.00131433
0.00132115
0.00132772
0.00133404
0.00134012
0.00134596
0.00135156
0.00135693
0.00136206
0.00136695
0.00137162
0.00137606
0.00138027
0.00138426
0.00138803
0.00139157
0.00139491
0.00139802
0.00140093
0.00140362
0.00140611
0.00140838
0.00141042
0.00141221
0.0014138
0.0014152
0.0014164
0.00141742
0.00141825
0.00141889
0.00141935
0.00141963
0.00141973
0.00141965
0.0014194
0.00141897
0.00141837
0.0014176
0.00141666
0.00141555
0.00141428
0.00141284
0.00141125
0.00140949
0.00140757
0.00140549
0.00140326
0.00140088
0.00139834
0.00139564
0.0013928
0.00138981
0.00138666
0.00138337
0.00137993
0.00137635
0.00137261
0.00136874
0.00136471
0.00136054
0.00135623
0.00135177
0.00134717
0.00134242
0.00133752
0.00133248
0.0013273
0.00132197
0.0013165
0.00131087
0.0013051
0.00129919
0.00129312
0.00128691
0.00128055
0.00127404
0.00126737
0.00126056
0.00125359
0.00124648
0.00123921
0.00123178
0.0012242
0.00121647
0.00120858
0.00120053
0.00119233
0.00118397
0.00117545
0.00116678
0.00115794
0.00114895
0.00113979
0.00113047
0.001121
0.00111136
0.00110155
0.00109159
0.00108146
0.00107117
0.00106071
0.00105008
0.00103929
0.00102834
0.00101721
0.00100592
0.000994451
0.000982815
0.000971007
0.000959024
0.000946866
0.00093453
0.000922016
0.000909319
0.000896439
0.000883372
0.000870115
0.000856664
0.000843015
0.000829163
0.000815103
0.000800828
0.00078633
0.000771599
0.000756625
0.000741394
0.000725889
0.000710091
0.000693972
0.000677498
0.000660622
0.000643276
0.000625354
0.00060671
0.000587072
0.000566249
0.000543452
0.000515861
0.000474853
0.000409815
0.000366947
0.000330455
0.000282706
0.000319529
0.000248699
0.000118815
0.000196298
0.000390322
0.000551905
0.00071046
0.000861285
0.000984284
0.00108802
0.00117866
0.00125974
0.00133341
0.00140114
0.00146403
0.00152291
0.00157836
0.00163085
0.00168074
0.00172832
0.00177382
0.00181744
0.00185933
0.00189962
0.00193845
0.0019759
0.00201207
0.00204703
0.00208086
0.00211362
0.00214536
0.00217613
0.00220599
0.00223496
0.0022631
0.00229042
0.00231697
0.00234277
0.00236785
0.00239222
0.00241591
0.00243894
0.00246132
0.00248307
0.00250421
0.00252474
0.00254467
0.00256403
0.00258281
0.00260102
0.00261868
0.0026358
0.00265237
0.0026684
0.00268391
0.0026989
0.00271337
0.00272732
0.00274078
0.00275373
0.00276619
0.00277816
0.00278965
0.00280065
0.00281118
0.00282124
0.00283084
0.00283997
0.00284865
0.00285688
0.00286466
0.002872
0.0028789
0.00288537
0.00289141
0.00289702
0.00290222
0.00290699
0.00291134
0.00291526
0.00291875
0.00292179
0.00292444
0.00292671
0.0029286
0.00293011
0.00293125
0.00293203
0.00293244
0.00293249
0.00293219
0.00293153
0.00293053
0.00292918
0.00292749
0.00292546
0.0029231
0.00292042
0.0029174
0.00291406
0.0029104
0.00290642
0.00290213
0.00289752
0.00289261
0.00288738
0.00288186
0.00287603
0.00286989
0.00286346
0.00285674
0.00284971
0.00284239
0.00283478
0.00282688
0.00281868
0.00281019
0.00280141
0.00279234
0.00278297
0.00277332
0.00276337
0.00275313
0.0027426
0.00273177
0.00272065
0.00270923
0.00269752
0.00268551
0.00267321
0.0026606
0.00264769
0.00263449
0.00262098
0.00260716
0.00259305
0.00257862
0.00256389
0.00254885
0.0025335
0.00251784
0.00250187
0.00248558
0.00246898
0.00245207
0.00243484
0.00241729
0.00239942
0.00238124
0.00236273
0.0023439
0.00232475
0.00230528
0.00228548
0.00226535
0.00224489
0.00222411
0.00220299
0.00218154
0.00215975
0.00213762
0.00211515
0.00209234
0.00206917
0.00204566
0.00202178
0.00199755
0.00197294
0.00194796
0.0019226
0.00189685
0.00187069
0.00184413
0.00181714
0.00178971
0.00176182
0.00173346
0.0017046
0.00167522
0.00164528
0.00161476
0.0015836
0.00155175
0.00151916
0.00148576
0.00145143
0.00141608
0.00137954
0.0013416
0.001302
0.00126034
0.00121611
0.00116861
0.00111654
0.00105718
0.000985295
0.000899131
0.0008125
0.000721911
0.000613493
0.000499717
0.000337955
0.000154716
0.000196315
0.000389446
0.000551202
0.000709562
0.000860869
0.000984227
0.00108808
0.00117874
0.00125983
0.00133349
0.00140122
0.00146412
0.00152299
0.00157844
0.00163093
0.00168082
0.0017284
0.00177389
0.00181751
0.00185939
0.00189968
0.00193851
0.00197596
0.00201212
0.00204708
0.00208091
0.00211367
0.0021454
0.00217618
0.00220603
0.00223501
0.00226314
0.00229046
0.00231701
0.00234281
0.00236788
0.00239225
0.00241594
0.00243897
0.00246135
0.0024831
0.00250423
0.00252476
0.0025447
0.00256405
0.00258283
0.00260104
0.0026187
0.00263581
0.00265238
0.00266842
0.00268392
0.00269891
0.00271338
0.00272734
0.00274079
0.00275374
0.0027662
0.00277817
0.00278965
0.00280066
0.00281119
0.00282125
0.00283084
0.00283997
0.00284865
0.00285688
0.00286466
0.002872
0.0028789
0.00288537
0.00289141
0.00289702
0.00290222
0.00290699
0.00291134
0.00291526
0.00291874
0.00292178
0.00292444
0.0029267
0.00292859
0.00293011
0.00293125
0.00293202
0.00293243
0.00293248
0.00293218
0.00293152
0.00293052
0.00292917
0.00292748
0.00292546
0.0029231
0.00292041
0.00291739
0.00291405
0.00291039
0.00290641
0.00290212
0.00289751
0.0028926
0.00288737
0.00288185
0.00287602
0.00286988
0.00286345
0.00285673
0.0028497
0.00284238
0.00283477
0.00282686
0.00281867
0.00281018
0.0028014
0.00279232
0.00278296
0.0027733
0.00276335
0.00275311
0.00274258
0.00273176
0.00272063
0.00270922
0.00269751
0.0026855
0.00267319
0.00266059
0.00264768
0.00263447
0.00262096
0.00260715
0.00259303
0.00257861
0.00256387
0.00254883
0.00253348
0.00251782
0.00250185
0.00248556
0.00246896
0.00245205
0.00243482
0.00241727
0.0023994
0.00238122
0.00236271
0.00234389
0.00232473
0.00230526
0.00228546
0.00226533
0.00224488
0.00222409
0.00220297
0.00218152
0.00215973
0.0021376
0.00211513
0.00209232
0.00206916
0.00204564
0.00202177
0.00199753
0.00197293
0.00194795
0.00192259
0.00189683
0.00187068
0.00184411
0.00181712
0.00178969
0.00176181
0.00173345
0.00170459
0.00167521
0.00164527
0.00161474
0.00158358
0.00155174
0.00151915
0.00148574
0.00145142
0.00141607
0.00137953
0.00134159
0.00130199
0.00126033
0.00121611
0.00116861
0.00111656
0.00105725
0.000985277
0.000899002
0.000812193
0.000721538
0.000612423
0.000498928
0.000337592
0.00015475
0.000244643
0.00046728
0.00071402
0.000959879
0.00117873
0.00136612
0.00152795
0.00167033
0.0017978
0.00191353
0.0020198
0.0021183
0.00221028
0.0022967
0.00237828
0.00245562
0.00252917
0.00259931
0.00266636
0.00273058
0.00279219
0.00285139
0.00290834
0.00296319
0.00301607
0.0030671
0.00311638
0.00316401
0.00321008
0.00325466
0.00329782
0.00333963
0.00338016
0.00341944
0.00345754
0.00349449
0.00353035
0.00356513
0.00359889
0.00363164
0.00366343
0.00369427
0.00372418
0.00375319
0.00378132
0.00380858
0.003835
0.00386058
0.00388535
0.00390931
0.00393247
0.00395485
0.00397646
0.00399731
0.00401741
0.00403676
0.00405538
0.00407328
0.00409046
0.00410693
0.00412271
0.00413779
0.00415218
0.0041659
0.00417895
0.00419134
0.00420307
0.00421415
0.0042246
0.00423441
0.00424359
0.00425216
0.0042601
0.00426744
0.00427417
0.0042803
0.00428583
0.00429074
0.00429505
0.00429877
0.00430193
0.00430454
0.00430661
0.00430815
0.00430915
0.00430963
0.0043096
0.00430904
0.00430799
0.00430643
0.00430437
0.00430183
0.00429879
0.00429528
0.0042913
0.00428684
0.00428192
0.00427654
0.0042707
0.0042644
0.00425766
0.00425047
0.00424284
0.00423478
0.00422627
0.00421734
0.00420797
0.00419818
0.00418796
0.00417731
0.00416624
0.00415475
0.00414284
0.00413051
0.00411776
0.00410459
0.00409099
0.00407698
0.00406255
0.00404769
0.00403242
0.00401672
0.0040006
0.00398405
0.00396707
0.00394967
0.00393184
0.00391358
0.00389488
0.00387575
0.00385619
0.00383619
0.00381575
0.00379487
0.00377354
0.00375178
0.00372957
0.00370691
0.00368381
0.00366025
0.00363625
0.00361179
0.00358687
0.0035615
0.00353568
0.00350939
0.00348264
0.00345543
0.00342776
0.00339961
0.003371
0.00334191
0.00331235
0.00328231
0.00325179
0.00322078
0.00318928
0.00315728
0.00312478
0.00309177
0.00305825
0.0030242
0.00298962
0.00295449
0.00291881
0.00288255
0.00284571
0.00280826
0.00277019
0.00273147
0.00269208
0.00265198
0.00261115
0.00256953
0.00252709
0.00248378
0.00243952
0.00239425
0.00234789
0.00230032
0.00225144
0.00220108
0.00214908
0.0020952
0.00203916
0.00198059
0.00191901
0.00185379
0.00178409
0.00170879
0.00162633
0.00153444
0.00142979
0.00131001
0.0011755
0.00102187
0.000840695
0.00062956
0.000394151
0.00018094
0.000244691
0.000465979
0.000714415
0.000960083
0.00117879
0.00136621
0.00152806
0.00167046
0.00179793
0.00191365
0.00201993
0.00211842
0.0022104
0.00229681
0.00237839
0.00245573
0.00252927
0.00259941
0.00266646
0.00273067
0.00279228
0.00285147
0.00290842
0.00296327
0.00301614
0.00306717
0.00311645
0.00316408
0.00321014
0.00325472
0.00329788
0.00333969
0.00338021
0.00341949
0.00345759
0.00349454
0.00353039
0.00356517
0.00359893
0.00363168
0.00366346
0.0036943
0.00372421
0.00375322
0.00378134
0.00380861
0.00383502
0.0038606
0.00388536
0.00390932
0.00393248
0.00395486
0.00397647
0.00399732
0.00401741
0.00403677
0.00405539
0.00407328
0.00409046
0.00410693
0.0041227
0.00413778
0.00415218
0.0041659
0.00417894
0.00419133
0.00420306
0.00421415
0.00422459
0.0042344
0.00424358
0.00425214
0.00426009
0.00426743
0.00427416
0.00428029
0.00428581
0.00429072
0.00429503
0.00429875
0.00430191
0.00430452
0.0043066
0.00430813
0.00430913
0.00430961
0.00430957
0.00430902
0.00430796
0.0043064
0.00430435
0.0043018
0.00429877
0.00429526
0.00429127
0.00428682
0.00428189
0.00427651
0.00427067
0.00426438
0.00425763
0.00425045
0.00424282
0.00423475
0.00422625
0.00421731
0.00420794
0.00419815
0.00418793
0.00417728
0.00416621
0.00415472
0.00414281
0.00413048
0.00411773
0.00410455
0.00409096
0.00407695
0.00406252
0.00404766
0.00403239
0.00401669
0.00400056
0.00398401
0.00396704
0.00394964
0.0039318
0.00391354
0.00389485
0.00387572
0.00385615
0.00383615
0.00381571
0.00379483
0.00377351
0.00375174
0.00372953
0.00370688
0.00368377
0.00366022
0.00363621
0.00361175
0.00358684
0.00356147
0.00353564
0.00350935
0.00348261
0.0034554
0.00342772
0.00339958
0.00337096
0.00334188
0.00331232
0.00328228
0.00325175
0.00322074
0.00318924
0.00315724
0.00312475
0.00309174
0.00305821
0.00302416
0.00298958
0.00295445
0.00291877
0.00288251
0.00284567
0.00280823
0.00277015
0.00273144
0.00269204
0.00265195
0.00261111
0.0025695
0.00252706
0.00248374
0.00243949
0.00239422
0.00234785
0.00230029
0.00225141
0.00220105
0.00214905
0.00209517
0.00203913
0.00198056
0.00191898
0.00185376
0.00178406
0.00170877
0.0016263
0.00153441
0.00142968
0.0013098
0.00117522
0.0010216
0.000840156
0.000628723
0.000393346
0.000181099
0.000307394
0.000513298
0.000822613
0.00113986
0.00142471
0.00167117
0.00188555
0.00207498
0.00224495
0.00239947
0.00254144
0.00267304
0.00279589
0.00291125
0.00302009
0.00312318
0.00322116
0.00331452
0.00340368
0.003489
0.00357077
0.00364926
0.00372469
0.00379725
0.00386713
0.00393448
0.00399944
0.00406215
0.00412271
0.00418124
0.00423784
0.00429259
0.00434557
0.00439687
0.00444654
0.00449467
0.00454129
0.00458647
0.00463025
0.00467269
0.00471381
0.00475367
0.00479228
0.00482969
0.00486592
0.00490101
0.00493496
0.00496782
0.00499959
0.0050303
0.00505997
0.00508862
0.00511625
0.00514289
0.00516855
0.00519324
0.00521698
0.00523977
0.00526164
0.0052826
0.00530265
0.0053218
0.00534008
0.00535748
0.00537402
0.0053897
0.00540455
0.00541857
0.00543176
0.00544415
0.00545573
0.00546651
0.00547651
0.00548573
0.00549418
0.00550187
0.00550879
0.00551495
0.00552036
0.00552502
0.00552896
0.0055322
0.00553475
0.00553662
0.00553781
0.00553834
0.0055382
0.00553742
0.00553599
0.00553392
0.00553123
0.00552791
0.00552398
0.00551944
0.0055143
0.00550856
0.00550224
0.00549533
0.00548784
0.00547977
0.00547114
0.00546195
0.0054522
0.00544189
0.00543103
0.00541962
0.00540767
0.00539518
0.00538215
0.00536858
0.00535447
0.00533983
0.00532466
0.00530896
0.00529272
0.00527596
0.00525866
0.00524083
0.00522247
0.00520357
0.00518415
0.00516418
0.00514368
0.00512265
0.00510107
0.00507896
0.0050563
0.00503309
0.00500934
0.00498504
0.0049602
0.0049348
0.00490884
0.00488233
0.00485526
0.00482763
0.00479944
0.00477069
0.00474137
0.00471148
0.00468102
0.00464999
0.00461839
0.0045862
0.00455344
0.0045201
0.00448617
0.00445166
0.00441655
0.00438085
0.00434455
0.00430765
0.00427015
0.00423203
0.00419329
0.00415393
0.00411394
0.0040733
0.00403202
0.00399007
0.00394746
0.00390415
0.00386015
0.00381542
0.00376996
0.00372373
0.00367672
0.00362889
0.00358021
0.00353065
0.00348016
0.0034287
0.0033762
0.00332261
0.00326786
0.00321186
0.00315452
0.00309571
0.00303532
0.00297318
0.0029091
0.00284287
0.00277421
0.00270278
0.00262816
0.00254982
0.00246708
0.00237908
0.0022847
0.00218245
0.00207044
0.00194622
0.0018066
0.00164791
0.00146594
0.00125409
0.00100395
0.000713183
0.00040618
0.000198074
0.000307339
0.000512322
0.000824067
0.00114072
0.00142502
0.00167133
0.0018857
0.00207513
0.00224511
0.00239963
0.0025416
0.00267319
0.00279604
0.00291139
0.00302023
0.00312332
0.00322129
0.00331465
0.0034038
0.00348912
0.00357089
0.00364937
0.0037248
0.00379736
0.00386723
0.00393458
0.00399954
0.00406224
0.0041228
0.00418132
0.00423792
0.00429266
0.00434564
0.00439693
0.00444661
0.00449472
0.00454135
0.00458652
0.0046303
0.00467273
0.00471386
0.00475371
0.00479232
0.00482973
0.00486596
0.00490104
0.00493499
0.00496784
0.00499962
0.00503033
0.00505999
0.00508863
0.00511626
0.0051429
0.00516856
0.00519325
0.00521698
0.00523978
0.00526165
0.0052826
0.00530265
0.0053218
0.00534007
0.00535747
0.00537401
0.0053897
0.00540454
0.00541856
0.00543175
0.00544413
0.00545571
0.0054665
0.0054765
0.00548572
0.00549417
0.00550185
0.00550877
0.00551493
0.00552034
0.005525
0.00552894
0.00553218
0.00553473
0.00553659
0.00553779
0.00553831
0.00553818
0.00553739
0.00553596
0.0055339
0.0055312
0.00552788
0.00552395
0.00551941
0.00551427
0.00550853
0.0055022
0.00549529
0.0054878
0.00547974
0.00547111
0.00546192
0.00545216
0.00544185
0.005431
0.00541959
0.00540764
0.00539514
0.00538211
0.00536854
0.00535444
0.0053398
0.00532463
0.00530892
0.00529269
0.00527592
0.00525862
0.00524079
0.00522243
0.00520353
0.00518411
0.00516414
0.00514364
0.00512261
0.00510103
0.00507891
0.00505625
0.00503305
0.0050093
0.004985
0.00496015
0.00493475
0.0049088
0.00488229
0.00485522
0.00482759
0.0047994
0.00477065
0.00474132
0.00471144
0.00468098
0.00464995
0.00461834
0.00458616
0.0045534
0.00452005
0.00448613
0.00445161
0.00441651
0.00438081
0.00434451
0.00430761
0.0042701
0.00423198
0.00419325
0.00415388
0.00411389
0.00407326
0.00403197
0.00399003
0.00394741
0.00390411
0.0038601
0.00381537
0.00376991
0.00372368
0.00367667
0.00362884
0.00358017
0.00353061
0.00348012
0.00342865
0.00337616
0.00332257
0.00326782
0.00321182
0.00315447
0.00309567
0.00303528
0.00297314
0.00290907
0.00284284
0.00277417
0.00270274
0.00262812
0.00254979
0.00246705
0.00237905
0.00228467
0.00218242
0.00207042
0.0019462
0.00180656
0.00164784
0.00146585
0.00125397
0.0010034
0.000711631
0.000405949
0.000198123
0.000370734
0.000561341
0.000915048
0.00128653
0.00162519
0.00192148
0.00218114
0.00241171
0.00261927
0.00280837
0.00298239
0.00314384
0.00329467
0.00343637
0.00357011
0.00369683
0.00381727
0.00393205
0.00404168
0.00414658
0.00424713
0.00434363
0.00443635
0.00452553
0.00461138
0.0046941
0.00477385
0.00485079
0.00492506
0.00499679
0.0050661
0.0051331
0.0051979
0.00526057
0.00532122
0.00537991
0.00543673
0.00549173
0.00554499
0.00559656
0.00564649
0.00569483
0.00574163
0.00578692
0.00583076
0.00587316
0.00591417
0.00595381
0.00599212
0.00602912
0.00606484
0.00609929
0.0061325
0.0061645
0.00619529
0.00622491
0.00625336
0.00628067
0.00630685
0.00633191
0.00635588
0.00637877
0.00640058
0.00642134
0.00644106
0.00645976
0.00647744
0.00649412
0.00650981
0.00652452
0.00653827
0.00655107
0.00656292
0.00657385
0.00658385
0.00659293
0.00660112
0.0066084
0.00661479
0.00662031
0.00662495
0.00662876
0.00663174
0.00663391
0.00663528
0.00663585
0.00663564
0.00663465
0.00663289
0.00663038
0.00662712
0.00662313
0.0066184
0.00661295
0.00660679
0.00659992
0.00659235
0.00658408
0.00657514
0.00656551
0.00655521
0.00654425
0.00653262
0.00652033
0.00650739
0.0064938
0.00647957
0.0064647
0.00644919
0.00643304
0.00641626
0.00639885
0.00638081
0.00636213
0.00634283
0.0063229
0.00630235
0.00628116
0.00625935
0.0062369
0.00621382
0.00619012
0.00616577
0.0061408
0.00611518
0.00608893
0.00606204
0.0060345
0.00600632
0.00597749
0.00594801
0.00591788
0.0058871
0.00585565
0.00582355
0.00579079
0.00575737
0.00572328
0.00568852
0.00565308
0.00561698
0.00558019
0.00554273
0.00550459
0.00546575
0.00542623
0.00538602
0.0053451
0.00530349
0.00526117
0.00521813
0.00517438
0.0051299
0.00508469
0.00503874
0.00499203
0.00494456
0.00489632
0.00484729
0.00479746
0.00474681
0.00469532
0.00464296
0.00458972
0.00453556
0.00448046
0.00442438
0.00436727
0.00430909
0.00424979
0.00418932
0.0041276
0.00406456
0.00400011
0.00393415
0.00386657
0.00379724
0.003726
0.00365268
0.00357706
0.0034989
0.00341789
0.00333367
0.00324579
0.00315373
0.00305678
0.0029541
0.00284462
0.00272694
0.00259933
0.00245953
0.00230472
0.00213129
0.00193466
0.00170895
0.00144645
0.00113871
0.000786188
0.000430595
0.00023209
0.000370622
0.000560857
0.000917112
0.00128772
0.00162563
0.00192168
0.00218131
0.00241188
0.00261945
0.00280855
0.00298257
0.00314402
0.00329485
0.00343654
0.00357028
0.00369699
0.00381743
0.0039322
0.00404183
0.00414673
0.00424727
0.00434376
0.00443648
0.00452566
0.0046115
0.00469422
0.00477396
0.0048509
0.00492517
0.00499689
0.0050662
0.0051332
0.00519798
0.00526065
0.0053213
0.00537999
0.0054368
0.0054918
0.00554505
0.00559662
0.00564654
0.00569488
0.00574168
0.00578697
0.0058308
0.0058732
0.00591421
0.00595385
0.00599216
0.00602915
0.00606486
0.00609932
0.00613253
0.00616452
0.00619531
0.00622493
0.00625338
0.00628068
0.00630686
0.00633192
0.00635589
0.00637877
0.00640058
0.00642134
0.00644106
0.00645976
0.00647743
0.00649411
0.0065098
0.00652451
0.00653826
0.00655106
0.00656291
0.00657383
0.00658383
0.00659292
0.0066011
0.00660838
0.00661478
0.00662029
0.00662493
0.00662874
0.00663172
0.00663389
0.00663525
0.00663582
0.00663561
0.00663462
0.00663287
0.00663035
0.0066271
0.0066231
0.00661837
0.00661292
0.00660676
0.00659988
0.00659231
0.00658405
0.0065751
0.00656548
0.00655518
0.00654421
0.00653258
0.0065203
0.00650736
0.00649377
0.00647954
0.00646466
0.00644915
0.006433
0.00641622
0.00639881
0.00638077
0.0063621
0.00634279
0.00632286
0.00630231
0.00628112
0.0062593
0.00623686
0.00621378
0.00619007
0.00616573
0.00614076
0.00611514
0.00608889
0.00606199
0.00603446
0.00600628
0.00597745
0.00594797
0.00591784
0.00588705
0.00585561
0.00582351
0.00579075
0.00575732
0.00572323
0.00568847
0.00565304
0.00561693
0.00558015
0.00554268
0.00550454
0.00546571
0.00542618
0.00538597
0.00534506
0.00530344
0.00526112
0.00521808
0.00517433
0.00512985
0.00508464
0.00503869
0.00499198
0.00494452
0.00489627
0.00484725
0.00479741
0.00474676
0.00469527
0.00464291
0.00458967
0.00453552
0.00448041
0.00442433
0.00436722
0.00430904
0.00424975
0.00418927
0.00412755
0.00406451
0.00400006
0.00393411
0.00386653
0.0037972
0.00372596
0.00365264
0.00357702
0.00349886
0.00341785
0.00333363
0.00324576
0.00315369
0.00305674
0.00295407
0.00284458
0.00272691
0.00259929
0.0024595
0.0023047
0.00213127
0.00193464
0.00170896
0.00144649
0.0011387
0.000785831
0.000431884
0.000231775
0.000417148
0.000592549
0.000998677
0.00141513
0.00179627
0.00213316
0.00243089
0.00269678
0.00293707
0.00315657
0.00335894
0.00354697
0.00372283
0.00388819
0.00404438
0.00419248
0.00433333
0.00446765
0.00459601
0.0047189
0.00483674
0.00494988
0.00505863
0.00516326
0.005264
0.00536108
0.00545468
0.00554498
0.00563215
0.00571631
0.00579762
0.0058762
0.00595216
0.0060256
0.00609663
0.00616534
0.00623182
0.00629614
0.00635838
0.0064186
0.00647688
0.00653326
0.0065878
0.00664055
0.00669157
0.00674089
0.00678855
0.00683459
0.00687906
0.00692197
0.00696337
0.00700327
0.00704172
0.00707874
0.00711434
0.00714856
0.00718141
0.00721293
0.00724312
0.00727201
0.00729963
0.00732598
0.00735108
0.00737496
0.00739763
0.00741911
0.00743941
0.00745855
0.00747654
0.00749341
0.00750916
0.00752382
0.00753738
0.00754988
0.00756131
0.00757169
0.00758104
0.00758936
0.00759666
0.00760297
0.00760827
0.00761262
0.00761601
0.00761847
0.00762002
0.00762065
0.00762038
0.00761923
0.0076172
0.00761431
0.00761056
0.00760597
0.00760055
0.0075943
0.00758724
0.00757937
0.0075707
0.00756125
0.00755102
0.00754001
0.00752824
0.0075157
0.00750241
0.00748838
0.0074736
0.00745809
0.00744184
0.00742486
0.00740716
0.00738873
0.00736959
0.00734972
0.00732914
0.00730785
0.00728584
0.00726312
0.00723968
0.00721553
0.00719067
0.00716509
0.0071388
0.00711179
0.00708406
0.00705561
0.00702643
0.00699654
0.00696591
0.00693456
0.00690248
0.00686966
0.0068361
0.00680181
0.00676677
0.00673099
0.00669447
0.00665719
0.00661916
0.00658037
0.00654083
0.00650052
0.00645945
0.0064176
0.00637499
0.00633159
0.00628742
0.00624246
0.00619671
0.00615016
0.00610281
0.00605465
0.00600568
0.00595588
0.00590524
0.00585377
0.00580143
0.00574823
0.00569415
0.00563916
0.00558326
0.00552642
0.00546862
0.00540984
0.00535004
0.00528919
0.00522726
0.0051642
0.00509997
0.00503451
0.00496777
0.00489968
0.00483017
0.00475914
0.00468651
0.00461216
0.00453596
0.00445778
0.00437745
0.00429477
0.00420952
0.00412144
0.00403022
0.00393548
0.0038368
0.00373361
0.00362528
0.00351097
0.00338969
0.00326016
0.00312081
0.00296961
0.00280406
0.00262095
0.00241625
0.00218482
0.00192009
0.0016134
0.00125254
0.000821124
0.000341873
4.42475e-05
0.000417082
0.000593189
0.00100122
0.00141653
0.00179681
0.0021334
0.00243107
0.00269696
0.00293726
0.00315676
0.00335913
0.00354716
0.00372302
0.00388837
0.00404456
0.00419266
0.00433351
0.00446782
0.00459617
0.00471906
0.0048369
0.00495003
0.00505878
0.0051634
0.00526414
0.00536121
0.00545481
0.00554511
0.00563227
0.00571643
0.00579773
0.00587631
0.00595226
0.0060257
0.00609673