/*--------------------------------*- C++ -*----------------------------------*\
  =========                 |
  \\      /  F ield         | OpenFOAM: The Open Source CFD Toolbox
   \\    /   O peration     | Website:  https://openfoam.org
    \\  /    A nd           | Version:  8
     \\/     M anipulation  |
\*---------------------------------------------------------------------------*/
FoamFile
{
    version     2.0;
    format      ascii;
    class       volScalarField;
    location    "800";
    object      k;
}
// * * * * * * * * * * * * * * * * * * * * * * * * * * * * * * * * * * * * * //

dimensions      [0 2 -2 0 0 0 0];

internalField   nonuniform List<scalar> 
48000
(
0.0160864
0.0194213
0.0201172
0.0222201
0.0221986
0.0254445
0.0288197
0.0320669
0.035194
0.0382637
0.0412913
0.0442697
0.0472111
0.0501214
0.0530059
0.0558683
0.0587116
0.0615377
0.0643477
0.0671423
0.0699217
0.0726859
0.0754344
0.0781666
0.0808817
0.0835789
0.086257
0.0889151
0.091552
0.0941664
0.0967571
0.099323
0.101863
0.104375
0.106858
0.109311
0.111733
0.114122
0.116477
0.118796
0.12108
0.123325
0.125532
0.127699
0.129825
0.131909
0.13395
0.135947
0.137899
0.139805
0.141665
0.143478
0.145243
0.146959
0.148626
0.150244
0.151811
0.153329
0.154795
0.15621
0.157574
0.158886
0.160147
0.161356
0.162513
0.163618
0.164671
0.165672
0.166621
0.167519
0.168365
0.16916
0.169904
0.170596
0.171238
0.171829
0.17237
0.172864
0.17331
0.173708
0.174057
0.174359
0.174612
0.174819
0.174979
0.175092
0.17516
0.175182
0.175159
0.175091
0.17498
0.174825
0.174628
0.174388
0.174106
0.173783
0.173419
0.173014
0.17257
0.172087
0.171565
0.171006
0.170408
0.169774
0.169103
0.168396
0.167653
0.166876
0.166064
0.165218
0.164339
0.163426
0.162481
0.161504
0.160495
0.159454
0.158383
0.15728
0.156148
0.154986
0.153794
0.152573
0.151323
0.150045
0.148739
0.147404
0.146043
0.144654
0.143238
0.141796
0.140328
0.138833
0.137314
0.135769
0.1342
0.132606
0.130989
0.129348
0.127684
0.125998
0.124289
0.122559
0.120808
0.119037
0.117246
0.115435
0.113605
0.111758
0.109893
0.108011
0.106113
0.104199
0.102271
0.100329
0.0983738
0.096406
0.0944266
0.0924364
0.0904362
0.0884268
0.0864092
0.084384
0.0823524
0.080315
0.0782729
0.0762269
0.0741779
0.0721269
0.0700748
0.0680224
0.0659708
0.0639209
0.0618735
0.0598295
0.0577899
0.0557554
0.0537269
0.051705
0.0496906
0.0476841
0.0456861
0.0436969
0.0417165
0.039745
0.0377823
0.0358284
0.0338858
0.031955
0.0300579
0.0281525
0.0262208
0.0242486
0.022236
0.020109
0.0182587
0.0171449
0.0181997
0.0190465
0.016272
0.0127197
0.0160862
0.0194142
0.0201153
0.0222254
0.0222072
0.0254475
0.0288212
0.0320682
0.0351951
0.0382648
0.0412924
0.0442708
0.0472121
0.0501224
0.0530068
0.0558693
0.0587125
0.0615385
0.0643485
0.0671431
0.0699225
0.0726867
0.0754351
0.0781673
0.0808824
0.0835795
0.0862576
0.0889157
0.0915525
0.0941669
0.0967576
0.0993234
0.101863
0.104375
0.106858
0.109311
0.111733
0.114122
0.116477
0.118797
0.12108
0.123325
0.125532
0.127699
0.129825
0.131909
0.13395
0.135947
0.137899
0.139805
0.141665
0.143478
0.145243
0.146959
0.148626
0.150244
0.151811
0.153328
0.154795
0.15621
0.157574
0.158886
0.160147
0.161356
0.162512
0.163617
0.16467
0.165672
0.166621
0.167519
0.168365
0.16916
0.169903
0.170596
0.171238
0.171828
0.172369
0.172863
0.17331
0.173707
0.174057
0.174358
0.174612
0.174818
0.174978
0.175091
0.175159
0.175181
0.175158
0.175091
0.17498
0.174825
0.174627
0.174387
0.174105
0.173782
0.173418
0.173014
0.17257
0.172087
0.171565
0.171005
0.170408
0.169773
0.169102
0.168395
0.167653
0.166875
0.166064
0.165218
0.164338
0.163426
0.162481
0.161503
0.160494
0.159454
0.158382
0.15728
0.156147
0.154985
0.153793
0.152573
0.151323
0.150045
0.148738
0.147404
0.146042
0.144653
0.143238
0.141795
0.140327
0.138833
0.137313
0.135769
0.134199
0.132606
0.130988
0.129347
0.127684
0.125997
0.124289
0.122559
0.120808
0.119036
0.117245
0.115434
0.113605
0.111757
0.109892
0.10801
0.106112
0.104199
0.102271
0.100329
0.0983733
0.0964055
0.0944261
0.0924359
0.0904357
0.0884264
0.0864087
0.0843836
0.0823519
0.0803146
0.0782725
0.0762265
0.0741775
0.0721265
0.0700744
0.0680221
0.0659705
0.0639206
0.0618732
0.0598292
0.0577896
0.0557551
0.0537266
0.0517048
0.0496904
0.0476839
0.0456859
0.0436967
0.0417163
0.0397449
0.0377821
0.0358283
0.0338857
0.0319549
0.0300578
0.0281525
0.0262213
0.0242512
0.0222428
0.0201122
0.0182557
0.0171383
0.0181973
0.0190508
0.0162725
0.0127191
0.0208061
0.0272768
0.033996
0.0412791
0.0492772
0.0566964
0.0637546
0.0705776
0.0772041
0.0836899
0.0900697
0.0963662
0.102598
0.108777
0.114916
0.121021
0.127097
0.133149
0.139178
0.145185
0.15117
0.157134
0.163074
0.168988
0.174875
0.180732
0.186556
0.192345
0.198095
0.203804
0.209467
0.215082
0.220645
0.226153
0.231603
0.236991
0.242313
0.247568
0.252751
0.25786
0.262891
0.267842
0.27271
0.277492
0.282185
0.286787
0.291296
0.29571
0.300025
0.304242
0.308356
0.312368
0.316274
0.320075
0.323767
0.327351
0.330826
0.334189
0.337441
0.340581
0.343607
0.346521
0.34932
0.352006
0.354577
0.357034
0.359377
0.361605
0.36372
0.36572
0.367608
0.369382
0.371043
0.372592
0.374029
0.375354
0.376567
0.377667
0.378661
0.379547
0.380328
0.381003
0.381574
0.38204
0.382404
0.382666
0.382827
0.382889
0.382851
0.382716
0.382483
0.382156
0.381734
0.381219
0.380611
0.379913
0.379125
0.378249
0.377285
0.376235
0.375099
0.373881
0.372579
0.371196
0.369733
0.36819
0.366569
0.364872
0.363098
0.36125
0.359328
0.357333
0.355266
0.353128
0.350921
0.348644
0.3463
0.343888
0.341409
0.338866
0.336257
0.333584
0.330848
0.32805
0.325189
0.322268
0.319287
0.316246
0.313146
0.309988
0.306773
0.303502
0.300175
0.296793
0.293357
0.289869
0.286328
0.282736
0.279095
0.275404
0.271665
0.267879
0.264048
0.260172
0.256252
0.252291
0.24829
0.244249
0.24017
0.236055
0.231906
0.227723
0.223509
0.219266
0.214994
0.210696
0.206373
0.202028
0.197662
0.193277
0.188876
0.184459
0.18003
0.17559
0.171141
0.166686
0.162227
0.157765
0.153303
0.148843
0.144387
0.139938
0.135496
0.131066
0.126648
0.122244
0.117857
0.113487
0.109137
0.104807
0.100499
0.0962134
0.0919496
0.0877073
0.0834855
0.0792821
0.0750944
0.0709181
0.0667463
0.0625612
0.0583468
0.0540963
0.0497544
0.0451346
0.0404577
0.0357616
0.0310501
0.0269297
0.0220311
0.0166989
0.0208074
0.0272741
0.0339975
0.041283
0.0492785
0.0566964
0.0637548
0.0705779
0.0772045
0.0836903
0.09007
0.0963665
0.102598
0.108778
0.114916
0.121021
0.127097
0.133149
0.139178
0.145185
0.15117
0.157134
0.163073
0.168988
0.174875
0.180732
0.186556
0.192345
0.198095
0.203803
0.209466
0.215081
0.220644
0.226152
0.231602
0.23699
0.242313
0.247567
0.252751
0.257859
0.262891
0.267841
0.272709
0.277491
0.282184
0.286786
0.291295
0.295709
0.300024
0.30424
0.308355
0.312366
0.316273
0.320073
0.323766
0.32735
0.330824
0.334188
0.33744
0.340579
0.343606
0.346519
0.349319
0.352004
0.354575
0.357032
0.359375
0.361604
0.363718
0.365719
0.367606
0.36938
0.371041
0.37259
0.374027
0.375352
0.376565
0.377666
0.378659
0.379546
0.380326
0.381001
0.381572
0.382039
0.382403
0.382665
0.382826
0.382887
0.382849
0.382714
0.382482
0.382154
0.381732
0.381217
0.380609
0.379911
0.379123
0.378247
0.377283
0.376233
0.375098
0.373879
0.372577
0.371194
0.369731
0.368188
0.366567
0.36487
0.363096
0.361248
0.359326
0.357331
0.355264
0.353127
0.350919
0.348643
0.346298
0.343886
0.341408
0.338864
0.336255
0.333582
0.330846
0.328048
0.325188
0.322266
0.319285
0.316244
0.313144
0.309986
0.306771
0.3035
0.300173
0.296791
0.293356
0.289867
0.286327
0.282735
0.279093
0.275402
0.271663
0.267877
0.264046
0.26017
0.256251
0.25229
0.248288
0.244247
0.240169
0.236054
0.231905
0.227722
0.223508
0.219264
0.214992
0.210694
0.206372
0.202027
0.197661
0.193276
0.188874
0.184458
0.180029
0.175589
0.17114
0.166685
0.162226
0.157764
0.153302
0.148842
0.144386
0.139937
0.135496
0.131065
0.126647
0.122243
0.117856
0.113486
0.109136
0.104807
0.100499
0.0962127
0.0919489
0.0877067
0.0834849
0.0792816
0.0750939
0.0709176
0.0667458
0.0625609
0.0583468
0.0540969
0.0497551
0.0451345
0.040457
0.0357608
0.0310498
0.026929
0.0220312
0.0166996
0.0267842
0.0360904
0.0462135
0.0560489
0.065548
0.0745621
0.0832383
0.0916753
0.0999301
0.108046
0.116054
0.123979
0.131837
0.139644
0.147408
0.155137
0.162837
0.170511
0.178161
0.185787
0.19339
0.200968
0.208519
0.216041
0.22353
0.230985
0.2384
0.245773
0.253099
0.260374
0.267594
0.274754
0.281851
0.28888
0.295836
0.302715
0.309513
0.316225
0.322848
0.329378
0.33581
0.34214
0.348366
0.354483
0.360488
0.366378
0.37215
0.3778
0.383327
0.388726
0.393997
0.399137
0.404143
0.409014
0.413748
0.418344
0.422799
0.427113
0.431285
0.435314
0.439198
0.442938
0.446533
0.449982
0.453285
0.456442
0.459453
0.462318
0.465037
0.467611
0.47004
0.472324
0.474463
0.47646
0.478313
0.480023
0.481592
0.483019
0.484306
0.485456
0.486471
0.48735
0.488095
0.488707
0.489187
0.489537
0.489758
0.48985
0.489816
0.489657
0.489374
0.488969
0.488442
0.487796
0.487032
0.486152
0.485156
0.484047
0.482826
0.481494
0.480054
0.478505
0.476851
0.475092
0.47323
0.471267
0.469203
0.467041
0.464781
0.462425
0.459975
0.457431
0.454795
0.452068
0.449251
0.446346
0.443354
0.440275
0.437111
0.433863
0.430533
0.42712
0.423626
0.420051
0.416398
0.412667
0.408859
0.404974
0.401015
0.396981
0.392874
0.388695
0.384445
0.380125
0.375736
0.37128
0.366757
0.362168
0.357516
0.352801
0.348025
0.343189
0.338295
0.333344
0.328338
0.323279
0.318168
0.313007
0.307798
0.302543
0.297244
0.291903
0.286523
0.281104
0.27565
0.270163
0.264645
0.259099
0.253527
0.247932
0.242316
0.236681
0.231031
0.225368
0.219695
0.214015
0.208329
0.202642
0.196956
0.191274
0.185598
0.179932
0.174277
0.168637
0.163014
0.15741
0.151828
0.14627
0.140737
0.135231
0.129752
0.124302
0.118881
0.113487
0.108118
0.102773
0.0974475
0.0921355
0.086829
0.0815159
0.0761819
0.0708093
0.065366
0.0597971
0.0540112
0.0479833
0.0416899
0.0352939
0.0285487
0.0218382
0.0267882
0.0360864
0.0462136
0.0560486
0.0655469
0.0745614
0.0832379
0.0916751
0.09993
0.108046
0.116054
0.123979
0.131837
0.139643
0.147407
0.155137
0.162837
0.17051
0.17816
0.185787
0.193389
0.200967
0.208518
0.21604
0.223529
0.230984
0.238399
0.245772
0.253098
0.260373
0.267593
0.274753
0.28185
0.288878
0.295834
0.302713
0.309511
0.316224
0.322847
0.329376
0.335808
0.342139
0.348365
0.354482
0.360487
0.366377
0.372148
0.377799
0.383325
0.388725
0.393996
0.399135
0.404141
0.409012
0.413746
0.418342
0.422797
0.427111
0.431283
0.435312
0.439196
0.442936
0.446531
0.44998
0.453283
0.45644
0.459451
0.462316
0.465035
0.467609
0.470038
0.472322
0.474461
0.476458
0.478311
0.480021
0.48159
0.483017
0.484304
0.485454
0.486468
0.487347
0.488092
0.488705
0.489185
0.489535
0.489755
0.489848
0.489814
0.489655
0.489372
0.488967
0.48844
0.487794
0.48703
0.48615
0.485154
0.484045
0.482824
0.481492
0.480051
0.478503
0.476849
0.47509
0.473228
0.471265
0.469201
0.467039
0.464779
0.462423
0.459973
0.457429
0.454793
0.452066
0.449249
0.446344
0.443352
0.440273
0.437109
0.433861
0.43053
0.427118
0.423624
0.420049
0.416396
0.412665
0.408857
0.404973
0.401013
0.396979
0.392872
0.388693
0.384443
0.380123
0.375735
0.371278
0.366755
0.362167
0.357514
0.3528
0.348023
0.343188
0.338293
0.333343
0.328337
0.323277
0.318166
0.313005
0.307797
0.302542
0.297243
0.291902
0.286521
0.281103
0.275649
0.270162
0.264644
0.259098
0.253526
0.24793
0.242314
0.23668
0.23103
0.225367
0.219694
0.214013
0.208328
0.202641
0.196955
0.191273
0.185597
0.179931
0.174276
0.168636
0.163013
0.157409
0.151827
0.146269
0.140736
0.13523
0.129751
0.124302
0.11888
0.113486
0.108118
0.102772
0.0974468
0.0921349
0.0868285
0.0815155
0.0761815
0.0708088
0.0653652
0.0597967
0.0540107
0.0479819
0.041689
0.035294
0.0285505
0.0218406
0.0305375
0.0438694
0.0567539
0.0681612
0.0787597
0.0888567
0.0986225
0.108157
0.117521
0.126757
0.135892
0.144949
0.153944
0.162889
0.171792
0.18066
0.189497
0.198306
0.207089
0.215846
0.224576
0.233277
0.241947
0.250584
0.259184
0.267744
0.27626
0.284727
0.293142
0.301498
0.309793
0.31802
0.326175
0.334254
0.342251
0.35016
0.357979
0.3657
0.37332
0.380835
0.388239
0.395528
0.402698
0.409744
0.416663
0.423451
0.430105
0.43662
0.442994
0.449223
0.455305
0.461237
0.467016
0.472641
0.478109
0.483418
0.488567
0.493553
0.498377
0.503036
0.507529
0.511856
0.516017
0.52001
0.523835
0.527492
0.530981
0.534302
0.537455
0.540441
0.54326
0.545912
0.548398
0.550718
0.552874
0.554865
0.556694
0.55836
0.559864
0.56121
0.562398
0.56343
0.564307
0.565031
0.565602
0.566023
0.566295
0.566418
0.566395
0.566228
0.565917
0.565465
0.564872
0.564142
0.563275
0.562273
0.561138
0.559872
0.558475
0.556951
0.555301
0.553527
0.551629
0.54961
0.547473
0.545217
0.542845
0.540359
0.53776
0.53505
0.53223
0.529302
0.526267
0.523126
0.519882
0.516535
0.513087
0.50954
0.505893
0.502149
0.498309
0.494374
0.490345
0.486223
0.48201
0.477707
0.473314
0.468833
0.464266
0.459612
0.454874
0.450053
0.445149
0.440165
0.435101
0.429959
0.424741
0.419447
0.414079
0.408639
0.403128
0.397548
0.391901
0.386189
0.380413
0.374576
0.368679
0.362725
0.356716
0.350654
0.344541
0.338381
0.332174
0.325925
0.319634
0.313307
0.306944
0.300548
0.294124
0.287673
0.281199
0.274704
0.268192
0.261666
0.25513
0.248585
0.242036
0.235486
0.228937
0.222394
0.215859
0.209336
0.202827
0.196335
0.189864
0.183416
0.176993
0.170598
0.164232
0.157897
0.151593
0.145323
0.139084
0.132877
0.1267
0.120549
0.114421
0.108311
0.102209
0.0961051
0.0899846
0.083826
0.0775961
0.0712462
0.0646958
0.0578623
0.0506527
0.0429088
0.0342838
0.0255039
0.0305433
0.0438627
0.0567515
0.0681601
0.0787592
0.0888563
0.0986221
0.108157
0.117521
0.126756
0.135892
0.144949
0.153944
0.162888
0.171791
0.180659
0.189496
0.198306
0.207089
0.215845
0.224575
0.233276
0.241946
0.250583
0.259184
0.267743
0.276259
0.284726
0.29314
0.301497
0.309792
0.318019
0.326174
0.334253
0.342249
0.350159
0.357977
0.365699
0.373319
0.380833
0.388237
0.395526
0.402696
0.409743
0.416662
0.42345
0.430103
0.436618
0.442992
0.449221
0.455303
0.461235
0.467015
0.472639
0.478107
0.483416
0.488565
0.493551
0.498375
0.503034
0.507527
0.511854
0.516015
0.520008
0.523833
0.52749
0.530979
0.5343
0.537454
0.540439
0.543258
0.54591
0.548396
0.550716
0.552872
0.554863
0.556692
0.558358
0.559862
0.561208
0.562396
0.563428
0.564305
0.565029
0.5656
0.566021
0.566292
0.566416
0.566393
0.566226
0.565915
0.565463
0.56487
0.56414
0.563273
0.562271
0.561136
0.55987
0.558473
0.556949
0.555299
0.553525
0.551627
0.549609
0.547471
0.545215
0.542843
0.540357
0.537758
0.535048
0.532228
0.5293
0.526265
0.523125
0.51988
0.516534
0.513086
0.509538
0.505891
0.502147
0.498307
0.494372
0.490343
0.486222
0.482008
0.477705
0.473312
0.468832
0.464264
0.459611
0.454873
0.450051
0.445148
0.440164
0.4351
0.429958
0.424739
0.419445
0.414077
0.408637
0.403126
0.397547
0.3919
0.386188
0.380412
0.374575
0.368678
0.362724
0.356715
0.350653
0.34454
0.338379
0.332173
0.325923
0.319633
0.313305
0.306942
0.300547
0.294123
0.287672
0.281198
0.274703
0.268191
0.261665
0.255129
0.248584
0.242035
0.235485
0.228936
0.222393
0.215858
0.209335
0.202826
0.196335
0.189863
0.183415
0.176992
0.170597
0.164231
0.157896
0.151593
0.145322
0.139083
0.132876
0.126699
0.120548
0.114421
0.10831
0.102208
0.0961047
0.0899842
0.0838256
0.0775958
0.0712462
0.0646959
0.0578617
0.0506517
0.0429092
0.0342871
0.0255117
0.0309357
0.0514411
0.066551
0.0792174
0.0908183
0.101845
0.112519
0.122958
0.133231
0.143381
0.153438
0.16342
0.173342
0.183213
0.193042
0.202833
0.21259
0.222315
0.232008
0.241669
0.251298
0.260892
0.27045
0.279968
0.289443
0.298871
0.308249
0.317572
0.326836
0.336036
0.345167
0.354225
0.363203
0.372097
0.380902
0.389613
0.398224
0.40673
0.415126
0.423407
0.431567
0.439603
0.44751
0.455282
0.462916
0.470407
0.477751
0.484945
0.491985
0.498866
0.505587
0.512144
0.518534
0.524754
0.530803
0.536678
0.542377
0.547898
0.55324
0.558401
0.56338
0.568177
0.57279
0.577219
0.581463
0.585522
0.589396
0.593085
0.596589
0.599908
0.603043
0.605993
0.608761
0.611345
0.613748
0.61597
0.618012
0.619874
0.621559
0.623067
0.6244
0.625561
0.62655
0.62737
0.62802
0.628504
0.628822
0.628977
0.628969
0.628801
0.628474
0.627991
0.627352
0.626559
0.625616
0.624523
0.623282
0.621895
0.620364
0.618691
0.616879
0.614927
0.61284
0.610618
0.608263
0.605778
0.603164
0.600422
0.597555
0.594565
0.591452
0.588219
0.584867
0.581398
0.577814
0.574116
0.570305
0.566382
0.562351
0.558211
0.553964
0.549611
0.545154
0.540594
0.535933
0.531171
0.52631
0.521351
0.516296
0.511145
0.505901
0.500564
0.495136
0.489618
0.484012
0.47832
0.472542
0.466681
0.460738
0.454716
0.448615
0.442437
0.436185
0.429861
0.423467
0.417005
0.410477
0.403886
0.397234
0.390523
0.383757
0.376938
0.370069
0.363152
0.35619
0.349188
0.342147
0.33507
0.327962
0.320825
0.313663
0.306479
0.299276
0.292059
0.28483
0.277593
0.270352
0.26311
0.25587
0.248637
0.241414
0.234204
0.22701
0.219835
0.212683
0.205557
0.198458
0.191389
0.184351
0.177348
0.170378
0.163443
0.156543
0.149677
0.142842
0.136037
0.129257
0.122496
0.115748
0.109
0.102239
0.0954417
0.0885751
0.0815898
0.0744125
0.0669391
0.0589966
0.0502308
0.0395769
0.0256509
0.0309341
0.0514327
0.0665474
0.0792176
0.090819
0.101845
0.112519
0.122958
0.133231
0.143381
0.153437
0.163419
0.173341
0.183212
0.193041
0.202832
0.212589
0.222314
0.232007
0.241669
0.251297
0.260891
0.270449
0.279967
0.289442
0.29887
0.308248
0.317571
0.326835
0.336035
0.345166
0.354223
0.363202
0.372096
0.380901
0.389612
0.398223
0.406729
0.415124
0.423405
0.431566
0.439602
0.447509
0.455281
0.462915
0.470406
0.47775
0.484944
0.491983
0.498865
0.505586
0.512142
0.518532
0.524753
0.530802
0.536676
0.542375
0.547896
0.553238
0.558399
0.563379
0.568175
0.572789
0.577217
0.581462
0.585521
0.589395
0.593084
0.596587
0.599906
0.603041
0.605992
0.608759
0.611344
0.613747
0.615968
0.61801
0.619873
0.621557
0.623065
0.624398
0.625559
0.626549
0.627368
0.628019
0.628502
0.628821
0.628975
0.628968
0.628799
0.628473
0.627989
0.62735
0.626558
0.625614
0.624521
0.62328
0.621893
0.620363
0.61869
0.616877
0.614926
0.612838
0.610616
0.608262
0.605777
0.603162
0.600421
0.597554
0.594563
0.59145
0.588217
0.584866
0.581397
0.577812
0.574114
0.570303
0.566381
0.562349
0.558209
0.553962
0.54961
0.545153
0.540593
0.535931
0.531169
0.526308
0.52135
0.516294
0.511144
0.505899
0.500563
0.495135
0.489617
0.484011
0.478319
0.472541
0.46668
0.460737
0.454714
0.448613
0.442436
0.436184
0.42986
0.423466
0.417004
0.410476
0.403885
0.397233
0.390522
0.383756
0.376937
0.370068
0.363151
0.356189
0.349187
0.342146
0.335069
0.327961
0.320824
0.313662
0.306478
0.299275
0.292058
0.284829
0.277592
0.270351
0.263109
0.255869
0.248637
0.241413
0.234203
0.227009
0.219835
0.212683
0.205556
0.198457
0.191388
0.184351
0.177347
0.170377
0.163443
0.156543
0.149676
0.142842
0.136036
0.129256
0.122496
0.115747
0.109
0.102239
0.0954415
0.0885749
0.0815896
0.0744122
0.0669381
0.0589948
0.050231
0.0395815
0.0256534
0.0357959
0.0589897
0.0758759
0.0897538
0.10234
0.114255
0.125775
0.137042
0.148136
0.159106
0.169982
0.180782
0.19152
0.202205
0.212843
0.223437
0.23399
0.244503
0.254977
0.26541
0.275802
0.286151
0.296455
0.30671
0.316915
0.327065
0.337157
0.347186
0.357149
0.367041
0.376858
0.386593
0.396244
0.405803
0.415267
0.42463
0.433886
0.44303
0.452058
0.460963
0.469741
0.478386
0.486893
0.495259
0.503477
0.511543
0.519454
0.527204
0.53479
0.542208
0.549455
0.556527
0.563421
0.570134
0.576664
0.583008
0.589164
0.595129
0.600903
0.606483
0.611868
0.617057
0.622049
0.626844
0.63144
0.635837
0.640035
0.644034
0.647834
0.651435
0.654838
0.658042
0.661049
0.663859
0.666473
0.668892
0.671117
0.673148
0.674988
0.676637
0.678097
0.67937
0.680458
0.681363
0.682085
0.682626
0.682988
0.683173
0.683183
0.683019
0.682683
0.682177
0.681504
0.680664
0.67966
0.678494
0.677168
0.675684
0.674044
0.67225
0.670304
0.668208
0.665964
0.663574
0.66104
0.658364
0.655549
0.652595
0.649504
0.64628
0.642923
0.639435
0.635818
0.632074
0.628205
0.624211
0.620095
0.615859
0.611503
0.607029
0.60244
0.597735
0.592918
0.587988
0.582948
0.577799
0.572542
0.56718
0.561712
0.556141
0.550469
0.544695
0.538824
0.532855
0.52679
0.520631
0.514381
0.508039
0.50161
0.495093
0.488492
0.481809
0.475045
0.468202
0.461284
0.454293
0.44723
0.4401
0.432903
0.425644
0.418324
0.410948
0.403517
0.396035
0.388506
0.380932
0.373317
0.365665
0.357978
0.350261
0.342517
0.334749
0.326962
0.31916
0.311345
0.303523
0.295696
0.287869
0.280044
0.272227
0.26442
0.256627
0.248852
0.241097
0.233366
0.225661
0.217985
0.210341
0.202729
0.195151
0.187608
0.180101
0.172629
0.165191
0.157786
0.150411
0.143062
0.135734
0.128418
0.121106
0.11378
0.10642
0.0989906
0.0914413
0.0836924
0.0756126
0.0669612
0.0572387
0.0450597
0.0284102
0.035792
0.0589796
0.0758739
0.0897556
0.102341
0.114256
0.125775
0.137041
0.148136
0.159106
0.169981
0.180781
0.19152
0.202205
0.212842
0.223436
0.233989
0.244502
0.254976
0.265409
0.275801
0.28615
0.296454
0.30671
0.316914
0.327064
0.337156
0.347185
0.357148
0.36704
0.376857
0.386592
0.396243
0.405802
0.415266
0.424629
0.433885
0.443029
0.452057
0.460962
0.46974
0.478385
0.486892
0.495257
0.503475
0.511542
0.519452
0.527203
0.534789
0.542207
0.549454
0.556526
0.56342
0.570133
0.576663
0.583007
0.589162
0.595128
0.600901
0.606481
0.611867
0.617056
0.622048
0.626842
0.631438
0.635835
0.640034
0.644033
0.647833
0.651434
0.654836
0.658041
0.661048
0.663858
0.666472
0.668891
0.671115
0.673147
0.674987
0.676636
0.678096
0.679369
0.680457
0.681361
0.682083
0.682625
0.682987
0.683172
0.683182
0.683018
0.682682
0.682176
0.681502
0.680663
0.679659
0.678493
0.677167
0.675683
0.674043
0.672249
0.670303
0.668207
0.665963
0.663573
0.661039
0.658363
0.655547
0.652593
0.649503
0.646279
0.642922
0.639434
0.635817
0.632073
0.628203
0.62421
0.620094
0.615857
0.611502
0.607028
0.602438
0.597734
0.592916
0.587987
0.582947
0.577798
0.572541
0.567178
0.561711
0.55614
0.550467
0.544694
0.538823
0.532854
0.526789
0.52063
0.51438
0.508038
0.501609
0.495092
0.488491
0.481808
0.475044
0.468201
0.461283
0.454292
0.447229
0.440099
0.432902
0.425643
0.418323
0.410947
0.403516
0.396034
0.388505
0.380931
0.373316
0.365664
0.357977
0.35026
0.342516
0.334749
0.326962
0.319159
0.311345
0.303522
0.295695
0.287868
0.280044
0.272226
0.26442
0.256627
0.248852
0.241097
0.233366
0.225661
0.217985
0.21034
0.202728
0.19515
0.187608
0.180101
0.172629
0.165191
0.157786
0.150411
0.143062
0.135734
0.128418
0.121106
0.11378
0.10642
0.0989904
0.0914411
0.0836921
0.0756121
0.0669603
0.0572389
0.0450636
0.0283988
0.0402163
0.0661305
0.0848184
0.0999679
0.11358
0.126399
0.138758
0.150829
0.162709
0.174453
0.186095
0.197655
0.209146
0.220576
0.231949
0.24327
0.25454
0.265758
0.276926
0.288042
0.299106
0.310115
0.321067
0.33196
0.342793
0.35356
0.36426
0.374889
0.385443
0.395918
0.40631
0.416614
0.426826
0.43694
0.446953
0.456858
0.46665
0.476325
0.485878
0.495301
0.504591
0.513743
0.52275
0.531609
0.540314
0.54886
0.557243
0.565459
0.573502
0.58137
0.589058
0.596563
0.603881
0.611009
0.617945
0.624685
0.631227
0.637569
0.643709
0.649644
0.655375
0.660898
0.666214
0.671321
0.676218
0.680905
0.685381
0.689647
0.693701
0.697546
0.701179
0.704603
0.707818
0.710823
0.713621
0.716212
0.718596
0.720776
0.722751
0.724525
0.726097
0.72747
0.728646
0.729626
0.730412
0.731006
0.73141
0.731625
0.731652
0.731495
0.731155
0.730633
0.729932
0.729055
0.728002
0.726777
0.72538
0.723815
0.722084
0.720188
0.718129
0.715911
0.713534
0.711002
0.708315
0.705477
0.70249
0.699354
0.696073
0.692648
0.689081
0.685375
0.68153
0.67755
0.673434
0.669187
0.664808
0.6603
0.655664
0.650903
0.646017
0.641008
0.635878
0.630629
0.625261
0.619776
0.614177
0.608464
0.602638
0.596703
0.590658
0.584507
0.578249
0.571888
0.565425
0.558861
0.5522
0.545441
0.538588
0.531643
0.524607
0.517484
0.510274
0.502982
0.495608
0.488157
0.48063
0.47303
0.46536
0.457624
0.449824
0.441963
0.434044
0.426072
0.418049
0.40998
0.401866
0.393713
0.385524
0.377303
0.369053
0.360779
0.352485
0.344174
0.335851
0.327519
0.319182
0.310845
0.302511
0.294185
0.285869
0.277567
0.269283
0.26102
0.25278
0.244567
0.236383
0.228229
0.220108
0.21202
0.203967
0.195949
0.187964
0.180013
0.172093
0.164201
0.156335
0.148489
0.140654
0.132822
0.124975
0.117091
0.109134
0.101049
0.0927451
0.0840555
0.0746402
0.0636994
0.0491196
0.0285758
0.0402096
0.066123
0.0848176
0.0999697
0.113582
0.126399
0.138757
0.150828
0.162708
0.174453
0.186094
0.197654
0.209145
0.220575
0.231949
0.243269
0.254539
0.265757
0.276925
0.288041
0.299105
0.310114
0.321066
0.33196
0.342792
0.353559
0.364259
0.374888
0.385442
0.395917
0.406309
0.416613
0.426825
0.436939
0.446952
0.456857
0.466649
0.476324
0.485876
0.4953
0.50459
0.513742
0.522749
0.531608
0.540313
0.548859
0.557242
0.565458
0.573501
0.581369
0.589057
0.596562
0.60388
0.611008
0.617944
0.624684
0.631226
0.637568
0.643707
0.649643
0.655374
0.660897
0.666213
0.671319
0.676216
0.680903
0.68538
0.689645
0.6937
0.697544
0.701178
0.704602
0.707817
0.710822
0.71362
0.71621
0.718595
0.720775
0.72275
0.724524
0.726096
0.727469
0.728645
0.729625
0.730411
0.731005
0.731409
0.731623
0.731651
0.731494
0.731153
0.730632
0.729931
0.729054
0.728001
0.726775
0.725379
0.723814
0.722082
0.720186
0.718128
0.71591
0.713533
0.711001
0.708314
0.705476
0.702489
0.699353
0.696072
0.692647
0.68908
0.685374
0.681529
0.677549
0.673433
0.669186
0.664807
0.660299
0.655663
0.650902
0.646016
0.641007
0.635877
0.630628
0.62526
0.619775
0.614176
0.608463
0.602637
0.596702
0.590657
0.584506
0.578248
0.571887
0.565424
0.558861
0.552199
0.54544
0.538587
0.531642
0.524606
0.517483
0.510274
0.502981
0.495608
0.488156
0.480629
0.473029
0.46536
0.457623
0.449823
0.441962
0.434044
0.426072
0.418049
0.409979
0.401866
0.393713
0.385523
0.377302
0.369053
0.360779
0.352484
0.344173
0.33585
0.327518
0.319182
0.310845
0.302511
0.294184
0.285868
0.277567
0.269282
0.261019
0.25278
0.244567
0.236382
0.228229
0.220108
0.21202
0.203967
0.195948
0.187964
0.180012
0.172092
0.164201
0.156335
0.148489
0.140654
0.132821
0.124975
0.117091
0.109134
0.101049
0.0927453
0.0840561
0.0746418
0.0636996
0.0491133
0.0285683
0.0320393
0.0715206
0.0932204
0.109937
0.124682
0.138449
0.151665
0.164543
0.177198
0.189696
0.202077
0.214362
0.226566
0.238697
0.250759
0.262754
0.274685
0.28655
0.29835
0.310084
0.321751
0.333349
0.344878
0.356334
0.367716
0.379022
0.390249
0.401395
0.412456
0.423429
0.43431
0.445096
0.455782
0.466365
0.476839
0.487199
0.497442
0.507561
0.517552
0.52741
0.537129
0.546704
0.55613
0.565402
0.574515
0.583464
0.592244
0.60085
0.609279
0.617525
0.625586
0.633456
0.641133
0.648613
0.655893
0.662969
0.66984
0.676503
0.682955
0.689195
0.695221
0.701031
0.706625
0.712
0.717156
0.722092
0.726809
0.731305
0.73558
0.739635
0.74347
0.747085
0.75048
0.753656
0.756614
0.759355
0.76188
0.764189
0.766284
0.768167
0.769839
0.7713
0.772555
0.773603
0.774447
0.775089
0.775531
0.775773
0.775819
0.775669
0.775327
0.774794
0.774072
0.773163
0.77207
0.770794
0.769338
0.767705
0.765895
0.763912
0.761757
0.759433
0.756943
0.754287
0.751469
0.748491
0.745354
0.742061
0.738614
0.735015
0.731266
0.727369
0.723325
0.719138
0.714808
0.710338
0.70573
0.700984
0.696104
0.69109
0.685944
0.680668
0.675264
0.669734
0.664078
0.658299
0.652398
0.646376
0.640237
0.63398
0.627609
0.621124
0.614527
0.607821
0.601007
0.594086
0.587062
0.579936
0.572711
0.565388
0.557969
0.550458
0.542856
0.535167
0.527392
0.519536
0.511599
0.503586
0.4955
0.487343
0.47912
0.470832
0.462485
0.45408
0.445623
0.437116
0.428564
0.41997
0.411338
0.402673
0.393978
0.385258
0.376516
0.367756
0.358984
0.350202
0.341415
0.332628
0.323843
0.315064
0.306296
0.297542
0.288805
0.280088
0.271393
0.262724
0.254083
0.24547
0.236889
0.228338
0.21982
0.211334
0.202879
0.194454
0.186057
0.177686
0.169337
0.161005
0.15268
0.144354
0.136009
0.127621
0.119151
0.110538
0.10168
0.0923865
0.0822649
0.0703721
0.0542831
0.0316456
0.0320331
0.0715198
0.0932217
0.109938
0.124683
0.138449
0.151665
0.164542
0.177197
0.189696
0.202076
0.214362
0.226566
0.238696
0.250758
0.262754
0.274684
0.286549
0.29835
0.310084
0.32175
0.333349
0.344877
0.356333
0.367715
0.379021
0.390248
0.401394
0.412455
0.423428
0.434309
0.445095
0.455781
0.466364
0.476838
0.487198
0.497441
0.50756
0.517551
0.527409
0.537128
0.546703
0.556129
0.565401
0.574514
0.583463
0.592243
0.600849
0.609278
0.617524
0.625585
0.633455
0.641132
0.648612
0.655892
0.662968
0.669839
0.676502
0.682954
0.689194
0.69522
0.70103
0.706623
0.711999
0.717155
0.722091
0.726808
0.731304
0.735579
0.739634
0.743469
0.747084
0.750479
0.753655
0.756613
0.759354
0.761879
0.764188
0.766283
0.768166
0.769838
0.771299
0.772554
0.773602
0.774446
0.775088
0.77553
0.775772
0.775818
0.775668
0.775326
0.774793
0.774071
0.773162
0.772069
0.770793
0.769337
0.767704
0.765894
0.763911
0.761756
0.759432
0.756942
0.754286
0.751468
0.74849
0.745353
0.74206
0.738613
0.735014
0.731265
0.727368
0.723324
0.719137
0.714808
0.710337
0.705729
0.700983
0.696103
0.691089
0.685943
0.680668
0.675264
0.669733
0.664077
0.658298
0.652397
0.646376
0.640236
0.63398
0.627608
0.621123
0.614526
0.60782
0.601006
0.594086
0.587062
0.579936
0.57271
0.565387
0.557968
0.550457
0.542856
0.535166
0.527392
0.519535
0.511599
0.503586
0.495499
0.487343
0.479119
0.470832
0.462484
0.45408
0.445622
0.437116
0.428563
0.419969
0.411338
0.402673
0.393978
0.385257
0.376515
0.367756
0.358983
0.350202
0.341415
0.332627
0.323842
0.315064
0.306296
0.297542
0.288804
0.280087
0.271393
0.262724
0.254083
0.24547
0.236888
0.228338
0.21982
0.211334
0.202879
0.194454
0.186057
0.177686
0.169337
0.161004
0.15268
0.144354
0.136009
0.127621
0.119151
0.110538
0.10168
0.0923876
0.0822674
0.0703723
0.0542797
0.0316627
0.034997
0.0780849
0.101808
0.11994
0.135809
0.150541
0.164629
0.178321
0.191752
0.204997
0.218102
0.231094
0.243986
0.256787
0.269504
0.282136
0.294687
0.307155
0.31954
0.331841
0.344059
0.356191
0.368237
0.380196
0.392067
0.403847
0.415536
0.427131
0.438631
0.450032
0.461333
0.472529
0.483619
0.494597
0.50546
0.516204
0.526824
0.537316
0.547674
0.557895
0.567972
0.577901
0.587677
0.597295
0.606749
0.616034
0.625147
0.634081
0.642834
0.651399
0.659773