/*--------------------------------*- C++ -*----------------------------------*\
  =========                 |
  \\      /  F ield         | OpenFOAM: The Open Source CFD Toolbox
   \\    /   O peration     | Website:  https://openfoam.org
    \\  /    A nd           | Version:  8
     \\/     M anipulation  |
\*---------------------------------------------------------------------------*/
FoamFile
{
    version     2.0;
    format      ascii;
    class       volScalarField;
    location    "4100";
    object      alphat;
}
// * * * * * * * * * * * * * * * * * * * * * * * * * * * * * * * * * * * * * //

dimensions      [1 -1 -1 0 0 0 0];

internalField   nonuniform List<scalar> 
46000
(
1.83021e-06
7.09333e-06
1.26505e-05
1.77809e-05
2.26153e-05
2.72835e-05
3.18433e-05
3.63092e-05
4.07059e-05
4.5052e-05
4.93617e-05
5.36467e-05
5.78817e-05
6.20844e-05
6.62589e-05
7.04058e-05
7.45244e-05
7.86129e-05
8.2669e-05
8.66898e-05
9.06718e-05
9.46116e-05
9.85051e-05
0.000102348
0.000106137
0.000109866
0.000113532
0.000117129
0.000120654
0.000124102
0.000127469
0.00013075
0.00013394
0.000137037
0.000140035
0.000142931
0.000145722
0.000148404
0.000150973
0.000153427
0.000155763
0.000157979
0.000160072
0.000162041
0.000163883
0.000165597
0.000167182
0.000168637
0.000169961
0.000171155
0.000172217
0.000173149
0.00017395
0.000174621
0.000175164
0.00017558
0.000175869
0.000176035
0.000176079
0.000176003
0.00017581
0.000175506
0.000175092
0.00017457
0.000173942
0.000173209
0.000172377
0.000171447
0.000170423
0.00016931
0.00016811
0.000166828
0.000165468
0.000164033
0.000162527
0.000160954
0.000159319
0.000157626
0.000155877
0.000154078
0.000152232
0.000150343
0.000148415
0.000146452
0.000144457
0.000142434
0.000140387
0.000138319
0.000136233
0.000134133
0.000132021
0.000129901
0.000127776
0.000125649
0.000123522
0.000121397
0.000119278
0.000117166
0.000115064
0.000112974
0.000110897
0.000108836
0.000106792
0.000104766
0.000102761
0.000100777
9.88159e-05
9.68782e-05
9.49653e-05
9.30777e-05
9.12164e-05
8.93819e-05
8.75748e-05
8.57955e-05
8.40444e-05
8.23217e-05
8.06276e-05
7.89621e-05
7.73254e-05
7.57173e-05
7.41378e-05
7.25866e-05
7.10636e-05
6.95684e-05
6.81006e-05
6.666e-05
6.52461e-05
6.38583e-05
6.24963e-05
6.11594e-05
5.98472e-05
5.8559e-05
5.72943e-05
5.60525e-05
5.48329e-05
5.36349e-05
5.24578e-05
5.13011e-05
5.0164e-05
4.90461e-05
4.79465e-05
4.68648e-05
4.58002e-05
4.47522e-05
4.37202e-05
4.27036e-05
4.17019e-05
4.07145e-05
3.97409e-05
3.87805e-05
3.7833e-05
3.68978e-05
3.59744e-05
3.50626e-05
3.41618e-05
3.32716e-05
3.23918e-05
3.1522e-05
3.06619e-05
2.98111e-05
2.89694e-05
2.81365e-05
2.73122e-05
2.64962e-05
2.56883e-05
2.48883e-05
2.40969e-05
2.33135e-05
2.25374e-05
2.17684e-05
2.10061e-05
2.02505e-05
1.95012e-05
1.87581e-05
1.8021e-05
1.72897e-05
1.65639e-05
1.58434e-05
1.51279e-05
1.44171e-05
1.37107e-05
1.30082e-05
1.23093e-05
1.16134e-05
1.092e-05
1.02284e-05
9.53819e-06
8.8494e-06
8.16023e-06
7.46926e-06
6.77495e-06
6.07542e-06
5.36834e-06
4.6507e-06
3.91861e-06
3.16689e-06
2.38889e-06
1.57829e-06
7.57003e-07
1.48302e-07
1.83307e-06
7.09895e-06
1.26557e-05
1.77834e-05
2.26161e-05
2.72837e-05
3.18433e-05
3.63092e-05
4.0706e-05
4.50521e-05
4.93618e-05
5.36468e-05
5.78818e-05
6.20844e-05
6.62589e-05
7.04058e-05
7.45244e-05
7.86129e-05
8.2669e-05
8.66897e-05
9.06718e-05
9.46115e-05
9.8505e-05
0.000102348
0.000106136
0.000109866
0.000113532
0.000117129
0.000120654
0.000124102
0.000127469
0.00013075
0.00013394
0.000137037
0.000140035
0.000142931
0.000145722
0.000148403
0.000150973
0.000153427
0.000155763
0.000157979
0.000160072
0.00016204
0.000163882
0.000165596
0.000167181
0.000168636
0.000169961
0.000171154
0.000172217
0.000173148
0.00017395
0.000174621
0.000175164
0.00017558
0.000175869
0.000176035
0.000176078
0.000176002
0.00017581
0.000175506
0.000175092
0.00017457
0.000173941
0.000173209
0.000172376
0.000171446
0.000170423
0.00016931
0.00016811
0.000166828
0.000165467
0.000164032
0.000162527
0.000160954
0.000159319
0.000157625
0.000155877
0.000154078
0.000152232
0.000150343
0.000148415
0.000146452
0.000144457
0.000142434
0.000140387
0.000138319
0.000136233
0.000134132
0.000132021
0.000129901
0.000127776
0.000125649
0.000123521
0.000121397
0.000119278
0.000117166
0.000115064
0.000112973
0.000110897
0.000108836
0.000106791
0.000104766
0.000102761
0.000100777
9.88156e-05
9.6878e-05
9.49651e-05
9.30775e-05
9.12162e-05
8.93818e-05
8.75746e-05
8.57954e-05
8.40442e-05
8.23215e-05
8.06274e-05
7.8962e-05
7.73252e-05
7.57172e-05
7.41376e-05
7.25865e-05
7.10634e-05
6.95682e-05
6.81005e-05
6.66599e-05
6.52459e-05
6.38582e-05
6.24961e-05
6.11593e-05
5.98471e-05
5.85589e-05
5.72942e-05
5.60524e-05
5.48327e-05
5.36347e-05
5.24577e-05
5.1301e-05
5.01639e-05
4.90459e-05
4.79464e-05
4.68646e-05
4.58001e-05
4.47521e-05
4.37201e-05
4.27035e-05
4.17018e-05
4.07144e-05
3.97408e-05
3.87804e-05
3.78329e-05
3.68977e-05
3.59743e-05
3.50625e-05
3.41617e-05
3.32716e-05
3.23918e-05
3.1522e-05
3.06618e-05
2.9811e-05
2.89693e-05
2.81365e-05
2.73122e-05
2.64962e-05
2.56882e-05
2.48883e-05
2.40968e-05
2.33134e-05
2.25374e-05
2.17683e-05
2.10061e-05
2.02504e-05
1.95012e-05
1.87581e-05
1.8021e-05
1.72897e-05
1.65639e-05
1.58433e-05
1.51278e-05
1.4417e-05
1.37106e-05
1.30082e-05
1.23093e-05
1.16134e-05
1.092e-05
1.02284e-05
9.53817e-06
8.84938e-06
8.16021e-06
7.46925e-06
6.77494e-06
6.07541e-06
5.36833e-06
4.6507e-06
3.91861e-06
3.16689e-06
2.38889e-06
1.57829e-06
7.57004e-07
1.48302e-07
6.5366e-06
5.7521e-05
9.6808e-05
0.000124119
0.000145337
0.000162977
0.000178191
0.000191831
0.000204353
0.000216036
0.00022705
0.000237529
0.000247576
0.000257248
0.00026659
0.000275636
0.000284412
0.00029294
0.000301236
0.000309311
0.000317175
0.000324836
0.000332297
0.000339564
0.000346639
0.000353522
0.000360216
0.000366719
0.000373032
0.000379154
0.000385084
0.000390821
0.000396362
0.000401708
0.000406855
0.000411802
0.000416549
0.000421093
0.000425432
0.000429567
0.000433495
0.000437215
0.000440727
0.000444031
0.000447125
0.00045001
0.000452686
0.000455153
0.000457411
0.000459462
0.000461307
0.000462946
0.000464381
0.000465614
0.000466647
0.000467482
0.000468122
0.000468568
0.000468825
0.000468894
0.000468778
0.00046848
0.000468003
0.000467353
0.000466534
0.000465551
0.000464407
0.000463109
0.000461659
0.000460064
0.000458328
0.000456456
0.000454452
0.000452323
0.000450072
0.000447706
0.000445229
0.000442646
0.000439963
0.000437185
0.000434316
0.000431363
0.00042833
0.000425222
0.000422045
0.000418802
0.0004155
0.000412143
0.000408735
0.000405281
0.000401787
0.000398255
0.00039469
0.000391098
0.00038748
0.000383843
0.000380189
0.000376521
0.000372845
0.000369162
0.000365476
0.000361791
0.000358109
0.000354432
0.000350765
0.000347108
0.000343465
0.000339837
0.000336227
0.000332636
0.000329067
0.00032552
0.000321998
0.0003185
0.00031503
0.000311587
0.000308173
0.000304788
0.000301432
0.000298107
0.000294813
0.000291549
0.000288316
0.000285114
0.000281944
0.000278803
0.000275694
0.000272614
0.000269563
0.000266542
0.000263549
0.000260584
0.000257645
0.000254733
0.000251845
0.000248982
0.000246142
0.000243324
0.000240528
0.000237751
0.000234994
0.000232254
0.000229531
0.000226824
0.000224131
0.000221451
0.000218783
0.000216126
0.000213478
0.000210839
0.000208207
0.00020558
0.000202959
0.000200341
0.000197725
0.000195111
0.000192496
0.00018988
0.000187262
0.000184639
0.000182012
0.000179378
0.000176737
0.000174086
0.000171423
0.000168747
0.000166051
0.000163339
0.00016061
0.000157862
0.000155094
0.000152302
0.000149486
0.000146641
0.000143765
0.000140856
0.000137908
0.000134918
0.000131881
0.000128791
0.000125642
0.000122426
0.000119134
0.000115756
0.00011228
0.000108686
0.000104952
0.000101052
9.69677e-05
9.26617e-05
8.8088e-05
8.3184e-05
7.78639e-05
7.20037e-05
6.54152e-05
5.77899e-05
4.85676e-05
3.65737e-05
1.90696e-05
6.8865e-07
6.53219e-06
5.75178e-05
9.68105e-05
0.000124122
0.000145341
0.00016298
0.000178194
0.000191834
0.000204356
0.000216039
0.000227053
0.000237532
0.000247579
0.000257251
0.000266593
0.000275639
0.000284416
0.000292944
0.000301239
0.000309314
0.000317179
0.000324839
0.000332301
0.000339568
0.000346643
0.000353526
0.00036022
0.000366723
0.000373036
0.000379158
0.000385088
0.000390825
0.000396367
0.000401712
0.000406859
0.000411807
0.000416553
0.000421097
0.000425437
0.000429571
0.000433499
0.00043722
0.000440732
0.000444036
0.00044713
0.000450015
0.000452691
0.000455158
0.000457416
0.000459467
0.000461311
0.00046295
0.000464386
0.000465619
0.000466652
0.000467487
0.000468126
0.000468573
0.000468829
0.000468898
0.000468783
0.000468485
0.000468008
0.000467358
0.000466539
0.000465555
0.000464412
0.000463113
0.000461664
0.000460069
0.000458333
0.00045646
0.000454457
0.000452327
0.000450077
0.00044771
0.000445233
0.00044265
0.000439967
0.000437189
0.00043432
0.000431367
0.000428334
0.000425226
0.000422049
0.000418806
0.000415504
0.000412147
0.000408739
0.000405285
0.00040179
0.000398258
0.000394694
0.000391101
0.000387484
0.000383846
0.000380192
0.000376525
0.000372848
0.000369165
0.00036548
0.000361794
0.000358112
0.000354435
0.000350768
0.000347111
0.000343468
0.00033984
0.00033623
0.000332639
0.000329069
0.000325523
0.000322
0.000318503
0.000315033
0.00031159
0.000308175
0.00030479
0.000301435
0.000298109
0.000294815
0.000291551
0.000288318
0.000285117
0.000281946
0.000278805
0.000275696
0.000272616
0.000269565
0.000266544
0.000263551
0.000260585
0.000257647
0.000254734
0.000251847
0.000248984
0.000246144
0.000243326
0.000240529
0.000237753
0.000234996
0.000232256
0.000229533
0.000226825
0.000224132
0.000221452
0.000218784
0.000216127
0.000213479
0.00021084
0.000208208
0.000205582
0.00020296
0.000200342
0.000197726
0.000195112
0.000192497
0.000189881
0.000187263
0.00018464
0.000182013
0.000179379
0.000176738
0.000174087
0.000171424
0.000168748
0.000166052
0.00016334
0.000160611
0.000157863
0.000155094
0.000152303
0.000149486
0.000146642
0.000143766
0.000140856
0.000137909
0.000134919
0.000131881
0.000128791
0.000125642
0.000122426
0.000119135
0.000115757
0.00011228
0.000108687
0.000104953
0.000101053
9.69681e-05
9.26621e-05
8.80883e-05
8.31844e-05
7.78642e-05
7.2004e-05
6.54154e-05
5.77901e-05
4.85677e-05
3.65738e-05
1.90695e-05
6.88651e-07
1.19286e-05
9.39571e-05
0.000172178
0.000230842
0.000276457
0.000313442
0.000344563
0.000371586
0.000395621
0.000417406
0.000437445
0.000456087
0.000473588
0.000490127
0.000505838
0.000520823
0.000535162
0.000548919
0.000562145
0.000574879
0.000587156
0.000599001
0.000610438
0.000621483
0.000632153
0.00064246
0.000652415
0.000662025
0.000671299
0.000680242
0.000688859
0.000697156
0.000705135
0.0007128
0.000720154
0.000727198
0.000733936
0.000740369
0.000746499
0.000752327
0.000757856
0.000763087
0.000768022
0.000772663
0.000777011
0.000781068
0.000784836
0.000788319
0.000791517
0.000794433
0.00079707
0.000799432
0.000801519
0.000803337
0.000804887
0.000806173
0.0008072
0.000807969
0.000808484
0.00080875
0.000808768
0.000808541
0.000808074
0.000807374
0.000806447
0.0008053
0.000803939
0.000802369
0.000800597
0.000798627
0.000796467
0.000794121
0.000791596
0.000788897
0.000786031
0.000783003
0.00077982
0.000776488
0.000773012
0.000769399
0.000765655
0.000761786
0.000757799
0.000753698
0.00074949
0.000745182
0.000740778
0.000736285
0.000731708
0.000727053
0.000722326
0.000717532
0.000712676
0.000707764
0.000702801
0.000697791
0.00069274
0.000687653
0.000682533
0.000677385
0.000672215
0.000667025
0.00066182
0.000656603
0.000651378
0.000646149
0.000640919
0.000635691
0.000630468
0.000625253
0.000620047
0.000614854
0.000609676
0.000604515
0.000599373
0.00059425
0.000589149
0.000584072
0.000579018
0.000573989
0.000568986
0.00056401
0.00055906
0.000554138
0.000549242
0.000544374
0.000539533
0.000534718
0.00052993
0.000525167
0.00052043
0.000515716
0.000511026
0.000506358
0.000501711
0.000497085
0.000492477
0.000487886
0.000483311
0.000478751
0.000474204
0.000469667
0.000465141
0.000460622
0.00045611
0.000451602
0.000447097
0.000442593
0.000438087
0.000433579
0.000429065
0.000424545
0.000420016
0.000415476
0.000410923
0.000406356
0.00040177
0.000397165
0.000392539
0.000387887
0.000383209
0.000378501
0.000373761
0.000368984
0.000364166
0.000359304
0.000354388
0.00034942
0.000344398
0.000339317
0.000334174
0.000328962
0.000323676
0.000318309
0.000312853
0.0003073
0.000301639
0.00029586
0.000289949
0.000283891
0.000277668
0.000271261
0.000264644
0.000257788
0.000250658
0.000243208
0.000235382
0.000227109
0.000218321
0.000208916
0.000198762
0.000187682
0.000175431
0.00016166
0.000145848
0.00012718
0.000104295
7.48303e-05
3.55094e-05
1.44345e-06
1.19268e-05
9.39567e-05
0.000172181
0.000230847
0.000276463
0.000313447
0.000344568
0.000371592
0.000395627
0.000417412
0.000437451
0.000456092
0.000473593
0.000490132
0.000505843
0.000520828
0.000535167
0.000548925
0.00056215
0.000574885
0.000587161
0.000599007
0.000610443
0.000621489
0.000632159
0.000642466
0.000652421
0.000662031
0.000671305
0.000680248
0.000688865
0.000697162
0.000705141
0.000712806
0.00072016
0.000727204
0.000733942
0.000740375
0.000746505
0.000752333
0.000757862
0.000763093
0.000768028
0.000772669
0.000777017
0.000781074
0.000784842
0.000788325
0.000791523
0.000794439
0.000797076
0.000799438
0.000801525
0.000803343
0.000804893
0.000806179
0.000807205
0.000807974
0.00080849
0.000808755
0.000808773
0.000808547
0.00080808
0.000807379
0.000806452
0.000805305
0.000803944
0.000802374
0.000800602
0.000798633
0.000796472
0.000794126
0.000791601
0.000788902
0.000786036
0.000783008
0.000779825
0.000776492
0.000773017
0.000769404
0.00076566
0.000761791
0.000757803
0.000753702
0.000749495
0.000745186
0.000740782
0.000736289
0.000731712
0.000727057
0.00072233
0.000717536
0.00071268
0.000707768
0.000702804
0.000697795
0.000692744
0.000687656
0.000682536
0.000677389
0.000672218
0.000667028
0.000661823
0.000656606
0.000651381
0.000646152
0.000640922
0.000635694
0.000630471
0.000625255
0.00062005
0.000614857
0.000609679
0.000604517
0.000599375
0.000594252
0.000589151
0.000584074
0.00057902
0.000573991
0.000568988
0.000564012
0.000559062
0.000554139
0.000549244
0.000544375
0.000539534
0.00053472
0.000529931
0.000525169
0.000520431
0.000515717
0.000511027
0.000506359
0.000501713
0.000497086
0.000492478
0.000487887
0.000483312
0.000478752
0.000474204
0.000469668
0.000465142
0.000460623
0.000456111
0.000451603
0.000447098
0.000442593
0.000438088
0.000433579
0.000429066
0.000424546
0.000420017
0.000415477
0.000410924
0.000406356
0.000401771
0.000397166
0.000392539
0.000387888
0.00038321
0.000378502
0.000373761
0.000368984
0.000364167
0.000359304
0.000354388
0.00034942
0.000344398
0.000339317
0.000334174
0.000328962
0.000323676
0.000318309
0.000312853
0.0003073
0.000301639
0.00029586
0.000289949
0.000283891
0.000277668
0.000271261
0.000264644
0.000257788
0.000250658
0.000243208
0.000235382
0.000227109
0.000218321
0.000208916
0.000198762
0.000187682
0.000175431
0.00016166
0.000145849
0.00012718
0.000104295
7.48303e-05
3.55092e-05
1.44345e-06
1.70506e-05
0.000120029
0.000228122
0.000315528
0.000386061
0.000444196
0.000493349
0.000535886
0.000573433
0.000607128
0.000637781
0.00066598
0.000692158
0.000716636
0.00073966
0.000761418
0.000782058
0.0008017
0.000820438
0.000838351
0.000855501
0.000871944
0.000887722
0.000902873
0.000917428
0.000931415
0.000944857
0.000957774
0.000970183
0.0009821
0.000993537
0.00100451
0.00101502
0.00102509
0.00103471
0.00104391
0.00105268
0.00106104
0.00106898
0.00107652
0.00108366
0.00109041
0.00109676
0.00110273
0.00110832
0.00111354
0.00111838
0.00112286
0.00112698
0.00113074
0.00113414
0.00113721
0.00113992
0.0011423
0.00114435
0.00114607
0.00114747
0.00114854
0.0011493
0.00114976
0.0011499
0.00114975
0.00114929
0.00114855
0.00114753
0.00114624
0.00114468
0.00114286
0.00114079
0.00113848
0.00113592
0.00113314
0.00113013
0.00112691
0.00112347
0.00111983
0.00111599
0.00111197
0.00110776
0.00110337
0.00109882
0.0010941
0.00108923
0.0010842
0.00107904
0.00107374
0.00106831
0.00106276
0.0010571
0.00105133
0.00104545
0.00103948
0.00103342
0.00102728
0.00102106
0.00101476
0.0010084
0.00100198
0.000995511
0.000988987
0.00098242
0.000975813
0.000969171
0.0009625
0.000955803
0.000949085
0.00094235
0.000935601
0.000928843
0.000922079
0.000915312
0.000908544
0.00090178
0.000895021
0.00088827
0.000881529
0.0008748
0.000868085
0.000861384
0.0008547
0.000848034
0.000841386
0.000834757
0.000828147
0.000821558
0.000814988
0.000808437
0.000801907
0.000795395
0.000788902
0.000782426
0.000775967
0.000769523
0.000763094
0.000756678
0.000750274
0.000743879
0.000737493
0.000731114
0.000724739
0.000718367
0.000711995
0.000705623
0.000699246
0.000692864
0.000686473
0.000680072
0.000673658
0.000667229
0.000660781
0.000654312
0.00064782
0.000641302
0.000634754
0.000628175
0.000621559
0.000614906
0.00060821
0.000601469
0.000594678
0.000587834
0.000580932
0.000573967
0.000566934
0.000559827
0.000552638
0.00054536
0.000537986
0.000530514
0.000522937
0.000515245
0.000507431
0.000499482
0.000491387
0.000483133
0.000474704
0.000466082
0.000457247
0.000448176
0.000438841
0.000429211
0.000419249
0.000408912
0.000398147
0.000386891
0.000375067
0.00036258
0.000349314
0.000335132
0.000319862
0.000303278
0.000285081
0.000264867
0.000242082
0.000215934
0.000185271
0.000148371
0.00010277
4.67278e-05
2.19628e-06
1.70509e-05
0.000120031
0.000228126
0.000315535
0.000386068
0.000444203
0.000493357
0.000535894
0.000573442
0.000607136
0.000637789
0.000665988
0.000692166
0.000716644
0.000739668
0.000761426
0.000782066
0.000801707
0.000820446
0.000838358
0.000855509
0.000871951
0.000887729
0.00090288
0.000917436
0.000931423
0.000944865
0.000957782
0.000970191
0.000982107
0.000993544
0.00100451
0.00101503
0.00102509
0.00103472
0.00104392
0.00105269
0.00106105
0.00106899
0.00107653
0.00108367
0.00109041
0.00109677
0.00110274
0.00110833
0.00111354
0.00111839
0.00112287
0.00112698
0.00113074
0.00113415
0.00113721
0.00113993
0.00114231
0.00114436
0.00114608
0.00114747
0.00114855
0.00114931
0.00114976
0.00114991
0.00114975
0.0011493
0.00114856
0.00114754
0.00114624
0.00114468
0.00114287
0.0011408
0.00113848
0.00113593
0.00113315
0.00113014
0.00112691
0.00112348
0.00111984
0.001116
0.00111197
0.00110776
0.00110338
0.00109882
0.0010941
0.00108923
0.00108421
0.00107904
0.00107374
0.00106832
0.00106277
0.0010571
0.00105133
0.00104546
0.00103948
0.00103342
0.00102728
0.00102106
0.00101477
0.00100841
0.00100199
0.000995514
0.00098899
0.000982422
0.000975815
0.000969174
0.000962502
0.000955805
0.000949087
0.000942352
0.000935603
0.000928845
0.000922081
0.000915313
0.000908546
0.000901782
0.000895023
0.000888272
0.000881531
0.000874802
0.000868086
0.000861386
0.000854702
0.000848035
0.000841387
0.000834758
0.000828148
0.000821559
0.000814989
0.000808438
0.000801908
0.000795396
0.000788902
0.000782426
0.000775967
0.000769524
0.000763095
0.000756679
0.000750274
0.00074388
0.000737493
0.000731114
0.000724739
0.000718367
0.000711995
0.000705623
0.000699246
0.000692864
0.000686473
0.000680072
0.000673658
0.000667229
0.000660781
0.000654312
0.00064782
0.000641302
0.000634754
0.000628174
0.000621559
0.000614905
0.000608209
0.000601468
0.000594677
0.000587833
0.000580931
0.000573966
0.000566934
0.000559826
0.000552638
0.000545359
0.000537986
0.000530514
0.000522936
0.000515245
0.00050743
0.000499481
0.000491387
0.000483133
0.000474703
0.000466081
0.000457246
0.000448175
0.00043884
0.00042921
0.000419249
0.000408912
0.000398147
0.000386891
0.000375067
0.00036258
0.000349314
0.000335131
0.000319862
0.000303278
0.00028508
0.000264867
0.000242081
0.000215934
0.000185271
0.000148371
0.00010277
4.67276e-05
2.19628e-06
2.1982e-05
0.000141095
0.000272418
0.00038415
0.000477307
0.000555747
0.000622868
0.000681266
0.000732863
0.000779078
0.000820967
0.000859318
0.00089473
0.000927658
0.000958458
0.000987405
0.00101472
0.00104058
0.00106513
0.00108849
0.00111076
0.00113201
0.00115232
0.00117174
0.00119033
0.00120812
0.00122516
0.00124148
0.00125711
0.00127207
0.00128638
0.00130007
0.00131315
0.00132564
0.00133756
0.00134892
0.00135973
0.00137
0.00137975
0.00138899
0.00139772
0.00140595
0.0014137
0.00142097
0.00142777
0.00143411
0.00143999
0.00144543
0.00145043
0.00145499
0.00145913
0.00146286
0.00146617
0.00146907
0.00147158
0.0014737
0.00147543
0.00147678
0.00147776
0.00147838
0.00147863
0.00147853
0.00147808
0.00147729
0.00147616
0.00147472
0.00147296
0.0014709
0.00146854
0.00146589
0.00146296
0.00145976
0.00145629
0.00145256
0.00144858
0.00144436
0.0014399
0.00143522
0.00143032
0.0014252
0.00141988
0.00141437
0.00140866
0.00140278
0.00139672
0.00139049
0.00138411
0.00137757
0.00137089
0.00136408
0.00135713
0.00135006
0.00134288
0.00133559
0.00132819
0.0013207
0.00131312
0.00130546
0.00129773
0.00128992
0.00128205
0.00127412
0.00126614
0.00125811
0.00125004
0.00124193
0.00123379
0.00122562
0.00121742
0.00120921
0.00120097
0.00119273
0.00118448
0.00117621
0.00116795
0.00115969
0.00115142
0.00114316
0.0011349
0.00112665
0.00111841
0.00111018
0.00110195
0.00109374
0.00108554
0.00107734
0.00106916
0.00106099
0.00105283
0.00104467
0.00103653
0.00102839
0.00102026
0.00101213
0.001004
0.000995876
0.00098775
0.00097962
0.000971486
0.000963344
0.000955192
0.000947028
0.000938849
0.000930652
0.000922435
0.000914195
0.000905928
0.000897633
0.000889305
0.000880941
0.000872538
0.000864092
0.0008556
0.000847058
0.000838462
0.000829808
0.000821092
0.000812308
0.000803452
0.00079452
0.000785504
0.000776399
0.000767198
0.000757895
0.000748479
0.000738943
0.000729276
0.000719468
0.000709513
0.0006994
0.000689117
0.000678649
0.000667982
0.000657096
0.000645972
0.000634586
0.000622913
0.000610922
0.000598579
0.000585844
0.000572669
0.000559002
0.000544776
0.000529917
0.000514333
0.000497914
0.000480528
0.000462011
0.000442164
0.000420749
0.000397454
0.000371878
0.000343493
0.0003116
0.00027525
0.000233146
0.000183539
0.000124334
5.54375e-05
2.93076e-06
2.19826e-05
0.000141097
0.000272423
0.000384157
0.000477316
0.000555756
0.000622878
0.000681276
0.000732873
0.000779089
0.000820977
0.000859328
0.00089474
0.000927668
0.000958468
0.000987415
0.00101473
0.00104059
0.00106514
0.0010885
0.00111077
0.00113202
0.00115233
0.00117175
0.00119034
0.00120813
0.00122517
0.00124149
0.00125712
0.00127207
0.00128639
0.00130008
0.00131316
0.00132565
0.00133757
0.00134893
0.00135974
0.00137001
0.00137976
0.001389
0.00139773
0.00140596
0.00141371
0.00142098
0.00142778
0.00143412
0.00144
0.00144544
0.00145044
0.001455
0.00145914
0.00146286
0.00146617
0.00146908
0.00147159
0.0014737
0.00147544
0.00147679
0.00147777
0.00147838
0.00147864
0.00147853
0.00147808
0.00147729
0.00147617
0.00147473
0.00147297
0.00147091
0.00146855
0.0014659
0.00146297
0.00145976
0.00145629
0.00145257
0.00144859
0.00144437
0.00143991
0.00143523
0.00143032
0.00142521
0.00141989
0.00141437
0.00140867
0.00140278
0.00139672
0.0013905
0.00138411
0.00137758
0.0013709
0.00136408
0.00135713
0.00135007
0.00134288
0.00133559
0.00132819
0.00132071
0.00131313
0.00130547
0.00129773
0.00128992
0.00128205
0.00127412
0.00126614
0.00125811
0.00125004
0.00124193
0.00123379
0.00122562
0.00121742
0.00120921
0.00120098
0.00119273
0.00118448
0.00117622
0.00116795
0.00115969
0.00115142
0.00114316
0.0011349
0.00112665
0.00111841
0.00111018
0.00110195
0.00109374
0.00108554
0.00107734
0.00106916
0.00106099
0.00105283
0.00104467
0.00103653
0.00102839
0.00102026
0.00101213
0.001004
0.000995876
0.00098775
0.00097962
0.000971486
0.000963344
0.000955192
0.000947027
0.000938848
0.000930652
0.000922435
0.000914194
0.000905928
0.000897632
0.000889304
0.00088094
0.000872537
0.000864092
0.0008556
0.000847058
0.000838462
0.000829808
0.000821091
0.000812307
0.000803452
0.000794519
0.000785503
0.000776398
0.000767198
0.000757894
0.000748478
0.000738942
0.000729275
0.000719467
0.000709512
0.000699399
0.000689116
0.000678648
0.000667981
0.000657095
0.000645971
0.000634585
0.000622912
0.000610922
0.000598578
0.000585843
0.000572669
0.000559001
0.000544775
0.000529916
0.000514332
0.000497914
0.000480527
0.00046201
0.000442163
0.000420749
0.000397454
0.000371877
0.000343493
0.0003116
0.00027525
0.000233147
0.000183539
0.000124334
5.54372e-05
2.93077e-06
2.68133e-05
0.000159137
0.000309228
0.000441579
0.000554814
0.000651918
0.000736021
0.000809736
0.000875126
0.000933782
0.000986931
0.00103552
0.00108028
0.00112179
0.0011605
0.00119677
0.00123089
0.00126308
0.00129355
0.00132245
0.00134992
0.00137605
0.00140096
0.00142471
0.00144737
0.00146902
0.00148969
0.00150944
0.0015283
0.00154632
0.00156351
0.00157992
0.00159557
0.00161048
0.00162468
0.00163818
0.00165101
0.00166318
0.00167471
0.00168561
0.0016959
0.00170559
0.0017147
0.00172323
0.0017312
0.00173862
0.0017455
0.00175186
0.0017577
0.00176302
0.00176786
0.0017722
0.00177606
0.00177945
0.00178238
0.00178486
0.0017869
0.00178849
0.00178966
0.00179041
0.00179074
0.00179067
0.0017902
0.00178935
0.00178811
0.00178651
0.00178454
0.00178223
0.00177958
0.0017766
0.0017733
0.00176968
0.00176576
0.00176154
0.00175704
0.00175225
0.0017472
0.00174189
0.00173632
0.00173051
0.00172446
0.00171819
0.00171169
0.00170499
0.00169808
0.00169098
0.00168369
0.00167622
0.00166859
0.00166079
0.00165283
0.00164474
0.0016365
0.00162813
0.00161963
0.00161102
0.0016023
0.00159348
0.00158456
0.00157556
0.00156647
0.00155731
0.00154807
0.00153877
0.00152942
0.00152001
0.00151055
0.00150105
0.00149151
0.00148194
0.00147234
0.00146272
0.00145307
0.00144341
0.00143373
0.00142404
0.00141433
0.00140462
0.00139491
0.00138519
0.00137547
0.00136575
0.00135603
0.00134631
0.00133658
0.00132686
0.00131714
0.00130742
0.0012977
0.00128798
0.00127826
0.00126853
0.0012588
0.00124906
0.00123931
0.00122955
0.00121977
0.00120999
0.00120018
0.00119035
0.0011805
0.00117062
0.00116072
0.00115078
0.0011408
0.00113078
0.00112073
0.00111062
0.00110046
0.00109025
0.00107998
0.00106965
0.00105925
0.00104878
0.00103823
0.00102759
0.00101687
0.00100606
0.000995144
0.000984123
0.000972987
0.000961729
0.000950341
0.000938812
0.000927132
0.00091529
0.000903273
0.000891068
0.000878665
0.000866048
0.000853201
0.000840105
0.000826739
0.000813079
0.000799097
0.000784764
0.000770043
0.000754895
0.000739273
0.000723124
0.000706387
0.000688989
0.000670847
0.000651861
0.000631912
0.000610861
0.000588539
0.000564739
0.000539212
0.000511659
0.000481699
0.000448854
0.000412512
0.000371886
0.000325956
0.000273407
0.000212616
0.000141975
6.27335e-05
3.65287e-06
2.68137e-05
0.000159139
0.000309233
0.000441586
0.000554823
0.000651929
0.000736032
0.000809748
0.000875138
0.000933794
0.000986943
0.00103553
0.0010803
0.00112181
0.00116052
0.00119678
0.0012309
0.0012631
0.00129356
0.00132246
0.00134993
0.00137606
0.00140097
0.00142472
0.00144739
0.00146903
0.0014897
0.00150945
0.00152831
0.00154633
0.00156352
0.00157993
0.00159558
0.00161049
0.00162469
0.00163819
0.00165102
0.00166319
0.00167472
0.00168562
0.00169591
0.0017056
0.0017147
0.00172324
0.00173121
0.00173863
0.00174551
0.00175187
0.0017577
0.00176303
0.00176786
0.00177221
0.00177607
0.00177946
0.00178239
0.00178487
0.0017869
0.0017885
0.00178967
0.00179042
0.00179075
0.00179068
0.00179021
0.00178935
0.00178812
0.00178651
0.00178455
0.00178224
0.00177959
0.00177661
0.0017733
0.00176968
0.00176576
0.00176155
0.00175704
0.00175226
0.00174721
0.00174189
0.00173633
0.00173052
0.00172447
0.00171819
0.0017117
0.00170499
0.00169809
0.00169098
0.00168369
0.00167623
0.00166859
0.00166079
0.00165284
0.00164474
0.0016365
0.00162813
0.00161964
0.00161103
0.00160231
0.00159349
0.00158457
0.00157556
0.00156647
0.00155731
0.00154807
0.00153878
0.00152942
0.00152001
0.00151055
0.00150105
0.00149152
0.00148195
0.00147235
0.00146272
0.00145307
0.00144341
0.00143373
0.00142404
0.00141434
0.00140463
0.00139491
0.00138519
0.00137547
0.00136575
0.00135603
0.00134631
0.00133658
0.00132686
0.00131714
0.00130742
0.0012977
0.00128798
0.00127826
0.00126853
0.0012588
0.00124906
0.00123931
0.00122955
0.00121977
0.00120999
0.00120018
0.00119035
0.0011805
0.00117062
0.00116072
0.00115078
0.0011408
0.00113078
0.00112072
0.00111062
0.00110046
0.00109025
0.00107998
0.00106965
0.00105925
0.00104878
0.00103823
0.00102759
0.00101687
0.00100606
0.000995143
0.000984122
0.000972986
0.000961729
0.00095034
0.000938811
0.000927131
0.000915289
0.000903272
0.000891067
0.000878664
0.000866047
0.0008532
0.000840104
0.000826738
0.000813078
0.000799096
0.000784763
0.000770042
0.000754894
0.000739272
0.000723123
0.000706386
0.000688988
0.000670846
0.00065186
0.000631912
0.000610861
0.000588538
0.000564738
0.000539212
0.000511658
0.000481699
0.000448854
0.000412513
0.000371886
0.000325956
0.000273407
0.000212617
0.000141975
6.27332e-05
3.65289e-06
3.15657e-05
0.000175119
0.000341025
0.000491087
0.000622064
0.000736063
0.000835859
0.000923976
0.00100251
0.00107316
0.00113725
0.00119586
0.00124982
0.0012998
0.00134634
0.00138988
0.00143075
0.00146925
0.00150561
0.00154003
0.00157267
0.00160367
0.00163315
0.00166122
0.00168795
0.00171342
0.00173771
0.00176086
0.00178294
0.00180399
0.00182405
0.00184315
0.00186134
0.00187865
0.00189509
0.00191071
0.00192552
0.00193955
0.00195283
0.00196536
0.00197717
0.00198828
0.0019987
0.00200846
0.00201756
0.00202603
0.00203387
0.0020411
0.00204774
0.00205379
0.00205927
0.0020642
0.00206857
0.00207242
0.00207573
0.00207854
0.00208084
0.00208265
0.00208398
0.00208483
0.00208522
0.00208516
0.00208465
0.0020837
0.00208234
0.00208056
0.00207838
0.00207581
0.00207286
0.00206954
0.00206586
0.00206184
0.00205747
0.00205277
0.00204775
0.00204241
0.00203678
0.00203085
0.00202464
0.00201816
0.00201141
0.0020044
0.00199714
0.00198965
0.00198193
0.00197399
0.00196584
0.00195749
0.00194894
0.0019402
0.00193129
0.00192222
0.00191298
0.00190359
0.00189405
0.00188438
0.00187459
0.00186467
0.00185464
0.0018445
0.00183427
0.00182394
0.00181353
0.00180304
0.00179247
0.00178184
0.00177115
0.00176041
0.00174961
0.00173877
0.00172789
0.00171697
0.00170602
0.00169504
0.00168403
0.001673
0.00166195
0.00165089
0.00163981
0.00162871
0.00161761
0.00160649
0.00159537
0.00158423
0.00157309
0.00156193
0.00155077
0.0015396
0.00152842
0.00151722
0.00150602