/*--------------------------------*- C++ -*----------------------------------*\
  =========                 |
  \\      /  F ield         | OpenFOAM: The Open Source CFD Toolbox
   \\    /   O peration     | Website:  https://openfoam.org
    \\  /    A nd           | Version:  8
     \\/     M anipulation  |
\*---------------------------------------------------------------------------*/
FoamFile
{
    version     2.0;
    format      ascii;
    class       volScalarField;
    location    "4100";
    object      epsilon;
}
// * * * * * * * * * * * * * * * * * * * * * * * * * * * * * * * * * * * * * //

dimensions      [0 2 -3 0 0 0 0];

internalField   nonuniform List<scalar> 
46000
(
33.1225
116.022
206.495
289.799
368.177
443.783
517.57
589.787
660.839
731.032
800.599
869.736
938.036
1005.79
1073.06
1139.86
1206.18
1272
1337.28
1401.97
1466.03
1529.38
1591.98
1653.76
1714.64
1774.56
1833.45
1891.23
1947.84
2003.2
2057.25
2109.9
2161.11
2210.79
2258.89
2305.34
2350.1
2393.1
2434.29
2473.63
2511.08
2546.58
2580.11
2611.64
2641.14
2668.58
2693.95
2717.23
2738.41
2757.5
2774.47
2789.35
2802.13
2812.84
2821.48
2828.07
2832.64
2835.23
2835.85
2834.56
2831.41
2826.45
2819.74
2811.3
2801.14
2789.32
2775.89
2760.91
2744.42
2726.49
2707.18
2686.55
2664.66
2641.57
2617.35
2592.07
2565.78
2538.55
2510.44
2481.52
2451.85
2421.49
2390.51
2358.96
2326.9
2294.4
2261.5
2228.27
2194.75
2161.01
2127.08
2093.03
2058.89
2024.71
1990.53
1956.4
1922.35
1888.43
1854.66
1821.07
1787.71
1754.59
1721.75
1689.21
1656.99
1625.12
1593.61
1562.48
1531.74
1501.41
1471.5
1442.02
1412.99
1384.39
1356.25
1328.57
1301.34
1274.58
1248.27
1222.43
1197.04
1172.11
1147.62
1123.59
1099.99
1076.83
1054.1
1031.79
1009.89
988.397
967.297
946.582
926.244
906.272
886.656
867.387
848.453
829.846
811.553
793.566
775.874
758.467
741.334
724.467
707.856
691.491
675.364
659.465
643.787
628.32
613.058
597.992
583.115
568.422
553.904
539.556
525.372
511.346
497.474
483.751
470.172
456.732
443.428
430.255
417.21
404.29
391.504
378.847
366.305
353.873
341.548
329.326
317.204
305.18
293.249
281.408
269.653
257.981
246.386
234.864
223.409
212.016
200.676
189.382
178.124
166.891
155.677
144.481
133.275
122.036
110.736
99.3469
87.8282
76.1307
64.1893
51.9176
39.2033
25.9363
12.4627
2.71183
33.1325
116.045
206.515
289.807
368.179
443.784
517.571
589.788
660.841
731.034
800.6
869.737
938.036
1005.79
1073.06
1139.86
1206.18
1272
1337.28
1401.97
1466.03
1529.38
1591.98
1653.76
1714.64
1774.56
1833.45
1891.23
1947.84
2003.2
2057.24
2109.9
2161.1
2210.78
2258.88
2305.34
2350.1
2393.1
2434.29
2473.63
2511.07
2546.58
2580.11
2611.64
2641.14
2668.58
2693.95
2717.23
2738.41
2757.49
2774.47
2789.35
2802.13
2812.83
2821.47
2828.06
2832.64
2835.22
2835.85
2834.56
2831.4
2826.44
2819.74
2811.29
2801.14
2789.32
2775.89
2760.9
2744.41
2726.49
2707.17
2686.54
2664.65
2641.57
2617.35
2592.06
2565.77
2538.54
2510.43
2481.51
2451.84
2421.49
2390.5
2358.95
2326.9
2294.39
2261.5
2228.26
2194.75
2161
2127.08
2093.02
2058.88
2024.7
1990.53
1956.4
1922.35
1888.42
1854.65
1821.07
1787.71
1754.59
1721.75
1689.21
1656.99
1625.12
1593.61
1562.47
1531.74
1501.41
1471.5
1442.02
1412.98
1384.39
1356.25
1328.57
1301.34
1274.57
1248.27
1222.42
1197.04
1172.1
1147.62
1123.59
1099.99
1076.83
1054.1
1031.79
1009.89
988.395
967.295
946.58
926.242
906.27
886.654
867.385
848.451
829.844
811.551
793.564
775.872
758.465
741.332
724.466
707.854
691.49
675.362
659.464
643.785
628.319
613.056
597.99
583.114
568.42
553.902
539.554
525.37
511.345
497.473
483.75
470.17
456.731
443.426
430.254
417.208
404.289
391.503
378.846
366.304
353.872
341.547
329.325
317.204
305.179
293.248
281.407
269.652
257.98
246.385
234.863
223.409
212.015
200.676
189.382
178.123
166.89
155.676
144.481
133.275
122.035
110.736
99.3467
87.828
76.1306
64.1892
51.9175
39.2033
25.9363
12.4627
2.71183
126.007
106.758
134.033
167.101
201.767
237.227
273.262
309.647
346.333
383.31
420.48
457.868
495.404
533.094
570.931
608.894
646.953
685.071
723.205
761.312
799.341
837.24
874.956
912.431
949.608
986.426
1022.82
1058.74
1094.12
1128.9
1163.01
1196.4
1229.01
1260.77
1291.65
1321.57
1350.49
1378.36
1405.13
1430.76
1455.21
1478.43
1500.4
1521.08
1540.44
1558.46
1575.12
1590.39
1604.28
1616.76
1627.83
1637.48
1645.73
1652.56
1658
1662.05
1664.73
1666.05
1666.05
1664.75
1662.18
1658.38
1653.4
1647.24
1639.93
1631.5
1622
1611.44
1599.89
1587.39
1573.97
1559.68
1544.58
1528.7
1512.1
1494.81
1476.9
1458.4
1439.37
1419.84
1399.87
1379.5
1358.78
1337.75
1316.44
1294.91
1273.2
1251.33
1229.35
1207.3
1185.21
1163.11
1141.04
1119.02
1097.08
1075.25
1053.56
1032.02
1010.67
989.513
968.576
947.876
927.427
907.244
887.34
867.726
848.412
829.406
810.717
792.35
774.31
756.602
739.227
722.189
705.487
689.123
673.094
657.4
642.038
627.006
612.299
597.914
583.846
570.089
556.639
543.489
530.633
518.065
505.777
493.764
482.017
470.53
459.295
448.305
437.553
427.03
416.73
406.646
396.769
387.094
377.612
368.318
359.203
350.263
341.489
332.877
324.42
316.112
307.947
299.922
292.029
284.265
276.624
269.103
261.697
254.402
247.215
240.132
233.15
226.266
219.476
212.779
206.172
199.652
193.218
186.869
180.608
174.429
168.328
162.302
156.349
150.468
144.656
138.911
133.234
127.621
122.071
116.584
111.156
105.787
100.474
95.2154
90.0091
84.8526
79.7432
74.6786
69.6588
64.6824
59.7408
54.8278
49.937
45.0609
40.191
35.3182
30.4331
25.5304
20.6237
15.8081
11.605
13.5369
125.992
106.751
134.029
167.097
201.763
237.223
273.258
309.642
346.328
383.304
420.474
457.862
495.397
533.086
570.923
608.886
646.944
685.061
723.195
761.301
799.329
837.228
874.944
912.418
949.594
986.412
1022.81
1058.73
1094.11
1128.88
1162.99
1196.38
1228.99
1260.76
1291.63
1321.55
1350.47
1378.34
1405.11
1430.74
1455.19
1478.41
1500.38
1521.06
1540.42
1558.44
1575.09
1590.37
1604.25
1616.73
1627.8
1637.46
1645.7
1652.54
1657.98
1662.03
1664.7
1666.03
1666.03
1664.72
1662.15
1658.36
1653.38
1647.22
1639.91
1631.48
1621.97
1611.42
1599.87
1587.37
1573.95
1559.66
1544.56
1528.68
1512.08
1494.79
1476.88
1458.38
1439.35
1419.82
1399.85
1379.48
1358.76
1337.73
1316.42
1294.89
1273.18
1251.31
1229.34
1207.29
1185.19
1163.1
1141.02
1119
1097.07
1075.24
1053.55
1032.01
1010.65
989.499
968.563
947.863
927.414
907.232
887.328
867.714
848.4
829.395
810.706
792.339
774.3
756.591
739.217
722.179
705.478
689.113
673.085
657.391
642.03
626.997
612.291
597.906
583.838
570.081
556.631
543.482
530.626
518.058
505.771
493.757
482.011
470.524
459.289
448.299
437.547
427.025
416.725
406.641
396.764
387.089
377.608
368.313
359.199
350.258
341.485
332.873
324.416
316.108
307.944
299.918
292.025
284.261
276.621
269.1
261.694
254.399
247.212
240.129
233.147
226.263
219.474
212.776
206.169
199.649
193.216
186.867
180.606
174.427
168.326
162.3
156.348
150.466
144.654
138.91
133.232
127.619
122.07
116.582
111.155
105.785
100.473
95.2143
90.0081
84.8516
79.7423
74.6778
69.6581
64.6817
59.7401
54.8273
49.9365
45.0604
40.1906
35.3179
30.4328
25.5302
20.6236
15.808
11.605
13.537
226.689
140.915
143.526
159.843
180.747
203.903
228.427
253.87
279.981
306.632
333.722
361.191
388.981
417.056
445.382
473.926
502.653
531.527
560.508
589.555
618.625
647.674
676.656
705.521
734.223
762.709
790.931
818.835
846.372
873.489
900.134
926.257
951.808
976.738
1001
1024.54
1047.32
1069.3
1090.44
1110.68
1130.01
1148.39
1165.78
1182.15
1197.48
1211.76
1224.94
1237.03
1248.01
1257.87
1266.59
1274.19
1280.64
1285.97
1290.17
1293.25
1295.23
1296.12
1295.93
1294.7
1292.44
1289.18
1284.96
1279.79
1273.69
1266.69
1258.82
1250.12
1240.62
1230.34
1219.34
1207.65
1195.31
1182.35
1168.81
1154.74
1140.18
1125.16
1109.72
1093.9
1077.74
1061.27
1044.54
1027.57
1010.41
993.091
975.638
958.087
940.467
922.81
905.141
887.489
869.878
852.332
834.875
817.526
800.307
783.235
766.328
749.601
733.069
716.746
700.643
684.77
669.138
653.755
638.627
623.762
609.165
594.838
580.787
567.013
553.518
540.302
527.366
514.708
502.328
490.223
478.391
466.829
455.534
444.501
433.726
423.205
412.932
402.903
393.112
383.553
374.221
365.11
356.213
347.524
339.038
330.748
322.649
314.732
306.994
299.427
292.026
284.785
277.697
270.758
263.962
257.303
250.777
244.377
238.1
231.94
225.894
219.956
214.123
208.391
202.755
197.212
191.76
186.394
181.113
175.912
170.789
165.742
160.769
155.868
151.036
146.273
141.575
136.944
132.378
127.874
123.431
119.047
114.72
110.448
106.23
102.066
97.9545
93.8941
89.8843
85.9242
82.0128
78.1494
74.3331
70.563
66.8382
63.1578
59.5212
55.9278
52.3776
48.871
45.4058
41.981
38.5961
35.2519
31.9512
28.7015
25.5191
22.4421
19.5649
17.1626
16.4051
27.9261
226.687
140.911
143.522
159.839
180.743
203.899
228.423
253.866
279.976
306.627
333.717
361.186
388.976
417.05
445.375
473.919
502.646
531.52
560.5
589.547
618.617
647.666
676.647
705.512
734.213
762.7
790.921
818.825
846.361
873.478
900.123
926.246
951.797
976.726
1000.99
1024.53
1047.31
1069.29
1090.42
1110.67
1130
1148.37
1165.76
1182.14
1197.47
1211.74
1224.93
1237.02
1248
1257.85
1266.58
1274.17
1280.63
1285.96
1290.16
1293.24
1295.22
1296.1
1295.92
1294.68
1292.42
1289.17
1284.95
1279.77
1273.68
1266.68
1258.81
1250.11
1240.6
1230.33
1219.33
1207.64
1195.29
1182.33
1168.8
1154.73
1140.17
1125.14
1109.7
1093.89
1077.72
1061.26
1044.53
1027.56
1010.4
993.081
975.628
958.077
940.458
922.8
905.132
887.48
869.869
852.324
834.867
817.518
800.299
783.227
766.32
749.594
733.062
716.739
700.636
684.764
669.132
653.748
638.621
623.756
609.159
594.833
580.782
567.008
553.513
540.297
527.361
514.703
502.323
490.218
478.387
466.825
455.53
444.497
433.722
423.201
412.929
402.9
393.109
383.55
374.218
365.107
356.21
347.522
339.036
330.746
322.646
314.73
306.992
299.425
292.024
284.782
277.695
270.756
263.96
257.301
250.775
244.375
238.098
231.939
225.892
219.955
214.122
208.389
202.753
197.211
191.759
186.393
181.111
175.91
170.788
165.741
160.768
155.867
151.035
146.272
141.574
136.943
132.377
127.873
123.431
119.046
114.719
110.447
106.23
102.066
97.9538
93.8935
89.8837
85.9236
82.0123
78.149
74.3327
70.5626
66.8378
63.1575
59.5208
55.9274
52.3773
48.8707
45.4056
41.9808
38.5959
35.2517
31.9511
28.7014
25.519
22.4421
19.5648
17.1626
16.4052
27.9262
321.746
179.977
164.996
170.971
184.076
200.618
219.185
239.1
259.987
281.621
303.852
326.578
349.719
373.216
397.019
421.084
445.37
469.836
494.442
519.147
543.912
568.693
593.448
618.134
642.706
667.12
691.33
715.29
738.955
762.277
785.212
807.713
829.737
851.238
872.174
892.503
912.184
931.179
949.451
966.963
983.684
999.582
1014.63
1028.8
1042.07
1054.41
1065.81
1076.26
1085.74
1094.24
1101.75
1108.28
1113.81
1118.35
1121.9
1124.48
1126.09
1126.73
1126.44
1125.23
1123.11
1120.12
1116.27
1111.59
1106.09
1099.8
1092.75
1084.97
1076.49
1067.33
1057.54
1047.14
1036.17
1024.66
1012.66
1000.18
987.28
973.98
960.318
946.329
932.046
917.502
902.73
887.763
872.63
857.361
841.987
826.534
811.029
795.5
779.969
764.461
748.998
733.601
718.29
703.083
687.997
673.05
658.255
643.627
629.178
614.919
600.861
587.014
573.384
559.979
546.805
533.868
521.172
508.72
496.515
484.558
472.85
461.393
450.185
439.227
428.515
418.049
407.826
397.843
388.096
378.583
369.299
360.239
351.4
342.777
334.364
326.156
318.149
310.337
302.714
295.274
288.014
280.926
274.005
267.246
260.644
254.192
247.886
241.72
235.689
229.789
224.013
218.358
212.819
207.391
202.07
196.852
191.733
186.708
181.775
176.929
172.168
167.488
162.886
158.36
153.906
149.522
145.207
140.957
136.771
132.647
128.583
124.578
120.631
116.74
112.904
109.123
105.394
101.716
98.087
94.5067
90.9739
87.4879
84.048
80.6536
77.3042
73.9992
70.7383
67.5211
64.3473
61.2166
58.1291
55.0847
52.0837
49.1267
46.2146
43.3488
40.5309
37.7629
35.0489
32.3954
29.8137
27.3238
24.9622
22.802
21.0076
20.0323
21.7494
42.0843
321.751
179.973
164.992
170.967
184.072
200.614
219.181
239.096
259.982
281.616
303.847
326.573
349.714
373.21
397.013
421.078
445.364
469.83
494.435
519.141
543.905
568.686
593.441
618.127
642.699
667.113
691.322
715.282
738.946
762.269
785.203
807.704
829.728
851.229
872.164
892.493
912.174
931.169
949.441
966.954
983.674
999.572
1014.62
1028.79
1042.06
1054.4
1065.8
1076.25
1085.73
1094.23
1101.74
1108.27
1113.8
1118.34
1121.89
1124.47
1126.07
1126.72
1126.43
1125.22
1123.1
1120.11
1116.26
1111.58
1106.08
1099.79
1092.74
1084.96
1076.48
1067.32
1057.53
1047.13
1036.16
1024.65
1012.65
1000.18
987.272
973.972
960.31
946.321
932.038
917.495
902.723
887.756
872.623
857.355
841.98
826.527
811.023
795.494
779.963
764.456
748.993
733.596
718.284
703.078
687.992
673.045
658.251
643.623
629.174
614.915
600.857
587.01
573.38
559.975
546.802
533.865
521.169
508.717
496.511
484.555
472.847
461.39
450.183
439.224
428.513
418.046
407.823
397.84
388.094
378.581
369.297
360.237
351.398
342.775
334.362
326.155
318.147
310.335
302.712
295.273
288.012
280.924
274.004
267.245
260.642
254.191
247.885
241.719
235.688
229.788
224.012
218.357
212.818
207.39
202.069
196.851
191.732
186.707
181.774
176.929
172.167
167.487
162.885
158.359
153.905
149.522
145.206
140.956
136.77
132.646
128.582
124.577
120.63
116.739
112.904
109.123
105.394
101.715
98.0867
94.5064
90.9736
87.4876
84.0478
80.6534
77.3039
73.999
70.7381
67.5209
64.3471
61.2165
58.1289
55.0846
52.0836
49.1265
46.2144
43.3487
40.5308
37.7628
35.0488
32.3953
29.8137
27.3237
24.9621
22.802
21.0076
20.0324
21.7496
42.0844
412.928
220.374
190.402
188.287
195.668
207.621
222.243
238.619
256.244
274.813
294.122
314.032
334.439
355.262
376.438
397.911
419.631
441.554
463.637
485.837
508.113
530.424
552.728
574.985
597.152
619.187
641.047
662.69
684.074
705.155
725.892
746.243
766.165
785.62
804.566
822.966
840.782
857.977
874.519
890.374
905.511
919.901
933.519
946.339
958.339
969.5
979.804
989.237
997.786
1005.44
1012.2
1018.05
1022.99
1027.03
1030.17
1032.41
1033.77
1034.25
1033.86
1032.64
1030.58
1027.71
1024.06
1019.64
1014.48
1008.59
1002
994.745
986.843
978.327
969.226
959.571
949.394
938.726
927.6
916.048
904.102
891.794
879.157
866.221
853.018
839.578
825.931
812.108
798.135
784.042
769.854
755.597
741.297
726.977
712.66
698.367
684.119
669.936
655.835
641.833
627.947
614.192
600.58
587.125
573.838
560.73
547.81
535.086
522.566
510.256
498.162
486.288
474.639
463.217
452.024
441.063
430.334
419.837
409.572
399.538
389.734
380.158
370.807
361.678
352.77
344.077
335.597
327.325
319.257
311.389
303.716
296.233
288.935
281.818
274.876
268.104
261.497
255.05
248.758
242.616
236.618
230.759
225.035
219.44
213.971
208.622
203.388
198.265
193.25
188.337
183.523
178.804
174.176
169.635
165.179
160.803
156.505
152.282
148.131
144.05
140.035
136.085
132.198
128.371
124.603
120.892
117.236
113.635
110.087
106.59
103.144
99.7476
96.3993
93.0979
89.8424
86.632
83.4659
80.3435
77.2644
74.2279
71.2341
68.2827
65.3736
62.5068
59.6825
56.9009
54.1627
51.4684
48.8193
46.2167
43.6626
41.16
38.7125
36.3253
34.0059
31.7662
29.6249
27.6129
25.7851
24.2467
23.2282
23.3578
27.1917
55.8046
412.933
220.37
190.398
188.283
195.664
207.617
222.238
238.614
256.24
274.808
294.117
314.027
334.434
355.257
376.433
397.905
419.626
441.549
463.631
485.831
508.107
530.418
552.722
574.979
597.145
619.18
641.04
662.683
684.067
705.148
725.885
746.235
766.158
785.612
804.558
822.958
840.774
857.969
874.511
890.366
905.502
919.893
933.51
946.33
958.331
969.492
979.796
989.228
997.777
1005.43
1012.19
1018.04
1022.99
1027.02
1030.16
1032.4
1033.76
1034.24
1033.86
1032.63
1030.57
1027.71
1024.06
1019.64
1014.47
1008.58
1002
994.738
986.836
978.32
969.219
959.564
949.387
938.72
927.594
916.042
904.096
891.789
879.151
866.215
853.012
839.572
825.926
812.103
798.13
784.037
769.849
755.593
741.293
726.973
712.656
698.363
684.115
669.932
655.831
641.83
627.944
614.188
600.577
587.122
573.835
560.727
547.807
535.083
522.563
510.253
498.159
486.286
474.636
463.214
452.022
441.061
430.332
419.835
409.57
399.536
389.732
380.156
370.805
361.677
352.768
344.076
335.595
327.323
319.256
311.388
303.714
296.232
288.934
281.817
274.875
268.103
261.496
255.05
248.757
242.615
236.617
230.758
225.034
219.44
213.97
208.621
203.387
198.265
193.249
188.336
183.522
178.803
174.175
169.635
165.178
160.803
156.505
152.282
148.131
144.049
140.035
136.085
132.198
128.371
124.603
120.891
117.236
113.635
110.087
106.59
103.144
99.7474
96.399
93.0977
89.8422
86.6318
83.4657
80.3434
77.2642
74.2278
71.234
68.2826
65.3735
62.5067
59.6824
56.9008
54.1626
51.4684
48.8192
46.2166
43.6626
41.16
38.7125
36.3252
34.0059
31.7662
29.6248
27.6129
25.7851
24.2467
23.2282
23.3578
27.192
55.8048
502.018
261.598
217.817
208.637
211.298
219.647
231.292
245.087
260.398
276.841
294.163
312.187
330.785
349.856
369.323
389.119
409.187
429.475
449.937
470.527
491.204
511.924
532.647
553.332
573.938
594.425
614.751
634.877
654.762
674.366
693.648
712.57
731.093
749.179
766.791
783.892
800.447
816.424
831.789
846.513
860.566
873.921
886.554
898.441
909.562
919.898
929.433
938.152
946.045
953.101
959.315
964.682
969.2
972.871
975.696
977.682
978.837
979.17
978.694
977.423
975.375
972.567
969.018
964.748
959.776
954.125
947.819
940.882
933.341
925.222
916.555
907.369
897.691
887.553
876.985
866.017
854.678
843
831.012
818.745
806.226
793.486
780.552
767.453
754.214
740.862
727.422
713.918
700.375
686.814
673.257
659.723
646.234
632.806
619.457
606.204
593.06
580.041
567.159
554.425
541.852
529.449
517.224
505.185
493.34
481.695
470.255
459.023
448.005
437.203
426.619
416.254
406.11
396.186
386.482
376.998
367.731
358.681
349.845
341.22
332.804
324.593
316.584
308.773
301.155
293.727
286.484
279.423
272.537
265.822
259.274
252.888
246.659
240.581
234.651
228.863
223.212
217.694
212.304
207.037
201.889
196.856
191.932
187.114
182.399
177.781
173.257
168.823
164.476
160.213
156.03
151.923
147.891
143.931
140.039
136.213
132.451
128.751
125.11
121.527
118.001
114.529
111.11
107.743
104.426
101.158
97.939
94.7669
91.6409
88.56
85.5234
82.5303
79.5801
76.6725
73.807
70.9833
68.2016
65.4617
62.7638
60.1085
57.4962
54.9277
52.4039
49.9263
47.4966
45.1172
42.7912
40.5228
38.3175
36.1833
34.1311
32.1775
30.3479
28.6838
27.2567
26.2024
25.8162
26.8972
32.6681
69.2386
502.022
261.594
217.813
208.633
211.294
219.642
231.287
245.082
260.394
276.837
294.158
312.182
330.78
349.851
369.318
389.114
409.181
429.47
449.931
470.522
491.198
511.918
532.641
553.326
573.932
594.419
614.745
634.871
654.755
674.359
693.641
712.564
731.086
749.172
766.784
783.885
800.44
816.417
831.782
846.506
860.559
873.914
886.547
898.434
909.555
919.891
929.426
938.145
946.037
953.094
959.308
964.675
969.193
972.864
975.689
977.675
978.83
979.163
978.687
977.417
975.368
972.56
969.012
964.742
959.77
954.119
947.813
940.876
933.335
925.217
916.55
907.363
897.686
887.548
876.98
866.012
854.673
842.995
831.008
818.74
806.222
793.482
780.548
767.448
754.21
740.858
727.418
713.915
700.371
686.81
673.253
659.72
646.231
632.803
619.454
606.201
593.057
580.038
567.156
554.423
541.85
529.446
517.221
505.183
493.338
481.693
470.253
459.022
448.004
437.201
426.617
416.252
406.108
396.184
386.48
376.996
367.73
358.68
349.844
341.219
332.803
324.592
316.583
308.772
301.154
293.726
286.483
279.422
272.536
265.821
259.273
252.887
246.658
240.58
234.65
228.862
223.211
217.693
212.303
207.036
201.889
196.855
191.932
187.114
182.398
177.78
173.256
168.823
164.476
160.212
156.029
151.923
147.891
143.93
140.038
136.213
132.451
128.751
125.11
121.527
118.001
114.529
111.11
107.742
104.426
101.158
97.9388
94.7667
91.6407
88.5599
85.5232
82.5302
79.58
76.6724
73.8068
70.9832
68.2015
65.4616
62.7638
60.1085
57.4962
54.9276
52.4038
49.9262
47.4965
45.1171
42.7911
40.5227
38.3175
36.1833
34.1311
32.1775
30.3479
28.6838
27.2566
26.2024
25.8162
26.8973
32.6684
69.2389
589.457
303.494
246.556
230.873
229.386
234.694
243.919
255.68
269.217
284.069
299.933
316.598
333.909
351.75
370.027
388.663
407.592
426.758
446.107
465.594
485.171
504.796
524.427
544.023
563.543
582.949
602.199
621.255
640.079
658.632
676.875
694.773
712.286
729.381
746.022
762.174
777.805
792.883
807.377
821.26
834.503
847.082
858.973
870.155
880.607
890.312
899.255
907.423
914.804
921.391
927.177
932.158
936.331
939.699
942.263
944.029
945.004
945.198
944.622
943.289
941.215
938.417
934.913
930.722
925.861
920.354
914.223
907.491
900.184
892.327
883.947
875.072
865.729
855.947
845.754
835.18
824.253
813.001
801.454
789.639
777.585
765.319
752.867
740.257
727.513
714.661
701.725
688.728
675.692
662.639
649.59
636.563
623.577
610.651
597.799
585.039
572.383
559.847
547.441
535.178
523.068
511.12
499.344
487.746
476.334
465.113
454.088
443.265
432.645
422.233
412.03
402.038
392.258
382.689
373.332
364.187
355.25
346.522
338
329.681
321.563
313.643
305.917
298.381
291.032
283.867
276.879
270.067
263.424
256.946
250.629
244.469
238.46
232.598
226.878
221.295
215.846
210.525
205.327
200.25
195.287
190.435
185.69
181.047
176.504
172.055
167.698
163.428
159.243
155.139
151.112
147.161
143.282
139.473
135.731
132.053
128.437
124.882
121.385
117.944
114.559
111.227
107.946
104.717
101.536
98.4042
95.3192
92.2804
89.287
86.3379
83.4326
80.5704
77.7509
74.9736
72.2385
69.5454
66.8945
64.2861
61.7204
59.1983
56.7206
54.2884
51.9034
49.5674
47.2829
45.0531
42.8823
40.7758
38.7412
36.7885
34.9322
33.193
31.6029
30.2132
29.1115
28.4637
28.6285
30.5752
38.1831
82.5125
589.459
303.489
246.551
230.868
229.381
234.69
243.915
255.676
269.213
284.065
299.928
316.593
333.904
351.745
370.022
388.658
407.587
426.752
446.102
465.588
485.165
504.79
524.421
544.017
563.538
582.943
602.193
621.25
640.073
658.626
676.869
694.766
712.28
729.375
746.015
762.167
777.798
792.876
807.371
821.253
834.497
847.076
858.967
870.148
880.6
890.306
899.249
907.416
914.798
921.385
927.171
932.151
936.325
939.693
942.257
944.023
944.998
945.192
944.616
943.283
941.21
938.412
934.908
930.716
925.856
920.349
914.218
907.486
900.179
892.322
883.942
875.067
865.724
855.942
845.75
835.176
824.248
812.997
801.45
789.635
777.581
765.315
752.864
740.253
727.51
714.658
701.722
688.725
675.689
662.637
649.587
636.56
623.575
610.648
597.797
585.036
572.381
559.844
547.439
535.176
523.066
511.118
499.342
487.744
476.332
465.111
454.087
443.263
432.644
422.232
412.029
402.037
392.256
382.688
373.331
364.185
355.249
346.521
337.999
329.68
321.562
313.642
305.916
298.38
291.032
283.866
276.879
270.066
263.423
256.945
250.629
244.468
238.459
232.597
226.877
221.295
215.845
210.524
205.327
200.249
195.286
190.435
185.689
181.047
176.503
172.055
167.697
163.428
159.242
155.138
151.112
147.161
143.282
139.473
135.73
132.052
128.437
124.882
121.385
117.944
114.559
111.226
107.946
104.717
101.536
98.4041
95.3191
92.2803
89.2868
86.3378
83.4325
80.5703
77.7508
74.9735
72.2384
69.5453
66.8945
64.286
61.7204
59.1983
56.7205
54.2884
51.9033
49.5673
47.2828
45.0531
42.8822
40.7758
38.7412
36.7885
34.9321
33.193
31.6029
30.2131
29.1115
28.4637
28.6285
30.5753
38.1836
82.5128
675.607
345.975
276.328
254.496
249.22
251.846
259.005
269.081
281.188
294.788
309.529
325.166
341.521
358.458
375.869
393.668
411.781
430.143
448.697
467.393
486.182
505.019
523.86
542.666
561.394
580.005
598.461
616.724
634.755
652.518
669.976
687.094
703.836
720.169
736.058
751.472
766.38
780.752
794.558
807.773
820.37
832.325
843.618
854.226
864.132
873.319
881.774
889.483
896.436
902.626
908.047
912.695
916.569
919.668
921.997
923.559
924.363
924.416
923.73
922.318
920.194
917.374
913.876
909.716
904.914
899.491
893.468
886.868
879.715
872.034
863.85
855.19
846.079
836.546
826.618
816.322
805.686
794.737
783.503
772.01
760.286
748.356
736.248
723.985
711.592
699.094
686.513
673.873
661.193
648.496
635.801
623.127
610.491
597.91
585.401
572.979
560.657
548.448
536.365
524.418
512.619
500.975
489.496
478.189
467.06
456.116
445.361
434.801
424.437
414.273
404.312
394.554
385.001
375.653
366.511
357.572
348.837
340.303
331.969
323.833
315.892
308.142
300.582
293.206
286.013
278.997
272.155
265.483
258.977
252.632
246.444
240.408
234.52
228.775
223.169
217.698
212.357
207.141
202.047
197.07
192.206
187.45
182.799
178.249
173.796
169.436
165.166
160.983
156.883
152.862
148.919
145.05
141.252
137.522
133.859
130.26
126.723
123.245
119.826
116.462
113.154
109.898
106.694
103.54
100.435
97.3783
94.3684
91.4047
88.4862
85.6124
82.7824
79.9959
77.2524
74.5518
71.8939
69.2789
66.707
64.1788
61.6948
59.2561
56.8638
54.5194
52.2249
49.9828
47.7964
45.6696
43.6077
41.6174
39.7078
37.8913
36.1853
34.6149
33.2183
32.0561
31.2321
30.9415
31.607
34.3679
43.7561
95.7216
675.609
345.969
276.323
254.492
249.215
251.842
259.001
269.077
281.183
294.783
309.524
325.161
341.516
358.453
375.865
393.663
411.776
430.138
448.692
467.388
486.176
505.013
523.855
542.66
561.388
580
598.456
616.718
634.749
652.512
669.97
687.088
703.83
720.163
736.052
751.466
766.374
780.746
794.552
807.767
820.364
832.32
843.612
854.22
864.126
873.313
881.768
889.477
896.431
902.621
908.042
912.69
916.563
919.663
921.991
923.554
924.357
924.411
923.725
922.313
920.189
917.369
913.871
909.711
904.91
899.486
893.464
886.864
879.711
872.03
863.846
855.185
846.075
836.543
826.614
816.319
805.682
794.734
783.499
772.007
760.283
748.353
736.244
723.982
711.589
699.091
686.511
673.87
661.191
648.494
635.799
623.124
610.488
597.908
585.399
572.976
560.654
548.446
536.363
524.416
512.617
500.973
489.494
478.187
467.059
456.115
445.36
434.799
424.435
414.272
404.31
394.553
385
375.652
366.509
357.571
348.836
340.302
331.968
323.832
315.891
308.141
300.581
293.205
286.012
278.996
272.155
265.483
258.976
252.631
246.443
240.407
234.519
228.774
223.169
217.698
212.356
207.141
202.047
197.069
192.205
187.449
182.799
178.248
173.795
169.436
165.166
160.982
156.882
152.862
148.919
145.049
141.251
137.522
133.859
130.26
126.723
123.245
119.826
116.462
113.154
109.898
106.694
103.54
100.435
97.3781
94.3682
91.4045
88.4861
85.6122
82.7823
79.9958
77.2523
74.5517
71.8938
69.2788
66.707
64.1787
61.6948
59.256
56.8637
54.5193
52.2248
49.9828
47.7963
45.6696
43.6076
41.6173
39.7078
37.8912
36.1852
34.6149
33.2183
32.056
31.232
30.9415
31.607
34.368
43.7566
95.722
761.012
389.137
307.017
279.276
270.448
270.634
275.968
284.598
295.51
308.091
321.938
336.774
352.396
368.651
385.418
402.598
420.109
437.881
455.853
473.968
492.175
510.428
528.681
546.893
565.023
583.03
600.877
618.526
635.94
653.084
669.922
686.419
702.543
718.261
733.541
748.352
762.666
776.453
789.687
802.342
814.395
825.822
836.604
846.721
856.157
864.895
872.922
880.228
886.803
892.638
897.731
902.075
905.672
908.522
910.626
911.992
912.624
912.533
911.727
910.221
908.027
905.161
901.639
897.478
892.698
887.317
881.357
874.84
867.788
860.226
852.177
843.668
834.724
825.37
815.634
805.541
795.117
784.391
773.387
762.131
750.65
738.969
727.113
715.105
702.971
690.732
678.411
666.03
653.61
641.17
628.731
616.309
603.923
591.588
579.321
567.136
555.046
543.065
531.204
519.474
507.885
496.446
485.166
474.051
463.108
452.344
441.763
431.369
421.166
411.157
401.344
391.729
382.313
373.096
364.079
355.26
346.639
338.215
329.985
321.948
314.101
306.442
298.967
291.674
284.558
277.616
270.845
264.24
257.798
251.513
245.383
239.402
233.567
227.873
222.315
216.89
211.593
206.42
201.367
196.429
191.602
186.883
182.268
177.753
173.334
169.007
164.77
160.619
156.55
152.561
148.648
144.81
141.042
137.344
133.711
130.142
126.636
123.189
119.801
116.469
113.192
109.968
106.796
103.675
100.603
97.5796
94.6035
91.6741
88.7905
85.9521
83.1584
80.4089
77.7034
75.0418
72.4241
69.8505
67.3215
64.8378
62.4003
60.0101
57.6687
55.3781
53.1408
50.9596
48.8385
46.7821
44.7969
42.8908
41.0746
39.3626
37.7753
36.342
35.1067
34.1396
33.5604
33.5941
34.7274
38.2712
49.4091
108.942
761.013
389.132
307.013
279.271
270.443
270.63
275.963
284.594
295.506
308.086
321.933
336.769
352.391
368.646
385.413
402.593
420.104
437.877
455.848
473.963
492.17
510.423
528.676
546.888
565.017
583.025
600.872
618.521
635.935
653.078
669.916
686.414
702.538
718.256
733.536
748.347
762.66
776.447
789.681
802.337
814.389
825.817
836.599
846.716
856.151
864.889
872.917
880.223
886.797
892.633
897.725
902.07
905.667
908.517
910.621
911.987
912.619
912.528
911.723
910.216
908.022
905.156
901.635
897.474
892.694
887.313
881.353
874.836
867.784
860.222
852.174
843.665
834.72
825.367
815.63
805.537
795.114
784.388
773.384
762.128
750.647
738.966
727.11
715.103
702.968
690.729
678.408
666.028
653.608
641.168
628.728
616.307
603.921
591.586
579.319
567.134
555.045
543.063
531.202
519.472
507.883
496.445
485.164
474.049
463.107
452.343
441.761
431.368
421.165
411.156
401.343
391.728
382.312
373.095
364.078
355.259
346.638
338.214
329.984
321.947
314.101
306.441
298.967
291.673
284.557
277.616
270.844
264.239
257.797
251.513
245.382
239.402
233.566
227.872
222.315
216.89
211.593
206.419
201.366
196.428
191.602
186.883
182.268
177.753
173.333
169.007
164.77
160.618
156.55
152.56
148.648
144.809
141.042
137.343
133.711
130.142
126.636
123.189
119.801
116.469
113.192
109.968
106.796
103.675
100.603
97.5794
94.6034
91.6739
88.7904
85.952
83.1583
80.4088
77.7033
75.0417
72.424
69.8504
67.3214
64.8377
62.4002
60.01
57.6686
55.3781
53.1407
50.9595
48.8384
46.7821
44.7969
42.8908
41.0745
39.3626
37.7753
36.342
35.1067
34.1396
33.5603
33.594
34.7275
38.2713
49.4097
108.943
846.116
433.061
338.619
305.111
292.892
290.807
294.487
301.842
311.73
323.459
336.579
350.777
365.829
381.561
397.84
414.557
431.621
448.956
466.494
484.176
501.948
519.76
537.566
555.322
572.988
590.522
607.888
625.048
641.966
658.607
674.937
690.922
706.532
721.735
736.5
750.798
764.602
777.886
790.623
802.79
814.365
825.326
835.654
845.332
854.344
862.675
870.314
877.25
883.474
888.981
893.764
897.822
901.155
903.762
905.647
906.816
907.274
907.031
906.096
904.482
902.201
899.27
895.703
891.517
886.73
881.362
875.432
868.962
861.974
854.491
846.536
838.134
829.309
820.087
810.492
800.551
790.287
779.728
768.898
757.823
746.526
735.034
723.368
711.554
699.615
687.571
675.446
663.259
651.032
638.784
626.532
614.296
602.091
589.935
577.841
565.825
553.899
542.077
530.369
518.787
507.34
496.037
484.887
473.896
463.072
452.42
441.945
431.652
421.544
411.624
401.895
392.358
383.015
373.865
364.91