/*--------------------------------*- C++ -*----------------------------------*\
  =========                 |
  \\      /  F ield         | OpenFOAM: The Open Source CFD Toolbox
   \\    /   O peration     | Website:  https://openfoam.org
    \\  /    A nd           | Version:  8
     \\/     M anipulation  |
\*---------------------------------------------------------------------------*/
FoamFile
{
    version     2.0;
    format      ascii;
    class       volScalarField;
    location    "4100";
    object      k;
}
// * * * * * * * * * * * * * * * * * * * * * * * * * * * * * * * * * * * * * //

dimensions      [0 2 -2 0 0 0 0];

internalField   nonuniform List<scalar> 
46000
(
0.0263455
0.0968964
0.172421
0.241971
0.307414
0.370541
0.432149
0.492445
0.551769
0.610375
0.668458
0.726181
0.783207
0.839772
0.895938
0.951713
1.00709
1.06204
1.11654
1.17056
1.22404
1.27693
1.3292
1.38078
1.43161
1.48164
1.5308
1.57905
1.62631
1.67253
1.71766
1.76162
1.80437
1.84585
1.88601
1.9248
1.96216
1.99806
2.03246
2.0653
2.09657
2.12621
2.15421
2.18053
2.20516
2.22807
2.24925
2.26869
2.28638
2.30231
2.31649
2.32891
2.33958
2.34852
2.35574
2.36124
2.36506
2.36722
2.36775
2.36667
2.36404
2.3599
2.35431
2.34725
2.33878
2.32891
2.3177
2.30519
2.29143
2.27646
2.26034
2.24312
2.22485
2.20557
2.18536
2.16425
2.1423
2.11957
2.0961
2.07196
2.04719
2.02185
1.99598
1.96964
1.94288
1.91574
1.88828
1.86053
1.83255
1.80438
1.77606
1.74763
1.71912
1.69059
1.66205
1.63356
1.60513
1.57681
1.54861
1.52058
1.49272
1.46507
1.43765
1.41048
1.38359
1.35697
1.33066
1.30467
1.27901
1.25369
1.22871
1.2041
1.17986
1.15598
1.13249
1.10937
1.08664
1.06429
1.04233
1.02075
0.999549
0.978731
0.95829
0.938221
0.91852
0.899182
0.880201
0.861572
0.843286
0.825338
0.807719
0.790423
0.77344
0.756763
0.740384
0.724294
0.708484
0.692947
0.677672
0.662653
0.647879
0.633344
0.619038
0.604954
0.591083
0.577419
0.563952
0.550676
0.537584
0.524669
0.511925
0.499345
0.486922
0.474653
0.46253
0.450549
0.438705
0.426994
0.415411
0.403951
0.392612
0.38139
0.370281
0.359281
0.348388
0.3376
0.326924
0.316355
0.305882
0.295501
0.28521
0.275004
0.264883
0.254842
0.244879
0.234992
0.225176
0.215429
0.205748
0.196126
0.186562
0.177048
0.167578
0.158148
0.148746
0.139366
0.130002
0.120653
0.111296
0.10191
0.0924745
0.0829634
0.0733445
0.0635762
0.0536042
0.0433563
0.0327388
0.0216598
0.0104081
0.00215091
0.02637
0.0969446
0.172464
0.241992
0.30742
0.370543
0.43215
0.492446
0.55177
0.610376
0.668459
0.726182
0.783207
0.839773
0.895938
0.951713
1.00709
1.06204
1.11654
1.17056
1.22404
1.27693
1.3292
1.38077
1.43161
1.48164
1.5308
1.57905
1.62631
1.67253
1.71765
1.76162
1.80437
1.84585
1.88601
1.92479
1.96216
1.99806
2.03246
2.0653
2.09656
2.12621
2.15421
2.18053
2.20516
2.22807
2.24925
2.26869
2.28638
2.30231
2.31648
2.32891
2.33958
2.34852
2.35573
2.36124
2.36506
2.36722
2.36774
2.36667
2.36404
2.3599
2.3543
2.34725
2.33877
2.32891
2.3177
2.30519
2.29143
2.27646
2.26034
2.24312
2.22484
2.20557
2.18535
2.16424
2.1423
2.11956
2.0961
2.07195
2.04719
2.02184
1.99597
1.96964
1.94287
1.91574
1.88827
1.86053
1.83255
1.80438
1.77605
1.74762
1.71912
1.69058
1.66205
1.63356
1.60513
1.57681
1.54861
1.52057
1.49272
1.46507
1.43765
1.41048
1.38358
1.35697
1.33066
1.30467
1.279
1.25368
1.22871
1.2041
1.17985
1.15598
1.13248
1.10937
1.08664
1.06429
1.04232
1.02074
0.999547
0.978729
0.958287
0.938219
0.918518
0.89918
0.880199
0.86157
0.843284
0.825336
0.807717
0.790421
0.773438
0.756762
0.740382
0.724292
0.708483
0.692945
0.677671
0.662651
0.647878
0.633343
0.619037
0.604953
0.591082
0.577417
0.563951
0.550675
0.537583
0.524668
0.511924
0.499343
0.486921
0.474652
0.462529
0.450548
0.438704
0.426993
0.41541
0.40395
0.392611
0.381389
0.37028
0.35928
0.348387
0.337599
0.326923
0.316354
0.305881
0.2955
0.285209
0.275004
0.264882
0.254841
0.244879
0.234991
0.225176
0.215429
0.205747
0.196126
0.186561
0.177047
0.167578
0.158147
0.148746
0.139366
0.130002
0.120653
0.111296
0.10191
0.0924743
0.0829633
0.0733444
0.0635761
0.0536041
0.0433563
0.0327388
0.0216598
0.0104081
0.00215091
0.0965947
0.263589
0.382963
0.483983
0.575301
0.660402
0.740961
0.818213
0.892957
0.965734
1.03678
1.10641
1.1748
1.24209
1.30839
1.37377
1.43827
1.5019
1.56469
1.62661
1.68764
1.74778
1.80697
1.86519
1.92239
1.97852
2.03354
2.0874
2.14005
2.19143
2.2415
2.2902
2.33747
2.38329
2.42758
2.47031
2.51144
2.55092
2.58871
2.62478
2.65909
2.69161
2.72231
2.75117
2.77818
2.8033
2.82653
2.84786
2.86729
2.8848
2.90039
2.91409
2.92588
2.93579
2.94382
2.95
2.95435
2.9569
2.95766
2.95669
2.954
2.94966
2.9437
2.93614
2.92703
2.9164
2.9043
2.89077
2.87587
2.85964
2.84215
2.82343
2.80355
2.78256
2.76051
2.73747
2.71348
2.68861
2.66291
2.63643
2.60924
2.58138
2.55291
2.52388
2.49435
2.46437
2.43399
2.40325
2.37221
2.34091
2.3094
2.27773
2.24592
2.21403
2.18209
2.15014
2.11822
2.08636
2.05459
2.02294
1.99145
1.96013
1.92902
1.89814
1.8675
1.83714
1.80706
1.77729
1.74783
1.71871
1.68993
1.66152
1.63346
1.60578
1.57848
1.55156
1.52503
1.49889
1.47314
1.44779
1.42283
1.39825
1.37407
1.35027
1.32686
1.30381
1.28114
1.25884
1.23689
1.21529
1.19403
1.17311
1.15251
1.13224
1.11226
1.09259
1.07321
1.05411
1.03528
1.0167
0.998382
0.980302
0.962453
0.944825
0.92741
0.910198
0.89318
0.876346
0.859688
0.843198
0.826866
0.810686
0.794649
0.778747
0.762973
0.74732
0.731782
0.716351
0.701021
0.685787
0.670642
0.65558
0.640596
0.625684
0.610839
0.596055
0.581327
0.566654
0.552027
0.537441
0.522887
0.508361
0.493855
0.479362
0.464876
0.450389
0.435892
0.421375
0.406828
0.39224
0.377597
0.362883
0.348082
0.333174
0.318133
0.302933
0.287539
0.271915
0.25602
0.239794
0.223165
0.20604
0.1883
0.169782
0.150259
0.129396
0.106659
0.0810755
0.0501953
0.0103111
0.0965565
0.263574
0.382961
0.483984
0.575302
0.660402
0.740961
0.818212
0.892957
0.965733
1.03678
1.10641
1.1748
1.24209
1.30839
1.37377
1.43826
1.5019
1.56468
1.6266
1.68764
1.74778
1.80697
1.86519
1.92239
1.97852
2.03354
2.0874
2.14005
2.19143
2.24149
2.29019
2.33747
2.38328
2.42758
2.47031
2.51144
2.55092
2.58871
2.62477
2.65908
2.6916
2.72231
2.75117
2.77817
2.8033
2.82653
2.84786
2.86728
2.88479
2.90039
2.91408
2.92588
2.93578
2.94382
2.95
2.95435
2.95689
2.95766
2.95668
2.954
2.94966
2.94369
2.93614
2.92703
2.9164
2.90429
2.89077
2.87586
2.85964
2.84214
2.82342
2.80354
2.78255
2.7605
2.73746
2.71347
2.6886
2.6629
2.63642
2.60923
2.58137
2.5529
2.52388
2.49435
2.46437
2.43398
2.40325
2.37221
2.34091
2.3094
2.27772
2.24591
2.21402
2.18208
2.15014
2.11822
2.08635
2.05459
2.02294
1.99145
1.96013
1.92902
1.89813
1.8675
1.83713
1.80705
1.77728
1.74783
1.71871
1.68993
1.66151
1.63346
1.60577
1.57847
1.55155
1.52502
1.49888
1.47314
1.44778
1.42282
1.39825
1.37407
1.35027
1.32685
1.30381
1.28114
1.25883
1.23688
1.21529
1.19403
1.17311
1.15251
1.13223
1.11226
1.09259
1.07321
1.0541
1.03527
1.0167
0.998379
0.980299
0.96245
0.944823
0.927407
0.910195
0.893177
0.876343
0.859685
0.843195
0.826864
0.810683
0.794646
0.778744
0.76297
0.747318
0.731779
0.716349
0.701019
0.685785
0.67064
0.655578
0.640594
0.625682
0.610837
0.596053
0.581325
0.566652
0.552025
0.537439
0.522885
0.508359
0.493853
0.479361
0.464875
0.450388
0.43589
0.421373
0.406827
0.392239
0.377595
0.362882
0.348081
0.333173
0.318132
0.302932
0.287538
0.271915
0.25602
0.239794
0.223164
0.20604
0.188299
0.169781
0.150259
0.129396
0.106659
0.0810754
0.0501953
0.0103111
0.174618
0.386338
0.527697
0.644671
0.750057
0.848111
0.941012
1.03004
1.11599
1.19945
1.28084
1.36044
1.43848
1.51511
1.59045
1.66459
1.73757
1.80945
1.88021
1.94988
2.01844
2.08586
2.15213
2.2172
2.28103
2.3436
2.40484
2.46471
2.52316
2.58015
2.63561
2.68951
2.74178
2.79239
2.84128
2.88841
2.93373
2.97721
3.0188
3.05847
3.09618
3.1319
3.16562
3.1973
3.22692
3.25447
3.27993
3.30331
3.32458
3.34375
3.36082
3.3758
3.3887
3.39953
3.4083
3.41504
3.41977
3.42252
3.42332
3.4222
3.41921
3.41439
3.40777
3.3994
3.38931
3.37756
3.36418
3.34923
3.33277
3.31484
3.2955
3.27482
3.25284
3.22963
3.20525
3.17975
3.1532
3.12566
3.09719
3.06784
3.03769
3.00677
2.97517
2.94293
2.91011
2.87676
2.84295
2.80872
2.77413
2.73923
2.70407
2.6687
2.63315
2.59749
2.56175
2.52597
2.4902
2.45446
2.4188
2.38325
2.34785
2.31262
2.27759
2.24279
2.20824
2.17397
2.13999
2.10634
2.07301
2.04004
2.00744
1.97521
1.94337
1.91193
1.88089
1.85027
1.82007
1.79028
1.76093
1.73199
1.70348
1.6754
1.64774
1.6205
1.59367
1.56726
1.54125
1.51564
1.49042
1.46558
1.44112
1.41703
1.39329
1.3699
1.34685
1.32413
1.30173
1.27963
1.25783
1.23632
1.21508
1.1941
1.17338
1.15289
1.13264
1.11261
1.09279
1.07317
1.05374
1.03449
1.0154
0.996483
0.977712
0.959084
0.94059
0.922222
0.903971
0.885829
0.867789
0.849844
0.831986
0.814209
0.796506
0.778869
0.761293
0.743771
0.726295
0.708862
0.691464
0.674092
0.656739
0.639397
0.622058
0.604712
0.587352
0.569967
0.552547
0.53508
0.517553
0.499951
0.482259
0.464457
0.446524
0.428437
0.410166
0.391678
0.372933
0.353885
0.334482
0.314655
0.29432
0.273367
0.251658
0.229005
0.205147
0.179691
0.151976
0.120608
0.081259
0.0213842
0.174604
0.386333
0.527695
0.64467
0.750056
0.84811
0.941011
1.03004
1.11598
1.19945
1.28084
1.36044
1.43847
1.5151
1.59045
1.66458
1.73757
1.80944
1.88021
1.94988
2.01843
2.08586
2.15212
2.21719
2.28103
2.34359
2.40483
2.4647
2.52316
2.58014
2.63561
2.6895
2.74178
2.79239
2.84128
2.8884
2.93373
2.9772
3.01879
3.05846
3.09617
3.1319
3.16561
3.19729
3.22691
3.25446
3.27993
3.3033
3.32457
3.34374
3.36082
3.3758
3.38869
3.39952
3.40829
3.41503
3.41976
3.42251
3.42331
3.4222
3.41921
3.41438
3.40776
3.39939
3.38931
3.37755
3.36417
3.34922
3.33276
3.31483
3.2955
3.27481
3.25283
3.22963
3.20524
3.17975
3.1532
3.12566
3.09718
3.06784
3.03768
3.00677
2.97516
2.94292
2.9101
2.87675
2.84294
2.80871
2.77413
2.73923
2.70406
2.66869
2.63315
2.59749
2.56174
2.52597
2.49019
2.45446
2.4188
2.38325
2.34784
2.31261
2.27758
2.24278
2.20823
2.17396
2.13999
2.10633
2.07301
2.04004
2.00743
1.9752
1.94337
1.91192
1.88089
1.85027
1.82006
1.79028
1.76092
1.73199
1.70348
1.6754
1.64774
1.62049
1.59367
1.56725
1.54124
1.51563
1.49041
1.46558
1.44111
1.41702
1.39329
1.3699
1.34685
1.32413
1.30172
1.27963
1.25783
1.23631
1.21507
1.1941
1.17337
1.15289
1.13264
1.11261
1.09279
1.07317
1.05374
1.03448
1.0154
0.99648
0.977709
0.959082
0.940588
0.922219
0.903968
0.885826
0.867787
0.849842
0.831984
0.814207
0.796504
0.778867
0.761291
0.743769
0.726293
0.70886
0.691462
0.67409
0.656737
0.639395
0.622056
0.60471
0.58735
0.569965
0.552545
0.535078
0.517551
0.499949
0.482257
0.464455
0.446523
0.428436
0.410165
0.391677
0.372932
0.353884
0.334481
0.314654
0.294319
0.273367
0.251658
0.229005
0.205147
0.179691
0.151976
0.120608
0.0812591
0.0213843
0.248419
0.492954
0.65063
0.778824
0.893769
1.00072
1.10221
1.19964
1.29387
1.38547
1.47483
1.56227
1.64797
1.73212
1.81481
1.89612
1.97613
2.05485
2.1323
2.20849
2.2834
2.35701
2.42929
2.50022
2.56975
2.63783
2.70443
2.76949
2.83296
2.8948
2.95495
3.01335
3.06997
3.12474
3.17763
3.22858
3.27755
3.3245
3.36939
3.41218
3.45284
3.49135
3.52766
3.56176
3.59364
3.62326
3.65063
3.67573
3.69857
3.71912
3.73741
3.75344
3.76722
3.77877
3.78809
3.79522
3.80018
3.80301
3.80372
3.80237
3.79899
3.79362
3.78631
3.7771
3.76604
3.75317
3.73854
3.72222
3.70425
3.6847
3.66362
3.64107
3.61713
3.59184
3.56527
3.5375
3.50857
3.47856
3.44753
3.41554
3.38266
3.34896
3.31449
3.27932
3.24351
3.20711
3.17019
3.13282
3.09503
3.05689
3.01845
2.97977
2.94089
2.90186
2.86274
2.82356
2.78436
2.7452
2.70611
2.66712
2.62827
2.5896
2.55114
2.51291
2.47495
2.43727
2.39991
2.36288
2.32621
2.28991
2.254
2.21849
2.18339
2.14873
2.11449
2.0807
2.04736
2.01447
1.98204
1.95007
1.91856
1.88751
1.85691
1.82677
1.79707
1.76783
1.73902
1.71064
1.68269
1.65516
1.62803
1.60131
1.57497
1.54901
1.52343
1.49819
1.47331
1.44876
1.42453
1.40061
1.37699
1.35366
1.3306
1.30781
1.28526
1.26296
1.24089
1.21903
1.19738
1.17592
1.15464
1.13354
1.1126
1.09182
1.07118
1.05067
1.03029
1.01002
0.989867
0.96981
0.949844
0.929962
0.910157
0.89042
0.870745
0.851124
0.831549
0.812014
0.79251
0.773029
0.753563
0.734102
0.714636
0.695158
0.675656
0.65612
0.636538
0.616898
0.597184
0.577383
0.557475
0.537441
0.517259
0.496901
0.476339
0.455536
0.434453
0.413038
0.391236
0.368978
0.346174
0.322713
0.29845
0.273189
0.246652
0.218398
0.187631
0.15252
0.107183
0.032329
0.248423
0.492954
0.650629
0.778823
0.893767
1.00071
1.10221
1.19964
1.29387
1.38546
1.47483
1.56226
1.64797
1.73211
1.8148
1.89612
1.97613
2.05485
2.1323
2.20848
2.28339
2.357
2.42929
2.50021
2.56974
2.63783
2.70442
2.76949
2.83296
2.8948
2.95494
3.01335
3.06996
3.12474
3.17762
3.22858
3.27755
3.3245
3.36939
3.41218
3.45284
3.49134
3.52765
3.56176
3.59363
3.62326
3.65063
3.67573
3.69856
3.71912
3.73741
3.75344
3.76722
3.77876
3.78809
3.79522
3.80018
3.803
3.80372
3.80236
3.79898
3.79362
3.78631
3.7771
3.76603
3.75316
3.73854
3.72221
3.70425
3.68469
3.66361
3.64107
3.61712
3.59183
3.56527
3.53749
3.50856
3.47855
3.44752
3.41553
3.38266
3.34895
3.31448
3.27931
3.2435
3.2071
3.17019
3.13281
3.09502
3.05688
3.01845
2.97976
2.94088
2.90186
2.86273
2.82355
2.78436
2.74519
2.7061
2.66711
2.62827
2.5896
2.55113
2.5129
2.47494
2.43727
2.3999
2.36288
2.32621
2.2899
2.25399
2.21848
2.18339
2.14872
2.11449
2.0807
2.04736
2.01447
1.98204
1.95007
1.91856
1.8875
1.85691
1.82676
1.79707
1.76782
1.73901
1.71064
1.68269
1.65516
1.62803
1.60131
1.57497
1.54901
1.52342
1.49819
1.4733
1.44875
1.42452
1.40061
1.37699
1.35366
1.3306
1.3078
1.28526
1.26296
1.24088
1.21903
1.19737
1.17591
1.15464
1.13354
1.1126
1.09182
1.07118
1.05067
1.03029
1.01002
0.989865
0.969808
0.949842
0.92996
0.910155
0.890418
0.870743
0.851122
0.831547
0.812012
0.792508
0.773027
0.753561
0.7341
0.714634
0.695156
0.675654
0.656118
0.636537
0.616896
0.597183
0.577382
0.557474
0.53744
0.517257
0.4969
0.476338
0.455535
0.434452
0.413037
0.391236
0.368977
0.346173
0.322712
0.298449
0.273189
0.246652
0.218398
0.187631
0.15252
0.107183
0.0323291
0.3193
0.590975
0.763252
0.901241
1.024
1.13807
1.24641
1.35057
1.45144
1.54963
1.64553
1.73941
1.83149
1.92191
2.01077
2.09814
2.18409
2.26862
2.35175
2.43349
2.51382
2.59271
2.67013
2.74606
2.82044
2.89325
2.96441
3.0339
3.10165
3.16761
3.23174
3.29398
3.35428
3.41258
3.46884
3.52302
3.57507
3.62494
3.67259
3.718
3.76112
3.80194
3.84041
3.87651
3.91024
3.94156
3.97048
3.99698
4.02106
4.04272
4.06197
4.07881
4.09325
4.10531
4.11502
4.12239
4.12745
4.13024
4.13079
4.12914
4.12533
4.1194
4.1114
4.10138
4.08938
4.07546
4.05968
4.04208
4.02273
4.0017
3.97903
3.9548
3.92908
3.90192
3.87339
3.84357
3.81253
3.78031
3.74701
3.71268
3.67739
3.64122
3.60421
3.56645
3.528
3.48892
3.44927
3.40912
3.36852
3.32754
3.28623
3.24464
3.20284
3.16087
3.11878
3.07662
3.03444
2.99228
2.95019
2.9082
2.86635
2.82468
2.78322
2.74201
2.70107
2.66043
2.62012
2.58016
2.54057
2.50137
2.46259
2.42422
2.3863
2.34883
2.31182
2.27528
2.23921
2.20363
2.16853
2.13393
2.09981
2.06618
2.03304
2.00038
1.96821
1.9365
1.90527
1.87451
1.84419
1.81433
1.7849
1.7559
1.72731
1.69914
1.67135
1.64395
1.61693
1.59026
1.56394
1.53795
1.51228
1.48692
1.46186
1.43708
1.41257
1.38832
1.36431
1.34054
1.31699
1.29364
1.27049
1.24753
1.22475
1.20213
1.17966
1.15734
1.13515
1.11309
1.09114
1.0693
1.04755
1.0259
1.00432
0.982822
0.961386
0.940007
0.918676
0.897384
0.876125
0.854889
0.833667
0.812449
0.791225
0.769985
0.748718
0.727413
0.706058
0.684639
0.663142
0.641551
0.619847
0.598009
0.576016
0.55384
0.53145
0.508812
0.485884
0.462616
0.43895
0.414816
0.390125
0.364764
0.338584
0.311376
0.282835
0.252453
0.219265
0.180993
0.130412
0.0429591
0.319306
0.590976
0.763251
0.901239
1.024
1.13807
1.24641
1.35056
1.45144
1.54963
1.64553
1.73941
1.83149
1.92191
2.01077
2.09814
2.18408
2.26861
2.35175
2.43349
2.51381
2.5927
2.67013
2.74605
2.82044
2.89324
2.96441
3.03389
3.10164
3.16761
3.23174
3.29397
3.35427
3.41258
3.46884
3.52302
3.57506
3.62493
3.67259
3.718
3.76112
3.80193
3.8404
3.87651
3.91023
3.94156
3.97048
3.99698
4.02106
4.04272
4.06196
4.0788
4.09324
4.10531
4.11501
4.12238
4.12745
4.13024
4.13079
4.12913
4.12532
4.11939
4.11139
4.10137
4.08938
4.07546
4.05967
4.04208
4.02273
4.00169
3.97902
3.9548
3.92907
3.90191
3.87339
3.84357
3.81252
3.78031
3.747
3.71267
3.67739
3.64121
3.60421
3.56645
3.528
3.48891
3.44927
3.40911
3.36852
3.32753
3.28622
3.24464
3.20283
3.16086
3.11877
3.07662
3.03444
2.99228
2.95018
2.90819
2.86634
2.82467
2.78322
2.742
2.70106
2.66042
2.62011
2.58015
2.54056
2.50137
2.46258
2.42422
2.3863
2.34882
2.31181
2.27527
2.23921
2.20363
2.16853
2.13392
2.09981
2.06618
2.03303
2.00038
1.9682
1.9365
1.90527
1.8745
1.84419
1.81432
1.78489
1.75589
1.72731
1.69913
1.67135
1.64395
1.61692
1.59026
1.56393
1.53795
1.51228
1.48692
1.46186
1.43708
1.41257
1.38832
1.36431
1.34054
1.31698
1.29364
1.27049
1.24753
1.22475
1.20213
1.17966
1.15734
1.13515
1.11308
1.09114
1.06929
1.04755
1.02589
1.00432
0.98282
0.961384
0.940005
0.918674
0.897383
0.876124
0.854888
0.833666
0.812447
0.791223
0.769984
0.748717
0.727412
0.706057
0.684638
0.663141
0.64155
0.619846
0.598008
0.576015
0.553839
0.531449
0.508811
0.485883
0.462616
0.438949
0.414815
0.390125
0.364764
0.338583
0.311376
0.282835
0.252453
0.219265
0.180993
0.130413
0.0429592
0.388617
0.683433
0.869296
1.01662
1.14671
1.26723
1.38162
1.49162
1.59824
1.70212
1.80366
1.90313
2.00073
2.0966
2.19083
2.28349
2.37461
2.46421
2.55231
2.63888
2.72393
2.80742
2.88931
2.96958
3.04817
3.12505
3.20016
3.27345
3.34487
3.41438
3.4819
3.5474
3.61083
3.67212
3.73123
3.78812
3.84275
3.89506
3.94502
3.99259
4.03775
4.08045
4.12069
4.15842
4.19364
4.22633
4.25648
4.28408
4.30913
4.33164
4.3516
4.36903
4.38394
4.39635
4.40628
4.41375
4.41881
4.42147
4.42177
4.41977
4.41549
4.40899
4.40031
4.3895
4.37662
4.36172
4.34485
4.32608
4.30547
4.28308
4.25898
4.23323
4.2059
4.17707
4.1468
4.11515
4.08221
4.04805
4.01273
3.97632
3.9389
3.90053
3.8613
3.82125
3.78047
3.73902
3.69697
3.65437
3.6113
3.56781
3.52397
3.47983
3.43545
3.39089
3.34619
3.30142
3.25661
3.21181
3.16707
3.12244
3.07794
3.03363
2.98953
2.94569
2.90212
2.85887
2.81595
2.7734
2.73123
2.68947
2.64814
2.60726
2.56683
2.52687
2.4874
2.44842
2.40994
2.37196
2.3345
2.29755
2.26111
2.22519
2.18979
2.15489
2.1205
2.08661
2.05322
2.02032
1.98789
1.95594
1.92445
1.89342
1.86282
1.83266
1.80292
1.77358
1.74463
1.71607
1.68787
1.66003
1.63252
1.60535
1.57849
1.55193
1.52565
1.49966
1.47392
1.44843
1.42317
1.39814
1.37332
1.34869
1.32426
1.29999
1.2759
1.25195
1.22815
1.20448
1.18094
1.15751
1.13418
1.11095
1.08781
1.06474
1.04174
1.01881
0.995924
0.973081
0.950273
0.92749
0.904721
0.881958
0.859189
0.836405
0.813594
0.790743
0.767842
0.744875
0.721827
0.698684
0.675426
0.652033
0.628482
0.604747
0.580797
0.556596
0.532104
0.507272
0.482039
0.456336
0.430073
0.403132
0.375355
0.346517
0.316271
0.284028
0.248639
0.207405
0.151949
0.0533815
0.388621
0.683433
0.869295
1.01662
1.14671
1.26723
1.38161
1.49161
1.59824
1.70212
1.80366
1.90313
2.00073
2.0966
2.19083
2.28348
2.3746
2.46421
2.5523
2.63888
2.72393
2.80741
2.88931
2.96957
3.04817
3.12504
3.20015
3.27345
3.34487
3.41437
3.4819
3.5474
3.61082
3.67211
3.73123
3.78812
3.84274
3.89505
3.94501
3.99259
4.03774
4.08045
4.12068
4.15841
4.19363
4.22632
4.25647
4.28407
4.30913
4.33163
4.35159
4.36902
4.38393
4.39634
4.40627
4.41375
4.4188
4.42146
4.42177
4.41976
4.41548
4.40898
4.40031
4.3895
4.37662
4.36171
4.34485
4.32608
4.30547
4.28308
4.25897
4.23323
4.2059
4.17706
4.14679
4.11515
4.08221
4.04804
4.01272
3.97631
3.93889
3.90053
3.86129
3.82125
3.78047
3.73902
3.69696
3.65437
3.61129
3.56781
3.52396
3.47983
3.43545
3.39088
3.34619
3.30141
3.2566
3.21181
3.16707
3.12243
3.07794
3.03363
2.98953
2.94568
2.90212
2.85886
2.81595
2.77339
2.73123
2.68947
2.64814
2.60725
2.56683
2.52687
2.4874
2.44842
2.40993
2.37196
2.3345
2.29755
2.26111
2.22519
2.18978
2.15489
2.1205
2.08661
2.05322
2.02031
1.98789
1.95594
1.92445
1.89342
1.86282
1.83266
1.80291
1.77357
1.74463
1.71606
1.68787
1.66002
1.63252
1.60535
1.57849
1.55193
1.52565
1.49965
1.47392
1.44842
1.42317
1.39814
1.37331
1.34869
1.32425
1.29999
1.27589
1.25195
1.22815
1.20448
1.18094
1.1575
1.13418
1.11095
1.0878
1.06474
1.04174
1.01881
0.995922
0.97308
0.950272
0.927488
0.90472
0.881957
0.859188
0.836404
0.813592
0.790742
0.767841
0.744874
0.721826
0.698683
0.675425
0.652033
0.628482
0.604746
0.580796
0.556595
0.532104
0.507271
0.482038
0.456336
0.430073
0.403132
0.375355
0.346517
0.316271
0.284028
0.24864
0.207405
0.151949
0.0533817
0.456699
0.771867
0.970834
1.12731
1.26461
1.39136
1.51144
1.62686
1.73875
1.84779
1.95443
2.05893
2.1615
2.26226
2.36131
2.45869
2.55444
2.64858
2.7411
2.83199
2.92122
3.00878
3.09463
3.17872
3.26101
3.34145
3.42
3.49661
3.57121
3.64376
3.71421
3.78251
3.84859
3.91242
3.97394
4.03311
4.08989
4.14423
4.19609
4.24545
4.29226
4.3365
4.37815
4.41719
4.45358
4.48734
4.51844
4.54687
4.57265
4.59577
4.61623
4.63406
4.64926
4.66186
4.67187
4.67933
4.68427
4.68672
4.68672
4.6843
4.67953
4.67244
4.66309
4.65152
4.63779
4.62195
4.60408
4.58422
4.56244
4.53881
4.5134
4.48628
4.4575
4.42716
4.39532
4.36204
4.32741
4.2915
4.25439
4.21613
4.17682
4.13651
4.09529
4.05323
4.01039
3.96684
3.92265
3.8779
3.83264
3.78693
3.74085
3.69446
3.6478
3.60094
3.55394
3.50684
3.4597
3.41256
3.36548
3.31849
3.27165
3.22498
3.17853
3.13234
3.08643
3.04084
2.9956
2.95073
2.90626
2.86221
2.8186
2.77544
2.73276
2.69057
2.64888
2.6077
2.56704
2.52691
2.4873
2.44823
2.4097
2.3717
2.33423
2.2973
2.2609
2.22502
2.18965
2.1548
2.12045
2.0866
2.05322
2.02033
1.98789
1.9559
1.92435
1.89323
1.86252
1.83221
1.80229
1.77274
1.74354
1.71469
1.68617
1.65797
1.63007
1.60246
1.57512
1.54804
1.52122
1.49462
1.46825
1.44209
1.41613
1.39035
1.36475
1.3393
1.31402
1.28887
1.26385
1.23896
1.21417
1.18949
1.1649
1.1404
1.11597
1.0916
1.06729
1.04303
1.0188
0.994601
0.970419
0.946243
0.922065
0.897873
0.873654
0.849399
0.825093
0.800722
0.776272
0.751727
0.727067
0.702273
0.677322
0.652187
0.62684
0.601245
0.57536
0.549136
0.522514
0.49542
0.467761
0.439414
0.410207
0.379889
0.348068
0.314063
0.276547
0.232434
0.172345
0.0636899
0.456702
0.771867
0.970833
1.12731
1.26461
1.39136
1.51144
1.62686
1.73875
1.84779
1.95442
2.05893
2.16149
2.26226
2.36131
2.45869
2.55444
2.64858
2.74109
2.83198
2.92122
3.00878
3.09462
3.17871
3.261
3.34145
3.42
3.4966
3.57121
3.64376
3.71421
3.7825
3.84859
3.91241
3.97394
4.03311
4.08988
4.14422
4.19609
4.24544
4.29226
4.3365
4.37815
4.41718
4.45358
4.48733
4.51843
4.54687
4.57265
4.59576
4.61623
4.63406
4.64926
4.66185
4.67187
4.67933
4.68427
4.68671
4.68671
4.6843
4.67953
4.67244
4.66308
4.65151
4.63778
4.62195
4.60407
4.58421
4.56244
4.53881
4.5134
4.48627
4.4575
4.42716
4.39531
4.36204
4.32741
4.2915
4.25438
4.21613
4.17681
4.13651
4.09529
4.05322
4.01038
3.96683
3.92265
3.87789
3.83263
3.78693
3.74085
3.69445
3.6478
3.60094
3.55393
3.50683
3.45969
3.41256
3.36547
3.31849
3.27164
3.22498
3.17853
3.13234
3.08643
3.04084
2.9956
2.95073
2.90626
2.8622
2.81859
2.77544
2.73276
2.69057
2.64888
2.6077
2.56704
2.5269
2.4873
2.44823
2.40969
2.37169
2.33423
2.2973
2.26089
2.22501
2.18965
2.1548
2.12045
2.08659
2.05322
2.02032
1.98789
1.9559
1.92435
1.89323
1.86252
1.83221
1.80229
1.77273
1.74354
1.71469
1.68617
1.65797
1.63007
1.60246
1.57512
1.54804
1.52121
1.49462
1.46825
1.44209
1.41613
1.39035
1.36474
1.3393
1.31401
1.28887
1.26385
1.23895
1.21417
1.18949
1.1649
1.1404
1.11597
1.0916
1.06729
1.04303
1.0188
0.9946
0.970418
0.946243
0.922064
0.897872
0.873654
0.849398
0.825092
0.800721
0.776271
0.751726
0.727066
0.702272
0.677321
0.652187
0.62684
0.601244
0.575359
0.549136
0.522514
0.495419
0.467761
0.439414
0.410207
0.379889
0.348068
0.314063
0.276547
0.232434
0.172345
0.0636902
0.523823
0.857482
1.06912
1.23469
1.37922
1.51216
1.63783
1.75848
1.87539
1.9893
2.10069
2.20987
2.31704
2.42231
2.52578
2.6275
2.72749
2.82575
2.92229
3.01708
3.1101
3.20132
3.29071
3.37821
3.46379
3.54739
3.62897
3.70848
3.78586
3.86106
3.93403
4.00472
4.07308
4.13906
4.20261
4.26369
4.32225
4.37826
4.43169
4.48249
4.53063
4.5761
4.61886
4.6589
4.6962
4.73076
4.76255
4.79159
4.81787
4.84139
4.86217
4.88022
4.89555
4.90819
4.91816
4.92549
4.93022
4.93237
4.93199
4.92913
4.92383
4.91613
4.9061
4.89378
4.87923
4.86251
4.84368
4.8228
4.79995
4.77518
4.74857
4.72019
4.6901
4.6584
4.62514
4.5904
4.55426
4.51679
4.47806
4.43816
4.39716
4.35513
4.31215
4.26829
4.22362
4.17821
4.13213
4.08546
4.03826
3.99059
3.94252
3.89412
3.84544
3.79654
3.74748
3.69831
3.64909
3.59987
3.55069
3.50161
3.45266
3.40389
3.35533
3.30703
3.25902
3.21133
3.16399
3.11703
3.07047
3.02435
2.97867
2.93346
2.88874
2.84452
2.80081
2.75762
2.71497
2.67286
2.63129
2.59028
2.54981
2.5099
2.47055
2.43174
2.39347
2.35575
2.31856
2.28191
2.24577
2.21014
2.17501
2.14038
2.10622
2.07254
2.0393
2.00651
1.97415
1.9422
1.91066
1.8795
1.84872
1.81829
1.78821
1.75846
1.72902
1.69989
1.67104
1.64247
1.61416
1.58609
1.55825
1.53064
1.50323
1.47602
1.449
1.42214
1.39545
1.3689
1.34249
1.31622
1.29006
1.26401
1.23806
1.2122
1.18642
1.1607
1.13505
1.10944
1.08388
1.05835
1.03284
1.00734
0.981841
0.956328
0.930793
0.905222
0.879603
0.853922
0.828164
0.802312
0.776349
0.750254
0.724004
0.697572
0.670931
0.644045
0.616872
0.589363
0.561455
0.533071
0.504115
0.474453
0.443895
0.412163
0.378812
0.343071
0.303444
0.256493
0.191948
0.0739563
0.523825
0.857482
1.06912
1.23469
1.37922
1.51216
1.63783
1.75848
1.87538
1.98929
2.10069
2.20987
2.31703
2.42231
2.52578
2.6275
2.72748
2.82575
2.92228
3.01708
3.1101
3.20132
3.2907
3.37821
3.46378
3.54739
3.62897
3.70848
3.78586
3.86106
3.93403
4.00472
4.07307
4.13905
4.2026
4.26368
4.32225
4.37826
4.43168
4.48248
4.53063
4.57609
4.61886
4.6589
4.6962
4.73075
4.76255
4.79159
4.81786
4.84139
4.86217
4.88021
4.89555
4.90819
4.91816
4.92549
4.93021
4.93236
4.93199
4.92912
4.92382
4.91613
4.9061
4.89378
4.87922
4.8625
4.84367
4.8228
4.79994
4.77517
4.74856
4.72018
4.6901
4.65839
4.62513
4.59039
4.55425
4.51678
4.47806
4.43816
4.39716
4.35513
4.31215
4.26828
4.22361
4.17821
4.13213
4.08546
4.03826
3.99059
3.94252
3.89412
3.84543
3.79653
3.74747
3.69831
3.64909
3.59986
3.55069
3.5016
3.45265
3.40388
3.35533
3.30703
3.25902
3.21133
3.16399
3.11703
3.07047
3.02434
2.97867
2.93346
2.88874
2.84451
2.8008
2.75762
2.71497
2.67286
2.63129
2.59028
2.54981
2.5099
2.47054
2.43173
2.39347
2.35575
2.31856
2.2819
2.24577
2.21014
2.17501
2.14038
2.10622
2.07253
2.0393
2.00651
1.97415
1.9422
1.91066
1.8795
1.84872
1.81829
1.78821
1.75846
1.72902
1.69989
1.67104
1.64247
1.61415
1.58609
1.55825
1.53064
1.50323
1.47602
1.449
1.42214
1.39544
1.3689
1.34249
1.31621
1.29006
1.26401
1.23806
1.2122
1.18641
1.1607
1.13505
1.10944
1.08388
1.05835
1.03284
1.00734
0.98184
0.956328
0.930792
0.905222
0.879603
0.853922
0.828163
0.802312
0.776348
0.750253
0.724003
0.697572
0.670931
0.644045
0.616872
0.589362
0.561455
0.533071
0.504115
0.474453
0.443895
0.412163
0.378812
0.343072
0.303445
0.256494
0.191948
0.0739566
0.590404
0.941141
1.16501
1.33967
1.49151
1.6307
1.76196
1.88779
2.0096
2.12822
2.24419
2.35782
2.46934
2.57887
2.68649
2.79225
2.89617
2.99826
3.0985
3.19688
3.29337
3.38793
3.48052
3.57111
3.65963
3.74606
3.83033
3.9124
3.99222
4.06973
4.14488
4.21763
4.28793
4.35572
4.42097
4.48364
4.54368
4.60105
4.65573
4.70768
4.75687
4.80328
4.84688
4.88767
4.92563
4.96075
4.99302
5.02244
5.04902
5.07277
5.09369
5.11179
5.12711
5.13966
5.14946
5.15656
5.16098
5.16277
5.16195
5.15859
5.15272
5.14441
5.13369
5.12063
5.10528
5.08771
5.06797
5.04614
5.02228
4.99645
4.96874
4.93921
4.90793
4.87498
4.84044
4.80438
4.76688
4.72802
4.68786
4.64649
4.60398
4.56042
4.51587
4.47041
4.42411
4.37705
4.32929
4.28092
4.23199
4.18257
4.13274
4.08254
4.03206
3.98134
3.93045
3.87943
3.82836
3.77726
3.72621
3.67524
3.6244
3.57374
3.52328
3.47308
3.42317
3.37358
3.32434
3.27548
3.22703
3.17901
3.13145
3.08436
3.03777
2.99168
2.94612
2.90109
2.8566
2.81267
2.76929
2.72647
2.68422
2.64254
2.60141
2.56086
2.52086
2.48141
2.44252
2.40416
2.36634
2.32905
2.29227
2.256
2.22022
2.18492
2.15009
2.11571
2.08178
2.04828
2.01519
1.9825
1.9502
1.91827
1.8867
1.85546
1.82456
1.79397
1.76367
1.73366
1.70392
1.67444
1.6452
1.61619
1.5874
1.55881
1.53042
1.5022
1.47415
1.44626
1.41852
1.39091
1.36344
1.33607
1.30881
1.28165
1.25456
1.22756
1.20062
1.17373
1.14689
1.12008
1.0933
1.06653
1.03976
1.01299
0.986192
0.959365
0.932492
0.905561
0.878554
0.851458
0.824253
0.796919
0.769433
0.74177
0.713899
0.685785
0.657386
0.628651
0.599516
0.569898
0.539692
0.508754
0.476876
0.443746
0.408868
0.371384
0.329638
0.27987
0.210998
0.0842387
0.590406
0.941141
1.16501
1.33967
1.49151
1.6307
1.76196
1.88779
2.00959
2.12822
2.24419
2.35782
2.46934
2.57886
2.68648
2.79224
2.89617
2.99825
3.0985
3.19688
3.29336
3.38792
3.48052
3.5711
3.65963
3.74606
3.83033
3.9124
3.99221
4.06972
4.14488
4.21763
4.28792
4.35572
4.42097
4.48364
4.54367
4.60105
4.65573
4.70767
4.75686
4.80327
4.84688
4.88767
4.92563
4.96074
4.99302
5.02244
5.04902
5.07276
5.09368
5.11179
5.12711
5.13965
5.14946
5.15656
5.16098
5.16276
5.16195
5.15859
5.15272
5.1444
5.13369
5.12063
5.10528
5.0877
5.06797
5.04613
5.02227
4.99645
4.96873
4.9392
4.90793
4.87498
4.84044
4.80438
4.76688
4.72801
4.68785
4.64649
4.60398
4.56041
4.51586
4.4704
4.4241
4.37704
4.32929
4.28091
4.23198
4.18257
4.13273
4.08254
4.03206
3.98134
3.93044
3.87943
3.82835
3.77726
3.72621
3.67524
3.6244
3.57373
3.52328
3.47308
3.42317
3.37357
3.32433
3.27548
3.22703
3.17901
3.13145
3.08436
3.03777
2.99168
2.94612
2.90109
2.8566
2.81267
2.76929
2.72647
2.68422
2.64253
2.60141
2.56085
2.52085
2.48141
2.44251
2.40416
2.36634
2.32905
2.29227
2.25599
2.22021
2.18492
2.15009
2.11571
2.08178
2.04828
2.01519
1.9825
1.9502
1.91827
1.88669
1.85546
1.82456
1.79396
1.76367
1.73366
1.70392
1.67444
1.6452
1.61619
1.5874
1.55881
1.53041
1.5022
1.47415
1.44626
1.41852
1.39091
1.36343
1.33607
1.30881
1.28164
1.25456
1.22756
1.20062
1.17373
1.14689
1.12008
1.0933
1.06653
1.03976
1.01299
0.986192
0.959364
0.932492
0.90556
0.878554
0.851457
0.824252
0.796918
0.769433
0.741769
0.713899
0.685785
0.657386
0.628651
0.599516
0.569898
0.539692
0.508754
0.476876
0.443746
0.408869
0.371385
0.329638
0.27987
0.210999