/*--------------------------------*- C++ -*----------------------------------*\
  =========                 |
  \\      /  F ield         | OpenFOAM: The Open Source CFD Toolbox
   \\    /   O peration     | Website:  https://openfoam.org
    \\  /    A nd           | Version:  8
     \\/     M anipulation  |
\*---------------------------------------------------------------------------*/
FoamFile
{
    version     2.0;
    format      ascii;
    class       volScalarField;
    location    "4100";
    object      nut;
}
// * * * * * * * * * * * * * * * * * * * * * * * * * * * * * * * * * * * * * //

dimensions      [0 2 -1 0 0 0 0];

internalField   nonuniform List<scalar> 
46000
(
1.88595e-06
7.28313e-06
1.29572e-05
1.81833e-05
2.31011e-05
2.78449e-05
3.24744e-05
3.70052e-05
4.1463e-05
4.58668e-05
5.02314e-05
5.45689e-05
5.8854e-05
6.31045e-05
6.73249e-05
7.1516e-05
7.56771e-05
7.98065e-05
8.3902e-05
8.79606e-05
9.19792e-05
9.5954e-05
9.98813e-05
0.000103757
0.000107577
0.000111336
0.00011503
0.000118656
0.000122207
0.00012568
0.000129071
0.000132374
0.000135587
0.000138704
0.000141721
0.000144636
0.000147444
0.000150142
0.000152726
0.000155194
0.000157543
0.000159771
0.000161875
0.000163853
0.000165703
0.000167425
0.000169017
0.000170478
0.000171807
0.000173004
0.000174069
0.000175003
0.000175805
0.000176477
0.000177019
0.000177433
0.00017772
0.000177882
0.000177922
0.000177841
0.000177644
0.000177333
0.000176913
0.000176383
0.000175746
0.000175005
0.000174163
0.000173223
0.000172189
0.000171065
0.000169853
0.000168559
0.000167187
0.000165739
0.00016422
0.000162634
0.000160985
0.000159276
0.000157513
0.000155699
0.000153838
0.000151934
0.000149991
0.000148012
0.000146001
0.000143962
0.000141898
0.000139814
0.000137711
0.000135595
0.000133467
0.00013133
0.000129189
0.000127044
0.0001249
0.000122759
0.000120623
0.000118495
0.000116376
0.00011427
0.000112177
0.000110099
0.000108039
0.000105997
0.000103976
0.000101976
9.99994e-05
9.80462e-05
9.61178e-05
9.4215e-05
9.23385e-05
9.04891e-05
8.86672e-05
8.68732e-05
8.51076e-05
8.33706e-05
8.16624e-05
7.9983e-05
7.83325e-05
7.67108e-05
7.51178e-05
7.35534e-05
7.20173e-05
7.05091e-05
6.90287e-05
6.75754e-05
6.61491e-05
6.47491e-05
6.33749e-05
6.20261e-05
6.07021e-05
5.94022e-05
5.8126e-05
5.68727e-05
5.56418e-05
5.44326e-05
5.32445e-05
5.20769e-05
5.0929e-05
4.98002e-05
4.869e-05
4.75976e-05
4.65225e-05
4.54641e-05
4.44217e-05
4.33948e-05
4.23827e-05
4.1385e-05
4.04011e-05
3.94306e-05
3.84728e-05
3.75274e-05
3.65938e-05
3.56717e-05
3.47607e-05
3.38603e-05
3.29702e-05
3.20901e-05
3.12196e-05
3.03584e-05
2.95063e-05
2.86629e-05
2.7828e-05
2.70014e-05
2.61828e-05
2.5372e-05
2.45697e-05
2.37754e-05
2.29883e-05
2.22082e-05
2.14348e-05
2.06678e-05
1.99072e-05
1.91526e-05
1.84039e-05
1.76608e-05
1.69232e-05
1.61907e-05
1.54631e-05
1.474e-05
1.40212e-05
1.33062e-05
1.25946e-05
1.18858e-05
1.11793e-05
1.04743e-05
9.77057e-06
9.06798e-06
8.36471e-06
7.65931e-06
6.95018e-06
6.23536e-06
5.51244e-06
4.77828e-06
4.02881e-06
3.25861e-06
2.46063e-06
1.62795e-06
7.82304e-07
1.53541e-07
1.8889e-06
7.2889e-06
1.29625e-05
1.81859e-05
2.3102e-05
2.78451e-05
3.24744e-05
3.70053e-05
4.14631e-05
4.58669e-05
5.02315e-05
5.4569e-05
5.8854e-05
6.31046e-05
6.7325e-05
7.1516e-05
7.56771e-05
7.98065e-05
8.39019e-05
8.79606e-05
9.19791e-05
9.5954e-05
9.98813e-05
0.000103757
0.000107576
0.000111336
0.00011503
0.000118656
0.000122207
0.00012568
0.000129071
0.000132374
0.000135587
0.000138704
0.000141721
0.000144636
0.000147444
0.000150141
0.000152726
0.000155194
0.000157543
0.000159771
0.000161874
0.000163853
0.000165703
0.000167425
0.000169017
0.000170477
0.000171806
0.000173004
0.000174069
0.000175003
0.000175805
0.000176476
0.000177019
0.000177433
0.00017772
0.000177882
0.000177922
0.000177841
0.000177643
0.000177333
0.000176912
0.000176383
0.000175746
0.000175005
0.000174163
0.000173223
0.000172189
0.000171064
0.000169853
0.000168559
0.000167186
0.000165738
0.000164219
0.000162633
0.000160984
0.000159276
0.000157513
0.000155699
0.000153838
0.000151934
0.00014999
0.000148011
0.000146001
0.000143962
0.000141898
0.000139814
0.000137711
0.000135594
0.000133466
0.00013133
0.000129188
0.000127044
0.0001249
0.000122759
0.000120623
0.000118495
0.000116376
0.000114269
0.000112176
0.000110099
0.000108039
0.000105997
0.000103976
0.000101976
9.99992e-05
9.8046e-05
9.61176e-05
9.42148e-05
9.23383e-05
9.04889e-05
8.8667e-05
8.6873e-05
8.51074e-05
8.33704e-05
8.16622e-05
7.99828e-05
7.83323e-05
7.67106e-05
7.51177e-05
7.35532e-05
7.20171e-05
7.0509e-05
6.90285e-05
6.75753e-05
6.61489e-05
6.47489e-05
6.33748e-05
6.2026e-05
6.07019e-05
5.94021e-05
5.81259e-05
5.68726e-05
5.56417e-05
5.44325e-05
5.32444e-05
5.20767e-05
5.09289e-05
4.98001e-05
4.86899e-05
4.75975e-05
4.65224e-05
4.5464e-05
4.44216e-05
4.33946e-05
4.23826e-05
4.13849e-05
4.0401e-05
3.94305e-05
3.84727e-05
3.75273e-05
3.65937e-05
3.56716e-05
3.47606e-05
3.38602e-05
3.29701e-05
3.209e-05
3.12195e-05
3.03583e-05
2.95062e-05
2.86628e-05
2.78279e-05
2.70013e-05
2.61827e-05
2.53719e-05
2.45696e-05
2.37753e-05
2.29883e-05
2.22082e-05
2.14347e-05
2.06678e-05
1.99071e-05
1.91526e-05
1.84039e-05
1.76608e-05
1.69231e-05
1.61907e-05
1.5463e-05
1.474e-05
1.40212e-05
1.33062e-05
1.25945e-05
1.18858e-05
1.11793e-05
1.04743e-05
9.77055e-06
9.06796e-06
8.3647e-06
7.6593e-06
6.95017e-06
6.23535e-06
5.51243e-06
4.77828e-06
4.02881e-06
3.25861e-06
2.46063e-06
1.62795e-06
7.82305e-07
1.53541e-07
6.66431e-06
5.85732e-05
9.8479e-05
0.000126161
0.000147633
0.000165461
0.000180823
0.000194584
0.00020721
0.000218982
0.000230074
0.000240623
0.000250733
0.000260463
0.000269857
0.000278951
0.000287772
0.000296341
0.000304674
0.000312784
0.000320681
0.000328371
0.000335861
0.000343154
0.000350252
0.000357158
0.000363872
0.000370395
0.000376725
0.000382864
0.000388809
0.000394559
0.000400113
0.000405469
0.000410626
0.000415583
0.000420337
0.000424887
0.000429233
0.000433372
0.000437303
0.000441026
0.00044454
0.000447845
0.000450939
0.000453823
0.000456497
0.000458961
0.000461216
0.000463263
0.000465102
0.000466736
0.000468164
0.00046939
0.000470415
0.000471242
0.000471872
0.000472308
0.000472554
0.000472612
0.000472485
0.000472174
0.000471685
0.000471021
0.000470188
0.00046919
0.000468032
0.000466718
0.000465254
0.000463643
0.00046189
0.000460002
0.000457981
0.000455835
0.000453567
0.000451183
0.000448688
0.000446088
0.000443387
0.000440591
0.000437704
0.000434733
0.000431681
0.000428555
0.00042536
0.000422099
0.000418778
0.000415403
0.000411977
0.000408505
0.000404992
0.000401442
0.00039786
0.00039425
0.000390615
0.00038696
0.000383288
0.000379604
0.00037591
0.000372211
0.000368509
0.000364807
0.000361108
0.000357416
0.000353733
0.000350061
0.000346402
0.00034276
0.000339135
0.00033553
0.000331946
0.000328385
0.000324849
0.000321339
0.000317855
0.0003144
0.000310973
0.000307575
0.000304208
0.000300871
0.000297565
0.000294291
0.000291047
0.000287835
0.000284654
0.000281504
0.000278384
0.000275295
0.000272235
0.000269204
0.000266203
0.000263229
0.000260282
0.000257361
0.000254465
0.000251594
0.000248747
0.000245921
0.000243118
0.000240334
0.000237569
0.000234822
0.000232092
0.000229378
0.000226678
0.000223991
0.000221316
0.000218652
0.000215997
0.000213351
0.000210711
0.000208077
0.000205448
0.000202823
0.000200199
0.000197576
0.000194953
0.000192328
0.000189701
0.000187069
0.000184432
0.000181788
0.000179136
0.000176473
0.000173799
0.000171111
0.000168402
0.000165676
0.000162932
0.000160169
0.000157385
0.000154576
0.000151742
0.000148879
0.000145983
0.000143053
0.000140083
0.00013707
0.000134008
0.000130893
0.000127716
0.000124471
0.000121149
0.000117739
0.000114227
0.000110596
0.000106822
0.000102878
9.87462e-05
9.43886e-05
8.97578e-05
8.47904e-05
7.93985e-05
7.34557e-05
6.67694e-05
5.90238e-05
4.96442e-05
3.74233e-05
1.954e-05
7.06852e-07
6.65981e-06
5.85699e-05
9.84815e-05
0.000126164
0.000147636
0.000165464
0.000180826
0.000194587
0.000207212
0.000218985
0.000230077
0.000240626
0.000250736
0.000260466
0.00026986
0.000278954
0.000287775
0.000296344
0.000304677
0.000312787
0.000320684
0.000328375
0.000335865
0.000343157
0.000350256
0.000357162
0.000363876
0.000370399
0.00037673
0.000382868
0.000388813
0.000394563
0.000400117
0.000405473
0.000410631
0.000415587
0.000420341
0.000424892
0.000429237
0.000433376
0.000437308
0.000441031
0.000444545
0.000447849
0.000450944
0.000453828
0.000456502
0.000458966
0.000461221
0.000463268
0.000465107
0.00046674
0.000468169
0.000469395
0.00047042
0.000471246
0.000471877
0.000472313
0.000472559
0.000472617
0.000472489
0.000472179
0.000471689
0.000471026
0.000470193
0.000469195
0.000468037
0.000466723
0.000465258
0.000463647
0.000461895
0.000460006
0.000457986
0.000455839
0.000453571
0.000451188
0.000448693
0.000446092
0.000443391
0.000440595
0.000437708
0.000434737
0.000431686
0.000428559
0.000425364
0.000422103
0.000418782
0.000415407
0.000411981
0.000408509
0.000404996
0.000401446
0.000397864
0.000394253
0.000390618
0.000386963
0.000383292
0.000379607
0.000375914
0.000372214
0.000368512
0.00036481
0.000361112
0.000357419
0.000353736
0.000350064
0.000346405
0.000342762
0.000339138
0.000335532
0.000331949
0.000328388
0.000324852
0.000321341
0.000317858
0.000314402
0.000310975
0.000307578
0.000304211
0.000300874
0.000297568
0.000294293
0.000291049
0.000287837
0.000284656
0.000281506
0.000278386
0.000275297
0.000272237
0.000269206
0.000266204
0.00026323
0.000260283
0.000257363
0.000254467
0.000251596
0.000248748
0.000245923
0.000243119
0.000240335
0.000237571
0.000234824
0.000232094
0.000229379
0.000226679
0.000223992
0.000221317
0.000218653
0.000215998
0.000213352
0.000210712
0.000208079
0.000205449
0.000202824
0.0002002
0.000197577
0.000194954
0.00019233
0.000189702
0.00018707
0.000184433
0.000181789
0.000179137
0.000176474
0.0001738
0.000171112
0.000168402
0.000165677
0.000162933
0.00016017
0.000157385
0.000154577
0.000151743
0.000148879
0.000145984
0.000143054
0.000140084
0.000137071
0.000134009
0.000130893
0.000127717
0.000124472
0.00012115
0.000117739
0.000114227
0.000110597
0.000106822
0.000102879
9.87467e-05
9.4389e-05
8.97582e-05
8.47907e-05
7.93989e-05
7.3456e-05
6.67697e-05
5.9024e-05
4.96443e-05
3.74234e-05
1.95399e-05
7.06853e-07
1.21057e-05
9.5328e-05
0.000174615
0.000234006
0.00028013
0.000317485
0.000348887
0.00037613
0.000400342
0.000422271
0.000442431
0.000461174
0.000478762
0.000495376
0.000511152
0.000526193
0.000540581
0.000554381
0.000567643
0.00058041
0.000592714
0.000604584
0.000616041
0.000627105
0.00063779
0.00064811
0.000658075
0.000667693
0.000676974
0.000685921
0.000694542
0.00070284
0.00071082
0.000718484
0.000725835
0.000732877
0.00073961
0.000746037
0.000752161
0.000757982
0.000763503
0.000768725
0.00077365
0.00077828
0.000782616
0.000786662
0.000790418
0.000793886
0.000797071
0.000799973
0.000802595
0.00080494
0.000807012
0.000808813
0.000810346
0.000811615
0.000812623
0.000813374
0.00081387
0.000814117
0.000814115
0.000813869
0.000813381
0.00081266
0.000811713
0.000810544
0.000809162
0.000807571
0.000805777
0.000803786
0.000801604
0.000799236
0.000796689
0.000793969
0.000791081
0.000788032
0.000784827
0.000781473
0.000777976
0.000774342
0.000770577
0.000766687
0.000762678
0.000758557
0.000754328
0.00075
0.000745576
0.000741063
0.000736466
0.000731793
0.000727046
0.000722234
0.00071736
0.00071243
0.000707449
0.000702422
0.000697354
0.00069225
0.000687114
0.000681951
0.000676765
0.00067156
0.00066634
0.000661109
0.000655871
0.000650629
0.000645386
0.000640146
0.00063491
0.000629684
0.000624467
0.000619264
0.000614076
0.000608905
0.000603753
0.000598622
0.000593513
0.000588428
0.000583367
0.000578331
0.000573322
0.00056834
0.000563385
0.000558457
0.000553557
0.000548685
0.00054384
0.000539022
0.000534231
0.000529466
0.000524726
0.000520011
0.000515319
0.00051065
0.000506003
0.000501376
0.000496767
0.000492177
0.000487602
0.000483043
0.000478496
0.000473961
0.000469435
0.000464918
0.000460407
0.0004559
0.000451396
0.000446893
0.000442388
0.000437881
0.000433368
0.000428849
0.00042432
0.00041978
0.000415227
0.000410658
0.000406072
0.000401465
0.000396836
0.000392182
0.0003875
0.000382787
0.000378041
0.000373258
0.000368433
0.000363562
0.000358637
0.000353658
0.000348623
0.000343528
0.000338369
0.00033314
0.000327835
0.000322447
0.000316968
0.000311389
0.000305701
0.000299892
0.000293947
0.000287853
0.000281592
0.000275141
0.000268478
0.000261571
0.000254384
0.000246873
0.000238979
0.00023063
0.000221756
0.000212256
0.000201994
0.000190789
0.000178393
0.000164448
0.000148425
0.000129488
0.000106246
7.628e-05
3.6225e-05
1.47373e-06
1.21039e-05
9.53277e-05
0.000174619
0.000234011
0.000280136
0.000317491
0.000348893
0.000376136
0.000400347
0.000422277
0.000442436
0.00046118
0.000478768
0.000495381
0.000511157
0.000526198
0.000540587
0.000554386
0.000567649
0.000580416
0.00059272
0.00060459
0.000616047
0.000627111
0.000637796
0.000648116
0.000658081
0.000667699
0.000676979
0.000685927
0.000694548
0.000702846
0.000710826
0.00071849
0.000725841
0.000732883
0.000739616
0.000746043
0.000752167
0.000757988
0.000763509
0.000768731
0.000773656
0.000778286
0.000782622
0.000786668
0.000790424
0.000793893
0.000797077
0.000799979
0.000802601
0.000804946
0.000807018
0.000808819
0.000810352
0.000811621
0.000812629
0.000813379
0.000813876
0.000814122
0.000814121
0.000813874
0.000813387
0.000812666
0.000811718
0.00081055
0.000809167
0.000807576
0.000805782
0.000803791
0.000801609
0.000799242
0.000796694
0.000793974
0.000791086
0.000788036
0.000784832
0.000781478
0.00077798
0.000774346
0.000770581
0.000766691
0.000762682
0.000758561
0.000754333
0.000750004
0.00074558
0.000741067
0.00073647
0.000731796
0.00072705
0.000722237
0.000717363
0.000712433
0.000707452
0.000702425
0.000697357
0.000692253
0.000687117
0.000681954
0.000676768
0.000671563
0.000666343
0.000661112
0.000655874
0.000650632
0.000645389
0.000640148
0.000634913
0.000629686
0.00062447
0.000619266
0.000614078
0.000608907
0.000603755
0.000598624
0.000593515
0.00058843
0.000583369
0.000578333
0.000573324
0.000568342
0.000563386
0.000558459
0.000553559
0.000548686
0.000543841
0.000539023
0.000534232
0.000529467
0.000524727
0.000520012
0.00051532
0.000510651
0.000506004
0.000501377
0.000496768
0.000492178
0.000487603
0.000483044
0.000478497
0.000473961
0.000469436
0.000464918
0.000460407
0.000455901
0.000451396
0.000446893
0.000442389
0.000437881
0.000433369
0.000428849
0.00042432
0.000419781
0.000415227
0.000410659
0.000406072
0.000401465
0.000396836
0.000392182
0.0003875
0.000382788
0.000378042
0.000373258
0.000368434
0.000363562
0.000358637
0.000353658
0.000348623
0.000343528
0.000338369
0.00033314
0.000327835
0.000322447
0.000316968
0.000311389
0.000305701
0.000299892
0.000293947
0.000287854
0.000281592
0.000275142
0.000268478
0.000261571
0.000254384
0.000246873
0.000238979
0.00023063
0.000221756
0.000212256
0.000201994
0.000190789
0.000178393
0.000164448
0.000148425
0.000129488
0.000106246
7.62801e-05
3.62248e-05
1.47374e-06
1.72624e-05
0.000121518
0.000230907
0.000319299
0.000390567
0.000449257
0.000498838
0.000541711
0.000579526
0.000613438
0.000644269
0.000672615
0.000698915
0.000723496
0.000746606
0.000768436
0.000789136
0.000808828
0.000827608
0.000845555
0.000862733
0.000879197
0.000894992
0.000910156
0.00092472
0.000938712
0.000952156
0.000965072
0.000977478
0.000989389
0.00100082
0.00101178
0.00102228
0.00103234
0.00104195
0.00105113
0.00105989
0.00106822
0.00107615
0.00108367
0.00109079
0.00109751
0.00110385
0.00110979
0.00111536
0.00112055
0.00112537
0.00112983
0.00113392
0.00113766
0.00114104
0.00114407
0.00114677
0.00114912
0.00115114
0.00115283
0.0011542
0.00115525
0.00115598
0.00115641
0.00115653
0.00115634
0.00115586
0.00115509
0.00115404
0.00115272
0.00115113
0.00114929
0.00114719
0.00114485
0.00114227
0.00113946
0.00113642
0.00113317
0.00112971
0.00112604
0.00112218
0.00111813
0.00111389
0.00110948
0.0011049
0.00110016
0.00109526
0.00109022
0.00108503
0.00107971
0.00107426
0.00106869
0.001063
0.00105721
0.00105132
0.00104533
0.00103925
0.00103309
0.00102685
0.00102054
0.00101416
0.00100773
0.00100124
0.000994701
0.000988119
0.000981499
0.000974845
0.000968162
0.000961454
0.000954726
0.000947981
0.000941223
0.000934457
0.000927685
0.00092091
0.000914137
0.000907367
0.000900603
0.000893847
0.000887103
0.00088037
0.000873653
0.000866951
0.000860266
0.000853599
0.000846951
0.000840323
0.000833715
0.000827127
0.00082056
0.000814013
0.000807487
0.000800979
0.000794491
0.000788021
0.000781568
0.000775131
0.000768709
0.000762301
0.000755905
0.000749519
0.000743141
0.000736771
0.000730406
0.000724043
0.000717682
0.000711319
0.000704953
0.000698581
0.000692201
0.000685811
0.000679407
0.000672988
0.00066655
0.000660091
0.000653609
0.0006471
0.000640561
0.00063399
0.000627382
0.000620735
0.000614046
0.00060731
0.000600523
0.000593682
0.000586782
0.000579818
0.000572785
0.000565675
0.000558483
0.000551198
0.000543817
0.000536335
0.000528745
0.000521039
0.000513207
0.000505238
0.00049712
0.000488839
0.00048038
0.000471724
0.000462852
0.000453738
0.000444356
0.000434674
0.000424654
0.000414252
0.000403414
0.000392078
0.000380164
0.000367577
0.000354198
0.000339887
0.000324472
0.00030772
0.000289329
0.000268886
0.000245827
0.000219345
0.000188264
0.000150825
0.000104511
4.75386e-05
2.23515e-06
1.72627e-05
0.00012152
0.000230912
0.000319306
0.000390574
0.000449265
0.000498846
0.000541719
0.000579534
0.000613446
0.000644277
0.000672623
0.000698923
0.000723504
0.000746614
0.000768443
0.000789144
0.000808836
0.000827616
0.000845562
0.000862741
0.000879205
0.000895
0.000910163
0.000924727
0.00093872
0.000952164
0.000965079
0.000977485
0.000989396
0.00100083
0.00101179
0.00102229
0.00103234
0.00104196
0.00105114
0.00105989
0.00106823
0.00107616
0.00108368
0.0010908
0.00109752
0.00110385
0.0011098
0.00111537
0.00112056
0.00112538
0.00112984
0.00113393
0.00113766
0.00114105
0.00114408
0.00114677
0.00114913
0.00115115
0.00115284
0.00115421
0.00115525
0.00115599
0.00115641
0.00115653
0.00115635
0.00115587
0.0011551
0.00115405
0.00115273
0.00115114
0.00114929
0.0011472
0.00114485
0.00114227
0.00113946
0.00113643
0.00113318
0.00112971
0.00112605
0.00112218
0.00111813
0.0011139
0.00110949
0.00110491
0.00110016
0.00109527
0.00109022
0.00108503
0.00107971
0.00107426
0.00106869
0.00106301
0.00105722
0.00105132
0.00104533
0.00103925
0.00103309
0.00102685
0.00102054
0.00101417
0.00100773
0.00100124
0.000994704
0.000988122
0.000981502
0.000974848
0.000968165
0.000961457
0.000954728
0.000947983
0.000941225
0.000934459
0.000927687
0.000920912
0.000914139
0.000907368
0.000900604
0.000893849
0.000887104
0.000880372
0.000873654
0.000866952
0.000860267
0.0008536
0.000846952
0.000840324
0.000833716
0.000827128
0.000820561
0.000814014
0.000807487
0.00080098
0.000794492
0.000788022
0.000781569
0.000775132
0.00076871
0.000762301
0.000755905
0.000749519
0.000743142
0.000736771
0.000730406
0.000724043
0.000717682
0.000711319
0.000704953
0.000698581
0.000692201
0.000685811
0.000679407
0.000672988
0.00066655
0.000660091
0.000653609
0.0006471
0.000640561
0.000633989
0.000627382
0.000620735
0.000614045
0.000607309
0.000600523
0.000593682
0.000586782
0.000579818
0.000572784
0.000565675
0.000558482
0.000551198
0.000543816
0.000536334
0.000528744
0.000521038
0.000513206
0.000505237
0.000497119
0.000488839
0.00048038
0.000471724
0.000462851
0.000453737
0.000444355
0.000434673
0.000424653
0.000414251
0.000403414
0.000392077
0.000380164
0.000367577
0.000354197
0.000339887
0.000324471
0.00030772
0.000289328
0.000268886
0.000245827
0.000219345
0.000188264
0.000150825
0.000104511
4.75384e-05
2.23516e-06
2.22211e-05
0.000142633
0.000275363
0.000388243
0.000482302
0.000561449
0.000629129
0.000687972
0.000739927
0.000786435
0.000828563
0.000867111
0.000902685
0.000935748
0.000966659
0.000995699
0.00102309
0.00104901
0.00107361
0.00109701
0.00111931
0.00114058
0.0011609
0.00118034
0.00119893
0.00121672
0.00123376
0.00125007
0.00126568
0.00128063
0.00129492
0.00130859
0.00132165
0.00133412
0.00134602
0.00135735
0.00136813
0.00137838
0.00138809
0.0013973
0.001406
0.0014142
0.00142191
0.00142915
0.00143592
0.00144222
0.00144807
0.00145347
0.00145843
0.00146296
0.00146707
0.00147075
0.00147403
0.0014769
0.00147937
0.00148145
0.00148315
0.00148446
0.00148541
0.00148598
0.0014862
0.00148606
0.00148558
0.00148475
0.00148359
0.00148211
0.00148032
0.00147823
0.00147583
0.00147315
0.00147019
0.00146695
0.00146345
0.00145969
0.00145568
0.00145143
0.00144694
0.00144223
0.00143729
0.00143215
0.00142681
0.00142126
0.00141553
0.00140962
0.00140354
0.00139729
0.00139088
0.00138432
0.00137762
0.00137078
0.00136381
0.00135673
0.00134952
0.00134221
0.0013348
0.0013273
0.0013197
0.00131203
0.00130428
0.00129646
0.00128858
0.00128064
0.00127265
0.00126461
0.00125653
0.00124841
0.00124026
0.00123209
0.00122389
0.00121567
0.00120743
0.00119919
0.00119093
0.00118267
0.00117441
0.00116614
0.00115788
0.00114963
0.00114137
0.00113313
0.00112489
0.00111667
0.00110845
0.00110024
0.00109205
0.00108387
0.0010757
0.00106754
0.00105939
0.00105125
0.00104312
0.00103499
0.00102687
0.00101876
0.00101065
0.00100254
0.000994434
0.000986323
0.000978207
0.000970084
0.000961952
0.000953807
0.000945648
0.000937471
0.000929275
0.000921055
0.000912809
0.000904533
0.000896225
0.000887881
0.000879498
0.000871071
0.000862598
0.000854074
0.000845495
0.000836858
0.000828157
0.000819388
0.000810545
0.000801624
0.000792619
0.000783523
0.00077433
0.000765031
0.000755619
0.000746084
0.000736415
0.000726603
0.00071664
0.000706517
0.00069622
0.000685735
0.000675046
0.000664135
0.000652981
0.00064156
0.000629847
0.000617811
0.000605416
0.000592622
0.000579381
0.000565638
0.000551329
0.000536376
0.000520687
0.000504149
0.000486629
0.00046796
0.000447941
0.000426328
0.000402806
0.000376966
0.000348271
0.00031601
0.000279215
0.000236566
0.000186279
0.000126222
5.62914e-05
2.97634e-06
2.22217e-05
0.000142636
0.000275369
0.000388251
0.000482311
0.000561458
0.000629139
0.000687982
0.000739938
0.000786445
0.000828573
0.000867121
0.000902695
0.000935758
0.000966669
0.000995709
0.0010231
0.00104902
0.00107362
0.00109702
0.00111932
0.00114059
0.00116091
0.00118035
0.00119894
0.00121673
0.00123377
0.00125008
0.00126569
0.00128064
0.00129493
0.0013086
0.00132166
0.00133413
0.00134603
0.00135736
0.00136814
0.00137838
0.0013881
0.00139731
0.00140601
0.00141421
0.00142192
0.00142916
0.00143593
0.00144223
0.00144808
0.00145348
0.00145844
0.00146297
0.00146708
0.00147076
0.00147404
0.00147691
0.00147938
0.00148146
0.00148315
0.00148447
0.00148541
0.00148599
0.00148621
0.00148607
0.00148558
0.00148476
0.0014836
0.00148212
0.00148033
0.00147823
0.00147584
0.00147315
0.00147019
0.00146695
0.00146345
0.00145969
0.00145568
0.00145143
0.00144694
0.00144223
0.0014373
0.00143216
0.00142681
0.00142127
0.00141554
0.00140962
0.00140354
0.00139729
0.00139088
0.00138432
0.00137762
0.00137078
0.00136382
0.00135673
0.00134953
0.00134222
0.00133481
0.0013273
0.00131971
0.00131203
0.00130428
0.00129646
0.00128858
0.00128064
0.00127265
0.00126461
0.00125653
0.00124841
0.00124027
0.00123209
0.00122389
0.00121567
0.00120744
0.00119919
0.00119093
0.00118267
0.00117441
0.00116615
0.00115788
0.00114963
0.00114137
0.00113313
0.00112489
0.00111667
0.00110845
0.00110025
0.00109205
0.00108387
0.0010757
0.00106754
0.00105939
0.00105125
0.00104312
0.00103499
0.00102687
0.00101876
0.00101065
0.00100254
0.000994434
0.000986323
0.000978207
0.000970084
0.000961952
0.000953807
0.000945648
0.000937471
0.000929274
0.000921054
0.000912808
0.000904533
0.000896225
0.000887881
0.000879497
0.000871071
0.000862597
0.000854073
0.000845495
0.000836857
0.000828156
0.000819387
0.000810545
0.000801624
0.000792618
0.000783522
0.000774329
0.000765031
0.000755618
0.000746083
0.000736414
0.000726602
0.00071664
0.000706516
0.000696219
0.000685734
0.000675045
0.000664134
0.00065298
0.00064156
0.000629846
0.00061781
0.000605415
0.000592621
0.00057938
0.000565638
0.000551329
0.000536375
0.000520686
0.000504148
0.000486628
0.000467959
0.00044794
0.000426328
0.000402806
0.000376966
0.000348271
0.00031601
0.000279215
0.000236566
0.00018628
0.000126222
5.62912e-05
2.97635e-06
2.70748e-05
0.000160694
0.000312238
0.000445832
0.000560083
0.000658008
0.000742775
0.00081703
0.000882859
0.000941875
0.000995321
0.00104416
0.00108912
0.0011308
0.00116965
0.00120603
0.00124024
0.00127251
0.00130304
0.00133198
0.00135948
0.00138564
0.00141056
0.00143432
0.00145699
0.00147863
0.00149929
0.00151902
0.00153787
0.00155586
0.00157303
0.00158941
0.00160503
0.00161991
0.00163407
0.00164754
0.00166033
0.00167246
0.00168394
0.0016948
0.00170505
0.0017147
0.00172376
0.00173225
0.00174017
0.00174755
0.00175439
0.0017607
0.00176649
0.00177177
0.00177655
0.00178085
0.00178467
0.00178802
0.0017909
0.00179333
0.00179532
0.00179687
0.001798
0.0017987
0.00179899
0.00179888
0.00179836
0.00179746
0.00179618
0.00179454
0.00179253
0.00179018
0.00178749
0.00178447
0.00178113
0.00177747
0.00177351
0.00176926
0.00176472
0.0017599
0.00175482
0.00174947
0.00174387
0.00173803
0.00173195
0.00172564
0.00171912
0.00171239
0.00170545
0.00169833
0.00169101
0.00168352
0.00167586
0.00166804
0.00166007
0.00165195
0.00164369
0.00163531
0.0016268
0.00161817
0.00160944
0.0016006
0.00159167
0.00158266
0.00157356
0.00156439
0.00155515
0.00154584
0.00153648
0.00152707
0.00151761
0.00150811
0.00149857
0.001489
0.0014794
0.00146978
0.00146014
0.00145048
0.0014408
0.00143112
0.00142142
0.00141173
0.00140202
0.00139231
0.00138261
0.0013729
0.00136319
0.00135349
0.00134378
0.00133408
0.00132438
0.00131468
0.00130498
0.00129528
0.00128558
0.00127587
0.00126616
0.00125645
0.00124673
0.00123699
0.00122725
0.00121749
0.00120771
0.00119791
0.00118809
0.00117824
0.00116836
0.00115845
0.00114851
0.00113852
0.00112849
0.00111842
0.00110829
0.00109811
0.00108787
0.00107757
0.00106719
0.00105675
0.00104622
0.00103562
0.00102492
0.00101413
0.00100324
0.000992236
0.000981118
0.000969877
0.000958502
0.000946984
0.000935313
0.000923477
0.000911463
0.000899257
0.00088685
0.000874224
0.000861365
0.000848252
0.000834863
0.000821176
0.000807161
0.000792788
0.000778021
0.00076282
0.000747136
0.000730917
0.0007141
0.000696612
0.000678368
0.000659266
0.000639187
0.000617989
0.0005955
0.000571511
0.000545769
0.00051797
0.000487727
0.000454554
0.000417829
0.000376752
0.000330285
0.000277091
0.000215521
0.000143937
6.36083e-05
3.70404e-06
2.70752e-05
0.000160697
0.000312244
0.00044584
0.000560092
0.000658019
0.000742786
0.000817042
0.000882871
0.000941887
0.000995333
0.00104417
0.00108913
0.00113081
0.00116966
0.00120604
0.00124025
0.00127252
0.00130305
0.00133199
0.00135949
0.00138565
0.00141057
0.00143433
0.001457
0.00147864
0.0014993
0.00151903
0.00153788
0.00155587
0.00157304
0.00158942
0.00160504
0.00161992
0.00163408
0.00164755
0.00166034
0.00167247
0.00168395
0.00169481
0.00170506
0.00171471
0.00172377
0.00173226
0.00174018
0.00174756
0.0017544
0.0017607
0.0017665
0.00177178
0.00177656
0.00178086
0.00178468
0.00178802
0.00179091
0.00179334
0.00179533
0.00179688
0.001798
0.00179871
0.001799
0.00179888
0.00179837
0.00179747
0.00179619
0.00179454
0.00179254
0.00179019
0.0017875
0.00178448
0.00178113
0.00177748
0.00177352
0.00176927
0.00176473
0.00175991
0.00175482
0.00174947
0.00174387
0.00173803
0.00173195
0.00172565
0.00171913
0.00171239
0.00170546
0.00169833
0.00169102
0.00168353
0.00167587
0.00166805
0.00166007
0.00165195
0.0016437
0.00163531
0.0016268
0.00161817
0.00160944
0.00160061
0.00159168
0.00158266
0.00157356
0.00156439
0.00155515
0.00154584
0.00153648
0.00152707
0.00151761
0.00150811
0.00149857
0.001489
0.0014794
0.00146978
0.00146014
0.00145048
0.0014408
0.00143112
0.00142143
0.00141173
0.00140202
0.00139232
0.00138261
0.0013729
0.00136319
0.00135349
0.00134378
0.00133408
0.00132438
0.00131468
0.00130498
0.00129528
0.00128558
0.00127587
0.00126617
0.00125645
0.00124673
0.00123699
0.00122725
0.00121749
0.00120771
0.00119791
0.00118809
0.00117824
0.00116836
0.00115845
0.00114851
0.00113852
0.00112849
0.00111842
0.00110829
0.00109811
0.00108787
0.00107757
0.00106719
0.00105675
0.00104622
0.00103562
0.00102492
0.00101413
0.00100324
0.000992235
0.000981117
0.000969876
0.000958501
0.000946984
0.000935313
0.000923476
0.000911462
0.000899257
0.000886849
0.000874224
0.000861364
0.000848251
0.000834862
0.000821175
0.00080716
0.000792787
0.00077802
0.000762819
0.000747135
0.000730916
0.000714099
0.000696611
0.000678367
0.000659265
0.000639187
0.000617989
0.000595499
0.00057151
0.000545769
0.000517969
0.000487727
0.000454554
0.000417829
0.000376752
0.000330285
0.000277092
0.000215522
0.000143938
6.36081e-05
3.70406e-06
3.18457e-05
0.000176676
0.000344047
0.000495403
0.000627469
0.000742369
0.000842909
0.000931639
0.00101068
0.00108175
0.00114619
0.00120508
0.00125928
0.00130947
0.00135617
0.00139984
0.00144082
0.00147941
0.00151584
0.00155031
0.00158299
0.00161402
0.00164352
0.00167159
0.00169832
0.00172378
0.00174806
0.00177119
0.00179325
0.00181426
0.00183429
0.00185336
0.00187151
0.00188877
0.00190517
0.00192074
0.00193551
0.00194949
0.00196271
0.00197519
0.00198695
0.001998
0.00200837
0.00201807
0.00202712
0.00203553
0.00204332
0.0020505
0.00205708
0.00206307
0.0020685
0.00207337
0.00207769
0.00208148
0.00208474
0.00208749
0.00208974
0.0020915
0.00209277
0.00209357
0.00209391
0.0020938
0.00209324
0.00209224
0.00209083
0.002089
0.00208677
0.00208416
0.00208116
0.0020778
0.00207407
0.00207
0.00206559
0.00206085
0.00205579
0.00205042
0.00204474
0.00203878
0.00203253
0.00202601
0.00201923
0.00201219
0.00200491
0.00199739
0.00198964
0.00198167
0.00197349
0.00196511
0.00195654
0.00194778
0.00193885
0.00192976
0.0019205
0.00191109
0.00190154
0.00189186
0.00188205
0.00187212
0.00186208
0.00185194
0.00184169
0.00183136
0.00182094
0.00181045
0.00179989
0.00178926
0.00177857
0.00176782
0.00175703
0.00174619
0.00173532
0.00172441
0.00171346
0.00170249
0.0016915
0.00168049
0.00166945
0.0016584
0.00164734
0.00163626
0.00162518
0.00161408
0.00160298
0.00159187
0.00158075
0.00156962
0.00155849
0.00154734
0.00153619
0.00152503
0.00151385