/*--------------------------------*- C++ -*----------------------------------*\
  =========                 |
  \\      /  F ield         | OpenFOAM: The Open Source CFD Toolbox
   \\    /   O peration     | Website:  https://openfoam.org
    \\  /    A nd           | Version:  8
     \\/     M anipulation  |
\*---------------------------------------------------------------------------*/
FoamFile
{
    version     2.0;
    format      ascii;
    class       surfaceScalarField;
    location    "4100";
    object      phi;
}
// * * * * * * * * * * * * * * * * * * * * * * * * * * * * * * * * * * * * * //

dimensions      [1 0 -1 0 0 0 0];

internalField   nonuniform List<scalar> 
114370
(
7.25174e-10
2.73517e-13
-7.25449e-10
1.77872e-09
5.61625e-12
-1.0915e-09
2.70973e-09
4.35898e-12
-9.21034e-10
3.27076e-09
2.13311e-12
-5.5811e-10
3.46431e-09
8.1141e-13
-1.93481e-10
3.3402e-09
2.35567e-13
1.23648e-10
2.95687e-09
2.83999e-14
3.83046e-10
2.36777e-09
-3.09415e-14
5.89003e-10
1.61735e-09
-3.87545e-14
7.50414e-10
7.41072e-10
-3.17463e-14
8.76277e-10
-2.32552e-10
-2.19939e-14
9.73619e-10
-1.27997e-09
-1.29421e-14
1.04742e-09
-2.38244e-09
-5.92835e-15
1.10247e-09
-3.5256e-09
-1.43654e-15
1.14316e-09
-4.69781e-09
8.61186e-16
1.17222e-09
-5.88961e-09
1.80019e-15
1.19182e-09
-7.09322e-09
2.21661e-15
1.20363e-09
-8.30218e-09
2.57872e-15
1.20898e-09
-9.51108e-09
2.96381e-15
1.20893e-09
-1.07154e-08
3.24493e-15
1.20432e-09
-1.19112e-08
3.29729e-15
1.19585e-09
-1.30952e-08
3.09237e-15
1.18407e-09
-1.42647e-08
2.69857e-15
1.16945e-09
-1.5417e-08
2.22043e-15
1.15235e-09
-1.65501e-08
1.74468e-15
1.13312e-09
-1.76621e-08
1.31722e-15
1.112e-09
-1.87513e-08
9.47505e-16
1.08923e-09
-1.98163e-08
6.27334e-16
1.065e-09
-2.08558e-08
3.4625e-16
1.03948e-09
-2.18686e-08
1.03817e-16
1.01281e-09
-2.28537e-08
-9.55719e-17
9.85119e-10
-2.38102e-08
-2.39341e-16
9.56517e-10
-2.47373e-08
-3.18004e-16
9.27104e-10
-2.56342e-08
-3.25109e-16
8.9697e-10
-2.65004e-08
-2.59952e-16
8.66196e-10
-2.73352e-08
-1.27194e-16
8.34856e-10
-2.81382e-08
6.2376e-17
8.03018e-10
-2.89089e-08
2.89676e-16
7.70746e-10
-2.9647e-08
5.29716e-16
7.381e-10
-3.03521e-08
7.52626e-16
7.05135e-10
-3.1024e-08
9.2821e-16
6.71904e-10
-3.16624e-08
1.03278e-15
6.38459e-10
-3.22672e-08
1.05175e-15
6.04848e-10
-3.28384e-08
9.83391e-16
5.71118e-10
-3.33757e-08
8.38323e-16
5.37315e-10
-3.38791e-08
6.38503e-16
5.03482e-10
-3.43488e-08
4.12879e-16
4.69663e-10
-3.47847e-08
1.90995e-16
4.359e-10
-3.51869e-08
-1.9401e-18
4.02232e-10
-3.55556e-08
-1.47441e-16
3.68699e-10
-3.5891e-08
-2.36944e-16
3.35341e-10
-3.61932e-08
-2.71585e-16
3.02195e-10
-3.64625e-08
-2.59335e-16
2.69299e-10
-3.66992e-08
-2.12444e-16
2.36688e-10
-3.69036e-08
-1.44412e-16
2.04398e-10
-3.7076e-08
-6.76512e-17
1.72465e-10
-3.7217e-08
9.21762e-18
1.40922e-10
-3.73268e-08
8.08281e-17
1.09802e-10
-3.74059e-08
1.44849e-16
7.91369e-11
-3.74549e-08
2.0063e-16
4.89547e-11
-3.74742e-08
2.48605e-16
1.92811e-11
-3.74643e-08
2.88774e-16
-9.85533e-12
-3.74259e-08
3.20594e-16
-3.84236e-11
-3.73595e-08
3.43687e-16
-6.64e-11
-3.72658e-08
3.57835e-16
-9.37668e-11
-3.71453e-08
3.64014e-16
-1.20503e-10
-3.69987e-08
3.63091e-16
-1.46584e-10
-3.68267e-08
3.56693e-16
-1.71988e-10
-3.66301e-08
3.46935e-16
-1.96693e-10
-3.64094e-08
3.34574e-16
-2.2068e-10
-3.61655e-08
3.21616e-16
-2.4393e-10
-3.58991e-08
3.07846e-16
-2.66429e-10
-3.56109e-08
2.94672e-16
-2.88161e-10
-3.53018e-08
2.82636e-16
-3.09114e-10
-3.49726e-08
2.7201e-16
-3.29277e-10
-3.4624e-08
2.62522e-16
-3.48639e-10
-3.42568e-08
2.54878e-16
-3.67194e-10
-3.38719e-08
2.48968e-16
-3.84933e-10
-3.34701e-08
2.44521e-16
-4.01851e-10
-3.30522e-08
2.42189e-16
-4.17946e-10
-3.2619e-08
2.41212e-16
-4.33213e-10
-3.21713e-08
2.42024e-16
-4.47654e-10
-3.17101e-08
2.44409e-16
-4.61267e-10
-3.12361e-08
2.48636e-16
-4.74056e-10
-3.07501e-08
2.54706e-16
-4.86022e-10
-3.02529e-08
2.62728e-16
-4.97171e-10
-2.97455e-08
2.71401e-16
-5.07509e-10
-2.92284e-08
2.80886e-16
-5.17043e-10
-2.87027e-08
2.91456e-16
-5.2578e-10
-2.8169e-08
3.01592e-16
-5.33732e-10
-2.76281e-08
3.11837e-16
-5.40907e-10
-2.70808e-08
3.21377e-16
-5.47319e-10
-2.65279e-08
3.307e-16
-5.5298e-10
-2.597e-08
3.38722e-16
-5.57904e-10
-2.54079e-08
3.46419e-16
-5.62105e-10
-2.48423e-08
3.53031e-16
-5.65599e-10
-2.4274e-08
3.58777e-16
-5.68403e-10
-2.37035e-08
3.63817e-16
-5.70533e-10
-2.31315e-08
3.67719e-16
-5.72006e-10
-2.25587e-08
3.71188e-16
-5.72842e-10
-2.19857e-08
3.74006e-16
-5.7306e-10
-2.1413e-08
3.76336e-16
-5.72677e-10
-2.08413e-08
3.77907e-16
-5.71715e-10
-2.02712e-08
3.79207e-16
-5.70192e-10
-1.97031e-08
3.79748e-16
-5.68129e-10
-1.91376e-08
3.80181e-16
-5.65547e-10
-1.85751e-08
3.80234e-16
-5.62464e-10
-1.80163e-08
3.79745e-16
-5.58903e-10
-1.74614e-08
3.78986e-16
-5.54883e-10
-1.6911e-08
3.77792e-16
-5.50424e-10
-1.63655e-08
3.76057e-16
-5.45546e-10
-1.58253e-08
3.74104e-16
-5.40268e-10
-1.52907e-08
3.72044e-16
-5.34611e-10
-1.47622e-08
3.69332e-16
-5.28592e-10
-1.424e-08
3.65645e-16
-5.2223e-10
-1.37245e-08
3.61199e-16
-5.15543e-10
-1.3216e-08
3.55452e-16
-5.08549e-10
-1.27147e-08
3.49597e-16
-5.01263e-10
-1.22211e-08
3.41356e-16
-4.93702e-10
-1.17352e-08
3.31489e-16
-4.85882e-10
-1.12574e-08
3.2108e-16
-4.77816e-10
-1.0788e-08
3.08394e-16
-4.69519e-10
-1.0327e-08
2.94082e-16
-4.61004e-10
-9.87474e-09
2.78143e-16
-4.52283e-10
-9.43141e-09
2.60578e-16
-4.43367e-10
-8.99718e-09
2.41386e-16
-4.34267e-10
-8.57222e-09
2.20352e-16
-4.24993e-10
-8.1567e-09
1.98558e-16
-4.15555e-10
-7.75078e-09
1.75355e-16
-4.05959e-10
-7.3546e-09
1.51826e-16
-3.96216e-10
-6.96831e-09
1.26562e-16
-3.8633e-10
-6.59203e-09
1.00973e-16
-3.76309e-10
-6.22591e-09
7.45167e-17
-3.66158e-10
-5.87007e-09
4.77346e-17
-3.55882e-10
-5.52461e-09
2.04102e-17
-3.45487e-10
-5.18967e-09
-7.34817e-18
-3.34977e-10
-4.86535e-09
-3.57573e-17
-3.24355e-10
-4.55176e-09
-6.41668e-17
-3.13626e-10
-4.249e-09
-9.42029e-17
-3.02794e-10
-3.95717e-09
-1.24023e-16
-2.91861e-10
-3.67637e-09
-1.54059e-16
-2.80834e-10
-3.40669e-09
-1.85723e-16
-2.69715e-10
-3.14822e-09
-2.18363e-16
-2.58508e-10
-2.90103e-09
-2.50678e-16
-2.4722e-10
-2.66521e-09
-2.84512e-16
-2.35855e-10
-2.44082e-09
-3.19864e-16
-2.2442e-10
-2.22793e-09
-3.5424e-16
-2.12922e-10
-2.02659e-09
-3.89051e-16
-2.01369e-10
-1.83684e-09
-4.24405e-16
-1.89771e-10
-1.65873e-09
-4.59868e-16
-1.78138e-10
-1.49228e-09
-4.95766e-16
-1.66483e-10
-1.33749e-09
-5.30254e-16
-1.54818e-10
-1.19436e-09
-5.6366e-16
-1.43159e-10
-1.06286e-09
-5.96849e-16
-1.31522e-10
-9.42959e-10
-6.28088e-16
-1.19928e-10
-8.34588e-10
-6.5846e-16
-1.08396e-10
-7.37662e-10
-6.87532e-16
-9.695e-11
-6.5207e-10
-7.13787e-16
-8.56143e-11
-5.77676e-10
-7.3744e-16
-7.44166e-11
-5.14311e-10
-7.57625e-16
-6.33863e-11
-4.61776e-10
-7.76076e-16
-5.25554e-11
-4.19838e-10
-7.92793e-16
-4.19578e-11
-3.88226e-10
-8.08428e-16
-3.16302e-11
-3.66633e-10
-8.22545e-16
-2.16115e-11
-3.54707e-10
-8.34712e-16
-1.19433e-11
-3.52053e-10
-8.4623e-16
-2.67005e-12
-3.58233e-10
-8.55152e-16
6.16389e-12
-3.72758e-10
-8.63203e-16
1.45105e-11
-3.95089e-10
-8.69954e-16
2.23163e-11
-4.24629e-10
-8.76055e-16
2.95269e-11
-4.60728e-10
-8.82591e-16
3.60853e-11
-5.02673e-10
-8.85442e-16
4.19321e-11
-5.4969e-10
-8.86342e-16
4.70056e-11
-6.00943e-10
-8.78786e-16
5.12414e-11
-6.55526e-10
-8.5757e-16
5.45723e-11
-7.12465e-10
-8.14887e-16
5.69282e-11
-7.70712e-10
-7.49437e-16
5.82365e-11
-8.29143e-10
-6.6317e-16
5.84212e-11
-8.86556e-10
-5.61291e-16
5.74033e-11
-9.41667e-10
-4.54208e-16
5.51001e-11
-9.93104e-10
-3.46257e-16
5.14257e-11
-1.03941e-09
-2.36137e-16
4.62906e-11
-1.07903e-09
-1.10838e-16
3.96026e-11
-1.11031e-09
5.43618e-17
3.12672e-11
-1.13152e-09
2.75942e-16
2.11896e-11
-1.14082e-09
5.56071e-16
9.27866e-12
-1.1363e-09
8.79585e-16
-4.54271e-12
-1.11601e-09
1.22087e-15
-2.03228e-11
-1.07798e-09
1.57951e-15
-3.80747e-11
-1.02028e-09
1.97502e-15
-5.77392e-11
-9.41223e-10
2.43299e-15
-7.91142e-11
-8.39535e-10
2.95689e-15
-1.01751e-10
-7.14842e-10
3.51594e-15
-1.24768e-10
-5.68407e-10
4.09107e-15
-1.46522e-10
-4.04469e-10
4.73606e-15
-1.64041e-10
-2.32527e-10
5.52943e-15
-1.72063e-10
-7.10762e-11
6.45774e-15
-1.61594e-10
4.67197e-11
7.29855e-15
-1.17967e-10
7.34621e-11
8.07085e-15
-2.69516e-11
5.49956e-15
7.32087e-11
7.49615e-10
-7.48693e-10
1.77874e-09
-1.10785e-09
2.70334e-09
-9.28847e-10
3.26662e-09
-5.60918e-10
3.46266e-09
-1.94216e-10
3.33988e-09
1.23563e-10
2.95701e-09
3.83097e-10
2.36798e-09
5.8905e-10
1.61749e-09
7.50438e-10
7.41141e-10
8.76288e-10
-2.32529e-10
9.73626e-10
-1.27997e-09
1.04742e-09
-2.38246e-09
1.10248e-09
-3.52562e-09
1.14317e-09
-4.69783e-09
1.17223e-09
-5.88963e-09
1.19182e-09
-7.09323e-09
1.20364e-09
-8.30218e-09
1.20899e-09
-9.51108e-09
1.20894e-09
-1.07154e-08
1.20433e-09
-1.19112e-08
1.19586e-09
-1.30952e-08
1.18408e-09
-1.42647e-08
1.16945e-09
-1.5417e-08
1.15236e-09
-1.65501e-08
1.13312e-09
-1.76621e-08
1.112e-09
-1.87513e-08
1.08923e-09
-1.98163e-08
1.065e-09
-2.08558e-08
1.03948e-09
-2.18686e-08
1.01281e-09
-2.28537e-08
9.85121e-10
-2.38101e-08
9.56519e-10
-2.47372e-08
9.27107e-10
-2.56342e-08
8.96974e-10
-2.65003e-08
8.662e-10
-2.73352e-08
8.3486e-10
-2.81382e-08
8.03023e-10
-2.89089e-08
7.70751e-10
-2.96469e-08
7.38104e-10
-3.03521e-08
7.05138e-10
-3.10239e-08
6.71907e-10
-3.16624e-08
6.38461e-10
-3.22672e-08
6.04849e-10
-3.28383e-08
5.71119e-10
-3.33756e-08
5.37315e-10
-3.38791e-08
5.03482e-10
-3.43488e-08
4.69662e-10
-3.47847e-08
4.35898e-10
-3.51869e-08
4.02231e-10
-3.55556e-08
3.68698e-10
-3.58909e-08
3.3534e-10
-3.61931e-08
3.02194e-10
-3.64624e-08
2.69298e-10
-3.66991e-08
2.36687e-10
-3.69035e-08
2.04397e-10
-3.7076e-08
1.72464e-10
-3.72169e-08
1.4092e-10
-3.73267e-08
1.09801e-10
-3.74059e-08
7.91355e-11
-3.74548e-08
4.89532e-11
-3.74741e-08
1.92794e-11
-3.74643e-08
-9.85712e-12
-3.74259e-08
-3.84256e-11
-3.73595e-08
-6.64022e-11
-3.72657e-08
-9.37691e-11
-3.71452e-08
-1.20505e-10
-3.69987e-08
-1.46587e-10
-3.68267e-08
-1.71991e-10
-3.663e-08
-1.96696e-10
-3.64093e-08
-2.20683e-10
-3.61654e-08
-2.43934e-10
-3.5899e-08
-2.66432e-10
-3.56109e-08
-2.88165e-10
-3.53018e-08
-3.09118e-10
-3.49725e-08
-3.2928e-10
-3.46239e-08
-3.48643e-10
-3.42568e-08
-3.67197e-10
-3.38719e-08
-3.84936e-10
-3.347e-08
-4.01855e-10
-3.30521e-08
-4.17949e-10
-3.26189e-08
-4.33217e-10
-3.21713e-08
-4.47658e-10
-3.17101e-08
-4.61271e-10
-3.1236e-08
-4.7406e-10
-3.075e-08
-4.86026e-10
-3.02529e-08
-4.97175e-10
-2.97454e-08
-5.07513e-10
-2.92284e-08
-5.17047e-10
-2.87026e-08
-5.25784e-10
-2.81689e-08
-5.33736e-10
-2.76281e-08
-5.40912e-10
-2.70808e-08
-5.47324e-10
-2.65278e-08
-5.52985e-10
-2.597e-08
-5.57909e-10
-2.54079e-08
-5.6211e-10
-2.48423e-08
-5.65604e-10
-2.42739e-08
-5.68407e-10
-2.37034e-08
-5.70537e-10
-2.31315e-08
-5.72011e-10
-2.25587e-08
-5.72847e-10
-2.19856e-08
-5.73064e-10
-2.1413e-08
-5.72682e-10
-2.08413e-08
-5.7172e-10
-2.02711e-08
-5.70197e-10
-1.97031e-08
-5.68134e-10
-1.91375e-08
-5.65552e-10
-1.85751e-08
-5.62469e-10
-1.80162e-08
-5.58908e-10
-1.74614e-08
-5.54888e-10
-1.6911e-08
-5.50429e-10
-1.63655e-08
-5.45551e-10
-1.58253e-08
-5.40273e-10
-1.52907e-08
-5.34616e-10
-1.47621e-08
-5.28597e-10
-1.42399e-08
-5.22235e-10
-1.37244e-08
-5.15549e-10
-1.32159e-08
-5.08554e-10
-1.27147e-08
-5.01269e-10
-1.2221e-08
-4.93708e-10
-1.17352e-08
-4.85888e-10
-1.12574e-08
-4.77822e-10
-1.07879e-08
-4.69525e-10
-1.0327e-08
-4.6101e-10
-9.87472e-09
-4.52288e-10
-9.43139e-09
-4.43373e-10
-8.99716e-09
-4.34273e-10
-8.5722e-09
-4.24999e-10
-8.15668e-09
-4.15561e-10
-7.75076e-09
-4.05966e-10
-7.35458e-09
-3.96222e-10
-6.96829e-09
-3.86336e-10
-6.59201e-09
-3.76315e-10
-6.22589e-09
-3.66164e-10
-5.87005e-09
-3.55888e-10
-5.52459e-09
-3.45493e-10
-5.18965e-09
-3.34983e-10
-4.86533e-09
-3.24361e-10
-4.55174e-09
-3.13632e-10
-4.24898e-09
-3.028e-10
-3.95715e-09
-2.91868e-10
-3.67635e-09
-2.8084e-10
-3.40667e-09
-2.69721e-10
-3.1482e-09
-2.58514e-10
-2.90101e-09
-2.47226e-10
-2.66519e-09
-2.35861e-10
-2.4408e-09
-2.24426e-10
-2.22791e-09
-2.12928e-10
-2.02657e-09
-2.01375e-10
-1.83682e-09
-1.89777e-10
-1.65871e-09
-1.78144e-10
-1.49226e-09
-1.66488e-10
-1.33747e-09
-1.54823e-10
-1.19434e-09
-1.43164e-10
-1.06284e-09
-1.31528e-10
-9.42939e-10
-1.19933e-10
-8.34568e-10
-1.08401e-10
-7.37642e-10
-9.69549e-11
-6.5205e-10
-8.56191e-11
-5.77656e-10
-7.44213e-11
-5.14291e-10
-6.33909e-11
-4.61756e-10
-5.25598e-11
-4.19818e-10
-4.19621e-11
-3.88207e-10
-3.16343e-11
-3.66613e-10
-2.16154e-11
-3.54687e-10
-1.19471e-11
-3.52034e-10
-2.67372e-12
-3.58214e-10
6.16036e-12
-3.7274e-10
1.4507e-11
-3.95071e-10
2.2313e-11
-4.24612e-10
2.95237e-11
-4.60711e-10
3.60822e-11
-5.02656e-10
4.19291e-11
-5.49675e-10
4.70027e-11
-6.00928e-10
5.12386e-11
-6.55512e-10
5.45695e-11
-7.12451e-10
5.69255e-11
-7.70698e-10
5.82338e-11
-8.2913e-10
5.84186e-11
-8.86544e-10
5.74005e-11
-9.41656e-10
5.50972e-11
-9.93094e-10
5.14225e-11
-1.0394e-09
4.62872e-11
-1.07902e-09
3.95988e-11
-1.1103e-09
3.1263e-11
-1.13151e-09
2.11849e-11
-1.14082e-09
9.27342e-12
-1.1363e-09
-4.54868e-12
-1.11601e-09
-2.03297e-11
-1.07797e-09
-3.80826e-11
-1.02028e-09
-5.77483e-11
-9.41222e-10
-7.91246e-11
-8.39535e-10
-1.01763e-10
-7.14842e-10
-1.24782e-10
-5.68408e-10
-1.46538e-10
-4.04471e-10
-1.6406e-10
-2.3253e-10
-1.72084e-10
-7.1081e-11
-1.61618e-10
4.67099e-11
-1.17994e-10
7.34422e-11
-2.69825e-11
7.31755e-11
1.10422e-09
-5.56561e-12
-1.7914e-09
1.74913e-09
-5.83508e-13
-1.73647e-09
2.08401e-09
2.44425e-13
-1.25445e-09
2.17535e-09
2.37881e-13
-6.49404e-10
2.04504e-09
1.22962e-13
-6.32896e-11
1.71591e-09
4.46415e-14
4.52696e-10
1.21332e-09
6.3641e-15
8.85613e-10
5.6279e-10
-8.45121e-15
1.23953e-09
-2.112e-10
-1.19529e-14
1.52439e-09
-1.08603e-09
-1.07049e-14
1.7511e-09
-2.04195e-09
-7.82629e-15
1.92953e-09
-3.06256e-09
-4.84676e-15
2.06803e-09
-4.1339e-09
-2.53076e-15
2.17383e-09
-5.24394e-09
-1.08848e-15
2.25321e-09
-6.38254e-09
-3.32588e-16
2.31084e-09
-7.54118e-09
6.81778e-17
2.35048e-09
-8.71266e-09
3.60362e-16
2.37514e-09
-9.89087e-09
6.28179e-16
2.38722e-09
-1.10706e-08
8.46205e-16
2.38869e-09
-1.22474e-08
9.65678e-16
2.38113e-09
-1.34174e-08
9.70334e-16
2.36585e-09
-1.45772e-08
8.84541e-16
2.34394e-09
-1.5724e-08
7.5267e-16
2.31628e-09
-1.68553e-08
6.1451e-16
2.28363e-09
-1.79687e-08
4.92777e-16
2.2466e-09
-1.90625e-08
3.93595e-16
2.20574e-09
-2.01347e-08
3.12385e-16
2.1615e-09
-2.1184e-08
2.43832e-16
2.11426e-09
-2.22089e-08
1.85715e-16
2.06437e-09
-2.32081e-08
1.41151e-16
2.01211e-09
-2.41807e-08
1.15994e-16
1.95774e-09
-2.51257e-08
1.16181e-16
1.90149e-09
-2.60421e-08
1.44395e-16
1.84355e-09
-2.69292e-08
1.98439e-16
1.78413e-09
-2.77864e-08
2.72623e-16
1.72337e-09
-2.86129e-08
3.583e-16
1.66144e-09
-2.94083e-08
4.45495e-16
1.59846e-09
-3.01721e-08
5.24287e-16
1.53458e-09
-3.09039e-08
5.84865e-16
1.46991e-09
-3.16033e-08
6.18825e-16
1.40456e-09
-3.227e-08
6.19962e-16
1.33865e-09
-3.29038e-08
5.86404e-16
1.27228e-09
-3.35045e-08
5.20998e-16
1.20554e-09
-3.40719e-08
4.31522e-16
1.13854e-09
-3.4606e-08
3.29498e-16
1.07137e-09
-3.51066e-08
2.27744e-16
1.00411e-09
-3.55738e-08
1.38323e-16
9.36849e-10
-3.60076e-08
6.99083e-17
8.69677e-10
-3.6408e-08
2.72708e-17
8.02674e-10
-3.67752e-08
1.03018e-17
7.35918e-10
-3.71094e-08
1.55048e-17
6.69487e-10
-3.74106e-08
3.63746e-17
6.03457e-10
-3.76793e-08
6.61485e-17
5.37903e-10
-3.79155e-08
9.84838e-17
4.72898e-10
-3.81196e-08
1.28353e-16
4.08512e-10
-3.82919e-08
1.5299e-16
3.44814e-10
-3.84329e-08
1.71285e-16
2.81872e-10
-3.85428e-08
1.83292e-16
2.19751e-10
-3.86222e-08
1.89701e-16
1.58514e-10
-3.86715e-08
1.913e-16
9.822e-11
-3.86912e-08
1.88521e-16
3.89268e-11
-3.86817e-08
1.81798e-16
-1.931e-11
-3.86437e-08
1.71118e-16
-7.64383e-11
-3.85777e-08
1.5728e-16
-1.32408e-10
-3.84843e-08
1.40921e-16
-1.87172e-10
-3.83642e-08
1.22788e-16
-2.40685e-10
-3.82179e-08
1.03908e-16
-2.929e-10
-3.80461e-08
8.53677e-17
-3.43775e-10
-3.78496e-08
6.79385e-17
-3.9327e-10
-3.76289e-08
5.20002e-17
-4.41346e-10
-3.73849e-08
3.79862e-17
-4.87969e-10
-3.71182e-08
2.58155e-17
-5.33108e-10
-3.68297e-08
1.5515e-17
-5.76734e-10
-3.652e-08
7.35576e-18
-6.18821e-10
-3.619e-08
8.49976e-19
-6.59348e-10
-3.58403e-08
-4.11082e-18
-6.98295e-10
-3.54719e-08
-7.90609e-18
-7.35645e-10
-3.50855e-08
-1.06443e-17
-7.71385e-10
-3.46819e-08
-1.28132e-17
-8.05503e-10
-3.42619e-08
-1.45214e-17
-8.37993e-10
-3.38263e-08
-1.60398e-17
-8.6885e-10
-3.33759e-08
-1.75582e-17
-8.9807e-10
-3.29115e-08
-1.90766e-17
-9.25656e-10
-3.2434e-08
-2.06221e-17
-9.5161e-10
-3.19441e-08
-2.21948e-17
-9.75938e-10
-3.14427e-08
-2.37403e-17
-9.9865e-10
-3.09304e-08
-2.55297e-17
-1.01976e-09
-3.04082e-08
-2.75089e-17
-1.03927e-09
-2.98768e-08
-2.97049e-17
-1.05721e-09
-2.9337e-08
-3.21449e-17
-1.07359e-09
-2.87895e-08
-3.47475e-17
-1.08844e-09
-2.82351e-08
-3.77295e-17
-1.10177e-09
-2.76745e-08
-4.06573e-17
-1.11361e-09
-2.71085e-08
-4.37207e-17
-1.12399e-09
-2.65377e-08
-4.6784e-17
-1.13293e-09
-2.59628e-08
-4.97389e-17
-1.14047e-09
-2.53846e-08
-5.25041e-17
-1.14664e-09
-2.48037e-08
-5.5188e-17
-1.15147e-09
-2.42208e-08
-5.7655e-17
-1.15499e-09
-2.36364e-08
-5.98238e-17
-1.15724e-09
-2.30513e-08
-6.19385e-17
-1.15826e-09
-2.24659e-08
-6.35652e-17
-1.15808e-09
-2.18809e-08
-6.52462e-17
-1.15674e-09
-2.12969e-08
-6.65476e-17
-1.15428e-09
-2.07143e-08
-6.77407e-17
-1.15074e-09
-2.01337e-08
-6.8744e-17
-1.14615e-09
-1.95557e-08
-6.94491e-17
-1.14056e-09
-1.89806e-08
-6.99917e-17
-1.134e-09
-1.8409e-08
-7.01547e-17
-1.12652e-09
-1.78413e-08
-7.02094e-17
-1.11815e-09
-1.7278e-08
-7.00472e-17
-1.10893e-09
-1.67194e-08
-6.96952e-17
-1.0989e-09
-1.61659e-08
-6.90723e-17
-1.08809e-09
-1.5618e-08
-6.81241e-17
-1.07654e-09
-1.5076e-08
-6.7203e-17
-1.06429e-09
-1.45402e-08
-6.58483e-17
-1.05137e-09
-1.4011e-08
-6.47646e-17
-1.03782e-09
-1.34886e-08
-6.32473e-17
-1.02366e-09
-1.29734e-08
-6.17572e-17
-1.00893e-09
-1.24657e-08
-6.01857e-17
-9.93657e-10
-1.19657e-08
-5.8777e-17
-9.77867e-10
-1.14737e-08
-5.71243e-17
-9.61589e-10
-1.09898e-08
-5.53362e-17
-9.44847e-10
-1.05145e-08
-5.34669e-17
-9.27664e-10
-1.00478e-08
-5.15163e-17
-9.10065e-10
-9.59008e-09
-4.92406e-17
-8.92067e-10
-9.14142e-09
-4.68023e-17
-8.73692e-10
-8.70206e-09
-4.41202e-17
-8.54957e-10
-8.27218e-09
-4.10317e-17
-8.35878e-10
-7.85196e-09
-3.76993e-17
-8.16469e-10
-7.44159e-09
-3.42045e-17
-7.96745e-10
-7.04121e-09
-3.01948e-17
-7.76718e-10
-6.65101e-09
-2.60227e-17
-7.564e-10
-6.27113e-09
-2.14713e-17
-7.358e-10
-5.90173e-09
-1.67846e-17
-7.14928e-10
-5.54295e-09
-1.18541e-17
-6.93793e-10
-5.19493e-09
-6.62578e-18
-6.72404e-10
-4.85783e-09
-1.26219e-18
-6.50768e-10
-4.53176e-09
4.07402e-18
-6.28893e-10
-4.21687e-09
9.78939e-18
-6.06786e-10
-3.91328e-09
1.53689e-17
-5.84457e-10
-3.62112e-09
2.10294e-17
-5.61913e-10
-3.3405e-09
2.67979e-17
-5.39164e-10
-3.07153e-09
3.22679e-17
-5.1622e-10
-2.81433e-09
3.82253e-17
-4.93093e-10
-2.56898e-09
4.41281e-17
-4.69795e-10
-2.33559e-09
5.03014e-17
-4.46342e-10
-2.11424e-09
5.66369e-17
-4.2275e-10
-1.90501e-09
6.30803e-17
-3.99038e-10
-1.70795e-09
6.96857e-17
-3.75228e-10
-1.52312e-09
7.66158e-17
-3.51344e-10
-1.35055e-09
8.38705e-17
-3.27414e-10
-1.19026e-09
9.13414e-17
-3.03469e-10
-1.04227e-09
9.91369e-17
-2.79542e-10
-9.06551e-10
1.07257e-16
-2.55673e-10
-7.83068e-10
1.15647e-16
-2.31904e-10
-6.71762e-10
1.24362e-16
-2.0828e-10
-5.72546e-10
1.33347e-16
-1.84853e-10
-4.85308e-10
1.42765e-16
-1.61677e-10
-4.09902e-10
1.52399e-16
-1.38813e-10
-3.46153e-10
1.61653e-16
-1.16325e-10
-2.93849e-10
1.71231e-16
-9.42818e-11
-2.5274e-10
1.79941e-16
-7.27571e-11
-2.2254e-10
1.88921e-16
-5.18299e-11
-2.02916e-10
1.97574e-16
-3.15844e-11
-1.93494e-10
2.05902e-16
-1.21093e-11
-1.93848e-10
2.14121e-16
6.50236e-12
-2.03505e-10
2.22392e-16
2.41524e-11
-2.21939e-10
2.30879e-16
4.07355e-11
-2.48568e-10
2.38769e-16
5.61415e-11
-2.82752e-10
2.46983e-16
7.02554e-11
-3.2379e-10
2.54816e-16
8.29577e-11
-3.70922e-10
2.63787e-16
9.41244e-11
-4.23318e-10
2.7422e-16
1.03626e-10
-4.80086e-10
2.87472e-16
1.11328e-10
-5.40262e-10
3.04246e-16
1.17093e-10
-6.02811e-10
3.24054e-16
1.20775e-10
-6.66628e-10
3.45326e-16
1.22226e-10
-7.30531e-10
3.6497e-16
1.21293e-10
-7.93262e-10
3.80711e-16
1.17818e-10
-8.53489e-10
3.91301e-16
1.11637e-10
-9.09801e-10
3.98855e-16
1.02586e-10
-9.60713e-10
4.08902e-16
9.04956e-11
-1.00467e-09
4.26321e-16
7.52001e-11
-1.04004e-09
4.53932e-16
5.65382e-11
-1.06516e-09
4.85933e-16
3.43635e-11
-1.07829e-09
5.1468e-16
8.55856e-12
-1.07772e-09
5.34268e-16
-2.09365e-11
-1.06175e-09
5.49089e-16
-5.40976e-11
-1.02878e-09
5.68792e-16
-9.07642e-11
-9.77426e-10
5.96414e-16
-1.30532e-10
-9.06661e-10
6.20358e-16
-1.72595e-10
-8.16047e-10
6.27834e-16
-2.15474e-10
-7.06088e-10
6.25358e-16
-2.56588e-10
-5.78717e-10
6.53926e-16
-2.91538e-10
-4.37939e-10
7.5043e-16
-3.12991e-10
-2.90668e-10
9.27072e-16
-3.09044e-10
-1.47881e-10
1.21861e-15
-2.60974e-10
-3.27335e-11
1.83844e-15
-1.42392e-10
8.36922e-16
4.02594e-11
1.11427e-09
-1.78549e-09
1.75188e-09
-1.7371e-09
2.08418e-09
-1.25553e-09
2.1751e-09
-6.49967e-10
2.0449e-09
-6.34746e-11
1.71591e-09
4.5267e-10
1.21337e-09
8.85631e-10
5.62831e-10
1.23955e-09
-2.11181e-10
1.52441e-09
-1.08603e-09
1.75111e-09
-2.04195e-09
1.92954e-09
-3.06257e-09
2.06804e-09
-4.13392e-09
2.17384e-09
-5.24395e-09
2.25321e-09
-6.38254e-09
2.31084e-09
-7.54118e-09
2.35048e-09
-8.71265e-09
2.37514e-09
-9.89086e-09
2.38723e-09
-1.10706e-08
2.38869e-09
-1.22474e-08
2.38113e-09
-1.34173e-08
2.36585e-09
-1.45772e-08
2.34394e-09
-1.5724e-08
2.31628e-09
-1.68553e-08
2.28362e-09
-1.79687e-08
2.2466e-09
-1.90625e-08
2.20574e-09
-2.01347e-08
2.1615e-09
-2.1184e-08
2.11426e-09
-2.22088e-08
2.06437e-09
-2.32081e-08
2.01211e-09
-2.41807e-08
1.95774e-09
-2.51256e-08
1.90149e-09
-2.60421e-08
1.84356e-09
-2.69292e-08
1.78413e-09
-2.77863e-08
1.72337e-09
-2.86129e-08
1.66144e-09
-2.94083e-08
1.59846e-09
-3.01721e-08
1.53458e-09
-3.09039e-08
1.46991e-09
-3.16033e-08
1.40456e-09
-3.227e-08
1.33865e-09
-3.29038e-08
1.27228e-09
-3.35045e-08
1.20554e-09
-3.40719e-08
1.13854e-09
-3.46059e-08
1.07137e-09
-3.51065e-08
1.00411e-09
-3.55737e-08
9.36848e-10
-3.60075e-08
8.69677e-10
-3.6408e-08
8.02673e-10
-3.67752e-08
7.35917e-10
-3.71093e-08
6.69486e-10
-3.74106e-08
6.03457e-10
-3.76792e-08
5.37903e-10
-3.79154e-08
4.72897e-10
-3.81195e-08
4.08511e-10
-3.82919e-08
3.44813e-10
-3.84328e-08
2.81871e-10
-3.85428e-08
2.19751e-10
-3.86222e-08
1.58513e-10
-3.86715e-08
9.82195e-11
-3.86911e-08
3.89263e-11
-3.86817e-08
-1.93105e-11
-3.86437e-08
-7.64387e-11
-3.85777e-08
-1.32409e-10
-3.84843e-08
-1.87173e-10
-3.83641e-08
-2.40685e-10
-3.82178e-08
-2.92901e-10
-3.80461e-08
-3.43776e-10
-3.78495e-08
-3.9327e-10
-3.76289e-08
-4.41346e-10
-3.73849e-08
-4.8797e-10
-3.71182e-08
-5.33108e-10
-3.68297e-08
-5.76734e-10
-3.652e-08
-6.18822e-10
-3.61899e-08
-6.59349e-10
-3.58403e-08
-6.98295e-10
-3.54719e-08
-7.35645e-10
-3.50855e-08
-7.71385e-10
-3.46818e-08
-8.05504e-10
-3.42618e-08
-8.37994e-10
-3.38262e-08
-8.6885e-10
-3.33758e-08
-8.98071e-10
-3.29115e-08
-9.25656e-10
-3.24339e-08
-9.5161e-10
-3.19441e-08
-9.75938e-10
-3.14426e-08
-9.9865e-10
-3.09304e-08
-1.01976e-09
-3.04082e-08
-1.03927e-09
-2.98768e-08
-1.05721e-09
-2.9337e-08
-1.07359e-09
-2.87895e-08
-1.08844e-09
-2.82351e-08
-1.10177e-09
-2.76745e-08
-1.11361e-09
-2.71084e-08
-1.12399e-09
-2.65376e-08
-1.13293e-09
-2.59628e-08
-1.14047e-09
-2.53846e-08
-1.14664e-09
-2.48037e-08
-1.15147e-09
-2.42208e-08
-1.15499e-09
-2.36364e-08
-1.15724e-09
-2.30512e-08
-1.15826e-09
-2.24659e-08
-1.15808e-09
-2.18809e-08
-1.15674e-09
-2.12968e-08
-1.15428e-09
-2.07143e-08
-1.15074e-09
-2.01337e-08
-1.14615e-09
-1.95556e-08
-1.14056e-09
-1.89806e-08
-1.134e-09
-1.8409e-08
-1.12652e-09
-1.78413e-08
-1.11815e-09
-1.72779e-08
-1.10893e-09
-1.67194e-08
-1.0989e-09
-1.61659e-08
-1.08809e-09
-1.5618e-08
-1.07654e-09
-1.5076e-08
-1.06429e-09
-1.45402e-08
-1.05138e-09
-1.4011e-08
-1.03782e-09
-1.34886e-08
-1.02366e-09
-1.29734e-08
-1.00893e-09
-1.24657e-08
-9.93658e-10
-1.19657e-08
-9.77868e-10
-1.14736e-08
-9.6159e-10
-1.09898e-08
-9.44847e-10
-1.05145e-08
-9.27665e-10
-1.00478e-08
-9.10065e-10
-9.59006e-09
-8.92068e-10
-9.1414e-09
-8.73693e-10
-8.70204e-09
-8.54958e-10
-8.27216e-09
-8.35879e-10
-7.85194e-09
-8.1647e-10
-7.44157e-09
-7.96747e-10
-7.0412e-09
-7.7672e-10
-6.65099e-09
-7.56401e-10
-6.27111e-09
-7.35801e-10
-5.90171e-09
-7.1493e-10
-5.54293e-09
-6.93795e-10
-5.19491e-09
-6.72405e-10
-4.85781e-09
-6.50769e-10
-4.53174e-09
-6.28894e-10
-4.21685e-09
-6.06788e-10
-3.91327e-09
-5.84459e-10
-3.6211e-09
-5.61915e-10
-3.34048e-09
-5.39166e-10
-3.07151e-09
-5.16222e-10
-2.81431e-09
-4.93095e-10
-2.56896e-09
-4.69797e-10
-2.33558e-09
-4.46344e-10
-2.11423e-09
-4.22752e-10
-1.90499e-09
-3.9904e-10
-1.70793e-09
-3.7523e-10
-1.5231e-09
-3.51346e-10
-1.35053e-09
-3.27416e-10
-1.19025e-09
-3.0347e-10
-1.04225e-09
-2.79544e-10
-9.06532e-10
-2.55675e-10
-7.83049e-10
-2.31905e-10
-6.71743e-10
-2.08282e-10
-5.72528e-10
-1.84854e-10
-4.85289e-10
-1.61679e-10
-4.09884e-10
-1.38815e-10
-3.46135e-10
-1.16326e-10
-2.9383e-10
-9.4283e-11
-2.52723e-10
-7.27583e-11
-2.22522e-10
-5.1831e-11
-2.02899e-10
-3.15854e-11
-1.93476e-10
-1.21103e-11
-1.93831e-10
6.50153e-12
-2.03489e-10
2.41517e-11
-2.21923e-10
4.07349e-11
-2.48552e-10
5.61409e-11
-2.82736e-10
7.02549e-11
-3.23776e-10
8.29573e-11
-3.70907e-10
9.41241e-11
-4.23304e-10
1.03626e-10
-4.80073e-10
1.11328e-10
-5.40249e-10
1.17093e-10
-6.02799e-10
1.20775e-10
-6.66617e-10
1.22226e-10
-7.3052e-10
1.21293e-10
-7.93252e-10
1.17818e-10
-8.53479e-10
1.11637e-10
-9.09792e-10
1.02586e-10
-9.60705e-10
9.04956e-11
-1.00466e-09
7.52e-11
-1.04004e-09
5.6538e-11
-1.06515e-09
3.43632e-11
-1.07829e-09
8.55809e-12
-1.07772e-09
-2.09372e-11
-1.06174e-09
-5.40986e-11
-1.02878e-09
-9.07655e-11
-9.77425e-10
-1.30534e-10
-9.0666e-10
-1.72597e-10
-8.16047e-10
-2.15477e-10
-7.06089e-10
-2.56592e-10
-5.78719e-10
-2.91543e-10
-4.37941e-10
-3.12996e-10
-2.9067e-10
-3.0905e-10
-1.47887e-10
-2.60981e-10
-3.27512e-11
-1.424e-10
4.02507e-11
8.98168e-10
-2.91864e-12
-2.70119e-09
1.2303e-09
-5.82655e-13
-2.07069e-09
1.25113e-09
-9.07909e-14
-1.27551e-09
1.08321e-09
1.32269e-14
-4.81568e-10
7.65908e-10
1.67528e-14
2.53964e-10
3.16949e-10
5.3826e-15
9.01629e-10
-2.51131e-10
-2.68091e-15
1.45368e-09
-9.25752e-10
-6.27568e-15
1.91414e-09
-1.69363e-09
-6.89789e-15
2.29227e-09
-2.5415e-09
-5.96002e-15
2.59896e-09
-3.45669e-09
-4.41946e-15
2.84473e-09
-4.4277e-09
-2.89917e-15
3.03904e-09
-5.44407e-09
-1.74711e-15
3.19021e-09
-6.49627e-09
-1.02868e-15
3.30542e-09
-7.57594e-09
-6.18478e-16
3.39051e-09
-8.67573e-09
-3.51309e-16
3.45029e-09
-9.78927e-09
-1.29839e-16
3.48869e-09
-1.0911e-08
6.26298e-17
3.50895e-09
-1.2036e-08
2.05103e-16
3.51373e-09
-1.31601e-08
2.80966e-16
3.50524e-09
-1.42796e-08
2.95193e-16
3.48532e-09
-1.53911e-08
2.68965e-16
3.45548e-09
-1.64918e-08
2.26692e-16
3.41702e-09
-1.75792e-08
1.85353e-16
3.37101e-09
-1.8651e-08
1.51822e-16
3.31837e-09
-1.97051e-08
1.25784e-16
3.25988e-09
-2.07398e-08
1.04965e-16
3.19621e-09
-2.17535e-08
8.81168e-17
3.12794e-09
-2.27447e-08
7.68387e-17
3.05557e-09
-2.37121e-08
7.51965e-17
2.97955e-09
-2.46546e-08
8.77033e-17
2.90025e-09
-2.55712e-08
1.16893e-16
2.81803e-09
-2.64608e-08
1.6133e-16
2.7332e-09
-2.73227e-08
2.15376e-16
2.64602e-09
-2.8156e-08
2.70411e-16
2.55676e-09
-2.89602e-08
3.17802e-16
2.46564e-09
-2.97347e-08
3.5053e-16
2.37288e-09
-3.04788e-08
3.65043e-16
2.27868e-09
-3.11921e-08
3.60664e-16
2.18323e-09
-3.18742e-08
3.39304e-16
2.08669e-09
-3.25248e-08
3.04175e-16
1.98924e-09
-3.31435e-08
2.60087e-16
1.89103e-09
-3.37302e-08
2.12205e-16
1.79222e-09
-3.42846e-08
1.65664e-16
1.69295e-09
-3.48066e-08
1.25236e-16
1.59336e-09
-3.52961e-08
9.4091e-17
1.49359e-09
-3.5753e-08
7.41543e-17
1.39377e-09
-3.61773e-08
6.5561e-17
1.29402e-09
-3.65692e-08
6.70374e-17
1.19448e-09
-3.69285e-08
7.61709e-17
1.09526e-09
-3.72555e-08
9.01428e-17
9.96486e-10
-3.75503e-08
1.0589e-16
8.98266e-10
-3.78131e-08
1.21299e-16
8.00716e-10
-3.80442e-08
1.34715e-16
7.03945e-10
-3.82437e-08
1.45583e-16
6.08061e-10
-3.84121e-08
1.5366e-16
5.13168e-10
-3.85496e-08
1.59175e-16
4.19367e-10
-3.86566e-08
1.62238e-16
3.26756e-10
-3.87335e-08
1.62711e-16
2.35431e-10
-3.87808e-08
1.60529e-16
1.45481e-10
-3.87988e-08
1.55582e-16
5.69935e-11
-3.87882e-08
1.48087e-16
-2.99468e-11
-3.87494e-08
1.38369e-16
-1.1526e-10
-3.86829e-08
1.27107e-16
-1.98867e-10
-3.85894e-08
1.14922e-16
-2.80696e-10
-3.84694e-08
1.02643e-16
-3.60675e-10
-3.83236e-08
9.07846e-17
-4.38738e-10
-3.81526e-08
7.99151e-17
-5.1482e-10
-3.7957e-08
7.01569e-17
-5.88861e-10
-3.77375e-08
6.17269e-17
-6.60806e-10
-3.74949e-08
5.45437e-17
-7.30602e-10
-3.72298e-08
4.86074e-17
-7.98202e-10
-3.6943e-08
4.38502e-17
-8.63564e-10
-3.66352e-08
4.02856e-17
-9.26648e-10
-3.63071e-08
3.76426e-17
-9.87422e-10
-3.59596e-08
3.57856e-17
-1.04585e-09
-3.55933e-08
3.4647e-17
-1.10192e-09
-3.52091e-08
3.38742e-17
-1.1556e-09
-3.48077e-08
3.32777e-17
-1.20688e-09
-3.439e-08
3.2776e-17
-1.25574e-09
-3.39567e-08
3.22066e-17
-1.30218e-09
-3.35086e-08
3.13661e-17
-1.34619e-09
-3.30465e-08
3.02275e-17
-1.38778e-09
-3.25711e-08
2.89398e-17
-1.42694e-09
-3.20834e-08
2.72862e-17
-1.46369e-09
-3.1584e-08
2.53752e-17
-1.49804e-09
-3.10738e-08
2.32201e-17
-1.53001e-09
-3.05534e-08
2.08619e-17
-1.55961e-09
-3.00238e-08
1.83545e-17
-1.58687e-09
-2.94856e-08
1.57252e-17
-1.61181e-09
-2.89396e-08
1.29061e-17
-1.63447e-09
-2.83865e-08
1.02226e-17
-1.65487e-09
-2.7827e-08
7.55263e-18
-1.67306e-09
-2.72619e-08
5.12663e-18
-1.68907e-09
-2.66919e-08
2.91747e-18
-1.70295e-09
-2.61177e-08
8.57406e-19
-1.71473e-09
-2.55399e-08
-8.36734e-19
-1.72446e-09
-2.49592e-08
-2.2056e-18
-1.7322e-09
-2.43762e-08
-3.33052e-18
-1.73798e-09
-2.37916e-08
-4.14372e-18
-1.74187e-09
-2.32059e-08
-4.68586e-18
-1.74392e-09
-2.26199e-08
-4.98405e-18
-1.74417e-09
-2.20339e-08
-5.1196e-18
-1.74268e-09
-2.14487e-08
-5.13318e-18
-1.73952e-09
-2.08647e-08
-4.79438e-18
-1.73473e-09
-2.02825e-08
-4.37426e-18
-1.72838e-09
-1.97026e-08
-3.80506e-18
-1.72051e-09
-1.91254e-08
-2.96481e-18
-1.71119e-09
-1.85514e-08
-1.97548e-18
-1.70048e-09
-1.79812e-08
-6.33787e-19
-1.68843e-09
-1.7415e-08
7.75668e-19
-1.67509e-09
-1.68534e-08
2.45617e-18
-1.66052e-09
-1.62967e-08