/*--------------------------------*- C++ -*----------------------------------*\
  =========                 |
  \\      /  F ield         | OpenFOAM: The Open Source CFD Toolbox
   \\    /   O peration     | Website:  https://openfoam.org
    \\  /    A nd           | Version:  8
     \\/     M anipulation  |
\*---------------------------------------------------------------------------*/
FoamFile
{
    version     2.0;
    format      ascii;
    class       volScalarField;
    location    "4100";
    object      T;
}
// * * * * * * * * * * * * * * * * * * * * * * * * * * * * * * * * * * * * * //

dimensions      [0 0 0 1 0 0 0];

internalField   nonuniform List<scalar> 
46000
(
309.852
308.687
307.889
307.378
307.011
306.721
306.478
306.27
306.086
305.922
305.772
305.633
305.506
305.388
305.278
305.175
305.077
304.985
304.898
304.816
304.738
304.664
304.593
304.526
304.462
304.401
304.343
304.288
304.235
304.185
304.137
304.091
304.048
304.006
303.966
303.929
303.893
303.859
303.826
303.795
303.766
303.738
303.711
303.686
303.663
303.64
303.619
303.599
303.581
303.563
303.547
303.532
303.517
303.504
303.492
303.481
303.471
303.462
303.454
303.446
303.44
303.434
303.429
303.425
303.422
303.42
303.419
303.418
303.418
303.419
303.421
303.424
303.427
303.431
303.436
303.442
303.448
303.455
303.463
303.471
303.481
303.49
303.501
303.512
303.524
303.537
303.55
303.564
303.579
303.594
303.61
303.627
303.644
303.662
303.68
303.699
303.718
303.739
303.759
303.781
303.803
303.825
303.848
303.871
303.895
303.92
303.945
303.971
303.997
304.024
304.051
304.078
304.106
304.135
304.164
304.194
304.224
304.254
304.285
304.317
304.349
304.381
304.414
304.448
304.481
304.516
304.55
304.586
304.621
304.658
304.694
304.732
304.769
304.808
304.846
304.886
304.925
304.966
305.007
305.048
305.09
305.133
305.176
305.219
305.264
305.309
305.354
305.401
305.448
305.495
305.543
305.592
305.642
305.692
305.743
305.795
305.847
305.901
305.955
306.009
306.065
306.121
306.178
306.236
306.295
306.355
306.415
306.476
306.539
306.602
306.666
306.731
306.798
306.865
306.934
307.005
307.077
307.15
307.226
307.303
307.383
307.465
307.55
307.638
307.73
307.827
307.928
308.035
308.149
308.271
308.404
308.55
308.714
308.9
309.118
309.383
309.718
310.169
310.781
311.374
309.852
308.687
307.889
307.378
307.01
306.721
306.478
306.27
306.086
305.922
305.772
305.633
305.506
305.388
305.278
305.175
305.077
304.985
304.898
304.816
304.738
304.664
304.593
304.526
304.462
304.401
304.343
304.288
304.235
304.185
304.137
304.091
304.048
304.006
303.966
303.929
303.893
303.859
303.826
303.795
303.766
303.738
303.712
303.686
303.663
303.64
303.619
303.599
303.581
303.563
303.547
303.532
303.517
303.504
303.492
303.481
303.471
303.462
303.454
303.446
303.44
303.434
303.429
303.425
303.422
303.42
303.419
303.418
303.418
303.419
303.421
303.424
303.427
303.431
303.436
303.442
303.448
303.455
303.463
303.471
303.481
303.49
303.501
303.512
303.524
303.537
303.55
303.564
303.579
303.594
303.61
303.627
303.644
303.662
303.68
303.699
303.719
303.739
303.759
303.781
303.803
303.825
303.848
303.871
303.895
303.92
303.945
303.971
303.997
304.024
304.051
304.078
304.107
304.135
304.164
304.194
304.224
304.254
304.285
304.317
304.349
304.381
304.414
304.448
304.481
304.516
304.55
304.586
304.621
304.658
304.694
304.732
304.769
304.808
304.846
304.886
304.925
304.966
305.007
305.048
305.09
305.133
305.176
305.219
305.264
305.309
305.354
305.401
305.448
305.495
305.543
305.592
305.642
305.692
305.743
305.795
305.847
305.901
305.955
306.009
306.065
306.121
306.178
306.236
306.295
306.355
306.415
306.476
306.539
306.602
306.666
306.731
306.798
306.865
306.935
307.005
307.077
307.15
307.226
307.303
307.383
307.465
307.55
307.638
307.73
307.827
307.928
308.035
308.149
308.271
308.404
308.55
308.714
308.9
309.118
309.383
309.718
310.169
310.781
311.374
306.387
305.988
305.656
305.394
305.182
305.004
304.852
304.716
304.595
304.484
304.381
304.286
304.197
304.114
304.036
303.962
303.891
303.825
303.761
303.701
303.644
303.589
303.537
303.487
303.439
303.393
303.349
303.308
303.268
303.229
303.193
303.158
303.124
303.092
303.061
303.032
303.004
302.977
302.951
302.927
302.903
302.881
302.859
302.839
302.819
302.801
302.783
302.766
302.75
302.735
302.72
302.707
302.694
302.682
302.67
302.659
302.649
302.64
302.631
302.623
302.615
302.608
302.602
302.596
302.59
302.586
302.582
302.578
302.575
302.573
302.571
302.569
302.568
302.568
302.568
302.569
302.57
302.572
302.574
302.577
302.58
302.584
302.588
302.593
302.598
302.603
302.609
302.616
302.623
302.631
302.638
302.647
302.656
302.665
302.675
302.685
302.696
302.707
302.718
302.73
302.743
302.756
302.769
302.783
302.797
302.812
302.827
302.842
302.858
302.875
302.891
302.909
302.926
302.944
302.963
302.982
303.001
303.021
303.042
303.063
303.084
303.106
303.128
303.15
303.174
303.197
303.221
303.246
303.271
303.297
303.323
303.349
303.377
303.404
303.432
303.461
303.49
303.52
303.551
303.582
303.613
303.645
303.678
303.711
303.745
303.78
303.815
303.851
303.887
303.924
303.962
304
304.039
304.079
304.119
304.16
304.201
304.243
304.286
304.33
304.374
304.419
304.464
304.51
304.557
304.605
304.653
304.702
304.751
304.801
304.852
304.904
304.957
305.01
305.064
305.12
305.176
305.234
305.292
305.353
305.414
305.478
305.544
305.611
305.682
305.756
305.834
305.916
306.004
306.098
306.201
306.315
306.443
306.589
306.761
306.968
307.229
307.567
308.025
308.584
306.387
305.987
305.656
305.394
305.182
305.004
304.851
304.716
304.595
304.484
304.381
304.286
304.197
304.114
304.036
303.962
303.891
303.825
303.761
303.701
303.644
303.589
303.537
303.487
303.439
303.393
303.349
303.308
303.268
303.229
303.193
303.158
303.124
303.092
303.061
303.032
303.004
302.977
302.951
302.927
302.903
302.881
302.859
302.839
302.819
302.801
302.783
302.766
302.75
302.735
302.72
302.707
302.694
302.682
302.67
302.659
302.649
302.64
302.631
302.623
302.615
302.608
302.602
302.596
302.591
302.586
302.582
302.578
302.575
302.573
302.571
302.569
302.568
302.568
302.568
302.569
302.57
302.572
302.574
302.577
302.58
302.584
302.588
302.593
302.598
302.603
302.609
302.616
302.623
302.631
302.638
302.647
302.656
302.665
302.675
302.685
302.696
302.707
302.718
302.73
302.743
302.756
302.769
302.783
302.797
302.812
302.827
302.842
302.858
302.875
302.891
302.909
302.926
302.944
302.963
302.982
303.001
303.021
303.042
303.063
303.084
303.106
303.128
303.15
303.174
303.197
303.221
303.246
303.271
303.297
303.323
303.349
303.377
303.404
303.432
303.461
303.49
303.52
303.551
303.582
303.613
303.645
303.678
303.711
303.745
303.78
303.815
303.851
303.887
303.924
303.962
304
304.039
304.079
304.119
304.16
304.201
304.243
304.286
304.33
304.374
304.419
304.464
304.51
304.557
304.605
304.653
304.702
304.751
304.801
304.852
304.904
304.957
305.01
305.064
305.12
305.176
305.234
305.292
305.353
305.414
305.478
305.544
305.611
305.682
305.756
305.834
305.916
306.004
306.098
306.201
306.315
306.443
306.589
306.761
306.968
307.229
307.567
308.025
308.584
304.877
304.794
304.653
304.507
304.371
304.246
304.132
304.027
303.93
303.84
303.756
303.677
303.603
303.532
303.465
303.402
303.341
303.284
303.229
303.176
303.126
303.078
303.032
302.988
302.946
302.906
302.867
302.83
302.794
302.76
302.727
302.696
302.666
302.637
302.609
302.583
302.557
302.533
302.509
302.487
302.465
302.445
302.425
302.406
302.388
302.37
302.354
302.338
302.323
302.308
302.294
302.281
302.269
302.257
302.246
302.235
302.225
302.215
302.206
302.197
302.189
302.182
302.175
302.168
302.162
302.157
302.152
302.147
302.143
302.139
302.136
302.133
302.131
302.129
302.128
302.127
302.127
302.126
302.127
302.128
302.129
302.13
302.133
302.135
302.138
302.141
302.145
302.149
302.154
302.159
302.164
302.17
302.176
302.183
302.19
302.197
302.205
302.214
302.222
302.231
302.241
302.251
302.261
302.272
302.283
302.295
302.307
302.319
302.332
302.346
302.359
302.373
302.388
302.403
302.419
302.435
302.451
302.468
302.485
302.503
302.521
302.539
302.559
302.578
302.598
302.619
302.64
302.661
302.684
302.706
302.729
302.753
302.777
302.802
302.827
302.853
302.879
302.906
302.933
302.962
302.99
303.019
303.049
303.08
303.111
303.142
303.174
303.207
303.241
303.275
303.31
303.345
303.381
303.417
303.455
303.492
303.531
303.57
303.61
303.65
303.691
303.732
303.774
303.817
303.86
303.904
303.949
303.994
304.04
304.086
304.133
304.18
304.229
304.278
304.327
304.378
304.429
304.481
304.535
304.589
304.644
304.701
304.76
304.821
304.883
304.948
305.017
305.088
305.164
305.246
305.333
305.429
305.534
305.653
305.787
305.942
306.123
306.335
306.584
306.85
304.877
304.794
304.653
304.507
304.371
304.246
304.132
304.027
303.93
303.84
303.756
303.677
303.603
303.532
303.465
303.402
303.341
303.284
303.229
303.176
303.126
303.078
303.032
302.988
302.946
302.906
302.867
302.83
302.794
302.76
302.727
302.696
302.666
302.637
302.609
302.583
302.557
302.533
302.509
302.487
302.465
302.445
302.425
302.406
302.388
302.37
302.354
302.338
302.323
302.308
302.294
302.281
302.269
302.257
302.246
302.235
302.225
302.215
302.206
302.197
302.189
302.182
302.175
302.168
302.162
302.157
302.152
302.147
302.143
302.139
302.136
302.133
302.131
302.129
302.128
302.127
302.127
302.126
302.127
302.128
302.129
302.13
302.133
302.135
302.138
302.141
302.145
302.149
302.154
302.159
302.164
302.17
302.176
302.183
302.19
302.197
302.205
302.214
302.222
302.231
302.241
302.251
302.261
302.272
302.283
302.295
302.307
302.319
302.332
302.346
302.359
302.374
302.388
302.403
302.419
302.435
302.451
302.468
302.485
302.503
302.521
302.539
302.559
302.578
302.598
302.619
302.64
302.661
302.684
302.706
302.729
302.753
302.777
302.802
302.827
302.853
302.879
302.906
302.933
302.962
302.99
303.019
303.049
303.08
303.111
303.142
303.174
303.207
303.241
303.275
303.31
303.345
303.381
303.417
303.455
303.492
303.531
303.57
303.61
303.65
303.691
303.732
303.774
303.817
303.86
303.904
303.949
303.994
304.04
304.086
304.133
304.18
304.229
304.278
304.327
304.378
304.429
304.481
304.535
304.589
304.645
304.702
304.76
304.821
304.883
304.948
305.017
305.088
305.164
305.246
305.333
305.429
305.534
305.653
305.787
305.942
306.123
306.335
306.584
306.85
304.089
304.083
304.021
303.937
303.846
303.755
303.668
303.584
303.504
303.429
303.357
303.288
303.223
303.16
303.101
303.044
302.99
302.938
302.888
302.84
302.794
302.75
302.708
302.667
302.628
302.591
302.555
302.521
302.488
302.456
302.425
302.396
302.368
302.34
302.314
302.289
302.265
302.242
302.22
302.199
302.178
302.158
302.14
302.121
302.104
302.087
302.071
302.056
302.041
302.027
302.014
302.001
301.989
301.977
301.966
301.955
301.945
301.935
301.926
301.917
301.909
301.901
301.894
301.887
301.881
301.875
301.869
301.864
301.859
301.855
301.851
301.848
301.845
301.842
301.84
301.838
301.837
301.836
301.835
301.835
301.835
301.836
301.837
301.839
301.84
301.843
301.845
301.848
301.851
301.855
301.859
301.864
301.869
301.874
301.88
301.886
301.893
301.9
301.907
301.915
301.923
301.931
301.94
301.95
301.959
301.97
301.98
301.991
302.002
302.014
302.027
302.039
302.052
302.066
302.08
302.094
302.109
302.124
302.14
302.156
302.173
302.19
302.208
302.226
302.245
302.264
302.283
302.303
302.324
302.345
302.367
302.389
302.412
302.435
302.459
302.483
302.508
302.533
302.56
302.586
302.613
302.641
302.67
302.699
302.728
302.758
302.789
302.82
302.852
302.885
302.918
302.952
302.987
303.022
303.057
303.094
303.13
303.168
303.206
303.245
303.284
303.324
303.364
303.405
303.446
303.488
303.531
303.574
303.617
303.662
303.706
303.752
303.797
303.844
303.891
303.939
303.987
304.036
304.086
304.137
304.189
304.242
304.296
304.352
304.41
304.469
304.531
304.596
304.664
304.736
304.812
304.894
304.982
305.079
305.184
305.299
305.423
305.554
305.685
305.798
304.089
304.083
304.021
303.937
303.846
303.755
303.668
303.584
303.504
303.429
303.357
303.288
303.223
303.16
303.101
303.044
302.99
302.938
302.888
302.84
302.794
302.75
302.708
302.667
302.628
302.591
302.555
302.521
302.488
302.456
302.425
302.396
302.368
302.34
302.314
302.289
302.265
302.242
302.22
302.199
302.178
302.158
302.14
302.121
302.104
302.087
302.071
302.056
302.041
302.027
302.014
302.001
301.989
301.977
301.966
301.955
301.945
301.935
301.926
301.917
301.909
301.901
301.894
301.887
301.881
301.875
301.869
301.864
301.859
301.855
301.851
301.848
301.845
301.842
301.84
301.838
301.837
301.836
301.835
301.835
301.835
301.836
301.837
301.839
301.84
301.843
301.845
301.848
301.852
301.855
301.859
301.864
301.869
301.874
301.88
301.886
301.893
301.9
301.907
301.915
301.923
301.931
301.94
301.95
301.959
301.97
301.98
301.991
302.002
302.014
302.027
302.039
302.052
302.066
302.08
302.094
302.109
302.124
302.14
302.156
302.173
302.19
302.208
302.226
302.245
302.264
302.283
302.303
302.324
302.345
302.367
302.389
302.412
302.435
302.459
302.483
302.508
302.533
302.56
302.586
302.613
302.641
302.67
302.699
302.728
302.758
302.789
302.82
302.852
302.885
302.918
302.952
302.987
303.022
303.057
303.094
303.13
303.168
303.206
303.245
303.284
303.324
303.364
303.405
303.446
303.488
303.531
303.574
303.617
303.662
303.706
303.752
303.797
303.844
303.891
303.939
303.987
304.036
304.086
304.137
304.189
304.242
304.296
304.352
304.41
304.469
304.531
304.596
304.664
304.736
304.812
304.894
304.982
305.079
305.184
305.299
305.423
305.554
305.685
305.798
303.586
303.595
303.566
303.514
303.452
303.385
303.317
303.249
303.183
303.118
303.056
302.996
302.938
302.882
302.828
302.776
302.727
302.679
302.633
302.589
302.546
302.505
302.466
302.428
302.391
302.356
302.322
302.29
302.258
302.228
302.199
302.171
302.145
302.119
302.094
302.07
302.047
302.025
302.003
301.983
301.963
301.944
301.926
301.908
301.891
301.875
301.859
301.844
301.83
301.816
301.803
301.79
301.778
301.766
301.755
301.745
301.735
301.725
301.716
301.707
301.698
301.691
301.683
301.676
301.669
301.663
301.657
301.652
301.647
301.642
301.638
301.634
301.631
301.628
301.625
301.623
301.621
301.619
301.618
301.617
301.617
301.617
301.617
301.618
301.619
301.621
301.622
301.625
301.627
301.63
301.634
301.638
301.642
301.646
301.651
301.656
301.662
301.668
301.675
301.682
301.689
301.696
301.704
301.713
301.722
301.731
301.741
301.751
301.761
301.772
301.783
301.795
301.807
301.82
301.833
301.846
301.86
301.875
301.89
301.905
301.921
301.937
301.954
301.971
301.988
302.007
302.025
302.044
302.064
302.084
302.105
302.126
302.148
302.17
302.193
302.217
302.241
302.265
302.29
302.316
302.342
302.369
302.397
302.425
302.453
302.483
302.512
302.543
302.574
302.606
302.638
302.671
302.704
302.738
302.773
302.808
302.844
302.88
302.917
302.954
302.992
303.031
303.07
303.11
303.15
303.19
303.231
303.273
303.315
303.358
303.401
303.444
303.488
303.533
303.578
303.624
303.67
303.717
303.764
303.812
303.861
303.911
303.962
304.014
304.067
304.122
304.179
304.238
304.299
304.362
304.429
304.499
304.573
304.651
304.734
304.819
304.904
304.986
305.057
305.105
303.586
303.595
303.566
303.514
303.452
303.385
303.317
303.249
303.183
303.118
303.056
302.996
302.938
302.882
302.828
302.776
302.727
302.679
302.633
302.589
302.546
302.505
302.466
302.428
302.391
302.356
302.322
302.29
302.258
302.228
302.199
302.171
302.145
302.119
302.094
302.07
302.047
302.025
302.003
301.983
301.963
301.944
301.926
301.908
301.891
301.875
301.859
301.844
301.83
301.816
301.803
301.79
301.778
301.766
301.755
301.745
301.735
301.725
301.716
301.707
301.698
301.691
301.683
301.676
301.669
301.663
301.657
301.652
301.647
301.642
301.638
301.634
301.631
301.628
301.625
301.623
301.621
301.619
301.618
301.617
301.617
301.617
301.617
301.618
301.619
301.621
301.622
301.625
301.627
301.63
301.634
301.638
301.642
301.646
301.651
301.656
301.662
301.668
301.675
301.682
301.689
301.696
301.704
301.713
301.722
301.731
301.741
301.751
301.761
301.772
301.783
301.795
301.807
301.82
301.833
301.846
301.86
301.875
301.89
301.905
301.921
301.937
301.954
301.971
301.988
302.007
302.025
302.044
302.064
302.084
302.105
302.126
302.148
302.17
302.193
302.217
302.241
302.265
302.29
302.316
302.342
302.369
302.397
302.425
302.453
302.483
302.512
302.543
302.574
302.606
302.638
302.671
302.704
302.738
302.773
302.808
302.844
302.88
302.917
302.954
302.992
303.031
303.07
303.11
303.15
303.19
303.231
303.273
303.315
303.358
303.401
303.444
303.488
303.533
303.578
303.624
303.67
303.717
303.764
303.812
303.861
303.911
303.962
304.014
304.067
304.122
304.179
304.238
304.299
304.362
304.429
304.499
304.573
304.651
304.734
304.819
304.904
304.986
305.057
305.105
303.22
303.23
303.214
303.18
303.136
303.085
303.031
302.976
302.92
302.864
302.81
302.757
302.705
302.655
302.606
302.559
302.513
302.469
302.426
302.385
302.345
302.307
302.269
302.234
302.199
302.166
302.134
302.103
302.073
302.044
302.017
301.99
301.964
301.939
301.915
301.892
301.87
301.848
301.828
301.808
301.789
301.77
301.752
301.735
301.719
301.703
301.688
301.673
301.659
301.645
301.632
301.62
301.608
301.596
301.585
301.574
301.564
301.555
301.545
301.536
301.528
301.52
301.512
301.505
301.498
301.492
301.486
301.48
301.475
301.47
301.466
301.461
301.458
301.454
301.451
301.449
301.446
301.444
301.443
301.442
301.441
301.44
301.44
301.44
301.441
301.442
301.443
301.445
301.447
301.45
301.453
301.456
301.459
301.463
301.468
301.472
301.478
301.483
301.489
301.495
301.502
301.509
301.516
301.524
301.532
301.541
301.55
301.559
301.569
301.579
301.59
301.601
301.612
301.624
301.637
301.65
301.663
301.677
301.691
301.705
301.72
301.736
301.752
301.769
301.786
301.803
301.821
301.84
301.859
301.878
301.898
301.919
301.94
301.961
301.984
302.006
302.03
302.054
302.078
302.103
302.129
302.155
302.182
302.209
302.237
302.265
302.294
302.324
302.354
302.385
302.417
302.449
302.481
302.515
302.548
302.583
302.618
302.653
302.689
302.726
302.763
302.8
302.838
302.877
302.916
302.955
302.995
303.035
303.076
303.118
303.159
303.201
303.244
303.287
303.33
303.374
303.418
303.463
303.508
303.554
303.601
303.648
303.696
303.744
303.794
303.845
303.897
303.95
304.005
304.061
304.12
304.18
304.242
304.305
304.369
304.433
304.493
304.545
304.584
304.605
303.22
303.23
303.214
303.18
303.136
303.085
303.031
302.976
302.92
302.864
302.81
302.757
302.705
302.655
302.606
302.559
302.513
302.469
302.426
302.385
302.345
302.307
302.269
302.234
302.199
302.166
302.134
302.103
302.073
302.044
302.017
301.99
301.964
301.939
301.915
301.892
301.87
301.848
301.828
301.808
301.789
301.77
301.752
301.735
301.719
301.703
301.688
301.673
301.659
301.645
301.632
301.62
301.608
301.596
301.585
301.574
301.564
301.555
301.545
301.536
301.528
301.52
301.512
301.505
301.498
301.492
301.486
301.48
301.475
301.47
301.466
301.461
301.458
301.454
301.451
301.449
301.446
301.444
301.443
301.442
301.441
301.44
301.44
301.44
301.441
301.442
301.443
301.445
301.447
301.45
301.453
301.456
301.459
301.463
301.468
301.472
301.478
301.483
301.489
301.495
301.502
301.509
301.516
301.524
301.532
301.541
301.55
301.559
301.569
301.579
301.59
301.601
301.612
301.624
301.637
301.65
301.663
301.677
301.691
301.705
301.72
301.736
301.752
301.769
301.786
301.803
301.821
301.84
301.859
301.878
301.898
301.919
301.94
301.961
301.984
302.006
302.03
302.054
302.078
302.103
302.129
302.155
302.182
302.209
302.237
302.265
302.294
302.324
302.354
302.385
302.417
302.449
302.481
302.515
302.548
302.583
302.618
302.653
302.689
302.726
302.763
302.8
302.838
302.877
302.916
302.955
302.995
303.035
303.076
303.118
303.159
303.201
303.244
303.287
303.33
303.374
303.418
303.463
303.508
303.554
303.601
303.648
303.696
303.744
303.794
303.845
303.897
303.95
304.005
304.061
304.12
304.18
304.242
304.305
304.369
304.433
304.493
304.545
304.584
304.605
302.931
302.939
302.928
302.904
302.871
302.832
302.788
302.742
302.695
302.647
302.599
302.552
302.505
302.46
302.415
302.372
302.33
302.289
302.249
302.211
302.173
302.137
302.102
302.068
302.035
302.004
301.973
301.944
301.915
301.888
301.861
301.835
301.81
301.786
301.763
301.741
301.719
301.699
301.679
301.659
301.641
301.623
301.605
301.589
301.572
301.557
301.542
301.527
301.513
301.5
301.487
301.475
301.463
301.451
301.44
301.43
301.42
301.41
301.401
301.392
301.383
301.375
301.368
301.36
301.353
301.347
301.34
301.335
301.329
301.324
301.319
301.315
301.311
301.307
301.304
301.301
301.299
301.296
301.294
301.293
301.292
301.291
301.29
301.29
301.291
301.291
301.292
301.294
301.295
301.297
301.3
301.303
301.306
301.309
301.313
301.317
301.322
301.327
301.332
301.338
301.344
301.351
301.358
301.365
301.373
301.381
301.389
301.398
301.408
301.417
301.427
301.438
301.449
301.46
301.472
301.485
301.497
301.51
301.524
301.538
301.553
301.568
301.583
301.599
301.616
301.633
301.65
301.668
301.687
301.706
301.725
301.745
301.766
301.787
301.808
301.831
301.853
301.877
301.901
301.925
301.95
301.976
302.002
302.029
302.056
302.084
302.112
302.141
302.171
302.201
302.232
302.263
302.295
302.328
302.361
302.395
302.429
302.463
302.499
302.534
302.57
302.607
302.644
302.682
302.72
302.758
302.797
302.837
302.876
302.916
302.957
302.998
303.039
303.08
303.122
303.164
303.207
303.25
303.293
303.337
303.381
303.425
303.47
303.516
303.562
303.609
303.657
303.705
303.755
303.805
303.856
303.908
303.96
304.011
304.062
304.109
304.152
304.187
304.21
304.218
302.931
302.939
302.928
302.904
302.871
302.832
302.788
302.742
302.695
302.647
302.599
302.552
302.505
302.46
302.415
302.372
302.33
302.289
302.249
302.211
302.173
302.137
302.102
302.068
302.035
302.004
301.973
301.944
301.915
301.888
301.861
301.835
301.81
301.786
301.763
301.741
301.719
301.699
301.679
301.659
301.641
301.623
301.605
301.589
301.572
301.557
301.542
301.527
301.513
301.5
301.487
301.475
301.463
301.451
301.44
301.43
301.42
301.41
301.401
301.392
301.383
301.375
301.368
301.36
301.353
301.347
301.34
301.335
301.329
301.324
301.319
301.315
301.311
301.307
301.304
301.301
301.299
301.296
301.294
301.293
301.292
301.291
301.29
301.29
301.291
301.291
301.292
301.294
301.295
301.297
301.3
301.303
301.306
301.309
301.313
301.317
301.322
301.327
301.332
301.338
301.344
301.351
301.358
301.365
301.373
301.381
301.389
301.398
301.408
301.417
301.427
301.438
301.449
301.46
301.472
301.485
301.497
301.51
301.524
301.538
301.553
301.568
301.583
301.599
301.616
301.633
301.65
301.668
301.687
301.706
301.725
301.745
301.766
301.787
301.808
301.831
301.853
301.877
301.901
301.925
301.95
301.976
302.002
302.029
302.056
302.084
302.112
302.141
302.171
302.201
302.232
302.263
302.295
302.328
302.361
302.395
302.429
302.463
302.499
302.534
302.57
302.607
302.644
302.682
302.72
302.758
302.797
302.837
302.876
302.916
302.957
302.998
303.039
303.08
303.122
303.164
303.207
303.25
303.293
303.337
303.381
303.425
303.47
303.516
303.562
303.609
303.657
303.705
303.755
303.805
303.856
303.908
303.96
304.011
304.062
304.109
304.152
304.187
304.21
304.218
302.692
302.697
302.688
302.67
302.644
302.612
302.576
302.538
302.497
302.455
302.413
302.371
302.329
302.288
302.247
302.207
302.168
302.13
302.093
302.057
302.022
301.988
301.954
301.922
301.891
301.861
301.832
301.803
301.776
301.75
301.724
301.699
301.675
301.652
301.63
301.608
301.587
301.567
301.547
301.529
301.51
301.493
301.476
301.46
301.444
301.428
301.414
301.399
301.386
301.373
301.36
301.348
301.336
301.324
301.313
301.303
301.293
301.283
301.274
301.265
301.256
301.248
301.24
301.233
301.226
301.219
301.213
301.207
301.201
301.196
301.191
301.187
301.183
301.179
301.175
301.172
301.169
301.167
301.165
301.163
301.161
301.16
301.16
301.159
301.159
301.159
301.16
301.161
301.162
301.164
301.166
301.169
301.171
301.175
301.178
301.182
301.186
301.191
301.196
301.201
301.207
301.213
301.22
301.226
301.234
301.241
301.25
301.258
301.267
301.276
301.286
301.296
301.307
301.318
301.329
301.341
301.353
301.366
301.379
301.393
301.407
301.422
301.437
301.452
301.468
301.485
301.502
301.519
301.537
301.556
301.575
301.594
301.615
301.635
301.656
301.678
301.7
301.723
301.747
301.771
301.795
301.82
301.846
301.872
301.899
301.926
301.954
301.983
302.012
302.042
302.072
302.103
302.134
302.166
302.198
302.231
302.265
302.299
302.333
302.368
302.404
302.439
302.476
302.513
302.55
302.587
302.625
302.664
302.702
302.741
302.78
302.82
302.86
302.9
302.94
302.981
303.022
303.063
303.105
303.146
303.188
303.231
303.273
303.316
303.359
303.403
303.446
303.49
303.535
303.58
303.624
303.669
303.712
303.755
303.795
303.831
303.863
303.886
303.9
303.902
302.692
302.697
302.688
302.67
302.644
302.612
302.576
302.538
302.497
302.455
302.413
302.371
302.329
302.288
302.247
302.207
302.168
302.13
302.093
302.057
302.022
301.988
301.954
301.922
301.891
301.861
301.832
301.803
301.776
301.75
301.724
301.699
301.675
301.652
301.63
301.608
301.587
301.567
301.547
301.529
301.51
301.493
301.476
301.46
301.444
301.428
301.414
301.399
301.386
301.373
301.36
301.348
301.336
301.324
301.313
301.303
301.293
301.283
301.274
301.265
301.256
301.248
301.24
301.233
301.226
301.219
301.213
301.207
301.201
301.196
301.191
301.187
301.183
301.179
301.175
301.172
301.169
301.167
301.165
301.163
301.161
301.16
301.16
301.159
301.159
301.159
301.16
301.161
301.162
301.164
301.166
301.169
301.171
301.175
301.178
301.182
301.186
301.191
301.196
301.201
301.207
301.213
301.22
301.226
301.234
301.241
301.25
301.258
301.267
301.276
301.286
301.296
301.307
301.318
301.329
301.341
301.353
301.366
301.379
301.393
301.407
301.422
301.437
301.452
301.468
301.485
301.502
301.519
301.537
301.556
301.575
301.594
301.615
301.635
301.656
301.678
301.7
301.723
301.747
301.771
301.795
301.82
301.846
301.872
301.899
301.926
301.954
301.983
302.012
302.042
302.072
302.103
302.134
302.166
302.198
302.231
302.265
302.299
302.333
302.368
302.404
302.439
302.476
302.513
302.55
302.587
302.625
302.664
302.702
302.741
302.78
302.82
302.86
302.9
302.94
302.981
303.022
303.063
303.105
303.146
303.188
303.231
303.273
303.316
303.359
303.403
303.446
303.49
303.535
303.58
303.624
303.669
303.712
303.755
303.795
303.831
303.863
303.886
303.9
303.902
302.486
302.488
302.481
302.466
302.445
302.418
302.388
302.355
302.32
302.283
302.246
302.208
302.17
302.132
302.095
302.058
302.022
301.986
301.952
301.918
301.885
301.852
301.821
301.791
301.761
301.732
301.704
301.677
301.651
301.625
301.601
301.577
301.553
301.531
301.509
301.488
301.468
301.448
301.429
301.411
301.393
301.376
301.359
301.343
301.328
301.313
301.298
301.284
301.271
301.258
301.245
301.233
301.221
301.21
301.199
301.189
301.179
301.169
301.16
301.151
301.142
301.134
301.126
301.119
301.112
301.105
301.099
301.092
301.087
301.081
301.076
301.072
301.067
301.063
301.06
301.056
301.053
301.05
301.048
301.046
301.044
301.043
301.042
301.042
301.041
301.041
301.042
301.042
301.043
301.045
301.047
301.049
301.051
301.054
301.057
301.061
301.065
301.069
301.074
301.079
301.084
301.09
301.096
301.103
301.11
301.117
301.125
301.133
301.141
301.15
301.16
301.17
301.18
301.19
301.201
301.213
301.225
301.237
301.25
301.263
301.277
301.291
301.306
301.321
301.337
301.353
301.369
301.387
301.404
301.422
301.441
301.46
301.48
301.5
301.521
301.542
301.564
301.587
301.61
301.633
301.657
301.682
301.707
301.733
301.759
301.786
301.813
301.842
301.87
301.899
301.929
301.959
301.99
302.021
302.053
302.086
302.118
302.152
302.186
302.22
302.255
302.29
302.325
302.361
302.398
302.434
302.471
302.509
302.547
302.584
302.623
302.661
302.7
302.739
302.778
302.817
302.856
302.896
302.936
302.976
303.015
303.055
303.096
303.136
303.176
303.216
303.257
303.297
303.337
303.377
303.416
303.454
303.491
303.527
303.559
303.588
303.611
303.628
303.636
303.634
302.486
302.488
302.481
302.466
302.445
302.418
302.388
302.355
302.32
302.283
302.246
302.208
302.17
302.132
302.095
302.058
302.022
301.986
301.952
301.918
301.885
301.852
301.821
301.791
301.761
301.732
301.704
301.677
301.651
301.625
301.601
301.577
301.553
301.531
301.509
301.488
301.468
301.448
301.429
301.411
301.393
301.376
301.359
301.343
301.328
301.313
301.298
301.284
301.271
301.258
301.245
301.233
301.221
301.21
301.199
301.189
301.179
301.169
301.16
301.151
301.142
301.134
301.126
301.119
301.112
301.105
301.099
301.092
301.087
301.081
301.076
301.072
301.067
301.063
301.06
301.056
301.053
301.05
301.048
301.046
301.044
301.043
301.042
301.042
301.041
301.041
301.042
301.042
301.043
301.045
301.047
301.049
301.051
301.054
301.057
301.061
301.065
301.069
301.074
301.079
301.084
301.09
301.096
301.103
301.11
301.117
301.125
301.133
301.141
301.15
301.16
301.17
301.18
301.19
301.201
301.213
301.225
301.237
301.25
301.263
301.277
301.291
301.306
301.321
301.337
301.353
301.369
301.387
301.404
301.422
301.441
301.46
301.48
301.5
301.521
301.542
301.564
301.587
301.61
301.633
301.657
301.682
301.707
301.733
301.759
301.786
301.813
301.842
301.87
301.899
301.929
301.959
301.99
302.021
302.053
302.086
302.118
302.152
302.186
302.22
302.255
302.29
302.325
302.361
302.398
302.434
302.471
302.509
302.547
302.584
302.623
302.661
302.7
302.739
302.778
302.817
302.856
302.896
302.936
302.976
303.015
303.055
303.096
303.136
303.176
303.216
303.257
303.297
303.337
303.377
303.416
303.454
303.491
303.527
303.559
303.588
303.611
303.628
303.636
303.634
302.305
302.305
302.299
302.286
302.267
302.245
302.219
302.19
302.159
302.126
302.093
302.059
302.024
301.99
301.955
301.921
301.888
301.855
301.822
301.79
301.759
301.728
301.699
301.669
301.641
301.614
301.587
301.561
301.536
301.511
301.487
301.464
301.442
301.42
301.399
301.379
301.359
301.34
301.321
301.303
301.286
301.269
301.253
301.237
301.222
301.207
301.193
301.179
301.166
301.153
301.14
301.128
301.117
301.106
301.095
301.084
301.074
301.065
301.055
301.047
301.038
301.03
301.022
301.014
301.007
301
300.994
300.988
300.982
300.976
300.971
300.966
300.962
300.958
300.954
300.95
300.947
300.944
300.942
300.94
300.938
300.936
300.935
300.934
300.934
300.933
300.934
300.934
300.935
300.936
300.938
300.94
300.942
300.944
300.947
300.951
300.954
300.958
300.963
300.967
300.972
300.978
300.984
300.99
300.997
301.004
301.011
301.019
301.027
301.036
301.045
301.054
301.064
301.074
301.085
301.096
301.108