/*--------------------------------*- C++ -*----------------------------------*\
  =========                 |
  \\      /  F ield         | OpenFOAM: The Open Source CFD Toolbox
   \\    /   O peration     | Website:  https://openfoam.org
    \\  /    A nd           | Version:  8
     \\/     M anipulation  |
\*---------------------------------------------------------------------------*/
FoamFile
{
    version     2.0;
    format      ascii;
    class       volVectorField;
    location    "4100";
    object      U;
}
// * * * * * * * * * * * * * * * * * * * * * * * * * * * * * * * * * * * * * //

dimensions      [0 1 -1 0 0 0 0];

internalField   nonuniform List<vector> 
46000
(
(0.00201311 2.41458e-06 -0.00205422)
(0.00987738 7.70938e-05 -0.00581524)
(0.0180431 6.14028e-05 -0.00549947)
(0.0238795 2.98726e-05 -0.00346318)
(0.0267029 1.04544e-05 -0.00132151)
(0.0268553 2.16913e-06 0.000531375)
(0.024772 -4.56496e-07 0.00202321)
(0.0209123 -9.24325e-07 0.00318345)
(0.0156555 -7.64927e-07 0.00407261)
(0.00930973 -5.12669e-07 0.00475114)
(0.00212356 -3.04695e-07 0.0052625)
(-0.00572325 -1.5421e-07 0.00563146)
(-0.0140358 -5.40183e-08 0.00588803)
(-0.0227133 4.45811e-09 0.00606512)
(-0.0316485 3.18515e-08 0.00617985)
(-0.0407627 4.09778e-08 0.00624487)
(-0.0499903 4.32088e-08 0.00626991)
(-0.0592774 4.49666e-08 0.00626256)
(-0.068579 4.75906e-08 0.00622878)
(-0.0778573 4.96048e-08 0.00617328)
(-0.0870807 4.93359e-08 0.00609983)
(-0.096222 4.62331e-08 0.00601145)
(-0.105258 4.09656e-08 0.00591061)
(-0.114169 3.47059e-08 0.0057993)
(-0.122937 2.846e-08 0.00567918)
(-0.131547 2.27709e-08 0.0055516)
(-0.139987 1.77642e-08 0.0054177)
(-0.148243 1.33667e-08 0.00527844)
(-0.156307 9.48481e-09 0.00513462)
(-0.164169 6.14313e-09 0.00498693)
(-0.17182 3.4113e-09 0.00483594)
(-0.179254 1.44555e-09 0.00468217)
(-0.186464 3.52081e-10 0.00452605)
(-0.193445 1.89645e-10 0.00436798)
(-0.200191 9.39569e-10 0.00420829)
(-0.206698 2.5183e-09 0.00404728)
(-0.212963 4.76914e-09 0.00388523)
(-0.21898 7.4489e-09 0.00372238)
(-0.224749 1.02546e-08 0.00355896)
(-0.230266 1.28386e-08 0.00339518)
(-0.235528 1.48581e-08 0.00323122)
(-0.240535 1.60496e-08 0.00306727)
(-0.245285 1.62446e-08 0.0029035)
(-0.249777 1.54133e-08 0.00274006)
(-0.25401 1.36624e-08 0.00257711)
(-0.257985 1.12282e-08 0.0024148)
(-0.2617 8.43524e-09 0.00225326)
(-0.265156 5.62681e-09 0.00209263)
(-0.268355 3.11388e-09 0.00193304)
(-0.271296 1.12918e-09 0.00177463)
(-0.273982 -2.0105e-10 0.00161751)
(-0.276413 -8.66105e-10 0.00146182)
(-0.278591 -9.43394e-10 0.00130766)
(-0.280519 -5.66824e-10 0.00115517)
(-0.282199 1.05626e-10 0.00100444)
(-0.283633 9.21823e-10 0.000855607)
(-0.284825 1.77039e-09 0.000708771)
(-0.285778 2.56821e-09 0.000564033)
(-0.286494 3.28039e-09 0.00042147)
(-0.286977 3.88367e-09 0.000281113)
(-0.287232 4.38222e-09 0.000142951)
(-0.287263 4.77855e-09 7.13295e-06)
(-0.287073 5.07183e-09 -0.000125919)
(-0.286666 5.26206e-09 -0.000256021)
(-0.286049 5.34759e-09 -0.000383293)
(-0.285224 5.34421e-09 -0.000507736)
(-0.284199 5.26024e-09 -0.000629288)
(-0.282976 5.11728e-09 -0.000747865)
(-0.281562 4.93611e-09 -0.000863385)
(-0.279962 4.73167e-09 -0.00097577)
(-0.278182 4.53307e-09 -0.00108495)
(-0.276227 4.33863e-09 -0.00119086)
(-0.274103 4.16912e-09 -0.00129345)
(-0.271816 4.0312e-09 -0.00139265)
(-0.269372 3.92155e-09 -0.00148842)
(-0.266777 3.83184e-09 -0.00158072)
(-0.264037 3.75627e-09 -0.0016695)
(-0.261158 3.69234e-09 -0.00175474)
(-0.258148 3.62841e-09 -0.00183641)
(-0.255011 3.57363e-09 -0.00191447)
(-0.251754 3.51969e-09 -0.00198892)
(-0.248383 3.47656e-09 -0.00205974)
(-0.244906 3.45255e-09 -0.00212692)
(-0.241327 3.45265e-09 -0.00219046)
(-0.237654 3.48102e-09 -0.00225036)
(-0.233893 3.54432e-09 -0.00230663)
(-0.230049 3.62592e-09 -0.00235928)
(-0.226129 3.72332e-09 -0.00240832)
(-0.222139 3.83987e-09 -0.00245379)
(-0.218086 3.95727e-09 -0.0024957)
(-0.213974 4.07801e-09 -0.00253409)
(-0.209811 4.19129e-09 -0.002569)
(-0.205601 4.30625e-09 -0.00260047)
(-0.20135 4.40793e-09 -0.00262854)
(-0.197065 4.51045e-09 -0.00265327)
(-0.192749 4.60468e-09 -0.0026747)
(-0.18841 4.69477e-09 -0.0026929)
(-0.184051 4.78072e-09 -0.00270793)
(-0.179679 4.86003e-09 -0.00271985)
(-0.175297 4.9402e-09 -0.00272874)
(-0.170911 5.01539e-09 -0.00273466)
(-0.166525 5.09143e-09 -0.00273768)
(-0.162145 5.15917e-09 -0.00273789)
(-0.157773 5.22527e-09 -0.00273537)
(-0.153415 5.28888e-09 -0.00273018)
(-0.149075 5.34836e-09 -0.00272242)
(-0.144755 5.41118e-09 -0.00271216)
(-0.140461 5.46486e-09 -0.0026995)
(-0.136196 5.52022e-09 -0.00268451)
(-0.131963 5.57228e-09 -0.00266728)
(-0.127765 5.62102e-09 -0.0026479)
(-0.123606 5.66977e-09 -0.00262644)
(-0.119488 5.72188e-09 -0.00260299)
(-0.115414 5.76733e-09 -0.00257764)
(-0.111388 5.80115e-09 -0.00255046)
(-0.107411 5.83498e-09 -0.00252154)
(-0.103486 5.85049e-09 -0.00249095)
(-0.0996156 5.86769e-09 -0.00245876)
(-0.0958016 5.85823e-09 -0.00242505)
(-0.0920462 5.83211e-09 -0.00238989)
(-0.0883513 5.80267e-09 -0.00235335)
(-0.0847187 5.74655e-09 -0.00231549)
(-0.0811501 5.67376e-09 -0.00227637)
(-0.0776472 5.58262e-09 -0.00223605)
(-0.0742115 5.4748e-09 -0.00219458)
(-0.0708446 5.35029e-09 -0.00215202)
(-0.0675477 5.19907e-09 -0.00210842)
(-0.0643222 5.03948e-09 -0.00206382)
(-0.0611693 4.85818e-09 -0.00201825)
(-0.0580902 4.67351e-09 -0.00197177)
(-0.055086 4.46378e-09 -0.0019244)
(-0.0521579 4.24899e-09 -0.00187618)
(-0.0493068 4.01748e-09 -0.00182714)
(-0.0465338 3.77422e-09 -0.0017773)
(-0.0438397 3.5209e-09 -0.0017267)
(-0.0412256 3.2575e-09 -0.00167535)
(-0.0386923 2.97735e-09 -0.00162328)
(-0.0362406 2.69044e-09 -0.00157051)
(-0.0338714 2.38343e-09 -0.00151707)
(-0.0315855 2.07132e-09 -0.00146297)
(-0.0293837 1.75412e-09 -0.00140824)
(-0.0272667 1.40676e-09 -0.0013529)
(-0.0252352 1.0426e-09 -0.00129698)
(-0.0232899 6.74989e-10 -0.00124052)
(-0.0214314 2.90561e-10 -0.00118353)
(-0.0196604 -1.17381e-10 -0.00112607)
(-0.0179773 -5.27118e-10 -0.00106816)
(-0.0163827 -9.43669e-10 -0.00100986)
(-0.0148769 -1.37373e-09 -0.000951229)
(-0.0134604 -1.81396e-09 -0.000892315)
(-0.0121333 -2.26605e-09 -0.00083319)
(-0.0108958 -2.7049e-09 -0.000773931)
(-0.00974801 -3.13386e-09 -0.000714623)
(-0.0086898 -3.56967e-09 -0.00065536)
(-0.00772098 -3.98555e-09 -0.000596248)
(-0.00684117 -4.39489e-09 -0.000537403)
(-0.00604985 -4.80103e-09 -0.000478951)
(-0.0053463 -5.17384e-09 -0.000421031)
(-0.00472961 -5.51999e-09 -0.000363793)
(-0.00419863 -5.83279e-09 -0.000307401)
(-0.00375199 -6.13232e-09 -0.000252029)
(-0.00338807 -6.41858e-09 -0.000197863)
(-0.00310496 -6.68821e-09 -0.000145103)
(-0.00290047 -6.94455e-09 -9.39595e-05)
(-0.00277209 -7.17085e-09 -4.46604e-05)
(-0.00271701 -7.3872e-09 2.55439e-06)
(-0.002732 -7.55678e-09 4.74492e-05)
(-0.00281355 -7.69954e-09 8.97698e-05)
(-0.00295773 -7.8189e-09 0.000129228)
(-0.00316017 -7.9115e-09 0.000165532)
(-0.0034161 -8.01425e-09 0.000198381)
(-0.00372027 -8.09693e-09 0.000227463)
(-0.00406697 -8.20991e-09 0.000252454)
(-0.00445 -8.28604e-09 0.000273021)
(-0.00486263 -8.2816e-09 0.000288815)
(-0.00529762 -8.07558e-09 0.000299477)
(-0.00574715 -7.62749e-09 0.000304638)
(-0.00620283 -6.90355e-09 0.000303912)
(-0.00665566 -5.92037e-09 0.000296903)
(-0.00709601 -4.81568e-09 0.000283199)
(-0.0075136 -3.66675e-09 0.000262373)
(-0.00789743 -2.53409e-09 0.000233986)
(-0.00823582 -1.34363e-09 0.000197587)
(-0.00851632 1.60612e-10 0.000152718)
(-0.00872574 2.18104e-09 9.89275e-05)
(-0.00885015 4.81251e-09 3.57823e-05)
(-0.00887492 7.96828e-09 -3.70612e-05)
(-0.00878485 1.13755e-08 -0.000119757)
(-0.00856453 1.49878e-08 -0.000212264)
(-0.00819856 1.8954e-08 -0.000314147)
(-0.0076724 2.35114e-08 -0.000424133)
(-0.00697376 2.8729e-08 -0.000539521)
(-0.00609509 3.42439e-08 -0.000655098)
(-0.00503792 3.97406e-08 -0.000761211)
(-0.00382043 4.55937e-08 -0.000840418)
(-0.00249107 5.26072e-08 -0.000861792)
(-0.00114957 6.0819e-08 -0.000772583)
(1.40729e-05 6.86734e-08 -0.000488447)
(0.000697331 8.01988e-08 3.46179e-05)
(0.000384881 5.60059e-08 0.000413182)
(0.00210562 2.41319e-06 -0.00214351)
(0.00994609 7.70255e-05 -0.00589288)
(0.0180216 6.13875e-05 -0.00553831)
(0.0238433 2.98713e-05 -0.00347703)
(0.0266824 1.04544e-05 -0.00132477)
(0.0268491 2.16911e-06 0.000531373)
(0.0247725 -4.56493e-07 0.00202379)
(0.0209144 -9.24317e-07 0.00318392)
(0.0156572 -7.64922e-07 0.0040729)
(0.00931065 -5.12666e-07 0.00475133)
(0.00212392 -3.04693e-07 0.00526265)
(-0.00572321 -1.54209e-07 0.0056316)
(-0.0140359 -5.40181e-08 0.00588816)
(-0.0227135 4.45809e-09 0.00606524)
(-0.0316486 3.18514e-08 0.00617996)
(-0.0407628 4.09777e-08 0.00624497)
(-0.0499904 4.32086e-08 0.00627002)
(-0.0592775 4.49664e-08 0.00626266)
(-0.068579 4.75905e-08 0.00622887)
(-0.0778573 4.96046e-08 0.00617337)
(-0.0870807 4.93357e-08 0.0060999)
(-0.0962219 4.6233e-08 0.00601152)
(-0.105258 4.09654e-08 0.00591066)
(-0.114169 3.47058e-08 0.00579934)
(-0.122937 2.84599e-08 0.00567921)
(-0.131547 2.27709e-08 0.00555163)
(-0.139987 1.77641e-08 0.00541773)
(-0.148243 1.33667e-08 0.00527846)
(-0.156307 9.48478e-09 0.00513464)
(-0.164168 6.14311e-09 0.00498695)
(-0.17182 3.41129e-09 0.00483596)
(-0.179254 1.44554e-09 0.00468219)
(-0.186464 3.52081e-10 0.00452608)
(-0.193445 1.89645e-10 0.00436801)
(-0.200191 9.39566e-10 0.00420832)
(-0.206698 2.5183e-09 0.00404731)
(-0.212962 4.76913e-09 0.00388526)
(-0.21898 7.44888e-09 0.00372241)
(-0.224749 1.02546e-08 0.00355899)
(-0.230265 1.28385e-08 0.0033952)
(-0.235528 1.4858e-08 0.00323124)
(-0.240535 1.60496e-08 0.00306729)
(-0.245285 1.62446e-08 0.00290351)
(-0.249777 1.54133e-08 0.00274006)
(-0.25401 1.36624e-08 0.00257711)
(-0.257984 1.12282e-08 0.00241479)
(-0.261699 8.43522e-09 0.00225324)
(-0.265156 5.6268e-09 0.00209261)
(-0.268354 3.11388e-09 0.00193303)
(-0.271296 1.12918e-09 0.00177461)
(-0.273981 -2.0105e-10 0.0016175)
(-0.276412 -8.66103e-10 0.0014618)
(-0.278591 -9.43393e-10 0.00130764)
(-0.280519 -5.66823e-10 0.00115514)
(-0.282199 1.05626e-10 0.00100442)
(-0.283633 9.21822e-10 0.000855585)
(-0.284825 1.77038e-09 0.000708748)
(-0.285777 2.5682e-09 0.000564009)
(-0.286493 3.28038e-09 0.000421445)
(-0.286977 3.88366e-09 0.000281088)
(-0.287232 4.38222e-09 0.000142926)
(-0.287262 4.77854e-09 7.10671e-06)
(-0.287072 5.07182e-09 -0.000125946)
(-0.286666 5.26205e-09 -0.000256049)
(-0.286048 5.34758e-09 -0.000383322)
(-0.285224 5.34421e-09 -0.000507767)
(-0.284198 5.26023e-09 -0.00062932)
(-0.282976 5.11727e-09 -0.000747898)
(-0.281562 4.9361e-09 -0.000863419)
(-0.279962 4.73167e-09 -0.000975805)
(-0.278181 4.53306e-09 -0.00108499)
(-0.276226 4.33862e-09 -0.0011909)
(-0.274102 4.16912e-09 -0.00129348)
(-0.271815 4.0312e-09 -0.00139269)
(-0.269371 3.92154e-09 -0.00148846)
(-0.266776 3.83184e-09 -0.00158076)
(-0.264037 3.75626e-09 -0.00166954)
(-0.261158 3.69233e-09 -0.00175478)
(-0.258147 3.62841e-09 -0.00183645)
(-0.25501 3.57363e-09 -0.00191452)
(-0.251753 3.51968e-09 -0.00198897)
(-0.248383 3.47655e-09 -0.00205979)
(-0.244906 3.45254e-09 -0.00212697)
(-0.241327 3.45264e-09 -0.00219051)
(-0.237654 3.48101e-09 -0.00225041)
(-0.233892 3.54431e-09 -0.00230667)
(-0.230049 3.62591e-09 -0.00235932)
(-0.226129 3.72332e-09 -0.00240837)
(-0.222139 3.83987e-09 -0.00245383)
(-0.218086 3.95726e-09 -0.00249575)
(-0.213974 4.07801e-09 -0.00253414)
(-0.20981 4.19128e-09 -0.00256905)
(-0.2056 4.30624e-09 -0.00260052)
(-0.20135 4.40792e-09 -0.00262859)
(-0.197064 4.51044e-09 -0.00265331)
(-0.192749 4.60467e-09 -0.00267475)
(-0.18841 4.69476e-09 -0.00269295)
(-0.184051 4.78071e-09 -0.00270798)
(-0.179678 4.86003e-09 -0.0027199)
(-0.175297 4.94019e-09 -0.00272879)
(-0.170911 5.01538e-09 -0.00273471)
(-0.166525 5.09142e-09 -0.00273774)
(-0.162145 5.15916e-09 -0.00273795)
(-0.157773 5.22526e-09 -0.00273542)
(-0.153415 5.28888e-09 -0.00273023)
(-0.149074 5.34835e-09 -0.00272247)
(-0.144755 5.41117e-09 -0.00271222)
(-0.140461 5.46485e-09 -0.00269955)
(-0.136196 5.52022e-09 -0.00268457)
(-0.131963 5.57227e-09 -0.00266734)
(-0.127765 5.62101e-09 -0.00264795)
(-0.123605 5.66976e-09 -0.0026265)
(-0.119487 5.72187e-09 -0.00260305)
(-0.115414 5.76733e-09 -0.0025777)
(-0.111388 5.80114e-09 -0.00255052)
(-0.107411 5.83497e-09 -0.0025216)
(-0.103486 5.85049e-09 -0.00249101)
(-0.0996154 5.86768e-09 -0.00245882)
(-0.0958015 5.85822e-09 -0.00242511)
(-0.092046 5.83211e-09 -0.00238996)
(-0.0883511 5.80266e-09 -0.00235341)
(-0.0847185 5.74654e-09 -0.00231555)
(-0.0811499 5.67375e-09 -0.00227643)
(-0.077647 5.58262e-09 -0.00223611)
(-0.0742114 5.47479e-09 -0.00219465)
(-0.0708444 5.35028e-09 -0.00215209)
(-0.0675475 5.19906e-09 -0.00210849)
(-0.064322 5.03947e-09 -0.00206389)
(-0.0611691 4.85818e-09 -0.00201833)
(-0.05809 4.67351e-09 -0.00197184)
(-0.0550859 4.46377e-09 -0.00192448)
(-0.0521577 4.24899e-09 -0.00187626)
(-0.0493067 4.01747e-09 -0.00182722)
(-0.0465336 3.77422e-09 -0.00177738)
(-0.0438396 3.5209e-09 -0.00172678)
(-0.0412254 3.2575e-09 -0.00167543)
(-0.0386921 2.97734e-09 -0.00162336)
(-0.0362404 2.69044e-09 -0.00157059)
(-0.0338712 2.38342e-09 -0.00151715)
(-0.0315854 2.07132e-09 -0.00146305)
(-0.0293835 1.75412e-09 -0.00140832)
(-0.0272665 1.40676e-09 -0.00135298)
(-0.025235 1.0426e-09 -0.00129707)
(-0.0232897 6.74988e-10 -0.0012406)
(-0.0214313 2.90561e-10 -0.00118362)
(-0.0196602 -1.17381e-10 -0.00112615)
(-0.0179772 -5.27118e-10 -0.00106825)
(-0.0163825 -9.43668e-10 -0.00100995)
(-0.0148768 -1.37373e-09 -0.000951314)
(-0.0134602 -1.81396e-09 -0.0008924)
(-0.0121331 -2.26605e-09 -0.000833275)
(-0.0108957 -2.7049e-09 -0.000774016)
(-0.00974786 -3.13386e-09 -0.000714708)
(-0.00868965 -3.56967e-09 -0.000655445)
(-0.00772082 -3.98555e-09 -0.000596332)
(-0.00684102 -4.39488e-09 -0.000537487)
(-0.0060497 -4.80102e-09 -0.000479034)
(-0.00534615 -5.17383e-09 -0.000421114)
(-0.00472945 -5.51999e-09 -0.000363876)
(-0.00419847 -5.83279e-09 -0.000307483)
(-0.00375184 -6.13231e-09 -0.00025211)
(-0.00338792 -6.41857e-09 -0.000197944)
(-0.00310481 -6.6882e-09 -0.000145182)
(-0.00290032 -6.94455e-09 -9.40386e-05)
(-0.00277195 -7.17084e-09 -4.47387e-05)
(-0.00271686 -7.38719e-09 2.4767e-06)
(-0.00273186 -7.55677e-09 4.73721e-05)
(-0.00281341 -7.69953e-09 8.96933e-05)
(-0.00295759 -7.8189e-09 0.000129151)
(-0.00316004 -7.91149e-09 0.000165456)
(-0.00341597 -8.01424e-09 0.000198306)
(-0.00372014 -8.09692e-09 0.000227388)
(-0.00406685 -8.20991e-09 0.00025238)
(-0.00444988 -8.28603e-09 0.000272947)
(-0.00486252 -8.2816e-09 0.000288741)
(-0.00529751 -8.07557e-09 0.000299404)
(-0.00574704 -7.62748e-09 0.000304565)
(-0.00620273 -6.90354e-09 0.000303839)
(-0.00665557 -5.92037e-09 0.000296829)
(-0.00709593 -4.81568e-09 0.000283124)
(-0.00751352 -3.66674e-09 0.000262297)
(-0.00789736 -2.53409e-09 0.000233908)
(-0.00823575 -1.34363e-09 0.000197506)
(-0.00851626 1.60612e-10 0.000152635)
(-0.00872569 2.18103e-09 9.88415e-05)
(-0.00885011 4.81251e-09 3.56928e-05)
(-0.00887488 7.96827e-09 -3.71547e-05)
(-0.00878482 1.13755e-08 -0.000119856)
(-0.00856451 1.49878e-08 -0.000212368)
(-0.00819855 1.8954e-08 -0.000314258)
(-0.00767239 2.35114e-08 -0.000424251)
(-0.00697376 2.8729e-08 -0.000539648)
(-0.00609509 3.42439e-08 -0.000655235)
(-0.00503793 3.97406e-08 -0.00076136)
(-0.00382044 4.55937e-08 -0.00084058)
(-0.0024911 5.26071e-08 -0.00086197)
(-0.00114961 6.08189e-08 -0.000772777)
(1.40303e-05 6.86733e-08 -0.000488656)
(0.000697223 8.01988e-08 3.44006e-05)
(0.000384788 5.60059e-08 0.000413006)
(0.00557515 -7.63728e-05 -0.0104438)
(0.0117933 -7.98242e-06 -0.0123219)
(0.015219 3.61866e-06 -0.00974629)
(0.0168693 3.35901e-06 -0.00567056)
(0.0166588 1.51644e-06 -0.00158625)
(0.0148342 3.55965e-07 0.00200281)
(0.0115774 -1.16606e-07 0.00497495)
(0.00708832 -2.32802e-07 0.0073654)
(0.00156328 -2.1192e-07 0.00925973)
(-0.0048186 -1.54602e-07 0.0107464)
(-0.0118859 -9.724e-08 0.0119006)
(-0.0195066 -5.1184e-08 0.0127818)
(-0.0275614 -1.9628e-08 0.0134439)
(-0.035953 -1.57018e-09 0.013934)
(-0.0445957 6.89406e-09 0.0142844)
(-0.0534188 1.05129e-08 0.0145207)
(-0.0623627 1.26901e-08 0.0146629)
(-0.0713769 1.47055e-08 0.0147268)
(-0.0804182 1.63643e-08 0.0147251)
(-0.0894502 1.70615e-08 0.0146682)
(-0.0984412 1.65258e-08 0.0145643)
(-0.107364 1.49781e-08 0.0144201)
(-0.116196 1.29094e-08 0.0142414)
(-0.124915 1.07833e-08 0.0140328)
(-0.133504 8.87558e-09 0.013798)
(-0.141947 7.2643e-09 0.0135404)
(-0.150231 5.90692e-09 0.0132627)
(-0.158342 4.74722e-09 0.0129673)
(-0.166271 3.76809e-09 0.0126562)
(-0.174006 3.00931e-09 0.0123311)
(-0.181541 2.53349e-09 0.0119936)
(-0.188866 2.39866e-09 0.011645)
(-0.195976 2.6213e-09 0.0112866)
(-0.202863 3.16022e-09 0.0109194)
(-0.209523 3.94145e-09 0.0105444)
(-0.215951 4.86449e-09 0.0101625)
(-0.222141 5.8206e-09 0.00977448)
(-0.228092 6.70353e-09 0.00938121)
(-0.233798 7.40047e-09 0.00898336)
(-0.239258 7.80814e-09 0.00858161)
(-0.244469 7.84241e-09 0.0081766)
(-0.249429 7.46725e-09 0.00776896)
(-0.254136 6.70266e-09 0.00735929)
(-0.258589 5.63166e-09 0.00694814)
(-0.262788 4.38869e-09 0.00653607)
(-0.266731 3.12763e-09 0.00612363)
(-0.270418 1.9961e-09 0.00571132)
(-0.273851 1.10688e-09 0.00529967)
(-0.277028 5.19216e-10 0.00488916)
(-0.279951 2.40527e-10 0.00448027)
(-0.282621 2.33451e-10 0.00407349)
(-0.285038 4.23734e-10 0.00366926)
(-0.287206 7.34445e-10 0.00326805)
(-0.289125 1.08908e-09 0.00287029)
(-0.290798 1.42587e-09 0.00247642)
(-0.292228 1.7075e-09 0.00208687)
(-0.293416 1.91408e-09 0.00170205)
(-0.294366 2.04397e-09 0.00132236)
(-0.295081 2.1009e-09 0.000948191)
(-0.295565 2.09503e-09 0.000579928)
(-0.295821 2.03446e-09 0.000217931)
(-0.295852 1.92663e-09 -0.000137474)
(-0.295664 1.77551e-09 -0.000486053)
(-0.29526 1.59164e-09 -0.000827548)
(-0.294645 1.38333e-09 -0.00116164)
(-0.293824 1.15846e-09 -0.00148804)
(-0.2928 9.27164e-10 -0.00180646)
(-0.29158 7.01887e-10 -0.00211662)
(-0.290168 4.93401e-10 -0.00241828)
(-0.28857 3.06886e-10 -0.00271119)
(-0.28679 1.48142e-10 -0.00299514)
(-0.284836 1.71675e-11 -0.00326996)
(-0.282711 -8.47948e-11 -0.00353545)
(-0.280423 -1.57331e-10 -0.00379148)
(-0.277976 -2.0956e-10 -0.0040379)
(-0.275377 -2.46455e-10 -0.00427459)
(-0.272632 -2.75061e-10 -0.00450147)
(-0.269746 -2.99523e-10 -0.00471845)
(-0.266726 -3.26059e-10 -0.00492547)
(-0.263579 -3.55081e-10 -0.00512248)
(-0.260309 -3.87006e-10 -0.00530946)
(-0.256923 -4.22248e-10 -0.0054864)
(-0.253428 -4.57492e-10 -0.0056533)
(-0.249829 -4.91493e-10 -0.00581019)
(-0.246133 -5.23009e-10 -0.00595712)
(-0.242346 -5.50797e-10 -0.00609414)
(-0.238474 -5.78586e-10 -0.00622132)
(-0.234523 -6.06791e-10 -0.00633875)
(-0.230498 -6.3417e-10 -0.00644653)
(-0.226406 -6.63623e-10 -0.00654478)
(-0.222253 -6.93493e-10 -0.00663363)
(-0.218044 -7.25852e-10 -0.00671323)
(-0.213785 -7.55312e-10 -0.00678373)
(-0.209482 -7.8519e-10 -0.00684529)
(-0.20514 -8.12582e-10 -0.00689809)
(-0.200764 -8.36661e-10 -0.00694233)
(-0.19636 -8.57425e-10 -0.00697819)
(-0.191933 -8.74875e-10 -0.00700589)
(-0.187487 -8.90253e-10 -0.00702563)
(-0.183029 -9.01488e-10 -0.00703764)
(-0.178562 -9.13139e-10 -0.00704214)
(-0.17409 -9.19402e-10 -0.00703936)
(-0.16962 -9.29398e-10 -0.00702954)
(-0.165154 -9.35249e-10 -0.00701292)
(-0.160698 -9.41931e-10 -0.00698973)
(-0.156255 -9.46957e-10 -0.00696021)
(-0.151828 -9.4908e-10 -0.00692462)
(-0.147423 -9.5079e-10 -0.00688319)
(-0.143042 -9.48768e-10 -0.00683617)
(-0.13869 -9.45503e-10 -0.00678379)
(-0.134368 -9.3975e-10 -0.00672628)
(-0.130081 -9.32339e-10 -0.00666389)
(-0.125832 -9.21608e-10 -0.00659684)
(-0.121624 -9.07144e-10 -0.00652536)
(-0.117458 -8.93095e-10 -0.00644966)
(-0.113339 -8.73651e-10 -0.00636995)
(-0.109269 -8.58771e-10 -0.00628644)
(-0.10525 -8.38081e-10 -0.00619933)
(-0.101284 -8.19881e-10 -0.00610881)
(-0.0973737 -8.00849e-10 -0.00601505)
(-0.0935213 -7.83478e-10 -0.00591822)
(-0.0897287 -7.63616e-10 -0.0058185)
(-0.0859977 -7.43338e-10 -0.00571603)
(-0.0823304 -7.23474e-10 -0.00561097)
(-0.0787283 -7.03195e-10 -0.00550343)
(-0.0751931 -6.80424e-10 -0.00539355)
(-0.0717265 -6.58068e-10 -0.00528145)
(-0.06833 -6.33635e-10 -0.00516722)
(-0.0650051 -6.06708e-10 -0.00505097)
(-0.0617531 -5.7895e-10 -0.00493279)
(-0.0585754 -5.49114e-10 -0.00481276)
(-0.0554733 -5.16784e-10 -0.00469094)
(-0.0524482 -4.83621e-10 -0.00456741)
(-0.0495011 -4.46718e-10 -0.00444222)
(-0.0466334 -4.09811e-10 -0.00431543)
(-0.0438461 -3.72072e-10 -0.00418709)
(-0.0411405 -3.29759e-10 -0.00405725)
(-0.0385175 -2.87442e-10 -0.00392594)
(-0.0359782 -2.43876e-10 -0.00379322)
(-0.0335237 -1.95734e-10 -0.00365913)
(-0.0311551 -1.49251e-10 -0.00352371)
(-0.0288731 -1.00686e-10 -0.003387)
(-0.0266789 -4.96228e-11 -0.00324907)
(-0.0245733 1.02904e-12 -0.00310997)
(-0.0225571 5.75076e-11 -0.00296976)
(-0.0206312 1.14823e-10 -0.00282852)
(-0.0187963 1.77967e-10 -0.00268634)
(-0.0170532 2.45279e-10 -0.00254331)
(-0.0154024 3.13429e-10 -0.00239955)
(-0.0138446 3.86581e-10 -0.00225518)
(-0.0123801 4.66399e-10 -0.00211035)
(-0.0110094 5.5039e-10 -0.00196524)
(-0.00973262 6.39388e-10 -0.00182001)
(-0.00854999 7.30895e-10 -0.00167489)
(-0.00746147 8.29911e-10 -0.0015301)
(-0.00646689 9.33105e-10 -0.0013859)
(-0.0055659 1.03965e-09 -0.00124258)
(-0.00475797 1.15121e-09 -0.00110045)
(-0.00404239 1.26778e-09 -0.000959841)
(-0.00341818 1.38604e-09 -0.000821126)
(-0.00288416 1.50266e-09 -0.000684703)
(-0.00243887 1.6243e-09 -0.000550997)
(-0.00208059 1.73596e-09 -0.000420466)
(-0.00180727 1.85431e-09 -0.000293599)
(-0.00161659 1.97185e-09 -0.000170919)
(-0.00150586 2.08941e-09 -5.29808e-05)
(-0.00147205 2.21201e-09 5.96437e-05)
(-0.00151173 2.34213e-09 0.000166343)
(-0.0016211 2.47979e-09 0.000266452)
(-0.00179593 2.61498e-09 0.000359279)
(-0.00203156 2.75354e-09 0.000444102)
(-0.00232285 2.88378e-09 0.000520166)
(-0.00266421 3.01322e-09 0.000586686)
(-0.00304956 3.14603e-09 0.000642842)
(-0.00347228 3.30143e-09 0.000687777)
(-0.00392526 3.4928e-09 0.000720601)
(-0.00440081 3.73018e-09 0.000740387)
(-0.00489072 4.0044e-09 0.00074617)
(-0.00538617 4.28793e-09 0.000736944)
(-0.00587779 4.54648e-09 0.000711664)
(-0.00635559 4.74495e-09 0.000669245)
(-0.00680899 4.88831e-09 0.000608561)
(-0.00722682 5.02256e-09 0.000528458)
(-0.00759733 5.20709e-09 0.000427759)
(-0.00790822 5.49215e-09 0.000305296)
(-0.00814668 5.83765e-09 0.00015996)
(-0.00829956 6.16659e-09 -9.19257e-06)
(-0.00835341 6.41043e-09 -0.000202753)
(-0.00829485 6.59255e-09 -0.000420826)
(-0.00811101 6.8068e-09 -0.000662637)
(-0.00779003 7.09351e-09 -0.000925734)
(-0.00732211 7.34052e-09 -0.00120479)
(-0.00670095 7.38526e-09 -0.0014895)
(-0.0059259 7.23276e-09 -0.00176104)
(-0.00500512 7.25251e-09 -0.00198586)
(-0.00396012 7.78987e-09 -0.00210569)
(-0.00282948 8.97687e-09 -0.00202233)
(-0.00168091 1.13073e-08 -0.00157885)
(-0.000609944 1.89807e-08 -0.000583962)
(4.97018e-07 9.9067e-09 0.000709602)
(0.00562071 -7.63962e-05 -0.0104853)
(0.0118223 -7.98197e-06 -0.012355)
(0.015227 3.61846e-06 -0.00976498)
(0.0168688 3.35889e-06 -0.00567783)
(0.0166573 1.51641e-06 -0.0015879)
(0.0148338 3.5596e-07 0.00200298)
(0.0115778 -1.16604e-07 0.00497542)
(0.00708883 -2.32799e-07 0.00736576)
(0.00156359 -2.11918e-07 0.00925996)
(-0.00481849 -1.546e-07 0.0107466)
(-0.0118859 -9.72389e-08 0.0119007)
(-0.0195067 -5.11835e-08 0.0127819)
(-0.0275615 -1.96278e-08 0.013444)
(-0.0359531 -1.57017e-09 0.0139341)
(-0.0445957 6.89399e-09 0.0142845)
(-0.0534189 1.05128e-08 0.0145208)
(-0.0623627 1.26899e-08 0.0146629)
(-0.0713768 1.47054e-08 0.0147268)
(-0.0804182 1.63641e-08 0.0147252)
(-0.0894501 1.70614e-08 0.0146682)
(-0.0984411 1.65257e-08 0.0145643)
(-0.107364 1.4978e-08 0.0144202)
(-0.116195 1.29093e-08 0.0142414)
(-0.124915 1.07832e-08 0.0140328)
(-0.133504 8.8755e-09 0.013798)
(-0.141947 7.26424e-09 0.0135404)
(-0.15023 5.90686e-09 0.0132627)
(-0.158342 4.74718e-09 0.0129673)
(-0.16627 3.76806e-09 0.0126562)
(-0.174006 3.00928e-09 0.0123311)
(-0.181541 2.53347e-09 0.0119936)
(-0.188866 2.39863e-09 0.011645)
(-0.195976 2.62128e-09 0.0112866)
(-0.202863 3.16019e-09 0.0109194)
(-0.209523 3.94142e-09 0.0105444)
(-0.21595 4.86445e-09 0.0101625)
(-0.222141 5.82055e-09 0.0097745)
(-0.228091 6.70348e-09 0.00938122)
(-0.233798 7.4004e-09 0.00898337)
(-0.239258 7.80808e-09 0.00858161)
(-0.244469 7.84234e-09 0.00817661)
(-0.249428 7.46719e-09 0.00776897)
(-0.254136 6.7026e-09 0.00735928)
(-0.258589 5.63162e-09 0.00694813)
(-0.262787 4.38865e-09 0.00653607)
(-0.266731 3.1276e-09 0.00612362)
(-0.270418 1.99608e-09 0.00571132)
(-0.27385 1.10687e-09 0.00529966)
(-0.277027 5.19212e-10 0.00488915)
(-0.27995 2.40525e-10 0.00448027)
(-0.28262 2.33449e-10 0.00407348)
(-0.285038 4.2373e-10 0.00366926)
(-0.287206 7.34439e-10 0.00326804)
(-0.289125 1.08907e-09 0.00287028)
(-0.290798 1.42586e-09 0.00247642)
(-0.292227 1.70749e-09 0.00208686)
(-0.293416 1.91407e-09 0.00170204)
(-0.294366 2.04396e-09 0.00132235)
(-0.295081 2.10089e-09 0.000948183)
(-0.295565 2.09502e-09 0.000579919)
(-0.29582 2.03444e-09 0.000217922)
(-0.295852 1.92662e-09 -0.000137483)
(-0.295664 1.77549e-09 -0.000486063)
(-0.29526 1.59163e-09 -0.000827557)
(-0.294645 1.38332e-09 -0.00116165)
(-0.293823 1.15845e-09 -0.00148806)
(-0.2928 9.27157e-10 -0.00180647)
(-0.291579 7.01882e-10 -0.00211664)
(-0.290167 4.93398e-10 -0.00241829)
(-0.288569 3.06884e-10 -0.0027112)
(-0.28679 1.48141e-10 -0.00299516)
(-0.284835 1.71674e-11 -0.00326997)
(-0.282711 -8.47941e-11 -0.00353546)
(-0.280422 -1.5733e-10 -0.00379149)
(-0.277976 -2.09558e-10 -0.00403791)
(-0.275377 -2.46453e-10 -0.00427461)
(-0.272631 -2.75059e-10 -0.00450149)
(-0.269746 -2.99521e-10 -0.00471846)
(-0.266726 -3.26056e-10 -0.00492548)
(-0.263578 -3.55079e-10 -0.00512249)
(-0.260308 -3.87004e-10 -0.00530947)
(-0.256923 -4.22245e-10 -0.00548641)
(-0.253428 -4.57488e-10 -0.00565331)
(-0.249829 -4.9149e-10 -0.00581021)
(-0.246133 -5.23006e-10 -0.00595714)
(-0.242346 -5.50793e-10 -0.00609415)
(-0.238474 -5.78582e-10 -0.00622133)
(-0.234522 -6.06787e-10 -0.00633876)
(-0.230498 -6.34165e-10 -0.00644654)
(-0.226406 -6.63618e-10 -0.00654479)
(-0.222253 -6.93488e-10 -0.00663365)
(-0.218044 -7.25847e-10 -0.00671324)
(-0.213785 -7.55307e-10 -0.00678374)
(-0.209482 -7.85184e-10 -0.0068453)
(-0.20514 -8.12577e-10 -0.0068981)
(-0.200764 -8.36655e-10 -0.00694234)
(-0.19636 -8.57419e-10 -0.0069782)
(-0.191933 -8.74869e-10 -0.0070059)
(-0.187487 -8.90248e-10 -0.00702564)
(-0.183028 -9.01482e-10 -0.00703765)
(-0.178561 -9.13133e-10 -0.00704215)
(-0.17409 -9.19396e-10 -0.00703938)
(-0.16962 -9.29392e-10 -0.00702956)
(-0.165154 -9.35243e-10 -0.00701293)
(-0.160698 -9.41925e-10 -0.00698974)
(-0.156254 -9.46951e-10 -0.00696023)
(-0.151828 -9.49074e-10 -0.00692464)
(-0.147423 -9.50784e-10 -0.00688321)
(-0.143042 -9.48763e-10 -0.00683618)
(-0.138689 -9.45498e-10 -0.0067838)
(-0.134368 -9.39745e-10 -0.0067263)
(-0.130081 -9.32333e-10 -0.00666391)
(-0.125832 -9.21603e-10 -0.00659686)
(-0.121623 -9.07139e-10 -0.00652538)
(-0.117458 -8.93089e-10 -0.00644967)
(-0.113339 -8.73646e-10 -0.00636997)
(-0.109269 -8.58766e-10 -0.00628646)
(-0.10525 -8.38076e-10 -0.00619935)
(-0.101284 -8.19876e-10 -0.00610882)
(-0.0973735 -8.00845e-10 -0.00601506)
(-0.0935211 -7.83474e-10 -0.00591824)
(-0.0897285 -7.63612e-10 -0.00581852)
(-0.0859976 -7.43334e-10 -0.00571605)
(-0.0823302 -7.2347e-10 -0.00561099)
(-0.0787281 -7.03191e-10 -0.00550345)
(-0.075193 -6.80421e-10 -0.00539357)
(-0.0717264 -6.58065e-10 -0.00528147)
(-0.0683299 -6.33631e-10 -0.00516724)
(-0.0650049 -6.06705e-10 -0.005051)
(-0.0617529 -5.78947e-10 -0.00493281)
(-0.0585752 -5.49111e-10 -0.00481278)
(-0.0554732 -5.16782e-10 -0.00469096)
(-0.052448 -4.83619e-10 -0.00456743)
(-0.049501 -4.46715e-10 -0.00444224)
(-0.0466333 -4.09809e-10 -0.00431545)
(-0.043846 -3.7207e-10 -0.00418712)
(-0.0411403 -3.29757e-10 -0.00405727)
(-0.0385173 -2.87441e-10 -0.00392597)
(-0.0359781 -2.43875e-10 -0.00379325)
(-0.0335236 -1.95733e-10 -0.00365916)
(-0.0311549 -1.49251e-10 -0.00352373)
(-0.028873 -1.00686e-10 -0.00338703)
(-0.0266788 -4.96225e-11 -0.0032491)
(-0.0245731 1.02904e-12 -0.00310999)
(-0.022557 5.75073e-11 -0.00296979)
(-0.0206311 1.14822e-10 -0.00282855)
(-0.0187962 1.77967e-10 -0.00268636)
(-0.0170531 2.45278e-10 -0.00254333)
(-0.0154023 3.13428e-10 -0.00239957)
(-0.0138444 3.86579e-10 -0.00225521)
(-0.01238 4.66398e-10 -0.00211038)
(-0.0110092 5.50388e-10 -0.00196526)
(-0.00973248 6.39385e-10 -0.00182004)
(-0.00854985 7.30892e-10 -0.00167491)
(-0.00746133 8.29907e-10 -0.00153013)
(-0.00646674 9.33102e-10 -0.00138593)
(-0.00556575 1.03964e-09 -0.00124261)
(-0.00475783 1.1512e-09 -0.00110047)
(-0.00404224 1.26778e-09 -0.000959864)
(-0.00341804 1.38604e-09 -0.000821149)
(-0.00288402 1.50266e-09 -0.000684726)
(-0.00243873 1.62429e-09 -0.000551019)
(-0.00208045 1.73595e-09 -0.000420488)
(-0.00180714 1.8543e-09 -0.00029362)
(-0.00161646 1.97184e-09 -0.000170939)
(-0.00150573 2.0894e-09 -5.30002e-05)
(-0.00147192 2.212e-09 5.9625e-05)
(-0.0015116 2.34213e-09 0.000166325)
(-0.00162098 2.47978e-09 0.000266435)
(-0.00179581 2.61497e-09 0.000359263)
(-0.00203144 2.75353e-09 0.000444086)
(-0.00232273 2.88377e-09 0.00052015)
(-0.0026641 3.01321e-09 0.000586672)
(-0.00304945 3.14602e-09 0.000642828)
(-0.00347218 3.30142e-09 0.000687764)
(-0.00392516 3.49279e-09 0.000720588)
(-0.00440072 3.73016e-09 0.000740374)
(-0.00489063 4.00439e-09 0.000746157)
(-0.00538609 4.28791e-09 0.000736931)
(-0.00587771 4.54647e-09 0.000711652)
(-0.00635551 4.74493e-09 0.000669232)
(-0.00680892 4.8883e-09 0.000608549)
(-0.00722676 5.02255e-09 0.000528444)
(-0.00759728 5.20707e-09 0.000427744)
(-0.00790817 5.49213e-09 0.00030528)
(-0.00814664 5.83763e-09 0.000159943)
(-0.00829953 6.16658e-09 -9.21204e-06)
(-0.00835338 6.41041e-09 -0.000202775)
(-0.00829483 6.59254e-09 -0.000420851)
(-0.00811099 6.80679e-09 -0.000662666)
(-0.00779001 7.09349e-09 -0.000925768)
(-0.0073221 7.34051e-09 -0.00120483)
(-0.00670095 7.38524e-09 -0.00148955)
(-0.00592591 7.23275e-09 -0.00176109)
(-0.00500512 7.25249e-09 -0.00198592)
(-0.00396013 7.78985e-09 -0.00210577)
(-0.0028295 8.97686e-09 -0.00202242)
(-0.00168094 1.13072e-08 -0.00157895)
(-0.000610019 1.89807e-08 -0.000584096)
(3.83259e-07 9.90671e-09 0.000709435)
(0.00498138 -4.1502e-05 -0.0189593)