/*--------------------------------*- C++ -*----------------------------------*\
  =========                 |
  \\      /  F ield         | OpenFOAM: The Open Source CFD Toolbox
   \\    /   O peration     | Website:  https://openfoam.org
    \\  /    A nd           | Version:  8
     \\/     M anipulation  |
\*---------------------------------------------------------------------------*/
FoamFile
{
    version     2.0;
    format      ascii;
    class       volScalarField;
    location    "50";
    object      alphat;
}
// * * * * * * * * * * * * * * * * * * * * * * * * * * * * * * * * * * * * * //

dimensions      [1 -1 -1 0 0 0 0];

internalField   nonuniform List<scalar> 
78750
(
0.000295423
0.000562727
0.000637082
0.000623656
0.000632409
0.000645394
0.000629263
0.000616588
0.000625863
0.000621318
0.000625364
0.000614199
0.000627594
0.000627122
0.000620668
0.00062143
0.000605157
0.000589437
0.000611571
0.000614168
0.000602582
0.000611756
0.000631639
0.00062505
0.000618058
0.000626637
0.000608562
0.000621664
0.000613604
0.000631017
0.000631507
0.000622839
0.000608937
0.000539897
0.000283922
0.000514461
0.000938201
0.000985418
0.000987193
0.00101477
0.00102507
0.0010112
0.000998726
0.0010461
0.00103117
0.00104354
0.00103421
0.00105229
0.00105665
0.00103871
0.000978497
0.00100559
0.000997557
0.000981611
0.00103212
0.0010037
0.00102639
0.00107063
0.00105868
0.0010477
0.00106231
0.00102548
0.00103543
0.00100349
0.00101971
0.00102074
0.00098911
0.000937619
0.000898638
0.000488175
0.000471494
0.00088943
0.000972294
0.000971403
0.00100373
0.00105034
0.00106047
0.00104771
0.00107229
0.00109322
0.00109343
0.00108743
0.00109161
0.00109257
0.00107789
0.00105512
0.00106114
0.00100163
0.00101901
0.00107098
0.00106323
0.00108778
0.00112276
0.00110571
0.00108967
0.00110628
0.00106852
0.00105752
0.00105614
0.00106896
0.000994716
0.000959137
0.000921628
0.000840177
0.000457186
0.000597656
0.000828225
0.000981824
0.000993189
0.00100663
0.00111133
0.00108382
0.00112241
0.00108907
0.0011514
0.00110118
0.00115936
0.00122169
0.00123408
0.0011653
0.00127792
0.00115906
0.00116294
0.00133354
0.00119024
0.00117424
0.00119403
0.00120012
0.0011743
0.00120137
0.00117005
0.00111821
0.00108737
0.00107416
0.00109046
0.00104259
0.000985145
0.000940437
0.000815587
0.000584553
0.000683142
0.000926291
0.00103358
0.00106453
0.00108755
0.00110624
0.00111433
0.00110206
0.00114678
0.00118006
0.00121275
0.0012544
0.0013014
0.00121568
0.00131455
0.00125162
0.00129393
0.00134549
0.00123234
0.00127878
0.00124233
0.0012661
0.00129536
0.00126406
0.00116414
0.00124338
0.00116091
0.001173
0.00110183
0.00112559
0.00107458
0.00107103
0.00102865
0.000893852
0.000642819
0.000697203
0.00095082
0.000917607
0.000966302
0.000943458
0.000952897
0.000992223
0.000996354
0.00106607
0.0010435
0.00107519
0.00109307
0.00106103
0.00112715
0.00117974
0.00124724
0.00120856
0.00124401
0.00119596
0.00125574
0.00122432
0.00122491
0.00119596
0.00109485
0.00106103
0.00111134
0.0010835
0.00104039
0.00102296
0.00100956
0.000943666
0.00095437
0.00087786
0.000927113
0.000706371
0.00071398
0.000952758
0.00083652
0.00083572
0.000894465
0.000997541
0.000949228
0.00102494
0.000968458
0.00105503
0.000981138
0.00105032
0.00106751
0.0011539
0.00111036
0.00112025
0.00111157
0.0011485
0.00126419
0.0011345
0.00111661
0.00108688
0.00105409
0.00106586
0.00115175
0.00103716
0.000986868
0.00100166
0.000938309
0.000991265
0.00094096
0.000845289
0.000841492
0.000970361
0.000720365
0.000595576
0.000932146
0.000879221
0.00079069
0.000841323
0.000865835
0.000899678
0.000942468
0.000946988
0.0010008
0.00101458
0.00106244
0.00111877
0.00106952
0.0011304
0.00109365
0.00116548
0.00121433
0.00115862
0.00106482
0.00106267
0.00101304
0.00100563
0.00107493
0.00104189
0.00103338
0.000984333
0.000935972
0.000920209
0.000893455
0.000852661
0.000813142
0.000866025
0.000884516
0.000618087
0.000481842
0.000730679
0.000851093
0.000795663
0.00074279
0.000741607
0.000844157
0.000821606
0.000914836
0.000866864
0.000916975
0.000927229
0.000960371
0.000975733
0.00101451
0.00109282
0.00107631
0.00113861
0.00108134
0.00107783
0.00107002
0.00102872
0.00100305
0.000935827
0.000871114
0.000922698
0.000947788
0.000852691
0.000881006
0.000792709
0.000743387
0.000749707
0.000819041
0.000736659
0.000491461
0.000456364
0.000581769
0.000642142
0.000694877
0.000717493
0.00074695
0.000776546
0.000747569
0.000789353
0.00080431
0.000822969
0.000834305
0.000847438
0.00088493
0.00094083
0.000952864
0.000967604
0.00106089
0.00100244
0.00098176
0.000972623
0.000942238
0.000906435
0.000839641
0.000808468
0.000806287
0.000807401
0.000819427
0.000758396
0.000758996
0.000700721
0.000673765
0.00067714
0.000611055
0.000441575
0.000450737
0.00058176
0.000535043
0.000632287
0.00064144
0.000671004
0.000680696
0.000722215
0.000704433
0.000742647
0.000725009
0.000765595
0.000760128
0.000842823
0.000842647
0.000853048
0.000885623
0.000933944
0.000926676
0.000890391
0.000871783
0.000841909
0.000826486
0.000779124
0.000791256
0.000753094
0.000711912
0.000723448
0.000684101
0.000682797
0.00064908
0.000639535
0.000542864
0.000567345
0.000455109
0.000451305
0.000571629
0.000512383
0.000562601
0.000597311
0.000611676
0.000599931
0.000644937
0.000642157
0.000674356
0.000671757
0.000686598
0.00072537
0.000728212
0.000759977
0.000758137
0.000800447
0.000851766
0.000798915
0.000776202
0.000743367
0.000728456
0.000716226
0.000717527
0.000707309
0.000672823
0.000647172
0.000652965
0.00062593
0.000626191
0.000587883
0.000578669
0.000494389
0.000553516
0.000459583
0.000452666
0.000575485
0.000496807
0.000537639
0.000546195
0.000556641
0.000568213
0.000601255
0.000600445
0.000611904
0.000619568
0.000637136
0.000665002
0.000666805
0.00069039
0.000700256
0.000722718
0.000751848
0.000711843
0.000713003
0.000680752
0.000669766
0.000657701
0.00065402
0.00064588
0.000620474
0.000606388
0.000590293
0.000583364
0.000570712
0.000549569
0.000530949
0.000485023
0.000566549
0.000469047
0.000462015
0.000562456
0.000491879
0.000517896
0.000527593
0.00054329
0.000551621
0.000563179
0.000566414
0.000580469
0.000579063
0.000597222
0.000612697
0.000624705
0.000645329
0.000651335
0.000669489
0.00069687
0.000678724
0.000663698
0.000646056
0.000625487
0.000621479
0.000609929
0.00059077
0.000590335
0.000583621
0.000578822
0.000557379
0.000548085
0.000526587
0.000517163
0.000494874
0.000563507
0.000467538
0.000468047
0.000576056
0.000485181
0.000501274
0.000507751
0.000519874
0.000527278
0.000544989
0.00055171
0.000560577
0.000563328
0.000572683
0.000585817
0.000597146
0.000608997
0.000621866
0.000645082
0.000667754
0.000654315
0.000638537
0.000612634
0.000605012
0.000593241
0.000588341
0.000568335
0.000571898
0.000552663
0.000546658
0.000529899
0.000523879
0.00051045
0.000501667
0.000487625
0.000575888
0.000471155
0.000469794
0.000574313
0.000484004
0.000488632
0.000493307
0.000501569
0.000508179
0.00051689
0.000528457
0.00053678
0.000550932
0.000556512
0.000565602
0.000576521
0.000585935
0.00059328
0.000619271
0.000641093
0.000616143
0.000602412
0.000583289
0.000582401
0.000565608
0.00056556
0.000540891
0.000543326
0.000528537
0.000515933
0.000514832
0.000512407
0.000492214
0.000495407
0.000486644
0.000572498
0.000468496
0.000465251
0.000573178
0.000480831
0.000473725
0.000487742
0.000485991
0.000493733
0.000495808
0.000506482
0.000513147
0.000524374
0.000532922
0.000538034
0.000547575
0.000555543
0.000570683
0.000582391
0.000597438
0.000581114
0.000567078
0.000561263
0.000549038
0.000544553
0.000546614
0.000525845
0.000515316
0.000516175
0.000494417
0.000496482
0.000491707
0.000476886
0.00047844
0.000471423
0.000567438
0.000461281
0.000456104
0.000565679
0.000472661
0.000468752
0.000475061
0.000481037
0.00048075
0.000483092
0.000487149
0.000494213
0.000489635
0.00049844
0.000510711
0.000521194
0.000530267
0.000543221
0.000544368
0.000564432
0.000551861
0.000543163
0.000537792
0.000523971
0.000523898
0.000522228
0.000506907
0.000493399
0.000491972
0.000486249
0.000485731
0.00047739
0.000478175
0.000465607
0.000465748
0.000560054
0.000455608
0.000442892
0.000555168
0.000460631
0.000467546
0.000462204
0.000470566
0.000464979
0.0004707
0.000469336
0.00048036
0.000476371
0.000485526
0.000493404
0.00049962
0.000508024
0.0005172
0.000520877
0.000534768
0.000525728
0.00052197
0.000512287
0.000504915
0.000506755
0.000498709
0.000488214
0.000477861
0.000479005
0.000479755
0.000473763
0.000463759
0.000465246
0.000461896
0.000465969
0.000547791
0.00044631
0.000428576
0.000544255
0.00046398
0.000462924
0.000456451
0.000456889
0.000453919
0.000456566
0.000462572
0.000467099
0.000472399
0.000474914
0.000481076
0.000491733
0.000493182
0.000502229
0.000503021
0.00051646
0.000508983
0.000504995
0.000496101
0.000491539
0.000481568
0.000484514
0.000474337
0.000468987
0.000466052
0.000463387
0.000455192
0.000454839
0.000455324
0.000463447
0.000466275
0.000537525
0.000428337
0.00041353
0.000533505
0.000467428
0.000459829
0.000446682
0.00044401
0.000442754
0.000448393
0.000449032
0.000453372
0.000465091
0.000464327
0.000468398
0.000481038
0.000479124
0.000484508
0.000491238
0.000503905
0.000498687
0.00049201
0.000481919
0.000483394
0.000477773
0.000474689
0.000464092
0.00046458
0.000450441
0.000451628
0.000442368
0.000444176
0.000446155
0.000457518
0.000463945
0.00052408
0.000406598
0.00039397
0.000522709
0.000469454
0.000453693
0.000440215
0.000433537
0.000434614
0.000436933
0.000440507
0.000446761
0.000449821
0.000454995
0.000459726
0.00046508
0.000463551
0.000470146
0.000479251
0.000487867
0.000489795
0.000483277
0.000472456
0.000468225
0.000463418
0.000459508
0.000448133
0.000448766
0.000440365
0.000439596
0.000435891
0.000433879
0.00043611
0.000448827
0.000460559
0.000510933
0.000390294
0.000379974
0.000512201
0.000460659
0.000445413
0.000431615
0.000426057
0.000424232
0.000425159
0.000433712
0.000432499
0.000440218
0.000448353
0.00045169
0.000453803
0.000457122
0.000462005
0.000469993
0.00047424
0.000473142
0.000466176
0.000460226
0.000454902
0.000453352
0.000448368
0.000443304
0.000437794
0.000433929
0.000429938
0.000425251
0.0004214
0.000421915
0.000440595
0.00045341
0.000493533
0.000369935
0.000360688
0.000496149
0.000455252
0.000431676
0.00041941
0.000415211
0.000418766
0.000417443
0.000421774
0.000422767
0.000429394
0.00043748
0.000439222
0.000440051
0.000449109
0.000456101
0.000459187
0.00046341
0.000454263
0.000450989
0.000447265
0.000445842
0.00044525
0.000441012
0.000433162
0.000427642
0.000422753
0.000419623
0.000414665
0.000412623
0.000417865
0.000434824
0.000447151
0.000475826
0.000353506
0.000337653
0.000473627
0.000449792
0.000423942
0.000410945
0.000402419
0.000410838
0.000409449
0.000411249
0.000416972
0.000419312
0.000426322
0.00043009
0.000432034
0.000437456
0.000440509
0.000449075
0.000449752
0.000447043
0.000440081
0.000436093
0.000437086
0.000437374
0.000431353
0.000423029
0.000414082
0.00041463
0.000408192
0.000399905
0.000401351
0.00041392
0.000423009
0.000434723
0.000451245
0.000331321
0.000313681
0.000449787
0.000436558
0.000414577
0.000399535
0.000392346
0.000393211
0.000398804
0.000399153
0.00040189
0.000409734
0.000411261
0.000423957
0.000422495
0.000423132
0.000427349
0.000432486
0.000433661
0.00043717
0.000429136
0.000426778
0.000424655
0.000420405
0.000418787
0.000410921
0.00040576
0.000403102
0.000396209
0.000391241
0.000388412
0.000399022
0.000413953
0.000423502
0.000429448
0.000311006
0.00029507
0.000428101
0.000422956
0.000404716
0.000386871
0.000383466
0.000380372
0.00038391
0.000389387
0.000390229
0.000395025
0.000400754
0.00041076
0.00041005
0.000414182
0.000419165
0.000416023
0.000421097
0.000420431
0.000415247
0.000413881
0.000414123
0.000409828
0.000404089
0.000399694
0.000390166
0.000388054
0.000381532
0.000378231
0.000371608
0.00038507
0.000397659
0.000409411
0.000405792
0.00028575
0.00027098
0.000397919
0.00040503
0.000391693
0.000372361
0.000367321
0.000365584
0.000368596
0.000370037
0.000371576
0.0003845
0.00038536
0.000398097
0.000397327
0.00039642
0.000404653
0.00039995
0.000408601
0.000403104
0.000402449
0.00040022
0.000399948
0.000397978
0.000389276
0.000385915
0.000379519
0.000371912
0.000367786
0.000360048
0.000361621
0.000368309
0.000380857
0.000391862
0.00038013
0.000263605
0.000247279
0.000371441
0.000387274
0.000373265
0.000355733
0.000352125
0.000350103
0.000353052
0.000358512
0.000360099
0.000369992
0.000374854
0.00038231
0.000380003
0.000385017
0.000393688
0.000388819
0.000391958
0.000393003
0.000386862
0.000385361
0.000382049
0.000382283
0.000376253
0.00037167
0.000364649
0.000358625
0.000355245
0.000346926
0.000344646
0.00035374
0.000363909
0.000374443
0.000356661
0.000239936
0.000223023
0.000340887
0.000360432
0.000354241
0.000343234
0.000335446
0.00033613
0.000339367
0.000333702
0.00034118
0.00035111
0.000357612
0.000367086
0.000369411
0.00036865
0.000372817
0.000372197
0.000378361
0.000376298
0.000370752
0.000373035
0.000364118
0.000364217
0.000356754
0.000358463
0.000350292
0.000343825
0.000331571
0.000328575
0.000328978
0.000335855
0.000347384
0.000349049
0.000324873
0.000217082
0.000204751
0.000313035
0.000343098
0.000332815
0.000321402
0.000311563
0.00031261
0.000316904
0.000319222
0.000322557
0.000333118
0.000335004
0.000347748
0.000344226
0.000345293
0.000351955
0.000358227
0.000355128
0.000357185
0.000353314
0.000350305
0.00035102
0.00034625
0.000339557
0.000334535
0.000323363
0.000326416
0.000314641
0.000311795
0.000311017
0.000316743
0.000329222
0.000323388
0.000298273
0.000195914
0.000187318
0.000290878
0.00031311
0.000313625
0.000301232
0.000299387
0.000298156
0.000297229
0.00031698
0.000313802
0.000319134
0.000322595
0.000327221
0.00032861
0.000331968
0.000332693
0.00033485
0.00033322
0.000335383
0.000332777
0.000331758
0.000331838
0.00032677
0.000322716
0.000315613
0.000314883
0.000310592
0.000307059
0.000291956
0.000295442
0.000298898
0.000310985
0.000305601
0.000285204
0.000184335
0.00018141
0.00028138
0.000296537
0.000292676
0.000288698
0.000285452
0.000295947
0.000290672
0.000308804
0.00030654
0.00030483
0.000311547
0.000316478
0.000325238
0.000323286
0.000329859
0.000316356
0.000322269
0.000322792
0.000322225
0.000321551
0.000315824
0.000317956
0.000309522
0.000308398
0.000314655
0.000291313
0.000303378
0.000289052
0.000279645
0.000288
0.000284553
0.000288014
0.00027138
0.000184525
0.000175768
0.00027839
0.000291708
0.000282929
0.000289906
0.000287244
0.000290692
0.000284485
0.000307664
0.000304768
0.000298819
0.000305576
0.000306255
0.000317516
0.000312971
0.000316858
0.000311493
0.000316429
0.00031996
0.000308059
0.000315359
0.000304293
0.000305643
0.000313838
0.000301095
0.000311916
0.000289317
0.000297729
0.000290055
0.00028107
0.000278675
0.000278275
0.000277214
0.000274096
0.000181581
0.000177279
0.000277541
0.00028707
0.000279539
0.000291061
0.000288208
0.000294449
0.000289173
0.000307944
0.000306949
0.000297316
0.000304216
0.000309402
0.00031901
0.000318274
0.000315035
0.00030417
0.0003124
0.000318145
0.000307772
0.000309837
0.00030986
0.000303798
0.000317012
0.00029728
0.00030665
0.00029157
0.000298668
0.00028821
0.000282383
0.000279667
0.0002788
0.000280158
0.000271607
0.000177524
0.000176723
0.000272672
0.000279819
0.000277098
0.000285463
0.000287279
0.000297946
0.000290459
0.000314968
0.000307441
0.000303181
0.000311343
0.000312437
0.000322777
0.000323618
0.000318381
0.000312364
0.000303886
0.000325645
0.000310916
0.000305372
0.000312265
0.000304966
0.000314055
0.000299958
0.000303147
0.000290231
0.000302217
0.000286351
0.000280085
0.000281839
0.000274524
0.00028315
0.000274026
0.000171943
0.000173117
0.000275254
0.000275519
0.000274121
0.00029009
0.000285661
0.000303555
0.000295827
0.000318489
0.000308351
0.000307209
0.000315148
0.000319674
0.000321452
0.000323535
0.000317805
0.000313351
0.000312064
0.000328906
0.000312551
0.000311921
0.000309111
0.000306409
0.000318943
0.000299118
0.000301515
0.000288479
0.000300861
0.000284362
0.000277347
0.000279243
0.000268773
0.000280436
0.000275203
0.000172647
0.000171111
0.000276101
0.000272682
0.000280713
0.000292741
0.00029181
0.000307473
0.000297812
0.000319332
0.000307556
0.000308383
0.000313449
0.000322056
0.000319938
0.000322757
0.00031768
0.00031175
0.000314413
0.00032466
0.000310028
0.000315402
0.000309463
0.000303164
0.000321341
0.000303804
0.000296191
0.000286192
0.000296895
0.000280839
0.000278602
0.000275558
0.000274567
0.000287228
0.000272954
0.000169286
0.000171132
0.000276374
0.000268244
0.000282868
0.000289474
0.000293816
0.000307236
0.000297174
0.000316082
0.000304458
0.000306271
0.000318353
0.000320894
0.00031509
0.000321606
0.000314643
0.000309371
0.000310396
0.000330061
0.000316968
0.000314852
0.000310009
0.000310584
0.000321362
0.000307656
0.000300574
0.000286011
0.000295758
0.00027836
0.000280413
0.000275636
0.000277661
0.000291452
0.000267795
0.000171207
0.000170644
0.000280135
0.000275381
0.000280205
0.000287917
0.000292425
0.000304438
0.000295657
0.000322287
0.000303498
0.000310988
0.00032133
0.000318629
0.000321179
0.000318097
0.000320397
0.000318224
0.000317814
0.000335251
0.000322105
0.000314808
0.000317153
0.000310791
0.000321267
0.000308315
0.000304342
0.000286098
0.000292919
0.000286378
0.00028172
0.000281871
0.000279091
0.000290999
0.000272236
0.000169833
0.000168129
0.000275633
0.000278578
0.000286645
0.000290589
0.000298068
0.000300727
0.000293316
0.000326258
0.000298815
0.000314489
0.000320551
0.000315448
0.000325367
0.000324045
0.000324264
0.000323424
0.000316535
0.000333079
0.000326119
0.000314166
0.000321462
0.000320306
0.000317455
0.000310397
0.000304557
0.000294011
0.000297888
0.000291278
0.000288948
0.0002867
0.00027818
0.00028896
0.000275296
0.000168142
0.000171543
0.000278962
0.000280011
0.000289795
0.000290004
0.000301396
0.000306546
0.000300395
0.000324514
0.000304691
0.000315975
0.00031938
0.000317178
0.00032318
0.000328056
0.000324627
0.000322365
0.000324465
0.00033919
0.000329687
0.000323411
0.000321749
0.000324222
0.00032357
0.000314656
0.000306806
0.000299692
0.000296691
0.000294348
0.000290634
0.000290288
0.000275168
0.000284537
0.000277145
0.000165743
0.000170051
0.000280487
0.000283958
0.000291088
0.000287434
0.00029995
0.000310085
0.000304564
0.00032966
0.000308672
0.000314988
0.00031551
0.000316639
0.000329584
0.000328836
0.000321581
0.000328713
0.000327955
0.000343078
0.000333808
0.000329092
0.000320877
0.000329101
0.000326874
0.000314858
0.00030758
0.000304438
0.000306641
0.000299261
0.000299392
0.000294242
0.000282209
0.000285389
0.000277966
0.000168039
0.000166974
0.000281299
0.000286498
0.000289106
0.00029369
0.000296566
0.000308423
0.000307987
0.000331869
0.000306106
0.000320967
0.000321426
0.000315026
0.000333013
0.000329344
0.000328484
0.000332863
0.000331484
0.000341334
0.00033253
0.000332845
0.000328858
0.000330931
0.000326354
0.000313129
0.000314611
0.000309932
0.000311012
0.000298662
0.000302319
0.000295682
0.000287454
0.000285395
0.000278525
0.00016855
0.000171487
0.000278704
0.000290418
0.000296573
0.000296421
0.000301927
0.000312489
0.000311458
0.000329111
0.000311788
0.000323951
0.000320327
0.00032031
0.000332656
0.000336045
0.000331726
0.00033469
0.000331416
0.000342429
0.000339143
0.000333983
0.000334
0.000330744
0.000325645
0.000311256
0.000320236
0.000308873
0.000314108
0.000305169
0.00030569
0.000297132
0.000287103
0.000284298
0.000278853
0.00016856
0.000166052
0.000283123
0.000293964
0.000295981
0.000293582
0.000305647
0.000315375
0.00031065
0.000333928
0.000315764
0.000325929
0.000327837
0.000319418
0.000329523
0.000338547
0.000330916
0.00033457
0.000340047
0.000346203
0.000342251
0.000342923
0.000335619
0.000332977
0.000324347
0.000307625
0.000322305
0.000316554
0.000315142
0.00031026
0.00030389
0.00029875
0.000292765
0.000281716
0.000280028
0.000166074
0.000165744
0.000280571
0.000291414
0.000302892
0.000293311
0.00030792
0.000318371
0.00031693
0.000335818
0.000311858
0.000330331
0.000330436
0.000327457
0.000337988
0.000343923
0.000332163
0.000334947
0.000339607
0.000344738
0.000340976
0.000342258
0.000340705
0.000334429
0.000330624
0.000314951
0.000329301
0.000320611
0.000319109
0.000313108
0.000311297
0.000301986
0.000296918
0.000288576
0.000280838
0.000161651
0.00016765
0.000286786
0.000297314
0.000304085
0.000300985
0.000310607
0.000322594
0.000322361
0.000333814
0.000319351
0.000332605
0.000328978
0.000331659
0.000341982
0.000348485
0.000340622
0.000342132
0.000344915
0.000342195
0.000349701
0.000348569
0.000344186
0.000342244
0.00033326
0.000315638
0.000333631
0.000323048
0.000321572
0.000314035
0.00031505
0.000299559
0.00029635
0.000287151
0.000272629
0.000163693
0.000168101
0.000285598
0.00029658
0.000307227
0.00030662
0.000312578
0.000322736
0.000326666
0.000332927
0.000323533
0.000331266
0.000333283
0.000337163
0.000339677
0.000343945
0.000343913
0.000341479
0.000348831
0.000349755
0.000352463
0.000347383
0.000345609
0.00034601
0.000338036
0.000318343
0.000335725
0.000327787
0.000326216
0.00032243
0.000316686
0.000304824
0.000302626
0.000295719
0.000274988
0.000160792
0.000160924
0.00028735
0.000300458
0.000304902
0.000309558
0.000314241
0.00032977
0.000329693
0.000335615
0.000327829
0.000339665
0.000331504
0.00034002
0.000339756
0.000349744
0.000343733
0.000350288
0.000352957
0.000351368
0.000350597
0.000356207
0.000348179
0.000350796
0.000339177
0.000325519
0.000340434
0.000330509
0.000331005
0.000325292
0.000321119
0.000304644
0.000305506
0.000298668
0.000278139
0.000160476
0.000159707
0.000291269
0.000301995
0.000310304
0.000307872
0.000310593
0.000332601
0.000332084
0.000334562
0.000328663
0.000337958
0.000338821
0.000343053
0.000350507
0.000349256
0.000351848
0.000353698
0.000354227
0.000351504
0.000357974
0.000356809
0.000355007
0.000350723
0.000346788
0.000327953
0.000342173
0.000333142
0.000333814
0.000330366
0.000323073
0.000307634
0.000305851
0.000302039
0.000280723
0.000159443
0.000163306
0.000288632
0.000306713
0.000314474
0.000314936
0.000316709
0.00033462
0.00033075
0.000333959
0.000331532
0.000342176
0.000341021
0.000346925
0.000355219
0.000356309
0.000356227
0.00035587
0.000360534
0.000354606
0.000362167
0.00036083
0.000356445
0.000356258
0.000348056
0.000334508
0.000343723
0.000334514
0.000335763
0.000328803
0.000325884
0.000310625
0.000305325
0.000304692
0.000274146
0.000159049
0.000167547
0.000287357
0.000309641
0.000318385
0.000318931
0.000316194
0.000334222
0.000338944
0.00034164
0.000334213
0.000345323
0.000344273
0.000345787
0.000354012
0.000356112
0.000355781
0.000355694
0.000362603
0.000357599
0.000358799
0.000364246
0.000356626
0.000357289
0.000354668
0.000337552
0.000340252
0.000338585
0.000335589
0.000333249
0.000325665
0.000319146
0.000305155
0.000309181
0.000264965
0.000162454
0.00016133
0.000285515
0.00031537
0.00031989
0.000316696
0.000318859
0.000340889
0.000337611
0.00034529
0.000345598
0.000344837
0.000346245
0.000351671
0.000356025
0.000356331
0.000358139
0.000358648
0.000369216
0.000360823
0.000364591
0.000368782
0.000358956
0.000363555
0.000357768
0.000345022
0.000348438
0.000335885
0.000343006
0.000337433
0.000332845
0.000315842
0.000311307
0.000310419
0.000269984
0.000162255
0.000166444
0.000278652
0.000317063
0.000313876
0.000318239
0.000323378
0.000341553
0.000343661
0.000345578
0.000344947
0.000350904
0.000344463
0.000351766
0.000362789
0.0003604
0.000358814
0.00036746
0.000370735
0.000364768
0.00037073
0.000368414
0.000365489
0.000366357
0.000355187
0.000347918
0.000352403
0.00033967
0.000336839
0.000339813
0.000332256
0.000321071
0.000314746
0.000311023
0.00026923
0.000165365
0.000168168
0.000286724
0.000326754
0.000324165
0.000322143
0.000324277
0.00034526
0.000348074
0.000349439
0.00034022
0.000346605
0.000348716
0.000359857
0.000369381
0.000370199
0.000367872
0.000368337
0.000374827
0.000368434
0.000373681
0.000372166
0.000370335
0.000362562
0.000360318
0.000343973
0.000350931
0.000343296
0.000342225
0.000338492
0.000334834
0.000326778
0.000314035
0.000319197
0.000272129
0.000166304
0.000166828
0.000282429
0.000326261
0.000327421
0.000328341
0.000329875
0.000350905
0.0003488
0.000353263
0.000347667
0.000347364
0.000352509
0.000362648
0.000370469
0.000372449
0.0003697
0.000369496
0.000377293
0.00036444
0.000374356
0.000373833
0.000371025
0.000369543
0.00036426
0.000351705
0.000350408
0.000344992
0.000351801
0.000338507
0.00034718
0.000328991
0.000319268
0.000322054
0.000272225
0.000166954
0.000163535
0.000279325
0.000322869
0.000322781
0.000325552
0.000332315
0.000347698
0.00034625
0.000348891
0.000355532
0.000361827
0.000359092
0.000362842
0.000369344
0.000367395
0.000366671
0.000371586
0.000381791
0.000367924
0.000373407
0.000377017
0.00037113
0.000371207
0.000367569
0.000357325
0.000358665
0.000348252
0.000347884
0.000343496
0.000338497
0.00032743
0.000315216
0.00030962
0.000262763
0.000166117
0.000166186
0.000273392
0.000325085
0.000327375
0.000331892
0.000338893
0.000344899
0.000352002
0.000351406
0.000358004
0.000364918
0.000360235
0.000364137
0.000367656
0.000373456
0.000369386
0.000376645
0.000384927
0.000373189
0.0003787
0.000383262
0.000373738
0.000374126
0.000371087
0.000365471
0.00036399
0.000342268
0.000337998
0.000342901
0.000337388
0.000328019
0.000322583
0.000324867
0.000259627
0.00016673
0.000167836
0.000274032
0.000342443
0.000338181
0.00033773
0.000338959
0.000346977
0.000356633
0.000352784
0.000358226
0.000358464
0.0003628
0.000367458
0.000370973
0.000380597
0.000370706
0.00038257
0.000390522
0.000370695
0.000382148
0.00038767
0.000384442
0.000374111
0.000369655
0.000360949
0.000365572
0.000350768
0.000341396
0.000337408
0.000341917
0.000337045
0.000329077
0.000327351
0.000259715
0.000166781
0.000159442
0.000272379
0.000340539
0.000336311
0.000340194
0.000341031
0.000361572
0.000361464
0.000358341
0.000359886
0.000364521
0.000362592
0.000367621
0.000381178
0.000385134
0.000375941
0.000370028
0.00038007
0.000364943
0.000381996
0.000377009
0.000382531
0.000379438
0.000367452
0.000357664
0.000359273
0.000356372
0.000344463
0.000338001
0.000345292
0.00033133
0.000316338
0.000321877
0.000257654
0.000165426
0.000161179
0.00027304
0.000328898
0.000325863
0.000333432
0.000339073
0.000356714
0.000360585
0.000365138
0.000368123
0.000368353
0.000363466
0.000366529
0.000375038
0.000384982
0.00037208
0.000375486
0.000385294
0.000371274
0.000375538
0.000375415
0.000385692
0.00038257
0.000370927
0.00036282
0.000366241
0.00036369
0.00035048
0.000340395
0.000349266
0.000327436
0.000320813
0.00033824
0.000253731
0.000161445
0.000160812
0.0002684
0.000329399
0.000328992
0.000334931
0.000342869
0.000345691
0.000354887
0.000363667
0.000365274
0.000375808
0.00036902
0.000373422
0.000373783
0.000376067
0.000372652
0.000385271
0.000390224
0.000372762
0.000380186
0.000389356
0.000390838
0.000384545
0.000380875
0.000374821
0.000374482
0.000362863
0.00034964
0.000344148
0.000355425
0.00032984
0.000341428
0.000333372
0.000250145
0.000160093
0.000161486
0.000280248
0.000351691
0.00033948
0.000346686
0.000351783
0.000353678
0.000359542
0.000365727
0.00036103
0.000377331
0.000381322
0.000375997
0.00037367
0.000380644
0.000368942
0.000383712
0.000394587
0.000374873
0.000381355
0.0003905
0.000388709
0.000387098
0.000376319
0.00037541
0.000373634
0.000356188
0.000347332
0.000346188
0.000342033
0.000334379
0.000329658
0.000321083
0.000246694
0.000161441
0.0001579
0.00027588
0.000350299
0.000330549
0.000342651
0.000354306
0.000354636
0.000366435
0.000364792
0.000365874
0.000371836
0.000364281
0.00037301
0.000384277
0.000386932
0.0003763
0.000379295
0.000392492
0.000378924
0.000381086
0.000386554
0.000384393
0.000380335
0.000371315
0.000371022
0.000365091
0.000359432
0.000350733
0.000348948
0.000349245
0.000338206
0.000323474
0.000331487
0.00024855
0.000164357
0.000160816
0.000260837
0.000336585
0.000332891
0.000339437
0.000351194
0.000355688
0.000368376
0.000368957
0.000365793
0.000365437
0.000363017
0.000363994
0.000389245
0.000391621
0.000383144
0.0003779
0.000389016
0.000378799
0.000375634
0.00038686
0.000387405
0.000387122
0.000379059
0.000370492
0.000373962
0.000361656
0.00036276
0.00034515
0.000356894
0.000339099
0.000338997
0.000346674
0.000252256
0.000167861
0.000163858
0.000244307
0.00033852
0.000340724
0.0003424
0.000348136
0.000363815
0.000368733
0.000372883
0.000364777
0.000375083
0.000366
0.000374751
0.000390246
0.000392194
0.000391306
0.000386767
0.000395136
0.000383487
0.000374207
0.000386783
0.000390756
0.000389577
0.000375458
0.000373034
0.000373721
0.000367232
0.000360093
0.000340374
0.000359215
0.00033926
0.0003384
0.000338372
0.000249983
0.0001657
0.000163997
0.000244134
0.000342009
0.000339071
0.000336857
0.000347883
0.000356598
0.000362543
0.000368201
0.000360321
0.000377398
0.000366284
0.000378241
0.000386955
0.000383569
0.000389246
0.000387944
0.000397077
0.000391635
0.000376658
0.000385991
0.000391257
0.000387658
0.000382565
0.000373651
0.000378211
0.000359238
0.000360071
0.000345254
0.000355451
0.000337583
0.000329188
0.000320696
0.00024906
0.000172065
0.000165299
0.000251931
0.000345071
0.000333479
0.000335104
0.000350455
0.00035718
0.000367574
0.000365784
0.000362447
0.000376103
0.000360412
0.000375731
0.000387944
0.000384639
0.000383055
0.000387341
0.000398086
0.000392523
0.000383152
0.000386154
0.000392338
0.000389045
0.000383347
0.000374107
0.000377679
0.000354899
0.00035982
0.00035123
0.00035809
0.000342517
0.000331054
0.000332778
0.000251717
0.000179086
0.000171295
0.000258489
0.000348155
0.000344372
0.000338509
0.000351391
0.000358065
0.000363746
0.000368418
0.000365334
0.000376425
0.00036399
0.000370457
0.000389369
0.000384612
0.000388921
0.000386604
0.000399597
0.000396585
0.000388294
0.000388968
0.000392209
0.00038908
0.000381579
0.000374075
0.000375554
0.00036029
0.000359034
0.000357464
0.000357177
0.000344466
0.000350622
0.00033417
0.000251403
0.00018231
0.000176099
0.000254393
0.000334254
0.000343715
0.000336625
0.000356159
0.000358825
0.000370146
0.000366213
0.000371489
0.00037614
0.000360101
0.000368558
0.000389469
0.000382767
0.000387036
0.000391893
0.000395219
0.000393275
0.000384817
0.000389262
0.000388519
0.00038414
0.000387336
0.000374361
0.000380964
0.000360359
0.000353405
0.000354318
0.000360471