/*--------------------------------*- C++ -*----------------------------------*\
  =========                 |
  \\      /  F ield         | OpenFOAM: The Open Source CFD Toolbox
   \\    /   O peration     | Website:  https://openfoam.org
    \\  /    A nd           | Version:  8
     \\/     M anipulation  |
\*---------------------------------------------------------------------------*/
FoamFile
{
    version     2.0;
    format      ascii;
    class       volScalarField;
    location    "50";
    object      k;
}
// * * * * * * * * * * * * * * * * * * * * * * * * * * * * * * * * * * * * * //

dimensions      [0 2 -2 0 0 0 0];

internalField   nonuniform List<scalar> 
78750
(
0.0322823
0.0448983
0.046055
0.0468166
0.0484558
0.0541842
0.0544899
0.0562693
0.0582321
0.0596629
0.0617567
0.0617055
0.0649444
0.0660304
0.0681896
0.0695072
0.070006
0.0729966
0.0718283
0.0689087
0.0658325
0.064761
0.0647725
0.063127
0.0611737
0.060093
0.0566887
0.0557493
0.0531576
0.0534278
0.0490681
0.0462299
0.0438463
0.0433003
0.0314503
0.0306346
0.0417823
0.0426349
0.0431766
0.044067
0.0486644
0.0489983
0.051382
0.0540024
0.0559018
0.057911
0.0587238
0.0616287
0.0630359
0.0648538
0.0660382
0.066574
0.0692776
0.0684968
0.0658827
0.0627728
0.0621624
0.0622899
0.06044
0.0581462
0.0571351
0.0534446
0.0517009
0.0486441
0.0489513
0.044814
0.0427758
0.0403245
0.039802
0.0295205
0.0284924
0.0377045
0.038184
0.0388172
0.0396613
0.0442689
0.0454996
0.0472882
0.049496
0.0516561
0.0531581
0.0546278
0.0575415
0.058695
0.0599341
0.0610835
0.0616199
0.0638161
0.0634241
0.0612293
0.0584435
0.0579032
0.0579113
0.0557765
0.0540698
0.0530271
0.0492323
0.0476534
0.0454146
0.0447562
0.0401087
0.0382801
0.036434
0.0360556
0.0276444
0.0269772
0.0330672
0.0334447
0.034046
0.034555
0.0378554
0.0388508
0.040902
0.0428109
0.0451201
0.0463585
0.0482977
0.0509412
0.0523046
0.0536467
0.0550598
0.0555939
0.0582589
0.0574394
0.0553669
0.0528786
0.0519953
0.0511912
0.0491163
0.0474637
0.0462677
0.0429898
0.0411441
0.0389307
0.038528
0.0349495
0.0335743
0.0321981
0.0319806
0.0264538
0.0257212
0.0296766
0.0292941
0.0298466
0.030261
0.0327424
0.0337007
0.035395
0.0368886
0.0391175
0.0401885
0.0421703
0.0444236
0.0457317
0.0474008
0.0487971
0.0497272
0.0525271
0.0512144
0.0490555
0.0471218
0.0458492
0.0447716
0.0427558
0.0412652
0.040045
0.0372462
0.0355502
0.0338758
0.0334803
0.0305207
0.0294804
0.028531
0.028928
0.0253152
0.0244036
0.0262094
0.0257529
0.0262676
0.0266077
0.0285819
0.0294802
0.0309136
0.0322131
0.0340371
0.0349619
0.0368123
0.0388165
0.0401313
0.0418343
0.0431836
0.0441775
0.0469844
0.0455924
0.0435551
0.0418744
0.0404085
0.039251
0.0373067
0.0360447
0.0348925
0.0327752
0.031319
0.0297735
0.0292195
0.0268741
0.0260405
0.0251559
0.0259136
0.0243783
0.0233916
0.0235575
0.0226977
0.0232519
0.0236019
0.0251249
0.0259929
0.027164
0.0281627
0.0298075
0.0306134
0.0322041
0.0338825
0.0350445
0.0369443
0.0380345
0.0392849
0.0419387
0.0403407
0.0384636
0.0370595
0.0354577
0.0343022
0.0327422
0.0315285
0.0304585
0.0287543
0.0276315
0.026244
0.0257317
0.0237562
0.0231021
0.0223757
0.023267
0.0234224
0.0223703
0.0214659
0.0202665
0.0207754
0.0210503
0.0222553
0.0230358
0.0241414
0.0249588
0.0261912
0.0268826
0.0282789
0.0297271
0.0307959
0.0325253
0.0336211
0.0347689
0.0372316
0.0356374
0.0340812
0.0327706
0.0312627
0.0301947
0.0287997
0.0277617
0.0268597
0.0255554
0.0245119
0.0233946
0.0227656
0.0212322
0.0206772
0.0199825
0.0213347
0.0227127
0.0216535
0.0197161
0.0182077
0.0187093
0.0189795
0.0199274
0.020646
0.0215511
0.0222322
0.0233194
0.0239213
0.0250749
0.0262588
0.0272173
0.0288033
0.0296892
0.0308832
0.033077
0.0315314
0.0301699
0.0290194
0.027654
0.026703
0.025614
0.0246375
0.0238491
0.0227721
0.0219547
0.0209144
0.0203678
0.0190766
0.0186049
0.0180791
0.0196175
0.0219265
0.0209217
0.0183585
0.0165847
0.0170268
0.0172313
0.0179822
0.0185872
0.0194553
0.0200205
0.0208958
0.021375
0.0224127
0.0234108
0.0243131
0.0256249
0.0264307
0.0274634
0.0293749
0.0280205
0.0269
0.0258418
0.0246784
0.0238675
0.0229241
0.022098
0.0213943
0.0204893
0.0197461
0.0188951
0.0183226
0.017349
0.0169968
0.0164878
0.0183065
0.0213097
0.020306
0.0172681
0.0152465
0.0156473
0.0158158
0.0163731
0.0169005
0.0176232
0.0181363
0.0188878
0.0193291
0.0201873
0.0210224
0.0218367
0.0229566
0.0236063
0.0245946
0.0262005
0.0250057
0.0240293
0.0231195
0.0221193
0.0214288
0.0207073
0.0199062
0.0192913
0.0185195
0.0179209
0.0171751
0.0166766
0.0158736
0.0156075
0.0152044
0.0171895
0.0206014
0.0196079
0.0164257
0.014233
0.0145132
0.0146343
0.015058
0.0154878
0.0161264
0.0165837
0.0171983
0.017574
0.0183135
0.019031
0.0197421
0.0206737
0.0212653
0.0220869
0.023445
0.0224265
0.0216571
0.0207924
0.0199791
0.0194042
0.0187883
0.0180803
0.0175353
0.0169041
0.0163679
0.0157806
0.015286
0.0147132
0.0145229
0.0141963
0.0164094
0.0199281
0.0189534
0.0157216
0.013411
0.0135983
0.0136845
0.0139731
0.0143183
0.0148434
0.0152578
0.0157661
0.016113
0.0167314
0.017339
0.0179983
0.0187481
0.0192422
0.0199899
0.0210854
0.0202245
0.0195754
0.0188552
0.018163
0.0176684
0.0172005
0.0165324
0.0160699
0.0155116
0.0150773
0.0145831
0.0141621
0.0137128
0.0135758
0.0134132
0.0156768
0.0191572
0.0182022
0.0151474
0.012768
0.0128238
0.0128827
0.013094
0.0133514
0.0137898
0.0141481
0.0145969
0.0148791
0.0154056
0.0159273
0.01649
0.0170931
0.0175498
0.0181722
0.0190869
0.0183806
0.0178496
0.0171727
0.0166288
0.0162403
0.0158279
0.0152253
0.0148243
0.0143629
0.014001
0.0136046
0.013227
0.012924
0.0128427
0.0127771
0.0150946
0.0183971
0.0174689
0.0146192
0.0122379
0.0122103
0.0122215
0.0123444
0.0125375
0.0128931
0.0132257
0.0135648
0.0138451
0.0142917
0.0147387
0.0152415
0.015713
0.0161115
0.0166421
0.0173727
0.016778
0.0163529
0.0157904
0.0153349
0.014993
0.0146787
0.0141414
0.0137813
0.0133707
0.0130773
0.0127618
0.0124388
0.0122282
0.0122022
0.0122517
0.0145243
0.0175789
0.0166728
0.0141164
0.0118218
0.0116745
0.011653
0.0117164
0.0118561
0.0121267
0.0124092
0.0127469
0.0129668
0.0133282
0.0137126
0.0141461
0.0145144
0.0148578
0.0153209
0.0159231
0.0154471
0.0150782
0.0145708
0.0142301
0.0139604
0.013663
0.0131881
0.0128855
0.012541
0.0123029
0.0120478
0.011792
0.0116577
0.0116812
0.0118144
0.014005
0.016771
0.0159339
0.013644
0.0114457
0.0112214
0.0111594
0.0111863
0.0112697
0.0114788
0.011736
0.0119663
0.0121817
0.0125208
0.0128446
0.0132008
0.0135051
0.0138255
0.0141761
0.0146588
0.0142732
0.0139887
0.0135687
0.0132627
0.0130317
0.0128073
0.0124018
0.0121125
0.0118239
0.0116275
0.0114236
0.0112056
0.0111412
0.0112131
0.0114462
0.0134962
0.0159375
0.0151286
0.0131589
0.0111415
0.0108244
0.010716
0.0106818
0.0107389
0.0108893
0.0111196
0.0113515
0.0115184
0.0117746
0.012055
0.0123853
0.0126055
0.0128737
0.0131917
0.0135961
0.0132795
0.0130264
0.0126502
0.0124434
0.0122576
0.0120237
0.0116678
0.0114388
0.0111747
0.0110154
0.0108551
0.0107006
0.0106962
0.010795
0.0111016
0.0129935
0.0151415
0.0144342
0.0127083
0.0108187
0.0104319
0.0102962
0.0102297
0.0102619
0.0103771
0.0105606
0.0107297
0.0109013
0.0111511
0.0113875
0.0116254
0.0118352
0.012082
0.0123171
0.0126403
0.0123987
0.0121865
0.0118866
0.0116812
0.0115247
0.0113454
0.0110468
0.0108231
0.0106221
0.0104802
0.0103444
0.0102244
0.010246
0.0104159
0.0107988
0.0125017
0.0143552
0.0136606
0.0122186
0.010558
0.0100756
0.00991675
0.00979659
0.00982136
0.00988471
0.0100809
0.01022
0.0103498
0.0105524
0.0107482
0.010991
0.0111215
0.0113466
0.011543
0.0118201
0.0116187
0.0114417
0.0111747
0.0110361
0.0109019
0.0107109
0.0104532
0.0102793
0.0100891
0.00995136
0.00985272
0.00976564
0.00986214
0.010039
0.0104763
0.011997
0.0135868
0.0129995
0.0117558
0.0102469
0.00972428
0.00951818
0.00936588
0.00938006
0.00944748
0.00957385
0.00969409
0.00984778
0.0100266
0.0101983
0.0103661
0.0105122
0.0106942
0.010863
0.0110838
0.0109357
0.010756
0.0105512
0.0104145
0.0103089
0.0101536
0.00993645
0.00976464
0.0096164
0.00949583
0.00939784
0.00934496
0.00944906
0.00968015
0.010177
0.0114772
0.0128505
0.0122628
0.0112384
0.00996628
0.00936742
0.00916227
0.00897893
0.00899172
0.00901303
0.00915795
0.00925403
0.00935232
0.00952872
0.00968657
0.00982964
0.00992396
0.0101168
0.0102267
0.0104167
0.0102948
0.0101663
0.00999123
0.00987734
0.00977382
0.00962076
0.00943471
0.00928738
0.00916502
0.00903404
0.00896483
0.00891062
0.00908011
0.00932812
0.0098477
0.0109623
0.0121138
0.0116019
0.0107329
0.00963705
0.00903565
0.00877856
0.00857275
0.0085802
0.00861829
0.00872454
0.00879585
0.0089424
0.00907938
0.00919924
0.00933448
0.00942708
0.00956301
0.00968647
0.00983592
0.00975558
0.0095967
0.00946447
0.00936923
0.00929591
0.00914842
0.00900167
0.00885133
0.00874841
0.00861826
0.00853916
0.00851574
0.00870434
0.00895995
0.00951004
0.010395
0.0113882
0.0108917
0.01019
0.00931067
0.00866797
0.00840871
0.00819452
0.00819644
0.0082167
0.00830515
0.00838924
0.00850188
0.0086324
0.00879278
0.00885436
0.00893191
0.00910145
0.00915633
0.00928218
0.00920661
0.00911365
0.00901354
0.00889777
0.00882003
0.00870801
0.00855813
0.00844131
0.00833802
0.0082187
0.00814564
0.0081133
0.00831828
0.00863289
0.00915369
0.00984964
0.0107017
0.0101748
0.0096054
0.00893261
0.00833346
0.00804808
0.00781574
0.00783658
0.00784023
0.00794072
0.00799831
0.00812447
0.00825314
0.00835106
0.00845276
0.00851704
0.0086156
0.0087004
0.00880506
0.00876247
0.00862756
0.00854503
0.00848143
0.00842817
0.00826734
0.00817697
0.00802207
0.00795798
0.00781598
0.00773407
0.00771667
0.0079843
0.00823284
0.00874929
0.00924696
0.0099109
0.00944173
0.00901871
0.00853131
0.00795179
0.00765956
0.00742229
0.0074131
0.00745369
0.00749187
0.00756393
0.00774198
0.00781061
0.007992
0.00801986
0.00805384
0.00820018
0.0082386
0.00832157
0.00828744
0.0082062
0.00815772
0.00804366
0.00797887
0.00789757
0.00776281
0.00767678
0.00757004
0.00744684
0.00736741
0.00735014
0.00755701
0.00789115
0.00834912
0.00865331
0.00925063
0.00874511
0.00843032
0.00810421
0.00757012
0.00726287
0.00707391
0.00707326
0.0070531
0.0071655
0.00722262
0.00733223
0.00747222
0.00757448
0.00762402
0.00769694
0.00779118
0.00782781
0.00788667
0.00787041
0.00777604
0.00772269
0.00765221
0.00761527
0.0074615
0.00739914
0.00724693
0.00718669
0.00705218
0.00696971
0.00693593
0.00721601
0.00747518
0.00787721
0.00806281
0.00845466
0.00795442
0.00774185
0.00761439
0.00715966
0.00689386
0.00663262
0.00665793
0.00668976
0.00669376
0.00676431
0.00698476
0.00701527
0.00721047
0.00725386
0.00722891
0.00732978
0.00738336
0.00746201
0.00742452
0.00735866
0.00733485
0.00724389
0.00719695
0.00707402
0.00699207
0.00689755
0.00680172
0.00665561
0.00656534
0.00658487
0.00678069
0.00706628
0.00739283
0.00740758
0.00775684
0.00721718
0.00714716
0.00715971
0.00674688
0.00642848
0.00626204
0.00624223
0.00625029
0.00635888
0.00640647
0.00656833
0.00665294
0.00679236
0.00677977
0.00687235
0.00698085
0.00697862
0.00698997
0.00702638
0.00693323
0.00691008
0.00684838
0.0067941
0.00670404
0.00658331
0.0064648
0.00642366
0.00631806
0.00620282
0.00613896
0.00638663
0.00662912
0.0069115
0.00683048
0.00699471
0.00650523
0.00645281
0.00656274
0.00626411
0.00602487
0.00586381
0.00586535
0.00587797
0.00584667
0.00592966
0.0061332
0.00622616
0.00640778
0.00645297
0.00643262
0.00650922
0.00653152
0.00660546
0.00655176
0.00650941
0.00651922
0.00639323
0.00637177
0.00622878
0.00623776
0.00612415
0.00598479
0.00582668
0.00575177
0.00578056
0.00594994
0.0061674
0.00635128
0.00613245
0.00631196
0.00591773
0.00586403
0.00610641
0.00577019
0.00557506
0.00539844
0.00538066
0.00541849
0.00548688
0.0055072
0.0057222
0.00574019
0.00594698
0.00592507
0.00593036
0.00605268
0.00612211
0.00612565
0.00612838
0.00610925
0.00605498
0.00600681
0.00593552
0.00582335
0.00574389
0.00556845
0.00557942
0.00542053
0.00540158
0.00535146
0.00549607
0.00568021
0.00577273
0.00555104
0.00567921
0.00536656
0.00538438
0.00547868
0.00538261
0.00515783
0.00508226
0.00507896
0.00504292
0.00532718
0.00529209
0.00537871
0.00544295
0.00550559
0.00554744
0.005598
0.00563221
0.00563667
0.00566365
0.00566428
0.00561841
0.00561278
0.00557681
0.00551079
0.00543487
0.00530932
0.00532552
0.00523722
0.00517704
0.00497753
0.00500241
0.0051094
0.005264
0.00535089
0.00524544
0.00527947
0.00518084
0.00512987
0.00507871
0.00493076
0.00483826
0.00473257
0.00496152
0.0048546
0.00511307
0.00506309
0.00501741
0.00515831
0.00522927
0.00537911
0.00533202
0.0054543
0.00524777
0.0053402
0.00535668
0.00533746
0.00531261
0.00521251
0.00524982
0.00509541
0.00509096
0.00520229
0.00483866
0.00501543
0.00481033
0.00465792
0.00485678
0.00480103
0.00491018
0.00493364
0.00525965
0.00504765
0.00502023
0.00487797
0.00466887
0.00479371
0.00471053
0.00478781
0.00463783
0.00498856
0.00493689
0.00482199
0.00496259
0.00497459
0.00514617
0.0050633
0.00511347
0.00506061
0.00510964
0.00519488
0.00501022
0.0051003
0.00491826
0.00493681
0.00507823
0.00488235
0.00503556
0.00470123
0.00483019
0.00472865
0.0045906
0.00458962
0.00462282
0.00463037
0.00490122
0.00520322
0.00506393
0.00493547
0.0047121
0.00455186
0.00472697
0.00466451
0.00474197
0.00460491
0.00490976
0.00487831
0.00470909
0.00482633
0.00491858
0.0050591
0.00505907
0.00499703
0.00483499
0.0049705
0.00504801
0.00490129
0.00495005
0.00490485
0.00481529
0.0050296
0.00472832
0.00487334
0.00463973
0.00475986
0.00460719
0.00452573
0.00450079
0.00453392
0.00464241
0.00480378
0.00507587
0.00503948
0.00478897
0.00454719
0.00445199
0.00454217
0.00455887
0.00467821
0.00452918
0.0049292
0.00480794
0.00472589
0.0048447
0.00484399
0.0050114
0.00502355
0.00494718
0.00486106
0.00474796
0.00505194
0.0048529
0.00477813
0.00485803
0.00473965
0.00488763
0.00465643
0.00473261
0.00454176
0.00472253
0.00448495
0.00442802
0.00445685
0.00441548
0.00461501
0.00483095
0.00490686
0.00494563
0.00481075
0.00440516
0.00432642
0.00453198
0.00443569
0.00469416
0.00454423
0.00490846
0.00471468
0.00470332
0.00481993
0.00485699
0.00491318
0.00492677
0.00485687
0.00478877
0.00475486
0.00501701
0.00478127
0.00477317
0.00473629
0.00466699
0.00488252
0.00456146
0.00461832
0.00443417
0.00463119
0.00438266
0.00431941
0.00436226
0.00424899
0.00449822
0.00481454
0.00492333
0.00486229
0.00479154
0.00429156
0.00433273
0.00448795
0.00445259
0.00466777
0.00451688
0.0048321
0.00461436
0.00462524
0.00470936
0.00482826
0.00480826
0.00482822
0.00477413
0.004693
0.00469964
0.00489469
0.00466194
0.00473663
0.00464128
0.00454713
0.00484519
0.0045788
0.00447014
0.00432377
0.00450202
0.00427896
0.0042763
0.00425586
0.00425471
0.00451482
0.0047324
0.0048003
0.00487799
0.00475553
0.00413861
0.00430785
0.00437609
0.00443117
0.00457719
0.00442556
0.00471255
0.00450778
0.00451381
0.00471347
0.00473348
0.00466525
0.00474103
0.0046438
0.00456742
0.00457968
0.0048954
0.0046826
0.00463138
0.00457452
0.00458125
0.00474454
0.00455992
0.00447717
0.00425753
0.0044031
0.00417253
0.00422293
0.00417933
0.00423324
0.00448922
0.00459968
0.00486836
0.00487871
0.0047532
0.00417157
0.00421615
0.0042855
0.00433032
0.0044807
0.00433877
0.00471629
0.00442121
0.00453054
0.00468052
0.00462696
0.00467362
0.00462065
0.00465876
0.00460636
0.00460643
0.00486233
0.00467141
0.00457534
0.00460253
0.0045172
0.00464961
0.00448204
0.00445399
0.00418258
0.00429255
0.00420532
0.00415482
0.00421151
0.00417641
0.00440028
0.00464436
0.00486036
0.00480229
0.00463438
0.00416406
0.00423306
0.00426762
0.00434429
0.00435676
0.00423437
0.00468681
0.00429596
0.00451439
0.0045817
0.00450795
0.00464556
0.00462745
0.00463593
0.00460238
0.00451093
0.00474995
0.00463868
0.00449074
0.00458675
0.00457098
0.00453027
0.00443523
0.00437076
0.00423419
0.00430698
0.00420301
0.00419726
0.00420246
0.00409663
0.00432122
0.00464001
0.00479479
0.00489528
0.00467217
0.00413747
0.00422667
0.0041956
0.00432181
0.00436625
0.00425651
0.00458322
0.00430934
0.00444919
0.00448733
0.00446564
0.00454076
0.00460456
0.00456172
0.00453288
0.00455885
0.00475631
0.00462427
0.00453316
0.00451408
0.0045543
0.00454401
0.00441976
0.00433251
0.00424531
0.00421824
0.00418704
0.00414869
0.00417264
0.00401822
0.00421239
0.00463476
0.00473417
0.00488319
0.00467468
0.00413776
0.00419579
0.00409189
0.00424795
0.00434419
0.00424677
0.00458554
0.00428768
0.00436335
0.00435892
0.00438946
0.00455906
0.00453321
0.00444384
0.0045564
0.00455159
0.00473427
0.00461354
0.00454514
0.00445538
0.00454978
0.00452393
0.00435798
0.00426691
0.00423825
0.00426592
0.00419342
0.00420967
0.00416842
0.00406441
0.00416404
0.00463584
0.00482848
0.00480892
0.00465022
0.00413612
0.00409876
0.00411775
0.00413968
0.00427033
0.00422351
0.00455706
0.00419602
0.00437568
0.00437878
0.00429124
0.00453895
0.00445704
0.00447177
0.00455042
0.00452669
0.00465807
0.00453563
0.00453855
0.0044863
0.00451581
0.00445135
0.00426665
0.00431277
0.00424985
0.00425893
0.00413792
0.00421154
0.00413952
0.00406941
0.00409459
0.00460906
0.00483265
0.00489998
0.00457978
0.00411676
0.00414119
0.00411008
0.00416058
0.00426997
0.00422537
0.00445792
0.00421109
0.00435678
0.00430462
0.00430961
0.00447384
0.00451104
0.004456
0.00450879
0.00445069
0.00459156
0.00455721
0.00449055
0.00447825
0.00445169
0.00436936
0.00419176
0.0043267
0.00417737
0.00425396
0.0041737
0.00421356
0.00412544
0.00399698
0.00403649
0.00460184
0.0048399
0.0047943
0.00465671
0.00412149
0.00407844
0.00403093
0.00414711
0.00425959
0.00416448
0.00446187
0.00419694
0.00432429
0.00435385
0.00423602
0.00437711
0.00449425
0.00439298
0.00444234
0.00450028
0.0045764
0.00454169
0.00454353
0.00444957
0.00440957
0.00430052
0.00410147
0.00428306
0.00422093
0.00422749
0.00418036
0.00412763
0.0040942
0.00403654
0.00394986
0.00459651
0.0047889
0.00484967
0.00457617
0.00402588
0.00413021
0.00396676
0.00411454
0.00423972
0.00420015
0.0044356
0.00410021
0.0043188
0.00432706
0.0042871
0.00440929
0.00448975
0.00434033
0.00437418
0.00442484
0.00452434
0.0044582
0.00446657
0.00444443
0.0043656
0.00434036
0.00413616
0.00431688
0.00422196
0.00421867
0.00416785
0.00416663
0.0040885
0.00404691
0.00399272
0.00456291
0.0046615
0.00486117
0.00464337
0.0040599
0.00410964
0.00401964
0.00410697
0.00424261
0.00420747
0.00435523
0.00414543
0.00431076
0.00424639
0.00428415
0.00440087
0.00448438
0.00439065
0.00441415
0.00444828
0.0044108
0.00449415
0.00449044
0.00442102
0.00441645
0.00430249
0.00409409
0.00432266
0.0042083
0.00419913
0.00412134
0.00416171
0.00399955
0.00399946
0.00393087
0.00446099
0.00475494
0.00485137
0.00467019
0.00401344
0.00410523
0.00403947
0.0040752
0.00418624
0.00420793
0.00428305
0.00415367
0.00425025
0.00425901
0.00428439
0.00433698
0.00439467
0.00439254
0.00435134
0.00444473
0.00442454
0.00448726
0.00442998
0.00441493
0.00442005
0.00429921
0.00407573
0.00431018
0.00421439
0.00420259
0.00417603
0.00414038
0.00402919
0.00403612
0.00399897
0.00453171
0.004693
0.00475278
0.00468274
0.00400402
0.00402808
0.004034
0.00406149
0.00421668
0.00420882
0.00425959
0.00414586
0.00429003
0.00417358
0.00428213
0.00428444
0.00440561
0.00433301
0.00440154
0.00443135
0.00440958
0.00441671
0.00447752
0.00439686
0.00441186
0.00427896
0.00410765
0.00430777
0.00419427
0.00420357
0.00417805
0.00414124
0.00398338
0.00404297
0.00400234
0.00451066
0.00469128
0.00477704
0.00469079
0.00399434
0.00406799
0.00398408
0.00396325
0.00422091
0.00418745
0.00421077
0.00411183
0.00421625
0.00421953
0.0042825
0.00433336
0.00432599
0.00436427
0.00438666
0.00439257
0.00437951
0.00444385
0.00442377
0.00440223
0.00436369
0.00433823
0.00408797
0.00428249
0.00418633
0.00420531
0.00417998
0.00412784
0.00398466
0.00400472
0.00400887
0.00451544
0.00470755
0.00477078
0.00469016
0.00402258
0.00408045
0.00404096
0.00399907
0.00420668
0.00412876
0.00415231
0.00411626
0.00423799
0.00421527
0.00426444
0.00434515
0.0043734
0.00436966
0.00439136
0.0044457
0.00437445
0.00444681
0.00445249
0.00438021
0.00441547
0.00429122
0.00414959
0.0042725
0.00415999
0.0041872
0.00412109
0.00413057
0.00397421
0.00395964
0.00399786
0.00445514
0.00470207
0.00489711
0.00469475
0.00400687
0.00407488
0.00402723
0.00397169
0.00414901
0.00417845
0.00419867
0.00409973
0.00423338
0.00421531
0.00420721
0.00433534
0.00435929
0.00435393
0.00435586
0.00444378
0.00436669
0.00439272
0.0044571
0.00438741
0.00436815
0.00432564
0.00414917
0.00418158
0.00415751
0.00413045
0.00415127
0.00406814
0.00403838
0.00392116
0.00400651
0.00433908
0.00479279
0.0049221
0.00467467
0.00408737
0.00408236
0.00398493
0.00396345
0.00419978
0.0041263
0.00420529
0.00416038
0.00415404
0.00417387
0.00426308
0.00433904
0.00432377
0.00435009
0.00432051
0.00445955
0.00436253
0.00442388
0.00444145
0.00436789
0.00439578
0.00433289
0.00416673
0.00421777
0.00409213
0.00418474
0.00415595
0.0041117
0.00398328
0.0039762
0.00400465
0.00439966
0.00484299
0.00506321
0.00460482
0.00408876
0.00401568
0.00398676
0.00397572
0.00419941
0.00416925
0.00419273
0.00413576
0.00419665
0.00411541
0.00421602
0.00433012
0.00430709
0.00428768
0.00437601
0.0044244
0.00435872
0.00442985
0.00439058
0.00436484
0.00439507
0.0042705
0.00417196
0.00422934
0.00412627
0.0041168
0.00413819
0.00412792
0.00402461
0.0039983
0.00402375
0.00442348
0.00497904
0.00497186
0.00468763
0.00410749
0.00405882
0.00397693
0.00395884
0.00420129
0.00418463
0.00419428
0.00409959
0.00415534
0.00416337
0.00425202
0.00434209
0.00436187
0.00433453
0.00438336
0.00446225
0.004361
0.00441199
0.00444053
0.00436981
0.00432874
0.00429771
0.00413012
0.00422298
0.00413422
0.00413784
0.0041326
0.00412386
0.00403578
0.00394056
0.00401888
0.00443235
0.0049925
0.00506726
0.00460603
0.00406182
0.00407474
0.00404552
0.00402948
0.00418654
0.00416298
0.00418512
0.0041513
0.00414697
0.00418139
0.00426106
0.0043485
0.00437544
0.00433785
0.00438819
0.00447421
0.00430286
0.00440987
0.00444264
0.00436996
0.00436845
0.00429842
0.00419202
0.00419367
0.00407501
0.00413289
0.00410925
0.00413207
0.00403238
0.00397576
0.00403172
0.0044394
0.00504357
0.00508957
0.00466253
0.00412361
0.00408467
0.00400874
0.00402816
0.00412947
0.00412239
0.00411663
0.00415159
0.0042118
0.0041811
0.004264
0.00435443
0.00433285
0.00432673
0.00435451
0.00446864
0.00433202
0.0043948
0.00441343
0.00438107
0.00435125
0.00429188
0.00419445
0.00420177
0.00411317
0.0041209
0.00411005
0.00407033
0.00404816
0.00398122
0.00397472
0.00441068
0.00507554
0.00506999
0.00461351
0.00415063
0.00409411
0.00405459
0.00404006
0.00418329
0.00417252
0.00416769
0.00414756
0.0042154
0.00415445
0.00426881
0.00432013
0.00437647
0.00433435
0.00432033
0.00442652
0.00433628
0.00440277
0.00439013
0.00436703
0.00435723
0.00429213
0.00419734
0.00419648
0.00407393
0.00406116
0.00406692
0.00411743
0.00403729
0.00397919
0.00403129
0.00441381
0.00510726
0.00509402
0.00462612
0.0041533
0.00409751
0.00407172
0.0040176
0.0041851
0.00419351
0.00416877
0.00421461
0.00419872
0.00421545
0.00427039
0.00426969
0.00439453
0.0042633
0.00438071
0.00448422
0.00427803
0.00440628
0.00445284
0.00443036
0.00434489
0.00429056
0.00417726
0.00426373
0.00413428
0.00403638
0.0039897
0.00410624
0.00404482
0.00398271
0.00405376
0.00439417
0.00510876
0.00497522
0.00461466
0.0041125
0.00410344
0.00407473
0.00408164
0.00418899
0.00420479
0.0041485
0.0042148
0.00426256
0.00422022
0.00423446
0.00433058
0.00439136
0.00430931
0.00433607
0.00444002
0.00422489
0.00441031
0.00442644
0.00443792
0.00440563
0.00428318
0.00424083
0.00427463
0.00413967
0.00403491
0.00403744
0.00411502
0.003999
0.00398463
0.00406716
0.00430362
0.00511644
0.00509271
0.00469985
0.00418571
0.0040894
0.0040854
0.00408689
0.00417146
0.00418751
0.00421484
0.00422939
0.00426407
0.00424619
0.00422518
0.00430944
0.00440594
0.00427849
0.00436912
0.00448786
0.00428695
0.00433167
0.00436072
0.00444661
0.00440011
0.00427454
0.00424447
0.00425349
0.00416727
0.00403959
0.00405521
0.00410209
0.00400119
0.00396553
0.00407908
0.00426913
0.00502888
0.00500187
0.00469448
0.00413402
0.00404184
0.00408285
0.00407801
0.004119
0.00416982
0.00422155
0.00419763
0.00428622
0.00420326
0.00424422
0.00433359
0.00435858
0.00428763
0.00437762
0.00445258
0.00428606
0.00437642
0.00441301
0.00443998
0.00437101
0.00435106
0.00425094
0.00422945
0.00418699
0.00403455
0.00404793
0.00416595
0.00400256
0.00403613
0.00402715
0.00429541
0.00500497
0.00502672
0.0047122
0.00418222
0.00403585
0.0041004
0.00410776
0.0041698
0.00423561
0.00424677
0.00418408
0.00428111
0.0042423
0.0042308
0.00433189
0.00441564
0.00428861
0.0043749
0.00449273
0.00430908
0.00438839
0.00443532
0.0044549
0.00444002
0.00433372
0.00425826
0.00429904
0.00420468
0.00411044
0.00405876
0.00412137
0.00402455
0.00403837
0.00408395
0.00432219
0.00508467
0.00503448
0.00460199
0.00420076
0.00401218
0.00409284
0.00414143
0.004168
0.004244
0.00424628
0.0042148
0.00429426
0.00418096
0.00430987
0.00440638
0.00443866
0.00434673
0.00436603
0.00449976
0.0043564
0.00438129
0.00443243
0.00444021
0.00438624
0.00428242
0.00427095
0.00425128
0.00421013
0.00412597
0.00406451
0.00417821
0.00403864
0.00406
0.00410479
0.00437446
0.00513886
0.00514991
0.00467799
0.00414779
0.00408443
0.00410333
0.00415332
0.00416328
0.00420022
0.00426399
0.00415866
0.00423021
0.00424498
0.00424623
0.00440802
0.00445659
0.00434879
0.00435453
0.00448448
0.00436369
0.00432928
0.00445138
0.0044592
0.00444337
0.00434668
0.00427968
0.00430584
0.00413381
0.00416467
0.00402627
0.00414338
0.00404029
0.00405874
0.00409906
0.00446002
0.00529382
0.00522089
0.00461946
0.00419502
0.00409581
0.00409461
0.0041282
0.00424265
0.00424211
0.00427797
0.00417123
0.00429084
0.00420173
0.00429623
0.00443386
0.00447975
0.00444508
0.00445612
0.00456599
0.00443139
0.00432416
0.00446004
0.00449474
0.00447371
0.00430726
0.00431552
0.00429168
0.00420296
0.00414321
0.00402699
0.00419321
0.00411626
0.00401281
0.00411972
0.00450731
0.0053996
0.00531021
0.00462237
0.00420723
0.00411078
0.00403078
0.00413326
0.00418234
0.00425013
0.00425388
0.00418369
0.0043261
0.00417295
0.00431385
0.00444443
0.00440855
0.00446367
0.00446749
0.00457755
0.00451893
0.00435009
0.0044454
0.00450324
0.00445311
0.00439605
0.0043187
0.00436629
0.00416991
0.00419521
0.00410118
0.00422943
0.00411931
0.00407618
0.0040362
0.00456186
0.00557092
0.0054127
0.00463102
0.00412403
0.00409872
0.00402118
0.00414705
0.00422551
0.00432583
0.00425602
0.00422167
0.00433955
0.00413214
0.00431049
0.0044678
0.00443447
0.00441306
0.00445934
0.00458256
0.00452138
0.00441559
0.00444977
0.00451959
0.0044784
0.00440334
0.0043267
0.00436779
0.00413935
0.0042081
0.0041283
0.00425007
0.00410861
0.00403224
0.00410215
0.00464719
0.00562056
0.0055125
0.00468229
0.00416614
0.00411479
0.0040384
0.00412742
0.00423521
0.00425529
0.00429201
0.00424763
0.00435604
0.00419466
0.00426365
0.00447812
0.00444097
0.00448977
0.00444686
0.0045895
0.00455649
0.00446272
0.00447648
0.00451935
0.00448154
0.00438876
0.00432434
0.00435347
0.00421169
0.00420797
0.00418436
0.00422186
0.00410869
0.00410309
0.0040535
0.00465781
0.00580342
0.00564901
0.00470789
0.00417743
0.00406916
0.00404208
0.00420891
0.00424214
0.00431331
0.00427621
0.00430991
0.00436594
0.00416686
0.00424849
0.00449394
0.00446558
0.00450896
0.0045737
0.00459219
0.00457701
0.00447923
0.00453867
0.0045393
0.00448428
0.00451697
0.00437664
0.00446807
0.00423856
0.00416814
0.00420828
0.00430247
0.0041463
0.0041148
0.00403264
0.00474888
0.00584392
0.00568586
0.00478953
0.00408319
0.00404851
0.00414977
0.004204
0.0042178
0.00429118
0.00442454
0.00433283
0.00442134
0.00420326
0.00431551
0.00444731
0.00441944
0.00448331
0.00448251
0.0046388
0.00460098
0.00460752
0.00462427
0.00456531
0.00457271
0.0044745
0.00437793
0.00440377
0.00434281
0.00416305
0.00431902
0.00429084
0.00417088
0.00414559
0.00409764
0.00479604
0.0058597
0.00584329
0.00481585
0.0041568
0.00406994
0.00418164
0.00420938
0.00424916
0.00427745
0.00442376
0.00441659
0.00442053
0.00423804
0.0043783
0.00447144
0.00440729
0.00448613
0.00452563
0.00464522
0.00449861
0.00460649
0.00466451
0.00454321
0.00453853
0.00449779
0.00437523
0.00434133
0.00438987
0.00416817
0.00434578
0.0042625
0.00416988
0.00414762
0.00410957
0.00484188
0.00604198
0.006015
0.00491322
0.00411122
0.00407743
0.00421117
0.00411062
0.0042524
0.00435849
0.00440144
0.00442794
0.00441571
0.00424367
0.00446917
0.00446673
0.00444345
0.00448906
0.0044765
0.00465501
0.00453301
0.00461948
0.00467517
0.00460742
0.00452661
0.00449992
0.00426138
0.00439768
0.00440156
0.00422844
0.00431748
0.00425793
0.00418589
0.00416645
0.00423335
0.00490438
0.00606
0.00604298
0.00504566
0.00417539
0.00409827
0.00422267
0.00415517
0.00429857
0.00437321
0.00442374
0.004488
0.00430485
0.00428262
0.00446931
0.0045236
0.00444347
0.00455209
0.00453507
0.00468522
0.00446445
0.00463011
0.00473072
0.00462823
0.00451462
0.00453554
0.00432326
0.00439058
0.00450723
0.00423362
0.0044033
0.00425962
0.00419805
0.00411044
0.00427221
0.00498178
0.00612061
0.00624796
0.00507329
0.00427665
0.00420104
0.00427265
0.00409052
0.00437672
0.00440869
0.00443876
0.00452265
0.0043766
0.00429902
0.00460419
0.00453989
0.00459521
0.00460976
0.00455285
0.00472067
0.00453632
0.00460253
0.00475895
0.00461457
0.00450527
0.00455871
0.00431468
0.00443817
0.00454571
0.00436526
0.00441962
0.00432073
0.00427003
0.00419988
0.00436945
0.00500226
0.00602194
0.00627692
0.00509834
0.00435485
0.00423875
0.00427043
0.0041527
0.0044204
0.00444722
0.00435473
0.0046055
0.00433584
0.00442576
0.00465083
0.00474847
0.00466683
0.0047813
0.0046791
0.00484438
0.00459602
0.00468575
0.00487492
0.00468675
0.00453011
0.00459485
0.0043501
0.00451886
0.00457128
0.00443489
0.0044249
0.00432572
0.00429718
0.0041662
0.00438861
0.00497093
0.00615016
0.00647945
0.00510941
0.00436236
0.00426749
0.00436453
0.00420328
0.00453449
0.00458772
0.00443858
0.00460316
0.00438331
0.0045253
0.00468709
0.00478684
0.00474474
0.00481215
0.00469732
0.00483183
0.00460034
0.00471458
0.00478529
0.00468753
0.00456341
0.00455652
0.0043743
0.00459543
0.00456789
0.00451589
0.00441147
0.00437961
0.00431306
0.00416495
0.00448702
0.00508292
0.00620127
0.00654321
0.00514835
0.00441498
0.00425815
0.00435118
0.00423569
0.00447032
0.00459342
0.00435457
0.0046917
0.00437799
0.00457122
0.00464386
0.00481138
0.00477056
0.00482931
0.00473227
0.00478433
0.00460583
0.00472973
0.004815
0.00471863
0.00458039
0.00448007
0.00437837
0.00462379
0.00452337