/*--------------------------------*- C++ -*----------------------------------*\
  =========                 |
  \\      /  F ield         | OpenFOAM: The Open Source CFD Toolbox
   \\    /   O peration     | Website:  https://openfoam.org
    \\  /    A nd           | Version:  8
     \\/     M anipulation  |
\*---------------------------------------------------------------------------*/
FoamFile
{
    version     2.0;
    format      ascii;
    class       volScalarField;
    location    "50";
    object      nut;
}
// * * * * * * * * * * * * * * * * * * * * * * * * * * * * * * * * * * * * * //

dimensions      [0 2 -1 0 0 0 0];

internalField   nonuniform List<scalar> 
78750
(
0.000248175
0.000472834
0.000535312
0.000524043
0.000531398
0.000542245
0.000528693
0.000518
0.000525788
0.000521965
0.00052536
0.000515957
0.000527179
0.000526761
0.000521323
0.000521939
0.000508257
0.000495028
0.000513646
0.000515837
0.000506131
0.000513864
0.000530592
0.00052508
0.000519227
0.000526461
0.000511307
0.000522332
0.000515587
0.000530241
0.000530658
0.000523369
0.000511675
0.00045366
0.000238525
0.00043231
0.000788545
0.000828234
0.000829743
0.000852923
0.000861489
0.000849838
0.000839271
0.000879086
0.000866531
0.000876919
0.000869035
0.000884176
0.000887807
0.000872695
0.000822066
0.000844793
0.00083799
0.000824652
0.000867115
0.000843284
0.000862395
0.000899611
0.000889606
0.000880416
0.000892734
0.000861835
0.00087022
0.000843421
0.000857081
0.000857958
0.000831371
0.000788079
0.000755314
0.00041024
0.000396332
0.000747739
0.000817415
0.000816678
0.000843858
0.000882969
0.00089148
0.000880698
0.000901356
0.000918945
0.000919103
0.000914023
0.000917481
0.000918265
0.000905894
0.000886715
0.000891742
0.000841672
0.000856335
0.000900039
0.000893568
0.000914247
0.000943694
0.000929394
0.00091594
0.000929939
0.000898246
0.000889019
0.000887891
0.000898694
0.000836291
0.000806377
0.000774834
0.000706346
0.000384315
0.000502501
0.000696427
0.000825588
0.00083515
0.000846456
0.000934452
0.000911313
0.000943703
0.000915676
0.000968076
0.000925833
0.000974723
0.00102709
0.00103747
0.000979617
0.00107425
0.000974302
0.000977507
0.00112097
0.00100055
0.000987133
0.00100381
0.00100897
0.000987289
0.00101008
0.000983768
0.000940217
0.000914298
0.000903215
0.000916938
0.00087671
0.000828397
0.0007908
0.000685812
0.000491496
0.000574465
0.000778994
0.000869226
0.000895248
0.000914609
0.000930296
0.000937099
0.000926745
0.000964356
0.000992329
0.00101981
0.00105481
0.00109429
0.0010222
0.00110532
0.00105236
0.00108792
0.00113121
0.00103613
0.0010752
0.00104459
0.0010646
0.00108923
0.00106294
0.000978929
0.00104559
0.000976253
0.000986438
0.0009266
0.000946595
0.000903701
0.000900722
0.00086508
0.000751717
0.000540559
0.000586334
0.000799701
0.000771763
0.000812705
0.000793487
0.000801421
0.00083449
0.000837952
0.000896577
0.000877593
0.000904233
0.000919261
0.000892299
0.000947891
0.0009921
0.00104884
0.0010163
0.00104607
0.0010057
0.00105599
0.00102959
0.00103011
0.00100578
0.000920755
0.000892334
0.000934647
0.000911249
0.000874994
0.000860349
0.000849087
0.000793674
0.000802675
0.00073834
0.000779772
0.00059405
0.00060047
0.000801382
0.000703628
0.000702934
0.000752339
0.000839029
0.000798392
0.000862061
0.000814554
0.00088736
0.00082521
0.000883384
0.000897836
0.000970489
0.000933856
0.000942166
0.000934852
0.000965891
0.0010632
0.000954138
0.000939119
0.000914117
0.000886548
0.000896461
0.000968702
0.000872331
0.000830043
0.000842487
0.000789209
0.000833758
0.000791447
0.000710985
0.000707812
0.000816186
0.00060584
0.000500904
0.000784071
0.000739586
0.0006651
0.000707681
0.000728294
0.00075676
0.000792746
0.000796548
0.000841808
0.000853396
0.000893639
0.000941019
0.000899587
0.000950789
0.000919868
0.000980273
0.00102135
0.000974507
0.000895626
0.000893822
0.000852088
0.000845862
0.000904143
0.000876364
0.000869212
0.000827962
0.000787285
0.000774032
0.000751529
0.00071722
0.000683984
0.000728484
0.000744012
0.000519837
0.000405264
0.00061463
0.000715961
0.000669324
0.000624836
0.000623842
0.000710107
0.000691125
0.000769549
0.000729193
0.000771343
0.000779963
0.000807836
0.00082076
0.000853371
0.000919236
0.000905341
0.000957744
0.000909574
0.000906628
0.000900069
0.000865329
0.00084374
0.000787195
0.000732765
0.000776158
0.00079727
0.000717281
0.0007411
0.000666828
0.000625341
0.000630667
0.000688998
0.000619657
0.000413354
0.000383859
0.000489411
0.000540242
0.000584604
0.000603611
0.000628392
0.000653285
0.000628898
0.000664049
0.000676624
0.000692322
0.000701858
0.000712899
0.000744435
0.000791454
0.000801571
0.000813967
0.000892433
0.000843268
0.000825882
0.000818198
0.000792644
0.000762529
0.000706345
0.000680125
0.000678289
0.000679231
0.000689349
0.000638016
0.00063852
0.000589508
0.000566837
0.000569683
0.000514052
0.00037142
0.000379167
0.000489488
0.000450212
0.000532039
0.00053971
0.000564582
0.000572733
0.000607648
0.000592687
0.000624829
0.00060999
0.000644134
0.00063953
0.000709096
0.000708947
0.00071769
0.000745088
0.000785737
0.000779627
0.000749105
0.000733457
0.000708326
0.000695351
0.000655517
0.000665725
0.000633615
0.000598981
0.000608687
0.00057559
0.000574496
0.000546144
0.000538134
0.000456791
0.000477357
0.000382844
0.000379699
0.000481066
0.00043126
0.000473515
0.000502679
0.000514756
0.000504871
0.000542724
0.000540385
0.000567465
0.000565279
0.000577767
0.000610382
0.000612767
0.00063949
0.000637937
0.000673532
0.000716706
0.000672241
0.000653139
0.000625513
0.000612972
0.000602682
0.000603792
0.000595195
0.000566174
0.000544607
0.000549482
0.00052674
0.000526963
0.000494752
0.000487032
0.000416114
0.000465824
0.000386665
0.000380908
0.000484428
0.000418256
0.000452615
0.000459762
0.000468539
0.000478275
0.000506061
0.00050538
0.000515008
0.000521459
0.000536242
0.000559685
0.000561199
0.000581044
0.000589339
0.000608234
0.000632743
0.000599082
0.000600064
0.000572929
0.000563689
0.000553537
0.000550452
0.000543602
0.000522218
0.000510385
0.00049684
0.000491013
0.000480375
0.000462609
0.000446975
0.000408337
0.000476906
0.000394691
0.00038884
0.000473569
0.000414217
0.000436086
0.000444192
0.000457383
0.000464391
0.000474101
0.000476823
0.000488638
0.000487453
0.000502738
0.000515754
0.000525856
0.000543212
0.000548264
0.000563537
0.00058658
0.000571311
0.00055867
0.000543824
0.000526515
0.000523146
0.000513432
0.000497307
0.000496939
0.000491309
0.000487272
0.000469225
0.000461413
0.000443356
0.000435469
0.000416743
0.000474456
0.000393488
0.000393975
0.000485116
0.000408657
0.000422168
0.000427559
0.000437738
0.000443963
0.000458857
0.000464517
0.000471968
0.000474282
0.000482156
0.000493204
0.000502741
0.000512713
0.000523543
0.000543081
0.000562163
0.000550852
0.000537577
0.000515773
0.000509362
0.000499455
0.000495336
0.000478497
0.000481497
0.000465319
0.000460266
0.000446162
0.000441106
0.000429837
0.000422489
0.000410716
0.000484978
0.000396589
0.000395492
0.000483721
0.000407729
0.000411576
0.00041545
0.000422377
0.000427933
0.000435257
0.000444994
0.000451995
0.000463905
0.000468605
0.000476249
0.00048544
0.000493363
0.000499547
0.000521425
0.000539798
0.000518794
0.000507234
0.000491137
0.000490393
0.00047626
0.000476222
0.000455451
0.000457503
0.000445064
0.000434452
0.00043353
0.000431498
0.000414537
0.000417283
0.000409962
0.000482198
0.000394397
0.000391699
0.000482827
0.000405105
0.000399055
0.000410803
0.000409296
0.000415808
0.000417547
0.000426535
0.000432142
0.000441595
0.000448793
0.00045309
0.000461125
0.00046783
0.000480577
0.000490431
0.0005031
0.000489357
0.000477542
0.000472649
0.000462354
0.000458584
0.00046032
0.000442833
0.000433968
0.000434701
0.000416379
0.000418121
0.000414111
0.000401662
0.000403026
0.000397175
0.000477999
0.000388354
0.000384017
0.000476541
0.000398243
0.000394897
0.000400148
0.000405154
0.000404905
0.000406872
0.000410289
0.000416235
0.000412374
0.000419791
0.000430121
0.000438949
0.000446588
0.000457498
0.00045846
0.000475358
0.000464773
0.000457449
0.000452924
0.00044129
0.000441233
0.000439827
0.000426924
0.000415549
0.000414351
0.000409532
0.000409098
0.00040208
0.000402775
0.000392249
0.000392433
0.000471808
0.0003836
0.000372905
0.000467714
0.000388138
0.000393901
0.000389337
0.000396355
0.000391645
0.000396461
0.000395312
0.000404597
0.000401234
0.000408944
0.000415578
0.000420815
0.000427892
0.000435616
0.000438711
0.000450411
0.000442798
0.000439636
0.000431483
0.000425271
0.000426826
0.000420047
0.000411208
0.000402491
0.000403457
0.000404091
0.000399043
0.000390624
0.000391905
0.000389138
0.000392631
0.000461502
0.000375782
0.000360858
0.000458528
0.000390981
0.000390017
0.00038451
0.000384854
0.000382349
0.000384573
0.000389632
0.000393445
0.000397909
0.000400028
0.000405218
0.000414194
0.000415413
0.000423034
0.000423699
0.00043502
0.000428722
0.000425365
0.000417871
0.000414033
0.000405633
0.000408116
0.000399543
0.000395039
0.000392564
0.000390319
0.000383419
0.000383125
0.000383561
0.000390463
0.000392916
0.00045286
0.000360656
0.000348194
0.000449483
0.000393896
0.000387429
0.000376291
0.000374019
0.000372956
0.000377705
0.000378245
0.000381901
0.000391772
0.000391127
0.000394556
0.000405206
0.000403592
0.000408126
0.000413795
0.000424463
0.00042007
0.000414445
0.000405946
0.000407188
0.000402455
0.000399856
0.000390929
0.000391342
0.00037943
0.000380433
0.000372633
0.000374161
0.000375849
0.000385482
0.00039096
0.000441544
0.000342358
0.000331731
0.000440385
0.000395634
0.000382266
0.000370854
0.000365209
0.000366114
0.000368064
0.000371076
0.000376344
0.000378921
0.000383282
0.000387268
0.000391774
0.000390486
0.000396041
0.000403711
0.000410971
0.000412594
0.000407104
0.000397988
0.000394426
0.000390376
0.000387083
0.0003775
0.000378034
0.000370954
0.000370307
0.00036719
0.000365498
0.000367397
0.000378167
0.00038813
0.000430463
0.000328635
0.00031995
0.000431533
0.000388231
0.00037531
0.000363616
0.000358921
0.000357377
0.000358157
0.00036536
0.000364339
0.000370842
0.000377695
0.000380506
0.000382288
0.000385082
0.000389198
0.000395927
0.000399504
0.000398577
0.000392709
0.000387698
0.00038321
0.000381907
0.000377709
0.000373442
0.000368801
0.000365546
0.000362182
0.000358236
0.000354995
0.000355453
0.000371252
0.000382137
0.000415809
0.000311498
0.000303715
0.000418012
0.000383706
0.000363739
0.000353348
0.000349794
0.000352784
0.000351667
0.000355315
0.00035615
0.000361733
0.000368545
0.000370013
0.000370709
0.000378344
0.000384233
0.000386832
0.000390394
0.000382685
0.000379928
0.000376791
0.00037559
0.00037509
0.000371519
0.000364907
0.000360258
0.000356138
0.000353501
0.000349328
0.000347616
0.000352045
0.000366396
0.000376868
0.000400891
0.00029767
0.000284324
0.000399038
0.000379102
0.000357244
0.000346228
0.000339025
0.000346111
0.000344935
0.000346455
0.000351274
0.000353247
0.00035915
0.000362323
0.000363966
0.000368534
0.000371103
0.000378322
0.000378891
0.000376608
0.000370745
0.000367384
0.00036822
0.000368463
0.000363391
0.000356378
0.000348841
0.000349305
0.000343878
0.000336901
0.000338125
0.000348732
0.000356459
0.000366408
0.00038018
0.000278995
0.000264145
0.000378953
0.000367957
0.000349361
0.000336629
0.000330552
0.000331266
0.000335977
0.000336272
0.000338576
0.000345182
0.000346468
0.000357166
0.000355933
0.000356473
0.000360027
0.000364353
0.000365345
0.0003683
0.000361533
0.000359546
0.000357753
0.000354171
0.000352809
0.000346182
0.000341836
0.000339597
0.000333793
0.000329609
0.000327238
0.000336198
0.000348833
0.00035695
0.00036182
0.000261892
0.000248479
0.000360684
0.000356496
0.000341081
0.000325968
0.000323074
0.000320461
0.000323438
0.00032805
0.000328759
0.000332801
0.000337621
0.000346051
0.000345459
0.000348942
0.000353136
0.000350489
0.000354764
0.0003542
0.000349837
0.000348684
0.000348888
0.00034527
0.000340438
0.000336731
0.000328704
0.000326928
0.000321438
0.000318657
0.000313086
0.000324459
0.000335122
0.000345075
0.000341889
0.00024063
0.000228198
0.000335255
0.000341379
0.00033011
0.000313748
0.000309483
0.00030801
0.000310542
0.000311754
0.000313052
0.000323937
0.000324663
0.000335392
0.000334743
0.000333981
0.00034092
0.000336952
0.000344248
0.000339617
0.000339064
0.000337183
0.000336949
0.000335289
0.000327963
0.000325134
0.000319743
0.000313336
0.000309861
0.000303348
0.000304681
0.000310349
0.000320969
0.000330281
0.000320269
0.000221987
0.000208243
0.00031295
0.000326419
0.000314582
0.00029975
0.000296683
0.000294976
0.000297459
0.000302052
0.000303388
0.000311724
0.000315815
0.0003221
0.000320158
0.000324384
0.000331684
0.000327582
0.00033023
0.000331109
0.00032594
0.000324668
0.000321877
0.000322076
0.000316999
0.000313136
0.000307222
0.000302149
0.000299307
0.000292301
0.000290387
0.000298081
0.000306705
0.0003156
0.000300497
0.000202059
0.000187821
0.000287209
0.000303795
0.000298548
0.000289226
0.000282646
0.000283216
0.000285932
0.00028116
0.000287455
0.00029582
0.0003013
0.000309277
0.000311237
0.000310597
0.000314111
0.000313584
0.000318784
0.000317049
0.000312375
0.000314291
0.000306782
0.000306861
0.000300578
0.000302019
0.000295132
0.000289689
0.000279366
0.000276842
0.00027719
0.000283013
0.000292777
0.000294196
0.000273714
0.000182816
0.000172437
0.000263742
0.000289182
0.000280491
0.00027084
0.000262526
0.000263402
0.000267017
0.000268969
0.000271773
0.000280666
0.000282255
0.000292996
0.000290029
0.00029093
0.000296537
0.000301825
0.000299212
0.000300948
0.000297686
0.000295148
0.000295751
0.000291729
0.000286091
0.000281861
0.000272452
0.000275024
0.00026511
0.000262711
0.000262065
0.000266917
0.00027747
0.000272569
0.000251305
0.000164993
0.000157759
0.000245073
0.000263909
0.000264327
0.000253851
0.00025228
0.000251235
0.000250441
0.000267089
0.0002644
0.0002689
0.00027181
0.000275709
0.000276874
0.000279707
0.000280321
0.000282134
0.000280764
0.000282592
0.000280391
0.000279528
0.000279601
0.000275327
0.000271912
0.00026593
0.000265315
0.000261699
0.000258726
0.000246013
0.000248958
0.000251882
0.000262097
0.000257576
0.000240295
0.000155244
0.000152786
0.000237074
0.000249939
0.000246674
0.000243297
0.000240542
0.000249375
0.000244929
0.000260203
0.00025829
0.000256851
0.000262516
0.00026666
0.000274045
0.000272403
0.000277936
0.000266558
0.000271539
0.000271995
0.000271503
0.000270932
0.000266112
0.000267908
0.000260799
0.000259854
0.000265125
0.000245461
0.000255637
0.00024357
0.000235652
0.000242705
0.000239825
0.000242756
0.000228647
0.000155407
0.000148037
0.000234555
0.000245867
0.000238471
0.000244318
0.000242062
0.000244963
0.000239719
0.00025925
0.000256801
0.0002518
0.000257489
0.000258057
0.000267541
0.000263722
0.000266999
0.000262465
0.000266627
0.000269612
0.000259584
0.000265726
0.000256408
0.000257536
0.000264447
0.000253713
0.000262823
0.000243781
0.000250892
0.000244428
0.000236863
0.000234855
0.000234539
0.000233651
0.000230937
0.00015293
0.000149312
0.000233839
0.000241955
0.000235614
0.000245303
0.000242893
0.000248139
0.000243686
0.000259488
0.000258643
0.000250538
0.000256353
0.000260727
0.000268817
0.000268193
0.000265467
0.000256297
0.000263235
0.000268096
0.000259347
0.000261086
0.000261115
0.000255992
0.000267124
0.000250501
0.000258394
0.000245688
0.000251691
0.00024289
0.000237978
0.000235695
0.000234989
0.00023613
0.00022884
0.000149516
0.000148846
0.000229739
0.000235845
0.000233558
0.000240597
0.000242114
0.000251088
0.000244783
0.000265416
0.000259067
0.000255495
0.000262372
0.000263289
0.000272005
0.000272707
0.000268297
0.00026321
0.000256081
0.000274416
0.000262009
0.000257327
0.000263143
0.00025698
0.000264645
0.000252774
0.000255453
0.000244572
0.000254683
0.000241325
0.000236046
0.000237536
0.000231384
0.000238648
0.000230878
0.000144818
0.000145811
0.000231916
0.000232219
0.000231047
0.000244495
0.000240758
0.000255831
0.000249307
0.000268393
0.000259836
0.000258887
0.000265578
0.000269391
0.000270887
0.000272639
0.000267808
0.000264048
0.000262975
0.00027717
0.000263386
0.000262857
0.000260486
0.000258213
0.000268771
0.000252074
0.00025408
0.000243099
0.000253546
0.00023965
0.000233747
0.000235351
0.000226543
0.000236358
0.000231872
0.000145413
0.000144124
0.000232628
0.000229825
0.000236604
0.000246735
0.000245939
0.000259133
0.000250985
0.000269106
0.000259178
0.000259881
0.000264149
0.000271404
0.000269618
0.000271997
0.000267706
0.000262714
0.000264957
0.000273598
0.00026126
0.000265793
0.000260785
0.000255479
0.000270795
0.000256023
0.000249606
0.000241184
0.000250206
0.000236682
0.000234812
0.000232256
0.000231426
0.000242084
0.000229978
0.000142585
0.000144144
0.000232861
0.000226086
0.000238423
0.00024398
0.000247628
0.000258934
0.000250449
0.000266382
0.000256579
0.0002581
0.000268283
0.000270423
0.000265531
0.000271022
0.000265147
0.000260712
0.000261574
0.000278147
0.000267111
0.000265331
0.000261247
0.000261733
0.000270825
0.000259274
0.000253303
0.000241035
0.000249258
0.000234603
0.000236337
0.000232317
0.000234034
0.000245643
0.000225629
0.000144206
0.000143736
0.000236029
0.0002321
0.00023618
0.000242671
0.000246466
0.000256583
0.000249171
0.000271611
0.000255769
0.000262082
0.00027079
0.000268522
0.000270663
0.000268069
0.000269997
0.000268179
0.000267826
0.000282526
0.00027145
0.000265303
0.000267277
0.000261908
0.000270746
0.000259829
0.000256479
0.000241115
0.000246864
0.000241355
0.000237439
0.000237573
0.000235238
0.000245258
0.000229375
0.00014305
0.00014162
0.000232238
0.000234792
0.000241606
0.00024492
0.000251219
0.000253453
0.000247205
0.000274959
0.000251827
0.000265031
0.000270145
0.000265839
0.0002742
0.000273085
0.000273265
0.000272559
0.000266748
0.0002807
0.000274832
0.00026476
0.000270907
0.000269932
0.000267535
0.000261585
0.00025667
0.000247782
0.000251056
0.000245489
0.000243538
0.000241649
0.000234473
0.000243541
0.000231956
0.000141629
0.000144498
0.000235045
0.000235997
0.000244264
0.00024443
0.000254024
0.000258358
0.000253171
0.00027349
0.00025678
0.000266283
0.000269157
0.000267302
0.000272354
0.000276464
0.000273573
0.000271667
0.000273432
0.000285847
0.000277839
0.000272552
0.000271153
0.000273233
0.000272685
0.000265175
0.000258564
0.00025257
0.000250047
0.000248081
0.000244958
0.000244671
0.000231933
0.000239812
0.000233513
0.000139611
0.000143243
0.00023633
0.000239325
0.000245353
0.000242267
0.000252813
0.000261339
0.000256686
0.000277828
0.000260137
0.00026546
0.000265898
0.00026685
0.000277752
0.000277123
0.000271011
0.000277023
0.000276374
0.000289128
0.000281312
0.000277347
0.000270419
0.000277347
0.000275475
0.000265351
0.00025922
0.000256577
0.000258434
0.00025222
0.00025234
0.000248005
0.000237871
0.000240528
0.000234206
0.000141547
0.000140654
0.000237014
0.000241465
0.000243679
0.000247534
0.000249957
0.000259942
0.000259569
0.000279688
0.000257974
0.000270498
0.000270883
0.000265488
0.00028065
0.000277551
0.000276833
0.000280518
0.000279358
0.000287663
0.000280239
0.000280504
0.000277146
0.000278898
0.000275041
0.000263892
0.00026515
0.000261206
0.000262126
0.000251716
0.000254807
0.000249216
0.000242292
0.000240531
0.000234677
0.000141979
0.000144458
0.000234831
0.000244767
0.000249977
0.00024984
0.000254475
0.000263368
0.000262495
0.000277368
0.000262766
0.000273011
0.000269956
0.000269943
0.000280347
0.000283199
0.000279563
0.000282062
0.000279299
0.000288584
0.000285817
0.000281468
0.00028148
0.000278736
0.00027444
0.000262318
0.000269888
0.000260314
0.000264732
0.000257209
0.000257649
0.000250437
0.000241993
0.000239609
0.000234957
0.000141989
0.000139881
0.000238556
0.000247757
0.000249478
0.000247451
0.000257618
0.000265799
0.000261822
0.00028143
0.000266116
0.000274689
0.000276293
0.000269191
0.000277707
0.000285314
0.000278882
0.000281964
0.000286574
0.000291765
0.000288436
0.000289007
0.000282847
0.000280623
0.000273347
0.000259262
0.000271636
0.000266796
0.000265603
0.000261497
0.000256132
0.000251805
0.000246766
0.000237433
0.000235948
0.000139896
0.000139624
0.000236413
0.000245608
0.000255299
0.000247218
0.00025953
0.000268328
0.000267111
0.00028302
0.000262828
0.000278395
0.000278482
0.000275971
0.000284841
0.000289842
0.00027994
0.000282279
0.000286208
0.000290539
0.000287361
0.000288441
0.000287133
0.00028185
0.000278641
0.000265434
0.000277536
0.00027021
0.000268955
0.000263896
0.000262377
0.000254534
0.000250273
0.000243212
0.000236632
0.000136171
0.000141232
0.000241649
0.000250578
0.000256308
0.000253691
0.000261793
0.000271884
0.000271688
0.000281337
0.000269141
0.000280316
0.000277253
0.000279508
0.000288207
0.000293687
0.000287066
0.000288336
0.00029068
0.000288392
0.000294722
0.000293765
0.000290069
0.000288434
0.000280863
0.000266013
0.000281183
0.000272264
0.000271025
0.000264685
0.000265536
0.000252484
0.000249787
0.000242011
0.000229719
0.000137893
0.000141614
0.00024065
0.000249959
0.000258958
0.000258443
0.000263462
0.000272013
0.000275325
0.000280593
0.000272667
0.000279192
0.000280888
0.000284151
0.000286273
0.000289869
0.000289839
0.000287785
0.000293984
0.000294762
0.000297047
0.000292766
0.000291268
0.000291606
0.000284885
0.0002683
0.000282949
0.000276265
0.000274943
0.000271755
0.000266921
0.000256925
0.000255081
0.000249235
0.000231708
0.000135451
0.00013557
0.000242125
0.000253228
0.000256996
0.000260914
0.00026486
0.000277937
0.000277873
0.000282857
0.000276295
0.000286266
0.000279383
0.000286563
0.000286335
0.000294752
0.000289695
0.000295214
0.000297458
0.000296129
0.000295475
0.000300202
0.000293439
0.000295647
0.00028585
0.000274344
0.000286925
0.000278554
0.000278983
0.00027417
0.000270658
0.000256777
0.000257511
0.00025172
0.000234364
0.000135186
0.000134547
0.000245428
0.000254524
0.000261547
0.000259497
0.000261784
0.000280329
0.000279888
0.000281971
0.000276996
0.000284832
0.000285553
0.000289116
0.000295401
0.000294346
0.000296529
0.000298085
0.000298534
0.00029624
0.00030169
0.000300713
0.000299191
0.00029558
0.000292262
0.000276399
0.000288386
0.000280774
0.000281346
0.000278448
0.000272303
0.000259291
0.000257798
0.000254559
0.000236541
0.000134318
0.000137582
0.00024321
0.0002585
0.00026507
0.000265451
0.000266946
0.000282024
0.000278771
0.000281462
0.000279415
0.000288391
0.00028741
0.00029238
0.000299376
0.000300293
0.000300219
0.000299915
0.000303852
0.000298854
0.00030523
0.0003041
0.000300404
0.000300249
0.000293339
0.000281927
0.000289696
0.000281937
0.000282993
0.000277128
0.000274673
0.000261816
0.000257353
0.000256799
0.000231
0.000133988
0.000141156
0.000242136
0.000260971
0.000268362
0.000268816
0.000266508
0.000281694
0.000285674
0.000287937
0.000281673
0.00029104
0.000290146
0.000291419
0.000298355
0.000300124
0.000299851
0.000299775
0.000305591
0.000301385
0.00030239
0.000306983
0.000300565
0.00030112
0.000298906
0.000284489
0.000286774
0.000285362
0.00028285
0.000280879
0.000274489
0.000268998
0.000257217
0.000260582
0.000223271
0.000136859
0.000135922
0.000240589
0.000265799
0.00026963
0.000266935
0.000268754
0.000287317
0.00028455
0.00029102
0.000291269
0.00029063
0.000291814
0.000296379
0.000300053
0.000300313
0.000301834
0.000302264
0.000311167
0.000304096
0.000307271
0.000310802
0.000302524
0.000306398
0.000301524
0.000290789
0.00029367
0.000283091
0.000289097
0.000284404
0.00028054
0.000266212
0.000262396
0.000261624
0.000227501
0.000136694
0.000140233
0.000234809
0.000267223
0.000264568
0.000268235
0.00027257
0.000287874
0.000289656
0.000291258
0.000290728
0.000295751
0.000290315
0.000296466
0.000305753
0.000303743
0.000302403
0.000309692
0.000312447
0.000307426
0.000312445
0.0003105
0.000308034
0.000308764
0.000299353
0.000293234
0.000297012
0.000286284
0.000283903
0.000286409
0.000280048
0.000270616
0.000265294
0.000262134
0.000226868
0.000139316
0.000141688
0.000241615
0.000275395
0.000273235
0.000271523
0.000273321
0.000291001
0.000293371
0.000294517
0.000286744
0.000292125
0.000293896
0.00030328
0.000311312
0.000311999
0.000310041
0.000310432
0.000315896
0.000310516
0.000314936
0.000313659
0.000312117
0.000305566
0.000303674
0.000289907
0.000295779
0.000289338
0.000288445
0.000285297
0.000282217
0.000275431
0.000264698
0.000269022
0.000229312
0.000140109
0.00014056
0.000237995
0.000274979
0.000275983
0.000276751
0.000278043
0.000295759
0.000293984
0.000297744
0.000293022
0.000292764
0.000297097
0.000305638
0.000312232
0.0003139
0.000311579
0.00031141
0.000317983
0.000307147
0.000315503
0.000315065
0.000312703
0.000311449
0.000307002
0.000296423
0.000295331
0.000290767
0.000296513
0.000285309
0.000292627
0.000277299
0.00026911
0.000271436
0.000229395
0.000140658
0.000137789
0.000235385
0.000272117
0.000272075
0.000274401
0.000280103
0.000293053
0.000291832
0.000294056
0.000299649
0.00030496
0.000302649
0.000305806
0.000311281
0.000309641
0.000309033
0.000313169
0.00032177
0.000310087
0.000314708
0.000317757
0.000312789
0.000312854
0.000309795
0.000301167
0.000302291
0.000293519
0.000293212
0.000289518
0.000285313
0.000275981
0.000265693
0.000260953
0.000221422
0.000139956
0.000140025
0.000230386
0.000273987
0.000275945
0.000279742
0.000285645
0.000290699
0.000296684
0.000296176
0.000301737
0.00030756
0.00030361
0.000306897
0.00030986
0.000314747
0.000311319
0.000317438
0.000324418
0.000314525
0.000319173
0.000323018
0.000314988
0.000315313
0.000312757
0.000308027
0.000306782
0.000288474
0.000284878
0.000289012
0.000284375
0.000276477
0.000271906
0.000273804
0.000218782
0.000140474
0.000141418
0.000230927
0.000288617
0.000285055
0.000284667
0.000285701
0.000292448
0.000300588
0.000297345
0.000301927
0.000302125
0.000305773
0.000309697
0.000312655
0.000320766
0.000312432
0.000322434
0.000329137
0.000312421
0.000322075
0.000326734
0.000324013
0.000315305
0.000311555
0.00030422
0.000308117
0.000295643
0.000287745
0.000284386
0.000288195
0.000284092
0.000277379
0.000275897
0.000218864
0.000140519
0.000134348
0.000229536
0.000287013
0.000283477
0.000286746
0.000287447
0.00030475
0.000304658
0.000302023
0.000303325
0.000307233
0.000305606
0.000309842
0.00032126
0.000324598
0.000316851
0.000311864
0.000320326
0.000307578
0.00032195
0.000317748
0.000322402
0.000319801
0.000309702
0.000301456
0.000302807
0.000300362
0.00029033
0.000284886
0.000291039
0.000279269
0.00026664
0.000271286
0.000217126
0.000139379
0.000135814
0.000230094
0.000277202
0.000274673
0.000281045
0.0002858
0.000300661
0.000303921
0.000307755
0.000310268
0.000310458
0.000306338
0.000308918
0.000316082
0.000324466
0.000313594
0.000316465
0.00032473
0.000312915
0.00031651
0.000316406
0.000325066
0.000322437
0.000312629
0.000305796
0.000308683
0.000306535
0.000295401
0.000286903
0.000294387
0.000275991
0.000270411
0.000285078
0.00021382
0.000136028
0.000135506
0.000226189
0.000277624
0.000277311
0.000282309
0.000288999
0.000291367
0.00029912
0.000306519
0.000307866
0.000316744
0.000311023
0.000314727
0.00031503
0.000316958
0.000314077
0.000324711
0.000328885
0.00031417
0.000320425
0.000328153
0.000329403
0.000324105
0.000321013
0.000315917
0.000315628
0.00030584
0.000294696
0.000290071
0.00029958
0.000278018
0.000287789
0.000280973
0.000210799
0.000134891
0.000136077
0.000236173
0.000296416
0.000286149
0.000292224
0.000296511
0.000298101
0.000303044
0.000308252
0.000304291
0.00031803
0.000321394
0.000316904
0.00031494
0.000320817
0.000310951
0.0003234
0.000332565
0.00031595
0.00032141
0.000329122
0.000327611
0.000326256
0.00031718
0.000316411
0.000314911
0.000300213
0.00029275
0.000291788
0.000288294
0.000281843
0.000277868
0.000270619
0.000207894
0.000136028
0.000133057
0.000232494
0.00029524
0.000278625
0.00028882
0.00029864
0.000298915
0.000308855
0.000307464
0.000308374
0.000313396
0.000307028
0.000314386
0.000323881
0.000326115
0.000317157
0.000319677
0.000330801
0.000319371
0.000321191
0.000325799
0.000323977
0.000320562
0.00031296
0.000312715
0.000307714
0.000302948
0.000295617
0.000294116
0.000294372
0.000285067
0.000272653
0.000279387
0.000209461
0.000138488
0.000135518
0.000219817
0.000283682
0.000280599
0.000286115
0.000296015
0.000299799
0.000310496
0.000310978
0.000308306
0.000308007
0.000305967
0.000306788
0.000328069
0.00033007
0.000322926
0.000318504
0.000327872
0.00031926
0.000316595
0.000326054
0.000326514
0.00032628
0.000319488
0.000312268
0.00031519
0.000304819
0.000305761
0.000290914
0.000300818
0.000285824
0.000285741
0.000292188
0.000212586
0.000141443
0.000138083
0.000205889
0.00028532
0.000287199
0.000288616
0.000293443
0.000306648
0.000310795
0.000314286
0.000307449
0.00031614
0.000308484
0.000315855
0.000328911
0.00033055
0.000329805
0.000325978
0.000333032
0.000323216
0.000315393
0.000325993
0.000329343
0.000328349
0.000316455
0.000314409
0.000314987
0.000309517
0.000303512
0.000286892
0.000302776
0.000285962
0.00028524
0.000285191
0.00021067
0.000139624
0.000138203
0.000205747
0.000288259
0.000285807
0.000283939
0.000293227
0.000300572
0.000305576
0.00031034
0.000303697
0.000318091
0.000308722
0.000318798
0.00032614
0.000323289
0.000328077
0.000326975
0.000334668
0.00033009
0.00031746
0.000325331
0.00032977
0.000326742
0.000322446
0.000314938
0.000318781
0.000302784
0.000303495
0.000291006
0.000299604
0.000284545
0.000277473
0.000270294
0.000209893
0.000144992
0.000139303
0.000212317
0.00029084
0.000281091
0.000282462
0.000295396
0.000301061
0.000309821
0.000308307
0.000305491
0.000317002
0.000303775
0.000316683
0.000326983
0.000324187
0.000322854
0.000326465
0.000335528
0.000330838
0.000322936
0.000325467
0.000330679
0.000327906
0.000323104
0.00031532
0.000318331
0.000299133
0.000303282
0.000296042
0.000301827
0.000288704
0.000279046
0.000280476
0.000212135
0.000150912
0.000144359
0.000217846
0.000293438
0.000290275
0.00028533
0.000296182
0.00030181
0.000306594
0.000310528
0.00030793
0.000317271
0.000306788
0.00031224
0.000328181
0.000324168
0.000327797
0.000325844
0.000336801
0.000334263
0.000327268
0.00032784
0.000330572
0.000327935
0.000321614
0.000315294
0.00031654
0.000303675
0.000302621
0.000301298
0.000301056
0.000290341
0.000295547
0.000281651
0.000211872
0.000153632
0.00014841
0.000214398
0.000281721
0.000289719
0.000283741
0.000300203
0.000302448
0.000311985
0.000308668
0.000313113
0.000317033
0.000303511
0.000310637
0.000328264
0.000322609
0.00032621
0.000330301
0.000333111
0.000331472