/*--------------------------------*- C++ -*----------------------------------*\
  =========                 |
  \\      /  F ield         | OpenFOAM: The Open Source CFD Toolbox
   \\    /   O peration     | Website:  https://openfoam.org
    \\  /    A nd           | Version:  8
     \\/     M anipulation  |
\*---------------------------------------------------------------------------*/
FoamFile
{
    version     2.0;
    format      ascii;
    class       volScalarField;
    location    "50";
    object      omega;
}
// * * * * * * * * * * * * * * * * * * * * * * * * * * * * * * * * * * * * * //

dimensions      [0 0 -1 0 0 0 0];

internalField   nonuniform List<scalar> 
78750
(
23.5771
33.977
34.2269
34.5599
35.1697
37.1903
37.4214
37.9096
38.6477
39.2411
39.8914
40.0693
41.1414
41.5367
42.2484
42.6923
42.9372
44.0139
43.53
42.5884
41.5037
41.1298
41.1591
40.4908
39.7874
39.3981
38.1718
37.805
36.9455
37.0314
35.2885
34.3382
33.338
33.2433
23.2241
11.2326
13.1043
13.1561
13.263
13.3816
14.0842
14.1858
14.2741
14.725
15.0749
15.3883
15.5914
15.9975
16.224
16.4723
16.6446
16.7649
17.1621
17.0074
16.6521
16.2269
16.1254
16.0583
15.7758
15.4443
15.2555
14.6908
14.4063
14.1213
14.1262
13.4453
13.1734
12.8214
12.8054
11.0424
10.8309
12.4171
12.4331
12.5542
12.6724
13.2604
13.4333
13.7973
14.1446
14.5102
14.7402
15.021
15.4427
15.6351
15.8244
16.0227
16.1217
16.4793
16.3592
16.0553
15.6802
15.5539
15.4674
15.1406
14.8839
14.6873
14.1283
13.822
13.4337
13.3569
12.7209
12.4504
12.1847
12.1817
10.6889
10.5203
11.655
11.6443
11.7581
11.8417
12.3483
12.5255
12.8121
13.1208
13.5234
13.7245
14.0601
14.4488
14.6799
14.9166
15.1504
15.2776
15.6999
15.5186
15.1944
14.8518
14.6711
14.4815
14.1559
13.8886
13.6611
13.1598
12.8467
12.5444
12.4652
11.8914
11.6702
11.4645
11.5038
10.4545
10.2558
11.0171
10.9163
11.0221
11.105
11.5196
11.7048
11.9521
12.2053
12.5918
12.7785
13.1095
13.4673
13.691
13.9956
14.2155
14.3924
14.8385
14.5971
14.2615
13.9846
13.7318
13.5228
13.1879
12.9447
12.7127
12.271
12.0256
11.7412
11.6494
11.1392
10.9594
10.795
10.9113
10.2092
9.97975
10.4019
10.2523
10.3621
10.4349
10.7909
10.9749
11.2218
11.4402
11.7645
11.9258
12.2444
12.5777
12.7991
13.122
13.3344
13.5259
13.9819
13.7232
13.4047
13.1437
12.865
12.6515
12.3277
12.1063
11.8924
11.5485
11.2985
11.0302
10.9071
10.4776
10.3218
10.1567
10.3562
10.0101
9.76966
9.91201
9.64959
9.77461
9.85257
10.1403
10.3262
10.5539
10.7295
11.0231
11.1732
11.4582
11.749
11.9543
12.3101
12.4968
12.7259
13.1703
12.8783
12.5773
12.343
12.0412
11.8258
11.5589
11.3363
11.1348
10.8509
10.6464
10.3797
10.2593
9.87701
9.74731
9.60049
9.86063
9.80711
9.55828
9.48652
9.14536
9.26375
9.3263
9.56975
9.7416
9.97393
10.1314
10.3651
10.497
10.7599
11.0227
11.2193
11.5436
11.7382
11.9561
12.3816
12.0883
11.8272
11.5911
11.3124
11.1128
10.8622
10.6654
10.4923
10.2531
10.0481
9.81856
9.6725
9.36166
9.24605
9.09379
9.4702
9.65147
9.40746
9.11587
8.69376
8.8189
8.87945
9.07874
9.24344
9.44405
9.58427
9.8067
9.92459
10.1558
10.3792
10.5744
10.874
11.0339
11.2651
11.6561
11.3714
11.1294
10.9138
10.6543
10.4726
10.2708
10.0722
9.9112
9.69614
9.52726
9.30294
9.17195
8.89902
8.80088
8.6778
9.09883
9.4769
9.24643
8.82001
8.32625
8.44041
8.48567
8.64843
8.78813
8.9889
9.11765
9.30347
9.40282
9.62307
9.82523
10.0126
10.2703
10.4253
10.6289
10.9848
10.727
10.5192
10.3096
10.0827
9.9222
9.73817
9.55678
9.40595
9.21675
9.05318
8.86529
8.72327
8.50918
8.43728
8.30953
8.81096
9.33389
9.10286
8.57887
8.01009
8.11791
8.15308
8.27562
8.40304
8.57354
8.69794
8.86442
8.96553
9.15246
9.32886
9.51036
9.73835
9.86883
10.0728
10.3817
10.1462
9.95736
9.76676
9.5629
9.41976
9.27368
9.08956
8.95171
8.78128
8.64471
8.47424
8.34683
8.16555
8.11048
8.0077
8.56198
9.16607
8.93547
8.38605
7.77045
7.84215
7.86831
7.96342
8.06552
8.2221
8.33587
8.47913
8.56825
8.73784
8.89811
9.06026
9.258
9.38561
9.5609
9.83327
9.62485
9.47039
9.27993
9.10884
8.9841
8.85262
8.68238
8.55517
8.40893
8.28143
8.14361
8.01504
7.88532
7.84747
7.76684
8.38207
9.00212
8.77382
8.22166
7.56671
7.61112
7.62977
7.69358
7.77692
7.90888
8.01531
8.13876
8.22386
8.37073
8.51481
8.67242
8.83417
8.94647
9.11279
9.34127
9.15872
9.021
8.85535
8.70547
8.59434
8.48992
8.32329
8.21089
8.0716
7.9691
7.84831
7.73917
7.63429
7.60857
7.57087
8.20627
8.81442
8.58852
8.08017
7.40435
7.41317
7.42187
7.46945
7.53088
7.64177
7.73593
7.85044
7.92265
8.05338
8.18053
8.31837
8.45351
8.56338
8.70518
8.90559
8.74948
8.6323
8.47029
8.34799
8.2585
8.16097
8.00441
7.90364
7.78774
7.69915
7.59993
7.49996
7.43091
7.42041
7.41041
8.06345
8.6266
8.40275
7.94512
7.27009
7.24975
7.2457
7.26789
7.31438
7.40495
7.49734
7.58542
7.6599
7.77278
7.88698
8.01507
8.12245
8.22096
8.34869
8.51302
8.37699
8.27884
8.14061
8.03531
7.95066
7.87505
7.73406
7.63905
7.53154
7.45591
7.3753
7.29014
7.24321
7.24743
7.27272
7.9148
8.42218
8.20276
7.81154
7.15731
7.10152
7.08508
7.09641
7.12739
7.1967
7.27487
7.36677
7.42592
7.52184
7.62273
7.73398
7.8231
7.91158
8.02418
8.167
8.05532
7.96572
7.83585
7.75459
7.68761
7.61047
7.48219
7.40015
7.30691
7.24623
7.17957
7.11208
7.08447
7.1031
7.15647
7.7757
8.21812
8.01152
7.6808
7.05325
6.9707
6.94373
6.94024
6.95828
7.01109
7.08708
7.14772
7.20844
7.30145
7.38886
7.48409
7.55852
7.64528
7.73247
7.85048
7.75625
7.68574
7.57622
7.49959
7.44086
7.37953
7.26755
7.18654
7.1071
7.05177
6.99802
6.94076
6.93304
6.96658
7.05085
7.63354
8.00407
7.80273
7.54426
6.96351
6.85033
6.8073
6.78511
6.79813
6.83606
6.90277
6.97054
7.01835
7.08892
7.16735
7.25684
7.31383
7.387
7.47039
7.57429
7.49532
7.42672
7.32531
7.27371
7.22412
7.15725
7.05664
6.99193
6.91663
6.87129
6.82716
6.78869
6.79655
6.84057
6.94928
7.49008
7.79787
7.61775
7.41148
6.86471
6.7263
6.67529
6.64357
6.6499
6.67825
6.73469
6.77976
6.83117
6.90649
6.97314
7.03836
7.09464
7.16705
7.22685
7.31223
7.25058
7.19331
7.11164
7.05481
7.01183
6.9592
6.8727
6.80654
6.74978
6.70586
6.66727
6.63511
6.65411
6.71991
6.8552
7.34422
7.58668
7.40475
7.26417
6.78248
6.61176
6.54997
6.49785
6.50402
6.51953
6.58024
6.62169
6.66253
6.72114
6.77845
6.84985
6.88443
6.94986
7.00481
7.0816
7.0284
6.97529
6.90017
6.86357
6.82505
6.76607
6.68903
6.63758
6.5802
6.53547
6.50661
6.48542
6.52846
6.5961
6.75071
7.18932
7.37673
7.22009
7.1194
6.67729
6.49162
6.41462
6.35394
6.35691
6.37521
6.41274
6.44907
6.49852
6.55619
6.61002
6.65436
6.69896
6.75505
6.80071
6.86291
6.82376
6.77011
6.71323
6.67092
6.63991
6.59183
6.52602
6.4705
6.4276
6.3864
6.35518
6.3412
6.38672
6.47663
6.65117
7.02608
7.16749
7.00159
6.95208
6.58239
6.36976
6.29139
6.21895
6.22274
6.22633
6.27577
6.3039
6.33713
6.39371
6.44207
6.48745
6.51292
6.57343
6.60464
6.66054
6.62778
6.58674
6.53579
6.50235
6.47032
6.41866
6.36113
6.31283
6.27526
6.22738
6.20517
6.18948
6.26165
6.35243
6.53615
6.85745
6.95022
6.80387
6.78607
6.46432
6.25126
6.1516
6.07202
6.07324
6.08706
6.11873
6.14284
6.19808
6.24135
6.28436
6.32191
6.35219
6.39631
6.43278
6.47668
6.45497
6.40376
6.36674
6.33351
6.31106
6.26385
6.21549
6.16514
6.13066
6.08445
6.05422
6.04845
6.12297
6.2243
6.41683
6.66683
6.73224
6.57479
6.59671
6.34547
6.11704
6.01801
5.9347
5.93719
5.94011
5.97259
6.00178
6.04104
6.08816
6.14406
6.16136
6.18576
6.24228
6.25618
6.29569
6.27357
6.24344
6.21384
6.17645
6.15086
6.10866
6.06018
6.01706
5.98335
5.93738
5.90937
5.89762
5.98584
6.10216
6.28431
6.4788
6.50752
6.33924
6.39078
6.20216
5.99183
5.88007
5.78767
5.79484
5.79871
5.8306
5.85092
5.90729
5.94804
5.98722
6.0205
6.03874
6.07144
6.10052
6.13332
6.12326
6.07477
6.05121
6.02866
6.01087
5.95457
5.92217
5.86723
5.84295
5.78753
5.75444
5.75009
5.85446
5.95086
6.13318
6.26171
6.25008
6.09318
6.1821
6.04978
5.84083
5.72447
5.63762
5.63038
5.64406
5.66032
5.68814
5.75642
5.78409
5.85498
5.85801
5.87172
5.92686
5.9345
5.95967
5.95052
5.92534
5.91106
5.86703
5.84445
5.81467
5.76566
5.73335
5.69163
5.64416
5.6122
5.60308
5.68671
5.81926
5.9774
6.04825
6.02412
5.84185
5.95273
5.87835
5.6884
5.5699
5.49078
5.49546
5.48517
5.52726
5.5499
5.59908
5.65034
5.69236
5.71347
5.73439
5.76437
5.78025
5.80224
5.7958
5.76083
5.74361
5.72004
5.70826
5.64142
5.62415
5.56139
5.53922
5.48105
5.44542
5.43657
5.55035
5.64697
5.78682
5.81824
5.73487
5.54492
5.68642
5.6842
5.51924
5.40953
5.30355
5.31188
5.32949
5.33018
5.35784
5.4575
5.46161
5.54749
5.55541
5.54715
5.58996
5.6056
5.63087
5.62312
5.5972
5.59224
5.55721
5.53572
5.49487
5.45277
5.41891
5.38186
5.32463
5.28107
5.28576
5.36299
5.47902
5.59433
5.55819
5.47799
5.26959
5.44398
5.48785
5.33818
5.20681
5.15142
5.13869
5.13977
5.18249
5.20444
5.27075
5.31611
5.37228
5.36585
5.40667
5.44784
5.44159
5.44504
5.45833
5.42292
5.41837
5.38851
5.3697
5.32917
5.29105
5.2378
5.21396
5.16686
5.11843
5.09129
5.1958
5.28956
5.38874
5.31585
5.18007
4.99943
5.15106
5.23732
5.11913
5.03335
4.96007
4.96149
4.97171
4.94967
4.98356
5.08278
5.11365
5.20352
5.2211
5.19825
5.23324
5.25289
5.28407
5.25561
5.24898
5.24863
5.19645
5.18511
5.11824
5.12981
5.07139
5.01706
4.93693
4.91791
4.93427
4.99397
5.08264
5.13564
5.011
4.91585
4.77617
4.92294
5.03597
4.91295
4.82621
4.758
4.7487
4.75968
4.84276
4.83205
4.91278
4.91609
4.99119
4.97952
4.99366
5.04198
5.06981
5.06363
5.07369
5.06475
5.03795
5.03172
4.99255
4.95279
4.8945
4.83306
4.84805
4.79013
4.76146
4.73656
4.79402
4.87061
4.89887
4.80892
4.68238
4.59075
4.75611
4.75572
4.74208
4.65082
4.62759
4.6677
4.62486
4.79427
4.76591
4.76197
4.81325
4.81945
4.86666
4.88169
4.89638
4.85312
4.88018
4.88286
4.86118
4.86384
4.83966
4.8266
4.78452
4.73685
4.79354
4.68896
4.71693
4.58794
4.5837
4.64456
4.68045
4.72465
4.71188
4.5997
4.57354
4.69956
4.63723
4.54426
4.55988
4.50604
4.63473
4.56169
4.69857
4.67266
4.61414
4.69596
4.72142
4.81379
4.76885
4.82955
4.72082
4.76874
4.79068
4.7589
4.76267
4.69079
4.72369
4.68555
4.67257
4.74974
4.52895
4.65111
4.56691
4.46196
4.54341
4.49324
4.53536
4.60646
4.53719
4.54475
4.67477
4.57982
4.47458
4.44745
4.42832
4.56224
4.48113
4.66311
4.64166
4.56271
4.62762
4.63652
4.7176
4.68547
4.67816
4.66063
4.69122
4.74266
4.63123
4.68833
4.60908
4.59641
4.62243
4.5827
4.66427
4.5217
4.57683
4.53595
4.46084
4.43876
4.47213
4.47416
4.60554
4.53935
4.46646
4.62785
4.50419
4.44489
4.45551
4.44525
4.55998
4.47979
4.64989
4.62396
4.54483
4.59857
4.63503
4.70853
4.62764
4.67307
4.58746
4.62681
4.70096
4.62797
4.62347
4.53798
4.58006
4.62566
4.53098
4.59048
4.49941
4.569
4.46864
4.44112
4.43494
4.43828
4.4279
4.58619
4.52183
4.48902
4.57377
4.4264
4.3939
4.42394
4.43975
4.53978
4.45888
4.59682
4.58378
4.48415
4.54584
4.61577
4.68483
4.63784
4.65449
4.58722
4.54266
4.6361
4.61168
4.56455
4.54219
4.55184
4.60906
4.50683
4.53003
4.44252
4.548
4.41058
4.38533
4.4127
4.36444
4.43764
4.52134
4.47368
4.48206
4.49602
4.36344
4.34841
4.36142
4.40706
4.47596
4.39051
4.60083
4.53317
4.49385
4.54954
4.55141
4.62782
4.62836
4.60539
4.56901
4.5423
4.63631
4.56497
4.48499
4.52764
4.50859
4.54963
4.47536
4.47215
4.38616
4.48691
4.36226
4.33976
4.35369
4.3002
4.42654
4.53943
4.40323
4.46681
4.51958
4.30316
4.27365
4.3634
4.35001
4.47657
4.39443
4.58703
4.48077
4.48471
4.53341
4.55151
4.56971
4.58992
4.55859
4.51649
4.52704
4.6199
4.52198
4.49458
4.50146
4.46723
4.55286
4.41132
4.41867
4.33731
4.4206
4.30835
4.3285
4.30171
4.22535
4.37111
4.53015
4.42715
4.46472
4.48056
4.248
4.29294
4.35111
4.35869
4.45986
4.38327
4.54638
4.42966
4.44996
4.47399
4.53435
4.51828
4.54385
4.51103
4.47759
4.48262
4.56331
4.47258
4.48743
4.49015
4.43849
4.53994
4.42583
4.35072
4.31026
4.37406
4.27806
4.29651
4.28762
4.25352
4.38099
4.4879
4.42884
4.41352
4.52063
4.20188
4.28939
4.33185
4.34758
4.41224
4.34372
4.4865
4.38272
4.39438
4.47581
4.48426
4.46106
4.50037
4.45794
4.45583
4.44479
4.5667
4.49243
4.47334
4.44461
4.46031
4.49809
4.42257
4.36776
4.29302
4.3375
4.23863
4.27872
4.24272
4.25173
4.37207
4.44189
4.41984
4.44358
4.49307
4.22629
4.25097
4.32656
4.29705
4.36791
4.3094
4.48895
4.33603
4.41007
4.46008
4.43588
4.46432
4.43656
4.46401
4.46772
4.44633
4.55425
4.49143
4.44818
4.44684
4.46067
4.45715
4.41717
4.36611
4.27681
4.28005
4.26281
4.25086
4.25629
4.2205
4.33493
4.46772
4.42189
4.45485
4.44401
4.18904
4.27403
4.27327
4.3051
4.30774
4.2586
4.47498
4.27605
4.40521
4.41552
4.42314
4.45458
4.44996
4.45392
4.46214
4.44721
4.5064
4.45725
4.42743
4.43948
4.43
4.40496
4.40716
4.3575
4.30116
4.29936
4.23848
4.27853
4.2167
4.20512
4.28347
4.46224
4.4223
4.4197
4.48358
4.22386
4.27228
4.23617
4.29547
4.31953
4.27872
4.42439
4.28731
4.37908
4.37007
4.37418
4.41853
4.44728
4.41646
4.42065
4.44683
4.51822
4.46826
4.45859
4.43386
4.44372
4.41252
4.3621
4.33914
4.27676
4.29942
4.27081
4.28356
4.24584
4.18182
4.26574
4.46642
4.42396
4.44595
4.44509
4.22367
4.23895
4.19207
4.26062
4.31606
4.25133
4.42718
4.28169
4.31673
4.32811
4.34065
4.42146
4.4362
4.38335
4.44203
4.40531
4.51012
4.46137
4.43524
4.39541
4.44223
4.40482
4.31231
4.32162
4.30758
4.2905
4.26681
4.27686
4.20096
4.20346
4.22752
4.42319
4.41142
4.4525
4.48725
4.18882
4.22967
4.21083
4.21318
4.27071
4.2843
4.41419
4.23075
4.32948
4.34985
4.28825
4.41659
4.4361
4.38337
4.43969
4.42364
4.49389
4.425
4.45324
4.40407
4.41677
4.36883
4.27378
4.35249
4.283
4.29225
4.23739
4.27976
4.21318
4.18724
4.19338
4.44305
4.4159
4.42404
4.4879
4.22356
4.23576
4.18621
4.22535
4.28959
4.27928
4.36489
4.25071
4.2957
4.35337
4.31468
4.3881
4.4029
4.38277
4.40763
4.42831
4.48944
4.42938
4.45658
4.36516
4.40167
4.35542
4.2462
4.34664
4.27285
4.25235
4.26696
4.25267
4.17438
4.17096
4.16474
4.44297
4.41152
4.38015
4.481
4.19151
4.23816
4.18302
4.18515
4.26802
4.25347
4.36806
4.23499
4.3259
4.35107
4.31633
4.3608
4.41609
4.3809
4.39345
4.407
4.44584
4.42341
4.42793
4.39153
4.39573
4.33323
4.21486
4.31798
4.2817
4.27011
4.23787
4.24261
4.20365
4.20265
4.1304
4.39562
4.37296
4.42524
4.47175
4.15755
4.19759
4.17182
4.21204
4.29803
4.28343
4.35625
4.23372
4.32032
4.31821
4.30977
4.36573
4.41586
4.37147
4.37345
4.37242
4.39938
4.4124
4.39786
4.35801
4.38868
4.35247
4.23974
4.34377
4.25718
4.24655
4.26505
4.24656
4.18203
4.19786
4.15865
4.41802
4.36988
4.39632
4.51563
4.19452
4.21666
4.2066
4.1651
4.29217
4.27597
4.33583
4.25509
4.32086
4.26202
4.31446
4.3545
4.38625
4.37342
4.37796
4.39398
4.35016
4.41306
4.41858
4.37594
4.39016
4.35689
4.2466
4.31561
4.28527
4.27678
4.26751
4.2143
4.15491
4.16901
4.16536
4.42246
4.37951
4.39998
4.50747
4.19963
4.20313
4.17398
4.18104
4.26256
4.27683
4.32842
4.23154
4.32713
4.27821
4.31067
4.35251
4.34044
4.36677
4.37988
4.37595
4.36294
4.40561
4.41973
4.35251
4.37297
4.35773
4.24697
4.3272
4.24332
4.27492
4.26177
4.24315
4.18375
4.19763
4.1601
4.3839
4.39437
4.43448
4.50817
4.20183
4.18895
4.19126
4.1607
4.28908
4.24002
4.29628
4.25608
4.30072
4.27872
4.31429
4.34364
4.35949
4.33851
4.35045
4.4075
4.32914
4.37757
4.41493
4.38335
4.38976
4.35858
4.25749
4.28629
4.25455
4.27674
4.26433
4.21758
4.19486
4.19042
4.16813
4.41594
4.40097
4.44749
4.49854
4.21581
4.22237
4.19283
4.14771
4.25985
4.26456
4.28296
4.26412
4.26322
4.27368
4.28348
4.36135
4.36365
4.36618
4.37686
4.40815
4.35624
4.4046
4.38463
4.38252
4.39292
4.35003
4.25824
4.3004
4.21808
4.24433
4.25727
4.2391
4.20106
4.16732
4.14129
4.40053
4.40612
4.51191
4.50444
4.21736
4.19576
4.16006
4.18195
4.27588
4.26574
4.2716
4.26564
4.28523
4.27965
4.30678
4.33048
4.33846
4.33294
4.37611
4.39603
4.34871
4.39943
4.41169
4.36335
4.38867
4.32327
4.24193
4.2795
4.24693
4.26691
4.22678
4.2303
4.20603
4.16502
4.17037
4.36287
4.46337
4.52494
4.46931
4.22741
4.2156
4.1855
4.18611
4.27837
4.26431
4.28306
4.26663
4.26987
4.27639
4.31528
4.34917
4.3628
4.34595
4.37575
4.42582
4.35096
4.3726
4.38011
4.39268
4.35423
4.35073
4.27355
4.26839
4.24026
4.27498
4.2546
4.22109
4.18712
4.15424
4.15518
4.33712
4.49201
4.53826
4.50132
4.20192
4.20025
4.19604
4.19103
4.27193
4.25104
4.25311
4.26555
4.26553
4.26343
4.31143
4.32919
4.37233
4.34512
4.37412
4.42262
4.34942
4.39872
4.40243
4.39568
4.37376
4.33342
4.26181
4.30135
4.21582
4.25055
4.21749
4.25407
4.16684
4.18941
4.193
4.38397
4.50017
4.51197
4.51176
4.23398
4.18518
4.20292
4.19269
4.2758
4.28269
4.27111
4.26019
4.27483
4.24988
4.28488
4.35956
4.37237
4.34052
4.37517
4.40007
4.35813
4.36117
4.40316
4.39877
4.36412
4.29966
4.27222
4.27686
4.24625
4.20812
4.22957
4.22656
4.19759
4.16154
4.16019
4.37167
4.47715
4.48796
4.49519
4.23263
4.22091
4.20997
4.20443
4.24776
4.28025
4.25336
4.24997
4.29279
4.28215
4.31339
4.35622
4.37735
4.34656
4.3747
4.42818
4.35127
4.37897
4.40112
4.39988
4.35334
4.32369
4.28263
4.3014
4.23374
4.23003
4.19427
4.2465
4.17675
4.13045
4.18904
4.37508
4.53642
4.52339
4.46262
4.2265
4.21778
4.20679
4.20391
4.26603
4.27126
4.25491
4.2869
4.29739
4.25921
4.30655
4.35949
4.37429
4.32343
4.37597
4.4048
4.31644
4.35486
4.40942
4.40306
4.38596
4.31106
4.2824
4.31185
4.21253
4.21482
4.22449
4.23208
4.20932
4.1583
4.18242
4.3152
4.53001
4.46632
4.50124
4.26626
4.22187
4.18494
4.18711
4.2701
4.25908
4.25765
4.29395
4.28185
4.28925
4.30995
4.35557
4.35874
4.34963
4.37624
4.42412
4.34495
4.38453
4.41444
4.40445
4.38967
4.31828
4.26642
4.31925
4.24321
4.21609
4.2162
4.22572
4.20825
4.14628
4.17302
4.35292
4.54019
4.52254
4.51795
4.23912
4.21604
4.22033
4.2194
4.26456
4.29189
4.2546
4.30031
4.31634
4.28956
4.30787
4.34678
4.39101
4.3283
4.37704
4.43059
4.32432
4.37894
4.41902
4.40711
4.39277
4.31437
4.30344
4.32617
4.24745
4.21886
4.1928
4.26153
4.1815
4.15497
4.21233
4.31511
4.53964
4.50589
4.51897
4.26259
4.22254
4.20383
4.22127
4.26877
4.28638
4.28942
4.27701
4.32179
4.28464
4.3169
4.34548
4.36201
4.31449
4.37229
4.42808
4.322
4.38142
4.40971
4.40109
4.39383
4.35131
4.30573
4.32256
4.24195
4.22336
4.17588
4.26488
4.19184
4.15271
4.20822
4.31652
4.50579
4.49731
4.5309
4.2701
4.18958
4.21857
4.21301
4.26851
4.29703
4.29285
4.29943
4.30256
4.32197
4.32345
4.36403
4.38907
4.34238
4.33213
4.41468
4.31633
4.36016
4.38872
4.40559
4.3662
4.35899
4.29574
4.32939
4.28155
4.22438
4.21142
4.26763
4.20546
4.19299
4.21324
4.33314
4.51977
4.51179
4.4856
4.26566
4.2117
4.20019
4.2498
4.26279
4.30146
4.28455
4.29715
4.3363
4.30453
4.33184
4.38069
4.38549
4.35421
4.36291
4.41569
4.35689
4.33954
4.37109
4.37946
4.39968
4.36741
4.29839
4.33132
4.28127
4.23473
4.17596
4.26821
4.2095
4.20055
4.21118
4.33516
4.52454
4.54446
4.52184
4.23633
4.21634
4.23447
4.25019
4.25205
4.30383
4.32047
4.29523
4.29805
4.26416
4.33412
4.38848
4.378
4.35725
4.34583
4.43537
4.37496
4.37164
4.40753
4.41088
4.40143
4.36545
4.29803
4.33314
4.28897
4.24706
4.20409
4.26528
4.22351
4.18056
4.19365
4.37955
4.59267
4.56169
4.485
4.27719
4.21794
4.1977
4.26251
4.2934
4.30111
4.28835
4.26907
4.32724
4.28896
4.34054
4.39607
4.41424
4.39699
4.39069
4.42437
4.39737
4.34836
4.37734
4.41053
4.39747
4.35228
4.31207
4.33069
4.2885
4.24523
4.19984
4.26398
4.22683
4.21578
4.23332
4.41305
4.62413
4.62388
4.48226
4.27109
4.2204
4.22569
4.25348
4.30238
4.30396
4.31912
4.27151
4.31452
4.29377
4.32048
4.37114
4.41304
4.40018
4.40148
4.46227
4.40352
4.35818
4.41069
4.40094
4.38583
4.34724
4.30779
4.31821
4.26242
4.28852
4.20646
4.27812
4.23882
4.21554
4.19369
4.45535
4.70157
4.65132
4.49808
4.23191
4.21956
4.19685
4.26586
4.31271
4.30481
4.31589
4.29437
4.30836
4.29101
4.29825
4.4046
4.42304
4.41666
4.42468
4.46879
4.45078
4.37151
4.39835
4.44597
4.43131
4.3641
4.35433
4.36244
4.26145
4.27983
4.22944
4.27862
4.24431
4.20913
4.23221
4.47258
4.75018
4.69565
4.51452
4.27008
4.23119
4.19848
4.27606
4.28701
4.34891
4.32796
4.29685
4.35686
4.27671
4.33543
4.39143
4.39569
4.41427
4.40896
4.46584
4.45845
4.39947
4.43058
4.42568
4.42956
4.39239
4.32209
4.36712
4.27744
4.2515
4.27508
4.31718
4.22371
4.20818
4.20363
4.50577
4.75027
4.74189
4.52666
4.24669
4.23084
4.21453
4.27904
4.26146
4.35064
4.34186
4.33104
4.34312
4.27271
4.31042
4.42588
4.35789
4.41604
4.43931
4.46961
4.43381
4.43923
4.44188
4.45052
4.40578
4.37955
4.33987
4.35523
4.2835
4.28363
4.28598
4.31527
4.25971
4.21934
4.19739
4.54084
4.84571
4.79034
4.55519
4.18916
4.22007
4.22606
4.28095
4.29356
4.32586
4.35958
4.34863
4.3659
4.26954
4.3258
4.4257
4.39337
4.42113
4.45035
4.46367
4.47752
4.45034
4.46177
4.41943
4.45299
4.4197
4.31384
4.40081
4.33036
4.26301
4.31195
4.32478
4.26498
4.22883
4.20806
4.54683
4.8632
4.84005
4.57272
4.23629
4.22115
4.2415
4.2813
4.28491
4.3156
4.36752
4.37708
4.34854
4.28525
4.33636
4.40575
4.3918
4.4085
4.46057
4.507
4.44021
4.46337
4.49451
4.48253
4.45666
4.4471
4.37393
4.4103
4.34274
4.27263
4.32879
4.32528
4.28491
4.22697
4.21963
4.5983
4.8556
4.85844
4.61239
4.22265
4.22432
4.30037
4.23519
4.30893
4.34097
4.42743
4.38581
4.4073
4.30946
4.37919
4.41614
4.39679
4.41016
4.42588
4.53163
4.47265
4.50951
4.53842
4.48745
4.45736
4.43579
4.33322
4.37972
4.40333
4.28256
4.37073
4.28712
4.29271
4.26802
4.26517
4.61329
4.93661
4.94457
4.62719
4.21815
4.24304
4.30563
4.26385
4.33462
4.35483
4.41737
4.43085
4.35769
4.32724
4.42081
4.44721
4.41734
4.45662
4.41987
4.53589
4.43528
4.47132
4.55193
4.48936
4.39966
4.43522
4.35092
4.37829
4.41574
4.30196
4.36969
4.33247
4.29351
4.23334
4.28183
4.63728
4.94619
4.99699
4.69155
4.25013
4.24676
4.31998
4.23717
4.3428
4.3744
4.41034
4.43699
4.3706
4.33707
4.46185
4.45325
4.43928
4.46714
4.4454
4.54563
4.41781
4.49569
4.56024
4.49
4.42025
4.41282
4.31462
4.37204
4.43238
4.33441
4.37534
4.33665
4.29494
4.26418
4.3374
4.63879
4.92041
5.01306
4.70525
4.30665
4.2754
4.32962
4.22269
4.38094
4.37
4.3447
4.47242
4.33975
4.36005
4.46923
4.4858
4.44582
4.50166
4.48414
4.55736
4.42856
4.47684
4.58377
4.48654
4.38912
4.45648
4.29525
4.40906
4.44862
4.34128
4.37846
4.34478
4.31798
4.25465
4.3489
4.69278
4.98743
5.09812
4.69855
4.36101
4.32916
4.34763
4.23669
4.41503
4.43031
4.3856
4.48651
4.33183
4.37537
4.50535
4.50401
4.5372
4.53777
4.49145
4.57916
4.48293
4.50264
4.59782
4.51133
4.45059
4.4207
4.35574
4.43706
4.43555
4.41608
4.35329
4.36834
4.31904
4.24968
4.40973
4.66057
4.96719
5.10887
4.71076
4.39372
4.33311
4.35161
4.28953
4.43487
4.45225
4.36233
4.51409
4.35987
4.44628
4.49172
4.59335
4.55532
4.60188
4.55982
4.58612
4.50478
4.55825
4.60762
4.55289
4.47187
4.47002
4.38059
4.48664
4.44751
4.44384
4.35407
4.37281
4.36562
4.27809
4.42104
4.69203
4.92523
5.19539
4.70097
4.39762
4.34342
4.36002
4.31434
4.45094
4.50088
4.35679
4.51785
4.39726
4.48764
4.52222
4.58239
4.59986
4.59806
4.56495
4.56551
4.50858
4.5716
4.58013
4.55749
4.49935
4.46707
4.39981
4.52614
4.44674
4.48488
4.35256
4.37341
4.37057
4.2805
4.43747
4.70285
4.99626
5.20324
4.74924
4.43226
4.34748
4.31856
4.33347
4.43488
4.47084
4.35861
4.55225
4.40115
4.50951
4.52033
4.60172
4.61095
4.60159
4.57971
4.59784
4.51299
4.57793
4.55155
4.58448
4.50838
4.44554
4.40641
4.52815
4.45867
4.49078
4.35937
4.41248
4.37628
4.31893
4.43025
4.69371
4.98753
5.22441
4.70579
4.45771
4.35078
4.34832
4.34526
4.41737
4.49058
4.3749
4.54429
4.42047
4.52922
4.51361
4.59424
4.61723
4.56157
4.58132
4.60145
4.51722
4.58608
4.56821
4.62181
4.53208
4.44073
4.43808
4.53806
4.47771
4.49455
4.3787
4.42873
4.37752
4.32393
4.4081
4.69028
5.06453
5.22726
4.72597
4.47759
4.33243
4.32719
4.36736
4.44101
4.49242
4.39727
4.54521
4.43775
4.52972
4.47987
4.59108
4.5942
4.58536
4.58957
4.58013
4.53658
4.60467
4.53559
4.62514
4.56028
4.45911
4.4633
4.54255
4.49179
4.47679
4.38956
4.45028
4.37918
4.36635
4.44492
4.64815
5.06879
5.23083
4.72216
4.48053
4.29029
4.32647
4.38295
4.41409
4.4928
4.41545
4.53669
4.46673
4.55915
4.46911
4.55059
4.60889
4.57008
4.5587
4.595
4.54661
4.60838
4.51911
4.61462
4.56928
4.47699
4.4802
4.5202
4.49086
4.42641
4.40666
4.45585
4.35977
4.37087
4.43681
4.61016
5.09024
5.22839
4.71613
4.52603
4.32085
4.34214
4.39983
4.4055
4.47352
4.43888
4.51277
4.46954
4.57404
4.47574
4.5698
4.5783
4.56024
4.58433
4.59786
4.58249
4.6439
4.5335
4.64679
4.60184
4.49245
4.49156
4.54857
4.53813
4.45481
4.42873
4.49621
4.30727
4.41434
4.49801
4.64269
5.01925
5.24858
4.66519
4.53927
4.30826
4.36676
4.42504
4.41341
4.48064
4.45038
4.50825
4.50381
4.58114
4.49359
4.56278
4.59742
4.58308
4.57151
4.63488
4.60548
4.65287
4.55584
4.62974
4.61981
4.51922
4.50694
4.51606
4.53225
4.44116
4.45851
4.49963
4.3455
4.38616
4.50402
4.60422
5.04696
5.25821
4.71248
4.63507
4.3106
4.40243
4.4481
4.43874
4.48048
4.46612
4.52269
4.51931
4.61996
4.50564
4.56588
4.60555
4.59972
4.56612
4.65392
4.61368
4.65931
4.56926
4.65358
4.62243
4.547
4.52318
4.54352
4.55973
4.43759
4.47759
4.51039
4.33226
4.40795
4.48513
4.5943
4.97235
5.26597
4.71471
4.68563
4.34973
4.43388
4.46754
4.44452
4.51738
4.48442
4.54273
4.55286
4.62092
4.53615
4.60274
4.57548
4.61885
4.57634
4.66378
4.64337
4.66942
4.61612
4.66068
4.65893
4.55516
4.53678
4.52629
4.55134
4.46236
4.50687
4.51274
4.34335
4.40875
4.46903
4.61662
5.03345
5.26783
4.69905
4.7185
4.36873
4.46222
4.48168
4.47603
4.53768
4.50961
4.54791
4.59447
4.62842
4.54282
4.61093
4.60727
4.64423
4.60014
4.69976
4.68416
4.67525
4.62787
4.66488
4.66281
4.57973
4.53779
4.54292
4.54942
4.47889
4.5185
4.48473
4.37908
4.35306
4.4775
4.63104
5.03399
5.2735
4.7451
4.73189
4.41604
4.48745
4.49976
4.48738
4.5458
4.52388
4.57354
4.6026
4.59453
4.5764
4.64623
4.5955
4.65775
4.62039
4.67961
4.69324
4.71273
4.63358
4.63993
4.67456
4.62359
4.57361
4.54327
4.58686
4.49388
4.53381
4.49273
4.39571
4.384
4.51435
4.63133
5.03948
5.27614
4.71424
4.76246
4.44038
4.48994
4.50175
4.53005
4.55809
4.54911
4.61353
4.60191
4.61702
4.59494
4.65341
4.59989
4.66613
4.62408
4.70714
4.7086
4.693
4.64324
4.67303
4.68211
4.64484
4.58884
4.57939
4.58453
4.51815
4.58092
4.48742
4.44358
4.35243
4.54914
4.67777
5.04152
5.28001
4.7465
4.77298
4.45169
4.53131
4.52273
4.55581
4.57486
4.55961
4.61963
4.63777
4.59573
4.62067
4.66877
4.60396
4.70128
4.6672
4.70029
4.71001
4.72014
4.65791
4.67842
4.68797
4.65431
4.61222
4.58343
4.58963
4.53496
4.59349
4.49101
4.45592
4.36246
4.58337
4.68924
5.04582
5.26037
4.73251
4.77962
4.46832
4.53999
4.5433
4.56505
4.58976
4.59735
4.62596
4.64338
4.59786
4.62062
4.66228
4.63834
4.71973
4.6789
4.73037
4.6934
4.7063
4.65752
4.69241
4.68384
4.66421
4.6125
4.62573
4.55104
4.54948
4.60771
4.50612
4.49563
4.37448
4.61152
4.7317
5.02614
5.19048
4.76817
4.77174
4.4668
4.53901
4.55673
4.60132
4.60269
4.61283
4.6295
4.65649
4.60568
4.66357
4.63614
4.64634
4.73205
4.71583
4.73779
4.7225
4.73584
4.69291
4.70157
4.71691
4.66335
4.64618
4.63252
4.5748
4.57515
4.62431
4.50465
4.52696
4.39756
4.64322
4.71063
4.96851
5.2618
4.7699
4.77129
4.50944
4.54988
4.5647
4.61489
4.60839
4.65164
4.63574
4.66504
4.62626
4.67049
4.65464
4.67147
4.74243
4.72166
4.7305
4.7
4.71005
4.69893
4.70858
4.71594
4.70111
4.62623
4.62167
4.56579
4.57861
4.64226
4.54425
4.5373
4.42503
4.65893
4.67137
4.96671
5.18491
4.77878
4.73462
4.51786
4.56987
4.57614
4.63287
4.61404
4.66067
4.63733
4.6728
4.63032
4.66472
4.65609
4.70636
4.76708
4.72169
4.70482
4.71644
4.73264
4.70234
4.70551
4.7218
4.70661
4.64638
4.65314
4.56416
4.60945
4.63901
4.55071
4.57372
4.45407
4.68112
4.68345
4.95265
5.24008
4.76545
4.75404
4.52787
4.57597
4.58217
4.63655
4.63699
4.67717
4.67275
4.64509
4.65561
4.69795
4.6436
4.71126
4.7722
4.72486
4.72419
4.71957
4.74128
4.70082
4.70902
4.72004
4.69464
4.65179
4.65675
4.59994
4.62251
4.67195
4.55633
4.57795
4.4702
4.68214
4.64274
5.03705
5.24434
4.7506
4.75991
4.53151
4.60344
4.59059
4.67003
4.64484
4.68156
4.67525
4.65631
4.69095
4.69864
4.65025
4.72333
4.77911
4.75505
4.7265
4.6969
4.74161
4.73214
4.70221
4.71284
4.72467
4.64455
4.6609
4.60901
4.64663
4.67012
4.55274
4.58055
4.49872
4.71252
4.6667
5.01334
5.2327
4.7734
4.74601
4.57075
4.61001
4.59526
4.64696
4.6802
4.68936
4.66347
4.65277
4.6974
4.70128
4.6504
4.7226
4.7695
4.75564
4.7355
4.71171
4.72481
4.73006
4.70519
4.70196
4.70627
4.61643
4.65701
4.64757
4.65555
4.65136
4.58849
4.61693
4.5067
4.72392
4.66346
4.95322
5.16775
4.7742
4.75702
4.57834
4.64683
4.61181
4.66306
4.68808
4.6861
4.69476
4.64963
4.70322
4.70864
4.63907
4.726
4.74048
4.76415
4.73077
4.68728
4.7522
4.73078
4.69803
4.72997
4.72568
4.64482
4.63369
4.65356
4.68027
4.68084
4.58715
4.6226
4.53076
4.74052
4.66194
5.02039
5.05474
4.75041
4.76182
4.58464
4.65226
4.61508
4.63784
4.69441
4.67584
4.69533
4.64618
4.70575
4.70588
4.63586
4.70923
4.75321
4.76001
4.73121
4.70278
4.72378
4.72146
4.66823
4.70293
4.73138
4.62046
4.66229
4.66385
4.68733
4.66721
4.59344
4.62434
4.54545
4.74028
4.65062
5.04821
5.10041
4.73881
4.73247
4.56268
4.64429
4.64439
4.6663
4.68198
4.66316
4.6738
4.61367
4.71613
4.68343
4.62573
4.69827
4.75029
4.75959
4.71349
4.70522
4.70042
4.72018
4.69361
4.67138
4.72874
4.63973
4.66495
4.66573
4.69241
4.67793
4.57096
4.63398
4.56808
4.76692
4.64593
5.06639
5.03086
4.72531
4.74046
4.5845
4.67514
4.65318
4.66928
4.66006
4.69138
4.67046
4.63848
4.70261
4.70936
4.62778
4.68441
4.7382
4.73805
4.72442
4.69858
4.68134
4.71118
4.68165
4.69038
4.70694
4.64494
4.66794
4.66337
4.69555
4.68434
4.59628
4.63271
4.56755
4.76307
4.62965
5.08373
5.09338
4.72367
4.73458
4.56724
4.67979
4.68372
4.67294
4.68359
4.66946
4.66267
4.63135
4.72049
4.6864
4.60074
4.70205
4.73621
4.70798
4.72669
4.67048
4.6457
4.71278
4.67379
4.69288
4.68956
4.6213
4.66175
4.65794
4.69971
4.66339
4.60672
4.66189
4.60712
4.76425
4.62368
5.00303
4.99565
4.7105
4.70896
4.5997
4.68338
4.68476
4.66818
4.69267
4.68476
4.69127
4.63423
4.72491
4.67824
4.62655
4.6771
4.69741
4.67596
4.72765
4.69617
4.66088
4.68497
4.63868
4.6832
4.71685
4.63941
4.6637
4.68797
4.69402
4.68055
4.61063
4.63474
4.61548
4.75746
4.62139
5.04534
5.0303
4.72529
4.68658
4.58152
4.68456
4.69346
4.64259
4.67862
4.687
4.66372
4.62504
4.69256
4.65816
4.6293
4.69253
4.65484
4.69003
4.72866
4.69607
4.6614
4.70006
4.60898
4.67908
4.69287
4.64375
4.63556
4.66377
4.69567
4.68431
4.59415
4.65391
4.60832
4.73614
4.58698
5.0469
4.95233
4.72674
4.67921
4.56278
4.68615
4.67854
4.66665
4.68252
4.68003
4.62834
4.59209
4.70639
4.67659
4.59488
4.6657
4.66824
4.66283
4.72222
4.69571
4.65607
4.70172
4.59752
4.66497
4.71491
4.64364
4.65692
4.64297
4.70109
4.68524
4.62479
4.65975
4.6384
4.71103
4.60859
5.02748
5.01281
4.69895
4.68131
4.5858
4.66275
4.69669
4.64026
4.66419
4.65247
4.6453
4.61548
4.70482
4.67343
4.61201
4.68882
4.666
4.6885
4.71954
4.67031
4.66037
4.66161
4.58977
4.66169
4.71499
4.64333
4.66454
4.62922
4.68276
4.68618
4.62412
4.65366
4.61849
4.68635
4.61697
5.03191
4.91714