/*--------------------------------*- C++ -*----------------------------------*\
  =========                 |
  \\      /  F ield         | OpenFOAM: The Open Source CFD Toolbox
   \\    /   O peration     | Website:  https://openfoam.org
    \\  /    A nd           | Version:  8
     \\/     M anipulation  |
\*---------------------------------------------------------------------------*/
FoamFile
{
    version     2.0;
    format      ascii;
    class       volScalarField;
    location    "50";
    object      p_rgh;
}
// * * * * * * * * * * * * * * * * * * * * * * * * * * * * * * * * * * * * * //

dimensions      [1 -1 -2 0 0 0 0];

internalField   nonuniform List<scalar> 
78750
(
44.9209
44.5304
44.4377
44.3066
44.2931
44.358
44.4378
44.5455
44.665
44.7794
44.9233
45.0464
45.2025
45.325
45.5012
45.6006
45.7537
45.8813
45.7454
45.6733
45.5363
45.3865
45.2288
45.0926
44.9494
44.8082
44.6709
44.5377
44.45
44.3709
44.309
44.3116
44.4413
44.535
44.9421
44.8456
44.5163
44.4308
44.2958
44.2805
44.3375
44.4148
44.5178
44.6381
44.7477
44.8918
45.0129
45.1677
45.2881
45.4636
45.54
45.7089
45.8297
45.6752
45.6342
45.4969
45.3505
45.1957
45.0582
44.9177
44.7785
44.6423
44.5126
44.4269
44.3497
44.2957
44.3024
44.4351
44.5237
44.8705
44.4095
44.1947
44.1322
43.985
43.9724
44.0112
44.0824
44.1724
44.2574
44.3624
44.4785
44.5851
44.7247
44.8203
44.9958
45.0898
45.2451
45.3485
45.1793
45.1587
45.0433
44.9107
44.7565
44.6273
44.5115
44.3857
44.272
44.1487
44.0922
44.0274
43.988
43.9928
44.1376
44.1946
44.4946
44.1997
43.7622
43.7242
43.5617
43.5463
43.5724
43.6209
43.6961
43.7398
43.82
43.8882
43.9912
44.1305
44.2082
44.3323
44.6155
44.5596
44.697
44.7141
44.4835
44.3966
44.2907
44.1451
44.0349
43.9721
43.8474
43.7576
43.6563
43.628
43.5789
43.5774
43.5739
43.7285
43.7752
44.2726
43.9179
43.4473
43.4192
43.2414
43.2508
43.2154
43.2491
43.2839
43.3423
43.3708
43.4666
43.5372
43.6257
43.6332
43.8093
43.9538
43.9671
44.0642
43.9452
43.9176
43.8277
43.7524
43.6558
43.5715
43.4549
43.4235
43.3413
43.2912
43.2546
43.2199
43.2605
43.2603
43.4293
43.4451
43.9448
43.4609
43.1071
43.0854
42.8846
42.8717
42.8121
42.8404
42.8538
42.9015
42.9035
42.9488
42.9949
43.0213
43.1566
43.2105
43.3949
43.3557
43.3788
43.4303
43.3857
43.312
43.2421
43.1407
43.0401
43.0465
42.9711
42.9075
42.8672
42.849
42.8184
42.8775
42.9106
43.0768
43.103
43.5294
43.1353
42.752
42.7548
42.5209
42.5385
42.5081
42.4923
42.5042
42.4951
42.6077
42.591
42.6574
42.6995
42.8018
42.8466
42.8393
42.9276
42.9578
43.0638
42.8406
42.7945
42.7417
42.6638
42.719
42.7802
42.5833
42.49
42.5017
42.4619
42.4789
42.561
42.5826
42.7649
42.7735
43.1135
42.7764
42.4692
42.4512
42.2931
42.2484
42.1608
42.1858
42.1776
42.2505
42.3284
42.3381
42.417
42.4354
42.4348
42.5873
42.5066
42.6505
42.6815
42.6296
42.4912
42.4804
42.433
42.3863
42.4691
42.335
42.2291
42.2388
42.1524
42.2329
42.1676
42.2557
42.2692
42.452
42.4531
42.7963
42.4719
42.1468
42.1683
42.1033
42.0338
41.9202
41.939
41.8426
42.0428
41.9967
42.0146
42.0523
42.0515
42.0478
42.1915
42.2483
42.2432
42.2695
42.2178
42.2313
42.2401
42.2011
42.149
42.0873
41.8416
41.8754
42.0299
41.9214
42.0429
41.9462
41.9562
41.9389
42.1487
42.1595
42.4158
42.2409
41.9154
41.8774
41.8195
41.8473
41.7487
41.7261
41.6385
41.73
41.6807
41.7206
41.7041
41.7188
41.7709
41.8107
41.8739
41.8447
41.8381
41.8064
41.8521
41.8752
41.8493
41.8024
41.7028
41.6184
41.6605
41.7238
41.7344
41.7557
41.7495
41.7479
41.7361
41.9068
41.8676
42.1223
41.922
41.7562
41.6725
41.5199
41.5862
41.4912
41.4811
41.4845
41.4143
41.4046
41.4435
41.4233
41.4704
41.5523
41.47
41.536
41.5257
41.4932
41.5058
41.5046
41.5018
41.5183
41.4951
41.4159
41.4541
41.4737
41.403
41.462
41.453
41.489
41.5527
41.5768
41.6737
41.605
41.905
41.5904
41.5125
41.4994
41.2482
41.3178
41.2176
41.232
41.2491
41.1577
41.1655
41.184
41.1638
41.2668
41.25
41.2141
41.2369
41.2069
41.2183
41.2174
41.22
41.1594
41.2245
41.2005
41.159
41.1977
41.2022
41.1217
41.1964
41.1939
41.2505
41.3438
41.3376
41.4296
41.4356
41.625
41.3364
41.2223
41.3032
41.0895
41.0849
40.9883
41.0122
40.9774
40.9263
40.935
40.9254
40.9296
40.9799
40.9958
40.9809
40.9467
40.9245
40.9434
40.9471
40.9648
40.9348
40.9408
40.9123
40.9034
40.8987
40.9585
40.9523
40.9705
40.9905
41.0358
41.1554
41.1125
41.2584
41.2883
41.3071
41.094
41.0001
41.093
40.9282
40.9036
40.8049
40.7899
40.7363
40.7477
40.7301
40.7184
40.7168
40.7243
40.7336
40.7403
40.705
40.714
40.7233
40.7307
40.733
40.7233
40.694
40.6655
40.7114
40.703
40.7507
40.7968
40.7584
40.7992
40.8179
40.9499
40.927
41.0938
41.0701
41.0314
40.8539
40.8269
40.8575
40.7459
40.7046
40.6106
40.5835
40.5646
40.5985
40.5275
40.5439
40.5166
40.5425
40.5421
40.5464
40.5256
40.5223
40.5344
40.5315
40.5364
40.518
40.516
40.519
40.539
40.5456
40.5639
40.5605
40.5396
40.6204
40.6205
40.7333
40.762
40.885
40.844
40.8546
40.6836
40.6352
40.6567
40.5574
40.5558
40.4427
40.447
40.3915
40.4094
40.3687
40.3902
40.3593
40.3735
40.3652
40.3622
40.3487
40.3494
40.3531
40.3515
40.3418
40.3506
40.3449
40.4003
40.3694
40.3672
40.3835
40.4148
40.3833
40.4491
40.4664
40.5298
40.5897
40.6783
40.6322
40.6789
40.5252
40.4844
40.4982
40.4207
40.4164
40.3183
40.3327
40.2562
40.2594
40.2246
40.2288
40.2122
40.2188
40.2047
40.1967
40.195
40.1898
40.1901
40.1969
40.1908
40.1956
40.1915
40.2281
40.2132
40.2401
40.2411
40.2915
40.2746
40.3141
40.3143
40.3961
40.4088
40.4857
40.483
40.5141
40.3802
40.3403
40.3482
40.3183
40.2604
40.2145
40.1986
40.1483
40.1228
40.0871
40.0831
40.0717
40.076
40.0666
40.0606
40.0518
40.0522
40.0557
40.0535
40.0532
40.0538
40.0582
40.0611
40.0739
40.1008
40.102
40.1274
40.176
40.2094
40.1819
40.2868
40.2403
40.3438
40.3365
40.3686
40.2429
40.2092
40.2181
40.1873
40.1379
40.0805
40.06
40.0209
40.0015
39.9707
39.9665
39.9484
39.9506
39.937
39.9278
39.9257
39.926
39.9255
39.9264
39.9251
39.9275
39.9308
39.933
39.9517
39.9723
39.9726
40.0068
40.0374
40.085
40.0617
40.1524
40.1283
40.2115
40.2015
40.2383
40.1248
40.0877
40.0936
40.0368
40.0198
39.9569
39.9463
39.8992
39.894
39.858
39.8546
39.8347
39.8355
39.8261
39.8184
39.814
39.8096
39.8106
39.8117
39.8111
39.8147
39.8174
39.83
39.8396
39.8619
39.8696
39.8913
39.8966
39.9538
39.9431
40.021
40.0332
40.0852
40.0785
40.1112
40.0027
39.9705
39.9799
39.9139
39.9132
39.8525
39.8458
39.7975
39.7896
39.759
39.7492
39.7335
39.7285
39.7218
39.7155
39.7097
39.7073
39.7073
39.7069
39.7077
39.7104
39.7156
39.7359
39.735
39.7444
39.7644
39.7857
39.7941
39.8476
39.8358
39.9127
39.9167
39.9733
39.965
39.9948
39.8947
39.8677
39.8749
39.8181
39.8223
39.7547
39.748
39.7024
39.6973
39.67
39.6603
39.6429
39.6394
39.6294
39.6215
39.6176
39.6148
39.6131
39.6141
39.6156
39.6197
39.6221
39.6306
39.6409
39.6532
39.6644
39.6958
39.704
39.7495
39.7401
39.8099
39.8036
39.8679
39.8598
39.8861
39.8027
39.7701
39.7779
39.7265
39.7256
39.6704
39.6609
39.6193
39.6128
39.5827
39.5783
39.5604
39.5544
39.5467
39.5377
39.5332
39.5304
39.5296
39.5298
39.5308
39.5348
39.54
39.551
39.5565
39.5819
39.5854
39.61
39.6203
39.6596
39.6632
39.7197
39.7145
39.7732
39.7616
39.7946
39.707
39.6816
39.692
39.6385
39.6381
39.5872
39.5822
39.5473
39.5325
39.509
39.4997
39.4834
39.4757
39.4685
39.4617
39.4584
39.4535
39.4538
39.4537
39.4553
39.4591
39.4637
39.4759
39.4812
39.5008
39.5096
39.532
39.5435
39.5808
39.6004
39.6404
39.6335
39.6871
39.6717
39.722
39.6155
39.6012
39.6098
39.5611
39.5617
39.5138
39.5082
39.4753
39.4618
39.4388
39.4306
39.4153
39.4088
39.4006
39.393
39.3882
39.3859
39.3845
39.3849
39.3881
39.3909
39.3958
39.4077
39.4112
39.4293
39.4386
39.464
39.4727
39.5049
39.5208
39.5593
39.5558
39.602
39.5881
39.6337
39.5556
39.5265
39.5334
39.4881
39.491
39.4476
39.4403
39.4079
39.3974
39.3755
39.3685
39.354
39.3444
39.3375
39.331
39.3269
39.3241
39.3226
39.3234
39.324
39.3282
39.3327
39.3438
39.3494
39.3671
39.3731
39.3989
39.4068
39.4395
39.4442
39.4888
39.4856
39.529
39.5148
39.5442
39.5069
39.455
39.4651
39.4228
39.4263
39.3861
39.379
39.3484
39.3367
39.3188
39.308
39.2951
39.2875
39.2802
39.2743
39.2708
39.2661
39.2667
39.2662
39.2697
39.2738
39.2766
39.2869
39.2934
39.3099
39.3125
39.3385
39.3464
39.3784
39.3822
39.4247
39.418
39.4582
39.4531
39.469
39.4401
39.3977
39.403
39.363
39.3637
39.3279
39.3216
39.2954
39.2838
39.264
39.2561
39.2433
39.2361
39.2285
39.2227
39.2189
39.2167
39.2153
39.2153
39.2172
39.2197
39.2257
39.2354
39.2394
39.2562
39.2638
39.2812
39.2923
39.3212
39.3265
39.364
39.3543
39.3952
39.4026
39.4197
39.3719
39.3536
39.3442
39.3064
39.3113
39.2751
39.2692
39.2443
39.2337
39.2152
39.2067
39.1956
39.1882
39.1815
39.1759
39.1728
39.1693
39.1689
39.1691
39.1711
39.1752
39.1783
39.187
39.1928
39.2073
39.2143
39.2321
39.2412
39.2691
39.2719
39.3072
39.296
39.3368
39.3444
39.3816
39.3271
39.2965
39.291
39.2564
39.2598
39.2261
39.2222
39.1973
39.187
39.1707
39.1625
39.1518
39.145
39.1384
39.1332
39.1299
39.126
39.1266
39.126
39.1287
39.1323
39.1365
39.1443
39.1493
39.1624
39.1666
39.1856
39.1938
39.2208
39.2239
39.2559
39.2507
39.2834
39.2863
39.3341
39.2866
39.2359
39.2418
39.2081
39.2099
39.18
39.1777
39.1548
39.1462
39.1297
39.1224
39.1118
39.1054
39.0992
39.0941
39.0918
39.0895
39.0882
39.0881
39.0895
39.0924
39.0974
39.1046
39.1091
39.1223
39.1284
39.1433
39.1518
39.1759
39.18
39.2092
39.2148
39.2351
39.2358
39.2798
39.239
39.1922
39.1951
39.1648
39.1691
39.14
39.1372
39.1154
39.1069
39.0925
39.0853
39.0757
39.0692
39.0639
39.0586
39.0555
39.0532
39.0528
39.0526
39.0554
39.0578
39.0615
39.0682
39.0734
39.0847
39.0914
39.1068
39.1126
39.135
39.1377
39.1651
39.1695
39.1871
39.1875
39.2323
39.1898
39.1504
39.1524
39.1263
39.1295
39.1025
39.0999
39.079
39.0722
39.0583
39.0515
39.0417
39.0366
39.0309
39.0264
39.0242
39.0211
39.021
39.0203
39.0222
39.0253
39.0295
39.0355
39.0408
39.0508
39.0574
39.0713
39.0766
39.0976
39.1004
39.1253
39.1224
39.1468
39.1464
39.1838
39.1422
39.1132
39.1133
39.0883
39.0918
39.0668
39.063
39.0458
39.0398
39.0269
39.0197
39.0111
39.0063
39.0014
38.9963
38.994
38.9923
38.9917
38.9917
38.9931
38.9962
38.9988
39.0054
39.0097
39.0195
39.0258
39.0391
39.0433
39.0627
39.0653
39.0887
39.0875
39.1071
39.1107
39.1371
39.1049
39.085
39.0766
39.0545
39.0583
39.0322
39.0322
39.014
39.0101
38.9979
38.9918
38.9836
38.978
38.9736
38.9697
38.967
38.9655
38.965
38.9643
38.9661
38.9681
38.9715
38.9774
38.9823
38.9907
38.9965
39.0091
39.0127
39.0301
39.0327
39.0541
39.0533
39.0715
39.0698
39.1006
39.0707
39.0502
39.0434
39.0218
39.025
39.0018
39.0032
38.9861
38.9828
38.9706
38.9649
38.957
38.9528
38.948
38.9448
38.9426
38.9411
38.9399
38.9404
38.941
38.9449
38.9463
38.9527
38.9565
38.9643
38.9696
38.9809
38.9853
39.0011
39.0032
39.0234
39.0209
39.0403
39.0328
39.0668
39.0391
39.0148
39.0125
38.9937
38.9962
38.9781
38.9746
38.9604
38.9573
38.9474
38.941
38.934
38.9295
38.9255
38.9221
38.9198
38.9191
38.9178
38.9182
38.9189
38.9208
38.9239
38.9286
38.933
38.9398
38.9454
38.9564
38.9592
38.9746
38.9764
38.9943
38.9929
39.01
39.0097
39.0359
39.0104
38.9846
38.9831
38.9705
38.9692
38.9526
38.9514
38.9371
38.9347
38.9238
38.9191
38.9125
38.9083
38.9048
38.9012
38.8997
38.8981
38.8972
38.8974
38.8988
38.9006
38.9035
38.9078
38.9113
38.918
38.9227
38.9324
38.9356
38.9499
38.9503
38.9675
38.9656
38.9827
38.9892
39.0085
38.9834
38.962
38.9579
38.9448
38.9447
38.9288
38.9287
38.9158
38.912
38.9032
38.8995
38.8925
38.8892
38.8852
38.8825
38.8809
38.8792
38.8788
38.8792
38.8799
38.8822
38.8843
38.8884
38.8915
38.8978
38.9015
38.9111
38.9138
38.9269
38.9283
38.9439
38.9405
38.9573
38.96
38.9824
38.9594
38.9432
38.9342
38.922
38.9224
38.9079
38.9076
38.8948
38.8929
38.8848
38.8802
38.875
38.8709
38.8683
38.8652
38.8638
38.862
38.8617
38.8621
38.8625
38.864
38.8663
38.8706
38.8731
38.8794
38.8833
38.8917
38.8942
38.9067
38.9072
38.9205
38.9186
38.9339
38.9389
38.9578
38.9364
38.9186
38.9114
38.902
38.9011
38.8887
38.8886
38.8764
38.8748
38.8661
38.8637
38.8576
38.8554
38.8516
38.8493
38.8475
38.8466
38.8461
38.8459
38.8469
38.8488
38.8505
38.8542
38.8565
38.8624
38.8648
38.8733
38.875
38.8868
38.8864
38.8998
38.8963
38.9102
38.9215
38.9357
38.9154
38.8957
38.8915
38.8812
38.8819
38.8708
38.8708
38.8592
38.8586
38.8508
38.848
38.8425
38.8394
38.8371
38.8347
38.8332
38.8324
38.8322
38.8322
38.8325
38.8341
38.8359
38.839
38.8418
38.8468
38.8493
38.8571
38.8584
38.8689
38.869
38.8806
38.8769
38.8889
38.8972
38.915
38.8966
38.881
38.8712
38.8634
38.8638
38.8535
38.8547
38.8437
38.8432
38.836
38.833
38.8285
38.8259
38.8236
38.8215
38.8195
38.8189
38.8188
38.8187
38.8196
38.8205
38.8219
38.8256
38.8272
38.8319
38.8349
38.8415
38.8426
38.8529
38.8526
38.8636
38.8631
38.871
38.8805
38.896
38.8795
38.8673
38.8569
38.8481
38.8479
38.8384
38.8393
38.8298
38.8288
38.8215
38.8199
38.8155
38.8134
38.8107
38.8091
38.8071
38.807
38.8064
38.8063
38.8071
38.8085
38.8101
38.8118
38.8142
38.8191
38.8202
38.8272
38.8277
38.8373
38.8369
38.8476
38.8508
38.8526
38.8682
38.8784
38.8634
38.8481
38.8442
38.8319
38.8312
38.8231
38.8252
38.8162
38.8158
38.8097
38.8078
38.8041
38.8016
38.7994
38.7978
38.7965
38.7957
38.7953
38.7956
38.7959
38.7971
38.7986
38.801
38.8027
38.8064
38.8088
38.8145
38.815
38.8232
38.8225
38.8321
38.8337
38.8384
38.8501
38.8617
38.8478
38.8296
38.8256
38.817
38.8162
38.8099
38.8119
38.8028
38.8034
38.7978
38.7957
38.7921
38.7912
38.7887
38.7871
38.7859
38.7853
38.7852
38.7852
38.7855
38.7864
38.7879
38.7899
38.7916
38.795
38.7966
38.8023
38.8027
38.8099
38.8086
38.8171
38.8156
38.8273
38.8295
38.8461
38.8332
38.8191
38.8117
38.8034
38.8035
38.7966
38.7993
38.7908
38.7916
38.7869
38.7855
38.7826
38.7804
38.7792
38.7777
38.7758
38.7761
38.7755
38.7754
38.7762
38.7771
38.7784
38.7797
38.7814
38.785
38.7856
38.7907
38.7901
38.7969
38.7957
38.8033
38.8009
38.8137
38.8184
38.8322
38.8202
38.8105
38.7989
38.7923
38.7934
38.7849
38.7879
38.7811
38.781
38.7775
38.7757
38.7731
38.7719
38.77
38.769
38.7673
38.7673
38.7671
38.7673
38.767
38.7684
38.769
38.7708
38.7722
38.7752
38.7761
38.7807
38.7794
38.7852
38.7847
38.7916
38.7899
38.8008
38.8111
38.8194
38.8081
38.7958
38.7867
38.7828
38.7849
38.7745
38.7778
38.7692
38.7719
38.7679
38.7658
38.7639
38.7633
38.7612
38.7601
38.76
38.7595
38.7593
38.7591
38.7593
38.76
38.761
38.7618
38.7634
38.7654
38.7664
38.7713
38.77
38.7741
38.7747
38.7805
38.78
38.7876
38.7997
38.8077
38.7958
38.7864
38.7756
38.7714
38.7745
38.7665
38.7684
38.7613
38.7617
38.7589
38.7586
38.7561
38.7547
38.7538
38.7528
38.7518
38.7513
38.7516
38.7511
38.7518
38.7527
38.7528
38.7538
38.7547
38.7572
38.757
38.762
38.7598
38.7663
38.7666
38.7713
38.7713
38.7779
38.7884
38.7964
38.7854
38.7788
38.7677
38.7633
38.7624
38.7593
38.7588
38.7551
38.7541
38.7513
38.7518
38.7481
38.7479
38.7463
38.745
38.7449
38.7446
38.7443
38.7445
38.7449
38.7454
38.7458
38.7461
38.7469
38.7498
38.7494
38.7537
38.7534
38.7597
38.7572
38.764
38.7642
38.7707
38.7809
38.7856
38.7761
38.7673
38.7611
38.7567
38.7546
38.7497
38.751
38.747
38.7485
38.7443
38.7438
38.7411
38.7414
38.7395
38.7381
38.7389
38.7386
38.7378
38.7382
38.7381
38.7389
38.7392
38.7397
38.7394
38.7417
38.742
38.7455
38.7474
38.7501
38.7497
38.7565
38.7556
38.7606
38.7693
38.7759
38.7669
38.7612
38.7518
38.75
38.7491
38.7436
38.7424
38.7392
38.7417
38.7374
38.7368
38.7353
38.7349
38.7332
38.7328
38.732
38.7322
38.7321
38.7317
38.7319
38.7325
38.732
38.734
38.7345
38.7356
38.7345
38.7378
38.7382
38.7432
38.744
38.7479
38.7466
38.7516
38.7578
38.7667
38.7585
38.7554
38.7454
38.7412
38.7419
38.7371
38.7365
38.7332
38.7342
38.7311
38.7302
38.73
38.7294
38.7275
38.7277
38.7264
38.7264
38.7261
38.7263
38.7264
38.7269
38.7269
38.7292
38.7297
38.7304
38.7297
38.7325
38.7327
38.7378
38.7381
38.7397
38.739
38.7457
38.7504
38.7585
38.7505
38.7455
38.7391
38.7321
38.7347
38.7304
38.7323
38.7277
38.7277
38.7245
38.7246
38.7239
38.7242
38.7232
38.7239
38.7231
38.7214
38.7213
38.7215
38.722
38.7214
38.7225
38.7249
38.7239
38.7246
38.7255
38.728
38.728
38.7325
38.7299
38.7341
38.7321
38.7366
38.7416
38.7504
38.7431
38.7399
38.7297
38.7262
38.7295
38.726
38.7269
38.7216
38.7226
38.7203
38.7205
38.7196
38.7197
38.7189
38.7202
38.7195
38.7173
38.718
38.7175
38.7176
38.7178
38.7188
38.719
38.7193
38.7202
38.7191
38.7222
38.7226
38.7258
38.7227
38.7278
38.7266
38.7279
38.7361
38.7428
38.736
38.7329
38.7233
38.72
38.7223
38.7184
38.7202
38.7157
38.7183
38.7169
38.717
38.7158
38.7155
38.7146
38.7139
38.7138
38.7137
38.7139
38.7132
38.7132
38.7144
38.7136
38.7139
38.7149
38.7163
38.7152
38.7166
38.7168
38.7188
38.7169
38.72
38.7192
38.7215
38.7314
38.7358
38.7288
38.7245
38.7175
38.7139
38.7151
38.7123
38.7145
38.7122
38.7141
38.713
38.7131
38.7121
38.7112
38.7095
38.7085
38.7081
38.7104
38.7097
38.7096
38.7096
38.7103
38.7096
38.7103
38.7109
38.7121
38.7117
38.7123
38.711
38.7129
38.7112
38.7143
38.7125
38.7157
38.7271
38.7291
38.7229
38.724
38.7117
38.7089
38.71
38.708
38.7091
38.7073
38.7086
38.7069
38.7079
38.7069
38.7058
38.7061
38.7057
38.7053
38.7062
38.7055
38.706
38.7065
38.706
38.7063
38.7062
38.7067
38.7077
38.7068
38.7082
38.7064
38.7085
38.7063
38.7089
38.7072
38.71
38.7227
38.7229
38.717
38.7201
38.7067
38.7039
38.7048
38.7035
38.7048
38.703
38.7032
38.7018
38.7025
38.7023
38.7022
38.7033
38.7029
38.7026
38.7019
38.7019
38.7018
38.7026
38.7017
38.7023
38.7018
38.702
38.7023
38.7021
38.7033
38.702
38.7038
38.7016
38.7033
38.7023
38.7049
38.7149
38.7164
38.7108
38.7095
38.7017
38.6993
38.7001
38.6989
38.7006
38.7001
38.7002
38.6989
38.6991
38.6987
38.6989
38.6986
38.6988
38.6986
38.698
38.6982
38.6979
38.6982
38.6983
38.6984
38.6981
38.698
38.6977
38.6983
38.6995
38.6978
38.6992
38.6972
38.699
38.6977
38.6994
38.7089
38.7103
38.7051
38.7054
38.6968
38.6947
38.6956
38.6934
38.6956
38.6956
38.6959
38.695
38.6964
38.696
38.6961
38.695
38.6952
38.6949
38.6949
38.6949
38.6947
38.6947
38.6952
38.6954
38.6958
38.6946
38.6954
38.6949
38.6953
38.6942
38.6954
38.6933
38.6942
38.6934
38.6953
38.7034
38.7048
38.7
38.7049
38.693
38.6905
38.6917
38.6901
38.692
38.6907
38.6917
38.6911
38.6924
38.6926
38.6926
38.6915
38.6914
38.6914
38.6916
38.6916
38.6913
38.6914
38.692
38.6918
38.6925
38.6909
38.6925
38.6914
38.6914
38.6902
38.6916
38.6895
38.6901
38.6892
38.691
38.6976
38.6996
38.6952
38.7002
38.689
38.6869
38.6875
38.688
38.6887
38.6873
38.6885
38.6877
38.6885
38.6886
38.6887
38.6879
38.6877
38.6878
38.6876
38.6877
38.6876
38.6878
38.6878
38.6878
38.6879
38.6866
38.6886
38.6874
38.6879
38.6867
38.6883
38.6857
38.6862
38.6852
38.6862
38.695
38.6947
38.6905
38.6943
38.6851
38.6829
38.6839
38.6845
38.6844
38.684
38.685
38.6842
38.685
38.6848
38.6851
38.6853
38.6852
38.6851
38.6853
38.6853
38.6851
38.6849
38.685
38.6852
38.6845
38.6843
38.685
38.6845
38.6854
38.6842
38.6852
38.6825
38.6825
38.6817
38.6828
38.6945
38.6899
38.6859
38.6914
38.6817
38.6794
38.6804
38.6808
38.6816
38.6808
38.6821
38.6812
38.682
38.6817
38.6824
38.6832
38.6827
38.6827
38.6829
38.6824
38.6831
38.6828
38.6821
38.6824
38.6815
38.6815
38.6819
38.6819
38.6829
38.6806
38.6824
38.6796
38.6788
38.6778
38.6794
38.6889
38.6847
38.6813
38.688
38.6777
38.6763
38.6775
38.6775
38.6783
38.6779
38.6789
38.6778
38.6786
38.6787
38.6798
38.6809
38.6797
38.6796
38.6801
38.679
38.6799
38.68
38.6783
38.6785
38.6775
38.6776
38.6781
38.6783
38.6792
38.6769
38.6789
38.6758
38.6746
38.6742
38.6752
38.683
38.6797
38.6767
38.6826
38.6744
38.6727
38.6743
38.6742
38.6743
38.6741
38.675
38.6738
38.6748
38.675
38.6768
38.6777
38.6757
38.6761
38.677
38.6768
38.6771
38.6776
38.6754
38.6752
38.6744
38.6747
38.6749
38.6743
38.6756
38.6738
38.6762
38.6728
38.6711
38.6711
38.6716
38.6785
38.675
38.6723
38.6786
38.6715
38.6699
38.6718
38.6714
38.6719
38.6713
38.6718
38.6713
38.6718
38.6729
38.6747
38.6748
38.6742
38.6748
38.676
38.674
38.6757
38.6761
38.6734
38.6735
38.6724
38.6733
38.6727
38.6726
38.6735
38.6722
38.6756
38.6713
38.6683
38.6681
38.6683
38.6756
38.6714
38.6685
38.6764
38.6688
38.6668
38.6705
38.6702
38.6702
38.6696
38.6702
38.6691
38.6704
38.6719
38.6731
38.6735
38.6734
38.6744
38.6755
38.6739
38.6749
38.6754
38.6736
38.6734
38.6722
38.6728
38.6725
38.6721
38.6723
38.6708
38.6728
38.6684
38.6656
38.6645
38.6636
38.673
38.6664
38.6647
38.6732
38.6651
38.6631
38.6661
38.6665
38.6687
38.6688
38.6694
38.6691
38.67
38.671
38.6719
38.6724
38.673
38.6726
38.6731
38.672
38.6725
38.6732
38.6723
38.6719
38.6706
38.6713
38.6708
38.6703
38.6698
38.669
38.6697
38.6642
38.6602
38.6622
38.659
38.6669
38.661
38.6602
38.668
38.661
38.6594
38.6613
38.6619
38.665
38.6661
38.6666
38.6676
38.6686
38.669
38.6691
38.6688
38.6683
38.668
38.6678
38.6674
38.6675
38.6674
38.6672
38.667
38.6661
38.6658
38.6659
38.665
38.6653
38.6642
38.6657
38.6633
38.658
38.6592
38.656
38.6638
38.6566
38.6554
38.6635
38.659
38.6564
38.6576
38.6586
38.66
38.6619
38.6623
38.6627
38.6642
38.664
38.6642
38.665
38.6642
38.6635
38.6639
38.6638
38.6628
38.6635
38.6633
38.6626
38.6613
38.6619
38.6611
38.6607
38.6612
38.6605
38.664
38.6613
38.6558
38.6569
38.6546
38.6606
38.6543
38.652
38.6598
38.656
38.6531
38.6539
38.6547
38.6564
38.6569
38.658
38.6591
38.6592
38.6603
38.661
38.6621
38.6611
38.6644
38.6649
38.6641
38.6633
38.6636
38.6637
38.6626
38.6624
38.6624
38.6616
38.6607
38.6614
38.6606
38.6635
38.6615
38.6548
38.6551
38.6524
38.6551
38.6496
38.649
38.6553
38.6515
38.6511
38.6527
38.6543
38.6562
38.6566
38.6583
38.6587
38.6596
38.6601
38.6613
38.663
38.662
38.6644
38.6653
38.6646
38.6638
38.6637
38.6638
38.6634
38.6627
38.6623
38.6608
38.6606
38.6611
38.6599
38.6614
38.6592
38.6528
38.6512
38.6454
38.6526
38.646
38.6445
38.6528
38.6465
38.6476
38.651
38.6535
38.6553
38.6566
38.6579
38.6584
38.6595
38.66
38.6608
38.6622
38.6609
38.6619
38.6617
38.6612
38.6609
38.6614
38.6602
38.6606
38.6595
38.6584
38.6585
38.6581
38.6574
38.656
38.6561
38.6536
38.6472
38.6469
38.641
38.6472
38.6431
38.6403
38.6465
38.6419
38.6431
38.6447
38.649
38.6507
38.6523
38.6537
38.6542
38.6552
38.6554
38.656
38.6567
38.6553
38.6569
38.6567
38.6565
38.6564
38.6566
38.656
38.6556
38.6546
38.6541
38.6539
38.6533
38.6525
38.6516
38.6508
38.6491
38.6439
38.6436
38.637
38.6411
38.636
38.6386
38.6374
38.6361
38.6396
38.641
38.644
38.6465
38.6478
38.649
38.6501
38.6512
38.6512
38.6517
38.6516
38.6498
38.6534
38.6534
38.653
38.6527
38.6525
38.6528
38.6517
38.6514
38.6504
38.6501
38.65
38.6489
38.6476
38.647
38.6452
38.6417
38.6417
38.6352
38.6428
38.6288
38.6318
38.6351
38.633
38.6364
38.6382
38.6407
38.6424
38.6441
38.6456
38.6466
38.6476
38.648
38.6483
38.6464
38.6456
38.6497
38.6492
38.6501
38.6497
38.6496
38.6488
38.6483
38.6471
38.6472
38.6469
38.6461
38.6457
38.6444
38.6438
38.6422
38.6381
38.6386
38.6355
38.6477
38.6307
38.6271
38.6364
38.6319
38.632
38.6347
38.6363
38.6394
38.6411
38.642
38.643
38.6442
38.6445
38.6455
38.6437
38.6436
38.6468
38.6472
38.6464
38.6469
38.6461
38.6468
38.6448
38.6452
38.6436
38.644
38.6441
38.6424
38.6407
38.6396
38.6383
38.6361
38.6364
38.6361
38.6486
38.6315
38.6267
38.6365
38.6318
38.629
38.6326
38.6339
38.6363
38.6373
38.64
38.6414
38.642
38.642
38.6421
38.6414
38.6437
38.6449
38.6442
38.6449
38.6447
38.6444
38.6439
38.6438
38.6424
38.6425
38.6418
38.6412
38.6407
38.6391
38.6376
38.6367
38.6338
38.635
38.6365
38.6521
38.6318
38.6258
38.6377
38.6326
38.6259
38.6295
38.6312
38.6344
38.6357
38.6383
38.6383
38.6406
38.6406
38.6411
38.6407
38.6433
38.6423
38.6434
38.6433
38.6437
38.6426
38.6431
38.6421
38.6416
38.6413
38.6406
38.6402
38.6389
38.6374
38.6357
38.6346
38.6334
38.6325
38.6362
38.6531
38.6342
38.6256
38.6392
38.6316
38.6247
38.6286
38.6296
38.6326
38.6341
38.6361
38.6374
38.6379
38.6384
38.6402
38.6402
38.643
38.6417
38.6422
38.6424
38.642
38.6422
38.6421
38.6411
38.6405
38.6407
38.6389
38.6394
38.6372
38.6365
38.6346
38.6335
38.6321
38.6311
38.6346
38.6485
38.6342
38.6238
38.6364
38.6286
38.6226
38.6274
38.6281
38.6306
38.6323
38.6354
38.6361
38.6373
38.6378
38.6389
38.6404
38.6435
38.641
38.6412
38.6414
38.6416
38.641
38.6414
38.6407
38.6402
38.6396
38.6385
38.6382
38.6367
38.6354
38.6335
38.6321
38.6309
38.6286
38.6327
38.6441
38.6303
38.6193
38.6344
38.6254
38.6195
38.6257
38.6269
38.6302
38.6321
38.6344
38.6352
38.6367
38.6366
38.6383
38.6394
38.6433
38.6391
38.6408
38.6404
38.6411
38.64
38.6403
38.6396
38.6394
38.6389
38.6378
38.6371
38.6357
38.6345
38.6324
38.6306
38.6294
38.6257
38.6307
38.6395
38.6259
38.6147
38.6331
38.6208
38.6158
38.6234
38.6249
38.6286
38.6309
38.6336
38.6345
38.6353
38.6356
38.6373
38.6381
38.6415
38.6379
38.6399
38.6394
38.6392
38.6393
38.6392
38.6386
38.638
38.6379
38.6359
38.6362
38.6338
38.6331
38.6308
38.6283
38.6273
38.623
38.6282
38.6357
38.622
38.6111
38.6252
38.6174
38.6135
38.6207
38.6232
38.627
38.6294
38.632
38.6331
38.6349
38.6355
38.6357
38.6374
38.6405
38.6369
38.6383
38.6385
38.6385
38.6385
38.6383
38.6379
38.6373
38.6369
38.6354
38.6347
38.6331
38.632
38.6296
38.6271
38.6256
38.6204
38.6253
38.6304
38.6184
38.6076
38.6176
38.6133
38.6097
38.6191
38.6217
38.6259
38.6284
38.6307
38.6322
38.6342
38.6343
38.6355
38.6365
38.6385
38.6358
38.6377
38.6375
38.6376
38.6379
38.6372
38.6369
38.6365
38.6354
38.6346
38.6335
38.6321
38.6305
38.628
38.6253
38.6229
38.6173
38.6218
38.6252
38.6152
38.6055
38.6061
38.6098
38.6067
38.616
38.6196
38.6247
38.6275
38.6299
38.6317
38.6325
38.6329
38.635
38.636
38.6375
38.6352
38.6366
38.636
38.6359
38.6368
38.6366
38.6365
38.6347
38.635
38.6328
38.633
38.6302
38.6294
38.6267
38.624
38.6214
38.6147
38.618
38.62
38.613
38.6006
38.5967
38.606
38.6048
38.6139
38.6183
38.6231
38.6264
38.6293
38.6309
38.6319
38.6322
38.6334
38.6351
38.6368
38.6348
38.6356
38.635
38.635
38.6358
38.6363
38.6354
38.6339
38.6333
38.6323
38.6318
38.6291
38.628
38.6254
38.6221
38.6188
38.6108
38.6141
38.6104
38.6111
38.5966
38.5897
38.6018
38.6016
38.6122
38.6177
38.6223
38.6266
38.629
38.6294
38.6311
38.6316
38.6331
38.6345
38.636
38.6333
38.6345
38.6339
38.6343
38.6349
38.6351
38.6337
38.6332
38.6323
38.6317
38.6304
38.6282
38.6268
38.6238
38.6207
38.6164
38.6086
38.611
38.6059
38.6083
38.5965
38.5862
38.5946
38.6004
38.6096
38.6167
38.6214
38.6255
38.6278
38.6288
38.6296
38.6308
38.6321
38.6333
38.6358
38.6332
38.6337
38.6334
38.6328
38.6342
38.6342
38.6332
38.6318
38.6319
38.6299
38.6296
38.6269
38.6261
38.6234
38.6198
38.6148
38.6066
38.6067
38.5965
38.6049
38.591
38.5847
38.5915
38.5997
38.6087
38.6152
38.6208
38.6253
38.6271
38.6282
38.6296
38.6309
38.6314
38.6319
38.6355
38.6329
38.6335
38.6334
38.6332
38.6341
38.6321
38.6331
38.6319
38.6317
38.6296
38.6289
38.6271
38.6247
38.6225
38.6188
38.6135
38.6055
38.6031
38.5922
38.6021
38.5903
38.5849
38.5875
38.5995
38.6072
38.6152
38.6198
38.625
38.6274
38.6282
38.6297
38.6306
38.6318
38.6317
38.6351
38.6318
38.6333
38.6329
38.6326
38.6324
38.6326
38.6326
38.6316
38.6302
38.6294
38.6281
38.6263
38.6244
38.6216
38.6176
38.6116
38.6044
38.5981
38.5902
38.5994
38.5929
38.5865
38.5872
38.5993
38.6061
38.6151
38.6193
38.6246
38.6268
38.6276
38.6288
38.6298
38.6312
38.6319
38.6346
38.632
38.6329
38.6328
38.6321
38.6322
38.632
38.6315
38.6306
38.6304
38.6294
38.628
38.6257
38.6239
38.6211
38.617
38.611
38.6033
38.5952
38.5878
38.5996
38.5917
38.589
38.5876
38.5991
38.6064
38.6144
38.6193
38.6241
38.6267
38.6275
38.6289
38.6303
38.6307
38.6318
38.633
38.632
38.6323
38.6327
38.6323
38.6321
38.6315
38.6312
38.6312
38.63
38.6294
38.6282
38.6261
38.624
38.6204
38.617
38.6101
38.6037
38.5941
38.5892
38.599
38.5922
38.5915
38.5887
38.601
38.6062
38.6154
38.6187
38.6236
38.626
38.6277
38.6289
38.6303
38.631
38.6307
38.6335
38.6312
38.6317
38.6319
38.6323
38.6323
38.6317
38.6312
38.6308
38.6296
38.6282
38.6271
38.6258
38.6236
38.6209
38.6165
38.6096
38.6036
38.5926
38.5922
38.6002
38.5941
38.5963
38.5905
38.602
38.6064
38.6161
38.6194
38.6232
38.626
38.628
38.6293
38.6306
38.6312
38.6315
38.6319
38.6317
38.6321
38.6325
38.6316
38.6329
38.6319
38.6315
38.6307
38.63
38.629
38.6278
38.6255
38.6235
38.6203
38.6171
38.6103
38.6042
38.5939
38.5945
38.6012
38.5956
38.5995
38.5942
38.6037
38.608
38.6162
38.6195
38.6239
38.6249
38.6276
38.6293
38.6309
38.6306
38.6314
38.6326
38.6321
38.6324
38.6329
38.6327
38.6319
38.6324
38.6318
38.6315
38.6305
38.6288
38.6277
38.6264
38.6241
38.621
38.6179
38.6105
38.6061
38.5952
38.5994
38.6027
38.597
38.6046
38.597
38.6069
38.6097
38.6181
38.6198
38.6249
38.6261
38.6285
38.6301
38.6305
38.6314
38.6316
38.6329
38.633
38.6321
38.6325
38.6327
38.6331
38.6333
38.6313
38.6316
38.6305
38.6289
38.6279
38.627
38.6247
38.6216
38.6179
38.6111
38.6076
38.5967
38.6016
38.6051
38.602
38.6085
38.6014
38.6099
38.6107
38.6196
38.6216
38.6258
38.6263
38.6296
38.6304
38.6315
38.6321
38.6328
38.6328
38.6335
38.6331
38.6336
38.633
38.6332
38.6327
38.6322
38.6318
38.6317
38.63
38.6289
38.6269
38.6246
38.6214
38.6195
38.613
38.6098
38.6008
38.6053
38.6069
38.6044
38.6117
38.6059
38.6134
38.6138
38.6205
38.6224
38.6258
38.6269
38.6292
38.6315
38.6325
38.6321
38.6331
38.634
38.6334
38.6339
38.6345
38.634
38.6336
38.634
38.633
38.6326
38.6312
38.6303
38.6297
38.6283
38.6261
38.6233
38.6209
38.6141
38.6127
38.6034
38.6083
38.6103
38.6056
38.6181
38.6097
38.6165
38.6164
38.6228
38.6237
38.6275
38.6285
38.6307
38.6315
38.6324
38.6334
38.6336
38.6349
38.6349
38.634
38.6346
38.6349
38.6347
38.6343
38.6329
38.6336
38.6322
38.6308
38.6296
38.6293
38.6272
38.624
38.6227
38.6155
38.6155
38.6068
38.6109
38.6125
38.6105
38.6206
38.6139
38.6198
38.6186
38.6245
38.6253
38.6289
38.6294
38.6318
38.6329
38.6338
38.6342
38.6351
38.6357
38.636
38.6358
38.6361
38.6365
38.6358
38.6349
38.6347
38.6339
38.6333
38.6322
38.6311
38.6292
38.6274
38.6249
38.6242
38.618
38.6184
38.6112
38.6143
38.615
38.6131
38.6227
38.6182
38.6235
38.6216
38.6269
38.6264
38.6295
38.6301
38.6321
38.6342
38.635
38.6347
38.6364
38.6372
38.6363
38.6365
38.6373
38.6372
38.6364
38.6362
38.6354
38.6354
38.6346
38.6334
38.6323
38.6307
38.6294
38.6266
38.6253
38.6203
38.6211
38.6146
38.6164
38.6193
38.6168
38.6306
38.6228
38.6265
38.6234
38.6283
38.6289
38.6317
38.6322
38.6341
38.6348
38.6353
38.6366
38.637
38.6376
38.6385
38.6375
38.6377
38.6384
38.638
38.6374
38.6363
38.6363
38.6359
38.6337
38.6325
38.6322
38.6311
38.6284
38.6275
38.6218
38.6245
38.6178
38.6197
38.6225
38.6217
38.6325
38.6265
38.6303