/*--------------------------------*- C++ -*----------------------------------*\
  =========                 |
  \\      /  F ield         | OpenFOAM: The Open Source CFD Toolbox
   \\    /   O peration     | Website:  https://openfoam.org
    \\  /    A nd           | Version:  8
     \\/     M anipulation  |
\*---------------------------------------------------------------------------*/
FoamFile
{
    version     2.0;
    format      ascii;
    class       surfaceScalarField;
    location    "50";
    object      phi;
}
// * * * * * * * * * * * * * * * * * * * * * * * * * * * * * * * * * * * * * //

dimensions      [1 0 -1 0 0 0 0];

internalField   nonuniform List<scalar> 
228225
(
0.00104529
0.00779173
-0.00884174
0.000247959
0.00776027
-0.00696977
-0.000275901
0.00721936
-0.00670379
-0.000935441
0.00746286
-0.00681122
-0.0014066
0.00730141
-0.0068373
-0.00152395
0.00772914
-0.00761802
-0.00160895
0.00781955
-0.0077405
-0.00158402
0.00816884
-0.00819946
-0.00153397
0.00829036
-0.00834609
-0.00146339
0.00855794
-0.00863413
-0.00134533
0.00874831
-0.00887204
-0.00126835
0.00893654
-0.00901923
-0.00111538
0.00911426
-0.00927287
-0.00104726
0.00933023
-0.009404
-0.000759528
0.00946559
-0.0097589
-0.000597444
0.00977955
-0.00994666
-0.000302729
0.00981937
-0.01012
0.000322883
0.00989721
-0.0105289
0.000497424
0.010074
-0.0102538
0.000785187
0.00959395
-0.00988789
0.000987618
0.00948667
-0.00969516
0.00114081
0.00929435
-0.0094536
0.00122908
0.00910037
-0.00919479
0.00136736
0.00894219
-0.0090866
0.00147081
0.00875926
-0.00886874
0.00157075
0.00851157
-0.00861753
0.00161113
0.00829155
-0.00833795
0.00155923
0.00809528
-0.00804954
0.00148979
0.00782983
-0.00776673
0.00141889
0.00775683
-0.00769251
0.000990202
0.0073576
-0.0069363
0.000298683
0.00742571
-0.00674253
-0.000271068
0.0072053
-0.0066442
-0.00110693
0.00777247
-0.0069436
0.00780209
-0.00891363
0.000943648
0.0146357
-0.00778931
0.000383438
0.013859
-0.00554137
-0.00028411
0.0131879
-0.00530405
-0.000880944
0.013537
-0.00548024
-0.00134974
0.013241
-0.00547366
-0.00151611
0.0138759
-0.00598312
-0.00161973
0.014053
-0.00613254
-0.00161752
0.0146549
-0.00649092
-0.00160115
0.0148979
-0.00662632
-0.00153665
0.0153733
-0.00688241
-0.0014482
0.015764
-0.00710663
-0.00136465
0.0161143
-0.00726371
-0.00125098
0.0165259
-0.00752771
-0.00115741
0.0169166
-0.00768229
-0.000890731
0.0172612
-0.0080645
-0.000656855
0.017963
-0.00842007
-0.000282096
0.0179842
-0.00854213
0.000293202
0.0184519
-0.00913244
0.000596211
0.0185792
-0.00881099
0.000889594
0.0175807
-0.00828248
0.00111087
0.0172885
-0.00802576
0.001258
0.0168802
-0.00773571
0.00134879
0.0164654
-0.00745844
0.00146219
0.0161408
-0.0073145
0.00154586
0.0157855
-0.00711262
0.00162634
0.0153059
-0.00687739
0.00163436
0.014905
-0.00662421
0.00158804
0.0145219
-0.00638299
0.00149172
0.0140805
-0.0061572
0.00137216
0.0139165
-0.00604308
0.000918494
0.0133192
-0.00551101
0.000309695
0.0134539
-0.0054225
-0.00040148
0.0131841
-0.00527082
-0.000996497
0.0138812
-0.00551657
0.0147095
-0.00790638
0.000836119
0.0194617
-0.00566418
0.000349123
0.0184569
-0.00411253
-0.000255212
0.0175502
-0.00375974
-0.000784423
0.0180095
-0.00394513
-0.0012239
0.0177036
-0.00402484
-0.00141194
0.0184053
-0.00434305
-0.0015258
0.0186448
-0.00447956
-0.0015295
0.0193715
-0.00471441
-0.00155016
0.0197825
-0.00486552
-0.00148977
0.0203034
-0.00499202
-0.00142172
0.0208741
-0.00517953
-0.00134774
0.0213313
-0.00529244
-0.00126509
0.0219387
-0.00549681
-0.00118039
0.0224393
-0.0056087
-0.000938603
0.0229224
-0.00590437
-0.000683502
0.0235579
-0.00585205
-0.000275369
0.0238158
-0.00624128
0.0003019
0.0246366
-0.00676338
0.000619325
0.0244208
-0.00616113
0.000911304
0.0233645
-0.00607723
0.00113945
0.022903
-0.00584414
0.0012752
0.022358
-0.00561508
0.00135265
0.0218281
-0.00544167
0.00143868
0.0213841
-0.00533091
0.00149775
0.0209171
-0.00519214
0.00155618
0.0202693
-0.0050234
0.00154674
0.0197396
-0.00482668
0.00149195
0.0192844
-0.00470933
0.0013924
0.0186917
-0.00451335
0.00126167
0.0184124
-0.00436699
0.000822173
0.0177956
-0.00403871
0.000263802
0.0179339
-0.00392344
-0.000370849
0.0175714
-0.00375452
-0.000917006
0.0185226
-0.0040969
0.0194659
-0.00567552
0.00107215
0.0224244
-0.0040366
0.000325238
0.022211
-0.00300866
-0.000297374
0.0210293
-0.00285813
-0.000728921
0.0215005
-0.00306089
-0.0011288
0.021052
-0.00295005
-0.00129801
0.0216866
-0.00311339
-0.00141043
0.0220157
-0.00325976
-0.0013929
0.0227685
-0.0034158
-0.00142391
0.0233261
-0.0035138
-0.00139229
0.0238897
-0.00361898
-0.00139578
0.0246181
-0.00374165
-0.00132298
0.0250204
-0.003763
-0.0011925
0.0256345
-0.00382732
-0.00112864
0.0263277
-0.00395325
-0.000975915
0.0269014
-0.00413283
-0.000660971
0.0274922
-0.00425026
-0.000328353
0.0279344
-0.00445218
0.000255028
0.0287136
-0.00466139
0.000728368
0.0283575
-0.00441095
0.000937497
0.0274069
-0.00425275
0.00111811
0.0268815
-0.00416029
0.00122838
0.0262355
-0.00398889
0.00129705
0.0256224
-0.00386422
0.00135378
0.0251232
-0.00379711
0.00141049
0.0245729
-0.00371367
0.00144884
0.023798
-0.00356835
0.00142953
0.0232388
-0.00348123
0.00137514
0.0227048
-0.00336735
0.00126609
0.0221031
-0.00330377
0.00111004
0.0217629
-0.00319584
0.000733687
0.0210809
-0.00291049
0.000280694
0.0214054
-0.00302021
-0.000368845
0.0210559
-0.00283655
-0.00108189
0.0222083
-0.00297414
0.0225051
-0.00412234
0.00114667
0.0244126
-0.00313567
0.00039164
0.024587
-0.00162226
-0.000303431
0.0235514
-0.00182824
-0.000647767
0.0239531
-0.00210938
-0.000956081
0.0236449
-0.00228566
-0.00110415
0.0242952
-0.00246167
-0.00122143
0.0245879
-0.00245595
-0.00125176
0.025406
-0.00260809
-0.0012633
0.0259083
-0.00257163
-0.00124086
0.0265578
-0.00269135
-0.00119867
0.0272745
-0.00269945
-0.00110719
0.0277208
-0.00279265
-0.00102001
0.028491
-0.00294445
-0.00103087
0.0293226
-0.00298512
-0.000857971
0.0296786
-0.00295086
-0.000617838
0.0302637
-0.00301249
-0.000289332
0.0307368
-0.00313162
0.000276446
0.0314141
-0.00326704
0.000601072
0.0312964
-0.00326469
0.00081408
0.0302677
-0.00307474
0.000969383
0.0296776
-0.00295221
0.00105959
0.0290101
-0.00286569
0.00114526
0.0283678
-0.00283195
0.00121711
0.0278424
-0.00279193
0.00120664
0.0273984
-0.00281628
0.0012499
0.0264144
-0.00266071
0.00123381
0.0258406
-0.00258665
0.00121378
0.0252654
-0.00254167
0.00110356
0.0246937
-0.00248139
0.000981109
0.0242992
-0.00241496
0.000654317
0.0237152
-0.00230876
0.000296842
0.0238146
-0.0020529
-0.000398975
0.0235731
-0.00182266
-0.0011955
0.0246588
-0.00165526
0.0244821
-0.00317337
0.00118292
0.0261794
-0.00295048
0.000562233
0.0262314
-0.00102458
-0.000142354
0.0253356
-0.00108061
-0.000458017
0.0256264
-0.00135854
-0.000767128
0.0253949
-0.00144178
-0.000916148
0.0259328
-0.00148931
-0.00104088
0.0262733
-0.00156136
-0.0010681
0.0269775
-0.00154514
-0.00105873
0.0274797
-0.00158147
-0.001036
0.0281825
-0.0016484
-0.0010094
0.0290002
-0.00175312
-0.000949327
0.0294264
-0.00176657
-0.000953661
0.0303262
-0.00183176
-0.000871845
0.0308724
-0.00163242
-0.000731965
0.0313757
-0.00183787
-0.000479155
0.031924
-0.00191368
-0.000210705
0.0325527
-0.00208522
0.000182791
0.0331398
-0.00212003
0.000512892
0.0328122
-0.00184688
0.000697337
0.0319828
-0.00190016
0.000836369
0.0313715
-0.0018336
0.000923307
0.0307158
-0.0017933
0.00100582
0.0300901
-0.00180545
0.00103351
0.0296033
-0.00178959
0.00106399
0.0289173
-0.00155052
0.00108078
0.0280362
-0.00163934
0.00106037
0.0274781
-0.00161786
0.00102611
0.0268939
-0.00159505
0.000928358
0.026358
-0.0015674
0.000776154
0.0259227
-0.00147212
0.000441618
0.025421
-0.00137217
0.000130368
0.0255355
-0.00141069
-0.000627124
0.0253535
-0.00102388
-0.00126318
0.0262309
-0.000936895
0.026173
-0.00295468
0.0011754
0.027927
-0.00292355
0.0007621
0.0271915
-0.000547535
0.000106736
0.0265373
-0.000547032
-0.000224829
0.0269028
-0.000945623
-0.000554217
0.0265496
-0.000825917
-0.00069819
0.0269304
-0.00085421
-0.000835322
0.0272731
-0.000863402
-0.000854933
0.0279464
-0.00094976
-0.00092311
0.0285044
-0.000957266
-0.000884125
0.029027
-0.000884267
-0.000933033
0.0298626
-0.000814245
-0.000891782
0.0301896
-0.000805136
-0.000836901
0.0310538
-0.000783127
-0.000713032
0.0316262
-0.000878277
-0.000564522
0.0321472
-0.000920726
-0.000459706
0.0327763
-0.000957818
-0.000227202
0.0331971
-0.000877681
0.000115097
0.033741
-0.000944238
0.000510295
0.033317
-0.00090055
0.000619741
0.0329248
-0.0010521
0.00071174
0.0322628
-0.000983966
0.000781672
0.0316518
-0.00100657
0.000783357
0.0310791
-0.00099142
0.000843699
0.0304053
-0.000863109
0.000966207
0.0296104
-0.000816059
0.000939652
0.02902
-0.000957789
0.0008508
0.0284558
-0.000889603
0.000831423
0.0278595
-0.000946703
0.000686107
0.0274092
-0.000906695
0.000537204
0.0269714
-0.000900469
0.000228591
0.0265665
-0.00083761
-9.8159e-05
0.0267876
-0.000926042
-0.000785866
0.026582
-0.000541529
-0.00117953
0.0271986
-0.000574722
0.0278543
-0.00286132
0.000997135
0.0297803
-0.00285109
0.000832183
0.0277715
-0.000415583
0.000286014
0.0272225
-0.000139557
1.17944e-05
0.0276061
-0.000429803
-0.000330307
0.0274765
-0.000585389
-0.000536837
0.0278017
-0.000665296
-0.000661251
0.0279341
-0.000537063
-0.000728806
0.0285511
-0.000537487
-0.000785609
0.0289673
-0.000406599
-0.000787388
0.0295403
-0.000511878
-0.000809364
0.0303468
-0.000462467
-0.000758267
0.0306161
-0.000477857
-0.000668641
0.0314072
-0.000443355
-0.000629086
0.0319625
-0.00037626
-0.000481968
0.0324255
-0.000425776
-0.000444767
0.0330162
-0.000277572
-0.000198248
0.0334006
-0.00045034
0.00015379
0.0338445
-0.000455887
0.000459628
0.0334611
-0.000450183
0.000543027
0.0331737
-0.000332732
0.000630492
0.0324971
-0.000322257
0.000703177
0.0319374
-0.000358758
0.000693438
0.0314245
-0.000336115
0.000769301
0.0308332
-0.000504065
0.000760761
0.0301939
-0.000575242
0.000729667
0.0295387
-0.000487964
0.000726999
0.0289035
-0.000445608
0.000621495
0.0285289
-0.000564442
0.00055608
0.0279488
-0.000474793
0.000382202
0.0277255
-0.000580832
2.4736e-05
0.0275041
-0.000580463
-0.000271979
0.0275815
-0.000497599
-0.000813671
0.0273011
-0.000177926
-0.00102149
0.0278909
-0.000484994
0.0297682
-0.00293565
0.00107862
0.0313665
-0.00266521
0.000753118
0.0286716
-0.000575049
0.000168396
0.0278927
-8.58945e-05
6.05498e-05
0.0278891
-0.000175479
-0.000215948
0.0279502
-0.000197617
-0.000420538
0.0281971
-0.00019122
-0.00050423
0.0282105
-0.000193035
-0.000622186
0.0289173
-0.000248553
-0.000643423
0.0291298
-0.000141495
-0.000684468
0.0297448
-0.000163549
-0.000664165
0.0303611
-3.4785e-05
-0.000621551
0.0306597
-8.63698e-05
-0.000586083
0.0313667
4.88703e-06
-0.000555427
0.0319627
-3.10399e-05
-0.000462863
0.0322875
4.53334e-05
-0.000345925
0.0328227
7.64487e-05
-0.000164042
0.0332291
-1.04922e-05
0.000128173
0.0334556
9.65464e-05
0.000339537
0.0332684
-1.88056e-05
0.000458168
0.0329705
8.44063e-05
0.000540318
0.0323802
3.4637e-05
0.000631334
0.0318252
2.09715e-05
0.000690355
0.0314045
-3.92313e-05
0.000726167
0.0308651
-6.78887e-05
0.000625938
0.030484
-0.000189996
0.000577469
0.0297767
-0.000189759
0.000616294
0.0290195
-0.000155084
0.00049226
0.0287331
-8.05231e-05
0.000438824
0.0281943
-0.000192342
0.000289923
0.0280729
-0.000198888
-1.32702e-05
0.0280607
-0.000253821
-0.000280359
0.0280616
-0.000213408
-0.000826133
0.0279098
-6.32138e-05
-0.00101739
0.0285861
-0.000504251
0.0314678
-0.00271729
0.00126332
0.0323239
-0.00222094
0.000899262
0.0293373
-0.000301981
0.000178395
0.0286051
8.30109e-06
-8.17234e-06
0.0279899
8.55464e-05
-0.000232013
0.0281489
2.49275e-05
-0.000343942
0.0282588
5.00575e-05
-0.000429432
0.0282147
8.11774e-05
-0.000531082
0.0288314
0.000187321
-0.00055136
0.0290916
5.833e-05
-0.000581498
0.029584
0.000190925
-0.00055909
0.030178
0.000160675
-0.000558817
0.0304565
0.000202912
-0.000556115
0.0312133
0.000150776
-0.000483099
0.0315755
0.000314218
-0.000387542
0.0319095
0.000282377
-0.000282343
0.03238
0.000337522
-0.000142832
0.0327207
0.000368894
8.59734e-05
0.0329772
0.000249516
0.00026396
0.0326938
0.000396555
0.000390824
0.0324134
0.000430233
0.000472444
0.0319423
0.000356165
0.000554832
0.0313886
0.000354211
0.000621564
0.0310589
0.000278831
0.000637727
0.0305806
0.000268349
0.000574915
0.0302019
0.000344879
0.000522509
0.0297094
0.000119636
0.000487289
0.0290282
2.64828e-05
0.000455454
0.0286869
7.79257e-05
0.000332996
0.028312
4.62854e-06
0.000251822
0.0280874
6.65473e-05
5.46928e-06
0.0282302
7.66337e-05
-0.000247167
0.0281382
0.000175816
-0.000872915
0.0285029
3.24869e-05
-0.0012162
0.0292224
-0.000293123
0.0325225
-0.00227102
0.00129398
0.0326364
-0.00160658
0.00104484
0.0296094
-2.30673e-05
0.000296419
0.0289604
0.000392967
-4.09141e-05
0.0279758
0.000351421
-0.000227319
0.0280184
0.000316919
-0.000325264
0.028061
0.000295737
-0.000442796
0.0281774
0.000154869
-0.000453043
0.0285968
0.00024488
-0.000493453
0.0289352
0.000196929
-0.000512572
0.029305
0.000298209
-0.000520684
0.0298781
0.000308096
-0.00053566
0.0301534
0.000318212
-0.000503206
0.030734
0.000446927
-0.00039716
0.0311083
0.000361193
-0.000341888
0.0314182
0.00043609
-0.00024056
0.0319209
0.000357858
-0.000105444
0.0321489
0.0004367
7.06548e-05
0.032346
0.000455199
0.000229623
0.0321143
0.000420672
0.000343325
0.0319176
0.000382235
0.000414313
0.0315069
0.000364588
0.0004766
0.0309549
0.00037155
0.000530744
0.0306475
0.000357415
0.000532309
0.0302477
0.000331428
0.000541855
0.0298332
0.000359159
0.00051542
0.029483
0.0002529
0.000431222
0.0289305
0.000181878
0.000423614
0.0285036
0.000190897
0.000312052
0.0282807
0.000142816
0.000240263
0.0278579
0.000301301
2.41818e-05
0.0281207
0.000325609
-0.000243586
0.0279848
0.000421113
-0.000984843
0.0289299
0.00031425
-0.00135538
0.0296648
-7.1939e-05
0.0327248
-0.00155781
0.00127843
0.0323609
-0.00100301
0.00106379
0.029493
0.000331058
0.000400812
0.0290334
0.000590002
-4.19842e-05
0.0277793
0.000639403
-0.000236815
0.0278385
0.000374696
-0.000334755
0.0278556
0.000303368
-0.000437516
0.0279447
0.000335481
-0.000417057
0.028234
0.000342388
-0.000468435
0.0286438
0.000342902
-0.000480243
0.0289548
0.000362165
-0.000484037
0.0294659
0.000416185
-0.000487337
0.0297175
0.000439455
-0.000408279
0.0301766
0.000478525
-0.000357909
0.0305906
0.00046759
-0.000312685
0.0309118
0.000461268
-0.000207276
0.0312893
0.000526337
-7.37261e-05
0.0315069
0.00050867
8.48645e-05
0.0316975
0.000490133
0.000197334
0.0315104
0.000491693
0.000313567
0.0313015
0.000500049
0.000365563
0.0310207
0.000434383
0.000424628
0.0304533
0.000442738
0.000454209
0.0301782
0.000439829
0.000470696
0.0298214
0.000410044
0.00049023
0.0294036
0.000410259
0.000493021
0.0291172
0.000363088
0.000411846
0.0286953
0.000316646
0.000405662
0.0282403
0.000269687
0.000316787
0.0280514
0.000318375
0.000241714
0.0275984
0.000334693
2.56833e-05
0.0279223
0.000414473
-0.000336277
0.0277321
0.000614725
-0.00106015
0.0291038
0.00055002
-0.00136087
0.0296738
0.000291796
0.0323156
-0.000951646
0.00124595
0.0316721
-0.000557103
0.00102297
0.0292209
0.0004951
0.00046108
0.0287955
0.000799911
-2.39842e-05
0.0275197
0.000744902
-0.000234774
0.0275127
0.000536765
-0.00033551
0.027516
0.000440467
-0.000401863
0.0276218
0.000389425
-0.000393091
0.0278426
0.000382902
-0.000439505
0.0282769
0.000413694
-0.000444936
0.0285489
0.000411688
-0.000443676
0.0290284
0.000436622
-0.000432189
0.0292785
0.000427773
-0.000372956
0.0296309
0.000486753
-0.000328813
0.0300321
0.000514556
-0.000271278
0.0303111
0.000543451
-0.000170211
0.0306281
0.000560444
-5.87835e-05
0.0308418
0.000553988
6.61965e-05
0.0310263
0.000546596
0.000163366
0.0308477
0.000565836
0.000269694
0.0306648
0.000530637
0.000344291
0.0304451
0.000501406
0.000383341
0.029945
0.000469587
0.000401861
0.0297037
0.00045625
0.000438127
0.0293474
0.000438051
0.000438502
0.0289878
0.000415815
0.00045195
0.0286654
0.000438643
0.00041251
0.0282695
0.000465604
0.000389965
0.0278462
0.000416811
0.000318686
0.0277126
0.000410283
0.000233903
0.0272581
0.000425179
2.66882e-05
0.0276031
0.00052659
-0.000435266
0.0274635
0.000730776
-0.00106261
0.028892
0.000839388
-0.0012543
0.0293465
0.000519172
0.0316523
-0.000590907
0.00118975
0.0308219
-0.000339527
0.000970659
0.0288007
0.00063948
0.000452675
0.0284264
0.000887205
-1.34351e-05
0.0272281
0.000757924
-0.00023145
0.0271362
0.000594723
-0.000306567
0.0271109
0.000480497
-0.000360528
0.0272438
0.000432149
-0.000376996
0.0274272
0.000432103
-0.000405424
0.0278222
0.0004835
-0.000408563
0.0280796
0.000472748
-0.000394217
0.0285414
0.000472963
-0.000385667
0.0287855
0.000484828
-0.000343585
0.0290915
0.000497667
-0.000297136
0.0294792
0.000506862
-0.000235357
0.0296994
0.000550303
-0.000155676
0.0299821
0.000566658
-5.55066e-05
0.0301279
0.000614041
5.33421e-05
0.0303384
0.00057942
0.000150782
0.0301376
0.000613109
0.000239556
0.0299864
0.000590031
0.000314884
0.0298157
0.000554465
0.000341996
0.0293815
0.000536811
0.000361179
0.0291696
0.000515561
0.00042327
0.0287955
0.000490194
0.000394893
0.028559
0.000457566
0.000399308
0.028179
0.000482317
0.000408985
0.0278055
0.000454553
0.000371782
0.0274837
0.000400031
0.000305982
0.0273758
0.000402853
0.000215465
0.0268906
0.000458282
-3.57891e-06
0.027223
0.000599365
-0.000463298
0.027176
0.000747446
-0.000986822
0.0285051
0.000910578
-0.00114916
0.0288591
0.000649828
0.0308525
-0.000349197
0.00108788
0.0299647
-0.0002305
0.000926043
0.0283105
0.000652255
0.000456653
0.028006
0.000889968
2.17637e-05
0.0269
0.000763131
-0.000197506
0.0267597
0.000596115
-0.000264427
0.0266945
0.000483589
-0.000331167
0.026854
0.000456908
-0.000350839
0.0270202
0.000427064
-0.000371741
0.0273718
0.000471548
-0.000389149
0.027607
0.000490429
-0.000338292
0.0279788
0.000512154
-0.000343019
0.0282668
0.000523856
-0.000309791
0.0285086
0.000550112
-0.000261546
0.028904
0.000527354
-0.00021135
0.0290956
0.000554032
-0.000143113
0.0293554
0.000558893
-4.75164e-05
0.0294374
0.00059536
5.70842e-05
0.029626
0.000608256
0.000138224
0.0294505
0.00060635
0.000218572
0.0293309
0.000575625
0.000278992
0.0291968
0.000558927
0.000307067
0.0287934
0.000560566
0.00032578
0.0285961
0.000555485
0.000372239
0.0282392
0.000510263
0.000364499
0.0281209
0.000446189
0.000375139
0.0276635
0.000505287
0.000380852
0.0273392
0.000461106
0.000324466
0.027132
0.000408406
0.000266734
0.0269701
0.000463835
0.000182188
0.0264951
0.000480351
-3.4489e-05
0.0268336
0.000606314
-0.000459194
0.0267994
0.000801632
-0.000919638
0.0280527
0.000913086
-0.00106773
0.0283244
0.000682947
0.0300227
-0.000237686
0.00100433
0.0291634
-0.000202829
0.000850264
0.0277978
0.000667138
0.000448219
0.027541
0.000867395
4.02902e-05
0.0265592
0.000749158
-0.000146856
0.0263504
0.000596842
-0.000227211
0.0262945
0.000480618
-0.000272929
0.0264391
0.0004609
-0.000314086
0.0266281
0.000433624
-0.00033943
0.0269188
0.000478794
-0.000353318
0.0271365
0.000484836
-0.000308499
0.0274192
0.000515272
-0.000307571
0.0277457
0.000520662
-0.00028
0.0279518
0.000529685
-0.000235682
0.0283191
0.000541049
-0.000182615
0.02851
0.000532989
-0.000117354
0.0287308
0.000559827
-2.7497e-05
0.0287693
0.000578737
5.91741e-05
0.0289582
0.000581644
0.000120873
0.0287931
0.000596253
0.000179745
0.0287274
0.000545182
0.000252212
0.0285441
0.000580855
0.000268323
0.028238
0.000539765
0.000299406
0.0280289
0.000536489
0.000332549
0.0276923
0.000514224
0.000336283
0.0276319
0.000485762
0.000330308
0.0271959
0.000474033
0.000335893
0.0268388
0.000495323
0.000271719
0.026789
0.000407726
0.000224615
0.0265631
0.00045441
0.00015896
0.0261044
0.000456675
-6.1209e-05
0.0264794
0.000574754
-0.00043652
0.0264239
0.000751058
-0.000844546
0.0276018
0.000859128
-0.001002
0.0277955
0.000686637
0.0292283
-0.00020745
0.000933823
0.0284449
-0.000215094
0.000785284
0.0272972
0.000649456
0.000429689
0.0270569
0.000839987
5.16488e-05
0.0261795
0.000758286
-0.000124006
0.0259515
0.000574798
-0.000191298
0.0258533
0.000508859
-0.000223552
0.0260315
0.000440295
-0.000278157
0.0262338
0.0004493
-0.000298855
0.0264604
0.000479572
-0.000301225
0.0266787
0.000460596
-0.00028861
0.0269629
0.000444079
-0.000279842
0.0272518
0.000485569
-0.000249938
0.0274168
0.000505483
-0.000217327
0.0277511
0.000535866
-0.000163643
0.0279196
0.000537248
-8.71546e-05
0.0280892
0.000565634
-2.36851e-05
0.0281636
0.000542781
3.64446e-05
0.02833
0.000568597
9.53507e-05
0.0281669
0.000567787
0.000155393
0.028104
0.000563922
0.000224424
0.0279002
0.000575339
0.00024409
0.0276807
0.000538242
0.000271312
0.0274746
0.000527515
0.000300518
0.027142
0.000521627
0.000314365
0.027108
0.000510551
0.000295694
0.0267538
0.000461171
0.00028727
0.0263771
0.000470481
0.000238522
0.0263585
0.000479782
0.000202266
0.0261365
0.000463227
0.000119258
0.0257245
0.000463277
-6.30224e-05
0.0260816
0.000580346
-0.000412598
0.0260512
0.000722605
-0.000797412
0.0271383
0.000848641
-0.000943863
0.0272815
0.000660804
0.0285053
-0.000220585
0.000887842
0.0278146
-0.000257277
0.000745349
0.0268182
0.000621803
0.00038196
0.0266253
0.000795391
7.82393e-05
0.0257333
0.000750207
-0.000111991
0.0256193
0.000522892
-0.000163649
0.0254335
0.00047189
-0.000208143
0.0256505
0.000425928
-0.000247327
0.0258238
0.000449687
-0.000260787
0.0260297
0.000444603
-0.000258844
0.0262011
0.000476137
-0.000264146
0.0264966
0.000472049
-0.000259695
0.0267545
0.000493271
-0.000234622
0.0268953
0.000496974
-0.000196314
0.0271932
0.000520123
-0.000136213
0.0273254
0.000534569
-8.07668e-05
0.0274852
0.000549072
-3.68246e-05
0.0275955
0.00052464
2.2709e-05
0.0277094
0.000561573
8.48422e-05
0.0275682
0.000537192
0.000145703
0.0274946
0.000549091
0.000192884
0.027316
0.000537626
0.000224406
0.0271039
0.000545834
0.000255913
0.0269027
0.00054092
0.000281629
0.0266097
0.000507087
0.000287155
0.0266181
0.000484873
0.000270162
0.0262931
0.000478196
0.000231793
0.0259568
0.000459155
0.000226378
0.0258778
0.000486539
0.000194615
0.025717
0.000451691
8.73656e-05
0.02539
0.000442058
-5.35382e-05
0.0256677
0.000555247
-0.000408817
0.0256881
0.000718724
-0.000763661
0.0266669
0.000826633
-0.000906159
0.0268
0.000624359
0.0278298
-0.000230352
0.000844606
0.0272608
-0.000290497
0.000719489
0.0263587
0.000585035
0.0003661
0.02618
0.000799008
7.95495e-05
0.0252948
0.000725405
-8.59082e-05
0.0252804
0.00050477
-0.000148737
0.025053
0.000443782
-0.000200863
0.025276
0.000426992
-0.000230947
0.0254264
0.000427906
-0.000243956
0.0256027
0.000440432
-0.000251139
0.0257346
0.00047415
-0.000245831
0.0260064
0.000485427
-0.00023582
0.0262526
0.000492411
-0.000212329
0.0263759
0.000496339
-0.000170563
0.026629
0.000522983
-0.000120971
0.0267458
0.000530498
-7.81758e-05
0.0268976
0.00054526
-3.5537e-05
0.0270301
0.000523289
1.82518e-05
0.0271005
0.000555613
8.05343e-05
0.0269794
0.000527037
0.000135703
0.0269064
0.00053363
0.000177949
0.0267332
0.000541118
0.000213877
0.0265485
0.000520032
0.000234809
0.026393
0.000489405
0.000251134
0.0261033
0.000490564
0.00025753
0.026149
0.000463174
0.000240143
0.0258318
0.000479204
0.000221519
0.0255279
0.000447995
0.000221622
0.0254178
0.000460182
0.000181605
0.0253174
0.000440042
7.16158e-05
0.0250636
0.00043685
-6.79408e-05
0.0252566
0.00055104
-0.000396268
0.0252819
0.000734941
-0.00073085
0.0261797
0.000822091
-0.000855943
0.0263345
0.000590938
0.0272588
-0.00028473
0.000798729
0.0267996
-0.000337289
0.000691066
0.0259151
0.000551647
0.000363593
0.0257175
0.000790373
7.82544e-05
0.0248694
0.000711121
-5.93366e-05
0.0249305
0.000487917
-0.000137821
0.0247065
0.000425427
-0.000188081
0.0249196
0.000407169
-0.000214978
0.0250481
0.000405611
-0.000235824
0.0251923
0.000431713
-0.00025744
0.0253112
0.00044539
-0.000229905
0.0255028
0.000476531
-0.000212827
0.0257555
0.000480507
-0.000197207
0.0258833
0.000477542
-0.000152727
0.0260593
0.000525703
-0.000107005
0.0261831
0.00051754
-7.63621e-05
0.026344
0.000523508
-3.70607e-05
0.0264677
0.000523668
2.5152e-05
0.0264968
0.000542025
8.20648e-05
0.0264016
0.00052141
0.000119506
0.0263368
0.000532724
0.00015972
0.0261846
0.000508981
0.000197384
0.0259967
0.000514647
0.000215806
0.0258817
0.000493407
0.000224653
0.0256138
0.00048125
0.000241922
0.0256588
0.000473401
0.000240818
0.0253525
0.000480857
0.000223374
0.0251263
0.000419443
0.000204954
0.0249924
0.000444275
0.000160426
0.024945
0.000417277
5.82219e-05
0.0247418
0.000424377
-7.84134e-05
0.0248815
0.000512095
-0.000373808
0.0248692
0.000708452
-0.000697025
0.0257095
0.000793861
-0.000796793
0.025888
0.000546584
0.026815
-0.000352646
0.000750403
0.0264284
-0.000378848
0.000658038
0.0254881
0.000519714
0.000360415
0.0252365
0.000779
8.34223e-05
0.0244743
0.000672504
-5.08717e-05
0.0245925
0.000472665
-0.000137437
0.0243858
0.00040763
-0.000176668
0.0245577
0.000401494
-0.000196602
0.0246631
0.000405407
-0.000217817
0.0247841
0.000429851
-0.000236829
0.0249021
0.00042861
-0.000218352
0.0250471
0.000437638
-0.000194524
0.0252682
0.000463844
-0.000178215
0.0254048
0.000462623
-0.00014333
0.0255369
0.000487991
-0.000107039
0.0256669
0.000480373
-8.31931e-05
0.0258339
0.000486736
-3.85818e-05
0.0259207
0.000502929
2.62322e-05
0.0259282
0.000504322
8.20375e-05
0.025832
0.000514369
0.000118746
0.0257856
0.000515016
0.000147366
0.0256827
0.000473789
0.000180092
0.0254759
0.000488617
0.000212964
0.0253851
0.00046419
0.000220319
0.0251588
0.000448096
0.000229516
0.025213
0.000437089
0.000233165
0.024915
0.000434297
0.000205998
0.0247559
0.000398057
0.000184843
0.0245936
0.00042031
0.000145944
0.0245744
0.000409912
4.96628e-05
0.0244122
0.000426206
-7.03915e-05
0.024522
0.000479915
-0.000360272
0.0244844
0.000675095
-0.000670613
0.0252597
0.000760522
-0.000757932
0.0254801
0.000495616
0.0264255
-0.000368201
0.000713601
0.0261
-0.000384963
0.000640022
0.0250709
0.000491168
0.000353675
0.0247823
0.000741008
8.00586e-05
0.0240982
0.000650124
-4.73095e-05
0.0242614
0.000458922
-0.000132522
0.0240564
0.000415115
-0.00016873
0.0242003
0.000394056
-0.000193053
0.0242935
0.000394315
-0.000201662
0.0243804
0.000412745
-0.000217963
0.0245107
0.000408135
-0.000218481
0.0246425
0.000405561
-0.000189242
0.0247911
0.0004484
-0.00015635
0.0249227
0.00044971
-0.000136935
0.0250689
0.000449066
-0.000113511
0.0251817
0.000462242
-7.55344e-05
0.0253309
0.000465546
-2.61324e-05
0.0253981
0.000473635
2.35961e-05
0.0254093
0.000469668
7.39432e-05
0.0253087
0.00047343
0.000115367
0.0252713
0.000473332
0.00014168
0.0252126
0.000444307
0.000168717
0.0250065
0.000442833
0.000196907
0.0249278
0.000429616
0.000210191
0.0247304
0.000415654
0.00021825
0.024786
0.000419456
0.000210299
0.0245212
0.000402176
0.000188939
0.0243856
0.000392026
0.000172352
0.0242138
0.000396789
0.000146638
0.0242017
0.000398799
5.81351e-05
0.0240888
0.000412269
-7.04706e-05
0.0241882
0.000462794
-0.000356816
0.0241194
0.000651707
-0.000648005
0.0248267
0.00072453
-0.000725375
0.0250897
0.000468109
0.0260985
-0.000398081
0.000686779
0.0258112
-0.00039769
0.000634748
0.024671
0.00045232
0.000358475
0.024359
0.000699963
7.94654e-05
0.0237678
0.0006098
-5.3241e-05
0.0239387
0.000455809
-0.000128887
0.023726
0.000406408
-0.000161156
0.0238448
0.000388222
-0.000184294
0.0239214
0.000395688
-0.000184752
0.0239908
0.000390432
-0.000203972
0.0241489
0.000381366
-0.000211487
0.0242628
0.000387599
-0.000180578
0.0243466
0.000414013
-0.000151949
0.0244786
0.000415851
-0.000139188
0.0246472
0.000409402
-0.0001088
0.0246987
0.000453067
-5.87844e-05
0.0248279
0.000453454
-7.60611e-06
0.0248948
0.000452618
3.70687e-05
0.0249056
0.000459516
7.09278e-05
0.0248493
0.000426061
0.000101951
0.0248209
0.000419862
0.000125755
0.0247727
0.000416553
0.000154564
0.0245715
0.000406727
0.000188034
0.0244861
0.000408665
0.000198872
0.0243153
0.0004047
0.000212279
0.0243695
0.000403486
0.000203086
0.0241469
0.000383963
0.000184413
0.0240268
0.000377864
0.000163891
0.0238597
0.000375024
0.000131594
0.0238465
0.000387919
4.98329e-05
0.0237564
0.000414551
-8.09488e-05
0.0238562
0.00046313
-0.000352484
0.0237606
0.000630683
-0.000627472
0.0244073
0.000694707
-0.000697998
0.0247254
0.000435165
0.0258121
-0.000411364
0.000648994
0.0255951
-0.000432634
0.000610415
0.0243091
0.000400773
0.000363001
0.0239303
0.000676469
9.16014e-05
0.0234531
0.000586463
-5.02033e-05
0.0236246
0.000456247
-0.000131497
0.0234137
0.000394029
-0.000157649
0.023495
0.000376356
-0.000175729
0.0235605
0.000379348
-0.00018139
0.0236443
0.000352554
-0.000187421
0.0237892
0.000366185
-0.000195411
0.023905
0.000366248
-0.000174007
0.023956
0.000369514
-0.00015068
0.0240661
0.00038958
-0.000136833
0.0242479
0.000385825
-0.000101211
0.0242434
0.000420158
-4.97497e-05
0.0243598
0.000417042
-3.05018e-06
0.0244231
0.000425452
4.10507e-05
0.0244357
0.000426339
7.18018e-05
0.0244105
0.00040852
9.52005e-05
0.0244085
0.000389457
0.000116401
0.0243522
0.000399728
0.000144933
0.0241519
0.000391506
0.000176305
0.0240683
0.00038695
0.000192963
0.0239098
0.000389245
0.000206994
0.0239723
0.000383595
0.000198801
0.0237996
0.000355815
0.000179249
0.0236791
0.00036762
0.000156772
0.0235274
0.00035514
0.000115913
0.0235205
0.000367211
4.18895e-05
0.0234246
0.000406236
-8.0958e-05
0.0235138
0.000465615
-0.000338622
0.023416
0.000602633
-0.000603724
0.0240146
0.00065817
-0.000671645
0.0244036
0.000390005
0.0255587
-0.000417996
0.000616792
0.0254597
-0.000481035
0.000577262
0.0239914
0.000357589
0.000343787
0.0235287
0.000635349
9.74562e-05
0.0231258
0.000573971
-3.30453e-05
0.0233082
0.000447245
-0.000122565
0.0231107
0.000392832
-0.000158042
0.0231701
0.000360738
-0.000169881
0.0232194
0.000353335
-0.00017721
0.0233129
0.000339098
-0.000176832
0.0234489
0.000340288
-0.000181649
0.0235622
0.000347919
-0.00017437
0.0236075
0.000341611
-0.000143722
0.0236694
0.000366467
-0.000116489
0.0238513
0.000369777
-8.67619e-05
0.0238336
0.000380484
-4.95576e-05
0.0239459
0.000377176
-1.20049e-05
0.0240017
0.000384263
2.75801e-05
0.0240194
0.000377106
6.59357e-05
0.0239845
0.000388028
9.26032e-05
0.0239987
0.000383624
0.000114527
0.023952
0.000378794
0.000142816
0.0237507
0.000373341
0.00017043
0.0236804
0.000360692
0.000186525
0.0235564
0.000337774
0.000198234
0.0236012
0.00035977
0.000191307
0.0234758
0.00033111
0.000177736
0.0233393