/*--------------------------------*- C++ -*----------------------------------*\
  =========                 |
  \\      /  F ield         | OpenFOAM: The Open Source CFD Toolbox
   \\    /   O peration     | Website:  https://openfoam.org
    \\  /    A nd           | Version:  8
     \\/     M anipulation  |
\*---------------------------------------------------------------------------*/
FoamFile
{
    version     2.0;
    format      ascii;
    class       volVectorField;
    location    "50";
    object      U;
}
// * * * * * * * * * * * * * * * * * * * * * * * * * * * * * * * * * * * * * //

dimensions      [0 1 -1 0 0 0 0];

internalField   nonuniform List<vector> 
78750
(
(0.118852 0.306113 -1.22554)
(0.179985 0.258901 -0.830798)
(-0.0401133 0.23766 -0.750887)
(-0.0885608 0.247387 -0.77616)
(-0.256214 0.235246 -0.762068)
(-0.265073 0.24739 -0.867365)
(-0.311729 0.24978 -0.885479)
(-0.294015 0.2619 -0.954153)
(-0.302503 0.26333 -0.968628)
(-0.280732 0.272686 -1.01443)
(-0.265906 0.277801 -1.05068)
(-0.247614 0.284814 -1.07409)
(-0.224388 0.28952 -1.11704)
(-0.207028 0.295719 -1.13953)
(-0.176125 0.301561 -1.20794)
(-0.126264 0.31405 -1.24589)
(-0.0872394 0.314556 -1.29131)
(0.003468 0.329235 -1.39824)
(0.0806195 0.334139 -1.31841)
(0.122691 0.307212 -1.24341)
(0.169353 0.301974 -1.20003)
(0.20319 0.295319 -1.15158)
(0.22428 0.288778 -1.10336)
(0.242658 0.284561 -1.0836)
(0.272261 0.27775 -1.05199)
(0.282401 0.271415 -1.01216)
(0.310079 0.264031 -0.96991)
(0.293059 0.258095 -0.928855)
(0.299405 0.249761 -0.888785)
(0.261572 0.247861 -0.879519)
(0.266834 0.234706 -0.775694)
(0.095718 0.24595 -0.761665)
(0.0430745 0.238975 -0.744571)
(-0.194071 0.259209 -0.83132)
(-0.126753 0.310367 -1.23763)
(0.134157 0.385242 -1.0249)
(0.197017 0.487585 -0.610239)
(-0.0354583 0.469134 -0.523034)
(-0.0819689 0.477979 -0.567237)
(-0.247838 0.471292 -0.559254)
(-0.259022 0.490287 -0.623823)
(-0.314243 0.495014 -0.642903)
(-0.297561 0.511074 -0.692715)
(-0.312567 0.526086 -0.703653)
(-0.294904 0.536911 -0.735797)
(-0.28295 0.553014 -0.76394)
(-0.266899 0.562831 -0.782746)
(-0.245926 0.574458 -0.818989)
(-0.231228 0.588629 -0.836813)
(-0.200365 0.594366 -0.89625)
(-0.144267 0.564996 -0.942806)
(-0.0973913 0.606724 -0.978663)
(0.00221869 0.598696 -1.10196)
(0.0927835 0.57009 -1.01895)
(0.14066 0.600008 -0.933909)
(0.192434 0.593225 -0.891405)
(0.227399 0.583671 -0.846135)
(0.246871 0.57504 -0.806532)
(0.26372 0.562684 -0.788572)
(0.288562 0.552659 -0.76717)
(0.295435 0.536418 -0.734832)
(0.318862 0.522963 -0.703141)
(0.296769 0.513116 -0.674592)
(0.305075 0.496403 -0.646834)
(0.257753 0.491379 -0.631682)
(0.258459 0.475909 -0.563237)
(0.084688 0.476968 -0.556054)
(0.042742 0.467559 -0.524599)
(-0.211903 0.493115 -0.612178)
(-0.138674 0.38303 -1.04956)
(0.132814 0.80356 -0.710821)
(0.173208 0.670451 -0.466599)
(-0.0339107 0.625299 -0.361304)
(-0.0688004 0.648672 -0.410956)
(-0.225427 0.633291 -0.417937)
(-0.236718 0.672917 -0.455647)
(-0.296659 0.68822 -0.473568)
(-0.2797 0.727182 -0.499818)
(-0.299616 0.723454 -0.526014)
(-0.28648 0.761119 -0.533779)
(-0.276293 0.774573 -0.562311)
(-0.262424 0.792439 -0.568584)
(-0.245565 0.813953 -0.597284)
(-0.236046 0.828289 -0.608907)
(-0.206843 0.859582 -0.647985)
(-0.152533 0.983104 -0.642587)
(-0.100276 0.923538 -0.706798)
(0.00172115 0.95627 -0.782437)
(0.0983893 1.01434 -0.687034)
(0.145124 0.879898 -0.675798)
(0.198466 0.871133 -0.643141)
(0.2327 0.845337 -0.610724)
(0.247936 0.811706 -0.588833)
(0.2636 0.792475 -0.571814)
(0.281019 0.775987 -0.566322)
(0.284759 0.749356 -0.537164)
(0.304171 0.732745 -0.515899)
(0.278743 0.703543 -0.501793)
(0.287534 0.688638 -0.479179)
(0.238044 0.680943 -0.462762)
(0.238314 0.635767 -0.42216)
(0.0698547 0.641581 -0.404151)
(0.0364789 0.626656 -0.361894)
(-0.185529 0.663261 -0.467007)
(-0.134434 0.825764 -0.726148)
(0.171157 0.965167 -0.489848)
(0.199087 0.926124 -0.304434)
(-0.0595065 0.890019 -0.26484)
(-0.0617909 0.908013 -0.318752)
(-0.210461 0.891929 -0.322121)
(-0.215657 0.922416 -0.341569)
(-0.27517 0.925081 -0.352836)
(-0.256896 0.954105 -0.366787)
(-0.272126 0.988035 -0.379355)
(-0.265451 0.995916 -0.389186)
(-0.262356 1.02488 -0.404315)
(-0.265717 1.05284 -0.398963)
(-0.232676 1.09177 -0.401484)
(-0.221168 1.12762 -0.424346)
(-0.207036 1.12566 -0.440834)
(-0.150628 1.11429 -0.460866)
(-0.110032 1.13837 -0.487919)
(-0.00845198 1.1875 -0.518136)
(0.108023 1.17474 -0.47622)
(0.159214 1.14673 -0.460036)
(0.198766 1.11555 -0.449612)
(0.224806 1.09425 -0.425032)
(0.237736 1.07854 -0.410642)
(0.25219 1.05869 -0.407882)
(0.26271 1.0474 -0.399456)
(0.268319 1.00563 -0.3731)
(0.280735 0.976143 -0.369423)
(0.257563 0.963371 -0.351389)
(0.265436 0.929043 -0.359039)
(0.211766 0.911887 -0.351885)
(0.209214 0.904783 -0.310412)
(0.0630264 0.908262 -0.308198)
(0.0519161 0.889702 -0.257026)
(-0.207922 0.945094 -0.301919)
(-0.171739 0.943821 -0.506183)
(0.179848 1.01589 -0.373508)
(0.232552 1.04891 -0.162585)
(-0.0688166 0.980064 -0.213859)
(-0.0553166 1.00409 -0.270461)
(-0.183294 0.98993 -0.279326)
(-0.181552 1.00242 -0.320611)
(-0.234484 1.02677 -0.302469)
(-0.228151 1.05933 -0.322973)
(-0.244447 1.08528 -0.299838)
(-0.236258 1.11696 -0.318364)
(-0.230647 1.17132 -0.308659)
(-0.223372 1.17532 -0.326314)
(-0.193481 1.18581 -0.362041)
(-0.198208 1.1855 -0.354674)
(-0.186827 1.26723 -0.334786)
(-0.135285 1.28349 -0.341595)
(-0.103924 1.33087 -0.357729)
(0.000454491 1.34838 -0.380589)
(0.0986381 1.27672 -0.39041)
(0.132374 1.27739 -0.352527)
(0.173742 1.25369 -0.338126)
(0.193796 1.22047 -0.328358)
(0.206466 1.1932 -0.327815)
(0.227866 1.17621 -0.328711)
(0.229722 1.10717 -0.339677)
(0.229798 1.10625 -0.311351)
(0.241 1.08241 -0.302427)
(0.226248 1.05908 -0.298108)
(0.233159 1.03075 -0.300784)
(0.18237 1.01851 -0.294421)
(0.192039 0.971377 -0.288499)
(0.0498966 0.995944 -0.26725)
(0.0715139 0.986986 -0.212133)
(-0.239622 1.02416 -0.172436)
(-0.186282 1.03143 -0.38704)
(0.157809 1.10645 -0.344652)
(0.272621 1.11722 -0.105115)
(-0.0466992 1.09229 -0.149079)
(-0.0169514 1.10287 -0.218805)
(-0.150279 1.0786 -0.229811)
(-0.143583 1.12233 -0.224908)
(-0.200515 1.12877 -0.233522)
(-0.194415 1.16869 -0.216601)
(-0.208264 1.19026 -0.230046)
(-0.194919 1.20556 -0.235298)
(-0.195725 1.20779 -0.252223)
(-0.185349 1.23896 -0.247457)
(-0.176958 1.28977 -0.253387)
(-0.17891 1.38317 -0.210799)
(-0.156241 1.3204 -0.262779)
(-0.112731 1.38881 -0.255301)
(-0.0747793 1.3601 -0.286927)
(-0.00417257 1.39667 -0.305228)
(0.0781954 1.47806 -0.228023)
(0.113366 1.39614 -0.257603)
(0.149759 1.36734 -0.246186)
(0.167438 1.3378 -0.25088)
(0.181002 1.30062 -0.259503)
(0.196786 1.25037 -0.2511)
(0.19981 1.29165 -0.206271)
(0.19942 1.21301 -0.241795)
(0.209338 1.19063 -0.231871)
(0.191951 1.15601 -0.238555)
(0.197054 1.139 -0.229914)
(0.151492 1.11077 -0.229536)
(0.145221 1.10193 -0.205727)
(0.0178785 1.09677 -0.218188)
(0.0388669 1.0798 -0.149462)
(-0.289824 1.1475 -0.0946415)
(-0.170597 1.11481 -0.332998)
(0.120272 1.21855 -0.373233)
(0.306053 1.18658 -0.0743465)
(-0.00226521 1.13886 -0.0942608)
(0.0299674 1.14031 -0.175479)
(-0.107415 1.15948 -0.168109)
(-0.103808 1.17986 -0.17953)
(-0.160815 1.19116 -0.171689)
(-0.154178 1.21422 -0.169896)
(-0.172449 1.21973 -0.172256)
(-0.168244 1.30471 -0.159079)
(-0.175423 1.34839 -0.151799)
(-0.174415 1.35699 -0.152168)
(-0.167635 1.39887 -0.14035)
(-0.146863 1.35608 -0.162703)
(-0.12049 1.44855 -0.151948)
(-0.0958714 1.40353 -0.174119)
(-0.073925 1.50091 -0.155353)
(-0.0161046 1.5264 -0.1634)
(0.0701964 1.44417 -0.16819)
(0.112608 1.40498 -0.188301)
(0.12539 1.38071 -0.174222)
(0.144114 1.3533 -0.186069)
(0.148098 1.33658 -0.184449)
(0.151131 1.37055 -0.157317)
(0.174113 1.29718 -0.163789)
(0.183461 1.26262 -0.171333)
(0.17191 1.21627 -0.17072)
(0.153758 1.21904 -0.171042)
(0.158073 1.16955 -0.178485)
(0.101082 1.17731 -0.173839)
(0.105442 1.14284 -0.176109)
(-0.0240331 1.15614 -0.175874)
(-0.00409296 1.16137 -0.0864423)
(-0.306044 1.1665 -0.0836376)
(-0.124817 1.18203 -0.381532)
(0.0701875 1.23693 -0.452697)
(0.293326 1.22387 -0.107548)
(0.0319852 1.20178 -0.0457829)
(0.0671905 1.24238 -0.109428)
(-0.0566271 1.17824 -0.157776)
(-0.071671 1.1803 -0.178162)
(-0.127624 1.21238 -0.144344)
(-0.126304 1.25121 -0.153011)
(-0.145914 1.30687 -0.121289)
(-0.147327 1.27315 -0.15479)
(-0.154395 1.31224 -0.127302)
(-0.150252 1.33255 -0.13815)
(-0.137797 1.36013 -0.126429)
(-0.121649 1.44758 -0.113413)
(-0.105952 1.41656 -0.121092)
(-0.0900064 1.49192 -0.0927928)
(-0.0674769 1.46137 -0.115621)
(-0.00764628 1.48424 -0.110645)
(0.0662386 1.48427 -0.118419)
(0.101112 1.49975 -0.0966596)
(0.110472 1.47225 -0.0948872)
(0.126587 1.44243 -0.102697)
(0.135159 1.41855 -0.108167)
(0.137827 1.33969 -0.144961)
(0.147969 1.3015 -0.152554)
(0.137363 1.29987 -0.132364)
(0.145036 1.30487 -0.122916)
(0.121613 1.22586 -0.149082)
(0.123725 1.25991 -0.134147)
(0.075908 1.194 -0.16353)
(0.0744563 1.19818 -0.154979)
(-0.0701435 1.21021 -0.119132)
(-0.0234001 1.18301 -0.058929)
(-0.297528 1.23067 -0.107004)
(-0.0740514 1.29087 -0.45092)
(0.0888094 1.38488 -0.39945)
(0.299171 1.21474 -0.143121)
(-0.00397776 1.20246 -0.095447)
(0.0660188 1.21453 -0.109051)
(-0.041531 1.25184 -0.120209)
(-0.0484726 1.2706 -0.118724)
(-0.101869 1.25436 -0.120438)
(-0.0998499 1.25195 -0.133326)
(-0.121961 1.26911 -0.132431)
(-0.127889 1.3218 -0.119652)
(-0.130668 1.35849 -0.113694)
(-0.120236 1.35735 -0.121568)
(-0.11551 1.39339 -0.119155)
(-0.107653 1.37342 -0.11087)
(-0.0992778 1.43403 -0.0987505)
(-0.0775069 1.44132 -0.0953756)
(-0.0554523 1.4742 -0.0933117)
(-0.00444245 1.49119 -0.0866815)
(0.0503931 1.46525 -0.0899407)
(0.0798171 1.44987 -0.0815073)
(0.0953084 1.41986 -0.088394)
(0.108638 1.3992 -0.0889008)
(0.130517 1.37342 -0.0979778)
(0.134193 1.36732 -0.121782)
(0.129537 1.33256 -0.122615)
(0.110782 1.29098 -0.142078)
(0.11702 1.26577 -0.13886)
(0.100281 1.29372 -0.113987)
(0.101277 1.22764 -0.140977)
(0.0533718 1.25903 -0.121305)
(0.0603417 1.22 -0.132079)
(-0.0708676 1.20693 -0.116835)
(-0.0240556 1.21951 -0.0842684)
(-0.299335 1.23147 -0.122829)
(-0.0750876 1.32306 -0.433356)
(0.117585 1.40344 -0.321865)
(0.341933 1.31269 -0.0694685)
(0.0103238 1.25138 -0.101968)
(0.0552331 1.23805 -0.100163)
(-0.0530672 1.23189 -0.11118)
(-0.0401702 1.23968 -0.105577)
(-0.0875611 1.24001 -0.126895)
(-0.0840643 1.30664 -0.0978151)
(-0.10546 1.28929 -0.124531)
(-0.107809 1.2943 -0.107401)
(-0.108911 1.32327 -0.121977)
(-0.105166 1.34485 -0.109235)
(-0.107271 1.3718 -0.106984)
(-0.100347 1.44077 -0.0750807)
(-0.082206 1.41612 -0.0910495)
(-0.062923 1.44324 -0.0983781)
(-0.0467505 1.45416 -0.0880901)
(-0.00703206 1.45223 -0.0882683)
(0.0375304 1.45899 -0.0794399)
(0.0657207 1.44786 -0.0822711)
(0.0839194 1.42681 -0.0894329)
(0.0943407 1.39821 -0.0930012)
(0.11571 1.38352 -0.0927676)
(0.117522 1.34466 -0.105868)
(0.119 1.37147 -0.0840626)
(0.104057 1.34523 -0.110492)
(0.0966854 1.28494 -0.133622)
(0.0865472 1.25857 -0.117853)
(0.0870541 1.25154 -0.129133)
(0.0380939 1.2323 -0.110418)
(0.0571345 1.27228 -0.103386)
(-0.064323 1.27309 -0.0854849)
(-0.0159404 1.24619 -0.10389)
(-0.326168 1.28637 -0.0795093)
(-0.118143 1.44928 -0.315531)
(0.142197 1.44539 -0.229818)
(0.342779 1.29805 -0.010852)
(0.0570288 1.28242 -0.0593284)
(0.047715 1.22485 -0.0861451)
(-0.0554852 1.2461 -0.0977779)
(-0.0362961 1.24771 -0.0982725)
(-0.0855989 1.24844 -0.118019)
(-0.0805709 1.26055 -0.0984968)
(-0.09437 1.26898 -0.108398)
(-0.0924531 1.31361 -0.0956292)
(-0.0976809 1.33653 -0.0987246)
(-0.102106 1.34604 -0.0935727)
(-0.100815 1.38783 -0.0752026)
(-0.0851511 1.35637 -0.0956335)
(-0.0703277 1.39725 -0.0888482)
(-0.0548054 1.41742 -0.0918562)
(-0.0382086 1.44227 -0.0787371)
(-0.00412802 1.45713 -0.0784375)
(0.03238 1.43801 -0.0886482)
(0.0553031 1.41225 -0.0894784)
(0.0746521 1.38682 -0.102093)
(0.0834124 1.37202 -0.100625)
(0.0967525 1.35885 -0.0985745)
(0.0995301 1.35686 -0.0885194)
(0.105494 1.31388 -0.0905045)
(0.101543 1.29198 -0.106596)
(0.0891043 1.26775 -0.113971)
(0.0778754 1.26493 -0.110612)
(0.0805372 1.23896 -0.109637)
(0.0384422 1.23898 -0.0991939)
(0.0548666 1.23179 -0.102002)
(-0.0491009 1.22753 -0.0843182)
(-0.0386392 1.26799 -0.0760354)
(-0.346342 1.28554 -0.0210353)
(-0.152176 1.43874 -0.220413)
(0.158904 1.43025 -0.154136)
(0.32181 1.3126 0.0346512)
(0.0871612 1.28611 -0.015502)
(0.0500271 1.23485 -0.0648801)
(-0.0553322 1.22295 -0.0881687)
(-0.0386073 1.22373 -0.0894516)
(-0.0861294 1.23897 -0.0921679)
(-0.0775424 1.26193 -0.0846939)
(-0.0866253 1.28539 -0.0840176)
(-0.0889335 1.27882 -0.0892647)
(-0.0919417 1.29731 -0.0842894)
(-0.0933392 1.31368 -0.0822923)
(-0.0858529 1.34931 -0.0697479)
(-0.0706344 1.37932 -0.0810844)
(-0.066447 1.3804 -0.0766849)
(-0.0499879 1.40464 -0.0733783)
(-0.0306922 1.39323 -0.0740707)
(0.00335113 1.40771 -0.0760409)
(0.0287534 1.40046 -0.0851703)
(0.0475651 1.40736 -0.0738501)
(0.0671505 1.38382 -0.0860225)
(0.0764962 1.36263 -0.0854846)
(0.0827993 1.34682 -0.088326)
(0.0864078 1.32007 -0.0810742)
(0.0943477 1.3156 -0.0835376)
(0.0919369 1.29974 -0.0855198)
(0.0884954 1.27676 -0.0861653)
(0.0732924 1.24938 -0.095943)
(0.0776095 1.25339 -0.085225)
(0.0437513 1.22202 -0.0898284)
(0.0514847 1.24724 -0.0822662)
(-0.0473619 1.2347 -0.068134)
(-0.0766253 1.27683 -0.0239751)
(-0.333387 1.3414 0.0401625)
(-0.169667 1.44882 -0.145326)
(0.170787 1.43125 -0.0885746)
(0.295386 1.28244 0.0592925)
(0.101793 1.27617 0.0175397)
(0.0560066 1.24141 -0.0415499)
(-0.0539882 1.23143 -0.0652863)
(-0.0400379 1.23336 -0.0621971)
(-0.0819625 1.23438 -0.0647663)
(-0.0716347 1.22561 -0.0701316)
(-0.0797184 1.24549 -0.0683871)
(-0.0854937 1.27852 -0.0673747)
(-0.0841089 1.29821 -0.0667277)
(-0.0842327 1.30998 -0.0605798)
(-0.0768557 1.3062 -0.065976)
(-0.0640157 1.32914 -0.0660295)
(-0.0611115 1.34916 -0.0607541)
(-0.0424607 1.35504 -0.0594849)
(-0.022697 1.38414 -0.0564518)
(0.00186503 1.38934 -0.0594101)
(0.0224501 1.38055 -0.0564922)
(0.0400787 1.35493 -0.0598048)
(0.0606249 1.36535 -0.0568995)
(0.0712984 1.32256 -0.0648534)
(0.0732291 1.31404 -0.0651051)
(0.0791888 1.31002 -0.0644091)
(0.0854844 1.27029 -0.0759182)
(0.0825083 1.26953 -0.0650988)
(0.0872779 1.27546 -0.0613606)
(0.0705916 1.24772 -0.07147)
(0.0767849 1.23068 -0.0686872)
(0.0432667 1.21889 -0.0693432)
(0.0511628 1.22213 -0.0638309)
(-0.0499968 1.21263 -0.0495317)
(-0.105505 1.3075 0.0235611)
(-0.301627 1.29488 0.067041)
(-0.173353 1.39901 -0.0914451)
(0.175029 1.36347 -0.0477689)
(0.269641 1.29785 0.0821371)
(0.110276 1.26841 0.0378061)
(0.0521319 1.20118 -0.0291817)
(-0.0530934 1.20644 -0.0490254)
(-0.0389641 1.20386 -0.0471502)
(-0.0740594 1.20407 -0.0489477)
(-0.0647197 1.22883 -0.0518789)
(-0.0755553 1.26025 -0.0437729)
(-0.0801944 1.24809 -0.0481048)
(-0.0753532 1.26907 -0.0474763)
(-0.0737547 1.27909 -0.0431084)
(-0.0714571 1.30502 -0.0452136)
(-0.0583419 1.31593 -0.0441144)
(-0.0537529 1.32197 -0.0435774)
(-0.0375744 1.34655 -0.0373115)
(-0.0201933 1.34554 -0.0370174)
(-0.000601387 1.35393 -0.034211)
(0.020557 1.348 -0.0325286)
(0.0362742 1.35072 -0.0351429)
(0.0546531 1.32583 -0.0379396)
(0.0639847 1.31617 -0.0388268)
(0.0638478 1.30211 -0.0427918)
(0.0767614 1.28603 -0.0409406)
(0.0801415 1.29586 -0.0517868)
(0.0714498 1.26274 -0.0441423)
(0.0822147 1.24093 -0.0494163)
(0.0695182 1.21345 -0.0548681)
(0.0731163 1.22014 -0.0513078)
(0.0407444 1.18582 -0.0530779)
(0.046813 1.2172 -0.0441805)
(-0.0564735 1.21608 -0.0245979)
(-0.109808 1.26055 0.0375592)
(-0.26833 1.29439 0.0864902)
(-0.168985 1.38983 -0.0439442)
(0.169267 1.35171 -0.0183283)
(0.241617 1.25558 0.0897643)
(0.113008 1.23774 0.0484186)
(0.0561222 1.20151 -0.0109339)
(-0.045184 1.18511 -0.03544)
(-0.0329576 1.18889 -0.0363918)
(-0.065566 1.19488 -0.0375802)
(-0.0606473 1.20262 -0.0414867)
(-0.0689761 1.21029 -0.0374124)
(-0.0765522 1.23027 -0.0360107)
(-0.0684908 1.25536 -0.0293112)
(-0.0618132 1.26319 -0.0280772)
(-0.0657206 1.27131 -0.0322572)
(-0.0523107 1.29316 -0.0272058)
(-0.0464531 1.3056 -0.0268928)
(-0.034724 1.30836 -0.0238479)
(-0.0193379 1.31684 -0.0232073)
(0.0021108 1.32827 -0.017619)
(0.0188713 1.31463 -0.0248063)
(0.034035 1.30309 -0.0271915)
(0.0478726 1.30646 -0.0243713)
(0.0582594 1.28606 -0.0248807)
(0.0576443 1.28582 -0.0299476)
(0.0672554 1.25792 -0.0277856)
(0.0736467 1.23996 -0.0402199)
(0.0648429 1.23077 -0.0361318)
(0.0766574 1.20123 -0.039329)
(0.0650056 1.20735 -0.0452265)
(0.0626822 1.20072 -0.0354942)
(0.033664 1.18562 -0.0373408)
(0.0399795 1.18619 -0.032805)
(-0.0564647 1.1896 -0.0115903)
(-0.111191 1.25613 0.0490517)
(-0.242214 1.25377 0.0940001)
(-0.161813 1.34489 -0.0186631)
(0.1608 1.30177 -0.0106982)
(0.217164 1.24147 0.0903792)
(0.109496 1.23467 0.0571441)
(0.0557887 1.16846 -0.00177473)
(-0.0351936 1.18517 -0.0184266)
(-0.0269538 1.16813 -0.0242108)
(-0.0545898 1.18144 -0.0263587)
(-0.0520298 1.18042 -0.0326636)
(-0.0636949 1.1998 -0.0284107)
(-0.0683435 1.21272 -0.0293219)
(-0.0630494 1.22172 -0.0281931)
(-0.0560163 1.23941 -0.0230531)
(-0.05853 1.24804 -0.0262233)
(-0.0482629 1.26021 -0.0200985)
(-0.0409453 1.26505 -0.0199018)
(-0.0288982 1.28418 -0.0126693)
(-0.0151942 1.28544 -0.0193529)
(0.00503869 1.28873 -0.0162619)
(0.0174355 1.28744 -0.0198998)
(0.0276851 1.28674 -0.0187661)
(0.0411894 1.27676 -0.0130257)
(0.0528718 1.25884 -0.020252)
(0.0525031 1.25628 -0.0223593)
(0.0580025 1.23624 -0.017782)
(0.0683068 1.23642 -0.02314)
(0.0594639 1.2128 -0.0314089)
(0.0685049 1.21831 -0.0222418)
(0.0535116 1.19293 -0.0307299)
(0.0532608 1.17931 -0.0250785)
(0.0295505 1.16044 -0.0281811)
(0.0323905 1.17707 -0.0194778)
(-0.0559368 1.18071 -0.00167778)
(-0.106697 1.22146 0.0504164)
(-0.218182 1.2436 0.0923611)
(-0.158631 1.30699 -0.0102037)
(0.151537 1.27567 -0.010871)
(0.200307 1.21945 0.0872881)
(0.101003 1.20452 0.0574227)
(0.0563913 1.17827 0.0160945)
(-0.0310902 1.14767 -0.0118564)
(-0.0214001 1.15746 -0.0105292)
(-0.0459484 1.15884 -0.0189162)
(-0.0429984 1.17239 -0.0188621)
(-0.0592446 1.18064 -0.0216167)
(-0.0560254 1.18643 -0.0220374)
(-0.0567098 1.2013 -0.027518)
(-0.0536604 1.21398 -0.0222192)
(-0.0511753 1.22278 -0.0213297)
(-0.0442669 1.24175 -0.0137333)
(-0.0383185 1.25434 -0.0111158)
(-0.0234756 1.25688 -0.00736382)
(-0.00964217 1.25675 -0.0192876)
(0.000697755 1.27002 -0.0104558)
(0.0135602 1.25902 -0.012948)
(0.0219614 1.25644 -0.00996926)
(0.0374022 1.24621 -0.00772568)
(0.0464156 1.23768 -0.0139997)
(0.0478461 1.21394 -0.0159305)
(0.053123 1.21188 -0.0117801)
(0.0626938 1.21008 -0.0146831)
(0.0550038 1.19529 -0.0216249)
(0.0598794 1.16256 -0.0220814)
(0.0447238 1.18172 -0.0127455)
(0.0488529 1.16793 -0.0127065)
(0.024521 1.14564 -0.0181877)
(0.0247803 1.16657 -0.00345827)
(-0.0514217 1.15273 0.00718012)
(-0.101942 1.21317 0.0572788)
(-0.20326 1.21954 0.0878306)
(-0.153138 1.27505 -0.00906923)
(0.141991 1.23927 -0.0182502)
(0.19264 1.19364 0.0811297)
(0.0922901 1.18836 0.0586795)
(0.0525089 1.14906 0.026267)
(-0.0242261 1.14176 -0.00399145)
(-0.0193604 1.134 -0.00470863)
(-0.041266 1.14028 -0.0109862)
(-0.0390521 1.15044 -0.0100972)
(-0.0535199 1.15797 -0.0148535)
(-0.0463116 1.17027 -0.0123198)
(-0.0508167 1.18178 -0.0149672)
(-0.0498255 1.1941 -0.0114503)
(-0.0477832 1.20028 -0.0129313)
(-0.0415777 1.21269 -0.00595973)
(-0.0327911 1.21742 -0.0068014)
(-0.0191793 1.22588 -0.00604609)
(-0.0112548 1.23408 -0.00912595)
(-0.00244525 1.23701 -0.00429538)
(0.010867 1.23047 -0.00585052)
(0.0212804 1.22863 -0.000893748)
(0.0338511 1.21997 -0.00369557)
(0.0393244 1.21098 -0.00482577)
(0.0453817 1.21037 -0.0048784)
(0.0515032 1.18817 -0.00905414)
(0.0563619 1.18257 -0.00983105)
(0.0514948 1.16847 -0.0121376)
(0.0513216 1.16029 -0.012268)
(0.0376441 1.15604 -0.00314788)
(0.049054 1.1471 -0.00606513)
(0.0193568 1.12966 -0.00935531)
(0.0212013 1.14316 0.00391586)
(-0.0493665 1.14328 0.0224777)
(-0.0986549 1.19034 0.0645739)
(-0.194566 1.192 0.0807435)
(-0.147373 1.24468 -0.0128459)
(0.13369 1.21843 -0.0255295)
(0.184795 1.17846 0.0757075)
(0.0901192 1.1688 0.0675697)
(0.0480271 1.12419 0.0333157)
(-0.0180202 1.12714 0.00529381)
(-0.0160779 1.11149 -0.000363753)
(-0.0392369 1.1247 -0.00409409)
(-0.0380061 1.12972 -0.00364659)
(-0.0485121 1.14339 -0.00359217)
(-0.0448814 1.14804 -0.00571945)
(-0.049296 1.16347 -0.00180019)
(-0.0446807 1.17213 -0.000535801)
(-0.043661 1.17833 -0.00208925)
(-0.0372729 1.19032 0.00468858)
(-0.0274812 1.19716 0.00224486)
(-0.0183551 1.20463 0.00238186)
(-0.0112353 1.20589 0.00227015)
(-0.00225318 1.21166 0.00442661)
(0.00926069 1.20733 0.00434087)
(0.0210825 1.20184 0.00713814)
(0.0304003 1.19538 0.0020673)
(0.0370796 1.18437 0.00221703)
(0.043539 1.16998 -0.00594105)
(0.0457263 1.16526 -0.00188599)
(0.0499459 1.16945 -0.000880767)
(0.0464694 1.15285 -0.00093469)
(0.0456582 1.13777 -0.00527192)
(0.0378159 1.12524 0.00068784)
(0.0485009 1.12502 -0.00201642)
(0.0154974 1.11657 0.00107573)
(0.017541 1.12223 0.00754914)
(-0.0492471 1.13093 0.0354176)
(-0.0953487 1.16818 0.0704602)
(-0.18505 1.17821 0.0747325)
(-0.137493 1.21674 -0.0261549)
(0.126272 1.19416 -0.0340127)
(0.174665 1.15349 0.069628)
(0.0900408 1.14666 0.0735545)
(0.045066 1.10763 0.0390181)
(-0.0129475 1.10732 0.0120634)
(-0.0123952 1.10397 0.00488134)
(-0.0378075 1.11242 0.00321506)
(-0.0357276 1.11795 0.00450126)
(-0.043725 1.12166 0.0026116)
(-0.0473535 1.12626 -0.000982305)
(-0.0489503 1.13593 0.00518926)
(-0.0390709 1.14898 0.00569134)
(-0.0406956 1.15422 0.00454447)
(-0.034342 1.16548 0.0117223)
(-0.0236294 1.16978 0.00795558)
(-0.0169154 1.17464 0.00730627)
(-0.0122074 1.18383 0.011281)
(-0.00168875 1.18505 0.0132154)
(0.0112598 1.17851 0.0124136)
(0.0196774 1.17773 0.0133294)
(0.0257173 1.16901 0.00733742)
(0.0345112 1.16335 0.0111029)
(0.040608 1.16553 0.00731762)
(0.0407232 1.14306 0.00573958)
(0.0450271 1.14607 0.00543897)
(0.0459944 1.13329 0.00750629)
(0.046215 1.1186 -0.00138612)
(0.0365968 1.11651 0.0054903)
(0.0445575 1.11035 0.00296403)
(0.0121456 1.09814 0.007178)
(0.0137875 1.10908 0.0129668)
(-0.0464948 1.10889 0.0390472)
(-0.0921949 1.14634 0.0708674)
(-0.174262 1.15126 0.0668147)
(-0.126006 1.19244 -0.0379264)
(0.1184 1.17284 -0.0429933)
(0.164349 1.13767 0.063986)
(0.0882098 1.12872 0.0753698)
(0.0445782 1.09237 0.0412555)
(-0.0095456 1.09574 0.017833)
(-0.012933 1.0825 0.00878507)
(-0.0366756 1.09334 0.00876707)
(-0.0325918 1.10009 0.00885859)
(-0.0402955 1.10521 0.00665185)
(-0.0435352 1.11254 0.0063777)
(-0.0455165 1.11847 0.00609027)
(-0.0376302 1.12883 0.0100272)
(-0.0357318 1.13339 0.00973019)
(-0.0318705 1.13822 0.0105209)
(-0.0224936 1.14517 0.0106746)
(-0.0181916 1.15459 0.0112342)
(-0.0133508 1.15727 0.0177744)
(-0.00119884 1.15838 0.0166862)
(0.0110945 1.15597 0.0179859)
(0.0199593 1.15119 0.0169711)
(0.0250242 1.14603 0.0124499)
(0.0304526 1.13594 0.0116905)
(0.0386889 1.12548 0.00970065)
(0.0412886 1.12165 0.00820398)
(0.0422328 1.11987 0.00677036)
(0.0450126 1.108 0.00740338)
(0.0438226 1.1025 0.00433916)
(0.0327168 1.09723 0.0080073)
(0.0404638 1.09773 0.0105634)
(0.0106888 1.08861 0.0129355)
(0.0124498 1.09443 0.0178396)
(-0.0426524 1.0887 0.040095)
(-0.0904849 1.12868 0.0705267)
(-0.166162 1.13882 0.0598532)
(-0.119458 1.17829 -0.042923)
(0.11182 1.16221 -0.0463276)
(0.157421 1.11767 0.0573952)
(0.0880167 1.10422 0.0696024)
(0.0424359 1.07522 0.040983)
(-0.00854103 1.08063 0.0220092)
(-0.0130368 1.07261 0.0153034)
(-0.0342932 1.07845 0.0124468)
(-0.0318924 1.08092 0.0105001)
(-0.03972 1.08725 0.010885)
(-0.0379498 1.0909 0.00788788)
(-0.0440173 1.0978 0.00707721)
(-0.0393665 1.10606 0.012205)
(-0.0317997 1.11471 0.0141011)
(-0.0276924 1.12026 0.0122229)
(-0.0242552 1.12442 0.0153674)
(-0.0187154 1.13061 0.0160518)
(-0.00993168 1.13531 0.0198869)
(-2.02565e-05 1.13445 0.0171331)
(0.00901677 1.12893 0.0155481)
(0.0189292 1.12966 0.016057)
(0.0249008 1.12614 0.0143169)
(0.0285849 1.1168 0.0117861)
(0.035473 1.11563 0.012542)
(0.0391327 1.10354 0.0104795)
(0.0406186 1.11028 0.0134303)
(0.0416378 1.09441 0.00839496)
(0.0393727 1.08812 0.0103034)
(0.0305794 1.07929 0.0105968)
(0.0372346 1.07527 0.013104)
(0.0145914 1.06798 0.0145986)
(0.0119461 1.07422 0.0184527)
(-0.0426553 1.07597 0.0421381)
(-0.0885402 1.10564 0.0671604)
(-0.159874 1.11513 0.0524286)
(-0.113669 1.15585 -0.0495567)
(0.10611 1.1462 -0.0521902)
(0.152799 1.09942 0.048708)
(0.0907989 1.08786 0.065545)
(0.0418598 1.05651 0.0391416)
(-0.00898918 1.06298 0.0231174)
(-0.0139526 1.05587 0.0176966)
(-0.0325824 1.06251 0.0153853)
(-0.0304468 1.06702 0.0142455)
(-0.0378626 1.06952 0.01137)
(-0.033607 1.07567 0.00930541)
(-0.0426989 1.08201 0.0095427)
(-0.0381733 1.08664 0.0116216)
(-0.0298659 1.08915 0.0119592)
(-0.0277237 1.09756 0.0127188)
(-0.0252204 1.10285 0.0173866)
(-0.0159566 1.10947 0.0187663)
(-0.00633737 1.11109 0.0194097)
(0.00347345 1.11311 0.0183873)
(0.010577 1.10949 0.0124994)
(0.0162272 1.10512 0.0123444)
(0.022452 1.10333 0.0127993)
(0.0250896 1.0955 0.0139309)
(0.0338152 1.09171 0.0141489)
(0.0366632 1.08382 0.0126797)
(0.0398093 1.08473 0.0140376)
(0.0396862 1.07697 0.00951606)
(0.0384461 1.06822 0.0110693)
(0.030209 1.06252 0.0115997)
(0.0335586 1.06462 0.0140213)
(0.0137311 1.06238 0.0184546)
(0.00864952 1.06533 0.0254152)
(-0.0426747 1.06044 0.0426901)
(-0.0870497 1.09151 0.0650255)
(-0.154045 1.10393 0.0446158)
(-0.108858 1.14981 -0.0529578)
(0.100105 1.13456 -0.0598045)
(0.144758 1.08306 0.038717)
(0.0897033 1.06842 0.0634129)
(0.0443832 1.04505 0.040789)
(-0.00683415 1.05438 0.0254308)
(-0.0148976 1.04156 0.0180989)
(-0.0327808 1.04682 0.0163729)
(-0.0285324 1.0491 0.0151044)
(-0.0372532 1.05179 0.00918345)
(-0.0321489 1.06143 0.0123873)
(-0.0383629 1.06329 0.00906364)
(-0.0361579 1.0663 0.00866638)
(-0.0295274 1.0753 0.0125092)
(-0.0275778 1.08176 0.0134392)
(-0.0243911 1.08172 0.0136142)
(-0.0138662 1.08707 0.0153538)
(-0.00519119 1.09051 0.0161799)
(0.00420247 1.0899 0.0152644)
(0.011272 1.08845 0.0132942)
(0.0159113 1.09031 0.0136868)
(0.0202054 1.08797 0.0127285)
(0.0237289 1.07748 0.0140297)
(0.0316172 1.0737 0.013804)
(0.0345692 1.06726 0.0127989)
(0.0392845 1.0687 0.0132165)
(0.0386748 1.05885 0.00866521)
(0.0374895 1.05658 0.0114947)
(0.0293705 1.04793 0.01142)
(0.0311797 1.04564 0.0127926)
(0.0116133 1.04334 0.0177254)
(0.00631256 1.04597 0.0278887)
(-0.0398673 1.04215 0.0411828)
(-0.0846469 1.06912 0.0607545)
(-0.148123 1.08298 0.0363026)
(-0.103878 1.13486 -0.0580083)
(0.0955855 1.1263 -0.0640505)
(0.137648 1.06772 0.0294818)
(0.0837005 1.04882 0.0567215)
(0.0433909 1.03071 0.0419999)
(-0.00372995 1.03659 0.025764)
(-0.0114022 1.02991 0.0200618)
(-0.0330974 1.03089 0.0125505)
(-0.0283051 1.0341 0.013756)
(-0.0352374 1.03991 0.0100418)
(-0.0326265 1.04225 0.0104735)
(-0.0338257 1.05154 0.00940801)
(-0.0355052 1.05291 0.00755853)
(-0.0302672 1.05439 0.0123012)
(-0.0242401 1.06375 0.0136136)
(-0.0200062 1.06264 0.0101693)
(-0.012903 1.06707 0.012169)
(-0.00585045 1.07012 0.0112604)
(0.00127532 1.0713 0.011804)
(0.00913981 1.07064 0.013708)
(0.0159273 1.06927 0.0123861)
(0.019088 1.06616 0.011081)
(0.024189 1.0592 0.0113787)
(0.0303885 1.05545 0.00977812)
(0.0335766 1.04731 0.00895144)
(0.0378601 1.05242 0.0118055)
(0.0367077 1.04637 0.00883965)
(0.0367805 1.03862 0.00967701)
(0.0294148 1.03319 0.0103799)
(0.0286738 1.03421 0.0131594)
(0.0100955 1.0273 0.0166733)
(0.0043443 1.03246 0.0260977)
(-0.0390597 1.0289 0.0399979)
(-0.0848932 1.05467 0.0576055)
(-0.143201 1.0744 0.0306655)
(-0.0985044 1.12247 -0.0633362)
(0.0924949 1.12835 -0.0631846)
(0.13284 1.0549 0.0232692)
(0.0805562 1.03303 0.0513025)
(0.0417396 1.01487 0.0409216)
(-0.0016615 1.02596 0.0260588)
(-0.00866167 1.01491 0.02029)
(-0.0303433 1.01831 0.00996042)
(-0.0299198 1.01985 0.0114476)
(-0.0330789 1.0225 0.00791847)
(-0.0322982 1.03197 0.00835216)
(-0.0330405 1.03338 0.00749387)
(-0.0340165 1.03597 0.00581222)
(-0.0302934 1.03872 0.00941082)
(-0.0225844 1.0458 0.0108352)
(-0.0183216 1.04573 0.00802101)
(-0.0108576 1.05151 0.0119687)
(-0.00548628 1.05324 0.00643239)
(-0.000791199 1.05352 0.00999715)
(0.00819461 1.05128 0.00903437)
(0.0148285 1.05276 0.00900869)
(0.0177501 1.0522 0.00933414)
(0.0243968 1.04139 0.00834468)
(0.0298852 1.0389 0.00698504)
(0.0307808 1.03668 0.00737507)
(0.0351427 1.0362 0.0100759)
(0.0362236 1.03003 0.00818937)
(0.037426 1.02558 0.00674139)
(0.0280083 1.02037 0.00863383)
(0.0280845 1.0202 0.0130658)
(0.0107357 1.01557 0.0151708)
(0.00243803 1.01846 0.0220007)
(-0.0411374 1.0147 0.0378283)
(-0.0861362 1.03844 0.0548163)
(-0.136104 1.05634 0.0247672)
(-0.0929049 1.11859 -0.0661026)
(0.0896277 1.11546 -0.0652991)
(0.128692 1.04078 0.0173947)
(0.0797499 1.01641 0.0467936)
(0.0414486 1.00291 0.0394166)
(0.000501492 1.00901 0.0240113)
(-0.00876162 1.00257 0.0185501)
(-0.0264906 1.00614 0.00983939)
(-0.0290218 1.0065 0.00792518)
(-0.0337634 1.00986 0.00466565)
(-0.032501 1.01522 0.00620363)
(-0.0325928 1.0216 0.00633115)
(-0.0320812 1.02342 0.00578899)
(-0.0290536 1.02266 0.00582193)
(-0.0220629 1.03116 0.00782517)
(-0.0191317 1.02881 0.00508549)
(-0.00949366 1.03227 0.0097513)
(-0.00454579 1.0361 0.00451029)
(-0.000455406 1.03701 0.00805336)
(0.00806755 1.03598 0.00583177)
(0.0120544 1.03718 0.00719911)
(0.0172358 1.03399 0.00599761)
(0.0230662 1.02685 0.00579954)
(0.0295582 1.02465 0.00655304)
(0.0305191 1.01916 0.00487125)
(0.0338746 1.02117 0.00830492)
(0.0356789 1.01729 0.00725641)
(0.0363085 1.01175 0.00436574)
(0.0273869 1.0073 0.0076937)
(0.0274617 1.00594 0.0094221)
(0.00855456 1.0027 0.0154752)
(0.000339199 1.00446 0.0203809)
(-0.0429605 1.00182 0.0355152)
(-0.0863914 1.01942 0.0499656)
(-0.130635 1.04781 0.0202696)
(-0.0885933 1.11123 -0.0684513)
(0.0870101 1.10876 -0.0672065)
(0.125501 1.03367 0.0118867)
(0.080038 1.002 0.0422031)
(0.040868 0.986462 0.0343946)
(0.00372882 0.996887 0.0237889)
(-0.00877046 0.987924 0.014967)
(-0.0252452 0.993772 0.0091724)
(-0.0282033 0.994668 0.00725956)
(-0.0342537 0.997042 0.0036615)
(-0.0321227 1.00375 0.00553948)
(-0.033098 1.00725 0.00531913)
(-0.0294998 1.00965 0.00524223)
(-0.0272959 1.00922 0.00343598)
(-0.0212437 1.01561 0.0056111)
(-0.0184274 1.01412 0.00279616)
(-0.0105059 1.01821 0.00609856)