/*--------------------------------*- C++ -*----------------------------------*\
  =========                 |
  \\      /  F ield         | OpenFOAM: The Open Source CFD Toolbox
   \\    /   O peration     | Website:  https://openfoam.org
    \\  /    A nd           | Version:  8
     \\/     M anipulation  |
\*---------------------------------------------------------------------------*/
FoamFile
{
    version     2.0;
    format      ascii;
    class       volScalarField;
    location    "4900";
    object      epsilon;
}
// * * * * * * * * * * * * * * * * * * * * * * * * * * * * * * * * * * * * * //

dimensions      [0 2 -3 0 0 0 0];

internalField   nonuniform List<scalar> 
48000
(
1.80891
7.09684
13.4883
20.0531
26.9066
33.8291
40.7323
47.5917
54.4622
61.457
68.434
75.4271
82.4225
89.4102
96.3805
103.323
110.227
117.082
123.874
130.594
137.227
143.762
150.188
156.491
162.662
168.689
174.563
180.272
185.81
191.167
196.336
201.312
206.087
210.659
215.022
219.175
223.114
226.839
230.35
233.646
236.728
239.599
242.259
244.712
246.959
249.023
250.929
252.648
254.179
255.528
256.701
257.703
258.542
259.225
259.757
260.145
260.395
260.515
260.51
260.386
260.151
259.809
259.366
258.829
258.203
257.493
256.704
255.841
254.91
253.913
252.857
251.743
250.578
249.364
248.104
246.803
245.462
244.086
242.675
241.234
239.764
238.267
236.746
235.202
233.637
232.052
230.449
228.829
227.193
225.542
223.877
222.199
220.509
218.806
217.093
215.368
213.633
211.888
210.132
208.367
206.592
204.808
203.014
201.211
199.398
197.575
195.743
193.901
192.049
190.186
188.314
186.431
184.537
182.632
180.717
178.79
176.852
174.902
172.94
170.967
168.981
166.984
164.974
162.951
160.916
158.869
156.809
154.737
152.653
150.555
148.446
146.325
144.191
142.046
139.889
137.72
135.541
133.351
131.15
128.94
126.72
124.49
122.253
120.007
117.754
115.493
113.227
110.955
108.678
106.397
104.112
101.825
99.5352
97.2447
94.9539
92.6635
90.3746
88.0878
85.8042
83.5244
81.2495
78.9803
76.7177
74.4624
72.2154
69.9774
67.7493
65.5319
63.3258
61.1319
58.9508
56.7831
54.6294
52.4903
50.3662
48.2576
46.1649
44.0885
42.0296
39.9902
37.98
35.9938
34.0204
32.0588
30.1081
28.1666
26.233
24.3054
22.3812
20.4571
18.5295
16.6062
14.6808
12.738
10.7687
8.76091
6.6982
4.55471
2.27687
0.738475
1.80894
7.09688
13.4883
20.0532
26.9067
33.8291
40.7324
47.5918
54.4623
61.4571
68.4341
75.4272
82.4226
89.4103
96.3806
103.323
110.227
117.082
123.875
130.594
137.227
143.762
150.188
156.491
162.662
168.69
174.563
180.273
185.81
191.167
196.336
201.312
206.087
210.659
215.022
219.175
223.114
226.839
230.35
233.646
236.728
239.599
242.259
244.712
246.959
249.023
250.929
252.648
254.179
255.528
256.701
257.703
258.542
259.225
259.757
260.145
260.395
260.515
260.51
260.386
260.151
259.809
259.366
258.829
258.203
257.493
256.704
255.841
254.91
253.913
252.856
251.743
250.578
249.364
248.104
246.803
245.462
244.085
242.675
241.234
239.764
238.267
236.746
235.202
233.637
232.052
230.449
228.829
227.193
225.542
223.877
222.199
220.509
218.806
217.093
215.368
213.633
211.888
210.132
208.367
206.592
204.808
203.014
201.211
199.398
197.575
195.743
193.901
192.049
190.186
188.314
186.431
184.537
182.632
180.717
178.79
176.852
174.902
172.94
170.967
168.981
166.984
164.974
162.951
160.916
158.869
156.809
154.737
152.653
150.555
148.446
146.325
144.191
142.046
139.889
137.72
135.541
133.351
131.15
128.94
126.72
124.49
122.253
120.007
117.754
115.493
113.227
110.955
108.678
106.397
104.112
101.825
99.5352
97.2447
94.9539
92.6635
90.3746
88.0878
85.8042
83.5244
81.2495
78.9803
76.7177
74.4624
72.2154
69.9774
67.7493
65.5319
63.3258
61.1319
58.9508
56.7831
54.6294
52.4903
50.3662
48.2576
46.1649
44.0885
42.0296
39.9902
37.98
35.9938
34.0205
32.0588
30.1081
28.1666
26.233
24.3054
22.3812
20.4571
18.5295
16.6062
14.6808
12.738
10.7687
8.76092
6.69821
4.5547
2.2769
0.738391
8.51527
7.26233
9.27198
11.7235
14.3804
17.1457
19.9768
22.8314
25.7143
28.636
31.5842
34.5573
37.5518
40.5638
43.5888
46.6222
49.6588
52.6929
55.7186
58.7296
61.7196
64.682
67.6102
70.4975
73.3374
76.1237
78.8502
81.5111
84.1007
86.6141
89.0464
91.3933
93.6509
95.8159
97.8853
99.8567
101.728
103.498
105.166
106.731
108.192
109.551
110.808
111.964
113.022
113.989
114.87
115.661
116.361
116.971
117.495
117.934
118.293
118.574
118.779
118.914
118.981
118.983
118.923
118.806
118.633
118.409
118.136
117.817
117.455
117.054
116.614
116.14
115.633
115.097
114.532
113.942
113.328
112.692
112.036
111.361
110.67
109.963
109.242
108.509
107.763
107.008
106.242
105.468
104.686
103.897
103.101
102.3
101.493
100.682
99.8661
99.0463
98.2229
97.3961
96.5662
95.7334
94.8978
94.0596
93.2189
92.3757
91.5302
90.6823
89.832
88.9794
88.1243
87.2668
86.4067
85.5441
84.6788
83.8107
82.9398
82.066
81.189
80.309
79.4256
78.5389
77.6488
76.7551
75.8577
74.9566
74.0517
73.1428
72.2301
71.3132
70.3924
69.4674
68.5383
67.6051
66.6677
65.7262
64.7807
63.831
62.8774
61.9198
60.9583
59.9932
59.0244
58.052
57.0764
56.0975
55.1156
54.1309
53.1436
52.1539
51.162
50.1683
49.1729
48.1761
47.1783
46.1796
45.1806
44.1814
43.1824
42.1839
41.1863
40.19
39.1952
38.2024
37.212
36.2242
35.2394
34.2581
33.2806
32.3072
31.3382
30.3741
29.4152
28.4617
27.5139
26.5723
25.637
24.7082
23.7863
22.8715
21.9639
21.0637
20.1711
19.2863
18.4097
17.5417
16.6833
15.8336
14.9906
14.1545
13.3253
12.5021
11.6846
10.8723
10.0646
9.26125
8.4624
7.67043
6.88368
6.10001
5.31915
4.54306
3.77905
3.0506
2.44695
2.81196
8.51534
7.26232
9.27195
11.7234
14.3804
17.1456
19.9767
22.8313
25.7142
28.6359
31.5841
34.5572
37.5517
40.5637
43.5887
46.6221
49.6587
52.6928
55.7185
58.7295
61.7195
64.6819
67.61
70.4973
73.3373
76.1236
78.8501
81.5109
84.1006
86.614
89.0462
91.3931
93.6508
95.8157
97.8851
99.8566
101.728
103.498
105.166
106.73
108.192
109.551
110.808
111.964
113.022
113.989
114.87
115.661
116.361
116.971
117.495
117.934
118.293
118.573
118.779
118.914
118.981
118.983
118.923
118.806
118.633
118.409
118.136
117.817
117.455
117.053
116.614
116.14
115.633
115.096
114.532
113.941
113.327
112.691
112.035
111.361
110.67
109.963
109.242
108.508
107.763
107.007
106.242
105.468
104.686
103.897
103.101
102.3
101.493
100.682
99.8659
99.0461
98.2227
97.3959
96.566
95.7332
94.8976
94.0594
93.2187
92.3756
91.5301
90.6822
89.8319
88.9792
88.1242
87.2667
86.4066
85.544
84.6787
83.8106
82.9397
82.0658
81.1889
80.3088
79.4255
78.5388
77.6487
76.7549
75.8576
74.9565
74.0515
73.1427
72.2299
71.3131
70.3923
69.4673
68.5382
67.605
66.6676
65.7261
64.7805
63.8309
62.8773
61.9197
60.9582
59.9931
59.0243
58.0519
57.0763
56.0974
55.1155
54.1308
53.1435
52.1538
51.162
50.1682
49.1728
48.176
47.1782
46.1796
45.1805
44.1813
43.1823
42.1838
41.1863
40.1899
39.1952
38.2024
37.2119
36.2241
35.2394
34.2581
33.2805
32.3071
31.3382
30.3741
29.4151
28.4616
27.5139
26.5722
25.6369
24.7082
23.7863
22.8714
21.9638
21.0637
20.1711
19.2863
18.4097
17.5417
16.6833
15.8336
14.9906
14.1545
13.3252
12.5021
11.6846
10.8722
10.0646
9.26123
8.46238
7.67042
6.88366
6.1
5.31914
4.54306
3.77908
3.05072
2.44692
2.81169
15.8828
9.73703
10.2592
11.6922
13.4402
15.3484
17.3543
19.4239
21.5425
23.7027
25.8974
28.1216
30.3712
32.6421
34.9304
37.2321
39.5429
41.8582
44.1733
46.4831
48.7826
51.0663
53.3289
55.5649
57.7689
59.9356
62.0598
64.1364
66.1607
68.128
70.0342
71.8754
73.6479
75.3486
76.9748
78.5241
79.9944
81.3843
82.6926
83.9185
85.0617
86.1222
87.1004
87.9974
88.815
89.5558
90.2222
90.8143
91.3327
91.7788
92.1544
92.4618
92.7033
92.8815
92.9989
93.0584
93.0626
93.0144
92.9163
92.7712
92.5817
92.3505
92.0801
91.773
91.4317
91.0585
90.6556
90.2253
89.7695
89.2903
88.7895
88.2689
87.7302
87.175
86.6047
86.0208
85.4246
84.8172
84.1998
83.5735
82.9391
82.2977
81.6499
80.9967
80.3385
79.6761
79.01
78.3406
77.6685
76.9941
76.3176
75.6394
74.9598
74.2789
73.5971
72.9143
72.2307
71.5466
70.8618
70.1765
69.4907
68.8045
68.1177
67.4304
66.7426
66.0542
65.3651
64.6754
63.9848
63.2933
62.601
61.9075
61.213
60.5172
59.8201
59.1216
58.4217
57.7202
57.017
56.3121
55.6053
54.8968
54.1863
53.4738
52.7593
52.0427
51.3241
50.6033
49.8804
49.1554
48.4284
47.6992
46.968
46.2348
45.4997
44.7627
44.0239
43.2835
42.5414
41.7979
41.053
40.3069
39.5598
38.8118
38.0631
37.3138
36.5642
35.8144
35.0648
34.3154
33.5666
32.8185
32.0714
31.3256
30.5813
29.8387
29.0982
28.3599
27.6243
26.8914
26.1616
25.4352
24.7123
23.9934
23.2785
22.568
21.8621
21.1611
20.465
19.7743
19.089
18.4094
17.7356
17.0678
16.4061
15.7508
15.1018
14.4595
13.824
13.1955
12.5741
11.9597
11.3518
10.7505
10.1555
9.56678
8.98473
8.40922
7.84043
7.27873
6.72492
6.18041
5.64667
5.12543
4.62106
4.14279
3.71151
3.38281
3.36913
5.60699
15.8829
9.73701
10.2592
11.6921
13.4401
15.3483
17.3542
19.4239
21.5424
23.7027
25.8973
28.1216
30.3711
32.642
34.9304
37.232
39.5428
41.8581
44.1732
46.483
48.7825
51.0662
53.3288
55.5648
57.7688
59.9355
62.0597
64.1363
66.1606
68.1279
70.0341
71.8753
73.6478
75.3485
76.9747
78.524
79.9943
81.3842
82.6925
83.9184
85.0616
86.1221
87.1003
87.9973
88.8149
89.5557
90.2221
90.8142
91.3326
91.7787
92.1543
92.4617
92.7032
92.8814
92.9988
93.0583
93.0625
93.0143
92.9162
92.7711
92.5816
92.3504
92.08
91.7729
91.4316
91.0584
90.6555
90.2252
89.7694
89.2902
88.7894
88.2688
87.7301
87.1749
86.6047
86.0207
85.4245
84.8171
84.1997
83.5734
82.939
82.2976
81.6499
80.9966
80.3384
79.676
79.0099
78.3406
77.6685
76.994
76.3176
75.6394
74.9597
74.2789
73.597
72.9142
72.2307
71.5465
70.8617
70.1765
69.4907
68.8044
68.1177
67.4304
66.7426
66.0541
65.3651
64.6753
63.9847
63.2933
62.6009
61.9075
61.2129
60.5172
59.8201
59.1216
58.4216
57.7201
57.0169
56.312
55.6053
54.8967
54.1862
53.4737
52.7592
52.0427
51.324
50.6033
49.8804
49.1554
48.4283
47.6992
46.968
46.2348
45.4997
44.7627
44.0239
43.2834
42.5414
41.7978
41.053
40.3069
39.5598
38.8118
38.063
37.3138
36.5642
35.8144
35.0647
34.3154
33.5665
32.8185
32.0714
31.3256
30.5812
29.8387
29.0982
28.3599
27.6242
26.8914
26.1616
25.4351
24.7123
23.9933
23.2785
22.568
21.8621
21.161
20.465
19.7743
19.089
18.4094
17.7356
17.0678
16.4061
15.7507
15.1018
14.4595
13.824
13.1955
12.5741
11.9597
11.3518
10.7505
10.1555
9.56677
8.98473
8.40922
7.84042
7.27872
6.72491
6.18041
5.64667
5.12543
4.62106
4.14279
3.71151
3.38282
3.36904
5.60696
23.0087
12.6381
12.0944
12.9238
14.2154
15.7371
17.3963
19.147
20.9637
22.8309
24.7382
26.6781
28.6445
30.6327
32.6382
34.6569
36.6845
38.7171
40.7502
42.7795
44.8005
46.8085
48.7988
50.7668
52.7075
54.6164
56.4887
58.32
60.1059
61.8424
63.5254
65.1515
66.7172
68.2197
69.6561
71.0243
72.3223
73.5485
74.7016
75.7809
76.7859
77.7165
78.5729
79.3559
80.0666
80.7065
81.2774
81.7801
82.2157
82.5855
82.8914
83.1352
83.3191
83.4453
83.5164
83.5346
83.5025
83.4226
83.2974
83.1294
82.9211
82.6749
82.3932
82.0783
81.7325
81.3579
80.9566
80.5307
80.0821
79.6126
79.124
78.618
78.096
77.5597
77.0103
76.4492
75.8776
75.2966
74.7073
74.1106
73.5076
72.8988
72.2853
71.6675
71.0463
70.422
69.7953
69.1666
68.5363
67.9048
67.2724
66.6394
66.006
65.3724
64.7388
64.1053
63.4721
62.8393
62.2068
61.5748
60.9433
60.3122
59.6816
59.0515
58.4218
57.7924
57.1634
56.5346
55.9059
55.2774
54.6489
54.0204
53.3917
52.7627
52.1335
51.5038
50.8737
50.2429
49.6116
48.9795
48.3466
47.7129
47.0783
46.4427
45.8061
45.1684
44.5297
43.8898
43.2489
42.6069
41.9637
41.3195
40.6742
40.0278
39.3805
38.7322
38.0831
37.4332
36.7826
36.1313
35.4796
34.8275
34.1751
33.5227
32.8702
32.2179
31.5659
30.9145
30.2637
29.6139
28.965
28.3175
27.6714
27.027
26.3844
25.744
25.1059
24.4703
23.8375
23.2077
22.5811
21.9579
21.3383
20.7226
20.111
19.5037
18.9008
18.3026
17.7093
17.121
16.538
15.9603
15.3882
14.8218
14.2612
13.7067
13.1583
12.6163
12.0806
11.5516
11.0293
10.5138
10.005
9.50307
9.00808
8.52024
8.03988
7.56734
7.10345
6.64907
6.20554
5.77489
5.36005
4.96554
4.59945
4.27726
4.03242
3.9529
4.37874
8.30182
23.0088
12.638
12.0944
12.9237
14.2154
15.737
17.3963
19.1469
20.9636
22.8308
24.7382
26.678
28.6444
30.6326
32.6381
34.6568
36.6844
38.717
40.7501
42.7794
44.8004
46.8084
48.7988
50.7667
52.7074
54.6163
56.4886
58.3199
60.1058
61.8423
63.5254
65.1514
66.7172
68.2196
69.6561
71.0242
72.3222
73.5484
74.7015
75.7809
76.7858
77.7164
78.5728
79.3558
80.0665
80.7065
81.2774
81.7801
82.2156
82.5855
82.8913
83.1351
83.319
83.4453
83.5163
83.5345
83.5024
83.4225
83.2973
83.1293
82.921
82.6748
82.3931
82.0782
81.7324
81.3578
80.9566
80.5307
80.0821
79.6126
79.124
78.6179
78.096
77.5596
77.0102
76.4491
75.8775
75.2965
74.7072
74.1106
73.5075
72.8988
72.2852
71.6675
71.0462
70.422
69.7953
69.1666
68.5363
67.9048
67.2724
66.6394
66.0059
65.3724
64.7388
64.1053
63.4721
62.8392
62.2068
61.5748
60.9432
60.3122
59.6816
59.0515
58.4217
57.7924
57.1633
56.5345
55.9059
55.2774
54.6489
54.0203
53.3916
52.7627
52.1334
51.5038
50.8736
50.2429
49.6116
48.9795
48.3466
47.7129
47.0782
46.4426
45.806
45.1684
44.5296
43.8898
43.2489
42.6068
41.9637
41.3194
40.6741
40.0278
39.3805
38.7322
38.0831
37.4332
36.7826
36.1313
35.4796
34.8275
34.1751
33.5226
32.8702
32.2179
31.5659
30.9145
30.2637
29.6139
28.965
28.3175
27.6714
27.027
26.3844
25.744
25.1059
24.4703
23.8375
23.2077
22.5811
21.9579
21.3383
20.7226
20.111
19.5036
18.9008
18.3026
17.7093
17.121
16.5379
15.9603
15.3882
14.8218
14.2612
13.7067
13.1583
12.6162
12.0806
11.5516
11.0293
10.5138
10.005
9.50307
9.00808
8.52024
8.03988
7.56733
7.10345
6.64907
6.20554
5.77489
5.36004
4.96554
4.59944
4.27726
4.03242
3.9529
4.37873
8.30181
30.1826
15.7811
14.2908
14.6488
15.6285
16.9111
18.3718
19.9486
21.6066
23.324
25.0864
26.8833
28.707
30.5514
32.4113
34.2824
36.1602
38.0409
39.9205
41.7949
43.6602
45.5121
47.3467
49.1596
50.9468
52.7039
54.427
56.112
57.755
59.3522
60.9002
62.3955
63.8351
65.2163
66.5364
67.7933
68.9852
70.1104
71.1678
72.1565
73.0759
73.9258
74.7064
75.4182
76.0619
76.6387
77.1499
77.5965
77.9797
78.3009
78.5618
78.7641
78.9099
79.0013
79.0405
79.0297
78.9713
78.8676
78.7211
78.534
78.3088
78.0478
77.7531
77.427
77.0717
76.6893
76.2818
75.851
75.399
74.9273
74.4379
73.9321
73.4116
72.8778
72.332
71.7755
71.2094
70.6349
70.053
69.4646
68.8707
68.2719
67.669
67.0628
66.4538
65.8425
65.2295
64.6152
64.0001
63.3844
62.7685
62.1526
61.537
60.9219
60.3074
59.6937
59.0809
58.4691
57.8583
57.2486
56.6401
56.0326
55.4262
54.8209
54.2166
53.6134
53.0111
52.4096
51.809
51.2091
50.6099
50.0113
49.4132
48.8154
48.2181
47.6209
47.024
46.4271
45.8302
45.2333
44.6362
44.039
43.4415
42.8437
42.2455
41.647
41.0481
40.4487
39.8488
39.2485
38.6477
38.0464
37.4447
36.8426
36.2402
35.6374
35.0343
34.431
33.8276
33.2242
32.6208
32.0175
31.4145
30.8119
30.2097
29.6082
29.0075
28.4077
27.809
27.2115
26.6155
26.0211
25.4284
24.8377
24.2491
23.6629
23.0792
22.4982
21.9201
21.3451
20.7735
20.2053
19.6409
19.0804
18.5239
17.9717
17.4239
16.8808
16.3425
15.8091
15.281
14.7581
14.2406
13.7288
13.2228
12.7227
12.2288
11.741
11.2598
10.7851
10.3172
9.85627
9.40245
8.956
8.5172
8.08648
7.66437
7.25161
6.84923
6.45857
6.08162
5.72129
5.38178
5.0698
4.79686
4.58438
4.47812
4.59843
5.41204
10.9658
30.1827
15.7811
14.2907
14.6487
15.6284
16.9111
18.3717
19.9485
21.6065
23.324
25.0863
26.8832
28.7069
30.5513
32.4112
34.2823
36.1602
38.0409
39.9204
41.7948
43.6601
45.512
47.3466
49.1595
50.9467
52.7039
54.4269
56.1119
57.7549
59.3522
60.9001
62.3954
63.835
65.2162
66.5363
67.7932
68.9851
70.1103
71.1677
72.1564
73.0758
73.9257
74.7063
75.4181
76.0618
76.6387
77.1499
77.5965
77.9797
78.3009
78.5617
78.7641
78.9099
79.0012
79.0404
79.0296
78.9712
78.8676
78.721
78.534
78.3088
78.0477
77.753
77.427
77.0717
76.6893
76.2817
75.851
75.3989
74.9273
74.4378
73.9321
73.4116
72.8777
72.3319
71.7754
71.2094
70.6349
70.053
69.4646
68.8706
68.2718
67.669
67.0628
66.4537
65.8425
65.2295
64.6152
64.0001
63.3844
62.7685
62.1526
61.537
60.9219
60.3074
59.6937
59.0809
58.4691
57.8583
57.2486
56.64
56.0326
55.4262
54.8209
54.2166
53.6134
53.011
52.4096
51.809
51.2091
50.6099
50.0113
49.4131
48.8154
48.218
47.6209
47.0239
46.4271
45.8302
45.2333
44.6362
44.039
43.4415
42.8437
42.2455
41.647
41.048
40.4486
39.8488
39.2485
38.6477
38.0464
37.4447
36.8426
36.2402
35.6374
35.0343
34.431
33.8276
33.2242
32.6208
32.0175
31.4145
30.8118
30.2097
29.6082
29.0075
28.4077
27.809
27.2115
26.6155
26.0211
25.4284
24.8377
24.2491
23.6629
23.0792
22.4982
21.9201
21.3451
20.7735
20.2053
19.6409
19.0803
18.5239
17.9717
17.4239
16.8808
16.3425
15.8091
15.281
14.7581
14.2406
13.7288
13.2228
12.7227
12.2288
11.741
11.2598
10.7851
10.3172
9.85627
9.40245
8.95599
8.5172
8.08648
7.66437
7.25161
6.84923
6.45857
6.08162
5.72129
5.38178
5.0698
4.79686
4.58438
4.47812
4.59844
5.41205
10.9658
37.2991
19.0552
16.6953
16.6566
17.3945
18.5064
19.8348
21.302
22.8641
24.4934
26.1714
27.8852
29.6251
31.3838
33.1554
34.9348
36.7178
38.5004
40.2788
42.0494
43.8086
45.5526
47.278
48.9811
50.6582
52.3057
53.92
55.4975
57.0348
58.5285
59.9755
61.3727
62.7174
64.007
65.2391
66.4116
67.5229
68.5714
69.5559
70.4755
71.3297
72.1182
72.841
73.4984
74.091
74.6198
75.0857
75.4898
75.8333
76.1175
76.3439
76.5144
76.6308
76.695
76.7091
76.6753
76.5957
76.4726
76.3083
76.105
75.8649
75.5903
75.2833
74.946
74.5806
74.1891
73.7734
73.3354
72.8769
72.3996
71.9052
71.3953
70.8712
70.3345
69.7865
69.2283
68.6611
68.0861
67.5042
66.9163
66.3234
65.7261
65.1253
64.5215
63.9155
63.3077
62.6986
62.0887
61.4784
60.868
60.2578
59.6481
59.0392
58.4311
57.8242
57.2185
56.6141
56.0112
55.4098
54.8099
54.2115
53.6147
53.0195
52.4258
51.8336
51.2429
50.6536
50.0656
49.4789
48.8935
48.3091
47.7258
47.1435
46.5621
45.9815
45.4016
44.8224
44.2438
43.6656
43.0879
42.5105
41.9334
41.3566
40.7799
40.2034
39.6269
39.0506
38.4742
37.8979
37.3215
36.7452
36.1689
35.5926
35.0163
34.4401
33.864
33.2881
32.7124
32.1369
31.5618
30.9872
30.4131
29.8395
29.2668
28.6948
28.1239
27.554
26.9853
26.418
25.8523
25.2882
24.7259
24.1656
23.6074
23.0516
22.4983
21.9477
21.3998
20.8551
20.3135
19.7753
19.2406
18.7097
18.1828
17.6599
17.1412
16.6271
16.1175
15.6127
15.1129
14.6181
14.1287
13.6447
13.1663
12.6936
12.227
11.7665
11.3123
10.8647
10.4238
9.98995
9.56336
9.14435
8.73329
8.33066
7.93705
7.55324
7.18023
6.81938
6.47253
6.14221
5.83212
5.54769
5.2976
5.0966
4.97189
4.9814
5.27782
6.45388
13.6131
37.2992
19.0552
16.6952
16.6565
17.3945
18.5063
19.8347
21.3019
22.864
24.4933
26.1713
27.8851
29.625
31.3837
33.1553
34.9348
36.7178
38.5004
40.2788
42.0493
43.8085
45.5525
47.2779
48.981
50.6581
52.3056
53.9199
55.4974
57.0347
58.5284
59.9754
61.3727
62.7173
64.0069
65.239
66.4116
67.5228
68.5713
69.5558
70.4755
71.3297
72.1181
72.8409
73.4983
74.091
74.6197
75.0856
75.4897
75.8332
76.1174
76.3439
76.5144
76.6307
76.6949
76.709
76.6752
76.5957
76.4726
76.3083
76.1049
75.8649
75.5902
75.2832
74.946
74.5806
74.1891
73.7734
73.3354
72.8769
72.3996
71.9052
71.3952
70.8712
70.3345
69.7864
69.2282
68.6611
68.0861
67.5041
66.9163
66.3233
65.7261
65.1252
64.5215
63.9155
63.3076
62.6986
62.0887
61.4784
60.8679
60.2578
59.6481
59.0391
58.4311
57.8242
57.2185
56.6141
56.0112
55.4097
54.8098
54.2115
53.6147
53.0195
52.4258
51.8336
51.2429
50.6536
50.0656
49.4789
48.8934
48.3091
47.7258
47.1435
46.5621
45.9815
45.4016
44.8224
44.2438
43.6656
43.0879
42.5105
41.9334
41.3566
40.7799
40.2034
39.6269
39.0506
38.4742
37.8979
37.3215
36.7452
36.1689
35.5926
35.0163
34.4401
33.864
33.2881
32.7124
32.1369
31.5618
30.9872
30.413
29.8395
29.2668
28.6948
28.1239
27.554
26.9853
26.418
25.8523
25.2882
24.7259
24.1656
23.6074
23.0516
22.4983
21.9477
21.3998
20.8551
20.3135
19.7753
19.2406
18.7097
18.1828
17.6599
17.1412
16.6271
16.1175
15.6127
15.1129
14.6181
14.1287
13.6447
13.1663
12.6936
12.227
11.7665
11.3123
10.8647
10.4238
9.98995
9.56336
9.14435
8.73329
8.33066
7.93705
7.55324
7.18023
6.81938
6.47253
6.14221
5.83212
5.54769
5.2976
5.0966
4.97189
4.98141
5.27782
6.45389
13.6131
44.451
22.435
19.2538
18.8633
19.4009
20.3806
21.6129
23.0049
24.5038
26.0764
27.7006
29.3608
31.0457
32.7467
34.4571
36.1716
37.8855
39.595
41.2965
42.9867
44.6624
46.3204
47.9577
49.5711
51.1576
52.7139
54.2371
55.7241
57.1719
58.5775
59.9382
61.2513
62.5144
63.7249
64.881
65.9806
67.022
68.004
68.9253
69.7851
70.5828
71.318
71.9907
72.6011
73.1496
73.637
74.0641
74.432
74.7416
74.9943
75.1916
75.3351
75.4264
75.4675
75.4603
75.4068
75.3091
75.1693
74.9896
74.7721
74.5189
74.2322
73.9141
73.5666
73.1917
72.7915
72.3677
71.9222
71.4568
70.9732
70.4729
69.9576
69.4286
68.8874
68.3352
67.7733
67.2027
66.6247
66.0401
65.4499
64.8549
64.2559
63.6537
63.0489
62.4421
61.8338
61.2246
60.6149
60.005
59.3954
58.7864
58.1781
57.5709
56.9649
56.3604
55.7574
55.1561
54.5566
53.9588
53.363
52.769
52.177
51.5868
50.9986
50.4122
49.8276
49.2448
48.6636
48.0842
47.5063
46.9299
46.3549
45.7813
45.2089
44.6377
44.0677
43.4986
42.9305
42.3633
41.7968
41.2312
40.6661
40.1017
39.5378
38.9745
38.4116
37.8491
37.2871
36.7254
36.1641
35.6032
35.0426
34.4823
33.9225
33.3631
32.8041
32.2456
31.6876
31.1302
30.5735
30.0175
29.4623
28.908
28.3547
27.8025
27.2515
26.7018
26.1535
25.6069
25.0619
24.5188
23.9776
23.4386
22.9019
22.3676
21.8359
21.307
20.781
20.2581
19.7385
19.2222
18.7096
18.2007
17.6957
17.1948
16.6982
16.206
15.7184
15.2355
14.7576
14.2848
13.8172
13.3551
12.8986
12.4479
12.0032
11.5648
11.1328
10.7076
10.2893
9.87828
9.47494
9.07967
8.69298
8.31548
7.94797
7.59141
7.2471
6.9167
6.60249
6.30758
6.03645
5.79575
5.59596
5.45482
5.40534
5.51762
5.97661
7.50087
16.2511
44.4511
22.4349
19.2537
18.8633
19.4008
20.3805
21.6128
23.0049
24.5037
26.0763
27.7005
29.3607
31.0456
32.7466
34.457
36.1715
37.8854
39.5949
41.2964
42.9866
44.6623
46.3204
47.9576
49.571
51.1575
52.7138
54.237
55.724
57.1718
58.5774
59.9381
61.2513
62.5143
63.7249
64.8809
65.9805
67.022
68.004
68.9253
69.7851
70.5827
71.3179
71.9906
72.601
73.1496
73.6369
74.0641
74.4319
74.7415
74.9943
75.1916
75.335
75.4264
75.4674
75.4602
75.4067
75.3091
75.1693
74.9896
74.772
74.5189
74.2322
73.9141
73.5666
73.1917
72.7914
72.3676
71.9222
71.4568
70.9732
70.4729
69.9576
69.4286
68.8874
68.3352
67.7733
67.2027
66.6247
66.0401
65.4498
64.8548
64.2559
63.6537
63.0489
62.442
61.8338
61.2246
60.6149
60.005
59.3954
58.7863
58.1781
57.5709
56.9649
56.3604
55.7574
55.1561
54.5566
53.9588
53.363
52.769
52.177
51.5868
50.9986
50.4122
49.8276
49.2448
48.6636
48.0842
47.5063
46.9299
46.3549
45.7813
45.2089
44.6377
44.0677
43.4986
42.9305
42.3633
41.7968
41.2311
40.6661
40.1017
39.5378
38.9745
38.4116
37.8491
37.2871
36.7254
36.1641
35.6031
35.0426
34.4823
33.9225
33.3631
32.8041
32.2456
31.6876
31.1302
30.5735
30.0175
29.4623
28.908
28.3547
27.8025
27.2515
26.7018
26.1535
25.6069
25.0619
24.5188
23.9776
23.4386
22.9019
22.3676
21.8359
21.307
20.781
20.2581
19.7385
19.2222
18.7096
18.2007
17.6957
17.1948
16.6982
16.206
15.7184
15.2355
14.7576
14.2848
13.8172
13.3551
12.8986
12.4479
12.0032
11.5648
11.1328
10.7076
10.2893
9.87828
9.47494
9.07967
8.69298
8.31548
7.94797
7.59141
7.2471
6.9167
6.60249
6.30758
6.03645
5.79575
5.59596
5.45482
5.40534
5.51762
5.97662
7.50088
16.2511
51.793
25.9121
21.9429
21.2298
21.5933
22.4649
23.6233
24.9604
26.4148
27.9481
29.5349
31.1571
32.8017
34.4591
36.1218
37.7841
39.4414
41.0897
42.7257
44.3464
45.949
47.5309
49.0895
50.6222
52.1265
53.5998
55.0396
56.4433
57.8084
59.1325
60.413
61.6478
62.8347
63.9714
65.0563
66.0875
67.0636
67.9832
68.8453
69.6489
70.3936
71.079
71.7048
72.2713
72.7788
73.2278
73.6192
73.9536
74.2323
74.4563
74.627
74.7459
74.8147
74.835
74.8086
74.7376
74.6237
74.4691
74.2757
74.0456
73.7808
73.4835
73.1555
72.7989
72.4156
72.0074
71.5764
71.1241
70.6524
70.1629
69.6571
69.1365
68.6027
68.0569
67.5004
66.9344
66.3601
65.7784
65.1905
64.5972
63.9993
63.3976
62.7929
62.1858
61.577
60.9668
60.356
59.7448
59.1338
58.5232
57.9133
57.3045
56.697
56.0909
55.4866
54.884
54.2833
53.6846
53.088
52.4935
51.9012
51.3111
50.7231
50.1373
49.5536
48.972
48.3925
47.8149
47.2393
46.6655
46.0935
45.5233
44.9546
44.3876
43.822
43.2578
42.695
42.1334
41.5729
41.0136
40.4553
39.898
39.3416
38.7861
38.2313
37.6773
37.1241
36.5715
36.0196
35.4684
34.9178
34.3679
33.8186
33.2699
32.722
32.1747
31.6281
31.0824
30.5375
29.9934
29.4503
28.9083
28.3673
27.8275
27.289
26.7519
26.2163
25.6822
25.1499
24.6194
24.0909
23.5645
23.0403
22.5184
21.9991
21.4825
20.9686
20.4577
19.9499
19.4454
18.9443
18.4468
17.9531
17.4632
16.9774
16.4958
16.0187
15.546
15.0782
14.6152
14.1572
13.7046
13.2574
12.8158
12.3801
11.9505
11.5272
11.1105
10.7007
10.2981
9.90313
9.51622
9.13788
8.76875
8.40958
8.06132
7.72517
7.40266
7.09578
6.80721
6.54063
6.3013
6.09703
5.9401
5.85121
5.86912
6.07605
6.68936
8.55352
18.8857
51.7931
25.9121
21.9428
21.2297
21.5932
22.4648
23.6233
24.9603
26.4147
27.9481
29.5348
31.157
32.8016
34.459
36.1217
37.7841
39.4413
41.0896
42.7256
44.3463
45.9489
47.5308
49.0894
50.6221
52.1264
53.5997
55.0395
56.4432
57.8083
59.1324
60.413
61.6478
62.8346
63.9714
65.0562
66.0875
67.0635
67.9831
68.8452
69.6489
70.3936
71.0789
71.7048
72.2713
72.7788
73.2278
73.6191
73.9536
74.2322
74.4562
74.627
74.7459
74.8146
74.8349
74.8086
74.7375
74.6237
74.469
74.2756
74.0456
73.7808
73.4834
73.1555
72.7988
72.4155
72.0074
71.5764
71.1241
70.6524
70.1628
69.657
69.1365
68.6027
68.0569
67.5004
66.9344
66.36
65.7784
65.1905
64.5971
63.9993
63.3976
62.7929
62.1858
61.5769
60.9668
60.356
59.7448
59.1338
58.5232
57.9133
57.3045
56.697
56.0909
55.4865
54.8839
54.2833
53.6846
53.088
52.4935
51.9012
51.3111
50.7231
50.1373
49.5536
48.972
48.3925
47.8149
47.2393
46.6655
46.0935
45.5233
44.9546
44.3876
43.822
43.2578
42.695
42.1334
41.5729
41.0136
40.4553
39.898
39.3416
38.7861
38.2313
37.6773
37.1241
36.5715
36.0196
35.4684
34.9178
34.3679
33.8186
33.2699
32.7219
32.1747
31.6281
31.0824
30.5375
29.9934
29.4503
28.9082
28.3673
27.8275
27.289
26.7519
26.2163
25.6822
25.1499
24.6194
24.0909
23.5645
23.0403
22.5184
21.9991
21.4825
20.9686
20.4577
19.9499
19.4454
18.9443
18.4468
17.9531
17.4632
16.9774
16.4958
16.0187
15.546
15.0782
14.6152
14.1572
13.7046
13.2574
12.8158
12.3801
11.9505
11.5272
11.1105
10.7007
10.2981
9.90313
9.51622
9.13788
8.76875
8.40958
8.06132
7.72517
7.40266
7.09578
6.80721
6.54063
6.3013
6.09703
5.9401
5.85121
5.86912
6.07605
6.68936
8.55354
18.8857
59.4597
29.5169
24.7584
23.7375
23.9436
24.7226
25.8211
27.1156
28.5365
30.0404
31.5985
33.1906
34.8022
36.4226
38.0437
39.6596
41.2654
42.8574
44.4324
45.9879
47.5215
49.0309
50.5143
51.9696
53.3948
54.7879
56.1468
57.4697
58.7544
59.9989
61.2013
62.3596
63.4718
64.5364
65.5515
66.5158
67.4277
68.2862
69.0901
69.8389
70.5317
71.1682
71.7483
72.272
72.7396
73.1514
73.5081
73.8105
74.0594
74.2561
74.4016
74.4973
74.5448
74.5456
74.5015
74.4142
74.2855
74.1173
73.9115
73.6702
73.3951
73.0883
72.7516
72.3871
71.9965
71.5816
71.1443
70.6863
70.2092
69.7146
69.2041
68.6791
68.1411
67.5914
67.0312
66.4617
65.884
65.2992
64.7082
64.112
63.5114
62.9072
62.3001
61.6907
61.0796
60.4675
59.8548
59.2419
58.6292
58.0171
57.406
56.7961
56.1876
55.5807
54.9757
54.3726
53.7717
53.1729
52.5764
51.9822
51.3904
50.801
50.2139
49.6292
49.0468
48.4667
47.8889
47.3134
46.7399
46.1686
45.5993
45.032
44.4665
43.9028
43.3408
42.7805
42.2218
41.6645
41.1087
40.5542
40.001
39.4491
38.8982
38.3485
37.7998
37.2522
36.7055
36.1597
35.6148
35.0709
34.5277
33.9855
33.4441
32.9036
32.364
31.8253
31.2875
30.7506
30.2148
29.6801
29.1465
28.6141
28.0829
27.553
27.0246
26.4977
25.9723
25.4487
24.9269
24.407
23.8891
23.3734
22.86
22.349
21.8405
21.3347
20.8317
20.3317
19.8348
19.3411
18.8508
18.3641
17.8811
17.4019
16.9268
16.4558
15.9892
15.527
15.0696
14.617
14.1695
13.7272
13.2903
12.8591
12.4338
12.0147
11.602
11.196
10.7971
10.4057
10.0222
9.64721
9.28127
8.92514
8.57973
8.24614
7.92577
7.62039
7.33231
7.06461
6.82152
6.60906
6.4362
6.317
6.27524
6.35526
6.65177
7.41494
9.616
21.536
59.4598
29.5168
24.7583
23.7375
23.9435
24.7225
25.821
27.1155
28.5364
30.0404
31.5985
33.1905
34.8021
36.4225
38.0436
39.6595
41.2653
42.8573
44.4323
45.9878
47.5214
49.0309
50.5142
51.9695
53.3947
54.7878
56.1468
57.4696
58.7543
59.9989
61.2012
62.3595
63.4718
64.5363
65.5515
66.5157
67.4276
68.2861
69.0901
69.8388
70.5316
71.1682
71.7483
72.272
72.7395
73.1513
73.5081
73.8104
74.0594
74.256
74.4015
74.4973
74.5448
74.5456
74.5015
74.4141
74.2854
74.1172
73.9115
73.6701
73.3951
73.0882
72.7516
72.3871
71.9964
71.5816
71.1443
70.6862
70.2091
69.7146
69.2041
68.6791
68.1411
67.5914
67.0312
66.4617
65.884
65.2992
64.7082
64.112
63.5114
62.9072
62.3
61.6907
61.0796
60.4675
59.8547
59.2418
58.6292
58.0171
57.406
56.7961
56.1876
55.5807
54.9757
54.3726
53.7717
53.1729
52.5764
51.9822
51.3904
50.8009
50.2139
49.6292
49.0468
48.4667
47.8889
47.3134
46.7399
46.1686
45.5993
45.0319
44.4665
43.9028
43.3408
42.7805
42.2218
41.6645
41.1087
40.5542
40.001
39.4491
38.8982
38.3485
37.7998
37.2522
36.7055
36.1597
35.6148
35.0708
34.5277
33.9855
33.4441
32.9036
32.364
31.8252
31.2875
30.7506
30.2148
29.6801
29.1465
28.614
28.0829
27.553
27.0246
26.4977
25.9723
25.4487
24.9269
24.407
23.8891
23.3734
22.86
22.349
21.8405
21.3347
20.8317
20.3317
19.8348
19.3411
18.8508
18.3641
17.8811
17.4019
16.9268
16.4558
15.9892
15.527
15.0696
14.617
14.1695
13.7272
13.2903
12.8591
12.4338
12.0147
11.602
11.196
10.7971
10.4057
10.0222
9.64721
9.28127
8.92514
8.57973
8.24614
7.92577
7.62039
7.33231
7.06461
6.82152
6.60906
6.4362
6.317
6.27524
6.35526
6.65177
7.41494
9.61602
21.536
67.3298
33.2402
27.695
26.3766
26.4361
27.1327
28.1801
29.4396
30.8333
32.3129
33.8465
35.4118
36.993
38.5785
40.1597
41.7304
43.2858
44.8223
46.337
47.8277
49.2924
50.7297
52.138
53.5158
54.8619
56.1746
57.4526
58.6945
59.8985
61.0633
62.1872
63.2686
64.3061
65.2981
66.2432
67.1402
67.9877
68.7848
69.5305
70.2241
70.8649
71.4526
71.9869
72.4679
72.8956
73.2704
73.5929
73.8635
74.0833
74.2531
74.374
74.4472
74.4742
74.4564
74.3953
74.2926
74.15
73.9692
73.7521
73.5005
73.2162
72.901
72.5568
72.1854
71.7886
71.3681
70.9256
70.4629
69.9815
69.483
68.9689
68.4405
67.8994
67.3467
66.7837
66.2116
65.6315
65.0443
64.4512
63.8529
63.2503
62.6441
62.0352
61.424
60.8114
60.1977
59.5835
58.9692
58.3553
57.7421
57.1299
56.519
55.9097
55.3021
54.6964
54.0929
53.4916
52.8926
52.296
51.7019
51.1103
50.5212
49.9347
49.3507
48.7692
48.1901
47.6135
47.0393