/*--------------------------------*- C++ -*----------------------------------*\
  =========                 |
  \\      /  F ield         | OpenFOAM: The Open Source CFD Toolbox
   \\    /   O peration     | Website:  https://openfoam.org
    \\  /    A nd           | Version:  8
     \\/     M anipulation  |
\*---------------------------------------------------------------------------*/
FoamFile
{
    version     2.0;
    format      ascii;
    class       volScalarField;
    location    "4900";
    object      nut;
}
// * * * * * * * * * * * * * * * * * * * * * * * * * * * * * * * * * * * * * //

dimensions      [0 2 -1 0 0 0 0];

internalField   nonuniform List<scalar> 
48000
(
5.49756e-05
9.60789e-05
0.000119012
0.000135831
0.000149816
0.000161697
0.000172022
0.000181182
0.000189512
0.000197301
0.000204501
0.000211242
0.000217581
0.000223564
0.000229228
0.000234606
0.000239719
0.000244588
0.00024923
0.000253657
0.000257881
0.000261912
0.000265758
0.000269425
0.000272921
0.000276252
0.000279421
0.000282436
0.000285299
0.000288015
0.000290588
0.000293022
0.000295322
0.00029749
0.00029953
0.000301446
0.000303242
0.00030492
0.000306486
0.000307941
0.000309289
0.000310535
0.00031168
0.000312729
0.000313683
0.000314555
0.000315356
0.000316074
0.000316712
0.000317271
0.000317756
0.000318169
0.000318514
0.000318795
0.000319013
0.000319171
0.000319274
0.000319323
0.000319321
0.00031927
0.000319174
0.000319034
0.000318853
0.000318633
0.000318376
0.000318084
0.000317758
0.000317402
0.000317016
0.000316602
0.000316162
0.000315698
0.00031521
0.0003147
0.000314169
0.000313618
0.000313049
0.000312463
0.00031186
0.000311241
0.000310607
0.00030996
0.000309298
0.000308624
0.000307938
0.00030724
0.000306531
0.000305811
0.00030508
0.000304339
0.000303588
0.000302827
0.000302057
0.000301278
0.000300489
0.000299691
0.000298884
0.000298068
0.000297242
0.000296407
0.000295563
0.00029471
0.000293847
0.000292974
0.000292091
0.000291198
0.000290295
0.000289382
0.000288457
0.000287522
0.000286575
0.000285616
0.000284646
0.000283663
0.000282668
0.000281659
0.000280638
0.000279602
0.000278553
0.000277489
0.000276411
0.000275317
0.000274208
0.000273083
0.000271941
0.000270783
0.000269608
0.000268415
0.000267204
0.000265975
0.000264727
0.000263459
0.000262173
0.000260866
0.000259539
0.000258191
0.000256821
0.000255431
0.000254018
0.000252583
0.000251124
0.000249643
0.000248138
0.00024661
0.000245056
0.000243478
0.000241875
0.000240246
0.000238592
0.00023691
0.000235202
0.000233467
0.000231704
0.000229913
0.000228093
0.000226245
0.000224366
0.000222458
0.000220518
0.000218548
0.000216546
0.000214511
0.000212442
0.00021034
0.000208203
0.000206029
0.000203819
0.000201571
0.000199283
0.000196955
0.000194584
0.000192169
0.000189708
0.000187199
0.00018464
0.000182026
0.000179356
0.000176626
0.000173832
0.000170974
0.00016806
0.000165078
0.000162004
0.000158829
0.00015554
0.000152122
0.000148558
0.000144826
0.000140899
0.00013674
0.000132303
0.000127557
0.000122423
0.000116766
0.000110408
0.000103069
9.42491e-05
8.29909e-05
6.71894e-05
5.41873e-05
5.49759e-05
9.60791e-05
0.000119013
0.000135832
0.000149816
0.000161697
0.000172022
0.000181182
0.000189512
0.000197301
0.000204501
0.000211242
0.000217581
0.000223564
0.000229229
0.000234606
0.000239719
0.000244588
0.00024923
0.000253657
0.000257881
0.000261912
0.000265758
0.000269425
0.000272921
0.000276252
0.000279421
0.000282436
0.000285299
0.000288015
0.000290588
0.000293022
0.000295322
0.00029749
0.00029953
0.000301446
0.000303242
0.00030492
0.000306486
0.000307941
0.000309289
0.000310535
0.00031168
0.000312729
0.000313683
0.000314555
0.000315356
0.000316074
0.000316712
0.000317271
0.000317756
0.000318169
0.000318514
0.000318795
0.000319013
0.000319171
0.000319274
0.000319323
0.000319321
0.00031927
0.000319174
0.000319034
0.000318853
0.000318633
0.000318376
0.000318084
0.000317758
0.000317402
0.000317016
0.000316602
0.000316162
0.000315698
0.00031521
0.0003147
0.000314169
0.000313618
0.000313049
0.000312463
0.00031186
0.000311241
0.000310607
0.00030996
0.000309298
0.000308624
0.000307938
0.00030724
0.000306531
0.00030581
0.00030508
0.000304339
0.000303588
0.000302827
0.000302057
0.000301278
0.000300489
0.000299691
0.000298884
0.000298068
0.000297242
0.000296407
0.000295563
0.00029471
0.000293847
0.000292974
0.000292091
0.000291198
0.000290295
0.000289382
0.000288457
0.000287522
0.000286575
0.000285616
0.000284646
0.000283663
0.000282668
0.000281659
0.000280638
0.000279602
0.000278553
0.000277489
0.000276411
0.000275317
0.000274208
0.000273083
0.000271941
0.000270783
0.000269608
0.000268415
0.000267204
0.000265975
0.000264727
0.000263459
0.000262173
0.000260866
0.000259539
0.000258191
0.000256821
0.000255431
0.000254018
0.000252583
0.000251124
0.000249643
0.000248138
0.00024661
0.000245056
0.000243478
0.000241875
0.000240246
0.000238592
0.00023691
0.000235202
0.000233467
0.000231704
0.000229913
0.000228093
0.000226245
0.000224366
0.000222458
0.000220518
0.000218548
0.000216546
0.000214511
0.000212442
0.00021034
0.000208203
0.000206029
0.000203819
0.000201571
0.000199283
0.000196955
0.000194584
0.000192169
0.000189708
0.000187199
0.00018464
0.000182026
0.000179356
0.000176626
0.000173832
0.000170974
0.00016806
0.000165078
0.000162004
0.000158829
0.00015554
0.000152122
0.000148558
0.000144826
0.000140899
0.00013674
0.000132303
0.000127557
0.000122423
0.000116766
0.000110408
0.000103069
9.42496e-05
8.29922e-05
6.71852e-05
5.41885e-05
8.37656e-05
0.000621679
0.000983557
0.00123601
0.00142707
0.00158128
0.00171328
0.00182944
0.00193328
0.00202686
0.00211256
0.00219158
0.0022649
0.00233328
0.0023973
0.00245741
0.002514
0.00256738
0.0026178
0.00266548
0.00271062
0.00275338
0.00279391
0.00283232
0.00286874
0.00290326
0.00293598
0.00296697
0.00299632
0.0030241
0.00305036
0.00307519
0.00309862
0.00312072
0.00314153
0.00316111
0.0031795
0.00319675
0.0032129
0.00322799
0.00324206
0.00325513
0.00326726
0.00327845
0.00328869
0.00329786
0.003306
0.00331329
0.00331983
0.00332568
0.00333089
0.00333548
0.00333949
0.00334294
0.00334585
0.00334826
0.00335018
0.00335163
0.00335264
0.00335322
0.00335339
0.00335318
0.0033526
0.00335166
0.00335038
0.00334878
0.00334687
0.00334467
0.00334219
0.00333943
0.00333642
0.00333317
0.00332968
0.00332596
0.00332203
0.00331789
0.00331356
0.00330903
0.00330433
0.00329944
0.00329439
0.00328918
0.00328381
0.00327828
0.00327261
0.00326679
0.00326084
0.00325474
0.00324851
0.00324216
0.00323567
0.00322905
0.00322231
0.00321544
0.00320845
0.00320134
0.0031941
0.00318674
0.00317925
0.00317164
0.00316391
0.00315605
0.00314806
0.00313994
0.00313169
0.00312331
0.0031148
0.00310615
0.00309735
0.00308842
0.00307934
0.00307011
0.00306074
0.00305121
0.00304152
0.00303167
0.00302166
0.00301148
0.00300113
0.00299061
0.0029799
0.00296902
0.00295795
0.00294669
0.00293524
0.00292359
0.00291174
0.00289968
0.00288742
0.00287494
0.00286224
0.00284932
0.00283618
0.0028228
0.00280919
0.00279534
0.00278125
0.00276692
0.00275233
0.00273749
0.00272239
0.00270702
0.00269139
0.00267548
0.0026593
0.00264284
0.00262609
0.00260906
0.00259172
0.00257409
0.00255616
0.00253791
0.00251935
0.00250047
0.00248126
0.00246172
0.00244185
0.00242162
0.00240105
0.00238011
0.00235881
0.00233713
0.00231506
0.00229259
0.00226972
0.00224642
0.00222269
0.00219851
0.00217386
0.00214873
0.00212308
0.00209691
0.00207018
0.00204286
0.00201492
0.00198632
0.00195701
0.00192692
0.00189598
0.00186408
0.00183104
0.0017968
0.00176134
0.00172457
0.00168634
0.00164647
0.00160472
0.00156076
0.0015142
0.00146445
0.0014106
0.00135098
0.00128461
0.00120965
0.00112297
0.00101932
0.000889223
0.000713645
0.000448983
5.88522e-05
8.37658e-05
0.000621683
0.000983563
0.00123602
0.00142707
0.00158128
0.00171328
0.00182944
0.00193328
0.00202687
0.00211256
0.00219158
0.00226491
0.00233329
0.0023973
0.00245742
0.00251401
0.00256738
0.0026178
0.00266549
0.00271063
0.00275339
0.00279391
0.00283233
0.00286874
0.00290326
0.00293598
0.00296697
0.00299632
0.0030241
0.00305037
0.00307519
0.00309862
0.00312072
0.00314153
0.00316112
0.00317951
0.00319676
0.00321291
0.00322799
0.00324206
0.00325514
0.00326726
0.00327845
0.00328869
0.00329787
0.00330601
0.0033133
0.00331984
0.00332569
0.00333089
0.00333549
0.00333949
0.00334294
0.00334586
0.00334826
0.00335018
0.00335163
0.00335264
0.00335322
0.0033534
0.00335318
0.0033526
0.00335166
0.00335039
0.00334879
0.00334688
0.00334467
0.00334219
0.00333944
0.00333643
0.00333317
0.00332968
0.00332596
0.00332203
0.00331789
0.00331356
0.00330904
0.00330433
0.00329945
0.0032944
0.00328918
0.00328381
0.00327828
0.00327261
0.0032668
0.00326084
0.00325475
0.00324852
0.00324216
0.00323567
0.00322906
0.00322231
0.00321545
0.00320846
0.00320134
0.0031941
0.00318674
0.00317926
0.00317165
0.00316391
0.00315605
0.00314806
0.00313995
0.0031317
0.00312332
0.0031148
0.00310615
0.00309736
0.00308842
0.00307934
0.00307012
0.00306074
0.00305121
0.00304152
0.00303167
0.00302166
0.00301148
0.00300113
0.00299061
0.00297991
0.00296902
0.00295795
0.0029467
0.00293524
0.00292359
0.00291174
0.00289969
0.00288742
0.00287494
0.00286224
0.00284932
0.00283618
0.0028228
0.00280919
0.00279535
0.00278126
0.00276692
0.00275233
0.00273749
0.00272239
0.00270702
0.00269139
0.00267549
0.00265931
0.00264284
0.0026261
0.00260906
0.00259173
0.00257409
0.00255616
0.00253791
0.00251935
0.00250047
0.00248126
0.00246173
0.00244185
0.00242163
0.00240105
0.00238011
0.00235881
0.00233713
0.00231506
0.0022926
0.00226972
0.00224642
0.00222269
0.00219851
0.00217386
0.00214873
0.00212309
0.00209691
0.00207018
0.00204287
0.00201493
0.00198632
0.00195701
0.00192692
0.00189598
0.00186408
0.00183104
0.0017968
0.00176134
0.00172457
0.00168635
0.00164647
0.00160472
0.00156077
0.0015142
0.00146445
0.0014106
0.00135098
0.00128461
0.00120965
0.00112297
0.00101932
0.000889215
0.000713621
0.000448992
5.88615e-05
0.000103112
0.000943863
0.00167972
0.00223136
0.00266517
0.00302378
0.00333103
0.00360085
0.00384167
0.004059
0.00425703
0.00443875
0.00460643
0.00476185
0.0049064
0.00504124
0.00516731
0.00528541
0.00539622
0.00550032
0.00559824
0.00569041
0.00577724
0.00585908
0.00593627
0.00600908
0.00607778
0.00614261
0.0062038
0.00626154
0.00631603
0.00636743
0.0064159
0.0064616
0.00650465
0.0065452
0.00658336
0.00661924
0.00665295
0.00668458
0.00671422
0.00674196
0.00676785
0.00679196
0.00681429
0.0068348
0.00685357
0.00687077
0.00688654
0.00690098
0.00691418
0.00692621
0.00693713
0.00694699
0.00695584
0.00696372
0.00697068
0.00697675
0.00698198
0.00698639
0.00699002
0.0069929
0.00699507
0.00699654
0.00699736
0.00699754
0.0069971
0.00699608
0.00699449
0.00699235
0.00698969
0.00698653
0.00698287
0.00697875
0.00697417
0.00696915
0.0069637
0.00695785
0.00695159
0.00694494
0.00693792
0.00693052
0.00692277
0.00691467
0.00690622
0.00689744
0.00688833
0.0068789
0.00686914
0.00685907
0.00684869
0.006838
0.006827
0.00681569
0.00680408
0.00679217
0.00677995
0.00676743
0.0067546
0.00674147
0.00672803
0.00671427
0.00670021
0.00668582
0.00667112
0.00665609
0.00664073
0.00662503
0.006609
0.00659263
0.0065759
0.00655882
0.00654138
0.00652357
0.00650538
0.00648681
0.00646786
0.0064485
0.00642875
0.00640858
0.006388
0.00636699
0.00634554
0.00632365
0.00630131
0.0062785
0.00625523
0.00623148
0.00620725
0.00618252
0.00615728
0.00613153
0.00610526
0.00607845
0.0060511
0.0060232
0.00599474
0.00596571
0.00593609
0.00590588
0.00587507
0.00584365
0.0058116
0.00577892
0.00574559
0.0057116
0.00567695
0.00564161
0.00560557
0.00556883
0.00553136
0.00549316
0.0054542
0.00541448
0.00537398
0.00533267
0.00529054
0.00524758
0.00520375
0.00515905
0.00511343
0.00506689
0.00501938
0.00497089
0.00492137
0.00487079
0.00481911
0.00476629
0.00471227
0.00465702
0.00460046
0.00454253
0.00448315
0.00442224
0.0043597
0.00429541
0.00422925
0.00416105
0.00409061
0.00401771
0.00394207
0.00386344
0.00378157
0.0036961
0.00360657
0.00351241
0.00341292
0.00330717
0.00319398
0.00307174
0.00293823
0.00279036
0.00262431
0.00243534
0.00221579
0.0019539
0.00163104
0.00121699
0.00066777
7.29095e-05
0.000103112
0.000943868
0.00167973
0.00223137
0.00266518
0.00302379
0.00333104
0.00360087
0.00384168
0.00405901
0.00425704
0.00443876
0.00460644
0.00476186
0.00490641
0.00504125
0.00516732
0.00528542
0.00539623
0.00550033
0.00559824
0.00569042
0.00577725
0.00585909
0.00593627
0.00600909
0.00607779
0.00614262
0.00620381
0.00626155
0.00631603
0.00636743
0.00641591
0.0064616
0.00650466
0.00654521
0.00658337
0.00661925
0.00665295
0.00668458
0.00671423
0.00674196
0.00676786
0.00679196
0.00681429
0.00683481
0.00685358
0.00687078
0.00688654
0.00690098
0.00691419
0.00692622
0.00693713
0.00694699
0.00695584
0.00696372
0.00697068
0.00697675
0.00698198
0.00698639
0.00699002
0.00699291
0.00699507
0.00699655
0.00699736
0.00699754
0.0069971
0.00699608
0.00699449
0.00699236
0.0069897
0.00698653
0.00698288
0.00697875
0.00697417
0.00696915
0.00696371
0.00695785
0.00695159
0.00694494
0.00693792
0.00693053
0.00692277
0.00691467
0.00690623
0.00689745
0.00688833
0.0068789
0.00686914
0.00685907
0.00684869
0.006838
0.006827
0.00681569
0.00680408
0.00679217
0.00677995
0.00676743
0.0067546
0.00674147
0.00672803
0.00671427
0.00670021
0.00668582
0.00667112
0.00665609
0.00664073
0.00662503
0.006609
0.00659263
0.0065759
0.00655882
0.00654138
0.00652357
0.00650538
0.00648681
0.00646786
0.00644851
0.00642875
0.00640858
0.006388
0.00636699
0.00634554
0.00632365
0.00630131
0.0062785
0.00625523
0.00623148
0.00620725
0.00618252
0.00615728
0.00613153
0.00610526
0.00607845
0.0060511
0.0060232
0.00599474
0.00596571
0.00593609
0.00590589
0.00587507
0.00584365
0.0058116
0.00577892
0.00574559
0.0057116
0.00567695
0.00564161
0.00560557
0.00556883
0.00553136
0.00549316
0.0054542
0.00541448
0.00537398
0.00533267
0.00529054
0.00524758
0.00520376
0.00515905
0.00511343
0.00506689
0.00501938
0.00497089
0.00492137
0.00487079
0.00481911
0.00476629
0.00471227
0.00465702
0.00460046
0.00454253
0.00448315
0.00442224
0.0043597
0.00429541
0.00422925
0.00416105
0.00409061
0.00401771
0.00394207
0.00386344
0.00378157
0.0036961
0.00360657
0.00351241
0.00341292
0.00330717
0.00319398
0.00307174
0.00293823
0.00279036
0.00262431
0.00243534
0.00221579
0.0019539
0.00163104
0.00121699
0.000667785
7.29092e-05
0.000116671
0.00114315
0.0021525
0.002955
0.00360939
0.00416081
0.0046377
0.0050583
0.00543465
0.00577504
0.00608548
0.00637043
0.00663331
0.00687681
0.00710308
0.00731388
0.00751068
0.00769473
0.00786711
0.00802876
0.00818048
0.00832302
0.00845703
0.00858309
0.00870175
0.00881349
0.00891875
0.00901794
0.00911144
0.00919959
0.00928271
0.0093611
0.00943502
0.00950474
0.00957048
0.00963246
0.00969089
0.00974596
0.00979783
0.00984666
0.00989261
0.0099358
0.00997635
0.0100143
0.0100499
0.010083
0.0101137
0.0101423
0.0101689
0.0101937
0.0102166
0.0102379
0.0102576
0.0102758
0.0102926
0.010308
0.0103221
0.010335
0.0103466
0.0103571
0.0103665
0.0103749
0.0103822
0.0103885
0.0103939
0.0103983
0.0104019
0.0104046
0.0104065
0.0104076
0.010408
0.0104076
0.0104064
0.0104046
0.0104021
0.0103989
0.0103951
0.0103906
0.0103856
0.0103799
0.0103737
0.0103668
0.0103595
0.0103515
0.0103431
0.0103341
0.0103245
0.0103145
0.0103039
0.0102928
0.0102813
0.0102692
0.0102566
0.0102435
0.0102299
0.0102158
0.0102012
0.0101862
0.0101706
0.0101545
0.0101379
0.0101207
0.0101031
0.0100849
0.0100663
0.010047
0.0100273
0.0100069
0.00998607
0.00996463
0.00994262
0.00992002
0.00989683
0.00987304
0.00984864
0.00982361
0.00979795
0.00977165
0.00974469
0.00971706
0.00968875
0.00965975
0.00963004
0.00959962
0.00956847
0.00953657
0.00950391
0.00947048
0.00943626
0.00940125
0.00936542
0.00932875
0.00929125
0.00925288
0.00921363
0.00917349
0.00913244
0.00909047
0.00904755
0.00900367
0.00895881
0.00891295
0.00886608
0.00881817
0.00876921
0.00871917
0.00866803
0.00861577
0.00856236
0.00850779
0.00845203
0.00839504
0.00833681
0.0082773
0.00821649
0.00815434
0.00809081
0.00802588
0.0079595
0.00789162
0.00782221
0.00775122
0.0076786
0.00760428
0.00752821
0.00745032
0.00737054
0.00728879
0.00720497
0.007119
0.00703076
0.00694013
0.00684696
0.00675111
0.0066524
0.00655061
0.00644552
0.00633684
0.00622426
0.00610739
0.0059858
0.00585902
0.00572649
0.00558756
0.00544138
0.00528692
0.00512291
0.00494772
0.00475934
0.00455512
0.0043316
0.00408426
0.00380713
0.00349286
0.00313077
0.0027058
0.00219669
0.00157448
0.000812672
8.30596e-05
0.000116671
0.00114316
0.00215251
0.00295501
0.0036094
0.00416082
0.00463771
0.00505832
0.00543467
0.00577506
0.00608549
0.00637045
0.00663333
0.00687683
0.00710309
0.00731389
0.00751069
0.00769475
0.00786713
0.00802877
0.00818049
0.00832303
0.00845704
0.00858311
0.00870176
0.0088135
0.00891876
0.00901795
0.00911145
0.0091996
0.00928272
0.0093611
0.00943503
0.00950474
0.00957048
0.00963247
0.0096909
0.00974596
0.00979783
0.00984667
0.00989261
0.0099358
0.00997635
0.0100144
0.0100499
0.010083
0.0101137
0.0101423
0.0101689
0.0101937
0.0102166
0.0102379
0.0102576
0.0102758
0.0102926
0.010308
0.0103221
0.010335
0.0103466
0.0103571
0.0103665
0.0103749
0.0103822
0.0103885
0.0103939
0.0103983
0.0104019
0.0104046
0.0104065
0.0104076
0.010408
0.0104076
0.0104064
0.0104046
0.0104021
0.0103989
0.0103951
0.0103906
0.0103856
0.0103799
0.0103737
0.0103668
0.0103595
0.0103515
0.0103431
0.0103341
0.0103245
0.0103145
0.0103039
0.0102928
0.0102813
0.0102692
0.0102566
0.0102435
0.0102299
0.0102158
0.0102012
0.0101862
0.0101706
0.0101545
0.0101379
0.0101207
0.0101031
0.0100849
0.0100663
0.010047
0.0100273
0.0100069
0.00998607
0.00996463
0.00994262
0.00992002
0.00989683
0.00987304
0.00984864
0.00982361
0.00979795
0.00977165
0.00974469
0.00971706
0.00968875
0.00965975
0.00963004
0.00959962
0.00956847
0.00953657
0.00950391
0.00947048
0.00943626
0.00940125
0.00936542
0.00932875
0.00929124
0.00925288
0.00921363
0.00917349
0.00913244
0.00909047
0.00904755
0.00900367
0.00895881
0.00891295
0.00886608
0.00881817
0.00876921
0.00871916
0.00866803
0.00861576
0.00856236
0.00850779
0.00845202
0.00839504
0.00833681
0.0082773
0.00821649
0.00815434
0.00809081
0.00802588
0.00795949
0.00789162
0.00782221
0.00775122
0.00767859
0.00760428
0.00752821
0.00745032
0.00737054
0.00728879
0.00720497
0.007119
0.00703076
0.00694012
0.00684696
0.00675111
0.0066524
0.00655061
0.00644552
0.00633684
0.00622426
0.00610738
0.0059858
0.00585901
0.00572649
0.00558756
0.00544137
0.00528692
0.00512291
0.00494772
0.00475934
0.00455511
0.0043316
0.00408426
0.00380713
0.00349286
0.00313077
0.0027058
0.00219669
0.00157448
0.000812674
8.30594e-05
0.000127718
0.00127838
0.00249155
0.00349738
0.00433841
0.00505764
0.00568528
0.00624201
0.00674217
0.00719598
0.00761089
0.00799253
0.00834522
0.00867238
0.00897675
0.0092606
0.00952582
0.00977401
0.0100066
0.0102247
0.0104295
0.0106219
0.0108029
0.010973
0.0111332
0.011284
0.0114261
0.0115599
0.0116861
0.0118051
0.0119173
0.0120232
0.0121231
0.0122174
0.0123064
0.0123904
0.0124697
0.0125446
0.0126153
0.012682
0.0127449
0.0128043
0.0128603
0.012913
0.0129626
0.0130092
0.0130528
0.0130938
0.0131323
0.0131683
0.0132021
0.0132338
0.0132635
0.0132912
0.0133172
0.0133413
0.0133639
0.0133848
0.0134042
0.0134222
0.0134387
0.0134539
0.0134678
0.0134805
0.0134919
0.0135022
0.0135114
0.0135194
0.0135264
0.0135324
0.0135374
0.0135414
0.0135445
0.0135466
0.0135479
0.0135483
0.0135479
0.0135466
0.0135445
0.0135417
0.013538
0.0135336
0.0135284
0.0135225
0.0135159
0.0135085
0.0135004
0.0134916
0.0134821
0.0134719
0.013461
0.0134494
0.0134372
0.0134242
0.0134105
0.0133962
0.0133811
0.0133653
0.0133489
0.0133317
0.0133139
0.0132953
0.0132759
0.0132559
0.0132351
0.0132136
0.0131913
0.0131682
0.0131443
0.0131197
0.0130943
0.013068
0.0130409
0.013013
0.0129842
0.0129546
0.012924
0.0128926
0.0128603
0.012827
0.0127928
0.0127576
0.0127214
0.0126843
0.0126461
0.0126069
0.0125666
0.0125253
0.0124828
0.0124393
0.0123946
0.0123487
0.0123017
0.0122535
0.012204
0.0121533
0.0121014
0.0120481
0.0119936
0.0119376
0.0118803
0.0118217
0.0117615
0.0117
0.0116369
0.0115723
0.0115062
0.0114385
0.0113692
0.0112982
0.0112256
0.0111512
0.011075
0.010997
0.0109171
0.0108354
0.0107516
0.0106659
0.010578
0.0104881
0.0103959
0.0103014
0.0102045
0.0101052
0.0100034
0.0098989
0.00979166
0.00968154
0.0095684
0.00945211
0.00933249
0.00920936
0.00908251
0.00895171
0.00881669
0.00867714
0.00853272
0.00838303
0.00822759
0.00806587
0.00789725
0.00772102
0.00753632
0.00734217
0.00713733
0.00692034
0.00668935
0.00644213
0.00617585
0.00588697
0.00557102
0.00522234
0.00483359
0.00439554
0.00389623
0.0033197
0.00264545
0.0018497
0.000923042
9.11343e-05
0.000127718
0.00127838
0.00249156
0.0034974
0.00433843
0.00505766
0.0056853
0.00624203
0.00674219
0.007196
0.00761091
0.00799255
0.00834524
0.0086724
0.00897677
0.00926062
0.00952584
0.00977403
0.0100066
0.0102247
0.0104295
0.010622
0.0108029
0.010973
0.0111332
0.011284
0.0114261
0.0115599
0.0116861
0.0118051
0.0119173
0.0120232
0.0121231
0.0122174
0.0123064
0.0123904
0.0124697
0.0125446
0.0126153
0.012682
0.0127449
0.0128043
0.0128603
0.012913
0.0129626
0.0130092
0.0130528
0.0130938
0.0131323
0.0131683
0.0132021
0.0132338
0.0132635
0.0132912
0.0133172
0.0133413
0.0133639
0.0133848
0.0134042
0.0134222
0.0134387
0.0134539
0.0134678
0.0134805
0.0134919
0.0135022
0.0135114
0.0135194
0.0135264
0.0135324
0.0135374
0.0135414
0.0135445
0.0135466
0.0135479
0.0135483
0.0135479
0.0135466
0.0135445
0.0135417
0.013538
0.0135336
0.0135284
0.0135225
0.0135159
0.0135085
0.0135004
0.0134916
0.0134821
0.0134719
0.013461
0.0134494
0.0134372
0.0134242
0.0134105
0.0133962
0.0133811
0.0133653
0.0133489
0.0133317
0.0133139
0.0132953
0.0132759
0.0132559
0.0132351
0.0132136
0.0131913
0.0131682
0.0131443
0.0131197
0.0130943
0.013068
0.0130409
0.013013
0.0129842
0.0129546
0.012924
0.0128926
0.0128603
0.012827
0.0127928
0.0127576
0.0127214
0.0126843
0.0126461
0.0126069
0.0125666
0.0125253
0.0124828
0.0124393
0.0123946
0.0123487
0.0123017
0.0122535
0.012204
0.0121533
0.0121014
0.0120481
0.0119936
0.0119376
0.0118803
0.0118217
0.0117615
0.0117
0.0116369
0.0115723
0.0115062
0.0114385
0.0113692
0.0112982
0.0112256
0.0111512
0.011075
0.010997
0.0109171
0.0108354
0.0107516
0.0106659
0.010578
0.0104881
0.0103959
0.0103014
0.0102045
0.0101052
0.0100034
0.0098989
0.00979165
0.00968153
0.0095684
0.00945211
0.00933249
0.00920936
0.00908251
0.00895171
0.00881668
0.00867714
0.00853272
0.00838303
0.00822759
0.00806587
0.00789725
0.00772101
0.00753632
0.00734216
0.00713733
0.00692033
0.00668935
0.00644212
0.00617585
0.00588697
0.00557102
0.00522233
0.00483359
0.00439554
0.00389623
0.0033197
0.00264545
0.0018497
0.000923041
9.11342e-05
0.000137056
0.00138512
0.00275413
0.00392341
0.00491934
0.00578115
0.00653917
0.00721531
0.00782533
0.00838072
0.00889002
0.00935972
0.00979485
0.0101994
0.0105765
0.0109289
0.0112587
0.0115678
0.011858
0.0121305
0.0123866
0.0126276
0.0128544
0.013068
0.0132691
0.0134587
0.0136374
0.013806
0.013965
0.014115
0.0142566
0.0143904
0.0145167
0.014636
0.0147487
0.0148553
0.0149561
0.0150514
0.0151415
0.0152267
0.0153073
0.0153835
0.0154556
0.0155237
0.015588
0.0156487
0.015706
0.0157601
0.0158111
0.0158592
0.0159046
0.0159474
0.0159878
0.0160259
0.0160618
0.0160956
0.0161274
0.0161573
0.0161853
0.0162116
0.0162362
0.0162592
0.0162806
0.0163005
0.016319
0.016336
0.0163517
0.0163661
0.0163792
0.0163911
0.0164018
0.0164113
0.0164196
0.0164269
0.0164331
0.0164382
0.0164423
0.0164453
0.0164474
0.0164485
0.0164486
0.0164478
0.0164461
0.0164434
0.0164398
0.0164353
0.0164299
0.0164237
0.0164165
0.0164085
0.0163995
0.0163897
0.0163791
0.0163675
0.0163551
0.0163418
0.0163276
0.0163125
0.0162965
0.0162796
0.0162618
0.0162431
0.0162235
0.0162029
0.0161813
0.0161589
0.0161354
0.0161109
0.0160855
0.016059
0.0160315
0.016003
0.0159734
0.0159427
0.015911
0.0158781
0.0158441
0.0158089
0.0157726
0.015735
0.0156963
0.0156563
0.0156151
0.0155726
0.0155287
0.0154836
0.0154371
0.0153892
0.0153399
0.0152892
0.015237
0.0151833
0.0151282
0.0150714
0.0150132
0.0149533
0.0148917
0.0148285
0.0147636
0.014697
0.0146286
0.0145583
0.0144863
0.0144123
0.0143365
0.0142586
0.0141788
0.0140969
0.0140128
0.0139267
0.0138383
0.0137477
0.0136547
0.0135594
0.0134616
0.0133613
0.0132585
0.0131529
0.0130447
0.0129336
0.0128196
0.0127026
0.0125824
0.012459
0.0123323
0.012202
0.0120681
0.0119304
0.0117886
0.0116427
0.0114923
0.0113373
0.0111773
0.011012
0.0108411
0.0106641
0.0104807
0.0102902
0.0100921
0.00988565
0.00967002
0.00944427
0.00920729
0.00895776
0.00869409
0.00841438
0.00811631
0.00779709
0.00745326
0.00708057
0.00667378
0.00622636
0.00573013
0.00517497
0.00454851
0.00383517
0.00301657
0.00207456
0.00101361
9.79463e-05
0.000137056
0.00138512
0.00275414
0.00392343
0.00491935
0.00578117
0.0065392
0.00721533
0.00782535
0.00838074
0.00889005
0.00935975
0.00979487
0.0101994
0.0105765
0.0109289
0.0112587
0.0115679
0.011858
0.0121305
0.0123867
0.0126276
0.0128544
0.013068
0.0132692
0.0134587
0.0136374
0.013806
0.013965
0.014115
0.0142566
0.0143904
0.0145167
0.014636
0.0147488
0.0148553
0.0149561
0.0150514
0.0151415
0.0152267
0.0153073
0.0153835
0.0154556
0.0155237
0.015588
0.0156487
0.015706
0.0157601
0.0158111
0.0158592
0.0159046
0.0159474
0.0159878
0.0160259
0.0160618
0.0160956
0.0161274
0.0161573
0.0161853
0.0162116
0.0162362
0.0162592
0.0162806
0.0163005
0.016319
0.016336
0.0163517
0.0163661
0.0163792
0.0163911
0.0164018
0.0164113
0.0164196
0.0164269
0.0164331
0.0164382
0.0164423
0.0164453
0.0164474
0.0164485
0.0164486
0.0164478
0.0164461
0.0164434
0.0164398
0.0164353
0.0164299
0.0164237
0.0164165
0.0164085
0.0163995
0.0163897
0.0163791
0.0163675
0.0163551
0.0163418
0.0163276
0.0163125
0.0162965
0.0162796
0.0162618
0.0162431
0.0162235
0.0162029
0.0161813
0.0161589
0.0161354
0.0161109
0.0160855
0.016059
0.0160315
0.016003
0.0159734
0.0159427
0.015911
0.0158781
0.0158441
0.0158089
0.0157726
0.015735
0.0156963
0.0156563
0.0156151
0.0155726
0.0155287
0.0154836
0.0154371
0.0153892
0.0153399
0.0152892
0.015237
0.0151833
0.0151282
0.0150714
0.0150131
0.0149533
0.0148917
0.0148285
0.0147636
0.014697
0.0146286
0.0145583
0.0144863
0.0144123
0.0143365
0.0142586
0.0141788
0.0140969
0.0140128
0.0139267
0.0138383
0.0137477
0.0136547
0.0135594
0.0134616
0.0133613
0.0132585
0.0131529
0.0130447
0.0129336
0.0128196
0.0127026
0.0125824
0.012459
0.0123323
0.012202
0.0120681
0.0119304
0.0117886
0.0116427
0.0114923
0.0113373
0.0111773
0.011012
0.0108411
0.0106641
0.0104807
0.0102902
0.0100921
0.00988565
0.00967002
0.00944427
0.00920729
0.00895776
0.00869409
0.00841437
0.00811631
0.00779709
0.00745325
0.00708057
0.00667378
0.00622636
0.00573013
0.00517497
0.00454851
0.00383517
0.00301657
0.00207456
0.00101361
9.79463e-05
0.000145309
0.0014763
0.00297044
0.00427272
0.00539725
0.00637957
0.0072494
0.00802915
0.00873546
0.00938068
0.00997413
0.0105229
0.0110326
0.0115077
0.0119515
0.0123672
0.0127571
0.0131234
0.0134677
0.0137918
0.014097
0.0143845
0.0146556
0.0149113
0.0151524
0.01538
0.0155948
0.0157977
0.0159892
0.0161702
0.0163413
0.016503
0.0166559
0.0168005
0.0169374
0.0170669
0.0171895
0.0173057
0.0174157
0.0175199
0.0176186
0.0177122
0.0178008
0.0178849
0.0179645
0.0180399
0.0181113
0.018179
0.018243
0.0183038
0.0183613
0.0184159
0.0184676
0.0185166
0.018563
0.018607
0.0186486
0.018688
0.0187253
0.0187605
0.0187937
0.0188251
0.0188546
0.0188824
0.0189085
0.018933
0.0189559
0.0189772
0.0189971
0.0190156
0.0190326
0.0190483
0.0190627
0.0190757
0.0190875
0.0190981
0.0191074
0.0191156
0.0191226
0.0191284
0.0191331
0.0191367
0.0191392
0.0191406
0.0191409
0.0191401
0.0191383
0.0191354
0.0191314
0.0191264
0.0191204
0.0191133
0.0191051
0.0190959
0.0190856
0.0190743
0.0190619
0.0190484
0.0190338
0.0190182
0.0190014
0.0189836
0.0189646
0.0189444
0.0189231
0.0189007
0.0188771
0.0188522
0.0188262
0.0187989
0.0187704
0.0187406
0.0187095
0.0186771
0.0186434
0.0186083
0.0185719
0.018534
0.0184947
0.018454
0.0184118
0.018368
0.0183228
0.018276
0.0182275
0.0181775
0.0181258
0.0180725
0.0180174
0.0179606
0.0179019
0.0178415
0.0177792
0.0177151
0.017649
0.0175809
0.0175109
0.0174388
0.0173646
0.0172883
0.0172098
0.0171291
0.0170461
0.0169608
0.0168731
0.0167831
0.0166905
0.0165954
0.0164977
0.0163973
0.0162942
0.0161883
0.0160795
0.0159678
0.0158531
0.0157352
0.0156142
0.0154898
0.015362
0.0152307
0.0150958
0.0149572
0.0148146
0.014668
0.0145172
0.014362
0.0142022
0.0140377
0.0138681
0.0136933
0.013513
0.0133268
0.0131344
0.0129354
0.0127293
0.0125157
0.012294
0.0120634
0.0118233
0.0115728
0.0113109
0.0110364
0.0107479
0.0104438
0.0101223
0.00978095
0.00941715
0.00902758
0.00860829
0.00815451
0.00766041
0.00711893
0.00652148
0.00585763
0.00511494
0.00427885
0.0033335
0.00226584
0.00109125
0.000103903
0.000145309
0.0014763
0.00297045
0.00427274
0.00539727
0.00637959
0.00724942
0.00802917
0.00873548
0.00938071
0.00997416
0.010523
0.0110327
0.0115077
0.0119516
0.0123672
0.0127572
0.0131234
0.0134678
0.0137918
0.014097
0.0143846
0.0146556
0.0149113
0.0151524
0.01538
0.0155948
0.0157977
0.0159893
0.0161703
0.0163413
0.016503
0.0166559
0.0168006
0.0169374
0.0170669
0.0171896
0.0173057
0.0174157
0.0175199
0.0176186
0.0177122
0.0178008
0.0178849
0.0179645
0.0180399
0.0181113
0.018179
0.0182431
0.0183038
0.0183614
0.0184159
0.0184676
0.0185166
0.018563
0.018607
0.0186486
0.018688
0.0187253
0.0187605
0.0187937
0.0188251
0.0188546
0.0188824
0.0189085
0.018933
0.0189559
0.0189772
0.0189971
0.0190156
0.0190326
0.0190483
0.0190627
0.0190757
0.0190875
0.0190981
0.0191074
0.0191156
0.0191226
0.0191284
0.0191331
0.0191367
0.0191392
0.0191406
0.0191409
0.0191401
0.0191383
0.0191354
0.0191314
0.0191264
0.0191204
0.0191133
0.0191051
0.0190959
0.0190856
0.0190743
0.0190619
0.0190484
0.0190338
0.0190182
0.0190014
0.0189836
0.0189646
0.0189444
0.0189231
0.0189007
0.0188771
0.0188522
0.0188262
0.0187989
0.0187704
0.0187406
0.0187095
0.0186771
0.0186434
0.0186083
0.0185719
0.018534
0.0184947
0.018454
0.0184118
0.018368
0.0183228
0.0182759
0.0182275
0.0181775
0.0181258
0.0180725
0.0180174
0.0179606
0.0179019
0.0178415
0.0177792
0.0177151
0.017649
0.0175809
0.0175109
0.0174388
0.0173646
0.0172883
0.0172098
0.0171291
0.0170461
0.0169608
0.0168731
0.0167831
0.0166905
0.0165954