/*--------------------------------*- C++ -*----------------------------------*\
  =========                 |
  \\      /  F ield         | OpenFOAM: The Open Source CFD Toolbox
   \\    /   O peration     | Website:  https://openfoam.org
    \\  /    A nd           | Version:  8
     \\/     M anipulation  |
\*---------------------------------------------------------------------------*/
FoamFile
{
    version     2.0;
    format      ascii;
    class       volScalarField;
    location    "1900";
    object      k;
}
// * * * * * * * * * * * * * * * * * * * * * * * * * * * * * * * * * * * * * //

dimensions      [0 2 -2 0 0 0 0];

internalField   nonuniform List<scalar> 
48000
(
0.0205455
0.0366403
0.0564521
0.0741363
0.0903228
0.105049
0.118772
0.132032
0.144604
0.156732
0.168482
0.179906
0.191046
0.201931
0.212585
0.223023
0.233257
0.243292
0.253134
0.262783
0.272239
0.2815
0.290563
0.299425
0.308081
0.316528
0.324761
0.332776
0.340569
0.348135
0.355473
0.362579
0.36945
0.376086
0.382483
0.388643
0.394564
0.400247
0.405692
0.410901
0.415875
0.420616
0.425128
0.429412
0.433472
0.437311
0.440933
0.444341
0.447538
0.450528
0.453342
0.455973
0.458416
0.460673
0.462748
0.464646
0.466373
0.467934
0.469333
0.470577
0.471669
0.472615
0.473419
0.474086
0.474621
0.475028
0.475311
0.475475
0.475524
0.475461
0.475291
0.475017
0.474643
0.474172
0.473608
0.472954
0.472212
0.471386
0.470479
0.469493
0.46843
0.467294
0.466087
0.46481
0.463466
0.462057
0.460585
0.459051
0.457458
0.455806
0.454098
0.452334
0.450517
0.448646
0.446725
0.444752
0.442731
0.440661
0.438543
0.436378
0.434167
0.431911
0.42961
0.427265
0.424876
0.422444
0.419968
0.41745
0.41489
0.412288
0.409645
0.406959
0.404233
0.401465
0.398656
0.395805
0.392914
0.389981
0.387008
0.383993
0.380937
0.377841
0.374702
0.371523
0.368302
0.365039
0.361735
0.35839
0.355003
0.351574
0.348103
0.344591
0.341036
0.33744
0.333803
0.330123
0.326402
0.32264
0.318836
0.314991
0.311106
0.30718
0.303213
0.299207
0.295161
0.291077
0.286953
0.282792
0.278594
0.274359
0.270088
0.265782
0.261442
0.257068
0.252661
0.248223
0.243755
0.239256
0.23473
0.230176
0.225596
0.220991
0.216361
0.21171
0.207036
0.202343
0.19763
0.192899
0.188151
0.183386
0.178607
0.173813
0.169005
0.164183
0.159348
0.1545
0.149639
0.144763
0.139872
0.134965
0.130039
0.125092
0.120123
0.115133
0.110134
0.105137
0.100083
0.0949528
0.0897322
0.0843962
0.0789168
0.0732543
0.0673591
0.0612324
0.0547599
0.047765
0.040054
0.0317198
0.0284035
0.0188061
0.0205456
0.0366441
0.0564536
0.0741379
0.0903246
0.105051
0.118774
0.132034
0.144606
0.156734
0.168484
0.179908
0.191048
0.201933
0.212587
0.223025
0.233258
0.243294
0.253135
0.262784
0.27224
0.281501
0.290564
0.299426
0.308083
0.316529
0.324762
0.332777
0.34057
0.348136
0.355474
0.36258
0.369451
0.376086
0.382484
0.388643
0.394564
0.400247
0.405692
0.410901
0.415875
0.420617
0.425128
0.429412
0.433472
0.437311
0.440933
0.444341
0.447538
0.450528
0.453342
0.455973
0.458416
0.460673
0.462748
0.464646
0.466373
0.467934
0.469333
0.470577
0.471669
0.472614
0.473418
0.474086
0.47462
0.475027
0.475311
0.475475
0.475523
0.475461
0.475291
0.475017
0.474643
0.474172
0.473608
0.472953
0.472212
0.471386
0.470478
0.469492
0.46843
0.467294
0.466087
0.46481
0.463466
0.462057
0.460585
0.459051
0.457457
0.455806
0.454097
0.452334
0.450516
0.448646
0.446724
0.444752
0.44273
0.44066
0.438542
0.436378
0.434167
0.431911
0.42961
0.427265
0.424875
0.422443
0.419968
0.41745
0.41489
0.412288
0.409644
0.406959
0.404232
0.401464
0.398655
0.395805
0.392914
0.389981
0.387008
0.383993
0.380937
0.37784
0.374702
0.371522
0.368302
0.365039
0.361735
0.35839
0.355002
0.351573
0.348103
0.34459
0.341036
0.33744
0.333802
0.330123
0.326402
0.322639
0.318836
0.314991
0.311105
0.307179
0.303213
0.299207
0.295161
0.291076
0.286953
0.282792
0.278594
0.274359
0.270088
0.265782
0.261441
0.257068
0.252661
0.248223
0.243754
0.239256
0.23473
0.230176
0.225596
0.22099
0.216361
0.21171
0.207036
0.202343
0.19763
0.192899
0.188151
0.183386
0.178607
0.173813
0.169004
0.164183
0.159348
0.1545
0.149639
0.144763
0.139872
0.134965
0.130039
0.125092
0.120123
0.115133
0.110134
0.105137
0.100083
0.0949529
0.0897322
0.0843962
0.0789168
0.0732543
0.0673591
0.0612324
0.0547598
0.0477645
0.040052
0.0317151
0.0283987
0.0187867
0.0371009
0.0936777
0.133997
0.169556
0.202221
0.232693
0.261532
0.289136
0.315726
0.341488
0.366554
0.391022
0.414966
0.438438
0.461475
0.484102
0.506335
0.528181
0.549643
0.570717
0.591399
0.611679
0.631548
0.650994
0.670006
0.688572
0.706679
0.724318
0.741476
0.758146
0.774317
0.789983
0.805137
0.819775
0.833893
0.847487
0.860558
0.873105
0.885129
0.896632
0.907618
0.918091
0.928055
0.937518
0.946485
0.954964
0.962963
0.970489
0.97755
0.984154
0.990308
0.996037
1.00135
1.00625
1.01076
1.01488
1.01862
1.022
1.02502
1.0277
1.03005
1.03208
1.03379
1.03521
1.03633
1.03718
1.03775
1.03806
1.03812
1.03793
1.0375
1.03685
1.03598
1.0349
1.03361
1.03213
1.03045
1.02859
1.02655
1.02434
1.02196
1.01942
1.01672
1.01387
1.01088
1.00774
1.00447
1.00106
0.997523
0.993858
0.99007
0.986161
0.982136
0.977995
0.973743
0.969381
0.964912
0.960338
0.955661
0.950882
0.946003
0.941026
0.935953
0.930783
0.925519
0.920161
0.914711
0.909169
0.903536
0.897813
0.892
0.886097
0.880105
0.874024
0.867855
0.861598
0.855252
0.848818
0.842296
0.835686
0.828987
0.8222
0.815325
0.808362
0.80131
0.794169
0.78694
0.779621
0.772214
0.764718
0.757133
0.749458
0.741695
0.733843
0.725902
0.717872
0.709754
0.701549
0.693255
0.684875
0.676409
0.667856
0.659219
0.650498
0.641694
0.632807
0.62384
0.614794
0.605669
0.596468
0.587192
0.577843
0.568422
0.558933
0.549376
0.539754
0.53007
0.520325
0.510522
0.500664
0.490753
0.480792
0.470783
0.46073
0.450634
0.440498
0.430325
0.420117
0.409877
0.399606
0.389307
0.378981
0.368629
0.358252
0.347852
0.337427
0.326976
0.3165
0.305994
0.295456
0.284881
0.274263
0.263595
0.252868
0.242071
0.231186
0.220182
0.209035
0.197726
0.186206
0.174424
0.162311
0.14977
0.136666
0.122871
0.108142
0.0921096
0.0741082
0.0524751
0.0264202
0.0371049
0.0936803
0.133999
0.169558
0.202223
0.232695
0.261533
0.289137
0.315727
0.341489
0.366555
0.391023
0.414967
0.438439
0.461476
0.484103
0.506336
0.528182
0.549643
0.570718
0.591399
0.611679
0.631548
0.650994
0.670006
0.688572
0.706679
0.724318
0.741476
0.758145
0.774317
0.789983
0.805137
0.819775
0.833892
0.847487
0.860557
0.873104
0.885128
0.896631
0.907617
0.91809
0.928054
0.937517
0.946484
0.954963
0.962961
0.970487
0.977548
0.984152
0.990306
0.996036
1.00135
1.00625
1.01076
1.01488
1.01862
1.022
1.02502
1.0277
1.03005
1.03208
1.03379
1.03521
1.03633
1.03718
1.03775
1.03806
1.03811
1.03793
1.0375
1.03685
1.03598
1.0349
1.03361
1.03212
1.03045
1.02859
1.02655
1.02433
1.02195
1.01941
1.01672
1.01387
1.01088
1.00774
1.00447
1.00106
0.997521
0.993856
0.990068
0.98616
0.982134
0.977994
0.973741
0.96938
0.964911
0.960336
0.955659
0.95088
0.946002
0.941025
0.935951
0.930781
0.925517
0.92016
0.91471
0.909168
0.903535
0.897811
0.891998
0.886095
0.880103
0.874023
0.867854
0.861596
0.85525
0.848816
0.842294
0.835684
0.828986
0.822199
0.815324
0.80836
0.801308
0.794168
0.786938
0.77962
0.772213
0.764716
0.757131
0.749457
0.741693
0.733841
0.7259
0.717871
0.709753
0.701547
0.693254
0.684874
0.676407
0.667855
0.659218
0.650497
0.641692
0.632806
0.623839
0.614792
0.605668
0.596467
0.587191
0.577842
0.568421
0.558932
0.549375
0.539753
0.530069
0.520324
0.510521
0.500663
0.490752
0.480791
0.470782
0.460729
0.450633
0.440497
0.430324
0.420117
0.409876
0.399605
0.389306
0.37898
0.368628
0.358252
0.347851
0.337426
0.326976
0.316499
0.305993
0.295455
0.28488
0.274262
0.263594
0.252867
0.24207
0.231186
0.220182
0.209035
0.197726
0.186206
0.174424
0.16231
0.14977
0.136666
0.122871
0.108142
0.0921096
0.074107
0.0524679
0.0264131
0.0557427
0.133747
0.184324
0.227336
0.266962
0.304376
0.340128
0.374554
0.407877
0.440265
0.471848
0.502726
0.532972
0.562643
0.591779
0.620407
0.648544
0.676197
0.703368
0.730054
0.756247
0.781934
0.807105
0.831743
0.855835
0.879364
0.902316
0.924676
0.946431
0.967568
0.988076
1.00795
1.02717
1.04574
1.06365
1.0809
1.09749
1.11342
1.12868
1.14328
1.15723
1.17052
1.18318
1.19519
1.20657
1.21734
1.2275
1.23705
1.24602
1.25441
1.26223
1.26951
1.27625
1.28248
1.2882
1.29342
1.29817
1.30244
1.30627
1.30966
1.31263
1.31519
1.31734
1.31912
1.32052
1.32156
1.32226
1.32262
1.32266
1.32238
1.32181
1.32094
1.31979
1.31837
1.31669
1.31476
1.31258
1.31017
1.30753
1.30467
1.3016
1.29832
1.29484
1.29117
1.28731
1.28327
1.27905
1.27467
1.27012
1.2654
1.26053
1.25551
1.25034
1.24502
1.23956
1.23396
1.22823
1.22236
1.21636
1.21023
1.20398
1.1976
1.1911
1.18447
1.17773
1.17087
1.16389
1.1568
1.14959
1.14227
1.13483
1.12729
1.11962
1.11185
1.10397
1.09597
1.08786
1.07965
1.07132
1.06288
1.05433
1.04567
1.03689
1.02801
1.01902
1.00991
1.00069
0.991366
0.981926
0.972375
0.962712
0.952938
0.943052
0.933056
0.922948
0.91273
0.902402
0.891964
0.881417
0.870761
0.859998
0.849128
0.838152
0.827072
0.815888
0.804603
0.793217
0.781732
0.770151
0.758475
0.746706
0.734847
0.7229
0.710867
0.698752
0.686557
0.674284
0.661938
0.64952
0.637035
0.624485
0.611874
0.599205
0.586482
0.573707
0.560884
0.548016
0.535107
0.522158
0.509173
0.496154
0.483103
0.470022
0.456912
0.443772
0.430605
0.417407
0.404179
0.390916
0.377614
0.36427
0.350874
0.337418
0.323891
0.310278
0.296559
0.282708
0.268695
0.254484
0.240023
0.22527
0.210147
0.194554
0.17836
0.161392
0.143407
0.123968
0.102176
0.0753745
0.03227
0.0557442
0.133749
0.184325
0.227337
0.266962
0.304377
0.340129
0.374554
0.407877
0.440265
0.471849
0.502726
0.532972
0.562643
0.591779
0.620407
0.648543
0.676197
0.703368
0.730054
0.756246
0.781934
0.807104
0.831742
0.855834
0.879363
0.902315
0.924675
0.946429
0.967567
0.988075
1.00795
1.02717
1.04574
1.06365
1.0809
1.09749
1.11341
1.12868
1.14328
1.15723
1.17052
1.18317
1.19519
1.20657
1.21734
1.22749
1.23705
1.24602
1.25441
1.26223
1.26951
1.27625
1.28248
1.28819
1.29342
1.29816
1.30244
1.30627
1.30966
1.31263
1.31518
1.31734
1.31912
1.32052
1.32156
1.32226
1.32262
1.32266
1.32238
1.32181
1.32094
1.31979
1.31837
1.31669
1.31476
1.31258
1.31017
1.30753
1.30467
1.30159
1.29831
1.29484
1.29116
1.28731
1.28327
1.27905
1.27467
1.27011
1.2654
1.26053
1.25551
1.25034
1.24502
1.23956
1.23396
1.22823
1.22236
1.21636
1.21023
1.20398
1.1976
1.19109
1.18447
1.17773
1.17087
1.16389
1.1568
1.14959
1.14227
1.13483
1.12728
1.11962
1.11185
1.10396
1.09597
1.08786
1.07964
1.07132
1.06288
1.05433
1.04566
1.03689
1.02801
1.01901
1.00991
1.00069
0.991364
0.981924
0.972373
0.96271
0.952936
0.943051
0.933054
0.922947
0.912729
0.9024
0.891962
0.881415
0.87076
0.859996
0.849126
0.83815
0.82707
0.815886
0.804601
0.793215
0.781731
0.770149
0.758473
0.746705
0.734846
0.722899
0.710866
0.698751
0.686555
0.674283
0.661936
0.649519
0.637034
0.624484
0.611873
0.599204
0.586481
0.573706
0.560883
0.548015
0.535106
0.522157
0.509172
0.496153
0.483102
0.470021
0.456911
0.443771
0.430604
0.417406
0.404178
0.390915
0.377614
0.364269
0.350873
0.337417
0.32389
0.310277
0.296559
0.282707
0.268694
0.254483
0.240022
0.22527
0.210147
0.194554
0.17836
0.161392
0.143407
0.123969
0.102178
0.0753753
0.0322755
0.0719111
0.167605
0.226474
0.275228
0.319811
0.361951
0.402346
0.441361
0.47922
0.516082
0.552068
0.58727
0.621762
0.655598
0.68882
0.721457
0.753526
0.785037
0.815994
0.846392
0.876224
0.905478
0.934142
0.9622
0.989635
1.01643
1.04257
1.06804
1.09282
1.11691
1.14028
1.16292
1.18484
1.20601
1.22644
1.24612
1.26504
1.28321
1.30063
1.3173
1.33323
1.34842
1.36287
1.3766
1.38961
1.40192
1.41353
1.42446
1.43472
1.44432
1.45328
1.46162
1.46934
1.47647
1.48302
1.48901
1.49445
1.49935
1.50374
1.50762
1.51102
1.51395
1.51642
1.51845
1.52005
1.52124
1.52203
1.52244
1.52247
1.52215
1.52147
1.52047
1.51914
1.51749
1.51555
1.51331
1.51079
1.50801
1.50495
1.50165
1.4981
1.49431
1.49029
1.48605
1.4816
1.47694
1.47207
1.46701
1.46175
1.45631
1.45069
1.44489
1.43892
1.43279
1.42649
1.42003
1.41341
1.40664
1.39972
1.39265
1.38543
1.37808
1.37058
1.36294
1.35516
1.34725
1.33921
1.33103
1.32272
1.31428
1.30571
1.29701
1.28818
1.27922
1.27014
1.26093
1.25159
1.24212
1.23253
1.22281
1.21296
1.20299
1.19289
1.18267
1.17232
1.16184
1.15123
1.1405
1.12964
1.11866
1.10755
1.09631
1.08494
1.07345
1.06183
1.05009
1.03822
1.02623
1.01412
1.00188
0.989518
0.977037
0.964436
0.951717
0.938882
0.925931
0.912867
0.899692
0.886408
0.873018
0.859523
0.845926
0.832231
0.818439
0.804554
0.79058
0.77652
0.762376
0.748153
0.733854
0.719484
0.705044
0.690541
0.675976
0.661355
0.64668
0.631955
0.617183
0.602369
0.587514
0.572622
0.557694
0.542733
0.52774
0.512715
0.49766
0.482572
0.46745
0.452291
0.437092
0.421845
0.406545
0.391181
0.375742
0.360212
0.344571
0.328794
0.312853
0.296711
0.280322
0.263631
0.246563
0.229023
0.210884
0.191949
0.171947
0.150347
0.12597
0.095176
0.0420999
0.0719128
0.167607
0.226476
0.275229
0.319811
0.361951
0.402346
0.441361
0.47922
0.516082
0.552067
0.587269
0.621761
0.655598
0.68882
0.721456
0.753525
0.785037
0.815993
0.846391
0.876223
0.905477
0.934141
0.962199
0.989634
1.01643
1.04257
1.06804
1.09282
1.11691
1.14028
1.16292
1.18484
1.20601
1.22644
1.24612
1.26504
1.28321
1.30063
1.3173
1.33323
1.34841
1.36287
1.37659
1.38961
1.40192
1.41353
1.42446
1.43472
1.44432
1.45328
1.46161
1.46934
1.47647
1.48302
1.48901
1.49444
1.49935
1.50373
1.50762
1.51102
1.51395
1.51642
1.51845
1.52005
1.52124
1.52203
1.52244
1.52247
1.52214
1.52147
1.52046
1.51913
1.51749
1.51554
1.51331
1.51079
1.508
1.50495
1.50165
1.4981
1.49431
1.49029
1.48605
1.4816
1.47693
1.47207
1.467
1.46175
1.45631
1.45069
1.44489
1.43892
1.43279
1.42649
1.42003
1.41341
1.40664
1.39972
1.39265
1.38543
1.37807
1.37058
1.36294
1.35516
1.34725
1.33921
1.33103
1.32272
1.31428
1.30571
1.29701
1.28818
1.27922
1.27014
1.26092
1.25158
1.24212
1.23253
1.22281
1.21296
1.20299
1.19289
1.18267
1.17232
1.16184
1.15123
1.1405
1.12964
1.11866
1.10755
1.09631
1.08494
1.07345
1.06183
1.05009
1.03822
1.02623
1.01412
1.00188
0.989516
0.977035
0.964434
0.951716
0.93888
0.92593
0.912866
0.899691
0.886407
0.873016
0.859521
0.845925
0.832229
0.818438
0.804553
0.790579
0.776518
0.762375
0.748152
0.733853
0.719482
0.705043
0.69054
0.675975
0.661353
0.646678
0.631954
0.617182
0.602368
0.587513
0.572621
0.557693
0.542732
0.527739
0.512715
0.497659
0.482571
0.467449
0.45229
0.437091
0.421845
0.406544
0.391181
0.375741
0.360211
0.34457
0.328794
0.312853
0.296711
0.280322
0.263631
0.246563
0.229023
0.210883
0.191949
0.171947
0.150348
0.12597
0.0951752
0.0421008
0.0863083
0.198562
0.265191
0.319248
0.36819
0.414291
0.458461
0.501141
0.542582
0.582949
0.622361
0.660909
0.698665
0.735685
0.772012
0.807677
0.842701
0.877097
0.91087
0.94402
0.97654
1.00842
1.03965
1.07022
1.1001
1.12929
1.15776
1.1855
1.2125
1.23874
1.2642
1.28888
1.31277
1.33586
1.35813
1.3796
1.40025
1.42008
1.4391
1.4573
1.4747
1.4913
1.5071
1.52211
1.53635
1.54982
1.56253
1.57451
1.58575
1.59628
1.60611
1.61525
1.62374
1.63157
1.63877
1.64535
1.65133
1.65673
1.66156
1.66584
1.66959
1.67283
1.67556
1.6778
1.67958
1.68091
1.68179
1.68225
1.68231
1.68196
1.68124
1.68014
1.67869
1.67689
1.67476
1.67231
1.66955
1.66649
1.66314
1.65951
1.6556
1.65144
1.64702
1.64235
1.63745
1.63231
1.62695
1.62137
1.61558
1.60959
1.60339
1.597
1.59042
1.58365
1.57671
1.56958
1.56228
1.55481
1.54718
1.53938
1.53142
1.5233
1.51502
1.50659
1.49801
1.48928
1.4804
1.47137
1.4622
1.45288
1.44342
1.43382
1.42407
1.41419
1.40416
1.39399
1.38369
1.37324
1.36265
1.35193
1.34106
1.33006
1.31891
1.30763
1.29621
1.28465
1.27295
1.26111
1.24913
1.23702
1.22476
1.21237
1.19984
1.18716
1.17436
1.16141
1.14833
1.13511
1.12176
1.10827
1.09465
1.0809
1.06702
1.05301
1.03887
1.02461
1.01022
0.995712
0.981086
0.966344
0.951489
0.936523
0.92145
0.906273
0.890995
0.875619
0.86015
0.844591
0.828946
0.813218
0.797412
0.781533
0.765583
0.749567
0.733489
0.717353
0.701162
0.684921
0.668633
0.652301
0.635928
0.619516
0.603068
0.586584
0.570067
0.553515
0.536929
0.520306
0.503645
0.48694
0.470187
0.453378
0.436505
0.419554
0.402512
0.38536
0.368075
0.350628
0.332985
0.315102
0.296924
0.278378
0.259365
0.239747
0.219308
0.19771
0.174317
0.147634
0.113093
0.0507858
0.0863103
0.198564
0.265192
0.319249
0.368191
0.414291
0.458461
0.50114
0.542581
0.582948
0.62236
0.660908
0.698664
0.735685
0.772012
0.807676
0.8427
0.877096
0.910869
0.944019
0.976539
1.00842
1.03965
1.07022
1.1001
1.12929
1.15776
1.1855
1.2125
1.23874
1.2642
1.28888
1.31277
1.33585
1.35813
1.3796
1.40024
1.42008
1.4391
1.4573
1.4747
1.49129
1.5071
1.52211
1.53635
1.54982
1.56253
1.5745
1.58575
1.59628
1.60611
1.61525
1.62373
1.63157
1.63876
1.64535
1.65133
1.65673
1.66156
1.66584
1.66959
1.67282
1.67555
1.6778
1.67958
1.6809
1.68179
1.68225
1.6823
1.68196
1.68123
1.68014
1.67869
1.67689
1.67476
1.67231
1.66955
1.66649
1.66314
1.6595
1.6556
1.65144
1.64702
1.64235
1.63745
1.63231
1.62695
1.62137
1.61558
1.60959
1.60339
1.597
1.59042
1.58365
1.5767
1.56958
1.56228
1.55481
1.54717
1.53937
1.53141
1.52329
1.51502
1.50659
1.49801
1.48928
1.4804
1.47137
1.4622
1.45288
1.44342
1.43382
1.42407
1.41419
1.40416
1.39399
1.38368
1.37324
1.36265
1.35193
1.34106
1.33006
1.31891
1.30763
1.29621
1.28465
1.27295
1.26111
1.24913
1.23702
1.22476
1.21237
1.19983
1.18716
1.17436
1.16141
1.14833
1.13511
1.12176
1.10827
1.09465
1.0809
1.06702
1.05301
1.03887
1.0246
1.01022
0.995711
0.981085
0.966343
0.951488
0.936522
0.921449
0.906272
0.890994
0.875618
0.860149
0.84459
0.828945
0.813217
0.797412
0.781532
0.765582
0.749566
0.733488
0.717352
0.701161
0.68492
0.668632
0.6523
0.635927
0.619515
0.603067
0.586584
0.570066
0.553514
0.536928
0.520306
0.503644
0.48694
0.470186
0.453378
0.436504
0.419554
0.402512
0.38536
0.368075
0.350628
0.332985
0.315102
0.296924
0.278378
0.259365
0.239747
0.219308
0.19771
0.174317
0.147635
0.113093
0.0507859
0.0995979
0.227543
0.301912
0.361198
0.414315
0.464075
0.511621
0.557501
0.602012
0.645339
0.687612
0.728926
0.769355
0.808958
0.847783
0.885864
0.923228
0.959891
0.995864
1.03115
1.06575
1.09965
1.13284
1.16532
1.19707
1.22807
1.25831
1.28777
1.31644
1.34431
1.37136
1.39758
1.42296
1.4475
1.47118
1.494
1.51597
1.53707
1.55731
1.5767
1.59523
1.61292
1.62976
1.64577
1.66097
1.67535
1.68893
1.70172
1.71375
1.72502
1.73554
1.74534
1.75443
1.76283
1.77056
1.77763
1.78407
1.78988
1.79509
1.79971
1.80376
1.80726
1.81022
1.81266
1.81461
1.81606
1.81705
1.81758
1.81768
1.81734
1.8166
1.81546
1.81393
1.81204
1.80979
1.80719
1.80425
1.80099
1.79742
1.79355
1.78938
1.78493
1.7802
1.77521
1.76996
1.76446
1.75872
1.75274
1.74653
1.7401
1.73345
1.72659
1.71952
1.71225
1.70479
1.69713
1.68929
1.68126
1.67305
1.66466
1.6561
1.64736
1.63846
1.62939
1.62015
1.61076
1.6012
1.59148
1.5816
1.57157
1.56138
1.55104
1.54054
1.52989
1.51909
1.50814
1.49704
1.48578
1.47438
1.46282
1.45111
1.43926
1.42725
1.4151
1.40279
1.39033
1.37773
1.36497
1.35207
1.33902
1.32581
1.31246
1.29896
1.28531
1.27151
1.25757
1.24348
1.22924
1.21486
1.20034
1.18567
1.17087
1.15592
1.14083
1.12561
1.11026
1.09477
1.07916
1.06342
1.04755
1.03156
1.01546
0.999238
0.982907
0.966468
0.949924
0.933281
0.916541
0.899709
0.882789
0.865785
0.848701
0.831542
0.814312
0.797015
0.779654
0.762235
0.74476
0.727234
0.70966
0.692041
0.674378
0.656675
0.638934
0.621154
0.603337
0.585482
0.567588
0.549652
0.53167
0.513637
0.495547
0.477392
0.459159
0.440835
0.422402
0.40384
0.385121
0.366212
0.347069
0.327637
0.307842
0.287578
0.266692
0.244941
0.221915
0.196845
0.167932
0.129761
0.0587819
0.0996
0.227545
0.301913
0.361199
0.414315
0.464075
0.511621
0.5575
0.602011
0.645339
0.687612
0.728925
0.769354
0.808957
0.847782
0.885863
0.923227
0.95989
0.995863
1.03115
1.06574
1.09964
1.13284
1.16532
1.19707
1.22807
1.25831
1.28777
1.31644
1.34431
1.37136
1.39758
1.42296
1.4475
1.47118
1.494
1.51597
1.53707
1.55731
1.5767
1.59523
1.61292
1.62976
1.64577
1.66096
1.67534
1.68893
1.70172
1.71375
1.72501
1.73554
1.74534
1.75443
1.76283
1.77056
1.77763
1.78406
1.78988
1.79508
1.7997
1.80376
1.80725
1.81022
1.81266
1.81461
1.81606
1.81705
1.81758
1.81767
1.81734
1.8166
1.81546
1.81393
1.81204
1.80978
1.80718
1.80425
1.80099
1.79742
1.79354
1.78938
1.78493
1.7802
1.77521
1.76996
1.76446
1.75872
1.75274
1.74653
1.7401
1.73345
1.72659
1.71952
1.71225
1.70479
1.69713
1.68929
1.68126
1.67305
1.66466
1.6561
1.64736
1.63846
1.62939
1.62015
1.61075
1.6012
1.59148
1.5816
1.57157
1.56138
1.55104
1.54054
1.52989
1.51909
1.50814
1.49703
1.48578
1.47437
1.46282
1.45111
1.43926
1.42725
1.41509
1.40279
1.39033
1.37773
1.36497
1.35207
1.33902
1.32581
1.31246
1.29896
1.28531
1.27151
1.25757
1.24348
1.22924
1.21486
1.20034
1.18567
1.17087
1.15592
1.14083
1.12561
1.11026
1.09477
1.07916
1.06342
1.04755
1.03156
1.01546
0.999237
0.982906
0.966467
0.949924
0.93328
0.91654
0.899708
0.882788
0.865784
0.848701
0.831542
0.814311
0.797014
0.779654
0.762234
0.74476
0.727234
0.709659
0.69204
0.674378
0.656675
0.638933
0.621154
0.603337
0.585482
0.567587
0.549651
0.531669
0.513637
0.495547
0.477391
0.459158
0.440834
0.422402
0.40384
0.385121
0.366211
0.347069
0.327637
0.307842
0.287578
0.266692
0.244942
0.221915
0.196845
0.167932
0.129761
0.0587819
0.112687
0.255461
0.337406
0.401875
0.459095
0.512378
0.563094
0.611908
0.659178
0.705123
0.749887
0.793577
0.836276
0.878049
0.918949
0.959017
0.998286
1.03678
1.07451
1.11149
1.14772
1.1832
1.21792
1.25188
1.28506
1.31745
1.34904
1.37982
1.40977
1.43888
1.46713
1.49452
1.52104
1.54668
1.57144
1.5953
1.61827
1.64035
1.66154
1.68183
1.70124
1.71977
1.73743
1.75423
1.77017
1.78527
1.79954
1.81299
1.82564
1.8375
1.84859
1.85892
1.86851
1.87738
1.88555
1.89303
1.89984
1.90601
1.91154
1.91645
1.92077
1.92451
1.92768
1.93031
1.93241
1.934
1.9351
1.93571
1.93587
1.93557
1.93484
1.93368
1.93213
1.93018
1.92785
1.92515
1.9221
1.9187
1.91497
1.91092
1.90656
1.9019
1.89694
1.8917
1.88619
1.8804
1.87436
1.86807
1.86154
1.85476
1.84775
1.84052
1.83307
1.8254
1.81752
1.80943
1.80115
1.79266
1.78399
1.77512
1.76607
1.75683
1.74741
1.73781
1.72804
1.71809
1.70797
1.69768
1.68722
1.67659
1.6658
1.65484
1.64372
1.63243
1.62099
1.60938
1.5976
1.58567
1.57358
1.56133
1.54891
1.53634
1.52361
1.51071
1.49766
1.48445
1.47108
1.45755
1.44386
1.43001
1.41601
1.40184
1.38752
1.37304
1.3584
1.34361
1.32867
1.31356
1.29831
1.2829
1.26735
1.25164
1.23578
1.21978
1.20364
1.18736
1.17093
1.15437
1.13767
1.12085
1.10389
1.08681
1.06961
1.05229
1.03486
1.01731
0.999661
0.981908
0.964056
0.94611
0.928075
0.909954
0.891752
0.873473
0.855121
0.836702
0.818217
0.799673
0.781071
0.762416
0.74371
0.724957
0.706158
0.687315
0.668429
0.649501
0.63053
0.611516
0.592455
0.573346
0.554183
0.534959
0.515668
0.496299
0.476838
0.45727
0.437574
0.417724
0.397687
0.37742
0.356865
0.335942
0.314537
0.292476
0.269484
0.245081
0.218356
0.187246
0.145538
0.0663162
0.112689
0.255463
0.337407
0.401875
0.459095
0.512377
0.563094
0.611907
0.659178
0.705122
0.749886
0.793576
0.836275
0.878048
0.918948
0.959016
0.998285
1.03678
1.07451
1.11149
1.14772
1.1832
1.21792
1.25188
1.28506
1.31745
1.34904
1.37982
1.40977
1.43888
1.46713
1.49452
1.52104
1.54668
1.57144
1.5953
1.61827
1.64035
1.66153
1.68183
1.70124
1.71977
1.73743
1.75423
1.77017
1.78527
1.79954
1.81299
1.82564
1.8375
1.84858
1.85892
1.86851
1.87738
1.88555
1.89303
1.89984
1.90601
1.91154
1.91645
1.92077
1.92451
1.92768
1.93031
1.93241
1.934
1.9351
1.93571
1.93586
1.93557
1.93483
1.93368
1.93213
1.93017
1.92784
1.92515
1.9221
1.9187
1.91497
1.91092
1.90656
1.90189
1.89694
1.8917
1.88618
1.8804
1.87436
1.86807
1.86153
1.85476
1.84775
1.84052
1.83307
1.8254
1.81752
1.80943
1.80115
1.79266
1.78399
1.77512
1.76606
1.75683
1.74741
1.73781
1.72804
1.71809
1.70797
1.69768
1.68722
1.67659
1.6658
1.65484
1.64372
1.63243
1.62098
1.60937
1.5976
1.58567
1.57358
1.56132
1.54891
1.53634
1.5236
1.51071
1.49766
1.48445
1.47108
1.45755
1.44386
1.43001
1.416
1.40184
1.38752
1.37304
1.3584
1.34361
1.32866
1.31356
1.29831
1.2829
1.26734
1.25164
1.23578
1.21978
1.20364
1.18735
1.17093
1.15437
1.13767
1.12085
1.10389
1.08681
1.06961
1.05229
1.03486
1.01731
0.99966
0.981907
0.964055
0.94611
0.928074
0.909953
0.891751
0.873472
0.855121
0.836701
0.818217
0.799672
0.78107
0.762415
0.74371
0.724956
0.706157
0.687314
0.668428
0.6495
0.63053
0.611515
0.592455
0.573345
0.554182
0.534959
0.515668
0.496298
0.476838
0.45727
0.437574
0.417724
0.397687
0.37742
0.356865
0.335942
0.314537
0.292476
0.269484
0.245081
0.218356
0.187246
0.145538
0.0663163
0.125369
0.282692
0.372093
0.441711
0.503
0.55973
0.613495
0.665075
0.714897
0.76322
0.810213
0.855998
0.900672
0.944308
0.986967
1.0287
1.06955
1.10953
1.14869
1.18702
1.22455
1.26127
1.29718
1.33228
1.36656
1.40002
1.43264
1.46441
1.49532
1.52536
1.55452
1.5828
1.61017
1.63664
1.6622
1.68685
1.71058
1.73339
1.75529
1.77628
1.79637
1.81555
1.83383
1.85123
1.86776
1.88342
1.89823
1.9122
1.92534
1.93768
1.94922
1.95998
1.96999
1.97924
1.98778
1.9956
2.00274
2.0092
2.01501
2.02018
2.02473
2.02868
2.03205
2.03485
2.03711
2.03883
2.04004
2.04075
2.04097
2.04073
2.04003
2.03889
2.03733
2.03536
2.033
2.03024
2.02712
2.02364
2.0198
2.01563
2.01113
2.00631
2.00119
1.99577
1.99005
1.98406
1.97779
1.97126
1.96447
1.95743
1.95014
1.94261
1.93485
1.92686
1.91865
1.91022
1.90158
1.89273
1.88368
1.87442
1.86496
1.85531
1.84547
1.83544
1.82522
1.81482
1.80424
1.79347
1.78253
1.7714
1.76011
1.74863
1.73699
1.72517
1.71317
1.70101
1.68868
1.67617
1.6635
1.65066
1.63764
1.62446
1.61111
1.59759
1.5839
1.57005
1.55603
1.54183
1.52748
1.51295
1.49826
1.4834
1.46837
1.45318
1.43782
1.4223
1.40662
1.39078
1.37477
1.3586
1.34228
1.3258
1.30916
1.29237
1.27543
1.25834
1.2411
1.22372
1.2062
1.18854
1.17075
1.15282
1.13477
1.11659
1.09829
1.07987
1.06134
1.0427
1.02396
1.00512
0.986179
0.967148
0.94803
0.928829
0.909548
0.890194
0.870768
0.851276
0.83172
0.812104
0.792431
0.772704
0.752925
0.733096
0.713217
0.69329
0.673314
0.653289
0.633212
0.613081
0.592891
0.572637
0.552312
0.531906
0.511406
0.490798
0.470062
0.449171
0.428092
0.406781
0.385175
0.363188
0.340693
0.317495
0.293279
0.267503
0.239118
0.205802
0.160603
0.0735227
0.125372
0.282695
0.372094
0.441711
0.503
0.55973
0.613494
0.665074
0.714896
0.763219
0.810212
0.855997
0.900671
0.944307
0.986966
1.0287
1.06954
1.10953
1.14869
1.18702
1.22455
1.26127
1.29718
1.33228
1.36656
1.40002
1.43264
1.46441
1.49532
1.52536
1.55452
1.5828
1.61017
1.63664
1.6622
1.68685
1.71058
1.73339
1.75529
1.77628
1.79636
1.81554
1.83383
1.85123
1.86776
1.88342
1.89823
1.9122
1.92534
1.93768
1.94922
1.95998
1.96998
1.97924
1.98778
1.9956
2.00274
2.0092
2.015
2.02018
2.02473
2.02868
2.03205
2.03485
2.03711
2.03883
2.04004
2.04074
2.04097
2.04072
2.04003
2.03889
2.03733
2.03536
2.033
2.03024
2.02712
2.02363
2.0198
2.01563
2.01113
2.00631
2.00119
1.99576
1.99005
1.98406
1.97779
1.97126
1.96447
1.95742
1.95014
1.94261
1.93485
1.92686
1.91865
1.91022
1.90158
1.89273
1.88368
1.87442
1.86496
1.85531
1.84547
1.83544
1.82522
1.81482
1.80423
1.79347
1.78252
1.7714
1.7601
1.74863
1.73698
1.72517
1.71317
1.70101
1.68868
1.67617
1.6635
1.65065
1.63764
1.62446
1.61111
1.59759
1.5839
1.57005
1.55602
1.54183
1.52747
1.51295
1.49826
1.4834
1.46837
1.45318
1.43782
1.4223
1.40662
1.39077
1.37477
1.3586
1.34228
1.3258
1.30916
1.29237
1.27543
1.25834
1.2411
1.22372
1.2062
1.18854
1.17075
1.15282
1.13477
1.11659
1.09829
1.07987
1.06134
1.0427
1.02396
1.00512
0.986178
0.967147
0.948029
0.928828
0.909548
0.890193
0.870768
0.851275
0.831719
0.812104
0.792431
0.772704
0.752925
0.733095
0.713217
0.69329
0.673314
0.653289
0.633212
0.613081
0.592891
0.572637
0.552312
0.531906
0.511406
0.490798
0.470062
0.449171
0.428092
0.406781
0.385175
0.363188
0.340693
0.317495
0.29328
0.267503
0.239119
0.205802
0.160603
0.0735227
0.137826
0.309454
0.406231
0.480977
0.546315
0.606447
0.663176
0.717403
0.769627
0.820149
0.869171
0.916836
0.963254
1.00851
1.05268
1.09583
1.13799
1.17921
1.21952
1.25895
1.2975
1.33519
1.37202
1.40799
1.44311
1.47737
1.51075
1.54326
1.57488
1.6056
1.63542
1.66434
1.69233
1.71941
1.74555
1.77077
1.79506
1.81841
1.84084
1.86234
1.88292
1.90258
1.92134
1.93919
1.95616
1.97225
1.98748
2.00185
2.01538
2.02809
2.03999
2.05109
2.06142
2.071
2.07983
2.08794
2.09534
2.10205
2.1081
2.11349
2.11825
2.12239
2.12594
2.1289
2.1313
2.13315
2.13447
2.13528
2.13559
2.13541
2.13477
2.13367
2.13213
2.13017
2.1278
2.12502
2.12186
2.11833
2.11443
2.11018
2.10559
2.10067
2.09543
2.08988
2.08402
2.07788
2.07144
2.06473
2.05775
2.0505
2.043
2.03524
2.02724
2.01901
2.01053
2.00183
1.99291
1.98377
1.97441
1.96484
1.95506
1.94507
1.93489
1.9245
1.91392
1.90314
1.89218
1.88102
1.86967
1.85814
1.84642
1.83452
1.82244
1.81017
1.79772
1.78509
1.77229
1.7593
1.74613
1.73279
1.71927
1.70557
1.6917
1.67765
1.66342
1.64902
1.63444
1.61968
1.60475
1.58964
1.57436
1.5589
1.54327
1.52747
1.51149
1.49535
1.47903
1.46254
1.44589
1.42906
1.41207
1.39492
1.37761
1.36013
1.3425
1.32471
1.30677
1.28867
1.27043
1.25205
1.23352
1.21485
1.19605
1.17712
1.15806
1.13888
1.11958
1.10016
1.08063
1.06099
1.04125
1.02141
1.00148
0.98146
0.961352
0.941161
0.920893
0.900549
0.880135
0.859654
0.839107
0.818498
0.797829
0.777102
0.756318
0.735477
0.71458
0.693626
0.672613
0.651539
0.6304
0.609191
0.587904
0.566532
0.545062
0.523479
0.501763
0.479889
0.457821
0.435512
0.412895
0.389875
0.366309
0.341982
0.31654
0.289376
0.259322
0.223789
0.17514
0.0804237
0.137829
0.309457
0.406232
0.480977
0.546315
0.606447
0.663176
0.717403
0.769626
0.820148
0.86917
0.916835
0.963253
1.00851
1.05268
1.09583
1.13799
1.17921
1.21952
1.25895
1.2975
1.33519
1.37202
1.40799
1.44311
1.47736
1.51075
1.54325
1.57487
1.6056
1.63542
1.66434
1.69233
1.71941
1.74555
1.77077
1.79506
1.81841
1.84084
1.86234
1.88292
1.90258
1.92134
1.93919
1.95616
1.97225
1.98747
2.00185
2.01538
2.02809
2.03999
2.05109
2.06142
2.071
2.07983
2.08794
2.09534
2.10205
2.1081
2.11349
2.11825
2.12239
2.12594
2.1289
2.1313
2.13315
2.13447
2.13528
2.13558
2.13541
2.13476
2.13367
2.13213
2.13017
2.12779
2.12502
2.12186
2.11833
2.11443
2.11018
2.10559
2.10067
2.09543
2.08988
2.08402
2.07787
2.07144
2.06473
2.05774
2.0505
2.04299