/*--------------------------------*- C++ -*----------------------------------*\
  =========                 |
  \\      /  F ield         | OpenFOAM: The Open Source CFD Toolbox
   \\    /   O peration     | Website:  https://openfoam.org
    \\  /    A nd           | Version:  8
     \\/     M anipulation  |
\*---------------------------------------------------------------------------*/
FoamFile
{
    version     2.0;
    format      ascii;
    class       surfaceScalarField;
    location    "1900";
    object      phi;
}
// * * * * * * * * * * * * * * * * * * * * * * * * * * * * * * * * * * * * * //

dimensions      [1 0 -1 0 0 0 0];

internalField   nonuniform List<scalar> 
119360
(
-2.73029e-07
-1.86924e-11
2.73047e-07
-4.45942e-07
-3.90291e-12
1.73098e-07
-4.95071e-07
-1.54049e-12
4.91984e-08
-4.44084e-07
-9.44641e-13
-5.09306e-08
-3.26353e-07
-9.85505e-13
-1.17679e-07
-1.6687e-07
-1.1954e-12
-1.59436e-07
1.73202e-08
-1.31541e-12
-1.84144e-07
2.1432e-07
-1.37415e-12
-1.96957e-07
4.16094e-07
-1.43411e-12
-2.01735e-07
6.17826e-07
-1.43044e-12
-2.01697e-07
8.1632e-07
-1.39481e-12
-1.98463e-07
1.00951e-06
-1.41083e-12
-1.93158e-07
1.19605e-06
-1.43831e-12
-1.86519e-07
1.37513e-06
-1.44019e-12
-1.79046e-07
1.54624e-06
-1.42218e-12
-1.71082e-07
1.70913e-06
-1.36487e-12
-1.6287e-07
1.86374e-06
-1.23703e-12
-1.5458e-07
2.01009e-06
-1.06117e-12
-1.46333e-07
2.14833e-06
-8.96135e-13
-1.38212e-07
2.27863e-06
-7.70014e-13
-1.30278e-07
2.40122e-06
-6.64821e-13
-1.2257e-07
2.51636e-06
-5.64152e-13
-1.15116e-07
2.62431e-06
-4.81691e-13
-1.07931e-07
2.72535e-06
-4.44221e-13
-1.01026e-07
2.81977e-06
-4.52548e-13
-9.44017e-08
2.90784e-06
-4.76585e-13
-8.80588e-08
2.98985e-06
-4.853e-13
-8.19929e-08
3.06606e-06
-4.7467e-13
-7.6198e-08
3.13675e-06
-4.6268e-13
-7.06665e-08
3.20215e-06
-4.6207e-13
-6.539e-08
3.26253e-06
-4.59433e-13
-6.03596e-08
3.31811e-06
-4.28264e-13
-5.5566e-08
3.36912e-06
-3.55128e-13
-5.09997e-08
3.41579e-06
-2.57678e-13
-4.66516e-08
3.45831e-06
-1.73274e-13
-4.25127e-08
3.4969e-06
-1.32556e-13
-3.85744e-08
3.53174e-06
-1.40578e-13
-3.48282e-08
3.56302e-06
-1.75911e-13
-3.12663e-08
3.59091e-06
-2.10911e-13
-2.78809e-08
3.61558e-06
-2.30229e-13
-2.46646e-08
3.6372e-06
-2.38861e-13
-2.16105e-08
3.65592e-06
-2.53516e-13
-1.87118e-08
3.6719e-06
-2.87489e-13
-1.59623e-08
3.68526e-06
-3.40696e-13
-1.3356e-08
3.69616e-06
-3.99816e-13
-1.08872e-08
3.70472e-06
-4.46889e-13
-8.55018e-09
3.71107e-06
-4.71508e-13
-6.33973e-09
3.71533e-06
-4.76199e-13
-4.25078e-09
3.71762e-06
-4.7434e-13
-2.27845e-09
3.71805e-06
-4.82611e-13
-4.17311e-10
3.71673e-06
-5.1131e-13
1.33633e-09
3.71376e-06
-5.60049e-13
2.98575e-09
3.70923e-06
-6.19224e-13
4.536e-09
3.70325e-06
-6.74458e-13
5.99174e-09
3.69591e-06
-7.13982e-13
7.35729e-09
3.68729e-06
-7.34243e-13
8.63673e-09
3.67747e-06
-7.40377e-13
9.83396e-09
3.66653e-06
-7.43958e-13
1.09528e-08
3.65455e-06
-7.56559e-13
1.19968e-08
3.6416e-06
-7.85813e-13
1.29696e-08
3.62775e-06
-8.31721e-13
1.38746e-08
3.61305e-06
-8.86483e-13
1.47153e-08
3.59757e-06
-9.37525e-13
1.54949e-08
3.58138e-06
-9.70444e-13
1.62168e-08
3.56452e-06
-9.73913e-13
1.68841e-08
3.54704e-06
-9.42438e-13
1.74999e-08
3.52899e-06
-8.77685e-13
1.80672e-08
3.51043e-06
-7.87424e-13
1.85888e-08
3.49138e-06
-6.82646e-13
1.90674e-08
3.4719e-06
-5.76037e-13
1.95057e-08
3.45202e-06
-4.78532e-13
1.9906e-08
3.43177e-06
-3.9657e-13
2.02709e-08
3.41119e-06
-3.33454e-13
2.06026e-08
3.3903e-06
-2.88101e-13
2.09032e-08
3.36915e-06
-2.5732e-13
2.11749e-08
3.34775e-06
-2.35504e-13
2.14197e-08
3.32613e-06
-2.17991e-13
2.16395e-08
3.30431e-06
-2.00782e-13
2.18362e-08
3.28231e-06
-1.81992e-13
2.20116e-08
3.26016e-06
-1.60703e-13
2.21673e-08
3.23787e-06
-1.38555e-13
2.2305e-08
3.21545e-06
-1.17877e-13
2.24262e-08
3.19293e-06
-1.01501e-13
2.25324e-08
3.17032e-06
-9.18975e-14
2.26248e-08
3.14762e-06
-9.07596e-14
2.27048e-08
3.12486e-06
-9.92806e-14
2.27736e-08
3.10204e-06
-1.16878e-13
2.28322e-08
3.07917e-06
-1.42663e-13
2.28819e-08
3.05625e-06
-1.74665e-13
2.29235e-08
3.0333e-06
-2.1083e-13
2.29582e-08
3.01032e-06
-2.48467e-13
2.29866e-08
2.98732e-06
-2.85271e-13
2.30099e-08
2.9643e-06
-3.18828e-13
2.30287e-08
2.94126e-06
-3.4675e-13
2.30438e-08
2.91821e-06
-3.67539e-13
2.3056e-08
2.89516e-06
-3.8014e-13
2.30659e-08
2.87209e-06
-3.83915e-13
2.30743e-08
2.84902e-06
-3.79529e-13
2.30817e-08
2.82594e-06
-3.67789e-13
2.30888e-08
2.80285e-06
-3.50441e-13
2.30961e-08
2.77976e-06
-3.29958e-13
2.31041e-08
2.75666e-06
-3.08586e-13
2.31135e-08
2.73354e-06
-2.89157e-13
2.31246e-08
2.71041e-06
-2.74252e-13
2.3138e-08
2.68727e-06
-2.65454e-13
2.31542e-08
2.66411e-06
-2.64954e-13
2.31736e-08
2.64092e-06
-2.73198e-13
2.31968e-08
2.6177e-06
-2.90351e-13
2.32241e-08
2.59446e-06
-3.15692e-13
2.32559e-08
2.57117e-06
-3.47777e-13
2.32928e-08
2.54785e-06
-3.84387e-13
2.33352e-08
2.52447e-06
-4.23023e-13
2.33834e-08
2.50105e-06
-4.61048e-13
2.34379e-08
2.47756e-06
-4.96214e-13
2.34991e-08
2.454e-06
-5.26218e-13
2.35674e-08
2.43037e-06
-5.49505e-13
2.36433e-08
2.40665e-06
-5.65214e-13
2.37271e-08
2.38285e-06
-5.72237e-13
2.38193e-08
2.35894e-06
-5.70488e-13
2.39203e-08
2.33492e-06
-5.59941e-13
2.40305e-08
2.31079e-06
-5.40762e-13
2.41504e-08
2.28652e-06
-5.13395e-13
2.42803e-08
2.26212e-06
-4.78506e-13
2.44208e-08
2.23756e-06
-4.37372e-13
2.45723e-08
2.21284e-06
-3.92214e-13
2.47352e-08
2.18794e-06
-3.45474e-13
2.49099e-08
2.16286e-06
-3.00343e-13
2.50968e-08
2.13758e-06
-2.60319e-13
2.52964e-08
2.11208e-06
-2.28262e-13
2.5509e-08
2.08636e-06
-2.0578e-13
2.5735e-08
2.0604e-06
-1.92596e-13
2.59748e-08
2.03418e-06
-1.86184e-13
2.62289e-08
2.0077e-06
-1.81799e-13
2.64975e-08
1.98093e-06
-1.72667e-13
2.67811e-08
1.95386e-06
-1.52461e-13
2.70802e-08
1.92647e-06
-1.16379e-13
2.7395e-08
1.89876e-06
-6.26166e-14
2.77259e-08
1.87069e-06
5.63441e-15
2.80732e-08
1.84226e-06
8.0963e-14
2.84373e-08
1.81345e-06
1.54293e-13
2.88184e-08
1.78424e-06
2.16049e-13
2.92168e-08
1.75461e-06
2.61347e-13
2.96326e-08
1.72455e-06
2.8999e-13
3.00661e-08
1.69404e-06
3.07476e-13
3.05175e-08
1.66305e-06
3.22631e-13
3.0987e-08
1.63158e-06
3.4317e-13
3.14747e-08
1.5996e-06
3.7309e-13
3.19808e-08
1.56709e-06
4.07924e-13
3.25053e-08
1.53404e-06
4.38732e-13
3.30481e-08
1.50043e-06
4.53054e-13
3.36091e-08
1.46624e-06
4.44422e-13
3.41882e-08
1.43145e-06
4.12975e-13
3.47851e-08
1.39604e-06
3.68455e-13
3.53994e-08
1.36e-06
3.24962e-13
3.60308e-08
1.32332e-06
2.93654e-13
3.66787e-08
1.28597e-06
2.75724e-13
3.73424e-08
1.24794e-06
2.61957e-13
3.80212e-08
1.20922e-06
2.37366e-13
3.87138e-08
1.16979e-06
1.92374e-13
3.94192e-08
1.12965e-06
1.30201e-13
4.01359e-08
1.08878e-06
6.68077e-14
4.08622e-08
1.04718e-06
2.31482e-14
4.15963e-08
1.00483e-06
1.14353e-14
4.2336e-08
9.61749e-07
2.43416e-14
4.30786e-08
9.17923e-07
3.94407e-14
4.38212e-08
8.73357e-07
3.18634e-14
4.45603e-08
8.2806e-07
-6.41154e-15
4.52917e-08
7.82044e-07
-6.06459e-14
4.6011e-08
7.35327e-07
-1.01419e-13
4.6713e-08
6.87931e-07
-1.07164e-13
4.73919e-08
6.39887e-07
-8.10463e-14
4.80406e-08
5.91233e-07
-4.90719e-14
4.86514e-08
5.42015e-07
-3.90798e-14
4.92151e-08
4.92291e-07
-5.58442e-14
4.97211e-08
4.42132e-07
-7.59948e-14
5.01574e-08
3.9162e-07
-6.67799e-14
5.05101e-08
3.40855e-07
-1.99285e-14
5.0763e-08
2.89956e-07
4.01901e-14
5.08971e-08
2.39065e-07
7.49956e-14
5.08899e-08
1.88347e-07
6.76681e-14
5.07153e-08
1.38003e-07
4.60187e-14
5.0342e-08
8.82686e-08
5.41234e-14
4.97321e-08
3.9428e-08
1.05693e-13
4.88381e-08
-8.17511e-09
1.63536e-13
4.76e-08
-5.40979e-08
1.88627e-13
4.59191e-08
-9.78231e-08
2.02782e-13
4.37214e-08
-1.3877e-07
2.64511e-13
4.09427e-08
-1.76247e-07
3.54772e-13
3.7473e-08
-2.09411e-07
3.69704e-13
3.31592e-08
-2.37228e-07
2.85605e-13
2.78108e-08
-2.58444e-07
2.45193e-13
2.12104e-08
-2.71533e-07
3.41338e-13
1.30823e-08
-2.74656e-07
4.3332e-13
3.11608e-09
-2.65735e-07
4.15723e-13
-8.92924e-09
-2.42588e-07
4.73177e-13
-2.31558e-08
-2.0333e-07
6.31939e-13
-3.92679e-08
-1.47425e-07
7.95475e-13
-5.59155e-08
-7.97806e-08
1.1996e-12
-6.76554e-08
-1.8854e-08
6.81011e-13
-6.09407e-08
2.51355e-13
-1.88698e-08
-2.72995e-07
2.73077e-07
-4.45937e-07
1.73108e-07
-4.95066e-07
4.92034e-08
-4.44078e-07
-5.09273e-08
-3.26347e-07
-1.17676e-07
-1.66863e-07
-1.59433e-07
1.7327e-08
-1.84141e-07
2.14326e-07
-1.96954e-07
4.16099e-07
-2.01732e-07
6.1783e-07
-2.01695e-07
8.16324e-07
-1.98461e-07
1.00951e-06
-1.93156e-07
1.19606e-06
-1.86518e-07
1.37513e-06
-1.79044e-07
1.54624e-06
-1.7108e-07
1.70913e-06
-1.62868e-07
1.86374e-06
-1.54578e-07
2.01009e-06
-1.46331e-07
2.14833e-06
-1.3821e-07
2.27863e-06
-1.30276e-07
2.40122e-06
-1.22568e-07
2.51635e-06
-1.15114e-07
2.6243e-06
-1.0793e-07
2.72535e-06
-1.01024e-07
2.81976e-06
-9.44003e-08
2.90784e-06
-8.80574e-08
2.98985e-06
-8.19915e-08
3.06606e-06
-7.61965e-08
3.13674e-06
-7.0665e-08
3.20215e-06
-6.53885e-08
3.26252e-06
-6.03582e-08
3.3181e-06
-5.55646e-08
3.36911e-06
-5.09983e-08
3.41578e-06
-4.66503e-08
3.45831e-06
-4.25114e-08
3.49689e-06
-3.85732e-08
3.53173e-06
-3.48271e-08
3.56301e-06
-3.12653e-08
3.5909e-06
-2.78799e-08
3.61558e-06
-2.46637e-08
3.6372e-06
-2.16095e-08
3.65592e-06
-1.87108e-08
3.67189e-06
-1.59614e-08
3.68526e-06
-1.33551e-08
3.69616e-06
-1.08862e-08
3.70472e-06
-8.54915e-09
3.71107e-06
-6.33867e-09
3.71533e-06
-4.24968e-09
3.71762e-06
-2.27732e-09
3.71805e-06
-4.16155e-10
3.71672e-06
1.33751e-09
3.71375e-06
2.98695e-09
3.70923e-06
4.53723e-09
3.70325e-06
5.99302e-09
3.69591e-06
7.35864e-09
3.68728e-06
8.63818e-09
3.67747e-06
9.83551e-09
3.66653e-06
1.09544e-08
3.65455e-06
1.19985e-08
3.6416e-06
1.29714e-08
3.62774e-06
1.38765e-08
3.61305e-06
1.47173e-08
3.59757e-06
1.5497e-08
3.58138e-06
1.62189e-08
3.56451e-06
1.68863e-08
3.54704e-06
1.75021e-08
3.52899e-06
1.80694e-08
3.51042e-06
1.85911e-08
3.49138e-06
1.90697e-08
3.4719e-06
1.95079e-08
3.45202e-06
1.99083e-08
3.43177e-06
2.02731e-08
3.41119e-06
2.06047e-08
3.3903e-06
2.09052e-08
3.36915e-06
2.11768e-08
3.34775e-06
2.14214e-08
3.32612e-06
2.16411e-08
3.3043e-06
2.18377e-08
3.28231e-06
2.2013e-08
3.26016e-06
2.21687e-08
3.23786e-06
2.23063e-08
3.21545e-06
2.24274e-08
3.19293e-06
2.25335e-08
3.17032e-06
2.26258e-08
3.14762e-06
2.27058e-08
3.12486e-06
2.27745e-08
3.10204e-06
2.28331e-08
3.07916e-06
2.28827e-08
3.05625e-06
2.29243e-08
3.0333e-06
2.29589e-08
3.01032e-06
2.29874e-08
2.98732e-06
2.30107e-08
2.9643e-06
2.30295e-08
2.94126e-06
2.30446e-08
2.91821e-06
2.30569e-08
2.89516e-06
2.30668e-08
2.87209e-06
2.30752e-08
2.84902e-06
2.30827e-08
2.82594e-06
2.30898e-08
2.80285e-06
2.30971e-08
2.77976e-06
2.31051e-08
2.75666e-06
2.31144e-08
2.73354e-06
2.31255e-08
2.71041e-06
2.31389e-08
2.68727e-06
2.31551e-08
2.6641e-06
2.31746e-08
2.64092e-06
2.31977e-08
2.6177e-06
2.3225e-08
2.59446e-06
2.32568e-08
2.57117e-06
2.32938e-08
2.54785e-06
2.33361e-08
2.52447e-06
2.33844e-08
2.50105e-06
2.34389e-08
2.47756e-06
2.35002e-08
2.454e-06
2.35686e-08
2.43037e-06
2.36445e-08
2.40665e-06
2.37284e-08
2.38285e-06
2.38206e-08
2.35894e-06
2.39217e-08
2.33492e-06
2.40319e-08
2.31079e-06
2.41518e-08
2.28652e-06
2.42818e-08
2.26212e-06
2.44223e-08
2.23756e-06
2.45738e-08
2.21284e-06
2.47367e-08
2.18794e-06
2.49113e-08
2.16286e-06
2.50982e-08
2.13758e-06
2.52977e-08
2.11208e-06
2.55103e-08
2.08636e-06
2.57362e-08
2.0604e-06
2.5976e-08
2.03418e-06
2.623e-08
2.0077e-06
2.64987e-08
1.98093e-06
2.67823e-08
1.95386e-06
2.70813e-08
1.92647e-06
2.7396e-08
1.89876e-06
2.77269e-08
1.87069e-06
2.80741e-08
1.84226e-06
2.84381e-08
1.81345e-06
2.88191e-08
1.78424e-06
2.92174e-08
1.75461e-06
2.96331e-08
1.72455e-06
3.00665e-08
1.69404e-06
3.05178e-08
1.66305e-06
3.09871e-08
1.63158e-06
3.14748e-08
1.5996e-06
3.19807e-08
1.56709e-06
3.25051e-08
1.53404e-06
3.30478e-08
1.50043e-06
3.36087e-08
1.46624e-06
3.41877e-08
1.43145e-06
3.47845e-08
1.39604e-06
3.53988e-08
1.36e-06
3.60301e-08
1.32332e-06
3.6678e-08
1.28597e-06
3.73417e-08
1.24794e-06
3.80204e-08
1.20922e-06
3.87131e-08
1.16979e-06
3.94184e-08
1.12965e-06
4.01351e-08
1.08878e-06
4.08615e-08
1.04718e-06
4.15956e-08
1.00483e-06
4.23353e-08
9.6175e-07
4.3078e-08
9.17923e-07
4.38206e-08
8.73357e-07
4.45597e-08
8.2806e-07
4.52911e-08
7.82045e-07
4.60104e-08
7.35327e-07
4.67125e-08
6.87932e-07
4.73914e-08
6.39888e-07
4.80403e-08
5.91234e-07
4.86511e-08
5.42016e-07
4.92147e-08
4.92292e-07
4.97207e-08
4.42133e-07
5.01571e-08
3.91621e-07
5.05099e-08
3.40856e-07
5.07628e-08
2.89957e-07
5.08968e-08
2.39066e-07
5.08895e-08
1.88348e-07
5.07149e-08
1.38004e-07
5.03417e-08
8.82696e-08
4.97318e-08
3.94288e-08
4.88377e-08
-8.17436e-09
4.75995e-08
-5.4097e-08
4.59187e-08
-9.78222e-08
4.3721e-08
-1.38769e-07
4.09423e-08
-1.76246e-07
3.74724e-08
-2.09411e-07
3.31586e-08
-2.37227e-07
2.78103e-08
-2.58443e-07
2.12099e-08
-2.71532e-07
1.30816e-08
-2.74656e-07
3.1153e-09
-2.65734e-07
-8.92983e-09
-2.42587e-07
-2.31568e-08
-2.03328e-07
-3.92702e-08
-1.47422e-07
-5.5918e-08
-7.97813e-08
-6.7657e-08
-1.88566e-08
-6.09457e-08
-1.88754e-08
-1.49269e-07
-2.23221e-12
4.22495e-07
-1.56065e-07
9.30353e-13
1.80016e-07
-1.04645e-07
8.13234e-13
-2.16429e-09
-1.62304e-08
6.83493e-13
-1.39297e-07
1.00981e-07
5.59628e-13
-2.34847e-07
2.39707e-07
5.10067e-13
-2.98122e-07
3.93266e-07
4.86181e-13
-3.37665e-07
5.56199e-07
4.3216e-13
-3.59856e-07
7.24215e-07
3.71762e-13
-3.6972e-07
8.93834e-07
3.14682e-13
-3.71287e-07
1.06249e-06
2.5602e-13
-3.67093e-07
1.22832e-06
2.05809e-13
-3.58962e-07
1.38998e-06
1.69428e-13
-3.48158e-07
1.54654e-06
1.42199e-13
-3.3558e-07
1.69735e-06
1.28057e-13
-3.21871e-07
1.84199e-06
1.36876e-13
-3.07497e-07
1.98023e-06
1.63972e-13
-2.92796e-07
2.11194e-06
1.9018e-13
-2.78015e-07
2.23708e-06
2.03488e-13
-2.63333e-07
2.3557e-06
2.09268e-13
-2.48881e-07
2.4679e-06
2.16498e-13
-2.3475e-07
2.5738e-06
2.23215e-13
-2.21006e-07
2.67358e-06
2.20266e-13
-2.07693e-07
2.76741e-06
2.04722e-13
-1.94838e-07
2.85548e-06
1.85002e-13
-1.82458e-07
2.93799e-06
1.717e-13
-1.70558e-07
3.01515e-06
1.67016e-13
-1.5914e-07
3.08717e-06
1.64532e-13
-1.48199e-07
3.15424e-06
1.58287e-13
-1.37725e-07
3.21657e-06
1.50085e-13
-1.27708e-07
3.27436e-06
1.48038e-13
-1.18134e-07
3.3278e-06
1.57967e-13
-1.08991e-07
3.37707e-06
1.76868e-13
-1.00263e-07
3.42237e-06
1.94424e-13
-9.19355e-08
3.46386e-06
2.00384e-13
-8.39938e-08
3.50172e-06
1.92064e-13
-7.64233e-08
3.53611e-06
1.74679e-13
-6.92098e-08
3.56719e-06
1.57172e-13
-6.23394e-08
3.59512e-06
1.45452e-13
-5.57989e-08
3.62004e-06
1.39381e-13
-4.95754e-08
3.6421e-06
1.34395e-13
-4.36567e-08
3.66142e-06
1.25704e-13
-3.80309e-08
3.67816e-06
1.12149e-13
-3.26867e-08
3.69242e-06
9.67929e-14
-2.76133e-08
3.70435e-06
8.46255e-14
-2.28002e-08
3.71404e-06
7.95011e-14
-1.82375e-08
3.72163e-06
8.15446e-14
-1.39153e-08
3.72721e-06
8.74009e-14
-9.82437e-09
3.7309e-06
9.22789e-14
-5.95558e-09
3.7328e-06
9.25946e-14
-2.3e-09
3.73299e-06
8.7321e-14
1.15014e-09
3.73159e-06
7.8748e-14
4.40207e-09
3.72867e-06
7.0966e-14
7.46418e-09
3.72433e-06
6.7375e-14
1.03449e-08
3.71865e-06
6.94983e-14
1.3052e-08
3.71171e-06
7.62914e-14
1.55932e-08
3.70358e-06
8.48713e-14
1.79758e-08
3.69434e-06
9.19628e-14
2.02069e-08
3.68406e-06
9.52276e-14
2.22935e-08
3.67281e-06
9.43359e-14
2.42424e-08
3.66064e-06
9.09462e-14
2.60602e-08
3.64762e-06
8.81498e-14
2.77533e-08
3.63381e-06
8.92218e-14
2.9328e-08
3.61925e-06
9.67296e-14
3.07905e-08
3.60401e-06
1.11631e-13
3.21466e-08
3.58813e-06
1.32944e-13
3.34022e-08
3.57165e-06
1.58243e-13
3.45627e-08
3.55463e-06
1.84187e-13
3.56337e-08
3.5371e-06
2.07457e-13
3.66202e-08
3.5191e-06
2.25397e-13
3.75273e-08
3.50066e-06
2.36576e-13
3.83597e-08
3.48183e-06
2.40788e-13
3.91223e-08
3.46263e-06
2.38921e-13
3.98194e-08
3.4431e-06
2.32464e-13
4.04552e-08
3.42325e-06
2.2327e-13
4.10339e-08
3.40313e-06
2.12883e-13
4.15595e-08
3.38275e-06
2.02443e-13
4.20356e-08
3.36213e-06
1.92694e-13
4.24659e-08
3.3413e-06
1.83698e-13
4.28538e-08
3.32028e-06
1.75052e-13
4.32026e-08
3.29908e-06
1.66215e-13
4.35152e-08
3.27772e-06
1.56664e-13
4.37948e-08
3.25622e-06
1.45933e-13
4.40441e-08
3.23459e-06
1.339e-13
4.42657e-08
3.21284e-06
1.20748e-13
4.44622e-08
3.19099e-06
1.06939e-13
4.46359e-08
3.16904e-06
9.30823e-14
4.47892e-08
3.147e-06
7.99643e-14
4.49241e-08
3.12489e-06
6.83486e-14
4.50426e-08
3.10271e-06
5.87798e-14
4.51468e-08
3.08047e-06
5.1775e-14
4.52382e-08
3.05816e-06
4.75804e-14
4.53187e-08
3.03581e-06
4.63661e-14
4.53899e-08
3.01341e-06
4.78926e-14
4.54533e-08
2.99096e-06
5.199e-14
4.55102e-08
2.96847e-06
5.80893e-14
4.55621e-08
2.94595e-06
6.56318e-14
4.56102e-08
2.92338e-06
7.37989e-14
4.56559e-08
2.90078e-06
8.18306e-14
4.57002e-08
2.87814e-06
8.90332e-14
4.57443e-08
2.85546e-06
9.46814e-14
4.57893e-08
2.83275e-06
9.83417e-14
4.58362e-08
2.81e-06
9.96046e-14
4.58862e-08
2.7872e-06
9.84111e-14
4.59402e-08
2.76437e-06
9.48479e-14
4.59991e-08
2.74148e-06
8.92239e-14
4.6064e-08
2.71855e-06
8.20803e-14
4.61358e-08
2.69557e-06
7.40104e-14
4.62154e-08
2.67253e-06
6.57982e-14
4.63037e-08
2.64943e-06
5.8325e-14
4.64016e-08
2.62627e-06
5.21737e-14
4.65099e-08
2.60303e-06
4.7986e-14
4.66295e-08
2.57971e-06
4.61784e-14
4.67613e-08
2.55632e-06
4.69695e-14
4.69059e-08
2.53283e-06
5.03071e-14
4.70643e-08
2.50925e-06
5.59727e-14
4.72373e-08
2.48556e-06
6.35118e-14
4.74256e-08
2.46176e-06
7.24317e-14
4.76301e-08
2.43784e-06
8.21843e-14
4.78515e-08
2.4138e-06
9.2322e-14
4.80908e-08
2.38961e-06
1.023e-13
4.83487e-08
2.36528e-06
1.11793e-13
4.86261e-08
2.34079e-06
1.20418e-13
4.89237e-08
2.31613e-06
1.27752e-13
4.92425e-08
2.2913e-06
1.33539e-13
4.95832e-08
2.26627e-06
1.37432e-13
4.99467e-08
2.24105e-06
1.38986e-13
5.03338e-08
2.21561e-06
1.37924e-13
5.07453e-08
2.18995e-06
1.3424e-13
5.11819e-08
2.16405e-06
1.2805e-13
5.16445e-08
2.1379e-06
1.20015e-13
5.21339e-08
2.11149e-06
1.11113e-13
5.26507e-08
2.0848e-06
1.02654e-13
5.31956e-08
2.05782e-06
9.61037e-14
5.37694e-08
2.03054e-06
9.25024e-14
5.43728e-08
2.00294e-06
9.22179e-14
5.50063e-08
1.975e-06
9.48339e-14
5.56706e-08
1.94671e-06
9.88654e-14
5.63662e-08
1.91806e-06
1.02203e-13
5.70937e-08
1.88903e-06
1.02619e-13
5.78536e-08
1.85961e-06
9.86294e-14
5.86464e-08
1.82977e-06
8.98587e-14
5.94724e-08
1.79951e-06
7.74172e-14
6.0332e-08
1.7688e-06
6.34423e-14
6.12254e-08
1.73764e-06
5.03417e-14
6.2153e-08
1.706e-06
3.96142e-14
6.31148e-08
1.67387e-06
3.13499e-14
6.41109e-08
1.64123e-06
2.39669e-14
6.51412e-08
1.60807e-06
1.5106e-14
6.62055e-08
1.57437e-06
2.62291e-15
6.73035e-08
1.54012e-06
-1.3739e-14
6.84346e-08
1.5053e-06
-3.21618e-14
6.95982e-08
1.4699e-06
-4.92176e-14
7.07935e-08
1.43391e-06
-6.1541e-14
7.20194e-08
1.3973e-06
-6.80359e-14
7.32745e-08
1.36008e-06
-7.00551e-14
7.45572e-08
1.32223e-06
-7.13873e-14
7.58656e-08
1.28374e-06
-7.55576e-14
7.71975e-08
1.2446e-06
-8.34749e-14
7.85502e-08
1.20481e-06
-9.23359e-14
7.99205e-08
1.16436e-06
-9.72902e-14
8.1305e-08
1.12326e-06
-9.44037e-14
8.26995e-08
1.08149e-06
-8.37871e-14
8.40993e-08
1.03906e-06
-7.0173e-14
8.54989e-08
9.95987e-07
-6.02296e-14
8.68922e-08
9.52271e-07
-5.79675e-14
8.82721e-08
9.07928e-07
-6.17423e-14
8.96305e-08
8.62977e-07
-6.50313e-14
9.09582e-08
8.17442e-07
-6.14578e-14
9.22449e-08
7.71352e-07
-4.95368e-14
9.34787e-08
7.24744e-07
-3.45557e-14
9.46459e-08
6.77662e-07
-2.42029e-14
9.57313e-08
6.30158e-07
-2.2253e-14
9.6717e-08
5.82294e-07
-2.49592e-14
9.75831e-08
5.34144e-07
-2.44041e-14
9.83065e-08
4.85792e-07
-1.57929e-14
9.88605e-08
4.37339e-07
-2.23432e-15
9.92148e-08
3.889e-07
6.53644e-15
9.93338e-08
3.40612e-07
3.71925e-15
9.91765e-08
2.9263e-07
-7.67441e-15
9.8695e-08
2.45138e-07
-1.62162e-14
9.78326e-08
1.98345e-07
-1.34753e-14
9.6522e-08
1.52499e-07
-4.03149e-15
9.46816e-08
1.07883e-07
-4.16304e-17
9.22131e-08
6.48162e-08
-2.35922e-15
8.89825e-08
2.36682e-08
3.56659e-15
8.48658e-08
-1.51229e-08
2.12608e-14
7.973e-08
-5.1043e-08
2.49661e-14
7.33886e-08
-8.35188e-08
-2.26208e-15
6.56301e-08
-1.11915e-07
-2.48412e-14
5.62014e-08
-1.3552e-07
-1.95677e-14
4.48108e-08
-1.53569e-07
-3.81639e-14
3.11241e-08
-1.65273e-07
-6.67938e-14
1.48135e-08
-1.69856e-07
-1.4086e-14
-4.3533e-09
-1.66657e-07
-1.28925e-14
-2.63624e-08
-1.55292e-07
-1.23943e-13
-5.06432e-08
-1.35669e-07
-9.52294e-14
-7.55494e-08
-1.06766e-07
-2.14412e-13
-9.65711e-08
-6.5197e-08
-2.53214e-13
-1.02527e-07
-6.9178e-13
-8.40743e-08
-1.49256e-07
4.22497e-07
-1.56062e-07
1.80014e-07
-1.04641e-07
-2.16646e-09
-1.62269e-08
-1.39299e-07
1.00984e-07
-2.34849e-07
2.3971e-07
-2.98123e-07
3.93268e-07
-3.37666e-07
5.56201e-07
-3.59858e-07
7.24216e-07
-3.69721e-07
8.93834e-07
-3.71288e-07
1.06249e-06
-3.67094e-07
1.22832e-06
-3.58962e-07
1.38998e-06
-3.48158e-07
1.54653e-06
-3.3558e-07
1.69734e-06
-3.21871e-07
1.84199e-06
-3.07497e-07
1.98023e-06
-2.92796e-07
2.11193e-06
-2.78015e-07
2.23707e-06
-2.63334e-07
2.35569e-06
-2.48881e-07
2.46789e-06
-2.3475e-07
2.5738e-06
-2.21006e-07
2.67358e-06
-2.07693e-07
2.7674e-06
-1.94838e-07
2.85547e-06
-1.82458e-07
2.93799e-06
-1.70558e-07
3.01515e-06
-1.5914e-07
3.08716e-06
-1.48199e-07
3.15423e-06
-1.37725e-07
3.21656e-06
-1.27708e-07
3.27435e-06
-1.18135e-07
3.32779e-06
-1.08991e-07
3.37707e-06
-1.00263e-07
3.42236e-06
-9.19356e-08
3.46385e-06
-8.39939e-08
3.50171e-06
-7.64235e-08
3.53611e-06
-6.921e-08
3.56719e-06
-6.23396e-08
3.59512e-06
-5.57991e-08
3.62004e-06
-4.95756e-08
3.64209e-06
-4.36569e-08
3.66142e-06
-3.80311e-08
3.67815e-06
-3.26869e-08
3.69242e-06
-2.76135e-08
3.70434e-06
-2.28004e-08
3.71404e-06
-1.82377e-08
3.72163e-06
-1.39155e-08
3.72721e-06
-9.82458e-09
3.7309e-06
-5.95579e-09
3.73279e-06
-2.30021e-09
3.73299e-06
1.14992e-09
3.73159e-06
4.40185e-09
3.72867e-06
7.46396e-09
3.72433e-06
1.03446e-08
3.71865e-06
1.30518e-08
3.71171e-06
1.5593e-08
3.70358e-06
1.79756e-08
3.69434e-06
2.02067e-08
3.68406e-06
2.22933e-08
3.67281e-06
2.42422e-08
3.66064e-06
2.606e-08
3.64762e-06
2.77531e-08
3.6338e-06
2.93279e-08
3.61925e-06
3.07903e-08
3.60401e-06
3.21465e-08
3.58813e-06
3.3402e-08
3.57165e-06
3.45625e-08
3.55463e-06
3.56335e-08
3.5371e-06
3.662e-08
3.51909e-06
3.75271e-08
3.50066e-06
3.83596e-08
3.48183e-06
3.91221e-08
3.46263e-06
3.98192e-08
3.4431e-06
4.0455e-08
3.42325e-06
4.10338e-08
3.40313e-06
4.15593e-08
3.38275e-06
4.20354e-08
3.36213e-06
4.24657e-08
3.3413e-06
4.28536e-08
3.32028e-06
4.32024e-08
3.29908e-06
4.3515e-08
3.27772e-06
4.37946e-08
3.25622e-06
4.40439e-08
3.23459e-06
4.42655e-08
3.21284e-06
4.4462e-08
3.19099e-06
4.46358e-08
3.16904e-06
4.47891e-08
3.147e-06
4.4924e-08
3.12489e-06
4.50425e-08
3.10271e-06
4.51467e-08
3.08046e-06
4.52381e-08
3.05816e-06
4.53187e-08
3.03581e-06
4.53898e-08
3.01341e-06
4.54532e-08
2.99096e-06
4.55101e-08
2.96847e-06
4.5562e-08
2.94595e-06
4.56102e-08
2.92338e-06
4.56558e-08
2.90078e-06
4.57001e-08
2.87814e-06
4.57442e-08
2.85546e-06
4.57891e-08
2.83275e-06
4.58361e-08
2.80999e-06
4.58861e-08
2.7872e-06
4.594e-08
2.76437e-06
4.5999e-08
2.74148e-06
4.60639e-08
2.71855e-06
4.61357e-08
2.69557e-06
4.62153e-08
2.67253e-06
4.63036e-08
2.64943e-06
4.64015e-08
2.62626e-06
4.65099e-08
2.60303e-06
4.66295e-08
2.57971e-06
4.67612e-08
2.55632e-06
4.69059e-08
2.53283e-06
4.70643e-08
2.50925e-06
4.72372e-08
2.48556e-06
4.74255e-08
2.46176e-06
4.763e-08
2.43784e-06
4.78515e-08
2.41379e-06
4.80907e-08
2.38961e-06
4.83486e-08
2.36528e-06
4.8626e-08
2.34079e-06
4.89236e-08
2.31613e-06
4.92424e-08
2.2913e-06
4.95831e-08
2.26627e-06
4.99466e-08
2.24105e-06
5.03337e-08
2.21561e-06
5.07451e-08
2.18995e-06
5.11818e-08
2.16405e-06
5.16444e-08
2.1379e-06
5.21338e-08
2.11149e-06
5.26506e-08
2.0848e-06
5.31955e-08
2.05782e-06
5.37694e-08
2.03054e-06
5.43727e-08
2.00294e-06
5.50062e-08
1.975e-06
5.56705e-08
1.94671e-06
5.63661e-08
1.91806e-06
5.70936e-08
1.88903e-06
5.78535e-08
1.85961e-06
5.86463e-08
1.82977e-06
5.94723e-08
1.79951e-06
6.03319e-08
1.7688e-06
6.12253e-08
1.73764e-06
6.21529e-08
1.706e-06
6.31148e-08
1.67387e-06
6.41109e-08
1.64123e-06
6.51412e-08
1.60807e-06
6.62054e-08
1.57437e-06
6.73034e-08
1.54012e-06
6.84345e-08
1.5053e-06
6.95982e-08
1.4699e-06
7.07935e-08
1.43391e-06
7.20194e-08
1.3973e-06
7.32745e-08
1.36008e-06
7.45572e-08
1.32223e-06
7.58656e-08
1.28374e-06
7.71975e-08
1.2446e-06
7.85501e-08
1.20481e-06
7.99205e-08
1.16436e-06
8.1305e-08
1.12326e-06
8.26995e-08
1.08149e-06
8.40992e-08
1.03906e-06
8.54988e-08
9.95987e-07
8.68921e-08
9.52271e-07
8.8272e-08
9.07928e-07
8.96304e-08
8.62977e-07
9.09581e-08
8.17442e-07
9.22448e-08
7.71353e-07
9.34786e-08
7.24745e-07
9.46458e-08
6.77663e-07
9.57312e-08
6.30159e-07
9.67169e-08
5.82295e-07
9.7583e-08
5.34144e-07
9.83064e-08
4.85792e-07
9.88605e-08
4.37339e-07
9.92147e-08
3.88901e-07
9.93337e-08
3.40612e-07
9.91764e-08
2.92631e-07
9.86949e-08
2.45138e-07
9.78325e-08
1.98346e-07
9.6522e-08
1.52499e-07
9.46815e-08
1.07883e-07
9.2213e-08
6.48164e-08
8.89824e-08
2.36685e-08
8.48658e-08
-1.51227e-08
7.973e-08
-5.10428e-08
7.33885e-08
-8.35185e-08
6.56301e-08
-1.11914e-07
5.62015e-08
-1.3552e-07
4.48108e-08
-1.53569e-07
3.11242e-08
-1.65273e-07
1.48137e-08
-1.69856e-07
-4.35314e-09
-1.66658e-07
-2.63622e-08
-1.55292e-07
-5.06427e-08
-1.35669e-07
-7.55489e-08
-1.06764e-07
-9.65714e-08
-6.51938e-08
-1.02528e-07
-8.40749e-08
-1.32481e-08
-4.11386e-13
4.35809e-07
5.21742e-08
9.55815e-13
1.1465e-07
1.45667e-07
6.15926e-13
-9.56432e-08
2.51661e-07
4.54606e-13
-2.4528e-07
3.68728e-07
3.74547e-13
-3.51905e-07
4.95814e-07
3.36415e-13
-4.25201e-07
6.31067e-07
3.077e-13
-4.72911e-07
7.72413e-07
2.9056e-13
-5.01196e-07
9.17721e-07
2.73007e-13
-5.15023e-07
1.0648e-06
2.44532e-13
-5.18364e-07
1.21182e-06
2.12006e-13
-5.14108e-07
1.35728e-06
1.83029e-13
-5.04413e-07
1.49999e-06
1.58662e-13
-4.90867e-07
1.63907e-06
1.40107e-13
-4.74648e-07
1.77383e-06
1.32811e-13
-4.56632e-07
1.90381e-06
1.38181e-13
-4.3747e-07
2.02867e-06
1.47774e-13
-4.17652e-07
2.1482e-06
1.5219e-13
-3.97544e-07
2.26229e-06
1.52128e-13
-3.77417e-07
2.37089e-06
1.53949e-13
-3.57476e-07
2.47401e-06
1.5823e-13
-3.37869e-07
2.57172e-06
1.58799e-13
-3.18706e-07
2.66409e-06
1.517e-13
-3.00063e-07
2.75125e-06
1.40137e-13
-2.81992e-07
2.83332e-06
1.30582e-13
-2.64529e-07
2.91046e-06
1.25534e-13
-2.47692e-07
2.98281e-06
1.22179e-13
-2.3149e-07
3.05054e-06
1.16818e-13
-2.15925e-07
3.11381e-06
1.09421e-13
-2.0099e-07
3.17278e-06
1.03964e-13
-1.86676e-07
3.22761e-06
1.04574e-13
-1.72968e-07
3.27847e-06
1.11635e-13
-1.59852e-07
3.32552e-06
1.20992e-13
-1.47309e-07
3.36891e-06
1.26872e-13
-1.35324e-07
3.4088e-06
1.25713e-13
-1.23876e-07
3.44532e-06
1.18244e-13
-1.12947e-07
3.47863e-06
1.08217e-13
-1.02519e-07
3.50887e-06
9.96231e-14
-9.25744e-08
3.53617e-06
9.40078e-14
-8.30951e-08
3.56066e-06
9.00161e-14
-7.40643e-08
3.58247e-06
8.506e-14
-6.54654e-08
3.60172e-06
7.73994e-14
-5.72825e-08
3.61854e-06
6.74352e-14
-4.95004e-08
3.63303e-06
5.74379e-14
-4.2104e-08
3.64531e-06
5.00532e-14
-3.50792e-08
3.65549e-06
4.67433e-14
-2.8412e-08
3.66367e-06
4.68699e-14
-2.20891e-08
3.66994e-06
4.83496e-14
-1.60975e-08
3.67441e-06
4.87607e-14
-1.04246e-08
3.67717e-06
4.66669e-14
-5.0581e-09
3.67831e-06
4.22468e-14
1.34637e-11
3.67792e-06
3.70911e-14
4.80069e-09
3.67607e-06
3.32747e-14
9.31475e-09
3.67285e-06
3.22686e-14
1.35673e-08
3.66834e-06
3.43103e-14
1.75694e-08
3.6626e-06
3.83626e-14
2.13317e-08
3.65571e-06
4.26838e-14
2.48646e-08
3.64775e-06
4.56415e-14
2.81783e-08
3.63876e-06
4.63891e-14
3.12827e-08
3.62882e-06
4.52563e-14
3.41874e-08
3.61798e-06
4.35493e-14
3.69018e-08
3.60631e-06
4.31399e-14
3.94352e-08
3.59384e-06
4.57315e-14
4.17964e-08
3.58064e-06
5.24327e-14
4.39942e-08
3.56676e-06
6.32869e-14
4.60372e-08
3.55223e-06
7.73416e-14
4.79334e-08
3.53711e-06
9.28795e-14
4.96909e-08
3.52143e-06
1.08006e-13
5.13174e-08
3.50523e-06
1.20876e-13
5.28203e-08
3.48856e-06
1.30204e-13
5.42069e-08
3.47144e-06
1.35441e-13
5.54841e-08
3.4539e-06
1.36692e-13
5.66586e-08
3.43599e-06
1.34596e-13
5.77369e-08
3.41772e-06
1.30025e-13
5.8725e-08
3.39913e-06
1.23971e-13
5.9629e-08
3.38024e-06
1.17205e-13
6.04544e-08
3.36107e-06
1.10251e-13
6.12069e-08
3.34165e-06
1.03355e-13
6.18914e-08
3.32199e-06
9.65377e-14
6.25131e-08
3.30212e-06
8.96196e-14
6.30766e-08
3.28205e-06
8.23876e-14
6.35865e-08
3.2618e-06
7.46854e-14
6.40469e-08
3.24139e-06
6.65443e-14
6.44621e-08
3.22082e-06
5.80858e-14
6.48358e-08
3.20011e-06
4.96585e-14
6.51718e-08
3.17928e-06
4.16458e-14
6.54735e-08
3.15832e-06
3.45507e-14
6.57443e-08
3.13726e-06
2.87862e-14
6.59872e-08
3.1161e-06
2.47027e-14
6.62052e-08
3.09485e-06
2.24926e-14
6.64012e-08
3.07351e-06
2.22324e-14
6.65777e-08
3.05209e-06
2.37728e-14
6.67373e-08
3.0306e-06
2.69422e-14
6.68824e-08
3.00904e-06
3.13171e-14
6.70152e-08
2.98742e-06
3.65161e-14
6.71378e-08
2.96573e-06
4.19822e-14
6.72523e-08
2.94398e-06
4.72869e-14
6.73605e-08
2.92217e-06
5.1877e-14
6.74644e-08
2.90031e-06
5.53534e-14
6.75658e-08
2.87839e-06
5.74108e-14
6.76662e-08
2.85641e-06
5.78583e-14
6.77673e-08
2.83438e-06
5.66527e-14
6.78708e-08
2.81229e-06
5.38563e-14
6.79782e-08
2.79014e-06
4.9778e-14
6.8091e-08
2.76793e-06
4.46935e-14
6.82105e-08
2.74566e-06
3.90643e-14
6.83383e-08
2.72332e-06
3.33779e-14
6.84758e-08
2.70091e-06
2.81199e-14
6.86243e-08
2.67843e-06
2.37675e-14
6.87851e-08
2.65588e-06
2.07265e-14
6.89595e-08
2.63324e-06
1.92641e-14
6.91488e-08
2.61052e-06
1.95243e-14
6.93544e-08
2.5877e-06
2.14898e-14
6.95773e-08
2.56479e-06
2.49853e-14
6.98189e-08
2.54178e-06
2.9702e-14
7.00804e-08
2.51865e-06
3.52375e-14
7.03629e-08
2.49541e-06
4.11719e-14
7.06677e-08
2.47205e-06
4.70544e-14
7.0996e-08
2.44856e-06
5.25066e-14
7.13489e-08
2.42492e-06
5.72841e-14
7.17278e-08
2.40114e-06
6.11941e-14
7.21337e-08
2.3772e-06
6.41952e-14
7.2568e-08
2.35309e-06
6.63358e-14
7.30317e-08
2.32881e-06
6.76369e-14
7.35262e-08
2.30435e-06
6.81816e-14
7.40526e-08
2.27968e-06
6.79699e-14
7.46121e-08
2.25481e-06
6.69985e-14
7.52059e-08
2.22973e-06
6.51979e-14
7.58351e-08
2.20441e-06
6.25368e-14
7.65008e-08
2.17885e-06
5.90951e-14
7.72042e-08
2.15304e-06
5.50428e-14
7.79462e-08
2.12697e-06
5.08517e-14
7.87281e-08
2.10061e-06
4.70526e-14
7.95506e-08
2.07397e-06
4.43118e-14
8.0415e-08
2.04702e-06
4.3042e-14
8.13219e-08
2.01976e-06
4.34305e-14
8.22724e-08
1.99216e-06
4.51514e-14
8.32672e-08
1.96422e-06
4.741e-14
8.43071e-08
1.93593e-06
4.90233e-14
8.53929e-08
1.90726e-06
4.88845e-14
8.65251e-08
1.8782e-06
4.62408e-14
8.77043e-08
1.84874e-06
4.09603e-14