/*--------------------------------*- C++ -*----------------------------------*\
  =========                 |
  \\      /  F ield         | OpenFOAM: The Open Source CFD Toolbox
   \\    /   O peration     | Website:  https://openfoam.org
    \\  /    A nd           | Version:  8
     \\/     M anipulation  |
\*---------------------------------------------------------------------------*/
FoamFile
{
    version     2.0;
    format      ascii;
    class       volScalarField;
    location    "2200";
    object      alphat;
}
// * * * * * * * * * * * * * * * * * * * * * * * * * * * * * * * * * * * * * //

dimensions      [1 -1 -1 0 0 0 0];

internalField   nonuniform List<scalar> 
48000
(
7.72473e-05
6.86716e-05
8.4991e-05
9.7312e-05
0.000107451
0.000115942
0.000123309
0.000130001
0.000136099
0.000141715
0.000146948
0.000151858
0.000156491
0.000160882
0.000165059
0.000169043
0.000172851
0.000176498
0.000179994
0.000183348
0.000186569
0.000189663
0.000192634
0.000195488
0.00019823
0.000200861
0.000203387
0.000205809
0.00020813
0.000210354
0.000212482
0.000214517
0.000216462
0.000218317
0.000220086
0.000221771
0.000223374
0.000224896
0.000226341
0.000227709
0.000229004
0.000230227
0.00023138
0.000232465
0.000233484
0.000234439
0.000235332
0.000236164
0.000236947
0.000237675
0.000238348
0.000238969
0.000239537
0.000240057
0.000240528
0.000240953
0.000241334
0.000241672
0.000241968
0.000242225
0.000242443
0.000242624
0.00024277
0.000242881
0.000242959
0.000243005
0.000243021
0.000243007
0.000242964
0.000242894
0.000242797
0.000242675
0.000242529
0.000242358
0.000242164
0.000241949
0.000241712
0.000241454
0.000241176
0.000240879
0.000240563
0.000240229
0.000239877
0.000239508
0.000239123
0.000238721
0.000238303
0.00023787
0.000237422
0.00023696
0.000236483
0.000235992
0.000235487
0.000234969
0.000234437
0.000233892
0.000233334
0.000232763
0.00023218
0.000231583
0.000230975
0.000230354
0.00022972
0.000229074
0.000228416
0.000227745
0.000227062
0.000226367
0.000225659
0.000224939
0.000224206
0.00022346
0.000222702
0.00022193
0.000221146
0.000220348
0.000219537
0.000218712
0.000217873
0.000217021
0.000216154
0.000215273
0.000214378
0.000213467
0.000212542
0.000211601
0.000210645
0.000209673
0.000208684
0.00020768
0.000206659
0.000205621
0.000204565
0.000203493
0.000202402
0.000201293
0.000200166
0.000199021
0.000197856
0.000196673
0.000195469
0.000194246
0.000193003
0.000191739
0.000190455
0.000189149
0.000187823
0.000186474
0.000185104
0.000183712
0.000182297
0.000180859
0.000179399
0.000177915
0.000176407
0.000174875
0.000173319
0.000171739
0.000170133
0.000168502
0.000166846
0.000165163
0.000163454
0.000161718
0.000159955
0.000158164
0.000156344
0.000154495
0.000152615
0.000150706
0.000148764
0.000146789
0.000144781
0.000142737
0.000140657
0.000138538
0.000136378
0.000134174
0.000131925
0.000129627
0.000127276
0.000124868
0.000122401
0.000119871
0.000117292
0.000114629
0.000111864
0.000108983
0.000105965
0.000102784
9.94068e-05
9.57858e-05
9.18613e-05
8.76059e-05
8.28489e-05
7.73868e-05
7.09119e-05
6.31156e-05
5.5841e-05
0.000225549
7.72448e-05
6.86727e-05
8.49919e-05
9.73127e-05
0.000107452
0.000115942
0.00012331
0.000130001
0.000136099
0.000141716
0.000146949
0.000151858
0.000156491
0.000160882
0.000165059
0.000169043
0.000172852
0.000176498
0.000179994
0.000183349
0.000186569
0.000189663
0.000192634
0.000195489
0.00019823
0.000200862
0.000203387
0.000205809
0.000208131
0.000210354
0.000212482
0.000214517
0.000216462
0.000218317
0.000220086
0.000221771
0.000223374
0.000224896
0.000226341
0.000227709
0.000229004
0.000230227
0.00023138
0.000232465
0.000233484
0.000234439
0.000235332
0.000236164
0.000236947
0.000237675
0.000238348
0.000238968
0.000239537
0.000240057
0.000240528
0.000240953
0.000241334
0.000241672
0.000241968
0.000242225
0.000242443
0.000242624
0.00024277
0.000242881
0.000242959
0.000243005
0.000243021
0.000243007
0.000242964
0.000242894
0.000242797
0.000242675
0.000242528
0.000242358
0.000242164
0.000241949
0.000241712
0.000241454
0.000241176
0.000240879
0.000240563
0.000240229
0.000239877
0.000239508
0.000239123
0.000238721
0.000238303
0.00023787
0.000237422
0.00023696
0.000236483
0.000235992
0.000235487
0.000234968
0.000234437
0.000233892
0.000233334
0.000232763
0.000232179
0.000231583
0.000230975
0.000230354
0.00022972
0.000229074
0.000228416
0.000227745
0.000227062
0.000226367
0.000225659
0.000224939
0.000224206
0.00022346
0.000222702
0.00022193
0.000221146
0.000220348
0.000219537
0.000218712
0.000217873
0.000217021
0.000216154
0.000215273
0.000214378
0.000213467
0.000212542
0.000211601
0.000210645
0.000209673
0.000208684
0.00020768
0.000206659
0.000205621
0.000204565
0.000203493
0.000202402
0.000201293
0.000200166
0.000199021
0.000197856
0.000196673
0.000195469
0.000194246
0.000193003
0.000191739
0.000190455
0.000189149
0.000187823
0.000186474
0.000185104
0.000183712
0.000182297
0.000180859
0.000179399
0.000177915
0.000176407
0.000174875
0.000173319
0.000171739
0.000170133
0.000168502
0.000166846
0.000165163
0.000163454
0.000161718
0.000159955
0.000158164
0.000156344
0.000154495
0.000152615
0.000150705
0.000148764
0.000146789
0.000144781
0.000142737
0.000140657
0.000138538
0.000136378
0.000134174
0.000131925
0.000129627
0.000127276
0.000124868
0.000122401
0.000119871
0.000117292
0.000114629
0.000111864
0.000108983
0.000105965
0.000102784
9.94068e-05
9.57858e-05
9.18612e-05
8.76057e-05
8.28482e-05
7.73833e-05
7.08989e-05
6.30809e-05
5.58363e-05
0.000225237
5.94887e-05
0.000438023
0.000696587
0.000876005
0.00101071
0.00112119
0.00121582
0.00129867
0.00137283
0.00144021
0.00150205
0.0015593
0.00161265
0.00166265
0.00170971
0.00175417
0.00179631
0.00183633
0.00187443
0.00191075
0.00194544
0.00197858
0.00201028
0.00204061
0.00206965
0.00209746
0.00212408
0.00214958
0.00217398
0.00219734
0.00221968
0.00224105
0.00226146
0.00228096
0.00229957
0.00231732
0.00233423
0.00235033
0.00236564
0.00238019
0.002394
0.00240708
0.00241946
0.00243117
0.00244221
0.00245261
0.00246237
0.00247147
0.00247981
0.00248755
0.00249475
0.00250143
0.00250762
0.00251333
0.00251859
0.00252341
0.0025278
0.00253177
0.00253535
0.00253855
0.00254138
0.00254384
0.00254596
0.00254775
0.0025492
0.00255035
0.00255119
0.00255174
0.00255201
0.002552
0.00255172
0.00255119
0.00255041
0.00254938
0.00254812
0.00254663
0.00254492
0.002543
0.00254087
0.00253854
0.002536
0.00253328
0.00253037
0.00252727
0.002524
0.00252055
0.00251693
0.00251315
0.0025092
0.00250509
0.00250082
0.0024964
0.00249182
0.00248709
0.00248222
0.00247719
0.00247202
0.00246671
0.00246125
0.00245565
0.00244991
0.00244402
0.002438
0.00243183
0.00242553
0.00241908
0.00241249
0.00240576
0.00239889
0.00239187
0.00238471
0.0023774
0.00236995
0.00236235
0.0023546
0.0023467
0.00233865
0.00233044
0.00232207
0.00231355
0.00230487
0.00229602
0.00228701
0.00227783
0.00226848
0.00225896
0.00224926
0.00223938
0.00222933
0.00221909
0.00220866
0.00219805
0.00218724
0.00217624
0.00216504
0.00215364
0.00214204
0.00213023
0.00211821
0.00210597
0.00209352
0.00208086
0.00206797
0.00205485
0.00204151
0.00202794
0.00201413
0.00200009
0.0019858
0.00197127
0.0019565
0.00194148
0.0019262
0.00191067
0.00189488
0.00187883
0.0018625
0.00184591
0.00182905
0.0018119
0.00179447
0.00177675
0.00175874
0.00174043
0.00172181
0.00170287
0.00168362
0.00166403
0.0016441
0.00162382
0.00160318
0.00158215
0.00156073
0.0015389
0.00151663
0.0014939
0.00147068
0.00144693
0.00142262
0.0013977
0.00137211
0.00134577
0.00131858
0.00129038
0.00126098
0.00123034
0.00119835
0.00116484
0.00112951
0.00109201
0.00105182
0.00100812
0.000959573
0.000903557
0.000838723
0.000760853
0.000661298
0.000517589
0.000274801
4.30993e-05
5.9489e-05
0.000438043
0.000696618
0.00087604
0.00101075
0.00112123
0.00121585
0.00129871
0.00137286
0.00144024
0.00150209
0.00155933
0.00161269
0.00166268
0.00170974
0.0017542
0.00179633
0.00183636
0.00187445
0.00191078
0.00194546
0.0019786
0.0020103
0.00204063
0.00206967
0.00209748
0.0021241
0.0021496
0.002174
0.00219736
0.0022197
0.00224106
0.00226148
0.00228098
0.00229959
0.00231734
0.00233425
0.00235035
0.00236566
0.00238021
0.00239401
0.00240709
0.00241948
0.00243118
0.00244222
0.00245262
0.00246238
0.00247149
0.00247982
0.00248757
0.00249476
0.00250144
0.00250763
0.00251335
0.0025186
0.00252342
0.00252781
0.00253179
0.00253537
0.00253856
0.00254139
0.00254385
0.00254597
0.00254776
0.00254922
0.00255036
0.0025512
0.00255175
0.00255202
0.00255201
0.00255173
0.0025512
0.00255042
0.00254939
0.00254813
0.00254664
0.00254493
0.00254301
0.00254088
0.00253855
0.00253601
0.00253329
0.00253038
0.00252728
0.00252401
0.00252056
0.00251694
0.00251316
0.00250921
0.0025051
0.00250083
0.00249641
0.00249183
0.0024871
0.00248223
0.0024772
0.00247203
0.00246672
0.00246126
0.00245566
0.00244992
0.00244403
0.00243801
0.00243184
0.00242554
0.00241909
0.0024125
0.00240577
0.00239889
0.00239188
0.00238472
0.00237741
0.00236996
0.00236236
0.00235461
0.00234671
0.00233865
0.00233045
0.00232208
0.00231356
0.00230487
0.00229603
0.00228702
0.00227784
0.00226849
0.00225896
0.00224927
0.00223939
0.00222934
0.0022191
0.00220867
0.00219806
0.00218725
0.00217625
0.00216505
0.00215365
0.00214204
0.00213023
0.00211821
0.00210598
0.00209353
0.00208086
0.00206797
0.00205486
0.00204152
0.00202794
0.00201414
0.00200009
0.00198581
0.00197128
0.00195651
0.00194149
0.00192621
0.00191068
0.00189489
0.00187883
0.00186251
0.00184592
0.00182905
0.00181191
0.00179448
0.00177676
0.00175875
0.00174043
0.00172181
0.00170288
0.00168362
0.00166404
0.00164411
0.00162383
0.00160318
0.00158216
0.00156074
0.00153891
0.00151664
0.0014939
0.00147068
0.00144694
0.00142263
0.00139771
0.00137212
0.00134578
0.00131858
0.00129039
0.00126098
0.00123034
0.00119836
0.00116484
0.00112952
0.00109202
0.00105182
0.00100813
0.000959578
0.000903562
0.000838731
0.000760885
0.000661455
0.000518135
0.000274773
4.30863e-05
7.28171e-05
0.000663542
0.00118001
0.0015657
0.00187121
0.00212535
0.00234391
0.00253608
0.00270789
0.00286345
0.00300567
0.00313669
0.00325815
0.00337135
0.00347729
0.00357682
0.00367061
0.00375923
0.00384316
0.00392281
0.00399851
0.00407057
0.00413923
0.00420473
0.00426726
0.00432698
0.00438406
0.00443861
0.00449078
0.00454065
0.00458834
0.00463393
0.00467751
0.00471915
0.00475892
0.00479689
0.00483312
0.00486768
0.00490061
0.00493197
0.0049618
0.00499017
0.00501711
0.00504267
0.00506688
0.00508978
0.00511138
0.00513169
0.00515067
0.00516845
0.00518511
0.0052007
0.00521528
0.00522888
0.00524154
0.00525329
0.00526417
0.00527421
0.00528344
0.00529187
0.00529954
0.00530647
0.00531269
0.00531822
0.00532308
0.00532729
0.00533088
0.00533385
0.00533624
0.00533805
0.00533931
0.00534003
0.00534022
0.00533991
0.00533911
0.00533782
0.00533607
0.00533386
0.00533121
0.00532813
0.00532463
0.00532072
0.0053164
0.00531169
0.0053066
0.00530113
0.00529529
0.00528909
0.00528254
0.00527563
0.00526838
0.00526079
0.00525286
0.00524461
0.00523602
0.00522712
0.00521789
0.00520834
0.00519848
0.0051883
0.00517781
0.00516701
0.00515589
0.00514446
0.00513272
0.00512067
0.0051083
0.00509562
0.00508262
0.00506931
0.00505567
0.00504171
0.00502743
0.00501282
0.00499787
0.0049826
0.00496698
0.00495102
0.00493471
0.00491806
0.00490104
0.00488367
0.00486593
0.00484782
0.00482933
0.00481046
0.0047912
0.00477155
0.00475151
0.00473105
0.00471018
0.0046889
0.00466719
0.00464505
0.00462248
0.00459946
0.00457599
0.00455206
0.00452766
0.0045028
0.00447746
0.00445163
0.0044253
0.00439848
0.00437115
0.0043433
0.00431493
0.00428603
0.00425659
0.0042266
0.00419606
0.00416495
0.00413326
0.004101
0.00406813
0.00403467
0.00400058
0.00396587
0.00393052
0.00389451
0.00385784
0.00382048
0.00378242
0.00374363
0.00370411
0.00366382
0.00362274
0.00358084
0.00353809
0.00349446
0.0034499
0.00340438
0.00335784
0.00331022
0.00326147
0.00321151
0.00316024
0.00310758
0.0030534
0.00299756
0.0029399
0.0028802
0.00281821
0.00275362
0.00268605
0.00261516
0.00254049
0.00246139
0.00237701
0.00228625
0.00218758
0.00207883
0.00195687
0.00181703
0.00165394
0.00145874
0.00121703
0.000904863
0.000485927
5.36187e-05
7.28175e-05
0.000663569
0.00118007
0.00156577
0.00187129
0.00212542
0.00234398
0.00253615
0.00270797
0.00286353
0.00300574
0.00313676
0.00325822
0.00337141
0.00347735
0.00357688
0.00367067
0.00375929
0.00384322
0.00392286
0.00399856
0.00407061
0.00413928
0.00420478
0.0042673
0.00432702
0.00438409
0.00443865
0.00449081
0.00454069
0.00458837
0.00463396
0.00467754
0.00471918
0.00475895
0.00479692
0.00483315
0.0048677
0.00490063
0.00493199
0.00496182
0.00499019
0.00501713
0.00504269
0.0050669
0.00508979
0.0051114
0.00513171
0.00515068
0.00516846
0.00518512
0.00520071
0.00521529
0.00522889
0.00524155
0.0052533
0.00526418
0.00527422
0.00528344
0.00529188
0.00529955
0.00530648
0.0053127
0.00531823
0.00532309
0.0053273
0.00533088
0.00533386
0.00533624
0.00533805
0.00533931
0.00534003
0.00534023
0.00533992
0.00533911
0.00533783
0.00533607
0.00533387
0.00533122
0.00532813
0.00532463
0.00532072
0.0053164
0.00531169
0.0053066
0.00530113
0.00529529
0.00528909
0.00528254
0.00527563
0.00526838
0.00526079
0.00525286
0.00524461
0.00523603
0.00522712
0.00521789
0.00520834
0.00519848
0.0051883
0.00517781
0.00516701
0.00515589
0.00514446
0.00513272
0.00512067
0.0051083
0.00509562
0.00508262
0.00506931
0.00505567
0.00504171
0.00502743
0.00501282
0.00499787
0.00498259
0.00496698
0.00495102
0.00493471
0.00491805
0.00490104
0.00488367
0.00486593
0.00484782
0.00482933
0.00481046
0.0047912
0.00477155
0.0047515
0.00473105
0.00471018
0.0046889
0.00466719
0.00464505
0.00462248
0.00459946
0.00457598
0.00455206
0.00452766
0.0045028
0.00447745
0.00445162
0.0044253
0.00439848
0.00437115
0.0043433
0.00431493
0.00428603
0.00425659
0.0042266
0.00419606
0.00416495
0.00413326
0.00410099
0.00406813
0.00403466
0.00400058
0.00396587
0.00393052
0.00389451
0.00385784
0.00382048
0.00378241
0.00374363
0.0037041
0.00366381
0.00362273
0.00358083
0.00353809
0.00349445
0.0034499
0.00340438
0.00335784
0.00331022
0.00326147
0.00321151
0.00316024
0.00310758
0.0030534
0.00299756
0.0029399
0.0028802
0.00281821
0.00275361
0.00268605
0.00261516
0.00254049
0.00246139
0.00237701
0.00228625
0.00218758
0.00207883
0.00195687
0.00181703
0.00165394
0.00145873
0.00121703
0.000904916
0.000485622
5.36482e-05
8.26543e-05
0.000795861
0.00149847
0.00205741
0.00251501
0.00290215
0.00323819
0.00353554
0.00380252
0.00404493
0.004267
0.00447186
0.00466195
0.00483916
0.00500503
0.00516082
0.00530754
0.00544609
0.0055772
0.00570149
0.00581952
0.00593174
0.00603859
0.00614041
0.00623752
0.00633021
0.00641873
0.0065033
0.00658412
0.00666138
0.00673525
0.00680587
0.00687338
0.00693792
0.00699959
0.00705851
0.00711479
0.00716852
0.00721979
0.00726868
0.00731529
0.00735968
0.00740193
0.0074421
0.00748027
0.00751647
0.00755076
0.00758317
0.00761371
0.00764251
0.00766964
0.00769518
0.0077192
0.00774175
0.0077629
0.00778269
0.00780117
0.00781839
0.00783438
0.0078492
0.00786288
0.00787545
0.00788695
0.00789742
0.00790689
0.00791539
0.00792295
0.00792959
0.00793535
0.00794026
0.00794432
0.00794758
0.00795005
0.00795176
0.00795272
0.00795296
0.0079525
0.00795134
0.00794952
0.00794704
0.00794392
0.00794018
0.00793583
0.00793088
0.00792535
0.00791924
0.00791257
0.00790534
0.00789757
0.00788927
0.00788044
0.00787108
0.00786121
0.00785084
0.00783996
0.00782858
0.00781671
0.00780435
0.0077915
0.00777816
0.00776434
0.00775004
0.00773525
0.00771999
0.00770424
0.007688
0.00767128
0.00765408
0.00763638
0.00761819
0.00759951
0.00758032
0.00756063
0.00754044
0.00751973
0.0074985
0.00747674
0.00745446
0.00743164
0.00740827
0.00738435
0.00735987
0.00733483
0.0073092
0.007283
0.0072562
0.00722881
0.0072008
0.00717217
0.00714291
0.00711302
0.00708247
0.00705126
0.00701939
0.00698683
0.00695358
0.00691963
0.00688497
0.00684958
0.00681345
0.00677658
0.00673894
0.00670053
0.00666134
0.00662134
0.00658053
0.0065389
0.00649643
0.0064531
0.0064089
0.00636382
0.00631784
0.00627093
0.00622309
0.00617429
0.00612452
0.00607375
0.00602195
0.00596912
0.00591521
0.00586019
0.00580405
0.00574674
0.00568823
0.00562848
0.00556745
0.00550508
0.00544132
0.00537611
0.00530939
0.00524108
0.0051711
0.00509936
0.00502574
0.00495013
0.00487239
0.00479235
0.00470984
0.00462463
0.00453648
0.00444507
0.00435005
0.00425098
0.00414735
0.00403853
0.00392381
0.0038023
0.00367284
0.00353397
0.00338374
0.00321962
0.00303817
0.00283487
0.00260344
0.00233548
0.00201992
0.00164052
0.00117544
0.000604897
6.25465e-05
8.2655e-05
0.000795889
0.00149853
0.0020575
0.00251511
0.00290226
0.0032383
0.00353565
0.00380263
0.00404504
0.00426711
0.00447197
0.00466205
0.00483926
0.00500513
0.00516091
0.00530764
0.00544618
0.00557728
0.00570157
0.00581959
0.00593182
0.00603866
0.00614047
0.00623758
0.00633027
0.00641878
0.00650335
0.00658417
0.00666143
0.00673529
0.00680591
0.00687342
0.00693795
0.00699962
0.00705855
0.00711482
0.00716855
0.00721981
0.00726871
0.00731531
0.0073597
0.00740195
0.00744212
0.00748029
0.00751649
0.00755078
0.00758318
0.00761372
0.00764252
0.00766965
0.00769519
0.00771921
0.00774176
0.00776291
0.00778269
0.00780118
0.00781839
0.00783439
0.00784921
0.00786288
0.00787545
0.00788696
0.00789743
0.0079069
0.00791539
0.00792295
0.00792959
0.00793535
0.00794026
0.00794432
0.00794758
0.00795005
0.00795176
0.00795272
0.00795296
0.00795249
0.00795134
0.00794952
0.00794704
0.00794392
0.00794018
0.00793583
0.00793088
0.00792534
0.00791924
0.00791256
0.00790534
0.00789757
0.00788926
0.00788043
0.00787108
0.00786121
0.00785083
0.00783995
0.00782858
0.00781671
0.00780434
0.00779149
0.00777816
0.00776434
0.00775003
0.00773525
0.00771998
0.00770423
0.00768799
0.00767127
0.00765407
0.00763637
0.00761818
0.0075995
0.00758031
0.00756063
0.00754043
0.00751972
0.00749849
0.00747673
0.00745445
0.00743163
0.00740826
0.00738434
0.00735986
0.00733482
0.0073092
0.00728299
0.00725619
0.0072288
0.00720079
0.00717216
0.0071429
0.00711301
0.00708246
0.00705125
0.00701938
0.00698682
0.00695357
0.00691962
0.00688496
0.00684957
0.00681344
0.00677657
0.00673893
0.00670052
0.00666132
0.00662133
0.00658052
0.00653889
0.00649642
0.00645309
0.00640889
0.00636381
0.00631783
0.00627092
0.00622308
0.00617428
0.00612451
0.00607374
0.00602194
0.0059691
0.00591519
0.00586018
0.00580404
0.00574673
0.00568822
0.00562847
0.00556744
0.00550507
0.00544131
0.0053761
0.00530938
0.00524107
0.00517109
0.00509935
0.00502573
0.00495012
0.00487238
0.00479234
0.00470983
0.00462462
0.00453647
0.00444506
0.00435004
0.00425097
0.00414734
0.00403852
0.0039238
0.00380229
0.00367284
0.00353396
0.00338374
0.00321961
0.00303817
0.00283487
0.00260343
0.00233548
0.00201992
0.00164052
0.00117545
0.000604819
6.25512e-05
9.05511e-05
0.00088796
0.00172612
0.00242177
0.00300486
0.0035052
0.00394357
0.0043341
0.00468662
0.00500812
0.00530374
0.00557737
0.00583199
0.00606998
0.00629322
0.00650328
0.00670146
0.00688884
0.00706635
0.0072348
0.00739487
0.00754717
0.00769223
0.00783052
0.00796245
0.00808841
0.00820872
0.00832368
0.00843358
0.00853865
0.00863913
0.00873522
0.00882711
0.00891498
0.00899901
0.00907933
0.00915609
0.00922943
0.00929948
0.00936635
0.00943016
0.00949102
0.00954902
0.00960426
0.00965683
0.0097068
0.00975426
0.00979926
0.00984186
0.00988218
0.00992032
0.00995635
0.00999036
0.0100224
0.0100527
0.0100811
0.0101077
0.0101327
0.0101561
0.010178
0.0101983
0.0102171
0.0102346
0.0102507
0.0102654
0.0102789
0.0102911
0.0103022
0.010312
0.0103208
0.0103284
0.010335
0.0103405
0.010345
0.0103485
0.0103511
0.0103527
0.0103534
0.0103533
0.0103522
0.0103504
0.0103477
0.0103442
0.0103399
0.0103348
0.0103289
0.0103224
0.010315
0.010307
0.0102982
0.0102888
0.0102786
0.0102678
0.0102563
0.0102441
0.0102313
0.0102177
0.0102036
0.0101888
0.0101733
0.0101572
0.0101405
0.0101231
0.010105
0.0100863
0.010067
0.010047
0.0100264
0.0100051
0.00998316
0.00996055
0.00993727
0.00991331
0.00988867
0.00986335
0.00983733
0.0098106
0.00978317
0.00975501
0.00972612
0.00969649
0.00966611
0.00963497
0.00960306
0.00957036
0.00953687
0.00950256
0.00946744
0.00943148
0.00939468
0.00935701
0.00931847
0.00927904
0.0092387
0.00919744
0.00915525
0.00911211
0.00906801
0.00902292
0.00897683
0.00892972
0.00888158
0.00883238
0.00878212
0.00873076
0.00867829
0.0086247
0.00856995
0.00851403
0.00845691
0.00839856
0.00833898
0.00827812
0.00821596
0.00815247
0.00808761
0.00802137
0.00795369
0.00788454
0.00781389
0.00774168
0.00766786
0.00759239
0.00751521
0.00743626
0.00735547
0.00727275
0.00718804
0.00710124
0.00701224
0.00692094
0.0068272
0.00673088
0.00663182
0.00652984
0.00642473
0.00631624
0.0062041
0.00608798
0.00596751
0.00584223
0.00571163
0.00557507
0.00543182
0.00528098
0.00512149
0.00495202
0.00477093
0.00457617
0.00436509
0.00413432
0.00387953
0.00359505
0.00327351
0.00290531
0.00247846
0.00197723
0.0013835
0.000690302
6.86955e-05
9.05519e-05
0.000887989
0.00172619
0.00242186
0.00300497
0.00350533
0.00394371
0.00433424
0.00468676
0.00500826
0.00530388
0.00557751
0.00583213
0.00607011
0.00629335
0.0065034
0.00670158
0.00688895
0.00706646
0.00723491
0.00739497
0.00754727
0.00769232
0.0078306
0.00796254
0.00808849
0.00820879
0.00832376
0.00843365
0.00853872
0.00863919
0.00873528
0.00882717
0.00891504
0.00899905
0.00907937
0.00915613
0.00922947
0.00929952
0.00936639
0.0094302
0.00949105
0.00954905
0.00960429
0.00965685
0.00970683
0.00975428
0.00979928
0.00984188
0.0098822
0.00992033
0.00995636
0.00999038
0.0100225
0.0100527
0.0100811
0.0101078
0.0101328
0.0101561
0.010178
0.0101983
0.0102171
0.0102346
0.0102507
0.0102654
0.0102789
0.0102911
0.0103022
0.010312
0.0103208
0.0103284
0.0103349
0.0103405
0.010345
0.0103485
0.0103511
0.0103527
0.0103534
0.0103533
0.0103522
0.0103504
0.0103477
0.0103442
0.0103399
0.0103348
0.0103289
0.0103224
0.010315
0.010307
0.0102982
0.0102888
0.0102786
0.0102678
0.0102563
0.0102441
0.0102312
0.0102177
0.0102036
0.0101888
0.0101733
0.0101572
0.0101404
0.0101231
0.010105
0.0100863
0.010067
0.010047
0.0100264
0.0100051
0.00998315
0.00996054
0.00993725
0.0099133
0.00988866
0.00986334
0.00983732
0.00981059
0.00978316
0.009755
0.00972611
0.00969648
0.0096661
0.00963496
0.00960305
0.00957035
0.00953685
0.00950255
0.00946743
0.00943147
0.00939466
0.009357
0.00931845
0.00927902
0.00923869
0.00919743
0.00915524
0.0091121
0.00906799
0.0090229
0.00897681
0.0089297
0.00888156
0.00883237
0.0087821
0.00873075
0.00867828
0.00862468
0.00856993
0.00851401
0.00845689
0.00839855
0.00833896
0.0082781
0.00821594
0.00815245
0.0080876
0.00802135
0.00795367
0.00788453
0.00781387
0.00774166
0.00766785
0.00759238
0.0075152
0.00743625
0.00735545
0.00727274
0.00718803
0.00710122
0.00701223
0.00692092
0.00682718
0.00673087
0.00663181
0.00652983
0.00642472
0.00631623
0.00620408
0.00608797
0.00596749
0.00584222
0.00571162
0.00557506
0.00543181
0.00528097
0.00512148
0.00495201
0.00477092
0.00457616
0.00436508
0.00413432
0.00387952
0.00359505
0.00327351
0.00290531
0.00247846
0.00197723
0.0013835
0.000690285
6.86963e-05
9.72682e-05
0.000961747
0.00190307
0.00270616
0.00339104
0.0039855
0.00451059
0.00498134
0.0054085
0.00579988
0.00616126
0.00649702
0.00681056
0.00710457
0.0073812
0.00764221
0.00788908
0.00812302
0.00834511
0.00855623
0.00875719
0.00894866
0.00913127
0.00930555
0.00947198
0.00963101
0.00978303
0.0099284
0.0100674
0.0102005
0.0103277
0.0104495
0.010566
0.0106775
0.0107842
0.0108862
0.0109837
0.011077
0.0111661
0.0112513
0.0113326
0.0114103
0.0114844
0.011555
0.0116223
0.0116864
0.0117473
0.0118052
0.0118602
0.0119124
0.0119619
0.0120087
0.0120531
0.012095
0.0121346
0.012172
0.0122073
0.0122404
0.0122716
0.0123008
0.0123282
0.0123537
0.0123775
0.0123996
0.01242
0.0124389
0.0124562
0.0124721
0.0124865
0.0124995
0.0125111
0.0125214
0.0125305
0.0125383
0.0125448
0.0125502
0.0125545
0.0125576
0.0125596
0.0125606
0.0125605
0.0125594
0.0125573
0.0125542
0.0125501
0.0125452
0.0125393
0.0125325
0.0125248
0.0125162
0.0125067
0.0124964
0.0124853
0.0124733
0.0124605
0.0124468
0.0124324
0.0124171
0.0124011
0.0123842
0.0123666
0.0123481
0.0123288
0.0123088
0.0122879
0.0122663
0.0122438
0.0122206
0.0121965
0.0121716
0.0121459
0.0121193
0.0120919
0.0120637
0.0120346
0.0120047
0.0119739
0.0119422
0.0119096
0.0118761
0.0118416
0.0118063
0.01177
0.0117327
0.0116944
0.0116552
0.0116149
0.0115737
0.0115314
0.011488
0.0114435
0.011398
0.0113513
0.0113036
0.0112546
0.0112045
0.0111532
0.0111007
0.0110469
0.0109919
0.0109356
0.010878
0.0108191
0.0107588
0.0106972
0.0106341
0.0105696
0.0105037
0.0104362
0.0103672
0.0102967
0.0102246
0.0101508
0.0100754
0.00999826
0.00991938
0.0098387
0.00975617
0.00967175
0.00958536
0.00949696
0.00940647
0.00931383
0.00921895
0.00912176
0.00902214
0.00892002
0.00881526
0.00870775
0.00859734
0.00848389
0.00836721
0.00824712
0.00812339
0.00799578
0.007864
0.00772774
0.00758661
0.00744018
0.00728796
0.00712935
0.00696367
0.0067901
0.00660767
0.00641522
0.00621136
0.00599439
0.00576225
0.00551235
0.0052415
0.0049457
0.00461991
0.00425782
0.00385146
0.00339091
0.00286393
0.00225629
0.00155389
0.000759873
7.38837e-05
9.72689e-05
0.000961777
0.00190314
0.00270626
0.00339117
0.00398564
0.00451074
0.0049815
0.00540866
0.00580004
0.00616142
0.00649718
0.00681072
0.00710473
0.00738135
0.00764236
0.00788922
0.00812316
0.00834524
0.00855636
0.00875731
0.00894878
0.00913138
0.00930565
0.00947208
0.00963111
0.00978313
0.00992849
0.0100675
0.0102005
0.0103278
0.0104496
0.0105661
0.0106776
0.0107842
0.0108862
0.0109838
0.0110771
0.0111662
0.0112514
0.0113327
0.0114103
0.0114844
0.011555
0.0116223
0.0116864
0.0117473
0.0118053
0.0118603
0.0119124
0.0119619
0.0120087
0.0120531
0.012095
0.0121347
0.0121721
0.0122073
0.0122405
0.0122716
0.0123008
0.0123282
0.0123537
0.0123775
0.0123996
0.01242
0.0124389
0.0124562
0.0124721
0.0124865
0.0124995
0.0125111
0.0125214
0.0125305
0.0125383
0.0125448
0.0125502
0.0125545
0.0125576
0.0125596
0.0125606
0.0125605
0.0125594
0.0125573
0.0125542
0.0125501
0.0125452
0.0125393
0.0125325
0.0125247
0.0125162
0.0125067
0.0124964
0.0124853
0.0124733
0.0124605
0.0124468
0.0124324
0.0124171
0.0124011
0.0123842
0.0123666
0.0123481
0.0123288
0.0123088
0.0122879
0.0122663
0.0122438
0.0122206
0.0121965
0.0121716
0.0121459
0.0121193
0.0120919
0.0120637
0.0120346
0.0120047
0.0119739
0.0119422
0.0119096
0.011876
0.0118416
0.0118063
0.0117699
0.0117327
0.0116944
0.0116552
0.0116149
0.0115737
0.0115313
0.011488
0.0114435
0.011398
0.0113513
0.0113035
0.0112546
0.0112045
0.0111532
0.0111007
0.0110469
0.0109919
0.0109356
0.010878
0.0108191
0.0107588
0.0106972
0.0106341
0.0105696
0.0105036
0.0104362
0.0103672
0.0102967
0.0102246
0.0101508
0.0100754
0.00999825
0.00991936
0.00983868
0.00975616
0.00967173
0.00958535
0.00949694
0.00940646
0.00931381
0.00921894
0.00912174
0.00902213
0.00892
0.00881524
0.00870773
0.00859732
0.00848387
0.00836719
0.0082471
0.00812338
0.00799576
0.00786399
0.00772772
0.00758659
0.00744017
0.00728794
0.00712934
0.00696366
0.00679008
0.00660765
0.0064152
0.00621134
0.00599438
0.00576224
0.00551234
0.00524149
0.00494569
0.0046199
0.00425781
0.00385146
0.00339091
0.00286393
0.00225629
0.00155389
0.000759866
7.38838e-05
0.000103427
0.00102462
0.00204891
0.00293816
0.00370592
0.00437827
0.00497621
0.00551526
0.00600675
0.00645902
0.0068783
0.00726934
0.00763582
0.00798064
0.00830612
0.00861416
0.00890633
0.00918396
0.00944815
0.00969987
0.00993997
0.0101692
0.0103881
0.0105975
0.0107976
0.0109891
0.0111724
0.0113479
0.0115158
0.0116767
0.0118307
0.0119782
0.0121194
0.0122545
0.012384
0.0125078
0.0126263
0.0127397
0.0128482
0.0129518
0.0130509
0.0131456
0.0132359
0.0133222
0.0134044
0.0134829
0.0135576
0.0136286
0.0136963
0.0137605
0.0138215
0.0138794
0.0139344
0.0139864
0.0140357
0.0140823
0.0141264
0.0141679
0.0142071
0.0142439
0.0142785
0.014311
0.0143414
0.0143697
0.0143961
0.0144207
0.0144434
0.0144643
0.0144835
0.0145011
0.014517
0.0145314
0.0145442
0.0145556
0.0145655
0.0145741
0.0145812
0.0145871
0.0145916
0.0145949
0.014597
0.0145978
0.0145975
0.014596
0.0145934
0.0145896
0.0145848
0.0145789
0.014572
0.014564
0.014555
0.014545
0.014534
0.014522
0.014509
0.014495
0.0144801
0.0144643
0.0144475
0.0144297
0.014411
0.0143914
0.0143708
0.0143493
0.0143268
0.0143034
0.014279
0.0142537
0.0142274
0.0142002
0.014172
0.0141428
0.0141126
0.0140814
0.0140492
0.014016
0.0139817
0.0139464
0.01391
0.0138726
0.013834
0.0137944
0.0137536
0.0137117
0.0136686
0.0136244
0.0135789
0.0135322
0.0134843
0.0134351
0.0133847
0.0133329
0.0132798
0.0132254
0.0131695
0.0131123
0.0130537
0.0129935
0.012932
0.0128689
0.0128042
0.012738
0.0126702
0.0126008
0.0125297
0.0124569
0.0123823
0.012306
0.0122279
0.0121479
0.0120661
0.0119823
0.0118965
0.0118087
0.0117188
0.0116267
0.0115325
0.011436
0.0113372
0.0112359
0.0111322
0.0110259
0.010917
0.0108053
0.0106907
0.0105731
0.0104524
0.0103285
0.0102011
0.0100702
0.0099354
0.00979664
0.00965362
0.00950607
0.00935369
0.0091961
0.00903292
0.00886367
0.00868781
0.00850474
0.00831372
0.0081139
0.00790429
0.00768371
0.00745076
0.00720376
0.0069407
0.00665911
0.00635602
0.00602778
0.00566992
0.00527695
0.00484211
0.0043572
0.00381227
0.00319565
0.00249472
0.00169898
0.000819552
7.84404e-05
0.000103427
0.00102465
0.00204898
0.00293827
0.00370605
0.00437842
0.00497638
0.00551543
0.00600693
0.0064592
0.00687848
0.00726952
0.007636
0.00798081
0.00830629
0.00861433
0.00890649
0.00918411
0.0094483
0.00970002
0.00994011
0.0101693
0.0103883
0.0105976
0.0107977
0.0109893
0.0111725
0.011348
0.0115159
0.0116768
0.0118308
0.0119782
0.0121194
0.0122546
0.012384
0.0125079
0.0126264
0.0127398
0.0128482
0.0129519
0.013051
0.0131456
0.013236
0.0133222
0.0134045
0.0134829
0.0135576
0.0136287
0.0136963
0.0137605
0.0138215
0.0138795
0.0139344
0.0139864
0.0140357
0.0140823
0.0141264
0.0141679
0.0142071
0.0142439
0.0142785
0.014311
0.0143414
0.0143697
0.0143962
0.0144207
0.0144434
0.0144643
0.0144835
0.0145011
0.014517
0.0145314
0.0145442
0.0145556
0.0145655
0.0145741
0.0145812
0.0145871
0.0145916
0.0145949
0.014597
0.0145978
0.0145975
0.014596
0.0145934
0.0145896
0.0145848
0.0145789
0.014572
0.014564
0.014555
0.014545
0.014534
0.014522
0.014509
0.014495
0.0144801
0.0144643
0.0144475
0.0144297
0.014411
0.0143914