/*--------------------------------*- C++ -*----------------------------------*\
  =========                 |
  \\      /  F ield         | OpenFOAM: The Open Source CFD Toolbox
   \\    /   O peration     | Website:  https://openfoam.org
    \\  /    A nd           | Version:  8
     \\/     M anipulation  |
\*---------------------------------------------------------------------------*/
FoamFile
{
    version     2.0;
    format      ascii;
    class       volScalarField;
    location    "2200";
    object      epsilon;
}
// * * * * * * * * * * * * * * * * * * * * * * * * * * * * * * * * * * * * * //

dimensions      [0 2 -3 0 0 0 0];

internalField   nonuniform List<scalar> 
48000
(
0.646329
2.54098
4.81771
7.23265
9.73704
12.2324
14.7156
17.2445
19.7861
22.3381
24.9052
27.4861
30.0793
32.6833
35.2958
37.9142
40.5354
43.1559
45.7721
48.3799
50.9753
53.5541
56.1118
58.6441
61.1468
63.6157
66.0467
68.4357
70.7791
73.0734
75.3151
77.5012
79.6289
81.6957
83.6993
85.6376
87.5091
89.3121
91.0456
92.7087
94.3005
95.8207
97.269
98.6454
99.9499
101.183
102.344
103.435
104.468
105.435
106.335
107.168
107.937
108.641
109.284
109.865
110.388
110.853
111.263
111.618
111.921
112.173
112.376
112.531
112.64
112.705
112.728
112.709
112.65
112.553
112.42
112.251
112.048
111.812
111.545
111.248
110.921
110.567
110.187
109.78
109.349
108.895
108.418
107.919
107.399
106.859
106.299
105.721
105.125
104.512
103.883
103.237
102.576
101.901
101.211
100.507
99.7893
99.0589
98.316
97.5608
96.7937
96.0151
95.2253
94.4244
93.6129
92.7909
91.9587
91.1165
90.2645
89.4028
88.5317
87.6513
86.7617
85.8632
84.9557
84.0396
83.1148
82.1815
81.2399
80.2899
79.3318
78.3657
77.3916
76.4097
75.4202
74.423
73.4184
72.4065
71.3874
70.3613
69.3283
68.2886
67.2424
66.1899
65.1313
64.0668
62.9966
61.9209
60.8401
59.7545
58.6642
57.5696
56.471
55.3689
54.2634
53.155
52.0442
50.9312
49.8165
48.7005
47.5838
46.4667
45.3497
44.2334
43.1181
42.0045
40.8931
39.7843
38.6787
37.5769
36.4793
35.3866
34.2992
33.2178
32.1428
31.0747
30.0141
28.9614
27.9173
26.882
25.8561
24.84
23.8341
22.8388
21.8544
20.8812
19.9194
18.9693
18.0311
17.1049
16.1908
15.289
14.4004
13.5257
12.671
11.8275
10.992
10.1643
9.34301
8.52659
7.71328
6.90068
6.08665
5.27914
4.46422
3.63479
2.78177
1.89353
0.976008
0.17684
0.646369
2.54109
4.81788
7.23288
9.73729
12.2327
14.7159
17.2449
19.7864
22.3384
24.9055
27.4864
30.0797
32.6837
35.2962
37.9145
40.5357
43.1562
45.7724
48.3802
50.9756
53.5543
56.112
58.6444
61.1471
63.616
66.0469
68.436
70.7794
73.0736
75.3153
77.5014
79.6291
81.6959
83.6994
85.6378
87.5092
89.3123
91.0458
92.7088
94.3006
95.8208
97.2691
98.6454
99.95
101.183
102.344
103.435
104.468
105.435
106.335
107.168
107.937
108.641
109.284
109.865
110.388
110.853
111.263
111.618
111.921
112.173
112.376
112.531
112.64
112.705
112.728
112.709
112.65
112.553
112.42
112.251
112.048
111.812
111.545
111.248
110.921
110.567
110.187
109.78
109.349
108.895
108.418
107.918
107.399
106.858
106.299
105.721
105.125
104.512
103.883
103.237
102.576
101.901
101.211
100.507
99.7892
99.0589
98.3159
97.5607
96.7937
96.0151
95.2252
94.4244
93.6129
92.7909
91.9587
91.1165
90.2644
89.4028
88.5316
87.6512
86.7617
85.8631
84.9557
84.0395
83.1147
82.1815
81.2398
80.2899
79.3318
78.3656
77.3916
76.4097
75.4201
74.4229
73.4183
72.4064
71.3873
70.3612
69.3282
68.2886
67.2424
66.1899
65.1312
64.0667
62.9965
61.9209
60.8401
59.7544
58.6641
57.5695
56.471
55.3688
54.2633
53.155
52.0441
50.9311
49.8164
48.7005
47.5837
46.4666
45.3497
44.2333
43.1181
42.0045
40.893
39.7843
38.6787
37.5769
36.4793
35.3866
34.2992
33.2178
32.1427
31.0747
30.0141
28.9614
27.9172
26.882
25.8561
24.84
23.8341
22.8388
21.8544
20.8812
19.9194
18.9693
18.0311
17.1049
16.1908
15.289
14.4004
13.5257
12.671
11.8275
10.992
10.1643
9.34302
8.52659
7.71329
6.90068
6.08666
5.27915
4.46424
3.63485
2.78189
1.89369
0.976086
0.176877
2.99135
2.57461
3.31021
4.21732
5.20232
6.22038
7.25485
8.30899
9.37967
10.4655
11.5663
12.6814
13.81
14.9509
16.1028
17.2641
18.4331
19.6076
20.7855
21.9647
23.1425
24.3168
25.4849
26.6445
27.7931
28.9284
30.0481
31.1499
32.2319
33.292
34.3284
35.3395
36.3237
37.2796
38.206
39.1018
39.9661
40.7981
41.5971
42.3627
43.0945
43.7922
44.4557
45.0849
45.68
46.2411
46.7686
47.2635
47.7287
48.1626
48.5651
48.9363
49.2767
49.5869
49.8676
50.1196
50.3437
50.5406
50.7111
50.8561
50.9763
51.0727
51.1459
51.1969
51.2265
51.2353
51.2243
51.1941
51.1455
51.0793
50.9961
50.8967
50.7817
50.6517
50.5075
50.3496
50.1785
49.995
49.7994
49.5923
49.3743
49.1458
48.9072
48.659
48.4017
48.1355
47.8609
47.5783
47.288
46.9902
46.6854
46.3737
46.0556
45.7311
45.4006
45.0644
44.7225
44.3752
44.0227
43.6652
43.3028
42.9357
42.564
42.1879
41.8074
41.4228
41.034
40.6413
40.2446
39.8442
39.4399
39.0321
38.6206
38.2056
37.7871
37.3652
36.9399
36.5114
36.0796
35.6446
35.2064
34.7652
34.3209
33.8736
33.4233
32.9701
32.5142
32.0554
31.5939
31.1298
30.663
30.1938
29.7222
29.2481
28.7719
28.2935
27.813
27.3305
26.8462
26.3602
25.8726
25.3835
24.8931
24.4015
23.9089
23.4155
22.9214
22.4267
21.9318
21.4367
20.9417
20.4469
19.9526
19.459
18.9663
18.4747
17.9845
17.4959
17.0091
16.5244
16.0419
15.562
15.0849
14.6107
14.1398
13.6723
13.2085
12.7486
12.2928
11.8413
11.3943
10.9519
10.5145
10.082
9.6546
9.2325
8.81576
8.40449
7.99874
7.59857
7.20405
6.81525
6.43233
6.05546
5.68498
5.31972
4.95873
4.60268
4.2508
3.90271
3.55809
3.21675
2.8791
2.54721
2.21889
1.89475
1.57954
1.29707
1.18694
2.07932
2.9915
2.57459
3.31014
4.21723
5.2022
6.22024
7.2547
8.30883
9.3795
10.4654
11.5661
12.6812
13.8098
14.9507
16.1026
17.2639
18.4328
19.6073
20.7853
21.9644
23.1423
24.3165
25.4846
26.6442
27.7928
28.9281
30.0478
31.1496
32.2315
33.2916
34.3281
35.3391
36.3233
37.2792
38.2056
39.1015
39.9658
40.7978
41.5968
42.3624
43.0942
43.7919
44.4553
45.0846
45.6796
46.2407
46.7682
47.2631
47.7283
48.1623
48.5648
48.9359
49.2763
49.5866
49.8673
50.1193
50.3433
50.5402
50.7107
50.8557
50.976
51.0723
51.1456
51.1966
51.2261
51.235
51.2239
51.1937
51.1452
51.0789
50.9958
50.8963
50.7813
50.6514
50.5072
50.3492
50.1782
49.9946
49.7991
49.592
49.374
49.1455
48.9069
48.6587
48.4014
48.1352
47.8606
47.578
47.2877
46.9899
46.6851
46.3734
46.0553
45.7308
45.4004
45.0641
44.7222
44.3749
44.0224
43.6649
43.3025
42.9354
42.5637
42.1876
41.8072
41.4225
41.0338
40.641
40.2444
39.8439
39.4397
39.0318
38.6203
38.2053
37.7868
37.365
36.9397
36.5112
36.0794
35.6444
35.2062
34.7649
34.3206
33.8733
33.4231
32.9699
32.5139
32.0552
31.5937
31.1296
30.6628
30.1936
29.722
29.248
28.7717
28.2933
27.8128
27.3303
26.846
26.36
25.8724
25.3833
24.8929
24.4014
23.9088
23.4153
22.9212
22.4266
21.9316
21.4365
20.9415
20.4467
19.9524
19.4588
18.9662
18.4746
17.9844
17.4958
17.009
16.5243
16.0418
15.5619
15.0847
14.6106
14.1397
13.6722
13.2084
12.7485
12.2927
11.8412
11.3942
10.9519
10.5144
10.0819
9.65452
9.23242
8.81569
8.40442
7.99867
7.59851
7.20399
6.81519
6.43227
6.05541
5.68493
5.31968
4.95869
4.60264
4.25076
3.90267
3.55806
3.21673
2.87908
2.54719
2.21887
1.89468
1.57919
1.29565
1.18693
2.07934
5.48706
3.45934
3.69765
4.24522
4.90442
5.62065
6.37184
7.14886
7.94644
8.76145
9.59197
10.4366
11.294
12.163
13.0424
13.9306
14.8262
15.7275
16.6326
17.5399
18.4472
19.3526
20.2541
21.1497
22.0375
22.9153
23.7814
24.634
25.4713
26.2917
27.0937
27.8758
28.6369
29.3758
30.0914
30.7829
31.4495
32.0905
32.7053
33.2937
33.8552
34.3897
34.897
35.3771
35.8302
36.2564
36.6561
37.0298
37.3784
37.702
38.0007
38.2747
38.5245
38.7505
38.9533
39.1335
39.2917
39.4284
39.5445
39.6404
39.717
39.7748
39.8145
39.8368
39.8423
39.8316
39.8055
39.7644
39.7091
39.6401
39.5579
39.4632
39.3565
39.2383
39.1091
38.9694
38.8197
38.6604
38.492
38.3149
38.1295
37.9362
37.7354
37.5273
37.3124
37.0909
36.8631
36.6295
36.3901
36.1453
35.8952
35.6403
35.3806
35.1163
34.8477
34.5749
34.2981
34.0175
33.7332
33.4454
33.1541
32.8595
32.5617
32.2608
31.9569
31.6502
31.3406
31.0282
30.7133
30.3957
30.0755
29.7529
29.4279
29.1005
28.7708
28.4388
28.1046
27.7682
27.4296
27.0889
26.7462
26.4014
26.0546
25.7059
25.3553
25.0027
24.6484
24.2923
23.9344
23.5749
23.2137
22.851
22.4867
22.121
21.7539
21.3855
21.0158
20.6451
20.2732
19.9004
19.5267
19.1522
18.7771
18.4014
18.0253
17.6488
17.2722
16.8956
16.519
16.1427
15.7667
15.3913
15.0166
14.6428
14.27
13.8983
13.5281
13.1594
12.7924
12.4273
12.0643
11.7035
11.3452
10.9894
10.6365
10.2865
9.93955
9.59592
9.25572
8.9191
8.5862
8.25717
7.93212
7.61118
7.29445
6.98203
6.67401
6.37047
6.07146
5.77706
5.48733
5.20231
4.92209
4.64672
4.37621
4.11034
3.84892
3.59198
3.3394
3.09141
2.84824
2.61023
2.37824
2.15373
1.93834
1.73575
1.55454
1.41868
1.4329
2.38292
5.48728
3.45928
3.69752
4.24507
4.90425
5.62046
6.37164
7.14865
7.94622
8.76123
9.59174
10.4363
11.2938
12.1628
13.0421
13.9304
14.8259
15.7272
16.6324
17.5396
18.4469
19.3524
20.2539
21.1495
22.0372
22.9151
23.7812
24.6337
25.471
26.2914
27.0934
27.8756
28.6367
29.3756
30.0912
30.7827
31.4492
32.0902
32.7051
33.2935
33.855
34.3895
34.8968
35.3769
35.83
36.2562
36.6559
37.0296
37.3782
37.7018
38.0005
38.2745
38.5243
38.7504
38.9532
39.1333
39.2915
39.4283
39.5443
39.6403
39.7168
39.7746
39.8143
39.8366
39.8421
39.8315
39.8053
39.7643
39.7089
39.6399
39.5578
39.4631
39.3563
39.2381
39.1089
38.9693
38.8196
38.6603
38.4919
38.3148
38.1294
37.9361
37.7352
37.5272
37.3122
37.0908
36.863
36.6293
36.39
36.1451
35.8951
35.6402
35.3804
35.1162
34.8476
34.5748
34.298
34.0174
33.7331
33.4453
33.154
32.8594
32.5616
32.2607
31.9568
31.6501
31.3405
31.0282
30.7132
30.3956
30.0755
29.7529
29.4278
29.1004
28.7707
28.4387
28.1045
27.7681
27.4295
27.0889
26.7461
26.4013
26.0546
25.7058
25.3552
25.0027
24.6483
24.2922
23.9344
23.5748
23.2136
22.8509
22.4866
22.1209
21.7538
21.3854
21.0158
20.645
20.2732
19.9003
19.5266
19.1522
18.777
18.4013
18.0252
17.6488
17.2722
16.8955
16.5189
16.1426
15.7667
15.3913
15.0166
14.6427
14.2699
13.8983
13.5281
13.1594
12.7924
12.4273
12.0643
11.7035
11.3451
10.9894
10.6364
10.2864
9.93952
9.59589
9.25569
8.91907
8.58618
8.25714
7.9321
7.61115
7.29443
6.98201
6.67399
6.37045
6.07144
5.77705
5.48731
5.20229
4.92207
4.6467
4.3762
4.11033
3.8489
3.59197
3.33939
3.0914
2.84823
2.61022
2.37823
2.15373
1.93835
1.73577
1.55457
1.41863
1.43383
2.38279
8.02612
4.53554
4.40082
4.73972
5.24275
5.82803
6.46285
7.13133
7.82466
8.53749
9.26639
10.009
10.7635
11.5283
12.3021
13.0834
13.8709
14.663
15.4583
16.255
17.0515
17.846
18.637
19.4225
20.2009
20.9705
21.7296
22.4766
23.21
23.9284
24.6305
25.3149
25.9806
26.6265
27.2517
27.8554
28.437
28.9958
29.5313
30.0432
30.5313
30.9952
31.4349
31.8505
32.2419
32.6094
32.9533
33.2738
33.5716
33.8468
34.0998
34.3309
34.5404
34.7287
34.8965
35.0441
35.1722
35.2812
35.3719
35.4447
35.5003
35.5392
35.5621
35.5696
35.5621
35.5404
35.505
35.4563
35.3951
35.3217
35.2368
35.1408
35.0343
34.9176
34.7913
34.6558
34.5115
34.3588
34.1982
34.03
33.8545
33.6722
33.4833
33.2882
33.0871
32.8805
32.6684
32.4512
32.2291
32.0024
31.7713
31.536
31.2966
31.0535
30.8066
30.5563
30.3026
30.0457
29.7857
29.5228
29.257
28.9885
28.7174
28.4438
28.1677
27.8893
27.6086
27.3257
27.0407
26.7535
26.4644
26.1732
25.8802
25.5852
25.2885
24.9899
24.6896
24.3876
24.0839
23.7786
23.4716
23.1631
22.8531
22.5416
22.2286
21.9142
21.5984
21.2812
20.9628
20.6431
20.3222
20.0002
19.6771
19.3529
19.0277
18.7017
18.3747
18.047
17.7186
17.3896
17.0601
16.7301
16.3997
16.0691
15.7384
15.4076
15.0769
14.7464
14.4162
14.0865
13.7573
13.4289
13.1013
12.7746
12.4491
12.1249
11.8021
11.4809
11.1614
10.8438
10.5282
10.2148
9.90374
9.59518
9.28925
8.98611
8.6859
8.38876
8.09483
7.80423
7.51709
7.23353
6.95366
6.67759
6.40542
6.13723
5.87313
5.61318
5.35745
5.10604
4.859
4.6164
4.37834
4.14486
3.91604
3.69188
3.47245
3.25787
3.04835
2.84425
2.64608
2.45464
2.27138
2.09835
1.939
1.79984
1.69481
1.66061
1.84208
3.482
8.02637
4.53547
4.40067
4.73954
5.24255
5.82782
6.46262
7.1311
7.82442
8.53724
9.26614
10.0087
10.7632
11.5281
12.3018
13.0832
13.8707
14.6628
15.458
16.2547
17.0512
17.8458
18.6367
19.4223
20.2007
20.9703
21.7294
22.4764
23.2098
23.9282
24.6302
25.3147
25.9803
26.6263
27.2515
27.8552
28.4368
28.9956
29.5311
30.0431
30.5311
30.995
31.4348
31.8503
32.2418
32.6093
32.9531
33.2737
33.5715
33.8467
34.0997
34.3308
34.5402
34.7286
34.8963
35.044
35.172
35.2811
35.3718
35.4446
35.5002
35.5391
35.562
35.5695
35.562
35.5403
35.5049
35.4562
35.395
35.3216
35.2367
35.1407
35.0342
34.9175
34.7912
34.6557
34.5114
34.3587
34.1981
34.0299
33.8545
33.6721
33.4832
33.2881
33.0871
32.8804
32.6683
32.4511
32.2291
32.0024
31.7713
31.536
31.2966
31.0534
30.8066
30.5562
30.3025
30.0456
29.7856
29.5227
29.257
28.9885
28.7174
28.4438
28.1677
27.8893
27.6086
27.3257
27.0406
26.7535
26.4643
26.1732
25.8801
25.5852
25.2884
24.9899
24.6896
24.3876
24.0839
23.7785
23.4716
23.1631
22.8531
22.5415
22.2286
21.9141
21.5984
21.2812
20.9628
20.6431
20.3222
20.0002
19.6771
19.3529
19.0277
18.7016
18.3747
18.047
17.7186
17.3896
17.06
16.73
16.3997
16.0691
15.7384
15.4076
15.0769
14.7464
14.4162
14.0865
13.7573
13.4289
13.1012
12.7746
12.4491
12.1249
11.8021
11.4809
11.1614
10.8438
10.5282
10.2148
9.90373
9.59517
9.28924
8.98611
8.6859
8.38876
8.09482
7.80422
7.51708
7.23352
6.95365
6.67758
6.40541
6.13723
5.87312
5.61317
5.35745
5.10603
4.85899
4.6164
4.37833
4.14486
3.91604
3.69188
3.47245
3.25787
3.04835
2.84424
2.64608
2.45464
2.27138
2.09835
1.939
1.79984
1.69481
1.66058
1.84227
3.48198
10.553
5.70498
5.24237
5.42356
5.8238
6.33132
6.90182
7.51347
8.15396
8.8158
9.49411
10.1856
10.8878
11.5988
12.3172
13.0415
13.7703
14.5023
15.236
15.9702
16.7033
17.4338
18.1603
18.8812
19.5951
20.3003
20.9955
21.6793
22.3502
23.0071
23.6487
24.274
24.8818
25.4712
26.0415
26.5919
27.1217
27.6305
28.1177
28.5831
29.0264
29.4474
29.846
30.2222
30.5761
30.9079
31.2177
31.5058
31.7727
32.0185
32.2437
32.4485
32.6334
32.7986
32.9448
33.0724
33.1818
33.2736
33.3484
33.4067
33.4489
33.4758
33.4877
33.4854
33.4692
33.4398
33.3977
33.3434
33.2773
33.2001
33.1122
33.014
32.906
32.7887
32.6624
32.5277
32.3849
32.2343
32.0764
31.9115
31.7399
31.562
31.3781
31.1885
30.9935
30.7932
30.5881
30.3783
30.164
29.9456
29.7231
29.4968
29.2668
29.0334
28.7967
28.5568
28.3139
28.0682
27.8197
27.5686
27.315
27.0589
26.8006
26.54
26.2773
26.0125
25.7457
25.477
25.2064
24.9341
24.66
24.3841
24.1067
23.8276
23.5469
23.2648
22.9811
22.696
22.4095
22.1217
21.8325
21.5419
21.2501
20.9571
20.6629
20.3675
20.0709
19.7733
19.4747
19.175
18.8744
18.5729
18.2705
17.9673
17.6634
17.3588
17.0536
16.7478
16.4416
16.1349
15.8279
15.5207
15.2133
14.9058
14.5984
14.2912
13.9841
13.6774
13.3712
13.0656
12.7606
12.4565
12.1533
11.8512
11.5503
11.2507
10.9527
10.6562
10.3615
10.0686
9.77781
9.48917
9.20284
8.91895
8.63763
8.35903
8.08328
7.81049
7.5408
7.27432
7.01117
6.75147
6.49532
6.24281
5.99406
5.74915
5.50818
5.27123
5.0384
4.80976
4.58542
4.36548
4.15003
3.93919
3.7331
3.5319
3.33578
3.14503
2.96004
2.78138
2.60986
2.44668
2.29369
2.15375
2.03172
1.93675
1.88803
1.93609
2.27767
4.60852
10.5533
5.70488
5.2422
5.42336
5.82358
6.33108
6.90158
7.51322
8.15371
8.81554
9.49384
10.1853
10.8875
11.5986
12.317
13.0412
13.77
14.502
15.2358
15.9699
16.703
17.4336
18.1601
18.881
19.5948
20.3001
20.9953
21.6791
22.35
23.0069
23.6485
24.2738
24.8816
25.471
26.0413
26.5917
27.1215
27.6303
28.1176
28.583
29.0263
29.4472
29.8459
30.2221
30.576
30.9078
31.2175
31.5057
31.7725
32.0184
32.2436
32.4484
32.6333
32.7985
32.9447
33.0723
33.1817
33.2736
33.3483
33.4066
33.4489
33.4757
33.4877
33.4853
33.4692
33.4398
33.3976
33.3433
33.2773
33.2001
33.1121
33.0139
32.906
32.7886
32.6624
32.5277
32.3848
32.2343
32.0763
31.9114
31.7399
31.562
31.3781
31.1885
30.9934
30.7932
30.5881
30.3782
30.164
29.9455
29.723
29.4967
29.2668
29.0334
28.7966
28.5568
28.3139
28.0682
27.8197
27.5686
27.315
27.0589
26.8006
26.54
26.2773
26.0125
25.7457
25.477
25.2064
24.9341
24.6599
24.3841
24.1066
23.8276
23.5469
23.2648
22.9811
22.696
22.4095
22.1217
21.8324
21.5419
21.2501
20.9571
20.6629
20.3675
20.0709
19.7733
19.4747
19.175
18.8744
18.5729
18.2705
17.9673
17.6634
17.3588
17.0536
16.7478
16.4415
16.1349
15.8279
15.5207
15.2133
14.9058
14.5984
14.2912
13.9841
13.6774
13.3712
13.0656
12.7606
12.4565
12.1533
11.8512
11.5503
11.2507
10.9527
10.6562
10.3615
10.0686
9.77781
9.48917
9.20284
8.91895
8.63764
8.35904
8.08328
7.81049
7.5408
7.27432
7.01118
6.75147
6.49532
6.24281
5.99406
5.74915
5.50818
5.27124
5.0384
4.80977
4.58543
4.36548
4.15003
3.9392
3.7331
3.5319
3.33578
3.14503
2.96004
2.78138
2.60986
2.44668
2.29369
2.15375
2.03172
1.93675
1.88803
1.93609
2.27771
4.60853
13.0795
6.92518
6.16994
6.22142
6.54477
6.99915
7.52889
8.10649
8.71641
9.34911
9.99837
10.66
11.331
12.0092
12.6928
13.3805
14.0708
14.7626
15.4546
16.1456
16.8344
17.5198
18.2003
18.8748
19.5419
20.2004
20.8489
21.4862
22.1112
22.7226
23.3195
23.9008
24.4656
25.0131
25.5426
26.0532
26.5446
27.0162
27.4675
27.8983
28.3084
28.6975
29.0656
29.4127
29.7388
30.0441
30.3288
30.593
30.8371
31.0615
31.2663
31.4519
31.6187
31.7671
31.8975
32.0104
32.1062
32.1854
32.2485
32.2961
32.3285
32.3464
32.3503
32.3406
32.3178
32.2826
32.2353
32.1765
32.1066
32.0261
31.9354
31.8351
31.7255
31.6071
31.4802
31.3452
31.2026
31.0527
30.8959
30.7324
30.5626
30.3869
30.2055
30.0186
29.8266
29.6298
29.4283
29.2224
29.0124
28.7983
28.5805
28.3591
28.1343
27.9062
27.6751
27.441
27.2041
26.9646
26.7224
26.4779
26.231
25.9819
25.7307
25.4774
25.2221
24.9649
24.706
24.4452
24.1828
23.9187
23.6531
23.3859
23.1172
22.8471
22.5756
22.3027
22.0285
21.753
21.4763
21.1984
20.9193
20.639
20.3576
20.0752
19.7917
19.5073
19.2218
18.9355
18.6482
18.3601
18.0713
17.7816
17.4913
17.2004
16.9088
16.6167
16.3241
16.0312
15.7379
15.4443
15.1506
14.8567
14.5628
14.269
13.9754
13.682
13.3889
13.0963
12.8043
12.5129
12.2223
11.9326
11.644
11.3564
11.0701
10.7852
10.5019
10.2201
9.94011
9.66202
9.38596
9.11205
8.84042
8.57121
8.30453
8.04052
7.77929
7.52096
7.26566
7.0135
6.76458
6.51902
6.27692
6.03839
5.80353
5.57243
5.3452
5.12193
4.90274
4.68772
4.477
4.27071
4.06899
3.87201
3.67997
3.49311
3.31175
3.1363
2.96732
2.80558
2.65216
2.50863
2.37733
2.26191
2.16856
2.10874
2.10698
2.2276
2.72075
5.73444
13.0799
6.92506
6.16975
6.22119
6.54453
6.9989
7.52863
8.10622
8.71614
9.34883
9.99809
10.6597
11.3307
12.0089
12.6926
13.3802
14.0705
14.7623
15.4543
16.1453
16.8342
17.5195
18.2001
18.8746
19.5417
20.2001
20.8487
21.486
22.111
22.7224
23.3193
23.9006
24.4654
25.0129
25.5424
26.0531
26.5444
27.016
27.4673
27.8982
28.3082
28.6974
29.0655
29.4126
29.7387
30.044
30.3286
30.5929
30.837
31.0614
31.2662
31.4518
31.6186
31.767
31.8975
32.0103
32.1061
32.1853
32.2485
32.296
32.3285
32.3463
32.3502
32.3405
32.3178
32.2825
32.2352
32.1764
32.1065
32.026
31.9354
31.8351
31.7255
31.607
31.4801
31.3452
31.2026
31.0527
30.8958
30.7324
30.5626
30.3869
30.2054
30.0186
29.8266
29.6298
29.4283
29.2224
29.0123
28.7983
28.5805
28.3591
28.1343
27.9062
27.6751
27.441
27.2041
26.9645
26.7224
26.4779
26.231
25.9819
25.7306
25.4773
25.2221
24.9649
24.7059
24.4452
24.1828
23.9187
23.653
23.3859
23.1172
22.8471
22.5756
22.3027
22.0285
21.753
21.4763
21.1984
20.9193
20.639
20.3576
20.0752
19.7917
19.5073
19.2218
18.9355
18.6482
18.3601
18.0713
17.7816
17.4913
17.2003
16.9088
16.6167
16.3241
16.0312
15.7379
15.4443
15.1506
14.8567
14.5628
14.269
13.9754
13.682
13.3889
13.0963
12.8043
12.5129
12.2223
11.9326
11.644
11.3564
11.0701
10.7852
10.5019
10.2201
9.94012
9.66203
9.38596
9.11205
8.84043
8.57121
8.30453
8.04052
7.77929
7.52097
7.26566
7.0135
6.76458
6.51902
6.27693
6.0384
5.80353
5.57243
5.3452
5.12194
4.90274
4.68773
4.47701
4.27072
4.06899
3.87201
3.67997
3.49311
3.31175
3.1363
2.96732
2.80558
2.65217
2.50863
2.37733
2.26191
2.16856
2.10874
2.10698
2.22761
2.72078
5.73445
15.727
8.20078
7.1672
7.10497
7.36656
7.78181
8.28377
8.83952
9.43043
10.0451
10.676
11.3182
11.9681
12.6234
13.282
13.9426
14.6038
15.2646
15.924
16.5808
17.2341
17.8827
18.5258
19.1621
19.7905
20.4101
21.0196
21.618
22.2043
22.7775
23.3367
23.8809
24.4094
24.9214
25.4162
25.8933
26.3521
26.7922
27.2132
27.6148
27.9968
28.3591
28.7015
29.0241
29.3269
29.61
29.8736
30.1179
30.3432
30.5496
30.7376
30.9074
31.0594
31.1939
31.3114
31.4122
31.4969
31.5658
31.6194
31.6582
31.6827
31.6934
31.6906
31.675
31.6469
31.6069
31.5554
31.4929
31.4198
31.3366
31.2437
31.1415
31.0305
30.9109
30.7833
30.648
30.5054
30.3557
30.1994
30.0367
29.8679
29.6935
29.5136
29.3285
29.1384
28.9437
28.7445
28.5412
28.3338
28.1225
27.9077
27.6895
27.4679
27.2433
27.0157
26.7853
26.5522
26.3166
26.0785
25.8381
25.5955
25.3508
25.104
24.8553
24.6048
24.3524
24.0984
23.8427
23.5853
23.3265
23.0662
22.8044
22.5413
22.2768
22.0111
21.744
21.4758
21.2064
20.9358
20.6642
20.3914
20.1177
19.8429
19.5671
19.2905
19.0129
18.7345
18.4553
18.1753
17.8945
17.6131
17.331
17.0484
16.7652
16.4815
16.1974
15.9129
15.6282
15.3432
15.058
14.7727
14.4875
14.2023
13.9172
13.6324
13.3479
13.0639
12.7803
12.4974
12.2152
11.9339
11.6535
11.3742
11.096
10.8191
10.5436
10.2697
9.99741
9.72689
9.45825
9.19164
8.92715
8.66493
8.40508
8.14773
7.893
7.641
7.39185
7.14566
6.90254
6.66261
6.42597
6.19272
5.96298
5.73685
5.51443
5.29584
5.08119
4.8706
4.66421
4.46216
4.2646
4.07174
3.88378
3.70101
3.52374
3.35239
3.1875
3.02979
2.88022
2.74012
2.61141
2.49692
2.4011
2.33143
2.30176
2.34181
2.52974
3.16927
6.86248
15.7274
8.20065
7.16698
7.10472
7.3663
7.78153
8.28349
8.83922
9.43013
10.0448
10.6757
11.3179
11.9678
12.6231
13.2817
13.9423
14.6035
15.2644
15.9237
16.5805
17.2338
17.8825
18.5255
19.1618
19.7903
20.4098
21.0193
21.6178
22.2041
22.7773
23.3365
23.8807
24.4092
24.9212
25.416
25.8931
26.3519
26.792
27.213
27.6146
27.9967
28.3589
28.7014
29.024
29.3268
29.6099
29.8735
30.1178
30.343
30.5495
30.7375
30.9073
31.0593
31.1938
31.3113
31.4122
31.4968
31.5657
31.6194
31.6582
31.6827
31.6933
31.6905
31.6749
31.6468
31.6068
31.5554
31.4928
31.4198
31.3366
31.2437
31.1415
31.0304
30.9109
30.7833
30.648
30.5053
30.3557
30.1993
30.0366
29.8679
29.6935
29.5135
29.3284
29.1384
28.9437
28.7445
28.5411
28.3337
28.1225
27.9077
27.6894
27.4679
27.2433
27.0157
26.7853
26.5522
26.3165
26.0785
25.8381
25.5955
25.3508
25.104
24.8553
24.6048
24.3524
24.0984
23.8426
23.5853
23.3265
23.0662
22.8044
22.5413
22.2768
22.0111
21.744
21.4758
21.2064
20.9358
20.6642
20.3914
20.1177
19.8429
19.5671
19.2905
19.0129
18.7345
18.4553
18.1753
17.8945
17.6131
17.331
17.0484
16.7652
16.4815
16.1974
15.9129
15.6282
15.3432
15.058
14.7727
14.4875
14.2023
13.9172
13.6324
13.3479
13.0639
12.7803
12.4974
12.2152
11.9339
11.6535
11.3742
11.096
10.8191
10.5437
10.2697
9.99741
9.72689
9.45826
9.19164
8.92716
8.66493
8.40508
8.14773
7.893
7.641
7.39185
7.14566
6.90255
6.66261
6.42597
6.19273
5.96298
5.73685
5.51443
5.29584
5.0812
4.87061
4.66421
4.46216
4.26461
4.07174
3.88379
3.70101
3.52374
3.35239
3.18751
3.02979
2.88022
2.74013
2.61141
2.49692
2.4011
2.33143
2.30176
2.34181
2.52975
3.1693
6.86249
18.4756
9.53345
8.22846
8.06252
8.27207
8.65707
9.1393
9.68045
10.259
10.8616
11.4799
12.108
12.742
13.3792
14.0176
14.6556
15.2922
15.9264
16.5572
17.1839
17.8056
18.4216
19.0309
19.6327
20.2262
20.8104
21.3843
21.9473
22.4982
23.0364
23.561
24.0712
24.5663
25.0457
25.5088
25.9551
26.384
26.7952
27.1883
27.5631
27.9195
28.2571
28.5761
28.8764
29.1579
29.4208
29.6653
29.8915
30.0997
30.2901
30.4629
30.6185
30.7573
30.8794
30.9854
31.0756
31.1504
31.2103
31.2556
31.2867
31.3043
31.3086
31.3001
31.2794
31.2467
31.2027
31.1476
31.082
31.0062
30.9208
30.826
30.7222
30.61
30.4896
30.3614
30.2258
30.0831
29.9336
29.7777
29.6157
29.4478
29.2744
29.0957
28.9119
28.7234
28.5304
28.333
28.1315
27.9262
27.7172
27.5046
27.2887
27.0696
26.8476
26.6226
26.3949
26.1646
25.9319
25.6968
25.4594
25.2199
24.9784
24.7349
24.4895
24.2423
23.9934
23.7428
23.4906
23.237
22.9818
22.7252
22.4673
22.208
21.9475
21.6857
21.4228
21.1587
20.8935
20.6272
20.3599
20.0915
19.8222
19.552
19.2809
19.0089
18.7361
18.4625
18.1882
17.9132
17.6375
17.3612
17.0843
16.8069
16.5291
16.2508
15.9722
15.6933
15.4142
15.1349
14.8555
14.576
14.2966
14.0174
13.7383
13.4596
13.1812
12.9033
12.626
12.3494
12.0735
11.7984
11.5244
11.2514
10.9796
10.7091
10.4401
10.1725
9.90663
9.64248
9.38021
9.11993
8.86176
8.60581
8.35219
8.10103
7.85243
7.60651
7.36338
7.12315
6.88594
6.65184
6.42097
6.19343
5.96935
5.74882
5.53198
5.31893
5.10981
4.90476
4.70394
4.50751
4.31568
4.12867
3.94677
3.77029
3.59965
3.43536
3.27807
3.12865
2.98825
2.85844
2.74148
2.64069
2.56132
2.51216
2.50954
2.58828
2.84091
3.62625
8.00467
18.4761
9.53329
8.22821
8.06224
8.27177
8.65677
9.13899
9.68014
10.2586
10.8613
11.4796
12.1077
12.7417
13.3789
14.0173
14.6553
15.2919
15.9261
16.5569
17.1836
17.8053
18.4213
19.0306
19.6325
20.2259
20.8101
21.3841
21.947
22.498
23.0362
23.5608
24.071
24.5661
25.0456
25.5086
25.9549
26.3838
26.795
27.1881
27.563
27.9193
28.257
28.576
28.8762
29.1578
29.4207
29.6652
29.8914
30.0996
30.29
30.4628
30.6185
30.7572
30.8794
30.9854
31.0755
31.1504
31.2102
31.2555
31.2867
31.3042
31.3085
31.3001
31.2793
31.2467
31.2026
31.1476
31.082
31.0062
30.9207
30.8259
30.7222
30.61
30.4896
30.3614
30.2258
30.0831
29.9336
29.7777
29.6157
29.4478
29.2744
29.0956
28.9119
28.7234
28.5303
28.333
28.1315
27.9262
27.7171
27.5046
27.2887
27.0696
26.8475
26.6226
26.3949
26.1646
25.9319
25.6968
25.4594
25.2199
24.9784
24.7348
24.4895
24.2423
23.9934
23.7428
23.4906
23.237
22.9818
22.7252
22.4673
22.208
21.9475
21.6857
21.4228
21.1587
20.8935
20.6272
20.3598
20.0915
19.8222
19.552
19.2809
19.0089
18.7361
18.4625
18.1882
17.9132
17.6375
17.3612
17.0843
16.8069
16.5291
16.2508
15.9722
15.6933
15.4142
15.1349
14.8555
14.576
14.2966
14.0174
13.7383
13.4596
13.1812
12.9033
12.626
12.3494
12.0735
11.7984
11.5244
11.2514
10.9796
10.7091
10.4401
10.1725
9.90663
9.64249
9.38022
9.11994
8.86176
8.60581
8.3522
8.10103
7.85244
7.60652
7.36339
7.12316
6.88594
6.65184
6.42097
6.19344
5.96935
5.74883
5.53198
5.31893
5.10982
4.90477
4.70394
4.50752
4.31568
4.12868
3.94677
3.77029
3.59965
3.43536
3.27808
3.12866
2.98825
2.85844
2.74148
2.64069
2.56132
2.51216
2.50954
2.58829
2.84092
3.62629
8.00468
21.3233
10.9254
9.35275
9.08987
9.25409
9.61492
10.0827
10.6138
11.1838
11.7779
12.3864
13.003
13.6235
14.2447
14.8648
15.4822
16.0959
16.7051
17.309
17.9072
18.4989
19.0836
19.6607
20.2294
20.7892
21.3394
21.8792
22.4079
22.9247
23.4291
23.9203
24.3977
24.8606
25.3086
25.741
26.1574
26.5575
26.9408
27.3071
27.6561
27.9877
28.3017
28.5981
28.8768
29.138
29.3816
29.6077
29.8167
30.0086
30.1836
30.3421
30.4843
30.6105
30.7211
30.8162
30.8965
30.9621
31.0135
31.051
31.0752
31.0863
31.0848
31.0712
31.0458
31.009
30.9613
30.9031
30.8348
30.7567
30.6693
30.5729
30.4679
30.3547
30.2337
30.1051
29.9694
29.8268
29.6776
29.5223
29.3609
29.1939
29.0215
28.844
28.6616
28.4745
28.283
28.0873
27.8876
27.6841
27.477
27.2665
27.0527
26.8358
26.6159
26.3933
26.1679
25.94
25.7097
25.4771
25.2423
25.0054
24.7664
24.5256
24.2829
24.0384
23.7923
23.5445
23.2952
23.0444
22.7921
22.5385
22.2836
22.0273
21.7699
21.5112
21.2514
20.9905
20.7285
20.4655
20.2015
19.9365
19.6706
19.4038
19.1361
18.8677
18.5985
18.3285
18.0579
17.7865
17.5146
17.2421
16.9691
16.6957
16.4218
16.1475
15.873
15.5981
15.3231
15.048
14.7728
14.4977
14.2226
13.9477
13.673
13.3987
13.1248
12.8514
12.5785
12.3064
12.035
11.7645
11.495
11.2266
10.9594
10.6934
10.4289
10.1658
9.90443
9.64475
9.38691
9.13102
8.87719
8.62554
8.37617
8.1292
7.88473
7.64288
7.40375
7.16745
6.9341
6.7038
6.47666
6.2528
6.03234
5.81539
5.60207
5.39253
5.18692
4.98538
4.78811
4.59529
4.40717
4.22402
4.04616
3.87399
3.70799
3.54875
3.39705
3.25389
3.1206
2.99899
2.89167
2.80245
2.73735
2.7065
2.7287
2.84409
3.15943
4.08875
9.15046
21.3238
10.9252
9.35248
9.08957
9.25378
9.6146
10.0824
10.6135
11.1835
11.7775
12.3861
13.0027
13.6231
14.2444
14.8645
15.4819
16.0956
16.7048
17.3088
17.9069
18.4986
19.0833
19.6604
20.2292
20.789
21.3392
21.8789
22.4076
22.9245
23.4289
23.9201
24.3975
24.8604
25.3084
25.7408
26.1572
26.5573
26.9406
27.3069
27.6559
27.9875
28.3016
28.598
28.8767
29.1378
29.3814
29.6076
29.8166
30.0085
30.1835
30.342
30.4842
30.6105
30.721
30.8162
30.8964
30.962
31.0134
31.051
31.0751
31.0862
31.0848
31.0711
31.0457
31.009
30.9613
30.9031
30.8347
30.7567
30.6692
30.5729
30.4679
30.3547
30.2337
30.1051
29.9694
29.8268
29.6776
29.5222
29.3609
29.1939
29.0215
28.844
28.6616
28.4745
28.283
28.0873
27.8876
27.6841
27.477
27.2665
27.0527
26.8358
26.6159
26.3933
26.1679
25.94
25.7097
25.4771
25.2423
25.0053
24.7664
24.5255
24.2829
24.0384
23.7923
23.5445
23.2952
23.0444
22.7921
22.5385
22.2836
22.0273
21.7699
21.5112
21.2514
20.9905
20.7285
20.4655
20.2014
19.9365
19.6706
19.4038
19.1361
18.8677
18.5985
18.3285
18.0578
17.7865
17.5146
17.2421
16.9691
16.6957
16.4218
16.1475
15.873
15.5981
15.3231
15.048
14.7728
14.4977
14.2226
13.9477
13.673
13.3987
13.1248
12.8514
12.5785
12.3064
12.035
11.7645
11.495
11.2266
10.9594
10.6934
10.4289
10.1658
9.90443
9.64475
9.38691
9.13102
8.87719
8.62554
8.37617
8.1292
7.88473
7.64288
7.40375
7.16745
6.9341
6.7038
6.47667
6.25281
6.03234
5.81539
5.60208
5.39254
5.18692
4.98539
4.78811
4.5953
4.40718
4.22403
4.04617
3.874
3.70799
3.54875
3.39706
3.2539
3.1206
2.999
2.89167
2.80245
2.73735
2.7065
2.7287
2.84409
3.15944
4.08879
9.15047
24.2723
12.3798
10.5417
10.1869
10.3108
10.6518
11.1087
11.6326
12.1963
12.7835
13.3835
13.9896
14.597
15.2028
15.8049
16.4018
16.9928
17.577
18.1542
18.7238
19.2855
19.839
20.3839
20.9196
21.4459
21.9621
22.4678
22.9624
23.4453
23.916
24.3739
24.8186
25.2494
25.666
26.0679
26.4547
26.8261
27.1817
27.5213
27.8447
28.1517
28.4422
28.7162
28.9737
29.2146
29.439
29.6471
29.839
30.0148
30.1748
30.3192
30.4482
30.5622
30.6613
30.746
30.8164
30.8731
30.9163
30.9464
30.9638
30.9688
30.9618
30.9433
30.9135
30.8729
30.8218
30.7607
30.6898
30.6097
30.5205
30.4228
30.3168
30.2029
30.0814
29.9527
29.817
29.6747
29.526
29.3713
29.2108
29.0448
28.8736
28.6973
28.5163
28.3308
28.1409
27.9469
27.749
27.5474
27.3422
27.1337
26.922
26.7072
26.4895
26.269
26.0459
25.8203
25.5923
25.362
25.1296
24.895
24.6585
24.4201
24.1798
23.9379
23.6942
23.449
23.2022
22.9539