/*--------------------------------*- C++ -*----------------------------------*\
  =========                 |
  \\      /  F ield         | OpenFOAM: The Open Source CFD Toolbox
   \\    /   O peration     | Website:  https://openfoam.org
    \\  /    A nd           | Version:  8
     \\/     M anipulation  |
\*---------------------------------------------------------------------------*/
FoamFile
{
    version     2.0;
    format      ascii;
    class       volScalarField;
    location    "2200";
    object      k;
}
// * * * * * * * * * * * * * * * * * * * * * * * * * * * * * * * * * * * * * //

dimensions      [0 2 -2 0 0 0 0];

internalField   nonuniform List<scalar> 
48000
(
0.0234883
0.0439108
0.0672649
0.0881889
0.107523
0.125187
0.141602
0.157391
0.1725
0.187031
0.201098
0.214762
0.228066
0.241045
0.253725
0.266122
0.27825
0.290116
0.301724
0.313078
0.324176
0.335018
0.345601
0.355921
0.365976
0.375761
0.385272
0.394507
0.403461
0.412132
0.420516
0.428614
0.436422
0.44394
0.451167
0.458105
0.464754
0.471114
0.47719
0.482982
0.488493
0.493728
0.498689
0.503381
0.507808
0.511974
0.515884
0.519541
0.522993
0.526214
0.529204
0.531964
0.534503
0.536825
0.538938
0.540848
0.542561
0.544084
0.545422
0.546582
0.547569
0.54839
0.54905
0.549555
0.54991
0.550121
0.550193
0.550131
0.549939
0.549624
0.549188
0.548637
0.547975
0.547206
0.546333
0.545362
0.544295
0.543136
0.541888
0.540554
0.539138
0.537643
0.53607
0.534424
0.532705
0.530918
0.529063
0.527143
0.525161
0.523117
0.521014
0.518853
0.516636
0.514364
0.512039
0.509662
0.507234
0.504756
0.502228
0.499653
0.497031
0.494361
0.491646
0.488886
0.486081
0.483231
0.480337
0.4774
0.474419
0.471395
0.468328
0.465218
0.462065
0.458869
0.45563
0.452349
0.449024
0.445657
0.442246
0.438792
0.435294
0.431753
0.428168
0.424539
0.420865
0.417148
0.413385
0.409578
0.405726
0.401829
0.397886
0.393899
0.389865
0.385787
0.381662
0.377492
0.373277
0.369016
0.36471
0.360358
0.355961
0.35152
0.347034
0.342504
0.33793
0.333313
0.328653
0.32395
0.319206
0.314422
0.309597
0.304732
0.299829
0.294888
0.289911
0.284898
0.27985
0.274768
0.269654
0.264509
0.259333
0.254129
0.248896
0.243636
0.238351
0.233042
0.227709
0.222353
0.216976
0.211579
0.206161
0.200725
0.195269
0.189794
0.184301
0.178788
0.173255
0.167702
0.162126
0.156525
0.150898
0.145242
0.139558
0.133849
0.128149
0.122397
0.116563
0.110636
0.104593
0.0984075
0.0920459
0.0854621
0.0786018
0.0714867
0.0639283
0.0557507
0.0466871
0.0363397
0.0245403
0.0209936
0.0234886
0.0439121
0.0672665
0.0881906
0.107525
0.125188
0.141604
0.157393
0.172502
0.187032
0.2011
0.214763
0.228068
0.241047
0.253726
0.266124
0.278251
0.290117
0.301726
0.313079
0.324178
0.335019
0.345602
0.355922
0.365977
0.375762
0.385273
0.394508
0.403462
0.412132
0.420517
0.428614
0.436422
0.44394
0.451168
0.458105
0.464754
0.471115
0.47719
0.482982
0.488493
0.493728
0.498689
0.503381
0.507808
0.511975
0.515884
0.519541
0.522993
0.526215
0.529204
0.531964
0.534503
0.536825
0.538938
0.540848
0.542561
0.544084
0.545422
0.546582
0.547569
0.54839
0.54905
0.549555
0.54991
0.550121
0.550193
0.550131
0.549939
0.549624
0.549188
0.548637
0.547975
0.547206
0.546333
0.545362
0.544295
0.543136
0.541888
0.540554
0.539138
0.537643
0.53607
0.534424
0.532705
0.530918
0.529063
0.527143
0.52516
0.523117
0.521014
0.518853
0.516636
0.514364
0.512039
0.509662
0.507233
0.504755
0.502228
0.499653
0.49703
0.494361
0.491646
0.488886
0.48608
0.483231
0.480337
0.4774
0.474419
0.471395
0.468328
0.465218
0.462065
0.458869
0.45563
0.452349
0.449024
0.445656
0.442246
0.438791
0.435294
0.431753
0.428167
0.424538
0.420865
0.417147
0.413385
0.409578
0.405726
0.401829
0.397886
0.393898
0.389865
0.385787
0.381662
0.377492
0.373277
0.369016
0.364709
0.360358
0.355961
0.35152
0.347034
0.342503
0.33793
0.333312
0.328652
0.32395
0.319206
0.314421
0.309596
0.304732
0.299829
0.294888
0.289911
0.284898
0.27985
0.274768
0.269654
0.264509
0.259333
0.254128
0.248896
0.243636
0.238351
0.233042
0.227709
0.222353
0.216976
0.211579
0.206161
0.200724
0.195269
0.189794
0.184301
0.178788
0.173255
0.167702
0.162126
0.156525
0.150898
0.145242
0.139558
0.133849
0.128149
0.122397
0.116563
0.110636
0.104593
0.0984075
0.092046
0.0854621
0.0786018
0.0714867
0.0639282
0.0557499
0.0466838
0.0363313
0.0245403
0.0209813
0.0443438
0.111631
0.159624
0.202048
0.241043
0.277607
0.312198
0.345307
0.377211
0.408108
0.43815
0.467446
0.496077
0.524102
0.551562
0.578483
0.604882
0.630767
0.65614
0.680999
0.705335
0.72914
0.752404
0.775113
0.797257
0.818823
0.839798
0.860173
0.879937
0.899081
0.917599
0.935483
0.952731
0.969338
0.985303
1.00063
1.01531
1.02935
1.04277
1.05555
1.06771
1.07925
1.09019
1.10053
1.11028
1.11946
1.12806
1.13611
1.14361
1.15059
1.15706
1.16302
1.16851
1.17351
1.17806
1.18216
1.18583
1.18908
1.19193
1.19438
1.19646
1.19817
1.19953
1.20054
1.20123
1.20161
1.20168
1.20145
1.20094
1.20016
1.19912
1.19783
1.19629
1.19452
1.19252
1.19031
1.18788
1.18526
1.18244
1.17944
1.17626
1.1729
1.16938
1.1657
1.16186
1.15787
1.15373
1.14945
1.14504
1.14049
1.13582
1.13102
1.1261
1.12106
1.11591
1.11064
1.10527
1.09978
1.09419
1.0885
1.0827
1.07681
1.07082
1.06473
1.05854
1.05226
1.04588
1.03941
1.03285
1.02619
1.01944
1.0126
1.00567
0.998648
0.991534
0.984327
0.977029
0.969639
0.962157
0.954582
0.946915
0.939155
0.931301
0.923353
0.915312
0.907176
0.898945
0.890619
0.882197
0.87368
0.865066
0.856357
0.84755
0.838648
0.829649
0.820553
0.811361
0.802073
0.792689
0.783209
0.773635
0.763966
0.754203
0.744348
0.734401
0.724363
0.714235
0.704019
0.693716
0.683328
0.672857
0.662303
0.65167
0.640959
0.630172
0.619312
0.60838
0.59738
0.586314
0.575184
0.563993
0.552743
0.541437
0.530079
0.518669
0.507211
0.495707
0.48416
0.47257
0.460941
0.449274
0.437569
0.425828
0.414052
0.402239
0.390388
0.3785
0.36657
0.354595
0.342571
0.330492
0.318349
0.306135
0.293839
0.281446
0.268926
0.256244
0.243397
0.230334
0.217007
0.203355
0.189296
0.174721
0.159473
0.143402
0.126213
0.107434
0.0861294
0.0600344
0.0314683
0.044345
0.111634
0.159626
0.202049
0.241045
0.277608
0.3122
0.345308
0.377212
0.408109
0.438151
0.467447
0.496078
0.524103
0.551563
0.578484
0.604883
0.630768
0.656141
0.680999
0.705335
0.72914
0.752404
0.775114
0.797257
0.818822
0.839798
0.860173
0.879936
0.899081
0.917598
0.935483
0.95273
0.969337
0.985302
1.00063
1.01531
1.02935
1.04276
1.05555
1.06771
1.07925
1.09019
1.10053
1.11028
1.11946
1.12806
1.13611
1.14361
1.15059
1.15706
1.16302
1.1685
1.17351
1.17806
1.18216
1.18583
1.18908
1.19193
1.19438
1.19646
1.19817
1.19953
1.20054
1.20123
1.20161
1.20168
1.20145
1.20094
1.20016
1.19912
1.19782
1.19629
1.19452
1.19252
1.1903
1.18788
1.18526
1.18244
1.17944
1.17626
1.1729
1.16938
1.16569
1.16185
1.15786
1.15373
1.14945
1.14504
1.14049
1.13582
1.13102
1.1261
1.12106
1.11591
1.11064
1.10526
1.09978
1.09419
1.0885
1.0827
1.07681
1.07082
1.06472
1.05854
1.05226
1.04588
1.03941
1.03285
1.02619
1.01944
1.0126
1.00567
0.998647
0.991532
0.984326
0.977028
0.969638
0.962155
0.954581
0.946913
0.939153
0.931299
0.923352
0.91531
0.907174
0.898944
0.890617
0.882196
0.873678
0.865065
0.856355
0.847549
0.838647
0.829647
0.820552
0.81136
0.802071
0.792687
0.783208
0.773633
0.763964
0.754202
0.744347
0.734399
0.724361
0.714234
0.704018
0.693715
0.683327
0.672856
0.662302
0.651669
0.640958
0.630171
0.619311
0.608379
0.597379
0.586313
0.575183
0.563992
0.552742
0.541437
0.530078
0.518668
0.50721
0.495706
0.484159
0.47257
0.460941
0.449273
0.437569
0.425828
0.414051
0.402238
0.390388
0.378499
0.366569
0.354595
0.34257
0.330491
0.318349
0.306135
0.293838
0.281445
0.268926
0.256244
0.243396
0.230333
0.217007
0.203355
0.189296
0.17472
0.159473
0.143402
0.126213
0.107435
0.0861275
0.0600312
0.0314637
0.066446
0.159262
0.219578
0.271011
0.318447
0.363321
0.406242
0.447591
0.487623
0.52652
0.564425
0.601446
0.637664
0.673139
0.707914
0.742019
0.775471
0.808277
0.840439
0.871953
0.902808
0.932993
0.962494
0.991295
1.01938
1.04673
1.07334
1.09919
1.12426
1.14855
1.17204
1.19473
1.21661
1.23768
1.25793
1.27737
1.29599
1.3138
1.3308
1.34701
1.36242
1.37706
1.39092
1.40401
1.41636
1.42798
1.43887
1.44906
1.45855
1.46738
1.47555
1.48308
1.49
1.49631
1.50204
1.50719
1.5118
1.51587
1.51943
1.52248
1.52506
1.52716
1.52882
1.53004
1.53085
1.53125
1.53126
1.5309
1.53017
1.5291
1.5277
1.52597
1.52393
1.5216
1.51898
1.51608
1.51291
1.5095
1.50583
1.50193
1.4978
1.49345
1.48888
1.48412
1.47915
1.47399
1.46865
1.46313
1.45744
1.45158
1.44555
1.43937
1.43304
1.42655
1.41992
1.41315
1.40624
1.3992
1.39202
1.38471
1.37727
1.3697
1.36202
1.35421
1.34627
1.33822
1.33005
1.32177
1.31336
1.30484
1.2962
1.28745
1.27859
1.2696
1.26051
1.2513
1.24197
1.23253
1.22298
1.2133
1.20352
1.19361
1.18359
1.17346
1.1632
1.15283
1.14234
1.13173
1.121
1.11015
1.09918
1.08809
1.07688
1.06555
1.0541
1.04253
1.03084
1.01903
1.00711
0.99506
0.982895
0.970613
0.958214
0.945701
0.933073
0.920333
0.907482
0.894522
0.881454
0.868281
0.855004
0.841627
0.828151
0.814579
0.800914
0.787159
0.773316
0.759389
0.745381
0.731294
0.717133
0.702901
0.688601
0.674235
0.659808
0.645322
0.630781
0.616187
0.601543
0.58685
0.572112
0.557329
0.542502
0.527633
0.51272
0.497763
0.482759
0.467707
0.452601
0.437436
0.422205
0.406899
0.391506
0.376012
0.360399
0.344639
0.328704
0.312561
0.29616
0.279458
0.26239
0.244864
0.22677
0.207947
0.188214
0.167266
0.144587
0.1191
0.0877144
0.0375743
0.0664475
0.159264
0.219579
0.271012
0.318448
0.363321
0.406242
0.447592
0.487623
0.52652
0.564425
0.601446
0.637664
0.673139
0.707914
0.742019
0.77547
0.808277
0.840439
0.871952
0.902807
0.932992
0.962493
0.991294
1.01938
1.04673
1.07334
1.09919
1.12426
1.14855
1.17204
1.19473
1.21661
1.23768
1.25793
1.27736
1.29599
1.3138
1.3308
1.34701
1.36242
1.37705
1.39091
1.40401
1.41636
1.42798
1.43887
1.44905
1.45855
1.46737
1.47555
1.48308
1.49
1.49631
1.50203
1.50719
1.5118
1.51587
1.51942
1.52248
1.52505
1.52716
1.52882
1.53004
1.53085
1.53125
1.53126
1.53089
1.53017
1.5291
1.52769
1.52597
1.52393
1.5216
1.51897
1.51608
1.51291
1.50949
1.50583
1.50193
1.4978
1.49344
1.48888
1.48411
1.47915
1.47399
1.46865
1.46313
1.45744
1.45158
1.44555
1.43937
1.43304
1.42655
1.41992
1.41315
1.40624
1.39919
1.39201
1.3847
1.37727
1.3697
1.36201
1.3542
1.34627
1.33822
1.33005
1.32176
1.31336
1.30484
1.2962
1.28745
1.27858
1.2696
1.26051
1.2513
1.24197
1.23253
1.22297
1.2133
1.20352
1.19361
1.18359
1.17345
1.1632
1.15283
1.14233
1.13172
1.12099
1.11015
1.09918
1.08809
1.07688
1.06555
1.0541
1.04253
1.03084
1.01903
1.0071
0.995058
0.982893
0.970611
0.958213
0.945699
0.933072
0.920332
0.907481
0.89452
0.881453
0.86828
0.855003
0.841626
0.82815
0.814578
0.800913
0.787157
0.773315
0.759388
0.745379
0.731293
0.717132
0.7029
0.688599
0.674234
0.659807
0.645321
0.63078
0.616186
0.601542
0.586849
0.572111
0.557328
0.542501
0.527632
0.512719
0.497762
0.482758
0.467706
0.4526
0.437435
0.422204
0.406898
0.391505
0.376011
0.360398
0.344639
0.328704
0.31256
0.29616
0.279458
0.262389
0.244864
0.22677
0.207947
0.188214
0.167267
0.144588
0.119101
0.0877152
0.0375835
0.0856185
0.199717
0.269943
0.328261
0.381709
0.432318
0.48089
0.527832
0.57339
0.617736
0.660996
0.703269
0.744632
0.785145
0.82485
0.863777
0.901947
0.939369
0.976045
1.01197
1.04714
1.08154
1.11516
1.14797
1.17997
1.21114
1.24146
1.27091
1.29947
1.32715
1.35392
1.37978
1.40472
1.42873
1.45182
1.47398
1.49521
1.51552
1.53491
1.55339
1.57097
1.58766
1.60346
1.6184
1.63248
1.64573
1.65815
1.66977
1.6806
1.69066
1.69998
1.70856
1.71644
1.72363
1.73014
1.736
1.74124
1.74586
1.74989
1.75334
1.75625
1.75861
1.76046
1.76182
1.76269
1.76309
1.76306
1.76259
1.7617
1.76042
1.75875
1.75672
1.75432
1.75159
1.74852
1.74514
1.74145
1.73747
1.7332
1.72867
1.72387
1.71881
1.71352
1.70798
1.70222
1.69624
1.69005
1.68366
1.67706
1.67027
1.6633
1.65614
1.64881
1.64131
1.63364
1.62581
1.61782
1.60967
1.60137
1.59292
1.58433
1.57559
1.5667
1.55768
1.54852
1.53923
1.5298
1.52023
1.51053
1.5007
1.49074
1.48064
1.47041
1.46006
1.44957
1.43895
1.4282
1.41733
1.40632
1.39517
1.3839
1.3725
1.36096
1.34929
1.33748
1.32554
1.31347
1.30127
1.28892
1.27645
1.26383
1.25108
1.2382
1.22518
1.21202
1.19873
1.1853
1.17174
1.15804
1.14421
1.13024
1.11615
1.10192
1.08756
1.07308
1.05846
1.04372
1.02886
1.01388
0.998781
0.983565
0.968235
0.952795
0.937247
0.921595
0.905841
0.88999
0.874044
0.858007
0.841884
0.825676
0.809389
0.793026
0.776591
0.760087
0.743517
0.726886
0.710196
0.69345
0.67665
0.6598
0.6429
0.625953
0.608957
0.591914
0.574823
0.557681
0.540486
0.523233
0.505916
0.488528
0.47106
0.453499
0.43583
0.418034
0.400087
0.38196
0.363618
0.345017
0.326106
0.306818
0.287063
0.26674
0.245691
0.223694
0.200429
0.175278
0.146863
0.110961
0.049056
0.0856202
0.199719
0.269944
0.328261
0.381709
0.432318
0.48089
0.527831
0.57339
0.617735
0.660995
0.703268
0.744632
0.785144
0.824849
0.863777
0.901946
0.939368
0.976044
1.01197
1.04714
1.08154
1.11516
1.14797
1.17997
1.21114
1.24145
1.2709
1.29947
1.32715
1.35392
1.37978
1.40472
1.42873
1.45182
1.47398
1.49521
1.51552
1.53491
1.55339
1.57097
1.58765
1.60346
1.6184
1.63248
1.64573
1.65815
1.66977
1.68059
1.69066
1.69997
1.70856
1.71644
1.72362
1.73014
1.736
1.74124
1.74586
1.74989
1.75334
1.75624
1.75861
1.76046
1.76181
1.76268
1.76309
1.76305
1.76258
1.7617
1.76042
1.75875
1.75671
1.75432
1.75158
1.74852
1.74514
1.74145
1.73747
1.7332
1.72866
1.72386
1.71881
1.71351
1.70798
1.70222
1.69624
1.69005
1.68365
1.67706
1.67027
1.6633
1.65614
1.64881
1.64131
1.63364
1.6258
1.61781
1.60967
1.60137
1.59292
1.58432
1.57558
1.5667
1.55768
1.54852
1.53923
1.52979
1.52023
1.51053
1.5007
1.49073
1.48064
1.47041
1.46006
1.44957
1.43895
1.4282
1.41732
1.40631
1.39517
1.3839
1.37249
1.36096
1.34928
1.33748
1.32554
1.31347
1.30126
1.28892
1.27644
1.26383
1.25108
1.2382
1.22518
1.21202
1.19873
1.1853
1.17174
1.15804
1.14421
1.13024
1.11615
1.10192
1.08756
1.07307
1.05846
1.04372
1.02886
1.01388
0.99878
0.983564
0.968234
0.952794
0.937246
0.921594
0.90584
0.889989
0.874043
0.858006
0.841882
0.825675
0.809388
0.793025
0.77659
0.760086
0.743516
0.726885
0.710195
0.693449
0.67665
0.659799
0.6429
0.625952
0.608956
0.591914
0.574822
0.55768
0.540485
0.523232
0.505915
0.488528
0.471059
0.453498
0.435829
0.418034
0.400087
0.38196
0.363617
0.345017
0.326106
0.306818
0.287063
0.26674
0.245691
0.223694
0.200429
0.175278
0.146862
0.11096
0.0490578
0.102758
0.236595
0.316214
0.38097
0.439742
0.495206
0.548415
0.599863
0.649825
0.698474
0.745934
0.792299
0.837645
0.882029
0.925496
0.968081
1.00981
1.05068
1.09072
1.12992
1.16828
1.20578
1.24242
1.27818
1.31304
1.34699
1.38001
1.41209
1.4432
1.47335
1.50252
1.53069
1.55787
1.58404
1.6092
1.63336
1.65651
1.67866
1.69981
1.71997
1.73915
1.75736
1.77461
1.79091
1.80629
1.82076
1.83433
1.84702
1.85885
1.86985
1.88003
1.88941
1.89802
1.90587
1.91299
1.9194
1.92511
1.93016
1.93455
1.93832
1.94148
1.94405
1.94606
1.94752
1.94845
1.94887
1.9488
1.94826
1.94726
1.94582
1.94396
1.9417
1.93903
1.936
1.9326
1.92884
1.92476
1.92034
1.91562
1.91059
1.90528
1.89968
1.89382
1.8877
1.88132
1.87471
1.86785
1.86078
1.85348
1.84597
1.83826
1.83034
1.82223
1.81393
1.80545
1.79679
1.78795
1.77894
1.76976
1.76042
1.75091
1.74125
1.73143
1.72146
1.71133
1.70106
1.69063
1.68006
1.66934
1.65847
1.64746
1.6363
1.62501
1.61356
1.60198
1.59025
1.57838
1.56636
1.5542
1.5419
1.52945
1.51686
1.50412
1.49124
1.47821
1.46504
1.45172
1.43825
1.42463
1.41087
1.39695
1.38289
1.36869
1.35433
1.33982
1.32517
1.31037
1.29542
1.28033
1.26509
1.24971
1.23418
1.21851
1.20269
1.18674
1.17065
1.15443
1.13807
1.12158
1.10496
1.08822
1.07135
1.05436
1.03726
1.02004
1.00272
0.985283
0.967747
0.950114
0.932385
0.914566
0.896661
0.878673
0.860606
0.842465
0.824252
0.805972
0.787629
0.769224
0.750761
0.732242
0.71367
0.695045
0.676369
0.657641
0.638861
0.620027
0.601136
0.582183
0.563165
0.544072
0.524896
0.505624
0.486243
0.466734
0.447074
0.427235
0.407185
0.386881
0.366272
0.345293
0.323858
0.301854
0.279114
0.255391
0.230306
0.2031
0.17204
0.131808
0.0591456
0.10276
0.236597
0.316215
0.380971
0.439742
0.495206
0.548414
0.599862
0.649824
0.698473
0.745933
0.792298
0.837644
0.882028
0.925495
0.96808
1.0098
1.05068
1.09072
1.12992
1.16828
1.20578
1.24242
1.27818
1.31304
1.34699
1.38001
1.41208
1.4432
1.47335
1.50252
1.53069
1.55787
1.58404
1.6092
1.63336
1.65651
1.67865
1.6998
1.71997
1.73914
1.75735
1.77461
1.79091
1.80629
1.82076
1.83433
1.84702
1.85885
1.86985
1.88003
1.88941
1.89802
1.90587
1.91299
1.91939
1.92511
1.93015
1.93455
1.93832
1.94148
1.94405
1.94606
1.94752
1.94845
1.94887
1.9488
1.94826
1.94726
1.94582
1.94396
1.94169
1.93903
1.93599
1.93259
1.92884
1.92475
1.92034
1.91562
1.91059
1.90528
1.89968
1.89382
1.8877
1.88132
1.8747
1.86785
1.86078
1.85348
1.84597
1.83825
1.83034
1.82223
1.81393
1.80545
1.79678
1.78795
1.77894
1.76976
1.76042
1.75091
1.74125
1.73143
1.72146
1.71133
1.70105
1.69063
1.68005
1.66933
1.65847
1.64746
1.6363
1.625
1.61356
1.60198
1.59025
1.57838
1.56636
1.5542
1.5419
1.52945
1.51686
1.50412
1.49124
1.47821
1.46504
1.45171
1.43825
1.42463
1.41087
1.39695
1.38289
1.36869
1.35433
1.33982
1.32517
1.31037
1.29542
1.28033
1.26509
1.2497
1.23418
1.2185
1.20269
1.18674
1.17065
1.15443
1.13807
1.12158
1.10496
1.08822
1.07135
1.05436
1.03726
1.02004
1.00271
0.985282
0.967746
0.950113
0.932384
0.914566
0.89666
0.878672
0.860605
0.842464
0.824251
0.805972
0.787628
0.769223
0.75076
0.732242
0.713669
0.695045
0.676368
0.657641
0.63886
0.620026
0.601135
0.582183
0.563164
0.544071
0.524895
0.505624
0.486243
0.466733
0.447073
0.427235
0.407184
0.38688
0.366272
0.345293
0.323858
0.301854
0.279114
0.255391
0.230306
0.2031
0.17204
0.131808
0.0591459
0.118567
0.271287
0.360205
0.431324
0.495218
0.555196
0.612582
0.667993
0.721755
0.774064
0.825052
0.874818
0.923438
0.970975
1.01748
1.06298
1.10753
1.15112
1.19378
1.23552
1.27633
1.31621
1.35515
1.39314
1.43016
1.46621
1.50127
1.53533
1.56836
1.60037
1.63133
1.66125
1.69011
1.71791
1.74464
1.77031
1.79491
1.81846
1.84095
1.86239
1.88279
1.90217
1.92054
1.9379
1.95428
1.96969
1.98416
1.99769
2.01031
2.02204
2.0329
2.04292
2.05211
2.06049
2.0681
2.07494
2.08105
2.08644
2.09114
2.09517
2.09856
2.10131
2.10346
2.10502
2.10601
2.10646
2.10638
2.1058
2.10472
2.10318
2.10118
2.09874
2.09588
2.09261
2.08895
2.08492
2.08052
2.07578
2.07069
2.06529
2.05957
2.05355
2.04724
2.04064
2.03378
2.02666
2.01928
2.01166
2.0038
1.99571
1.98739
1.97887
1.97013
1.96118
1.95204
1.94271
1.93318
1.92347
1.91357
1.9035
1.89326
1.88284
1.87225
1.8615
1.85058
1.8395
1.82825
1.81685
1.80529
1.79358
1.7817
1.76967
1.75749
1.74515
1.73266
1.72001
1.70721
1.69425
1.68114
1.66788
1.65446
1.64088
1.62715
1.61327
1.59922
1.58502
1.57066
1.55615
1.54147
1.52664
1.51165
1.4965
1.48119
1.46573
1.4501
1.43432
1.41838
1.40228
1.38602
1.36961
1.35305
1.33633
1.31946
1.30244
1.28527
1.26795
1.25049
1.23288
1.21514
1.19726
1.17924
1.1611
1.14282
1.12442
1.1059
1.08726
1.06851
1.04965
1.03068
1.01162
0.99245
0.973192
0.953845
0.934413
0.9149
0.895311
0.875648
0.855916
0.836118
0.816256
0.796333
0.776352
0.756313
0.736218
0.716067
0.695859
0.675593
0.655266
0.634875
0.614414
0.593876
0.573253
0.552533
0.531703
0.510746
0.489639
0.468358
0.44687
0.425136
0.403103
0.380707
0.357859
0.334437
0.310261
0.28505
0.258327
0.229194
0.195572
0.151144
0.0684222
0.118569
0.271289
0.360206
0.431324
0.495218
0.555196
0.612582
0.667992
0.721754
0.774063
0.825051
0.874817
0.923437
0.970974
1.01748
1.06298
1.10752
1.15112
1.19378
1.23552
1.27633
1.31621
1.35515
1.39313
1.43016
1.46621
1.50127
1.53532
1.56836
1.60037
1.63133
1.66125
1.69011
1.71791
1.74464
1.77031
1.79491
1.81846
1.84095
1.86239
1.88279
1.90217
1.92054
1.9379
1.95428
1.96969
1.98415
1.99769
2.01031
2.02204
2.0329
2.04292
2.05211
2.06049
2.0681
2.07494
2.08105
2.08644
2.09114
2.09517
2.09855
2.10131
2.10345
2.10501
2.10601
2.10646
2.10638
2.1058
2.10472
2.10318
2.10117
2.09874
2.09588
2.09261
2.08895
2.08492
2.08052
2.07578
2.07069
2.06529
2.05957
2.05355
2.04723
2.04064
2.03378
2.02665
2.01928
2.01165
2.00379
1.99571
1.98739
1.97887
1.97013
1.96118
1.95204
1.9427
1.93318
1.92347
1.91357
1.9035
1.89325
1.88284
1.87225
1.86149
1.85058
1.83949
1.82825
1.81685
1.80529
1.79357
1.7817
1.76967
1.75749
1.74515
1.73266
1.72001
1.70721
1.69425
1.68114
1.66788
1.65446
1.64088
1.62715
1.61326
1.59922
1.58502
1.57066
1.55615
1.54147
1.52664
1.51165
1.4965
1.48119
1.46573
1.4501
1.43432
1.41838
1.40228
1.38602
1.36961
1.35305
1.33633
1.31946
1.30244
1.28527
1.26795
1.25049
1.23288
1.21514
1.19726
1.17924
1.16109
1.14282
1.12442
1.1059
1.08726
1.06851
1.04965
1.03068
1.01161
0.992449
0.973191
0.953844
0.934412
0.9149
0.89531
0.875648
0.855916
0.836117
0.816255
0.796333
0.776351
0.756312
0.736217
0.716066
0.695859
0.675593
0.655266
0.634874
0.614413
0.593876
0.573253
0.552533
0.531703
0.510745
0.489639
0.468358
0.44687
0.425135
0.403103
0.380707
0.357859
0.334437
0.310261
0.28505
0.258327
0.229195
0.195572
0.151144
0.0684223
0.134067
0.304713
0.402827
0.480288
0.549241
0.613584
0.67491
0.733972
0.791166
0.846723
0.900796
0.953493
1.0049
1.05509
1.10411
1.15202
1.19885
1.24463
1.28938
1.33311
1.37584
1.41756
1.45827
1.49797
1.53665
1.57429
1.61089
1.64644
1.68092
1.71433
1.74665
1.77787
1.808
1.83703
1.86494
1.89175
1.91746
1.94207
1.96558
1.988
2.00934
2.02962
2.04885
2.06703
2.08419
2.10034
2.1155
2.1297
2.14294
2.15526
2.16667
2.17719
2.18685
2.19567
2.20367
2.21088
2.21732
2.223
2.22796
2.23222
2.23579
2.23871
2.24099
2.24265
2.24371
2.2442
2.24414
2.24354
2.24242
2.2408
2.23871
2.23615
2.23315
2.22971
2.22586
2.22162
2.21699
2.21198
2.20662
2.20092
2.19488
2.18853
2.18186
2.1749
2.16764
2.16011
2.15231
2.14425
2.13594
2.12738
2.11858
2.10956
2.1003
2.09083
2.08115
2.07126
2.06117
2.05088
2.0404
2.02972
2.01886
2.00782
1.99659
1.98519
1.97361
1.96186
1.94993
1.93784
1.92558
1.91315
1.90055
1.88779
1.87486
1.86177
1.84852
1.83509
1.82151
1.80776
1.79385
1.77977
1.76553
1.75112
1.73655
1.72181
1.70691
1.69184
1.6766
1.6612
1.64563
1.62989
1.61398
1.59791
1.58167
1.56526
1.54868
1.53193
1.51502
1.49794
1.4807
1.46329
1.44572
1.42799
1.41009
1.39204
1.37383
1.35546
1.33695
1.31828
1.29946
1.2805
1.26139
1.24215
1.22277
1.20326
1.18363
1.16386
1.14398
1.12398
1.10387
1.08364
1.06332
1.0429
1.02238
1.00176
0.981065
0.960283
0.939422
0.918484
0.897474
0.876394
0.855248
0.834036
0.812761
0.791424
0.770025
0.748565
0.72704
0.70545
0.683792
0.662059
0.640246
0.618345
0.596346
0.574236
0.551998
0.529613
0.507056
0.484295
0.461292
0.437995
0.414334
0.390217
0.365508
0.340005
0.313386
0.285093
0.254076
0.217926
0.169412
0.0771236
0.134069
0.304715
0.402828
0.480288
0.549241
0.613583
0.674909
0.733971
0.791165
0.846723
0.900795
0.953492
1.0049
1.05509
1.10411
1.15202
1.19885
1.24463
1.28938
1.33311
1.37584
1.41756
1.45827
1.49797
1.53665
1.57429
1.61089
1.64644
1.68092
1.71432
1.74665
1.77787
1.808
1.83702
1.86494
1.89175
1.91746
1.94207
1.96558
1.988
2.00934
2.02962
2.04884
2.06703
2.08419
2.10034
2.1155
2.1297
2.14294
2.15526
2.16666
2.17719
2.18685
2.19567
2.20367
2.21088
2.21731
2.223
2.22796
2.23222
2.23579
2.23871
2.24098
2.24264
2.24371
2.2442
2.24414
2.24354
2.24242
2.2408
2.23871
2.23615
2.23315
2.22971
2.22586
2.22162
2.21698
2.21198
2.20662
2.20092
2.19488
2.18853
2.18186
2.1749
2.16764
2.16011
2.15231
2.14425
2.13594
2.12738
2.11858
2.10955
2.1003
2.09083
2.08115
2.07126
2.06117
2.05088
2.04039
2.02972
2.01886
2.00781
1.99659
1.98519
1.97361
1.96186
1.94993
1.93784
1.92558
1.91315
1.90055
1.88779
1.87486
1.86177
1.84851
1.83509
1.82151
1.80776
1.79385
1.77977
1.76553
1.75112
1.73655
1.72181
1.70691
1.69184
1.6766
1.6612
1.64563
1.62989
1.61398
1.59791
1.58166
1.56525
1.54868
1.53193
1.51502
1.49794
1.4807
1.46329
1.44572
1.42799
1.41009
1.39204
1.37383
1.35546
1.33694
1.31828
1.29946
1.2805
1.26139
1.24215
1.22277
1.20326
1.18362
1.16386
1.14398
1.12398
1.10386
1.08364
1.06332
1.04289
1.02237
1.00176
0.981065
0.960283
0.939421
0.918484
0.897474
0.876394
0.855247
0.834036
0.812761
0.791424
0.770025
0.748564
0.72704
0.70545
0.683791
0.662059
0.640246
0.618345
0.596346
0.574235
0.551998
0.529613
0.507056
0.484295
0.461292
0.437994
0.414334
0.390217
0.365508
0.340005
0.313386
0.285093
0.254076
0.217926
0.169413
0.0771237
0.149268
0.33743
0.444615
0.528397
0.602381
0.67101
0.736136
0.798649
0.859026
0.917541
0.974377
1.02966
1.08349
1.13595
1.1871
1.23701
1.28572
1.33327
1.3797
1.42501
1.46924
1.51239
1.55446
1.59546
1.63538
1.67422
1.71197
1.74862
1.78418
1.81861
1.85193
1.88413
1.91519
1.94512
1.97391
2.00157
2.02809
2.05349
2.07776
2.10092
2.12297
2.14393
2.1638
2.18261
2.20037
2.21709
2.2328
2.24751
2.26124
2.27402
2.28586
2.29679
2.30683
2.316
2.32433
2.33184
2.33854
2.34448
2.34966
2.35411
2.35786
2.36092
2.36332
2.36508
2.36622
2.36677
2.36673
2.36614
2.36501
2.36336
2.3612
2.35857
2.35547
2.35192
2.34793
2.34353
2.33872
2.33353
2.32796
2.32203
2.31575
2.30913
2.30219
2.29493
2.28737
2.27952
2.27138
2.26297
2.25429
2.24536
2.23617
2.22674
2.21707
2.20717
2.19705
2.1867
2.17615
2.16538
2.15441
2.14324
2.13187
2.1203
2.10855
2.0966
2.08448
2.07216
2.05967
2.04699
2.03414
2.02111
2.00791
1.99453
1.98097
1.96724
1.95334
1.93927
1.92502
1.9106
1.896
1.88123
1.86629
1.85118
1.83589
1.82043
1.80479
1.78898
1.77299
1.75682
1.74048
1.72397
1.70727
1.69041
1.67336
1.65614
1.63874
1.62117
1.60342
1.5855
1.56741
1.54914
1.5307
1.51209
1.49331
1.47437
1.45526
1.43599
1.41656
1.39697
1.37722
1.35732
1.33727
1.31708
1.29674
1.27627
1.25565
1.23491
1.21404
1.19304
1.17193
1.1507
1.12935
1.10791
1.08635
1.0647
1.04296
1.02112
0.999201
0.977195
0.955109
0.932946
0.910709
0.888399
0.866019
0.843569
0.821051
0.798463
0.775806
0.753076
0.730272
0.707389
0.68442
0.66136
0.638198
0.614922
0.591517
0.567964
0.54424
0.520312
0.49614
0.471672
0.446833
0.421522
0.395588
0.368805
0.340806
0.310957
0.278045
0.239364
0.18683
0.0854598
0.14927
0.337432
0.444616
0.528397
0.602381
0.671009
0.736135
0.798649
0.859025
0.917541
0.974376
1.02966
1.08349
1.13595
1.1871
1.23701
1.28572
1.33327
1.3797
1.42501
1.46924
1.51238
1.55446
1.59545
1.63538
1.67422
1.71197
1.74862
1.78417
1.81861
1.85193
1.88413
1.91519
1.94512
1.97391
2.00157
2.02809
2.05349
2.07776
2.10092
2.12297
2.14393
2.1638
2.18261
2.20037
2.21709
2.2328
2.24751
2.26124
2.27402
2.28586
2.29679
2.30683
2.316
2.32433
2.33183
2.33854
2.34448
2.34966
2.35411
2.35786
2.36092
2.36332
2.36508
2.36622
2.36676
2.36673
2.36614
2.36501
2.36335
2.3612
2.35857
2.35547
2.35191
2.34793
2.34353
2.33872
2.33353
2.32796
2.32203
2.31575
2.30913
2.30219
2.29493
2.28737
2.27952
2.27138
2.26297
2.25429
2.24535
2.23617
2.22674
2.21707
2.20717
2.19705
2.1867
2.17615
2.16538
2.15441
2.14324
2.13187
2.1203
2.10855
2.0966
2.08447
2.07216
2.05967
2.04699
2.03414
2.02111
2.00791
1.99453
1.98097
1.96724
1.95334
1.93927
1.92502
1.9106
1.896
1.88123
1.86629
1.85118
1.83589
1.82043
1.80479
1.78897
1.77299
1.75682
1.74048
1.72397
1.70727
1.69041
1.67336
1.65614
1.63874
1.62117
1.60342
1.5855
1.56741
1.54914
1.5307
1.51209
1.49331
1.47437
1.45526
1.43599
1.41656
1.39697
1.37722
1.35732
1.33727
1.31708
1.29674
1.27626
1.25565
1.23491
1.21404
1.19304
1.17193
1.1507
1.12935
1.1079
1.08635
1.0647
1.04296
1.02112
0.9992
0.977194
0.955109
0.932946
0.910708
0.888399
0.866018
0.843569
0.82105
0.798463
0.775806
0.753076
0.730272
0.707388
0.68442
0.66136
0.638198
0.614922
0.591517
0.567964
0.54424
0.520312
0.49614
0.471672
0.446833
0.421522
0.395589
0.368805
0.340806
0.310958
0.278045
0.239365
0.18683
0.0854598
0.164238
0.369707
0.485896
0.575991
0.654992
0.727856
0.796683
0.862503
0.925874
0.987126
1.04647
1.10407
1.16003
1.21446
1.26743
1.31902
1.36928
1.41827
1.46603
1.51259
1.55798
1.60221
1.64531
1.68727
1.72811
1.76782
1.8064
1.84385
1.88016
1.91533
1.94936
1.98223
2.01395
2.04452
2.07393
2.10219
2.12929
2.15525
2.18007
2.20375
2.22631
2.24776
2.26812
2.28738
2.30558
2.32273
2.33884
2.35394
2.36805
2.38118
2.39336
2.4046
2.41494
2.4244
2.43299
2.44074
2.44767
2.45381
2.45918
2.46381
2.4677
2.4709
2.47341
2.47527
2.47649
2.47709
2.4771
2.47654
2.47541
2.47375
2.47157
2.4689
2.46574
2.46211
2.45803
2.45352
2.44859
2.44326
2.43754
2.43144
2.42498
2.41817
2.41102
2.40354
2.39574
2.38764
2.37924
2.37055
2.36159
2.35235
2.34285
2.3331
2.32309
2.31285
2.30237
2.29166
2.28073
2.26957
2.2582
2.24662
2.23483
2.22284
2.21064
2.19825
2.18567
2.17289
2.15992
2.14676
2.13342
2.11988
2.10617
2.09227
2.07819
2.06392
2.04947
2.03484
2.02003
2.00504
1.98987
1.97451
1.95898
1.94326
1.92736
1.91127
1.89501
1.87856
1.86193
1.84511
1.82811
1.81093
1.79356
1.77601
1.75828
1.74036
1.72226
1.70397
1.6855
1.66685
1.64802
1.62901
1.60982
1.59045
1.5709
1.55119
1.5313
1.51124
1.49101
1.47061
1.45006
1.42934
1.40847
1.38744
1.36626
1.34494
1.32347
1.30186
1.28012
1.25824
1.23624
1.21412
1.19188
1.16952
1.14705
1.12447
1.10179
1.07901
1.05614
1.03317
1.01012
0.986979
0.963755
0.94045
0.917066
0.893603
0.870063
0.846446
0.82275
0.798974
0.775116
0.751172
0.727136
0.703002
0.67876
0.654401
0.629908
0.605264
0.580443
0.555416
0.530138
0.504555
0.478585
0.452117
0.424985
0.396934
0.367553
0.336133
0.301316
0.260104
0.203607
0.0934317
0.16424
0.36971
0.485897
0.575991
0.654992
0.727855
0.796682
0.862502
0.925873
0.987125
1.04647
1.10407
1.16003
1.21446
1.26743
1.31902
1.36928
1.41827
1.46603
1.51259
1.55798
1.60221
1.64531
1.68727
1.72811
1.76782
1.8064
1.84385
1.88016
1.91533
1.94936
1.98223
2.01395
2.04452
2.07393
2.10219
2.12929
2.15525
2.18007
2.20375
2.22631
2.24776
2.26812
2.28738
2.30558
2.32273
2.33884
2.35394
2.36805
2.38118
2.39336
2.4046
2.41494
2.4244
2.43299
2.44074
2.44767
2.45381
2.45918
2.4638
2.4677
2.4709
2.47341
2.47527
2.47649
2.47709
2.4771
2.47653
2.47541
2.47375
2.47157
2.4689
2.46573
2.46211
2.45803
2.45352
2.44859
2.44326
2.43754
2.43144
2.42498
2.41817
2.41102
2.40354
2.39574
2.38764
2.37924
2.37055
2.36159
2.35235
2.34285
2.3331
2.32309
2.31285
2.30237
2.29166
2.28072
2.26957
2.2582
2.24662
2.23483
2.22284
2.21064
2.19825
2.18567
2.17289
2.15992
2.14676
2.13342
2.11988
2.10617
2.09227
2.07818
2.06392
2.04947
2.03484
2.02003
2.00504
1.98987
1.97451
1.95898
1.94326
1.92736
1.91127
1.89501
1.87856
1.86193