/*--------------------------------*- C++ -*----------------------------------*\
  =========                 |
  \\      /  F ield         | OpenFOAM: The Open Source CFD Toolbox
   \\    /   O peration     | Website:  https://openfoam.org
    \\  /    A nd           | Version:  8
     \\/     M anipulation  |
\*---------------------------------------------------------------------------*/
FoamFile
{
    version     2.0;
    format      ascii;
    class       surfaceScalarField;
    location    "2200";
    object      phi;
}
// * * * * * * * * * * * * * * * * * * * * * * * * * * * * * * * * * * * * * //

dimensions      [1 0 -1 0 0 0 0];

internalField   nonuniform List<scalar> 
119360
(
-3.08503e-07
-1.61036e-11
3.08519e-07
-5.07372e-07
-2.56922e-12
1.99017e-07
-5.74246e-07
-1.33434e-12
6.69271e-08
-5.31657e-07
-1.38164e-12
-4.2546e-08
-4.13715e-07
-1.69273e-12
-1.17904e-07
-2.47386e-07
-1.979e-12
-1.66292e-07
-5.14278e-08
-2.15109e-12
-1.95922e-07
1.60947e-07
-2.14232e-12
-2.12339e-07
3.80472e-07
-1.99039e-12
-2.19489e-07
6.01295e-07
-1.80776e-12
-2.2079e-07
8.19572e-07
-1.62491e-12
-2.18247e-07
1.03272e-06
-1.44114e-12
-2.1312e-07
1.23901e-06
-1.27064e-12
-2.06266e-07
1.43731e-06
-1.1234e-12
-1.98272e-07
1.62688e-06
-1.00702e-12
-1.8955e-07
1.80729e-06
-9.24196e-13
-1.80397e-07
1.97834e-06
-8.68852e-13
-1.71029e-07
2.13996e-06
-8.32465e-13
-1.61605e-07
2.29222e-06
-8.0507e-13
-1.52243e-07
2.43527e-06
-7.78065e-13
-1.43029e-07
2.56931e-06
-7.45341e-13
-1.34026e-07
2.6946e-06
-7.02709e-13
-1.25283e-07
2.81145e-06
-6.4792e-13
-1.16832e-07
2.92016e-06
-5.80835e-13
-1.08695e-07
3.02106e-06
-5.0645e-13
-1.00887e-07
3.11448e-06
-4.33509e-13
-9.34155e-08
3.20078e-06
-3.68811e-13
-8.62836e-08
3.28028e-06
-3.16242e-13
-7.94899e-08
3.35332e-06
-2.79383e-13
-7.30299e-08
3.42022e-06
-2.61647e-13
-6.68971e-08
3.48131e-06
-2.65283e-13
-6.10826e-08
3.5369e-06
-2.86905e-13
-5.55766e-08
3.58727e-06
-3.19046e-13
-5.03681e-08
3.63272e-06
-3.54684e-13
-4.54456e-08
3.67353e-06
-3.89767e-13
-4.0797e-08
3.70995e-06
-4.23935e-13
-3.64103e-08
3.74223e-06
-4.57075e-13
-3.22735e-08
3.77061e-06
-4.86177e-13
-2.83746e-08
3.79532e-06
-5.0691e-13
-2.47019e-08
3.81658e-06
-5.16958e-13
-2.12442e-08
3.83458e-06
-5.17305e-13
-1.79905e-08
3.84952e-06
-5.13808e-13
-1.49303e-08
3.86158e-06
-5.13239e-13
-1.20536e-08
3.87095e-06
-5.19956e-13
-9.35086e-09
3.87777e-06
-5.34389e-13
-6.81307e-09
3.88222e-06
-5.53887e-13
-4.43171e-09
3.88443e-06
-5.7562e-13
-2.19869e-09
3.88455e-06
-5.97699e-13
-1.0535e-10
3.88271e-06
-6.2007e-13
1.85497e-09
3.87903e-06
-6.43219e-13
3.68848e-09
3.87365e-06
-6.67158e-13
5.40268e-09
3.86666e-06
-6.88738e-13
7.00411e-09
3.85818e-06
-7.03462e-13
8.49878e-09
3.8483e-06
-7.05988e-13
9.89233e-09
3.83713e-06
-6.92596e-13
1.11901e-08
3.82475e-06
-6.61357e-13
1.23972e-08
3.81125e-06
-6.13812e-13
1.35185e-08
3.79671e-06
-5.5368e-13
1.45585e-08
3.78121e-06
-4.86109e-13
1.55218e-08
3.76482e-06
-4.16192e-13
1.64125e-08
3.7476e-06
-3.48275e-13
1.72346e-08
3.72962e-06
-2.8538e-13
1.7992e-08
3.71095e-06
-2.2912e-13
1.86884e-08
3.69164e-06
-1.79979e-13
1.93272e-08
3.67174e-06
-1.37776e-13
1.99118e-08
3.65131e-06
-1.02444e-13
2.04455e-08
3.63039e-06
-7.36195e-14
2.09314e-08
3.60903e-06
-5.13041e-14
2.13723e-08
3.58727e-06
-3.57332e-14
2.17712e-08
3.56515e-06
-2.72817e-14
2.21307e-08
3.54271e-06
-2.59495e-14
2.24535e-08
3.51997e-06
-3.18754e-14
2.2742e-08
3.49698e-06
-4.46707e-14
2.29985e-08
3.47376e-06
-6.33364e-14
2.32254e-08
3.45034e-06
-8.71368e-14
2.34247e-08
3.42675e-06
-1.14004e-13
2.35986e-08
3.40301e-06
-1.4262e-13
2.37489e-08
3.37913e-06
-1.71514e-13
2.38777e-08
3.35515e-06
-1.99159e-13
2.39866e-08
3.33108e-06
-2.24472e-13
2.40774e-08
3.30694e-06
-2.46426e-13
2.41516e-08
3.28273e-06
-2.65092e-13
2.42108e-08
3.25848e-06
-2.80025e-13
2.42564e-08
3.2342e-06
-2.91821e-13
2.42898e-08
3.20989e-06
-3.01022e-13
2.43124e-08
3.18557e-06
-3.08641e-13
2.43253e-08
3.16125e-06
-3.15566e-13
2.43296e-08
3.13693e-06
-3.22657e-13
2.43266e-08
3.11262e-06
-3.31373e-13
2.43173e-08
3.08833e-06
-3.42641e-13
2.43026e-08
3.06405e-06
-3.57407e-13
2.42835e-08
3.0398e-06
-3.76198e-13
2.42609e-08
3.01558e-06
-3.99235e-13
2.42356e-08
2.99138e-06
-4.26797e-13
2.42084e-08
2.9672e-06
-4.58438e-13
2.418e-08
2.94306e-06
-4.92883e-13
2.41512e-08
2.91895e-06
-5.2927e-13
2.41227e-08
2.89487e-06
-5.65686e-13
2.40951e-08
2.87081e-06
-6.01074e-13
2.4069e-08
2.84677e-06
-6.33437e-13
2.4045e-08
2.82276e-06
-6.61442e-13
2.40236e-08
2.79877e-06
-6.83508e-13
2.40054e-08
2.77479e-06
-6.98968e-13
2.3991e-08
2.75083e-06
-7.06795e-13
2.39807e-08
2.72687e-06
-7.06767e-13
2.39752e-08
2.70291e-06
-6.98857e-13
2.39747e-08
2.67895e-06
-6.83536e-13
2.39799e-08
2.65497e-06
-6.6172e-13
2.39911e-08
2.63098e-06
-6.34298e-13
2.40089e-08
2.60697e-06
-6.02129e-13
2.40335e-08
2.58292e-06
-5.66768e-13
2.40654e-08
2.55883e-06
-5.29382e-13
2.41051e-08
2.5347e-06
-4.91301e-13
2.4153e-08
2.51051e-06
-4.53554e-13
2.42094e-08
2.48625e-06
-4.17194e-13
2.42748e-08
2.46192e-06
-3.83499e-13
2.43496e-08
2.4375e-06
-3.52801e-13
2.44342e-08
2.41299e-06
-3.25323e-13
2.45289e-08
2.38837e-06
-3.01092e-13
2.46343e-08
2.36363e-06
-2.79221e-13
2.47505e-08
2.33877e-06
-2.58432e-13
2.48781e-08
2.31377e-06
-2.37393e-13
2.50175e-08
2.28861e-06
-2.1419e-13
2.5169e-08
2.26329e-06
-1.86878e-13
2.53329e-08
2.2378e-06
-1.54043e-13
2.55098e-08
2.21211e-06
-1.1427e-13
2.57e-08
2.18622e-06
-6.73626e-14
2.59038e-08
2.1601e-06
-1.39609e-14
2.61216e-08
2.13376e-06
4.43535e-14
2.63538e-08
2.10717e-06
1.04361e-13
2.66008e-08
2.08031e-06
1.6262e-13
2.68628e-08
2.05318e-06
2.15383e-13
2.71402e-08
2.02575e-06
2.5932e-13
2.74333e-08
1.99802e-06
2.92905e-13
2.77423e-08
1.96995e-06
3.15692e-13
2.80677e-08
1.94154e-06
3.30375e-13
2.84095e-08
1.91278e-06
3.41338e-13
2.87682e-08
1.88363e-06
3.53717e-13
2.9144e-08
1.8541e-06
3.72147e-13
2.9537e-08
1.82415e-06
4.00346e-13
2.99475e-08
1.79377e-06
4.37789e-13
3.03757e-08
1.76294e-06
4.80421e-13
3.08217e-08
1.73165e-06
5.19973e-13
3.12855e-08
1.69988e-06
5.47201e-13
3.17673e-08
1.6676e-06
5.53418e-13
3.22668e-08
1.63481e-06
5.33934e-13
3.27839e-08
1.60149e-06
4.90885e-13
3.33186e-08
1.56761e-06
4.32987e-13
3.38706e-08
1.53316e-06
3.73562e-13
3.44397e-08
1.49812e-06
3.26045e-13
3.50255e-08
1.46248e-06
2.99705e-13
3.56277e-08
1.42623e-06
2.94764e-13
3.62458e-08
1.38934e-06
3.02453e-13
3.68792e-08
1.3518e-06
3.07948e-13
3.75271e-08
1.3136e-06
2.97595e-13
3.81885e-08
1.27473e-06
2.65094e-13
3.88625e-08
1.23517e-06
2.16105e-13
3.95477e-08
1.19492e-06
1.64757e-13
4.02428e-08
1.15396e-06
1.27925e-13
4.09463e-08
1.1123e-06
1.12355e-13
4.16565e-08
1.06992e-06
1.10634e-13
4.23713e-08
1.02682e-06
1.02918e-13
4.30884e-08
9.83008e-07
6.95555e-14
4.3805e-08
9.38482e-07
5.07927e-15
4.45182e-08
8.9325e-07
-7.40519e-14
4.52246e-08
8.47323e-07
-1.35725e-13
4.59204e-08
8.00716e-07
-1.54932e-13
4.66015e-08
7.53448e-07
-1.31589e-13
4.7263e-08
7.05545e-07
-9.83935e-14
4.78993e-08
6.57038e-07
-9.80604e-14
4.85041e-08
6.07965e-07
-1.52517e-13
4.907e-08
5.58374e-07
-2.40363e-13
4.95887e-08
5.08321e-07
-3.08253e-13
5.00511e-08
4.57874e-07
-3.15775e-13
5.04464e-08
4.07112e-07
-2.7256e-13
5.07624e-08
3.56128e-07
-2.35312e-13
5.09848e-08
3.05033e-07
-2.54352e-13
5.10966e-08
2.53956e-07
-3.19578e-13
5.10787e-08
2.0305e-07
-3.5999e-13
5.09083e-08
1.52494e-07
-3.15969e-13
5.0559e-08
1.02499e-07
-2.09277e-13
4.9999e-08
5.33159e-08
-1.27287e-13
4.91875e-08
5.24053e-09
-1.22624e-13
4.80795e-08
-4.1345e-08
-1.46605e-13
4.65896e-08
-8.59891e-08
-1.17129e-13
4.46486e-08
-1.28187e-07
-5.26801e-14
4.22027e-08
-1.67355e-07
-5.57887e-14
3.91725e-08
-2.02793e-07
-1.54265e-13
3.54423e-08
-2.3364e-07
-2.15994e-13
3.08514e-08
-2.58868e-07
-1.31339e-13
2.52311e-08
-2.77228e-07
-1.21569e-14
1.83642e-08
-2.87219e-07
-3.08642e-14
9.9942e-09
-2.87055e-07
-9.78662e-14
-1.62298e-10
-2.74752e-07
-1.44328e-15
-1.23004e-08
-2.48263e-07
1.79468e-13
-2.64868e-08
-2.05863e-07
3.88245e-13
-4.23999e-08
-1.47412e-07
1.15463e-12
-5.84497e-08
-7.73341e-08
1.82565e-12
-7.00756e-08
-1.44703e-08
7.4929e-13
-6.28618e-08
8.03802e-13
-1.4469e-08
-3.08474e-07
3.08535e-07
-5.07366e-07
1.99021e-07
-5.7424e-07
6.69292e-08
-5.3165e-07
-4.25443e-08
-4.13707e-07
-1.17903e-07
-2.47377e-07
-1.6629e-07
-5.14191e-08
-1.9592e-07
1.60956e-07
-2.12337e-07
3.80479e-07
-2.19488e-07
6.01301e-07
-2.20789e-07
8.19577e-07
-2.18245e-07
1.03272e-06
-2.13118e-07
1.23901e-06
-2.06265e-07
1.43731e-06
-1.9827e-07
1.62688e-06
-1.89549e-07
1.8073e-06
-1.80396e-07
1.97834e-06
-1.71028e-07
2.13996e-06
-1.61605e-07
2.29222e-06
-1.52242e-07
2.43526e-06
-1.43028e-07
2.5693e-06
-1.34025e-07
2.6946e-06
-1.25282e-07
2.81145e-06
-1.16831e-07
2.92015e-06
-1.08694e-07
3.02105e-06
-1.00886e-07
3.11448e-06
-9.34146e-08
3.20077e-06
-8.62827e-08
3.28027e-06
-7.94891e-08
3.35331e-06
-7.30292e-08
3.42022e-06
-6.68964e-08
3.48131e-06
-6.1082e-08
3.53689e-06
-5.5576e-08
3.58727e-06
-5.03675e-08
3.63272e-06
-4.54449e-08
3.67353e-06
-4.07963e-08
3.70994e-06
-3.64095e-08
3.74223e-06
-3.22726e-08
3.77061e-06
-2.83737e-08
3.79532e-06
-2.47009e-08
3.81657e-06
-2.12432e-08
3.83458e-06
-1.79894e-08
3.84952e-06
-1.49291e-08
3.86158e-06
-1.20524e-08
3.87094e-06
-9.34961e-09
3.87777e-06
-6.81178e-09
3.88221e-06
-4.43036e-09
3.88442e-06
-2.19727e-09
3.88454e-06
-1.03865e-10
3.8827e-06
1.85653e-09
3.87903e-06
3.6901e-09
3.87364e-06
5.40437e-09
3.86665e-06
7.00585e-09
3.85817e-06
8.50058e-09
3.8483e-06
9.89418e-09
3.83713e-06
1.1192e-08
3.82475e-06
1.23991e-08
3.81125e-06
1.35204e-08
3.79671e-06
1.45604e-08
3.78121e-06
1.55236e-08
3.76481e-06
1.64143e-08
3.7476e-06
1.72363e-08
3.72962e-06
1.79936e-08
3.71095e-06
1.86898e-08
3.69164e-06
1.93285e-08
3.67174e-06
1.99131e-08
3.65131e-06
2.04467e-08
3.63039e-06
2.09324e-08
3.60903e-06
2.13733e-08
3.58727e-06
2.17721e-08
3.56515e-06
2.21315e-08
3.5427e-06
2.24542e-08
3.51997e-06
2.27426e-08
3.49698e-06
2.29991e-08
3.47376e-06
2.32259e-08
3.45034e-06
2.34253e-08
3.42675e-06
2.35991e-08
3.40301e-06
2.37495e-08
3.37913e-06
2.38783e-08
3.35515e-06
2.39872e-08
3.33108e-06
2.4078e-08
3.30693e-06
2.41522e-08
3.28273e-06
2.42115e-08
3.25848e-06
2.42571e-08
3.2342e-06
2.42906e-08
3.20989e-06
2.43131e-08
3.18557e-06
2.4326e-08
3.16125e-06
2.43304e-08
3.13693e-06
2.43274e-08
3.11262e-06
2.43181e-08
3.08833e-06
2.43034e-08
3.06405e-06
2.42843e-08
3.0398e-06
2.42617e-08
3.01557e-06
2.42364e-08
2.99137e-06
2.42092e-08
2.9672e-06
2.41809e-08
2.94306e-06
2.41522e-08
2.91895e-06
2.41237e-08
2.89487e-06
2.40961e-08
2.87081e-06
2.40701e-08
2.84677e-06
2.40462e-08
2.82276e-06
2.40249e-08
2.79877e-06
2.40069e-08
2.77479e-06
2.39925e-08
2.75083e-06
2.39823e-08
2.72687e-06
2.39768e-08
2.70291e-06
2.39765e-08
2.67895e-06
2.39817e-08
2.65497e-06
2.3993e-08
2.63098e-06
2.40107e-08
2.60697e-06
2.40353e-08
2.58292e-06
2.40673e-08
2.55883e-06
2.4107e-08
2.5347e-06
2.41548e-08
2.51051e-06
2.42112e-08
2.48625e-06
2.42766e-08
2.46192e-06
2.43513e-08
2.4375e-06
2.44358e-08
2.41299e-06
2.45305e-08
2.38837e-06
2.46358e-08
2.36363e-06
2.4752e-08
2.33877e-06
2.48796e-08
2.31377e-06
2.50189e-08
2.28861e-06
2.51703e-08
2.26329e-06
2.53343e-08
2.2378e-06
2.55111e-08
2.21211e-06
2.57012e-08
2.18622e-06
2.59049e-08
2.1601e-06
2.61227e-08
2.13376e-06
2.63548e-08
2.10717e-06
2.66016e-08
2.08031e-06
2.68635e-08
2.05318e-06
2.71408e-08
2.02575e-06
2.74338e-08
1.99802e-06
2.77427e-08
1.96995e-06
2.80679e-08
1.94154e-06
2.84096e-08
1.91278e-06
2.87682e-08
1.88363e-06
2.91438e-08
1.8541e-06
2.95368e-08
1.82415e-06
2.99472e-08
1.79377e-06
3.03753e-08
1.76294e-06
3.08212e-08
1.73165e-06
3.1285e-08
1.69988e-06
3.17666e-08
1.6676e-06
3.2266e-08
1.63481e-06
3.27831e-08
1.60149e-06
3.33177e-08
1.56761e-06
3.38696e-08
1.53316e-06
3.44387e-08
1.49812e-06
3.50245e-08
1.46248e-06
3.56267e-08
1.42623e-06
3.62448e-08
1.38934e-06
3.68782e-08
1.3518e-06
3.75261e-08
1.3136e-06
3.81875e-08
1.27473e-06
3.88614e-08
1.23517e-06
3.95466e-08
1.19492e-06
4.02418e-08
1.15396e-06
4.09454e-08
1.1123e-06
4.16556e-08
1.06992e-06
4.23704e-08
1.02682e-06
4.30875e-08
9.83008e-07
4.38042e-08
9.38482e-07
4.45174e-08
8.93251e-07
4.52239e-08
8.47324e-07
4.59198e-08
8.00717e-07
4.66009e-08
7.53449e-07
4.72625e-08
7.05546e-07
4.78989e-08
6.57039e-07
4.85037e-08
6.07966e-07
4.90696e-08
5.58375e-07
4.95884e-08
5.08322e-07
5.00509e-08
4.57875e-07
5.04463e-08
4.07113e-07
5.07625e-08
3.56129e-07
5.09849e-08
3.05034e-07
5.10967e-08
2.53957e-07
5.10787e-08
2.03051e-07
5.09084e-08
1.52495e-07
5.05594e-08
1.025e-07
4.99995e-08
5.33168e-08
4.9188e-08
5.24123e-09
4.80799e-08
-4.13442e-08
4.659e-08
-8.59881e-08
4.46492e-08
-1.28186e-07
4.22033e-08
-1.67354e-07
3.91728e-08
-2.02792e-07
3.54423e-08
-2.3364e-07
3.08516e-08
-2.58867e-07
2.52316e-08
-2.77227e-07
1.83646e-08
-2.87219e-07
9.99447e-09
-2.87054e-07
-1.62033e-10
-2.74751e-07
-1.23005e-08
-2.48263e-07
-2.64883e-08
-2.05861e-07
-4.24023e-08
-1.4741e-07
-5.84523e-08
-7.73357e-08
-7.00787e-08
-1.44709e-08
-6.28702e-08
-1.44751e-08
-1.73597e-07
-3.37436e-12
4.8225e-07
-1.94265e-07
3.93788e-13
2.1978e-07
-1.47739e-07
4.49971e-13
2.04437e-08
-5.86243e-08
3.64045e-13
-1.31624e-07
6.37488e-08
2.74502e-13
-2.40244e-07
2.11395e-07
2.09261e-13
-3.13906e-07
3.76817e-07
1.7462e-13
-3.61313e-07
5.53829e-07
1.5875e-13
-3.89321e-07
7.37533e-07
1.50637e-13
-4.03165e-07
9.23938e-07
1.47813e-13
-4.07169e-07
1.10999e-06
1.47757e-13
-4.04273e-07
1.29341e-06
1.48353e-13
-3.96524e-07
1.47255e-06
1.46458e-13
-3.85381e-07
1.64619e-06
1.40393e-13
-3.7189e-07
1.81347e-06
1.29353e-13
-3.56816e-07
1.97381e-06
1.13907e-13
-3.40725e-07
2.12684e-06
9.65943e-14
-3.24038e-07
2.27232e-06
7.99338e-14
-3.07076e-07
2.41017e-06
6.54035e-14
-2.90077e-07
2.54038e-06
5.38779e-14
-2.73227e-07
2.66303e-06
4.66751e-14
-2.56661e-07
2.77824e-06
4.451e-14
-2.40484e-07
2.88619e-06
4.70634e-14
-2.24772e-07
2.98708e-06
5.24132e-14
-2.09579e-07
3.08115e-06
5.8547e-14
-1.94943e-07
3.16863e-06
6.3869e-14
-1.80888e-07
3.24979e-06
6.738e-14
-1.67428e-07
3.32487e-06
6.82472e-14
-1.54568e-07
3.39415e-06
6.5423e-14
-1.42304e-07
3.4579e-06
5.85569e-14
-1.30631e-07
3.51636e-06
4.85336e-14
-1.19536e-07
3.56979e-06
3.75561e-14
-1.09004e-07
3.61845e-06
2.78347e-14
-9.90191e-08
3.66257e-06
2.04655e-14
-8.95618e-08
3.70239e-06
1.54521e-14
-8.06124e-08
3.73814e-06
1.25515e-14
-7.21506e-08
3.77003e-06
1.19755e-14
-6.41556e-08
3.79827e-06
1.45359e-14
-5.66066e-08
3.82306e-06
2.0767e-14
-4.94832e-08
3.84459e-06
3.02767e-14
-4.27651e-08
3.86305e-06
4.15107e-14
-3.6433e-08
3.87859e-06
5.25123e-14
-3.04678e-08
3.8914e-06
6.18207e-14
-2.48513e-08
3.90163e-06
6.91655e-14
-1.95662e-08
3.90942e-06
7.50705e-14
-1.45956e-08
3.91493e-06
8.04862e-14
-9.92368e-09
3.91828e-06
8.59748e-14
-5.53521e-09
3.9196e-06
9.16612e-14
-1.41555e-09
3.91902e-06
9.69486e-14
2.44834e-09
3.91665e-06
1.01556e-13
6.06912e-09
3.91261e-06
1.05973e-13
9.45983e-09
3.907e-06
1.10882e-13
1.26325e-08
3.89992e-06
1.17245e-13
1.55984e-08
3.89146e-06
1.25748e-13
1.83682e-08
3.88171e-06
1.36483e-13
2.09521e-08
3.87077e-06
1.48896e-13
2.33599e-08
3.8587e-06
1.61785e-13
2.56006e-08
3.84559e-06
1.73755e-13
2.76831e-08
3.83152e-06
1.8339e-13
2.96159e-08
3.81654e-06
1.89784e-13
3.14071e-08
3.80072e-06
1.924e-13
3.30642e-08
3.78414e-06
1.91109e-13
3.45948e-08
3.76683e-06
1.86297e-13
3.6006e-08
3.74887e-06
1.78463e-13
3.73044e-08
3.73029e-06
1.68276e-13
3.84966e-08
3.71116e-06
1.56289e-13
3.95889e-08
3.69152e-06
1.43057e-13
4.05872e-08
3.6714e-06
1.29082e-13
4.14973e-08
3.65086e-06
1.14767e-13
4.23246e-08
3.62992e-06
1.00442e-13
4.30743e-08
3.60863e-06
8.64598e-14
4.37516e-08
3.58702e-06
7.31475e-14
4.43612e-08
3.56511e-06
6.08829e-14
4.49078e-08
3.54295e-06
4.9975e-14
4.53956e-08
3.52055e-06
4.07497e-14
4.5829e-08
3.49794e-06
3.35054e-14
4.62118e-08
3.47515e-06
2.8388e-14
4.6548e-08
3.45219e-06
2.54979e-14
4.68411e-08
3.42909e-06
2.47519e-14
4.70947e-08
3.40586e-06
2.60842e-14
4.73119e-08
3.38252e-06
2.9106e-14
4.7496e-08
3.35908e-06
3.35365e-14
4.76499e-08
3.33557e-06
3.88829e-14
4.77764e-08
3.31199e-06
4.47878e-14
4.78782e-08
3.28835e-06
5.06928e-14
4.79578e-08
3.26466e-06
5.62682e-14
4.80178e-08
3.24094e-06
6.10976e-14
4.80602e-08
3.21719e-06
6.49209e-14
4.80875e-08
3.19341e-06
6.75438e-14
4.81015e-08
3.16961e-06
6.89003e-14
4.81043e-08
3.14581e-06
6.89593e-14
4.80977e-08
3.12199e-06
6.79531e-14
4.80835e-08
3.09817e-06
6.60935e-14
4.80634e-08
3.07435e-06
6.37585e-14
4.80389e-08
3.05053e-06
6.1368e-14
4.80116e-08
3.02671e-06
5.93939e-14
4.79829e-08
3.00288e-06
5.8242e-14
4.79541e-08
2.97906e-06
5.83426e-14
4.79266e-08
2.95524e-06
6.00634e-14
4.79015e-08
2.93142e-06
6.35433e-14
4.78801e-08
2.90759e-06
6.88723e-14
4.78633e-08
2.88376e-06
7.60367e-14
4.78524e-08
2.85991e-06
8.48422e-14
4.78483e-08
2.83605e-06
9.4966e-14
4.7852e-08
2.81218e-06
1.06054e-13
4.78644e-08
2.78828e-06
1.1767e-13
4.78865e-08
2.76436e-06
1.29261e-13
4.79192e-08
2.7404e-06
1.40384e-13
4.79634e-08
2.71641e-06
1.50623e-13
4.80198e-08
2.69237e-06
1.59598e-13
4.80894e-08
2.66828e-06
1.67016e-13
4.81731e-08
2.64413e-06
1.72685e-13
4.82716e-08
2.61991e-06
1.76435e-13
4.83858e-08
2.59562e-06
1.78285e-13
4.85165e-08
2.57124e-06
1.78288e-13
4.86646e-08
2.54678e-06
1.76553e-13
4.88307e-08
2.52221e-06
1.73299e-13
4.90159e-08
2.49753e-06
1.6883e-13
4.92207e-08
2.47273e-06
1.63435e-13
4.94461e-08
2.44781e-06
1.57586e-13
4.96927e-08
2.42273e-06
1.51611e-13
4.99613e-08
2.39751e-06
1.45911e-13
5.02528e-08
2.37212e-06
1.40849e-13
5.05678e-08
2.34656e-06
1.36596e-13
5.0907e-08
2.32081e-06
1.33286e-13
5.12712e-08
2.29486e-06
1.30732e-13
5.16611e-08
2.26869e-06
1.28845e-13
5.20773e-08
2.2423e-06
1.27107e-13
5.25207e-08
2.21567e-06
1.24949e-13
5.29917e-08
2.18879e-06
1.21649e-13
5.34912e-08
2.16164e-06
1.16608e-13
5.40197e-08
2.13421e-06
1.09201e-13
5.45778e-08
2.10648e-06
9.92193e-14
5.51662e-08
2.07844e-06
8.6875e-14
5.57854e-08
2.05007e-06
7.27335e-14
5.64359e-08
2.02136e-06
5.76969e-14
5.71182e-08
1.9923e-06
4.30212e-14
5.78327e-08
1.96286e-06
2.9865e-14
5.85799e-08
1.93304e-06
1.89779e-14
5.93601e-08
1.90281e-06
1.04986e-14
6.01735e-08
1.87216e-06
3.97601e-15
6.10204e-08
1.84108e-06
-2.03308e-15
6.19009e-08
1.80954e-06
-9.29116e-15
6.2815e-08
1.77754e-06
-1.94775e-14
6.37627e-08
1.74506e-06
-3.34732e-14
6.47438e-08
1.71207e-06
-5.10425e-14
6.5758e-08
1.67858e-06
-7.04436e-14
6.6805e-08
1.64456e-06
-8.88317e-14
6.78843e-08
1.60999e-06
-1.03195e-13
6.89951e-08
1.57487e-06
-1.11314e-13
7.01366e-08
1.53918e-06
-1.12778e-13
7.13078e-08
1.50291e-06
-1.09461e-13
7.25075e-08
1.46605e-06
-1.0468e-13
7.37342e-08
1.42858e-06
-1.02029e-13
7.49863e-08
1.3905e-06
-1.03813e-13
7.62618e-08
1.3518e-06
-1.09461e-13
7.75584e-08
1.31246e-06
-1.15949e-13
7.88736e-08
1.27249e-06
-1.19189e-13
8.02045e-08
1.23188e-06
-1.16421e-13
8.15476e-08
1.19063e-06
-1.08309e-13
8.28994e-08
1.14874e-06
-9.90458e-14
8.42554e-08
1.10621e-06
-9.39596e-14
8.56109e-08
1.06305e-06
-9.60482e-14
8.69605e-08
1.01926e-06
-1.03181e-13
8.82982e-08
9.74865e-07
-1.08434e-13
8.9617e-08
9.29872e-07
-1.04493e-13
9.09093e-08
8.84303e-07
-8.89427e-14
9.21665e-08
8.38184e-07
-6.76681e-14
9.33789e-08
7.91545e-07
-5.15282e-14
9.45353e-08
7.44423e-07
-4.86486e-14
9.56235e-08
6.96862e-07
-5.6892e-14
9.66294e-08
6.48912e-07
-6.43652e-14
9.75371e-08
6.00634e-07
-5.83908e-14
9.83285e-08
5.52098e-07
-3.74145e-14
9.89831e-08
5.03384e-07
-1.39541e-14
9.94774e-08
4.54585e-07
-3.94823e-15
9.97845e-08
4.0581e-07
-1.00891e-14
9.98732e-08
3.57183e-07
-1.67574e-14
9.97079e-08
3.08847e-07
-4.73232e-15
9.92469e-08
2.60968e-07
2.65551e-14
9.84415e-08
2.13736e-07
5.57679e-14
9.72345e-08
1.67372e-07
6.36921e-14
9.55559e-08
1.22128e-07
5.74887e-14
9.33264e-08
7.82917e-08
6.10345e-14
9.043e-08
3.61888e-08
7.81181e-14
8.67556e-08
-3.80216e-09
8.04495e-14
8.21976e-08
-4.12276e-08
5.00225e-14
7.66013e-08
-7.55761e-08
1.88113e-14
6.97938e-08
-1.06289e-07
2.94903e-14
6.15678e-08
-1.32735e-07
6.51562e-14
5.16795e-08
-1.54213e-07
7.42184e-14
3.98452e-08
-1.69977e-07
6.34492e-14
2.57598e-08
-1.7927e-07
6.77652e-14
9.13231e-09
-1.81352e-07
3.94823e-14
-1.02162e-08
-1.75624e-07
-5.66491e-14
-3.22147e-08
-1.61755e-07
-1.38459e-13
-5.62699e-08
-1.39662e-07
-1.83464e-13
-8.05445e-08
-1.08819e-07
-4.28768e-13
-1.00923e-07
-6.63953e-08
-2.83079e-13
-1.05292e-07
2.629e-13
-8.08645e-08
-1.73585e-07
4.82246e-07
-1.94261e-07
2.19776e-07
-1.47734e-07
2.04406e-08
-5.862e-08
-1.31627e-07
6.3753e-08
-2.40246e-07
2.11399e-07
-3.13908e-07
3.7682e-07
-3.61314e-07
5.53832e-07
-3.89322e-07
7.37535e-07
-4.03167e-07
9.2394e-07
-4.07171e-07
1.10999e-06
-4.04274e-07
1.29342e-06
-3.96525e-07
1.47255e-06
-3.85382e-07
1.64619e-06
-3.71891e-07
1.81347e-06
-3.56817e-07
1.97381e-06
-3.40725e-07
2.12684e-06
-3.24039e-07
2.27232e-06
-3.07076e-07
2.41017e-06
-2.90078e-07
2.54038e-06
-2.73227e-07
2.66302e-06
-2.56661e-07
2.77824e-06
-2.40484e-07
2.88619e-06
-2.24772e-07
2.98708e-06
-2.09579e-07
3.08115e-06
-1.94943e-07
3.16863e-06
-1.80888e-07
3.24978e-06
-1.67428e-07
3.32487e-06
-1.54568e-07
3.39415e-06
-1.42305e-07
3.45789e-06
-1.30631e-07
3.51635e-06
-1.19536e-07
3.56979e-06
-1.09004e-07
3.61844e-06
-9.90192e-08
3.66257e-06
-8.95619e-08
3.70239e-06
-8.06125e-08
3.73814e-06
-7.21507e-08
3.77003e-06
-6.41557e-08
3.79827e-06
-5.66067e-08
3.82306e-06
-4.94832e-08
3.84459e-06
-4.27652e-08
3.86304e-06
-3.64331e-08
3.87859e-06
-3.04679e-08
3.8914e-06
-2.48514e-08
3.90163e-06
-1.95663e-08
3.90942e-06
-1.45957e-08
3.91492e-06
-9.92379e-09
3.91827e-06
-5.53533e-09
3.9196e-06
-1.41567e-09
3.91902e-06
2.4482e-09
3.91665e-06
6.06898e-09
3.91261e-06
9.45968e-09
3.907e-06
1.26323e-08
3.89991e-06
1.55982e-08
3.89145e-06
1.8368e-08
3.88171e-06
2.09519e-08
3.87076e-06
2.33596e-08
3.8587e-06
2.56004e-08
3.84559e-06
2.76829e-08
3.83151e-06
2.96157e-08
3.81654e-06
3.14068e-08
3.80072e-06
3.3064e-08
3.78413e-06
3.45946e-08
3.76683e-06
3.60057e-08
3.74887e-06
3.73041e-08
3.73029e-06
3.84964e-08
3.71116e-06
3.95887e-08
3.69151e-06
4.0587e-08
3.6714e-06
4.14971e-08
3.65085e-06
4.23244e-08
3.62992e-06
4.30742e-08
3.60863e-06
4.37515e-08
3.58701e-06
4.43611e-08
3.56511e-06
4.49077e-08
3.54295e-06
4.53955e-08
3.52055e-06
4.58289e-08
3.49794e-06
4.62118e-08
3.47515e-06
4.6548e-08
3.45219e-06
4.68411e-08
3.42908e-06
4.70947e-08
3.40586e-06
4.73119e-08
3.38252e-06
4.7496e-08
3.35908e-06
4.76498e-08
3.33557e-06
4.77763e-08
3.31199e-06
4.78781e-08
3.28835e-06
4.79578e-08
3.26466e-06
4.80177e-08
3.24094e-06
4.80601e-08
3.21719e-06
4.80873e-08
3.19341e-06
4.81013e-08
3.16961e-06
4.81041e-08
3.14581e-06
4.80975e-08
3.12199e-06
4.80833e-08
3.09817e-06
4.80632e-08
3.07435e-06
4.80387e-08
3.05053e-06
4.80114e-08
3.02671e-06
4.79827e-08
3.00288e-06
4.7954e-08
2.97906e-06
4.79265e-08
2.95524e-06
4.79014e-08
2.93142e-06
4.788e-08
2.90759e-06
4.78633e-08
2.88375e-06
4.78524e-08
2.85991e-06
4.78483e-08
2.83605e-06
4.78519e-08
2.81218e-06
4.78644e-08
2.78828e-06
4.78865e-08
2.76436e-06
4.79191e-08
2.7404e-06
4.79632e-08
2.71641e-06
4.80197e-08
2.69237e-06
4.80893e-08
2.66828e-06
4.81729e-08
2.64413e-06
4.82714e-08
2.61991e-06
4.83856e-08
2.59562e-06
4.85163e-08
2.57124e-06
4.86644e-08
2.54678e-06
4.88306e-08
2.52221e-06
4.90157e-08
2.49753e-06
4.92206e-08
2.47273e-06
4.94459e-08
2.4478e-06
4.96926e-08
2.42273e-06
4.99612e-08
2.39751e-06
5.02527e-08
2.37212e-06
5.05677e-08
2.34656e-06
5.09069e-08
2.32081e-06
5.12711e-08
2.29486e-06
5.1661e-08
2.26869e-06
5.20773e-08
2.2423e-06
5.25206e-08
2.21567e-06
5.29917e-08
2.18879e-06
5.34911e-08
2.16164e-06
5.40196e-08
2.13421e-06
5.45778e-08
2.10648e-06
5.51662e-08
2.07844e-06
5.57853e-08
2.05007e-06
5.64358e-08
2.02136e-06
5.71181e-08
1.9923e-06
5.78327e-08
1.96286e-06
5.85799e-08
1.93304e-06
5.936e-08
1.90281e-06
6.01735e-08
1.87216e-06
6.10204e-08
1.84108e-06
6.19009e-08
1.80954e-06
6.2815e-08
1.77754e-06
6.37627e-08
1.74505e-06
6.47438e-08
1.71207e-06
6.5758e-08
1.67858e-06
6.68051e-08
1.64456e-06
6.78843e-08
1.60999e-06
6.89951e-08
1.57487e-06
7.01366e-08
1.53918e-06
7.13078e-08
1.50291e-06
7.25075e-08
1.46605e-06
7.37343e-08
1.42858e-06
7.49863e-08
1.3905e-06
7.62618e-08
1.3518e-06
7.75584e-08
1.31246e-06
7.88736e-08
1.27249e-06
8.02045e-08
1.23188e-06
8.15476e-08
1.19063e-06
8.28993e-08
1.14874e-06
8.42554e-08
1.10621e-06
8.56109e-08
1.06305e-06
8.69605e-08
1.01926e-06
8.82981e-08
9.74865e-07
8.9617e-08
9.29872e-07
9.09093e-08
8.84303e-07
9.21665e-08
8.38184e-07
9.33788e-08
7.91545e-07
9.45353e-08
7.44423e-07
9.56234e-08
6.96862e-07
9.66293e-08
6.48912e-07
9.7537e-08
6.00635e-07
9.83284e-08
5.52098e-07
9.89831e-08
5.03384e-07
9.94774e-08
4.54586e-07
9.97844e-08
4.05811e-07
9.98731e-08
3.57184e-07
9.97078e-08
3.08848e-07
9.92468e-08
2.60969e-07
9.84414e-08
2.13737e-07
9.72345e-08
1.67372e-07
9.55558e-08
1.22129e-07
9.33263e-08
7.8292e-08
9.043e-08
3.61891e-08
8.67555e-08
-3.80202e-09
8.21975e-08
-4.12276e-08
7.66013e-08
-7.55759e-08
6.97938e-08
-1.06289e-07
6.15678e-08
-1.32734e-07
5.16795e-08
-1.54213e-07
3.98452e-08
-1.69977e-07
2.57599e-08
-1.7927e-07
9.13243e-09
-1.81353e-07
-1.0216e-08
-1.75625e-07
-3.22143e-08
-1.61756e-07
-5.62692e-08
-1.39663e-07
-8.05439e-08
-1.08817e-07
-1.00923e-07
-6.63931e-08
-1.05294e-07
-8.08693e-08
-2.80945e-08
-1.99455e-12
5.10396e-07
3.33158e-08
3.9717e-13
1.58425e-07
1.2861e-07
2.83196e-13
-7.48368e-08
2.40208e-07
2.22667e-13
-2.43213e-07
3.65401e-07
1.85992e-13
-3.65429e-07
5.02718e-07
1.60434e-13
-4.51216e-07
6.49994e-07
1.44408e-13
-5.08582e-07
8.04753e-07
1.34682e-13
-5.44074e-07
9.64552e-07
1.27868e-13
-5.62959e-07
1.12692e-06
1.2403e-13
-5.69531e-07
1.28968e-06
1.21261e-13
-5.67025e-07
1.45102e-06
1.17535e-13
-5.57866e-07
1.60952e-06
1.12202e-13
-5.4387e-07
1.76403e-06
1.04694e-13
-5.26402e-07
1.91372e-06
9.43061e-14
-5.06497e-07
2.05794e-06
8.21872e-14
-4.84942e-07
2.19625e-06
6.97283e-14
-4.62342e-07
2.32834e-06
5.70889e-14
-4.39162e-07
2.45403e-06
4.49805e-14
-4.15764e-07
2.57323e-06
3.54324e-14
-3.92424e-07
2.68593e-06
2.96626e-14
-3.69356e-07
2.79217e-06
2.68523e-14
-3.46726e-07
2.89206e-06
2.55581e-14
-3.24655e-07
2.98572e-06
2.54886e-14
-3.03236e-07
3.07331e-06
2.68174e-14
-2.82536e-07
3.15503e-06
2.89441e-14
-2.62598e-07
3.23105e-06
3.04601e-14
-2.43453e-07
3.3016e-06
3.0179e-14
-2.25114e-07
3.36689e-06
2.7844e-14
-2.07587e-07
3.42713e-06
2.4038e-14
-1.90867e-07
3.48254e-06
1.95086e-14
-1.74943e-07
3.53333e-06
1.48282e-14
-1.598e-07
3.57973e-06
1.05538e-14
-1.45417e-07
3.62194e-06
7.19536e-15
-1.31771e-07
3.66017e-06
5.16569e-15
-1.18837e-07
3.69461e-06
4.80136e-15
-1.0659e-07
3.72546e-06
6.25502e-15
-9.50003e-08
3.7529e-06
9.55095e-15
-8.40421e-08
3.7771e-06
1.45799e-14
-7.36875e-08
3.79825e-06
2.0896e-14
-6.39093e-08
3.8165e-06
2.78869e-14
-5.46809e-08
3.83201e-06
3.4798e-14
-4.59764e-08
3.84493e-06
4.10707e-14
-3.77707e-08
3.85541e-06
4.64553e-14
-3.00397e-08
3.86358e-06
5.1054e-14
-2.27601e-08
3.86956e-06
5.50647e-14
-1.59096e-08
3.8735e-06
5.85913e-14
-9.46697e-09
3.8755e-06
6.16843e-14
-3.41193e-09
3.87567e-06
6.42465e-14
2.27435e-09
3.87414e-06
6.63559e-14
7.60994e-09
3.87099e-06
6.8264e-14
1.26128e-08
3.86632e-06
7.03474e-14
1.72997e-08
3.86024e-06
7.30432e-14
2.16869e-08
3.85282e-06
7.65317e-14
2.57895e-08
3.84415e-06
8.07783e-14
2.9622e-08
3.83432e-06
8.5403e-14
3.31984e-08
3.82339e-06
8.98751e-14
3.65319e-08
3.81144e-06
9.35215e-14
3.9635e-08
3.79854e-06
9.58026e-14
4.25199e-08
3.78475e-06
9.63265e-14
4.51982e-08
3.77014e-06
9.49352e-14
4.76809e-08
3.75476e-06
9.16878e-14
4.99787e-08
3.73867e-06
8.67907e-14
5.21018e-08
3.72191e-06
8.05647e-14
5.406e-08
3.70455e-06
7.33569e-14
5.58626e-08
3.68662e-06
6.55108e-14
5.75187e-08
3.66818e-06
5.73506e-14
5.9037e-08
3.64925e-06
4.92234e-14
6.04255e-08
3.62988e-06
4.13634e-14
6.16924e-08
3.61012e-06
3.40584e-14
6.28453e-08
3.58998e-06
2.74821e-14
6.38913e-08
3.5695e-06
2.18442e-14
6.48375e-08
3.54872e-06
1.72697e-14
6.56906e-08
3.52766e-06
1.38766e-14
6.64569e-08
3.50635e-06
1.16977e-14
6.71426e-08
3.48481e-06
1.07922e-14
6.77535e-08
3.46306e-06
1.10871e-14
6.82951e-08
3.44113e-06
1.24488e-14
6.87727e-08
3.41904e-06
1.47716e-14
6.91914e-08
3.39679e-06
1.78126e-14
6.9556e-08
3.37442e-06
2.13271e-14
6.98711e-08
3.35193e-06
2.50481e-14
7.0141e-08
3.32934e-06
2.87291e-14
7.03698e-08
3.30666e-06
3.20962e-14
7.05616e-08
3.2839e-06
3.49411e-14
7.072e-08
3.26107e-06
3.70991e-14
7.08486e-08
3.23818e-06
3.84886e-14
7.09507e-08
3.21524e-06
3.90697e-14
7.10296e-08
3.19225e-06
3.88789e-14
7.10883e-08
3.16923e-06
3.80063e-14
7.11297e-08
3.14617e-06
3.66359e-14
7.11565e-08
3.12308e-06
3.49757e-14
7.11714e-08
3.09997e-06
3.32792e-14
7.11768e-08
3.07684e-06
3.17925e-14
7.1175e-08
3.05368e-06
3.08106e-14
7.11683e-08
3.03051e-06
3.05452e-14
7.11589e-08
3.00732e-06
3.12009e-14
7.11486e-08
2.9841e-06
3.29166e-14
7.11395e-08
2.96088e-06
3.57493e-14
7.11334e-08
2.93763e-06
3.96507e-14
7.11319e-08
2.91435e-06
4.45253e-14
7.11369e-08
2.89106e-06
5.02204e-14
7.11498e-08
2.86774e-06
5.64983e-14
7.11722e-08
2.84439e-06
6.30851e-14
7.12056e-08
2.821e-06
6.97048e-14
7.12513e-08
2.79758e-06
7.60695e-14
7.13109e-08
2.77412e-06
8.19536e-14
7.13857e-08
2.75061e-06
8.70902e-14
7.14769e-08
2.72704e-06
9.13246e-14
7.15859e-08
2.70342e-06
9.45581e-14
7.1714e-08
2.67974e-06
9.67525e-14
7.18623e-08
2.65598e-06
9.78576e-14
7.20323e-08
2.63214e-06
9.79738e-14
7.2225e-08
2.60822e-06
9.71359e-14
7.24416e-08
2.58421e-06
9.5481e-14
7.26835e-08
2.56009e-06
9.3153e-14
7.29518e-08
2.53586e-06
9.02699e-14
7.32476e-08
2.51151e-06
8.70311e-14
7.35721e-08
2.48703e-06
8.35894e-14
7.39264e-08
2.46242e-06
8.01165e-14
7.43118e-08
2.43765e-06
7.67615e-14
7.47292e-08
2.41273e-06
7.36529e-14
7.51797e-08
2.38763e-06
7.08722e-14
7.56645e-08
2.36236e-06
6.84678e-14
7.61846e-08
2.33689e-06
6.64243e-14
7.67411e-08
2.31122e-06
6.46376e-14
7.73349e-08
2.28533e-06
6.29635e-14
7.79671e-08
2.25921e-06
6.1175e-14
7.86386e-08
2.23285e-06
5.89997e-14
7.93505e-08
2.20624e-06
5.61287e-14
8.01035e-08
2.17937e-06
5.23071e-14
8.08986e-08
2.15221e-06
4.73146e-14
8.17367e-08
2.12476e-06
4.1132e-14
8.26185e-08
2.097e-06
3.38583e-14
8.35448e-08
2.06892e-06
2.58856e-14
8.45163e-08
2.0405e-06
1.76595e-14
8.55337e-08
2.01174e-06
9.78385e-15
8.65974e-08
1.98261e-06
2.76863e-15
8.7708e-08
1.9531e-06
-3.03923e-15
8.88658e-08
1.92321e-06
-7.56339e-15
9.00713e-08
1.8929e-06