/*--------------------------------*- C++ -*----------------------------------*\
  =========                 |
  \\      /  F ield         | OpenFOAM: The Open Source CFD Toolbox
   \\    /   O peration     | Website:  https://openfoam.org
    \\  /    A nd           | Version:  8
     \\/     M anipulation  |
\*---------------------------------------------------------------------------*/
FoamFile
{
    version     2.0;
    format      ascii;
    class       volScalarField;
    location    "3400";
    object      alphat;
}
// * * * * * * * * * * * * * * * * * * * * * * * * * * * * * * * * * * * * * //

dimensions      [1 -1 -1 0 0 0 0];

internalField   nonuniform List<scalar> 
46000
(
9.58669e-07
4.14781e-06
7.72978e-06
1.10683e-05
1.42221e-05
1.72732e-05
2.02582e-05
2.31843e-05
2.60682e-05
2.89207e-05
3.17525e-05
3.45691e-05
3.73566e-05
4.01258e-05
4.28789e-05
4.56161e-05
4.83366e-05
5.10393e-05
5.37223e-05
5.63837e-05
5.90211e-05
6.1632e-05
6.42136e-05
6.67632e-05
6.92777e-05
7.17541e-05
7.41891e-05
7.65798e-05
7.89228e-05
8.12151e-05
8.34534e-05
8.56347e-05
8.77559e-05
8.98142e-05
9.18065e-05
9.37302e-05
9.55825e-05
9.73611e-05
9.90635e-05
0.000100687
0.000102231
0.000103692
0.000105069
0.00010636
0.000107565
0.000108681
0.000109709
0.000110646
0.000111493
0.000112249
0.000112915
0.00011349
0.000113974
0.000114368
0.000114672
0.000114888
0.000115016
0.000115059
0.000115016
0.00011489
0.000114683
0.000114397
0.000114038
0.000113605
0.000113098
0.00011252
0.000111872
0.000111159
0.000110381
0.000109542
0.000108645
0.000107692
0.000106687
0.000105632
0.00010453
0.000103384
0.000102198
0.000100974
9.97143e-05
9.84231e-05
9.71027e-05
9.57561e-05
9.43861e-05
9.29955e-05
9.15869e-05
9.01631e-05
8.87265e-05
8.72797e-05
8.58252e-05
8.43652e-05
8.29019e-05
8.14376e-05
7.99744e-05
7.85141e-05
7.70586e-05
7.56098e-05
7.41692e-05
7.27385e-05
7.13192e-05
6.99125e-05
6.85198e-05
6.71422e-05
6.57808e-05
6.44366e-05
6.31105e-05
6.18032e-05
6.05155e-05
5.92479e-05
5.8001e-05
5.67752e-05
5.55709e-05
5.43884e-05
5.32279e-05
5.20895e-05
5.09733e-05
4.98794e-05
4.88076e-05
4.77579e-05
4.67301e-05
4.57241e-05
4.47395e-05
4.37761e-05
4.28335e-05
4.19114e-05
4.10094e-05
4.0127e-05
3.92637e-05
3.84192e-05
3.75929e-05
3.67843e-05
3.59928e-05
3.52179e-05
3.4459e-05
3.37156e-05
3.29872e-05
3.2273e-05
3.15727e-05
3.08855e-05
3.0211e-05
2.95486e-05
2.88977e-05
2.82578e-05
2.76283e-05
2.70088e-05
2.63987e-05
2.57975e-05
2.52047e-05
2.46198e-05
2.4043e-05
2.3474e-05
2.29121e-05
2.23568e-05
2.18076e-05
2.12644e-05
2.07267e-05
2.01943e-05
1.96669e-05
1.91443e-05
1.86263e-05
1.81126e-05
1.76032e-05
1.70978e-05
1.65963e-05
1.60987e-05
1.56057e-05
1.51174e-05
1.4633e-05
1.41521e-05
1.36747e-05
1.32009e-05
1.27305e-05
1.22635e-05
1.18001e-05
1.13401e-05
1.08835e-05
1.04304e-05
9.98077e-06
9.53453e-06
9.09169e-06
8.65217e-06
8.21587e-06
7.78224e-06
7.35182e-06
6.92451e-06
6.4997e-06
6.07729e-06
5.65694e-06
5.23817e-06
4.8204e-06
4.40286e-06
3.98461e-06
3.56515e-06
3.14448e-06
2.71933e-06
2.2868e-06
1.84331e-06
1.38448e-06
9.07248e-07
4.28126e-07
8.20455e-08
9.58733e-07
4.14798e-06
7.72997e-06
1.10685e-05
1.42223e-05
1.72734e-05
2.02583e-05
2.31845e-05
2.60683e-05
2.89208e-05
3.17527e-05
3.45692e-05
3.73567e-05
4.01259e-05
4.2879e-05
4.56162e-05
4.83367e-05
5.10393e-05
5.37223e-05
5.63837e-05
5.90211e-05
6.1632e-05
6.42136e-05
6.67632e-05
6.92777e-05
7.17541e-05
7.41891e-05
7.65798e-05
7.89228e-05
8.1215e-05
8.34533e-05
8.56346e-05
8.77559e-05
8.98141e-05
9.18064e-05
9.37301e-05
9.55824e-05
9.7361e-05
9.90634e-05
0.000100687
0.000102231
0.000103692
0.000105069
0.00010636
0.000107565
0.000108681
0.000109708
0.000110646
0.000111493
0.000112249
0.000112915
0.000113489
0.000113974
0.000114367
0.000114672
0.000114888
0.000115016
0.000115058
0.000115015
0.000114889
0.000114682
0.000114397
0.000114038
0.000113605
0.000113098
0.00011252
0.000111872
0.000111158
0.000110381
0.000109542
0.000108645
0.000107692
0.000106687
0.000105632
0.00010453
0.000103384
0.000102198
0.000100973
9.97141e-05
9.84229e-05
9.71025e-05
9.57559e-05
9.43859e-05
9.29953e-05
9.15867e-05
9.01629e-05
8.87263e-05
8.72795e-05
8.5825e-05
8.4365e-05
8.29017e-05
8.14375e-05
7.99742e-05
7.85139e-05
7.70584e-05
7.56096e-05
7.41691e-05
7.27384e-05
7.1319e-05
6.99123e-05
6.85196e-05
6.71421e-05
6.57807e-05
6.44365e-05
6.31104e-05
6.18031e-05
6.05153e-05
5.92478e-05
5.80009e-05
5.67751e-05
5.55708e-05
5.43883e-05
5.32278e-05
5.20894e-05
5.09732e-05
4.98793e-05
4.88075e-05
4.77578e-05
4.673e-05
4.5724e-05
4.47394e-05
4.3776e-05
4.28334e-05
4.19113e-05
4.10093e-05
4.01269e-05
3.92636e-05
3.84191e-05
3.75928e-05
3.67842e-05
3.59927e-05
3.52178e-05
3.44589e-05
3.37155e-05
3.29871e-05
3.2273e-05
3.15726e-05
3.08854e-05
3.02109e-05
2.95485e-05
2.88976e-05
2.82577e-05
2.76282e-05
2.70087e-05
2.63986e-05
2.57974e-05
2.52047e-05
2.46197e-05
2.40429e-05
2.3474e-05
2.29121e-05
2.23567e-05
2.18076e-05
2.12643e-05
2.07266e-05
2.01942e-05
1.96668e-05
1.91442e-05
1.86262e-05
1.81126e-05
1.76031e-05
1.70978e-05
1.65963e-05
1.60986e-05
1.56056e-05
1.51174e-05
1.46329e-05
1.4152e-05
1.36747e-05
1.32008e-05
1.27304e-05
1.22635e-05
1.18001e-05
1.134e-05
1.08835e-05
1.04304e-05
9.98075e-06
9.53451e-06
9.09167e-06
8.65215e-06
8.21585e-06
7.78223e-06
7.35181e-06
6.9245e-06
6.49969e-06
6.07729e-06
5.65694e-06
5.23816e-06
4.82039e-06
4.40286e-06
3.98461e-06
3.56516e-06
3.14449e-06
2.71934e-06
2.28681e-06
1.84332e-06
1.38449e-06
9.07258e-07
4.28132e-07
8.20473e-08
3.80827e-06
4.4588e-05
7.71372e-05
9.95405e-05
0.000116827
0.000131118
0.000143377
0.00015432
0.00016433
0.000173636
0.000182381
0.000190678
0.000198611
0.000206226
0.000213563
0.00022065
0.00022751
0.000234161
0.000240618
0.00024689
0.000252987
0.000258915
0.00026468
0.000270285
0.000275732
0.000281025
0.000286164
0.00029115
0.000295983
0.000300663
0.00030519
0.000309564
0.000313782
0.000317845
0.000321752
0.000325501
0.000329092
0.000332524
0.000335795
0.000338905
0.000341853
0.000344638
0.00034726
0.000349719
0.000352013
0.000354144
0.00035611
0.000357913
0.000359552
0.000361028
0.000362342
0.000363495
0.000364488
0.000365323
0.000366
0.000366522
0.00036689
0.000367106
0.000367173
0.000367092
0.000366866
0.000366495
0.00036598
0.000365328
0.000364542
0.000363627
0.000362587
0.000361425
0.000360145
0.000358752
0.000357248
0.000355638
0.000353926
0.000352116
0.000350213
0.00034822
0.000346141
0.000343982
0.000341747
0.000339438
0.000337062
0.000334622
0.000332122
0.000329566
0.000326959
0.000324305
0.000321608
0.000318871
0.000316099
0.000313295
0.000310464
0.000307608
0.000304732
0.000301838
0.000298931
0.000296013
0.000293087
0.000290157
0.000287226
0.000284295
0.000281368
0.000278448
0.000275536
0.000272636
0.000269748
0.000266875
0.000264019
0.000261182
0.000258365
0.00025557
0.000252797
0.000250049
0.000247326
0.000244629
0.000241959
0.000239316
0.000236702
0.000234116
0.000231559
0.000229032
0.000226533
0.000224064
0.000221624
0.000219212
0.00021683
0.000214475
0.000212148
0.000209848
0.000207574
0.000205326
0.000203103
0.000200904
0.000198728
0.000196574
0.000194442
0.000192329
0.000190234
0.000188158
0.000186098
0.000184053
0.000182023
0.000180005
0.000177998
0.000176002
0.000174015
0.000172036
0.000170064
0.000168098
0.000166137
0.000164177
0.00016222
0.000160263
0.000158304
0.000156344
0.000154381
0.000152413
0.00015044
0.00014846
0.000146473
0.000144477
0.00014247
0.000140453
0.000138422
0.000136376
0.000134307
0.00013222
0.000130115
0.000127992
0.000125851
0.00012369
0.000121507
0.000119303
0.000117074
0.000114819
0.000112537
0.000110225
0.000107881
0.000105502
0.000103085
0.000100626
9.81211e-05
9.55661e-05
9.29536e-05
9.02754e-05
8.75225e-05
8.46845e-05
8.17475e-05
7.86945e-05
7.55037e-05
7.21457e-05
6.85787e-05
6.47347e-05
6.05306e-05
5.58953e-05
5.06712e-05
4.46033e-05
3.72307e-05
2.76009e-05
1.36635e-05
3.86679e-07
3.8084e-06
4.459e-05
7.71401e-05
9.95437e-05
0.00011683
0.000131122
0.00014338
0.000154323
0.000164334
0.000173639
0.000182385
0.000190682
0.000198614
0.00020623
0.000213567
0.000220654
0.000227514
0.000234165
0.000240622
0.000246894
0.000252991
0.00025892
0.000264684
0.000270289
0.000275737
0.00028103
0.000286169
0.000291155
0.000295988
0.000300668
0.000305195
0.000309569
0.000313787
0.00031785
0.000321757
0.000325507
0.000329098
0.000332529
0.0003358
0.00033891
0.000341858
0.000344644
0.000347266
0.000349724
0.000352019
0.000354149
0.000356116
0.000357918
0.000359557
0.000361034
0.000362348
0.000363501
0.000364494
0.000365329
0.000366006
0.000366528
0.000366896
0.000367112
0.000367179
0.000367098
0.000366871
0.0003665
0.000365985
0.000365333
0.000364548
0.000363633
0.000362592
0.00036143
0.000360151
0.000358757
0.000357253
0.000355643
0.000353931
0.000352121
0.000350218
0.000348225
0.000346146
0.000343987
0.000341751
0.000339443
0.000337067
0.000334626
0.000332126
0.000329571
0.000326964
0.00032431
0.000321612
0.000318875
0.000316103
0.000313299
0.000310468
0.000307612
0.000304736
0.000301842
0.000298935
0.000296016
0.000293091
0.000290161
0.000287229
0.000284299
0.000281372
0.000278452
0.00027554
0.000272639
0.000269751
0.000266878
0.000264023
0.000261185
0.000258368
0.000255573
0.0002528
0.000250052
0.000247329
0.000244631
0.000241961
0.000239319
0.000236704
0.000234119
0.000231562
0.000229034
0.000226536
0.000224066
0.000221626
0.000219215
0.000216832
0.000214477
0.00021215
0.00020985
0.000207576
0.000205328
0.000203105
0.000200906
0.00019873
0.000196576
0.000194443
0.00019233
0.000190236
0.00018816
0.0001861
0.000184055
0.000182024
0.000180006
0.000178
0.000176003
0.000174016
0.000172037
0.000170065
0.000168099
0.000166138
0.000164179
0.000162221
0.000160264
0.000158305
0.000156345
0.000154382
0.000152414
0.000150441
0.000148461
0.000146474
0.000144477
0.000142471
0.000140454
0.000138423
0.000136377
0.000134308
0.00013222
0.000130116
0.000127993
0.000125852
0.00012369
0.000121508
0.000119303
0.000117074
0.00011482
0.000112537
0.000110225
0.000107881
0.000105502
0.000103085
0.000100626
9.81216e-05
9.55667e-05
9.29542e-05
9.02759e-05
8.7523e-05
8.4685e-05
8.1748e-05
7.8695e-05
7.55042e-05
7.21461e-05
6.85791e-05
6.47349e-05
6.05308e-05
5.58955e-05
5.06713e-05
4.46035e-05
3.72307e-05
2.76009e-05
1.36634e-05
3.86678e-07
7.25245e-06
7.48589e-05
0.000141642
0.000191485
0.000230099
0.000261315
0.000287532
0.000310251
0.000330423
0.000348674
0.00036543
0.000380987
0.000395562
0.000409307
0.000422337
0.000434741
0.000446586
0.00045793
0.000468814
0.000479276
0.000489344
0.000499042
0.00050839
0.000517403
0.000526096
0.000534479
0.000542563
0.000550355
0.000557862
0.000565089
0.000572042
0.000578725
0.000585141
0.000591293
0.000597184
0.000602816
0.000608192
0.000613313
0.00061818
0.000622797
0.000627164
0.000631283
0.000635155
0.000638782
0.000642165
0.000645308
0.00064821
0.000650874
0.000653301
0.000655495
0.000657457
0.000659189
0.000660694
0.000661975
0.000663033
0.000663872
0.000664495
0.000664904
0.000665101
0.000665091
0.000664874
0.000664453
0.000663828
0.000663007
0.000661997
0.000660803
0.000659432
0.000657887
0.000656175
0.000654299
0.000652266
0.00065008
0.000647746
0.00064527
0.000642656
0.000639911
0.000637039
0.000634045
0.000630935
0.000627714
0.000624388
0.000620962
0.000617442
0.000613832
0.000610138
0.000606365
0.000602518
0.000598603
0.000594624
0.000590587
0.000586497
0.000582358
0.000578175
0.000573952
0.000569696
0.000565409
0.000561096
0.000556761
0.000552409
0.000548043
0.000543667
0.000539284
0.000534899
0.000530515
0.000526133
0.000521759
0.000517394
0.000513041
0.000508703
0.000504382
0.000500079
0.000495798
0.00049154
0.000487306
0.000483097
0.000478916
0.000474763
0.000470639
0.000466545
0.000462481
0.000458447
0.000454445
0.000450473
0.000446533
0.000442622
0.000438742
0.000434892
0.00043107
0.000427277
0.00042351
0.00041977
0.000416054
0.000412362
0.000408692
0.000405043
0.000401413
0.0003978
0.000394204
0.000390621
0.00038705
0.000383489
0.000379937
0.000376392
0.000372851
0.000369313
0.000365777
0.00036224
0.000358702
0.000355157
0.000351603
0.00034804
0.000344465
0.000340876
0.000337271
0.000333648
0.000330006
0.000326342
0.000322655
0.000318941
0.000315199
0.000311427
0.000307621
0.000303779
0.000299894
0.000295961
0.000291979
0.000287949
0.00028387
0.000279741
0.000275558
0.000271318
0.000267017
0.000262652
0.000258217
0.000253707
0.000249116
0.000244437
0.000239662
0.000234782
0.000229785
0.000224659
0.00021939
0.000213959
0.000208344
0.000202518
0.000196448
0.000190093
0.0001834
0.000176305
0.000168722
0.000160533
0.000151575
0.000141618
0.000130396
0.000117473
0.000102158
8.33041e-05
5.89514e-05
2.6686e-05
8.25535e-07
7.25261e-06
7.48617e-05
0.000141647
0.000191491
0.000230106
0.000261323
0.00028754
0.000310258
0.00033043
0.000348681
0.000365437
0.000380994
0.000395569
0.000409314
0.000422344
0.000434748
0.000446593
0.000457937
0.000468821
0.000479283
0.000489351
0.000499049
0.000508397
0.00051741
0.000526103
0.000534486
0.00054257
0.000550362
0.000557869
0.000565097
0.00057205
0.000578732
0.000585148
0.0005913
0.000597191
0.000602824
0.000608199
0.00061332
0.000618188
0.000622805
0.000627171
0.00063129
0.000635162
0.000638789
0.000642173
0.000645315
0.000648217
0.000650881
0.000653309
0.000655503
0.000657464
0.000659197
0.000660702
0.000661982
0.00066304
0.000663879
0.000664502
0.000664911
0.000665109
0.000665098
0.000664881
0.00066446
0.000663835
0.000663014
0.000662004
0.00066081
0.000659438
0.000657894
0.000656181
0.000654305
0.000652272
0.000650086
0.000647752
0.000645276
0.000642662
0.000639917
0.000637044
0.000634051
0.000630941
0.00062772
0.000624394
0.000620968
0.000617447
0.000613837
0.000610143
0.00060637
0.000602523
0.000598608
0.000594629
0.000590592
0.000586501
0.000582362
0.000578179
0.000573957
0.0005697
0.000565413
0.0005611
0.000556765
0.000552413
0.000548046
0.00054367
0.000539288
0.000534903
0.000530518
0.000526137
0.000521762
0.000517397
0.000513044
0.000508706
0.000504385
0.000500082
0.000495801
0.000491542
0.000487308
0.0004831
0.000478919
0.000474765
0.000470641
0.000466547
0.000462483
0.000458449
0.000454447
0.000450475
0.000446534
0.000442624
0.000438744
0.000434894
0.000431072
0.000427278
0.000423512
0.000419771
0.000416056
0.000412364
0.000408694
0.000405044
0.000401414
0.000397801
0.000394204
0.000390621
0.000387051
0.00038349
0.000379938
0.000376392
0.000372852
0.000369314
0.000365777
0.000362241
0.000358702
0.000355157
0.000351604
0.00034804
0.000344465
0.000340876
0.000337271
0.000333649
0.000330006
0.000326342
0.000322655
0.000318941
0.000315199
0.000311427
0.000307621
0.000303779
0.000299894
0.000295961
0.000291979
0.000287949
0.00028387
0.000279741
0.000275558
0.000271318
0.000267017
0.000262652
0.000258217
0.000253707
0.000249116
0.000244437
0.000239662
0.000234781
0.000229785
0.000224659
0.00021939
0.000213959
0.000208344
0.000202518
0.000196448
0.000190093
0.0001834
0.000176305
0.000168722
0.000160533
0.000151575
0.000141618
0.000130396
0.000117473
0.000102158
8.33042e-05
5.89514e-05
2.66857e-05
8.25534e-07
1.05739e-05
9.62694e-05
0.000189256
0.00026421
0.000324541
0.000374193
0.000416147
0.000452434
0.000484447
0.000513157
0.000539255
0.000563241
0.000585484
0.000606259
0.000625776
0.000644197
0.000661651
0.000678239
0.000694044
0.000709135
0.000723565
0.000737383
0.000750625
0.000763325
0.00077551
0.000787204
0.000798426
0.000809195
0.000819526
0.000829431
0.000838923
0.000848012
0.000856707
0.000865016
0.000872947
0.000880507
0.000887701
0.000894536
0.000901017
0.000907148
0.000912935
0.000918382
0.000923494
0.000928275
0.000932728
0.000936859
0.000940671
0.000944168
0.000947354
0.000950233
0.000952809
0.000955086
0.000957069
0.000958762
0.000960168
0.000961292
0.000962137
0.000962709
0.00096301
0.000963045
0.000962817
0.000962328
0.000961583
0.000960587
0.00095935
0.000957878
0.000956179
0.000954258
0.000952123
0.000949779
0.000947233
0.00094449
0.000941558
0.000938441
0.000935147
0.000931682
0.000928052
0.000924263
0.000920321
0.000916234
0.000912007
0.000907647
0.00090316
0.000898552
0.00089383
0.000889001
0.000884069
0.000879042
0.000873926
0.000868727
0.00086345
0.000858101
0.000852687
0.000847213
0.000841685
0.000836108
0.000830487
0.000824828
0.000819136
0.000813415
0.000807671
0.000801907
0.000796129
0.000790341
0.000784546
0.000778748
0.000772951
0.000767159
0.000761374
0.000755601
0.00074984
0.000744096
0.000738369
0.000732664
0.00072698
0.000721321
0.000715687
0.00071008
0.000704501
0.00069895
0.000693427
0.000687935
0.000682471
0.000677037
0.000671632
0.000666256
0.000660907
0.000655585
0.000650289
0.000645018
0.000639771
0.000634545
0.000629339
0.000624151
0.00061898
0.000613823
0.000608679
0.000603544
0.000598417
0.000593296
0.000588177
0.000583059
0.000577939
0.000572814
0.000567683
0.000562544
0.000557393
0.000552227
0.000547042
0.000541835
0.000536604
0.000531345
0.000526058
0.000520738
0.000515383
0.00050999
0.000504557
0.000499079
0.000493555
0.000487981
0.000482353
0.000476667
0.000470918
0.0004651
0.000459207
0.000453233
0.00044718
0.000441043
0.00043482
0.000428504
0.000422089
0.00041557
0.000408939
0.000402186
0.000395302
0.000388276
0.000381094
0.000373742
0.000366203
0.000358455
0.000350477
0.000342239
0.000333709
0.000324845
0.000315601
0.000305914
0.000295712
0.0002849
0.000273362
0.000260946
0.000247455
0.000232624
0.000216099
0.0001974
0.000175876
0.00015054
0.000119934
8.20125e-05
3.5702e-05
1.27153e-06
1.05741e-05
9.62725e-05
0.000189263
0.000264218
0.00032455
0.000374204
0.000416158
0.000452445
0.000484458
0.000513168
0.000539266
0.000563251
0.000585494
0.000606269
0.000625786
0.000644207
0.000661661
0.000678249
0.000694054
0.000709145
0.000723575
0.000737392
0.000750635
0.000763335
0.00077552
0.000787213
0.000798436
0.000809205
0.000819535
0.000829441
0.000838933
0.000848022
0.000856717
0.000865026
0.000872957
0.000880516
0.000887711
0.000894545
0.000901026
0.000907157
0.000912944
0.000918392
0.000923503
0.000928284
0.000932737
0.000936868
0.00094068
0.000944176
0.000947362
0.000950241
0.000952817
0.000955095
0.000957078
0.00095877
0.000960176
0.0009613
0.000962145
0.000962717
0.000963018
0.000963053
0.000962825
0.000962336
0.00096159
0.000960595
0.000959357
0.000957885
0.000956186
0.000954265
0.00095213
0.000949786
0.00094724
0.000944497
0.000941564
0.000938448
0.000935154
0.000931688
0.000928058
0.000924269
0.000920327
0.00091624
0.000912013
0.000907652
0.000903165
0.000898558
0.000893836
0.000889006
0.000884074
0.000879047
0.000873931
0.000868731
0.000863454
0.000858106
0.000852691
0.000847217
0.000841689
0.000836112
0.000830491
0.000824832
0.000819139
0.000813419
0.000807674
0.000801911
0.000796132
0.000790344
0.000784548
0.000778751
0.000772954
0.000767162
0.000761377
0.000755603
0.000749842
0.000744098
0.000738372
0.000732666
0.000726982
0.000721323
0.000715689
0.000710082
0.000704502
0.000698951
0.000693429
0.000687936
0.000682472
0.000677038
0.000671633
0.000666257
0.000660908
0.000655586
0.00065029
0.000645019
0.000639771
0.000634545
0.000629339
0.000624152
0.00061898
0.000613824
0.000608679
0.000603544
0.000598417
0.000593296
0.000588177
0.000583059
0.000577939
0.000572814
0.000567683
0.000562543
0.000557392
0.000552226
0.000547041
0.000541834
0.000536603
0.000531345
0.000526057
0.000520737
0.000515382
0.000509989
0.000504556
0.000499079
0.000493555
0.00048798
0.000482352
0.000476666
0.000470917
0.0004651
0.000459206
0.000453232
0.000447179
0.000441042
0.000434819
0.000428503
0.000422088
0.000415569
0.000408938
0.000402185
0.000395301
0.000388275
0.000381093
0.000373741
0.000366202
0.000358455
0.000350476
0.000342238
0.000333708
0.000324845
0.0003156
0.000305913
0.000295711
0.0002849
0.000273361
0.000260945
0.000247454
0.000232623
0.000216099
0.0001974
0.000175876
0.000150541
0.000119934
8.20126e-05
3.57017e-05
1.27154e-06
1.3794e-05
0.000113434
0.000226763
0.000322932
0.000402929
0.000470221
0.000527784
0.000577863
0.00062211
0.000661741
0.000697655
0.000730528
0.000760868
0.000789067
0.000815427
0.000840186
0.000863535
0.000885625
0.00090658
0.000926503
0.000945477
0.000963573
0.000980852
0.000997362
0.00101315
0.00102825
0.00104269
0.0010565
0.00106971
0.00108234
0.00109441
0.00110594
0.00111693
0.00112741
0.00113739
0.00114687
0.00115588
0.00116442
0.0011725
0.00118012
0.00118731
0.00119405
0.00120038
0.00120628
0.00121176
0.00121685
0.00122153
0.00122582
0.00122972
0.00123324
0.00123639
0.00123917
0.00124159
0.00124366
0.00124537
0.00124674
0.00124777
0.00124847
0.00124885
0.0012489
0.00124863
0.00124805
0.00124716
0.00124598
0.0012445
0.00124274
0.00124071
0.00123841
0.00123586
0.00123305
0.00123
0.00122671
0.00122319
0.00121945
0.0012155
0.00121134
0.00120698
0.00120242
0.00119769
0.00119277
0.00118768
0.00118243
0.00117703
0.00117148
0.00116578
0.00115995
0.001154
0.00114792
0.00114173
0.00113544
0.00112905
0.00112256
0.001116
0.00110935
0.00110263
0.00109584
0.001089
0.0010821
0.00107516
0.00106817
0.00106115
0.00105409
0.00104702
0.00103992
0.0010328
0.00102567
0.00101854
0.0010114
0.00100427
0.000997135
0.000990011
0.000982897
0.000975797
0.000968713
0.000961647
0.0009546
0.000947576
0.000940575
0.000933598
0.000926646
0.00091972
0.00091282
0.000905947
0.000899099
0.000892278
0.000885481
0.000878708
0.000871959
0.000865231
0.000858523
0.000851834
0.000845162
0.000838504
0.000831858
0.000825222
0.000818594
0.000811971
0.00080535
0.000798728
0.000792102
0.00078547
0.000778829
0.000772175
0.000765506
0.000758818
0.00075211
0.000745376
0.000738613
0.000731818
0.000724985
0.000718112
0.000711196
0.000704233
0.00069722
0.000690153
0.000683029
0.000675843
0.000668593
0.000661273
0.000653879
0.000646407
0.000638851
0.000631205
0.000623462
0.000615615
0.000607656
0.000599583
0.000591391
0.000583073
0.000574621
0.000566025
0.000557277
0.000548365
0.000539274
0.000529991
0.000520498
0.000510775
0.0005008
0.000490547
0.000479985
0.000469079
0.000457786
0.000446056
0.000433831
0.000421037
0.000407586
0.000393372
0.000378261
0.000362086
0.000344635
0.000325638
0.000304744
0.000281494
0.000255278
0.000225297
0.000190439
0.000149213
9.98823e-05
4.2749e-05
1.7117e-06
1.37942e-05
0.000113438
0.000226769
0.000322941
0.00040294
0.000470233
0.000527797
0.000577876
0.000622123
0.000661754
0.000697669
0.000730541
0.000760881
0.00078908
0.00081544
0.0008402
0.000863548
0.000885638
0.000906593
0.000926515
0.00094549
0.000963586
0.000980864
0.000997374
0.00101316
0.00102826
0.0010427
0.00105651
0.00106973
0.00108236
0.00109442
0.00110595
0.00111694
0.00112742
0.0011374
0.00114689
0.00115589
0.00116443
0.00117251
0.00118013
0.00118732
0.00119407
0.00120039
0.00120629
0.00121178
0.00121686
0.00122154
0.00122583
0.00122973
0.00123325
0.0012364
0.00123918
0.0012416
0.00124367
0.00124538
0.00124675
0.00124778
0.00124848
0.00124885
0.0012489
0.00124864
0.00124806
0.00124717
0.00124599
0.00124451
0.00124275
0.00124072
0.00123842
0.00123586
0.00123306
0.00123
0.00122672
0.0012232
0.00121946
0.00121551
0.00121134
0.00120698
0.00120243
0.00119769
0.00119278
0.00118769
0.00118244
0.00117704
0.00117148
0.00116579
0.00115996
0.001154
0.00114793
0.00114174
0.00113544
0.00112905
0.00112257
0.001116
0.00110935
0.00110263
0.00109585
0.001089
0.00108211
0.00107516
0.00106817
0.00106115
0.0010541
0.00104702
0.00103992
0.0010328
0.00102568
0.00101854
0.00101141
0.00100427
0.000997138
0.000990013
0.0009829
0.000975799
0.000968715
0.000961648
0.000954602
0.000947578
0.000940576
0.000933599
0.000926647
0.000919721
0.000912822
0.000905948
0.0008991
0.000892278
0.000885482
0.000878709
0.000871959
0.000865231
0.000858524
0.000851834
0.000845162
0.000838504
0.000831858
0.000825222
0.000818594
0.000811971
0.00080535
0.000798728
0.000792102
0.00078547
0.000778828
0.000772174
0.000765505
0.000758818
0.000752109
0.000745376
0.000738613
0.000731817
0.000724984
0.000718111
0.000711195
0.000704232
0.000697219
0.000690152
0.000683027
0.000675842
0.000668591
0.000661272
0.000653878
0.000646406
0.00063885
0.000631204
0.000623461
0.000615613
0.000607654
0.000599582
0.00059139
0.000583072
0.000574619
0.000566024
0.000557276
0.000548363
0.000539273
0.00052999
0.000520496
0.000510774
0.000500799
0.000490546
0.000479984
0.000469078
0.000457785
0.000446055
0.00043383
0.000421036
0.000407585
0.000393371
0.00037826
0.000362085
0.000344635
0.000325638
0.000304743
0.000281494
0.000255278
0.000225297
0.000190439
0.000149213
9.98824e-05
4.27487e-05
1.7117e-06
1.69674e-05
0.000128041
0.000257803
0.000371935
0.000469364
0.000552827
0.000625091
0.000688434
0.000744632
0.000795055
0.000840751
0.000882529
0.000921017
0.000956705
0.00098998
0.00102115
0.00105046
0.00107811
0.00110427
0.00112908
0.00115264
0.00117505
0.0011964
0.00121674
0.00123615
0.00125466
0.00127234
0.0012892
0.0013053
0.00132065
0.00133529
0.00134923
0.00136252
0.00137515
0.00138715
0.00139854
0.00140934
0.00141955
0.0014292
0.00143829
0.00144683
0.00145485
0.00146234
0.00146933
0.00147581
0.00148181
0.00148732
0.00149236
0.00149694
0.00150107
0.00150475
0.001508
0.00151082
0.00151322
0.0015152
0.00151678
0.00151797
0.00151877
0.00151918
0.00151922
0.00151889
0.0015182
0.00151715
0.00151576
0.00151403
0.00151197
0.0015096
0.00150692
0.00150394
0.00150066
0.00149711
0.00149328
0.00148919
0.00148484
0.00148024
0.0014754
0.00147033
0.00146504
0.00145953
0.00145382
0.00144791
0.0014418
0.00143552
0.00142906
0.00142244
0.00141566
0.00140873
0.00140166
0.00139446
0.00138713
0.00137968
0.00137212
0.00136447
0.00135671
0.00134887
0.00134095
0.00133296
0.0013249
0.00131678
0.00130861
0.00130039
0.00129213
0.00128383
0.00127551
0.00126716
0.00125879
0.00125041
0.00124202
0.00123362
0.00122522
0.00121682
0.00120843
0.00120005
0.00119168
0.00118332
0.00117498
0.00116666
0.00115836
0.00115008
0.00114182
0.00113358
0.00112536
0.00111717
0.001109
0.00110085
0.00109272
0.00108462
0.00107653
0.00106845
0.0010604
0.00105235
0.00104432
0.00103629
0.00102827
0.00102025
0.00101223
0.00100421
0.000996183
0.000988145
0.000980094
0.000972025
0.000963937
0.000955824
0.000947684
0.000939514
0.000931309
0.000923065
0.000914777
0.000906441
0.000898052
0.000889607
0.000881102
0.000872532
0.000863893
0.00085518
0.000846391
0.000837519
0.00082856
0.000819508
0.000810358
0.000801105
0.000791741
0.000782259
0.000772651
0.000762908
0.000753022
0.000742987
0.000732796
0.000722437
0.000711901
0.000701176
0.000690246
0.000679098
0.000667713
0.00065607
0.000644146
0.000631915
0.000619347
0.000606405
0.000593048
0.00057923
0.000564893
0.000549972
0.000534386
0.000518042
0.000500825
0.000482596
0.000463185
0.000442382
0.000419926
0.000395486
0.000368645
0.00033887
0.000305473
0.000267571
0.000224041
0.000173487
0.000114563
4.86778e-05
2.14767e-06
1.69676e-05
0.000128045
0.00025781
0.000371945
0.000469376
0.00055284
0.000625106
0.000688449
0.000744648
0.000795071
0.000840767
0.000882545
0.000921033
0.000956721
0.000989996
0.00102116
0.00105048
0.00107813
0.00110429
0.00112909
0.00115265
0.00117507
0.00119641
0.00121676
0.00123616
0.00125468
0.00127235
0.00128922
0.00130531
0.00132066
0.0013353
0.00134925
0.00136253
0.00137516
0.00138717
0.00139856
0.00140935
0.00141957
0.00142921
0.0014383
0.00144685
0.00145486
0.00146235
0.00146934
0.00147582
0.00148182
0.00148733
0.00149237
0.00149696
0.00150108
0.00150477
0.00150801
0.00151083
0.00151323
0.00151521
0.00151679
0.00151798
0.00151878
0.00151919
0.00151923
0.0015189
0.00151821
0.00151716
0.00151577
0.00151404
0.00151198
0.00150961
0.00150692
0.00150394
0.00150067
0.00149712
0.00149329
0.0014892
0.00148485
0.00148025
0.00147541
0.00147034
0.00146505
0.00145954
0.00145383
0.00144791
0.00144181
0.00143553
0.00142907
0.00142244
0.00141566
0.00140873
0.00140166
0.00139446
0.00138713
0.00137969
0.00137213
0.00136447
0.00135672
0.00134888
0.00134096
0.00133296
0.0013249
0.00131678
0.00130861
0.00130039
0.00129213
0.00128384
0.00127551
0.00126716
0.00125879
0.00125041
0.00124202
0.00123362
0.00122522
0.00121683
0.00120844
0.00120005
0.00119168
0.00118333
0.00117499
0.00116666
0.00115836
0.00115008
0.00114182
0.00113358
0.00112537
0.00111717
0.001109
0.00110085
0.00109273
0.00108462
0.00107653
0.00106845
0.0010604
0.00105235
0.00104432
0.00103629
0.00102827
0.00102025
0.00101223
0.00100421
0.000996184
0.000988145
0.000980094
0.000972025
0.000963936
0.000955824
0.000947684
0.000939514
0.000931308
0.000923064
0.000914776
0.00090644
0.000898051
0.000889606
0.000881101
0.000872531
0.000863892
0.00085518
0.00084639
0.000837518
0.000828559
0.000819507
0.000810357
0.000801104
0.00079174
0.000782257
0.000772649
0.000762907
0.000753021
0.000742986
0.000732794
0.000722436
0.0007119
0.000701174
0.000690245
0.000679097
0.000667711
0.000656068
0.000644145
0.000631914
0.000619345
0.000606403
0.000593047
0.000579229
0.000564892
0.000549971
0.000534385
0.000518041
0.000500824
0.000482595
0.000463185
0.000442382
0.000419925
0.000395485
0.000368645
0.00033887
0.000305473
0.000267571
0.000224042
0.000173487
0.000114564
4.86775e-05
2.14768e-06
2.01067e-05
0.000140928
0.00028454
0.000414097
0.00052691
0.000624981
0.000710795
0.000786566
0.000854112
0.000914888
0.000970044
0.00102049
0.00106695
0.00110999
0.00115006
0.00118755
0.00122275
0.0012559
0.00128721
0.00131684
0.00134494
0.00137162
0.00139699
0.00142113
0.00144412
0.00146602
0.00148688
0.00150676
0.0015257
0.00154374
0.00156091
0.00157725
0.00159278
0.00160753
0.00162153
0.00163479
0.00164734
0.00165919
0.00167037
0.00168088
0.00169076
0.0017
0.00170863
0.00171666
0.00172411
0.00173098
0.00173729
0.00174305
0.00174827
0.00175297
0.00175715
0.00176083
0.00176401
0.00176671
0.00176894
0.0017707
0.00177201
0.00177288
0.0017733
0.00177331
0.00177289
0.00177207
0.00177085
0.00176923
0.00176723
0.00176487
0.00176215
0.00175907
0.00175566
0.00175193
0.00174787
0.00174351
0.00173884
0.00173389
0.00172866
0.00172316
0.0017174
0.00171138
0.00170512
0.00169863
0.00169192
0.00168499
0.00167786
0.00167053
0.00166301
0.00165532
0.00164746
0.00163943
0.00163126
0.00162294
0.00161449
0.00160592
0.00159722
0.00158842
0.00157952
0.00157052
0.00156144
0.00155228
0.00154305
0.00153376
0.00152441
0.00151502
0.00150558
0.0014961
0.00148659
0.00147706
0.0014675
0.00145793
0.00144836
0.00143877