/*--------------------------------*- C++ -*----------------------------------*\
  =========                 |
  \\      /  F ield         | OpenFOAM: The Open Source CFD Toolbox
   \\    /   O peration     | Website:  https://openfoam.org
    \\  /    A nd           | Version:  8
     \\/     M anipulation  |
\*---------------------------------------------------------------------------*/
FoamFile
{
    version     2.0;
    format      ascii;
    class       volScalarField;
    location    "3400";
    object      epsilon;
}
// * * * * * * * * * * * * * * * * * * * * * * * * * * * * * * * * * * * * * //

dimensions      [0 2 -3 0 0 0 0];

internalField   nonuniform List<scalar> 
46000
(
17.3931
67.9226
126.29
180.559
231.75
281.22
329.574
376.938
423.588
469.701
515.458
560.944
605.941
650.626
695.034
739.17
783.024
826.576
869.799
912.663
955.131
997.162
1038.71
1079.74
1120.2
1160.03
1199.19
1237.63
1275.3
1312.15
1348.13
1383.18
1417.27
1450.33
1482.34
1513.23
1542.98
1571.54
1598.87
1624.94
1649.71
1673.15
1695.25
1715.96
1735.28
1753.18
1769.64
1784.67
1798.24
1810.35
1821
1830.19
1837.92
1844.21
1849.06
1852.49
1854.51
1855.14
1854.41
1852.34
1848.97
1844.35
1838.54
1831.53
1823.34
1814.01
1803.57
1792.07
1779.54
1766.02
1751.57
1736.23
1720.04
1703.06
1685.32
1666.88
1647.78
1628.08
1607.82
1587.04
1565.8
1544.13
1522.09
1499.72
1477.06
1454.16
1431.05
1407.77
1384.38
1360.89
1337.36
1313.8
1290.26
1266.78
1243.36
1220.06
1196.89
1173.87
1151.04
1128.41
1106.01
1083.85
1061.95
1040.32
1018.99
997.956
977.238
956.844
936.783
917.06
897.683
878.656
859.982
841.663
823.702
806.097
788.849
771.956
755.415
739.223
723.376
707.869
692.697
677.854
663.334
649.13
635.233
621.637
608.334
595.315
582.571
570.094
557.875
545.904
534.173
522.672
511.393
500.325
489.461
478.79
468.304
457.995
447.853
437.87
428.039
418.35
408.796
399.367
390.069
380.896
371.835
362.879
354.022
345.258
336.583
327.992
319.48
311.044
302.68
294.385
286.157
277.992
269.888
261.845
253.875
245.979
238.143
230.363
222.638
214.967
207.351
199.788
192.279
184.823
177.422
170.074
162.779
155.538
148.349
141.212
134.124
127.078
120.081
113.132
106.221
99.3459
92.502
85.681
78.8735
72.0669
65.2455
58.4005
51.5326
44.5878
37.5177
30.2629
22.75
14.9254
7.05383
1.50184
17.3941
67.9253
126.293
180.562
231.753
281.223
329.576
376.941
423.59
469.704
515.46
560.946
605.943
650.627
695.035
739.171
783.025
826.577
869.8
912.664
955.131
997.163
1038.71
1079.74
1120.2
1160.03
1199.19
1237.63
1275.3
1312.15
1348.13
1383.18
1417.26
1450.33
1482.33
1513.23
1542.98
1571.54
1598.87
1624.93
1649.71
1673.15
1695.24
1715.96
1735.28
1753.18
1769.64
1784.66
1798.23
1810.35
1821
1830.19
1837.92
1844.21
1849.06
1852.48
1854.5
1855.13
1854.4
1852.34
1848.97
1844.34
1838.53
1831.53
1823.34
1814.01
1803.57
1792.06
1779.53
1766.02
1751.57
1736.23
1720.04
1703.05
1685.32
1666.88
1647.78
1628.08
1607.81
1587.04
1565.79
1544.13
1522.09
1499.72
1477.06
1454.15
1431.04
1407.77
1384.37
1360.89
1337.35
1313.8
1290.26
1266.77
1243.36
1220.06
1196.88
1173.87
1151.04
1128.41
1106.01
1083.85
1061.94
1040.32
1018.99
997.954
977.236
956.842
936.78
917.058
897.681
878.653
859.979
841.661
823.7
806.095
788.847
771.954
755.413
739.221
723.374
707.867
692.696
677.853
663.333
649.128
635.232
621.636
608.332
595.313
582.57
570.092
557.873
545.903
534.172
522.671
511.391
500.324
489.459
478.789
468.303
457.994
447.852
437.869
428.038
418.349
408.795
399.366
390.068
380.895
371.834
362.878
354.021
345.257
336.582
327.991
319.479
311.043
302.679
294.384
286.156
277.991
269.888
261.844
253.874
245.979
238.143
230.363
222.638
214.967
207.35
199.787
192.278
184.823
177.421
170.074
162.779
155.538
148.349
141.212
134.124
127.078
120.08
113.131
106.22
99.3458
92.502
85.6809
78.8734
72.0669
65.2455
58.4007
51.5327
44.5879
37.5179
30.2631
22.7502
14.9255
7.05392
1.50187
73.5803
62.7677
80.4013
101.366
123.196
145.446
168.008
190.752
213.665
236.722
259.894
283.194
306.585
330.073
353.655
377.316
401.039
424.802
448.579
472.343
496.062
519.706
543.24
566.628
589.835
612.823
635.553
657.987
680.085
701.809
723.119
743.975
764.341
784.178
803.449
822.118
840.152
857.517
874.181
890.114
905.289
919.679
933.26
946.01
957.91
968.941
979.09
988.343
996.691
1004.13
1010.64
1016.24
1020.91
1024.67
1027.52
1029.46
1030.5
1030.66
1029.96
1028.41
1026.03
1022.85
1018.92
1014.24
1008.81
1002.66
995.824
988.316
980.171
971.418
962.088
952.213
941.825
930.958
919.643
907.913
895.802
883.342
870.566
857.505
844.191
830.655
816.928
803.038
789.015
774.887
760.68
746.421
732.133
717.842
703.57
689.337
675.166
661.074
647.08
633.201
619.453
605.849
592.404
579.129
566.036
553.135
540.434
527.941
515.664
503.608
491.779
480.179
468.814
457.684
446.791
436.137
425.722
415.545
405.605
395.901
386.429
377.189
368.176
359.388
350.819
342.467
334.326
326.392
318.66
311.124
303.78
296.621
289.642
282.838
276.202
269.728
263.412
257.246
251.225
245.343
239.595
233.975
228.477
223.096
217.825
212.661
207.598
202.631
197.754
192.963
188.252
183.622
179.07
174.592
170.182
165.836
161.551
157.324
153.151
149.03
144.959
140.935
136.956
133.021
129.128
125.275
121.462
117.69
113.961
110.274
106.626
103.013
99.4344
95.8905
92.3805
88.9043
85.4618
82.0528
78.6775
75.3358
72.0278
68.7533
65.5124
62.3048
59.13
55.9868
52.8759
49.7964
46.7453
43.7247
40.7334
37.7687
34.8285
31.9098
29.0103
26.13
23.2686
20.4127
17.5536
14.6848
11.8105
8.98329
6.51621
7.62824
73.5828
62.7667
80.3993
101.364
123.193
145.443
168.004
190.747
213.66
236.716
259.889
283.188
306.578
330.066
353.647
377.308
401.031
424.793
448.57
472.333
496.052
519.695
543.228
566.616
589.823
612.81
635.54
657.973
680.071
701.794
723.103
743.959
764.325
784.161
803.432
822.101
840.134
857.499
874.162
890.095
905.27
919.659
933.24
945.99
957.889
968.921
979.069
988.322
996.67
1004.1
1010.62
1016.22
1020.89
1024.65
1027.5
1029.44
1030.48
1030.64
1029.94
1028.38
1026.01
1022.83
1018.9
1014.22
1008.79
1002.64
995.803
988.296
980.15
971.397
962.068
952.193
941.806
930.938
919.624
907.894
895.784
883.324
870.548
857.487
844.174
830.638
816.911
803.022
788.999
774.871
760.665
746.405
732.118
717.827
703.555
689.323
675.152
661.06
647.067
633.188
619.44
605.837
592.392
579.117
566.025
553.124
540.423
527.931
515.654
503.598
491.769
480.17
468.804
457.675
446.782
436.129
425.714
415.537
405.597
395.893
386.422
377.182
368.169
359.381
350.813
342.461
334.32
326.386
318.654
311.119
303.774
296.616
289.637
282.833
276.197
269.723
263.407
257.241
251.221
245.339
239.591
233.971
228.473
223.092
217.822
212.658
207.595
202.627
197.751
192.96
188.249
183.619
179.067
174.589
170.179
165.833
161.549
157.321
153.149
149.028
144.957
140.933
136.954
133.019
129.126
125.274
121.461
117.688
113.959
110.273
106.624
103.011
99.433
95.8892
92.3793
88.9031
85.4606
82.0517
78.6764
75.3348
72.0268
68.7524
65.5116
62.304
59.1292
55.9861
52.8752
49.7957
46.7446
43.7241
40.7328
37.7682
34.828
31.9094
29.0099
26.1297
23.2683
20.4125
17.5535
14.6847
11.8104
8.98325
6.51622
7.62822
138.059
84.4514
86.6342
97.0812
110.234
124.701
139.962
155.748
171.92
188.401
205.138
222.097
239.245
256.562
274.029
291.627
309.335
327.13
344.989
362.888
380.8
398.698
416.555
434.341
452.025
469.577
486.966
504.16
521.126
537.832
554.246
570.336
586.07
601.416
616.343
630.823
644.825
658.322
671.286
683.694
695.519
706.741
717.337
727.289
736.58
745.195
753.118
760.341
766.852
772.645
777.715
782.059
785.675
788.565
790.732
792.182
792.923
792.964
792.317
790.998
789.022
786.412
783.189
779.365
774.954
769.973
764.444
758.387
751.827
744.787
737.294
729.372
721.048
712.348
703.299
693.928
684.262
674.327
664.148
653.754
643.167
632.415
621.521
610.509
599.403
588.224
576.994
565.735
554.465
543.204
531.969
520.779
509.648
498.592
487.625
476.76
466.01
455.385
444.896
434.553
424.362
414.333
404.472
394.784
385.275
375.948
366.808
357.857
349.097
340.529
332.155
323.975
315.988
308.194
300.591
293.178
285.953
278.912
272.055
265.376
258.874
252.544
246.382
240.385
234.548
228.868
223.339
217.957
212.717
207.615
202.646
197.805
193.088
188.49
184.006
179.631
175.361
171.191
167.118
163.136
159.241
155.428
151.695
148.037
144.449
140.928
137.472
134.079
130.745
127.469
124.245
121.071
117.944
114.862
111.822
108.823
105.861
102.936
100.045
97.1878
94.3626
91.5685
88.805
86.0718
83.3696
80.6977
78.0543
75.4381
72.8484
70.2847
67.7466
65.2341
62.7471
60.2856
57.8498
55.4396
53.0553
50.6971
48.365
46.0591
43.7795
41.5261
39.2992
37.0986
34.9241
32.7761
30.6543
28.559
26.491
24.4501
22.437
20.454
18.5042
16.5903
14.7201
12.9143
11.2262
9.8148
9.37003
16.0354
138.062
84.4493
86.6312
97.0777
110.23
124.697
139.958
155.743
171.915
188.397
205.133
222.092
239.24
256.556
274.023
291.621
309.328
327.123
344.982
362.88
380.792
398.69
416.547
434.332
452.016
469.568
486.957
504.15
521.116
537.822
554.236
570.325
586.059
601.404
616.332
630.811
644.813
658.31
671.274
683.681
695.507
706.728
717.324
727.276
736.567
745.181
753.105
760.327
766.839
772.632
777.702
782.045
785.661
788.551
790.719
792.169
792.91
792.951
792.304
790.984
789.009
786.399
783.176
779.352
774.941
769.961
764.431
758.374
751.814
744.775
737.282
729.36
721.036
712.337
703.288
693.917
684.251
674.316
664.138
653.743
643.157
632.405
621.512
610.5
599.394
588.215
576.986
565.726
554.456
543.195
531.961
520.771
509.64
498.584
487.618
476.753
466.003
455.379
444.89
434.546
424.356
414.327
404.466
394.778
385.269
375.943
366.803
357.852
349.092
340.525
332.151
323.971
315.984
308.19
300.587
293.174
285.949
278.909
272.051
265.373
258.87
252.541
246.379
240.382
234.546
228.865
223.336
217.954
212.714
207.613
202.644
197.803
193.086
188.488
184.004
179.629
175.359
171.19
167.116
163.134
159.239
155.427
151.694
148.035
144.448
140.927
137.47
134.077
130.744
127.468
124.244
121.07
117.943
114.861
111.822
108.822
105.86
102.935
100.044
97.187
94.3619
91.5678
88.8043
86.0711
83.369
80.6972
78.0538
75.4376
72.8479
70.2842
67.7461
65.2336
62.7467
60.2852
57.8494
55.4392
53.055
50.6967
48.3646
46.0588
43.7792
41.5258
39.2989
37.0984
34.9239
32.7759
30.654
28.5589
26.4908
24.4499
22.4369
20.4539
18.5041
16.5902
14.72
12.9142
11.2261
9.8148
9.3701
16.0354
199.711
109.042
100.178
104.208
112.529
122.895
134.462
146.822
159.754
173.126
186.849
200.865
215.127
229.6
244.256
259.068
274.012
289.064
304.198
319.392
334.62
349.856
365.076
380.251
395.356
410.362
425.242
439.967
454.508
468.837
482.926
496.745
510.266
523.462
536.305
548.768
560.826
572.454
583.627
594.323
604.52
614.198
623.338
631.923
639.936
647.365
654.196
660.419
666.025
671.007
675.361
679.083
682.172
684.629
686.456
687.657
688.239
688.211
687.583
686.366
684.575
682.225
679.335
675.918
671.986
667.558
662.649
657.281
651.473
645.247
638.625
631.629
624.284
616.611
608.634
600.378
591.865
583.12
574.164
565.022
555.716
546.267
536.697
527.028
517.279
507.471
497.623
487.752
477.876
468.012
458.175
448.381
438.643
428.975
419.389
409.897
400.509
391.235
382.083
373.063
364.18
355.443
346.855
338.423
330.151
322.042
314.099
306.324
298.719
291.286
284.024
276.935
270.017
263.27
256.692
250.283
244.039
237.959
232.041
226.28
220.675
215.223
209.919
204.76
199.742
194.862
190.115
185.497
181.005
176.634
172.38
168.239
164.206
160.278
156.45
152.718
149.078
145.526
142.058
138.671
135.36
132.121
128.952
125.848
122.806
119.823
116.898
114.028
111.209
108.439
105.716
103.036
100.397
97.7973
95.234
92.7057
90.2105
87.7468
85.3133
82.9086
80.5317
78.1817
75.858
73.5602
71.288
69.0411
66.8185
64.6191
62.4426
60.2885
58.1565
56.0466
53.9587
51.893
49.8494
47.8283
45.8299
43.8543
41.902
39.9731
38.0681
36.1873
34.3312
32.5001
30.6946
28.9155
27.1635
25.4399
23.7462
22.0844
20.4583
18.8723
17.3338
15.8543
14.4546
13.1766
12.1154
11.5362
12.5505
24.4618
199.714
109.039
100.174
104.204
112.525
122.891
134.458
146.818
159.75
173.121
186.845
200.86
215.122
229.595
244.251
259.063
274.007
289.058
304.192
319.386
334.613
349.85
365.069
380.244
395.349
410.355
425.235
439.959
454.5
468.829
482.918
496.736
510.258
523.453
536.296
548.759
560.817
572.445
583.618
594.314
604.511
614.189
623.329
631.913
639.927
647.355
654.186
660.409
666.015
670.998
675.351
679.073
682.162
684.619
686.446
687.647
688.23
688.202
687.573
686.356
684.565
682.216
679.326
675.909
671.977
667.549
662.64
657.272
651.464
645.239
638.617
631.621
624.276
616.603
608.627
600.371
591.858
583.113
574.157
565.015
555.709
546.26
536.691
527.022
517.273
507.465
497.617
487.746
477.87
468.006
458.17
448.376
438.638
428.97
419.385
409.892
400.504
391.23
382.079
373.059
364.176
355.439
346.852
338.42
330.148
322.038
314.095
306.321
298.716
291.283
284.022
276.932
270.014
263.267
256.69
250.28
244.037
237.957
232.038
226.278
220.674
215.221
209.917
204.758
199.74
194.86
190.113
185.496
181.004
176.633
172.379
168.238
164.205
160.277
156.449
152.717
149.077
145.525
142.057
138.67
135.359
132.12
128.951
125.847
122.805
119.822
116.897
114.027
111.208
108.439
105.715
103.036
100.397
97.7968
95.2336
92.7053
90.2101
87.7464
85.3129
82.9082
80.5314
78.1814
75.8577
73.5599
71.2877
69.0409
66.8182
64.6189
62.4424
60.2883
58.1563
56.0464
53.9586
51.8928
49.8493
47.8282
45.8297
43.8542
41.9018
39.973
38.068
36.1872
34.3311
32.5
30.6945
28.9154
27.1634
25.4399
23.7461
22.0844
20.4582
18.8722
17.3337
15.8543
14.4546
13.1766
12.1154
11.5362
12.5506
24.4618
259.228
134.443
116.121
115.137
119.928
127.473
136.618
146.809
157.746
169.244
181.183
193.48
206.074
218.918
231.973
245.207
258.589
272.093
285.693
299.363
313.077
326.812
340.541
354.24
367.882
381.441
394.891
408.205
421.358
434.323
447.072
459.58
471.821
483.769
495.398
506.685
517.605
528.136
538.255
547.942
557.175
565.937
574.21
581.979
589.227
595.943
602.115
607.733
612.788
617.275
621.188
624.525
627.283
629.465
631.07
632.104
632.573
632.482
631.843
630.664
628.959
626.741
624.025
620.824
617.151
613.023
608.456
603.468
598.077
592.304
586.167
579.689
572.89
565.792
558.416
550.783
542.916
534.836
526.565
518.123
509.53
500.809
491.977
483.055
474.062
465.015
455.932
446.83
437.725
428.632
419.565
410.539
401.567
392.66
383.83
375.088
366.442
357.904
349.479
341.177
333.003
324.963
317.063
309.308
301.701
294.245
286.944
279.798
272.811
265.982
259.313
252.803
246.452
240.26
234.225
228.345
222.619
217.045
211.62
206.342
201.208
196.215
191.359
186.638
182.047
177.584
173.245
169.025
164.921
160.929
157.046
153.267
149.588
146.007
142.518
139.118
135.803
132.569
129.414
126.333
123.322
120.379
117.5
114.682
111.921
109.216
106.564
103.962
101.409
98.9001
96.4343
94.0088
91.6214
89.27
86.9526
84.6676
82.4134
80.1884
77.9914
75.8211
73.6766
71.5571
69.4618
67.3901
65.3418
63.3165
61.3134
59.3318
57.3714
55.4317
53.5127
51.6141
49.7361
47.8788
46.0422
44.2266
42.4325
40.66
38.9096
37.1818
35.4772
33.7963
32.1399
30.5089
28.9042
27.3272
25.7795
24.263
22.7807
21.336
19.9344
18.5832
17.2943
16.0858
14.9899
14.0677
13.4538
13.5179
15.786
32.7199
259.231
134.439
116.117
115.133
119.924
127.469
136.613
146.805
157.741
169.239
181.178
193.476
206.07
218.913
231.968
245.202
258.584
272.088
285.687
299.357
313.072
326.806
340.535
354.234
367.875
381.434
394.884
408.199
421.351
434.316
447.065
459.573
471.814
483.761
495.391
506.678
517.598
528.129
538.248
547.934
557.167
565.929
574.203
581.971
589.219
595.935
602.107
607.725
612.78
617.267
621.18
624.517
627.276
629.457
631.062
632.097
632.565
632.475
631.835
630.657
628.952
626.734
624.018
620.817
617.145
613.017
608.45
603.461
598.071
592.297
586.161
579.683
572.884
565.786
558.41
550.778
542.911
534.831
526.56
518.117
509.525
500.804
491.972
483.051
474.057
465.011
455.928
446.826
437.721
428.628
419.561
410.536
401.563
392.656
383.827
375.084
366.439
357.901
349.476
341.174
333
324.96
317.061
309.305
301.698
294.243
286.941
279.796
272.809
265.98
259.311
252.801
246.451
240.258
234.223
228.343
222.618
217.043
211.619
206.341
201.207
196.213
191.358
186.637
182.046
177.583
173.244
169.024
164.92
160.928
157.045
153.266
149.588
146.006
142.517
139.117
135.802
132.569
129.413
126.332
123.322
120.379
117.5
114.681
111.92
109.215
106.563
103.962
101.408
98.8998
96.434
94.0085
91.6211
89.2697
86.9524
84.6674
82.4132
80.1882
77.9912
75.8209
73.6765
71.5569
69.4616
67.39
65.3417
63.3164
61.3132
59.3317
57.3712
55.4316
53.5126
51.614
49.736
47.8787
46.0421
44.2266
42.4324
40.6599
38.9096
37.1818
35.4771
33.7963
32.1399
30.5088
28.9042
27.3272
25.7794
24.263
22.7806
21.336
19.9344
18.5832
17.2943
16.0858
14.9899
14.0677
13.4538
13.518
15.7861
32.7199
317.709
160.398
133.322
127.954
129.842
135.182
142.511
151.134
160.669
170.882
181.624
192.788
204.298
216.093
228.128
240.362
252.76
265.292
277.93
290.645
303.413
316.205
328.999
341.767
354.486
367.129
379.671
392.088
404.353
416.442
428.329
439.989
451.399
462.534
473.37
483.884
494.055
503.86
513.278
522.29
530.878
539.024
546.711
553.924
560.65
566.877
572.594
577.791
582.461
586.598
590.197
593.255
595.771
597.746
599.181
600.08
600.448
600.291
599.619
598.441
596.767
594.611
591.985
588.903
585.377
581.423
577.057
572.295
567.154
561.654
555.813
549.65
543.186
536.44
529.433
522.185
514.716
507.047
499.197
491.187
483.035
474.761
466.384
457.922
449.393
440.813
432.199
423.568
414.933
406.31
397.712
389.153
380.644
372.198
363.824
355.533
347.335
339.237
331.247
323.373
315.62
307.995
300.503
293.147
285.932
278.86
271.935
265.157
258.53
252.053
245.727
239.553
233.53
227.657
221.933
216.357
210.927
205.641
200.497
195.493
190.625
185.892
181.289
176.814
172.463
168.234
164.122
160.124
156.236
152.455
148.778
145.199
141.717
138.326
135.024
131.807
128.671
125.613
122.629
119.716
116.87
114.089
111.369
108.707
106.101
103.548
101.045
98.5914
96.1832
93.8181
91.4938
89.2082
86.9592
84.7448
82.5632
80.4128
78.2921
76.1996
74.1341
72.0945
70.0799
68.0893
66.1222
64.1778
62.2559
60.3558
58.4772
56.6195
54.7823
52.9652
51.1683
49.3914
47.6344
45.8977
44.1813
42.4856
40.8109
39.1576
37.5264
35.9177
34.3324
32.7712
31.2353
29.7257
28.2441
26.7921
25.3721
23.987
22.6406
21.338
20.0864
18.896
17.7823
16.7696
15.9001
15.2537
15.0032
15.6212
19.0409
40.8653
317.712
160.395
133.318
127.95
129.838
135.177
142.507
151.13
160.664
170.878
181.62
192.784
204.293
216.089
228.123
240.357
252.755
265.287
277.925
290.64
303.407
316.2
328.993
341.762
354.48
367.123
379.665
392.082
404.347
416.435
428.322
439.983
451.393
462.527
473.364
483.878
494.048
503.853
513.271
522.284
530.871
539.017
546.704
553.917
560.644
566.87
572.587
577.784
582.454
586.591
590.19
593.248
595.765
597.739
599.174
600.073
600.441
600.285
599.613
598.434
596.761
594.605
591.979
588.897
585.371
581.418
577.051
572.289
567.149
561.649
555.808
549.645
543.181
536.436
529.429
522.181
514.712
507.043
499.193
491.183
483.031
474.758
466.381
457.919
449.389
440.809
432.196
423.564
414.93
406.307
397.709
389.15
380.641
372.195
363.821
355.531
347.332
339.234
331.245
323.37
315.618
307.993
300.501
293.145
285.93
278.858
271.933
265.156
258.528
252.051
245.726
239.552
233.528
227.655
221.931
216.355
210.926
205.64
200.496
195.492
190.624
185.891
181.288
176.813
172.462
168.233
164.121
160.123
156.235
152.455
148.777
145.199
141.716
138.326
135.024
131.807
128.671
125.612
122.629
119.716
116.87
114.089
111.369
108.707
106.1
103.547
101.045
98.5911
96.1829
93.8178
91.4936
89.208
86.959
84.7446
82.563
80.4126
78.2919
76.1994
74.134
72.0944
70.0797
68.0892
66.122
64.1777
62.2557
60.3557
58.4771
56.6194
54.7822
52.9652
51.1682
49.3913
47.6344
45.8976
44.1813
42.4856
40.8108
39.1576
37.5263
35.9177
34.3323
32.7712
31.2352
29.7257
28.244
26.7921
25.3721
23.987
22.6406
21.338
20.0864
18.896
17.7823
16.7696
15.9001
15.2537
15.0032
15.6213
19.0411
40.8654
375.415
186.85
151.397
141.984
141.323
144.808
150.67
158.066
166.537
175.802
185.679
196.042
206.796
217.873
229.215
240.776
252.517
264.403
276.402
288.484
300.622
312.789
324.958
337.105
349.204
361.23
373.157
384.962
396.62
408.107
419.398
430.47
441.299
451.862
462.138
472.103
481.737
491.02
499.933
508.455
516.571
524.263
531.516
538.316
544.65
550.507
555.877
560.751
565.122
568.985
572.334
575.168
577.485
579.286
580.573
581.349
581.619
581.389
580.667
579.463
577.786
575.648
573.062
570.04
566.594
562.74
558.493
553.868
548.882
543.553
537.899
531.937
525.688
519.17
512.402
505.403
498.193
490.792
483.217
475.489
467.625
459.643
451.563
443.4
435.173
426.897
418.587
410.26
401.93
393.61
385.313
377.053
368.841
360.688
352.604
344.599
336.682
328.862
321.144
313.537
306.047
298.678
291.437
284.327
277.351
270.513
263.816
257.26
250.849
244.583
238.461
232.486
226.656
220.97
215.428
210.029
204.77
199.65
194.668
189.819
185.103
180.516
176.056
171.718
167.501
163.402
159.415
155.539
151.77
148.105
144.539
141.069
137.693
134.405
131.203
128.084
125.043
122.078
119.185
116.361
113.602
110.907
108.27
105.691
103.166
100.693
98.2701
95.894
93.5624
91.2731
89.0239
86.8125
84.6371
82.4958
80.3869
78.3088
76.26
74.2393
72.2453
70.2772
68.3338
66.4144
64.5183
62.6448
60.7936
58.9642
57.1561
55.3688
53.6021
51.8557
50.1294
48.4232
46.7372
45.0714
43.4263
41.8019
40.1989
38.6177
37.0589
35.5232
34.0117
32.5252
31.0652
29.6331
28.2309
26.8607
25.5257
24.2294
22.9768
21.7743
20.6308
19.5593
18.5788
17.7195
17.0331
16.6171
16.6827
17.8048
22.3204
48.9575
375.418
186.846
151.392
141.98
141.319
144.804
150.665
158.062
166.533
175.798
185.675
196.037
206.792
217.868
229.21
240.771
252.512
264.398
276.397
288.479
300.617
312.784
324.953
337.1
349.198
361.224
373.152
384.957
396.615
408.101
419.392
430.464
441.293
451.856
462.132
472.097
481.731
491.014
499.926
508.449
516.564
524.256
531.509
538.31
544.644
550.501
555.871
560.745
565.116
568.979
572.328
575.162
577.48
579.281
580.567
581.343
581.613
581.383
580.662
579.457
577.781
575.643
573.057
570.034
566.589
562.735
558.488
553.863
548.877
543.549
537.894
531.933
525.684
519.166
512.398
505.399
498.189
490.788
483.213
475.485
467.621
459.64
451.56
443.397
435.17
426.894
418.584
410.257
401.927
393.607
385.311
377.051
368.839
360.686
352.602
344.597
336.68
328.859
321.142
313.535
306.045
298.677
291.435
284.325
277.349
270.511
263.814
257.259
250.848
244.581
238.46
232.485
226.654
220.969
215.427
210.028
204.769
199.649
194.667
189.818
185.102
180.515
176.055
171.718
167.501
163.401
159.415
155.539
151.77
148.104
144.538
141.069
137.692
134.404
131.203
128.083
125.043
122.078
119.185
116.36
113.602
110.906
108.27
105.69
103.166
100.693
98.2698
95.8937
93.5622
91.2729
89.0236
86.8123
84.6369
82.4956
80.3867
78.3086
76.2598
74.2391
72.2452
70.277
68.3336
66.4143
64.5181
62.6447
60.7935
58.9641
57.156
55.3687
53.602
51.8556
50.1293
48.4231
46.7371
45.0714
43.4262
41.8019
40.1989
38.6176
37.0588
35.5232
34.0116
32.5252
31.0652
29.6331
28.2308
26.8607
25.5257
24.2294
22.9768
21.7743
20.6308
19.5593
18.5788
17.7195
17.0331
16.6171
16.6827
17.8048
22.3207
48.9577
432.578
213.773
170.184
156.944
153.954
155.807
160.422
166.812
174.436
182.967
192.191
201.962
212.172
222.738
233.595
244.691
255.98
267.424
278.988
290.639
302.348
314.086
325.827
337.545
349.213
360.807
372.303
383.674
394.899
405.952
416.811
427.453
437.855
447.995
457.852
467.404
476.633
485.517
494.04
502.183
509.93
517.265
524.175
530.645
536.663
542.22
547.306
551.913
556.034
559.663
562.799
565.437
567.577
569.22
570.368
571.024
571.193
570.881
570.095
568.845
567.139
564.99
562.408
559.407
555.998
552.196
548.014
543.47
538.578
533.355
527.819
521.987
515.877
509.508
502.898
496.066
489.029
481.806
474.416
466.877
459.207
451.423
443.541
435.58
427.555
419.482
411.376
403.252
395.123
387.004
378.906
370.843
362.824
354.862
346.966
339.145
331.409
323.764
316.219
308.78
301.453
294.244
287.157
280.197
273.367
266.669
260.108
253.684
247.4
241.255
235.252
229.39
223.669
218.088
212.647
207.344
202.178
197.148
192.25
187.484
182.846
178.335
173.946
169.678
165.528
161.491
157.566
153.748
150.035
146.423
142.909
139.489
136.16
132.919
129.762
126.685
123.686
120.761
117.907
115.12
112.399
109.739
107.138
104.593
102.102
99.663
97.2729
94.9294
92.6301
90.3727
88.1552
85.9754
83.8316
81.7219
79.6447
77.5985
75.5818
73.5934
71.6322
69.697
67.787
65.9014
64.0394
62.2005
60.3842
58.59
56.8176
55.0664
53.3363
51.627
49.9383
48.2703
46.6229
44.9964
43.3911
41.8072
40.2452
38.7058
37.1897
35.6977
34.2308
32.7904
31.3779
29.9952
28.6446
27.3289
26.0515
24.8171
23.6313
22.502
21.44
20.4605
19.5862
18.8531
18.3221
18.108
18.4605
20.0571
25.638
57.0454
432.581
213.769
170.18
156.94
153.95
155.803
160.418
166.808
174.431
182.962
192.187
201.958
212.167
222.733
233.591
244.686
255.976
267.419
278.983
290.634
302.343
314.081
325.822
337.54
349.208
360.802
372.297
383.669
394.893
405.947
416.806
427.448
437.849
447.989
457.846
467.399
476.627
485.512
494.034
502.177
509.924
517.26
524.169
530.639
536.658
542.215
547.301
551.907
556.028
559.658
562.793
565.432
567.572
569.215
570.363
571.019
571.188
570.876
570.09
568.84
567.134
564.985
562.404
559.402
555.994
552.191
548.01
543.465
538.574
533.351
527.815
521.983
515.874
509.505
502.895
496.062
489.025
481.803
474.413
466.874
459.204
451.42
443.538
435.577
427.552
419.479
411.373
403.249
395.121
387.001
378.904
370.84
362.822
354.86
346.964
339.143
331.407
323.762
316.217
308.779
301.452
294.243
287.156
280.195
273.365
266.668
260.107
253.683
247.398
241.254
235.251
229.389
223.668
218.087
212.646
207.343
202.177
197.147
192.25
187.483
182.846
178.334
173.946
169.678
165.527
161.491
157.565
153.748
150.035
146.423
142.909
139.489
136.16
132.918
129.761
126.684
123.685
120.76
117.906
115.12
112.398
109.738
107.137
104.592
102.102
99.6627
97.2726
94.9291
92.6298
90.3725
88.1549
85.9752
83.8314
81.7217
79.6445
77.5983
75.5816
73.5932
71.632
69.6969
67.7869
65.9013
64.0393
62.2004
60.3841
58.5899
56.8175
55.0663
53.3362
51.6269
49.9382
48.2702
46.6228
44.9964
43.391
41.8071
40.2452
38.7058
37.1896
35.6976
34.2308
32.7903
31.3779
29.9952
28.6446
27.3289
26.0515
24.817
23.6313
22.502
21.44
20.4605
19.5862
18.8531
18.3221
18.108
18.4605
20.0572
25.6383
57.0456
489.59
241.267
189.648
172.714
167.54
167.91
171.431
176.964
183.891
191.836
200.556
209.882
219.691
229.89
240.406
251.178
262.157
273.299
284.566
295.923
307.339
318.783
330.228
341.647
353.012
364.3
375.484
386.542
397.449
408.182
418.718
429.035
439.11
448.924
458.455
467.683
476.59
485.156
493.364
501.198
508.643
515.683
522.305
528.496
534.247
539.546
544.385
548.757
552.657
556.078
559.019
561.476
563.45
564.942
565.953
566.488
566.55
566.146
565.284
563.971
562.218
560.034
557.432
554.422
551.018
547.233
543.081
538.577
533.737
528.576
523.111
517.36
511.34
505.067
498.56
491.838
484.916
477.814
470.548
463.137
455.598
447.947
440.2
432.375
424.487
416.551
408.581
400.593
392.599
384.612
376.645
368.71
360.818
352.978
345.202
337.498
329.875
322.34
314.901
307.564
300.335
293.22
286.223
279.349
272.601
265.982
259.494
253.141
246.923
240.841
234.897
229.091
223.422
217.89
212.494
207.233
202.107
197.113
192.249
187.514
182.904
178.418
174.054
169.807
165.676
161.657
157.747
153.944
150.243
146.642
143.138
139.726
136.404
133.169
130.016
126.944
123.948
121.025
118.173
115.389
112.668
110.009
107.408
104.864
102.374
99.9354
97.5457
95.2025
92.9037
90.647
88.4303
86.2518
84.1096
82.0019
79.9273
77.8842
75.8712
73.8872
71.931
70.0016
68.098
66.2196
64.3657
62.5355
60.7286
58.9447
57.1832
55.4439
53.7264
52.0305
50.3561
48.7032
47.0719
45.4622
43.8746
42.3093
40.767
39.2483
37.7539
36.2848
34.8423
33.4278
32.043
30.6901
29.3717
28.0911
26.8524
25.6607
24.523
23.4482
22.4489
21.5426
20.7556
20.1296
19.7349
19.7038
20.3247
22.3788
29.0088
65.1749
489.593
241.262
189.643
172.709
167.535
167.906
171.426
176.96
183.887
191.832
200.552
209.877
219.686
229.885
240.401
251.173
262.152
273.294
284.561
295.918
307.334
318.778
330.223
341.641
353.007
364.295
375.479
386.537
397.444
408.177
418.712
429.029
439.105
448.919
458.45
467.678
476.584
485.15
493.359
501.193
508.637
515.677
522.299
528.491
534.241
539.541
544.38
548.752
552.652
556.073
559.014
561.471
563.446
564.937
565.949
566.483
566.545
566.142
565.279
563.967
562.213
560.03
557.428
554.418
551.014
547.229
543.077
538.573
533.733
528.572
523.108
517.357
511.336
505.064
498.557
491.834
484.913
477.811
470.545
463.135
455.595
447.944
440.198
432.373
424.485
416.548
408.579
400.59
392.596
384.61
376.643
368.708
360.816
352.977
345.2
337.496
329.873
322.338
314.899
307.562
300.334
293.219
286.222
279.348
272.599
265.98
259.493
253.14
246.922
240.84
234.896
229.09
223.42
217.889
212.493
207.232
202.106
197.112
192.248
187.513
182.903
178.418
174.053
169.806
165.675
161.656
157.747
153.943
150.243
146.642
143.137
139.725
136.404
133.168
130.016
126.943
123.947
121.025
118.173
115.388
112.668
110.009
107.408
104.864
102.374
99.9351
97.5454
95.2022
92.9034
90.6467
88.4301
86.2516
84.1093
82.0017
79.9271
77.884
75.871
73.887
71.9308
70.0014
68.0979
66.2195
64.3655
62.5354
60.7285
58.9446
57.1831
55.4438
53.7263
52.0305
50.3561
48.7032
47.0718
45.4622
43.8745
42.3093
40.767
39.2482
37.7538
36.2848
34.8423
33.4277
32.0429
30.69
29.3717
28.0911
26.8523
25.6607
24.523
23.4482
22.4488
21.5425
20.7556
20.1296
19.7348
19.7038
20.3247
22.3789
29.0091
65.175
546.755
269.384
209.801
189.252
181.989
180.981
183.515
188.303
194.642
202.111
210.434
219.423
228.938
238.876
249.155
259.708
270.48
281.422
292.493
303.657
314.878
326.125
337.369
348.581
359.735
370.806
381.767
392.595
403.266
413.757
424.047
434.112
443.932
453.487
462.756
471.721
480.363
488.664
496.609
504.182
511.368
518.152
524.524
530.471
535.983
541.051
545.668
549.825
553.52
556.746
559.503
561.787
563.6
564.941
565.815
566.223
566.173
565.668
564.717
563.328
561.51
559.273
556.63
553.59
550.167
546.373
542.223
537.73
532.91
527.778
522.351
516.645
510.677
504.463
498.021
491.368
484.521
477.497
470.313
462.987
455.534
447.971
440.315
432.58
424.782
416.936
409.056
401.156
393.249
385.348
377.464
369.61
361.796
354.032
346.328
338.693
331.135
323.663
316.282
309.001
301.823
294.756
287.804
280.97
274.259
267.673
261.216
254.889
248.694
242.633
236.705
230.912
225.254