/*--------------------------------*- C++ -*----------------------------------*\
  =========                 |
  \\      /  F ield         | OpenFOAM: The Open Source CFD Toolbox
   \\    /   O peration     | Website:  https://openfoam.org
    \\  /    A nd           | Version:  8
     \\/     M anipulation  |
\*---------------------------------------------------------------------------*/
FoamFile
{
    version     2.0;
    format      ascii;
    class       volScalarField;
    location    "3400";
    object      k;
}
// * * * * * * * * * * * * * * * * * * * * * * * * * * * * * * * * * * * * * //

dimensions      [0 2 -2 0 0 0 0];

internalField   nonuniform List<scalar> 
46000
(
0.0138257
0.0567368
0.105484
0.150808
0.193561
0.234876
0.275259
0.314816
0.353775
0.392287
0.430501
0.468488
0.506068
0.543386
0.580473
0.617333
0.653958
0.69033
0.726428
0.762225
0.797691
0.832793
0.867494
0.901758
0.935543
0.968809
1.00152
1.03362
1.06508
1.09585
1.1259
1.15517
1.18364
1.21125
1.23798
1.26378
1.28862
1.31247
1.3353
1.35707
1.37776
1.39734
1.41579
1.43309
1.44922
1.46417
1.47792
1.49047
1.5018
1.51192
1.52081
1.52849
1.53495
1.5402
1.54425
1.54711
1.5488
1.54933
1.54872
1.547
1.54418
1.54032
1.53547
1.52962
1.52279
1.515
1.50628
1.49668
1.48621
1.47493
1.46286
1.45005
1.43654
1.42235
1.40754
1.39214
1.3762
1.35975
1.34283
1.32548
1.30774
1.28965
1.27124
1.25256
1.23364
1.21451
1.19521
1.17578
1.15624
1.13663
1.11697
1.09731
1.07765
1.05803
1.03848
1.01902
0.999669
0.98045
0.961382
0.942485
0.923775
0.905267
0.886977
0.868918
0.8511
0.833535
0.816232
0.7992
0.782445
0.765973
0.74979
0.733898
0.718302
0.703002
0.688
0.673297
0.658891
0.644781
0.630966
0.617441
0.604205
0.591253
0.578581
0.566183
0.554055
0.54219
0.530583
0.519227
0.508114
0.497239
0.486595
0.476173
0.465966
0.455966
0.446167
0.436561
0.427139
0.417894
0.408818
0.399905
0.391146
0.382534
0.374062
0.365724
0.357511
0.349418
0.341437
0.333561
0.325794
0.318132
0.310563
0.303082
0.295683
0.288363
0.281117
0.27394
0.266831
0.259784
0.252798
0.24587
0.238997
0.232177
0.225409
0.218691
0.212034
0.20544
0.198895
0.192397
0.185945
0.179538
0.173177
0.16686
0.160589
0.154362
0.148181
0.142044
0.135952
0.129904
0.1239
0.117939
0.11202
0.106135
0.100291
0.0944875
0.0887156
0.0829741
0.0772583
0.0715615
0.065876
0.0601912
0.054494
0.0487773
0.0430412
0.0372408
0.0313358
0.0252765
0.0190016
0.0124664
0.00589183
0.00119096
0.0138266
0.0567391
0.105486
0.150811
0.193563
0.234879
0.275261
0.314818
0.353777
0.392289
0.430502
0.46849
0.506069
0.543387
0.580475
0.617334
0.653958
0.69033
0.726428
0.762225
0.797692
0.832793
0.867495
0.901758
0.935543
0.968809
1.00151
1.03362
1.06508
1.09585
1.1259
1.15517
1.18363
1.21125
1.23798
1.26378
1.28862
1.31247
1.3353
1.35707
1.37775
1.39733
1.41579
1.43309
1.44922
1.46417
1.47792
1.49047
1.5018
1.51191
1.52081
1.52848
1.53494
1.5402
1.54425
1.54711
1.5488
1.54933
1.54872
1.54699
1.54418
1.54032
1.53547
1.52962
1.52279
1.515
1.50628
1.49667
1.48621
1.47493
1.46286
1.45005
1.43653
1.42235
1.40754
1.39214
1.3762
1.35974
1.34282
1.32547
1.30773
1.28964
1.27124
1.25256
1.23364
1.21451
1.19521
1.17578
1.15624
1.13663
1.11697
1.0973
1.07765
1.05803
1.03848
1.01902
0.999667
0.980447
0.96138
0.942483
0.923773
0.905265
0.886975
0.868916
0.851098
0.833533
0.81623
0.799198
0.782443
0.765971
0.749788
0.733896
0.7183
0.703
0.687999
0.673295
0.658889
0.64478
0.630964
0.61744
0.604204
0.591252
0.578579
0.566182
0.554054
0.542189
0.530582
0.519225
0.508113
0.497238
0.486593
0.476171
0.465964
0.455965
0.446166
0.43656
0.427138
0.417893
0.408817
0.399904
0.391145
0.382533
0.374061
0.365723
0.35751
0.349417
0.341436
0.33356
0.325793
0.318131
0.310562
0.303081
0.295683
0.288362
0.281116
0.27394
0.26683
0.259783
0.252797
0.245869
0.238996
0.232177
0.225408
0.21869
0.212033
0.205439
0.198894
0.192396
0.185944
0.179538
0.173176
0.16686
0.160588
0.154362
0.14818
0.142044
0.135951
0.129904
0.1239
0.117939
0.11202
0.106135
0.100291
0.0944874
0.0887155
0.0829741
0.0772582
0.0715615
0.065876
0.0601912
0.054494
0.0487774
0.0430413
0.037241
0.031336
0.0252767
0.0190018
0.0124665
0.00589191
0.00119099
0.0563732
0.178035
0.264881
0.337714
0.403204
0.463994
0.52135
0.576205
0.629179
0.680633
0.730793
0.779893
0.828056
0.875398
0.921997
0.967906
1.01316
1.05777
1.10175
1.14509
1.18779
1.22984
1.2712
1.31185
1.35178
1.39094
1.4293
1.46684
1.50351
1.53928
1.57411
1.60797
1.64082
1.67263
1.70336
1.73298
1.76145
1.78875
1.81484
1.83971
1.86331
1.88564
1.90667
1.92638
1.94476
1.96179
1.97745
1.99175
2.00468
2.01623
2.0264
2.0352
2.04262
2.04869
2.0534
2.05677
2.05882
2.05957
2.05902
2.05722
2.05419
2.04996
2.04456
2.03802
2.03036
2.02161
2.01181
2.00099
1.98919
1.97645
1.9628
1.9483
1.93297
1.91687
1.90003
1.8825
1.86432
1.84553
1.82618
1.80631
1.78596
1.76517
1.74398
1.72244
1.70059
1.67845
1.65608
1.63351
1.61077
1.5879
1.56494
1.54191
1.51885
1.49578
1.47275
1.44976
1.42686
1.40406
1.38138
1.35886
1.3365
1.31433
1.29237
1.27063
1.24913
1.22788
1.20689
1.18618
1.16574
1.1456
1.12576
1.10623
1.087
1.06808
1.04949
1.03121
1.01325
0.995607
0.978284
0.961278
0.944585
0.928202
0.912126
0.896352
0.880875
0.865688
0.850787
0.836163
0.82181
0.807721
0.793887
0.780301
0.766954
0.753837
0.740941
0.728259
0.71578
0.703496
0.691397
0.679474
0.667718
0.656121
0.644672
0.633364
0.622186
0.61113
0.600187
0.589357
0.578634
0.568007
0.557468
0.547008
0.53662
0.526297
0.516033
0.505823
0.49566
0.485539
0.475456
0.465405
0.455382
0.445384
0.435405
0.425444
0.415495
0.405564
0.395643
0.38573
0.37582
0.365912
0.356001
0.346087
0.336167
0.326237
0.316296
0.30634
0.296366
0.286369
0.276346
0.26629
0.256195
0.246053
0.235854
0.225587
0.215234
0.204786
0.194223
0.183521
0.172647
0.161561
0.150214
0.138532
0.126435
0.113822
0.100522
0.0862872
0.0707255
0.0531354
0.0318619
0.00580379
0.0563751
0.178038
0.264883
0.337715
0.403204
0.463995
0.52135
0.576205
0.629179
0.680632
0.730793
0.779892
0.828055
0.875397
0.921996
0.967904
1.01316
1.05777
1.10175
1.14509
1.18779
1.22983
1.27119
1.31185
1.35177
1.39093
1.4293
1.46683
1.5035
1.53927
1.57411
1.60797
1.64082
1.67262
1.70335
1.73297
1.76144
1.78874
1.81484
1.8397
1.86331
1.88564
1.90667
1.92638
1.94475
1.96178
1.97745
1.99175
2.00467
2.01622
2.02639
2.03519
2.04262
2.04868
2.05339
2.05677
2.05882
2.05956
2.05902
2.05722
2.05418
2.04995
2.04455
2.03801
2.03035
2.02161
2.0118
2.00099
1.98918
1.97644
1.9628
1.94829
1.93297
1.91686
1.90003
1.88249
1.86431
1.84553
1.82618
1.8063
1.78595
1.76516
1.74398
1.72244
1.70058
1.67845
1.65608
1.6335
1.61077
1.5879
1.56493
1.5419
1.51884
1.49578
1.47274
1.44976
1.42685
1.40405
1.38138
1.35885
1.3365
1.31433
1.29237
1.27063
1.24913
1.22788
1.20689
1.18617
1.16574
1.1456
1.12576
1.10622
1.08699
1.06808
1.04948
1.0312
1.01324
0.995603
0.97828
0.961273
0.944581
0.928198
0.912122
0.896348
0.880871
0.865685
0.850783
0.836159
0.821807
0.807718
0.793884
0.780298
0.76695
0.753833
0.740938
0.728256
0.715777
0.703493
0.691394
0.679471
0.667715
0.656118
0.644669
0.633361
0.622183
0.611127
0.600184
0.589355
0.578632
0.568005
0.557465
0.547005
0.536617
0.526295
0.516031
0.505821
0.495658
0.485537
0.475454
0.465403
0.45538
0.445382
0.435404
0.425442
0.415493
0.405562
0.395642
0.385728
0.375819
0.36591
0.356
0.346086
0.336165
0.326236
0.316295
0.306339
0.296365
0.286368
0.276345
0.266289
0.256194
0.246052
0.235853
0.225586
0.215233
0.204785
0.194223
0.18352
0.172646
0.161561
0.150213
0.138532
0.126435
0.113822
0.100522
0.086287
0.0707253
0.0531353
0.0318618
0.00580378
0.106296
0.267051
0.371967
0.457714
0.534538
0.605749
0.673047
0.737382
0.799386
0.859508
0.918052
0.975248
1.03126
1.08621
1.14019
1.19327
1.24548
1.29686
1.34741
1.39715
1.44607
1.49415
1.54138
1.58773
1.63318
1.67771
1.72127
1.76383
1.80536
1.84583
1.88519
1.92342
1.96046
1.9963
2.03089
2.0642
2.0962
2.12685
2.15613
2.18401
2.21046
2.23546
2.259
2.28104
2.30159
2.32061
2.3381
2.35406
2.36848
2.38135
2.39268
2.40247
2.41072
2.41746
2.42267
2.4264
2.42864
2.42941
2.42876
2.42669
2.42324
2.41843
2.41232
2.40491
2.39625
2.38636
2.3753
2.36308
2.34976
2.33538
2.31998
2.30361
2.2863
2.26812
2.24909
2.22928
2.20872
2.18747
2.16557
2.14307
2.12002
2.09645
2.07243
2.04798
2.02316
1.99801
1.97257
1.94689
1.92099
1.89494
1.86875
1.84247
1.81613
1.78977
1.76342
1.73711
1.71088
1.68474
1.65872
1.63286
1.60717
1.58167
1.55639
1.53135
1.50656
1.48204
1.4578
1.43386
1.41023
1.38692
1.36393
1.34128
1.31897
1.29701
1.2754
1.25414
1.23324
1.21269
1.1925
1.17266
1.15317
1.13403
1.11524
1.09679
1.07867
1.06088
1.04341
1.02625
1.0094
0.992853
0.976592
0.960611
0.944902
0.929453
0.914256
0.8993
0.884575
0.870071
0.855776
0.841681
0.827775
0.814047
0.800487
0.787084
0.773828
0.760707
0.747719
0.734856
0.722108
0.709464
0.696916
0.684454
0.672068
0.659752
0.647498
0.635297
0.623144
0.611032
0.598955
0.586907
0.574883
0.562877
0.550885
0.538902
0.526925
0.514953
0.502981
0.491005
0.47902
0.467022
0.455009
0.442977
0.430922
0.418841
0.40673
0.394584
0.382399
0.370169
0.357888
0.34555
0.333144
0.320662
0.308091
0.295418
0.282624
0.26969
0.256589
0.243295
0.229772
0.215972
0.201834
0.187282
0.17221
0.156494
0.139942
0.122263
0.102964
0.0810139
0.0532773
0.0122633
0.106298
0.267053
0.371967
0.457713
0.534537
0.605748
0.673046
0.73738
0.799384
0.859506
0.91805
0.975246
1.03126
1.08621
1.14019
1.19326
1.24548
1.29685
1.34741
1.39715
1.44606
1.49414
1.54137
1.58773
1.63318
1.6777
1.72126
1.76382
1.80536
1.84582
1.88519
1.92341
1.96046
1.99629
2.03088
2.06419
2.09619
2.12684
2.15612
2.184
2.21045
2.23546
2.25899
2.28104
2.30158
2.3206
2.3381
2.35405
2.36847
2.38134
2.39267
2.40246
2.41072
2.41745
2.42267
2.42639
2.42863
2.42941
2.42875
2.42668
2.42323
2.41843
2.41231
2.4049
2.39624
2.38636
2.37529
2.36307
2.34975
2.33537
2.31997
2.3036
2.28629
2.26811
2.24908
2.22927
2.20872
2.18747
2.16557
2.14307
2.12001
2.09645
2.07242
2.04797
2.02315
1.998
1.97256
1.94688
1.92099
1.89493
1.86874
1.84246
1.81613
1.78977
1.76342
1.73711
1.71087
1.68473
1.65871
1.63285
1.60716
1.58166
1.55639
1.53134
1.50655
1.48203
1.4578
1.43386
1.41022
1.38691
1.36393
1.34127
1.31897
1.297
1.27539
1.25413
1.23323
1.21268
1.19249
1.17265
1.15317
1.13403
1.11524
1.09678
1.07866
1.06087
1.0434
1.02625
1.0094
0.992849
0.976588
0.960607
0.944898
0.929449
0.914252
0.899297
0.884572
0.870067
0.855773
0.841678
0.827772
0.814044
0.800484
0.787081
0.773824
0.760704
0.747716
0.734853
0.722105
0.709462
0.696913
0.684451
0.672066
0.65975
0.647495
0.635295
0.623142
0.61103
0.598953
0.586905
0.57488
0.562875
0.550883
0.5389
0.526923
0.514951
0.502979
0.491003
0.479018
0.467021
0.455008
0.442976
0.430921
0.41884
0.406728
0.394583
0.382397
0.370168
0.357887
0.345548
0.333143
0.320661
0.30809
0.295417
0.282623
0.269689
0.256589
0.243294
0.229771
0.215971
0.201834
0.187281
0.172209
0.156494
0.139942
0.122263
0.102964
0.0810139
0.0532773
0.0122633
0.154165
0.343715
0.461872
0.556512
0.640844
0.719014
0.79302
0.863926
0.932392
0.998859
1.06364
1.12695
1.18896
1.24979
1.30953
1.36824
1.42597
1.48274
1.53857
1.59346
1.64741
1.7004
1.75241
1.80343
1.85342
1.90235
1.95019
1.99691
2.04246
2.08682
2.12993
2.17178
2.21231
2.25149
2.28929
2.32567
2.36059
2.39403
2.42595
2.45632
2.48513
2.51234
2.53794
2.5619
2.58421
2.60486
2.62383
2.64112
2.65673
2.67065
2.68288
2.69343
2.70231
2.70952
2.71508
2.71901
2.72132
2.72204
2.72119
2.7188
2.7149
2.70952
2.7027
2.69448
2.68488
2.67394
2.66171
2.64822
2.63353
2.61767
2.6007
2.58266
2.5636
2.54357
2.52261
2.50079
2.47816
2.45475
2.43063
2.40584
2.38043
2.35446
2.32798
2.30103
2.27366
2.24591
2.21784
2.1895
2.16091
2.13213
2.1032
2.07416
2.04505
2.0159
1.98675
1.95764
1.9286
1.89965
1.87083
1.84217
1.81369
1.78542
1.75738
1.72959
1.70207
1.67484
1.64791
1.62131
1.59503
1.56911
1.54353
1.51833
1.49349
1.46903
1.44496
1.42127
1.39797
1.37506
1.35254
1.3304
1.30865
1.28729
1.2663
1.24569
1.22544
1.20556
1.18603
1.16684
1.148
1.12948
1.11129
1.0934
1.07581
1.05851
1.04149
1.02474
1.00824
0.991982
0.975959
0.960156
0.944562
0.929165
0.913954
0.898916
0.88404
0.869317
0.854742
0.840303
0.82599
0.811792
0.797697
0.783696
0.76978
0.75594
0.742166
0.728451
0.714787
0.701166
0.687582
0.674029
0.660499
0.646989
0.633491
0.620001
0.606516
0.59303
0.579541
0.566043
0.552532
0.539003
0.525452
0.511875
0.498269
0.484627
0.470947
0.457223
0.443449
0.42962
0.415728
0.401766
0.387724
0.373591
0.359354
0.344999
0.330507
0.315856
0.301021
0.28597
0.270664
0.255054
0.239083
0.22267
0.205709
0.188058
0.169519
0.149766
0.128204
0.103471
0.0712203
0.0187675
0.154167
0.343716
0.461871
0.556511
0.640842
0.719012
0.793017
0.863924
0.93239
0.998856
1.06363
1.12694
1.18895
1.24978
1.30952
1.36823
1.42596
1.48274
1.53857
1.59346
1.64741
1.7004
1.75241
1.80342
1.85341
1.90234
1.95019
1.9969
2.04245
2.08681
2.12993
2.17177
2.2123
2.25149
2.28928
2.32566
2.36058
2.39402
2.42594
2.45632
2.48512
2.51233
2.53793
2.56189
2.5842
2.60485
2.62382
2.64112
2.65672
2.67064
2.68288
2.69343
2.7023
2.70952
2.71508
2.719
2.72132
2.72203
2.72118
2.71879
2.71489
2.70951
2.7027
2.69447
2.68487
2.67393
2.6617
2.64821
2.63352
2.61766
2.60069
2.58265
2.56359
2.54356
2.52261
2.50079
2.47815
2.45474
2.43062
2.40583
2.38043
2.35446
2.32797
2.30102
2.27365
2.24591
2.21784
2.18949
2.1609
2.13213
2.1032
2.07416
2.04504
2.0159
1.98675
1.95764
1.92859
1.89964
1.87083
1.84217
1.81369
1.78542
1.75737
1.72958
1.70206
1.67483
1.64791
1.6213
1.59503
1.5691
1.54353
1.51832
1.49349
1.46903
1.44495
1.42127
1.39796
1.37505
1.35253
1.3304
1.30865
1.28728
1.2663
1.24568
1.22544
1.20555
1.18602
1.16684
1.148
1.12948
1.11128
1.0934
1.07581
1.05851
1.04149
1.02473
1.00823
0.991979
0.975955
0.960153
0.944559
0.929162
0.913951
0.898913
0.884037
0.869314
0.854739
0.840301
0.825988
0.811789
0.797695
0.783694
0.769778
0.755937
0.742164
0.728449
0.714784
0.701164
0.68758
0.674027
0.660498
0.646987
0.633489
0.619999
0.606514
0.593028
0.579539
0.566041
0.55253
0.539001
0.525451
0.511874
0.498267
0.484626
0.470946
0.457222
0.443448
0.429619
0.415727
0.401765
0.387723
0.37359
0.359353
0.344998
0.330506
0.315855
0.30102
0.28597
0.270663
0.255054
0.239083
0.22267
0.205709
0.188057
0.169519
0.149766
0.128204
0.103471
0.0712204
0.0187675
0.200441
0.413949
0.543906
0.646262
0.736677
0.820382
0.899683
0.975778
1.04937
1.12092
1.19072
1.25901
1.32593
1.3916
1.45611
1.51951
1.58184
1.64313
1.70338
1.7626
1.82077
1.87789
1.93394
1.98888
2.04268
2.09533
2.14677
2.19697
2.24591
2.29353
2.33979
2.38466
2.42811
2.47008
2.51055
2.54948
2.58682
2.62256
2.65666
2.68909
2.71983
2.74884
2.77611
2.80163
2.82536
2.84731
2.86746
2.88581
2.90234
2.91706
2.92998
2.94109
2.95041
2.95795
2.96371
2.96773
2.97002
2.9706
2.96951
2.96676
2.9624
2.95645
2.94897
2.93997
2.92949
2.91759
2.9043
2.88967
2.87375
2.85657
2.8382
2.81869
2.79808
2.77642
2.75378
2.7302
2.70575
2.68046
2.6544
2.62763
2.60019
2.57213
2.54352
2.5144
2.48483
2.45485
2.42452
2.39388
2.36297
2.33186
2.30057
2.26916
2.23767
2.20613
2.17458
2.14307
2.11162
2.08027
2.04905
2.018
1.98713
1.95649
1.92608
1.89594
1.86609
1.83654
1.80732
1.77844
1.74991
1.72175
1.69397
1.66659
1.63959
1.61301
1.58683
1.56106
1.53572
1.51079
1.48628
1.46218
1.43851
1.41524
1.39238
1.36992
1.34786
1.32619
1.30491
1.28399
1.26344
1.24325
1.2234
1.20389
1.1847
1.16582
1.14724
1.12895
1.11094
1.09319
1.0757
1.05844
1.04141
1.02459
1.00797
0.991541
0.975289
0.959206
0.943283
0.927507
0.911866
0.89635
0.880946
0.865645
0.850435
0.835308
0.820253
0.805263
0.790329
0.775442
0.760595
0.745782
0.730995
0.716229
0.701477
0.686735
0.671996
0.657257
0.642514
0.62776
0.612992
0.598204
0.583391
0.568549
0.553674
0.53876
0.523802
0.508795
0.493733
0.47861
0.463417
0.448147
0.43279
0.417335
0.401769
0.386075
0.370237
0.354232
0.338035
0.321614
0.304929
0.287933
0.270564
0.252742
0.234361
0.215268
0.195246
0.173919
0.15057
0.123499
0.087318
0.0251567
0.200444
0.413949
0.543905
0.64626
0.736674
0.82038
0.899681
0.975775
1.04937
1.12091
1.19072
1.259
1.32593
1.3916
1.45611
1.51951
1.58184
1.64312
1.70337
1.76259
1.82077
1.87789
1.93393
1.98887
2.04268
2.09532
2.14676
2.19697
2.2459
2.29352
2.33979
2.38466
2.4281
2.47008
2.51054
2.54947
2.58682
2.62256
2.65666
2.68909
2.71982
2.74883
2.77611
2.80162
2.82536
2.84731
2.86746
2.8858
2.90233
2.91706
2.92997
2.94109
2.9504
2.95794
2.96371
2.96773
2.97001
2.9706
2.9695
2.96675
2.96239
2.95645
2.94896
2.93996
2.92949
2.91759
2.9043
2.88967
2.87374
2.85657
2.8382
2.81868
2.79807
2.77642
2.75377
2.7302
2.70574
2.68046
2.6544
2.62762
2.60018
2.57213
2.54352
2.5144
2.48482
2.45485
2.42451
2.39387
2.36297
2.33185
2.30057
2.26916
2.23766
2.20612
2.17458
2.14306
2.11161
2.08026
2.04905
2.01799
1.98713
1.95648
1.92608
1.89594
1.86608
1.83654
1.80732
1.77843
1.74991
1.72175
1.69397
1.66658
1.63959
1.613
1.58682
1.56106
1.53571
1.51078
1.48627
1.46218
1.4385
1.41524
1.39238
1.36992
1.34786
1.32619
1.3049
1.28399
1.26344
1.24325
1.2234
1.20388
1.18469
1.16582
1.14724
1.12895
1.11094
1.09319
1.07569
1.05843
1.0414
1.02458
1.00797
0.991539
0.975286
0.959204
0.94328
0.927504
0.911864
0.896348
0.880944
0.865643
0.850433
0.835306
0.820252
0.805261
0.790327
0.77544
0.760594
0.74578
0.730994
0.716228
0.701476
0.686733
0.671995
0.657256
0.642513
0.627759
0.612991
0.598203
0.58339
0.568548
0.553673
0.538758
0.523801
0.508794
0.493732
0.478609
0.463416
0.448146
0.432789
0.417334
0.401768
0.386075
0.370236
0.354232
0.338034
0.321613
0.304929
0.287933
0.270564
0.252741
0.234361
0.215268
0.195245
0.173919
0.15057
0.123499
0.0873183
0.0251567
0.245957
0.480085
0.621047
0.730746
0.826871
0.915573
0.999536
1.08013
1.15815
1.23406
1.3082
1.38078
1.45194
1.52181
1.59046
1.65793
1.72427
1.78949
1.85359
1.91657
1.97843
2.03914
2.09868
2.15702
2.21414
2.26998
2.32453
2.37774
2.42957
2.47999
2.52894
2.5764
2.62231
2.66665
2.70937
2.75044
2.78982
2.82748
2.86338
2.89751
2.92983
2.96031
2.98895
3.01571
3.04059
3.06357
3.08464
3.1038
3.12104
3.13637
3.14978
3.16128
3.17089
3.17861
3.18447
3.18847
3.19065
3.19103
3.18964
3.18651
3.18167
3.17516
3.16702
3.15728
3.14599
3.13319
3.11893
3.10325
3.0862
3.06784
3.04821
3.02737
3.00537
2.98228
2.95813
2.933
2.90693
2.87999
2.85222
2.8237
2.79447
2.76459
2.73411
2.70309
2.67159
2.63965
2.60734
2.57469
2.54176
2.5086
2.47526
2.44178
2.4082
2.37457
2.34093
2.30731
2.27376
2.24031
2.207
2.17385
2.1409
2.10818
2.0757
2.0435
2.01161
1.98003
1.94879
1.91791
1.88741
1.85729
1.82757
1.79826
1.76937
1.7409
1.71287
1.68528
1.65812
1.63141
1.60514
1.57931
1.55393
1.52897
1.50446
1.48036
1.45669
1.43343
1.41058
1.38813
1.36606
1.34437
1.32305
1.30208
1.28146
1.26117
1.2412
1.22154
1.20217
1.18308
1.16426
1.1457
1.12738
1.10928
1.0914
1.07373
1.05624
1.03893
1.0218
1.00482
0.98799
0.97129
0.954712
0.938244
0.921875
0.905595
0.889395
0.873264
0.857194
0.841177
0.825205
0.80927
0.793365
0.777484
0.76162
0.745767
0.72992
0.714075
0.698225
0.682366
0.666493
0.650599
0.634681
0.618732
0.602749
0.586724
0.570654
0.554533
0.538353
0.522109
0.505792
0.489394
0.472905
0.456313
0.439606
0.422769
0.405783
0.388626
0.371275
0.353696
0.335852
0.317694
0.29916
0.280168
0.260604
0.240304
0.219016
0.196313
0.171341
0.142085
0.102258
0.0314674
0.245959
0.480085
0.621046
0.730743
0.826868
0.91557
0.999533
1.08013
1.15814
1.23406
1.3082
1.38077
1.45194
1.52181
1.59046
1.65793
1.72427
1.78948
1.85358
1.91657
1.97843
2.03914
2.09868
2.15702
2.21413
2.26998
2.32453
2.37774
2.42957
2.47998
2.52894
2.57639
2.62231
2.66664
2.70936
2.75043
2.78981
2.82747
2.86338
2.8975
2.92982
2.96031
2.98894
3.01571
3.04059
3.06357
3.08464
3.1038
3.12104
3.13636
3.14977
3.16127
3.17088
3.1786
3.18446
3.18847
3.19065
3.19103
3.18964
3.1865
3.18166
3.17515
3.16701
3.15728
3.14599
3.13319
3.11892
3.10324
3.0862
3.06783
3.0482
3.02736
3.00537
2.98227
2.95812
2.93299
2.90692
2.87998
2.85222
2.82369
2.79446
2.76458
2.7341
2.70309
2.67158
2.63965
2.60733
2.57468
2.54176
2.5086
2.47525
2.44177
2.40819
2.37456
2.34092
2.30731
2.27376
2.24031
2.207
2.17385
2.1409
2.10817
2.0757
2.0435
2.0116
1.98003
1.94879
1.91791
1.8874
1.85728
1.82756
1.79825
1.76936
1.7409
1.71287
1.68527
1.65812
1.63141
1.60514
1.57931
1.55392
1.52897
1.50445
1.48036
1.45669
1.43343
1.41058
1.38813
1.36606
1.34437
1.32305
1.30208
1.28146
1.26117
1.2412
1.22154
1.20217
1.18308
1.16426
1.1457
1.12738
1.10928
1.0914
1.07372
1.05624
1.03893
1.0218
1.00482
0.987988
0.971289
0.95471
0.938242
0.921873
0.905594
0.889393
0.873262
0.857193
0.841176
0.825204
0.809269
0.793364
0.777482
0.761618
0.745766
0.729919
0.714073
0.698224
0.682365
0.666492
0.650598
0.63468
0.618731
0.602748
0.586724
0.570654
0.554532
0.538352
0.522108
0.505791
0.489393
0.472904
0.456312
0.439606
0.422768
0.405782
0.388626
0.371274
0.353695
0.335851
0.317694
0.29916
0.280168
0.260604
0.240304
0.219016
0.196313
0.171341
0.142085
0.102259
0.0314675
0.290907
0.543347
0.694952
0.811856
0.913607
1.00713
1.0955
1.18028
1.26234
1.34224
1.4203
1.49675
1.57175
1.6454
1.71777
1.78891
1.85884
1.92758
1.99514
2.06149
2.12664
2.19055
2.2532
2.31456
2.3746
2.43328
2.49056
2.5464
2.60077
2.65361
2.7049
2.75458
2.80262
2.84898
2.89362
2.9365
2.9776
3.01686
3.05428
3.08981
3.12343
3.15511
3.18485
3.21261
3.23839
3.26218
3.28395
3.30372
3.32148
3.33723
3.35097
3.36272
3.37248
3.38027
3.3861
3.39001
3.392
3.39212
3.39038
3.38683
3.38149
3.37441
3.36562
3.35517
3.3431
3.32945
3.31427
3.29762
3.27954
3.26008
3.2393
3.21726
3.19401
3.1696
3.14411
3.11757
3.09007
3.06164
3.03236
3.00227
2.97145
2.93994
2.90781
2.87511
2.84189
2.80822
2.77415
2.73973
2.70501
2.67004
2.63487
2.59955
2.56413
2.52865
2.49315
2.45767
2.42226
2.38695
2.35177
2.31676
2.28196
2.24738
2.21306
2.17903
2.14531
2.11192
2.07888
2.04621
2.01393
1.98205
1.95059
1.91956
1.88896
1.8588
1.8291
1.79985
1.77107
1.74274
1.71488
1.68748
1.66054
1.63406
1.60803
1.58244
1.5573
1.53259
1.50831
1.48444
1.46098
1.43792
1.41524
1.39294
1.371
1.34941
1.32815
1.30722
1.28659
1.26627
1.24622
1.22645
1.20693
1.18765
1.16859
1.14975
1.13112
1.11267
1.09441
1.07631
1.05837
1.04057
1.0229
1.00534
0.987892
0.970539
0.953272
0.936081
0.918956
0.90189
0.884873
0.867899
0.850959
0.834046
0.817155
0.800278
0.783411
0.766546
0.749681
0.732808
0.715922
0.699017
0.682089
0.66513
0.648137
0.631103
0.614023
0.59689
0.579698
0.56244
0.545107
0.527691
0.510182
0.492569
0.474838
0.456975
0.438962
0.420777
0.402395
0.383786
0.36491
0.345719
0.326148
0.306111
0.285485
0.264089
0.241635
0.217628
0.191087
0.159709
0.116419
0.0377432
0.290909
0.543347
0.69495
0.811854
0.913604
1.00713
1.0955
1.18027
1.26234
1.34223
1.42029
1.49674
1.57174
1.64539
1.71776
1.7889
1.85884
1.92758
1.99513
2.06149
2.12663
2.19054
2.2532
2.31456
2.3746
2.43327
2.49055
2.5464
2.60076
2.65361
2.70489
2.75458
2.80262
2.84898
2.89361
2.9365
2.97759
3.01686
3.05427
3.0898
3.12342
3.15511
3.18484
3.21261
3.23839
3.26217
3.28395
3.30372
3.32148
3.33722
3.35097
3.36271
3.37247
3.38026
3.3861
3.39
3.392
3.39211
3.39038
3.38682
3.38148
3.3744
3.36562
3.35517
3.34309
3.32944
3.31427
3.29761
3.27953
3.26007
3.2393
3.21725
3.194
3.1696
3.1441
3.11757
3.09006
3.06164
3.03235
3.00227
2.97144
2.93994
2.9078
2.8751
2.84189
2.80822
2.77415
2.73972
2.705
2.67003
2.63487
2.59955
2.56413
2.52865
2.49315
2.45767
2.42226
2.38694
2.35177
2.31676
2.28195
2.24738
2.21306
2.17903
2.14531
2.11191
2.07888
2.04621
2.01393
1.98205
1.95059
1.91955
1.88895
1.8588
1.8291
1.79985
1.77106
1.74274
1.71488
1.68748
1.66054
1.63405
1.60802
1.58244
1.5573
1.53259
1.50831
1.48444
1.46098
1.43792
1.41524
1.39294
1.371
1.3494
1.32815
1.30721
1.28659
1.26627
1.24622
1.22644
1.20692
1.18764
1.16859
1.14975
1.13111
1.11267
1.09441
1.07631
1.05837
1.04057
1.02289
1.00534
0.987891
0.970538
0.953271
0.936079
0.918955
0.901889
0.884872
0.867898
0.850957
0.834045
0.817154
0.800277
0.78341
0.766545
0.74968
0.732807
0.715921
0.699017
0.682088
0.66513
0.648136
0.631103
0.614022
0.596889
0.579697
0.562439
0.545106
0.52769
0.510182
0.492568
0.474838
0.456975
0.438961
0.420776
0.402395
0.383786
0.36491
0.345719
0.326148
0.306111
0.285485
0.264089
0.241635
0.217628
0.191087
0.159709
0.11642
0.0377433
0.335466
0.604673
0.766594
0.890697
0.998105
1.09645
1.18915
1.27798
1.36393
1.44759
1.52934
1.60942
1.68798
1.76514
1.84097
1.91549
1.98874
2.06073
2.13145
2.20089
2.26903
2.33586
2.40133
2.46542
2.5281
2.58931
2.64904
2.70722
2.76383
2.81882
2.87215
2.92378
2.97367
3.02177
3.06806
3.11249
3.15503
3.19565
3.23431
3.271
3.30568
3.33834
3.36895
3.3975
3.42397
3.44836
3.47066
3.49087
3.50897
3.52499
3.53892
3.55078
3.56057
3.56832
3.57404
3.57775
3.57949
3.57928
3.57715
3.57313
3.56728
3.55961
3.55018
3.53902
3.52619
3.51173
3.49568
3.47811
3.45906
3.43858
3.41674
3.39359
3.36919
3.3436
3.31687
3.28907
3.26026
3.23049
3.19984
3.16835
3.1361
3.10313
3.06951
3.03531
3.00056
2.96534
2.92969
2.89368
2.85736
2.82077
2.78398
2.74702
2.70995
2.67281
2.63564
2.5985
2.56141
2.52443
2.48758
2.4509
2.41442
2.37817
2.3422
2.30651
2.27114
2.2361
2.20143
2.16714
2.13325
2.09978
2.06673
2.03412
2.00196
1.97026
1.93902
1.90826
1.87797
1.84817
1.81884
1.78998
1.76161
1.73371
1.70627
1.67931
1.6528
1.62674
1.60112
1.57593
1.55117
1.52682
1.50287
1.47931
1.45612
1.4333
1.41083
1.38869
1.36688
1.34538
1.32417
1.30325
1.28258
1.26217
1.242
1.22206
1.20232
1.1828
1.16345
1.14429
1.12528
1.10643
1.08771
1.06911
1.05063
1.03225
1.01397
0.995763
0.977632
0.959564
0.941552
0.923587
0.905662
0.887769
0.869902
0.852054
0.834219
0.816391
0.798565
0.780735
0.762894
0.745037
0.727158
0.709252
0.691311
0.673331
0.655305
0.637227
0.61909
0.600885
0.582606
0.564243
0.545786
0.527223
0.508543
0.489728
0.470763
0.451626
0.432291
0.412727
0.392895
0.372743
0.352204
0.331186
0.309554
0.287107
0.263521
0.238231
0.210136
0.176665
0.13004
0.0440208
0.335469
0.604673
0.766592
0.890694
0.998102
1.09644
1.18915
1.27797
1.36392
1.44759
1.52934
1.60941
1.68798
1.76514
1.84096
1.91549
1.98874
2.06072
2.13144
2.20088
2.26903
2.33585
2.40133
2.46542
2.52809
2.58931
2.64903
2.70722
2.76383
2.81882
2.87215
2.92378
2.97366
3.02177
3.06805
3.11248
3.15502
3.19564
3.23431
3.27099
3.30568
3.33833
3.36894
3.39749
3.42397
3.44836
3.47066
3.49086
3.50897
3.52499
3.53892
3.55077
3.56057
3.56831
3.57403
3.57775
3.57948
3.57927
3.57714
3.57313
3.56727
3.5596
3.55017
3.53902
3.52619
3.51172
3.49568
3.4781
3.45905
3.43858
3.41674
3.39359
3.36919
3.34359
3.31687
3.28907
3.26025
3.23049
3.19983
3.16835
3.13609
3.10313
3.06951
3.0353
3.00056
2.96533
2.92969
2.89368
2.85736
2.82077
2.78397
2.74702
2.70994
2.6728
2.63564
2.5985
2.56141
2.52442
2.48757
2.45089
2.41441
2.37817
2.34219
2.3065
2.27113
2.2361
2.20143
2.16714
2.13325
2.09977
2.06672
2.03411
2.00195
1.97025
1.93902
1.90826
1.87797
1.84816
1.81883
1.78998
1.76161
1.7337
1.70627
1.6793
1.65279
1.62673
1.60111
1.57593
1.55117
1.52681
1.50286
1.4793
1.45612
1.4333
1.41083
1.38869
1.36688
1.34538
1.32417
1.30324
1.28258
1.26217
1.242
1.22205
1.20232
1.18279
1.16345
1.14429
1.12528
1.10643
1.08771
1.06911
1.05063
1.03225
1.01397
0.995762
0.977631
0.959563
0.941551
0.923586
0.905661
0.887768
0.869901
0.852053
0.834218
0.81639
0.798564
0.780734
0.762893
0.745037
0.727158
0.709251
0.691311
0.673331
0.655305
0.637227
0.619089
0.600885
0.582606
0.564243
0.545785
0.527223
0.508542
0.489728
0.470763
0.451626
0.432291
0.412727
0.392895
0.372743
0.352204
0.331186
0.309554
0.287107
0.263521
0.238231
0.210136
0.176666
0.130041
0.0440209
0.379937
0.664763
0.836694
0.968022
1.08117
1.18439
1.28145
1.37432
1.46409
1.55143
1.63675
1.72032
1.8023
1.8828
1.96189
2.03961
2.11598
2.19101
2.26469
2.33701
2.40794
2.47746
2.54553
2.61213
2.67721
2.74074
2.80268
2.86298
2.9216
2.9785
3.03365
3.08699
3.13849
3.18811
3.23581
3.28156
3.32533
3.36708
3.40678
3.44441
3.47995
3.51338
3.54467
3.57382
3.60081
3.62564
3.64829
3.66877
3.68708
3.70323
3.71722
3.72906
3.73878
3.74638
3.7519
3.75534
3.75675
3.75615
3.75358
3.74907
3.74266
3.7344
3.72431
3.71246
3.69888
3.68362
3.66675
3.64829
3.62833
3.6069
3.58406
3.55988
3.53442
3.50772
3.47987
3.45091
3.4209
3.38992
3.35802
3.32526
3.29171
3.25743
3.22247
3.1869
3.15077
3.11415
3.0771
3.03965
3.00189
2.96384
2.92558
2.88714
2.84858
2.80995
2.77128
2.73263
2.69403
2.65553
2.61716
2.57896
2.54097
2.50321
2.46572
2.42852
2.39165
2.35511
2.31895
2.28317
2.2478
2.21285
2.17834
2.14428
2.11068
2.07755
2.04489
2.01272
1.98104
1.94985
1.91915
1.88894
1.85922
1.82998
1.80123
1.77296
1.74516
1.71782
1.69093
1.66449
1.63849
1.61291
1.58775
1.56299
1.53861
1.51461
1.49098
1.46769
1.44473
1.4221
1.39977
1.37772
1.35596
1.33446
1.3132
1.29218
1.27138
1.2508
1.23041
1.2102
1.19016
1.17028
1.15054
1.13093
1.11145
1.09207
1.07279
1.0536
1.03449
1.01545
0.99647
0.977543
0.958661
0.939818
0.921005
0.902216
0.883446
0.864687
0.845934
0.82718
0.80842
0.789647
0.770855
0.752038
0.733189
0.714303
0.695372
0.67639
0.657349
0.638242
0.61906
0.599794
0.580433
0.560967
0.541382
0.521663
0.501791
0.481747
0.461503
0.441028
0.42028
0.399206
0.377733
0.355761
0.333142
0.309653
0.284934
0.258354
0.228695
0.193149
0.143291
0.0503349
0.379939
0.664762
0.836692
0.968019
1.08116
1.18439
1.28145
1.37432
1.46409
1.55143
1.63675
1.72032
1.80229
1.88279
1.96188
2.0396
2.11598
2.19101
2.26469
2.337
2.40793
2.47745
2.54553
2.61213
2.67721
2.74074
2.80267
2.86297
2.9216
2.9785
3.03364
3.08698
3.13848
3.1881
3.23581
3.28156
3.32532
3.36707
3.40678
3.44441
3.47995
3.51338
3.54467
3.57382
3.60081
3.62563
3.64828
3.66877
3.68708
3.70322
3.71721
3.72906
3.73877
3.74638
3.75189
3.75534
3.75675
3.75615
3.75358
3.74907
3.74266
3.73439
3.72431
3.71245
3.69887
3.68362
3.66674
3.64829
3.62832
3.60689
3.58406
3.55988
3.53441
3.50772
3.47986
3.4509
3.4209
3.38992
3.35802
3.32526
3.29171
3.25742
3.22247
3.18689
3.15077
3.11415
3.07709
3.03965
3.00188
2.96384
2.92557
2.88714
2.84858
2.80994
2.77128
2.73262
2.69403
2.65553
2.61716
2.57896
2.54097
2.50321
2.46572
2.42852
2.39164
2.35511
2.31895
2.28317
2.2478
2.21285
2.17834
2.14428
2.11068
2.07754
2.04489
2.01272
1.98104
1.94985
1.91914
1.88893
1.85921
1.82998
1.80123
1.77296
1.74515
1.71781
1.69093
1.66449
1.63849
1.61291
1.58775
1.56299
1.53861
1.51461
1.49097
1.46769
1.44473
1.42209
1.39976
1.37772
1.35596
1.33446
1.3132
1.29218
1.27138
1.2508
1.23041
1.2102