/*--------------------------------*- C++ -*----------------------------------*\
  =========                 |
  \\      /  F ield         | OpenFOAM: The Open Source CFD Toolbox
   \\    /   O peration     | Website:  https://openfoam.org
    \\  /    A nd           | Version:  8
     \\/     M anipulation  |
\*---------------------------------------------------------------------------*/
FoamFile
{
    version     2.0;
    format      ascii;
    class       volScalarField;
    location    "3400";
    object      nut;
}
// * * * * * * * * * * * * * * * * * * * * * * * * * * * * * * * * * * * * * //

dimensions      [0 2 -1 0 0 0 0];

internalField   nonuniform List<scalar> 
46000
(
9.89097e-07
4.26538e-06
7.92952e-06
1.13363e-05
1.45498e-05
1.76552e-05
2.06906e-05
2.36638e-05
2.65922e-05
2.94869e-05
3.23592e-05
3.52144e-05
3.80391e-05
4.0844e-05
4.36316e-05
4.64021e-05
4.91549e-05
5.18887e-05
5.46019e-05
5.72925e-05
5.99583e-05
6.25966e-05
6.52049e-05
6.77802e-05
7.03195e-05
7.28199e-05
7.52782e-05
7.76912e-05
8.00557e-05
8.23687e-05
8.46269e-05
8.68272e-05
8.89667e-05
9.10423e-05
9.30511e-05
9.49905e-05
9.68577e-05
9.86503e-05
0.000100366
0.000102002
0.000103557
0.000105029
0.000106416
0.000107716
0.000108929
0.000110052
0.000111086
0.000112029
0.000112881
0.000113641
0.00011431
0.000114887
0.000115372
0.000115767
0.000116072
0.000116287
0.000116414
0.000116454
0.000116408
0.000116279
0.000116067
0.000115777
0.000115413
0.000114974
0.00011446
0.000113875
0.00011322
0.000112498
0.000111711
0.000110863
0.000109957
0.000108994
0.000107978
0.000106912
0.000105799
0.000104642
0.000103444
0.000102208
0.000100936
9.9632e-05
9.82988e-05
9.69392e-05
9.5556e-05
9.4152e-05
9.27299e-05
9.12924e-05
8.98421e-05
8.83815e-05
8.69131e-05
8.54391e-05
8.39619e-05
8.24836e-05
8.10063e-05
7.9532e-05
7.80625e-05
7.65998e-05
7.51453e-05
7.37008e-05
7.22677e-05
7.08473e-05
6.9441e-05
6.805e-05
6.66752e-05
6.53178e-05
6.39786e-05
6.26583e-05
6.13578e-05
6.00775e-05
5.88181e-05
5.758e-05
5.63635e-05
5.5169e-05
5.39967e-05
5.28466e-05
5.1719e-05
5.06137e-05
4.95308e-05
4.84702e-05
4.74317e-05
4.6415e-05
4.542e-05
4.44464e-05
4.34938e-05
4.25618e-05
4.16501e-05
4.07581e-05
3.98856e-05
3.90318e-05
3.81965e-05
3.73789e-05
3.65787e-05
3.57952e-05
3.50279e-05
3.42762e-05
3.35395e-05
3.28173e-05
3.21089e-05
3.14139e-05
3.07316e-05
3.00615e-05
2.9403e-05
2.87556e-05
2.81187e-05
2.74918e-05
2.68744e-05
2.62659e-05
2.5666e-05
2.50738e-05
2.44899e-05
2.39139e-05
2.33449e-05
2.27825e-05
2.22263e-05
2.16759e-05
2.11312e-05
2.05917e-05
2.00572e-05
1.95275e-05
1.90023e-05
1.84815e-05
1.79648e-05
1.74522e-05
1.69434e-05
1.64384e-05
1.5938e-05
1.54423e-05
1.49503e-05
1.44619e-05
1.39769e-05
1.34953e-05
1.30171e-05
1.25423e-05
1.20709e-05
1.16029e-05
1.11383e-05
1.0677e-05
1.02191e-05
9.7645e-06
9.31322e-06
8.86518e-06
8.42026e-06
7.97791e-06
7.53867e-06
7.10244e-06
6.66859e-06
6.23703e-06
5.8074e-06
5.37919e-06
4.95183e-06
4.52453e-06
4.09628e-06
3.66658e-06
3.23541e-06
2.7994e-06
2.35553e-06
1.90005e-06
1.42838e-06
9.37124e-07
4.42913e-07
8.49988e-08
9.89164e-07
4.26556e-06
7.92971e-06
1.13365e-05
1.455e-05
1.76554e-05
2.06907e-05
2.3664e-05
2.65923e-05
2.9487e-05
3.23593e-05
3.52146e-05
3.80392e-05
4.08441e-05
4.36317e-05
4.64022e-05
4.9155e-05
5.18888e-05
5.4602e-05
5.72926e-05
5.99583e-05
6.25966e-05
6.52049e-05
6.77802e-05
7.03195e-05
7.28199e-05
7.52781e-05
7.76911e-05
8.00557e-05
8.23686e-05
8.46268e-05
8.68271e-05
8.89666e-05
9.10422e-05
9.3051e-05
9.49904e-05
9.68576e-05
9.86502e-05
0.000100366
0.000102002
0.000103557
0.000105029
0.000106416
0.000107716
0.000108928
0.000110052
0.000111086
0.000112029
0.000112881
0.000113641
0.00011431
0.000114887
0.000115372
0.000115767
0.000116072
0.000116287
0.000116414
0.000116454
0.000116408
0.000116278
0.000116067
0.000115777
0.000115413
0.000114973
0.00011446
0.000113874
0.000113219
0.000112498
0.000111711
0.000110863
0.000109957
0.000108994
0.000107978
0.000106912
0.000105799
0.000104642
0.000103444
0.000102207
0.000100936
9.96318e-05
9.82986e-05
9.6939e-05
9.55558e-05
9.41518e-05
9.27297e-05
9.12922e-05
8.98419e-05
8.83813e-05
8.69129e-05
8.54389e-05
8.39617e-05
8.24834e-05
8.10061e-05
7.95318e-05
7.80624e-05
7.65996e-05
7.51452e-05
7.37006e-05
7.22675e-05
7.08472e-05
6.94409e-05
6.80498e-05
6.66751e-05
6.53177e-05
6.39784e-05
6.26582e-05
6.13576e-05
6.00774e-05
5.8818e-05
5.75799e-05
5.63634e-05
5.51689e-05
5.39965e-05
5.28465e-05
5.17188e-05
5.06136e-05
4.95307e-05
4.84701e-05
4.74315e-05
4.64149e-05
4.54199e-05
4.44463e-05
4.34937e-05
4.25617e-05
4.165e-05
4.0758e-05
3.98855e-05
3.90317e-05
3.81964e-05
3.73789e-05
3.65786e-05
3.57951e-05
3.50278e-05
3.42761e-05
3.35394e-05
3.28172e-05
3.21088e-05
3.14138e-05
3.07315e-05
3.00614e-05
2.94029e-05
2.87555e-05
2.81186e-05
2.74917e-05
2.68743e-05
2.62659e-05
2.56659e-05
2.50738e-05
2.44899e-05
2.39138e-05
2.33448e-05
2.27824e-05
2.22262e-05
2.16759e-05
2.11311e-05
2.05916e-05
2.00572e-05
1.95274e-05
1.90023e-05
1.84815e-05
1.79648e-05
1.74522e-05
1.69434e-05
1.64384e-05
1.5938e-05
1.54423e-05
1.49503e-05
1.44618e-05
1.39768e-05
1.34953e-05
1.30171e-05
1.25423e-05
1.20709e-05
1.16029e-05
1.11383e-05
1.0677e-05
1.02191e-05
9.76448e-06
9.3132e-06
8.86516e-06
8.42025e-06
7.9779e-06
7.53866e-06
7.10243e-06
6.66858e-06
6.23703e-06
5.80739e-06
5.37919e-06
4.95183e-06
4.52453e-06
4.09628e-06
3.66659e-06
3.23542e-06
2.79941e-06
2.35554e-06
1.90006e-06
1.42839e-06
9.37134e-07
4.42919e-07
8.50007e-08
3.8871e-06
4.54483e-05
7.85385e-05
0.000101262
0.000118766
0.000133219
0.000145603
0.000156649
0.000166747
0.000176129
0.000184942
0.000193298
0.000201285
0.00020895
0.000216333
0.000223462
0.000230361
0.000237048
0.000243539
0.000249843
0.00025597
0.000261926
0.000267717
0.000273347
0.000278818
0.000284133
0.000289293
0.000294299
0.000299151
0.000303848
0.000308392
0.000312781
0.000317014
0.00032109
0.00032501
0.00032877
0.000332372
0.000335813
0.000339093
0.000342211
0.000345166
0.000347957
0.000350584
0.000353047
0.000355344
0.000357477
0.000359445
0.000361248
0.000362887
0.000364363
0.000365675
0.000366826
0.000367815
0.000368646
0.000369318
0.000369834
0.000370196
0.000370405
0.000370464
0.000370374
0.000370139
0.000369758
0.000369233
0.000368569
0.000367772
0.000366845
0.000365792
0.000364617
0.000363324
0.000361916
0.000360397
0.000358773
0.000357046
0.00035522
0.000353301
0.000351292
0.000349198
0.000347022
0.00034477
0.000342445
0.000340051
0.000337594
0.000335076
0.000332504
0.000329879
0.000327207
0.000324492
0.000321738
0.000318948
0.000316127
0.000313278
0.000310405
0.000307511
0.0003046
0.000301676
0.00029874
0.000295798
0.000292851
0.000289903
0.000286956
0.000284012
0.000281076
0.000278148
0.000275231
0.000272328
0.00026944
0.000266569
0.000263717
0.000260885
0.000258075
0.000255288
0.000252526
0.000249789
0.000247079
0.000244396
0.00024174
0.000239113
0.000236515
0.000233947
0.000231407
0.000228897
0.000226417
0.000223966
0.000221544
0.000219151
0.000216786
0.000214449
0.00021214
0.000209857
0.0002076
0.000205368
0.000203161
0.000200977
0.000198815
0.000196674
0.000194554
0.000192452
0.000190369
0.000188302
0.00018625
0.000184213
0.000182189
0.000180176
0.000178174
0.000176181
0.000174195
0.000172217
0.000170246
0.000168278
0.000166313
0.00016435
0.000162387
0.000160423
0.000158456
0.000156487
0.000154513
0.000152533
0.000150547
0.000148553
0.000146549
0.000144536
0.00014251
0.000140472
0.000138417
0.000136338
0.000134241
0.000132126
0.000129993
0.00012784
0.000125666
0.000123471
0.000121253
0.000119009
0.000116739
0.000114441
0.000112111
0.000109749
0.00010735
0.000104912
0.000102431
9.99024e-05
9.73223e-05
9.46829e-05
9.19758e-05
8.9192e-05
8.63208e-05
8.33481e-05
8.02564e-05
7.70236e-05
7.36196e-05
7.00018e-05
6.61007e-05
6.18314e-05
5.7121e-05
5.18082e-05
4.56317e-05
3.81177e-05
2.82863e-05
1.40214e-05
3.97413e-07
3.88723e-06
4.54503e-05
7.85414e-05
0.000101265
0.00011877
0.000133222
0.000145607
0.000156653
0.000166751
0.000176132
0.000184945
0.000193302
0.000201289
0.000208954
0.000216337
0.000223466
0.000230365
0.000237053
0.000243543
0.000249847
0.000255974
0.000261931
0.000267722
0.000273352
0.000278823
0.000284138
0.000289298
0.000294304
0.000299156
0.000303853
0.000308397
0.000312786
0.000317019
0.000321096
0.000325015
0.000328776
0.000332377
0.000335819
0.000339098
0.000342216
0.000345171
0.000347962
0.00035059
0.000353052
0.00035535
0.000357483
0.000359451
0.000361254
0.000362893
0.000364368
0.000365681
0.000366831
0.000367821
0.000368651
0.000369324
0.00036984
0.000370201
0.000370411
0.000370469
0.00037038
0.000370144
0.000369764
0.000369238
0.000368575
0.000367777
0.00036685
0.000365798
0.000364622
0.000363329
0.000361921
0.000360403
0.000358778
0.000357051
0.000355225
0.000353306
0.000351297
0.000349203
0.000347027
0.000344775
0.000342449
0.000340056
0.000337598
0.000335081
0.000332508
0.000329884
0.000327212
0.000324497
0.000321742
0.000318953
0.000316131
0.000313282
0.000310409
0.000307515
0.000304604
0.00030168
0.000298744
0.000295802
0.000292855
0.000289906
0.000286959
0.000284016
0.000281079
0.000278152
0.000275235
0.000272331
0.000269443
0.000266572
0.00026372
0.000260888
0.000258078
0.000255291
0.000252529
0.000249792
0.000247082
0.000244398
0.000241743
0.000239116
0.000236518
0.000233949
0.00023141
0.0002289
0.000226419
0.000223968
0.000221546
0.000219153
0.000216788
0.000214451
0.000212142
0.000209859
0.000207602
0.00020537
0.000203163
0.000200979
0.000198817
0.000196676
0.000194555
0.000192454
0.00019037
0.000188303
0.000186252
0.000184215
0.00018219
0.000180177
0.000178175
0.000176182
0.000174197
0.000172218
0.000170247
0.00016828
0.000166315
0.000164351
0.000162388
0.000160424
0.000158457
0.000156488
0.000154514
0.000152534
0.000150548
0.000148553
0.00014655
0.000144536
0.000142511
0.000140472
0.000138417
0.000136339
0.000134242
0.000132127
0.000129994
0.000127841
0.000125667
0.000123472
0.000121253
0.00011901
0.00011674
0.000114441
0.000112112
0.000109749
0.000107351
0.000104913
0.000102431
9.9903e-05
9.73228e-05
9.46834e-05
9.19763e-05
8.91925e-05
8.63214e-05
8.33486e-05
8.02569e-05
7.70241e-05
7.362e-05
7.00022e-05
6.61009e-05
6.18317e-05
5.71212e-05
5.18084e-05
4.56318e-05
3.81178e-05
2.82863e-05
1.40213e-05
3.97412e-07
7.36562e-06
7.60018e-05
0.000143735
0.000194221
0.000233283
0.000264825
0.000291288
0.000314199
0.000334526
0.000352905
0.000369769
0.000385417
0.00040007
0.000413884
0.000426974
0.00043943
0.000451322
0.000462707
0.000473629
0.000484125
0.000494223
0.000503948
0.00051332
0.000522355
0.000531068
0.00053947
0.00054757
0.000555376
0.000562897
0.000570136
0.0005771
0.000583791
0.000590215
0.000596374
0.000602271
0.000607908
0.000613288
0.000618411
0.000623281
0.000627898
0.000632265
0.000636382
0.000640252
0.000643877
0.000647257
0.000650394
0.000653291
0.000655948
0.000658369
0.000660555
0.000662508
0.00066423
0.000665725
0.000666995
0.000668041
0.000668868
0.000669478
0.000669873
0.000670056
0.000670031
0.000669799
0.000669362
0.00066872
0.000667882
0.000666854
0.000665642
0.000664251
0.000662688
0.000660956
0.000659061
0.000657008
0.000654802
0.000652448
0.000649951
0.000647317
0.00064455
0.000641657
0.000638642
0.000635512
0.00063227
0.000628923
0.000625476
0.000621934
0.000618303
0.000614588
0.000610794
0.000606926
0.000602991
0.000598992
0.000594934
0.000590824
0.000586665
0.000582462
0.00057822
0.000573944
0.000569638
0.000565307
0.000560954
0.000556583
0.0005522
0.000547806
0.000543407
0.000539005
0.000534604
0.000530206
0.000525816
0.000521436
0.000517068
0.000512716
0.00050838
0.000504064
0.00049977
0.000495498
0.000491252
0.000487032
0.000482839
0.000478675
0.00047454
0.000470436
0.000466362
0.00046232
0.000458309
0.000454329
0.00045038
0.000446463
0.000442576
0.000438719
0.000434891
0.000431092
0.00042732
0.000423575
0.000419855
0.00041616
0.000412486
0.000408834
0.000405201
0.000401586
0.000397988
0.000394403
0.000390831
0.00038727
0.000383717
0.000380171
0.00037663
0.000373093
0.000369556
0.000366021
0.000362483
0.000358938
0.000355386
0.000351823
0.000348249
0.000344661
0.000341057
0.000337435
0.000333793
0.000330129
0.000326441
0.000322727
0.000318985
0.000315211
0.000311403
0.000307558
0.00030367
0.000299732
0.000295745
0.000291708
0.000287622
0.000283484
0.000279291
0.00027504
0.000270726
0.000266346
0.000261895
0.000257367
0.000252756
0.000248054
0.000243254
0.000238345
0.000233318
0.000228158
0.000222852
0.000217379
0.000211718
0.000205842
0.000199717
0.000193299
0.000186537
0.000179365
0.000171694
0.000163406
0.000154332
0.00014424
0.000132857
0.000119738
0.000104175
8.49932e-05
6.01838e-05
2.72638e-05
8.44066e-07
7.36578e-06
7.60047e-05
0.00014374
0.000194227
0.00023329
0.000264832
0.000291295
0.000314207
0.000334533
0.000352913
0.000369776
0.000385424
0.000400077
0.000413891
0.000426981
0.000439437
0.000451329
0.000462714
0.000473636
0.000484132
0.00049423
0.000503955
0.000513327
0.000522363
0.000531075
0.000539477
0.000547577
0.000555384
0.000562904
0.000570143
0.000577107
0.000583799
0.000590223
0.000596382
0.000602279
0.000607916
0.000613295
0.000618419
0.000623288
0.000627906
0.000632272
0.00063639
0.00064026
0.000643884
0.000647264
0.000650402
0.000653298
0.000655956
0.000658376
0.000660562
0.000662515
0.000664238
0.000665733
0.000667002
0.000668049
0.000668875
0.000669485
0.00066988
0.000670064
0.000670038
0.000669806
0.000669369
0.000668727
0.000667889
0.00066686
0.000665648
0.000664258
0.000662694
0.000660962
0.000659067
0.000657014
0.000654808
0.000652454
0.000649957
0.000647323
0.000644556
0.000641663
0.000638648
0.000635517
0.000632275
0.000628928
0.000625481
0.000621939
0.000618308
0.000614593
0.000610799
0.000606931
0.000602996
0.000598996
0.000594939
0.000590828
0.000586669
0.000582466
0.000578225
0.000573949
0.000569643
0.000565311
0.000560958
0.000556587
0.000552203
0.00054781
0.00054341
0.000539008
0.000534607
0.00053021
0.00052582
0.000521439
0.000517071
0.000512719
0.000508383
0.000504067
0.000499772
0.000495501
0.000491255
0.000487034
0.000482842
0.000478677
0.000474543
0.000470438
0.000466364
0.000462322
0.00045831
0.000454331
0.000450382
0.000446464
0.000442577
0.00043872
0.000434893
0.000431093
0.000427322
0.000423577
0.000419857
0.000416161
0.000412487
0.000408835
0.000405202
0.000401587
0.000397988
0.000394404
0.000390832
0.00038727
0.000383718
0.000380172
0.000376631
0.000373093
0.000369557
0.000366021
0.000362483
0.000358939
0.000355386
0.000351824
0.000348249
0.000344661
0.000341057
0.000337435
0.000333793
0.000330129
0.000326441
0.000322727
0.000318985
0.000315211
0.000311403
0.000307558
0.00030367
0.000299732
0.000295745
0.000291708
0.000287622
0.000283484
0.000279291
0.00027504
0.000270726
0.000266346
0.000261895
0.000257367
0.000252756
0.000248054
0.000243254
0.000238345
0.000233318
0.000228158
0.000222852
0.000217379
0.000211718
0.000205842
0.000199717
0.000193299
0.000186537
0.000179365
0.000171694
0.000163406
0.000154332
0.00014424
0.000132857
0.000119738
0.000104175
8.49933e-05
6.01838e-05
2.72636e-05
8.44065e-07
1.07106e-05
9.7509e-05
0.000191652
0.000267479
0.000328459
0.000378601
0.000420932
0.000457515
0.000489765
0.000518668
0.000544925
0.000569043
0.000591398
0.000612268
0.000631866
0.000650356
0.00066787
0.000684509
0.000700359
0.000715488
0.000729952
0.000743798
0.000757065
0.000769786
0.000781989
0.000793699
0.000804934
0.000815714
0.000826053
0.000835966
0.000845463
0.000854555
0.000863252
0.000871562
0.000879492
0.00088705
0.000894241
0.000901072
0.000907547
0.000913672
0.000919452
0.000924891
0.000929993
0.000934763
0.000939206
0.000943324
0.000947123
0.000950606
0.000953778
0.000956641
0.000959202
0.000961462
0.000963428
0.000965102
0.000966489
0.000967593
0.000968419
0.00096897
0.00096925
0.000969263
0.000969012
0.000968501
0.000967732
0.000966713
0.000965451
0.000963955
0.000962231
0.000960285
0.000958125
0.000955756
0.000953184
0.000950416
0.000947458
0.000944316
0.000940996
0.000937505
0.000933849
0.000930035
0.000926068
0.000921955
0.000917703
0.000913318
0.000908806
0.000904174
0.000899428
0.000894575
0.00088962
0.000884569
0.00087943
0.000874208
0.000868909
0.000863538
0.000858103
0.000852608
0.000847059
0.000841462
0.000835821
0.000830143
0.000824432
0.000818693
0.000812931
0.00080715
0.000801355
0.00079555
0.00078974
0.000783927
0.000778116
0.00077231
0.000766512
0.000760725
0.000754953
0.000749197
0.00074346
0.000737744
0.000732051
0.000726382
0.00072074
0.000715125
0.000709539
0.000703981
0.000698453
0.000692955
0.000687487
0.000682049
0.000676641
0.000671262
0.000665911
0.000660588
0.000655292
0.000650021
0.000644774
0.000639549
0.000634345
0.00062916
0.000623992
0.000618838
0.000613698
0.000608568
0.000603446
0.00059833
0.000593217
0.000588106
0.000582993
0.000577876
0.000572752
0.000567621
0.000562478
0.00055732
0.000552144
0.000546946
0.000541724
0.000536474
0.000531195
0.000525884
0.000520538
0.000515153
0.000509728
0.000504258
0.000498741
0.000493174
0.000487552
0.00048187
0.000476126
0.000470311
0.000464419
0.000458446
0.000452391
0.000446252
0.000440023
0.000433701
0.000427278
0.000420748
0.000414102
0.000407333
0.00040043
0.000393381
0.000386173
0.000378791
0.000371216
0.00036343
0.000355407
0.000347119
0.000338532
0.000329605
0.000320288
0.000310521
0.000300227
0.000289313
0.000277658
0.000265108
0.000251462
0.000236451
0.000219714
0.00020076
0.000178925
0.000153202
0.000122098
8.35245e-05
3.63739e-05
1.29589e-06
1.07107e-05
9.75121e-05
0.000191658
0.000267488
0.000328469
0.000378612
0.000420942
0.000457525
0.000489775
0.000518678
0.000544935
0.000569054
0.000591408
0.000612278
0.000631876
0.000650367
0.00066788
0.000684519
0.000700369
0.000715498
0.000729962
0.000743808
0.000757075
0.000769796
0.000781999
0.000793708
0.000804944
0.000815724
0.000826063
0.000835975
0.000845472
0.000854565
0.000863262
0.000871571
0.000879502
0.000887059
0.000894251
0.000901081
0.000907556
0.000913681
0.000919461
0.0009249
0.000930002
0.000934772
0.000939215
0.000943333
0.000947132
0.000950615
0.000953786
0.00095665
0.00095921
0.000961471
0.000963436
0.00096511
0.000966497
0.000967602
0.000968427
0.000968978
0.000969258
0.000969271
0.00096902
0.000968508
0.00096774
0.00096672
0.000965459
0.000963962
0.000962238
0.000960292
0.000958132
0.000955763
0.000953191
0.000950423
0.000947464
0.000944322
0.000941002
0.000937511
0.000933855
0.000930041
0.000926074
0.000921961
0.000917709
0.000913324
0.000908812
0.00090418
0.000899434
0.00089458
0.000889625
0.000884574
0.000879435
0.000874212
0.000868913
0.000863543
0.000858107
0.000852612
0.000847063
0.000841466
0.000835825
0.000830147
0.000824435
0.000818696
0.000812934
0.000807153
0.000801358
0.000795553
0.000789743
0.00078393
0.000778119
0.000772312
0.000766514
0.000760728
0.000754955
0.000749199
0.000743462
0.000737746
0.000732053
0.000726384
0.000720742
0.000715127
0.00070954
0.000703983
0.000698455
0.000692957
0.000687489
0.000682051
0.000676642
0.000671263
0.000665912
0.000660589
0.000655293
0.000650021
0.000644774
0.000639549
0.000634345
0.00062916
0.000623992
0.000618838
0.000613698
0.000608568
0.000603446
0.00059833
0.000593217
0.000588106
0.000582992
0.000577875
0.000572752
0.00056762
0.000562478
0.00055732
0.000552143
0.000546945
0.000541723
0.000536474
0.000531195
0.000525883
0.000520537
0.000515152
0.000509727
0.000504257
0.000498741
0.000493173
0.000487551
0.00048187
0.000476125
0.00047031
0.000464418
0.000458445
0.00045239
0.000446251
0.000440022
0.0004337
0.000427277
0.000420747
0.000414101
0.000407332
0.000400429
0.00039338
0.000386172
0.00037879
0.000371215
0.000363429
0.000355406
0.000347118
0.000338531
0.000329604
0.000320287
0.00031052
0.000300227
0.000289313
0.000277657
0.000265107
0.000251462
0.000236451
0.000219714
0.00020076
0.000178925
0.000153202
0.000122099
8.35245e-05
3.63736e-05
1.29589e-06
1.39488e-05
0.000114709
0.000229288
0.000326472
0.000407263
0.000475177
0.000533231
0.000583702
0.000628265
0.000668155
0.000704282
0.000737331
0.000767819
0.000796142
0.000822607
0.000847455
0.000870879
0.000893032
0.000914041
0.000934009
0.000953022
0.00097115
0.000988455
0.00100499
0.00102079
0.0010359
0.00105035
0.00106418
0.00107739
0.00109003
0.0011021
0.00111362
0.00112461
0.00113508
0.00114505
0.00115453
0.00116353
0.00117206
0.00118012
0.00118774
0.0011949
0.00120164
0.00120794
0.00121382
0.00121929
0.00122436
0.00122902
0.00123329
0.00123717
0.00124067
0.00124379
0.00124655
0.00124895
0.00125098
0.00125267
0.00125402
0.00125502
0.00125569
0.00125604
0.00125606
0.00125576
0.00125515
0.00125424
0.00125302
0.00125152
0.00124973
0.00124766
0.00124533
0.00124275
0.00123991
0.00123682
0.00123351
0.00122996
0.00122619
0.0012222
0.00121801
0.00121362
0.00120904
0.00120427
0.00119933
0.00119421
0.00118894
0.0011835
0.00117792
0.0011722
0.00116634
0.00116036
0.00115426
0.00114805
0.00114173
0.00113531
0.00112881
0.00112221
0.00111554
0.0011088
0.001102
0.00109513
0.00108822
0.00108125
0.00107425
0.00106721
0.00106014
0.00105304
0.00104593
0.0010388
0.00103166
0.00102451
0.00101736
0.00101021
0.00100307
0.000995938
0.000988815
0.000981707
0.000974615
0.000967542
0.00096049
0.000953461
0.000946455
0.000939475
0.000932521
0.000925593
0.000918693
0.000911819
0.000904973
0.000898153
0.000891358
0.000884589
0.000877844
0.000871121
0.000864419
0.000857737
0.000851072
0.000844422
0.000837785
0.000831159
0.000824542
0.00081793
0.00081132
0.000804711
0.000798098
0.00079148
0.000784853
0.000778214
0.00077156
0.000764889
0.000758197
0.00075148
0.000744734
0.000737955
0.00073114
0.000724285
0.000717386
0.000710441
0.000703445
0.000696395
0.000689288
0.000682119
0.000674884
0.00066758
0.000660201
0.000652743
0.000645199
0.000637564
0.000629831
0.000621992
0.00061404
0.000605972
0.000597782
0.000589464
0.000581009
0.000572408
0.000563651
0.000554726
0.000545619
0.000536316
0.000526798
0.000517045
0.000507035
0.000496741
0.000486131
0.000475169
0.000463813
0.000452012
0.000439704
0.000426817
0.00041326
0.000398926
0.000383677
0.000367344
0.000349713
0.000330507
0.000309368
0.000285832
0.000259274
0.000228879
0.000193515
0.000151661
0.000101545
4.3469e-05
1.74075e-06
1.39489e-05
0.000114713
0.000229294
0.000326481
0.000407275
0.00047519
0.000533244
0.000583715
0.000628279
0.000668168
0.000704296
0.000737345
0.000767833
0.000796156
0.00082262
0.000847469
0.000870892
0.000893045
0.000914054
0.000934022
0.000953035
0.000971163
0.000988468
0.001005
0.0010208
0.00103591
0.00105037
0.00106419
0.00107741
0.00109004
0.00110211
0.00111363
0.00112462
0.0011351
0.00114507
0.00115454
0.00116354
0.00117207
0.00118013
0.00118775
0.00119492
0.00120165
0.00120795
0.00121384
0.0012193
0.00122437
0.00122903
0.0012333
0.00123718
0.00124068
0.0012438
0.00124656
0.00124896
0.00125099
0.00125268
0.00125403
0.00125503
0.0012557
0.00125605
0.00125607
0.00125577
0.00125516
0.00125425
0.00125303
0.00125152
0.00124973
0.00124767
0.00124534
0.00124275
0.00123991
0.00123683
0.00123351
0.00122996
0.0012262
0.00122221
0.00121802
0.00121363
0.00120905
0.00120428
0.00119933
0.00119422
0.00118894
0.00118351
0.00117793
0.0011722
0.00116635
0.00116037
0.00115427
0.00114805
0.00114173
0.00113532
0.00112881
0.00112222
0.00111555
0.00110881
0.001102
0.00109514
0.00108822
0.00108126
0.00107425
0.00106721
0.00106014
0.00105305
0.00104593
0.0010388
0.00103166
0.00102451
0.00101736
0.00101022
0.00100307
0.00099594
0.000988817
0.000981709
0.000974617
0.000967544
0.000960492
0.000953462
0.000946457
0.000939476
0.000932522
0.000925595
0.000918694
0.00091182
0.000904974
0.000898153
0.000891359
0.00088459
0.000877844
0.000871122
0.00086442
0.000857737
0.000851072
0.000844422
0.000837785
0.000831159
0.000824542
0.000817929
0.00081132
0.000804711
0.000798098
0.00079148
0.000784853
0.000778214
0.00077156
0.000764888
0.000758196
0.000751479
0.000744733
0.000737955
0.000731139
0.000724284
0.000717385
0.00071044
0.000703444
0.000696394
0.000689287
0.000682118
0.000674883
0.000667579
0.0006602
0.000652741
0.000645198
0.000637563
0.00062983
0.000621991
0.000614038
0.00060597
0.000597781
0.000589462
0.000581007
0.000572407
0.00056365
0.000554725
0.000545618
0.000536314
0.000526796
0.000517044
0.000507034
0.000496739
0.00048613
0.000475168
0.000463812
0.000452011
0.000439703
0.000426816
0.000413259
0.000398925
0.000383676
0.000367344
0.000349712
0.000330506
0.000309368
0.000285832
0.000259274
0.000228879
0.000193516
0.000151661
0.000101545
4.34687e-05
1.74076e-06
1.71369e-05
0.000129324
0.00026037
0.000375597
0.000473917
0.000558099
0.000630944
0.000694759
0.000751343
0.000802083
0.000848041
0.000890038
0.000928709
0.00096455
0.000997953
0.00102923
0.00105863
0.00108636
0.00111259
0.00113744
0.00116105
0.0011835
0.00120487
0.00122524
0.00124466
0.00126319
0.00128087
0.00129774
0.00131384
0.00132919
0.00134383
0.00135777
0.00137104
0.00138366
0.00139565
0.00140703
0.00141781
0.00142801
0.00143763
0.0014467
0.00145523
0.00146322
0.00147069
0.00147765
0.00148411
0.00149008
0.00149557
0.00150058
0.00150513
0.00150923
0.00151288
0.0015161
0.00151888
0.00152125
0.0015232
0.00152475
0.0015259
0.00152666
0.00152704
0.00152705
0.00152668
0.00152595
0.00152487
0.00152344
0.00152168
0.00151958
0.00151717
0.00151446
0.00151144
0.00150813
0.00150454
0.00150068
0.00149655
0.00149216
0.00148753
0.00148266
0.00147756
0.00147223
0.00146669
0.00146094
0.001455
0.00144886
0.00144255
0.00143606
0.00142941
0.0014226
0.00141564
0.00140854
0.00140131
0.00139396
0.00138648
0.0013789
0.00137122
0.00136345
0.00135558
0.00134764
0.00133963
0.00133155
0.00132341
0.00131522
0.00130699
0.00129871
0.0012904
0.00128206
0.0012737
0.00126532
0.00125693
0.00124852
0.00124012
0.00123171
0.00122331
0.00121491
0.00120652
0.00119815
0.00118979
0.00118145
0.00117312
0.00116482
0.00115654
0.00114828
0.00114005
0.00113184
0.00112365
0.00111548
0.00110734
0.00109922
0.00109112
0.00108304
0.00107498
0.00106694
0.00105891
0.00105089
0.00104287
0.00103487
0.00102687
0.00101887
0.00101086
0.00100286
0.000994838
0.000986808
0.000978761
0.000970695
0.000962606
0.00095449
0.000946344
0.000938165
0.000929946
0.000921684
0.000913374
0.000905012
0.000896594
0.000888115
0.000879571
0.000870959
0.000862273
0.000853509
0.000844662
0.000835728
0.0008267
0.000817574
0.000808342
0.000798998
0.000789535
0.000779945
0.000770217
0.000760344
0.00075032
0.000740136
0.000729783
0.000719248
0.00070852
0.000697585
0.000686426
0.000675025
0.000663361
0.000651411
0.000639148
0.000626539
0.00061355
0.000600137
0.000586254
0.000571841
0.000556833
0.000541147
0.000524689
0.000507342
0.000488964
0.000469382
0.000448384
0.000425702
0.000401002
0.000373859
0.000343731
0.000309914
0.000271515
0.000227386
0.000176108
0.000116311
4.94256e-05
2.18077e-06
1.7137e-05
0.000129327
0.000260377
0.000375606
0.000473929
0.000558112
0.000630959
0.000694774
0.000751359
0.000802099
0.000848058
0.000890054
0.000928725
0.000964566
0.000997969
0.00102925
0.00105865
0.00108638
0.0011126
0.00113746
0.00116106
0.00118351
0.00120489
0.00122526
0.00124468
0.00126321
0.00128089
0.00129776
0.00131385
0.00132921
0.00134384
0.00135778
0.00137105
0.00138368
0.00139567
0.00140705
0.00141782
0.00142802
0.00143765
0.00144672
0.00145524
0.00146323
0.00147071
0.00147766
0.00148412
0.00149009
0.00149558
0.00150059
0.00150514
0.00150924
0.00151289
0.00151611
0.0015189
0.00152126
0.00152321
0.00152476
0.00152591
0.00152667
0.00152705
0.00152706
0.00152669
0.00152596
0.00152488
0.00152345
0.00152168
0.00151959
0.00151718
0.00151446
0.00151145
0.00150814
0.00150455
0.00150068
0.00149656
0.00149217
0.00148754
0.00148267
0.00147756
0.00147224
0.00146669
0.00146095
0.001455
0.00144887
0.00144255
0.00143606
0.00142941
0.0014226
0.00141564
0.00140855
0.00140132
0.00139396
0.00138649
0.00137891
0.00137123
0.00136345
0.00135559
0.00134765
0.00133963
0.00133155
0.00132342
0.00131523
0.00130699
0.00129871
0.0012904
0.00128206
0.0012737
0.00126532
0.00125693
0.00124853
0.00124012
0.00123171
0.00122331
0.00121491
0.00120652
0.00119815
0.00118979
0.00118145
0.00117312
0.00116482
0.00115654
0.00114828
0.00114005
0.00113184
0.00112365
0.00111548
0.00110734
0.00109922
0.00109112
0.00108305
0.00107498
0.00106694
0.00105891
0.00105089
0.00104287
0.00103487
0.00102687
0.00101887
0.00101086
0.00100286
0.000994838
0.000986808
0.000978761
0.000970695
0.000962606
0.00095449
0.000946344
0.000938164
0.000929945
0.000921683
0.000913373
0.000905011
0.000896593
0.000888114
0.00087957
0.000870958
0.000862272
0.000853508
0.000844661
0.000835727
0.000826699
0.000817573
0.000808341
0.000798997
0.000789534
0.000779943
0.000770216
0.000760343
0.000750319
0.000740135
0.000729781
0.000719247
0.000708519
0.000697584
0.000686425
0.000675024
0.00066336
0.00065141
0.000639146
0.000626538
0.000613548
0.000600136
0.000586253
0.00057184
0.000556832
0.000541146
0.000524688
0.000507341
0.000488963
0.000469382
0.000448383
0.000425702
0.000401002
0.000373859
0.000343731
0.000309915
0.000271515
0.000227387
0.000176108
0.000116311
4.94253e-05
2.18077e-06
2.0288e-05
0.000142201
0.000287102
0.000417792
0.000531555
0.000630412
0.000716873
0.000793177
0.000861165
0.000922307
0.000977769
0.00102847
0.00107514
0.00111836
0.00115859
0.0011962
0.0012315
0.00126474
0.00129612
0.00132582
0.00135397
0.00138069
0.00140609
0.00143026
0.00145326
0.00147517
0.00149604
0.00151593
0.00153487
0.0015529
0.00157007
0.00158639
0.00160191
0.00161665
0.00163063
0.00164387
0.00165639
0.00166822
0.00167938
0.00168987
0.00169971
0.00170893
0.00171753
0.00172553
0.00173294
0.00173978
0.00174605
0.00175178
0.00175697
0.00176163
0.00176577
0.00176941
0.00177256
0.00177522
0.0017774
0.00177913
0.0017804
0.00178122
0.00178161
0.00178157
0.00178111
0.00178025
0.00177898
0.00177733
0.00177529
0.00177288
0.00177012
0.001767
0.00176355
0.00175977
0.00175568
0.00175127
0.00174657
0.00174158
0.00173631
0.00173077
0.00172497
0.00171891
0.00171262
0.00170609
0.00169935
0.00169238
0.00168522
0.00167786
0.00167031
0.00166258
0.00165469
0.00164664
0.00163843
0.00163009
0.00162161
0.00161301
0.00160429
0.00159547
0.00158654
0.00157753
0.00156843
0.00155925
0.00155
0.00154069
0.00153133
0.00152192
0.00151247
0.00150298
0.00149346
0.00148391
0.00147435
0.00146477