/*--------------------------------*- C++ -*----------------------------------*\
  =========                 |
  \\      /  F ield         | OpenFOAM: The Open Source CFD Toolbox
   \\    /   O peration     | Website:  https://openfoam.org
    \\  /    A nd           | Version:  8
     \\/     M anipulation  |
\*---------------------------------------------------------------------------*/
FoamFile
{
    version     2.0;
    format      ascii;
    class       surfaceScalarField;
    location    "3400";
    object      phi;
}
// * * * * * * * * * * * * * * * * * * * * * * * * * * * * * * * * * * * * * //

dimensions      [1 0 -1 0 0 0 0];

internalField   nonuniform List<scalar> 
114370
(
5.36507e-10
7.50469e-14
-5.36582e-10
1.37546e-09
2.58709e-14
-8.40565e-10
2.10038e-09
1.36828e-14
-7.25762e-10
2.54266e-09
8.73073e-15
-4.42901e-10
2.6961e-09
7.34761e-15
-1.53959e-10
2.59756e-09
6.64777e-15
9.80714e-11
2.29297e-09
6.11552e-15
3.0417e-10
1.82502e-09
5.51137e-15
4.67556e-10
1.22915e-09
4.85198e-15
5.95518e-10
5.3356e-10
4.26376e-15
6.95254e-10
-2.39174e-10
3.70526e-15
7.72423e-10
-1.07063e-09
3.12575e-15
8.31161e-10
-1.94628e-09
2.6343e-15
8.75374e-10
-2.85502e-09
2.29768e-15
9.08484e-10
-3.78794e-09
2.07275e-15
9.32681e-10
-4.73784e-09
1.90323e-15
9.49679e-10
-5.69885e-09
1.74564e-15
9.60796e-10
-6.66612e-09
1.58763e-15
9.67065e-10
-7.6356e-09
1.43764e-15
9.69295e-10
-8.60391e-09
1.31119e-15
9.68128e-10
-9.56816e-09
1.22203e-15
9.64072e-10
-1.05259e-08
1.17061e-15
9.57536e-10
-1.14749e-08
1.14944e-15
9.48846e-10
-1.24133e-08
1.14823e-15
9.38267e-10
-1.33394e-08
1.15634e-15
9.26014e-10
-1.42518e-08
1.16748e-15
9.12262e-10
-1.51491e-08
1.17776e-15
8.97156e-10
-1.60301e-08
1.18685e-15
8.80817e-10
-1.68936e-08
1.19464e-15
8.63346e-10
-1.77385e-08
1.20103e-15
8.4483e-10
-1.8564e-08
1.20546e-15
8.25342e-10
-1.9369e-08
1.20881e-15
8.04947e-10
-2.01529e-08
1.20955e-15
7.83706e-10
-2.09146e-08
1.20813e-15
7.61669e-10
-2.16536e-08
1.20541e-15
7.38886e-10
-2.23692e-08
1.20193e-15
7.15403e-10
-2.30605e-08
1.19813e-15
6.91265e-10
-2.37272e-08
1.1953e-15
6.66514e-10
-2.43685e-08
1.19421e-15
6.41193e-10
-2.49839e-08
1.19529e-15
6.15344e-10
-2.5573e-08
1.19897e-15
5.89008e-10
-2.61354e-08
1.20525e-15
5.62228e-10
-2.66705e-08
1.215e-15
5.35047e-10
-2.71781e-08
1.22709e-15
5.07507e-10
-2.76579e-08
1.24139e-15
4.79653e-10
-2.81095e-08
1.25792e-15
4.51527e-10
-2.85328e-08
1.27581e-15
4.23176e-10
-2.89276e-08
1.2944e-15
3.94644e-10
-2.92936e-08
1.31397e-15
3.65975e-10
-2.9631e-08
1.33337e-15
3.37216e-10
-2.99395e-08
1.35283e-15
3.08413e-10
-3.02192e-08
1.37212e-15
2.7961e-10
-3.04702e-08
1.39115e-15
2.50853e-10
-3.06925e-08
1.41028e-15
2.22187e-10
-3.08863e-08
1.42936e-15
1.93657e-10
-3.10517e-08
1.44882e-15
1.65307e-10
-3.1189e-08
1.46844e-15
1.37182e-10
-3.12984e-08
1.48866e-15
1.09324e-10
-3.13803e-08
1.50948e-15
8.17761e-11
-3.1435e-08
1.53073e-15
5.45769e-11
-3.14629e-08
1.55214e-15
2.77618e-11
-3.14644e-08
1.5736e-15
1.36575e-12
-3.14399e-08
1.59827e-15
-2.45737e-11
-3.139e-08
1.62651e-15
-5.00255e-11
-3.13152e-08
1.65459e-15
-7.49651e-11
-3.1216e-08
1.68337e-15
-9.9365e-11
-3.10929e-08
1.71389e-15
-1.23194e-10
-3.09466e-08
1.74533e-15
-1.46423e-10
-3.07777e-08
1.77861e-15
-1.69024e-10
-3.05869e-08
1.81331e-15
-1.90974e-10
-3.03748e-08
1.84995e-15
-2.12249e-10
-3.01421e-08
1.88687e-15
-2.32831e-10
-2.98895e-08
1.92563e-15
-2.52702e-10
-2.96179e-08
1.9658e-15
-2.71846e-10
-2.93278e-08
2.00699e-15
-2.9025e-10
-2.902e-08
2.04987e-15
-3.07903e-10
-2.86954e-08
2.09324e-15
-3.24795e-10
-2.83546e-08
2.13769e-15
-3.40919e-10
-2.79985e-08
2.18279e-15
-3.56269e-10
-2.76278e-08
2.22849e-15
-3.7084e-10
-2.72433e-08
2.27495e-15
-3.84632e-10
-2.68459e-08
2.32167e-15
-3.97643e-10
-2.64361e-08
2.36894e-15
-4.09875e-10
-2.6015e-08
2.41665e-15
-4.21331e-10
-2.55831e-08
2.46457e-15
-4.32014e-10
-2.51414e-08
2.51292e-15
-4.41932e-10
-2.46905e-08
2.5616e-15
-4.51091e-10
-2.42311e-08
2.61028e-15
-4.595e-10
-2.37642e-08
2.65939e-15
-4.67169e-10
-2.32902e-08
2.70862e-15
-4.7411e-10
-2.28101e-08
2.75849e-15
-4.80335e-10
-2.23244e-08
2.80858e-15
-4.85857e-10
-2.18339e-08
2.85845e-15
-4.90691e-10
-2.13393e-08
2.90821e-15
-4.94852e-10
-2.08411e-08
2.95895e-15
-4.98358e-10
-2.03401e-08
3.00926e-15
-5.01225e-10
-1.98368e-08
3.06022e-15
-5.03471e-10
-1.93319e-08
3.11085e-15
-5.05116e-10
-1.88259e-08
3.16181e-15
-5.06177e-10
-1.83195e-08
3.21244e-15
-5.06676e-10
-1.7813e-08
3.26318e-15
-5.06631e-10
-1.73072e-08
3.31392e-15
-5.06064e-10
-1.68024e-08
3.36336e-15
-5.04996e-10
-1.62992e-08
3.41323e-15
-5.03448e-10
-1.5798e-08
3.46289e-15
-5.0144e-10
-1.52992e-08
3.51233e-15
-4.98995e-10
-1.48033e-08
3.56047e-15
-4.96132e-10
-1.43107e-08
3.60893e-15
-4.92874e-10
-1.38216e-08
3.6562e-15
-4.89242e-10
-1.33366e-08
3.70348e-15
-4.85255e-10
-1.28559e-08
3.74956e-15
-4.80935e-10
-1.23799e-08
3.7952e-15
-4.76301e-10
-1.19087e-08
3.84042e-15
-4.71373e-10
-1.14428e-08
3.88509e-15
-4.6617e-10
-1.09824e-08
3.92846e-15
-4.6071e-10
-1.05276e-08
3.97193e-15
-4.55011e-10
-1.00788e-08
4.01422e-15
-4.49089e-10
-9.63607e-09
4.05607e-15
-4.4296e-10
-9.19969e-09
4.09717e-15
-4.36641e-10
-8.76981e-09
4.13761e-15
-4.30144e-10
-8.34659e-09
4.17708e-15
-4.23484e-10
-7.93019e-09
4.21654e-15
-4.16672e-10
-7.52075e-09
4.25569e-15
-4.09719e-10
-7.11839e-09
4.2944e-15
-4.02635e-10
-6.72324e-09
4.33365e-15
-3.95429e-10
-6.33541e-09
4.37214e-15
-3.88109e-10
-5.95502e-09
4.41096e-15
-3.8068e-10
-5.58216e-09
4.44999e-15
-3.73147e-10
-5.21694e-09
4.48946e-15
-3.65515e-10
-4.85945e-09
4.52936e-15
-3.57785e-10
-4.50979e-09
4.56992e-15
-3.49959e-10
-4.16805e-09
4.61112e-15
-3.42037e-10
-3.83434e-09
4.65319e-15
-3.34017e-10
-3.50875e-09
4.69504e-15
-3.25896e-10
-3.19139e-09
4.73863e-15
-3.17671e-10
-2.88237e-09
4.78352e-15
-3.09338e-10
-2.5818e-09
4.82819e-15
-3.00889e-10
-2.2898e-09
4.87698e-15
-2.92319e-10
-2.00651e-09
4.92686e-15
-2.8362e-10
-1.73206e-09
4.97847e-15
-2.74783e-10
-1.46659e-09
5.03094e-15
-2.658e-10
-1.21027e-09
5.08385e-15
-2.56662e-10
-9.63254e-10
5.13958e-15
-2.47359e-10
-7.25718e-10
5.19921e-15
-2.37883e-10
-4.97842e-10
5.25993e-15
-2.28228e-10
-2.79806e-10
5.32108e-15
-2.18393e-10
-7.17602e-11
5.38287e-15
-2.08407e-10
1.26089e-10
5.42906e-15
-1.98215e-10
3.1347e-10
5.46223e-15
-1.87752e-10
4.90143e-10
5.50538e-15
-1.77047e-10
6.55879e-10
5.5546e-15
-1.66114e-10
8.10447e-10
5.61249e-15
-1.54951e-10
9.53619e-10
5.67819e-15
-1.43558e-10
1.08517e-09
5.75169e-15
-1.31938e-10
1.20487e-09
5.83213e-15
-1.20094e-10
1.3125e-09
5.91864e-15
-1.08032e-10
1.40785e-09
6.01339e-15
-9.5762e-11
1.49074e-09
6.11399e-15
-8.32964e-11
1.56098e-09
6.22499e-15
-7.0652e-11
1.6184e-09
6.34424e-15
-5.78494e-11
1.66289e-09
6.47042e-15
-4.49139e-11
1.69433e-09
6.60463e-15
-3.18755e-11
1.71266e-09
6.74707e-15
-1.87698e-11
1.71785e-09
6.89255e-15
-5.6386e-12
1.70991e-09
7.05531e-15
7.48216e-12
1.6889e-09
7.23655e-15
2.05525e-11
1.65491e-09
7.42452e-15
3.35169e-11
1.60812e-09
7.62377e-15
4.6315e-11
1.54875e-09
7.83558e-15
5.88806e-11
1.47712e-09
8.06214e-15
7.11411e-11
1.39359e-09
8.30084e-15
8.30178e-11
1.29866e-09
8.55429e-15
9.44252e-11
1.19286e-09
8.8216e-15
1.05271e-10
1.07687e-09
9.10367e-15
1.15454e-10
9.5146e-10
9.39809e-15
1.24867e-10
8.17512e-10
9.70616e-15
1.33391e-10
6.76044e-10
1.00247e-14
1.40899e-10
5.28209e-10
1.03568e-14
1.47253e-10
3.75311e-10
1.07035e-14
1.52301e-10
2.18823e-10
1.10608e-14
1.55878e-10
6.03961e-11
1.14332e-14
1.57803e-10
-9.80888e-11
1.17884e-14
1.57845e-10
-2.54497e-10
1.21266e-14
1.55754e-10
-4.06458e-10
1.24978e-14
1.51292e-10
-5.51355e-10
1.29089e-14
1.44214e-10
-6.86257e-10
1.33443e-14
1.34204e-10
-8.0785e-10
1.37988e-14
1.20877e-10
-9.12416e-10
1.42641e-14
1.03832e-10
-9.95797e-10
1.47355e-14
8.26267e-11
-1.05336e-09
1.52196e-14
5.67912e-11
-1.08005e-09
1.57387e-14
2.58847e-11
-1.07048e-09
1.62925e-14
-1.03937e-11
-1.01937e-09
1.6889e-14
-5.19671e-11
-9.22173e-10
1.75485e-14
-9.80946e-11
-7.76528e-10
1.82592e-14
-1.46581e-10
-5.8537e-10
1.9029e-14
-1.92147e-10
-3.62904e-10
1.9894e-14
-2.23521e-10
-1.46303e-10
2.07306e-14
-2.17751e-10
-6.94364e-12
2.28575e-14
-1.40661e-10
1.0753e-14
-8.41164e-12
5.36207e-10
-5.36843e-10
1.37534e-09
-8.40747e-10
2.10031e-09
-7.25862e-10
2.54262e-09
-4.42974e-10
2.69606e-09
-1.5402e-10
2.59752e-09
9.8017e-11
2.29293e-09
3.04121e-10
1.82499e-09
4.67511e-10
1.22912e-09
5.95477e-10
5.3354e-10
6.95215e-10
-2.3919e-10
7.72387e-10
-1.07064e-09
8.31128e-10
-1.94628e-09
8.75344e-10
-2.85502e-09
9.08455e-10
-3.78794e-09
9.32654e-10
-4.73784e-09
9.49653e-10
-5.69884e-09
9.60772e-10
-6.66611e-09
9.67042e-10
-7.63559e-09
9.69273e-10
-8.6039e-09
9.68106e-10
-9.56814e-09
9.64051e-10
-1.05258e-08
9.57515e-10
-1.14748e-08
9.48826e-10
-1.24133e-08
9.38248e-10
-1.33394e-08
9.25995e-10
-1.42518e-08
9.12243e-10
-1.51491e-08
8.97138e-10
-1.603e-08
8.80799e-10
-1.68935e-08
8.63329e-10
-1.77385e-08
8.44812e-10
-1.85639e-08
8.25324e-10
-1.9369e-08
8.0493e-10
-2.01528e-08
7.83689e-10
-2.09146e-08
7.61652e-10
-2.16536e-08
7.38869e-10
-2.23691e-08
7.15386e-10
-2.30605e-08
6.91248e-10
-2.37271e-08
6.66497e-10
-2.43684e-08
6.41176e-10
-2.49839e-08
6.15327e-10
-2.5573e-08
5.88991e-10
-2.61353e-08
5.62211e-10
-2.66705e-08
5.3503e-10
-2.71781e-08
5.0749e-10
-2.76578e-08
4.79636e-10
-2.81095e-08
4.5151e-10
-2.85327e-08
4.23159e-10
-2.89275e-08
3.94626e-10
-2.92936e-08
3.65958e-10
-2.96309e-08
3.37199e-10
-2.99394e-08
3.08395e-10
-3.02192e-08
2.79591e-10
-3.04701e-08
2.50834e-10
-3.06924e-08
2.22168e-10
-3.08862e-08
1.93638e-10
-3.10516e-08
1.65288e-10
-3.11889e-08
1.37163e-10
-3.12984e-08
1.09305e-10
-3.13802e-08
8.17562e-11
-3.14349e-08
5.45567e-11
-3.14628e-08
2.77414e-11
-3.14643e-08
1.34507e-12
-3.14399e-08
-2.45947e-11
-3.139e-08
-5.00467e-11
-3.13151e-08
-7.49866e-11
-3.12159e-08
-9.93867e-11
-3.10929e-08
-1.23216e-10
-3.09466e-08
-1.46445e-10
-3.07777e-08
-1.69047e-10
-3.05868e-08
-1.90997e-10
-3.03747e-08
-2.12272e-10
-3.0142e-08
-2.32855e-10
-2.98895e-08
-2.52726e-10
-2.96178e-08
-2.7187e-10
-2.93277e-08
-2.90275e-10
-2.90199e-08
-3.07928e-10
-2.86953e-08
-3.2482e-10
-2.83545e-08
-3.40944e-10
-2.79984e-08
-3.56295e-10
-2.76277e-08
-3.70867e-10
-2.72433e-08
-3.84659e-10
-2.68458e-08
-3.9767e-10
-2.64361e-08
-4.09903e-10
-2.60149e-08
-4.21358e-10
-2.55831e-08
-4.32042e-10
-2.51413e-08
-4.4196e-10
-2.46904e-08
-4.5112e-10
-2.42311e-08
-4.59529e-10
-2.37641e-08
-4.67199e-10
-2.32902e-08
-4.7414e-10
-2.281e-08
-4.80365e-10
-2.23244e-08
-4.85887e-10
-2.18339e-08
-4.90722e-10
-2.13392e-08
-4.94884e-10
-2.08411e-08
-4.9839e-10
-2.034e-08
-5.01257e-10
-1.98368e-08
-5.03504e-10
-1.93319e-08
-5.05149e-10
-1.88259e-08
-5.06211e-10
-1.83194e-08
-5.06709e-10
-1.7813e-08
-5.06665e-10
-1.73071e-08
-5.06099e-10
-1.68024e-08
-5.05031e-10
-1.62991e-08
-5.03483e-10
-1.57979e-08
-5.01476e-10
-1.52992e-08
-4.99031e-10
-1.48033e-08
-4.96169e-10
-1.43106e-08
-4.92912e-10
-1.38216e-08
-4.8928e-10
-1.33366e-08
-4.85293e-10
-1.28559e-08
-4.80974e-10
-1.23798e-08
-4.7634e-10
-1.19087e-08
-4.71413e-10
-1.14428e-08
-4.6621e-10
-1.09823e-08
-4.6075e-10
-1.05276e-08
-4.55052e-10
-1.00787e-08
-4.4913e-10
-9.63604e-09
-4.43002e-10
-9.19966e-09
-4.36683e-10
-8.76978e-09
-4.30187e-10
-8.34656e-09
-4.23527e-10
-7.93016e-09
-4.16715e-10
-7.52072e-09
-4.09763e-10
-7.11836e-09
-4.0268e-10
-6.72321e-09
-3.95474e-10
-6.33538e-09
-3.88154e-10
-5.95499e-09
-3.80726e-10
-5.58213e-09
-3.73194e-10
-5.21691e-09
-3.65562e-10
-4.85942e-09
-3.57833e-10
-4.50976e-09
-3.50007e-10
-4.16802e-09
-3.42086e-10
-3.83431e-09
-3.34066e-10
-3.50872e-09
-3.25946e-10
-3.19136e-09
-3.17722e-10
-2.88234e-09
-3.09388e-10
-2.58177e-09
-3.00941e-10
-2.28978e-09
-2.92371e-10
-2.00648e-09
-2.83672e-10
-1.73203e-09
-2.74836e-10
-1.46656e-09
-2.65854e-10
-1.21024e-09
-2.56716e-10
-9.63225e-10
-2.47414e-10
-7.2569e-10
-2.37939e-10
-4.97814e-10
-2.28284e-10
-2.79778e-10
-2.18449e-10
-7.1732e-11
-2.08465e-10
1.26117e-10
-1.98273e-10
3.13499e-10
-1.8781e-10
4.90172e-10
-1.77106e-10
6.55908e-10
-1.66173e-10
8.10476e-10
-1.55011e-10
9.53648e-10
-1.43619e-10
1.0852e-09
-1.32e-10
1.20489e-09
-1.20156e-10
1.31253e-09
-1.08095e-10
1.40788e-09
-9.58254e-11
1.49077e-09
-8.33605e-11
1.561e-09
-7.07169e-11
1.61843e-09
-5.79151e-11
1.66292e-09
-4.49804e-11
1.69436e-09
-3.19429e-11
1.71269e-09
-1.88382e-11
1.71788e-09
-5.70786e-12
1.70994e-09
7.41189e-12
1.68893e-09
2.04811e-11
1.65494e-09
3.34444e-11
1.60815e-09
4.62414e-11
1.54878e-09
5.88057e-11
1.47714e-09
7.10649e-11
1.39362e-09
8.29403e-11
1.29868e-09
9.43463e-11
1.19289e-09
1.0519e-10
1.0769e-09
1.15372e-10
9.51483e-10
1.24783e-10
8.17534e-10
1.33305e-10
6.76064e-10
1.40812e-10
5.28228e-10
1.47164e-10
3.7533e-10
1.5221e-10
2.1884e-10
1.55785e-10
6.04117e-11
1.57707e-10
-9.80744e-11
1.57748e-10
-2.54484e-10
1.55654e-10
-4.06446e-10
1.51191e-10
-5.51343e-10
1.4411e-10
-6.86247e-10
1.34097e-10
-8.07841e-10
1.20768e-10
-9.12409e-10
1.0372e-10
-9.95791e-10
8.25112e-11
-1.05336e-09
5.6672e-11
-1.08005e-09
2.57613e-11
-1.07048e-09
-1.05219e-11
-1.01938e-09
-5.21006e-11
-9.22178e-10
-9.82344e-11
-7.76539e-10
-1.46728e-10
-5.85389e-10
-1.92304e-10
-3.6294e-10
-2.23689e-10
-1.46373e-10
-2.17933e-10
-7.07009e-12
-1.40865e-10
-8.6197e-12
8.4719e-10
2.75628e-14
-1.38533e-09
1.37364e-09
-3.95528e-16
-1.36858e-09
1.63282e-09
-4.91849e-16
-9.85669e-10
1.69034e-09
-1.23816e-15
-5.00995e-10
1.568e-09
-1.09437e-15
-3.21244e-11
1.28641e-09
-9.26898e-16
3.79216e-10
8.67125e-10
-7.46273e-16
7.23056e-10
3.31156e-10
-5.84757e-16
1.00315e-09
-3.01662e-10
-4.58839e-16
1.22799e-09
-1.01335e-09
-3.60286e-16
1.40662e-09
-1.78847e-09
-2.91594e-16
1.54724e-09
-2.61426e-09
-2.42249e-16
1.65667e-09
-3.47995e-09
-1.92952e-16
1.74079e-09
-4.37632e-09
-1.3617e-16
1.8046e-09
-5.2957e-09
-7.48314e-17
1.85183e-09
-6.23169e-09
-1.94528e-17
1.88544e-09
-7.1789e-09
2.44897e-17
1.90779e-09
-8.13278e-09
5.82155e-17
1.92074e-09
-9.08946e-09
8.785e-17
1.92579e-09
-1.00456e-08
1.19112e-16
1.92412e-09
-1.09985e-08
1.54306e-16
1.91672e-09
-1.19454e-08
1.93512e-16
1.90435e-09
-1.28844e-08
2.33343e-16
1.88765e-09
-1.38134e-08
2.71142e-16
1.86715e-09
-1.47308e-08
3.0436e-16
1.84326e-09
-1.56351e-08
3.32294e-16
1.81633e-09
-1.65247e-08
3.54564e-16
1.78667e-09
-1.73985e-08
3.71847e-16
1.7545e-09
-1.82554e-08
3.84767e-16
1.72004e-09
-1.90941e-08
3.94136e-16
1.68345e-09
-1.99138e-08
3.99874e-16
1.64491e-09
-2.07135e-08
4.0274e-16
1.60453e-09
-2.14924e-08
4.03166e-16
1.56243e-09
-2.22496e-08
4.01289e-16
1.51873e-09
-2.29843e-08
3.98002e-16
1.47353e-09
-2.3696e-08
3.93876e-16
1.42691e-09
-2.43838e-08
3.89019e-16
1.37898e-09
-2.50472e-08
3.84351e-16
1.32981e-09
-2.56856e-08
3.79928e-16
1.27949e-09
-2.62985e-08
3.75857e-16
1.2281e-09
-2.68853e-08
3.71895e-16
1.17573e-09
-2.74457e-08
3.68259e-16
1.12247e-09
-2.79792e-08
3.64786e-16
1.0684e-09
-2.84854e-08
3.60879e-16
1.0136e-09
-2.8964e-08
3.56728e-16
9.58158e-10
-2.94148e-08
3.51982e-16
9.02167e-10
-2.98374e-08
3.46531e-16
8.45713e-10
-3.02318e-08
3.4051e-16
7.88885e-10
-3.05977e-08
3.33596e-16
7.31773e-10
-3.09351e-08
3.25841e-16
6.74465e-10
-3.12439e-08
3.17599e-16
6.17054e-10
-3.1524e-08
3.08435e-16
5.59627e-10
-3.17756e-08
2.99028e-16
5.02277e-10
-3.19986e-08
2.89024e-16
4.4509e-10
-3.21932e-08
2.78749e-16
3.88157e-10
-3.23596e-08
2.68366e-16
3.31563e-10
-3.2498e-08
2.57767e-16
2.75394e-10
-3.26085e-08
2.47248e-16
2.19735e-10
-3.26915e-08
2.36784e-16
1.64666e-10
-3.27474e-08
2.26185e-16
1.10266e-10
-3.27763e-08
2.16046e-16
5.66091e-11
-3.27789e-08
2.06612e-16
3.76886e-12
-3.27554e-08
1.96447e-16
-4.81877e-11
-3.27064e-08
1.85739e-16
-9.91977e-11
-3.26323e-08
1.7598e-16
-1.49199e-10
-3.25337e-08
1.66519e-16
-1.98133e-10
-3.24111e-08
1.57167e-16
-2.4594e-10
-3.22651e-08
1.48113e-16
-2.92567e-10
-3.20963e-08
1.39059e-16
-3.3796e-10
-3.19054e-08
1.30032e-16
-3.82075e-10
-3.16929e-08
1.21059e-16
-4.24866e-10
-3.14596e-08
1.11951e-16
-4.66297e-10
-3.12062e-08
1.02815e-16
-5.06331e-10
-3.09332e-08
9.35443e-17
-5.44938e-10
-3.06416e-08
8.43276e-17
-5.82092e-10
-3.03319e-08
7.49212e-17
-6.17769e-10
-3.00049e-08
6.52709e-17
-6.5195e-10
-2.96614e-08
5.55121e-17
-6.8462e-10
-2.9302e-08
4.54552e-17
-7.15767e-10
-2.89277e-08
3.52085e-17
-7.45384e-10
-2.8539e-08
2.49619e-17
-7.73464e-10
-2.81368e-08
1.43086e-17
-8.00007e-10
-2.77219e-08
3.46568e-18
-8.25016e-10
-2.72949e-08
-7.53992e-18
-8.48494e-10
-2.68567e-08
-1.86539e-17
-8.7045e-10
-2.64079e-08
-2.98221e-17
-8.90895e-10
-2.59494e-08
-4.12885e-17
-9.09843e-10
-2.54817e-08
-5.27007e-17
-9.27311e-10
-2.50058e-08
-6.42754e-17
-9.43317e-10
-2.45222e-08
-7.57418e-17
-9.57884e-10
-2.40317e-08
-8.7425e-17
-9.71034e-10
-2.3535e-08
-9.9081e-17
-9.82793e-10
-2.30327e-08
-1.10791e-16
-9.9319e-10
-2.25255e-08
-1.22393e-16
-1.00225e-09
-2.20141e-08
-1.34049e-16
-1.01002e-09
-2.1499e-08
-1.45624e-16
-1.01651e-09
-2.09809e-08
-1.57171e-16
-1.02177e-09
-2.04604e-08
-1.68719e-16
-1.02583e-09
-1.99381e-08
-1.80266e-16
-1.02873e-09
-1.94145e-08
-1.91624e-16
-1.03051e-09
-1.88902e-08
-2.02927e-16
-1.0312e-09
-1.83656e-08
-2.14095e-16
-1.03085e-09
-1.78414e-08
-2.25371e-16
-1.02949e-09
-1.73179e-08
-2.36512e-16
-1.02716e-09
-1.67957e-08
-2.4749e-16
-1.02391e-09
-1.62751e-08
-2.58386e-16
-1.01977e-09
-1.57567e-08
-2.6912e-16
-1.01479e-09
-1.52408e-08
-2.79746e-16
-1.009e-09
-1.47279e-08
-2.89965e-16
-1.00246e-09
-1.42182e-08
-3.00129e-16
-9.95182e-10
-1.37122e-08
-3.09941e-16
-9.87224e-10
-1.32101e-08
-3.19943e-16
-9.78618e-10
-1.27123e-08
-3.29294e-16
-9.69402e-10
-1.22192e-08
-3.38455e-16
-9.59612e-10
-1.17308e-08
-3.47237e-16
-9.49284e-10
-1.12477e-08
-3.55802e-16
-9.3845e-10
-1.07699e-08
-3.64014e-16
-9.27143e-10
-1.02977e-08
-3.71874e-16
-9.15394e-10
-9.83142e-09
-3.7949e-16
-9.03232e-10
-9.37116e-09
-3.86564e-16
-8.90684e-10
-8.91715e-09
-3.93421e-16
-8.77775e-10
-8.46957e-09
-3.99926e-16
-8.64528e-10
-8.02861e-09
-4.06051e-16
-8.50965e-10
-7.59443e-09
-4.11688e-16
-8.37104e-10
-7.16719e-09
-4.16837e-16
-8.22963e-10
-6.74704e-09
-4.21552e-16
-8.08554e-10
-6.33413e-09
-4.25888e-16
-7.93891e-10
-5.92859e-09
-4.29791e-16
-7.78982e-10
-5.53058e-09
-4.33259e-16
-7.63834e-10
-5.14022e-09
-4.36511e-16
-7.48452e-10
-4.75765e-09
-4.39438e-16
-7.32838e-10
-4.38301e-09
-4.42256e-16
-7.16991e-10
-4.01643e-09
-4.44478e-16
-7.00908e-10
-3.65806e-09
-4.46754e-16
-6.84584e-10
-3.30805e-09
-4.48814e-16
-6.68012e-10
-2.96653e-09
-4.50657e-16
-6.51181e-10
-2.63367e-09
-4.52338e-16
-6.3408e-10
-2.30962e-09
-4.53639e-16
-6.16696e-10
-1.99457e-09
-4.54887e-16
-5.99013e-10
-1.68867e-09
-4.56297e-16
-5.81016e-10
-1.39213e-09
-4.58196e-16
-5.62688e-10
-1.10513e-09
-4.60095e-16
-5.44009e-10
-8.27878e-10
-4.61669e-16
-5.24964e-10
-5.60582e-10
-4.6384e-16
-5.05536e-10
-3.03458e-10
-4.66553e-16
-4.85713e-10
-5.67169e-11
-4.69647e-16
-4.65499e-10
1.79369e-10
-4.73717e-16
-4.44863e-10
4.04515e-10
-4.77407e-16
-4.23735e-10
6.18477e-10
-4.77792e-16
-4.02091e-10
8.20994e-10
-4.76605e-16
-3.79945e-10
1.01179e-09
-4.76178e-16
-3.57299e-10
1.1906e-09
-4.75373e-16
-3.34149e-10
1.35714e-09
-4.74677e-16
-3.10496e-10
1.51115e-09
-4.73983e-16
-2.86342e-10
1.65234e-09
-4.73831e-16
-2.61694e-10
1.78047e-09
-4.74331e-16
-2.36564e-10
1.89526e-09
-4.75212e-16
-2.10972e-10
1.99649e-09
-4.76202e-16
-1.84943e-10
2.08392e-09
-4.78116e-16
-1.58509e-10
2.15735e-09
-4.80519e-16
-1.31712e-10
2.2166e-09
-4.83519e-16
-1.04601e-10
2.26152e-09
-4.87552e-16
-7.72335e-11
2.29198e-09
-4.92398e-16
-4.96789e-11
2.30789e-09
-4.9757e-16
-2.20147e-11
2.30924e-09
-5.03927e-16
5.67575e-12
2.29601e-09
-5.11379e-16
3.33017e-11
2.26829e-09
-5.19105e-16
6.07561e-11
2.2262e-09
-5.27322e-16
8.79175e-11
2.16993e-09
-5.363e-16
1.14653e-10
2.09975e-09
-5.45985e-16
1.40815e-10
2.01601e-09
-5.57082e-16
1.66246e-10
1.91914e-09
-5.6921e-16
1.90773e-10
1.80967e-09
-5.82263e-16
2.14206e-10
1.68823e-09
-5.97215e-16
2.36342e-10
1.55558e-09
-6.13688e-16
2.56962e-10
1.41257e-09
-6.31951e-16
2.75826e-10
1.26021e-09
-6.52276e-16
2.92678e-10
1.09963e-09
-6.74338e-16
3.07236e-10
9.32125e-10
-6.98028e-16
3.19197e-10
7.59149e-10
-7.22911e-16
3.28229e-10
5.82344e-10
-7.48447e-16
3.33968e-10
4.03536e-10
-7.70189e-16
3.35998e-10
2.24756e-10
-7.80222e-16
3.33863e-10
4.8266e-11
-7.82556e-16
3.27097e-10
-1.23388e-10
-7.81636e-16
3.15165e-10
-2.87378e-10
-7.79626e-16
2.97472e-10
-4.40624e-10
-7.78478e-16
2.73381e-10
-5.79749e-10
-7.81226e-16
2.42194e-10
-7.01063e-10
-7.88301e-16
2.03154e-10
-8.00575e-10
-7.95798e-16
1.55489e-10
-8.74038e-10
-7.99602e-16
9.85039e-11
-9.17035e-10
-7.96849e-16
3.1724e-11
-9.25161e-10
-7.87702e-16
-4.47618e-11
-8.94407e-10
-7.81199e-16
-1.29817e-10
-8.2171e-10
-7.77202e-16
-2.2031e-10
-7.05734e-10
-7.68922e-16
-3.09235e-10
-5.4805e-10
-7.26831e-16
-3.82438e-10
-3.54381e-10
-6.19843e-16
-4.12854e-10
-1.43773e-10
9.22071e-17
-3.53069e-10
-1.14882e-14
-1.53441e-10
8.4699e-10
-1.38541e-09
1.37356e-09
-1.36863e-09
1.63276e-09
-9.85693e-10
1.69029e-09
-5.01007e-10
1.56797e-09
-3.2132e-11
1.28639e-09
3.79209e-10
8.67103e-10
7.2305e-10
3.3114e-10
1.00315e-09
-3.01674e-10
1.22798e-09
-1.01336e-09
1.40661e-09
-1.78847e-09
1.54723e-09
-2.61426e-09
1.65666e-09
-3.47995e-09
1.74079e-09
-4.37631e-09
1.8046e-09
-5.29569e-09
1.85182e-09
-6.23168e-09
1.88544e-09
-7.17888e-09
1.90778e-09
-8.13276e-09
1.92073e-09
-9.08944e-09
1.92578e-09
-1.00456e-08
1.92412e-09
-1.09984e-08
1.91671e-09
-1.19454e-08
1.90434e-09
-1.28844e-08
1.88765e-09
-1.38134e-08
1.86714e-09
-1.47308e-08
1.84325e-09
-1.5635e-08
1.81633e-09
-1.65247e-08
1.78666e-09
-1.73985e-08
1.75449e-09
-1.82553e-08
1.72003e-09
-1.90941e-08
1.68345e-09
-1.99138e-08
1.6449e-09
-2.07135e-08
1.60452e-09
-2.14923e-08
1.56243e-09
-2.22495e-08
1.51873e-09
-2.29843e-08
1.47352e-09
-2.36959e-08
1.42691e-09
-2.43837e-08
1.37897e-09
-2.50472e-08
1.3298e-09
-2.56856e-08
1.27948e-09
-2.62984e-08
1.22809e-09
-2.68853e-08
1.17573e-09
-2.74456e-08
1.12247e-09
-2.79791e-08
1.06839e-09
-2.84853e-08
1.01359e-09
-2.89639e-08
9.58153e-10
-2.94147e-08
9.02162e-10
-2.98374e-08
8.45708e-10
-3.02317e-08
7.8888e-10
-3.05977e-08
7.31767e-10
-3.0935e-08
6.7446e-10
-3.12438e-08
6.17048e-10
-3.15239e-08
5.59622e-10
-3.17755e-08
5.02272e-10
-3.19985e-08
4.45085e-10
-3.21932e-08
3.88152e-10
-3.23595e-08
3.31558e-10
-3.24979e-08
2.75389e-10
-3.26084e-08
2.19729e-10
-3.26915e-08
1.6466e-10
-3.27473e-08
1.1026e-10
-3.27763e-08
5.66039e-11
-3.27788e-08
3.76364e-12
-3.27554e-08
-4.8193e-11
-3.27063e-08
-9.9203e-11
-3.26322e-08
-1.49204e-10
-3.25336e-08
-1.98138e-10
-3.2411e-08
-2.45945e-10
-3.2265e-08
-2.92572e-10
-3.20963e-08
-3.37966e-10
-3.19053e-08
-3.8208e-10
-3.16929e-08
-4.24872e-10
-3.14596e-08
-4.66302e-10
-3.12061e-08
-5.06336e-10
-3.09332e-08
-5.44944e-10
-3.06415e-08
-5.82097e-10
-3.03318e-08
-6.17774e-10
-3.00048e-08
-6.51955e-10
-2.96613e-08
-6.84626e-10
-2.9302e-08
-7.15773e-10
-2.89276e-08
-7.45389e-10
-2.8539e-08
-7.7347e-10
-2.81368e-08
-8.00013e-10
-2.77218e-08
-8.25021e-10
-2.72949e-08
-8.48499e-10
-2.68566e-08
-8.70455e-10
-2.64079e-08
-8.90901e-10
-2.59493e-08
-9.09849e-10
-2.54817e-08
-9.27317e-10
-2.50057e-08
-9.43323e-10
-2.45222e-08
-9.57889e-10
-2.40317e-08
-9.71039e-10
-2.3535e-08
-9.82799e-10
-2.30327e-08
-9.93196e-10
-2.25255e-08
-1.00226e-09
-2.2014e-08
-1.01002e-09
-2.1499e-08
-1.01652e-09
-2.09809e-08
-1.02178e-09
-2.04604e-08
-1.02584e-09
-1.99381e-08
-1.02874e-09
-1.94145e-08
-1.03052e-09
-1.88901e-08
-1.03121e-09
-1.83656e-08
-1.03085e-09
-1.78413e-08
-1.02949e-09
-1.73178e-08
-1.02717e-09
-1.67956e-08
-1.02391e-09
-1.62751e-08
-1.01978e-09
-1.57567e-08
-1.0148e-09
-1.52408e-08
-1.00901e-09
-1.47278e-08
-1.00246e-09
-1.42182e-08
-9.95189e-10
-1.37121e-08
-9.8723e-10
-1.32101e-08
-9.78624e-10
-1.27123e-08
-9.69408e-10
-1.22191e-08
-9.59619e-10
-1.17308e-08
-9.4929e-10
-1.12476e-08
-9.38456e-10
-1.07699e-08
-9.2715e-10
-1.02977e-08
-9.15401e-10
-9.83139e-09
-9.03239e-10
-9.37113e-09
-8.90691e-10
-8.91712e-09
-8.77782e-10
-8.46954e-09
-8.64535e-10
-8.02858e-09
-8.50972e-10
-7.5944e-09
-8.37112e-10
-7.16716e-09
-8.2297e-10
-6.74701e-09
-8.08562e-10
-6.3341e-09
-7.93898e-10
-5.92857e-09
-7.78989e-10
-5.53055e-09
-7.63842e-10
-5.14019e-09
-7.4846e-10
-4.75762e-09
-7.32846e-10
-4.38298e-09
-7.16999e-10
-4.0164e-09
-7.00916e-10
-3.65804e-09
-6.84592e-10
-3.30802e-09
-6.6802e-10
-2.9665e-09
-6.51189e-10
-2.63364e-09
-6.34088e-10
-2.3096e-09
-6.16704e-10
-1.99454e-09
-5.99022e-10
-1.68865e-09
-5.81025e-10
-1.3921e-09
-5.62697e-10
-1.1051e-09
-5.44018e-10
-8.27852e-10
-5.24973e-10
-5.60556e-10
-5.05545e-10
-3.03432e-10
-4.85722e-10
-5.66908e-11
-4.65508e-10
1.79395e-10
-4.44873e-10
4.04541e-10
-4.23745e-10
6.18503e-10
-4.02101e-10
8.2102e-10
-3.79955e-10
1.01182e-09
-3.57309e-10
1.19063e-09
-3.34159e-10
1.35717e-09
-3.10506e-10
1.51118e-09
-2.86352e-10
1.65237e-09
-2.61704e-10
1.78049e-09
-2.36574e-10
1.89529e-09
-2.10982e-10
1.99652e-09
-1.84953e-10
2.08395e-09
-1.5852e-10
2.15738e-09
-1.31723e-10
2.21663e-09
-1.04611e-10
2.26154e-09
-7.72442e-11
2.292e-09
-4.96896e-11
2.30792e-09
-2.20255e-11
2.30926e-09
5.66496e-12
2.29604e-09
3.32908e-11
2.26832e-09
6.07452e-11
2.22623e-09
8.79065e-11
2.16996e-09
1.14642e-10
2.09978e-09
1.40804e-10
2.01603e-09
1.66235e-10
1.91916e-09
1.90761e-10
1.80969e-09
2.14195e-10
1.68825e-09
2.36331e-10
1.5556e-09
2.56951e-10
1.41259e-09
2.75815e-10
1.26023e-09
2.92666e-10
1.09965e-09
3.07224e-10
9.32142e-10
3.19185e-10
7.59165e-10
3.28217e-10
5.82358e-10
3.33956e-10
4.03549e-10
3.35986e-10
2.24769e-10
3.33851e-10
4.82778e-11
3.27084e-10
-1.23378e-10
3.15152e-10
-2.87368e-10
2.97458e-10
-4.40615e-10
2.73366e-10
-5.79741e-10
2.42179e-10
-7.01057e-10
2.03137e-10
-8.00569e-10
1.55471e-10
-8.74034e-10
9.84847e-11
-9.17033e-10
3.17029e-11
-9.2516e-10
-4.47854e-11
-8.94409e-10
-1.29844e-10
-8.21714e-10
-2.20341e-10
-7.05743e-10
-3.09271e-10
-5.48068e-10
-3.82481e-10
-3.54427e-10
-4.12906e-10
-1.43895e-10
-3.53135e-10
-1.53519e-10
7.05821e-10
1.83785e-14
-2.09198e-09
9.61924e-10
-3.50251e-16
-1.62547e-09
9.61775e-10
4.89037e-16
-9.85761e-10
8.07812e-10
6.1465e-17
-3.47206e-10
5.33821e-10
6.85949e-17
2.41722e-10
1.55183e-10
5.40371e-17
7.5773e-10
-3.17461e-10
7.31013e-17
1.19559e-09
-8.73772e-10
7.03542e-17
1.55936e-09
-1.50312e-09
5.34644e-17
1.85724e-09
-2.19502e-09
5.88052e-17
2.09844e-09
-2.9396e-09
7.69702e-17
2.29174e-09
-3.72794e-09
8.81175e-17
2.44493e-09
-4.552e-09
9.31955e-17
2.56478e-09
-5.40453e-09
1.0226e-16
2.65706e-09
-6.27918e-09
1.18834e-16
2.72641e-09
-7.17044e-09
1.39041e-16
2.77664e-09
-8.07352e-09
1.58273e-16
2.81082e-09
-8.98428e-09
1.74904e-16
2.83144e-09
-9.8991e-09
1.90262e-16
2.84055e-09
-1.08148e-08
2.06678e-16
2.83978e-09
-1.17287e-08
2.25385e-16
2.8305e-09
-1.26382e-08
2.46545e-16
2.81382e-09
-1.35412e-08
2.68776e-16
2.79063e-09
-1.44358e-08
2.90805e-16
2.76169e-09
-1.53202e-08
3.11126e-16
2.72762e-09
-1.61929e-08
3.29049e-16
2.68894e-09
-1.70523e-08
3.44398e-16
2.64608e-09
-1.78973e-08
3.57226e-16
2.59941e-09
-1.87265e-08
3.67899e-16
2.54924e-09
-1.95389e-08
3.76675e-16
2.49583e-09
-2.03335e-08
3.83623e-16
2.43941e-09
-2.11092e-08
3.8935e-16
2.3802e-09
-2.18652e-08
3.93845e-16
2.31836e-09
-2.26006e-08
3.97581e-16
2.25408e-09
-2.33146e-08
4.00802e-16
2.1875e-09
-2.40065e-08
4.0382e-16
2.11877e-09
-2.46756e-08
4.06757e-16
2.04802e-09
-2.53212e-08
4.09789e-16
1.9754e-09
-2.59428e-08
4.12916e-16
1.90101e-09
-2.65397e-08
4.15976e-16
1.82501e-09
-2.71115e-08
4.18873e-16
1.7475e-09
-2.76577e-08
4.21513e-16
1.66863e-09
-2.81779e-08
4.23665e-16
1.58851e-09
-2.86716e-08
4.25276e-16
1.50728e-09
-2.91385e-08
4.26398e-16
1.42506e-09
-2.95784e-08
4.26789e-16
1.34199e-09
-2.99909e-08
4.26706e-16
1.2582e-09
-3.03759e-08
4.26026e-16
1.17383e-09
-3.07332e-08
4.24845e-16
1.08899e-09
-3.10626e-08
4.23163e-16
1.00384e-09
-3.13641e-08
4.2121e-16
9.18505e-10
-3.16376e-08
4.18864e-16
8.33116e-10
-3.18832e-08
4.16288e-16
7.47808e-10
-3.21009e-08
4.1344e-16
6.62715e-10
-3.22907e-08
4.10539e-16
5.77967e-10
-3.24529e-08
4.07502e-16
4.93694e-10
-3.25876e-08
4.04479e-16
4.10023e-10
-3.2695e-08
4.0151e-16
3.27077e-10
-3.27753e-08
3.985e-16
2.44978e-10
-3.2829e-08
3.95532e-16
1.63842e-10
-3.28562e-08
3.92603e-16
8.37809e-11
-3.28574e-08
3.89946e-16
4.90304e-12
-3.28329e-08
3.87262e-16
-7.26885e-11
-3.27833e-08
3.847e-16
-1.48894e-10
-3.27089e-08
3.82287e-16
-2.2362e-10
-3.26103e-08
3.79983e-16
-2.96776e-10
-3.2488e-08
3.77692e-16
-3.68277e-10
-3.23426e-08
3.75536e-16
-4.38041e-10
-3.21746e-08
3.7334e-16
-5.05992e-10
-3.19847e-08
3.71172e-16
-5.72062e-10
-3.17734e-08
3.69043e-16
-6.36185e-10
-3.15415e-08
3.6678e-16
-6.98304e-10
-3.12895e-08
3.64584e-16
-7.58366e-10
-3.10182e-08
3.62293e-16
-8.16325e-10
-3.07282e-08
3.59989e-16
-8.72141e-10
-3.04202e-08
3.57576e-16
-9.25778e-10
-3.0095e-08
3.55055e-16
-9.77208e-10
-2.97533e-08
3.52452e-16
-1.02641e-09
-2.93957e-08
3.49823e-16
-1.07336e-09
-2.90232e-08
3.47126e-16
-1.11804e-09
-2.86362e-08
3.44266e-16
-1.16046e-09
-2.82357e-08
3.41406e-16
-1.2006e-09
-2.78223e-08
3.38383e-16
-1.23847e-09
-2.73968e-08
3.35428e-16
-1.27407e-09
-2.69599e-08
3.32338e-16
-1.30742e-09
-2.65123e-08
3.29329e-16
-1.33853e-09
-2.60548e-08
3.26212e-16
-1.36743e-09
-2.5588e-08
3.23108e-16
-1.39412e-09
-2.51128e-08
3.20004e-16
-1.41865e-09
-2.46297e-08
3.16941e-16
-1.44104e-09
-2.41394e-08
3.13851e-16
-1.46133e-09
-2.36427e-08
3.10856e-16
-1.47955e-09
-2.31403e-08
3.0782e-16
-1.49574e-09
-2.26326e-08
3.04893e-16
-1.50995e-09
-2.21205e-08
3.02033e-16
-1.52222e-09
-2.16045e-08
2.99187e-16
-1.53261e-09
-2.10852e-08
2.96395e-16
-1.54115e-09
-2.05632e-08
2.93657e-16
-1.5479e-09
-2.0039e-08
2.91042e-16
-1.55291e-09
-1.95134e-08
2.88467e-16
-1.55625e-09
-1.89867e-08
2.85987e-16
-1.55796e-09
-1.84595e-08
2.8367e-16
-1.5581e-09
-1.79323e-08
2.81407e-16
-1.55673e-09
-1.74056e-08
2.79279e-16
-1.55391e-09
-1.68799e-08
2.77233e-16
-1.5497e-09
-1.63556e-08
2.75363e-16
-1.54415e-09
-1.58331e-08
2.73683e-16
-1.53733e-09
-1.53129e-08
2.7207e-16
-1.52929e-09
-1.47954e-08
2.70729e-16
-1.52009e-09
-1.42808e-08
2.69591e-16
-1.50979e-09
-1.37697e-08
2.6863e-16
-1.49845e-09
-1.32623e-08
2.67885e-16
-1.48611e-09
-1.27589e-08
2.67357e-16
-1.47285e-09
-1.22599e-08
2.67087e-16
-1.4587e-09
-1.17655e-08
2.67169e-16
-1.44371e-09
-1.12761e-08
2.67454e-16
-1.42795e-09
-1.07919e-08
2.68078e-16
-1.41145e-09
-1.03131e-08