/*--------------------------------*- C++ -*----------------------------------*\
  =========                 |
  \\      /  F ield         | OpenFOAM: The Open Source CFD Toolbox
   \\    /   O peration     | Website:  https://openfoam.org
    \\  /    A nd           | Version:  8
     \\/     M anipulation  |
\*---------------------------------------------------------------------------*/
FoamFile
{
    version     2.0;
    format      ascii;
    class       volScalarField;
    location    "3400";
    object      T;
}
// * * * * * * * * * * * * * * * * * * * * * * * * * * * * * * * * * * * * * //

dimensions      [0 0 0 1 0 0 0];

internalField   nonuniform List<scalar> 
46000
(
310.255
309.188
308.396
307.88
307.507
307.213
306.966
306.755
306.568
306.401
306.249
306.109
305.981
305.862
305.751
305.647
305.549
305.457
305.37
305.288
305.21
305.137
305.067
305.001
304.938
304.879
304.822
304.768
304.717
304.668
304.622
304.578
304.536
304.496
304.459
304.423
304.389
304.356
304.325
304.296
304.269
304.243
304.218
304.195
304.173
304.152
304.133
304.115
304.098
304.082
304.067
304.054
304.041
304.03
304.019
304.01
304.001
303.994
303.987
303.982
303.977
303.973
303.97
303.968
303.967
303.966
303.966
303.968
303.97
303.972
303.976
303.981
303.986
303.992
303.999
304.006
304.015
304.024
304.034
304.045
304.056
304.068
304.081
304.094
304.109
304.124
304.139
304.155
304.172
304.19
304.208
304.227
304.246
304.266
304.287
304.308
304.33
304.352
304.375
304.398
304.422
304.447
304.471
304.497
304.523
304.549
304.576
304.603
304.631
304.659
304.687
304.716
304.746
304.775
304.806
304.836
304.867
304.898
304.93
304.962
304.994
305.027
305.06
305.094
305.128
305.162
305.197
305.232
305.267
305.303
305.339
305.376
305.413
305.451
305.489
305.528
305.567
305.607
305.647
305.687
305.729
305.771
305.813
305.857
305.9
305.945
305.99
306.036
306.083
306.131
306.179
306.228
306.278
306.329
306.381
306.433
306.487
306.541
306.597
306.653
306.711
306.769
306.829
306.889
306.95
307.013
307.076
307.141
307.206
307.273
307.341
307.41
307.48
307.551
307.624
307.698
307.774
307.85
307.929
308.009
308.091
308.175
308.262
308.351
308.442
308.537
308.636
308.739
308.848
308.963
309.087
309.221
309.369
309.534
309.725
309.955
310.244
310.627
311.128
311.582
310.255
309.188
308.396
307.88
307.507
307.212
306.966
306.754
306.568
306.401
306.249
306.109
305.981
305.862
305.751
305.647
305.549
305.457
305.37
305.288
305.21
305.137
305.067
305.001
304.938
304.879
304.822
304.768
304.717
304.668
304.622
304.578
304.536
304.496
304.459
304.423
304.389
304.356
304.325
304.296
304.269
304.243
304.218
304.195
304.173
304.152
304.133
304.115
304.098
304.082
304.067
304.054
304.041
304.03
304.019
304.01
304.001
303.994
303.987
303.982
303.977
303.973
303.97
303.968
303.967
303.966
303.966
303.968
303.97
303.972
303.976
303.981
303.986
303.992
303.999
304.007
304.015
304.024
304.034
304.045
304.056
304.068
304.081
304.094
304.109
304.124
304.139
304.155
304.172
304.19
304.208
304.227
304.246
304.266
304.287
304.308
304.33
304.352
304.375
304.398
304.422
304.447
304.471
304.497
304.523
304.549
304.576
304.603
304.631
304.659
304.687
304.716
304.746
304.775
304.806
304.836
304.867
304.898
304.93
304.962
304.994
305.027
305.06
305.094
305.128
305.162
305.197
305.232
305.267
305.303
305.339
305.376
305.413
305.451
305.489
305.528
305.567
305.607
305.647
305.687
305.729
305.771
305.813
305.857
305.9
305.945
305.99
306.036
306.083
306.131
306.179
306.228
306.278
306.329
306.381
306.433
306.487
306.541
306.597
306.653
306.711
306.769
306.829
306.889
306.95
307.013
307.076
307.141
307.206
307.273
307.341
307.41
307.48
307.551
307.624
307.698
307.774
307.851
307.929
308.009
308.091
308.175
308.262
308.351
308.442
308.537
308.636
308.739
308.848
308.963
309.087
309.221
309.369
309.534
309.725
309.955
310.244
310.627
311.128
311.582
306.76
306.31
305.948
305.667
305.443
305.256
305.097
304.957
304.832
304.718
304.614
304.518
304.429
304.346
304.267
304.194
304.125
304.06
303.998
303.94
303.884
303.832
303.782
303.734
303.689
303.646
303.605
303.567
303.53
303.494
303.461
303.429
303.398
303.369
303.341
303.314
303.289
303.265
303.242
303.22
303.199
303.179
303.16
303.142
303.125
303.108
303.093
303.078
303.064
303.051
303.038
303.026
303.015
303.004
302.994
302.985
302.976
302.968
302.961
302.954
302.948
302.942
302.936
302.932
302.927
302.924
302.921
302.918
302.916
302.914
302.913
302.913
302.913
302.913
302.914
302.916
302.917
302.92
302.923
302.926
302.93
302.935
302.939
302.945
302.95
302.957
302.963
302.971
302.978
302.986
302.995
303.004
303.013
303.023
303.033
303.044
303.055
303.066
303.078
303.09
303.103
303.116
303.13
303.144
303.158
303.173
303.188
303.204
303.22
303.236
303.253
303.27
303.288
303.306
303.324
303.343
303.362
303.381
303.401
303.422
303.443
303.464
303.486
303.508
303.531
303.554
303.577
303.601
303.626
303.651
303.676
303.702
303.729
303.756
303.784
303.812
303.841
303.871
303.901
303.932
303.964
303.996
304.029
304.063
304.097
304.132
304.168
304.205
304.243
304.281
304.32
304.36
304.401
304.443
304.486
304.53
304.574
304.62
304.667
304.714
304.763
304.812
304.863
304.914
304.966
305.02
305.074
305.129
305.186
305.243
305.301
305.361
305.421
305.483
305.545
305.609
305.673
305.739
305.806
305.874
305.944
306.015
306.088
306.162
306.239
306.319
306.401
306.487
306.578
306.673
306.776
306.888
307.013
307.153
307.316
307.512
307.757
308.077
308.508
309.003
306.76
306.31
305.948
305.667
305.443
305.256
305.097
304.957
304.832
304.718
304.614
304.518
304.429
304.346
304.267
304.194
304.125
304.06
303.998
303.94
303.884
303.832
303.782
303.734
303.689
303.646
303.605
303.567
303.53
303.494
303.461
303.429
303.398
303.369
303.341
303.314
303.289
303.265
303.242
303.22
303.199
303.179
303.16
303.142
303.125
303.108
303.093
303.078
303.064
303.051
303.038
303.026
303.015
303.004
302.994
302.985
302.976
302.968
302.961
302.954
302.948
302.942
302.936
302.932
302.927
302.924
302.921
302.918
302.916
302.914
302.913
302.913
302.913
302.913
302.914
302.916
302.917
302.92
302.923
302.926
302.93
302.935
302.939
302.945
302.95
302.957
302.963
302.971
302.978
302.986
302.995
303.004
303.013
303.023
303.033
303.044
303.055
303.066
303.078
303.09
303.103
303.116
303.13
303.144
303.158
303.173
303.188
303.204
303.22
303.236
303.253
303.27
303.288
303.306
303.324
303.343
303.362
303.381
303.401
303.422
303.443
303.464
303.486
303.508
303.531
303.554
303.577
303.601
303.626
303.651
303.676
303.703
303.729
303.756
303.784
303.812
303.841
303.871
303.901
303.932
303.964
303.996
304.029
304.063
304.097
304.132
304.168
304.205
304.243
304.281
304.32
304.36
304.401
304.443
304.486
304.53
304.574
304.62
304.667
304.714
304.763
304.812
304.863
304.914
304.966
305.02
305.074
305.129
305.186
305.243
305.301
305.361
305.421
305.483
305.545
305.609
305.673
305.739
305.806
305.874
305.944
306.015
306.088
306.163
306.239
306.319
306.401
306.487
306.578
306.673
306.776
306.888
307.013
307.153
307.316
307.512
307.757
308.077
308.508
309.003
305.122
305.013
304.854
304.696
304.549
304.417
304.298
304.189
304.089
303.997
303.911
303.831
303.756
303.686
303.62
303.557
303.498
303.442
303.389
303.338
303.29
303.245
303.202
303.16
303.121
303.084
303.048
303.014
302.982
302.951
302.921
302.893
302.866
302.84
302.816
302.792
302.77
302.748
302.728
302.708
302.689
302.671
302.654
302.638
302.622
302.607
302.592
302.579
302.566
302.553
302.541
302.53
302.519
302.509
302.499
302.49
302.481
302.473
302.465
302.458
302.451
302.444
302.438
302.433
302.428
302.423
302.419
302.415
302.411
302.408
302.406
302.404
302.402
302.401
302.4
302.399
302.399
302.4
302.4
302.402
302.403
302.405
302.408
302.41
302.414
302.417
302.421
302.426
302.43
302.436
302.441
302.447
302.454
302.46
302.468
302.475
302.483
302.491
302.5
302.509
302.519
302.529
302.539
302.55
302.561
302.572
302.584
302.596
302.609
302.622
302.635
302.649
302.663
302.678
302.693
302.708
302.724
302.74
302.757
302.774
302.792
302.81
302.829
302.848
302.867
302.887
302.908
302.928
302.95
302.972
302.995
303.018
303.042
303.066
303.091
303.116
303.142
303.169
303.197
303.225
303.254
303.283
303.314
303.345
303.377
303.409
303.443
303.477
303.512
303.548
303.585
303.622
303.661
303.7
303.74
303.781
303.824
303.867
303.911
303.955
304.001
304.048
304.096
304.145
304.194
304.245
304.296
304.348
304.402
304.456
304.511
304.567
304.624
304.682
304.74
304.8
304.86
304.922
304.984
305.048
305.112
305.178
305.245
305.313
305.383
305.455
305.529
305.606
305.686
305.77
305.86
305.956
306.06
306.175
306.305
306.452
306.624
306.826
307.065
307.318
305.122
305.013
304.854
304.696
304.549
304.417
304.298
304.189
304.089
303.997
303.911
303.831
303.756
303.686
303.62
303.557
303.498
303.442
303.389
303.338
303.29
303.245
303.202
303.16
303.121
303.084
303.048
303.014
302.982
302.951
302.921
302.893
302.866
302.84
302.816
302.792
302.77
302.748
302.728
302.708
302.689
302.671
302.654
302.638
302.622
302.607
302.593
302.579
302.566
302.553
302.541
302.53
302.519
302.509
302.499
302.49
302.481
302.473
302.465
302.458
302.451
302.444
302.438
302.433
302.428
302.423
302.419
302.415
302.411
302.408
302.406
302.404
302.402
302.401
302.4
302.399
302.399
302.4
302.4
302.402
302.403
302.405
302.408
302.41
302.414
302.417
302.421
302.426
302.43
302.436
302.441
302.447
302.454
302.46
302.468
302.475
302.483
302.491
302.5
302.509
302.519
302.529
302.539
302.55
302.561
302.572
302.584
302.596
302.609
302.622
302.635
302.649
302.663
302.678
302.693
302.708
302.724
302.74
302.757
302.774
302.792
302.81
302.829
302.848
302.867
302.887
302.908
302.928
302.95
302.972
302.995
303.018
303.042
303.066
303.091
303.116
303.142
303.169
303.197
303.225
303.254
303.283
303.314
303.345
303.377
303.409
303.443
303.477
303.512
303.548
303.585
303.622
303.661
303.7
303.74
303.781
303.824
303.867
303.911
303.955
304.001
304.048
304.096
304.145
304.194
304.245
304.296
304.348
304.402
304.456
304.511
304.567
304.624
304.682
304.74
304.8
304.86
304.922
304.984
305.048
305.112
305.178
305.245
305.313
305.383
305.455
305.529
305.606
305.686
305.77
305.86
305.956
306.06
306.175
306.305
306.452
306.624
306.826
307.065
307.318
304.253
304.238
304.167
304.075
303.977
303.881
303.789
303.701
303.619
303.541
303.468
303.399
303.333
303.271
303.213
303.157
303.104
303.053
303.005
302.96
302.916
302.875
302.836
302.798
302.762
302.728
302.695
302.664
302.634
302.605
302.578
302.552
302.527
302.503
302.481
302.459
302.438
302.418
302.399
302.38
302.362
302.346
302.329
302.314
302.299
302.285
302.271
302.258
302.245
302.233
302.222
302.21
302.2
302.19
302.18
302.171
302.162
302.154
302.146
302.138
302.131
302.124
302.118
302.112
302.107
302.101
302.097
302.092
302.088
302.084
302.081
302.078
302.076
302.074
302.072
302.07
302.069
302.069
302.068
302.069
302.069
302.07
302.071
302.073
302.075
302.077
302.08
302.083
302.086
302.09
302.094
302.099
302.104
302.109
302.115
302.121
302.127
302.134
302.141
302.149
302.157
302.165
302.174
302.183
302.192
302.202
302.212
302.223
302.234
302.245
302.257
302.27
302.282
302.295
302.309
302.323
302.337
302.352
302.367
302.382
302.398
302.415
302.432
302.45
302.468
302.486
302.505
302.525
302.545
302.565
302.586
302.608
302.631
302.654
302.677
302.701
302.726
302.752
302.778
302.805
302.832
302.861
302.89
302.919
302.95
302.981
303.014
303.047
303.08
303.115
303.15
303.187
303.224
303.262
303.301
303.341
303.382
303.423
303.466
303.51
303.554
303.599
303.646
303.693
303.741
303.79
303.84
303.89
303.942
303.994
304.048
304.102
304.156
304.212
304.269
304.326
304.384
304.442
304.502
304.562
304.624
304.686
304.749
304.813
304.878
304.945
305.014
305.084
305.157
305.233
305.312
305.395
305.484
305.579
305.681
305.792
305.91
306.034
306.157
306.265
304.253
304.238
304.167
304.075
303.977
303.881
303.789
303.701
303.619
303.541
303.468
303.399
303.333
303.271
303.213
303.157
303.104
303.053
303.005
302.96
302.916
302.875
302.836
302.798
302.762
302.728
302.695
302.664
302.634
302.605
302.578
302.552
302.527
302.503
302.481
302.459
302.438
302.418
302.399
302.38
302.362
302.346
302.329
302.314
302.299
302.285
302.271
302.258
302.245
302.233
302.222
302.21
302.2
302.19
302.18
302.171
302.162
302.154
302.146
302.138
302.131
302.124
302.118
302.112
302.107
302.101
302.097
302.092
302.088
302.084
302.081
302.078
302.076
302.074
302.072
302.07
302.069
302.069
302.068
302.069
302.069
302.07
302.071
302.073
302.075
302.077
302.08
302.083
302.086
302.09
302.094
302.099
302.104
302.109
302.115
302.121
302.127
302.134
302.141
302.149
302.157
302.165
302.174
302.183
302.192
302.202
302.212
302.223
302.234
302.245
302.257
302.27
302.282
302.295
302.309
302.323
302.337
302.352
302.367
302.382
302.398
302.415
302.432
302.45
302.468
302.486
302.505
302.525
302.545
302.565
302.587
302.608
302.631
302.654
302.677
302.701
302.726
302.752
302.778
302.805
302.832
302.861
302.89
302.919
302.95
302.981
303.014
303.047
303.08
303.115
303.15
303.187
303.224
303.262
303.301
303.341
303.382
303.423
303.466
303.51
303.554
303.599
303.646
303.693
303.741
303.79
303.84
303.89
303.942
303.994
304.048
304.102
304.156
304.212
304.269
304.326
304.384
304.442
304.502
304.562
304.624
304.686
304.749
304.813
304.878
304.945
305.014
305.084
305.157
305.233
305.312
305.395
305.484
305.579
305.681
305.792
305.91
306.034
306.157
306.265
303.699
303.705
303.671
303.614
303.548
303.477
303.405
303.334
303.266
303.2
303.136
303.076
303.018
302.962
302.91
302.859
302.811
302.765
302.721
302.679
302.639
302.601
302.564
302.529
302.496
302.464
302.433
302.404
302.376
302.349
302.324
302.299
302.276
302.253
302.232
302.211
302.191
302.172
302.154
302.136
302.119
302.103
302.088
302.073
302.058
302.045
302.031
302.019
302.006
301.995
301.983
301.973
301.962
301.952
301.943
301.933
301.925
301.916
301.908
301.901
301.893
301.887
301.88
301.874
301.868
301.862
301.857
301.853
301.848
301.844
301.84
301.837
301.834
301.831
301.829
301.827
301.825
301.824
301.823
301.822
301.822
301.822
301.823
301.824
301.825
301.826
301.828
301.831
301.833
301.836
301.84
301.843
301.847
301.852
301.856
301.862
301.867
301.873
301.879
301.886
301.893
301.9
301.908
301.916
301.925
301.933
301.943
301.952
301.962
301.973
301.984
301.995
302.006
302.019
302.031
302.044
302.057
302.071
302.085
302.1
302.115
302.131
302.147
302.163
302.18
302.198
302.216
302.235
302.254
302.274
302.294
302.315
302.336
302.358
302.381
302.404
302.428
302.453
302.478
302.504
302.531
302.559
302.587
302.616
302.646
302.676
302.707
302.74
302.772
302.806
302.841
302.876
302.913
302.95
302.988
303.027
303.067
303.108
303.149
303.192
303.235
303.28
303.325
303.371
303.418
303.466
303.514
303.564
303.614
303.665
303.717
303.769
303.822
303.876
303.931
303.986
304.042
304.099
304.156
304.214
304.273
304.332
304.392
304.452
304.514
304.577
304.64
304.705
304.772
304.84
304.91
304.983
305.058
305.136
305.217
305.299
305.381
305.457
305.521
305.564
303.699
303.705
303.671
303.614
303.548
303.477
303.405
303.334
303.266
303.2
303.136
303.076
303.018
302.962
302.91
302.859
302.811
302.765
302.721
302.679
302.639
302.601
302.564
302.529
302.496
302.464
302.433
302.404
302.376
302.349
302.324
302.299
302.276
302.253
302.232
302.211
302.191
302.172
302.154
302.136
302.119
302.103
302.088
302.073
302.058
302.045
302.031
302.019
302.006
301.995
301.983
301.973
301.962
301.952
301.943
301.933
301.925
301.916
301.908
301.901
301.893
301.887
301.88
301.874
301.868
301.862
301.857
301.853
301.848
301.844
301.84
301.837
301.834
301.831
301.829
301.827
301.825
301.824
301.823
301.822
301.822
301.822
301.823
301.824
301.825
301.826
301.828
301.831
301.833
301.836
301.84
301.843
301.847
301.852
301.856
301.862
301.867
301.873
301.879
301.886
301.893
301.9
301.908
301.916
301.925
301.933
301.943
301.952
301.962
301.973
301.984
301.995
302.006
302.019
302.031
302.044
302.057
302.071
302.085
302.1
302.115
302.131
302.147
302.163
302.18
302.198
302.216
302.235
302.254
302.274
302.294
302.315
302.336
302.358
302.381
302.404
302.428
302.453
302.478
302.504
302.531
302.559
302.587
302.616
302.646
302.676
302.707
302.74
302.772
302.806
302.841
302.876
302.913
302.95
302.988
303.027
303.067
303.108
303.149
303.192
303.235
303.28
303.325
303.371
303.418
303.466
303.514
303.564
303.614
303.665
303.717
303.769
303.822
303.876
303.931
303.986
304.042
304.099
304.156
304.214
304.273
304.332
304.392
304.452
304.514
304.577
304.64
304.705
304.772
304.84
304.91
304.983
305.058
305.136
305.217
305.299
305.381
305.457
305.521
305.564
303.296
303.305
303.287
303.25
303.202
303.149
303.092
303.035
302.977
302.921
302.866
302.812
302.761
302.711
302.663
302.617
302.573
302.531
302.49
302.452
302.414
302.379
302.345
302.312
302.28
302.25
302.222
302.194
302.168
302.142
302.118
302.095
302.073
302.051
302.031
302.011
301.992
301.974
301.956
301.939
301.923
301.908
301.893
301.878
301.864
301.851
301.838
301.826
301.814
301.802
301.791
301.78
301.77
301.76
301.751
301.742
301.733
301.725
301.717
301.709
301.702
301.695
301.688
301.682
301.675
301.67
301.664
301.659
301.655
301.65
301.646
301.643
301.639
301.636
301.633
301.631
301.629
301.627
301.626
301.625
301.624
301.624
301.624
301.624
301.625
301.626
301.627
301.629
301.631
301.633
301.636
301.639
301.642
301.646
301.65
301.655
301.66
301.665
301.67
301.676
301.683
301.689
301.696
301.704
301.711
301.72
301.728
301.737
301.746
301.756
301.766
301.777
301.788
301.799
301.811
301.823
301.836
301.849
301.862
301.876
301.891
301.906
301.921
301.937
301.954
301.97
301.988
302.006
302.024
302.043
302.063
302.083
302.104
302.126
302.148
302.17
302.194
302.218
302.242
302.268
302.294
302.321
302.348
302.377
302.406
302.436
302.467
302.498
302.53
302.563
302.597
302.632
302.668
302.704
302.742
302.78
302.819
302.859
302.9
302.942
302.984
303.028
303.072
303.117
303.163
303.21
303.258
303.306
303.355
303.405
303.455
303.507
303.559
303.611
303.664
303.718
303.772
303.827
303.882
303.937
303.993
304.05
304.107
304.165
304.223
304.282
304.341
304.401
304.462
304.523
304.586
304.649
304.713
304.777
304.841
304.903
304.961
305.009
305.044
305.058
303.296
303.305
303.287
303.25
303.202
303.149
303.092
303.035
302.977
302.921
302.866
302.812
302.761
302.711
302.663
302.617
302.573
302.531
302.49
302.452
302.414
302.379
302.344
302.312
302.28
302.25
302.222
302.194
302.168
302.142
302.118
302.095
302.073
302.051
302.031
302.011
301.992
301.974
301.956
301.939
301.923
301.908
301.893
301.878
301.864
301.851
301.838
301.826
301.814
301.802
301.791
301.78
301.77
301.76
301.751
301.742
301.733
301.725
301.717
301.709
301.702
301.695
301.688
301.682
301.675
301.67
301.664
301.659
301.655
301.65
301.646
301.643
301.639
301.636
301.633
301.631
301.629
301.627
301.626
301.625
301.624
301.624
301.624
301.624
301.625
301.626
301.627
301.629
301.631
301.633
301.636
301.639
301.642
301.646
301.65
301.655
301.66
301.665
301.67
301.676
301.683
301.689
301.696
301.704
301.711
301.72
301.728
301.737
301.746
301.756
301.766
301.777
301.788
301.799
301.811
301.823
301.836
301.849
301.862
301.876
301.891
301.906
301.921
301.937
301.954
301.97
301.988
302.006
302.024
302.043
302.063
302.083
302.104
302.126
302.148
302.17
302.194
302.218
302.242
302.268
302.294
302.321
302.348
302.377
302.406
302.436
302.467
302.498
302.53
302.563
302.597
302.632
302.668
302.704
302.742
302.78
302.819
302.859
302.9
302.942
302.984
303.028
303.072
303.117
303.163
303.21
303.258
303.306
303.355
303.405
303.455
303.507
303.559
303.611
303.664
303.718
303.772
303.827
303.882
303.937
303.993
304.05
304.107
304.165
304.223
304.282
304.341
304.401
304.462
304.523
304.586
304.649
304.713
304.777
304.841
304.903
304.961
305.009
305.044
305.058
302.978
302.986
302.974
302.948
302.913
302.871
302.826
302.778
302.73
302.681
302.633
302.586
302.54
302.495
302.452
302.41
302.37
302.331
302.293
302.257
302.223
302.189
302.157
302.126
302.097
302.069
302.041
302.015
301.99
301.966
301.943
301.921
301.9
301.879
301.86
301.841
301.822
301.805
301.788
301.772
301.756
301.741
301.727
301.713
301.699
301.686
301.674
301.661
301.65
301.638
301.628
301.617
301.607
301.597
301.588
301.579
301.57
301.562
301.554
301.546
301.539
301.532
301.525
301.518
301.512
301.506
301.501
301.496
301.491
301.486
301.482
301.478
301.474
301.471
301.468
301.465
301.463
301.461
301.459
301.458
301.457
301.456
301.455
301.455
301.455
301.456
301.457
301.458
301.46
301.462
301.464
301.466
301.469
301.473
301.476
301.48
301.485
301.489
301.494
301.5
301.506
301.512
301.518
301.525
301.532
301.54
301.548
301.557
301.565
301.574
301.584
301.594
301.604
301.615
301.627
301.638
301.65
301.663
301.676
301.689
301.703
301.718
301.733
301.748
301.764
301.78
301.797
301.815
301.833
301.851
301.87
301.89
301.91
301.931
301.953
301.975
301.998
302.021
302.046
302.071
302.096
302.123
302.15
302.177
302.206
302.235
302.266
302.296
302.328
302.361
302.394
302.428
302.464
302.499
302.536
302.574
302.612
302.652
302.692
302.733
302.775
302.818
302.861
302.905
302.951
302.996
303.043
303.09
303.138
303.187
303.237
303.287
303.337
303.388
303.44
303.492
303.544
303.597
303.651
303.704
303.758
303.812
303.867
303.921
303.976
304.031
304.087
304.142
304.198
304.253
304.309
304.364
304.419
304.473
304.524
304.572
304.613
304.645
304.664
304.668
302.978
302.986
302.974
302.948
302.913
302.871
302.826
302.778
302.73
302.681
302.633
302.586
302.54
302.495
302.452
302.41
302.37
302.331
302.293
302.257
302.223
302.189
302.157
302.126
302.097
302.069
302.041
302.015
301.99
301.966
301.943
301.921
301.9
301.879
301.86
301.841
301.822
301.805
301.788
301.772
301.756
301.741
301.727
301.713
301.699
301.686
301.674
301.661
301.65
301.638
301.628
301.617
301.607
301.597
301.588
301.579
301.57
301.562
301.554
301.546
301.539
301.532
301.525
301.518
301.512
301.506
301.501
301.496
301.491
301.486
301.482
301.478
301.474
301.471
301.468
301.465
301.463
301.461
301.459
301.458
301.457
301.456
301.455
301.455
301.455
301.456
301.457
301.458
301.46
301.462
301.464
301.466
301.469
301.473
301.476
301.48
301.485
301.489
301.494
301.5
301.506
301.512
301.518
301.525
301.532
301.54
301.548
301.557
301.565
301.574
301.584
301.594
301.604
301.615
301.627
301.638
301.65
301.663
301.676
301.689
301.703
301.718
301.733
301.748
301.764
301.78
301.797
301.815
301.833
301.851
301.87
301.89
301.91
301.931
301.953
301.975
301.998
302.021
302.046
302.071
302.096
302.123
302.15
302.177
302.206
302.235
302.266
302.296
302.328
302.361
302.394
302.428
302.464
302.499
302.536
302.574
302.612
302.652
302.692
302.733
302.775
302.818
302.861
302.905
302.951
302.996
303.043
303.09
303.138
303.187
303.237
303.287
303.337
303.388
303.44
303.492
303.544
303.597
303.651
303.704
303.758
303.812
303.867
303.921
303.976
304.031
304.087
304.142
304.198
304.253
304.309
304.364
304.419
304.473
304.524
304.572
304.613
304.645
304.664
304.668
302.715
302.72
302.71
302.691
302.663
302.63
302.593
302.553
302.512
302.47
302.428
302.386
302.345
302.305
302.265
302.227
302.19
302.154
302.119
302.085
302.053
302.022
301.992
301.963
301.935
301.908
301.882
301.858
301.834
301.811
301.789
301.768
301.747
301.728
301.709
301.691
301.673
301.656
301.64
301.624
301.609
301.595
301.581
301.567
301.554
301.541
301.529
301.517
301.506
301.495
301.484
301.474
301.464
301.454
301.445
301.436
301.427
301.419
301.411
301.403
301.396
301.388
301.382
301.375
301.369
301.363
301.357
301.352
301.347
301.342
301.338
301.333
301.33
301.326
301.323
301.32
301.317
301.315
301.313
301.311
301.31
301.309
301.308
301.307
301.307
301.308
301.308
301.309
301.31
301.312
301.314
301.316
301.318
301.321
301.324
301.328
301.332
301.336
301.341
301.346
301.351
301.357
301.363
301.37
301.376
301.384
301.391
301.399
301.407
301.416
301.425
301.435
301.445
301.455
301.466
301.477
301.489
301.501
301.514
301.527
301.54
301.554
301.569
301.584
301.599
301.615
301.631
301.648
301.666
301.684
301.703
301.722
301.742
301.763
301.784
301.806
301.828
301.851
301.875
301.899
301.924
301.95
301.977
302.004
302.033
302.062
302.091
302.122
302.153
302.185
302.218
302.252
302.286
302.322
302.358
302.395
302.433
302.472
302.511
302.552
302.593
302.635
302.678
302.721
302.765
302.811
302.856
302.903
302.95
302.998
303.046
303.095
303.144
303.194
303.244
303.295
303.346
303.397
303.448
303.5
303.552
303.604
303.656
303.708
303.76
303.811
303.863
303.914
303.965
304.016
304.066
304.114
304.161
304.206
304.248
304.286
304.317
304.339
304.35
304.349
302.715
302.72
302.71
302.691
302.663
302.63
302.593
302.553
302.512
302.47
302.428
302.386
302.345
302.305
302.265
302.227
302.19
302.154
302.119
302.085
302.053
302.022
301.992
301.963
301.935
301.908
301.882
301.858
301.834
301.811
301.789
301.768
301.747
301.728
301.709
301.691
301.673
301.656
301.64
301.624
301.609
301.595
301.581
301.567
301.554
301.541
301.529
301.517
301.506
301.495
301.484
301.474
301.464
301.454
301.445
301.436
301.427
301.419
301.411
301.403
301.396
301.388
301.382
301.375
301.369
301.363
301.357
301.352
301.347
301.342
301.338
301.333
301.33
301.326
301.323
301.32
301.317
301.315
301.313
301.311
301.31
301.309
301.308
301.307
301.307
301.308
301.308
301.309
301.31
301.312
301.314
301.316
301.318
301.321
301.324
301.328
301.332
301.336
301.341
301.346
301.351
301.357
301.363
301.37
301.376
301.384
301.391
301.399
301.407
301.416
301.425
301.435
301.445
301.455
301.466
301.477
301.489
301.501
301.514
301.527
301.54
301.554
301.569
301.584
301.599
301.615
301.631
301.648
301.666
301.684
301.703
301.722
301.742
301.763
301.784
301.806
301.828
301.851
301.875
301.899
301.924
301.95
301.977
302.004
302.033
302.061
302.091
302.122
302.153
302.185
302.218
302.252
302.286
302.322
302.358
302.395
302.433
302.472
302.511
302.552
302.593
302.635
302.678
302.721
302.765
302.811
302.856
302.903
302.95
302.998
303.046
303.095
303.144
303.194
303.244
303.295
303.346
303.397
303.448
303.5
303.552
303.604
303.656
303.708
303.76
303.811
303.863
303.914
303.965
304.016
304.066
304.114
304.161
304.206
304.248
304.286
304.317
304.339
304.35
304.349
302.488
302.49
302.482
302.466
302.444
302.417
302.386
302.352
302.316
302.28
302.243
302.206
302.169
302.132
302.096
302.061
302.027
301.994
301.961
301.93
301.9
301.87
301.842
301.815
301.789
301.763
301.739
301.715
301.693
301.671
301.65
301.629
301.61
301.591
301.573
301.555
301.539
301.522
301.507
301.491
301.477
301.463
301.449
301.436
301.423
301.41
301.399
301.387
301.376
301.365
301.354
301.344
301.334
301.325
301.316
301.307
301.298
301.29
301.282
301.274
301.267
301.26
301.253
301.246
301.24
301.234
301.228
301.223
301.217
301.213
301.208
301.204
301.2
301.196
301.192
301.189
301.186
301.184
301.182
301.18
301.178
301.177
301.176
301.175
301.175
301.174
301.175
301.175
301.176
301.177
301.179
301.181
301.183
301.186
301.188
301.192
301.195
301.199
301.203
301.208
301.213
301.218
301.224
301.23
301.237
301.244
301.251
301.258
301.266
301.275
301.283
301.293
301.302
301.312
301.323
301.334
301.345
301.357
301.369
301.381
301.395
301.408
301.422
301.437
301.452
301.467
301.484
301.5
301.517
301.535
301.554
301.572
301.592
301.612
301.633
301.654
301.676
301.699
301.723
301.747
301.771
301.797
301.823
301.85
301.878
301.906
301.936
301.966
301.997
302.028
302.061
302.094
302.128
302.163
302.199
302.235
302.273
302.311
302.35
302.39
302.43
302.472
302.514
302.557
302.6
302.644
302.689
302.735
302.781
302.828
302.875
302.923
302.971
303.02
303.069
303.118
303.167
303.217
303.267
303.317
303.366
303.416
303.466
303.515
303.564
303.613
303.662
303.709
303.756
303.802
303.847
303.89
303.931
303.969
304.004
304.034
304.058
304.075
304.082
304.079
302.488
302.49
302.482
302.466
302.444
302.417
302.386
302.352
302.316
302.28
302.243
302.206
302.169
302.132
302.096
302.061
302.027
301.994
301.961
301.93
301.9
301.87
301.842
301.815
301.789
301.763
301.739
301.715
301.693
301.671
301.65
301.629
301.61
301.591
301.573
301.555
301.539
301.522
301.507
301.491
301.477
301.463
301.449
301.436
301.423
301.41
301.399
301.387
301.376
301.365
301.354
301.344
301.334
301.325
301.316
301.307
301.298
301.29
301.282
301.274
301.267
301.26
301.253
301.246
301.24
301.234
301.228
301.223
301.217
301.213
301.208
301.204
301.2
301.196
301.192
301.189
301.186
301.184
301.182
301.18
301.178
301.177
301.176
301.175
301.175
301.174
301.175
301.175
301.176
301.177
301.179
301.181
301.183
301.186
301.188
301.192
301.195
301.199
301.203
301.208
301.213
301.218
301.224
301.23
301.237
301.244
301.251
301.258
301.266
301.275
301.283
301.293
301.302
301.312
301.323
301.334
301.345
301.357
301.369
301.381
301.395
301.408
301.422
301.437
301.452
301.467
301.484
301.5
301.517
301.535
301.554
301.572
301.592
301.612
301.633
301.654
301.676
301.699
301.723
301.747
301.771
301.797
301.823
301.85
301.878
301.906
301.936
301.966
301.997
302.028
302.061
302.094
302.128
302.163
302.199
302.235
302.273
302.311
302.35
302.39
302.43
302.472
302.514
302.557
302.6
302.644
302.689
302.735
302.781
302.828
302.875
302.923
302.971
303.02
303.069
303.118
303.167
303.217
303.267
303.317
303.366
303.416
303.466
303.515
303.564
303.613
303.662
303.709
303.756
303.802
303.847
303.89
303.931
303.969
304.004
304.034
304.058
304.075
304.082
304.078
302.288
302.288
302.28
302.267
302.248
302.225
302.198
302.169
302.138
302.106
302.073
302.04
302.007
301.973
301.941
301.908
301.877
301.846
301.816
301.787
301.758
301.731
301.704
301.679
301.654
301.63
301.607
301.584
301.563
301.542
301.522
301.502
301.483
301.465
301.448
301.431
301.415
301.399
301.384
301.369
301.355
301.341
301.328
301.315
301.303
301.291
301.279
301.268
301.257
301.246
301.236
301.226
301.216
301.207
301.197
301.189
301.18
301.172
301.164
301.156
301.149
301.142
301.135
301.128
301.122
301.116
301.11
301.104
301.099
301.094
301.089
301.085
301.081
301.077
301.073
301.07
301.067
301.064
301.062
301.059
301.058
301.056
301.055
301.054
301.053
301.053
301.053
301.053
301.054
301.055
301.056
301.057
301.059
301.062
301.064
301.067
301.07
301.074
301.078
301.082
301.087
301.092
301.097
301.103
301.109
301.116
301.123
301.13
301.138
301.146
301.154
301.163
301.172
301.182