/*--------------------------------*- C++ -*----------------------------------*\
  =========                 |
  \\      /  F ield         | OpenFOAM: The Open Source CFD Toolbox
   \\    /   O peration     | Website:  https://openfoam.org
    \\  /    A nd           | Version:  8
     \\/     M anipulation  |
\*---------------------------------------------------------------------------*/
FoamFile
{
    version     2.0;
    format      ascii;
    class       volVectorField;
    location    "3400";
    object      U;
}
// * * * * * * * * * * * * * * * * * * * * * * * * * * * * * * * * * * * * * //

dimensions      [0 1 -1 0 0 0 0];

internalField   nonuniform List<vector> 
46000
(
(0.00144181 8.96159e-07 -0.0014762)
(0.00749294 3.02013e-07 -0.00433807)
(0.0139818 1.82956e-07 -0.00428621)
(0.0185777 1.23415e-07 -0.00276552)
(0.020811 1.05397e-07 -0.00110592)
(0.020928 9.53899e-08 0.000347394)
(0.0192695 8.77252e-08 0.00152539)
(0.0161987 7.96084e-08 0.00244562)
(0.0120177 7.14247e-08 0.00315482)
(0.00697371 6.46535e-08 0.00369939)
(0.0012611 5.84991e-08 0.00411227)
(-0.00497408 5.19035e-08 0.00441343)
(-0.0115833 4.60056e-08 0.00462733)
(-0.0184872 4.17278e-08 0.00477947)
(-0.0256034 3.8713e-08 0.0048833)
(-0.0328718 3.64358e-08 0.00494881)
(-0.0402426 3.44468e-08 0.00498365)
(-0.0476751 3.25784e-08 0.00499373)
(-0.0551358 3.08738e-08 0.00498364)
(-0.0625964 2.94631e-08 0.00495696)
(-0.0700333 2.84597e-08 0.00491652)
(-0.077426 2.7853e-08 0.00486456)
(-0.0847572 2.75561e-08 0.00480284)
(-0.0920116 2.74549e-08 0.00473278)
(-0.0991758 2.7436e-08 0.00465551)
(-0.106238 2.7434e-08 0.00457196)
(-0.113187 2.7404e-08 0.00448285)
(-0.120014 2.73408e-08 0.00438881)
(-0.126709 2.72462e-08 0.00429032)
(-0.133264 2.71251e-08 0.00418781)
(-0.139672 2.69676e-08 0.00408164)
(-0.145926 2.6792e-08 0.00397209)
(-0.152019 2.6585e-08 0.00385944)
(-0.157945 2.63515e-08 0.00374392)
(-0.163698 2.61015e-08 0.00362574)
(-0.169273 2.58418e-08 0.00350509)
(-0.174664 2.55806e-08 0.00338215)
(-0.179867 2.53288e-08 0.00325711)
(-0.184878 2.50997e-08 0.00313012)
(-0.189691 2.48957e-08 0.00300136)
(-0.194305 2.47244e-08 0.00287098)
(-0.198714 2.45865e-08 0.00273916)
(-0.202916 2.44921e-08 0.00260606)
(-0.206908 2.44287e-08 0.00247186)
(-0.210688 2.43987e-08 0.00233671)
(-0.214252 2.43979e-08 0.00220078)
(-0.217601 2.44247e-08 0.00206427)
(-0.220731 2.44658e-08 0.00192733)
(-0.223641 2.45269e-08 0.00179015)
(-0.226332 2.45956e-08 0.0016529)
(-0.228802 2.46753e-08 0.00151577)
(-0.231051 2.47608e-08 0.00137893)
(-0.23308 2.48522e-08 0.00124255)
(-0.234889 2.49529e-08 0.00110683)
(-0.236479 2.5062e-08 0.000971936)
(-0.23785 2.51819e-08 0.000838046)
(-0.239006 2.53136e-08 0.000705336)
(-0.239947 2.54545e-08 0.000573976)
(-0.240677 2.56122e-08 0.000444121)
(-0.241196 2.5779e-08 0.000315891)
(-0.241509 2.59543e-08 0.000189334)
(-0.241618 2.61321e-08 6.44573e-05)
(-0.241527 2.63632e-08 -5.82567e-05)
(-0.241239 2.66552e-08 -0.000178412)
(-0.240758 2.69447e-08 -0.000296129)
(-0.240089 2.72485e-08 -0.000411398)
(-0.239234 2.75798e-08 -0.000524114)
(-0.2382 2.79303e-08 -0.000634155)
(-0.236991 2.83092e-08 -0.000741402)
(-0.23561 2.87107e-08 -0.000845749)
(-0.234065 2.91455e-08 -0.000947101)
(-0.232359 2.95904e-08 -0.00104537)
(-0.230499 3.0062e-08 -0.00114049)
(-0.228489 3.05595e-08 -0.00123237)
(-0.226335 3.10771e-08 -0.00132097)
(-0.224044 3.16223e-08 -0.00140623)
(-0.22162 3.21784e-08 -0.0014881)
(-0.21907 3.27545e-08 -0.00156654)
(-0.2164 3.3345e-08 -0.00164153)
(-0.213615 3.39513e-08 -0.00171304)
(-0.210721 3.45703e-08 -0.00178105)
(-0.207724 3.51969e-08 -0.00184556)
(-0.204631 3.58377e-08 -0.00190655)
(-0.201448 3.64862e-08 -0.00196403)
(-0.198179 3.71423e-08 -0.00201801)
(-0.194831 3.78086e-08 -0.00206851)
(-0.191411 3.84833e-08 -0.00211555)
(-0.187922 3.91581e-08 -0.00215915)
(-0.184373 3.98431e-08 -0.00219934)
(-0.180767 4.05299e-08 -0.00223618)
(-0.17711 4.12269e-08 -0.00226969)
(-0.173408 4.19273e-08 -0.00229993)
(-0.169667 4.26279e-08 -0.00232695)
(-0.165891 4.33287e-08 -0.00235081)
(-0.162085 4.40413e-08 -0.00237157)
(-0.158255 4.47441e-08 -0.00238931)
(-0.154404 4.54587e-08 -0.00240407)
(-0.150539 4.61685e-08 -0.00241596)
(-0.146663 4.68817e-08 -0.00242503)
(-0.142781 4.75902e-08 -0.00243137)
(-0.138897 4.83005e-08 -0.00243506)
(-0.135014 4.9011e-08 -0.0024362)
(-0.131138 4.97067e-08 -0.00243485)
(-0.127272 5.04075e-08 -0.00243113)
(-0.123419 5.11019e-08 -0.0024251)
(-0.119582 5.17981e-08 -0.00241688)
(-0.115766 5.24795e-08 -0.00240654)
(-0.111973 5.31611e-08 -0.00239419)
(-0.108205 5.38295e-08 -0.00237991)
(-0.104467 5.45048e-08 -0.0023638)
(-0.10076 5.51653e-08 -0.00234595)
(-0.0970873 5.58159e-08 -0.00232646)
(-0.0934508 5.64734e-08 -0.0023054)
(-0.0898528 5.7121e-08 -0.00228287)
(-0.0862954 5.77572e-08 -0.00225896)
(-0.0827803 5.83986e-08 -0.00223375)
(-0.0793095 5.90301e-08 -0.00220731)
(-0.0758846 5.96652e-08 -0.00217973)
(-0.0725071 6.02871e-08 -0.00215107)
(-0.0691784 6.09059e-08 -0.00212141)
(-0.0658998 6.15265e-08 -0.00209081)
(-0.0626726 6.21506e-08 -0.00205933)
(-0.0594979 6.2775e-08 -0.00202702)
(-0.0563767 6.33995e-08 -0.00199394)
(-0.05331 6.40427e-08 -0.00196013)
(-0.0502987 6.4676e-08 -0.00192563)
(-0.0473437 6.53246e-08 -0.00189046)
(-0.0444459 6.59817e-08 -0.00185466)
(-0.0416059 6.66541e-08 -0.00181824)
(-0.0388246 6.73435e-08 -0.00178123)
(-0.0361028 6.80414e-08 -0.00174362)
(-0.0334411 6.87546e-08 -0.00170541)
(-0.0308403 6.94949e-08 -0.00166661)
(-0.0283013 7.02388e-08 -0.0016272)
(-0.0258248 7.10097e-08 -0.00158717)
(-0.0234116 7.18076e-08 -0.00154648)
(-0.0210626 7.26125e-08 -0.00150512)
(-0.0187787 7.3478e-08 -0.00146304)
(-0.016561 7.43605e-08 -0.00142023)
(-0.0144105 7.52735e-08 -0.00137662)
(-0.0123282 7.6207e-08 -0.00133218)
(-0.0103154 7.71508e-08 -0.00128687)
(-0.00837325 7.81453e-08 -0.00124064)
(-0.00650315 7.91904e-08 -0.00119343)
(-0.00470648 8.02593e-08 -0.00114522)
(-0.00298464 8.13321e-08 -0.00109602)
(-0.00133922 8.24154e-08 -0.00104617)
(0.000229542 8.32579e-08 -0.000994951)
(0.00171836 8.39065e-08 -0.000941762)
(0.00312577 8.47097e-08 -0.000887182)
(0.00445005 8.56104e-08 -0.000831484)
(0.00568927 8.66324e-08 -0.00077469)
(0.00684165 8.77587e-08 -0.000716807)
(0.00790539 8.89964e-08 -0.000657849)
(0.0088787 9.03419e-08 -0.000597839)
(0.00975983 9.17687e-08 -0.000536818)
(0.0105471 9.33035e-08 -0.000474841)
(0.0112389 9.49263e-08 -0.000411981)
(0.0118336 9.66908e-08 -0.00034833)
(0.0123301 9.85604e-08 -0.000284002)
(0.012727 1.00532e-07 -0.000219132)
(0.0130235 1.02615e-07 -0.000153886)
(0.0132187 1.04806e-07 -8.84546e-05)
(0.0133123 1.07022e-07 -2.30498e-05)
(0.0133041 1.0949e-07 4.21579e-05)
(0.0131944 1.12223e-07 0.000106946)
(0.0129835 1.15027e-07 0.000171012)
(0.0126726 1.17981e-07 0.000234057)
(0.0122631 1.21095e-07 0.000295739)
(0.011757 1.24415e-07 0.000355687)
(0.0111569 1.27898e-07 0.000413496)
(0.010466 1.31586e-07 0.000468731)
(0.00968818 1.35453e-07 0.000520919)
(0.00882823 1.39539e-07 0.000569554)
(0.00789156 1.43791e-07 0.000614087)
(0.00688454 1.48255e-07 0.000653926)
(0.00581448 1.52884e-07 0.000688432)
(0.00468974 1.5771e-07 0.000716914)
(0.00351979 1.62762e-07 0.000738623)
(0.00231527 1.67973e-07 0.000752743)
(0.00108867 1.73402e-07 0.000758367)
(-0.00014742 1.78532e-07 0.000754026)
(-0.00137645 1.83356e-07 0.000738236)
(-0.00258093 1.88629e-07 0.000710164)
(-0.00374213 1.94434e-07 0.000669044)
(-0.00483812 2.00588e-07 0.000613472)
(-0.00584479 2.07066e-07 0.000541498)
(-0.00673474 2.13802e-07 0.000451266)
(-0.00747729 2.20795e-07 0.000340782)
(-0.00803811 2.28123e-07 0.000207964)
(-0.00837918 2.36112e-07 5.09849e-05)
(-0.00845925 2.44696e-07 -0.000131039)
(-0.00823538 2.53882e-07 -0.000336642)
(-0.00766763 2.64027e-07 -0.000560426)
(-0.00672499 2.74992e-07 -0.000788311)
(-0.00540249 2.86949e-07 -0.000987649)
(-0.00375143 3.00482e-07 -0.00108955)
(-0.00194492 3.13868e-07 -0.000954651)
(-0.000381804 3.48545e-07 -0.000417777)
(0.000147873 1.64701e-07 0.000156214)
(0.00144002 8.96152e-07 -0.00147789)
(0.00749141 3.02009e-07 -0.00433954)
(0.0139813 1.82953e-07 -0.00428706)
(0.0185772 1.23414e-07 -0.00276617)
(0.0208107 1.05395e-07 -0.00110648)
(0.0209277 9.53888e-08 0.000346889)
(0.0192692 8.77242e-08 0.00152492)
(0.0161985 7.96076e-08 0.00244519)
(0.0120175 7.14241e-08 0.00315441)
(0.00697354 6.46529e-08 0.00369901)
(0.00126096 5.84986e-08 0.0041119)
(-0.00497419 5.19031e-08 0.00441308)
(-0.0115834 4.60052e-08 0.004627)
(-0.0184873 4.17275e-08 0.00477916)
(-0.0256034 3.87128e-08 0.004883)
(-0.0328718 3.64355e-08 0.00494852)
(-0.0402425 3.44466e-08 0.00498338)
(-0.0476751 3.25782e-08 0.00499346)
(-0.0551357 3.08736e-08 0.00498337)
(-0.0625963 2.9463e-08 0.0049567)
(-0.0700331 2.84595e-08 0.00491627)
(-0.0774258 2.78529e-08 0.00486432)
(-0.084757 2.75559e-08 0.0048026)
(-0.0920114 2.74548e-08 0.00473255)
(-0.0991756 2.74358e-08 0.00465529)
(-0.106238 2.74339e-08 0.00457173)
(-0.113187 2.74038e-08 0.00448263)
(-0.120013 2.73407e-08 0.00438859)
(-0.126708 2.72461e-08 0.0042901)
(-0.133264 2.7125e-08 0.0041876)
(-0.139672 2.69675e-08 0.00408142)
(-0.145926 2.67919e-08 0.00397188)
(-0.152019 2.65849e-08 0.00385923)
(-0.157944 2.63514e-08 0.00374371)
(-0.163697 2.61014e-08 0.00362553)
(-0.169272 2.58417e-08 0.00350488)
(-0.174663 2.55805e-08 0.00338195)
(-0.179867 2.53287e-08 0.0032569)
(-0.184877 2.50996e-08 0.00312992)
(-0.189691 2.48956e-08 0.00300115)
(-0.194304 2.47243e-08 0.00287078)
(-0.198714 2.45864e-08 0.00273896)
(-0.202916 2.4492e-08 0.00260586)
(-0.206908 2.44286e-08 0.00247165)
(-0.210687 2.43986e-08 0.0023365)
(-0.214252 2.43978e-08 0.00220058)
(-0.2176 2.44246e-08 0.00206406)
(-0.22073 2.44657e-08 0.00192712)
(-0.223641 2.45268e-08 0.00178994)
(-0.226331 2.45956e-08 0.00165269)
(-0.228801 2.46752e-08 0.00151556)
(-0.231051 2.47607e-08 0.00137871)
(-0.23308 2.48522e-08 0.00124234)
(-0.234888 2.49528e-08 0.00110662)
(-0.236478 2.50619e-08 0.00097172)
(-0.23785 2.51819e-08 0.000837828)
(-0.239006 2.53135e-08 0.000705116)
(-0.239947 2.54545e-08 0.000573753)
(-0.240676 2.56121e-08 0.000443897)
(-0.241196 2.57789e-08 0.000315665)
(-0.241509 2.59542e-08 0.000189106)
(-0.241618 2.6132e-08 6.42265e-05)
(-0.241527 2.63632e-08 -5.84896e-05)
(-0.241239 2.66551e-08 -0.000178647)
(-0.240758 2.69447e-08 -0.000296367)
(-0.240088 2.72484e-08 -0.000411637)
(-0.239234 2.75797e-08 -0.000524356)
(-0.2382 2.79302e-08 -0.000634399)
(-0.23699 2.83091e-08 -0.000741649)
(-0.23561 2.87106e-08 -0.000845999)
(-0.234064 2.91454e-08 -0.000947354)
(-0.232359 2.95903e-08 -0.00104563)
(-0.230498 3.00619e-08 -0.00114074)
(-0.228489 3.05595e-08 -0.00123263)
(-0.226335 3.1077e-08 -0.00132123)
(-0.224044 3.16222e-08 -0.00140649)
(-0.22162 3.21783e-08 -0.00148837)
(-0.21907 3.27544e-08 -0.00156682)
(-0.216399 3.33449e-08 -0.00164181)
(-0.213614 3.39512e-08 -0.00171332)
(-0.21072 3.45702e-08 -0.00178134)
(-0.207724 3.51968e-08 -0.00184584)
(-0.204631 3.58376e-08 -0.00190684)
(-0.201447 3.64861e-08 -0.00196432)
(-0.198179 3.71422e-08 -0.00201831)
(-0.194831 3.78085e-08 -0.00206881)
(-0.19141 3.84832e-08 -0.00211585)
(-0.187922 3.9158e-08 -0.00215945)
(-0.184372 3.9843e-08 -0.00219965)
(-0.180766 4.05298e-08 -0.00223649)
(-0.17711 4.12268e-08 -0.00227)
(-0.173408 4.19272e-08 -0.00230025)
(-0.169667 4.26278e-08 -0.00232727)
(-0.16589 4.33286e-08 -0.00235114)
(-0.162085 4.40412e-08 -0.0023719)
(-0.158254 4.47439e-08 -0.00238964)
(-0.154404 4.54585e-08 -0.00240441)
(-0.150539 4.61683e-08 -0.0024163)
(-0.146663 4.68816e-08 -0.00242537)
(-0.142781 4.75901e-08 -0.00243172)
(-0.138896 4.83004e-08 -0.00243542)
(-0.135014 4.90109e-08 -0.00243655)
(-0.131138 4.97065e-08 -0.00243521)
(-0.127271 5.04074e-08 -0.00243149)
(-0.123418 5.11017e-08 -0.00242547)
(-0.119582 5.1798e-08 -0.00241725)
(-0.115766 5.24794e-08 -0.00240692)
(-0.111972 5.31609e-08 -0.00239457)
(-0.108205 5.38294e-08 -0.0023803)
(-0.104467 5.45046e-08 -0.00236419)
(-0.10076 5.51651e-08 -0.00234635)
(-0.0970871 5.58157e-08 -0.00232686)
(-0.0934506 5.64732e-08 -0.0023058)
(-0.0898526 5.71209e-08 -0.00228328)
(-0.0862951 5.7757e-08 -0.00225937)
(-0.0827801 5.83984e-08 -0.00223416)
(-0.0793093 5.903e-08 -0.00220773)
(-0.0758844 5.9665e-08 -0.00218015)
(-0.0725069 6.02869e-08 -0.0021515)
(-0.0691782 6.09057e-08 -0.00212185)
(-0.0658996 6.15263e-08 -0.00209125)
(-0.0626724 6.21505e-08 -0.00205978)
(-0.0594977 6.27748e-08 -0.00202748)
(-0.0563765 6.33994e-08 -0.0019944)
(-0.0533098 6.40425e-08 -0.00196059)
(-0.0502985 6.46758e-08 -0.00192609)
(-0.0473435 6.53244e-08 -0.00189093)
(-0.0444457 6.59815e-08 -0.00185514)
(-0.0416057 6.66539e-08 -0.00181873)
(-0.0388244 6.73433e-08 -0.00178172)
(-0.0361025 6.80412e-08 -0.00174411)
(-0.0334409 6.87545e-08 -0.00170592)
(-0.0308401 6.94947e-08 -0.00166712)
(-0.0283011 7.02386e-08 -0.00162772)
(-0.0258245 7.10095e-08 -0.00158768)
(-0.0234113 7.18074e-08 -0.00154701)
(-0.0210624 7.26123e-08 -0.00150565)
(-0.0187785 7.34778e-08 -0.00146358)
(-0.0165608 7.43603e-08 -0.00142077)
(-0.0144103 7.52733e-08 -0.00137717)
(-0.012328 7.62068e-08 -0.00133274)
(-0.0103152 7.71506e-08 -0.00128744)
(-0.00837303 7.81451e-08 -0.00124121)
(-0.00650294 7.91902e-08 -0.00119401)
(-0.00470626 8.02592e-08 -0.0011458)
(-0.00298442 8.13319e-08 -0.00109661)
(-0.001339 8.24152e-08 -0.00104677)
(0.00022976 8.32577e-08 -0.000995559)
(0.00171858 8.39063e-08 -0.000942376)
(0.00312599 8.47094e-08 -0.000887802)
(0.00445027 8.56102e-08 -0.000832111)
(0.00568949 8.66321e-08 -0.000775324)
(0.00684187 8.77585e-08 -0.000717447)
(0.00790561 8.89961e-08 -0.000658496)
(0.00887892 9.03417e-08 -0.000598494)
(0.00976005 9.17684e-08 -0.00053748)
(0.0105473 9.33032e-08 -0.000475511)
(0.0112391 9.4926e-08 -0.000412659)
(0.0118339 9.66906e-08 -0.000349017)
(0.0123303 9.85601e-08 -0.000284697)
(0.0127273 1.00531e-07 -0.000219837)
(0.0130237 1.02614e-07 -0.0001546)
(0.0132189 1.04806e-07 -8.91779e-05)
(0.0133125 1.07022e-07 -2.37829e-05)
(0.0133043 1.0949e-07 4.14145e-05)
(0.0131946 1.12223e-07 0.000106191)
(0.0129837 1.15027e-07 0.000170246)
(0.0126728 1.17981e-07 0.000233279)
(0.0122633 1.21094e-07 0.00029495)
(0.0117572 1.24415e-07 0.000354885)
(0.0111571 1.27898e-07 0.000412681)
(0.0104661 1.31586e-07 0.000467902)
(0.00968837 1.35453e-07 0.000520076)
(0.00882841 1.39539e-07 0.000568696)
(0.00789174 1.43791e-07 0.000613213)
(0.00688471 1.48255e-07 0.000653035)
(0.00581465 1.52883e-07 0.000687525)
(0.00468989 1.5771e-07 0.000715989)
(0.00351993 1.62762e-07 0.000737679)
(0.0023154 1.67972e-07 0.00075178)
(0.00108879 1.73402e-07 0.000757384)
(-0.000147304 1.78532e-07 0.000753023)
(-0.00137634 1.83356e-07 0.000737215)
(-0.00258083 1.88629e-07 0.000709124)
(-0.00374204 1.94434e-07 0.000667984)
(-0.00483804 2.00588e-07 0.000612389)
(-0.00584472 2.07066e-07 0.000540391)
(-0.00673468 2.13801e-07 0.000450133)
(-0.00747724 2.20795e-07 0.00033962)
(-0.00803807 2.28122e-07 0.000206771)
(-0.00837915 2.36111e-07 4.97548e-05)
(-0.00845923 2.44695e-07 -0.000132309)
(-0.00823539 2.53881e-07 -0.000337956)
(-0.00766766 2.64026e-07 -0.000561791)
(-0.00672505 2.74991e-07 -0.000789736)
(-0.0054026 2.86948e-07 -0.00098914)
(-0.00375163 3.0048e-07 -0.00109111)
(-0.00194526 3.13865e-07 -0.000956282)
(-0.00038272 3.48541e-07 -0.000419434)
(0.00014716 1.647e-07 0.000154881)
(0.00413669 3.31517e-07 -0.00792236)
(0.00924221 2.4479e-09 -0.00969547)
(0.0119685 9.42551e-09 -0.00771063)
(0.0131879 -3.60963e-09 -0.00446032)
(0.0128845 -3.81915e-09 -0.00118959)
(0.0112791 -3.36217e-09 0.00168179)
(0.00853325 -2.45179e-09 0.00405398)
(0.00481321 -1.50357e-09 0.00595695)
(0.000277138 -6.65255e-10 0.00746188)
(-0.00492818 8.58425e-11 0.00864111)
(-0.0106707 6.08055e-10 0.00955688)
(-0.0168461 9.53291e-10 0.010258)
(-0.0233621 1.30344e-09 0.0107885)
(-0.0301439 1.74183e-09 0.0111858)
(-0.0371265 2.26923e-09 0.0114757)
(-0.0442565 2.77731e-09 0.0116785)
(-0.0514891 3.20029e-09 0.0118101)
(-0.0587867 3.53573e-09 0.0118828)
(-0.0661173 3.83323e-09 0.0119063)
(-0.0734538 4.14442e-09 0.0118885)
(-0.0807728 4.48677e-09 0.0118355)
(-0.0880542 4.86067e-09 0.0117523)
(-0.0952803 5.22911e-09 0.0116428)
(-0.102436 5.56588e-09 0.0115104)
(-0.109507 5.84605e-09 0.0113576)
(-0.116481 6.06258e-09 0.0111865)
(-0.123348 6.21258e-09 0.0109991)
(-0.130097 6.30481e-09 0.0107967)
(-0.13672 6.34718e-09 0.0105805)
(-0.143206 6.35136e-09 0.0103517)
(-0.14955 6.31484e-09 0.0101111)
(-0.155744 6.25012e-09 0.00985961)
(-0.16178 6.16051e-09 0.00959783)
(-0.167653 6.04852e-09 0.00932644)
(-0.173357 5.92411e-09 0.00904603)
(-0.178886 5.79477e-09 0.00875718)
(-0.184235 5.65966e-09 0.0084604)
(-0.189398 5.52959e-09 0.00815623)
(-0.194373 5.40495e-09 0.00784518)
(-0.199153 5.28741e-09 0.00752774)
(-0.203736 5.17448e-09 0.00720444)
(-0.208118 5.06781e-09 0.00687578)
(-0.212296 4.96698e-09 0.00654227)
(-0.216266 4.86411e-09 0.00620445)
(-0.220026 4.76167e-09 0.00586283)
(-0.223574 4.65636e-09 0.00551795)
(-0.226908 4.54651e-09 0.00517034)
(-0.230026 4.43253e-09 0.00482057)
(-0.232927 4.31151e-09 0.00446916)
(-0.23561 4.18388e-09 0.00411667)
(-0.238075 4.05336e-09 0.00376366)
(-0.24032 3.91291e-09 0.00341068)
(-0.242347 3.77123e-09 0.00305827)
(-0.244156 3.62417e-09 0.00270699)
(-0.245747 3.47505e-09 0.00235737)
(-0.247122 3.32554e-09 0.00200995)
(-0.248281 3.17438e-09 0.00166526)
(-0.249227 3.0249e-09 0.00132383)
(-0.249962 2.87668e-09 0.000986149)
(-0.250487 2.72764e-09 0.000652724)
(-0.250806 2.58442e-09 0.000324025)
(-0.250922 2.45365e-09 5.2755e-07)
(-0.250837 2.31086e-09 -0.000317449)
(-0.250555 2.1602e-09 -0.000629616)
(-0.250079 2.02366e-09 -0.000935564)
(-0.249415 1.8921e-09 -0.00123491)
(-0.248565 1.76179e-09 -0.00152728)
(-0.247534 1.63605e-09 -0.00181232)
(-0.246327 1.51031e-09 -0.00208973)
(-0.244948 1.38458e-09 -0.00235919)
(-0.243402 1.26051e-09 -0.00262045)
(-0.241695 1.13438e-09 -0.00287328)
(-0.239831 1.00782e-09 -0.00311746)
(-0.237815 8.79612e-10 -0.00335281)
(-0.235654 7.52648e-10 -0.00357916)
(-0.233353 6.23194e-10 -0.00379638)
(-0.230916 4.9042e-10 -0.00400435)
(-0.228351 3.56816e-10 -0.00420299)
(-0.225662 2.18647e-10 -0.00439222)
(-0.222855 7.84006e-11 -0.004572)
(-0.219937 -6.22635e-11 -0.0047423)
(-0.216912 -2.0791e-10 -0.00490312)
(-0.213787 -3.56465e-10 -0.00505447)
(-0.210567 -5.0627e-10 -0.00519639)
(-0.207258 -6.59401e-10 -0.00532893)
(-0.203866 -8.12537e-10 -0.00545217)
(-0.200396 -9.70245e-10 -0.0055662)
(-0.196854 -1.12755e-09 -0.00567111)
(-0.193246 -1.28651e-09 -0.00576704)
(-0.189577 -1.44425e-09 -0.00585412)
(-0.185852 -1.60573e-09 -0.00593249)
(-0.182077 -1.76638e-09 -0.00600233)
(-0.178257 -1.92788e-09 -0.0060638)
(-0.174397 -2.08815e-09 -0.0061171)
(-0.170502 -2.24884e-09 -0.00616243)
(-0.166577 -2.40913e-09 -0.00619998)
(-0.162626 -2.5686e-09 -0.00622997)
(-0.158655 -2.72726e-09 -0.00625264)
(-0.154667 -2.88552e-09 -0.00626821)
(-0.150667 -3.04171e-09 -0.00627691)
(-0.14666 -3.19585e-09 -0.00627899)
(-0.142649 -3.34792e-09 -0.0062747)
(-0.138638 -3.50043e-09 -0.00626428)
(-0.134631 -3.65087e-09 -0.00624799)
(-0.130631 -3.79884e-09 -0.00622607)
(-0.126643 -3.94309e-09 -0.00619879)
(-0.122669 -4.08528e-09 -0.00616639)
(-0.118713 -4.22542e-09 -0.00612912)
(-0.114777 -4.35934e-09 -0.00608725)
(-0.110865 -4.49162e-09 -0.006041)
(-0.10698 -4.61893e-09 -0.00599064)
(-0.103123 -4.74792e-09 -0.00593638)
(-0.0992977 -4.86737e-09 -0.00587847)
(-0.0955061 -4.98394e-09 -0.00581713)
(-0.0917505 -5.09554e-09 -0.00575258)
(-0.088033 -5.20341e-09 -0.00568502)
(-0.0843556 -5.30632e-09 -0.00561466)
(-0.08072 -5.40302e-09 -0.00554169)
(-0.077128 -5.49807e-09 -0.00546629)
(-0.0735814 -5.58649e-09 -0.00538862)
(-0.0700815 -5.67244e-09 -0.00530884)
(-0.06663 -5.75258e-09 -0.0052271)
(-0.0632281 -5.82859e-09 -0.00514353)
(-0.0598773 -5.89962e-09 -0.00505823)
(-0.0565787 -5.96569e-09 -0.00497132)
(-0.0533334 -6.02678e-09 -0.00488288)
(-0.0501428 -6.08374e-09 -0.00479298)
(-0.0470078 -6.13489e-09 -0.00470168)
(-0.0439296 -6.18439e-09 -0.00460901)
(-0.0409092 -6.22976e-09 -0.00451502)
(-0.0379476 -6.27431e-09 -0.00441969)
(-0.0350459 -6.31888e-09 -0.00432304)
(-0.0322051 -6.35681e-09 -0.00422503)
(-0.0294263 -6.39809e-09 -0.00412563)
(-0.0267107 -6.43773e-09 -0.0040248)
(-0.0240593 -6.47572e-09 -0.00392246)
(-0.0214733 -6.51456e-09 -0.00381855)
(-0.0189539 -6.55177e-09 -0.00371297)
(-0.0165024 -6.59066e-09 -0.00360563)
(-0.0141202 -6.63374e-09 -0.00349642)
(-0.0118085 -6.68351e-09 -0.00338524)
(-0.00956901 -6.73497e-09 -0.00327196)
(-0.00740311 -6.78646e-09 -0.00315647)
(-0.00531243 -6.84548e-09 -0.00303867)
(-0.00329862 -6.91536e-09 -0.00291848)
(-0.00136343 -6.99361e-09 -0.00279597)
(0.000491774 -7.08855e-09 -0.00267105)
(0.00226413 -7.17687e-09 -0.0025431)
(0.00395192 -7.21776e-09 -0.00241176)
(0.00555321 -7.23203e-09 -0.0022773)
(0.00706588 -7.25883e-09 -0.00213978)
(0.00848783 -7.27901e-09 -0.00199921)
(0.00981691 -7.29755e-09 -0.00185557)
(0.011051 -7.31781e-09 -0.00170887)
(0.0121879 -7.34311e-09 -0.00155916)
(0.0132257 -7.37762e-09 -0.0014065)
(0.0141622 -7.41719e-09 -0.00125101)
(0.0149956 -7.45848e-09 -0.00109283)
(0.0157239 -7.50984e-09 -0.000932162)
(0.0163455 -7.56876e-09 -0.000769262)
(0.0168588 -7.63693e-09 -0.000604428)
(0.0172625 -7.71434e-09 -0.000438023)
(0.0175555 -7.80517e-09 -0.000270475)
(0.0177369 -7.89606e-09 -0.000102279)
(0.0178062 -8.00525e-09 6.6075e-05)
(0.0177633 -8.13052e-09 0.000234063)
(0.0176084 -8.25676e-09 0.000401017)
(0.0173421 -8.39061e-09 0.000566176)
(0.0169657 -8.53376e-09 0.000728713)
(0.0164808 -8.68705e-09 0.000887718)
(0.0158897 -8.8555e-09 0.0010422)
(0.0151953 -9.03745e-09 0.00119108)
(0.0144014 -9.2329e-09 0.00133318)
(0.0135123 -9.4494e-09 0.00146722)
(0.0125332 -9.68444e-09 0.00159184)
(0.0114704 -9.94306e-09 0.00170552)
(0.0103309 -1.02236e-08 0.00180663)
(0.00912282 -1.05261e-08 0.0018934)
(0.00785555 -1.08505e-08 0.0019639)
(0.00653959 -1.11919e-08 0.002016)
(0.00518685 -1.15468e-08 0.00204735)
(0.00381062 -1.18568e-08 0.00205511)
(0.00242576 -1.20112e-08 0.00203618)
(0.00104892 -1.20617e-08 0.00198756)
(-0.000301858 -1.20772e-08 0.00190579)
(-0.00160522 -1.20792e-08 0.00178686)
(-0.00283859 -1.20779e-08 0.00162634)
(-0.00397707 -1.21085e-08 0.00141934)
(-0.00499322 -1.2171e-08 0.00116036)
(-0.00585725 -1.22201e-08 0.000843697)
(-0.00653705 -1.22309e-08 0.000464023)
(-0.00699886 -1.2179e-08 1.75136e-05)
(-0.00720784 -1.20805e-08 -0.000495413)
(-0.00713027 -1.20672e-08 -0.00106659)
(-0.00673746 -1.21054e-08 -0.00167182)
(-0.00601039 -1.20868e-08 -0.00225377)
(-0.00494457 -1.16004e-08 -0.00269148)
(-0.00356452 -1.00797e-08 -0.00274607)
(-0.00194945 1.50317e-09 -0.00202828)
(-0.000411022 -1.73678e-07 -0.000434128)
(0.00413528 3.31512e-07 -0.00792366)
(0.00924132 2.44783e-09 -0.00969623)
(0.011968 9.42524e-09 -0.00771097)
(0.0131875 -3.60954e-09 -0.00446052)
(0.0128842 -3.81906e-09 -0.00118973)
(0.0112789 -3.3621e-09 0.00168166)
(0.00853305 -2.45174e-09 0.00405386)
(0.00481306 -1.50355e-09 0.00595684)
(0.000277026 -6.65243e-10 0.00746177)
(-0.00492825 8.5841e-11 0.00864101)
(-0.0106708 6.08045e-10 0.00955677)
(-0.0168461 9.53275e-10 0.0102579)
(-0.023362 1.30342e-09 0.0107884)
(-0.0301439 1.7418e-09 0.0111857)
(-0.0371264 2.26919e-09 0.0114756)
(-0.0442564 2.77726e-09 0.0116784)
(-0.051489 3.20024e-09 0.01181)
(-0.0587866 3.53568e-09 0.0118827)
(-0.0661171 3.83318e-09 0.0119062)
(-0.0734536 4.14436e-09 0.0118884)
(-0.0807726 4.4867e-09 0.0118354)
(-0.0880539 4.8606e-09 0.0117522)
(-0.0952801 5.22904e-09 0.0116427)
(-0.102436 5.5658e-09 0.0115103)
(-0.109507 5.84597e-09 0.0113575)
(-0.116481 6.0625e-09 0.0111865)
(-0.123348 6.2125e-09 0.010999)
(-0.130097 6.30473e-09 0.0107966)
(-0.136719 6.3471e-09 0.0105805)
(-0.143206 6.35127e-09 0.0103516)
(-0.14955 6.31476e-09 0.0101111)
(-0.155744 6.25003e-09 0.00985954)
(-0.16178 6.16043e-09 0.00959776)
(-0.167653 6.04844e-09 0.00932637)
(-0.173357 5.92403e-09 0.00904596)
(-0.178886 5.7947e-09 0.0087571)
(-0.184234 5.65959e-09 0.00846033)
(-0.189398 5.52952e-09 0.00815616)
(-0.194372 5.40488e-09 0.0078451)
(-0.199153 5.28735e-09 0.00752767)
(-0.203736 5.17442e-09 0.00720437)
(-0.208118 5.06775e-09 0.00687571)
(-0.212295 4.96692e-09 0.0065422)
(-0.216265 4.86405e-09 0.00620438)
(-0.220026 4.76161e-09 0.00586276)
(-0.223574 4.6563e-09 0.00551787)
(-0.226908 4.54645e-09 0.00517027)
(-0.230026 4.43247e-09 0.00482049)
(-0.232927 4.31146e-09 0.00446908)
(-0.23561 4.18383e-09 0.0041166)
(-0.238074 4.05331e-09 0.00376359)
(-0.24032 3.91286e-09 0.0034106)
(-0.242347 3.77118e-09 0.0030582)
(-0.244156 3.62412e-09 0.00270691)
(-0.245747 3.47501e-09 0.00235729)
(-0.247121 3.3255e-09 0.00200987)
(-0.24828 3.17435e-09 0.00166519)
(-0.249226 3.02487e-09 0.00132375)
(-0.249961 2.87664e-09 0.000986069)
(-0.250487 2.72761e-09 0.000652643)
(-0.250806 2.58439e-09 0.000323943)
(-0.250921 2.45363e-09 4.45269e-07)
(-0.250836 2.31084e-09 -0.000317532)
(-0.250554 2.16018e-09 -0.0006297)
(-0.250079 2.02363e-09 -0.000935648)
(-0.249414 1.89208e-09 -0.00123499)
(-0.248564 1.76177e-09 -0.00152736)
(-0.247533 1.63603e-09 -0.00181241)
(-0.246326 1.5103e-09 -0.00208981)
(-0.244947 1.38457e-09 -0.00235928)
(-0.243402 1.2605e-09 -0.00262054)
(-0.241694 1.13436e-09 -0.00287337)
(-0.23983 1.00781e-09 -0.00311755)
(-0.237815 8.79603e-10 -0.0033529)
(-0.235654 7.52639e-10 -0.00357925)
(-0.233352 6.23187e-10 -0.00379647)
(-0.230916 4.90415e-10 -0.00400445)
(-0.228351 3.56812e-10 -0.00420308)
(-0.225662 2.18644e-10 -0.00439232)
(-0.222855 7.83998e-11 -0.00457209)
(-0.219936 -6.22629e-11 -0.00474239)
(-0.216911 -2.07908e-10 -0.00490321)
(-0.213786 -3.56462e-10 -0.00505457)
(-0.210566 -5.06265e-10 -0.00519649)
(-0.207257 -6.59394e-10 -0.00532903)
(-0.203865 -8.12529e-10 -0.00545227)
(-0.200395 -9.70235e-10 -0.0055663)
(-0.196854 -1.12753e-09 -0.00567122)
(-0.193246 -1.2865e-09 -0.00576715)
(-0.189577 -1.44423e-09 -0.00585422)
(-0.185852 -1.60571e-09 -0.0059326)
(-0.182077 -1.76637e-09 -0.00600244)
(-0.178257 -1.92786e-09 -0.00606391)
(-0.174397 -2.08813e-09 -0.00611721)
(-0.170502 -2.24882e-09 -0.00616253)
(-0.166577 -2.40911e-09 -0.00620009)
(-0.162626 -2.56858e-09 -0.00623009)
(-0.158655 -2.72724e-09 -0.00625275)
(-0.154667 -2.88549e-09 -0.00626832)
(-0.150667 -3.04168e-09 -0.00627703)
(-0.14666 -3.19582e-09 -0.00627911)
(-0.142648 -3.34789e-09 -0.00627482)
(-0.138637 -3.50039e-09 -0.0062644)
(-0.13463 -3.65084e-09 -0.0062481)
(-0.130631 -3.79881e-09 -0.00622619)
(-0.126643 -3.94306e-09 -0.00619891)
(-0.122669 -4.08525e-09 -0.00616651)
(-0.118713 -4.22538e-09 -0.00612924)
(-0.114777 -4.3593e-09 -0.00608737)
(-0.110865 -4.49158e-09 -0.00604113)
(-0.106979 -4.61889e-09 -0.00599076)
(-0.103123 -4.74788e-09 -0.00593651)
(-0.0992974 -4.86733e-09 -0.0058786)
(-0.0955059 -4.9839e-09 -0.00581726)
(-0.0917503 -5.09549e-09 -0.00575271)
(-0.0880328 -5.20337e-09 -0.00568515)
(-0.0843553 -5.30628e-09 -0.00561479)
(-0.0807197 -5.40298e-09 -0.00554182)
(-0.0771278 -5.49803e-09 -0.00546642)
(-0.0735811 -5.58645e-09 -0.00538875)
(-0.0700813 -5.67239e-09 -0.00530898)
(-0.0666298 -5.75254e-09 -0.00522724)
(-0.0632279 -5.82854e-09 -0.00514366)
(-0.0598771 -5.89958e-09 -0.00505837)
(-0.0565784 -5.96564e-09 -0.00497146)
(-0.0533332 -6.02674e-09 -0.00488302)
(-0.0501426 -6.08369e-09 -0.00479312)
(-0.0470076 -6.13484e-09 -0.00470182)
(-0.0439294 -6.18435e-09 -0.00460916)
(-0.0409089 -6.22972e-09 -0.00451516)
(-0.0379473 -6.27427e-09 -0.00441984)
(-0.0350456 -6.31884e-09 -0.00432319)
(-0.0322049 -6.35677e-09 -0.00422518)
(-0.0294261 -6.39805e-09 -0.00412578)
(-0.0267105 -6.43769e-09 -0.00402495)
(-0.0240591 -6.47568e-09 -0.00392262)
(-0.0214731 -6.51453e-09 -0.00381871)
(-0.0189537 -6.55173e-09 -0.00371313)
(-0.0165022 -6.59063e-09 -0.00360579)
(-0.01412 -6.63371e-09 -0.00349659)
(-0.0118083 -6.68347e-09 -0.00338541)
(-0.0095688 -6.73493e-09 -0.00327213)
(-0.00740291 -6.78643e-09 -0.00315664)
(-0.00531223 -6.84545e-09 -0.00303884)
(-0.00329842 -6.91533e-09 -0.00291865)
(-0.00136323 -6.99357e-09 -0.00279614)
(0.000491975 -7.08852e-09 -0.00267123)
(0.00226433 -7.17684e-09 -0.00254328)
(0.00395212 -7.21773e-09 -0.00241194)
(0.00555341 -7.232e-09 -0.00227748)
(0.00706609 -7.2588e-09 -0.00213997)
(0.00848803 -7.27898e-09 -0.0019994)
(0.00981711 -7.29752e-09 -0.00185576)
(0.0110512 -7.31778e-09 -0.00170906)
(0.0121881 -7.34308e-09 -0.00155935)
(0.0132259 -7.3776e-09 -0.00140669)
(0.0141624 -7.41717e-09 -0.0012512)
(0.0149958 -7.45846e-09 -0.00109302)
(0.0157241 -7.50981e-09 -0.000932362)
(0.0163457 -7.56874e-09 -0.000769464)
(0.016859 -7.6369e-09 -0.000604632)
(0.0172627 -7.71431e-09 -0.000438229)
(0.0175557 -7.80515e-09 -0.000270683)
(0.0177371 -7.89604e-09 -0.00010249)
(0.0178064 -8.00522e-09 6.5862e-05)
(0.0177635 -8.1305e-09 0.000233847)
(0.0176086 -8.25673e-09 0.000400798)
(0.0173423 -8.39058e-09 0.000565955)
(0.0169659 -8.53374e-09 0.000728489)
(0.0164809 -8.68703e-09 0.000887491)
(0.0158898 -8.85548e-09 0.00104197)
(0.0151955 -9.03742e-09 0.00119084)
(0.0144016 -9.23288e-09 0.00133294)
(0.0135124 -9.44937e-09 0.00146698)
(0.0125334 -9.68441e-09 0.00159159)
(0.0114705 -9.94303e-09 0.00170527)
(0.010331 -1.02236e-08 0.00180638)
(0.00912296 -1.0526e-08 0.00189314)
(0.00785569 -1.08505e-08 0.00196364)
(0.00653971 -1.11918e-08 0.00201573)
(0.00518697 -1.15468e-08 0.00204707)
(0.00381073 -1.18568e-08 0.00205483)
(0.00242587 -1.20111e-08 0.00203589)
(0.00104902 -1.20617e-08 0.00198726)
(-0.000301771 -1.20771e-08 0.00190549)
(-0.00160514 -1.20792e-08 0.00178654)
(-0.00283852 -1.20779e-08 0.00162602)
(-0.00397701 -1.21084e-08 0.001419)
(-0.00499316 -1.2171e-08 0.00116001)
(-0.0058572 -1.22201e-08 0.000843327)
(-0.00653701 -1.22308e-08 0.000463632)
(-0.00699884 -1.21789e-08 1.70959e-05)
(-0.00720783 -1.20805e-08 -0.000495862)
(-0.00713027 -1.20672e-08 -0.00106708)
(-0.00673748 -1.21054e-08 -0.00167236)
(-0.00601044 -1.20868e-08 -0.00225438)
(-0.00494466 -1.16004e-08 -0.00269218)
(-0.00356471 -1.00797e-08 -0.00274691)
(-0.00195012 1.50317e-09 -0.00202938)
(-0.000411944 -1.73678e-07 -0.000435522)
(0.00387443 2.48984e-07 -0.0146748)
(0.0071173 1.13912e-08 -0.0125623)
(0.00768883 2.23984e-08 -0.00830872)
(0.00706329 1.24345e-08 -0.00368679)
(0.00537045 1.04423e-08 0.000665672)
(0.00283802 8.84718e-09 0.00448528)