/*--------------------------------*- C++ -*----------------------------------*\
  =========                 |
  \\      /  F ield         | OpenFOAM: The Open Source CFD Toolbox
   \\    /   O peration     | Website:  https://openfoam.org
    \\  /    A nd           | Version:  8
     \\/     M anipulation  |
\*---------------------------------------------------------------------------*/
FoamFile
{
    version     2.0;
    format      ascii;
    class       volScalarField;
    location    "3500";
    object      k;
}
// * * * * * * * * * * * * * * * * * * * * * * * * * * * * * * * * * * * * * //

dimensions      [0 2 -2 0 0 0 0];

internalField   nonuniform List<scalar> 
48000
(
0.032259
0.0709957
0.10986
0.143279
0.174734
0.203566
0.230346
0.255535
0.279925
0.303356
0.325935
0.347778
0.368945
0.389482
0.409425
0.428798
0.447618
0.465897
0.483642
0.500857
0.517542
0.533698
0.549323
0.564416
0.578975
0.592999
0.606486
0.619436
0.631849
0.643727
0.655072
0.665888
0.676178
0.685949
0.695206
0.703956
0.712208
0.719971
0.727254
0.734068
0.740423
0.746329
0.751797
0.756844
0.761571
0.76591
0.769862
0.773436
0.776648
0.779512
0.782042
0.784252
0.786156
0.787768
0.789099
0.790164
0.790973
0.79154
0.791876
0.791992
0.791899
0.791608
0.791127
0.790467
0.789638
0.788647
0.787502
0.786213
0.784786
0.783228
0.781547
0.779748
0.777837
0.775821
0.773704
0.771491
0.769187
0.766796
0.764322
0.76177
0.759142
0.756442
0.753672
0.750836
0.747936
0.744974
0.741953
0.738874
0.735739
0.732549
0.729306
0.726012
0.722666
0.719271
0.715826
0.712333
0.708793
0.705204
0.701569
0.697887
0.694158
0.690382
0.686559
0.68269
0.678773
0.67481
0.670798
0.666739
0.662631
0.658475
0.654269
0.650014
0.645708
0.641351
0.636943
0.632482
0.627969
0.623402
0.618781
0.614105
0.609374
0.604587
0.599743
0.594841
0.589882
0.584865
0.579788
0.574651
0.569455
0.564198
0.55888
0.553501
0.54806
0.542558
0.536993
0.531366
0.525677
0.519925
0.514111
0.508234
0.502296
0.496295
0.490233
0.484109
0.477925
0.47168
0.465376
0.459012
0.452589
0.446109
0.439571
0.432977
0.426328
0.419625
0.412868
0.406059
0.399199
0.392289
0.385329
0.378322
0.371267
0.364167
0.357022
0.349834
0.342603
0.335329
0.328015
0.32066
0.313265
0.305831
0.298357
0.290843
0.283289
0.275695
0.268058
0.260378
0.252653
0.24488
0.237056
0.229179
0.221253
0.213294
0.20532
0.197259
0.189087
0.180792
0.172352
0.163742
0.154932
0.14588
0.136536
0.126839
0.116815
0.106266
0.0950188
0.0828273
0.0692908
0.0537109
0.0350296
0.0201182
0.0342006
0.0721458
0.109934
0.143288
0.174736
0.203568
0.230348
0.255537
0.279926
0.303357
0.325936
0.347779
0.368946
0.389483
0.409426
0.428798
0.447619
0.465898
0.483643
0.500857
0.517542
0.533698
0.549324
0.564417
0.578976
0.592999
0.606486
0.619436
0.631849
0.643728
0.655073
0.665888
0.676179
0.685949
0.695206
0.703956
0.712209
0.719971
0.727255
0.734068
0.740423
0.746329
0.751797
0.756844
0.761571
0.765911
0.769862
0.773436
0.776648
0.779512
0.782042
0.784252
0.786156
0.787768
0.789099
0.790164
0.790973
0.79154
0.791876
0.791992
0.791899
0.791607
0.791127
0.790467
0.789638
0.788646
0.787502
0.786213
0.784786
0.783228
0.781547
0.779748
0.777837
0.775821
0.773703
0.771491
0.769187
0.766796
0.764322
0.76177
0.759142
0.756442
0.753672
0.750836
0.747936
0.744974
0.741953
0.738874
0.735739
0.732549
0.729306
0.726012
0.722666
0.719271
0.715826
0.712333
0.708793
0.705204
0.701569
0.697887
0.694157
0.690382
0.686559
0.68269
0.678773
0.67481
0.670798
0.666739
0.662631
0.658475
0.654269
0.650014
0.645708
0.641351
0.636943
0.632482
0.627969
0.623402
0.618781
0.614105
0.609374
0.604587
0.599743
0.594841
0.589882
0.584864
0.579788
0.574651
0.569455
0.564198
0.55888
0.553501
0.54806
0.542558
0.536993
0.531366
0.525676
0.519925
0.514111
0.508234
0.502296
0.496295
0.490233
0.484109
0.477925
0.47168
0.465375
0.459011
0.452589
0.446108
0.439571
0.432977
0.426328
0.419625
0.412868
0.406059
0.399199
0.392289
0.385329
0.378322
0.371267
0.364167
0.357022
0.349834
0.342603
0.335329
0.328015
0.32066
0.313265
0.305831
0.298357
0.290843
0.283289
0.275695
0.268058
0.260378
0.252653
0.24488
0.237056
0.229179
0.221253
0.213294
0.20532
0.197259
0.189087
0.180792
0.172352
0.163742
0.154932
0.14588
0.136536
0.12684
0.116815
0.106266
0.0950188
0.0828273
0.0692907
0.0537108
0.0350304
0.0201187
0.0724638
0.183401
0.261474
0.33028
0.393316
0.452541
0.508688
0.562173
0.613569
0.663185
0.711241
0.7579
0.80328
0.847464
0.890511
0.93246
0.973333
1.01314
1.05189
1.08958
1.12619
1.16172
1.19616
1.22948
1.26169
1.29276
1.32268
1.35145
1.37906
1.40551
1.4308
1.45492
1.47788
1.4997
1.52037
1.53992
1.55835
1.57569
1.59195
1.60716
1.62134
1.63451
1.64669
1.65792
1.66822
1.67764
1.6862
1.69392
1.70085
1.707
1.71241
1.71712
1.72114
1.72452
1.72727
1.72944
1.73103
1.7321
1.73265
1.73271
1.73232
1.73148
1.73023
1.72858
1.72656
1.72419
1.72148
1.71845
1.71512
1.7115
1.70762
1.70348
1.69909
1.69447
1.68964
1.6846
1.67936
1.67393
1.66833
1.66255
1.65662
1.65052
1.64428
1.6379
1.63138
1.62473
1.61795
1.61105
1.60403
1.5969
1.58965
1.58229
1.57483
1.56726
1.55958
1.55181
1.54393
1.53595
1.52788
1.5197
1.51143
1.50306
1.49459
1.48603
1.47736
1.4686
1.45973
1.45077
1.4417
1.43253
1.42326
1.41388
1.4044
1.39481
1.38511
1.3753
1.36538
1.35535
1.34521
1.33494
1.32457
1.31407
1.30346
1.29272
1.28186
1.27088
1.25978
1.24855
1.23719
1.22571
1.21409
1.20235
1.19048
1.17848
1.16635
1.15409
1.1417
1.12917
1.11652
1.10373
1.09082
1.07777
1.0646
1.0513
1.03787
1.02431
1.01063
0.996831
0.982905
0.96886
0.954696
0.940416
0.926021
0.911514
0.896897
0.882172
0.867342
0.852409
0.837375
0.822243
0.807016
0.791695
0.776283
0.760783
0.745195
0.729523
0.713767
0.69793
0.682011
0.666012
0.649934
0.633774
0.617534
0.60121
0.584801
0.568302
0.551709
0.535016
0.518217
0.501301
0.484261
0.467083
0.44975
0.432227
0.414486
0.396516
0.378267
0.359696
0.340742
0.321332
0.301371
0.280736
0.259258
0.236779
0.213008
0.187538
0.159751
0.12858
0.0914046
0.0362006
0.073319
0.183603
0.26151
0.330287
0.393318
0.452542
0.508688
0.562173
0.613569
0.663185
0.711241
0.7579
0.80328
0.847464
0.890511
0.93246
0.973333
1.01314
1.05189
1.08958
1.12619
1.16172
1.19616
1.22948
1.26169
1.29276
1.32268
1.35145
1.37906
1.40551
1.4308
1.45492
1.47788
1.4997
1.52037
1.53992
1.55835
1.57569
1.59195
1.60716
1.62134
1.6345
1.64669
1.65791
1.66822
1.67764
1.68619
1.69392
1.70084
1.707
1.71241
1.71711
1.72114
1.72452
1.72727
1.72943
1.73103
1.7321
1.73265
1.73271
1.73232
1.73148
1.73023
1.72858
1.72656
1.72419
1.72148
1.71845
1.71512
1.7115
1.70762
1.70348
1.69909
1.69447
1.68964
1.6846
1.67936
1.67393
1.66833
1.66255
1.65662
1.65052
1.64428
1.6379
1.63138
1.62473
1.61795
1.61105
1.60403
1.59689
1.58965
1.58229
1.57482
1.56725
1.55958
1.55181
1.54393
1.53595
1.52788
1.5197
1.51143
1.50306
1.49459
1.48603
1.47736
1.4686
1.45973
1.45077
1.4417
1.43253
1.42326
1.41388
1.4044
1.39481
1.38511
1.3753
1.36538
1.35535
1.3452
1.33494
1.32457
1.31407
1.30346
1.29272
1.28186
1.27088
1.25978
1.24855
1.23719
1.22571
1.21409
1.20235
1.19048
1.17848
1.16635
1.15409
1.1417
1.12917
1.11652
1.10373
1.09082
1.07777
1.0646
1.0513
1.03787
1.02431
1.01063
0.99683
0.982905
0.968859
0.954695
0.940415
0.92602
0.911513
0.896896
0.882172
0.867341
0.852408
0.837375
0.822243
0.807015
0.791694
0.776283
0.760782
0.745195
0.729522
0.713767
0.697929
0.682011
0.666012
0.649933
0.633774
0.617533
0.60121
0.5848
0.568301
0.551709
0.535016
0.518216
0.501301
0.48426
0.467083
0.44975
0.432227
0.414486
0.396516
0.378267
0.359696
0.340742
0.321332
0.301371
0.280736
0.259258
0.236779
0.213008
0.187538
0.159751
0.12858
0.0914047
0.0362
0.109977
0.261709
0.359433
0.443008
0.519736
0.592223
0.66149
0.728084
0.792402
0.85472
0.915236
0.974103
1.03143
1.0873
1.14178
1.19489
1.24666
1.29711
1.34623
1.39402
1.44046
1.48555
1.52926
1.57157
1.61248
1.65195
1.68999
1.72657
1.76168
1.79533
1.8275
1.85819
1.88742
1.91519
1.9415
1.96638
1.98984
2.0119
2.03259
2.05194
2.06996
2.08669
2.10217
2.11643
2.1295
2.14143
2.15226
2.16202
2.17075
2.17849
2.18528
2.19115
2.19615
2.20032
2.20369
2.20629
2.20817
2.20936
2.20989
2.2098
2.20911
2.20786
2.20608
2.20379
2.20102
2.1978
2.19414
2.19008
2.18564
2.18083
2.17568
2.1702
2.16441
2.15833
2.15197
2.14535
2.13848
2.13137
2.12404
2.11649
2.10874
2.10079
2.09266
2.08434
2.07586
2.06721
2.05841
2.04945
2.04034
2.03109
2.0217
2.01217
2.00251
1.99272
1.98281
1.97276
1.96259
1.9523
1.94188
1.93135
1.92069
1.90991
1.89901
1.88799
1.87685
1.86559
1.8542
1.84269
1.83105
1.81929
1.8074
1.79538
1.78323
1.77095
1.75853
1.74598
1.73329
1.72046
1.7075
1.69439
1.68113
1.66773
1.65418
1.64049
1.62664
1.61264
1.59849
1.58418
1.56972
1.5551
1.54032
1.52538
1.51028
1.49502
1.4796
1.46401
1.44827
1.43236
1.41629
1.40006
1.38367
1.36712
1.35041
1.33354
1.31652
1.29933
1.282
1.26451
1.24687
1.22909
1.21115
1.19308
1.17486
1.15651
1.13802
1.1194
1.10064
1.08176
1.06276
1.04364
1.0244
1.00505
0.985579
0.966004
0.946324
0.926539
0.906652
0.886665
0.86658
0.846397
0.826116
0.805736
0.785258
0.764679
0.743995
0.723203
0.702297
0.68127
0.660113
0.638817
0.617366
0.595747
0.573936
0.551906
0.529625
0.507058
0.484154
0.460878
0.437158
0.412914
0.388044
0.362417
0.33586
0.308179
0.279074
0.248105
0.214545
0.176915
0.130765
0.0558661
0.110047
0.261741
0.359441
0.44301
0.519737
0.592223
0.66149
0.728084
0.792402
0.854719
0.915236
0.974103
1.03143
1.0873
1.14178
1.19489
1.24666
1.29711
1.34623
1.39402
1.44046
1.48555
1.52926
1.57157
1.61248
1.65195
1.68999
1.72657
1.76168
1.79533
1.8275
1.85819
1.88742
1.91518
1.9415
1.96638
1.98984
2.0119
2.03259
2.05193
2.06996
2.08669
2.10217
2.11642
2.1295
2.14143
2.15226
2.16202
2.17075
2.17849
2.18528
2.19115
2.19615
2.20032
2.20369
2.20629
2.20817
2.20936
2.20989
2.2098
2.20911
2.20786
2.20608
2.20379
2.20102
2.1978
2.19414
2.19008
2.18564
2.18083
2.17568
2.1702
2.16441
2.15833
2.15197
2.14535
2.13848
2.13137
2.12403
2.11649
2.10873
2.10079
2.09266
2.08434
2.07586
2.06721
2.05841
2.04945
2.04034
2.03109
2.0217
2.01217
2.00251
1.99272
1.9828
1.97276
1.96259
1.9523
1.94188
1.93135
1.92069
1.90991
1.89901
1.88799
1.87685
1.86558
1.8542
1.84269
1.83105
1.81929
1.8074
1.79538
1.78323
1.77094
1.75853
1.74598
1.73329
1.72046
1.70749
1.69438
1.68113
1.66773
1.65418
1.64049
1.62664
1.61264
1.59849
1.58418
1.56972
1.5551
1.54032
1.52538
1.51028
1.49502
1.4796
1.46401
1.44827
1.43236
1.41629
1.40006
1.38367
1.36712
1.35041
1.33354
1.31651
1.29933
1.282
1.26451
1.24687
1.22909
1.21115
1.19308
1.17486
1.15651
1.13802
1.11939
1.10064
1.08176
1.06276
1.04364
1.0244
1.00504
0.985578
0.966004
0.946323
0.926538
0.906651
0.886665
0.866579
0.846396
0.826115
0.805736
0.785258
0.764678
0.743995
0.723202
0.702296
0.68127
0.660113
0.638816
0.617366
0.595746
0.573936
0.551906
0.529625
0.507058
0.484154
0.460877
0.437158
0.412914
0.388044
0.362417
0.335859
0.308178
0.279074
0.248105
0.214545
0.176915
0.130765
0.0558664
0.14116
0.328331
0.442049
0.536324
0.622561
0.704122
0.782316
0.857773
0.930862
1.00183
1.07083
1.13802
1.20347
1.26727
1.32946
1.39009
1.44918
1.50673
1.56276
1.61726
1.67021
1.72161
1.77143
1.81967
1.8663
1.9113
1.95466
1.99638
2.03642
2.0748
2.11151
2.14654
2.1799
2.2116
2.24164
2.27005
2.29685
2.32205
2.34568
2.36777
2.38836
2.40747
2.42514
2.44142
2.45634
2.46994
2.48228
2.49339
2.50331
2.5121
2.51978
2.52642
2.53204
2.5367
2.54044
2.5433
2.54532
2.54655
2.54701
2.54675
2.54581
2.54422
2.54201
2.53921
2.53587
2.532
2.52763
2.52279
2.51751
2.51181
2.50572
2.49924
2.49242
2.48525
2.47777
2.46999
2.46192
2.45358
2.44498
2.43614
2.42706
2.41776
2.40825
2.39853
2.38862
2.37852
2.36824
2.35779
2.34717
2.33639
2.32545
2.31435
2.30311
2.29172
2.28018
2.2685
2.25668
2.24472
2.23263
2.2204
2.20803
2.19552
2.18288
2.17011
2.1572
2.14415
2.13096
2.11763
2.10416
2.09055
2.0768
2.06291
2.04886
2.03467
2.02033
2.00584
1.99119
1.97639
1.96143
1.94631
1.93103
1.91558
1.89997
1.88419
1.86824
1.85213
1.83584
1.81937
1.80273
1.78592
1.76892
1.75175
1.73439
1.71686
1.69915
1.68125
1.66317
1.64491
1.62647
1.60785
1.58905
1.57006
1.5509
1.53156
1.51205
1.49236
1.47249
1.45246
1.43226
1.41189
1.39136
1.37067
1.34982
1.32881
1.30766
1.28635
1.2649
1.24331
1.22158
1.19971
1.17771
1.15559
1.13334
1.11097
1.08848
1.06587
1.04315
1.02032
0.997376
0.974324
0.951163
0.927894
0.904514
0.881022
0.857415
0.833689
0.809837
0.785852
0.761727
0.737448
0.713002
0.688373
0.663537
0.638469
0.613137
0.587505
0.561526
0.535151
0.50831
0.480928
0.452907
0.424118
0.394391
0.363502
0.331151
0.296839
0.259672
0.217653
0.164567
0.0725352
0.141166
0.328336
0.442051
0.536324
0.622561
0.704122
0.782316
0.857773
0.930862
1.00182
1.07083
1.13802
1.20347
1.26727
1.32946
1.39009
1.44918
1.50673
1.56276
1.61726
1.67021
1.72161
1.77143
1.81967
1.86629
1.9113
1.95466
1.99637
2.03642
2.0748
2.11151
2.14654
2.1799
2.21159
2.24164
2.27005
2.29685
2.32205
2.34568
2.36777
2.38836
2.40747
2.42514
2.44142
2.45634
2.46994
2.48228
2.49339
2.50331
2.51209
2.51978
2.52641
2.53204
2.5367
2.54044
2.5433
2.54532
2.54654
2.54701
2.54675
2.54581
2.54422
2.54201
2.53921
2.53586
2.53199
2.52763
2.52279
2.51751
2.51181
2.50572
2.49924
2.49242
2.48525
2.47777
2.46999
2.46192
2.45358
2.44498
2.43613
2.42706
2.41776
2.40824
2.39853
2.38862
2.37852
2.36824
2.35779
2.34717
2.33639
2.32545
2.31435
2.30311
2.29171
2.28018
2.2685
2.25668
2.24472
2.23263
2.2204
2.20803
2.19552
2.18288
2.17011
2.15719
2.14414
2.13096
2.11763
2.10416
2.09055
2.0768
2.06291
2.04886
2.03467
2.02033
2.00584
1.99119
1.97639
1.96143
1.94631
1.93103
1.91558
1.89997
1.88419
1.86824
1.85213
1.83584
1.81937
1.80273
1.78591
1.76892
1.75175
1.73439
1.71686
1.69914
1.68125
1.66317
1.64491
1.62647
1.60785
1.58904
1.57006
1.5509
1.53156
1.51205
1.49236
1.47249
1.45246
1.43226
1.41189
1.39136
1.37067
1.34982
1.32881
1.30765
1.28635
1.2649
1.24331
1.22158
1.19971
1.17771
1.15559
1.13334
1.11097
1.08848
1.06587
1.04315
1.02032
0.997375
0.974323
0.951163
0.927893
0.904514
0.881022
0.857415
0.833688
0.809836
0.785852
0.761726
0.737447
0.713002
0.688372
0.663537
0.638469
0.613137
0.587505
0.561526
0.535151
0.50831
0.480927
0.452907
0.424118
0.394391
0.363502
0.331151
0.296839
0.259672
0.217654
0.164567
0.0725353
0.169255
0.388333
0.517374
0.621857
0.716517
0.805761
0.891297
0.973907
1.054
1.13181
1.2075
1.28119
1.35295
1.42287
1.49098
1.55733
1.62194
1.68483
1.746
1.80546
1.86321
1.91924
1.97353
2.02607
2.07686
2.12587
2.17309
2.21851
2.26213
2.30393
2.34392
2.38209
2.41844
2.453
2.48576
2.51675
2.54598
2.57348
2.59927
2.62339
2.64586
2.66673
2.68603
2.7038
2.72009
2.73494
2.7484
2.76051
2.77132
2.78088
2.78923
2.79643
2.80252
2.80754
2.81155
2.81459
2.8167
2.81794
2.81833
2.81793
2.81677
2.8149
2.81234
2.80913
2.80532
2.80092
2.79598
2.79052
2.78457
2.77815
2.7713
2.76403
2.75637
2.74834
2.73996
2.73124
2.72221
2.71288
2.70326
2.69338
2.68324
2.67285
2.66223
2.65139
2.64033
2.62907
2.61761
2.60596
2.59412
2.58211
2.56992
2.55757
2.54505
2.53238
2.51954
2.50655
2.49341
2.48011
2.46667
2.45308
2.43934
2.42545
2.41142
2.39723
2.3829
2.36842
2.35379
2.33901
2.32408
2.309
2.29376
2.27836
2.2628
2.24709
2.23121
2.21517
2.19896
2.18258
2.16603
2.14931
2.13241
2.11534
2.09809
2.08065
2.06304
2.04523
2.02725
2.00907
1.9907
1.97214
1.95339
1.93445
1.91531
1.89598
1.87645
1.85672
1.8368
1.81668
1.79637
1.77585
1.75515
1.73425
1.71315
1.69186
1.67039
1.64872
1.62686
1.60483
1.5826
1.5602
1.53763
1.51487
1.49195
1.46886
1.4456
1.42218
1.39861
1.37488
1.351
1.32698
1.30281
1.2785
1.25406
1.22949
1.20478
1.17995
1.155
1.12992
1.10473
1.07941
1.05398
1.02843
1.00276
0.97697
0.951056
0.925014
0.898839
0.872524
0.846059
0.819434
0.792634
0.765643
0.738441
0.711001
0.683294
0.655284
0.626929
0.598176
0.568963
0.53921
0.50882
0.477659
0.445563
0.412287
0.377489
0.340585
0.300464
0.254585
0.195103
0.0873553
0.169256
0.388334
0.517374
0.621857
0.716517
0.80576
0.891297
0.973906
1.054
1.13181
1.2075
1.28119
1.35295
1.42287
1.49098
1.55733
1.62194
1.68482
1.746
1.80546
1.86321
1.91924
1.97353
2.02607
2.07686
2.12587
2.17309
2.21851
2.26213
2.30393
2.34391
2.38208
2.41844
2.453
2.48576
2.51675
2.54598
2.57348
2.59927
2.62339
2.64586
2.66673
2.68603
2.7038
2.72009
2.73494
2.7484
2.76051
2.77132
2.78088
2.78923
2.79643
2.80251
2.80754
2.81155
2.81459
2.8167
2.81794
2.81833
2.81793
2.81677
2.81489
2.81234
2.80913
2.80532
2.80092
2.79598
2.79052
2.78457
2.77815
2.7713
2.76403
2.75637
2.74834
2.73996
2.73124
2.72221
2.71288
2.70326
2.69338
2.68324
2.67285
2.66223
2.65139
2.64033
2.62907
2.61761
2.60595
2.59412
2.58211
2.56992
2.55757
2.54505
2.53237
2.51954
2.50655
2.49341
2.48011
2.46667
2.45308
2.43934
2.42545
2.41141
2.39723
2.3829
2.36842
2.35379
2.33901
2.32408
2.309
2.29376
2.27836
2.2628
2.24709
2.23121
2.21516
2.19896
2.18258
2.16603
2.14931
2.13241
2.11534
2.09808
2.08065
2.06303
2.04523
2.02724
2.00907
1.9907
1.97214
1.95339
1.93445
1.91531
1.89598
1.87645
1.85672
1.8368
1.81668
1.79636
1.77585
1.75515
1.73424
1.71315
1.69186
1.67038
1.64872
1.62686
1.60483
1.5826
1.5602
1.53762
1.51487
1.49195
1.46886
1.4456
1.42218
1.39861
1.37488
1.351
1.32698
1.30281
1.2785
1.25406
1.22949
1.20478
1.17995
1.155
1.12992
1.10473
1.07941
1.05398
1.02843
1.00276
0.976969
0.951055
0.925014
0.898839
0.872523
0.846058
0.819433
0.792634
0.765643
0.73844
0.711001
0.683294
0.655284
0.626929
0.598176
0.568962
0.53921
0.50882
0.477659
0.445563
0.412287
0.377489
0.340585
0.300464
0.254586
0.195103
0.0873553
0.195138
0.44491
0.588719
0.70329
0.806068
0.902471
0.994643
1.08356
1.16971
1.25337
1.3347
1.41381
1.49079
1.5657
1.6386
1.70952
1.77851
1.84558
1.91076
1.97406
2.03547
2.09501
2.15267
2.20845
2.26234
2.31433
2.36441
2.41258
2.45884
2.50317
2.54558
2.58608
2.62466
2.66133
2.69612
2.72903
2.76008
2.78931
2.81673
2.84237
2.86628
2.88848
2.90902
2.92794
2.94528
2.96109
2.97542
2.9883
2.99981
3.00997
3.01884
3.02648
3.03293
3.03824
3.04246
3.04564
3.04782
3.04906
3.0494
3.04889
3.04755
3.04545
3.04261
3.03907
3.03487
3.03005
3.02464
3.01867
3.01217
3.00517
2.9977
2.98978
2.98143
2.97269
2.96356
2.95408
2.94426
2.93411
2.92366
2.91291
2.90189
2.8906
2.87907
2.86729
2.85528
2.84305
2.83061
2.81796
2.80512
2.79208
2.77886
2.76546
2.75188
2.73813
2.72422
2.71013
2.69588
2.68148
2.66691
2.65218
2.63729
2.62225
2.60705
2.59169
2.57617
2.5605
2.54467
2.52867
2.51251
2.49619
2.47971
2.46306
2.44624
2.42924
2.41208
2.39474
2.37723
2.35953
2.34165
2.32359
2.30535
2.28691
2.26829
2.24947
2.23046
2.21125
2.19185
2.17224
2.15244
2.13242
2.11221
2.09179
2.07116
2.05033
2.02928
2.00803
1.98657
1.9649
1.94303
1.92094
1.89865
1.87615
1.85344
1.83053
1.80742
1.7841
1.76059
1.73688
1.71298
1.68888
1.6646
1.64013
1.61547
1.59064
1.56563
1.54045
1.51511
1.48959
1.46392
1.43809
1.41211
1.38597
1.35969
1.33327
1.30671
1.28001
1.25318
1.22622
1.19913
1.17191
1.14457
1.11709
1.08949
1.06176
1.0339
1.00591
0.97777
0.949486
0.921047
0.892442
0.863657
0.834678
0.805484
0.776052
0.746353
0.716354
0.686014
0.655283
0.624098
0.592382
0.560034
0.52692
0.492857
0.457577
0.420665
0.381449
0.338584
0.289003
0.223389
0.100943
0.195139
0.444911
0.588719
0.70329
0.806068
0.90247
0.994643
1.08356
1.16971
1.25337
1.3347
1.41381
1.49079
1.5657
1.6386
1.70952
1.77851
1.84558
1.91076
1.97405
2.03547
2.09501
2.15267
2.20845
2.26234
2.31433
2.36441
2.41258
2.45883
2.50317
2.54558
2.58607
2.62466
2.66133
2.69612
2.72903
2.76008
2.78931
2.81673
2.84237
2.86628
2.88848
2.90902
2.92794
2.94528
2.96109
2.97541
2.9883
2.9998
3.00997
3.01884
3.02648
3.03293
3.03824
3.04246
3.04564
3.04782
3.04906
3.0494
3.04888
3.04755
3.04544
3.0426
3.03907
3.03487
3.03005
3.02464
3.01867
3.01217
3.00517
2.9977
2.98978
2.98143
2.97269
2.96356
2.95408
2.94425
2.93411
2.92365
2.91291
2.90189
2.8906
2.87907
2.86729
2.85528
2.84305
2.83061
2.81796
2.80512
2.79208
2.77886
2.76546
2.75188
2.73813
2.72422
2.71013
2.69588
2.68147
2.66691
2.65218
2.63729
2.62225
2.60705
2.59169
2.57617
2.5605
2.54466
2.52867
2.51251
2.49619
2.47971
2.46306
2.44623
2.42924
2.41208
2.39474
2.37723
2.35953
2.34165
2.32359
2.30535
2.28691
2.26829
2.24947
2.23046
2.21125
2.19185
2.17224
2.15243
2.13242
2.11221
2.09179
2.07116
2.05033
2.02928
2.00803
1.98657
1.9649
1.94303
1.92094
1.89865
1.87615
1.85344
1.83053
1.80742
1.7841
1.76059
1.73688
1.71298
1.68888
1.6646
1.64013
1.61547
1.59064
1.56563
1.54045
1.51511
1.48959
1.46392
1.43809
1.4121
1.38597
1.35969
1.33327
1.30671
1.28001
1.25318
1.22622
1.19913
1.17191
1.14456
1.11709
1.08949
1.06176
1.0339
1.00591
0.97777
0.949486
0.921047
0.892442
0.863657
0.834678
0.805484
0.776051
0.746353
0.716354
0.686014
0.655283
0.624098
0.592382
0.560034
0.52692
0.492857
0.457577
0.420665
0.381449
0.338584
0.289003
0.223389
0.100943
0.219623
0.499003
0.657554
0.782232
0.893053
0.996398
1.09485
1.1896
1.28124
1.3701
1.45637
1.54017
1.62159
1.70071
1.77758
1.85227
1.9248
1.99522
2.06356
2.12985
2.1941
2.25632
2.31653
2.37474
2.43094
2.48513
2.53733
2.58752
2.63571
2.68189
2.72608
2.76828
2.80849
2.84672
2.883
2.91733
2.94974
2.98025
3.00888
3.03568
3.06067
3.08388
3.10537
3.12516
3.14331
3.15986
3.17486
3.18835
3.20039
3.21103
3.22031
3.2283
3.23504
3.24058
3.24497
3.24827
3.25051
3.25176
3.25206
3.25145
3.24998
3.2477
3.24463
3.24083
3.23633
3.23116
3.22537
3.21899
3.21204
3.20456
3.19658
3.18813
3.17922
3.16989
3.16015
3.15003
3.13955
3.12873
3.11758
3.10612
3.09437
3.08233
3.07003
3.05747
3.04466
3.03162
3.01836
3.00488
2.99118
2.97729
2.96319
2.94891
2.93444
2.91978
2.90495
2.88994
2.87476
2.85941
2.84388
2.82819
2.81233
2.79631
2.78012
2.76376
2.74724
2.73055
2.71369
2.69666
2.67946
2.66209
2.64454
2.62682
2.60892
2.59084
2.57258
2.55414
2.53551
2.51669
2.49768
2.47848
2.45908
2.43949
2.41969
2.39969
2.37949
2.35908
2.33847
2.31764
2.2966
2.27535
2.25389
2.2322
2.21031
2.18819
2.16585
2.1433
2.12052
2.09753
2.07432
2.05089
2.02724
2.00337
1.97929
1.95499
1.93047
1.90575
1.88082
1.85568
1.83033
1.80478
1.77903
1.75309
1.72695
1.70062
1.67411
1.64741
1.62054
1.59348
1.56626
1.53887
1.51132
1.48361
1.45574
1.42771
1.39954
1.37122
1.34276
1.31416
1.28542
1.25654
1.22752
1.19837
1.16908
1.13965
1.11008
1.08037
1.05051
1.0205
0.990326
0.95998
0.929451
0.898724
0.867781
0.836599
0.805152
0.773409
0.741328
0.708861
0.675946
0.642503
0.608428
0.573577
0.537748
0.50064
0.461773
0.420351
0.374804
0.321578
0.250018
0.113642
0.219624
0.499004
0.657554
0.782232
0.893053
0.996397
1.09485
1.1896
1.28124
1.3701
1.45637
1.54017
1.62159
1.70071
1.77758
1.85227
1.9248
1.99522
2.06356
2.12985
2.1941
2.25632
2.31653
2.37474
2.43094
2.48513
2.53733
2.58752
2.63571
2.68189
2.72608
2.76828
2.80849
2.84672
2.883
2.91733
2.94974
2.98025
3.00888
3.03568
3.06067
3.08388
3.10536
3.12516
3.14331
3.15986
3.17486
3.18835
3.20039
3.21103
3.22031
3.2283
3.23504
3.24058
3.24497
3.24826
3.25051
3.25176
3.25206
3.25145
3.24998
3.2477
3.24463
3.24083
3.23633
3.23116
3.22537
3.21899
3.21204
3.20456
3.19658
3.18812
3.17922
3.16989
3.16015
3.15003
3.13955
3.12873
3.11758
3.10612
3.09436
3.08233
3.07003
3.05747
3.04466
3.03162
3.01836
3.00488
2.99118
2.97729
2.96319
2.94891
2.93444
2.91978
2.90495
2.88994
2.87476
2.85941
2.84388
2.82819
2.81233
2.79631
2.78012
2.76376
2.74724
2.73055
2.71369
2.69666
2.67946
2.66209
2.64454
2.62682
2.60892
2.59084
2.57258
2.55414
2.53551
2.51669
2.49768
2.47848
2.45908
2.43949
2.41969
2.39969
2.37949
2.35908
2.33847
2.31764
2.2966
2.27535
2.25389
2.2322
2.21031
2.18819
2.16585
2.1433
2.12052
2.09753
2.07432
2.05089
2.02724
2.00337
1.97929
1.95499
1.93047
1.90575
1.88082
1.85567
1.83033
1.80478
1.77903
1.75309
1.72695
1.70062
1.67411
1.64741
1.62054
1.59348
1.56626
1.53887
1.51132
1.48361
1.45574
1.42771
1.39954
1.37122
1.34276
1.31416
1.28542
1.25654
1.22752
1.19837
1.16908
1.13965
1.11008
1.08037
1.05051
1.0205
0.990326
0.95998
0.929451
0.898724
0.86778
0.836599
0.805152
0.773408
0.741328
0.708861
0.675946
0.642503
0.608428
0.573577
0.537748
0.50064
0.461773
0.420351
0.374804
0.321578
0.250018
0.113642
0.244087
0.551734
0.724827
0.859583
0.978413
1.08858
1.1931
1.29337
1.39011
1.48371
1.57441
1.66235
1.74763
1.83035
1.91058
1.98838
2.06381
2.13692
2.20776
2.27638
2.3428
2.40705
2.46916
2.52915
2.58703
2.64282
2.69652
2.74814
2.7977
2.84519
2.89063
2.93403
2.97539
3.01473
3.05206
3.0874
3.12078
3.15221
3.18173
3.20936
3.23514
3.2591
3.28129
3.30174
3.32049
3.3376
3.35311
3.36707
3.37953
3.39053
3.40014
3.4084
3.41537
3.42109
3.42563
3.42902
3.43132
3.43259
3.43286
3.43218
3.43061
3.42818
3.42494
3.42093
3.41618
3.41075
3.40465
3.39794
3.39063
3.38277
3.37437
3.36548
3.35612
3.3463
3.33607
3.32543
3.31441
3.30303
3.2913
3.27925
3.26689
3.25423
3.24129
3.22808
3.21461
3.20089
3.18694
3.17275
3.15835
3.14373
3.1289
3.11387
3.09865
3.08323
3.06762
3.05183
3.03585
3.0197
3.00336
2.98685
2.97017
2.95331
2.93628
2.91907
2.90168
2.88412
2.86639
2.84847
2.83038
2.81211
2.79366
2.77502
2.75619
2.73718
2.71798
2.69859
2.679
2.65922
2.63924
2.61905
2.59866
2.57807
2.55726
2.53625
2.51502
2.49358
2.47192
2.45004
2.42794
2.40562
2.38308
2.3603
2.33731
2.31408
2.29063
2.26695
2.24304
2.2189
2.19453
2.16994
2.14511
2.12006
2.09478
2.06928
2.04355
2.01761
1.99144
1.96505
1.93845
1.91164
1.88461
1.85738
1.82995
1.80231
1.77448
1.74646
1.71824
1.68984
1.66126
1.6325
1.60356
1.57446
1.54518
1.51574
1.48615
1.45639
1.42648
1.39642
1.3662
1.33584
1.30533
1.27468
1.24387
1.21292
1.18182
1.15057
1.11916
1.08759
1.05585
1.02393
0.99183
0.959522
0.926996
0.894231
0.8612
0.827874
0.794212
0.760165
0.72567
0.690644
0.654974
0.618503
0.581008
0.542149
0.501382
0.457776
0.409563
0.352736
0.275386
0.12569
0.244088
0.551734
0.724827
0.859583
0.978412
1.08858
1.1931
1.29337
1.39011
1.48371
1.57441
1.66235
1.74763
1.83035
1.91058
1.98838
2.06381
2.13692
2.20776
2.27638
2.3428
2.40705
2.46916
2.52915
2.58703
2.64282
2.69652
2.74814
2.7977
2.84519
2.89063
2.93403
2.97539
3.01473
3.05206
3.0874
3.12078
3.15221
3.18173
3.20936
3.23514
3.2591
3.28129
3.30174
3.32049
3.3376
3.35311
3.36707
3.37953
3.39053
3.40014
3.4084
3.41537
3.42109
3.42563
3.42902
3.43132
3.43258
3.43286
3.43218
3.43061
3.42818
3.42494
3.42093
3.41618
3.41075
3.40465
3.39793
3.39063
3.38276
3.37437
3.36548
3.35612
3.3463
3.33607
3.32543
3.31441
3.30303
3.2913
3.27925
3.26689
3.25423
3.24129
3.22808
3.21461
3.20089
3.18694
3.17275
3.15835
3.14373
3.1289
3.11387
3.09864
3.08323
3.06762
3.05183
3.03585
3.0197
3.00336
2.98685
2.97017
2.95331
2.93627
2.91907
2.90168
2.88412
2.86639
2.84847
2.83038
2.81211
2.79366
2.77502
2.75619
2.73718
2.71798
2.69859
2.679
2.65922
2.63923
2.61905
2.59866
2.57807
2.55726
2.53625
2.51502
2.49358
2.47192
2.45004
2.42794
2.40562
2.38307
2.3603
2.33731
2.31408
2.29063
2.26695
2.24304
2.2189
2.19453
2.16994
2.14511
2.12006
2.09478
2.06928
2.04355
2.0176
1.99144
1.96505
1.93845
1.91164
1.88461
1.85738
1.82995
1.80231
1.77448
1.74646
1.71824
1.68984
1.66126
1.6325
1.60356
1.57446
1.54518
1.51574
1.48615
1.45639
1.42648
1.39642
1.3662
1.33584
1.30533
1.27468
1.24387
1.21292
1.18182
1.15057
1.11916
1.08759
1.05585
1.02393
0.991829
0.959522
0.926996
0.894231
0.8612
0.827874
0.794212
0.760165
0.72567
0.690644
0.654974
0.618503
0.581009
0.542149
0.501382
0.457776
0.409564
0.352736
0.275386
0.12569
0.268087
0.603634
0.791104
0.935899
1.0627
1.17961
1.29003
1.39559
1.49713
1.59512
1.68983
1.78146
1.87014
1.95596
2.03903
2.11942
2.19721
2.27247
2.34527
2.41566
2.48371
2.54944
2.61292
2.67416
2.7332
2.79007
2.84478
2.89736
2.94781
2.99615
3.04241
3.08658
3.12869
3.16875
3.20677
3.24279
3.27681
3.30886
3.33898
3.36718
3.39351
3.41799
3.44067
3.46158
3.48077
3.49829
3.51417
3.52847
3.54124
3.55252
3.56237
3.57084
3.57799
3.58385
3.5885
3.59197
3.59432
3.5956
3.59586
3.59514
3.59349
3.59095
3.58758
3.58341
3.57848
3.57283
3.5665
3.55952
3.55193
3.54376
3.53504
3.5258
3.51607
3.50587
3.49523
3.48417
3.47271
3.46088
3.44868
3.43615
3.42329
3.41012
3.39665
3.3829
3.36889
3.35461
3.34008
3.32531
3.31031
3.29509
3.27965
3.26399
3.24813
3.23207
3.21582
3.19936
3.18272
3.16589
3.14887
3.13167
3.11428
3.09671
3.07896
3.06103
3.04291
3.02462
3.00613
2.98747
2.96861
2.94957
2.93034
2.91092
2.8913
2.87149
2.85148
2.83128
2.81087
2.79025
2.76943
2.7484
2.72716
2.70571
2.68403
2.66214
2.64003
2.6177
2.59514
2.57235
2.54933
2.52608
2.50261
2.47889
2.45494
2.43076
2.40634
2.38168
2.35679
2.33165
2.30628
2.28067
2.25482
2.22874
2.20242
2.17587
2.14908
2.12206
2.09482
2.06734
2.03964
2.01172
1.98357
1.95521
1.92663
1.89785
1.86885
1.83965
1.81025
1.78066
1.75087
1.72088
1.69072
1.66037
1.62984
1.59913
1.56825
1.5372
1.50599
1.47461
1.44306
1.41136
1.3795
1.34748
1.3153
1.28296
1.25046
1.21779
1.18496
1.15196
1.11879
1.08543
1.05187
1.0181
0.984115
0.949883
0.915384
0.880586
0.845449
0.809924
0.773944
0.73742
0.70023
0.662202
0.623086
0.582502
0.539841
0.494052
0.443165
0.382748
0.299713
0.137274
0.268088
0.603635
0.791104
0.935898
1.0627
1.17961
1.29003
1.39559
1.49712
1.59511
1.68983
1.78146
1.87014
1.95596
2.03903
2.11941
2.1972
2.27247
2.34527
2.41566
2.48371
2.54944
2.61292
2.67416
2.7332
2.79007
2.84478
2.89735
2.94781
2.99615
3.04241
3.08658
3.12869
3.16875
3.20677
3.24279
3.27681
3.30886
3.33898
3.36718
3.39351
3.41799
3.44067
3.46158
3.48077
3.49829
3.51417
3.52847
3.54123
3.55252
3.56237
3.57084
3.57799
3.58385
3.5885
3.59197
3.59432
3.5956
3.59586
3.59514
3.59349
3.59095
3.58758
3.58341
3.57848
3.57283
3.5665
3.55952
3.55193
3.54376
3.53504
3.5258
3.51607
3.50587
3.49523
3.48417
3.47271
3.46088
3.44868
3.43615
3.42329
3.41012
3.39665
3.3829
3.36888
3.35461
3.34008
3.32531
3.31031
3.29509
3.27965
3.26399
3.24813
3.23207
3.21581
3.19936
3.18272
3.16589
3.14887
3.13167
3.11428
3.09671
3.07896
3.06103
3.04291
3.02462
3.00613
2.98746
2.96861
2.94957
2.93034
2.91092
2.8913
2.87149
2.85148
2.83128
2.81087
2.79025
2.76943
2.7484
2.72716
2.7057
2.68403
2.66214
2.64003
2.6177
2.59513
2.57235
2.54933
2.52608
2.5026
2.47889
2.45494
2.43076
2.40634
2.38168
2.35679
2.33165
2.30628
2.28067
2.25482
2.22874
2.20242
2.17587
2.14908
2.12206
2.09481
2.06734
2.03964
2.01171
1.98357
1.95521
1.92663
1.89785
1.86885
1.83965
1.81025
1.78066
1.75087
1.72088
1.69072
1.66037
1.62984
1.59913
1.56825
1.5372
1.50599
1.47461
1.44306
1.41136
1.3795
1.34748
1.3153
1.28296
1.25046
1.21779
1.18496
1.15196
1.11879
1.08543
1.05187
1.0181