/*--------------------------------*- C++ -*----------------------------------*\
  =========                 |
  \\      /  F ield         | OpenFOAM: The Open Source CFD Toolbox
   \\    /   O peration     | Website:  https://openfoam.org
    \\  /    A nd           | Version:  8
     \\/     M anipulation  |
\*---------------------------------------------------------------------------*/
FoamFile
{
    version     2.0;
    format      ascii;
    class       volVectorField;
    location    "3500";
    object      U;
}
// * * * * * * * * * * * * * * * * * * * * * * * * * * * * * * * * * * * * * //

dimensions      [0 1 -1 0 0 0 0];

internalField   nonuniform List<vector> 
48000
(
(-0.0171441 2.17552e-05 0.0187494)
(-0.0351432 -8.17044e-05 0.0173712)
(-0.0493195 2.93828e-05 0.00865768)
(-0.0532547 1.66549e-05 0.000367473)
(-0.0492998 6.90262e-06 -0.00566796)
(-0.0401054 2.6889e-06 -0.00973216)
(-0.0272152 9.91472e-07 -0.0124269)
(-0.0120607 3.33275e-07 -0.0141719)
(0.00477678 8.5867e-08 -0.0151345)
(0.0222354 1.85043e-09 -0.0154579)
(0.0400476 -2.21434e-08 -0.0154282)
(0.0578734 -2.95449e-08 -0.0151831)
(0.0754738 -3.26973e-08 -0.0147915)
(0.0926878 -3.4285e-08 -0.0142994)
(0.109397 -3.43192e-08 -0.0137386)
(0.125514 -3.26821e-08 -0.0131316)
(0.140976 -2.95448e-08 -0.0124949)
(0.155741 -2.53263e-08 -0.0118407)
(0.169778 -2.05062e-08 -0.0111782)
(0.183069 -1.55414e-08 -0.0105147)
(0.195603 -1.07404e-08 -0.00985545)
(0.207379 -6.35432e-09 -0.00920497)
(0.2184 -2.51272e-09 -0.00856669)
(0.228676 7.00666e-10 -0.00794335)
(0.238218 3.28584e-09 -0.00733717)
(0.247043 5.27898e-09 -0.0067499)
(0.255169 6.73338e-09 -0.00618293)
(0.262619 7.74613e-09 -0.00563731)
(0.269414 8.4029e-09 -0.00511385)
(0.275579 8.78553e-09 -0.00461312)
(0.281141 8.95496e-09 -0.00413547)
(0.286124 8.97019e-09 -0.0036811)
(0.290556 8.88453e-09 -0.00325003)
(0.294464 8.72653e-09 -0.00284214)
(0.297876 8.51522e-09 -0.00245718)
(0.300818 8.28488e-09 -0.00209482)
(0.303318 8.02408e-09 -0.0017546)
(0.305402 7.76518e-09 -0.00143598)
(0.307096 7.50629e-09 -0.00113838)
(0.308426 7.2493e-09 -0.000861123)
(0.309417 7.01134e-09 -0.000603519)
(0.310091 6.77338e-09 -0.000364836)
(0.310473 6.56589e-09 -0.000144272)
(0.310584 6.37362e-09 5.93809e-05)
(0.310445 6.21181e-09 0.00024669)
(0.310077 6.06904e-09 0.000418072)
(0.309498 5.9453e-09 0.000574627)
(0.308727 5.84821e-09 0.000717293)
(0.30778 5.76826e-09 0.000846911)
(0.306674 5.71115e-09 0.000964284)
(0.305424 5.67308e-09 0.00107019)
(0.304043 5.65214e-09 0.00116539)
(0.302546 5.65404e-09 0.00125063)
(0.300943 5.65785e-09 0.00132662)
(0.299248 5.69402e-09 0.00139404)
(0.297469 5.7359e-09 0.00145355)
(0.295617 5.80062e-09 0.00150578)
(0.293701 5.86725e-09 0.00155131)
(0.291729 5.95291e-09 0.00159071)
(0.289708 6.05571e-09 0.0016245)
(0.287646 6.16612e-09 0.00165317)
(0.285549 6.29176e-09 0.00167719)
(0.283422 6.42882e-09 0.00169699)
(0.281271 6.56588e-09 0.00171297)
(0.2791 6.71436e-09 0.0017255)
(0.276914 6.87046e-09 0.00173493)
(0.274716 7.03988e-09 0.00174157)
(0.27251 7.2093e-09 0.00174571)
(0.270299 7.38443e-09 0.00174762)
(0.268086 7.56337e-09 0.00174755)
(0.265873 7.73279e-09 0.00174573)
(0.263663 7.91553e-09 0.00174236)
(0.261456 8.09447e-09 0.00173763)
(0.259256 8.27912e-09 0.00173171)
(0.257063 8.44854e-09 0.00172476)
(0.254878 8.61605e-09 0.00171692)
(0.252704 8.78357e-09 0.00170832)
(0.25054 8.94537e-09 0.00169909)
(0.248387 9.09766e-09 0.00168932)
(0.246247 9.24614e-09 0.00167912)
(0.244119 9.39461e-09 0.00166857)
(0.242004 9.52215e-09 0.00165777)
(0.239903 9.65159e-09 0.00164677)
(0.237816 9.76771e-09 0.00163566)
(0.235742 9.88192e-09 0.0016245)
(0.233682 9.98091e-09 0.00161333)
(0.231636 1.00742e-08 0.00160223)
(0.229603 1.01636e-08 0.00159123)
(0.227585 1.02436e-08 0.00158038)
(0.225579 1.03102e-08 0.00156973)
(0.223587 1.03654e-08 0.00155932)
(0.221607 1.04263e-08 0.00154917)
(0.21964 1.04739e-08 0.00153934)
(0.217685 1.05177e-08 0.00152984)
(0.215742 1.05558e-08 0.00152072)
(0.21381 1.05767e-08 0.001512)
(0.211888 1.05919e-08 0.00150371)
(0.209977 1.06052e-08 0.00149588)
(0.208075 1.06186e-08 0.00148854)
(0.206182 1.06205e-08 0.0014817)
(0.204297 1.06147e-08 0.0014754)
(0.20242 1.06033e-08 0.00146966)
(0.20055 1.06014e-08 0.00146449)
(0.198685 1.05862e-08 0.00145994)
(0.196826 1.05595e-08 0.001456)
(0.194972 1.05424e-08 0.00145272)
(0.193122 1.05138e-08 0.0014501)
(0.191274 1.04834e-08 0.00144817)
(0.189428 1.04491e-08 0.00144694)
(0.187584 1.04129e-08 0.00144645)
(0.185739 1.03805e-08 0.0014467)
(0.183894 1.03425e-08 0.00144772)
(0.182048 1.0312e-08 0.00144952)
(0.180199 1.02682e-08 0.00145213)
(0.178346 1.02378e-08 0.00145556)
(0.176488 1.02035e-08 0.00145982)
(0.174625 1.01692e-08 0.00146495)
(0.172755 1.01349e-08 0.00147094)
(0.170877 1.01121e-08 0.00147782)
(0.16899 1.0095e-08 0.00148561)
(0.167094 1.00759e-08 0.00149432)
(0.165186 1.00645e-08 0.00150396)
(0.163265 1.00664e-08 0.00151456)
(0.161332 1.00664e-08 0.00152611)
(0.159383 1.00702e-08 0.00153864)
(0.157419 1.00892e-08 0.00155215)
(0.155438 1.01083e-08 0.00156667)
(0.153439 1.01463e-08 0.00158219)
(0.15142 1.01844e-08 0.00159873)
(0.149381 1.02301e-08 0.00161629)
(0.14732 1.02948e-08 0.00163488)
(0.145235 1.03671e-08 0.00165451)
(0.143127 1.04623e-08 0.00167518)
(0.140993 1.05651e-08 0.00169688)
(0.138832 1.06717e-08 0.00171963)
(0.136643 1.07974e-08 0.00174342)
(0.134426 1.0942e-08 0.00176825)
(0.132177 1.10981e-08 0.0017941)
(0.129898 1.12618e-08 0.00182098)
(0.127586 1.14446e-08 0.00184887)
(0.12524 1.16464e-08 0.00187775)
(0.122859 1.18596e-08 0.00190761)
(0.120442 1.20804e-08 0.00193844)
(0.117989 1.23278e-08 0.0019702)
(0.115497 1.25982e-08 0.00200288)
(0.112967 1.28913e-08 0.00203644)
(0.110396 1.32111e-08 0.00207084)
(0.107785 1.355e-08 0.00210605)
(0.105133 1.39116e-08 0.00214202)
(0.102438 1.43e-08 0.00217871)
(0.099701 1.47416e-08 0.00221605)
(0.0969203 1.52061e-08 0.002254)
(0.0940957 1.57163e-08 0.00229247)
(0.091227 1.62721e-08 0.0023314)
(0.0883137 1.68851e-08 0.0023707)
(0.0853559 1.75361e-08 0.00241029)
(0.0823534 1.82405e-08 0.00245005)
(0.0793065 1.90019e-08 0.00248988)
(0.0762153 1.98014e-08 0.00252965)
(0.0730803 2.06733e-08 0.00256923)
(0.0699023 2.15565e-08 0.00260846)
(0.066682 2.24969e-08 0.00264718)
(0.0634204 2.3464e-08 0.00268519)
(0.0601191 2.44234e-08 0.00272229)
(0.0567794 2.5379e-08 0.00275825)
(0.0534034 2.62965e-08 0.0027928)
(0.0499932 2.71722e-08 0.00282565)
(0.0465516 2.79679e-08 0.00285648)
(0.0430815 2.86266e-08 0.00288491)
(0.0395864 2.92243e-08 0.00291052)
(0.0360704 2.9704e-08 0.00293284)
(0.0325381 3.00847e-08 0.00295133)
(0.0289948 3.04578e-08 0.00296538)
(0.0254465 3.085e-08 0.00297427)
(0.0219002 3.13069e-08 0.0029772)
(0.0183637 3.19503e-08 0.00297324)
(0.0148461 3.28069e-08 0.0029613)
(0.0113576 3.38805e-08 0.00294014)
(0.00791006 3.51369e-08 0.00290823)
(0.00451695 3.64238e-08 0.00286368)
(0.00119746 3.74213e-08 0.00280326)
(-0.00204164 3.76078e-08 0.00271833)
(-0.00515752 3.72119e-08 0.00260758)
(-0.00814024 3.66332e-08 0.00247398)
(-0.0109559 3.59403e-08 0.00231485)
(-0.0135726 3.55062e-08 0.00212502)
(-0.0159516 3.58793e-08 0.00189807)
(-0.0180472 3.77144e-08 0.00162751)
(-0.0198055 4.13389e-08 0.00130456)
(-0.0211627 4.66462e-08 0.00091885)
(-0.0220431 5.27378e-08 0.000457603)
(-0.0223599 5.72608e-08 -9.44059e-05)
(-0.0220045 5.74968e-08 -0.000749754)
(-0.0208704 5.22657e-08 -0.00152043)
(-0.0188365 4.43695e-08 -0.00241293)
(-0.0157972 4.34557e-08 -0.00340272)
(-0.0117047 5.80754e-08 -0.00438221)
(-0.00684118 7.17431e-08 -0.00500109)
(-0.00128645 6.56825e-08 -0.00370425)
(0.000891192 1.21711e-10 0.00129317)
(-0.0164714 2.80634e-05 0.0180339)
(-0.0358512 -8.72918e-05 0.0171357)
(-0.0492809 2.93851e-05 0.00863608)
(-0.053265 1.66551e-05 0.000364318)
(-0.0493063 6.90265e-06 -0.00566869)
(-0.0401078 2.6889e-06 -0.0097325)
(-0.0272158 9.9147e-07 -0.0124272)
(-0.0120606 3.33274e-07 -0.0141722)
(0.00477705 8.58665e-08 -0.0151347)
(0.0222357 1.85042e-09 -0.0154581)
(0.0400479 -2.21433e-08 -0.0154284)
(0.0578737 -2.95447e-08 -0.0151833)
(0.075474 -3.26972e-08 -0.0147917)
(0.092688 -3.42849e-08 -0.0142996)
(0.109397 -3.43191e-08 -0.0137387)
(0.125514 -3.2682e-08 -0.0131317)
(0.140977 -2.95447e-08 -0.012495)
(0.155741 -2.53262e-08 -0.0118408)
(0.169778 -2.05061e-08 -0.0111784)
(0.183069 -1.55414e-08 -0.0105148)
(0.195603 -1.07403e-08 -0.00985558)
(0.207379 -6.35431e-09 -0.00920511)
(0.2184 -2.51272e-09 -0.00856682)
(0.228676 7.00665e-10 -0.00794348)
(0.238218 3.28584e-09 -0.0073373)
(0.247043 5.27897e-09 -0.00675003)
(0.255169 6.73337e-09 -0.00618305)
(0.262619 7.74612e-09 -0.00563743)
(0.269414 8.40288e-09 -0.00511397)
(0.275579 8.78552e-09 -0.00461323)
(0.28114 8.95495e-09 -0.00413558)
(0.286124 8.97018e-09 -0.00368121)
(0.290556 8.88452e-09 -0.00325014)
(0.294464 8.72651e-09 -0.00284224)
(0.297875 8.51521e-09 -0.00245729)
(0.300818 8.28487e-09 -0.00209492)
(0.303318 8.02407e-09 -0.0017547)
(0.305402 7.76517e-09 -0.00143608)
(0.307096 7.50628e-09 -0.00113847)
(0.308426 7.24929e-09 -0.000861218)
(0.309416 7.01133e-09 -0.000603613)
(0.310091 6.77338e-09 -0.000364929)
(0.310473 6.56588e-09 -0.000144363)
(0.310584 6.37361e-09 5.9291e-05)
(0.310445 6.2118e-09 0.000246602)
(0.310076 6.06903e-09 0.000417984)
(0.309498 5.9453e-09 0.000574541)
(0.308727 5.84821e-09 0.000717207)
(0.30778 5.76826e-09 0.000846827)
(0.306674 5.71115e-09 0.0009642)
(0.305424 5.67308e-09 0.00107011)
(0.304043 5.65214e-09 0.00116531)
(0.302546 5.65404e-09 0.00125055)
(0.300943 5.65785e-09 0.00132654)
(0.299247 5.69402e-09 0.00139396)
(0.297469 5.7359e-09 0.00145347)
(0.295617 5.80062e-09 0.0015057)
(0.293701 5.86725e-09 0.00155123)
(0.291729 5.95291e-09 0.00159063)
(0.289708 6.0557e-09 0.00162442)
(0.287646 6.16611e-09 0.00165309)
(0.285549 6.29175e-09 0.00167712)
(0.283422 6.42881e-09 0.00169692)
(0.281271 6.56587e-09 0.0017129)
(0.2791 6.71435e-09 0.00172543)
(0.276914 6.87045e-09 0.00173485)
(0.274716 7.03987e-09 0.00174149)
(0.27251 7.20929e-09 0.00174563)
(0.270299 7.38442e-09 0.00174755)
(0.268086 7.56336e-09 0.00174748)
(0.265873 7.73278e-09 0.00174566)
(0.263663 7.91553e-09 0.00174229)
(0.261456 8.09446e-09 0.00173755)
(0.259256 8.27911e-09 0.00173164)
(0.257063 8.44853e-09 0.00172469)
(0.254878 8.61605e-09 0.00171685)
(0.252703 8.78356e-09 0.00170825)
(0.25054 8.94537e-09 0.00169901)
(0.248387 9.09765e-09 0.00168924)
(0.246247 9.24613e-09 0.00167904)
(0.244119 9.39461e-09 0.0016685)
(0.242004 9.52215e-09 0.00165769)
(0.239903 9.65159e-09 0.0016467)
(0.237816 9.7677e-09 0.00163558)
(0.235742 9.88192e-09 0.00162442)
(0.233682 9.9809e-09 0.00161326)
(0.231636 1.00742e-08 0.00160215)
(0.229603 1.01636e-08 0.00159115)
(0.227585 1.02436e-08 0.00158031)
(0.225579 1.03102e-08 0.00156965)
(0.223587 1.03654e-08 0.00155924)
(0.221607 1.04263e-08 0.00154909)
(0.21964 1.04739e-08 0.00153926)
(0.217685 1.05177e-08 0.00152976)
(0.215742 1.05557e-08 0.00152064)
(0.21381 1.05767e-08 0.00151192)
(0.211888 1.05919e-08 0.00150363)
(0.209977 1.06052e-08 0.0014958)
(0.208075 1.06185e-08 0.00148845)
(0.206182 1.06204e-08 0.00148162)
(0.204297 1.06147e-08 0.00147532)
(0.20242 1.06033e-08 0.00146957)
(0.20055 1.06014e-08 0.00146441)
(0.198685 1.05862e-08 0.00145985)
(0.196826 1.05595e-08 0.00145592)
(0.194972 1.05424e-08 0.00145263)
(0.193121 1.05138e-08 0.00145001)
(0.191274 1.04833e-08 0.00144808)
(0.189428 1.04491e-08 0.00144686)
(0.187584 1.04129e-08 0.00144636)
(0.185739 1.03805e-08 0.00144662)
(0.183894 1.03425e-08 0.00144763)
(0.182048 1.0312e-08 0.00144944)
(0.180199 1.02682e-08 0.00145204)
(0.178346 1.02377e-08 0.00145547)
(0.176488 1.02035e-08 0.00145974)
(0.174625 1.01692e-08 0.00146486)
(0.172755 1.01349e-08 0.00147085)
(0.170877 1.01121e-08 0.00147774)
(0.16899 1.0095e-08 0.00148552)
(0.167094 1.00759e-08 0.00149423)
(0.165186 1.00645e-08 0.00150387)
(0.163265 1.00664e-08 0.00151447)
(0.161332 1.00664e-08 0.00152602)
(0.159383 1.00702e-08 0.00153855)
(0.157419 1.00892e-08 0.00155206)
(0.155438 1.01083e-08 0.00156658)
(0.153439 1.01463e-08 0.0015821)
(0.15142 1.01844e-08 0.00159864)
(0.149381 1.02301e-08 0.0016162)
(0.14732 1.02948e-08 0.00163479)
(0.145235 1.03671e-08 0.00165442)
(0.143127 1.04623e-08 0.00167508)
(0.140993 1.05651e-08 0.00169679)
(0.138832 1.06717e-08 0.00171954)
(0.136643 1.07973e-08 0.00174333)
(0.134426 1.0942e-08 0.00176815)
(0.132177 1.10981e-08 0.00179401)
(0.129898 1.12618e-08 0.00182088)
(0.127586 1.14446e-08 0.00184877)
(0.12524 1.16463e-08 0.00187765)
(0.122859 1.18595e-08 0.00190752)
(0.120442 1.20804e-08 0.00193834)
(0.117989 1.23278e-08 0.00197011)
(0.115497 1.25981e-08 0.00200278)
(0.112967 1.28913e-08 0.00203634)
(0.110396 1.32111e-08 0.00207074)
(0.107785 1.35499e-08 0.00210595)
(0.105133 1.39116e-08 0.00214192)
(0.102438 1.43e-08 0.0021786)
(0.099701 1.47416e-08 0.00221595)
(0.0969203 1.52061e-08 0.00225389)
(0.0940958 1.57163e-08 0.00229236)
(0.091227 1.62721e-08 0.00233129)
(0.0883138 1.68851e-08 0.00237059)
(0.0853559 1.75361e-08 0.00241017)
(0.0823535 1.82404e-08 0.00244993)
(0.0793065 1.90019e-08 0.00248976)
(0.0762153 1.98014e-08 0.00252953)
(0.0730804 2.06733e-08 0.00256911)
(0.0699023 2.15565e-08 0.00260833)
(0.066682 2.24969e-08 0.00264705)
(0.0634205 2.34639e-08 0.00268506)
(0.0601191 2.44234e-08 0.00272216)
(0.0567794 2.5379e-08 0.00275811)
(0.0534034 2.62965e-08 0.00279266)
(0.0499933 2.71722e-08 0.00282551)
(0.0465516 2.79679e-08 0.00285633)
(0.0430815 2.86265e-08 0.00288475)
(0.0395864 2.92243e-08 0.00291036)
(0.0360704 2.9704e-08 0.00293268)
(0.0325381 3.00847e-08 0.00295117)
(0.0289948 3.04578e-08 0.00296521)
(0.0254465 3.085e-08 0.00297409)
(0.0219002 3.13068e-08 0.00297702)
(0.0183637 3.19502e-08 0.00297305)
(0.0148461 3.28069e-08 0.00296111)
(0.0113576 3.38805e-08 0.00293994)
(0.00791009 3.51369e-08 0.00290803)
(0.00451698 3.64237e-08 0.00286347)
(0.00119749 3.74212e-08 0.00280305)
(-0.00204161 3.76078e-08 0.00271812)
(-0.00515749 3.72118e-08 0.00260736)
(-0.00814022 3.66331e-08 0.00247375)
(-0.0109559 3.59402e-08 0.00231463)
(-0.0135725 3.55062e-08 0.00212479)
(-0.0159516 3.58793e-08 0.00189784)
(-0.0180471 3.77144e-08 0.00162727)
(-0.0198054 4.13389e-08 0.00130431)
(-0.0211626 4.66461e-08 0.000918594)
(-0.0220431 5.27377e-08 0.000457331)
(-0.0223599 5.72606e-08 -9.47011e-05)
(-0.0220046 5.74967e-08 -0.000750077)
(-0.0208704 5.22656e-08 -0.00152078)
(-0.0188366 4.43694e-08 -0.0024133)
(-0.0157973 4.34557e-08 -0.00340306)
(-0.0117048 5.80755e-08 -0.00438253)
(-0.00684147 7.17437e-08 -0.0050015)
(-0.00128699 6.56819e-08 -0.00370499)
(0.00089061 1.21708e-10 0.00129147)
(-0.0142905 6.85153e-05 0.0397984)
(-0.0205046 -4.07694e-06 0.026118)
(-0.0206681 2.74728e-06 0.0112471)
(-0.0170505 2.39528e-06 -0.00192023)
(-0.0101167 1.14577e-06 -0.0120222)
(-0.00054538 4.58253e-07 -0.0192188)
(0.0111105 1.6439e-07 -0.0241318)
(0.0242594 5.27289e-08 -0.0273505)
(0.0384708 1.31772e-08 -0.0292915)
(0.0533424 -4.37817e-10 -0.0302771)
(0.068584 -5.51491e-09 -0.0306077)
(0.0839423 -7.96683e-09 -0.0304703)
(0.0992247 -9.35269e-09 -0.0299933)
(0.114282 -1.00037e-08 -0.0292677)
(0.128998 -9.99041e-09 -0.0283593)
(0.143284 -9.41788e-09 -0.0273167)
(0.157072 -8.45747e-09 -0.026177)
(0.170311 -7.2829e-09 -0.0249689)
(0.182963 -6.0517e-09 -0.0237148)
(0.195001 -4.8757e-09 -0.0224326)
(0.206406 -3.83011e-09 -0.021137)
(0.21717 -2.95823e-09 -0.0198397)
(0.227287 -2.271e-09 -0.0185505)
(0.236759 -1.76415e-09 -0.0172775)
(0.24559 -1.41577e-09 -0.0160274)
(0.253791 -1.19875e-09 -0.0148058)
(0.261374 -1.08786e-09 -0.0136171)
(0.268353 -1.05312e-09 -0.0124652)
(0.274745 -1.06549e-09 -0.0113531)
(0.28057 -1.10736e-09 -0.010283)
(0.285847 -1.16352e-09 -0.00925693)
(0.290598 -1.2211e-09 -0.00827603)
(0.294844 -1.27583e-09 -0.00734122)
(0.298609 -1.32389e-09 -0.00645295)
(0.301916 -1.36482e-09 -0.00561133)
(0.304787 -1.39575e-09 -0.00481614)
(0.307246 -1.41812e-09 -0.00406691)
(0.309317 -1.43334e-09 -0.00336291)
(0.311021 -1.44048e-09 -0.00270319)
(0.312381 -1.44714e-09 -0.00208664)
(0.31342 -1.44761e-09 -0.00151198)
(0.314158 -1.44475e-09 -0.000977831)
(0.314616 -1.43523e-09 -0.000482685)
(0.314813 -1.42714e-09 -2.49589e-05)
(0.31477 -1.42095e-09 0.000397035)
(0.314504 -1.41476e-09 0.000785049)
(0.314033 -1.40762e-09 0.0011408)
(0.313373 -1.39858e-09 0.00146603)
(0.312541 -1.39144e-09 0.00176243)
(0.31155 -1.38572e-09 0.00203171)
(0.310416 -1.37906e-09 0.00227553)
(0.309151 -1.37525e-09 0.00249553)
(0.307768 -1.37192e-09 0.0026933)
(0.306279 -1.36859e-09 0.00287038)
(0.304693 -1.36573e-09 0.00302824)
(0.303022 -1.36192e-09 0.00316833)
(0.301275 -1.36002e-09 0.00329198)
(0.29946 -1.35668e-09 0.00340051)
(0.297585 -1.35145e-09 0.00349513)
(0.295658 -1.34717e-09 0.00357701)
(0.293685 -1.3405e-09 0.00364723)
(0.291673 -1.33336e-09 0.00370681)
(0.289627 -1.32575e-09 0.00375671)
(0.287552 -1.31861e-09 0.00379782)
(0.285454 -1.31052e-09 0.00383097)
(0.283335 -1.30148e-09 0.00385693)
(0.281202 -1.29291e-09 0.00387641)
(0.279056 -1.28435e-09 0.00389006)
(0.276901 -1.27435e-09 0.00389851)
(0.274739 -1.26531e-09 0.00390229)
(0.272575 -1.25865e-09 0.00390193)
(0.270408 -1.25008e-09 0.00389789)
(0.268243 -1.24199e-09 0.00389061)
(0.26608 -1.23486e-09 0.00388047)
(0.263921 -1.22819e-09 0.00386785)
(0.261767 -1.22248e-09 0.00385306)
(0.25962 -1.22011e-09 0.00383641)
(0.257481 -1.2163e-09 0.00381818)
(0.255351 -1.21345e-09 0.00379861)
(0.25323 -1.21107e-09 0.00377793)
(0.251119 -1.21154e-09 0.00375636)
(0.249018 -1.2125e-09 0.00373408)
(0.246929 -1.21393e-09 0.00371128)
(0.244851 -1.21536e-09 0.00368811)
(0.242784 -1.21774e-09 0.00366472)
(0.240729 -1.22297e-09 0.00364124)
(0.238686 -1.22631e-09 0.00361782)
(0.236655 -1.23202e-09 0.00359455)
(0.234635 -1.23726e-09 0.00357156)
(0.232627 -1.24249e-09 0.00354893)
(0.23063 -1.24963e-09 0.00352677)
(0.228644 -1.25773e-09 0.00350516)
(0.22667 -1.26296e-09 0.00348418)
(0.224705 -1.27058e-09 0.00346392)
(0.222751 -1.27772e-09 0.00344445)
(0.220807 -1.28533e-09 0.00342582)
(0.218872 -1.29248e-09 0.00340812)
(0.216945 -1.30057e-09 0.00339141)
(0.215027 -1.30676e-09 0.00337573)
(0.213116 -1.31437e-09 0.00336116)
(0.211213 -1.32151e-09 0.00334775)
(0.209316 -1.32818e-09 0.00333555)
(0.207425 -1.33389e-09 0.00332461)
(0.205538 -1.3396e-09 0.00331498)
(0.203656 -1.34579e-09 0.00330671)
(0.201778 -1.35103e-09 0.00329984)
(0.199903 -1.35579e-09 0.00329443)
(0.198029 -1.36055e-09 0.00329052)
(0.196157 -1.36483e-09 0.00328814)
(0.194285 -1.36864e-09 0.00328734)
(0.192413 -1.37293e-09 0.00328817)
(0.190539 -1.37436e-09 0.00329066)
(0.188663 -1.37721e-09 0.00329484)
(0.186783 -1.37817e-09 0.00330077)
(0.1849 -1.38007e-09 0.00330846)
(0.183011 -1.38007e-09 0.00331797)
(0.181116 -1.38103e-09 0.00332932)
(0.179214 -1.38055e-09 0.00334254)
(0.177303 -1.37913e-09 0.00335767)
(0.175384 -1.37675e-09 0.00337474)
(0.173454 -1.37294e-09 0.00339377)
(0.171513 -1.37056e-09 0.00341479)
(0.169559 -1.36676e-09 0.00343783)
(0.167592 -1.36295e-09 0.00346291)
(0.16561 -1.35677e-09 0.00349004)
(0.163612 -1.35153e-09 0.00351926)
(0.161598 -1.34392e-09 0.00355057)
(0.159565 -1.34059e-09 0.00358399)
(0.157514 -1.33345e-09 0.00361953)
(0.155442 -1.32632e-09 0.00365719)
(0.153348 -1.32013e-09 0.00369699)
(0.151233 -1.31442e-09 0.00373892)
(0.149093 -1.30919e-09 0.00378298)
(0.146929 -1.3011e-09 0.00382915)
(0.144739 -1.29253e-09 0.00387744)
(0.142522 -1.2873e-09 0.00392782)
(0.140277 -1.28016e-09 0.00398027)
(0.138003 -1.27445e-09 0.00403477)
(0.135699 -1.27017e-09 0.00409128)
(0.133363 -1.26493e-09 0.00414977)
(0.130995 -1.2597e-09 0.00421018)
(0.128595 -1.25637e-09 0.00427247)
(0.12616 -1.25494e-09 0.00433657)
(0.12369 -1.25352e-09 0.00440242)
(0.121184 -1.24971e-09 0.00446995)
(0.118642 -1.24685e-09 0.00453906)
(0.116062 -1.24495e-09 0.00460966)
(0.113445 -1.244e-09 0.00468165)
(0.110789 -1.24257e-09 0.0047549)
(0.108094 -1.24448e-09 0.00482929)
(0.105359 -1.24257e-09 0.00490469)
(0.102584 -1.24305e-09 0.00498092)
(0.099769 -1.24305e-09 0.00505782)
(0.0969137 -1.24162e-09 0.00513522)
(0.0940179 -1.24353e-09 0.00521289)
(0.0910817 -1.24543e-09 0.00529062)
(0.0881055 -1.24924e-09 0.00536816)
(0.0850894 -1.25495e-09 0.00544526)
(0.0820341 -1.26399e-09 0.0055216)
(0.0789401 -1.27732e-09 0.00559689)
(0.0758085 -1.29636e-09 0.00567076)
(0.0726402 -1.3192e-09 0.00574283)
(0.0694367 -1.34966e-09 0.00581268)
(0.0661993 -1.39154e-09 0.00587984)
(0.06293 -1.44769e-09 0.00594381)
(0.0596309 -1.51432e-09 0.006004)
(0.0563044 -1.59618e-09 0.0060598)
(0.0529532 -1.69326e-09 0.00611051)
(0.0495807 -1.80938e-09 0.00615533)
(0.0461903 -1.93407e-09 0.00619341)
(0.0427863 -2.06923e-09 0.00622376)
(0.0393731 -2.20533e-09 0.00624528)
(0.0359562 -2.33573e-09 0.00625674)
(0.0325413 -2.44614e-09 0.00625673)
(0.0291351 -2.53466e-09 0.00624365)
(0.0257451 -2.58606e-09 0.00621569)
(0.0223798 -2.60224e-09 0.00617076)
(0.0190486 -2.59938e-09 0.00610642)
(0.0157625 -2.59177e-09 0.00601983)
(0.0125335 -2.6089e-09 0.00590746)
(0.00937574 -2.68981e-09 0.00576525)
(0.00630381 -2.81925e-09 0.00558628)
(0.00333621 -2.98677e-09 0.00536583)
(0.000491237 -3.22187e-09 0.00510029)
(-0.00220807 -3.46648e-09 0.00478242)
(-0.00473456 -3.61877e-09 0.00440429)
(-0.00706123 -3.57975e-09 0.00395619)
(-0.00915594 -3.24281e-09 0.0034265)
(-0.0109835 -2.57844e-09 0.00280105)
(-0.0125046 -1.659e-09 0.00206391)
(-0.0136768 -7.72865e-10 0.00119718)
(-0.0144554 -4.89227e-10 0.000181986)
(-0.0147959 -1.48006e-09 -0.000995273)
(-0.0146547 -3.93858e-09 -0.00233968)
(-0.0140016 -6.19436e-09 -0.00383543)
(-0.0128275 -3.71775e-09 -0.00540776)
(-0.0111611 6.43419e-09 -0.00684749)
(-0.00904574 2.33572e-09 -0.00767309)
(-0.00642501 -2.68981e-08 -0.00664217)
(-0.00387754 -3.20784e-07 -0.00187988)
(-0.0140096 7.1968e-05 0.0403681)
(-0.02053 -4.07613e-06 0.0261439)
(-0.0206674 2.74697e-06 0.0112452)
(-0.0170504 2.39521e-06 -0.00192189)
(-0.010117 1.14575e-06 -0.0120225)
(-0.000545417 4.58248e-07 -0.0192189)
(0.0111106 1.64388e-07 -0.0241319)
(0.0242596 5.27285e-08 -0.0273506)
(0.0384709 1.31771e-08 -0.0292916)
(0.0533425 -4.37814e-10 -0.0302772)
(0.0685841 -5.51487e-09 -0.0306078)
(0.0839424 -7.96678e-09 -0.0304704)
(0.0992248 -9.35264e-09 -0.0299934)
(0.114282 -1.00037e-08 -0.0292678)
(0.128998 -9.99036e-09 -0.0283593)
(0.143284 -9.41783e-09 -0.0273167)
(0.157072 -8.45743e-09 -0.0261771)
(0.170311 -7.28287e-09 -0.0249689)
(0.182963 -6.05167e-09 -0.0237148)
(0.195001 -4.87568e-09 -0.0224326)
(0.206406 -3.8301e-09 -0.021137)
(0.21717 -2.95822e-09 -0.0198397)
(0.227287 -2.27099e-09 -0.0185505)
(0.236758 -1.76414e-09 -0.0172775)
(0.24559 -1.41577e-09 -0.0160275)
(0.253791 -1.19875e-09 -0.0148058)
(0.261374 -1.08786e-09 -0.0136172)
(0.268353 -1.05311e-09 -0.0124653)
(0.274745 -1.06548e-09 -0.0113531)
(0.28057 -1.10736e-09 -0.0102831)
(0.285847 -1.16352e-09 -0.00925694)
(0.290598 -1.2211e-09 -0.00827605)
(0.294844 -1.27583e-09 -0.00734124)
(0.298609 -1.32389e-09 -0.00645297)
(0.301916 -1.36482e-09 -0.00561134)
(0.304787 -1.39575e-09 -0.00481616)
(0.307246 -1.41811e-09 -0.00406693)
(0.309316 -1.43334e-09 -0.00336293)
(0.311021 -1.44048e-09 -0.00270321)
(0.312381 -1.44714e-09 -0.00208666)
(0.31342 -1.44761e-09 -0.001512)
(0.314158 -1.44475e-09 -0.000977853)
(0.314615 -1.43523e-09 -0.000482707)
(0.314813 -1.42714e-09 -2.49811e-05)
(0.31477 -1.42095e-09 0.000397013)
(0.314504 -1.41476e-09 0.000785026)
(0.314033 -1.40762e-09 0.00114078)
(0.313373 -1.39858e-09 0.001466)
(0.31254 -1.39143e-09 0.00176241)
(0.31155 -1.38572e-09 0.00203168)
(0.310416 -1.37906e-09 0.00227551)
(0.309151 -1.37525e-09 0.00249551)
(0.307768 -1.37192e-09 0.00269328)
(0.306279 -1.36858e-09 0.00287035)
(0.304693 -1.36573e-09 0.00302822)
(0.303022 -1.36192e-09 0.0031683)
(0.301275 -1.36001e-09 0.00329196)
(0.29946 -1.35668e-09 0.00340049)
(0.297585 -1.35145e-09 0.00349511)
(0.295658 -1.34716e-09 0.00357699)
(0.293685 -1.3405e-09 0.0036472)
(0.291673 -1.33336e-09 0.00370678)
(0.289627 -1.32575e-09 0.00375668)
(0.287552 -1.31861e-09 0.00379779)
(0.285453 -1.31052e-09 0.00383094)
(0.283335 -1.30148e-09 0.0038569)
(0.281202 -1.29291e-09 0.00387638)
(0.279056 -1.28434e-09 0.00389004)
(0.276901 -1.27435e-09 0.00389848)
(0.274739 -1.26531e-09 0.00390227)
(0.272574 -1.25865e-09 0.00390191)
(0.270408 -1.25008e-09 0.00389787)
(0.268243 -1.24199e-09 0.00389059)
(0.26608 -1.23485e-09 0.00388045)
(0.263921 -1.22819e-09 0.00386783)
(0.261767 -1.22248e-09 0.00385304)
(0.25962 -1.2201e-09 0.00383639)
(0.257481 -1.2163e-09 0.00381816)
(0.255351 -1.21344e-09 0.00379859)
(0.25323 -1.21107e-09 0.00377791)
(0.251119 -1.21154e-09 0.00375634)
(0.249018 -1.2125e-09 0.00373406)
(0.246929 -1.21393e-09 0.00371126)
(0.244851 -1.21535e-09 0.00368809)
(0.242784 -1.21774e-09 0.0036647)
(0.240729 -1.22297e-09 0.00364122)
(0.238686 -1.22631e-09 0.0036178)
(0.236655 -1.23202e-09 0.00359453)
(0.234635 -1.23725e-09 0.00357154)
(0.232627 -1.24249e-09 0.00354891)
(0.23063 -1.24963e-09 0.00352675)
(0.228644 -1.25772e-09 0.00350514)
(0.22667 -1.26296e-09 0.00348416)
(0.224705 -1.27058e-09 0.0034639)
(0.222751 -1.27772e-09 0.00344443)
(0.220807 -1.28533e-09 0.0034258)
(0.218872 -1.29247e-09 0.0034081)
(0.216945 -1.30057e-09 0.00339139)
(0.215027 -1.30675e-09 0.00337571)
(0.213116 -1.31437e-09 0.00336114)
(0.211213 -1.32151e-09 0.00334773)
(0.209316 -1.32818e-09 0.00333553)
(0.207425 -1.33389e-09 0.00332459)
(0.205538 -1.3396e-09 0.00331496)
(0.203656 -1.34579e-09 0.00330669)
(0.201778 -1.35103e-09 0.00329982)
(0.199903 -1.35579e-09 0.00329441)
(0.198029 -1.36055e-09 0.0032905)
(0.196157 -1.36483e-09 0.00328812)
(0.194285 -1.36864e-09 0.00328732)
(0.192413 -1.37293e-09 0.00328815)
(0.190539 -1.37436e-09 0.00329064)
(0.188663 -1.37721e-09 0.00329482)
(0.186783 -1.37817e-09 0.00330075)
(0.1849 -1.38007e-09 0.00330844)
(0.183011 -1.38007e-09 0.00331795)
(0.181116 -1.38103e-09 0.0033293)
(0.179214 -1.38055e-09 0.00334252)
(0.177303 -1.37913e-09 0.00335765)
(0.175384 -1.37675e-09 0.00337472)
(0.173454 -1.37294e-09 0.00339375)
(0.171513 -1.37056e-09 0.00341477)
(0.169559 -1.36676e-09 0.00343781)
(0.167592 -1.36295e-09 0.00346288)
(0.16561 -1.35677e-09 0.00349002)
(0.163612 -1.35153e-09 0.00351924)
(0.161598 -1.34392e-09 0.00355055)
(0.159565 -1.34059e-09 0.00358397)
(0.157514 -1.33345e-09 0.00361951)
(0.155442 -1.32631e-09 0.00365717)
(0.153348 -1.32013e-09 0.00369697)
(0.151233 -1.31442e-09 0.0037389)
(0.149093 -1.30918e-09 0.00378295)
(0.146929 -1.3011e-09 0.00382913)
(0.144739 -1.29253e-09 0.00387742)
(0.142522 -1.2873e-09 0.0039278)
(0.140277 -1.28016e-09 0.00398025)
(0.138003 -1.27445e-09 0.00403475)
(0.135699 -1.27017e-09 0.00409126)
(0.133363 -1.26493e-09 0.00414974)
(0.130995 -1.2597e-09 0.00421016)
(0.128595 -1.25637e-09 0.00427244)
(0.12616 -1.25494e-09 0.00433655)
(0.12369 -1.25351e-09 0.0044024)
(0.121184 -1.24971e-09 0.00446993)
(0.118642 -1.24685e-09 0.00453904)
(0.116062 -1.24495e-09 0.00460964)
(0.113445 -1.244e-09 0.00468162)
(0.110789 -1.24257e-09 0.00475488)
(0.108094 -1.24448e-09 0.00482927)
(0.105359 -1.24257e-09 0.00490466)
(0.102584 -1.24305e-09 0.00498089)
(0.099769 -1.24305e-09 0.0050578)
(0.0969137 -1.24162e-09 0.00513519)
(0.0940179 -1.24353e-09 0.00521286)
(0.0910817 -1.24543e-09 0.00529059)
(0.0881055 -1.24924e-09 0.00536814)
(0.0850894 -1.25495e-09 0.00544523)
(0.0820341 -1.26399e-09 0.00552158)
(0.0789401 -1.27732e-09 0.00559686)
(0.0758085 -1.29635e-09 0.00567073)
(0.0726403 -1.3192e-09 0.0057428)
(0.0694367 -1.34966e-09 0.00581265)
(0.0661993 -1.39153e-09 0.00587981)
(0.0629301 -1.44769e-09 0.00594378)
(0.0596309 -1.51432e-09 0.00600397)
(0.0563044 -1.59617e-09 0.00605977)
(0.0529533 -1.69326e-09 0.00611047)
(0.0495807 -1.80938e-09 0.0061553)
(0.0461903 -1.93407e-09 0.00619337)
(0.0427863 -2.06922e-09 0.00622372)
(0.0393731 -2.20533e-09 0.00624524)
(0.0359562 -2.33573e-09 0.0062567)
(0.0325413 -2.44614e-09 0.00625669)
(0.0291351 -2.53466e-09 0.00624362)
(0.0257451 -2.58605e-09 0.00621566)
(0.0223798 -2.60223e-09 0.00617072)
(0.0190487 -2.59938e-09 0.00610638)
(0.0157625 -2.59176e-09 0.00601979)
(0.0125335 -2.6089e-09 0.00590741)
(0.00937575 -2.6898e-09 0.00576521)
(0.00630383 -2.81925e-09 0.00558624)
(0.00333622 -2.98676e-09 0.00536578)
(0.000491251 -3.22186e-09 0.00510025)
(-0.00220806 -3.46647e-09 0.00478237)
(-0.00473455 -3.61876e-09 0.00440424)
(-0.00706122 -3.57974e-09 0.00395614)
(-0.00915593 -3.2428e-09 0.00342646)
(-0.0109835 -2.57844e-09 0.002801)
(-0.0125046 -1.659e-09 0.00206386)
(-0.0136768 -7.72864e-10 0.00119713)
(-0.0144554 -4.89226e-10 0.000181925)
(-0.0147959 -1.48006e-09 -0.000995341)
(-0.0146547 -3.93857e-09 -0.00233976)
(-0.0140017 -6.19435e-09 -0.00383551)
(-0.0128275 -3.71776e-09 -0.00540784)
(-0.0111612 6.43424e-09 -0.00684758)
(-0.00904588 2.33575e-09 -0.00767323)
(-0.00642533 -2.68981e-08 -0.00664241)
(-0.0038783 -3.2078e-07 -0.00188049)
(-0.00572276 -3.03136e-05 0.0534086)
(-0.00579421 -5.7415e-06 0.0257229)
(-0.000576532 -8.10578e-07 0.00548563)
(0.00650568 2.592e-07 -0.0102944)
(0.0150754 2.6084e-07 -0.0223185)
(0.0248968 1.37983e-07 -0.0311662)
(0.0358391 6.04779e-08 -0.0374452)
(0.0477067 2.52903e-08 -0.0417128)
(0.0602894 1.13126e-08 -0.0444219)
(0.0733853 5.82906e-09 -0.0459334)
(0.0868044 3.3224e-09 -0.046546)
(0.100366 1.8028e-09 -0.0464807)
(0.113916 7.69585e-10 -0.0459026)
(0.127328 1.2805e-10 -0.0449354)
(0.140498 -1.54167e-10 -0.043673)
(0.153341 -1.45122e-10 -0.0421876)
(0.165789 6.80911e-11 -0.0405354)
(0.17779 3.92906e-10 -0.0387611)
(0.189303 7.55557e-10 -0.0369004)
(0.200296 1.09893e-09 -0.0349824)
(0.210748 1.3902e-09 -0.0330308)
(0.220643 1.6115e-09 -0.0310653)
(0.229973 1.75713e-09 -0.0291023)
(0.238733 1.82923e-09 -0.0271553)
(0.246926 1.84137e-09 -0.0252359)
(0.254554 1.80377e-09 -0.0233536)
(0.261627 1.73191e-09 -0.0215163)
(0.268154 1.63673e-09 -0.0197307)
(0.27415 1.5306e-09 -0.0180021)
(0.279628 1.42376e-09 -0.0163349)
(0.284605 1.32049e-09 -0.0147323)
(0.289099 1.22578e-09 -0.013197)
(0.293128 1.13988e-09 -0.0117308)
(0.296712 1.06516e-09 -0.0103348)
(0.299872 1.0002e-09 -0.00900945)
(0.302626 9.47137e-10 -0.00775488)
(0.304996 9.0145e-10 -0.0065706)
(0.307002 8.63854e-10 -0.00545575)
(0.308665 8.33158e-10 -0.0044091)
(0.310004 8.06983e-10 -0.00342913)
(0.311039 7.86758e-10 -0.00251404)