/*--------------------------------*- C++ -*----------------------------------*\
  =========                 |
  \\      /  F ield         | OpenFOAM: The Open Source CFD Toolbox
   \\    /   O peration     | Website:  https://openfoam.org
    \\  /    A nd           | Version:  8
     \\/     M anipulation  |
\*---------------------------------------------------------------------------*/
FoamFile
{
    version     2.0;
    format      ascii;
    class       volScalarField;
    location    "700";
    object      nut;
}
// * * * * * * * * * * * * * * * * * * * * * * * * * * * * * * * * * * * * * //

dimensions      [0 2 -1 0 0 0 0];

internalField   nonuniform List<scalar> 
48000
(
0.000108702
0.000152074
3.27761e-05
3.81795e-05
0.000278271
4.87132e-05
5.0841e-05
5.3653e-05
5.62622e-05
5.86763e-05
6.09573e-05
6.31492e-05
6.5243e-05
6.72544e-05
6.91922e-05
7.10645e-05
7.28779e-05
7.46378e-05
7.63485e-05
7.80137e-05
7.96362e-05
8.12187e-05
8.27632e-05
8.42717e-05
8.57456e-05
8.71863e-05
8.8595e-05
8.99727e-05
9.13202e-05
9.26384e-05
9.39279e-05
9.51892e-05
9.64227e-05
9.7629e-05
9.88084e-05
9.9961e-05
0.000101087
0.000102188
0.000103262
0.00010431
0.000105333
0.000106331
0.000107303
0.00010825
0.000109172
0.000110069
0.000110942
0.000111789
0.000112613
0.000113412
0.000114186
0.000114937
0.000115664
0.000116367
0.000117047
0.000117703
0.000118336
0.000118946
0.000119533
0.000120097
0.00012064
0.00012116
0.000121657
0.000122134
0.000122588
0.000123021
0.000123433
0.000123825
0.000124195
0.000124545
0.000124875
0.000125184
0.000125474
0.000125744
0.000125995
0.000126227
0.000126439
0.000126633
0.000126808
0.000126965
0.000127103
0.000127225
0.000127329
0.000127416
0.000127485
0.000127538
0.000127573
0.000127591
0.000127593
0.000127578
0.000127547
0.000127499
0.000127436
0.000127357
0.000127261
0.000127151
0.000127024
0.000126883
0.000126726
0.000126554
0.000126368
0.000126166
0.00012595
0.00012572
0.000125475
0.000125215
0.000124942
0.000124654
0.000124353
0.000124037
0.000123708
0.000123364
0.000123007
0.000122637
0.000122252
0.000121854
0.000121442
0.000121017
0.000120578
0.000120125
0.000119658
0.000119178
0.000118684
0.000118176
0.000117655
0.000117119
0.00011657
0.000116007
0.000115429
0.000114837
0.000114231
0.000113611
0.000112977
0.000112328
0.000111664
0.000110986
0.000110293
0.000109585
0.000108863
0.000108125
0.000107373
0.000106605
0.000105822
0.000105024
0.000104211
0.000103383
0.000102539
0.000101679
0.000100804
9.99137e-05
9.90075e-05
9.80856e-05
9.71479e-05
9.61945e-05
9.52252e-05
9.424e-05
9.32389e-05
9.22217e-05
9.11884e-05
9.0139e-05
8.90734e-05
8.79915e-05
8.68932e-05
8.57785e-05
8.46471e-05
8.34991e-05
8.23343e-05
8.11526e-05
7.99538e-05
7.87376e-05
7.75039e-05
7.62524e-05
7.49828e-05
7.36949e-05
7.23882e-05
7.10623e-05
6.97169e-05
6.83513e-05
6.69648e-05
6.55568e-05
6.41261e-05
6.26716e-05
6.1192e-05
5.96853e-05
5.81496e-05
5.65825e-05
5.49822e-05
5.33436e-05
5.16856e-05
5.00874e-05
5.01637e-05
0.000316255
4.44376e-05
4.26529e-05
4.00356e-05
3.66714e-05
0.000186559
0.000168585
0.000136598
8.71842e-05
0.000108689
0.000151983
3.27606e-05
3.82153e-05
0.00027848
4.87211e-05
5.08427e-05
5.36533e-05
5.62628e-05
5.8677e-05
6.09581e-05
6.31499e-05
6.52436e-05
6.72549e-05
6.91927e-05
7.1065e-05
7.28785e-05
7.46383e-05
7.63491e-05
7.80142e-05
7.96367e-05
8.12191e-05
8.27636e-05
8.4272e-05
8.57459e-05
8.71865e-05
8.85952e-05
8.99729e-05
9.13204e-05
9.26386e-05
9.3928e-05
9.51893e-05
9.64229e-05
9.76291e-05
9.88085e-05
9.99611e-05
0.000101087
0.000102188
0.000103262
0.00010431
0.000105333
0.000106331
0.000107303
0.00010825
0.000109172
0.000110069
0.000110941
0.000111789
0.000112613
0.000113412
0.000114186
0.000114937
0.000115664
0.000116367
0.000117047
0.000117703
0.000118336
0.000118946
0.000119533
0.000120097
0.000120639
0.000121159
0.000121657
0.000122133
0.000122588
0.000123021
0.000123433
0.000123824
0.000124195
0.000124545
0.000124875
0.000125184
0.000125474
0.000125744
0.000125995
0.000126227
0.000126439
0.000126633
0.000126808
0.000126964
0.000127103
0.000127225
0.000127329
0.000127416
0.000127485
0.000127538
0.000127573
0.000127591
0.000127593
0.000127578
0.000127547
0.000127499
0.000127436
0.000127356
0.000127261
0.00012715
0.000127024
0.000126883
0.000126726
0.000126554
0.000126367
0.000126166
0.00012595
0.000125719
0.000125474
0.000125215
0.000124942
0.000124654
0.000124353
0.000124037
0.000123708
0.000123364
0.000123007
0.000122636
0.000122252
0.000121854
0.000121442
0.000121017
0.000120577
0.000120125
0.000119658
0.000119178
0.000118684
0.000118176
0.000117655
0.000117119
0.00011657
0.000116006
0.000115429
0.000114837
0.000114231
0.000113611
0.000112976
0.000112327
0.000111664
0.000110986
0.000110293
0.000109585
0.000108862
0.000108125
0.000107372
0.000106605
0.000105822
0.000105024
0.000104211
0.000103382
0.000102538
0.000101679
0.000100804
9.99134e-05
9.90072e-05
9.80853e-05
9.71477e-05
9.61943e-05
9.5225e-05
9.42398e-05
9.32386e-05
9.22215e-05
9.11882e-05
9.01388e-05
8.90732e-05
8.79913e-05
8.6893e-05
8.57782e-05
8.46469e-05
8.3499e-05
8.23342e-05
8.11525e-05
7.99536e-05
7.87375e-05
7.75038e-05
7.62523e-05
7.49827e-05
7.36947e-05
7.2388e-05
7.10622e-05
6.97167e-05
6.83511e-05
6.69647e-05
6.55567e-05
6.4126e-05
6.26716e-05
6.11919e-05
5.96853e-05
5.81496e-05
5.65826e-05
5.49823e-05
5.33437e-05
5.16852e-05
5.00816e-05
5.01362e-05
0.000315698
4.44841e-05
4.51421e-05
0.000216844
3.65547e-05
0.000185879
0.000168341
0.000136534
8.71752e-05
0.000122306
0.000228317
0.000240524
0.000309468
0.000453369
0.000465494
0.000501126
0.000536144
0.000568272
0.00059779
0.000625104
0.000650519
0.000674453
0.000697144
0.000718774
0.000739479
0.000759362
0.000778507
0.000796981
0.00081484
0.000832132
0.000848895
0.000865166
0.000880974
0.000896344
0.000911301
0.000925863
0.000940049
0.000953875
0.000967353
0.000980496
0.000993315
0.00100582
0.00101802
0.00102992
0.00104152
0.00105284
0.00106388
0.00107463
0.00108512
0.00109533
0.00110528
0.00111497
0.00112439
0.00113355
0.00114246
0.00115112
0.00115952
0.00116767
0.00117558
0.00118324
0.00119066
0.00119783
0.00120477
0.00121146
0.00121793
0.00122416
0.00123015
0.00123592
0.00124146
0.00124678
0.00125187
0.00125674
0.0012614
0.00126583
0.00127006
0.00127407
0.00127787
0.00128146
0.00128485
0.00128804
0.00129102
0.00129381
0.0012964
0.0012988
0.001301
0.00130301
0.00130483
0.00130647
0.00130791
0.00130915
0.00131017
0.001311
0.00131167
0.00131215
0.00131247
0.00131262
0.0013126
0.00131241
0.00131206
0.00131154
0.00131087
0.00131003
0.00130904
0.00130789
0.00130658
0.00130512
0.00130351
0.00130174
0.00129983
0.00129777
0.00129556
0.00129321
0.00129071
0.00128806
0.00128527
0.00128234
0.00127927
0.00127606
0.00127271
0.00126922
0.00126559
0.00126181
0.0012579
0.00125386
0.00124967
0.00124534
0.00124087
0.00123627
0.00123152
0.00122664
0.00122161
0.00121644
0.00121114
0.00120569
0.00120009
0.00119436
0.00118848
0.00118245
0.00117628
0.00116997
0.0011635
0.0011569
0.00115014
0.00114323
0.00113618
0.00112898
0.00112163
0.00111412
0.00110647
0.00109867
0.00109071
0.0010826
0.00107434
0.00106593
0.00105736
0.00104864
0.00103977
0.00103075
0.00102157
0.00101223
0.00100274
0.000993101
0.000983304
0.000973353
0.000963246
0.000952984
0.000942567
0.000931993
0.000921264
0.000910377
0.000899333
0.000888131
0.00087677
0.00086525
0.000853568
0.000841724
0.000829716
0.000817543
0.000805202
0.000792692
0.000780008
0.000767148
0.000754109
0.000740885
0.000727472
0.000713864
0.000700052
0.000686028
0.00067178
0.000657295
0.000642555
0.000627538
0.000612215
0.000596545
0.00058047
0.000563894
0.000546675
0.000528598
0.000510127
0.000495834
0.000515951
0.000373812
0.000339461
0.000317777
0.000294863
0.000364432
0.000328808
0.000234203
0.000101616
0.000122419
0.000229173
0.000240751
0.000308566
0.00045263
0.000465832
0.000501294
0.000536217
0.000568319
0.000597831
0.000625144
0.000650558
0.000674491
0.000697181
0.00071881
0.000739514
0.000759396
0.000778541
0.000797014
0.000814873
0.000832163
0.000848927
0.000865197
0.000881004
0.000896374
0.00091133
0.000925892
0.000940077
0.000953902
0.000967379
0.000980522
0.000993341
0.00100584
0.00101804
0.00102994
0.00104154
0.00105286
0.0010639
0.00107466
0.00108514
0.00109536
0.0011053
0.00111499
0.00112441
0.00113357
0.00114248
0.00115114
0.00115954
0.00116769
0.0011756
0.00118326
0.00119067
0.00119785
0.00120478
0.00121148
0.00121794
0.00122417
0.00123017
0.00123594
0.00124148
0.00124679
0.00125189
0.00125676
0.00126141
0.00126585
0.00127007
0.00127408
0.00127788
0.00128148
0.00128487
0.00128805
0.00129104
0.00129382
0.00129641
0.00129881
0.00130101
0.00130302
0.00130484
0.00130648
0.00130792
0.00130916
0.00131018
0.00131102
0.00131168
0.00131217
0.00131248
0.00131263
0.00131261
0.00131242
0.00131207
0.00131155
0.00131088
0.00131004
0.00130905
0.0013079
0.00130659
0.00130513
0.00130352
0.00130175
0.00129984
0.00129778
0.00129557
0.00129322
0.00129072
0.00128807
0.00128528
0.00128236
0.00127928
0.00127607
0.00127272
0.00126923
0.0012656
0.00126182
0.00125791
0.00125386
0.00124968
0.00124535
0.00124088
0.00123628
0.00123153
0.00122665
0.00122162
0.00121645
0.00121114
0.00120569
0.0012001
0.00119436
0.00118848
0.00118246
0.00117629
0.00116997
0.00116351
0.0011569
0.00115015
0.00114324
0.00113619
0.00112899
0.00112163
0.00111413
0.00110648
0.00109867
0.00109072
0.00108261
0.00107435
0.00106594
0.00105737
0.00104865
0.00103978
0.00103075
0.00102157
0.00101224
0.00100275
0.000993108
0.000983311
0.000973359
0.000963252
0.000952991
0.000942573
0.000932
0.00092127
0.000910383
0.00089934
0.000888138
0.000876777
0.000865256
0.000853574
0.000841731
0.000829723
0.00081755
0.000805209
0.000792698
0.000780015
0.000767155
0.000754116
0.000740893
0.00072748
0.000713871
0.000700059
0.000686035
0.000671788
0.000657303
0.000642563
0.000627547
0.000612223
0.000596554
0.000580478
0.0005639
0.000546671
0.000528554
0.000509954
0.000495565
0.000518104
0.000379107
0.000357752
0.000396992
0.000306325
0.00036686
0.000328928
0.000234163
0.000101615
0.000152623
0.000328523
0.000486009
0.000636917
0.000783847
0.000890048
0.000983282
0.00106617
0.0011406
0.00120837
0.00127074
0.00132867
0.0013829
0.001434
0.0014824
0.00152844
0.00157237
0.00161441
0.00165472
0.00169346
0.00173075
0.0017667
0.0018014
0.00183492
0.00186735
0.00189875
0.00192917
0.00195867
0.00198729
0.00201508
0.00204208
0.00206831
0.0020938
0.00211859
0.0021427
0.00216615
0.00218896
0.00221114
0.00223271
0.00225369
0.00227409
0.00229392
0.00231318
0.0023319
0.00235007
0.00236771
0.00238482
0.00240141
0.00241748
0.00243305
0.00244811
0.00246268
0.00247676
0.00249035
0.00250346
0.0025161
0.00252826
0.00253996
0.00255119
0.00256198
0.00257231
0.00258219
0.00259163
0.00260064
0.00260921
0.00261736
0.00262508
0.00263239
0.00263928
0.00264576
0.00265184
0.00265752
0.00266281
0.0026677
0.00267221
0.00267633
0.00268008
0.00268345
0.00268644
0.00268906
0.0026913
0.00269314
0.0026946
0.00269571
0.00269647
0.0026969
0.00269698
0.00269674
0.00269616
0.00269525
0.00269402
0.00269248
0.00269061
0.00268843
0.00268594
0.00268315
0.00268004
0.00267664
0.00267293
0.00266893
0.00266464
0.00266005
0.00265517
0.00265001
0.00264455
0.00263882
0.0026328
0.00262649
0.00261991
0.00261304
0.0026059
0.00259848
0.00259078
0.0025828
0.00257454
0.00256601
0.00255719
0.0025481
0.00253873
0.00252907
0.00251914
0.00250892
0.00249843
0.00248764
0.00247657
0.00246522
0.00245358
0.00244165
0.00242943
0.00241692
0.00240412
0.00239102
0.00237763
0.00236395
0.00234997
0.00233569
0.00232112
0.00230625
0.00229107
0.0022756
0.00225983
0.00224376
0.00222738
0.00221071
0.00219373
0.00217645
0.00215886
0.00214097
0.00212278
0.00210429
0.00208549
0.00206638
0.00204697
0.00202726
0.00200724
0.00198691
0.00196627
0.00194533
0.00192407
0.00190251
0.00188063
0.00185843
0.00183592
0.00181308
0.00178991
0.00176642
0.00174259
0.00171842
0.0016939
0.00166902
0.00164377
0.00161815
0.00159213
0.0015657
0.00153885
0.00151154
0.00148376
0.00145548
0.00142666
0.00139725
0.0013672
0.00133645
0.0013049
0.00127246
0.00123897
0.00120425
0.00116799
0.00112974
0.00108875
0.00104408
0.000996261
0.000954468
0.000870149
0.000801271
0.000735307
0.000661107
0.000593294
0.000477275
0.000316841
0.000135239
0.000152781
0.000327952
0.000485204
0.000635666
0.000783852
0.000890366
0.000983485
0.0010663
0.0011407
0.00120845
0.00127083
0.00132875
0.00138297
0.00143407
0.00148247
0.00152851
0.00157243
0.00161447
0.00165478
0.00169352
0.00173081
0.00176676
0.00180145
0.00183497
0.0018674
0.00189879
0.00192921
0.00195871
0.00198734
0.00201512
0.00204211
0.00206834
0.00209384
0.00211863
0.00214273
0.00216618
0.00218898
0.00221117
0.00223274
0.00225372
0.00227411
0.00229394
0.0023132
0.00233192
0.00235009
0.00236772
0.00238483
0.00240142
0.0024175
0.00243306
0.00244813
0.00246269
0.00247677
0.00249036
0.00250347
0.0025161
0.00252827
0.00253996
0.0025512
0.00256198
0.00257231
0.00258219
0.00259163
0.00260064
0.00260921
0.00261736
0.00262508
0.00263239
0.00263928
0.00264576
0.00265184
0.00265752
0.00266281
0.0026677
0.00267221
0.00267633
0.00268007
0.00268344
0.00268644
0.00268905
0.00269129
0.00269313
0.00269459
0.0026957
0.00269647
0.00269689
0.00269698
0.00269673
0.00269615
0.00269524
0.00269401
0.00269247
0.0026906
0.00268842
0.00268593
0.00268313
0.00268003
0.00267663
0.00267292
0.00266892
0.00266463
0.00266004
0.00265516
0.00264999
0.00264454
0.0026388
0.00263278
0.00262648
0.00261989
0.00261303
0.00260589
0.00259846
0.00259076
0.00258278
0.00257453
0.00256599
0.00255718
0.00254808
0.00253871
0.00252906
0.00251912
0.00250891
0.00249841
0.00248763
0.00247656
0.0024652
0.00245356
0.00244163
0.00242941
0.0024169
0.0024041
0.002391
0.00237762
0.00236393
0.00234995
0.00233567
0.0023211
0.00230623
0.00229106
0.00227558
0.00225981
0.00224374
0.00222736
0.00221069
0.00219371
0.00217643
0.00215884
0.00214095
0.00212276
0.00210427
0.00208547
0.00206636
0.00204695
0.00202724
0.00200722
0.00198689
0.00196625
0.00194531
0.00192405
0.00190249
0.00188061
0.00185841
0.0018359
0.00181306
0.0017899
0.0017664
0.00174257
0.0017184
0.00169388
0.001669
0.00164375
0.00161813
0.00159211
0.00156568
0.00153883
0.00151153
0.00148375
0.00145547
0.00142664
0.00139723
0.00136719
0.00133643
0.00130489
0.00127245
0.00123896
0.00120424
0.00116798
0.00112973
0.00108871
0.00104398
0.000996116
0.0009552
0.000870478
0.000804168
0.000754912
0.000666689
0.000594222
0.000477364
0.000316849
0.000135259
0.000171438
0.000364515
0.000621954
0.000861162
0.00106397
0.00123301
0.00137926
0.00150853
0.00162454
0.00173005
0.00182704
0.00191701
0.00200109
0.00208014
0.00215485
0.00222574
0.00229321
0.00235762
0.00241923
0.00247829
0.00253499
0.00258951
0.002642
0.00269259
0.0027414
0.00278853
0.00283409
0.00287815
0.0029208
0.00296211
0.00300214
0.00304094
0.00307858
0.0031151
0.00315054
0.00318494
0.00321834
0.00325076
0.00328224
0.0033128
0.00334246
0.00337125
0.00339919
0.00342629
0.00345256
0.00347803
0.00350271
0.00352661
0.00354974
0.00357211
0.00359374
0.00361464
0.00363481
0.00365426
0.003673
0.00369105
0.00370841
0.00372508
0.00374109
0.00375642
0.0037711
0.00378513
0.00379852
0.00381128
0.00382341
0.00383492
0.00384582
0.00385611
0.00386581
0.00387491
0.00388344
0.00389139
0.00389876
0.00390558
0.00391184
0.00391755
0.00392271
0.00392733
0.00393141
0.00393496
0.00393798
0.00394045
0.00394239
0.00394382
0.00394475
0.00394519
0.00394515
0.00394463
0.00394363
0.00394217
0.00394025
0.00393786
0.00393503
0.00393174
0.00392801
0.00392384
0.00391923
0.00391419
0.00390873
0.00390284
0.00389652
0.00388979
0.00388265
0.00387509
0.00386712
0.00385874
0.00384996
0.00384077
0.00383118
0.00382119
0.00381079
0.0038
0.00378881
0.00377722
0.00376523
0.00375283
0.00374004
0.00372685
0.00371326
0.00369926
0.00368486
0.00367005
0.00365484
0.00363922
0.00362318
0.00360674
0.00358989
0.00357262
0.00355493
0.00353683
0.00351831
0.00349937
0.00348001
0.00346023
0.00344002
0.00341939
0.00339833
0.00337684
0.00335493
0.00333259
0.00330982
0.00328662
0.00326299
0.00323892
0.00321443
0.0031895
0.00316415
0.00313836
0.00311213
0.00308547
0.00305838
0.00303086
0.00300289
0.00297449
0.00294565
0.00291638
0.00288666
0.00285649
0.00282588
0.00279481
0.00276329
0.00273131
0.00269887
0.00266594
0.00263254
0.00259865
0.00256425
0.00252933
0.00249389
0.00245789
0.00242132
0.00238416
0.00234637
0.00230793
0.00226879
0.00222891
0.00218824
0.00214672
0.00210426
0.00206079
0.0020162
0.00197034
0.00192306
0.00187416
0.00182336
0.00177031
0.00171455
0.00165542
0.00159199
0.00152302
0.0014476
0.00136737
0.00127345
0.00117225
0.00106038
0.000931261
0.000780389
0.000595329
0.000379935
0.000164583
0.00017158
0.000363932
0.000622139
0.000860713
0.00106385
0.00123312
0.00137941
0.00150867
0.00162468
0.00173017
0.00182716
0.00191712
0.0020012
0.00208025
0.00215495
0.00222583
0.00229331
0.00235771
0.00241932
0.00247838
0.00253508
0.00258959
0.00264208
0.00269266
0.00274147
0.0027886
0.00283415
0.00287821
0.00292086
0.00296216
0.00300219
0.00304099
0.00307863
0.00311515
0.00315058
0.00318498
0.00321838
0.0032508
0.00328227
0.00331283
0.00334249
0.00337128
0.00339921
0.00342631
0.00345258
0.00347805
0.00350273
0.00352662
0.00354975
0.00357213
0.00359375
0.00361465
0.00363481
0.00365427
0.00367301
0.00369105
0.00370841
0.00372508
0.00374109
0.00375642
0.0037711
0.00378513
0.00379852
0.00381127
0.0038234
0.00383491
0.00384581
0.0038561
0.00386579
0.0038749
0.00388342
0.00389137
0.00389875
0.00390556
0.00391182
0.00391753
0.00392269
0.00392731
0.0039314
0.00393494
0.00393796
0.00394043
0.00394237
0.00394379
0.00394473
0.00394517
0.00394512
0.0039446
0.00394361
0.00394215
0.00394022
0.00393784
0.003935
0.00393171
0.00392798
0.00392381
0.0039192
0.00391416
0.0039087
0.00390281
0.00389649
0.00388976
0.00388261
0.00387505
0.00386709
0.00385871
0.00384992
0.00384074
0.00383115
0.00382115
0.00381076
0.00379997
0.00378878
0.00377718
0.00376519
0.0037528
0.00374001
0.00372682
0.00371322
0.00369922
0.00368482
0.00367001
0.0036548
0.00363918
0.00362315
0.00360671
0.00358985
0.00357258
0.0035549
0.0035368
0.00351828
0.00349934
0.00347997
0.00346019
0.00343998
0.00341935
0.00339829
0.0033768
0.00335489
0.00333255
0.00330978
0.00328658
0.00326295
0.00323888
0.00321439
0.00318946
0.00316411
0.00313832
0.00311209
0.00308543
0.00305834
0.00303082
0.00300285
0.00297445
0.00294561
0.00291633
0.00288661
0.00285645
0.00282584
0.00279477
0.00276325
0.00273127
0.00269882
0.0026659
0.0026325
0.00259861
0.00256421
0.00252929
0.00249385
0.00245785
0.00242128
0.00238412
0.00234633
0.00230789
0.00226875
0.00222887
0.0021882
0.00214668
0.00210423
0.00206076
0.00201616
0.00197031
0.00192303
0.00187413
0.00182333
0.00177028
0.00171452
0.00165539
0.00159195
0.00152297
0.00144753
0.00136758
0.00127341
0.00117222
0.00106317
0.000932376
0.000780707
0.000595408
0.000379878
0.000164646
0.000207659
0.000413043
0.000722271
0.00102477
0.00128529
0.00150742
0.00170055
0.00187157
0.00202529
0.00216519
0.00229385
0.00241321
0.00252475
0.00262959
0.00272861
0.00282251
0.00291184
0.00299705
0.00307852
0.00315654
0.0032314
0.00330331
0.00337247
0.00343907
0.00350325
0.00356516
0.00362493
0.00368268
0.0037385
0.00379249
0.00384474
0.00389533
0.00394432
0.0039918
0.0040378
0.0040824
0.00412564
0.00416756
0.00420821
0.00424762
0.00428583
0.00432286
0.00435876
0.00439354
0.00442722
0.00445984
0.00449141
0.00452195
0.00455148
0.00458001
0.00460757
0.00463416
0.00465981
0.00468453
0.00470832
0.00473121
0.0047532
0.00477431
0.00479455
0.00481393
0.00483247
0.00485017
0.00486704
0.0048831
0.00489836
0.00491282
0.0049265
0.00493941
0.00495155
0.00496294
0.00497359
0.0049835
0.00499269
0.00500116
0.00500893
0.00501599
0.00502236
0.00502805
0.00503305
0.00503739
0.00504105
0.00504404
0.00504637
0.00504805
0.0050491
0.00504953
0.00504935
0.00504856
0.00504718
0.0050452
0.00504265
0.00503951
0.0050358
0.00503152
0.00502669
0.00502129
0.00501535
0.00500887
0.00500184
0.00499428
0.00498619
0.00497757
0.00496843
0.00495877
0.00494859
0.00493789
0.00492669
0.00491497
0.00490275
0.00489002
0.00487678
0.00486304
0.00484879
0.00483404
0.00481879
0.00480303
0.00478676
0.00476999
0.00475272
0.00473493
0.00471663
0.00469783
0.0046785
0.00465867
0.00463832
0.00461745
0.00459606
0.00457414
0.00455171
0.00452874
0.00450525
0.00448124
0.00445669
0.0044316
0.00440599
0.00437984
0.00435315
0.00432593
0.00429817
0.00426987
0.00424103
0.00421165
0.00418173
0.00415127
0.00412027
0.00408872
0.00405663
0.00402399
0.00399081
0.00395709
0.00392281
0.00388799
0.00385262
0.00381669
0.00378021
0.00374318
0.00370558
0.00366742
0.00362868
0.00358937
0.00354947
0.00350898
0.00346789
0.00342619
0.00338385
0.00334087
0.00329722
0.00325289
0.00320785
0.00316207
0.00311551
0.00306815
0.00301992
0.00297079
0.00292068
0.00286954
0.00281727
0.00276378
0.00270895
0.00265265
0.00259472
0.00253494
0.00247308
0.00240882
0.00234179
0.0022715
0.00219732
0.00211844
0.00203383
0.00194216
0.00184197
0.0017322
0.00160984
0.00147293
0.0013172
0.00113633
0.000923503
0.000675961
0.000411157
0.00018271
0.000207667
0.000412726
0.000722988
0.00102472
0.00128519
0.00150747
0.00170068
0.00187172
0.00202544
0.00216534
0.002294
0.00241336
0.00252489
0.00262972
0.00272874
0.00282264
0.00291196
0.00299717
0.00307863
0.00315665
0.0032315
0.00330341
0.00337257
0.00343916
0.00350334
0.00356525
0.00362502
0.00368276
0.00373857
0.00379256
0.00384481
0.00389539
0.00394439
0.00399186
0.00403786
0.00408246
0.00412569
0.00416761
0.00420825
0.00424766
0.00428587
0.0043229
0.00435879
0.00439357
0.00442725
0.00445987
0.00449143
0.00452197
0.0045515
0.00458003
0.00460758
0.00463418
0.00465982
0.00468454
0.00470833
0.00473121
0.00475321
0.00477431
0.00479455
0.00481393
0.00483247
0.00485016
0.00486704
0.00488309
0.00489835
0.00491281
0.00492649
0.0049394
0.00495154
0.00496293
0.00497357
0.00498349
0.00499267
0.00500114
0.00500891
0.00501597
0.00502234
0.00502803
0.00503303
0.00503736
0.00504102
0.00504402
0.00504635
0.00504802
0.00504907
0.0050495
0.00504932
0.00504853
0.00504715
0.00504517
0.00504261
0.00503948
0.00503577
0.00503149
0.00502665
0.00502126
0.00501532
0.00500883
0.00500181
0.00499425
0.00498616
0.00497754
0.00496839
0.00495873
0.00494855
0.00493786
0.00492665
0.00491493
0.00490271
0.00488998
0.00487674
0.004863
0.00484875
0.004834
0.00481875
0.00480299
0.00478672
0.00476995
0.00475267
0.00473489
0.00471659
0.00469778
0.00467846
0.00465863
0.00463827
0.0046174
0.00459601
0.0045741
0.00455166
0.0045287
0.00450521
0.00448119
0.00445664
0.00443156
0.00440594
0.00437979
0.00435311
0.00432589
0.00429813
0.00426983
0.00424099
0.00421161
0.00418169
0.00415122
0.00412022
0.00408867
0.00405658
0.00402395
0.00399076
0.00395704
0.00392276
0.00388794
0.00385257
0.00381664
0.00378017
0.00374313
0.00370553
0.00366737
0.00362863
0.00358932
0.00354942
0.00350894
0.00346784
0.00342614
0.0033838
0.00334082
0.00329717
0.00325284
0.0032078
0.00316202
0.00311547
0.0030681
0.00301988
0.00297074
0.00292064
0.00286949
0.00281722
0.00276373
0.00270891
0.00265261
0.00259467
0.0025349
0.00247304
0.00240878
0.00234175
0.00227146
0.00219728
0.00211841
0.0020338
0.00194212
0.00184192
0.00173222
0.00160983
0.00147288
0.00131759
0.00113664
0.000923663
0.000675596
0.000410561
0.000182916
0.000239814
0.000444339
0.000801007
0.00115413
0.0014638
0.00173125
0.0019651
0.00217273
0.00235968
0.00253005
0.00268689
0.0028325
0.00296865
0.00309669
0.00321768
0.00333244
0.00344165
0.00354585
0.00364549
0.00374093
0.00383251
0.00392048
0.0040051
0.00408656
0.00416505
0.00424075
0.0043138
0.00438434
0.00445249
0.00451838
0.00458209
0.00464374
0.0047034
0.00476115
0.00481708
0.00487124
0.00492371
0.00497453
0.00502375
0.00507144
0.00511763
0.00516236
0.00520567
0.00524759
0.00528816
0.00532741
0.00536536
0.00540204
0.00543747
0.00547169
0.0055047
0.00553654
0.00556722
0.00559675
0.00562517
0.00565248
0.0056787
0.00570385
0.00572795
0.005751
0.00577303
0.00579405
0.00581408
0.00583312
0.0058512
0.00586832
0.00588451
0.00589976
0.0059141
0.00592754
0.00594009
0.00595176
0.00596256
0.00597251
0.00598161
0.00598988
0.00599733
0.00600396
0.00600978
0.00601481
0.00601904
0.00602249
0.00602516
0.00602706
0.00602822
0.00602864
0.00602834
0.00602732
0.00602559
0.00602316
0.00602004
0.00601624
0.00601176
0.00600661
0.0060008
0.00599434
0.00598722
0.00597946
0.00597107
0.00596204
0.00595238
0.00594211
0.00593121
0.0059197
0.00590758
0.00589485
0.00588152
0.00586759
0.00585305
0.00583792
0.00582219
0.00580587
0.00578895
0.00577143
0.00575332
0.00573461
0.00571531
0.0056954
0.0056749
0.0056538
0.0056321
0.0056098
0.00558689
0.00556337
0.00553924
0.00551451
0.00548916
0.00546319
0.00543661
0.0054094
0.00538158
0.00535313
0.00532406
0.00529436
0.00526404
0.00523308
0.0052015
0.00516928
0.00513643
0.00510294
0.00506882
0.00503406
0.00499867
0.00496264
0.00492597
0.00488866
0.00485071
0.00481212
0.00477288
0.00473301
0.00469248
0.00465131
0.00460948
0.004567
0.00452387
0.00448007
0.0044356
0.00439046
0.00434463
0.00429811
0.00425089
0.00420295
0.00415429
0.00410487
0.00405469
0.00400371
0.00395192
0.00389928
0.00384576
0.00379131
0.00373588
0.00367943
0.0036219
0.00356319
0.00350325
0.00344196
0.00337922
0.00331488
0.00324881
0.00318081
0.00311066
0.00303809
0.00296279
0.00288435
0.00280228
0.00271598
0.00262469
0.00252743
0.00242301
0.00230992
0.00218633
0.00205007
0.00189817
0.00172678
0.0015305
0.00130188
0.00103238
0.000720276
0.000398321
0.000187677
0.000239771
0.000444604
0.0008021
0.00115433
0.0014638
0.00173132
0.00196523
0.00217289
0.00235985
0.00253021
0.00268705
0.00283266
0.00296881
0.00309685
0.00321783
0.00333259
0.00344179
0.00354599
0.00364562
0.00374107
0.00383264
0.00392061
0.00400522
0.00408667
0.00416516
0.00424086
0.0043139
0.00438444
0.00445259
0.00451847
0.00458218
0.00464382
0.00470348
0.00476123
0.00481715
0.00487131
0.00492377
0.00497459
0.00502381
0.0050715
0.00511768
0.00516241
0.00520571
0.00524763
0.0052882
0.00532744
0.00536539
0.00540207
0.00543751
0.00547172
0.00550473
0.00553657
0.00556724
0.00559677
0.00562519
0.00565249
0.00567871
0.00570386
0.00572796
0.00575101
0.00577304
0.00579406
0.00581408
0.00583313
0.0058512
0.00586832
0.0058845
0.00589976
0.0059141
0.00592753
0.00594008
0.00595175
0.00596255
0.0059725
0.0059816
0.00598987
0.00599731
0.00600394
0.00600976
0.00601479
0.00601902
0.00602247
0.00602514
0.00602704
0.0060282
0.00602862
0.00602831
0.00602729
0.00602556
0.00602313
0.00602001
0.00601621
0.00601173
0.00600658
0.00600077
0.0059943
0.00598719
0.00597943
0.00597103
0.00596201
0.00595235
0.00594207
0.00593118
0.00591967
0.00590754
0.00589482
0.00588148
0.00586755
0.00585302
0.00583788
0.00582215
0.00580583
0.00578891
0.00577139
0.00575328
0.00573457
0.00571527
0.00569536
0.00567486
0.00565376
0.00563206
0.00560975
0.00558684
0.00556333
0.0055392
0.00551446
0.00548911
0.00546314
0.00543656
0.00540936
0.00538153
0.00535309
0.00532401
0.00529432
0.00526399
0.00523303
0.00520145
0.00516923
0.00513638
0.00510289
0.00506877
0.00503402
0.00499862
0.00496259
0.00492592
0.00488861
0.00485066
0.00481207
0.00477283
0.00473296
0.00469243
0.00465126
0.00460943
0.00456695
0.00452382
0.00448002
0.00443555
0.00439041
0.00434458
0.00429806
0.00425084
0.0042029
0.00415424
0.00410482
0.00405464
0.00400366
0.00395187
0.00389923
0.00384571
0.00379126
0.00373584
0.00367939
0.00362185
0.00356315
0.0035032
0.00344191
0.00337917
0.00331484
0.00324877
0.00318076
0.00311061
0.00303805
0.00296275
0.00288431
0.00280224
0.00271594
0.00262465
0.00252739
0.00242298
0.0023099
0.0021863
0.00205006
0.00189816
0.0017268
0.00153064
0.00130208
0.00103222
0.000718883
0.000398222
0.000187817
2.95498e-05
0.000368261
0.000837175
0.001256
0.00161228
0.00191904
0.00218786
0.00242713
0.00264298
0.00283999
0.00302159
0.00319038
0.00334836
0.00349705
0.00363765
0.00377113
0.00389823
0.00401958
0.00413569
0.00424699
0.00435382
0.00445651
0.00455531
0.00465046
0.00474218
0.00483064
0.00491602
0.00499846
0.00507811
0.0051551
0.00522953
0.00530153
0.00537118
0.00543859
0.00550382
0.00556697
0.0056281
0.00568728
0.00574457
0.00580002
0.0058537
0.00590565
0.00595591
0.00600453
0.00605155
0.006097
0.00614091
0.00618333
0.00622428
0.00626379
0.00630189
0.0063386
0.00637395
0.00640796
0.00644066
0.00647207
0.0065022
0.00653109
0.00655874
0.00658519
0.00661044
0.00663452
0.00665744
0.00667923
0.0066999
0.00671946
0.00673794
0.00675534
0.00677169
0.006787
0.00680129
0.00681456
0.00682684
0.00683814
0.00684846
0.00685784
0.00686626
0.00687376
0.00688033
0.006886
0.00689076
0.00689463
0.00689763
0.00689974
0.00690101
0.00690143
0.00690103
0.00689982
0.0068978
0.00689498
0.00689138
0.006887
0.00688185
0.00687594
0.00686928
0.00686187
0.00685373
0.00684485
0.00683525
0.00682494
0.00681391
0.00680218
0.00678974
0.00677661
0.00676278
0.00674827
0.00673307
0.00671718
0.00670062
0.00668338
0.00666546
0.00664686
0.00662759
0.00660764
0.00658702
0.00656572
0.00654375
0.0065211
0.00649777
0.00647376
0.00644907
0.0064237
0.00639764
0.00637089
0.00634346
0.00631533
0.00628651
0.00625699
0.00622677
0.00619586
0.00616424
0.00613191
0.00609888
0.00606514
0.0060307
0.00599554
0.00595966
0.00592307
0.00588577
0.00584775
0.00580901
0.00576955
0.00572938
0.00568848
0.00564685
0.00560451
0.00556143
0.00551763
0.00547311
0.00542785
0.00538185
0.00533512
0.00528765
0.00523943
0.00519046
0.00514073
0.00509024
0.00503897
0.00498692
0.00493406
0.0048804
0.0048259
0.00477055
0.00471433
0.00465721
0.00459916
0.00454015
0.00448012
0.00441905
0.00435687
0.00429352
0.00422894
0.00416304
0.00409573
0.0040269
0.00395644
0.0038842
0.00381001
0.00373368
0.00365499
0.00357365
0.00348934
0.00340167
0.00331017
0.00321423
0.00311315
0.00300604
0.00289177
0.00276897
0.00263588
0.00249033
0.00232955
0.00214999
0.00194702
0.00171457
0.00144478
0.00112899
0.000767889
0.000409032
0.000203356
2.95512e-05
0.00036857
0.000837343
0.00125579
0.00161218
0.0019191
0.00218799
0.00242729
0.00264315
0.00284016
0.00302176
0.00319056
0.00334853
0.00349721
0.00363782
0.00377129
0.00389839
0.00401974
0.00413584
0.00424713
0.00435397
0.00445665
0.00455544
0.00465059
0.00474231
0.00483076
0.00491614
0.00499858
0.00507822