/*--------------------------------*- C++ -*----------------------------------*\
  =========                 |
  \\      /  F ield         | OpenFOAM: The Open Source CFD Toolbox
   \\    /   O peration     | Website:  https://openfoam.org
    \\  /    A nd           | Version:  8
     \\/     M anipulation  |
\*---------------------------------------------------------------------------*/
FoamFile
{
    version     2.0;
    format      ascii;
    class       surfaceScalarField;
    location    "700";
    object      phi;
}
// * * * * * * * * * * * * * * * * * * * * * * * * * * * * * * * * * * * * * //

dimensions      [1 0 -1 0 0 0 0];

internalField   nonuniform List<scalar> 
119360
(
-5.34985e-08
6.85851e-13
5.34978e-08
-1.05641e-07
1.61167e-12
5.21384e-08
-1.48793e-07
1.31772e-12
4.31501e-08
-1.79609e-07
1.13519e-12
3.08106e-08
-1.93299e-07
8.42951e-13
1.36746e-08
-1.87337e-07
4.67206e-14
-5.9927e-09
-1.64803e-07
-4.14362e-13
-2.25733e-08
-1.29946e-07
-1.41068e-12
-3.48955e-08
-8.59116e-08
-2.73252e-12
-4.40715e-08
-3.50473e-08
-3.70419e-12
-5.08957e-08
2.0894e-08
-4.04536e-12
-5.59628e-08
8.0517e-08
-3.92313e-12
-5.9634e-08
1.42743e-07
-3.48893e-12
-6.22271e-08
2.06776e-07
-2.79249e-12
-6.40266e-08
2.71969e-07
-1.86907e-12
-6.51819e-08
3.37793e-07
-8.89136e-13
-6.58097e-08
4.03801e-07
-9.20551e-14
-6.59962e-08
4.69619e-07
3.43149e-13
-6.58101e-08
5.34929e-07
3.77285e-13
-6.53076e-08
5.99461e-07
9.53415e-14
-6.45364e-08
6.6299e-07
-3.6174e-13
-6.35376e-08
7.25328e-07
-8.64617e-13
-6.23477e-08
7.86317e-07
-1.32053e-12
-6.0999e-08
8.45831e-07
-1.66953e-12
-5.95206e-08
9.03767e-07
-1.87382e-12
-5.79388e-08
9.60046e-07
-1.91756e-12
-5.62772e-08
1.01461e-06
-1.81115e-12
-5.45568e-08
1.06741e-06
-1.59293e-12
-5.27962e-08
1.11844e-06
-1.31965e-12
-5.1012e-08
1.16767e-06
-1.0487e-12
-4.92182e-08
1.21511e-06
-8.2161e-13
-4.74272e-08
1.26078e-06
-6.54356e-13
-4.5649e-08
1.30468e-06
-5.40947e-13
-4.38921e-08
1.34686e-06
-4.62678e-13
-4.21635e-08
1.38734e-06
-4.01283e-13
-4.04686e-08
1.42616e-06
-3.46272e-13
-3.88115e-08
1.46336e-06
-2.9709e-13
-3.71954e-08
1.49899e-06
-2.58954e-13
-3.56227e-08
1.5331e-06
-2.3947e-13
-3.40947e-08
1.56572e-06
-2.41414e-13
-3.26125e-08
1.5969e-06
-2.61176e-13
-3.11762e-08
1.62669e-06
-2.90709e-13
-2.97858e-08
1.65514e-06
-3.18853e-13
-2.84409e-08
1.68228e-06
-3.36228e-13
-2.71407e-08
1.70817e-06
-3.35618e-13
-2.58843e-08
1.73285e-06
-3.15967e-13
-2.46706e-08
1.75635e-06
-2.80441e-13
-2.34985e-08
1.77873e-06
-2.34644e-13
-2.23665e-08
1.8e-06
-1.86377e-13
-2.12736e-08
1.82023e-06
-1.42218e-13
-2.02182e-08
1.83943e-06
-1.0708e-13
-1.9199e-08
1.85765e-06
-8.24055e-14
-1.82148e-08
1.87491e-06
-6.76951e-14
-1.72643e-08
1.89126e-06
-6.05898e-14
-1.6346e-08
1.90672e-06
-5.77033e-14
-1.54588e-08
1.92133e-06
-5.54274e-14
-1.46014e-08
1.9351e-06
-5.06813e-14
-1.37726e-08
1.94808e-06
-4.21604e-14
-1.29712e-08
1.96027e-06
-2.96149e-14
-1.21961e-08
1.97172e-06
-1.32669e-14
-1.14463e-08
1.98244e-06
5.57907e-15
-1.07207e-08
1.99246e-06
2.49247e-14
-1.00182e-08
2.0018e-06
4.3049e-14
-9.33794e-09
2.01047e-06
5.85921e-14
-8.67897e-09
2.01851e-06
7.08323e-14
-8.04037e-09
2.02593e-06
7.92978e-14
-7.42127e-09
2.03275e-06
8.4155e-14
-6.82084e-09
2.03899e-06
8.60146e-14
-6.23825e-09
2.04466e-06
8.58203e-14
-5.6727e-09
2.04977e-06
8.40717e-14
-5.12342e-09
2.05436e-06
8.16569e-14
-4.58966e-09
2.05843e-06
7.95753e-14
-4.07069e-09
2.06199e-06
7.80487e-14
-3.5658e-09
2.06506e-06
7.71883e-14
-3.0743e-09
2.06765e-06
7.70217e-14
-2.59552e-09
2.06977e-06
7.76046e-14
-2.12883e-09
2.07144e-06
7.83263e-14
-1.67361e-09
2.07266e-06
7.91867e-14
-1.22931e-09
2.07345e-06
7.94087e-14
-7.95419e-10
2.07382e-06
7.93532e-14
-3.71486e-10
2.07377e-06
7.90201e-14
4.29802e-11
2.07331e-06
7.84928e-14
4.48782e-10
2.07246e-06
7.76324e-14
8.46599e-10
2.07122e-06
7.68275e-14
1.23678e-09
2.06959e-06
7.62168e-14
1.61972e-09
2.06759e-06
7.62723e-14
1.9958e-09
2.06522e-06
7.68274e-14
2.36535e-09
2.06248e-06
7.82985e-14
2.72868e-09
2.05939e-06
8.06855e-14
3.08603e-09
2.05594e-06
8.36831e-14
3.43765e-09
2.05215e-06
8.78464e-14
3.78373e-09
2.04802e-06
9.25371e-14
4.12441e-09
2.04355e-06
9.8116e-14
4.45983e-09
2.03875e-06
1.04278e-13
4.79007e-09
2.03363e-06
1.10661e-13
5.11521e-09
2.02819e-06
1.17295e-13
5.43527e-09
2.02243e-06
1.24234e-13
5.75027e-09
2.01636e-06
1.31367e-13
6.06022e-09
2.00998e-06
1.38695e-13
6.36511e-09
2.00331e-06
1.46244e-13
6.66492e-09
1.99634e-06
1.54182e-13
6.95965e-09
1.98908e-06
1.62426e-13
7.2493e-09
1.98154e-06
1.70974e-13
7.53388e-09
1.97371e-06
1.79939e-13
7.81343e-09
1.96562e-06
1.89376e-13
8.08803e-09
1.95725e-06
1.99396e-13
8.35776e-09
1.94861e-06
2.09804e-13
8.62278e-09
1.93972e-06
2.21101e-13
8.88327e-09
1.93057e-06
2.33064e-13
9.13946e-09
1.92116e-06
2.45776e-13
9.39164e-09
1.91151e-06
2.59459e-13
9.64013e-09
1.90161e-06
2.74336e-13
9.88533e-09
1.89147e-06
2.89935e-13
1.01277e-08
1.88109e-06
3.06422e-13
1.03676e-08
1.87047e-06
3.23463e-13
1.06057e-08
1.85961e-06
3.407e-13
1.08425e-08
1.84852e-06
3.57714e-13
1.10786e-08
1.83718e-06
3.7359e-13
1.13146e-08
1.82562e-06
3.88356e-13
1.15512e-08
1.81381e-06
4.00957e-13
1.1789e-08
1.80176e-06
4.11809e-13
1.20286e-08
1.78948e-06
4.20108e-13
1.22706e-08
1.77694e-06
4.27047e-13
1.25158e-08
1.76416e-06
4.32238e-13
1.27648e-08
1.75112e-06
4.36789e-13
1.3018e-08
1.73782e-06
4.41397e-13
1.32762e-08
1.72426e-06
4.4667e-13
1.35397e-08
1.71044e-06
4.5286e-13
1.38092e-08
1.69633e-06
4.59743e-13
1.40851e-08
1.68194e-06
4.66766e-13
1.43678e-08
1.66726e-06
4.73732e-13
1.46577e-08
1.65228e-06
4.78895e-13
1.49551e-08
1.637e-06
4.82059e-13
1.52603e-08
1.6214e-06
4.82392e-13
1.55736e-08
1.60549e-06
4.79672e-13
1.58953e-08
1.58924e-06
4.74731e-13
1.62254e-08
1.57265e-06
4.68903e-13
1.65643e-08
1.55571e-06
4.64018e-13
1.69121e-08
1.53842e-06
4.61742e-13
1.7269e-08
1.52076e-06
4.63851e-13
1.7635e-08
1.50273e-06
4.70679e-13
1.80104e-08
1.48431e-06
4.81781e-13
1.83953e-08
1.46549e-06
4.94216e-13
1.87898e-08
1.44627e-06
5.04541e-13
1.91941e-08
1.42664e-06
5.08149e-13
1.96085e-08
1.40658e-06
5.00822e-13
2.0033e-08
1.38609e-06
4.79616e-13
2.0468e-08
1.36515e-06
4.44089e-13
2.09137e-08
1.34376e-06
3.97404e-13
2.13704e-08
1.3219e-06
3.46445e-13
2.18386e-08
1.29955e-06
3.01092e-13
2.23187e-08
1.27672e-06
2.71616e-13
2.28113e-08
1.25337e-06
2.66454e-13
2.3317e-08
1.22951e-06
2.89047e-13
2.38365e-08
1.20512e-06
3.36231e-13
2.43706e-08
1.18017e-06
3.97293e-13
2.49201e-08
1.15466e-06
4.56968e-13
2.54858e-08
1.12857e-06
4.996e-13
2.6069e-08
1.10187e-06
5.16587e-13
2.66705e-08
1.07456e-06
5.09703e-13
2.72918e-08
1.0466e-06
4.9466e-13
2.79341e-08
1.01797e-06
4.97713e-13
2.85989e-08
9.88659e-07
5.48506e-13
2.9288e-08
9.5863e-07
6.70464e-13
3.0003e-08
9.27856e-07
8.71248e-13
3.07456e-08
8.96309e-07
1.13687e-12
3.15176e-08
8.63957e-07
1.4328e-12
3.23205e-08
8.30766e-07
1.7083e-12
3.31558e-08
7.96702e-07
1.90625e-12
3.40244e-08
7.61732e-07
1.97226e-12
3.49271e-08
7.25822e-07
1.86234e-12
3.58639e-08
6.88937e-07
1.55387e-12
3.68345e-08
6.51046e-07
1.06198e-12
3.78377e-08
6.12121e-07
4.51028e-13
3.88712e-08
5.72135e-07
-1.68088e-13
3.99318e-08
5.31069e-07
-6.62304e-13
4.10144e-08
4.88909e-07
-9.307e-13
4.21119e-08
4.45651e-07
-9.55902e-13
4.3214e-08
4.01303e-07
-8.14959e-13
4.43066e-08
3.55893e-07
-6.3094e-13
4.53707e-08
3.09473e-07
-4.89497e-13
4.63812e-08
2.62128e-07
-3.85469e-13
4.73056e-08
2.13985e-07
-2.53797e-13
4.81016e-08
1.65227e-07
-6.52811e-14
4.87144e-08
1.1611e-07
4.78506e-14
4.90699e-08
6.69945e-08
-3.13527e-13
4.90631e-08
1.83841e-08
-1.84674e-12
4.85512e-08
-2.89561e-08
-5.16154e-12
4.72763e-08
-7.38795e-08
-1.02902e-11
4.48629e-08
-1.14741e-07
-1.67232e-11
4.08112e-08
-1.48224e-07
-2.61385e-11
3.34476e-08
-1.71046e-07
-3.74132e-11
2.28037e-08
-1.88126e-07
-6.10064e-11
1.71053e-08
-1.94567e-07
-1.3245e-10
6.55609e-09
-1.87942e-07
4.48787e-11
-6.68784e-09
-1.69179e-07
6.21297e-11
-1.8847e-08
-1.38843e-07
1.95584e-11
-3.03761e-08
-9.74173e-08
1.47143e-11
-4.14638e-08
-4.79606e-08
1.34279e-11
-4.95032e-08
2.19469e-11
-4.8035e-08
-5.34976e-08
5.34973e-08
-1.05644e-07
5.21431e-08
-1.48796e-07
4.3148e-08
-1.79613e-07
3.08061e-08
-1.93306e-07
1.36671e-08
-1.87344e-07
-6.00154e-09
-1.64809e-07
-2.25824e-08
-1.29951e-07
-3.49056e-08
-8.5914e-08
-4.40804e-08
-3.50461e-08
-5.09023e-08
2.08971e-08
-5.59674e-08
8.05211e-08
-5.96374e-08
1.42748e-07
-6.22294e-08
2.06782e-07
-6.4028e-08
2.71976e-07
-6.51826e-08
3.378e-07
-6.58101e-08
4.03807e-07
-6.59969e-08
4.69623e-07
-6.58114e-08
5.3493e-07
-6.53096e-08
5.99461e-07
-6.45389e-08
6.62989e-07
-6.35404e-08
7.25326e-07
-6.23504e-08
7.86316e-07
-6.10014e-08
8.4583e-07
-5.95225e-08
9.03767e-07
-5.794e-08
9.60046e-07
-5.62778e-08
1.01461e-06
-5.45568e-08
1.06742e-06
-5.27958e-08
1.11844e-06
-5.10113e-08
1.16767e-06
-4.92174e-08
1.21511e-06
-4.74263e-08
1.26078e-06
-4.56481e-08
1.30468e-06
-4.38914e-08
1.34686e-06
-4.21629e-08
1.38734e-06
-4.0468e-08
1.42616e-06
-3.88111e-08
1.46336e-06
-3.71951e-08
1.49899e-06
-3.56224e-08
1.5331e-06
-3.40945e-08
1.56571e-06
-3.26122e-08
1.5969e-06
-3.1176e-08
1.62669e-06
-2.97856e-08
1.65514e-06
-2.84407e-08
1.68228e-06
-2.71405e-08
1.70817e-06
-2.58841e-08
1.73285e-06
-2.46705e-08
1.75635e-06
-2.34983e-08
1.77872e-06
-2.23664e-08
1.8e-06
-2.12735e-08
1.82022e-06
-2.02181e-08
1.83943e-06
-1.9199e-08
1.85765e-06
-1.82148e-08
1.87491e-06
-1.72642e-08
1.89126e-06
-1.6346e-08
1.90672e-06
-1.54588e-08
1.92133e-06
-1.46014e-08
1.9351e-06
-1.37727e-08
1.94807e-06
-1.29713e-08
1.96027e-06
-1.21963e-08
1.97172e-06
-1.14466e-08
1.98244e-06
-1.0721e-08
1.99246e-06
-1.00186e-08
2.0018e-06
-9.33837e-09
2.01047e-06
-8.67946e-09
2.01851e-06
-8.04092e-09
2.02593e-06
-7.42189e-09
2.03275e-06
-6.82151e-09
2.03899e-06
-6.23896e-09
2.04465e-06
-5.67346e-09
2.04977e-06
-5.12422e-09
2.05436e-06
-4.59049e-09
2.05843e-06
-4.07155e-09
2.06199e-06
-3.56669e-09
2.06506e-06
-3.07521e-09
2.06765e-06
-2.59645e-09
2.06977e-06
-2.12978e-09
2.07144e-06
-1.67458e-09
2.07266e-06
-1.2303e-09
2.07345e-06
-7.96424e-10
2.07382e-06
-3.7251e-10
2.07377e-06
4.19376e-11
2.07331e-06
4.47721e-10
2.07246e-06
8.45519e-10
2.07122e-06
1.23568e-09
2.06959e-06
1.6186e-09
2.06759e-06
1.99466e-09
2.06522e-06
2.36419e-09
2.06248e-06
2.7275e-09
2.05939e-06
3.08484e-09
2.05594e-06
3.43643e-09
2.05215e-06
3.78249e-09
2.04802e-06
4.12315e-09
2.04355e-06
4.45854e-09
2.03875e-06
4.78876e-09
2.03363e-06
5.11387e-09
2.02819e-06
5.4339e-09
2.02243e-06
5.74887e-09
2.01636e-06
6.05878e-09
2.00998e-06
6.36364e-09
2.00331e-06
6.66341e-09
1.99634e-06
6.95811e-09
1.98908e-06
7.24771e-09
1.98154e-06
7.53226e-09
1.97371e-06
7.81177e-09
1.96562e-06
8.08632e-09
1.95725e-06
8.35602e-09
1.94861e-06
8.621e-09
1.93972e-06
8.88144e-09
1.93057e-06
9.13758e-09
1.92116e-06
9.38971e-09
1.91151e-06
9.63815e-09
1.90161e-06
9.8833e-09
1.89147e-06
1.01256e-08
1.88109e-06
1.03655e-08
1.87047e-06
1.06035e-08
1.85961e-06
1.08403e-08
1.84852e-06
1.10763e-08
1.83718e-06
1.13123e-08
1.82562e-06
1.15488e-08
1.81381e-06
1.17865e-08
1.80177e-06
1.20261e-08
1.78948e-06
1.22681e-08
1.77694e-06
1.25132e-08
1.76416e-06
1.27621e-08
1.75112e-06
1.30153e-08
1.73783e-06
1.32734e-08
1.72427e-06
1.35369e-08
1.71044e-06
1.38064e-08
1.69633e-06
1.40822e-08
1.68194e-06
1.43649e-08
1.66726e-06
1.46547e-08
1.65228e-06
1.49521e-08
1.637e-06
1.52573e-08
1.6214e-06
1.55706e-08
1.60549e-06
1.58922e-08
1.58924e-06
1.62223e-08
1.57265e-06
1.65612e-08
1.55571e-06
1.6909e-08
1.53842e-06
1.72659e-08
1.52076e-06
1.76319e-08
1.50273e-06
1.80073e-08
1.48431e-06
1.83922e-08
1.46549e-06
1.87867e-08
1.44628e-06
1.9191e-08
1.42664e-06
1.96053e-08
1.40659e-06
2.00298e-08
1.38609e-06
2.04648e-08
1.36516e-06
2.09104e-08
1.34376e-06
2.13671e-08
1.3219e-06
2.18353e-08
1.29955e-06
2.23154e-08
1.27672e-06
2.2808e-08
1.25337e-06
2.33136e-08
1.22951e-06
2.38331e-08
1.20512e-06
2.43672e-08
1.18017e-06
2.49167e-08
1.15466e-06
2.54825e-08
1.12857e-06
2.60656e-08
1.10187e-06
2.66671e-08
1.07456e-06
2.72883e-08
1.0466e-06
2.79306e-08
1.01798e-06
2.85953e-08
9.88662e-07
2.92843e-08
9.58632e-07
2.99991e-08
9.27858e-07
3.07415e-08
8.96311e-07
3.15133e-08
8.63958e-07
3.23159e-08
8.30767e-07
3.31508e-08
7.96704e-07
3.40191e-08
7.61733e-07
3.49214e-08
7.25822e-07
3.58578e-08
6.88937e-07
3.68281e-08
6.51045e-07
3.7831e-08
6.12119e-07
3.88644e-08
5.72134e-07
3.9925e-08
5.31067e-07
4.10079e-08
4.88907e-07
4.21057e-08
4.45648e-07
4.32081e-08
4.01299e-07
4.43009e-08
3.55887e-07
4.5365e-08
3.09465e-07
4.63751e-08
2.62118e-07
4.7299e-08
2.13973e-07
4.80947e-08
1.65212e-07
4.87072e-08
1.16091e-07
4.90623e-08
6.69686e-08
4.90544e-08
1.83485e-08
4.85412e-08
-2.90041e-08
4.72668e-08
-7.39488e-08
4.48582e-08
-1.14854e-07
4.08158e-08
-1.48417e-07
3.34639e-08
-1.71377e-07
2.28675e-08
-1.88778e-07
1.73089e-08
-1.96009e-07
7.07721e-09
-1.89674e-07
-6.31751e-09
-1.69281e-07
-2.0358e-08
-1.38885e-07
-3.04034e-08
-9.74686e-08
-4.14363e-08
-4.80015e-08
-4.95009e-08
-4.80433e-08
-5.10311e-08
-4.36847e-13
1.04529e-07
-8.42587e-08
4.01936e-13
8.53512e-08
-9.98973e-08
4.38375e-13
5.87758e-08
-9.90738e-08
1.23006e-13
2.99718e-08
-8.59852e-08
-3.03317e-13
5.53754e-10
-6.48073e-08
-5.09908e-13
-2.72085e-08
-3.61179e-08
-7.19496e-13
-5.12971e-08
-2.35605e-10
-9.08543e-13
-7.08102e-08
4.18281e-08
-9.61129e-13
-8.61615e-08
8.89656e-08
-9.05857e-13
-9.80507e-08
1.40169e-07
-8.10463e-13
-1.07175e-07
1.94578e-07
-6.87786e-13
-1.14043e-07
2.51456e-07
-5.23627e-13
-1.19099e-07
3.10158e-07
-3.19695e-13
-1.22719e-07
3.70137e-07
-1.04813e-13
-1.25151e-07
4.30926e-07
7.3446e-14
-1.2659e-07
4.92124e-07
1.7113e-13
-1.27189e-07
5.53382e-07
1.72337e-13
-1.27069e-07
6.14402e-07
9.48558e-14
-1.26332e-07
6.74924e-07
-2.41334e-14
-1.25067e-07
7.34726e-07
-1.47786e-13
-1.2335e-07
7.9362e-07
-2.51342e-13
-1.2125e-07
8.51447e-07
-3.22176e-13
-1.18831e-07
9.08073e-07
-3.54984e-13
-1.16149e-07
9.6339e-07
-3.48531e-13
-1.13253e-07
1.01731e-06
-3.06288e-13
-1.10191e-07
1.06976e-06
-2.37607e-13
-1.07003e-07
1.1207e-06
-1.56812e-13
-1.03725e-07
1.17009e-06
-7.91937e-14
-1.00389e-07
1.21791e-06
-1.64805e-14
-9.70224e-08
1.26414e-06
2.64707e-14
-9.36487e-08
1.3088e-06
5.1811e-14
-9.02881e-08
1.35187e-06
6.55773e-14
-8.69572e-08
1.39339e-06
7.46391e-14
-8.36698e-08
1.43337e-06
8.32568e-14
-8.0437e-08
1.47183e-06
9.23463e-14
-7.72678e-08
1.50881e-06
1.00201e-13
-7.41689e-08
1.54434e-06
1.04197e-13
-7.11454e-08
1.57845e-06
1.0267e-13
-6.8201e-08
1.61118e-06
9.57174e-14
-6.5338e-08
1.64257e-06
8.54129e-14
-6.25578e-08
1.67265e-06
7.48655e-14
-5.98607e-08
1.70146e-06
6.70105e-14
-5.72465e-08
1.72904e-06
6.38947e-14
-5.47144e-08
1.75542e-06
6.61636e-14
-5.22632e-08
1.78065e-06
7.29566e-14
-4.98912e-08
1.80475e-06
8.23587e-14
-4.75965e-08
1.82776e-06
9.21771e-14
-4.53771e-08
1.84973e-06
1.00247e-13
-4.32307e-08
1.87067e-06
1.05284e-13
-4.11551e-08
1.89062e-06
1.06637e-13
-3.91479e-08
1.90961e-06
1.04549e-13
-3.72068e-08
1.92768e-06
1.00025e-13
-3.53294e-08
1.94485e-06
9.42236e-14
-3.35134e-08
1.96115e-06
8.82006e-14
-3.17565e-08
1.97661e-06
8.29825e-14
-3.00565e-08
1.99124e-06
7.90828e-14
-2.84112e-08
2.00509e-06
7.66749e-14
-2.68184e-08
2.01817e-06
7.553e-14
-2.52761e-08
2.03051e-06
7.5183e-14
-2.37824e-08
2.04212e-06
7.51483e-14
-2.23351e-08
2.05304e-06
7.48777e-14
-2.09326e-08
2.06327e-06
7.38577e-14
-1.95729e-08
2.07284e-06
7.19772e-14
-1.82543e-08
2.08178e-06
6.91184e-14
-1.6975e-08
2.09009e-06
6.54061e-14
-1.57335e-08
2.09779e-06
6.09929e-14
-1.45281e-08
2.10491e-06
5.61149e-14
-1.33572e-08
2.11145e-06
5.11397e-14
-1.22193e-08
2.11743e-06
4.61853e-14
-1.1113e-08
2.12288e-06
4.1564e-14
-1.00369e-08
2.12779e-06
3.72966e-14
-8.98945e-09
2.13219e-06
3.35149e-14
-7.96941e-09
2.13609e-06
3.0205e-14
-6.97545e-09
2.13949e-06
2.72768e-14
-6.00628e-09
2.14242e-06
2.47788e-14
-5.0607e-09
2.14488e-06
2.24751e-14
-4.13751e-09
2.14688e-06
2.04212e-14
-3.23559e-09
2.14843e-06
1.85824e-14
-2.35389e-09
2.14954e-06
1.70142e-14
-1.49139e-09
2.15023e-06
1.54737e-14
-6.47113e-10
2.15049e-06
1.41137e-14
1.79982e-10
2.15034e-06
1.30659e-14
9.90967e-10
2.14978e-06
1.22819e-14
1.78674e-09
2.14883e-06
1.18031e-14
2.56809e-09
2.14748e-06
1.15255e-14
3.33573e-09
2.14575e-06
1.15047e-14
4.09031e-09
2.14364e-06
1.17129e-14
4.8324e-09
2.14116e-06
1.21153e-14
5.56253e-09
2.13831e-06
1.26219e-14
6.28112e-09
2.13509e-06
1.32602e-14
6.98854e-09
2.13153e-06
1.39125e-14
7.68511e-09
2.12761e-06
1.4537e-14
8.37104e-09
2.12334e-06
1.51823e-14
9.04654e-09
2.11874e-06
1.57444e-14
9.71173e-09
2.1138e-06
1.61884e-14
1.03667e-08
2.10853e-06
1.65284e-14
1.10115e-08
2.10293e-06
1.67782e-14
1.16461e-08
2.09702e-06
1.69795e-14
1.22706e-08
2.09079e-06
1.70836e-14
1.2885e-08
2.08425e-06
1.71044e-14
1.34893e-08
2.07741e-06
1.70766e-14
1.40834e-08
2.07026e-06
1.69517e-14
1.46675e-08
2.06283e-06
1.6695e-14
1.52418e-08
2.0551e-06
1.64244e-14
1.58062e-08
2.04708e-06
1.60497e-14
1.63612e-08
2.03879e-06
1.55501e-14
1.69069e-08
2.03022e-06
1.49603e-14
1.74438e-08
2.02137e-06
1.42733e-14
1.79724e-08
2.01226e-06
1.34823e-14
1.84932e-08
2.00288e-06
1.2601e-14
1.90069e-08
1.99324e-06
1.15671e-14
1.95143e-08
1.98333e-06
1.04222e-14
2.00163e-08
1.97317e-06
9.08301e-15
2.05137e-08
1.96276e-06
7.50094e-15
2.10076e-08
1.95209e-06
5.59275e-15
2.14992e-08
1.94116e-06
3.26128e-15
2.19895e-08
1.92998e-06
5.06539e-16
2.24797e-08
1.91855e-06
-2.76862e-15
2.29711e-08
1.90685e-06
-6.55032e-15
2.3465e-08
1.8949e-06
-1.07483e-14
2.39625e-08
1.88269e-06
-1.52794e-14
2.4465e-08
1.87021e-06
-1.99632e-14
2.49736e-08
1.85747e-06
-2.46608e-14
2.54895e-08
1.84446e-06
-2.91572e-14
2.60139e-08
1.83117e-06
-3.33344e-14
2.65479e-08
1.8176e-06
-3.71786e-14
2.70925e-08
1.80374e-06
-4.06966e-14
2.76486e-08
1.78958e-06
-4.39856e-14
2.82171e-08
1.77513e-06
-4.72886e-14
2.87989e-08
1.76038e-06
-5.08205e-14
2.93947e-08
1.7453e-06
-5.48242e-14
3.00052e-08
1.72991e-06
-5.93345e-14
3.06309e-08
1.71419e-06
-6.44415e-14
3.12725e-08
1.69814e-06
-6.99094e-14
3.19303e-08
1.68173e-06
-7.54258e-14
3.26048e-08
1.66498e-06
-8.05328e-14
3.32964e-08
1.64786e-06
-8.48002e-14
3.40055e-08
1.63038e-06
-8.77631e-14
3.47323e-08
1.61252e-06
-8.91093e-14
3.54771e-08
1.59426e-06
-8.89427e-14
3.62402e-08
1.57561e-06
-8.75619e-14
3.7022e-08
1.55656e-06
-8.57092e-14
3.78226e-08
1.53709e-06
-8.42174e-14
3.86426e-08
1.51719e-06
-8.39884e-14
3.94822e-08
1.49686e-06
-8.56953e-14
4.03418e-08
1.47608e-06
-8.96783e-14
4.12219e-08
1.45485e-06
-9.54375e-14
4.21232e-08
1.43315e-06
-1.01807e-13
4.30461e-08
1.41098e-06
-1.07081e-13
4.39915e-08
1.38831e-06
-1.09177e-13
4.49602e-08
1.36515e-06
-1.06304e-13
4.59531e-08
1.34147e-06
-9.77135e-14
4.69713e-08
1.31727e-06
-8.42243e-14
4.8016e-08
1.29253e-06
-6.81399e-14
4.90885e-08
1.26724e-06
-5.30687e-14
5.01904e-08
1.24138e-06
-4.29379e-14
5.13231e-08
1.21493e-06
-4.05787e-14
5.24887e-08
1.18789e-06
-4.62963e-14
5.36889e-08
1.16024e-06
-5.75234e-14
5.4926e-08
1.13194e-06
-6.86673e-14
5.62021e-08
1.103e-06
-7.31776e-14
5.75198e-08
1.07338e-06
-6.53644e-14
5.88814e-08
1.04307e-06
-4.30905e-14
6.02895e-08
1.01204e-06
-9.21486e-15
6.17466e-08
9.80272e-07
2.88797e-14
6.32551e-08
9.47742e-07
6.07708e-14
6.48172e-08
9.14427e-07
7.55507e-14
6.64346e-08
8.80304e-07
6.39211e-14
6.81085e-08
8.45348e-07
1.9762e-14
6.98396e-08
8.09539e-07
-5.9508e-14
7.1627e-08
7.72857e-07
-1.70877e-13
7.3469e-08
7.35285e-07
-3.0298e-13
7.53616e-08
6.9681e-07
-4.34278e-13
7.72989e-08
6.57424e-07
-5.36654e-13
7.92718e-08
6.17128e-07
-5.85393e-13
8.12677e-08
5.75931e-07
-5.74416e-13
8.32693e-08
5.33855e-07
-5.23179e-13
8.52534e-08
4.90935e-07
-4.67515e-13
8.719e-08
4.47231e-07
-4.37331e-13
8.90399e-08
4.02822e-07
-4.36901e-13
9.07529e-08
3.57825e-07
-4.4513e-13
9.22647e-08
3.12393e-07
-4.37497e-13
9.34927e-08
2.66733e-07
-4.13378e-13
9.43303e-08
2.21115e-07
-4.22842e-13
9.46379e-08
1.75896e-07
-5.79037e-13
9.42269e-08
1.31538e-07
-1.00367e-12
9.28497e-08
8.86094e-08
-1.66667e-12
9.01452e-08
4.77656e-08
-2.42617e-12
8.5652e-08
9.63098e-09
-3.33306e-12
7.8894e-08
-2.60281e-08
-4.9761e-12
6.90588e-08
-5.98573e-08
-1.10144e-11
5.66062e-08
-8.54691e-08
-2.66627e-11
4.27222e-08
-1.04243e-07
-5.28106e-11
2.53605e-08
-1.15958e-07
-3.40624e-11
5.03631e-09
-1.1783e-07
1.05445e-10
-1.71054e-08
-1.08087e-07
4.97095e-11
-4.01981e-08
-8.61536e-08
2.05591e-11
-6.34574e-08
-5.12077e-08
1.08549e-11
-8.45177e-08
1.44166e-11
-9.93089e-08
-5.10363e-08
1.04528e-07
-8.42558e-08
8.53488e-08
-9.98971e-08
5.87756e-08
-9.90763e-08
2.9967e-08
-8.59881e-08
5.47934e-10
-6.4809e-08
-2.72137e-08
-3.61188e-08
-5.13022e-08
-2.36112e-10
-7.08153e-08
4.18282e-08
-8.6166e-08
8.89661e-08
-9.80545e-08
1.4017e-07
-1.07178e-07
1.94579e-07
-1.14046e-07
2.51457e-07
-1.19102e-07
3.10159e-07
-1.22721e-07
3.70138e-07
-1.25153e-07
4.30928e-07
-1.26592e-07
4.92125e-07
-1.27191e-07
5.53382e-07
-1.27071e-07
6.14401e-07
-1.26334e-07
6.74923e-07
-1.25068e-07
7.34725e-07
-1.23351e-07
7.93619e-07
-1.21252e-07
8.51446e-07
-1.18833e-07
9.08072e-07
-1.1615e-07
9.63389e-07
-1.13255e-07
1.01731e-06
-1.10192e-07
1.06976e-06
-1.07004e-07
1.1207e-06
-1.03726e-07
1.17009e-06
-1.0039e-07
1.21791e-06
-9.70232e-08
1.26414e-06
-9.36495e-08
1.30879e-06
-9.02888e-08
1.35187e-06
-8.69578e-08
1.39339e-06
-8.36704e-08
1.43336e-06
-8.04376e-08
1.47183e-06
-7.72684e-08
1.50881e-06
-7.41694e-08
1.54434e-06
-7.1146e-08
1.57845e-06
-6.82015e-08
1.61118e-06
-6.53385e-08
1.64257e-06
-6.25582e-08
1.67265e-06
-5.98611e-08
1.70146e-06
-5.72469e-08
1.72904e-06
-5.47148e-08
1.75542e-06
-5.22636e-08
1.78065e-06
-4.98915e-08
1.80475e-06
-4.75968e-08
1.82776e-06
-4.53774e-08
1.84972e-06
-4.3231e-08
1.87066e-06
-4.11554e-08
1.89062e-06
-3.91482e-08
1.90961e-06
-3.7207e-08
1.92768e-06
-3.53296e-08
1.94485e-06
-3.35136e-08
1.96115e-06
-3.17567e-08
1.9766e-06
-3.00567e-08
1.99124e-06
-2.84114e-08
2.00509e-06
-2.68186e-08
2.01817e-06
-2.52763e-08
2.03051e-06
-2.37826e-08
2.04212e-06
-2.23353e-08
2.05304e-06
-2.09328e-08
2.06327e-06
-1.95731e-08
2.07284e-06
-1.82545e-08
2.08178e-06
-1.69752e-08
2.09009e-06
-1.57337e-08
2.09779e-06
-1.45283e-08
2.1049e-06
-1.33574e-08
2.11145e-06
-1.22196e-08
2.11743e-06
-1.11133e-08
2.12288e-06
-1.00371e-08
2.12779e-06
-8.9897e-09
2.13219e-06
-7.96966e-09
2.13609e-06
-6.9757e-09
2.13949e-06
-6.00654e-09
2.14242e-06
-5.06095e-09
2.14488e-06
-4.13776e-09
2.14688e-06
-3.23585e-09
2.14843e-06
-2.35414e-09
2.14954e-06
-1.49165e-09
2.15023e-06
-6.47373e-10
2.15049e-06
1.7972e-10
2.15034e-06
9.90702e-10
2.14978e-06
1.78648e-09
2.14883e-06
2.56782e-09
2.14748e-06
3.33545e-09
2.14575e-06
4.09003e-09
2.14364e-06
4.83212e-09
2.14116e-06
5.56225e-09
2.13831e-06
6.28083e-09
2.13509e-06
6.98825e-09
2.13152e-06
7.68481e-09
2.12761e-06
8.37074e-09
2.12334e-06
9.04624e-09
2.11874e-06
9.71142e-09
2.1138e-06
1.03664e-08
2.10853e-06
1.10112e-08
2.10293e-06
1.16458e-08
2.09702e-06
1.22703e-08
2.09079e-06
1.28847e-08
2.08425e-06
1.34889e-08
2.07741e-06
1.40831e-08
2.07026e-06
1.46672e-08
2.06283e-06
1.52414e-08
2.0551e-06
1.58059e-08
2.04708e-06
1.63608e-08
2.03879e-06
1.69065e-08
2.03022e-06
1.74435e-08
2.02137e-06
1.7972e-08
2.01226e-06
1.84928e-08
2.00288e-06
1.90066e-08
1.99324e-06
1.9514e-08
1.98333e-06
2.00159e-08
1.97317e-06
2.05133e-08
1.96276e-06
2.10073e-08
1.95209e-06
2.14988e-08
1.94116e-06
2.19891e-08
1.92998e-06
2.24793e-08
1.91855e-06
2.29708e-08
1.90685e-06
2.34646e-08
1.8949e-06
2.39622e-08
1.88269e-06
2.44646e-08
1.87021e-06
2.49732e-08
1.85747e-06
2.54892e-08
1.84446e-06
2.60136e-08
1.83117e-06
2.65476e-08
1.8176e-06
2.70921e-08
1.80374e-06
2.76482e-08
1.78958e-06
2.82168e-08
1.77513e-06
2.87986e-08
1.76038e-06
2.93944e-08
1.7453e-06
3.00048e-08
1.72991e-06
3.06306e-08
1.71419e-06
3.12721e-08
1.69814e-06
3.19299e-08
1.68173e-06
3.26045e-08
1.66498e-06
3.32961e-08
1.64787e-06
3.40051e-08
1.63038e-06
3.47319e-08
1.61252e-06
3.54767e-08
1.59426e-06
3.62399e-08
1.57561e-06
3.70216e-08
1.55656e-06
3.78223e-08
1.53709e-06
3.86423e-08
1.51719e-06
3.94818e-08
1.49686e-06
4.03414e-08
1.47609e-06
4.12216e-08
1.45485e-06
4.21228e-08
1.43315e-06
4.30457e-08
1.41098e-06
4.39911e-08
1.38831e-06
4.49598e-08
1.36515e-06
4.59527e-08
1.34147e-06
4.69709e-08
1.31727e-06
4.80155e-08
1.29253e-06
4.90881e-08
1.26724e-06
5.01899e-08
1.24138e-06
5.13227e-08
1.21493e-06
5.24882e-08
1.18789e-06
5.36884e-08
1.16024e-06
5.49255e-08
1.13194e-06
5.62017e-08
1.103e-06
5.75193e-08
1.07338e-06
5.88809e-08
1.04307e-06
6.0289e-08
1.01204e-06
6.17461e-08
9.80272e-07
6.32546e-08
9.47743e-07
6.48166e-08
9.14428e-07
6.6434e-08
8.80304e-07
6.8108e-08
8.45349e-07
6.9839e-08
8.0954e-07
7.16265e-08
7.72858e-07
7.34685e-08
7.35286e-07
7.53611e-08
6.9681e-07
7.72984e-08
6.57424e-07
7.92713e-08
6.17128e-07
8.12672e-08
5.75931e-07
8.32687e-08
5.33854e-07
8.52529e-08
4.90934e-07
8.71894e-08
4.47228e-07
8.90392e-08
4.02818e-07
9.07522e-08
3.57819e-07
9.2264e-08
3.12386e-07
9.34921e-08
2.66724e-07
9.43297e-08
2.21104e-07
9.46374e-08
1.75881e-07
9.42266e-08
1.31519e-07
9.28501e-08
8.85867e-08
9.01472e-08
4.77372e-08
8.56575e-08
9.59638e-09
7.89057e-08
-2.60672e-08
6.90802e-08
-5.98869e-08
5.66454e-08
-8.54254e-08
4.27994e-08
-1.03857e-07
2.54318e-08
-1.15283e-07
5.04447e-09
-1.18215e-07
-1.73466e-08
-1.08298e-07
-4.02996e-08
-8.62544e-08
-6.34977e-08
-5.12625e-08
-8.45376e-08
-9.93205e-08
-3.44493e-08
2.10498e-13
1.38977e-07
-4.86319e-08
5.43463e-13
9.95124e-08
-4.65971e-08
-1.64606e-13
5.67311e-08
-3.24968e-08
-5.59257e-13
1.58646e-08
-1.0176e-08
-4.29149e-13
-2.17751e-08
1.77144e-08
-3.22963e-13
-5.51051e-08
5.02037e-08
-4.82076e-13
-8.37932e-08
8.70519e-08
-5.39242e-13
-1.07665e-07
1.27982e-07
-4.64068e-13
-1.27097e-07
1.72586e-07
-3.86882e-13
-1.42658e-07
2.20356e-07
-3.39574e-13
-1.54947e-07
2.70798e-07
-2.83051e-13
-1.64485e-07
3.23422e-07
-1.94595e-13
-1.71722e-07
3.77746e-07
-8.27967e-14
-1.7704e-07
4.33331e-07
2.95986e-14
-1.80734e-07
4.89784e-07
1.15321e-13
-1.83041e-07
5.46753e-07
1.52443e-13
-1.84157e-07
6.03925e-07
1.35803e-13
-1.84241e-07
6.61025e-07
7.96736e-14
-1.83434e-07
7.17812e-07
7.96647e-15
-1.81855e-07
7.74074e-07
-5.83491e-14
-1.79614e-07
8.29629e-07
-1.07893e-13
-1.76808e-07
8.84321e-07
-1.3737e-13
-1.73525e-07
9.38017e-07
-1.47224e-13
-1.69845e-07
9.90607e-07
-1.38932e-13
-1.65843e-07
1.042e-06
-1.15452e-13
-1.61583e-07
1.09212e-06
-8.17568e-14
-1.57124e-07
1.14092e-06
-4.48284e-14
-1.52519e-07
1.18835e-06
-1.17094e-14
-1.47814e-07
1.23438e-06
1.30621e-14
-1.43049e-07
1.27899e-06
2.86049e-14
-1.38258e-07
1.32217e-06
3.72158e-14
-1.33472e-07
1.36393e-06
4.2725e-14
-1.28715e-07
1.40428e-06
4.81996e-14
-1.24009e-07
1.44321e-06
5.50203e-14
-1.19369e-07
1.48075e-06
6.24655e-14
-1.14809e-07
1.51693e-06
6.86132e-14
-1.10342e-07
1.55176e-06
7.16314e-14
-1.05974e-07
1.58527e-06
7.06112e-14
-1.01711e-07
1.61749e-06
6.60314e-14
-9.75591e-08
1.64845e-06
5.95469e-14
-9.35197e-08
1.67819e-06
5.32046e-14
-8.95943e-08
1.70673e-06
4.88781e-14
-8.57833e-08
1.7341e-06
4.76915e-14
-8.20863e-08
1.76034e-06
4.9728e-14
-7.85018e-08
1.78548e-06
5.43006e-14
-7.50282e-08
1.80954e-06
6.00702e-14
-7.16632e-08
1.83257e-06
6.57011e-14
-6.84043e-08
1.85459e-06
6.99407e-14
-6.52487e-08
1.87563e-06
7.21056e-14
-6.21933e-08
1.89572e-06
7.20258e-14
-5.92352e-08
1.91488e-06
7.0017e-14
-5.63712e-08
1.93315e-06
6.66689e-14
-5.35982e-08
1.95055e-06
6.27345e-14
-5.0913e-08
1.96711e-06
5.89459e-14
-4.83125e-08
1.98284e-06
5.57505e-14
-4.57936e-08
1.99779e-06
5.35266e-14
-4.33534e-08
2.01196e-06
5.22464e-14
-4.09889e-08
2.02538e-06
5.17745e-14
-3.86971e-08
2.03807e-06
5.18543e-14
-3.64754e-08
2.05006e-06
5.20972e-14
-3.43209e-08
2.06136e-06
5.22706e-14
-3.22311e-08
2.07199e-06
5.20902e-14
-3.02033e-08
2.08197e-06
5.14415e-14
-2.82351e-08
2.09131e-06
5.02584e-14
-2.6324e-08
2.10005e-06
4.86104e-14
-2.44677e-08
2.10818e-06
4.65808e-14
-2.26639e-08
2.11574e-06
4.43326e-14
-2.09104e-08
2.12272e-06
4.19907e-14
-1.92049e-08
2.12915e-06
3.96731e-14
-1.75454e-08
2.13504e-06
3.747e-14
-1.59298e-08
2.14041e-06
3.54543e-14
-1.43562e-08
2.14526e-06
3.36571e-14
-1.28226e-08
2.14961e-06
3.20646e-14
-1.1327e-08
2.15347e-06
3.06734e-14
-9.86777e-09
2.15685e-06
2.94278e-14
-8.44303e-09
2.15977e-06
2.83211e-14
-7.05108e-09
2.16222e-06
2.73288e-14
-5.69031e-09
2.16422e-06
2.64615e-14
-4.35915e-09
2.16579e-06
2.57329e-14
-3.05609e-09
2.16692e-06
2.51292e-14
-1.77969e-09
2.16762e-06
2.46504e-14
-5.28539e-10
2.16792e-06
2.43659e-14
6.9872e-10
2.1678e-06
2.4241e-14
1.90336e-09
2.16728e-06
2.42931e-14
3.08655e-09
2.16636e-06
2.44665e-14
4.24932e-09
2.16506e-06
2.47684e-14
5.39262e-09
2.16337e-06
2.52055e-14
6.51729e-09
2.16131e-06
2.57121e-14
7.62406e-09
2.15887e-06
2.62776e-14
8.71355e-09
2.15608e-06
2.68986e-14
9.78631e-09
2.15292e-06
2.75231e-14
1.08428e-08
2.1494e-06
2.81858e-14
1.18833e-08
2.14554e-06
2.87964e-14
1.29082e-08
2.14133e-06
2.93793e-14
1.39176e-08
2.13678e-06
2.99483e-14
1.49117e-08
2.1319e-06
3.04826e-14
1.58906e-08
2.12669e-06
3.10169e-14
1.68543e-08
2.12116e-06
3.15026e-14
1.78028e-08
2.11531e-06
3.19501e-14
1.87363e-08
2.10914e-06
3.23873e-14
1.96548e-08
2.10266e-06
3.27585e-14
2.05583e-08
2.09588e-06
3.30985e-14
2.1447e-08
2.0888e-06
3.34142e-14
2.23211e-08
2.08142e-06
3.36675e-14
2.31808e-08
2.07375e-06
3.38375e-14
2.40266e-08
2.0658e-06
3.3952e-14
2.4859e-08
2.05756e-06
3.39693e-14
2.56785e-08
2.04904e-06
3.39347e-14
2.64859e-08
2.04025e-06
3.38098e-14
2.72821e-08
2.03119e-06
3.36432e-14
2.8068e-08
2.02186e-06
3.33969e-14
2.88448e-08
2.01225e-06
3.30534e-14
2.96139e-08
2.00239e-06
3.26128e-14
3.03764e-08
1.99226e-06
3.19987e-14
3.11341e-08
1.98187e-06
3.12215e-14
3.18884e-08
1.97121e-06
3.02015e-14
3.26411e-08
1.96029e-06
2.89317e-14
3.33939e-08
1.94911e-06
2.73774e-14
3.41485e-08
1.93767e-06
2.56115e-14
3.49068e-08
1.92596e-06
2.35818e-14
3.56706e-08
1.91398e-06
2.14516e-14
3.64416e-08
1.90172e-06
1.92728e-14
3.72217e-08
1.8892e-06
1.71529e-14
3.80126e-08
1.87639e-06
1.51441e-14
3.88158e-08
1.8633e-06
1.33435e-14
3.96331e-08
1.84992e-06
1.1758e-14
4.04658e-08
1.83625e-06
1.03147e-14
4.13154e-08
1.82228e-06
8.97545e-15
4.21831e-08
1.80801e-06
7.59115e-15
4.30702e-08
1.79342e-06
6.00908e-15
4.39777e-08
1.77851e-06
4.16333e-15
4.49066e-08
1.76328e-06
1.93942e-15
4.58579e-08
1.74772e-06
-5.37769e-16
4.68322e-08
1.73181e-06
-3.25088e-15
4.78303e-08
1.71556e-06
-5.97092e-15
4.88528e-08