/*--------------------------------*- C++ -*----------------------------------*\
  =========                 |
  \\      /  F ield         | OpenFOAM: The Open Source CFD Toolbox
   \\    /   O peration     | Website:  https://openfoam.org
    \\  /    A nd           | Version:  8
     \\/     M anipulation  |
\*---------------------------------------------------------------------------*/
FoamFile
{
    version     2.0;
    format      ascii;
    class       volVectorField;
    location    "700";
    object      U;
}
// * * * * * * * * * * * * * * * * * * * * * * * * * * * * * * * * * * * * * //

dimensions      [0 1 -1 0 0 0 0];

internalField   nonuniform List<vector> 
48000
(
(-0.0025519 -1.33167e-07 0.00263569)
(-0.00549488 7.16772e-08 0.00295326)
(-0.00891498 5.74171e-08 0.00291035)
(-0.0114221 3.75121e-08 0.00263702)
(-0.0131639 -5.39748e-09 0.00161121)
(-0.0134057 -5.75648e-08 -6.83059e-05)
(-0.0123107 -7.51698e-08 -0.00124697)
(-0.0102788 -1.9032e-07 -0.00201545)
(-0.007533 -3.31529e-07 -0.00257316)
(-0.00425024 -4.34861e-07 -0.00298644)
(-0.000567492 -4.73361e-07 -0.00328989)
(0.00342731 -4.58117e-07 -0.00349307)
(0.00761042 -4.10511e-07 -0.00361914)
(0.0119532 -3.44934e-07 -0.00369852)
(0.0163937 -2.6307e-07 -0.00374142)
(0.0208946 -1.72122e-07 -0.00375503)
(0.0254226 -8.92756e-08 -0.00374463)
(0.0299497 -3.38953e-08 -0.00371433)
(0.0344523 -1.63593e-08 -0.00366749)
(0.0389102 -3.39036e-08 -0.00360692)
(0.0433065 -7.43219e-08 -0.00353501)
(0.0476268 -1.23451e-07 -0.00345384)
(0.0518595 -1.69748e-07 -0.00336521)
(0.0559947 -2.05681e-07 -0.00327072)
(0.0600248 -2.27108e-07 -0.00317178)
(0.0639434 -2.32705e-07 -0.00306964)
(0.0677459 -2.23606e-07 -0.00296543)
(0.071429 -2.03123e-07 -0.00286009)
(0.0749905 -1.75916e-07 -0.00275448)
(0.0784293 -1.46639e-07 -0.00264929)
(0.0817451 -1.18869e-07 -0.00254512)
(0.0849383 -9.44642e-08 -0.00244246)
(0.0880102 -7.38518e-08 -0.00234171)
(0.0909624 -5.66051e-08 -0.00224319)
(0.0937969 -4.22899e-08 -0.00214715)
(0.0965163 -3.07998e-08 -0.00205376)
(0.0991231 -2.25077e-08 -0.00196315)
(0.10162 -1.76725e-08 -0.00187541)
(0.104011 -1.64924e-08 -0.00179056)
(0.106298 -1.8495e-08 -0.00170861)
(0.108485 -2.26069e-08 -0.00162954)
(0.110575 -2.75107e-08 -0.00155328)
(0.112572 -3.17596e-08 -0.0014798)
(0.114477 -3.43257e-08 -0.00140901)
(0.116295 -3.45466e-08 -0.00134083)
(0.118028 -3.2407e-08 -0.00127518)
(0.11968 -2.83485e-08 -0.00121197)
(0.121252 -2.30641e-08 -0.0011511)
(0.122748 -1.73875e-08 -0.0010925)
(0.124171 -1.20574e-08 -0.00103606)
(0.125522 -7.62196e-09 -0.000981694)
(0.126804 -4.25257e-09 -0.000929322)
(0.128021 -1.9454e-09 -0.000878856)
(0.129173 -5.13892e-10 -0.000830215)
(0.130263 3.3511e-10 -0.000783321)
(0.131293 9.671e-10 -0.000738098)
(0.132266 1.67524e-09 -0.000694473)
(0.133182 2.60419e-09 -0.000652376)
(0.134045 3.81489e-09 -0.000611742)
(0.134855 5.32636e-09 -0.000572505)
(0.135615 7.05103e-09 -0.000534604)
(0.136325 8.83662e-09 -0.000497979)
(0.136988 1.05194e-08 -0.000462574)
(0.137606 1.20042e-08 -0.000428335)
(0.138178 1.31921e-08 -0.000395209)
(0.138708 1.40487e-08 -0.000363145)
(0.139196 1.45551e-08 -0.000332095)
(0.139643 1.47607e-08 -0.000302013)
(0.140051 1.4734e-08 -0.000272853)
(0.140421 1.45322e-08 -0.000244571)
(0.140753 1.42429e-08 -0.000217126)
(0.14105 1.39954e-08 -0.000190477)
(0.141311 1.38241e-08 -0.000164583)
(0.141538 1.37974e-08 -0.000139406)
(0.141732 1.39154e-08 -0.000114909)
(0.141894 1.42162e-08 -9.10564e-05)
(0.142024 1.46502e-08 -6.78144e-05)
(0.142123 1.51947e-08 -4.51528e-05)
(0.142192 1.57505e-08 -2.30464e-05)
(0.142231 1.63216e-08 -1.4688e-06)
(0.142242 1.68851e-08 1.96328e-05)
(0.142225 1.74333e-08 4.02908e-05)
(0.14218 1.78864e-08 6.05159e-05)
(0.142108 1.8309e-08 8.03372e-05)
(0.142009 1.86554e-08 9.97805e-05)
(0.141885 1.90095e-08 0.000118868)
(0.141734 1.9356e-08 0.000137619)
(0.141559 1.97367e-08 0.00015605)
(0.141359 2.01783e-08 0.000174175)
(0.141135 2.06542e-08 0.000192007)
(0.140887 2.12482e-08 0.000209556)
(0.140615 2.18802e-08 0.000226831)
(0.14032 2.2615e-08 0.000243839)
(0.140002 2.34107e-08 0.000260586)
(0.139662 2.42292e-08 0.000277073)
(0.139299 2.50782e-08 0.000293305)
(0.138915 2.59768e-08 0.00030928)
(0.138509 2.68753e-08 0.000324999)
(0.138082 2.7789e-08 0.000340461)
(0.137634 2.87256e-08 0.000355665)
(0.137166 2.96964e-08 0.000370609)
(0.136678 3.06939e-08 0.000385293)
(0.13617 3.17181e-08 0.000399717)
(0.135643 3.27803e-08 0.000413882)
(0.135097 3.38768e-08 0.000427791)
(0.134532 3.50151e-08 0.000441448)
(0.133949 3.61497e-08 0.00045486)
(0.133348 3.73223e-08 0.000468036)
(0.132728 3.85063e-08 0.000480987)
(0.132092 3.96942e-08 0.000493727)
(0.131438 4.09049e-08 0.000506274)
(0.130768 4.21384e-08 0.000518647)
(0.13008 4.33834e-08 0.000530869)
(0.129376 4.46626e-08 0.000542965)
(0.128656 4.59761e-08 0.000554964)
(0.127919 4.73125e-08 0.000566894)
(0.127166 4.86907e-08 0.000578789)
(0.126397 5.00385e-08 0.000590682)
(0.125611 5.13862e-08 0.000602608)
(0.12481 5.26502e-08 0.000614602)
(0.123992 5.38495e-08 0.000626699)
(0.123157 5.48851e-08 0.000638935)
(0.122306 5.58331e-08 0.000651345)
(0.121438 5.6564e-08 0.000663962)
(0.120552 5.71466e-08 0.000676819)
(0.119649 5.7592e-08 0.000689946)
(0.118728 5.79042e-08 0.000703371)
(0.117789 5.81136e-08 0.000717123)
(0.116831 5.8205e-08 0.000731227)
(0.115853 5.81897e-08 0.000745705)
(0.114857 5.80984e-08 0.000760579)
(0.11384 5.78395e-08 0.000775869)
(0.112802 5.74892e-08 0.000791593)
(0.111743 5.70247e-08 0.000807766)
(0.110663 5.6446e-08 0.000824404)
(0.10956 5.58902e-08 0.000841518)
(0.108434 5.54714e-08 0.000859122)
(0.107284 5.53648e-08 0.000877226)
(0.106111 5.57074e-08 0.000895841)
(0.104912 5.67125e-08 0.000914976)
(0.103688 5.84105e-08 0.000934643)
(0.102438 6.07406e-08 0.000954851)
(0.101162 6.34285e-08 0.000975612)
(0.0998576 6.61164e-08 0.000996938)
(0.0985254 6.8256e-08 0.00101884)
(0.0971644 6.92916e-08 0.00104133)
(0.0957739 6.87358e-08 0.00106444)
(0.0943532 6.63448e-08 0.00108816)
(0.0929015 6.22102e-08 0.00111253)
(0.091418 5.68344e-08 0.00113756)
(0.089902 5.11616e-08 0.00116329)
(0.0883527 4.6334e-08 0.00118974)
(0.0867691 4.35319e-08 0.00121695)
(0.0851504 4.34862e-08 0.00124497)
(0.0834956 4.64635e-08 0.00127386)
(0.0818037 5.18773e-08 0.00130366)
(0.0800736 5.85248e-08 0.00133446)
(0.0783042 6.49133e-08 0.00136631)
(0.0764941 6.97713e-08 0.00139931)
(0.0746421 7.25658e-08 0.00143354)
(0.0727468 7.38146e-08 0.00146909)
(0.0708066 7.50405e-08 0.00150605)
(0.06882 7.82005e-08 0.00154452)
(0.0667852 8.51678e-08 0.00158461)
(0.0647004 9.6955e-08 0.00162643)
(0.0625637 1.13357e-07 0.00167012)
(0.060373 1.33116e-07 0.0017158)
(0.0581263 1.53812e-07 0.00176361)
(0.0558212 1.72216e-07 0.00181367)
(0.0534554 1.84148e-07 0.00186612)
(0.0510265 1.84422e-07 0.00192102)
(0.048532 1.67572e-07 0.00197845)
(0.0459696 1.30436e-07 0.00203841)
(0.0433371 7.48426e-08 0.00210086)
(0.0406325 9.60184e-09 0.0021657)
(0.0378542 -5.09332e-08 0.00223273)
(0.0350009 -9.29726e-08 0.00230166)
(0.032072 -1.11004e-07 0.00237205)
(0.0290678 -1.11118e-07 0.00244324)
(0.0259893 -1.06374e-07 0.00251433)
(0.0228394 -1.05628e-07 0.00258403)
(0.0196226 -1.05552e-07 0.00265062)
(0.0163459 -9.47543e-08 0.00271183)
(0.0130198 -6.84997e-08 0.00276461)
(0.00965935 -4.52756e-08 0.00280475)
(0.00628313 -7.38297e-08 0.00282616)
(0.00292919 -2.2921e-07 0.00281972)
(-0.000382232 -5.67846e-07 0.00276034)
(-0.00357798 -1.09184e-06 0.00261756)
(-0.00650564 -1.76476e-06 0.0023509)
(-0.00911223 -2.94231e-06 0.00173728)
(-0.0112586 -4.66086e-06 0.000578462)
(-0.0123779 -6.83953e-06 0.000594366)
(-0.0133 -1.26451e-05 -1.31752e-05)
(-0.0132657 3.80897e-06 -0.000912909)
(-0.0124079 5.21466e-06 -0.00154212)
(-0.0107338 2.75042e-06 -0.00198751)
(-0.00828782 2.17367e-06 -0.00237871)
(-0.00496435 1.73746e-06 -0.00260877)
(-0.00217296 2.55664e-06 -0.00217897)
(-0.00255185 -1.33139e-07 0.00263592)
(-0.00549509 7.1631e-08 0.00295358)
(-0.00891524 5.74073e-08 0.00291017)
(-0.0114222 3.75024e-08 0.00263671)
(-0.0131639 -5.39599e-09 0.00161081)
(-0.0134063 -5.75717e-08 -6.88359e-05)
(-0.0123111 -7.51779e-08 -0.0012475)
(-0.0102791 -1.90322e-07 -0.00201602)
(-0.00753318 -3.3152e-07 -0.00257367)
(-0.00425023 -4.34846e-07 -0.00298683)
(-0.000567322 -4.73345e-07 -0.00329016)
(0.00342755 -4.58102e-07 -0.00349326)
(0.00761071 -4.10498e-07 -0.00361928)
(0.0119535 -3.44924e-07 -0.00369863)
(0.0163941 -2.63063e-07 -0.0037415)
(0.020895 -1.72118e-07 -0.00375508)
(0.025423 -8.92736e-08 -0.00374466)
(0.02995 -3.38946e-08 -0.00371438)
(0.0344525 -1.6359e-08 -0.00366758)
(0.0389103 -3.3903e-08 -0.00360705)
(0.0433064 -7.43206e-08 -0.00353517)
(0.0476267 -1.23449e-07 -0.00345401)
(0.0518594 -1.69745e-07 -0.00336536)
(0.0559947 -2.05678e-07 -0.00327084)
(0.0600247 -2.27105e-07 -0.00317185)
(0.0639434 -2.32702e-07 -0.00306968)
(0.0677459 -2.23603e-07 -0.00296543)
(0.0714291 -2.03121e-07 -0.00286008)
(0.0749906 -1.75914e-07 -0.00275444)
(0.0784293 -1.46637e-07 -0.00264924)
(0.0817451 -1.18867e-07 -0.00254507)
(0.0849384 -9.44633e-08 -0.00244241)
(0.0880102 -7.38512e-08 -0.00234167)
(0.0909624 -5.66046e-08 -0.00224316)
(0.0937969 -4.22896e-08 -0.00214713)
(0.0965162 -3.07995e-08 -0.00205376)
(0.099123 -2.25075e-08 -0.00196317)
(0.10162 -1.76724e-08 -0.00187544)
(0.104011 -1.64922e-08 -0.0017906)
(0.106298 -1.84949e-08 -0.00170865)
(0.108485 -2.26067e-08 -0.00162957)
(0.110575 -2.75105e-08 -0.00155332)
(0.112572 -3.17594e-08 -0.00147984)
(0.114477 -3.43255e-08 -0.00140905)
(0.116295 -3.45464e-08 -0.00134088)
(0.118028 -3.24068e-08 -0.00127523)
(0.11968 -2.83483e-08 -0.00121203)
(0.121252 -2.30639e-08 -0.00115117)
(0.122748 -1.73874e-08 -0.00109256)
(0.12417 -1.20573e-08 -0.00103612)
(0.125522 -7.62191e-09 -0.00098176)
(0.126804 -4.25255e-09 -0.000929387)
(0.128021 -1.94539e-09 -0.000878921)
(0.129173 -5.13889e-10 -0.00083028)
(0.130263 3.35108e-10 -0.000783387)
(0.131293 9.67095e-10 -0.000738165)
(0.132266 1.67523e-09 -0.000694543)
(0.133182 2.60418e-09 -0.00065245)
(0.134045 3.81487e-09 -0.000611819)
(0.134855 5.32633e-09 -0.000572587)
(0.135614 7.051e-09 -0.00053469)
(0.136325 8.83658e-09 -0.00049807)
(0.136988 1.05194e-08 -0.00046267)
(0.137606 1.20042e-08 -0.000428435)
(0.138178 1.3192e-08 -0.000395313)
(0.138708 1.40487e-08 -0.000363253)
(0.139196 1.4555e-08 -0.000332206)
(0.139643 1.47606e-08 -0.000302127)
(0.140051 1.47339e-08 -0.000272969)
(0.140421 1.45322e-08 -0.00024469)
(0.140753 1.42428e-08 -0.000217247)
(0.14105 1.39953e-08 -0.000190599)
(0.141311 1.3824e-08 -0.000164707)
(0.141538 1.37974e-08 -0.000139531)
(0.141732 1.39154e-08 -0.000115035)
(0.141894 1.42162e-08 -9.11833e-05)
(0.142024 1.46502e-08 -6.79423e-05)
(0.142123 1.51946e-08 -4.5282e-05)
(0.142192 1.57505e-08 -2.31769e-05)
(0.142231 1.63216e-08 -1.60118e-06)
(0.142242 1.6885e-08 1.94985e-05)
(0.142225 1.74333e-08 4.01543e-05)
(0.14218 1.78863e-08 6.0377e-05)
(0.142108 1.83089e-08 8.01955e-05)
(0.142009 1.86554e-08 9.9636e-05)
(0.141885 1.90095e-08 0.000118721)
(0.141734 1.93559e-08 0.000137469)
(0.141559 1.97366e-08 0.000155897)
(0.141359 2.01783e-08 0.000174019)
(0.141135 2.06542e-08 0.000191847)
(0.140887 2.12481e-08 0.000209393)
(0.140615 2.18801e-08 0.000226666)
(0.14032 2.26149e-08 0.000243671)
(0.140002 2.34106e-08 0.000260414)
(0.139661 2.42292e-08 0.000276898)
(0.139299 2.50782e-08 0.000293126)
(0.138915 2.59767e-08 0.000309098)
(0.138509 2.68752e-08 0.000324813)
(0.138082 2.77889e-08 0.000340271)
(0.137634 2.87255e-08 0.000355471)
(0.137166 2.96963e-08 0.000370411)
(0.136678 3.06938e-08 0.000385091)
(0.13617 3.1718e-08 0.000399511)
(0.135643 3.27802e-08 0.000413672)
(0.135097 3.38767e-08 0.000427577)
(0.134532 3.5015e-08 0.000441231)
(0.133949 3.61496e-08 0.000454639)
(0.133348 3.73222e-08 0.00046781)
(0.132728 3.85062e-08 0.000480758)
(0.132092 3.96941e-08 0.000493494)
(0.131438 4.09048e-08 0.000506037)
(0.130768 4.21383e-08 0.000518406)
(0.13008 4.33833e-08 0.000530625)
(0.129376 4.46625e-08 0.000542717)
(0.128656 4.5976e-08 0.000554713)
(0.127919 4.73123e-08 0.00056664)
(0.127166 4.86906e-08 0.000578532)
(0.126397 5.00383e-08 0.000590423)
(0.125611 5.13861e-08 0.000602346)
(0.12481 5.26501e-08 0.000614337)
(0.123992 5.38494e-08 0.000626432)
(0.123157 5.48849e-08 0.000638666)
(0.122306 5.58329e-08 0.000651074)
(0.121438 5.65639e-08 0.000663688)
(0.120552 5.71464e-08 0.000676542)
(0.119649 5.75919e-08 0.000689667)
(0.118728 5.7904e-08 0.00070309)
(0.117789 5.81134e-08 0.00071684)
(0.116831 5.82048e-08 0.000730941)
(0.115853 5.81896e-08 0.000745418)
(0.114857 5.80982e-08 0.000760291)
(0.11384 5.78393e-08 0.000775581)
(0.112802 5.74891e-08 0.000791304)
(0.111743 5.70246e-08 0.000807477)
(0.110663 5.64459e-08 0.000824115)
(0.10956 5.589e-08 0.000841231)
(0.108434 5.54712e-08 0.000858835)
(0.107284 5.53646e-08 0.00087694)
(0.106111 5.57073e-08 0.000895556)
(0.104912 5.67124e-08 0.000914692)
(0.103688 5.84104e-08 0.00093436)
(0.102438 6.07404e-08 0.000954569)
(0.101162 6.34283e-08 0.00097533)
(0.0998577 6.61162e-08 0.000996655)
(0.0985255 6.82559e-08 0.00101856)
(0.0971645 6.92915e-08 0.00104105)
(0.095774 6.87356e-08 0.00106414)
(0.0943533 6.63447e-08 0.00108786)
(0.0929016 6.221e-08 0.00111222)
(0.0914181 5.68342e-08 0.00113724)
(0.0899021 5.11615e-08 0.00116296)
(0.0883527 4.63339e-08 0.0011894)
(0.0867691 4.35318e-08 0.0012166)
(0.0851504 4.34861e-08 0.00124462)
(0.0834957 4.64633e-08 0.0012735)
(0.0818038 5.18772e-08 0.00130331)
(0.0800737 5.85246e-08 0.00133411)
(0.0783043 6.49131e-08 0.00136597)
(0.0764942 6.97712e-08 0.00139898)
(0.0746423 7.25657e-08 0.0014332)
(0.0727469 7.38144e-08 0.00146875)
(0.0708068 7.50403e-08 0.00150569)
(0.0688201 7.82003e-08 0.00154415)
(0.0667853 8.51676e-08 0.00158422)
(0.0647005 9.69547e-08 0.00162603)
(0.0625637 1.13356e-07 0.0016697)
(0.0603731 1.33116e-07 0.00171537)
(0.0581264 1.53812e-07 0.00176317)
(0.0558213 1.72216e-07 0.00181323)
(0.0534555 1.84148e-07 0.00186567)
(0.0510266 1.84422e-07 0.00192057)
(0.0485321 1.67571e-07 0.00197798)
(0.0459697 1.30435e-07 0.00203793)
(0.0433371 7.48423e-08 0.00210036)
(0.0406325 9.60181e-09 0.00216517)
(0.037854 -5.0933e-08 0.00223219)
(0.0350007 -9.29723e-08 0.00230111)
(0.0320718 -1.11003e-07 0.00237151)
(0.0290675 -1.11118e-07 0.00244271)
(0.025989 -1.06374e-07 0.0025138)
(0.0228389 -1.05628e-07 0.00258348)
(0.0196219 -1.05552e-07 0.00265004)
(0.0163452 -9.47542e-08 0.00271122)
(0.0130189 -6.84996e-08 0.00276399)
(0.00965823 -4.52755e-08 0.00280409)
(0.00628167 -7.38298e-08 0.00282542)
(0.00292727 -2.2921e-07 0.00281889)
(-0.000384737 -5.67834e-07 0.00275954)
(-0.00358131 -1.09177e-06 0.00261704)
(-0.00651127 -1.7646e-06 0.00235108)
(-0.00912341 -2.94333e-06 0.00173918)
(-0.011278 -4.68959e-06 0.000591398)
(-0.0123952 -7.00425e-06 0.000631904)
(-0.0133214 -1.4816e-05 9.34165e-05)
(-0.013468 6.11405e-06 -0.000807846)
(-0.0124053 6.12451e-06 -0.00184208)
(-0.0107383 2.77893e-06 -0.00201542)
(-0.00829177 2.17589e-06 -0.00238073)
(-0.00496822 1.73732e-06 -0.00260922)
(-0.00217538 2.55619e-06 -0.00217964)
(-0.00254368 -1.33056e-07 0.00638474)
(-0.00486555 -2.53249e-09 0.00564965)
(-0.00656939 1.01795e-08 0.00427024)
(-0.00705869 -9.87003e-10 0.00256829)
(-0.00654574 -3.15582e-08 0.000695468)
(-0.00531141 -4.91115e-08 -0.00118227)
(-0.00357955 -6.88571e-08 -0.00286625)
(-0.00136086 -8.62269e-08 -0.00422502)
(0.00133079 -9.34336e-08 -0.00527362)
(0.0044075 -8.99009e-08 -0.0060689)
(0.00779507 -7.97431e-08 -0.00666828)
(0.0114308 -6.63357e-08 -0.00710879)
(0.015258 -5.10932e-08 -0.00742501)
(0.0192317 -3.40098e-08 -0.00764724)
(0.0233099 -1.53845e-08 -0.00779269)
(0.0274587 2.07184e-09 -0.00787503)
(0.0316483 1.38267e-08 -0.00790436)
(0.0358533 1.67011e-08 -0.00788872)
(0.0400514 1.0969e-08 -0.00783477)
(0.0442237 -1.75129e-10 -0.00774816)
(0.0483536 -1.27508e-08 -0.00763383)
(0.0524272 -2.37083e-08 -0.00749616)
(0.0564326 -3.14067e-08 -0.00733908)
(0.0603597 -3.52122e-08 -0.00716613)
(0.0642003 -3.50714e-08 -0.0069805)
(0.0679478 -3.13727e-08 -0.00678502)
(0.0715968 -2.49728e-08 -0.00658225)
(0.0751433 -1.70975e-08 -0.00637441)
(0.0785844 -9.04325e-09 -0.00616347)
(0.0819183 -1.85899e-09 -0.00595111)
(0.0851438 3.91657e-09 -0.00573879)
(0.0882605 8.25679e-09 -0.00552771)
(0.0912689 1.14206e-08 -0.00531889)
(0.0941696 1.37486e-08 -0.00511317)
(0.0969639 1.54162e-08 -0.00491122)
(0.0996535 1.64231e-08 -0.00471355)
(0.10224 1.66572e-08 -0.00452057)
(0.104726 1.60404e-08 -0.00433257)
(0.107114 1.4644e-08 -0.00414974)
(0.109405 1.27004e-08 -0.00397221)
(0.111604 1.0594e-08 -0.00380002)
(0.113711 8.73219e-09 -0.00363319)
(0.11573 7.43769e-09 -0.00347168)
(0.117663 6.89227e-09 -0.00331541)
(0.119513 7.08927e-09 -0.00316429)
(0.121282 7.87545e-09 -0.00301819)
(0.122973 8.98715e-09 -0.00287698)
(0.124588 1.01541e-08 -0.00274053)
(0.126129 1.11258e-08 -0.00260869)
(0.1276 1.17454e-08 -0.00248129)
(0.129002 1.19415e-08 -0.00235819)
(0.130337 1.17388e-08 -0.00223923)
(0.131607 1.1239e-08 -0.00212426)
(0.132815 1.05652e-08 -0.00201314)
(0.133962 9.83796e-09 -0.0019057)
(0.135051 9.16598e-09 -0.00180182)
(0.136082 8.61773e-09 -0.00170134)
(0.137059 8.21701e-09 -0.00160414)
(0.137982 7.9543e-09 -0.00151008)
(0.138853 7.79249e-09 -0.00141903)
(0.139674 7.68398e-09 -0.00133088)
(0.140446 7.57928e-09 -0.0012455)
(0.141171 7.42128e-09 -0.00116277)
(0.14185 7.19855e-09 -0.0010826)
(0.142484 6.88826e-09 -0.00100486)
(0.143075 6.49231e-09 -0.000929461)
(0.143624 6.02306e-09 -0.000856294)
(0.144132 5.49766e-09 -0.000785264)
(0.1446 4.94561e-09 -0.000716276)
(0.145029 4.38404e-09 -0.000649238)
(0.145421 3.84817e-09 -0.000584061)
(0.145776 3.34752e-09 -0.000520658)
(0.146095 2.90397e-09 -0.000458944)
(0.146379 2.51944e-09 -0.000398837)
(0.146629 2.18821e-09 -0.000340259)
(0.146846 1.92075e-09 -0.000283133)
(0.147031 1.68756e-09 -0.000227385)
(0.147183 1.48673e-09 -0.000172946)
(0.147305 1.3135e-09 -0.000119754)
(0.147396 1.16882e-09 -6.77484e-05)
(0.147458 1.00892e-09 -1.68793e-05)
(0.14749 8.49016e-10 3.29357e-05)
(0.147494 7.03389e-10 8.17795e-05)
(0.14747 5.66328e-10 0.0001297)
(0.147418 4.464e-10 0.000176744)
(0.147339 3.33135e-10 0.000222954)
(0.147233 2.37002e-10 0.00026837)
(0.147101 1.5705e-10 0.000313029)
(0.146943 9.9941e-11 0.000356961)
(0.14676 5.71096e-11 0.000400194)
(0.146552 2.9507e-11 0.000442751)
(0.14632 1.23744e-11 0.00048465)
(0.146063 -1.90278e-12 0.000525906)
(0.145782 -1.14209e-11 0.00056653)
(0.145478 -1.90355e-11 0.000606531)
(0.145151 -3.99753e-11 0.000645912)
(0.1448 -6.47224e-11 0.000684677)
(0.144428 -1.00891e-10 0.000722827)
(0.144033 -1.39915e-10 0.000760361)
(0.143616 -1.90361e-10 0.000797279)
(0.143179 -2.46518e-10 0.00083358)
(0.14272 -3.08386e-10 0.000869266)
(0.14224 -3.81675e-10 0.000904339)
(0.14174 -4.63531e-10 0.000938806)
(0.141219 -5.53953e-10 0.000972675)
(0.140679 -6.52941e-10 0.00100596)
(0.14012 -7.71917e-10 0.00103868)
(0.139541 -9.03266e-10 0.00107085)
(0.138944 -1.0546e-09 0.00110251)
(0.138328 -1.22212e-09 0.00113368)
(0.137694 -1.40582e-09 0.00116442)
(0.137042 -1.61046e-09 0.00119477)
(0.136371 -1.82652e-09 0.00122477)
(0.135683 -2.05495e-09 0.00125449)
(0.134978 -2.30052e-09 0.00128399)
(0.134254 -2.55846e-09 0.00131333)
(0.133514 -2.83639e-09 0.0013426)
(0.132756 -3.1305e-09 0.00137185)
(0.13198 -3.44745e-09 0.00140118)
(0.131187 -3.7901e-09 0.00143065)
(0.130376 -4.15655e-09 0.00146035)
(0.129548 -4.55155e-09 0.00149034)
(0.128701 -4.96463e-09 0.00152071)
(0.127836 -5.40056e-09 0.00155154)
(0.126953 -5.84791e-09 0.00158288)
(0.126051 -6.29526e-09 0.00161481)
(0.12513 -6.74547e-09 0.00164739)
(0.124189 -7.19377e-09 0.00168068)
(0.123229 -7.63826e-09 0.00171473)
(0.122248 -8.08276e-09 0.0017496)
(0.121246 -8.53772e-09 0.00178533)
(0.120224 -9.00601e-09 0.00182196)
(0.119179 -9.48477e-09 0.00185952)
(0.118112 -9.974e-09 0.00189807)
(0.117023 -1.04556e-08 0.00193761)
(0.11591 -1.09049e-08 0.00197817)
(0.114773 -1.12894e-08 0.00201979)
(0.113612 -1.15692e-08 0.00206248)
(0.112425 -1.17158e-08 0.00210626)
(0.111213 -1.1693e-08 0.00215115)
(0.109975 -1.15188e-08 0.00219717)
(0.10871 -1.12171e-08 0.00224433)
(0.107417 -1.08639e-08 0.00229266)
(0.106096 -1.05489e-08 0.00234217)
(0.104746 -1.03709e-08 0.00239288)
(0.103367 -1.0428e-08 0.00244483)
(0.101957 -1.07878e-08 0.00249804)
(0.100517 -1.14236e-08 0.00255255)
(0.0990445 -1.22555e-08 0.00260839)
(0.0975401 -1.3114e-08 0.00266561)
(0.0960026 -1.37765e-08 0.00272426)
(0.0944311 -1.40087e-08 0.00278441)
(0.092825 -1.36546e-08 0.00284612)
(0.0911832 -1.26952e-08 0.00290947)
(0.0895051 -1.12713e-08 0.00297456)
(0.0877895 -9.68369e-09 0.00304147)
(0.0860356 -8.3188e-09 0.00311033)
(0.0842422 -7.51928e-09 0.00318124)
(0.0824084 -7.44885e-09 0.00325435)
(0.0805329 -8.02374e-09 0.00332979)
(0.0786146 -8.88798e-09 0.00340771)
(0.0766521 -9.55044e-09 0.00348828)
(0.0746442 -9.54854e-09 0.00357167)
(0.0725893 -8.631e-09 0.00365805)
(0.0704861 -6.8968e-09 0.0037476)
(0.068333 -4.71335e-09 0.00384049)
(0.0661285 -2.62318e-09 0.00393689)
(0.063871 -1.19547e-09 0.00403695)
(0.0615589 -1.04889e-09 0.0041408)
(0.0591906 -2.86685e-09 0.00424851)
(0.0567646 -7.54974e-09 0.00436011)
(0.0542793 -1.58571e-08 0.00447552)
(0.0517335 -2.77966e-08 0.00459457)
(0.0491261 -4.19043e-08 0.00471696)
(0.0464564 -5.51649e-08 0.00484219)
(0.043724 -6.4091e-08 0.00496957)
(0.0409292 -6.68436e-08 0.0050981)
(0.0380732 -6.47782e-08 0.00522645)
(0.0351577 -6.178e-08 0.00535282)
(0.032186 -6.14469e-08 0.00547485)
(0.0291628 -6.40263e-08 0.00558949)
(0.0260947 -6.62212e-08 0.00569276)
(0.0229907 -6.46945e-08 0.00577951)
(0.019863 -6.03523e-08 0.00584298)
(0.0167279 -6.05046e-08 0.00587418)
(0.013606 -7.73365e-08 0.00586038)
(0.0105261 -1.21596e-07 0.00578453)
(0.00752237 -1.89384e-07 0.00561806)
(0.00463774 -2.69238e-07 0.0053222)
(0.00193226 -3.67262e-07 0.00485934)
(-0.000600216 -5.45452e-07 0.00415424)
(-0.00303863 -1.1463e-06 0.00328526)
(-0.00510125 -2.49571e-06 0.00231559)
(-0.00659209 -3.74823e-06 0.00115244)
(-0.00768085 -2.81312e-06 -0.000184773)
(-0.00818983 1.04242e-05 -0.00159058)
(-0.00794027 4.93229e-06 -0.00302283)
(-0.00686232 2.13305e-06 -0.00441626)
(-0.00489299 1.1599e-06 -0.00550593)
(-0.00243668 1.50252e-06 -0.00591457)
(-0.00254433 -1.32987e-07 0.00638473)
(-0.00486556 -2.52902e-09 0.00565001)
(-0.00656922 1.01826e-08 0.00427017)
(-0.0070587 -9.8691e-10 0.00256799)
(-0.00654593 -3.15443e-08 0.000695046)
(-0.00531156 -4.91031e-08 -0.00118267)
(-0.00357959 -6.88553e-08 -0.00286664)
(-0.0013609 -8.62239e-08 -0.00422544)
(0.00133077 -9.34284e-08 -0.00527402)
(0.00440752 -8.98956e-08 -0.00606923)
(0.00779512 -7.97386e-08 -0.00666855)
(0.0114309 -6.63322e-08 -0.00710905)
(0.015258 -5.10906e-08 -0.00742524)
(0.0192317 -3.40082e-08 -0.00764745)
(0.02331 -1.53839e-08 -0.00779287)
(0.0274588 2.07175e-09 -0.00787519)
(0.0316484 1.38262e-08 -0.0079045)
(0.0358533 1.67005e-08 -0.00788887)
(0.0400514 1.09686e-08 -0.00783492)
(0.0442236 -1.75123e-10 -0.00774831)
(0.0483536 -1.27504e-08 -0.00763397)
(0.0524272 -2.37076e-08 -0.0074963)
(0.0564325 -3.14058e-08 -0.00733921)
(0.0603596 -3.52112e-08 -0.00716625)
(0.0642003 -3.50705e-08 -0.0069806)
(0.0679477 -3.13719e-08 -0.00678511)
(0.0715967 -2.49721e-08 -0.00658232)
(0.0751432 -1.70971e-08 -0.00637447)
(0.0785844 -9.04304e-09 -0.00616352)
(0.0819182 -1.85895e-09 -0.00595116)
(0.0851437 3.91648e-09 -0.00573882)
(0.0882604 8.25662e-09 -0.00552774)
(0.0912688 1.14203e-08 -0.00531893)
(0.0941695 1.37484e-08 -0.00511321)
(0.0969638 1.54159e-08 -0.00491125)
(0.0996534 1.64228e-08 -0.00471359)
(0.10224 1.66569e-08 -0.00452061)
(0.104726 1.60401e-08 -0.0043326)
(0.107114 1.46438e-08 -0.00414978)
(0.109405 1.27002e-08 -0.00397224)
(0.111604 1.05938e-08 -0.00380006)
(0.113711 8.73206e-09 -0.00363322)
(0.11573 7.43759e-09 -0.00347171)
(0.117663 6.89218e-09 -0.00331544)
(0.119512 7.08918e-09 -0.00316431)
(0.121282 7.87535e-09 -0.00301821)
(0.122972 8.98703e-09 -0.00287701)
(0.124588 1.01539e-08 -0.00274056)
(0.126129 1.11257e-08 -0.00260871)
(0.1276 1.17453e-08 -0.00248131)
(0.129002 1.19414e-08 -0.00235821)
(0.130337 1.17386e-08 -0.00223925)
(0.131607 1.12389e-08 -0.00212429)
(0.132815 1.0565e-08 -0.00201316)
(0.133962 9.83786e-09 -0.00190572)
(0.135051 9.16589e-09 -0.00180184)
(0.136082 8.61764e-09 -0.00170136)
(0.137059 8.21693e-09 -0.00160416)
(0.137982 7.95423e-09 -0.0015101)
(0.138853 7.79242e-09 -0.00141905)
(0.139674 7.68392e-09 -0.0013309)
(0.140446 7.57922e-09 -0.00124552)
(0.141171 7.42122e-09 -0.0011628)
(0.141849 7.19849e-09 -0.00108263)
(0.142484 6.8882e-09 -0.00100489)
(0.143075 6.49225e-09 -0.000929491)
(0.143624 6.02301e-09 -0.000856325)
(0.144131 5.49762e-09 -0.000785296)
(0.1446 4.94557e-09 -0.000716309)
(0.145029 4.38401e-09 -0.000649272)
(0.145421 3.84814e-09 -0.000584095)
(0.145776 3.34749e-09 -0.000520692)
(0.146095 2.90395e-09 -0.000458979)
(0.146379 2.51943e-09 -0.000398873)
(0.146629 2.1882e-09 -0.000340295)
(0.146846 1.92074e-09 -0.000283169)
(0.147031 1.68755e-09 -0.000227421)
(0.147183 1.48672e-09 -0.000172983)
(0.147305 1.31349e-09 -0.000119791)
(0.147396 1.16882e-09 -6.77859e-05)
(0.147458 1.00891e-09 -1.69172e-05)
(0.14749 8.4901e-10 3.28972e-05)
(0.147494 7.03384e-10 8.17404e-05)
(0.14747 5.66325e-10 0.00012966)
(0.147418 4.46397e-10 0.000176703)
(0.147339 3.33133e-10 0.000222913)
(0.147233 2.37e-10 0.000268329)
(0.147101 1.57049e-10 0.000312987)
(0.146943 9.99405e-11 0.000356918)
(0.14676 5.71093e-11 0.00040015)
(0.146552 2.95069e-11 0.000442706)
(0.14632 1.23743e-11 0.000484604)
(0.146063 -1.90277e-12 0.000525859)
(0.145782 -1.14209e-11 0.000566483)
(0.145478 -1.90354e-11 0.000606483)
(0.145151 -3.99751e-11 0.000645863)
(0.1448 -6.47221e-11 0.000684628)
(0.144428 -1.00891e-10 0.000722776)
(0.144033 -1.39915e-10 0.00076031)
(0.143616 -1.9036e-10 0.000797226)
(0.143179 -2.46517e-10 0.000833527)
(0.142719 -3.08384e-10 0.000869212)
(0.14224 -3.81673e-10 0.000904284)
(0.14174 -4.63529e-10 0.00093875)
(0.141219 -5.5395e-10 0.000972617)
(0.140679 -6.52938e-10 0.0010059)
(0.14012 -7.71913e-10 0.00103862)
(0.139541 -9.03263e-10 0.00107079)
(0.138944 -1.0546e-09 0.00110245)
(0.138328 -1.22212e-09 0.00113362)
(0.137694 -1.40582e-09 0.00116436)
(0.137042 -1.61045e-09 0.0011947)
(0.136371 -1.82651e-09 0.0012247)
(0.135683 -2.05495e-09 0.00125442)
(0.134978 -2.30051e-09 0.00128392)
(0.134254 -2.55845e-09 0.00131327)
(0.133514 -2.83638e-09 0.00134253)
(0.132756 -3.13049e-09 0.00137179)
(0.13198 -3.44744e-09 0.00140111)
(0.131187 -3.79009e-09 0.00143058)
(0.130376 -4.15653e-09 0.00146028)
(0.129548 -4.55153e-09 0.00149027)
(0.128701 -4.96462e-09 0.00152064)
(0.127836 -5.40054e-09 0.00155147)
(0.126953 -5.84789e-09 0.00158281)
(0.126051 -6.29524e-09 0.00161473)
(0.12513 -6.74544e-09 0.00164731)
(0.124189 -7.19374e-09 0.0016806)
(0.123229 -7.63824e-09 0.00171466)
(0.122248 -8.08273e-09 0.00174952)
(0.121246 -8.53769e-09 0.00178525)
(0.120224 -9.00598e-09 0.00182188)
(0.119179 -9.48474e-09 0.00185945)
(0.118112 -9.97397e-09 0.00189799)
(0.117023 -1.04556e-08 0.00193753)
(0.11591 -1.09048e-08 0.0019781)
(0.114773 -1.12894e-08 0.00201972)
(0.113612 -1.15692e-08 0.00206241)
(0.112425 -1.17158e-08 0.00210619)
(0.111213 -1.16929e-08 0.00215108)
(0.109975 -1.15187e-08 0.0021971)
(0.10871 -1.1217e-08 0.00224426)
(0.107417 -1.08639e-08 0.00229258)
(0.106096 -1.05489e-08 0.00234209)
(0.104746 -1.03709e-08 0.00239281)
(0.103367 -1.0428e-08 0.00244476)
(0.101957 -1.07878e-08 0.00249796)
(0.100517 -1.14236e-08 0.00255247)
(0.0990446 -1.22554e-08 0.00260831)
(0.0975401 -1.3114e-08 0.00266553)
(0.0960026 -1.37764e-08 0.00272418)
(0.0944312 -1.40087e-08 0.00278432)
(0.092825 -1.36546e-08 0.00284603)
(0.0911833 -1.26952e-08 0.00290938)
(0.0895051 -1.12713e-08 0.00297447)
(0.0877895 -9.68367e-09 0.00304138)
(0.0860356 -8.31878e-09 0.00311023)
(0.0842423 -7.51927e-09 0.00318115)
(0.0824085 -7.44883e-09 0.00325426)
(0.080533 -8.02372e-09 0.00332969)
(0.0786147 -8.88796e-09 0.00340762)
(0.0766522 -9.55042e-09 0.00348819)
(0.0746442 -9.54851e-09 0.00357157)
(0.0725893 -8.63097e-09 0.00365795)
(0.0704861 -6.89678e-09 0.00374749)
(0.068333 -4.71334e-09 0.00384038)
(0.0661285 -2.62318e-09 0.00393677)
(0.0638711 -1.19547e-09 0.00403684)
(0.061559 -1.04889e-09 0.00414068)
(0.0591907 -2.86684e-09 0.00424839)
(0.0567647 -7.54972e-09 0.00435999)
(0.0542794 -1.58571e-08 0.0044754)
(0.0517336 -2.77965e-08 0.00459445)
(0.0491262 -4.19042e-08 0.00471683)
(0.0464564 -5.51647e-08 0.00484205)
(0.043724 -6.40907e-08 0.00496943)
(0.0409292 -6.68433e-08 0.00509796)
(0.0380731 -6.47779e-08 0.00522631)
(0.0351576 -6.17797e-08 0.00535268)
(0.0321859 -6.14466e-08 0.00547471)
(0.0291626 -6.4026e-08 0.00558934)
(0.0260944 -6.62208e-08 0.0056926)
(0.0229903 -6.46941e-08 0.00577934)
(0.0198625 -6.0352e-08 0.00584281)
(0.0167272 -6.05043e-08 0.005874)
(0.0136051 -7.73359e-08 0.00586019)
(0.0105249 -1.21595e-07 0.00578436)
(0.00752102 -1.89381e-07 0.005618)
(0.00463606 -2.69233e-07 0.0053224)
(0.00193008 -3.67297e-07 0.00486001)
(-0.000602942 -5.45867e-07 0.00415546)
(-0.0030412 -1.14982e-06 0.00328671)
(-0.00509746 -2.5246e-06 0.00231782)
(-0.00657723 -3.95059e-06 0.00114937)
(-0.00763715 -3.3109e-06 -0.000190467)
(-0.00819387 1.10119e-05 -0.00158971)
(-0.00795639 4.98661e-06 -0.00302339)
(-0.00687061 2.13674e-06 -0.00441749)
(-0.00489754 1.16e-06 -0.00550708)
(-0.00243923 1.50239e-06 -0.00591563)
(-0.00203823 -5.09334e-08 0.0100534)
(-0.00305449 1.18897e-08 0.0077529)
(-0.00349134 -4.14879e-08 0.00492506)
(-0.00287382 -5.98023e-08 0.00204767)
(-0.0015807 -4.30788e-08 -0.000708615)
(0.000170172 -3.34116e-08 -0.00317972)
(0.00225342 -4.57778e-08 -0.00531215)
(0.00463276 -5.05778e-08 -0.00706702)
(0.00730628 -4.34928e-08 -0.00847479)
(0.010248 -3.46609e-08 -0.00958535)
(0.0134244 -2.93336e-08 -0.0104503)
(0.0168009 -2.49933e-08 -0.0111124)
(0.0203436 -1.83829e-08 -0.0116081)
(0.024019 -8.91322e-09 -0.0119676)
(0.0277951 1.7786e-09 -0.0122133)
(0.0316435 1.07476e-08 -0.0123632)
(0.0355387 1.52087e-08 -0.0124311)
(0.039458 1.41901e-08 -0.0124288)
(0.0433812 8.98541e-09 -0.0123659)
(0.0472906 2.05127e-09 -0.0122509)
(0.0511708 -4.47071e-09 -0.0120914)
(0.0550083 -9.48308e-09 -0.0118939)
(0.0587915 -1.27032e-08 -0.0116647)