/*--------------------------------*- C++ -*----------------------------------*\
  =========                 |
  \\      /  F ield         | OpenFOAM: The Open Source CFD Toolbox
   \\    /   O peration     | Website:  https://openfoam.org
    \\  /    A nd           | Version:  8
     \\/     M anipulation  |
\*---------------------------------------------------------------------------*/
FoamFile
{
    version     2.0;
    format      ascii;
    class       volScalarField;
    location    "2000";
    object      alphat;
}
// * * * * * * * * * * * * * * * * * * * * * * * * * * * * * * * * * * * * * //

dimensions      [1 -1 -1 0 0 0 0];

internalField   nonuniform List<scalar> 
46000
(
8.36873e-08
4.32187e-07
9.12497e-07
1.39571e-06
1.86507e-06
2.32253e-06
2.77033e-06
3.21077e-06
3.64512e-06
4.07417e-06
4.49842e-06
4.91812e-06
5.33343e-06
5.74439e-06
6.151e-06
6.5532e-06
6.95091e-06
7.34402e-06
7.7324e-06
8.11591e-06
8.49438e-06
8.86765e-06
9.23551e-06
9.59776e-06
9.95417e-06
1.03045e-05
1.06485e-05
1.09858e-05
1.13162e-05
1.16393e-05
1.19547e-05
1.22622e-05
1.25612e-05
1.28515e-05
1.31325e-05
1.34039e-05
1.36651e-05
1.39159e-05
1.41556e-05
1.43839e-05
1.46003e-05
1.48044e-05
1.49958e-05
1.51741e-05
1.53389e-05
1.549e-05
1.56269e-05
1.57495e-05
1.58575e-05
1.59507e-05
1.60289e-05
1.60922e-05
1.61405e-05
1.61736e-05
1.61918e-05
1.61951e-05
1.61837e-05
1.61578e-05
1.61176e-05
1.60634e-05
1.59956e-05
1.59147e-05
1.58221e-05
1.57191e-05
1.56043e-05
1.54781e-05
1.53412e-05
1.51939e-05
1.50371e-05
1.48713e-05
1.46972e-05
1.45154e-05
1.43266e-05
1.41315e-05
1.39307e-05
1.3725e-05
1.3515e-05
1.33014e-05
1.30848e-05
1.28659e-05
1.26453e-05
1.24236e-05
1.22014e-05
1.19793e-05
1.17577e-05
1.15373e-05
1.13185e-05
1.11018e-05
1.08876e-05
1.06763e-05
1.04683e-05
1.02641e-05
1.00638e-05
9.8678e-06
9.6764e-06
9.48981e-06
9.30827e-06
9.13196e-06
8.96104e-06
8.79566e-06
8.63595e-06
8.48199e-06
8.33386e-06
8.19161e-06
8.05529e-06
7.9249e-06
7.80045e-06
7.68192e-06
7.56927e-06
7.46247e-06
7.36145e-06
7.26615e-06
7.17647e-06
7.09233e-06
7.01363e-06
6.94025e-06
6.87207e-06
6.80896e-06
6.75079e-06
6.69744e-06
6.64871e-06
6.60431e-06
6.56431e-06
6.52844e-06
6.49653e-06
6.46838e-06
6.44383e-06
6.42267e-06
6.40472e-06
6.38978e-06
6.37766e-06
6.36815e-06
6.36105e-06
6.35613e-06
6.35319e-06
6.352e-06
6.35232e-06
6.35394e-06
6.35659e-06
6.36004e-06
6.36402e-06
6.36827e-06
6.37252e-06
6.37649e-06
6.37988e-06
6.3824e-06
6.38373e-06
6.38356e-06
6.38156e-06
6.3774e-06
6.37074e-06
6.36122e-06
6.34851e-06
6.33224e-06
6.31206e-06
6.2876e-06
6.25851e-06
6.22445e-06
6.18506e-06
6.14002e-06
6.089e-06
6.03171e-06
5.96786e-06
5.89718e-06
5.81945e-06
5.73484e-06
5.64468e-06
5.54743e-06
5.44279e-06
5.33067e-06
5.2111e-06
5.08417e-06
4.95e-06
4.80879e-06
4.66079e-06
4.50629e-06
4.34564e-06
4.17926e-06
4.00758e-06
3.83111e-06
3.65039e-06
3.46598e-06
3.2785e-06
3.08855e-06
2.89675e-06
2.70374e-06
2.51012e-06
2.31644e-06
2.12313e-06
1.92984e-06
1.73796e-06
1.54765e-06
1.3576e-06
1.16789e-06
9.76817e-07
7.86283e-07
5.9235e-07
3.89372e-07
1.84753e-07
3.54877e-08
8.37e-08
4.32237e-07
9.12561e-07
1.39578e-06
1.86516e-06
2.32262e-06
2.77043e-06
3.21086e-06
3.64521e-06
4.07427e-06
4.49852e-06
4.91822e-06
5.33353e-06
5.74449e-06
6.1511e-06
6.5533e-06
6.95101e-06
7.34412e-06
7.7325e-06
8.11601e-06
8.49448e-06
8.86775e-06
9.23561e-06
9.59786e-06
9.95427e-06
1.03046e-05
1.06486e-05
1.09859e-05
1.13163e-05
1.16394e-05
1.19548e-05
1.22623e-05
1.25613e-05
1.28516e-05
1.31326e-05
1.3404e-05
1.36652e-05
1.3916e-05
1.41557e-05
1.4384e-05
1.46004e-05
1.48045e-05
1.49959e-05
1.51742e-05
1.5339e-05
1.54901e-05
1.5627e-05
1.57496e-05
1.58576e-05
1.59508e-05
1.6029e-05
1.60923e-05
1.61406e-05
1.61737e-05
1.61919e-05
1.61952e-05
1.61838e-05
1.61579e-05
1.61177e-05
1.60635e-05
1.59956e-05
1.59148e-05
1.58222e-05
1.57191e-05
1.56043e-05
1.54782e-05
1.53412e-05
1.5194e-05
1.50372e-05
1.48714e-05
1.46972e-05
1.45154e-05
1.43266e-05
1.41315e-05
1.39307e-05
1.3725e-05
1.3515e-05
1.33014e-05
1.30848e-05
1.28659e-05
1.26453e-05
1.24236e-05
1.22014e-05
1.19793e-05
1.17577e-05
1.15373e-05
1.13185e-05
1.11018e-05
1.08875e-05
1.06763e-05
1.04683e-05
1.0264e-05
1.00638e-05
9.86778e-06
9.67638e-06
9.48979e-06
9.30824e-06
9.13193e-06
8.96101e-06
8.79563e-06
8.63591e-06
8.48195e-06
8.33382e-06
8.19157e-06
8.05525e-06
7.92486e-06
7.8004e-06
7.68187e-06
7.56923e-06
7.46242e-06
7.3614e-06
7.2661e-06
7.17642e-06
7.09228e-06
7.01358e-06
6.9402e-06
6.87202e-06
6.80891e-06
6.75074e-06
6.69739e-06
6.64866e-06
6.60425e-06
6.56425e-06
6.52838e-06
6.49647e-06
6.46832e-06
6.44377e-06
6.42261e-06
6.40466e-06
6.38972e-06
6.3776e-06
6.36809e-06
6.36099e-06
6.35607e-06
6.35313e-06
6.35193e-06
6.35226e-06
6.35387e-06
6.35653e-06
6.35997e-06
6.36396e-06
6.36821e-06
6.37246e-06
6.37643e-06
6.37982e-06
6.38233e-06
6.38366e-06
6.38349e-06
6.38149e-06
6.37733e-06
6.37067e-06
6.36116e-06
6.34845e-06
6.33218e-06
6.31199e-06
6.28754e-06
6.25845e-06
6.22438e-06
6.185e-06
6.13996e-06
6.08894e-06
6.03165e-06
5.9678e-06
5.89713e-06
5.8194e-06
5.73479e-06
5.64463e-06
5.54739e-06
5.44274e-06
5.33062e-06
5.21106e-06
5.08413e-06
4.94996e-06
4.80876e-06
4.66076e-06
4.50626e-06
4.34561e-06
4.17923e-06
4.00755e-06
3.83108e-06
3.65036e-06
3.46596e-06
3.27847e-06
3.08852e-06
2.89673e-06
2.70373e-06
2.5101e-06
2.31642e-06
2.12312e-06
1.92983e-06
1.73795e-06
1.54764e-06
1.35759e-06
1.16788e-06
9.76811e-07
7.86276e-07
5.92344e-07
3.89367e-07
1.84751e-07
3.54871e-08
3.97164e-07
1.39217e-05
2.79716e-05
3.75869e-05
4.49408e-05
5.10114e-05
5.62575e-05
6.09219e-05
6.51491e-05
6.90319e-05
7.26336e-05
7.59996e-05
7.91635e-05
8.2151e-05
8.49825e-05
8.76742e-05
9.02394e-05
9.26893e-05
9.5033e-05
9.72786e-05
9.94327e-05
0.000101501
0.000103489
0.000105401
0.000107241
0.000109012
0.000110716
0.000112357
0.000113937
0.000115456
0.000116917
0.000118321
0.000119668
0.000120961
0.000122198
0.00012338
0.000124509
0.000125583
0.000126602
0.000127567
0.000128478
0.000129333
0.000130134
0.000130878
0.000131567
0.000132199
0.000132775
0.000133294
0.000133756
0.00013416
0.000134507
0.000134796
0.000135028
0.000135202
0.00013532
0.00013538
0.000135384
0.000135332
0.000135224
0.000135061
0.000134843
0.000134569
0.000134235
0.000133844
0.000133401
0.00013291
0.000132373
0.000131792
0.00013117
0.000130507
0.000129805
0.000129068
0.000128296
0.000127491
0.000126657
0.000125794
0.000124906
0.000123994
0.00012306
0.000122107
0.000121138
0.000120153
0.000119156
0.000118149
0.000117134
0.000116113
0.000115089
0.000114063
0.000113037
0.000112014
0.000110996
0.000109984
0.000108981
0.000107988
0.000107007
0.00010604
0.000105089
0.000104154
0.000103238
0.000102341
0.000101465
0.000100612
9.97817e-05
9.89759e-05
9.81952e-05
9.74406e-05
9.67127e-05
9.60121e-05
9.53393e-05
9.46947e-05
9.40787e-05
9.34915e-05
9.29332e-05
9.24038e-05
9.19033e-05
9.14314e-05
9.09881e-05
9.0573e-05
9.01854e-05
8.98249e-05
8.9491e-05
8.91828e-05
8.88992e-05
8.86396e-05
8.8403e-05
8.81885e-05
8.79952e-05
8.78218e-05
8.76674e-05
8.75307e-05
8.74105e-05
8.73055e-05
8.72145e-05
8.7136e-05
8.70687e-05
8.70111e-05
8.69618e-05
8.69193e-05
8.68819e-05
8.68481e-05
8.68162e-05
8.67846e-05
8.67515e-05
8.67151e-05
8.66737e-05
8.66252e-05
8.65679e-05
8.64997e-05
8.64187e-05
8.63228e-05
8.62099e-05
8.60779e-05
8.59247e-05
8.57481e-05
8.55458e-05
8.53158e-05
8.50557e-05
8.47633e-05
8.44365e-05
8.4073e-05
8.36707e-05
8.32272e-05
8.27405e-05
8.22079e-05
8.16261e-05
8.09875e-05
8.02867e-05
7.95275e-05
7.87101e-05
7.78343e-05
7.6899e-05
7.59033e-05
7.48464e-05
7.37275e-05
7.25458e-05
7.13007e-05
6.99919e-05
6.86187e-05
6.71809e-05
6.56781e-05
6.41098e-05
6.24754e-05
6.07742e-05
5.90052e-05
5.71668e-05
5.52567e-05
5.32718e-05
5.12073e-05
4.90573e-05
4.68144e-05
4.44572e-05
4.19548e-05
3.92597e-05
3.6303e-05
3.29315e-05
2.88198e-05
2.37608e-05
1.70963e-05
7.71248e-06
1.62733e-07
3.97204e-07
1.39237e-05
2.79746e-05
3.75903e-05
4.49444e-05
5.10151e-05
5.62612e-05
6.09257e-05
6.51529e-05
6.90358e-05
7.26375e-05
7.60036e-05
7.91675e-05
8.21551e-05
8.49866e-05
8.76783e-05
9.02436e-05
9.26935e-05
9.50373e-05
9.72829e-05
9.94372e-05
0.000101506
0.000103494
0.000105406
0.000107246
0.000109017
0.000110721
0.000112362
0.000113941
0.000115461
0.000116922
0.000118326
0.000119674
0.000120966
0.000122203
0.000123386
0.000124514
0.000125588
0.000126608
0.000127573
0.000128483
0.000129339
0.000130139
0.000130884
0.000131573
0.000132205
0.000132781
0.0001333
0.000133761
0.000134166
0.000134513
0.000134802
0.000135034
0.000135208
0.000135326
0.000135386
0.00013539
0.000135338
0.00013523
0.000135067
0.000134849
0.000134575
0.000134241
0.00013385
0.000133407
0.000132916
0.000132379
0.000131798
0.000131175
0.000130512
0.000129811
0.000129073
0.000128301
0.000127496
0.000126662
0.000125799
0.000124911
0.000123999
0.000123065
0.000122112
0.000121142
0.000120158
0.000119161
0.000118154
0.000117138
0.000116117
0.000115093
0.000114067
0.000113041
0.000112018
0.000111
0.000109988
0.000108985
0.000107992
0.000107011
0.000106044
0.000105092
0.000104157
0.00010324
0.000102344
0.000101468
0.000100614
9.97843e-05
9.89783e-05
9.81976e-05
9.74429e-05
9.67148e-05
9.60141e-05
9.53413e-05
9.46966e-05
9.40806e-05
9.34933e-05
9.29349e-05
9.24054e-05
9.19048e-05
9.14329e-05
9.09895e-05
9.05743e-05
9.01866e-05
8.98261e-05
8.9492e-05
8.91838e-05
8.89002e-05
8.86405e-05
8.84038e-05
8.81893e-05
8.79959e-05
8.78225e-05
8.7668e-05
8.75312e-05
8.7411e-05
8.73059e-05
8.72148e-05
8.71363e-05
8.7069e-05
8.70114e-05
8.6962e-05
8.69194e-05
8.6882e-05
8.68482e-05
8.68163e-05
8.67846e-05
8.67515e-05
8.67151e-05
8.66736e-05
8.66251e-05
8.65677e-05
8.64995e-05
8.64185e-05
8.63225e-05
8.62096e-05
8.60776e-05
8.59244e-05
8.57477e-05
8.55455e-05
8.53154e-05
8.50553e-05
8.47629e-05
8.44361e-05
8.40725e-05
8.36702e-05
8.32267e-05
8.27399e-05
8.22074e-05
8.16255e-05
8.09869e-05
8.02861e-05
7.95268e-05
7.87095e-05
7.78336e-05
7.68983e-05
7.59027e-05
7.48458e-05
7.37269e-05
7.25452e-05
7.13001e-05
6.99913e-05
6.86182e-05
6.71804e-05
6.56775e-05
6.41092e-05
6.24749e-05
6.07737e-05
5.90047e-05
5.71663e-05
5.52563e-05
5.32713e-05
5.12069e-05
4.90569e-05
4.68141e-05
4.44568e-05
4.19545e-05
3.92594e-05
3.63028e-05
3.29314e-05
2.88197e-05
2.37608e-05
1.70963e-05
7.71253e-06
1.62733e-07
8.54765e-07
2.73161e-05
5.97575e-05
8.3965e-05
0.000102642
0.000117823
0.000130661
0.000141831
0.000151752
0.000160701
0.000168866
0.000176384
0.000183356
0.000189858
0.00019595
0.00020168
0.000207087
0.000212201
0.000217051
0.000221658
0.000226041
0.000230217
0.0002342
0.000238001
0.000241632
0.000245101
0.000248417
0.000251587
0.000254617
0.000257511
0.000260276
0.000262915
0.000265431
0.000267828
0.000270108
0.000272273
0.000274326
0.000276268
0.000278101
0.000279825
0.000281442
0.000282952
0.000284357
0.000285657
0.000286853
0.000287945
0.000288934
0.000289821
0.000290605
0.000291288
0.000291869
0.00029235
0.000292732
0.000293014
0.000293198
0.000293284
0.000293274
0.000293168
0.000292967
0.000292671
0.000292281
0.000291795
0.000291211
0.000290531
0.000289761
0.000288908
0.000287975
0.000286966
0.000285884
0.000284732
0.000283514
0.000282231
0.000280888
0.000279487
0.000278032
0.000276527
0.000274974
0.000273377
0.00027174
0.000270066
0.000268359
0.000266623
0.000264861
0.000263077
0.000261275
0.000259458
0.000257629
0.000255794
0.000253955
0.000252115
0.000250279
0.000248449
0.000246629
0.000244823
0.000243033
0.000241262
0.000239513
0.00023779
0.000236094
0.000234429
0.000232797
0.000231199
0.000229639
0.000228117
0.000226636
0.000225198
0.000223803
0.000222453
0.000221149
0.000219892
0.000218682
0.000217521
0.000216407
0.000215343
0.000214326
0.000213359
0.000212439
0.000211567
0.000210742
0.000209961
0.000209225
0.000208531
0.000207879
0.000207267
0.000206693
0.000206156
0.000205653
0.000205183
0.000204745
0.000204335
0.000203951
0.000203592
0.000203254
0.000202936
0.000202634
0.000202346
0.00020207
0.000201802
0.00020154
0.00020128
0.00020102
0.000200757
0.000200487
0.000200207
0.000199914
0.000199604
0.000199274
0.000198921
0.00019854
0.000198128
0.000197681
0.000197197
0.00019667
0.000196097
0.000195474
0.000194798
0.000194064
0.000193269
0.00019241
0.000191481
0.00019048
0.000189403
0.000188246
0.000187004
0.000185672
0.000184241
0.000182701
0.000181055
0.000179303
0.000177445
0.000175477
0.000173399
0.000171209
0.000168904
0.000166482
0.000163941
0.000161277
0.000158488
0.000155571
0.00015252
0.000149332
0.000146002
0.000142521
0.000138883
0.000135076
0.000131088
0.000126902
0.000122495
0.000117838
0.000112889
0.000107583
0.000101824
9.54695e-05
8.82725e-05
7.98415e-05
6.95578e-05
5.64482e-05
3.9165e-05
1.6405e-05
3.529e-07
8.54841e-07
2.7319e-05
5.9764e-05
8.39733e-05
0.000102651
0.000117833
0.000130671
0.000141841
0.000151762
0.000160711
0.000168876
0.000176394
0.000183365
0.000189867
0.000195959
0.000201689
0.000207096
0.000212211
0.000217061
0.000221668
0.000226051
0.000230227
0.000234209
0.00023801
0.000241641
0.000245111
0.000248427
0.000251597
0.000254626
0.000257521
0.000260286
0.000262925
0.000265441
0.000267838
0.000270118
0.000272284
0.000274336
0.000276278
0.000278111
0.000279835
0.000281452
0.000282963
0.000284368
0.000285668
0.000286864
0.000287956
0.000288945
0.000289831
0.000290616
0.000291298
0.00029188
0.000292361
0.000292742
0.000293024
0.000293208
0.000293295
0.000293284
0.000293178
0.000292977
0.000292682
0.000292291
0.000291805
0.000291221
0.00029054
0.000289771
0.000288917
0.000287984
0.000286975
0.000285893
0.000284741
0.000283523
0.00028224
0.000280896
0.000279496
0.000278041
0.000276535
0.000274982
0.000273385
0.000271748
0.000270074
0.000268367
0.00026663
0.000264868
0.000263084
0.000261281
0.000259464
0.000257636
0.0002558
0.00025396
0.000252121
0.000250284
0.000248454
0.000246634
0.000244828
0.000243037
0.000241266
0.000239518
0.000237794
0.000236098
0.000234433
0.0002328
0.000231203
0.000229642
0.00022812
0.000226639
0.000225201
0.000223806
0.000222456
0.000221151
0.000219894
0.000218684
0.000217522
0.000216409
0.000215344
0.000214328
0.00021336
0.00021244
0.000211568
0.000210743
0.000209962
0.000209225
0.000208532
0.000207879
0.000207267
0.000206693
0.000206155
0.000205653
0.000205183
0.000204744
0.000204334
0.00020395
0.000203591
0.000203253
0.000202935
0.000202633
0.000202345
0.000202069
0.000201801
0.000201538
0.000201279
0.000201019
0.000200755
0.000200485
0.000200205
0.000199912
0.000199602
0.000199272
0.000198919
0.000198538
0.000198126
0.000197679
0.000197195
0.000196667
0.000196095
0.000195472
0.000194795
0.000194062
0.000193267
0.000192407
0.000191479
0.000190478
0.000189401
0.000188244
0.000187002
0.00018567
0.000184239
0.000182699
0.000181053
0.000179301
0.000177442
0.000175475
0.000173397
0.000171207
0.000168902
0.00016648
0.000163939
0.000161275
0.000158487
0.000155569
0.000152519
0.000149331
0.000146
0.00014252
0.000138881
0.000135075
0.000131087
0.000126901
0.000122494
0.000117837
0.000112888
0.000107582
0.000101824
9.54689e-05
8.82721e-05
7.98412e-05
6.95577e-05
5.64481e-05
3.9165e-05
1.64051e-05
3.52902e-07
1.32471e-06
3.65863e-05
8.31616e-05
0.000120814
0.00015102
0.000175973
0.000197172
0.000215594
0.000231894
0.000246521
0.000259794
0.000271946
0.000283153
0.00029355
0.000303243
0.000312316
0.000320837
0.000328863
0.000336441
0.00034361
0.000350403
0.00035685
0.000362975
0.000368798
0.000374339
0.000379613
0.000384634
0.000389416
0.000393967
0.000398298
0.000402418
0.000406333
0.00041005
0.000413575
0.000416913
0.000420069
0.000423047
0.00042585
0.000428482
0.000430946
0.000433244
0.00043538
0.000437356
0.000439173
0.000440835
0.000442342
0.000443698
0.000444903
0.00044596
0.00044687
0.000447635
0.000448257
0.000448738
0.000449078
0.000449281
0.000449347
0.000449279
0.000449078
0.000448745
0.000448281
0.000447688
0.000446966
0.000446114
0.000445134
0.000444034
0.00044282
0.000441496
0.000440068
0.000438539
0.000436915
0.000435198
0.000433394
0.000431507
0.00042954
0.000427499
0.000425388
0.000423211
0.000420973
0.000418679
0.000416333
0.000413941
0.000411508
0.000409037
0.000406534
0.000404005
0.000401454
0.000398885
0.000396305
0.000393717
0.000391126
0.000388538
0.000385956
0.000383386
0.000380831
0.000378296
0.000375785
0.000373301
0.00037085
0.000368434
0.000366056
0.000363721
0.00036143
0.000359187
0.000356995
0.000354855
0.00035277
0.000350741
0.00034877
0.000346859
0.000345008
0.000343219
0.000341492
0.000339828
0.000338226
0.000336687
0.00033521
0.000333795
0.00033244
0.000331144
0.000329906
0.000328723
0.000327594
0.000326518
0.000325491
0.000324513
0.00032358
0.00032269
0.00032184
0.000321028
0.000320251
0.000319505
0.000318787
0.000318095
0.000317425
0.000316772
0.000316135
0.000315508
0.000314889
0.000314272
0.000313655
0.000313032
0.000312401
0.000311756
0.000311092
0.000310407
0.000309694
0.000308949
0.000308168
0.000307345
0.000306476
0.000305556
0.00030458
0.000303542
0.000302439
0.000301264
0.000300013
0.000298682
0.000297264
0.000295756
0.000294152
0.000292448
0.000290639
0.000288719
0.000286684
0.000284525
0.000282236
0.000279809
0.00027724
0.000274528
0.000271672
0.000268668
0.000265514
0.000262205
0.000258739
0.000255109
0.000251312
0.000247341
0.000243189
0.000238848
0.000234309
0.000229561
0.000224591
0.000219384
0.000213921
0.000208179
0.00020213
0.000195736
0.000188953
0.000181717
0.000173944
0.000165513
0.000156251
0.000145905
0.000134091
0.000120236
0.000103477
8.25279e-05
5.57989e-05
2.28425e-05
5.56357e-07
1.3248e-06
3.65895e-05
8.31697e-05
0.000120825
0.000151033
0.000175987
0.000197186
0.000215609
0.000231909
0.000246536
0.000259809
0.000271961
0.000283168
0.000293565
0.000303257
0.00031233
0.000320851
0.000328877
0.000336455
0.000343624
0.000350418
0.000356865
0.000362989
0.000368812
0.000374353
0.000379627
0.000384649
0.00038943
0.000393981
0.000398312
0.000402432
0.000406347
0.000410064
0.000413589
0.000416928
0.000420083
0.000423061
0.000425864
0.000428496
0.00043096
0.000433259
0.000435394
0.00043737
0.000439187
0.000440849
0.000442357
0.000443712
0.000444917
0.000445974
0.000446884
0.000447649
0.000448271
0.000448751
0.000449092
0.000449295
0.000449361
0.000449292
0.000449091
0.000448758
0.000448294
0.000447701
0.000446978
0.000446126
0.000445147
0.000444046
0.000442832
0.000441508
0.000440079
0.00043855
0.000436926
0.000435209
0.000433405
0.000431517
0.000429551
0.000427509
0.000425398
0.00042322
0.000420982
0.000418688
0.000416342
0.00041395
0.000411516
0.000409045
0.000406542
0.000404013
0.000401461
0.000398892
0.000396312
0.000393723
0.000391133
0.000388544
0.000385962
0.000383391
0.000380836
0.000378301
0.000375789
0.000373306
0.000370854
0.000368438
0.00036606
0.000363724
0.000361434
0.000359191
0.000356998
0.000354858
0.000352772
0.000350743
0.000348772
0.000346861
0.00034501
0.000343221
0.000341493
0.000339829
0.000338227
0.000336687
0.000335211
0.000333795
0.000332441
0.000331144
0.000329906
0.000328723
0.000327594
0.000326517
0.00032549
0.000324512
0.000323578
0.000322688
0.000321839
0.000321026
0.000320249
0.000319503
0.000318785
0.000318093
0.000317423
0.00031677
0.000316132
0.000315506
0.000314886
0.000314269
0.000313652
0.000313029
0.000312398
0.000311752
0.000311089
0.000310403
0.000309691
0.000308946
0.000308164
0.000307342
0.000306473
0.000305553
0.000304576
0.000303539
0.000302435
0.00030126
0.00030001
0.000298678
0.00029726
0.000295752
0.000294148
0.000292444
0.000290635
0.000288716
0.00028668
0.000284522
0.000282233
0.000279805
0.000277236
0.000274525
0.000271669
0.000268665
0.000265511
0.000262202
0.000258736
0.000255107
0.000251309
0.000247338
0.000243186
0.000238845
0.000234307
0.000229559
0.000224589
0.000219382
0.000213919
0.000208177
0.000202128
0.000195735
0.000188952
0.000181716
0.000173943
0.000165512
0.000156251
0.000145905
0.000134091
0.000120236
0.000103477
8.25279e-05
5.57989e-05
2.28426e-05
5.5636e-07
1.79182e-06
4.38145e-05
0.000101269
0.000150198
0.000190756
0.0002249
0.000254205
0.0002798
0.000302488
0.000322846
0.000341299
0.000358164
0.000373686
0.000388053
0.000401416
0.000413895
0.000425589
0.000436579
0.000446931
0.000456704
0.000465946
0.000474697
0.000482993
0.000490864
0.000498337
0.000505435
0.000512178
0.000518583
0.000524666
0.000530442
0.000535921
0.000541114
0.000546032
0.000550683
0.000555074
0.000559213
0.000563105
0.000566757
0.000570174
0.000573361
0.000576322
0.000579063
0.000581587
0.000583898
0.000585999
0.000587896
0.00058959
0.000591085
0.000592385
0.000593493
0.000594412
0.000595145
0.000595695
0.000596065
0.000596258
0.000596276
0.000596124
0.000595802
0.000595314
0.000594663
0.000593849
0.000592876
0.000591745
0.000590458
0.000589023
0.000587447
0.000585734
0.000583891
0.000581924
0.000579837
0.000577636
0.000575327
0.000572914
0.000570403
0.0005678
0.00056511
0.000562339
0.000559493
0.000556577
0.000553597
0.00055056
0.000547471
0.000544336
0.000541162
0.000537954
0.000534719
0.000531463
0.000528191
0.000524909
0.000521624
0.000518341
0.000515066
0.000511804
0.00050856
0.00050534
0.000502149
0.000498992
0.000495872
0.000492795
0.000489764
0.000486784
0.000483857
0.000480988
0.000478179
0.000475433
0.000472752
0.000470138
0.000467593
0.000465119
0.000462717
0.000460387
0.000458131
0.000455948
0.000453839
0.000451803
0.000449839
0.000447947
0.000446123
0.000444368
0.000442678
0.000441052
0.000439487
0.000437982
0.000436533
0.000435137
0.000433792
0.000432495
0.000431241
0.000430029
0.000428853
0.000427711
0.000426598
0.000425511
0.000424445
0.000423396
0.00042236
0.000421332
0.000420308
0.000419282
0.00041825
0.000417207
0.000416148
0.000415068
0.000413961
0.000412822
0.000411645
0.000410426
0.000409157
0.000407834
0.000406451
0.000405001
0.00040348
0.000401881
0.000400198
0.000398426
0.000396559
0.000394591
0.000392517
0.000390331
0.000388027
0.0003856
0.000383045
0.000380355
0.000377524
0.000374545
0.000371411
0.000368114
0.00036465
0.000361014
0.000357204
0.000353214
0.000349041
0.000344678
0.00034012
0.000335358
0.000330385
0.00032519
0.000319763
0.000314089
0.000308154
0.00030194
0.000295425
0.000288583
0.000281385
0.000273794
0.000265764
0.000257239
0.000248146
0.000238391
0.000227846
0.000216338
0.000203625
0.000189365
0.000173071
0.000154043
0.000131295
0.000103473
6.89813e-05
2.80994e-05
7.65566e-07
1.79191e-06
4.38177e-05
0.000101277
0.000150211
0.000190772
0.000224918
0.000254224
0.000279819
0.000302508
0.000322866
0.000341319
0.000358184
0.000373706
0.000388073
0.000401436
0.000413915
0.000425609
0.000436598
0.000446951
0.000456724
0.000465965
0.000474716
0.000483012
0.000490883
0.000498356
0.000505454
0.000512196
0.000518602
0.000524685
0.00053046
0.000535939
0.000541133
0.000546051
0.000550701
0.000555092
0.000559231
0.000563123
0.000566775
0.000570192
0.000573379
0.00057634
0.000579081
0.000581604
0.000583915
0.000586017
0.000587913
0.000589607
0.000591103
0.000592403
0.00059351
0.000594429
0.000595162
0.000595712
0.000596081
0.000596274
0.000596292
0.00059614
0.000595818
0.00059533
0.000594678
0.000593865
0.000592891
0.000591759
0.000590473
0.000589038
0.00058746
0.000585747
0.000583904
0.000581937
0.00057985
0.000577649
0.000575339
0.000572926
0.000570415
0.000567811
0.000565121
0.00056235
0.000559503
0.000556587
0.000553607
0.000550569
0.00054748
0.000544345
0.000541171
0.000537963
0.000534727
0.000531471
0.000528198
0.000524917
0.000521631
0.000518348
0.000515072
0.00051181
0.000508566
0.000505346
0.000502155
0.000498997
0.000495877
0.000492799
0.000489769
0.000486788
0.000483861
0.000480992
0.000478182
0.000475436
0.000472755
0.000470141
0.000467596
0.000465122
0.000462719
0.000460389
0.000458132
0.000455949
0.00045384
0.000451804
0.00044984
0.000447947
0.000446124
0.000444368
0.000442678
0.000441052
0.000439487
0.000437981
0.000436532
0.000435136
0.000433791
0.000432493
0.00043124
0.000430027
0.000428851
0.000427709
0.000426596
0.000425509
0.000424443
0.000423394
0.000422357
0.000421329
0.000420304
0.000419279
0.000418247
0.000417204
0.000416145
0.000415064
0.000413957
0.000412818
0.000411641
0.000410421
0.000409153
0.00040783
0.000406446
0.000404997
0.000403475
0.000401876
0.000400193
0.000398421
0.000396554
0.000394586
0.000392512
0.000390326
0.000388022
0.000385596
0.00038304
0.00038035
0.000377519
0.00037454
0.000371406
0.00036811
0.000364645
0.00036101
0.0003572
0.00035321
0.000349037
0.000344675
0.000340116
0.000335355
0.000330381
0.000325187
0.00031976
0.000314087
0.000308152
0.000301938
0.000295423
0.000288581
0.000281383
0.000273792
0.000265763
0.000257238
0.000248145
0.00023839
0.000227845
0.000216337
0.000203625
0.000189365
0.00017307
0.000154043
0.000131295
0.000103473
6.89815e-05
2.80996e-05
7.6557e-07
2.26003e-06
4.99102e-05
0.000116137
0.000174503
0.000224084
0.000266505
0.000303289
0.000335619
0.000364379
0.000390235
0.000413688
0.000435123
0.000454841
0.000473077
0.000490023
0.000505831
0.000520628
0.000534517
0.000547587
0.000559911
0.000571551
0.000582561
0.000592985
0.000602865
0.000612234
0.000621121
0.000629554
0.000637554
0.000645142
0.000652335
0.00065915
0.000665599
0.000671696
0.000677452
0.000682876
0.000687979
0.000692768
0.000697252
0.000701437
0.000705331
0.000708939
0.000712269
0.000715325
0.000718113
0.00072064
0.000722909
0.000724926
0.000726696
0.000728223
0.000729513
0.00073057
0.000731398
0.000732002
0.000732386
0.000732555
0.000732512
0.000732262
0.000731808
0.000731154
0.000730305
0.000729263
0.000728032
0.000726616
0.000725019
0.000723247
0.000721308
0.000719209
0.000716956
0.000714555
0.000712015
0.00070934
0.000706537
0.000703613
0.000700574
0.000697427
0.000694178
0.000690835
0.000687404
0.000683892
0.000680306
0.000676654
0.000672942
0.000669177
0.000665366
0.000661518
0.000657638
0.000653734
0.000649813
0.000645882
0.000641947
0.000638016
0.000634094
0.000630189
0.000626307
0.000622452
0.000618633
0.000614852
0.000611117
0.000607432
0.000603802
0.00060023
0.000596722
0.00059328
0.000589908
0.000586609
0.000583386
0.00058024
0.000577174
0.000574188
0.000571285
0.000568464
0.000565727
0.000563073
0.000560501
0.000558012
0.000555603
0.000553273
0.00055102
0.000548841
0.000546735
0.000544698
0.000542728
0.000540821
0.000538975
0.000537186
0.000535449
0.000533763
0.000532122
0.000530522
0.00052896
0.00052743
0.000525928
0.00052445
0.000522991
0.000521546
0.000520109
0.000518676
0.000517242
0.0005158
0.000514346
0.000512874
0.000511378
0.000509852
0.000508291
0.000506687
0.000505036
0.00050333
0.000501564
0.00049973
0.000497824
0.000495838
0.000493765
0.0004916
0.000489337
0.000486967
0.000484487
0.000481889
0.000479167
0.000476315
0.000473327
0.000470197
0.000466919
0.000463486
0.000459893
0.000456131
0.000452194
0.000448074
0.000443765
0.000439261
0.000434557
0.000429648
0.000424526
0.000419183
0.000413611
0.0004078
0.000401736
0.000395406
0.000388795
0.000381882
0.000374647
0.000367063
0.000359101
0.000350724
0.000341892
0.000332553
0.000322646
0.000312094
0.000300801
0.000288642
0.000275453
0.000261015
0.00024503
0.000227088
0.000206625
0.000182861
0.000154739
0.000120888
7.98588e-05
3.25728e-05
9.81411e-07
2.26013e-06
4.99135e-05
0.000116146
0.000174516
0.000224101
0.000266524
0.00030331
0.000335641
0.000364403
0.000390259
0.000413712
0.000435147
0.000454865
0.000473102
0.000490047
0.000505855
0.000520652
0.000534542
0.000547612
0.000559935
0.000571575
0.000582584
0.000593009
0.000602889
0.000612257
0.000621145
0.000629577
0.000637577
0.000645165
0.000652358
0.000659173
0.000665622
0.000671719
0.000677474
0.000682899
0.000688001
0.00069279
0.000697274
0.000701459
0.000705352
0.000708961
0.00071229
0.000715346
0.000718134
0.000720661
0.00072293
0.000724946
0.000726716
0.000728244
0.000729533
0.00073059
0.000731418
0.000732022
0.000732406
0.000732574
0.000732531
0.00073228
0.000731826
0.000731172
0.000730322
0.00072928
0.000728049
0.000726633
0.000725036
0.000723264
0.000721324
0.000719224
0.000716971
0.00071457
0.000712029
0.000709354
0.000706551
0.000703626
0.000700587
0.00069744
0.000694191
0.000690847
0.000687416
0.000683904
0.000680318
0.000676665
0.000672952
0.000669187
0.000665377
0.000661528
0.000657648
0.000653743
0.000649822
0.00064589
0.000641955
0.000638024
0.000634102
0.000630197
0.000626314
0.000622459
0.000618639
0.000614859
0.000611123
0.000607438
0.000603807
0.000600236
0.000596727
0.000593285
0.000589913
0.000586614
0.00058339
0.000580244
0.000577177
0.000574192
0.000571288
0.000568467
0.000565729
0.000563075
0.000560503
0.000558014
0.000555605
0.000553275
0.000551021
0.000548842
0.000546736
0.000544698
0.000542728
0.000540821
0.000538975
0.000537185
0.000535449
0.000533762
0.000532121
0.000530521
0.000528958
0.000527428
0.000525926
0.000524448
0.000522989
0.000521543
0.000520107
0.000518673
0.000517239
0.000515797
0.000514343
0.000512871
0.000511374
0.000509848
0.000508287
0.000506683
0.000505031
0.000503325
0.000501559
0.000499726
0.000497819
0.000495833
0.00049376
0.000491595
0.000489332
0.000486962
0.000484482
0.000481884
0.000479162
0.00047631
0.000473322
0.000470192
0.000466914
0.000463481
0.000459888
0.000456126
0.000452189
0.00044807
0.00044376
0.000439257
0.000434553
0.000429644
0.000424522
0.00041918
0.000413608
0.000407796
0.000401733
0.000395404
0.000388792
0.00038188
0.000374645
0.000367061
0.000359099
0.000350722
0.00034189
0.000332552
0.000322645
0.000312093
0.0003008
0.000288641
0.000275452
0.000261014
0.000245029
0.000227088
0.000206626
0.000182862
0.000154739
0.000120889
7.98591e-05
3.25728e-05
9.81417e-07
2.73469e-06
5.53144e-05
0.000128918
0.000195314
0.000252748
0.000302525
0.000346072
0.000384574
0.000418959
0.000449945
0.000478091
0.000503835
0.000527522
0.000549429
0.000569779
0.000588756
0.000606511
0.000623168
0.000638834
0.000653596
0.000667532
0.000680705
0.000693171
0.000704978
0.000716167
0.000726775
0.000736834
0.000746369
0.000755407
0.000763968
0.000772072
0.000779735
0.000786972
0.000793797
0.000800222
0.000806259
0.000811918
0.000817208
0.000822138
0.000826718
0.000830954
0.000834854
0.000838427
0.000841678
0.000844614
0.000847243
0.000849571
0.000851604
0.000853348
0.00085481
0.000855995
0.000856909
0.000857559
0.000857949
0.000858086
0.000857975
0.000857621
0.000857029
0.000856206
0.000855155
0.000853882
0.000852392
0.000850691