/*--------------------------------*- C++ -*----------------------------------*\
  =========                 |
  \\      /  F ield         | OpenFOAM: The Open Source CFD Toolbox
   \\    /   O peration     | Website:  https://openfoam.org
    \\  /    A nd           | Version:  8
     \\/     M anipulation  |
\*---------------------------------------------------------------------------*/
FoamFile
{
    version     2.0;
    format      ascii;
    class       volScalarField;
    location    "2000";
    object      epsilon;
}
// * * * * * * * * * * * * * * * * * * * * * * * * * * * * * * * * * * * * * //

dimensions      [0 2 -3 0 0 0 0];

internalField   nonuniform List<scalar> 
46000
(
1.52322
7.08734
14.94
22.821
30.4635
37.9028
45.1783
52.3285
59.3753
66.3324
73.208
80.0072
86.7326
93.3855
99.9661
106.474
112.907
119.266
125.546
131.747
137.867
143.901
149.848
155.703
161.464
167.126
172.686
178.138
183.477
188.698
193.796
198.765
203.598
208.288
212.828
217.213
221.434
225.484
229.356
233.043
236.538
239.834
242.924
245.802
248.463
250.9
253.108
255.085
256.825
258.327
259.587
260.605
261.38
261.911
262.201
262.249
262.06
261.636
260.982
260.102
259.002
257.691
256.192
254.523
252.665
250.623
248.407
246.026
243.489
240.808
237.993
235.054
232.002
228.849
225.605
222.281
218.888
215.436
211.938
208.401
204.838
201.257
197.668
194.08
190.502
186.942
183.409
179.909
176.45
173.039
169.682
166.384
163.151
159.987
156.898
153.886
150.956
148.111
145.353
142.685
140.108
137.624
135.235
132.941
130.743
128.641
126.635
124.725
122.911
121.19
119.564
118.03
116.587
115.234
113.969
112.79
111.696
110.683
109.751
108.896
108.117
107.407
106.77
106.199
105.692
105.246
104.858
104.526
104.245
104.013
103.827
103.684
103.579
103.51
103.473
103.465
103.481
103.518
103.572
103.638
103.714
103.794
103.874
103.949
104.016
104.068
104.1
104.109
104.088
104.032
103.935
103.792
103.597
103.344
103.028
102.642
102.181
101.638
101.01
100.289
99.4708
98.5504
97.5231
96.3845
95.1308
93.7645
92.3073
90.7345
89.0406
87.2243
85.286
83.2268
81.049
78.7555
76.3502
73.8377
71.2238
68.515
65.7185
62.8423
59.8951
56.8861
53.8252
50.7221
47.5873
44.4306
41.2619
38.0904
34.9233
31.7544
28.6067
25.4829
22.3616
19.2441
16.1024
12.9676
9.775
6.43045
3.05429
0.652017
1.52325
7.08727
14.9404
22.8214
30.464
37.9035
45.1793
52.3297
59.3767
66.3339
73.2095
80.0087
86.7342
93.3871
99.9676
106.475
112.909
119.267
125.548
131.749
137.868
143.903
149.849
155.705
161.466
167.128
172.687
178.139
183.479
188.7
193.798
198.767
203.599
208.289
212.83
217.215
221.436
225.486
229.358
233.045
236.54
239.836
242.926
245.804
248.464
250.901
253.11
255.087
256.827
258.329
259.589
260.607
261.382
261.913
262.202
262.251
262.062
261.638
260.984
260.103
259.003
257.693
256.193
254.524
252.666
250.625
248.408
246.027
243.491
240.809
237.994
235.055
232.003
228.85
225.606
222.281
218.888
215.437
211.938
208.402
204.838
201.257
197.668
194.08
190.502
186.942
183.409
179.909
176.451
173.039
169.682
166.384
163.151
159.987
156.898
153.886
150.956
148.111
145.353
142.684
140.108
137.624
135.235
132.941
130.743
128.641
126.635
124.725
122.91
121.19
119.563
118.029
116.587
115.234
113.968
112.79
111.695
110.683
109.75
108.896
108.116
107.407
106.769
106.198
105.691
105.245
104.857
104.525
104.244
104.013
103.827
103.683
103.578
103.509
103.472
103.464
103.48
103.517
103.571
103.637
103.713
103.793
103.873
103.949
104.015
104.067
104.1
104.108
104.087
104.031
103.934
103.791
103.596
103.343
103.027
102.641
102.18
101.638
101.009
100.288
99.4699
98.5496
97.5223
96.3837
95.13
93.7638
92.3066
90.7338
89.0399
87.2236
85.2853
83.2263
81.0485
78.755
76.3496
73.8372
71.2234
68.5145
65.718
62.8419
59.8947
56.8858
53.8248
50.7218
47.587
44.4303
41.2617
38.0902
34.9231
31.7542
28.6065
25.4828
22.3615
19.244
16.1023
12.9675
9.7749
6.43038
3.05424
0.652007
7.74663
6.59757
9.11835
12.0302
15.0056
17.9834
20.9504
23.9061
26.8519
29.7891
32.7182
35.6394
38.552
41.4554
44.3483
47.2295
50.0975
52.9505
55.7867
58.6042
61.4009
64.1746
66.9229
69.6433
72.3331
74.9897
77.6099
80.1906
82.7285
85.2202
87.6618
90.0497
92.3797
94.6479
96.8499
98.9816
101.038
103.016
104.91
106.717
108.431
110.049
111.566
112.98
114.286
115.481
116.563
117.528
118.375
119.101
119.706
120.188
120.547
120.783
120.896
120.887
120.758
120.511
120.148
119.672
119.087
118.398
117.615
116.743
115.78
114.727
113.589
112.37
111.077
109.713
108.286
106.8
105.261
103.676
102.049
100.387
98.6954
96.9793
95.2443
93.4956
91.7384
89.9776
88.2179
86.4638
84.7196
82.9892
81.2766
79.5853
77.9186
76.2796
74.6711
73.0958
71.5559
70.0537
68.5909
67.1693
65.7903
64.4551
63.1648
61.9202
60.722
59.5707
58.4666
57.4099
56.4006
55.4387
54.5239
53.656
52.8344
52.0587
51.3282
50.6424
50.0003
49.4012
48.8442
48.3283
47.8525
47.4156
47.0167
46.6553
46.3296
46.0383
45.7802
45.5541
45.3586
45.1923
45.0538
44.9417
44.8548
44.7914
44.7501
44.7295
44.7281
44.7442
44.7763
44.8228
44.8819
44.952
45.0313
45.1179
45.21
45.3055
45.4025
45.4989
45.5925
45.6811
45.7623
45.8338
45.8931
45.9376
45.9648
45.9719
45.9562
45.915
45.8454
45.7445
45.6097
45.4379
45.2264
44.9725
44.6736
44.3271
43.9306
43.4823
42.9808
42.4272
41.8247
41.1678
40.4538
39.6812
38.8498
37.9598
37.0117
36.0068
34.9469
33.8339
32.6706
31.46
30.2056
28.9112
27.581
26.2197
24.8319
23.4226
21.9968
20.5594
19.1154
17.6693
16.2249
14.7848
13.354
11.934
10.52
9.12911
7.75862
6.42302
5.11585
3.84908
2.76731
3.23563
7.74768
6.59731
9.11767
12.0292
15.0045
17.9821
20.949
23.9046
26.8504
29.7874
32.7165
35.6374
38.55
41.4532
44.346
47.2271
50.0949
52.9477
55.7838
58.6012
61.3977
64.1712
66.9194
69.6396
72.3293
74.9857
77.6057
80.1863
82.7241
85.2155
87.657
90.0447
92.3746
94.6427
96.8446
98.9761
101.033
103.01
104.904
106.71
108.424
110.042
111.56
112.973
114.279
115.474
116.556
117.521
118.368
119.094
119.699
120.181
120.54
120.775
120.889
120.88
120.751
120.504
120.141
119.665
119.08
118.391
117.608
116.736
115.773
114.72
113.582
112.364
111.07
109.707
108.28
106.794
105.255
103.67
102.043
100.382
98.6898
96.9738
95.2389
93.4904
91.7333
89.9726
88.2131
86.4591
84.7149
82.9847
81.2722
79.581
77.9145
76.2756
74.6672
73.092
71.5523
70.0501
68.5875
67.166
65.7871
64.452
63.1618
61.9173
60.7192
59.568
58.4639
57.4073
56.3982
55.4363
54.5216
53.6538
52.8323
52.0567
51.3263
50.6405
49.9985
49.3995
48.8425
48.3267
47.8509
47.4141
47.0153
46.6539
46.3283
46.037
45.779
45.553
45.3575
45.1912
45.0527
44.9407
44.8538
44.7904
44.7492
44.7287
44.7273
44.7434
44.7756
44.8221
44.8812
44.9514
45.0307
45.1173
45.2094
45.305
45.402
45.4984
45.5921
45.6807
45.7619
45.8334
45.8928
45.9373
45.9645
45.9716
45.956
45.9148
45.8452
45.7444
45.6095
45.4377
45.2263
44.9724
44.6735
44.327
43.9306
43.4823
42.9808
42.4272
41.8247
41.1679
40.4538
39.6813
38.8499
37.9599
37.0118
36.007
34.947
33.834
32.6707
31.4601
30.2057
28.9113
27.5812
26.2198
24.8321
23.4227
21.9969
20.5595
19.1155
17.6693
16.225
14.7849
13.354
11.9341
10.52
9.12915
7.75864
6.42303
5.11586
3.84909
2.76731
3.23564
16.3673
9.52306
10.0265
11.5272
13.3153
15.2235
17.1927
19.1977
21.226
23.2706
25.3269
27.3919
29.4629
31.5378
33.6145
35.6912
37.7659
39.8368
41.902
43.9596
46.0077
48.0443
50.0671
52.074
54.0628
56.031
57.9761
59.8954
61.7862
63.6455
65.4704
67.2577
69.0041
70.7063
72.3608
73.9642
75.5129
77.0034
78.4322
79.7956
81.0904
82.3131
83.4605
84.5296
85.5175
86.4215
87.2393
87.9687
88.6079
89.1553
89.6099
89.9708
90.2375
90.4099
90.4884
90.4737
90.3668
90.1693
89.883
89.5104
89.0545
88.5189
87.9083
87.2264
86.4744
85.6544
84.7696
83.8238
82.821
81.7652
80.661
79.5126
78.3246
77.1013
75.8474
74.5671
73.2649
71.9451
70.6118
69.2691
67.921
66.5712
65.2233
63.8808
62.5471
61.2251
59.9178
58.628
57.3581
56.1105
54.8873
53.6905
52.5218
51.3829
50.2751
49.1997
48.1577
47.15
46.1775
45.2406
44.3399
43.4757
42.6482
41.8576
41.1038
40.3866
39.7061
39.0617
38.4533
37.8804
37.3425
36.839
36.3694
35.9331
35.5292
35.1571
34.8161
34.5057
34.225
33.973
33.7489
33.5516
33.3803
33.2338
33.1113
33.0118
32.9342
32.8774
32.8405
32.8224
32.822
32.8381
32.8697
32.9155
32.9745
33.0453
33.1268
33.2175
33.3162
33.4216
33.5321
33.6463
33.7626
33.8795
33.9953
34.1083
34.2166
34.3185
34.412
34.4951
34.5658
34.622
34.6614
34.682
34.6815
34.6575
34.6078
34.53
34.422
34.2815
34.1062
33.8942
33.6434
33.3524
33.0198
32.6452
32.2289
31.7686
31.2628
30.7103
30.1107
29.464
28.7705
28.0311
27.247
26.4198
25.5516
24.6446
23.7018
22.7261
21.721
20.6901
19.6373
18.5665
17.482
16.3878
15.2883
14.1875
13.0894
11.998
10.9176
9.85232
8.80664
7.78923
6.80798
5.88234
5.03788
4.34421
4.11048
6.92037
16.3689
9.52252
10.0255
11.526
13.314
15.2221
17.1913
19.1962
21.2244
23.2689
25.3252
27.3901
29.461
31.5358
33.6124
35.689
37.7636
39.8344
41.8996
43.9571
46.0051
48.0415
50.0643
52.0711
54.0598
56.0279
57.9729
59.8921
61.7828
63.642
65.4668
67.254
69.0003
70.7024
72.3568
73.9601
75.5087
76.9991
78.4278
79.7912
81.0859
82.3085
83.4558
84.5249
85.5127
86.4167
87.2344
87.9638
88.6029
89.1503
89.6049
89.9657
90.2324
90.4049
90.4834
90.4687
90.3618
90.1643
89.8781
89.5055
89.0496
88.5141
87.9035
87.2217
86.4697
85.6497
84.7651
83.8193
82.8166
81.7609
80.6567
79.5084
78.3205
77.0973
75.8435
74.5633
73.2612
71.9415
70.6083
69.2657
67.9177
66.5679
65.2202
63.8778
62.5441
61.2223
59.9151
58.6253
57.3555
56.108
54.8849
53.6882
52.5196
51.3808
50.2731
49.1977
48.1558
47.1482
46.1757
45.2389
44.3383
43.4742
42.6468
41.8562
41.1024
40.3853
39.7048
39.0605
38.4522
37.8793
37.3414
36.838
36.3685
35.9322
35.5284
35.1563
34.8154
34.505
34.2243
33.9724
33.7483
33.551
33.3797
33.2333
33.1109
33.0113
32.9338
32.877
32.8402
32.8221
32.8217
32.8378
32.8694
32.9153
32.9743
33.0451
33.1266
33.2174
33.3161
33.4215
33.532
33.6462
33.7626
33.8795
33.9953
34.1083
34.2166
34.3185
34.412
34.4952
34.5659
34.6221
34.6616
34.6822
34.6816
34.6577
34.608
34.5302
34.4222
34.2817
34.1064
33.8944
33.6437
33.3526
33.02
32.6455
32.2292
31.7689
31.2631
30.7106
30.111
29.4643
28.7708
28.0314
27.2472
26.4201
25.5518
24.6449
23.702
22.7263
21.7212
20.6903
19.6374
18.5666
17.4821
16.3879
15.2884
14.1876
13.0895
11.9981
10.9176
9.85238
8.80668
7.78927
6.80801
5.88236
5.03789
4.34421
4.11047
6.92039
25.0722
12.8111
11.8502
12.5272
13.6979
15.0875
16.5957
18.1766
19.8062
21.4705
23.1605
24.8703
26.5952
28.3316
30.0767
31.8278
33.5826
35.3388
37.0943
38.847
40.5949
42.3359
44.0678
45.7884
47.4954
49.1867
50.8596
52.5117
54.1404
55.743
57.3166
58.8583
60.3652
61.8343
63.2624
64.6463
65.983
67.2692
68.5018
69.6778
70.794
71.8475
72.8355
73.7554
74.6046
75.3808
76.0819
76.7062
77.2519
77.7177
78.1028
78.4063
78.6279
78.7674
78.8253
78.8021
78.6987
78.5165
78.2572
77.9227
77.5157
77.0389
76.4956
75.8888
75.2205
74.4932
73.7096
72.8731
71.9871
71.0552
70.0812
69.069
68.0223
66.9452
65.8414
64.715
63.5696
62.4091
61.2371
60.0572
58.8729
57.6873
56.5038
55.3253
54.1547
52.9948
51.848
50.7169
49.6035
48.5099
47.4381
46.3897
45.3663
44.3693
43.3998
42.4591
41.5479
40.6672
39.8175
38.9995
38.2134
37.4597
36.7385
36.0498
35.3938
34.7703
34.1792
33.6201
33.0929
32.5972
32.1325
31.6984
31.2944
30.9199
30.5742
30.2572
29.968
29.706
29.4705
29.2607
29.0758
28.9149
28.7774
28.6622
28.5687
28.4958
28.4429
28.4088
28.3929
28.3941
28.4115
28.4441
28.491
28.5511
28.6235
28.707
28.8005
28.903
29.0133
29.13
29.2521
29.3781
29.5067
29.6365
29.766
29.8937
30.018
30.1372
30.2496
30.3534
30.4468
30.5279
30.5947
30.6452
30.6773
30.689
30.6783
30.6429
30.5808
30.4899
30.3683
30.2141
30.0254
29.8008
29.5389
29.2389
28.9
28.521
28.1006
27.638
27.1328
26.5848
25.9945
25.3625
24.6897
23.9776
23.228
22.4429
21.6248
20.7764
19.9006
19.0007
18.0802
17.1426
16.1919
15.2318
14.2664
13.2999
12.3368
11.3817
10.4398
9.51738
8.62186
7.76378
6.95764
6.22762
5.61851
5.2536
5.63971
10.8154
25.0736
12.8103
11.849
12.5258
13.6965
15.0861
16.5942
18.1751
19.8046
21.4688
23.1588
24.8685
26.5934
28.3298
30.0748
31.8259
33.5806
35.3367
37.0921
38.8448
40.5926
42.3335
44.0653
45.7859
47.4929
49.184
50.8569
52.5089
54.1376
55.7401
57.3136
58.8553
60.3621
61.8311
63.2591
64.643
65.9796
67.2658
68.4984
69.6743
70.7904
71.8439
72.8319
73.7517
74.6009
75.3771
76.0782
76.7024
77.2481
77.7139
78.099
78.4025
78.6241
78.7636
78.8215
78.7983
78.695
78.5128
78.2535
77.9191
77.5121
77.0353
76.4921
75.8853
75.2171
74.4898
73.7063
72.8699
71.984
71.0521
70.0782
69.066
68.0194
66.9423
65.8387
64.7123
63.567
62.4066
61.2347
60.0549
58.8706
57.6851
56.5016
55.3232
54.1527
52.9928
51.8462
50.7151
49.6017
48.5083
47.4365
46.3882
45.3649
44.3679
43.3985
42.4578
41.5467
40.666
39.8164
38.9984
38.2124
37.4587
36.7375
36.049
35.393
34.7695
34.1784
33.6194
33.0922
32.5965
32.1319
31.6978
31.2938
30.9193
30.5737
30.2567
29.9676
29.7056
29.4701
29.2603
29.0755
28.9146
28.7771
28.662
28.5684
28.4956
28.4427
28.4087
28.3928
28.394
28.4114
28.444
28.4909
28.5511
28.6234
28.707
28.8006
28.9031
29.0133
29.1301
29.2522
29.3782
29.5068
29.6366
29.7662
29.8939
30.0182
30.1374
30.2498
30.3537
30.4471
30.5281
30.5949
30.6454
30.6776
30.6893
30.6785
30.6431
30.5811
30.4902
30.3686
30.2144
30.0258
29.8011
29.5393
29.2392
28.9003
28.5213
28.1009
27.6383
27.133
26.5851
25.9948
25.3627
24.6899
23.9779
23.2282
22.4432
21.625
20.7766
19.9008
19.0009
18.0803
17.1428
16.192
15.2319
14.2665
13.3
12.3369
11.3817
10.4399
9.51743
8.6219
7.76381
6.95765
6.22763
5.61851
5.2536
5.6397
10.8154
33.6471
16.205
13.9851
14.0302
14.7685
15.8187
17.0406
18.3692
19.7699
21.2222
22.7132
24.2339
25.7777
27.3398
28.916
30.5032
32.0981
33.6983
35.3011
36.9042
38.5053
40.1021
41.6922
43.2733
44.8431
46.3991
47.9389
49.4598
50.9592
52.4344
53.8827
55.3012
56.6869
58.0371
59.3487
60.6187
61.8443
63.0223
64.15
65.2244
66.2429
67.2027
68.1013
68.9364
69.7056
70.407
71.0386
71.599
72.0868
72.5007
72.8401
73.1042
73.2929
73.4061
73.4442
73.4078
73.2977
73.1154
72.8622
72.5401
72.1513
71.6981
71.1834
70.6097
69.9793
69.2947
68.5586
67.7739
66.9439
66.0718
65.1611
64.2153
63.2379
62.2326
61.2028
60.1522
59.0842
58.0023
56.9099
55.8102
54.7064
53.6016
52.4987
51.4005
50.3097
49.2288
48.1601
47.1058
46.0681
45.0489
44.0498
43.0725
42.1184
41.1888
40.2849
39.4077
38.5581
37.7368
36.9444
36.1815
35.4485
34.7456
34.073
33.431
32.8193
32.2381
31.6872
31.1663
30.6753
30.2137
29.7813
29.3776
29.0021
28.6544
28.3342
28.041
27.774
27.5327
27.3163
27.1243
26.9558
26.8102
26.6867
26.5846
26.503
26.4413
26.3985
26.3739
26.3667
26.376
26.4009
26.4406
26.4942
26.5607
26.6391
26.7285
26.8279
26.9361
27.0522
27.1749
27.3031
27.4356
27.571
27.708
27.8453
27.9814
28.1148
28.2439
28.3671
28.4827
28.5889
28.684
28.766
28.8331
28.8833
28.9147
28.9253
28.913
28.876
28.8122
28.7197
28.5968
28.4419
28.2532
28.0297
27.77
27.4735
27.1389
26.7654
26.3521
25.8989
25.4055
24.8722
24.2997
23.6889
23.0409
22.3575
21.6403
20.8916
20.1138
19.3097
18.482
17.634
16.769
15.8905
15.0023
14.1084
13.2132
12.3213
11.4383
10.5703
9.72517
8.91262
8.14603
7.44491
6.84154
6.39966
6.28777
7.21768
14.7967
33.6487
16.204
13.9838
14.0288
14.767
15.8172
17.0391
18.3676
19.7683
21.2206
22.7116
24.2322
25.776
27.338
28.9142
30.5013
32.0962
33.6963
35.2991
36.9022
38.5032
40.0999
41.69
43.271
44.8408
46.3967
47.9364
49.4573
50.9566
52.4318
53.88
55.2985
56.6842
58.0343
59.3459
60.6159
61.8414
63.0194
64.147
65.2214
66.2399
67.1997
68.0983
68.9333
69.7025
70.4038
71.0355
71.5959
72.0836
72.4976
72.8369
73.1011
73.2897
73.403
73.4411
73.4047
73.2947
73.1124
72.8592
72.5372
72.1484
71.6953
71.1805
70.6069
69.9766
69.2921
68.556
67.7714
66.9414
66.0694
65.1587
64.213
63.2357
62.2304
61.2007
60.1501
59.0822
58.0004
56.908
55.8084
54.7047
53.5999
52.4971
51.3989
50.3082
49.2273
48.1586
47.1045
46.0668
45.0476
44.0486
43.0713
42.1172
41.1877
40.2839
39.4067
38.5571
37.7359
36.9435
36.1807
35.4477
34.7448
34.0723
33.4303
32.8187
32.2375
31.6866
31.1658
30.6748
30.2132
29.7808
29.3771
29.0017
28.654
28.3339
28.0406
27.7737
27.5324
27.3161
27.124
26.9556
26.81
26.6865
26.5844
26.5029
26.4411
26.3984
26.3738
26.3666
26.3759
26.4009
26.4406
26.4942
26.5607
26.6391
26.7285
26.8279
26.9362
27.0523
27.175
27.3032
27.4357
27.5711
27.7082
27.8455
27.9816
28.115
28.2441
28.3673
28.4829
28.5891
28.6842
28.7663
28.8334
28.8836
28.915
28.9256
28.9133
28.8763
28.8125
28.72
28.5972
28.4422
28.2535
28.03
27.7703
27.4738
27.1392
26.7656
26.3524
25.8991
25.4057
24.8725
24.3
23.6891
23.0412
22.3577
21.6405
20.8918
20.114
19.3098
18.4822
17.6341
16.7691
15.8906
15.0024
14.1085
13.2132
12.3214
11.4383
10.5704
9.7252
8.91264
8.14604
7.44492
6.84154
6.39965
6.28776
7.21767
14.7968
42.1925
19.6896
16.3096
15.813
16.206
17.0012
18.0191
19.1763
20.4282
21.7483
23.1193
24.5298
25.9712
27.4371
28.9225
30.4231
31.9354
33.456
34.982
36.5106
38.0392
39.5652
41.086
42.599
44.1016
45.5913
47.0652
48.5208
49.9553
51.3659
52.7497
54.1038
55.4254
56.7115
57.9592
59.1657
60.328
61.4433
62.509
63.5223
64.4806
65.3816
66.2229
67.0024
67.7181
68.3682
68.9511
69.4654
69.9101
70.2842
70.587
70.8182
70.9776
71.0653
71.0818
71.0277
70.904
70.712
70.4531
70.129
69.7419
69.294
68.7877
68.2254
67.6096
66.9425
66.2269
65.4656
64.6615
63.8178
62.9376
62.0243
61.0813
60.1118
59.1192
58.1068
57.078
56.036
54.9839
53.9249
52.862
51.7981
50.7359
49.6781
48.6272
47.5856
46.5557
45.5394
44.5388
43.5557
42.5918
41.6486
40.7275
39.8297
38.9565
38.1087
37.2872
36.4928
35.7261
34.9876
34.2777
33.5967
32.9448
32.3222
31.7288
31.1647
30.6296
30.1236
29.6463
29.1974
28.7766
28.3836
28.018
27.6795
27.3676
27.0819
26.8216
26.5863
26.3753
26.1879
26.0236
25.8815
25.7611
25.6615
25.5822
25.5223
25.481
25.4577
25.4516
25.4617
25.4874
25.5277
25.5818
25.6488
25.7277
25.8177
25.9178
26.0268
26.1439
26.2677
26.3974
26.5315
26.6689
26.8083
26.9484
27.0877
27.2248
27.3581
27.4861
27.6071
27.7194
27.8213
27.911
27.9867
28.0464
28.0882
28.1104
28.1108
28.0878
28.0393
27.9636
27.8591
27.724
27.5569
27.3565
27.1218
26.8516
26.5452
26.2016
25.8203
25.401
24.9436
24.4484
23.9158
23.3468
22.7424
22.1041
21.4333
20.7322
20.0028
19.2474
18.4688
17.6697
16.8532
16.0225
15.1814
14.3338
13.4841
12.6374
11.7998
10.9785
10.1826
9.42388
8.71868
8.09128
7.5826
7.27516
7.38779
8.83592
18.8908
42.1941
19.6885
16.3082
15.8115
16.2045
16.9997
18.0175
19.1748
20.4266
21.7466
23.1177
24.5281
25.9694
27.4353
28.9207
30.4213
31.9335
33.454
34.98
36.5086
38.0372
39.5631
41.0838
42.5968
44.0994
45.589
47.0629
48.5185
49.9529
51.3635
52.7472
54.1013
55.4228
56.7089
57.9566
59.163
60.3253
61.4406
62.5063
63.5195
64.4779
65.3788
66.2201
66.9996
67.7153
68.3654
68.9483
69.4626
69.9073
70.2814
70.5842
70.8154
70.9748
71.0626
71.0791
71.025
70.9014
70.7094
70.4505
70.1265
69.7394
69.2915
68.7852
68.2231
67.6073
66.9403
66.2247
65.4634
64.6593
63.8157
62.9356
62.0224
61.0793
60.1099
59.1173
58.105
57.0763
56.0343
54.9823
53.9234
52.8605
51.7966
50.7345
49.6767
48.6259
47.5844
46.5545
45.5383
44.5377
43.5547
42.5908
41.6476
40.7265
39.8288
38.9556
38.1078
37.2864
36.4921
35.7254
34.9869
34.277
33.5961
32.9442
32.3216
31.7282
31.1641
30.6291
30.1231
29.6458
29.197
28.7762
28.3832
28.0176
27.6791
27.3673
27.0816
26.8214
26.5861
26.3751
26.1877
26.0234
25.8813
25.7609
25.6614
25.582
25.5221
25.4809
25.4576
25.4515
25.4616
25.4873
25.5276
25.5818
25.6488
25.7277
25.8178
25.9178
26.0269
26.1439
26.2678
26.3974
26.5316
26.669
26.8085
26.9486
27.0879
27.2249
27.3583
27.4863
27.6073
27.7196
27.8216
27.9113
27.9869
28.0466
28.0885
28.1106
28.1111
28.088
28.0396
27.9639
27.8593
27.7243
27.5572
27.3568
27.122
26.8519
26.5454
26.2018
25.8205
25.4012
24.9438
24.4486
23.916
23.347
22.7426
22.1042
21.4335
20.7323
20.0029
19.2476
18.4689
17.6698
16.8533
16.0226
15.1815
14.3338
13.4841
12.6375
11.7998
10.9785
10.1826
9.42389
8.71867
8.09127
7.58259
7.27514
7.38777
8.83591
18.8909
50.8229
23.2919
18.7984
17.8085
17.905
18.4936
19.3553
20.3885
21.5385
22.7728
24.0705
25.4172
26.8026
28.2188
29.6596
31.1199
32.5953
34.082
35.5766
37.0758
38.5765
40.0757
41.5706
43.0583
44.5358
46.0003
47.449
48.8787
50.2867
51.67
53.0255
54.3502
55.6412
56.8956
58.1103
59.2826
60.4096
61.4885
62.5168
63.4919
64.4115
65.2733
66.0751
66.8152
67.4917
68.1031
68.6481
69.1254
69.5344
69.8741
70.1443
70.3447
70.4753
70.5365
70.5287
70.4529
70.3099
70.101
69.8279
69.4921
69.0958
68.641
68.13
67.5653
66.9491
66.2837
65.5718
64.8161
64.0195
63.1849
62.3154
61.4141
60.4842
59.5289
58.5513
57.5548
56.5423
55.5171
54.4821
53.4403
52.3947
51.3479
50.3027
49.2617
48.2271
47.2015
46.187
45.1855
44.1991
43.2296
42.2784
41.3473
40.4375
39.5502
38.6867
37.8478
37.0344
36.2473
35.4871
34.7543
34.0493
33.3725
32.7241
32.1042
31.5128
30.9501
30.4158
29.9099
29.4322
28.9823
28.5601
28.1652
27.7975
27.4564
27.1417
26.8526
26.5888
26.3496
26.1344
25.9427
25.7738
25.627
25.5017
25.3973
25.3129
25.2479
25.2016
25.1733
25.1621
25.1672
25.188
25.2235
25.2729
25.3353
25.4098
25.4956
25.5916
25.6968
25.8102
25.9307
26.0572
26.1885
26.3234
26.4605
26.5987
26.7364
26.8723
27.0048
27.1325
27.2536
27.3666
27.4697
27.5611
27.6392
27.702
27.7478
27.7747
27.7809
27.7646
27.724
27.6573
27.5631
27.4397
27.2857
27.1
26.8814
26.629
26.342
26.0196
25.6613
25.267
24.8366
24.3702
23.8684
23.332
22.7618
22.159
21.5252
20.8619
20.1709
19.4545
18.7147
17.9541
17.1755
16.3819
15.5768
14.764
13.9481
13.1345
12.3296
11.5417
10.7809
10.0612
9.4015
8.83104
8.39957
8.20903
8.53173
10.4902
23.0495
50.8244
23.2906
18.7969
17.8069
17.9034
18.492
19.3537
20.3869
21.5369
22.7712
24.0688
25.4155
26.8008
28.217
29.6577
31.118
32.5934
34.0801
35.5746
37.0738
38.5744
40.0736
41.5685
43.0561
44.5336
45.9981
47.4467
48.8764
50.2844
51.6676
53.023
54.3478
55.6388
56.8931
58.1078
59.28
60.407
61.4859
62.5142
63.4893
64.4089
65.2707
66.0725
66.8126
67.4891
68.1005
68.6454
69.1228
69.5318
69.8715
70.1417
70.3421
70.4728
70.534
70.5263
70.4504
70.3074
70.0986
69.8255
69.4898
69.0935
68.6387
68.1278
67.5631
66.947
66.2816
65.5698
64.8142
64.0176
63.183
62.3135
61.4123
60.4824
59.5272
58.5497
57.5532
56.5408
55.5156
54.4807
53.439
52.3934
51.3466
50.3015
49.2604
48.226
47.2004
46.1859
45.1845
44.1981
43.2286
42.2775
41.3464
40.4366
39.5494
38.6859
37.847
37.0337
36.2466
35.4864
34.7536
34.0487
33.3719
32.7235
32.1036
31.5123
30.9496
30.4154
29.9095
29.4318
28.9819
28.5597
28.1648
27.7971
27.4561
27.1414
26.8524
26.5885
26.3494
26.1342
25.9425
25.7736
25.6268
25.5016
25.3971
25.3127
25.2478
25.2015
25.1731
25.162
25.1671
25.1879
25.2234
25.2728
25.3353
25.4098
25.4956
25.5916
25.6968
25.8102
25.9308
26.0572
26.1885
26.3234
26.4606
26.5988
26.7365
26.8724
27.005
27.1326
27.2538
27.3667
27.4698
27.5613
27.6394
27.7022
27.748
27.7749
27.7811
27.7648
27.7242
27.6575
27.5633
27.4399
27.2859
27.1002
26.8816
26.6292
26.3422
26.0198
25.6615
25.2672
24.8367
24.3704
23.8686
23.3321
22.7619
22.1591
21.5253
20.862
20.171
19.4545
18.7148
17.9542
17.1756
16.382
15.5768
14.764
13.9481
13.1345
12.3296
11.5417
10.7809
10.0611
9.40148
8.83101
8.39954
8.209
8.5317
10.4901
23.0497
59.6596
27.0501
21.457
19.999
19.8285
20.2415
20.9785
21.9192
22.9989
24.1792
25.4353
26.7501
28.1114
29.5098
30.9379
32.3899
33.8604
35.3451
36.8398
38.3409
39.8448
41.348
42.8473
44.3395
45.8212
47.2894
48.7407
50.1721
51.5802
52.9619
54.314
55.6333
56.9168
58.1614
59.3641
60.522
61.6323
62.6924
63.6997
64.6518
65.5464
66.3816
67.1554
67.8662
68.5123
69.0926
69.6059
70.0513
70.4283
70.7364
70.9754
71.1453
71.2463
71.2789
71.2439
71.1422
70.9748
70.7432
70.4489
70.0938
69.6796
69.2087
68.6832
68.1055
67.4777
66.8024
66.082
65.3191
64.5166
63.6773
62.8042
61.9002
60.9685
60.0122
59.0342
58.0376
57.0255
56.001
54.9668
53.9259
52.8811
51.8351
50.7904
49.7497
48.7151
47.6891
46.6737
45.671
44.6828
43.711
42.7571
41.8225
40.9088
40.0171
39.1485
38.304
37.4845
36.6908
35.9234
35.1829
34.4699
33.7845
33.1271
32.4978
31.8967
31.3239
30.7792
30.2626
29.7739
29.3128
28.8792
28.473
28.0938
27.7413
27.4148
27.1141
26.8385
26.5876
26.3607
26.1573
25.9767
25.8184
25.6816
25.5658
25.4703
25.3943
25.3371
25.298
25.2763
25.2712
25.2819
25.3075
25.3473
25.4003
25.4657
25.5426
25.6299
25.7267
25.832
25.9446
26.0635
26.1874
26.3152
26.4456
26.5773
26.7089
26.839
26.966
27.0886
27.205
27.3137
27.413
27.5012
27.5765
27.6373
27.6817
27.708
27.7145
27.6994
27.661
27.5978
27.5083
27.3909
27.2445
27.0679
26.86
26.62
26.3471
26.0409
25.7007
25.3265
24.9182
24.476
24.0004
23.492
22.9516
22.3801
21.7788
21.1491
20.4924
19.8104
19.1052
18.3787
17.6335
16.8723
16.0982
15.3151
14.5276
13.7412
12.9629
12.2015
11.4686
10.7795
10.1564
9.63302
9.26811
9.18304
9.7032
12.1639
27.2007
59.6612
27.0487
21.4554
19.9974
19.8269
20.2399
20.9769
21.9175
22.9973
24.1775
25.4336
26.7484
28.1096
29.5079
30.9361
32.388
33.8585
35.3431
36.8378
38.3389
39.8427
41.3459
42.8452
44.3373
45.819
47.2871
48.7384
50.1697
51.5778
52.9595
54.3116
55.6309
56.9144
58.1589
59.3616
60.5195
61.6298
62.6899
63.6971
64.6492
65.5439
66.3791
67.1529
67.8636
68.5098
69.09
69.6034
70.0488
70.4259
70.734
70.9729
71.1428
71.2439
71.2766
71.2416
71.1399
70.9725
70.741
70.4467
70.0916
69.6775
69.2066
68.6811
68.1035
67.4758
66.8005
66.0801
65.3173
64.5148
63.6755
62.8025
61.8986
60.9669
60.0106
59.0326
58.0361
57.0241
55.9996
54.9655
53.9246
52.8799
51.8339
50.7893
49.7485
48.714
47.688
46.6727
45.67
44.6819
43.7101
42.7562
41.8217
40.908
40.0163
39.1477
38.3033
37.4838
36.6901
35.9227
35.1823
34.4693
33.7839
33.1265
32.4972
31.8962
31.3234
30.7787
30.2621
29.7734
29.3124
28.8788
28.4726
28.0935
27.7409
27.4145
27.1138
26.8382
26.5873
26.3604
26.157
25.9765
25.8182
25.6814
25.5656
25.4701
25.3941
25.3369
25.2979
25.2762
25.2711
25.2818
25.3074
25.3472
25.4002
25.4656
25.5425
25.6298
25.7267
25.8319
25.9446
26.0635
26.1874
26.3153
26.4457
26.5774
26.709
26.839
26.9661
27.0887
27.2051
27.3138
27.4131
27.5013
27.5767
27.6374
27.6819
27.7082
27.7147
27.6995
27.6612
27.598
27.5085
27.3911
27.2447
27.068
26.8601
26.6201
26.3473
26.041
25.7008
25.3266
24.9183
24.4761
24.0005
23.4921
22.9517
22.3802
21.7789
21.1492
20.4924
19.8105
19.1052
18.3788
17.6336
16.8723
16.0982
15.3152
14.5276
13.7412
12.9629
12.2015
11.4685
10.7795
10.1564
9.63297
9.26806
9.18299
9.70316
12.1638
27.2009
68.8128
31.0055
24.303
22.3876
21.9678
22.226
22.8606
23.732
24.7651
25.9153
27.154
28.4613
29.8231
31.2284
32.6688
34.1372
35.6278
37.1352
38.6548
40.1823
41.7136
43.2449
44.7724
46.2924
47.8013
49.2955
50.7714
52.2255
53.6543
55.0544
56.4223
57.7546
59.0481
60.2996
61.5061
62.6645
63.7722
64.8264
65.8247
66.7647
67.6445
68.4621
69.2158
69.9041
70.5258
71.0799
71.5655
71.982
72.329
72.6065
72.8143
72.9529
73.0227
73.0244
72.9588
72.8271
72.6306
72.3707
72.0491
71.6677
71.2284
70.7334
70.185
69.5854
68.9369
68.2419
67.5028
66.7223
65.9031
65.0479
64.1597
63.2414
62.296
61.3264
60.3356
59.3265
58.3023
57.2656
56.2195
55.1666
54.1097
53.0515
51.9945
50.9411
49.8936
48.8544
47.8255
46.8088
45.8063
44.8198
43.8507
42.9006
41.9709
41.0629
40.1775
39.3159
38.4789
37.6674
36.8818
36.123
35.3912
34.6869
34.0103
33.3617
32.7412
32.1488
31.5844
31.048
30.5395
30.0586
29.6054
29.1797
28.7811
28.4091
28.0635
27.7437
27.4492
27.1796
26.9342
26.7125
26.5139
26.3378
26.1835
26.0505
25.938
25.8453
25.7718
25.7167
25.6793
25.6587
25.6543
25.6651
25.6904
25.7293
25.7808
25.8441
25.9182
26.002
26.0946
26.1948
26.3016
26.4137
26.53
26.6492
26.7699
26.8909
27.0106
27.1277
27.2406
27.3477
27.4476
27.5385
27.6188
27.6868
27.7409
27.7793
27.8004
27.8026
27.7842
27.7437
27.6795
27.5903
27.4748
27.3318
27.1602
26.9592
26.728
26.4659
26.1725
25.8474
25.4905
25.1017
24.6813
24.2296
23.7471
23.2344
22.6924
22.122
21.5242
20.9001
20.2512
19.579
18.8852
18.1718
17.4413
16.6966
15.9413
15.1801
14.4185
13.6639
12.9258
12.2168
11.554
10.9622
10.48
10.1749
10.1877
10.897
13.8517
31.3348
68.8144
31.0039
24.3013
22.3859
21.9661
22.2244
22.859
23.7303
24.7634
25.9136
27.1522
28.4595
29.8213
31.2266
32.6669
34.1353
35.6258
37.1331
38.6527
40.1802
41.7115
43.2428
44.7702
46.2902
47.799
49.2932
50.7691
52.2232
53.652
55.052
56.4198
57.7522
59.0457
60.2972
61.5036
62.662
63.7697
64.8239
65.8221
66.7622
67.642
68.4596
69.2133
69.9016
70.5233
71.0774
71.563
71.9795
72.3266
72.6041
72.812
72.9506
73.0204
73.0221
72.9565
72.8249
72.6284
72.3685
72.047
71.6656
71.2263
70.7314
70.183
69.5835
68.935
68.24
67.501
66.7205
65.9013
65.0462
64.1581
63.2398
62.2944
61.3249
60.3341
59.3251
58.3009
57.2643
56.2181
55.1653
54.1085
53.0503
51.9933
50.94
49.8926
48.8534
47.8245
46.8079
45.8054
44.8188
43.8498
42.8998
41.9701
41.0621
40.1767
39.3152
38.4782
37.6667
36.8812
36.1223
35.3906
34.6863
34.0098
33.3612
32.7406
32.1482
31.5839
31.0475
30.539
30.0582
29.605
29.1793
28.7807
28.4088
28.0632
27.7434
27.4489
27.1793
26.9339
26.7122
26.5136
26.3375
26.1833
26.0503
25.9378
25.8451
25.7716
25.7165
25.6791
25.6586
25.6541
25.665
25.6903
25.7292
25.7807
25.844
25.9181
26.0019
26.0945
26.1948
26.3016
26.4137
26.53
26.6492
26.7699
26.8909
27.0106
27.1277
27.2406
27.3478
27.4476
27.5385
27.6188
27.6869
27.741
27.7794
27.8006
27.8027
27.7843
27.7438
27.6796
27.5904
27.4749
27.3319
27.1603
26.9593
26.7281
26.4661
26.1726
25.8475
25.4906
25.1018
24.6814
24.2296
23.7471
23.2345
22.6925
22.122
21.5242
20.9002
20.2513
19.5791
18.8852
18.1718
17.4413
16.6966
15.9413
15.1801
14.4185
13.6639
12.9258
12.2168
11.554
10.9622
10.4799
10.1748
10.1877
10.8969
13.8517
31.335
78.3874
35.2004
27.3602
24.9871
24.3278
24.4456
24.9946
25.8147
26.8202
27.96
29.2013
30.5216
31.9045
33.3377
34.8113
36.3174
37.8491
39.4004
40.966
42.5409
44.1205
45.7004
47.2763
48.8441
50.3996
51.9388
53.4579
54.9527
56.4197
57.8548
59.2545
60.6151
61.9333
63.2055
64.4287
65.5999
66.7162
67.7749
68.7737
69.7105
70.5831
71.39
72.1296
72.8006
73.4021
73.9334
74.3937
74.783
75.1009
75.3478
75.5238
75.6297
75.666
75.6338
75.5341
75.3683
75.1378
74.8442
74.4894
74.0753
73.604
73.0777
72.4986
71.8692
71.1915
70.468
69.7012
68.8937
68.0481
67.1673
66.254
65.311
64.3414
63.348
62.3336
61.3013
60.2538
59.1941
58.1249
57.0489
55.9689
54.8874
53.8069
52.7297
51.6583
50.5949
49.5414
48.4999
47.4723
46.4602
45.4654
44.4892
43.5331
42.5984
41.6861
40.7973
39.9329
39.0937
38.2804
37.4936
36.7338
36.0014
35.2967
34.6199
33.9712
33.3506
32.7582
32.1939
31.6575
31.1491
30.6686
30.2158
29.7903
29.3918
29.0199
28.6742
28.354