/*--------------------------------*- C++ -*----------------------------------*\
  =========                 |
  \\      /  F ield         | OpenFOAM: The Open Source CFD Toolbox
   \\    /   O peration     | Website:  https://openfoam.org
    \\  /    A nd           | Version:  8
     \\/     M anipulation  |
\*---------------------------------------------------------------------------*/
FoamFile
{
    version     2.0;
    format      ascii;
    class       volScalarField;
    location    "2000";
    object      k;
}
// * * * * * * * * * * * * * * * * * * * * * * * * * * * * * * * * * * * * * //

dimensions      [0 2 -2 0 0 0 0];

internalField   nonuniform List<scalar> 
46000
(
0.00121073
0.00592996
0.0124986
0.0190905
0.0254826
0.0317049
0.03779
0.0437703
0.0496642
0.0554831
0.061234
0.066921
0.0725465
0.0781115
0.0836161
0.0890599
0.094442
0.099761
0.105015
0.110203
0.115323
0.120372
0.125347
0.130246
0.135067
0.139805
0.144456
0.149018
0.153486
0.157855
0.162121
0.166279
0.170323
0.174248
0.178048
0.181717
0.185249
0.188639
0.191879
0.194965
0.19789
0.200648
0.203234
0.205643
0.207869
0.209909
0.211757
0.213412
0.214869
0.216126
0.217181
0.218033
0.218682
0.219127
0.21937
0.219411
0.219254
0.2189
0.218353
0.217617
0.216697
0.215601
0.214347
0.212951
0.211398
0.20969
0.207836
0.205844
0.203723
0.20148
0.199125
0.196666
0.194113
0.191475
0.188761
0.18598
0.183141
0.180253
0.177326
0.174367
0.171385
0.168389
0.165385
0.162383
0.159389
0.15641
0.153453
0.150524
0.147629
0.144774
0.141964
0.139203
0.136497
0.133848
0.131262
0.128741
0.126288
0.123905
0.121596
0.119362
0.117204
0.115124
0.113123
0.111201
0.10936
0.107599
0.105918
0.104318
0.102797
0.101355
0.0999919
0.0987059
0.0974961
0.0963612
0.0953
0.0943109
0.0933924
0.0925424
0.0917594
0.0910417
0.0903865
0.0897901
0.0892534
0.0887726
0.0883455
0.0879695
0.0876421
0.0873608
0.087123
0.0869261
0.0867675
0.0866442
0.0865536
0.0864927
0.0864586
0.0864483
0.0864586
0.0864864
0.0865285
0.0865813
0.0866414
0.0867053
0.0867692
0.0868294
0.0868818
0.0869223
0.0869469
0.0869512
0.0869308
0.0868811
0.0867976
0.0866754
0.0865099
0.0862961
0.0860293
0.0857045
0.0853169
0.0848618
0.0843344
0.0837302
0.0830448
0.0822742
0.0814144
0.0804617
0.079413
0.0782705
0.0770523
0.0757376
0.0743219
0.0728043
0.0711849
0.0694648
0.0676458
0.0657304
0.0637217
0.0616239
0.0594415
0.05718
0.0548455
0.0524446
0.0499846
0.0474732
0.0449185
0.0423288
0.0397125
0.0370782
0.0344339
0.0317873
0.0291443
0.0264999
0.0238732
0.0212664
0.0186616
0.0160599
0.0134381
0.010822
0.00815744
0.00536618
0.00254867
0.0005163
0.00121083
0.00593028
0.0124992
0.0190912
0.0254834
0.0317058
0.037791
0.0437715
0.0496655
0.0554844
0.0612353
0.0669223
0.0725478
0.0781128
0.0836175
0.0890613
0.0944433
0.0997624
0.105017
0.110205
0.115324
0.120373
0.125348
0.130248
0.135068
0.139806
0.144458
0.14902
0.153488
0.157857
0.162123
0.166281
0.170325
0.174249
0.178049
0.181718
0.185251
0.18864
0.191881
0.194966
0.197891
0.200649
0.203235
0.205644
0.20787
0.20991
0.211759
0.213413
0.21487
0.216127
0.217182
0.218034
0.218683
0.219128
0.219371
0.219413
0.219255
0.218901
0.218354
0.217618
0.216699
0.215603
0.214348
0.212953
0.211399
0.209691
0.207837
0.205845
0.203724
0.201481
0.199125
0.196667
0.194114
0.191476
0.188761
0.18598
0.183142
0.180254
0.177326
0.174367
0.171385
0.168389
0.165386
0.162383
0.159389
0.15641
0.153453
0.150524
0.147629
0.144774
0.141964
0.139203
0.136496
0.133848
0.131262
0.128741
0.126287
0.123905
0.121596
0.119361
0.117203
0.115123
0.113122
0.111201
0.10936
0.107599
0.105918
0.104317
0.102797
0.101355
0.0999914
0.0987053
0.0974955
0.0963607
0.0952995
0.0943104
0.0933918
0.0925418
0.0917588
0.0910411
0.0903859
0.0897895
0.0892527
0.088772
0.0883448
0.0879688
0.0876414
0.0873601
0.0871223
0.0869254
0.0867667
0.0866435
0.0865528
0.0864919
0.0864578
0.0864475
0.0864579
0.0864857
0.0865277
0.0865805
0.0866406
0.0867045
0.0867684
0.0868286
0.0868809
0.0869215
0.0869461
0.0869504
0.08693
0.0868803
0.0867967
0.0866746
0.0865091
0.0862953
0.0860285
0.0857037
0.0853161
0.084861
0.0843336
0.0837294
0.0830441
0.0822734
0.0814136
0.0804609
0.0794123
0.0782699
0.0770517
0.075737
0.0743213
0.0728037
0.0711843
0.0694643
0.0676453
0.0657299
0.0637213
0.0616234
0.0594411
0.0571796
0.0548451
0.0524443
0.0499843
0.0474729
0.0449182
0.0423285
0.0397123
0.0370779
0.0344337
0.0317871
0.0291441
0.0264997
0.023873
0.0212662
0.0186615
0.0160598
0.013438
0.0108219
0.00815736
0.00536612
0.00254863
0.000516292
0.00591959
0.0323139
0.0538038
0.071595
0.0873912
0.101888
0.115452
0.128304
0.140586
0.152395
0.163797
0.174843
0.18557
0.196006
0.206173
0.21609
0.225769
0.235223
0.244459
0.253487
0.26231
0.270935
0.279363
0.287597
0.295639
0.303488
0.311144
0.318606
0.325871
0.332937
0.339801
0.346457
0.352902
0.35913
0.365135
0.370912
0.376455
0.381756
0.386809
0.391607
0.396144
0.400414
0.404409
0.408123
0.411552
0.414689
0.41753
0.420071
0.422308
0.424239
0.425861
0.427173
0.428175
0.428867
0.429251
0.429329
0.429103
0.428578
0.427758
0.42665
0.425259
0.423595
0.421665
0.419484
0.417056
0.414389
0.411494
0.408381
0.405062
0.401549
0.397854
0.393991
0.389971
0.385809
0.381516
0.377107
0.372594
0.367991
0.363311
0.358566
0.35377
0.348935
0.344072
0.339194
0.334313
0.329439
0.324584
0.319758
0.31497
0.31023
0.305547
0.30093
0.296386
0.291924
0.287549
0.283269
0.27909
0.275016
0.271053
0.267206
0.263478
0.259873
0.256393
0.253042
0.249821
0.246732
0.243777
0.240955
0.238269
0.235717
0.233299
0.231015
0.228863
0.226843
0.224953
0.223191
0.221555
0.220042
0.218649
0.217375
0.216217
0.215168
0.214227
0.213389
0.212651
0.212007
0.211454
0.210987
0.210601
0.210292
0.210055
0.209885
0.209777
0.209724
0.209723
0.209767
0.20985
0.209967
0.210112
0.210278
0.210459
0.210648
0.210838
0.211023
0.211195
0.211347
0.211471
0.211559
0.211603
0.211595
0.211527
0.211388
0.211172
0.210869
0.210469
0.209963
0.209343
0.208599
0.207722
0.206703
0.205532
0.204203
0.202705
0.201031
0.199173
0.197125
0.194887
0.19245
0.189807
0.186953
0.183887
0.180606
0.177108
0.173396
0.169469
0.165332
0.160986
0.156439
0.151694
0.14676
0.141643
0.136352
0.130896
0.125283
0.119524
0.113625
0.107594
0.101438
0.0951576
0.0887513
0.082211
0.0755119
0.0685947
0.0614579
0.0539731
0.0459508
0.0372465
0.0274142
0.0156197
0.00245456
0.00592028
0.0323156
0.0538048
0.0715954
0.0873914
0.101888
0.115452
0.128304
0.140586
0.152395
0.163797
0.174843
0.18557
0.196006
0.206173
0.216089
0.225768
0.235222
0.244458
0.253486
0.262309
0.270934
0.279362
0.287596
0.295638
0.303487
0.311143
0.318604
0.32587
0.332936
0.339799
0.346455
0.3529
0.359128
0.365133
0.37091
0.376452
0.381753
0.386806
0.391605
0.396142
0.400411
0.404406
0.408121
0.411549
0.414686
0.417527
0.420068
0.422305
0.424236
0.425858
0.42717
0.428172
0.428864
0.429248
0.429326
0.4291
0.428575
0.427755
0.426647
0.425256
0.423592
0.421662
0.419481
0.417053
0.414386
0.41149
0.408377
0.405058
0.401546
0.397851
0.393988
0.389968
0.385806
0.381513
0.377104
0.372591
0.367988
0.363308
0.358563
0.353767
0.348931
0.344069
0.339191
0.33431
0.329436
0.324581
0.319755
0.314967
0.310227
0.305544
0.300927
0.296384
0.291921
0.287546
0.283266
0.279087
0.275013
0.271051
0.267203
0.263475
0.25987
0.256391
0.253039
0.249819
0.24673
0.243774
0.240953
0.238266
0.235714
0.233297
0.231013
0.228861
0.226841
0.224951
0.223189
0.221553
0.22004
0.218647
0.217374
0.216215
0.215166
0.214225
0.213388
0.212649
0.212005
0.211452
0.210985
0.2106
0.210291
0.210054
0.209884
0.209775
0.209723
0.209722
0.209766
0.209849
0.209966
0.210111
0.210277
0.210458
0.210647
0.210837
0.211022
0.211194
0.211346
0.21147
0.211558
0.211602
0.211594
0.211526
0.211387
0.211171
0.210868
0.210468
0.209962
0.209342
0.208598
0.207721
0.206702
0.205532
0.204202
0.202704
0.20103
0.199173
0.197125
0.194886
0.192449
0.189806
0.186953
0.183886
0.180605
0.177108
0.173395
0.169469
0.165331
0.160986
0.156438
0.151694
0.146759
0.141643
0.136352
0.130896
0.125283
0.119523
0.113625
0.107594
0.101438
0.0951574
0.0887512
0.0822109
0.0755118
0.0685947
0.0614578
0.053973
0.0459508
0.0372465
0.0274142
0.0156197
0.00245457
0.0125837
0.0542351
0.0822715
0.104524
0.124163
0.142201
0.159099
0.175121
0.190436
0.205159
0.219372
0.233134
0.246493
0.259483
0.272132
0.284463
0.296493
0.308235
0.319703
0.330903
0.341845
0.352532
0.362969
0.373159
0.383103
0.392801
0.402252
0.411456
0.420408
0.429106
0.437545
0.445721
0.453627
0.461258
0.468607
0.475668
0.482432
0.488893
0.495043
0.500874
0.506378
0.51155
0.51638
0.520863
0.524993
0.528763
0.532169
0.535207
0.537872
0.540161
0.542074
0.543609
0.544766
0.545545
0.54595
0.545982
0.545646
0.544947
0.54389
0.542484
0.540736
0.538655
0.536253
0.533541
0.530528
0.527225
0.523645
0.5198
0.515704
0.511371
0.506816
0.502054
0.4971
0.491971
0.486681
0.481247
0.475685
0.47001
0.464239
0.458386
0.452467
0.446498
0.440494
0.434468
0.428435
0.422408
0.416402
0.410428
0.404499
0.398627
0.392822
0.387096
0.381458
0.375919
0.370486
0.365168
0.359972
0.354906
0.349976
0.345188
0.340547
0.336057
0.331722
0.327547
0.323533
0.319683
0.315999
0.312483
0.309134
0.305954
0.302941
0.300097
0.297419
0.294906
0.292556
0.290367
0.288337
0.286464
0.284744
0.283173
0.281747
0.280462
0.279312
0.278293
0.2774
0.276628
0.275971
0.275423
0.27498
0.274634
0.27438
0.274211
0.274121
0.274103
0.274151
0.274256
0.274413
0.274613
0.274848
0.275112
0.275396
0.275691
0.275988
0.27628
0.276557
0.27681
0.277028
0.277203
0.277324
0.27738
0.277361
0.277256
0.277054
0.276744
0.276314
0.275752
0.275048
0.274189
0.273165
0.271963
0.270573
0.268983
0.267184
0.265164
0.262916
0.26043
0.257701
0.25472
0.251481
0.247976
0.244201
0.240154
0.235832
0.231235
0.226364
0.22122
0.215807
0.210129
0.204192
0.198003
0.191569
0.184899
0.178001
0.170883
0.163555
0.156025
0.148298
0.140381
0.132273
0.123971
0.115464
0.106729
0.0977225
0.0883871
0.0786005
0.0682066
0.0568736
0.0440005
0.0277071
0.00527412
0.0125849
0.0542364
0.0822718
0.104523
0.124163
0.1422
0.159098
0.17512
0.190435
0.205158
0.21937
0.233133
0.246491
0.259481
0.27213
0.284461
0.296491
0.308233
0.3197
0.330901
0.341842
0.352529
0.362966
0.373156
0.3831
0.392798
0.402249
0.411452
0.420404
0.429102
0.437541
0.445717
0.453623
0.461254
0.468603
0.475664
0.482428
0.488889
0.495038
0.500869
0.506374
0.511545
0.516375
0.520858
0.524988
0.528758
0.532164
0.535201
0.537866
0.540156
0.542069
0.543604
0.54476
0.54554
0.545944
0.545977
0.54564
0.544941
0.543885
0.542479
0.54073
0.53865
0.536248
0.533536
0.530523
0.52722
0.52364
0.519794
0.515698
0.511365
0.50681
0.502048
0.497095
0.491966
0.486676
0.481242
0.47568
0.470005
0.464234
0.458381
0.452463
0.446494
0.440489
0.434463
0.42843
0.422404
0.416397
0.410423
0.404495
0.398622
0.392818
0.387092
0.381454
0.375915
0.370482
0.365164
0.359968
0.354903
0.349973
0.345184
0.340543
0.336053
0.331719
0.327543
0.32353
0.31968
0.315996
0.31248
0.309131
0.305951
0.302939
0.300094
0.297416
0.294903
0.292553
0.290364
0.288335
0.286462
0.284742
0.283171
0.281745
0.280459
0.27931
0.278291
0.277398
0.276626
0.275969
0.275421
0.274978
0.274632
0.274378
0.27421
0.27412
0.274102
0.274149
0.274255
0.274411
0.274611
0.274847
0.275111
0.275394
0.275689
0.275987
0.276279
0.276556
0.276809
0.277027
0.277202
0.277323
0.277379
0.27736
0.277255
0.277053
0.276743
0.276313
0.275751
0.275047
0.274189
0.273164
0.271962
0.270572
0.268983
0.267183
0.265164
0.262915
0.26043
0.257701
0.25472
0.25148
0.247975
0.244201
0.240154
0.235832
0.231235
0.226363
0.221219
0.215806
0.210129
0.204192
0.198003
0.191569
0.184899
0.178
0.170883
0.163555
0.156025
0.148298
0.140381
0.132273
0.123971
0.115464
0.106729
0.0977225
0.0883871
0.0786005
0.0682066
0.0568736
0.0440005
0.0277071
0.00527414
0.019351
0.0726767
0.105354
0.130527
0.152566
0.172803
0.191803
0.209862
0.227164
0.243828
0.25994
0.275563
0.290745
0.305523
0.319925
0.333975
0.347689
0.361083
0.374169
0.386954
0.399446
0.41165
0.423569
0.435205
0.446558
0.457628
0.468413
0.478911
0.489116
0.499026
0.508634
0.517934
0.52692
0.535585
0.543921
0.551919
0.559573
0.566873
0.573812
0.58038
0.586572
0.592377
0.59779
0.602802
0.607409
0.611604
0.615382
0.618739
0.621671
0.624177
0.626255
0.627903
0.629123
0.629917
0.630287
0.630236
0.62977
0.628896
0.627619
0.625948
0.623893
0.621465
0.618674
0.615534
0.612056
0.608252
0.604135
0.599721
0.595025
0.590061
0.584848
0.579401
0.573738
0.567877
0.561834
0.555629
0.549277
0.542799
0.53621
0.529529
0.522773
0.515959
0.509104
0.502224
0.495336
0.488454
0.481593
0.474769
0.467995
0.461285
0.454651
0.448105
0.441659
0.435324
0.42911
0.423026
0.417081
0.411283
0.405639
0.400157
0.394842
0.3897
0.384735
0.379951
0.375352
0.370941
0.36672
0.36269
0.358852
0.355208
0.351756
0.348497
0.345428
0.34255
0.339859
0.337356
0.335036
0.332896
0.330932
0.32914
0.327515
0.326053
0.324747
0.323593
0.322584
0.321715
0.32098
0.320371
0.319884
0.319509
0.319241
0.319072
0.318995
0.319002
0.319085
0.319235
0.319445
0.319706
0.32001
0.320346
0.320706
0.32108
0.321458
0.321831
0.322187
0.322516
0.322807
0.323049
0.32323
0.323337
0.32336
0.323284
0.323099
0.322791
0.322346
0.321752
0.320997
0.320065
0.318946
0.317625
0.31609
0.314328
0.312329
0.310081
0.307573
0.304796
0.301743
0.298403
0.294769
0.290834
0.286594
0.282043
0.27718
0.272004
0.266514
0.260711
0.2546
0.248183
0.241466
0.234454
0.227155
0.219577
0.211726
0.203612
0.195242
0.186623
0.177762
0.168662
0.159325
0.149749
0.139922
0.129826
0.119424
0.108656
0.0974155
0.0855113
0.0725452
0.057689
0.0382469
0.00826653
0.0193521
0.0726776
0.105354
0.130527
0.152564
0.172801
0.191801
0.209861
0.227162
0.243826
0.259938
0.275561
0.290743
0.305521
0.319923
0.333972
0.347686
0.361081
0.374166
0.386951
0.399443
0.411647
0.423566
0.435201
0.446554
0.457624
0.468409
0.478907
0.489112
0.499022
0.50863
0.51793
0.526916
0.535581
0.543916
0.551915
0.559568
0.566868
0.573807
0.580376
0.586566
0.592372
0.597784
0.602797
0.607404
0.611599
0.615377
0.618733
0.621666
0.624172
0.626249
0.627898
0.629118
0.629911
0.630281
0.63023
0.629765
0.62889
0.627613
0.625942
0.623888
0.621459
0.618669
0.615529
0.61205
0.608246
0.60413
0.599716
0.595019
0.590056
0.584842
0.579396
0.573733
0.567871
0.561829
0.555623
0.549272
0.542794
0.536205
0.529524
0.522768
0.515955
0.5091
0.50222
0.495331
0.488449
0.481589
0.474765
0.467991
0.461281
0.454647
0.448101
0.441655
0.43532
0.429106
0.423022
0.417077
0.411279
0.405636
0.400153
0.394839
0.389696
0.384731
0.379948
0.375349
0.370938
0.366717
0.362687
0.358849
0.355205
0.351753
0.348494
0.345426
0.342548
0.339857
0.337353
0.335033
0.332894
0.33093
0.329138
0.327513
0.326051
0.324745
0.323591
0.322582
0.321713
0.320978
0.32037
0.319882
0.319508
0.31924
0.319071
0.318994
0.319
0.319083
0.319234
0.319444
0.319705
0.320008
0.320345
0.320705
0.321079
0.321457
0.32183
0.322186
0.322515
0.322806
0.323048
0.323229
0.323336
0.323359
0.323284
0.323098
0.32279
0.322345
0.321752
0.320996
0.320065
0.318945
0.317624
0.316089
0.314328
0.312329
0.310081
0.307573
0.304796
0.301742
0.298403
0.294769
0.290834
0.286594
0.282043
0.27718
0.272004
0.266513
0.260711
0.2546
0.248183
0.241466
0.234454
0.227155
0.219577
0.211726
0.203612
0.195242
0.186623
0.177762
0.168662
0.159325
0.149749
0.139922
0.129826
0.119424
0.108656
0.0974155
0.0855113
0.0725452
0.057689
0.0382469
0.00826657
0.026037
0.089341
0.12616
0.153866
0.177874
0.199856
0.220498
0.240148
0.259008
0.277206
0.294831
0.311947
0.328603
0.344834
0.36067
0.376131
0.391237
0.405999
0.420429
0.434535
0.448322
0.461794
0.474954
0.487801
0.500335
0.512554
0.524455
0.536034
0.547284
0.558202
0.568778
0.579008
0.588882
0.598392
0.60753
0.616287
0.624654
0.632622
0.640184
0.647329
0.65405
0.66034
0.66619
0.671595
0.676548
0.681043
0.685077
0.688645
0.691746
0.694376
0.696536
0.698225
0.699445
0.700199
0.70049
0.700323
0.699704
0.69864
0.697139
0.695211
0.692865
0.690115
0.686971
0.683448
0.679558
0.675315
0.670734
0.66583
0.66062
0.655121
0.64935
0.643327
0.637069
0.630595
0.623925
0.617077
0.610071
0.602926
0.595661
0.588296
0.580848
0.573337
0.565781
0.558198
0.550604
0.543017
0.535454
0.527929
0.520459
0.513058
0.50574
0.498517
0.491404
0.484411
0.47755
0.470832
0.464265
0.457859
0.451622
0.445562
0.439685
0.433998
0.428505
0.423211
0.418121
0.413236
0.40856
0.404095
0.399842
0.395801
0.391973
0.388357
0.384952
0.381757
0.378771
0.375992
0.373415
0.371038
0.368855
0.366863
0.365055
0.363428
0.361974
0.360689
0.359566
0.358598
0.357778
0.3571
0.356555
0.356138
0.355838
0.35565
0.355563
0.35557
0.355663
0.355831
0.356066
0.356358
0.356697
0.357074
0.357478
0.357899
0.358325
0.358745
0.359149
0.359523
0.359856
0.360135
0.360347
0.360481
0.360521
0.360455
0.360268
0.359947
0.359478
0.358846
0.358037
0.357038
0.355833
0.354409
0.352752
0.35085
0.34869
0.34626
0.343548
0.340545
0.337242
0.333629
0.329698
0.325441
0.320854
0.315932
0.310672
0.305071
0.29913
0.29285
0.286232
0.27928
0.271997
0.264389
0.256461
0.248218
0.239669
0.230818
0.221673
0.21224
0.202523
0.192527
0.182253
0.171699
0.160858
0.149712
0.138231
0.126356
0.113976
0.100882
0.0866254
0.0701134
0.0479461
0.0113313
0.0260383
0.0893416
0.12616
0.153865
0.177873
0.199854
0.220496
0.240147
0.259006
0.277204
0.294829
0.311945
0.328601
0.344832
0.360667
0.376129
0.391234
0.405996
0.420426
0.434532
0.448319
0.461791
0.474951
0.487798
0.500332
0.512551
0.524452
0.53603
0.547281
0.558198
0.568774
0.579004
0.588877
0.598387
0.607525
0.616282
0.624649
0.632618
0.640179
0.647324
0.654046
0.660335
0.666185
0.67159
0.676543
0.681038
0.685072
0.68864
0.691741
0.694371
0.696531
0.69822
0.69944
0.700194
0.700485
0.700318
0.699699
0.698635
0.697134
0.695205
0.69286
0.690109
0.686966
0.683443
0.679553
0.67531
0.670729
0.665825
0.660615
0.655116
0.649345
0.643322
0.637064
0.63059
0.62392
0.617072
0.610066
0.602921
0.595657
0.588291
0.580844
0.573333
0.565777
0.558194
0.5506
0.543013
0.53545
0.527926
0.520455
0.513054
0.505736
0.498514
0.491401
0.484408
0.477547
0.470828
0.464262
0.457856
0.451619
0.445559
0.439682
0.433995
0.428502
0.423209
0.418118
0.413234
0.408558
0.404093
0.39984
0.395799
0.391971
0.388355
0.38495
0.381755
0.378769
0.37599
0.373413
0.371036
0.368853
0.366861
0.365054
0.363426
0.361973
0.360688
0.359564
0.358596
0.357777
0.357098
0.356554
0.356136
0.355837
0.355648
0.355562
0.355569
0.355662
0.35583
0.356065
0.356357
0.356696
0.357073
0.357478
0.357898
0.358324
0.358745
0.359148
0.359522
0.359855
0.360134
0.360347
0.36048
0.36052
0.360454
0.360268
0.359947
0.359478
0.358846
0.358037
0.357037
0.355832
0.354408
0.352752
0.35085
0.34869
0.346259
0.343548
0.340545
0.337242
0.333629
0.329698
0.325441
0.320854
0.315932
0.310671
0.305071
0.29913
0.29285
0.286232
0.27928
0.271997
0.264389
0.256461
0.248218
0.239669
0.230818
0.221673
0.21224
0.202523
0.192527
0.182253
0.171699
0.160858
0.149713
0.138231
0.126356
0.113976
0.100882
0.0866255
0.0701134
0.0479462
0.0113314
0.0327132
0.10501
0.145776
0.175929
0.2018
0.225381
0.247496
0.268555
0.288786
0.308333
0.32729
0.345724
0.363685
0.381207
0.398319
0.415043
0.431393
0.447383
0.463022
0.478316
0.49327
0.507885
0.522162
0.5361
0.549697
0.562948
0.57585
0.588395
0.600578
0.612391
0.623825
0.634873
0.645525
0.655771
0.665603
0.675011
0.683985
0.692517
0.700596
0.708216
0.715367
0.722042
0.728235
0.733938
0.739147
0.743857
0.748065
0.751766
0.754961
0.757647
0.759826
0.761498
0.762667
0.763335
0.763507
0.76319
0.762391
0.761117
0.759378
0.757184
0.754547
0.751479
0.747994
0.744106
0.739829
0.735177
0.730167
0.724814
0.719137
0.713154
0.706883
0.700343
0.693555
0.686537
0.679311
0.671896
0.664313
0.656583
0.648724
0.640759
0.632705
0.624584
0.616415
0.608215
0.600005
0.591801
0.583622
0.575484
0.567404
0.559396
0.551477
0.54366
0.535958
0.528385
0.520953
0.513673
0.506554
0.499608
0.492843
0.486266
0.479886
0.473708
0.467739
0.461984
0.456446
0.45113
0.446038
0.441173
0.436535
0.432126
0.427946
0.423994
0.42027
0.416775
0.413505
0.410457
0.407629
0.405016
0.402613
0.400416
0.39842
0.396618
0.395005
0.393574
0.392319
0.391233
0.390308
0.389537
0.388911
0.388423
0.388064
0.387825
0.387698
0.387673
0.387741
0.387892
0.388116
0.388403
0.388741
0.389122
0.389532
0.389961
0.390396
0.390826
0.391239
0.391621
0.391959
0.392241
0.392451
0.392577
0.392604
0.392517
0.392302
0.391944
0.391429
0.39074
0.389863
0.388783
0.387486
0.385957
0.384182
0.382148
0.379841
0.37725
0.374362
0.371168
0.367658
0.363822
0.359652
0.355141
0.350284
0.345075
0.339511
0.33359
0.327311
0.320673
0.313679
0.306328
0.298625
0.290572
0.282172
0.27343
0.26435
0.254936
0.245192
0.235123
0.224732
0.214021
0.202992
0.191644
0.179969
0.167954
0.155568
0.14275
0.129382
0.115227
0.0997682
0.0817186
0.0570774
0.0144862
0.0327145
0.105011
0.145775
0.175928
0.201798
0.225379
0.247494
0.268553
0.288784
0.30833
0.327288
0.345722
0.363682
0.381205
0.398317
0.41504
0.431391
0.447381
0.463019
0.478313
0.493267
0.507882
0.522159
0.536097
0.549694
0.562945
0.575846
0.588392
0.600575
0.612387
0.623822
0.634869
0.645521
0.655767
0.665599
0.675007
0.683981
0.692512
0.700592
0.708212
0.715363
0.722038
0.72823
0.733934
0.739143
0.743853
0.74806
0.751762
0.754956
0.757642
0.759821
0.761493
0.762662
0.76333
0.763503
0.763186
0.762386
0.761112
0.759373
0.757179
0.754542
0.751474
0.74799
0.744102
0.739825
0.735173
0.730162
0.72481
0.719133
0.71315
0.706878
0.700339
0.693551
0.686533
0.679307
0.671892
0.664309
0.656579
0.64872
0.640755
0.632701
0.62458
0.616411
0.608212
0.600001
0.591798
0.583619
0.575481
0.5674
0.559393
0.551474
0.543657
0.535955
0.528382
0.52095
0.51367
0.506552
0.499605
0.49284
0.486263
0.479883
0.473706
0.467737
0.461982
0.456444
0.451128
0.446036
0.441171
0.436533
0.432124
0.427944
0.423992
0.420269
0.416773
0.413503
0.410456
0.407627
0.405014
0.402612
0.400415
0.398418
0.396617
0.395004
0.393573
0.392318
0.391232
0.390307
0.389535
0.38891
0.388422
0.388063
0.387824
0.387697
0.387672
0.38774
0.387891
0.388115
0.388402
0.388741
0.389121
0.389531
0.38996
0.390395
0.390826
0.391238
0.39162
0.391959
0.39224
0.392451
0.392577
0.392603
0.392517
0.392302
0.391944
0.391428
0.390739
0.389863
0.388783
0.387486
0.385957
0.384182
0.382148
0.379841
0.37725
0.374362
0.371168
0.367658
0.363822
0.359652
0.355141
0.350284
0.345075
0.339511
0.33359
0.327311
0.320673
0.313679
0.306328
0.298625
0.290572
0.282172
0.27343
0.26435
0.254936
0.245192
0.235123
0.224732
0.214021
0.202992
0.191644
0.179969
0.167954
0.155568
0.14275
0.129382
0.115227
0.0997683
0.0817186
0.0570775
0.0144863
0.0394639
0.120149
0.164774
0.197386
0.225129
0.250295
0.273845
0.296256
0.317792
0.338615
0.358828
0.378504
0.397694
0.416433
0.434749
0.452664
0.470191
0.487342
0.504125
0.520543
0.5366
0.552296
0.56763
0.582598
0.597197
0.61142
0.625261
0.638712
0.651765
0.66441
0.676638
0.688439
0.699803
0.710719
0.721177
0.731167
0.74068
0.749705
0.758233
0.766257
0.773768
0.78076
0.787225
0.79316
0.798559
0.803418
0.807736
0.81151
0.81474
0.817428
0.819573
0.821179
0.82225
0.822791
0.822808
0.822308
0.821299
0.819791
0.817793
0.815319
0.812379
0.808989
0.805161
0.800911
0.796254
0.791205
0.785782
0.78
0.77388
0.76744
0.760699
0.753677
0.746396
0.738874
0.731135
0.723198
0.715084
0.706816
0.698414
0.6899
0.681293
0.672614
0.663885
0.655123
0.64635
0.637583
0.628841
0.620142
0.611503
0.60294
0.594469
0.586104
0.577861
0.569753
0.561792
0.553991
0.54636
0.538909
0.531649
0.524588
0.517733
0.511093
0.504672
0.498477
0.492511
0.48678
0.481286
0.476031
0.471017
0.466245
0.461716
0.45743
0.453387
0.449586
0.446025
0.4427
0.439608
0.436745
0.434106
0.431687
0.429481
0.427483
0.425686
0.424085
0.422671
0.421437
0.420376
0.419479
0.418739
0.418146
0.417692
0.417367
0.417161
0.417066
0.41707
0.417163
0.417336
0.417576
0.417873
0.418214
0.418588
0.418983
0.419387
0.419785
0.420165
0.420514
0.420818
0.421062
0.421232
0.421313
0.421291
0.42115
0.420874
0.420449
0.419859
0.419088
0.418122
0.416944
0.415539
0.413895
0.411995
0.409826
0.407376
0.404632
0.401583
0.398218
0.394528
0.390503
0.386136
0.381418
0.376346
0.370913
0.365116
0.358952
0.35242
0.345517
0.338244
0.330601
0.322588
0.314207
0.305457
0.29634
0.286857
0.27701
0.2668
0.256228
0.245295
0.234002
0.222349
0.210333
0.197949
0.185182
0.171999
0.158335
0.144059
0.128904
0.112285
0.0927502
0.065719
0.0176942
0.0394653
0.120149
0.164773
0.197385
0.225127
0.250293
0.273843
0.296254
0.31779
0.338612
0.358826
0.378502
0.397691
0.41643
0.434747
0.452661
0.470188
0.487339
0.504122
0.52054
0.536597
0.552293
0.567627
0.582595
0.597194
0.611417
0.625257
0.638708
0.651761
0.664406
0.676634
0.688435
0.699799
0.710715
0.721173
0.731164
0.740676
0.749701
0.758229
0.766253
0.773764
0.780756
0.787221
0.793156
0.798554
0.803414
0.807732
0.811506
0.814736
0.817423
0.819569
0.821175
0.822246
0.822787
0.822804
0.822304
0.821295
0.819786
0.817789
0.815315
0.812375
0.808984
0.805157
0.800907
0.79625
0.791201
0.785778
0.779996
0.773876
0.767436
0.760695
0.753674
0.746392
0.738871
0.731131
0.723194
0.715081
0.706813
0.698411
0.689896
0.681289
0.672611
0.663881
0.65512
0.646347
0.63758
0.628838
0.620139
0.6115
0.602937
0.594466
0.586102
0.577859
0.56975
0.56179
0.553988
0.546357
0.538907
0.531647
0.524586
0.517731
0.511091
0.50467
0.498475
0.49251
0.486778
0.481284
0.476029
0.471015
0.466243
0.461714
0.457428
0.453385
0.449585
0.446023
0.442699
0.439607
0.436744
0.434105
0.431686
0.42948
0.427482
0.425685
0.424084
0.42267
0.421436
0.420375
0.419479
0.418738
0.418145
0.417691
0.417366
0.41716
0.417065
0.417069
0.417163
0.417335
0.417575
0.417872
0.418213
0.418588
0.418983
0.419386
0.419784
0.420165
0.420514
0.420818
0.421062
0.421232
0.421313
0.421291
0.421149
0.420874
0.420449
0.419859
0.419088
0.418121
0.416943
0.415539
0.413894
0.411995
0.409826
0.407376
0.404632
0.401583
0.398218
0.394528
0.390503
0.386136
0.381418
0.376346
0.370913
0.365116
0.358952
0.35242
0.345517
0.338244
0.330601
0.322588
0.314207
0.305457
0.29634
0.286857
0.27701
0.2668
0.256228
0.245295
0.234002
0.222349
0.210333
0.197949
0.185182
0.171999
0.158335
0.144059
0.128904
0.112285
0.0927503
0.0657191
0.0176943
0.0463829
0.135076
0.183536
0.218657
0.24833
0.275126
0.300139
0.323914
0.346755
0.368845
0.390301
0.411201
0.431599
0.451534
0.471034
0.490117
0.5088
0.52709
0.544994
0.562515
0.579653
0.596408
0.612774
0.628748
0.644323
0.659491
0.674244
0.688571
0.702462
0.715907
0.728894
0.741412
0.75345
0.764995
0.776038
0.786567
0.796572
0.806043
0.814973
0.823351
0.831172
0.838429
0.845117
0.851231
0.856768
0.861726
0.866104
0.869901
0.873119
0.87576
0.877827
0.879325
0.880258
0.880634
0.880459
0.879743
0.878495
0.876726
0.874447
0.871671
0.868412
0.864685
0.860505
0.855886
0.850846
0.8454
0.839565
0.833361
0.826807
0.819921
0.812724
0.805237
0.797481
0.789478
0.781248
0.772813
0.764196
0.755418
0.746501
0.737467
0.728337
0.719133
0.709874
0.700582
0.691277
0.681978
0.672705
0.663475
0.654306
0.645215
0.63622
0.627335
0.618575
0.609955
0.601487
0.593185
0.585059
0.577121
0.569381
0.561848
0.55453
0.547435
0.540569
0.533938
0.527547
0.521401
0.515502
0.509853
0.504456
0.499313
0.494424
0.489792
0.485415
0.481292
0.477421
0.473798
0.47042
0.467283
0.464382
0.461712
0.459268
0.457043
0.455031
0.453225
0.451617
0.4502
0.448966
0.447906
0.447012
0.446274
0.445683
0.44523
0.444904
0.444695
0.444592
0.444584
0.444661
0.44481
0.445019
0.445277
0.445571
0.445887
0.446213
0.446536
0.44684
0.447113
0.447339
0.447503
0.447592
0.447589
0.447479
0.447246
0.446875
0.446349
0.445654
0.444773
0.44369
0.442391
0.440861
0.439084
0.437048
0.434738
0.432141
0.429247
0.426044
0.422521
0.418669
0.41448
0.409945
0.405059
0.399815
0.394208
0.388234
0.38189
0.375173
0.368081
0.36061
0.35276
0.344528
0.335912
0.32691
0.31752
0.307739
0.297564
0.286994
0.276025
0.264656
0.252885
0.240709
0.228124
0.215123
0.201687
0.187782
0.173336
0.158201
0.14208
0.12432
0.103313
0.0740025
0.0208995
0.0463842
0.135076
0.183535
0.218656
0.248328
0.275124
0.300137
0.323912
0.346753
0.368843
0.390299
0.411199
0.431597
0.451532
0.471031
0.490115
0.508797
0.527087
0.544991
0.562512
0.57965
0.596405
0.612771
0.628745
0.64432
0.659488
0.67424
0.688567
0.702459
0.715904
0.728891
0.741409
0.753446
0.764992
0.776034
0.786563
0.796568
0.80604
0.814969
0.823347
0.831168
0.838425
0.845113
0.851227
0.856764
0.861722
0.8661
0.869897
0.873115
0.875756
0.877823
0.879321
0.880254
0.88063
0.880455
0.879739
0.878491
0.876722
0.874443
0.871667
0.868409
0.864681
0.860501
0.855883
0.850842
0.845396
0.839562
0.833358
0.826803
0.819918
0.812721
0.805234
0.797478
0.789474
0.781244
0.77281
0.764193
0.755415
0.746498
0.737464
0.728334
0.71913
0.709871
0.70058
0.691275
0.681976
0.672702
0.663472
0.654303
0.645213
0.636217
0.627332
0.618573
0.609952
0.601485
0.593182
0.585057
0.577119
0.569379
0.561846
0.554529
0.547433
0.540567
0.533936
0.527546
0.521399
0.5155
0.509851
0.504455
0.499312
0.494423
0.489791
0.485414
0.481291
0.47742
0.473797
0.470419
0.467282
0.464381
0.461711
0.459267
0.457042
0.45503
0.453224
0.451616
0.450199
0.448965
0.447905
0.447011
0.446273
0.445683
0.445229
0.444903
0.444694
0.444591
0.444584
0.44466
0.444809
0.445019
0.445277
0.44557
0.445887
0.446213
0.446535
0.44684
0.447112
0.447338
0.447503
0.447592
0.447589
0.447478
0.447246
0.446874
0.446349
0.445654
0.444772
0.44369
0.442391
0.440861
0.439084
0.437048
0.434737
0.432141
0.429247
0.426044
0.422521
0.418669
0.41448
0.409945
0.405059
0.399815
0.394208
0.388234
0.38189
0.375173
0.368081
0.36061
0.35276
0.344528
0.335912
0.32691
0.31752
0.307739
0.297564
0.286994
0.276025
0.264656
0.252885
0.240709
0.228124
0.215123
0.201687
0.187782
0.173336
0.158201
0.14208
0.12432
0.103314
0.0740026
0.0208996
0.053555
0.150034
0.202345
0.240049
0.271733
0.300234
0.326773
0.351964
0.376151
0.399541
0.422264
0.444409
0.466034
0.487179
0.507874
0.528138
0.547985
0.567423
0.586457
0.605087
0.623312
0.641128
0.65853
0.67551
0.69206
0.70817
0.723828
0.739024
0.753744
0.767976
0.781708
0.794926
0.807617
0.81977
0.831372
0.842413
0.852882
0.862769
0.872065
0.880764
0.888858
0.896343
0.903213
0.909467
0.915102
0.920117
0.924514
0.928293
0.931458
0.934013
0.935962
0.937312
0.93807
0.938245
0.937845
0.93688
0.935363
0.933305
0.930718
0.927618