/*--------------------------------*- C++ -*----------------------------------*\
  =========                 |
  \\      /  F ield         | OpenFOAM: The Open Source CFD Toolbox
   \\    /   O peration     | Website:  https://openfoam.org
    \\  /    A nd           | Version:  8
     \\/     M anipulation  |
\*---------------------------------------------------------------------------*/
FoamFile
{
    version     2.0;
    format      ascii;
    class       volScalarField;
    location    "2000";
    object      nut;
}
// * * * * * * * * * * * * * * * * * * * * * * * * * * * * * * * * * * * * * //

dimensions      [0 2 -1 0 0 0 0];

internalField   nonuniform List<scalar> 
46000
(
8.66106e-08
4.46543e-07
9.41049e-07
1.43728e-06
1.91845e-06
2.38684e-06
2.8449e-06
3.29506e-06
3.73873e-06
4.17675e-06
4.60966e-06
5.03777e-06
5.46126e-06
5.88021e-06
6.29462e-06
6.70447e-06
7.10968e-06
7.51016e-06
7.90578e-06
8.29642e-06
8.6819e-06
9.06207e-06
9.43672e-06
9.80566e-06
1.01686e-05
1.05254e-05
1.08758e-05
1.12193e-05
1.15558e-05
1.18848e-05
1.22061e-05
1.25192e-05
1.28238e-05
1.31194e-05
1.34056e-05
1.36819e-05
1.3948e-05
1.42033e-05
1.44473e-05
1.46797e-05
1.49e-05
1.51078e-05
1.53026e-05
1.5484e-05
1.56517e-05
1.58053e-05
1.59446e-05
1.60692e-05
1.6179e-05
1.62737e-05
1.63532e-05
1.64174e-05
1.64663e-05
1.64999e-05
1.65182e-05
1.65214e-05
1.65095e-05
1.64829e-05
1.64418e-05
1.63864e-05
1.63172e-05
1.62348e-05
1.61404e-05
1.60353e-05
1.59183e-05
1.57898e-05
1.56502e-05
1.55003e-05
1.53406e-05
1.51717e-05
1.49944e-05
1.48093e-05
1.46171e-05
1.44184e-05
1.42141e-05
1.40047e-05
1.37909e-05
1.35735e-05
1.3353e-05
1.31302e-05
1.29056e-05
1.268e-05
1.24538e-05
1.22276e-05
1.20021e-05
1.17778e-05
1.1555e-05
1.13344e-05
1.11164e-05
1.09013e-05
1.06896e-05
1.04816e-05
1.02777e-05
1.00782e-05
9.88335e-06
9.69338e-06
9.50853e-06
9.32901e-06
9.15498e-06
8.98658e-06
8.82395e-06
8.66717e-06
8.51633e-06
8.37148e-06
8.23266e-06
8.09989e-06
7.97316e-06
7.85245e-06
7.73775e-06
7.629e-06
7.52614e-06
7.4291e-06
7.3378e-06
7.25215e-06
7.17203e-06
7.09734e-06
7.02796e-06
6.96374e-06
6.90456e-06
6.8503e-06
6.80075e-06
6.75562e-06
6.71497e-06
6.67855e-06
6.64616e-06
6.61762e-06
6.59274e-06
6.57133e-06
6.55319e-06
6.53814e-06
6.52596e-06
6.51644e-06
6.50938e-06
6.50457e-06
6.50177e-06
6.50075e-06
6.5013e-06
6.50316e-06
6.50609e-06
6.50984e-06
6.51413e-06
6.51872e-06
6.5233e-06
6.5276e-06
6.53132e-06
6.53416e-06
6.53579e-06
6.53591e-06
6.53416e-06
6.53022e-06
6.52374e-06
6.51435e-06
6.50171e-06
6.48545e-06
6.4652e-06
6.4406e-06
6.41128e-06
6.37689e-06
6.33708e-06
6.2915e-06
6.23982e-06
6.18175e-06
6.11698e-06
6.04524e-06
5.96629e-06
5.88031e-06
5.78865e-06
5.68975e-06
5.58327e-06
5.46914e-06
5.34737e-06
5.21805e-06
5.08132e-06
4.93735e-06
4.78639e-06
4.62874e-06
4.46475e-06
4.29483e-06
4.11943e-06
3.93906e-06
3.75426e-06
3.56561e-06
3.37371e-06
3.17919e-06
2.98268e-06
2.78482e-06
2.58622e-06
2.38745e-06
2.18895e-06
1.99034e-06
1.79306e-06
1.59728e-06
1.40164e-06
1.20624e-06
1.00932e-06
8.1282e-07
6.12681e-07
4.03024e-07
1.91407e-07
3.6795e-08
8.66238e-08
4.46595e-07
9.41115e-07
1.43735e-06
1.91854e-06
2.38693e-06
2.84499e-06
3.29516e-06
3.73883e-06
4.17685e-06
4.60976e-06
5.03787e-06
5.46136e-06
5.88031e-06
6.29473e-06
6.70458e-06
7.10979e-06
7.51026e-06
7.90589e-06
8.29652e-06
8.68201e-06
9.06217e-06
9.43683e-06
9.80577e-06
1.01688e-05
1.05255e-05
1.08759e-05
1.12194e-05
1.15559e-05
1.18849e-05
1.22062e-05
1.25194e-05
1.28239e-05
1.31195e-05
1.34057e-05
1.3682e-05
1.39481e-05
1.42034e-05
1.44474e-05
1.46798e-05
1.49001e-05
1.51079e-05
1.53027e-05
1.54841e-05
1.56518e-05
1.58054e-05
1.59447e-05
1.60693e-05
1.61791e-05
1.62738e-05
1.63533e-05
1.64175e-05
1.64664e-05
1.65e-05
1.65183e-05
1.65214e-05
1.65096e-05
1.6483e-05
1.64419e-05
1.63865e-05
1.63173e-05
1.62349e-05
1.61404e-05
1.60354e-05
1.59184e-05
1.57899e-05
1.56503e-05
1.55004e-05
1.53406e-05
1.51718e-05
1.49944e-05
1.48093e-05
1.46171e-05
1.44185e-05
1.42141e-05
1.40047e-05
1.37909e-05
1.35735e-05
1.3353e-05
1.31302e-05
1.29056e-05
1.268e-05
1.24538e-05
1.22277e-05
1.20021e-05
1.17778e-05
1.1555e-05
1.13344e-05
1.11164e-05
1.09013e-05
1.06896e-05
1.04816e-05
1.02777e-05
1.00782e-05
9.88332e-06
9.69335e-06
9.50851e-06
9.32898e-06
9.15495e-06
8.98655e-06
8.82392e-06
8.66714e-06
8.5163e-06
8.37145e-06
8.23262e-06
8.09984e-06
7.97311e-06
7.85241e-06
7.7377e-06
7.62895e-06
7.52609e-06
7.42905e-06
7.33775e-06
7.2521e-06
7.17198e-06
7.09729e-06
7.02791e-06
6.96369e-06
6.90451e-06
6.85024e-06
6.80069e-06
6.75556e-06
6.71491e-06
6.67849e-06
6.6461e-06
6.61756e-06
6.59268e-06
6.57127e-06
6.55313e-06
6.53808e-06
6.52589e-06
6.51638e-06
6.50932e-06
6.5045e-06
6.5017e-06
6.50069e-06
6.50124e-06
6.5031e-06
6.50603e-06
6.50977e-06
6.51407e-06
6.51865e-06
6.52324e-06
6.52754e-06
6.53126e-06
6.53409e-06
6.53573e-06
6.53584e-06
6.5341e-06
6.53016e-06
6.52367e-06
6.51429e-06
6.50165e-06
6.48538e-06
6.46513e-06
6.44053e-06
6.41122e-06
6.37683e-06
6.33701e-06
6.29143e-06
6.23976e-06
6.18169e-06
6.11692e-06
6.04518e-06
5.96624e-06
5.88026e-06
5.7886e-06
5.6897e-06
5.58322e-06
5.46909e-06
5.34733e-06
5.21801e-06
5.08128e-06
4.93731e-06
4.78635e-06
4.6287e-06
4.46471e-06
4.2948e-06
4.1194e-06
3.93903e-06
3.75423e-06
3.56558e-06
3.37369e-06
3.17917e-06
2.98266e-06
2.7848e-06
2.5862e-06
2.38743e-06
2.18893e-06
1.99033e-06
1.79305e-06
1.59727e-06
1.40163e-06
1.20623e-06
1.00931e-06
8.12812e-07
6.12674e-07
4.0302e-07
1.91405e-07
3.67943e-08
4.0711e-07
1.42442e-05
2.85728e-05
3.83474e-05
4.58061e-05
5.19536e-05
5.72603e-05
6.19749e-05
6.62451e-05
7.01657e-05
7.38015e-05
7.71988e-05
8.03917e-05
8.34066e-05
8.62642e-05
8.89809e-05
9.15704e-05
9.40438e-05
9.64107e-05
9.86789e-05
0.000100855
0.000102946
0.000104956
0.000106889
0.00010875
0.000110541
0.000112266
0.000113927
0.000115526
0.000117064
0.000118544
0.000119966
0.000121331
0.000122641
0.000123894
0.000125092
0.000126235
0.000127323
0.000128356
0.000129334
0.000130256
0.000131122
0.000131932
0.000132686
0.000133383
0.000134022
0.000134604
0.000135129
0.000135595
0.000136003
0.000136353
0.000136644
0.000136877
0.000137052
0.000137169
0.000137228
0.00013723
0.000137175
0.000137064
0.000136897
0.000136674
0.000136395
0.000136055
0.000135657
0.000135207
0.000134708
0.000134163
0.000133574
0.000132942
0.00013227
0.000131559
0.000130811
0.000130029
0.000129214
0.000128368
0.000127495
0.000126595
0.000125672
0.000124727
0.000123763
0.000122782
0.000121786
0.000120777
0.000119758
0.000118731
0.000117699
0.000116663
0.000115625
0.000114588
0.000113554
0.000112524
0.000111502
0.000110488
0.000109484
0.000108493
0.000107515
0.000106554
0.000105609
0.000104683
0.000103777
0.000102893
0.000102031
0.000101192
0.000100378
9.95902e-05
9.88283e-05
9.80935e-05
9.73863e-05
9.67074e-05
9.60571e-05
9.54357e-05
9.48435e-05
9.42806e-05
9.3747e-05
9.32427e-05
9.27674e-05
9.23211e-05
9.19034e-05
9.15135e-05
9.11512e-05
9.08158e-05
9.05065e-05
9.02222e-05
8.99622e-05
8.97256e-05
8.95114e-05
8.93186e-05
8.91462e-05
8.89929e-05
8.88577e-05
8.87393e-05
8.86363e-05
8.85475e-05
8.84715e-05
8.84069e-05
8.83523e-05
8.83061e-05
8.82668e-05
8.82329e-05
8.82026e-05
8.81745e-05
8.81467e-05
8.81175e-05
8.80851e-05
8.80477e-05
8.80033e-05
8.79501e-05
8.78861e-05
8.78093e-05
8.77175e-05
8.76087e-05
8.74808e-05
8.73316e-05
8.71589e-05
8.69604e-05
8.6734e-05
8.64774e-05
8.61884e-05
8.58648e-05
8.55042e-05
8.51045e-05
8.46634e-05
8.41787e-05
8.36479e-05
8.30674e-05
8.24295e-05
8.17289e-05
8.0969e-05
8.01505e-05
7.92728e-05
7.83349e-05
7.73359e-05
7.62749e-05
7.51509e-05
7.39633e-05
7.27113e-05
7.13943e-05
7.00119e-05
6.85635e-05
6.70487e-05
6.54667e-05
6.38171e-05
6.20988e-05
6.03106e-05
5.84507e-05
5.65168e-05
5.45052e-05
5.24112e-05
5.02282e-05
4.79487e-05
4.55504e-05
4.30019e-05
4.02541e-05
3.72365e-05
3.37919e-05
2.95862e-05
2.44059e-05
1.75726e-05
7.93465e-06
1.67584e-07
4.07152e-07
1.42463e-05
2.85759e-05
3.83508e-05
4.58098e-05
5.19574e-05
5.72642e-05
6.19788e-05
6.6249e-05
7.01697e-05
7.38055e-05
7.72028e-05
8.03957e-05
8.34107e-05
8.62683e-05
8.89851e-05
9.15746e-05
9.40481e-05
9.6415e-05
9.86833e-05
0.00010086
0.00010295
0.00010496
0.000106894
0.000108754
0.000110546
0.000112271
0.000113932
0.000115531
0.00011707
0.000118549
0.000119971
0.000121337
0.000122646
0.000123899
0.000125098
0.000126241
0.000127329
0.000128362
0.00012934
0.000130262
0.000131128
0.000131938
0.000132692
0.000133389
0.000134028
0.00013461
0.000135135
0.000135601
0.000136009
0.000136359
0.00013665
0.000136883
0.000137058
0.000137175
0.000137234
0.000137236
0.000137181
0.00013707
0.000136903
0.00013668
0.000136401
0.000136061
0.000135663
0.000135213
0.000134714
0.000134169
0.000133579
0.000132948
0.000132275
0.000131564
0.000130816
0.000130034
0.000129219
0.000128374
0.0001275
0.0001266
0.000125677
0.000124732
0.000123768
0.000122786
0.00012179
0.000120782
0.000119763
0.000118736
0.000117703
0.000116667
0.000115629
0.000114592
0.000113558
0.000112528
0.000111505
0.000110491
0.000109487
0.000108496
0.000107519
0.000106557
0.000105612
0.000104686
0.00010378
0.000102896
0.000102033
0.000101195
0.000100381
9.95926e-05
9.88306e-05
9.80957e-05
9.73885e-05
9.67095e-05
9.6059e-05
9.54376e-05
9.48453e-05
9.42823e-05
9.37486e-05
9.32442e-05
9.27689e-05
9.23225e-05
9.19047e-05
9.15148e-05
9.11524e-05
9.08169e-05
9.05076e-05
9.02232e-05
8.99631e-05
8.97264e-05
8.95121e-05
8.93193e-05
8.91468e-05
8.89935e-05
8.88583e-05
8.87398e-05
8.86368e-05
8.85479e-05
8.84719e-05
8.84072e-05
8.83525e-05
8.83063e-05
8.8267e-05
8.8233e-05
8.82027e-05
8.81745e-05
8.81467e-05
8.81174e-05
8.8085e-05
8.80476e-05
8.80032e-05
8.795e-05
8.78859e-05
8.7809e-05
8.77172e-05
8.76084e-05
8.74805e-05
8.73312e-05
8.71585e-05
8.696e-05
8.67336e-05
8.6477e-05
8.6188e-05
8.58643e-05
8.55037e-05
8.5104e-05
8.46629e-05
8.41782e-05
8.36474e-05
8.30668e-05
8.24289e-05
8.17282e-05
8.09683e-05
8.01498e-05
7.92721e-05
7.83342e-05
7.73353e-05
7.62742e-05
7.51503e-05
7.39627e-05
7.27107e-05
7.13937e-05
7.00113e-05
6.85629e-05
6.70481e-05
6.54662e-05
6.38166e-05
6.20983e-05
6.03101e-05
5.84503e-05
5.65163e-05
5.45048e-05
5.24107e-05
5.02278e-05
4.79483e-05
4.55501e-05
4.30015e-05
4.02538e-05
3.72363e-05
3.37917e-05
2.95862e-05
2.44059e-05
1.75726e-05
7.9347e-06
1.67584e-07
8.70729e-07
2.77989e-05
6.07562e-05
8.52998e-05
0.000104203
0.000119545
0.000132505
0.000143771
0.000153771
0.000162786
0.000171009
0.00017858
0.000185599
0.000192145
0.000198279
0.000204049
0.000209494
0.000214646
0.000219533
0.000224177
0.000228596
0.000232808
0.000236826
0.000240663
0.000244329
0.000247833
0.000251183
0.000254387
0.00025745
0.000260377
0.000263174
0.000265843
0.000268389
0.000270815
0.000273123
0.000275314
0.000277392
0.000279358
0.000281212
0.000282957
0.000284593
0.000286121
0.000287541
0.000288856
0.000290064
0.000291168
0.000292166
0.00029306
0.000293851
0.000294539
0.000295124
0.000295607
0.000295989
0.00029627
0.000296452
0.000296535
0.000296521
0.000296409
0.000296202
0.000295899
0.0002955
0.000295004
0.00029441
0.000293718
0.000292936
0.000292069
0.000291123
0.0002901
0.000289003
0.000287836
0.000286602
0.000285303
0.000283944
0.000282527
0.000281055
0.000279532
0.000277962
0.000276348
0.000274693
0.000273002
0.000271277
0.000269523
0.000267744
0.000265942
0.000264122
0.000262288
0.000260442
0.00025859
0.000256733
0.000254877
0.000253024
0.000251179
0.000249343
0.000247521
0.000245716
0.00024393
0.000242167
0.00024043
0.000238721
0.000237042
0.000235397
0.000233787
0.000232215
0.000230683
0.000229191
0.000227743
0.000226338
0.00022498
0.000223667
0.000222402
0.000221186
0.000220018
0.000218898
0.000217828
0.000216808
0.000215836
0.000214913
0.000214038
0.00021321
0.000212428
0.000211691
0.000210997
0.000210344
0.000209733
0.00020916
0.000208624
0.000208124
0.000207657
0.000207221
0.000206814
0.000206435
0.000206079
0.000205746
0.000205433
0.000205137
0.000204855
0.000204584
0.000204323
0.000204067
0.000203814
0.000203562
0.000203306
0.000203043
0.000202771
0.000202486
0.000202184
0.000201862
0.000201517
0.000201144
0.000200741
0.000200303
0.000199826
0.000199308
0.000198744
0.00019813
0.000197462
0.000196737
0.000195951
0.000195099
0.000194179
0.000193187
0.000192118
0.000190969
0.000189734
0.000188409
0.000186985
0.000185451
0.000183811
0.000182064
0.000180209
0.000178245
0.000176169
0.000173981
0.000171676
0.000169253
0.00016671
0.000164042
0.000161247
0.000158322
0.000155261
0.00015206
0.000148713
0.000145213
0.00014155
0.000137715
0.000133693
0.000129466
0.000125012
0.0001203
0.000115286
0.000109904
0.000104056
9.75937e-05
9.02664e-05
8.16724e-05
7.1178e-05
5.77851e-05
4.01095e-05
1.68086e-05
3.61754e-07
8.70806e-07
2.78018e-05
6.07629e-05
8.53083e-05
0.000104212
0.000119555
0.000132514
0.00014378
0.000153781
0.000162796
0.000171019
0.000178589
0.000185608
0.000192154
0.000198288
0.000204058
0.000209503
0.000214656
0.000219543
0.000224186
0.000228606
0.000232818
0.000236836
0.000240672
0.000244338
0.000247843
0.000251193
0.000254397
0.00025746
0.000260387
0.000263184
0.000265853
0.0002684
0.000270825
0.000273133
0.000275325
0.000277402
0.000279368
0.000281222
0.000282967
0.000284603
0.000286131
0.000287552
0.000288867
0.000290075
0.000291178
0.000292177
0.000293071
0.000293862
0.000294549
0.000295134
0.000295618
0.000295999
0.000296281
0.000296463
0.000296546
0.000296531
0.00029642
0.000296212
0.000295909
0.00029551
0.000295015
0.00029442
0.000293728
0.000292945
0.000292079
0.000291132
0.000290109
0.000289013
0.000287845
0.000286611
0.000285312
0.000283953
0.000282535
0.000281063
0.00027954
0.00027797
0.000276356
0.000274701
0.000273009
0.000271285
0.000269531
0.000267751
0.000265949
0.000264129
0.000262294
0.000260449
0.000258596
0.000256739
0.000254883
0.00025303
0.000251184
0.000249348
0.000247526
0.00024572
0.000243935
0.000242171
0.000240434
0.000238725
0.000237046
0.000235401
0.000233791
0.000232219
0.000230686
0.000229194
0.000227746
0.000226341
0.000224982
0.00022367
0.000222405
0.000221188
0.000220019
0.0002189
0.00021783
0.000216809
0.000215837
0.000214914
0.000214039
0.000213211
0.000212429
0.000211691
0.000210997
0.000210345
0.000209733
0.00020916
0.000208624
0.000208123
0.000207656
0.00020722
0.000206814
0.000206434
0.000206079
0.000205746
0.000205432
0.000205136
0.000204854
0.000204583
0.000204322
0.000204066
0.000203813
0.00020356
0.000203304
0.000203041
0.000202769
0.000202484
0.000202182
0.00020186
0.000201515
0.000201142
0.000200739
0.000200301
0.000199824
0.000199306
0.000198742
0.000198127
0.00019746
0.000196735
0.000195948
0.000195097
0.000194177
0.000193185
0.000192116
0.000190966
0.000189732
0.000188407
0.000186983
0.000185449
0.000183809
0.000182062
0.000180207
0.000178243
0.000176167
0.000173979
0.000171674
0.000169251
0.000166708
0.00016404
0.000161245
0.00015832
0.000155259
0.000152058
0.000148711
0.000145211
0.000141549
0.000137714
0.000133691
0.000129465
0.000125011
0.000120299
0.000115285
0.000109903
0.000104055
9.75931e-05
9.02659e-05
8.16721e-05
7.11778e-05
5.7785e-05
4.01095e-05
1.68087e-05
3.61755e-07
1.34417e-06
3.71062e-05
8.42989e-05
0.000122404
0.000152934
0.000178125
0.000199505
0.000218071
0.000234487
0.000249211
0.000262567
0.000274792
0.000286066
0.000296523
0.000306273
0.0003154
0.000323974
0.000332052
0.00033968
0.000346899
0.000353742
0.000360238
0.000366412
0.000372284
0.000377874
0.000383196
0.000388265
0.000393093
0.000397691
0.000402067
0.000406231
0.000410189
0.000413948
0.000417513
0.00042089
0.000424082
0.000427094
0.00042993
0.000432593
0.000435085
0.000437409
0.000439569
0.000441566
0.000443403
0.000445081
0.000446604
0.000447972
0.000449187
0.000450252
0.000451168
0.000451937
0.000452561
0.000453041
0.00045338
0.000453579
0.00045364
0.000453565
0.000453355
0.000453012
0.000452538
0.000451933
0.000451196
0.00045033
0.000449334
0.000448217
0.000446985
0.000445643
0.000444195
0.000442647
0.000441002
0.000439265
0.00043744
0.000435531
0.000433542
0.000431479
0.000429345
0.000427146
0.000424886
0.000422569
0.000420201
0.000417786
0.00041533
0.000412837
0.000410312
0.000407761
0.000405188
0.000402598
0.000399996
0.000397387
0.000394776
0.000392167
0.000389566
0.000386976
0.000384402
0.000381849
0.00037932
0.000376819
0.000374351
0.000371918
0.000369525
0.000367175
0.00036487
0.000362614
0.000360408
0.000358256
0.000356159
0.000354119
0.000352139
0.000350218
0.000348359
0.000346562
0.000344828
0.000343157
0.000341549
0.000340005
0.000338525
0.000337106
0.000335749
0.000334451
0.000333211
0.000332028
0.000330899
0.000329824
0.000328799
0.000327822
0.000326892
0.000326005
0.00032516
0.000324352
0.00032358
0.000322839
0.000322128
0.000321442
0.000320779
0.000320134
0.000319504
0.000318885
0.000318274
0.000317667
0.000317059
0.000316446
0.000315824
0.000315189
0.000314537
0.000313862
0.00031316
0.000312426
0.000311657
0.000310846
0.000309988
0.00030908
0.000308116
0.000307091
0.000306
0.000304839
0.000303601
0.000302282
0.000300878
0.000299383
0.000297793
0.000296102
0.000294307
0.000292401
0.000290379
0.000288233
0.000285958
0.000283542
0.000280986
0.000278286
0.000275441
0.000272447
0.000269303
0.000266003
0.000262543
0.00025892
0.000255127
0.000251158
0.000247005
0.000242661
0.000238116
0.000233358
0.000228373
0.000223146
0.000217657
0.000211881
0.00020579
0.000199345
0.000192499
0.000185187
0.000177322
0.00016878
0.000159384
0.000148875
0.000136861
0.000122754
0.000105674
8.43023e-05
5.70126e-05
2.33441e-05
5.68654e-07
1.34426e-06
3.71094e-05
8.43071e-05
0.000122415
0.000152947
0.00017814
0.00019952
0.000218086
0.000234502
0.000249226
0.000262582
0.000274807
0.00028608
0.000296538
0.000306288
0.000315415
0.000323989
0.000332066
0.000339695
0.000346914
0.000353757
0.000360253
0.000366426
0.000372299
0.000377888
0.00038321
0.000388279
0.000393107
0.000397705
0.000402082
0.000406245
0.000410203
0.000413962
0.000417527
0.000420904
0.000424096
0.000427109
0.000429944
0.000432607
0.000435099
0.000437424
0.000439584
0.000441581
0.000443417
0.000445096
0.000446618
0.000447986
0.000449201
0.000450266
0.000451182
0.000451951
0.000452575
0.000453055
0.000453394
0.000453593
0.000453654
0.000453578
0.000453368
0.000453026
0.000452551
0.000451945
0.000451209
0.000450342
0.000449347
0.000448229
0.000446997
0.000445654
0.000444207
0.000442658
0.000441013
0.000439276
0.00043745
0.000435541
0.000433553
0.000431489
0.000429355
0.000427156
0.000424895
0.000422578
0.00042021
0.000417795
0.000415338
0.000412845
0.00041032
0.000407769
0.000405195
0.000402605
0.000400003
0.000397394
0.000394782
0.000392173
0.000389572
0.000386982
0.000384407
0.000381854
0.000379325
0.000376824
0.000374355
0.000371923
0.000369529
0.000367179
0.000364874
0.000362617
0.000360411
0.000358259
0.000356162
0.000354122
0.000352141
0.00035022
0.000348361
0.000346563
0.000344829
0.000343158
0.00034155
0.000340006
0.000338525
0.000337107
0.000335749
0.000334451
0.000333211
0.000332028
0.000330899
0.000329823
0.000328798
0.000327821
0.000326891
0.000326004
0.000325158
0.00032435
0.000323578
0.000322837
0.000322126
0.00032144
0.000320776
0.000320132
0.000319502
0.000318883
0.000318272
0.000317664
0.000317056
0.000316443
0.000315821
0.000315186
0.000314533
0.000313858
0.000313156
0.000312423
0.000311653
0.000310842
0.000309985
0.000309077
0.000308113
0.000307088
0.000305997
0.000304835
0.000303597
0.000302278
0.000300874
0.000299379
0.000297789
0.000296099
0.000294303
0.000292397
0.000290375
0.00028823
0.000285954
0.000283539
0.000280982
0.000278283
0.000275437
0.000272444
0.000269299
0.000266
0.00026254
0.000258917
0.000255124
0.000251155
0.000247003
0.000242659
0.000238114
0.000233356
0.000228371
0.000223144
0.000217655
0.000211879
0.000205788
0.000199343
0.000192497
0.000185185
0.000177321
0.000168779
0.000159384
0.000148875
0.00013686
0.000122754
0.000105674
8.43023e-05
5.70127e-05
2.33442e-05
5.68657e-07
1.81333e-06
4.43298e-05
0.000102428
0.000151867
0.000192811
0.00022725
0.000256784
0.000282561
0.000305397
0.000325879
0.000344437
0.000361395
0.000377
0.000391443
0.000404877
0.000417424
0.000429183
0.000440235
0.000450651
0.000460485
0.000469788
0.0004786
0.000486957
0.000494889
0.000502422
0.00050958
0.000516383
0.000522847
0.000528989
0.000534821
0.000540356
0.000545603
0.000550574
0.000555275
0.000559714
0.000563899
0.000567835
0.000571528
0.000574983
0.000578205
0.0005812
0.00058397
0.000586521
0.000588856
0.000590979
0.000592893
0.000594602
0.00059611
0.00059742
0.000598535
0.000599458
0.000600193
0.000600743
0.00060111
0.000601298
0.000601309
0.000601147
0.000600815
0.000600315
0.000599649
0.00059882
0.000597829
0.000596679
0.000595373
0.000593917
0.000592319
0.000590583
0.000588717
0.000586725
0.000584613
0.000582387
0.000580052
0.000577614
0.000575077
0.000572447
0.00056973
0.000566933
0.000564059
0.000561117
0.00055811
0.000555047
0.000551931
0.000548771
0.000545571
0.000542338
0.000539077
0.000535796
0.0005325
0.000529194
0.000525886
0.00052258
0.000519282
0.000515998
0.000512734
0.000509493
0.000506282
0.000503105
0.000499967
0.000496872
0.000493824
0.000490828
0.000487886
0.000485002
0.000482179
0.00047942
0.000476726
0.000474101
0.000471546
0.000469062
0.000466651
0.000464314
0.00046205
0.000459861
0.000457746
0.000455706
0.000453739
0.000451843
0.000450018
0.000448261
0.000446571
0.000444946
0.000443382
0.000441879
0.000440432
0.00043904
0.000437699
0.000436406
0.000435158
0.000433951
0.000432782
0.000431647
0.000430542
0.000429463
0.000428405
0.000427366
0.000426339
0.000425321
0.000424307
0.000423292
0.000422272
0.000421241
0.000420194
0.000419126
0.000418032
0.000416906
0.000415743
0.000414537
0.000413283
0.000411974
0.000410606
0.000409172
0.000407666
0.000406083
0.000404417
0.000402661
0.000400811
0.000398861
0.000396805
0.000394637
0.000392352
0.000389944
0.000387407
0.000384736
0.000381925
0.000378965
0.000375851
0.000372574
0.000369129
0.000365512
0.00036172
0.000357748
0.000353592
0.000349245
0.000344701
0.000339953
0.000334991
0.000329805
0.000324384
0.000318713
0.000312776
0.000306555
0.000300027
0.000293166
0.00028594
0.000278311
0.000270233
0.000261645
0.000252475
0.000242624
0.000231962
0.000220312
0.000207425
0.000192952
0.000176395
0.00015704
0.000133879
0.00010553
7.03635e-05
2.8665e-05
7.80976e-07
1.81343e-06
4.43331e-05
0.000102437
0.00015188
0.000192827
0.000227268
0.000256803
0.00028258
0.000305417
0.000325898
0.000344457
0.000361415
0.00037702
0.000391463
0.000404897
0.000417444
0.000429202
0.000440255
0.00045067
0.000460505
0.000469808
0.00047862
0.000486976
0.000494908
0.000502442
0.000509599
0.000516402
0.000522866
0.000529008
0.00053484
0.000540374
0.000545622
0.000550592
0.000555293
0.000559733
0.000563917
0.000567853
0.000571546
0.000575001
0.000578224
0.000581218
0.000583988
0.000586539
0.000588874
0.000590996
0.000592911
0.00059462
0.000596128
0.000597438
0.000598552
0.000599475
0.00060021
0.000600759
0.000601126
0.000601314
0.000601325
0.000601163
0.000600831
0.00060033
0.000599664
0.000598835
0.000597844
0.000596694
0.000595388
0.000593932
0.000592333
0.000590597
0.00058873
0.000586738
0.000584626
0.0005824
0.000580065
0.000577626
0.000575088
0.000572458
0.000569742
0.000566944
0.00056407
0.000561127
0.000558121
0.000555056
0.000551941
0.00054878
0.00054558
0.000542346
0.000539086
0.000535804
0.000532507
0.000529202
0.000525893
0.000522587
0.000519289
0.000516005
0.00051274
0.000509499
0.000506288
0.000503111
0.000499972
0.000496877
0.000493829
0.000490832
0.00048789
0.000485006
0.000482182
0.000479423
0.000476729
0.000474104
0.000471549
0.000469065
0.000466653
0.000464315
0.000462052
0.000459862
0.000457747
0.000455707
0.000453739
0.000451844
0.000450018
0.000448262
0.000446571
0.000444945
0.000443382
0.000441878
0.000440431
0.000439039
0.000437697
0.000436404
0.000435156
0.000433949
0.00043278
0.000431645
0.000430539
0.00042946
0.000428403
0.000427363
0.000426336
0.000425318
0.000424304
0.000423289
0.000422268
0.000421237
0.00042019
0.000419122
0.000418028
0.000416902
0.000415739
0.000414533
0.000413278
0.00041197
0.000410601
0.000409167
0.000407662
0.000406078
0.000404412
0.000402657
0.000400807
0.000398856
0.0003968
0.000394632
0.000392347
0.000389939
0.000387402
0.000384732
0.00038192
0.000378961
0.000375847
0.000372569
0.000369124
0.000365508
0.000361716
0.000357744
0.000353588
0.000349242
0.000344698
0.00033995
0.000334988
0.000329802
0.000324381
0.00031871
0.000312774
0.000306553
0.000300025
0.000293164
0.000285938
0.00027831
0.000270231
0.000261644
0.000252474
0.000242623
0.000231962
0.000220311
0.000207425
0.000192952
0.000176395
0.00015704
0.00013388
0.00010553
7.03637e-05
2.86651e-05
7.80979e-07
2.28272e-06
5.04044e-05
0.000117265
0.000176158
0.000226156
0.000268904
0.000305948
0.000338488
0.000367421
0.000393421
0.000416997
0.00043854
0.000458354
0.00047668
0.000493708
0.000509594
0.000524466
0.000538429
0.000551571
0.000563967
0.000575678
0.000586758
0.000597254
0.000607205
0.000616644
0.000625602
0.000634104
0.000642174
0.00064983
0.00065709
0.00066397
0.000670484
0.000676643
0.000682458
0.00068794
0.000693097
0.000697938
0.00070247
0.000706701
0.000710637
0.000714284
0.000717649
0.000720738
0.000723555
0.000726106
0.000728397
0.000730432
0.000732216
0.000733755
0.000735053
0.000736115
0.000736946
0.000737549
0.00073793
0.000738092
0.000738041
0.00073778
0.000737313
0.000736645
0.000735779
0.000734718
0.000733467
0.00073203
0.000730409
0.000728613
0.000726649
0.000724523
0.000722243
0.000719814
0.000717245
0.000714541
0.000711709
0.000708755
0.000705686
0.000702509
0.00069923
0.000695857
0.000692396
0.000688854
0.000685238
0.000681556
0.000677814
0.000674021
0.000670182
0.000666305
0.000662397
0.000658466
0.000654518
0.000650561
0.000646601
0.000642645
0.000638699
0.000634771
0.000630865
0.000626989
0.000623148
0.000619348
0.000615594
0.00061189
0.000608242
0.000604653
0.000601129
0.000597672
0.000594286
0.000590974
0.000587739
0.000584582
0.000581505
0.00057851
0.000575598
0.00057277
0.000570026
0.000567367
0.000564791
0.000562298
0.000559887
0.000557555
0.000555301
0.000553122
0.000551016
0.000548981
0.000547013
0.00054511
0.000543268
0.000541483
0.000539752
0.000538072
0.000536437
0.000534845
0.000533291
0.00053177
0.000530277
0.000528809
0.00052736
0.000525926
0.000524501
0.00052308
0.000521658
0.000520229
0.000518788
0.00051733
0.000515848
0.000514337
0.000512791
0.000511203
0.000509568
0.000507878
0.000506129
0.000504314
0.000502425
0.000500458
0.000498404
0.000496259
0.000494015
0.000491667
0.000489208
0.000486631
0.000483932
0.000481103
0.000478139
0.000475033
0.00047178
0.000468372
0.000464804
0.000461069
0.000457158
0.000453064
0.000448781
0.000444304
0.000439626
0.000434742
0.000429645
0.000424326
0.000418777
0.000412986
0.000406941
0.000400627
0.000394028
0.000387123
0.000379891
0.000372304
0.000364332
0.000355936
0.000347075
0.000337695
0.000327733
0.000317111
0.000305727
0.000293455
0.000280127
0.000265519
0.000249325
0.000231128
0.00021035
0.000186198
0.000157592
0.000123136
8.13522e-05
3.31833e-05
9.99772e-07
2.28282e-06
5.04077e-05
0.000117274
0.000176172
0.000226173
0.000268924
0.00030597
0.00033851
0.000367444
0.000393444
0.000417021
0.000438564
0.000458379
0.000476704
0.000493732
0.000509619
0.000524491
0.000538454
0.000551596
0.000563991
0.000575702
0.000586783
0.000597278
0.000607229
0.000616668
0.000625626
0.000634128
0.000642197
0.000649853
0.000657114
0.000663994
0.000670507
0.000676665
0.000682481
0.000687962
0.00069312
0.00069796
0.000702493
0.000706723
0.000710659
0.000714306
0.000717671
0.000720759
0.000723576
0.000726127
0.000728417
0.000730452
0.000732237
0.000733776
0.000735073
0.000736135
0.000736965
0.000737568
0.000737949
0.000738111
0.00073806
0.000737798
0.000737331
0.000736663
0.000735796
0.000734735
0.000733484
0.000732046
0.000730426
0.000728629
0.000726665
0.000724538
0.000722258
0.000719829
0.00071726
0.000714555
0.000711723
0.000708768
0.000705699
0.000702522
0.000699243
0.000695869
0.000692408
0.000688866
0.00068525
0.000681567
0.000677825
0.000674031
0.000670192
0.000666315
0.000662407
0.000658475
0.000654527
0.00065057
0.000646609
0.000642653
0.000638707
0.000634778
0.000630873
0.000626996
0.000623155
0.000619354
0.0006156
0.000611896
0.000608247
0.000604659
0.000601134
0.000597677
0.000594291
0.000590979
0.000587743
0.000584585
0.000581509
0.000578514
0.000575601
0.000572773
0.000570029
0.000567369
0.000564793
0.0005623
0.000559888
0.000557556
0.000555302
0.000553123
0.000551017
0.000548982
0.000547014
0.00054511
0.000543267
0.000541482
0.000539752
0.000538071
0.000536436
0.000534844
0.000533289
0.000531768
0.000530275
0.000528807
0.000527358
0.000525923
0.000524498
0.000523077
0.000521655
0.000520226
0.000518785
0.000517327
0.000515845
0.000514333
0.000512787
0.000511199
0.000509563
0.000507874
0.000506125
0.000504309
0.000502421
0.000500453
0.000498399
0.000496254
0.00049401
0.000491662
0.000489203
0.000486626
0.000483927
0.000481098
0.000478134
0.000475028
0.000471775
0.000468367
0.000464799
0.000461064
0.000457153
0.00045306
0.000448777
0.000444299
0.000439622
0.000434738
0.000429641
0.000424322
0.000418773
0.000412982
0.000406937
0.000400624
0.000394025
0.000387121
0.000379889
0.000372302
0.00036433
0.000355934
0.000347073
0.000337694
0.000327732
0.000317109
0.000305726
0.000293455
0.000280127
0.000265518
0.000249325
0.000231128
0.000210351
0.000186198
0.000157592
0.000123136
8.13525e-05
3.31834e-05
9.99778e-07
2.75794e-06
5.57797e-05
0.000129986
0.000196902
0.000254759
0.000304877
0.000348701
0.000387429
0.000422001
0.000453145
0.000481428
0.00050729
0.000531084
0.000553088
0.00057353
0.000592593
0.000610431
0.000627169
0.000642915
0.000657757
0.000671771
0.000685023
0.000697569
0.000709455
0.000720723
0.00073141
0.000741546
0.00075116
0.000760275
0.000768911
0.000777089
0.000784824
0.000792131
0.000799024
0.000805514
0.000811613
0.000817331
0.000822676
0.000827659
0.000832286
0.000836567
0.000840508
0.000844117
0.0008474
0.000850366
0.000853019
0.000855368
0.000857418
0.000859175
0.000860646
0.000861837
0.000862754
0.000863403
0.00086379
0.00086392
0.0008638
0.000863434
0.000862828
0.000861987
0.000860918
0.000859624
0.000858112
0.000856386
0.000854452
0.000852318