/*--------------------------------*- C++ -*----------------------------------*\
  =========                 |
  \\      /  F ield         | OpenFOAM: The Open Source CFD Toolbox
   \\    /   O peration     | Website:  https://openfoam.org
    \\  /    A nd           | Version:  8
     \\/     M anipulation  |
\*---------------------------------------------------------------------------*/
FoamFile
{
    version     2.0;
    format      ascii;
    class       surfaceScalarField;
    location    "2000";
    object      phi;
}
// * * * * * * * * * * * * * * * * * * * * * * * * * * * * * * * * * * * * * //

dimensions      [1 0 -1 0 0 0 0];

internalField   nonuniform List<scalar> 
114370
(
6.79965e-11
2.11226e-13
-6.82079e-11
1.10161e-10
1.7762e-13
-4.42772e-11
1.0159e-10
1.37008e-13
7.02227e-12
4.97479e-11
1.2883e-13
5.04739e-11
-3.08804e-11
1.14581e-13
7.94076e-11
-1.28892e-10
1.08143e-13
9.68962e-11
-2.36863e-10
8.92101e-14
1.06949e-10
-3.50627e-10
5.79076e-14
1.12833e-10
-4.68315e-10
2.66458e-14
1.16841e-10
-5.8959e-10
3.33173e-15
1.20498e-10
-7.15084e-10
-1.0204e-14
1.24775e-10
-8.46016e-10
-1.58591e-14
1.30259e-10
-9.83919e-10
-1.65612e-14
1.37272e-10
-1.13047e-09
-1.47631e-14
1.45953e-10
-1.28734e-09
-1.21323e-14
1.56317e-10
-1.45616e-09
-9.67504e-15
1.68289e-10
-1.63839e-09
-7.84963e-15
1.81735e-10
-1.83533e-09
-6.74542e-15
1.96475e-10
-2.04807e-09
-6.24791e-15
2.12302e-10
-2.27747e-09
-6.18364e-15
2.28988e-10
-2.52414e-09
-6.41687e-15
2.46292e-10
-2.78846e-09
-6.83506e-15
2.63968e-10
-3.07055e-09
-7.30528e-15
2.81766e-10
-3.37029e-09
-7.69008e-15
2.99438e-10
-3.6873e-09
-7.89749e-15
3.16743e-10
-4.02099e-09
-7.90562e-15
3.33445e-10
-4.37054e-09
-7.75567e-15
3.49325e-10
-4.7349e-09
-7.49446e-15
3.64174e-10
-5.11287e-09
-7.1413e-15
3.77804e-10
-5.50306e-09
-6.69532e-15
3.90044e-10
-5.90392e-09
-6.15977e-15
4.00747e-10
-6.3138e-09
-5.53768e-15
4.09787e-10
-6.73093e-09
-4.85292e-15
4.17059e-10
-7.15346e-09
-4.13691e-15
4.22483e-10
-7.57949e-09
-3.43109e-15
4.26002e-10
-8.00707e-09
-2.79681e-15
4.27578e-10
-8.43426e-09
-2.29695e-15
4.27198e-10
-8.8591e-09
-1.98617e-15
4.24869e-10
-9.27967e-09
-1.89112e-15
4.20618e-10
-9.6941e-09
-2.00489e-15
4.14491e-10
-1.01006e-08
-2.29319e-15
4.0655e-10
-1.04973e-08
-2.70552e-15
3.96874e-10
-1.08828e-08
-3.19612e-15
3.85554e-10
-1.12553e-08
-3.73528e-15
3.72692e-10
-1.16136e-08
-4.31281e-15
3.584e-10
-1.19562e-08
-4.9324e-15
3.42796e-10
-1.2282e-08
-5.61877e-15
3.26003e-10
-1.259e-08
-6.38949e-15
3.08146e-10
-1.28791e-08
-7.25409e-15
2.89355e-10
-1.31487e-08
-8.19285e-15
2.69758e-10
-1.33979e-08
-9.16001e-15
2.49482e-10
-1.36263e-08
-1.00901e-14
2.28651e-10
-1.38334e-08
-1.09137e-14
2.07387e-10
-1.4019e-08
-1.15688e-14
1.85808e-10
-1.41827e-08
-1.20225e-14
1.64025e-10
-1.43245e-08
-1.22645e-14
1.42146e-10
-1.44445e-08
-1.23226e-14
1.2027e-10
-1.45427e-08
-1.22495e-14
9.84934e-11
-1.46193e-08
-1.2116e-14
7.69049e-11
-1.46745e-08
-1.19868e-14
5.55883e-11
-1.47088e-08
-1.18985e-14
3.46218e-11
-1.47225e-08
-1.18691e-14
1.4078e-11
-1.47162e-08
-1.18973e-14
-5.98422e-12
-1.46902e-08
-1.19663e-14
-2.55491e-11
-1.46453e-08
-1.20552e-14
-4.45958e-11
-1.45818e-08
-1.21539e-14
-6.30745e-11
-1.45004e-08
-1.22595e-14
-8.09444e-11
-1.44019e-08
-1.23643e-14
-9.81722e-11
-1.42867e-08
-1.24547e-14
-1.14733e-10
-1.41557e-08
-1.25143e-14
-1.30609e-10
-1.40095e-08
-1.25239e-14
-1.45787e-10
-1.38488e-08
-1.24831e-14
-1.60257e-10
-1.36744e-08
-1.24016e-14
-1.74013e-10
-1.34869e-08
-1.23065e-14
-1.87053e-10
-1.3287e-08
-1.22349e-14
-1.9938e-10
-1.30756e-08
-1.22248e-14
-2.10997e-10
-1.28532e-08
-1.22939e-14
-2.21912e-10
-1.26206e-08
-1.24414e-14
-2.32134e-10
-1.23785e-08
-1.26481e-14
-2.41674e-10
-1.21275e-08
-1.28784e-14
-2.50547e-10
-1.18683e-08
-1.31002e-14
-2.58764e-10
-1.16015e-08
-1.32863e-14
-2.66342e-10
-1.13277e-08
-1.34279e-14
-2.73298e-10
-1.10476e-08
-1.35333e-14
-2.79647e-10
-1.07617e-08
-1.3604e-14
-2.85409e-10
-1.04706e-08
-1.36487e-14
-2.90601e-10
-1.01748e-08
-1.36711e-14
-2.95243e-10
-9.875e-09
-1.36616e-14
-2.99354e-10
-9.57156e-09
-1.36087e-14
-3.02954e-10
-9.265e-09
-1.35081e-14
-3.06063e-10
-8.9558e-09
-1.33548e-14
-3.08702e-10
-8.64441e-09
-1.31619e-14
-3.10891e-10
-8.33127e-09
-1.29421e-14
-3.1265e-10
-8.01677e-09
-1.27216e-14
-3.14e-10
-7.70131e-09
-1.25126e-14
-3.14962e-10
-7.38525e-09
-1.2326e-14
-3.15557e-10
-7.06895e-09
-1.21576e-14
-3.15805e-10
-6.75272e-09
-1.19956e-14
-3.15725e-10
-6.43689e-09
-1.18233e-14
-3.15336e-10
-6.12173e-09
-1.16278e-14
-3.14659e-10
-5.80752e-09
-1.14041e-14
-3.13711e-10
-5.49451e-09
-1.11613e-14
-3.1251e-10
-5.18293e-09
-1.09231e-14
-3.11073e-10
-4.87301e-09
-1.07141e-14
-3.09417e-10
-4.56495e-09
-1.0568e-14
-3.07561e-10
-4.25892e-09
-1.05141e-14
-3.05519e-10
-3.95511e-09
-1.05762e-14
-3.0331e-10
-3.65365e-09
-1.07658e-14
-3.00949e-10
-3.35469e-09
-1.10821e-14
-2.98453e-10
-3.05835e-09
-1.1508e-14
-2.95837e-10
-2.76471e-09
-1.20146e-14
-2.93119e-10
-2.47389e-09
-1.2555e-14
-2.90314e-10
-2.18594e-09
-1.30794e-14
-2.87435e-10
-1.90092e-09
-1.35457e-14
-2.84495e-10
-1.61889e-09
-1.39062e-14
-2.81511e-10
-1.33986e-09
-1.413e-14
-2.78512e-10
-1.06385e-09
-1.42173e-14
-2.75486e-10
-7.90875e-10
-1.42001e-14
-2.72452e-10
-5.2088e-10
-1.41295e-14
-2.69471e-10
-2.53854e-10
-1.40459e-14
-2.665e-10
1.01527e-11
-1.39532e-14
-2.6348e-10
2.71029e-10
-1.37182e-14
-2.60349e-10
5.28709e-10
-1.33504e-14
-2.57155e-10
7.83224e-10
-1.29606e-14
-2.53993e-10
1.03461e-09
-1.25949e-14
-2.50864e-10
1.2829e-09
-1.23473e-14
-2.47776e-10
1.52815e-09
-1.22349e-14
-2.44732e-10
1.77039e-09
-1.22145e-14
-2.41736e-10
2.00969e-09
-1.22383e-14
-2.3879e-10
2.2461e-09
-1.22669e-14
-2.35898e-10
2.47967e-09
-1.22747e-14
-2.3306e-10
2.71045e-09
-1.22508e-14
-2.30278e-10
2.9385e-09
-1.22022e-14
-2.27551e-10
3.16388e-09
-1.21354e-14
-2.24877e-10
3.38663e-09
-1.20569e-14
-2.22254e-10
3.6068e-09
-1.19688e-14
-2.19676e-10
3.82443e-09
-1.18842e-14
-2.17135e-10
4.03954e-09
-1.17992e-14
-2.1462e-10
4.25215e-09
-1.17211e-14
-2.1212e-10
4.46226e-09
-1.16486e-14
-2.09617e-10
4.66984e-09
-1.15814e-14
-2.07091e-10
4.87485e-09
-1.15219e-14
-2.0452e-10
5.07722e-09
-1.14673e-14
-2.01874e-10
5.27683e-09
-1.14173e-14
-1.99123e-10
5.47355e-09
-1.13722e-14
-1.9623e-10
5.6672e-09
-1.13375e-14
-1.93155e-10
5.85754e-09
-1.13184e-14
-1.89854e-10
6.04431e-09
-1.13157e-14
-1.86275e-10
6.22717e-09
-1.13378e-14
-1.82366e-10
6.40573e-09
-1.13872e-14
-1.78066e-10
6.57954e-09
-1.14644e-14
-1.73312e-10
6.74807e-09
-1.1561e-14
-1.68035e-10
6.91074e-09
-1.16711e-14
-1.62165e-10
7.06686e-09
-1.17812e-14
-1.55625e-10
7.2157e-09
-1.18853e-14
-1.48337e-10
7.35642e-09
-1.19737e-14
-1.4022e-10
7.48812e-09
-1.20421e-14
-1.31193e-10
7.6098e-09
-1.20893e-14
-1.21171e-10
7.72038e-09
-1.21153e-14
-1.10074e-10
7.81871e-09
-1.21213e-14
-9.78201e-11
7.90356e-09
-1.21057e-14
-8.43345e-11
7.97362e-09
-1.20714e-14
-6.95487e-11
8.02755e-09
-1.20271e-14
-5.3406e-11
8.06394e-09
-1.19738e-14
-3.5868e-11
8.08138e-09
-1.19117e-14
-1.69227e-11
8.07847e-09
-1.19372e-14
3.43902e-12
8.05365e-09
-1.20568e-14
2.53526e-11
8.00525e-09
-1.22021e-14
4.89292e-11
7.93165e-09
-1.23707e-14
7.41384e-11
7.83126e-09
-1.2545e-14
1.00939e-10
7.70253e-09
-1.27132e-14
1.29269e-10
7.54405e-09
-1.28685e-14
1.59041e-10
7.35446e-09
-1.30189e-14
1.9014e-10
7.13261e-09
-1.31677e-14
2.22417e-10
6.87749e-09
-1.33164e-14
2.55684e-10
6.58836e-09
-1.34435e-14
2.89709e-10
6.26473e-09
-1.35272e-14
3.24211e-10
5.90647e-09
-1.35576e-14
3.58851e-10
5.51384e-09
-1.35473e-14
3.93229e-10
5.08757e-09
-1.353e-14
4.26875e-10
4.62896e-09
-1.3534e-14
4.59238e-10
4.13991e-09
-1.35731e-14
4.89674e-10
3.62313e-09
-1.36496e-14
5.17434e-10
3.08215e-09
-1.37655e-14
5.4164e-10
2.52156e-09
-1.39373e-14
5.61262e-10
1.94717e-09
-1.41673e-14
5.75085e-10
1.36623e-09
-1.4458e-14
5.81652e-10
7.87766e-10
-1.48103e-14
5.79193e-10
2.22927e-10
-1.52194e-14
5.65593e-10
-3.13886e-10
-1.55148e-14
5.37588e-10
-8.04606e-10
-1.56645e-14
4.91507e-10
-1.22763e-09
-1.59112e-14
4.2382e-10
-1.55753e-09
-1.62442e-14
3.30698e-10
-1.76443e-09
-1.65802e-14
2.07711e-10
-1.81447e-09
-1.68749e-14
5.08615e-11
-1.67777e-09
-1.6791e-14
-1.35853e-10
-1.3416e-09
-1.61957e-14
-3.35301e-10
-8.41293e-10
-1.56213e-14
-4.99383e-10
-3.13351e-10
-1.59084e-14
-5.26936e-10
-5.83242e-15
-3.12264e-10
6.78261e-11
-6.84329e-11
1.10022e-10
-4.40327e-11
1.01497e-10
7.31794e-12
4.96901e-11
5.06885e-11
-3.08988e-11
7.95101e-11
-1.28834e-10
9.69072e-11
-2.36712e-10
1.06893e-10
-3.50403e-10
1.12737e-10
-4.68052e-10
1.16724e-10
-5.8932e-10
1.20374e-10
-7.1483e-10
1.24653e-10
-8.45787e-10
1.30143e-10
-9.83718e-10
1.37163e-10
-1.13029e-09
1.45851e-10
-1.28719e-09
1.56221e-10
-1.45602e-09
1.68198e-10
-1.63827e-09
1.81649e-10
-1.83522e-09
1.96393e-10
-2.04796e-09
2.12223e-10
-2.27736e-09
2.28913e-10
-2.52404e-09
2.4622e-10
-2.78837e-09
2.639e-10
-3.07046e-09
2.81702e-10
-3.3702e-09
2.99379e-10
-3.68722e-09
3.16688e-10
-4.02092e-09
3.33395e-10
-4.37046e-09
3.49279e-10
-4.73483e-09
3.64133e-10
-5.1128e-09
3.77768e-10
-5.50298e-09
3.90014e-10
-5.90385e-09
4.00722e-10
-6.31372e-09
4.09766e-10
-6.73085e-09
4.17044e-10
-7.15338e-09
4.22473e-10
-7.57941e-09
4.25996e-10
-8.00699e-09
4.27576e-10
-8.43418e-09
4.272e-10
-8.85902e-09
4.24875e-10
-9.27959e-09
4.20627e-10
-9.69401e-09
4.14503e-10
-1.01005e-08
4.06565e-10
-1.04972e-08
3.96892e-10
-1.08827e-08
3.85574e-10
-1.12552e-08
3.72715e-10
-1.16135e-08
3.58425e-10
-1.19561e-08
3.42822e-10
-1.22819e-08
3.2603e-10
-1.25899e-08
3.08174e-10
-1.2879e-08
2.89384e-10
-1.31486e-08
2.69787e-10
-1.33978e-08
2.49511e-10
-1.36262e-08
2.28681e-10
-1.38333e-08
2.07418e-10
-1.40189e-08
1.8584e-10
-1.41826e-08
1.64059e-10
-1.43244e-08
1.42181e-10
-1.44444e-08
1.20307e-10
-1.45426e-08
9.85318e-11
-1.46192e-08
7.6945e-11
-1.46744e-08
5.563e-11
-1.47087e-08
3.4665e-11
-1.47224e-08
1.41225e-11
-1.4716e-08
-5.93852e-12
-1.46901e-08
-2.55022e-11
-1.46451e-08
-4.45477e-11
-1.45817e-08
-6.30254e-11
-1.45003e-08
-8.08944e-11
-1.44018e-08
-9.81215e-11
-1.42866e-08
-1.14682e-10
-1.41556e-08
-1.30557e-10
-1.40094e-08
-1.45733e-10
-1.38487e-08
-1.60201e-10
-1.36743e-08
-1.73955e-10
-1.34868e-08
-1.86994e-10
-1.32869e-08
-1.9932e-10
-1.30755e-08
-2.10936e-10
-1.28531e-08
-2.2185e-10
-1.26205e-08
-2.32073e-10
-1.23784e-08
-2.41613e-10
-1.21274e-08
-2.50485e-10
-1.18682e-08
-2.58702e-10
-1.16014e-08
-2.6628e-10
-1.13276e-08
-2.73235e-10
-1.10475e-08
-2.79585e-10
-1.07616e-08
-2.85346e-10
-1.04705e-08
-2.90538e-10
-1.01748e-08
-2.95179e-10
-9.87491e-09
-2.9929e-10
-9.57147e-09
-3.0289e-10
-9.26491e-09
-3.05999e-10
-8.95571e-09
-3.08637e-10
-8.64433e-09
-3.10825e-10
-8.33118e-09
-3.12584e-10
-8.01668e-09
-3.13934e-10
-7.70122e-09
-3.14896e-10
-7.38516e-09
-3.1549e-10
-7.06886e-09
-3.15737e-10
-6.75263e-09
-3.15656e-10
-6.4368e-09
-3.15267e-10
-6.12164e-09
-3.14588e-10
-5.80743e-09
-3.13639e-10
-5.49442e-09
-3.12436e-10
-5.18285e-09
-3.10998e-10
-4.87293e-09
-3.09341e-10
-4.56487e-09
-3.07483e-10
-4.25885e-09
-3.05441e-10
-3.95504e-09
-3.03231e-10
-3.65358e-09
-3.00869e-10
-3.35463e-09
-2.98374e-10
-3.05828e-09
-2.95759e-10
-2.76465e-09
-2.93042e-10
-2.47383e-09
-2.90238e-10
-2.18588e-09
-2.87361e-10
-1.90086e-09
-2.84422e-10
-1.61883e-09
-2.81439e-10
-1.3398e-09
-2.78441e-10
-1.06379e-09
-2.75416e-10
-7.90808e-10
-2.72381e-10
-5.20809e-10
-2.69399e-10
-2.5378e-10
-2.66428e-10
1.023e-11
-2.63407e-10
2.71109e-10
-2.60276e-10
5.2879e-10
-2.57081e-10
7.83306e-10
-2.53919e-10
1.03469e-09
-2.5079e-10
1.28298e-09
-2.47702e-10
1.52823e-09
-2.44659e-10
1.77048e-09
-2.41663e-10
2.00978e-09
-2.38718e-10
2.24618e-09
-2.35825e-10
2.47975e-09
-2.32988e-10
2.71053e-09
-2.30205e-10
2.93858e-09
-2.27478e-10
3.16395e-09
-2.24805e-10
3.3867e-09
-2.22182e-10
3.60686e-09
-2.19604e-10
3.82449e-09
-2.17063e-10
4.0396e-09
-2.14549e-10
4.25221e-09
-2.12049e-10
4.46232e-09
-2.09547e-10
4.6699e-09
-2.07021e-10
4.87491e-09
-2.0445e-10
5.07727e-09
-2.01805e-10
5.27688e-09
-1.99053e-10
5.4736e-09
-1.9616e-10
5.66725e-09
-1.93085e-10
5.85759e-09
-1.89783e-10
6.04436e-09
-1.86204e-10
6.22721e-09
-1.82294e-10
6.40577e-09
-1.77994e-10
6.57958e-09
-1.7324e-10
6.74811e-09
-1.67964e-10
6.91077e-09
-1.62094e-10
7.06689e-09
-1.55555e-10
7.21573e-09
-1.48268e-10
7.35645e-09
-1.40152e-10
7.48815e-09
-1.31126e-10
7.60983e-09
-1.21105e-10
7.72042e-09
-1.10007e-10
7.81875e-09
-9.77529e-11
7.9036e-09
-8.42662e-11
7.97366e-09
-6.94791e-11
8.02758e-09
-5.33349e-11
8.06397e-09
-3.57958e-11
8.08141e-09
-1.68497e-11
8.0785e-09
3.51262e-12
8.05368e-09
2.54263e-11
8.00528e-09
4.90028e-11
7.93168e-09
7.42117e-11
7.83128e-09
1.01012e-10
7.70256e-09
1.29341e-10
7.54407e-09
1.59114e-10
7.35449e-09
1.90213e-10
7.13264e-09
2.22492e-10
6.87752e-09
2.55761e-10
6.58839e-09
2.89788e-10
6.26476e-09
3.24291e-10
5.9065e-09
3.58934e-10
5.51387e-09
3.93315e-10
5.0876e-09
4.26964e-10
4.62898e-09
4.59329e-10
4.13993e-09
4.89769e-10
3.62314e-09
5.17531e-10
3.08216e-09
5.41739e-10
2.52157e-09
5.61365e-10
1.94718e-09
5.7519e-10
1.36624e-09
5.8176e-10
7.87777e-10
5.79303e-10
2.22939e-10
5.65705e-10
-3.13875e-10
5.37701e-10
-8.04596e-10
4.91621e-10
-1.22762e-09
4.23934e-10
-1.55752e-09
3.30812e-10
-1.76442e-09
2.07826e-10
-1.81446e-09
5.09769e-11
-1.67775e-09
-1.35736e-10
-1.34156e-09
-3.35179e-10
-8.41229e-10
-4.99252e-10
-3.1325e-10
-5.26783e-10
-3.12107e-10
4.12186e-11
-1.99412e-15
-1.11454e-10
2.55193e-11
-4.20051e-14
-3.14154e-11
-3.28186e-11
-5.18352e-15
6.37751e-11
-1.16292e-10
1.6236e-14
1.32675e-10
-2.15456e-10
1.47601e-14
1.77441e-10
-3.24502e-10
1.42148e-14
2.04908e-10
-4.40023e-10
1.0324e-14
2.21519e-10
-5.60303e-10
2.69713e-15
2.32236e-10
-6.84867e-10
-5.13026e-15
2.40593e-10
-8.14114e-10
-1.08033e-14
2.4899e-10
-9.49023e-10
-1.37835e-14
2.58981e-10
-1.09094e-09
-1.46162e-14
2.71516e-10
-1.24139e-09
-1.41278e-14
2.87114e-10
-1.40201e-09
-1.3028e-14
3.0599e-10
-1.57437e-09
-1.181e-14
3.28142e-10
-1.76e-09
-1.07571e-14
3.53411e-10
-1.96026e-09
-9.961e-15
3.81525e-10
-2.17636e-09
-9.40346e-15
4.12129e-10
-2.40928e-09
-9.02381e-15
4.44811e-10
-2.65979e-09
-8.76331e-15
4.79117e-10
-2.92843e-09
-8.56969e-15
5.14569e-10
-3.21546e-09
-8.38898e-15
5.50674e-10
-3.52093e-09
-8.1664e-15
5.86936e-10
-3.84463e-09
-7.85991e-15
6.22862e-10
-4.18611e-09
-7.45594e-15
6.5797e-10
-4.54468e-09
-6.9686e-15
6.918e-10
-4.91946e-09
-6.42643e-15
7.23911e-10
-5.30935e-09
-5.85705e-15
7.53898e-10
-5.71307e-09
-5.2753e-15
7.81385e-10
-6.12917e-09
-4.6905e-15
8.06036e-10
-6.55607e-09
-4.10776e-15
8.27559e-10
-6.99205e-09
-3.5328e-15
8.45703e-10
-7.4353e-09
-2.97226e-15
8.60262e-10
-7.88392e-09
-2.43389e-15
8.71078e-10
-8.33595e-09
-1.9303e-15
8.78036e-10
-8.78943e-09
-1.47604e-15
8.81067e-10
-9.24234e-09
-1.08829e-15
8.80145e-10
-9.6927e-09
-7.78422e-16
8.75285e-10
-1.01386e-08
-5.48508e-16
8.66542e-10
-1.0578e-08
-3.90144e-16
8.54007e-10
-1.10091e-08
-2.88312e-16
8.37802e-10
-1.14302e-08
-2.25179e-16
8.18083e-10
-1.18395e-08
-1.8459e-16
7.95029e-10
-1.22355e-08
-1.55325e-16
7.68841e-10
-1.26167e-08
-1.32125e-16
7.3974e-10
-1.29817e-08
-1.14721e-16
7.07961e-10
-1.33292e-08
-1.06095e-16
6.73748e-10
-1.36582e-08
-1.11994e-16
6.37354e-10
-1.39676e-08
-1.33882e-16
5.99034e-10
-1.42567e-08
-1.67422e-16
5.59044e-10
-1.45246e-08
-2.02964e-16
5.17641e-10
-1.47707e-08
-2.2918e-16
4.75074e-10
-1.49946e-08
-2.336e-16
4.31585e-10
-1.51959e-08
-2.10043e-16
3.87412e-10
-1.53744e-08
-1.56776e-16
3.42779e-10
-1.55298e-08
-7.61842e-17
2.979e-10
-1.56622e-08
2.74499e-17
2.52976e-10
-1.57716e-08
1.4659e-16
2.08198e-10
-1.58581e-08
2.73645e-16
1.63741e-10
-1.59219e-08
4.03573e-16
1.1977e-10
-1.59633e-08
5.36645e-16
7.6432e-11
-1.59827e-08
6.77684e-16
3.38621e-11
-1.59805e-08
8.3168e-16
-7.82439e-12
-1.59571e-08
9.93208e-16
-4.85399e-11
-1.59131e-08
1.144e-15
-8.82047e-11
-1.5849e-08
1.26704e-15
-1.26736e-10
-1.57655e-08
1.34834e-15
-1.64064e-10
-1.56631e-08
1.3872e-15
-2.00127e-10
-1.55426e-08
1.39798e-15
-2.34879e-10
-1.54045e-08
1.40604e-15
-2.68282e-10
-1.52495e-08
1.43834e-15
-3.00308e-10
-1.50784e-08
1.50934e-15
-3.30937e-10
-1.48918e-08
1.61775e-15
-3.60158e-10
-1.46904e-08
1.74632e-15
-3.87964e-10
-1.4475e-08
1.86865e-15
-4.14358e-10
-1.42462e-08
1.96367e-15
-4.39347e-10
-1.40047e-08
2.02296e-15
-4.62943e-10
-1.37512e-08
2.05125e-15
-4.85163e-10
-1.34864e-08
2.06137e-15
-5.06026e-10
-1.32109e-08
2.0677e-15
-5.25556e-10
-1.29254e-08
2.08314e-15
-5.43778e-10
-1.26305e-08
2.11375e-15
-5.60721e-10
-1.23269e-08
2.15852e-15
-5.76415e-10
-1.20152e-08
2.21401e-15
-5.90892e-10
-1.16959e-08
2.27396e-15
-6.04186e-10
-1.13697e-08
2.33525e-15
-6.16331e-10
-1.10371e-08
2.39687e-15
-6.27362e-10
-1.06986e-08
2.4631e-15
-6.37315e-10
-1.03548e-08
2.53914e-15
-6.46227e-10
-1.00063e-08
2.63024e-15
-6.54136e-10
-9.6534e-09
2.73798e-15
-6.61077e-10
-9.2967e-09
2.85874e-15
-6.6709e-10
-8.93664e-09
2.98393e-15
-6.7221e-10
-8.57366e-09
3.10295e-15
-6.76476e-10
-8.20819e-09
3.20879e-15
-6.79924e-10
-7.84066e-09
3.30276e-15
-6.82592e-10
-7.47144e-09
3.38849e-15
-6.84515e-10
-7.10094e-09
3.47248e-15
-6.85729e-10
-6.7295e-09
3.56092e-15
-6.86269e-10
-6.35749e-09
3.66052e-15
-6.8617e-10
-5.98523e-09
3.77379e-15
-6.85466e-10
-5.61304e-09
3.8993e-15
-6.8419e-10
-5.24124e-09
4.03121e-15
-6.82373e-10
-4.8701e-09
4.16247e-15
-6.80049e-10
-4.4999e-09
4.2843e-15
-6.7725e-10
-4.13091e-09
4.38716e-15
-6.74006e-10
-3.76336e-09
4.46616e-15
-6.70351e-10
-3.39748e-09
4.51817e-15
-6.66316e-10
-3.03349e-09
4.54405e-15
-6.61932e-10
-2.67158e-09
4.54901e-15
-6.57231e-10
-2.31194e-09
4.54259e-15
-6.52246e-10
-1.95474e-09
4.53747e-15
-6.47006e-10
-1.60011e-09
4.54742e-15
-6.41543e-10
-1.24821e-09
4.58534e-15
-6.35882e-10
-8.99138e-10
4.66023e-15
-6.30065e-10
-5.53003e-10
4.78575e-15
-6.24128e-10
-2.09878e-10
4.96905e-15
-6.18092e-10
1.3011e-10
5.19387e-15
-6.11919e-10
4.66729e-10
5.43377e-15
-6.05568e-10
7.99842e-10
5.64614e-15
-5.99092e-10
1.1294e-09
5.77861e-15
-5.92517e-10
1.45538e-09
5.79432e-15
-5.85802e-10
1.77773e-09
5.69262e-15
-5.78994e-10
2.09643e-09
5.51342e-15
-5.72176e-10
2.41145e-09
5.27849e-15
-5.65365e-10
2.72277e-09
4.99771e-15
-5.58584e-10
3.0304e-09
4.68408e-15
-5.51845e-10
3.33433e-09
4.35863e-15
-5.45162e-10
3.6346e-09
4.04272e-15
-5.38545e-10
3.93121e-09
3.75154e-15
-5.32004e-10
4.2242e-09
3.49342e-15
-5.25545e-10
4.5136e-09
3.26913e-15
-5.19175e-10
4.79945e-09
3.07541e-15
-5.12895e-10
5.08178e-09
2.91053e-15
-5.06705e-10
5.36063e-09
2.77124e-15
-5.00601e-10
5.63602e-09
2.65494e-15
-4.94571e-10
5.90799e-09
2.55652e-15
-4.88604e-10
6.17655e-09
2.47221e-15
-4.82677e-10
6.44169e-09
2.3983e-15
-4.76766e-10
6.70341e-09
2.33231e-15
-4.70837e-10
6.96167e-09
2.27185e-15
-4.64849e-10
7.2164e-09
2.21486e-15
-4.58754e-10
7.46752e-09
2.16069e-15
-4.52494e-10
7.7149e-09
2.10619e-15
-4.46003e-10
7.95838e-09
2.05061e-15
-4.39207e-10
8.19775e-09
1.99112e-15
-4.3202e-10
8.43274e-09
1.92719e-15
-4.24348e-10
8.66306e-09
1.85806e-15
-4.16088e-10
8.88833e-09
1.78373e-15
-4.07123e-10
9.1081e-09
1.70387e-15
-3.97329e-10
9.32187e-09
1.61729e-15
-3.86573e-10
9.52906e-09
1.52573e-15
-3.74711e-10
9.729e-09
1.43125e-15
-3.61591e-10
9.92095e-09
1.33774e-15
-3.47055e-10
1.01041e-08
1.24879e-15
-3.30936e-10
1.02774e-08
1.16602e-15
-3.13064e-10
1.044e-08
1.08888e-15
-2.93265e-10
1.05907e-08
1.01663e-15
-2.71363e-10
1.07284e-08
9.48376e-16
-2.47181e-10
1.08516e-08
8.85974e-16
-2.20548e-10
1.09591e-08
8.31915e-16
-1.91299e-10
1.10494e-08
7.87392e-16
-1.5928e-10
1.11209e-08
7.52083e-16
-1.24352e-10
1.11719e-08
7.22303e-16
-8.63963e-11
1.12009e-08
6.86449e-16
-4.53176e-11
1.12059e-08
6.49273e-16
-1.03964e-12
1.11852e-08
6.07243e-16
4.6576e-11
1.11371e-08
5.51882e-16
9.76471e-11
1.10596e-08
4.95329e-16
1.52176e-10
1.0951e-08
4.43002e-16
2.10117e-10
1.08095e-08
3.98583e-16
2.71374e-10
1.06333e-08
3.60768e-16
3.35795e-10
1.04208e-08
3.27713e-16
4.03162e-10
1.01707e-08
3.01256e-16
4.73191e-10
9.88142e-09
2.8747e-16
5.45511e-10
9.55207e-09
2.96869e-16
6.19666e-10
9.1818e-09
3.38996e-16
6.95093e-10
8.77015e-09
4.1385e-16
7.71119e-10
8.31708e-09
5.1395e-16
8.46937e-10
7.823e-09
6.2477e-16
9.216e-10
7.2889e-09
7.40345e-16
9.93992e-10
6.71643e-09
8.60568e-16
1.06281e-09
6.10801e-09
9.85874e-16
1.12654e-09
5.46696e-09
1.10607e-15
1.18339e-09
4.79765e-09
1.21162e-15
1.2313e-09
4.10567e-09
1.29786e-15
1.2678e-09
3.39809e-09
1.36501e-15
1.29e-09
2.68368e-09
1.40125e-15
1.29439e-09
1.9733e-09
1.39608e-15
1.27678e-09
1.27994e-09
1.32314e-15
1.23177e-09
6.19205e-10
1.16664e-15
1.15308e-09
9.88635e-12
9.67444e-16
1.03399e-09
-5.24682e-10
7.51393e-16
8.66141e-10
-9.57696e-10
5.0919e-16
6.41625e-10
-1.26002e-09
3.17383e-16
3.54115e-10
-1.39862e-09
3.50548e-16
3.72927e-12
-1.33971e-09
7.47904e-16
-3.93154e-10
-1.05152e-09
1.14428e-15
-7.86372e-10
-5.26164e-10
1.28112e-15
-1.05083e-09
1.23577e-14
-8.37433e-10
4.07386e-11
-1.11641e-10
2.51648e-11
-3.13374e-11
-3.30727e-11
6.4024e-11
-1.1639e-10
1.3285e-10
-2.15428e-10
1.77554e-10
-3.24377e-10
2.0497e-10
-4.39834e-10
2.21541e-10
-5.60086e-10
2.32233e-10
-6.84649e-10
2.40577e-10
-8.13911e-10
2.48967e-10
-9.48841e-10
2.58955e-10
-1.09077e-09
2.71488e-10
-1.24125e-09
2.87085e-10
-1.40187e-09
3.05961e-10
-1.57424e-09
3.28114e-10
-1.75988e-09
3.53384e-10
-1.96014e-09
3.81499e-10
-2.17624e-09
4.12105e-10
-2.40917e-09
4.44787e-10
-2.65968e-09
4.79094e-10
-2.92832e-09
5.14546e-10
-3.21536e-09
5.50652e-10
-3.52084e-09
5.86913e-10
-3.84454e-09
6.22839e-10
-4.18601e-09
6.57948e-10
-4.54459e-09
6.91778e-10
-4.91937e-09
7.23892e-10
-5.30925e-09
7.5388e-10
-5.71297e-09
7.81369e-10
-6.12908e-09
8.06023e-10
-6.55598e-09
8.27548e-10
-6.99196e-09
8.45693e-10
-7.4352e-09
8.60255e-10
-7.88382e-09
8.71073e-10
-8.33585e-09
8.78033e-10
-8.78932e-09
8.81066e-10
-9.24223e-09
8.80146e-10
-9.69259e-09
8.75287e-10
-1.01384e-08
8.66545e-10
-1.05779e-08
8.54011e-10
-1.1009e-08
8.37807e-10
-1.14301e-08
8.18089e-10
-1.18394e-08
7.95035e-10
-1.22354e-08
7.68847e-10
-1.26166e-08
7.39746e-10
-1.29815e-08
7.07966e-10
-1.33291e-08
6.73752e-10
-1.3658e-08
6.37357e-10
-1.39675e-08
5.99036e-10
-1.42565e-08
5.59046e-10
-1.45244e-08
5.17642e-10
-1.47706e-08
4.75074e-10
-1.49945e-08
4.31586e-10
-1.51958e-08
3.87413e-10
-1.53742e-08
3.4278e-10
-1.55297e-08
2.97901e-10
-1.56621e-08
2.52977e-10
-1.57714e-08
2.08199e-10
-1.58579e-08
1.63742e-10
-1.59217e-08
1.1977e-10
-1.59632e-08
7.64324e-11
-1.59826e-08
3.38624e-11
-1.59804e-08
-7.82385e-12
-1.5957e-08
-4.85388e-11
-1.5913e-08
-8.82028e-11
-1.58489e-08
-1.26734e-10
-1.57654e-08
-1.64061e-10
-1.5663e-08
-2.00124e-10
-1.55424e-08
-2.34876e-10
-1.54043e-08
-2.68279e-10
-1.52494e-08
-3.00305e-10
-1.50782e-08
-3.30933e-10
-1.48917e-08
-3.60153e-10
-1.46903e-08
-3.87958e-10
-1.44749e-08
-4.14352e-10
-1.4246e-08
-4.3934e-10
-1.40045e-08
-4.62937e-10
-1.37511e-08
-4.85157e-10
-1.34862e-08
-5.0602e-10
-1.32107e-08
-5.2555e-10
-1.29253e-08
-5.43772e-10
-1.26304e-08
-5.60715e-10
-1.23268e-08
-5.7641e-10
-1.20151e-08
-5.90887e-10
-1.16958e-08
-6.04181e-10
-1.13696e-08
-6.16326e-10
-1.1037e-08
-6.27357e-10
-1.06985e-08
-6.37311e-10
-1.03547e-08
-6.46223e-10
-1.00062e-08
-6.54131e-10
-9.65329e-09
-6.61073e-10
-9.29659e-09
-6.67085e-10
-8.93653e-09
-6.72205e-10
-8.57356e-09
-6.76471e-10
-8.20809e-09
-6.79918e-10
-7.84056e-09
-6.82585e-10
-7.47135e-09
-6.84508e-10
-7.10084e-09
-6.85721e-10
-6.72941e-09
-6.86261e-10
-6.35739e-09
-6.86161e-10
-5.98514e-09
-6.85455e-10
-5.61295e-09
-6.84177e-10
-5.24115e-09
-6.8236e-10
-4.87001e-09
-6.80035e-10
-4.49981e-09
-6.77234e-10
-4.13082e-09
-6.7399e-10
-3.76327e-09
-6.70335e-10
-3.39739e-09
-6.66299e-10
-3.0334e-09
-6.61916e-10
-2.6715e-09
-6.57216e-10
-2.31186e-09
-6.52232e-10
-1.95465e-09
-6.46993e-10
-1.60003e-09
-6.41532e-10
-1.24813e-09
-6.35873e-10
-8.99059e-10
-6.30058e-10
-5.52926e-10
-6.24121e-10
-2.09802e-10
-6.18086e-10
1.30185e-10
-6.11913e-10
4.66803e-10
-6.05562e-10
7.99916e-10
-5.99086e-10
1.12948e-09
-5.9251e-10
1.45545e-09
-5.85795e-10
1.77781e-09
-5.78986e-10
2.09651e-09
-5.72167e-10
2.41152e-09
-5.65356e-10
2.72285e-09
-5.58575e-10
3.03047e-09
-5.51836e-10
3.33441e-09
-5.45152e-10
3.63467e-09
-5.38535e-10
3.93128e-09
-5.31993e-10
4.22427e-09
-5.25534e-10
4.51367e-09
-5.19164e-10
4.79951e-09
-5.12884e-10
5.08184e-09
-5.06694e-10
5.36069e-09
-5.00589e-10
5.63608e-09
-4.9456e-10
5.90805e-09
-4.88593e-10
6.1766e-09
-4.82667e-10
6.44175e-09
-4.76756e-10
6.70346e-09
-4.70827e-10
6.96172e-09
-4.6484e-10
7.21645e-09
-4.58745e-10
7.46757e-09
-4.52485e-10
7.71495e-09
-4.45994e-10
7.95843e-09
-4.39198e-10
8.1978e-09
-4.32011e-10
8.43279e-09
-4.24339e-10
8.66311e-09
-4.16077e-10
8.88837e-09
-4.07112e-10
9.10815e-09
-3.97319e-10
9.32192e-09
-3.86564e-10
9.52911e-09
-3.74702e-10
9.72905e-09
-3.61583e-10
9.92099e-09
-3.47047e-10
1.01041e-08
-3.30929e-10
1.02775e-08
-3.13059e-10
1.04401e-08
-2.93261e-10
1.05908e-08
-2.71359e-10
1.07284e-08
-2.47178e-10
1.08517e-08
-2.20544e-10
1.09592e-08
-1.91294e-10
1.10494e-08
-1.59274e-10
1.11209e-08
-1.24344e-10
1.1172e-08
-8.63878e-11
1.12009e-08
-4.53086e-11
1.1206e-08
-1.03061e-12
1.11853e-08
4.65846e-11
1.11371e-08
9.7655e-11
1.10596e-08
1.52182e-10
1.0951e-08
2.10123e-10
1.08095e-08
2.71379e-10
1.06333e-08
3.35799e-10
1.04209e-08
4.03167e-10
1.01707e-08
4.73196e-10
9.88146e-09
5.45518e-10
9.55211e-09
6.19674e-10
9.18184e-09
6.95103e-10
8.77019e-09
7.7113e-10
8.31711e-09
8.46951e-10
7.82303e-09
9.21615e-10
7.28893e-09
9.94009e-10
6.71646e-09
1.06283e-09
6.10804e-09
1.12656e-09
5.46699e-09
1.18341e-09
4.79767e-09
1.23132e-09
4.10569e-09
1.26782e-09
3.39811e-09
1.29002e-09
2.6837e-09
1.29441e-09
1.97331e-09
1.2768e-09
1.27995e-09
1.23179e-09
6.19213e-10
1.1531e-09
9.89089e-12
1.03402e-09
-5.2468e-10
8.66163e-10
-9.57696e-10
6.41646e-10
-1.26002e-09
3.54137e-10
-1.39862e-09
3.75214e-12
-1.33969e-09
-3.93128e-10
-1.05148e-09
-7.86336e-10
-5.2606e-10
-1.05077e-09
-8.37368e-10
-1.05223e-11
3.00355e-14
-1.02223e-10
-7.07565e-11
1.00014e-14
2.72197e-11
-1.4886e-10
4.17187e-14
1.41253e-10
-2.36597e-10
3.77062e-14
2.19976e-10
-3.31609e-10
1.92561e-14
2.72105e-10
-4.32736e-10
8.28709e-15
3.05742e-10
-5.39308e-10
2.33871e-15
3.27836e-10
-6.51103e-10
-1.95054e-15
3.43805e-10
-7.68343e-10
-5.13899e-15
3.57629e-10
-8.9164e-10
-7.13313e-15
3.72102e-10
-1.02192e-09
-8.032e-15
3.89091e-10
-1.16033e-09
-8.12807e-15
4.09769e-10
-1.30815e-09
-7.72947e-15
4.34789e-10
-1.46672e-09
-7.10458e-15
4.64421e-10
-1.63736e-09
-6.47008e-15
4.98652e-10
-1.82132e-09
-5.95674e-15
5.37256e-10
-2.01976e-09
-5.60016e-15
5.79851e-10
-2.23367e-09
-5.38218e-15
6.25938e-10
-2.46388e-09
-5.26584e-15
6.74929e-10
-2.71103e-09
-5.20934e-15
7.26178e-10
-2.97555e-09
-5.16969e-15
7.78999e-10
-3.25763e-09
-5.10629e-15
8.32681e-10
-3.55727e-09
-4.98683e-15
8.86507e-10
-3.87424e-09
-4.79213e-15
9.39764e-10
-4.20808e-09
-4.52001e-15
9.91755e-10
-4.55814e-09
-4.18457e-15
1.04181e-09
-4.92357e-09
-3.8112e-15
1.08929e-09
-5.30332e-09
-3.4267e-15
1.13361e-09
-5.69619e-09
-3.04874e-15
1.17422e-09
-6.10081e-09
-2.68574e-15
1.21063e-09
-6.51569e-09
-2.33992e-15
1.24241e-09
-6.9392e-09
-2.01351e-15
1.2692e-09
-7.36963e-09
-1.70828e-15
1.29069e-09
-7.80521e-09
-1.42669e-15
1.30664e-09
-8.24408e-09
-1.17149e-15
1.3169e-09
-8.68436e-09
-9.47995e-16
1.32135e-09
-9.12417e-09
-7.62607e-16
1.31996e-09
-9.56161e-09
-6.20854e-16
1.31274e-09
-9.99481e-09
-5.24091e-16
1.29976e-09
-1.0422e-08
-4.68306e-16
1.28117e-09
-1.08412e-08
-4.45205e-16
1.25712e-09
-1.1251e-08
-4.43295e-16
1.22785e-09
-1.16495e-08
-4.50571e-16
1.19362e-09
-1.20354e-08
-4.5749e-16
1.15471e-09
-1.2407e-08
-4.56465e-16
1.11144e-09
-1.27632e-08
-4.43294e-16
1.06416e-09
-1.31026e-08
-4.16324e-16
1.01322e-09
-1.34242e-08
-3.77101e-16
9.58993e-10
-1.37269e-08
-3.27983e-16
9.01848e-10
-1.401e-08
-2.72168e-16
8.42164e-10
-1.42726e-08
-2.11961e-16
7.80317e-10
-1.45141e-08
-1.48933e-16
7.16674e-10
-1.47341e-08
-8.50906e-17
6.51595e-10
-1.4932e-08
-2.61519e-17
5.85428e-10
-1.51077e-08
1.97243e-17
5.18507e-10
-1.52608e-08
4.60325e-17
4.51148e-10
-1.53914e-08
5.30165e-17
3.83652e-10
-1.54994e-08
4.88343e-17
3.163e-10
-1.5585e-08
4.77699e-17
2.49353e-10
-1.56482e-08
6.76579e-17
1.83053e-10
-1.56892e-08
1.23731e-16
1.17619e-10
-1.57085e-08
2.22982e-16
5.32488e-11
-1.57064e-08
3.60125e-16
-9.88224e-12
-1.56832e-08
5.15455e-16
-7.16203e-11
-1.56395e-08
6.59998e-16
-1.31829e-10
-1.55757e-08
7.6757e-16
-1.90388e-10
-1.54925e-08
8.22831e-16
-2.47193e-10
-1.53903e-08
8.27623e-16
-3.02156e-10
-1.52699e-08
8.00161e-16
-3.55204e-10
-1.51318e-08
7.68009e-16
-4.06279e-10
-1.49766e-08
7.55536e-16
-4.55336e-10
-1.48051e-08
7.75506e-16
-5.02344e-10
-1.46179e-08
8.26429e-16
-5.47281e-10
-1.44156e-08
8.95215e-16
-5.90137e-10
-1.41989e-08
9.65574e-16
-6.30911e-10
-1.39685e-08
1.0255e-15
-6.69611e-10
-1.37251e-08
1.07182e-15
-7.06251e-10
-1.34693e-08
1.10773e-15
-7.40854e-10
-1.32018e-08
1.13849e-15
-7.73444e-10
-1.29231e-08
1.16846e-15
-8.04054e-10
-1.26341e-08
1.20123e-15
-8.32719e-10
-1.23352e-08
1.23857e-15
-8.59478e-10
-1.20271e-08
1.27966e-15
-8.84374e-10
-1.17104e-08
1.32248e-15
-9.07451e-10
-1.13857e-08
1.36547e-15
-9.28756e-10
-1.10536e-08
1.40853e-15
-9.48338e-10
-1.07146e-08
1.45385e-15
-9.66247e-10
-1.03693e-08
1.50594e-15
-9.82533e-10
-1.00181e-08
1.5683e-15
-9.97248e-10
-9.66168e-09
1.64275e-15
-1.01044e-09
-9.30046e-09
1.72741e-15
-1.02217e-09
-8.93494e-09
1.81807e-15
-1.03249e-09
-8.56558e-09
1.90745e-15
-1.04144e-09
-8.19285e-09
1.98984e-15
-1.04909e-09
-7.81717e-09
2.06312e-15
-1.05548e-09
-7.43898e-09
2.12919e-15
-1.06066e-09
-7.05869e-09
2.19155e-15
-1.06469e-09
-6.67668e-09
2.25309e-15
-1.06761e-09
-6.29334e-09
2.31721e-15
-1.06948e-09
-5.90905e-09
2.38727e-15
-1.07035e-09
-5.52413e-09
2.46477e-15
-1.07026e-09
-5.13895e-09
2.54982e-15
-1.06925e-09
-4.75381e-09
2.64061e-15
-1.06739e-09
-4.36903e-09
2.73356e-15
-1.06471e-09
-3.98491e-09
2.82501e-15
-1.06126e-09
-3.60171e-09
2.91054e-15
-1.05708e-09
-3.21971e-09
2.98864e-15
-1.05223e-09
-2.83916e-09
3.05851e-15
-1.04675e-09
-2.46028e-09
3.12237e-15
-1.04069e-09
-2.08331e-09
3.1834e-15
-1.03409e-09
-1.70844e-09
3.24726e-15
-1.027e-09
-1.33586e-09
3.32022e-15
-1.01947e-09
-9.65737e-10
3.40917e-15
-1.01154e-09
-5.98236e-10
3.52122e-15
-1.00326e-09
-2.33493e-10
3.66048e-15
-9.94689e-10
1.28321e-10
3.82945e-15
-9.85823e-10
4.86977e-10
4.02931e-15
-9.76629e-10
8.42307e-10