/*--------------------------------*- C++ -*----------------------------------*\
  =========                 |
  \\      /  F ield         | OpenFOAM: The Open Source CFD Toolbox
   \\    /   O peration     | Website:  https://openfoam.org
    \\  /    A nd           | Version:  8
     \\/     M anipulation  |
\*---------------------------------------------------------------------------*/
FoamFile
{
    version     2.0;
    format      ascii;
    class       volScalarField;
    location    "2000";
    object      T;
}
// * * * * * * * * * * * * * * * * * * * * * * * * * * * * * * * * * * * * * //

dimensions      [0 0 0 1 0 0 0];

internalField   nonuniform List<scalar> 
46000
(
311.251
310.717
310.114
309.641
309.275
308.981
308.736
308.528
308.346
308.186
308.044
307.917
307.802
307.699
307.606
307.521
307.444
307.374
307.31
307.253
307.2
307.152
307.108
307.067
307.031
306.997
306.966
306.938
306.912
306.888
306.866
306.845
306.825
306.807
306.79
306.774
306.759
306.745
306.731
306.718
306.705
306.694
306.682
306.671
306.661
306.651
306.641
306.632
306.624
306.616
306.609
306.602
306.596
306.59
306.586
306.581
306.578
306.575
306.573
306.572
306.572
306.572
306.573
306.574
306.576
306.579
306.583
306.588
306.594
306.6
306.607
306.615
306.624
306.634
306.645
306.656
306.668
306.681
306.694
306.708
306.723
306.739
306.755
306.771
306.788
306.806
306.824
306.842
306.861
306.88
306.9
306.919
306.939
306.959
306.98
307
307.02
307.041
307.061
307.082
307.102
307.122
307.142
307.162
307.182
307.201
307.22
307.239
307.258
307.276
307.294
307.312
307.329
307.346
307.362
307.378
307.394
307.409
307.424
307.438
307.452
307.466
307.479
307.492
307.505
307.517
307.529
307.541
307.552
307.563
307.574
307.585
307.596
307.607
307.617
307.628
307.638
307.649
307.66
307.67
307.681
307.693
307.704
307.717
307.729
307.742
307.756
307.77
307.785
307.801
307.818
307.835
307.854
307.874
307.896
307.918
307.943
307.969
307.996
308.026
308.057
308.09
308.126
308.164
308.204
308.246
308.291
308.338
308.387
308.439
308.495
308.553
308.614
308.679
308.747
308.818
308.892
308.97
309.051
309.135
309.223
309.314
309.407
309.504
309.603
309.705
309.809
309.914
310.022
310.132
310.244
310.357
310.474
310.598
310.733
310.883
311.061
311.292
311.589
311.842
311.251
310.717
310.114
309.641
309.275
308.981
308.736
308.528
308.346
308.186
308.044
307.917
307.802
307.699
307.606
307.521
307.444
307.374
307.31
307.252
307.2
307.151
307.108
307.067
307.031
306.997
306.966
306.938
306.912
306.888
306.866
306.845
306.825
306.807
306.79
306.774
306.759
306.745
306.731
306.718
306.705
306.693
306.682
306.671
306.661
306.651
306.641
306.632
306.624
306.616
306.609
306.602
306.596
306.59
306.586
306.581
306.578
306.575
306.573
306.572
306.572
306.572
306.573
306.574
306.576
306.579
306.583
306.588
306.594
306.6
306.607
306.615
306.624
306.634
306.645
306.656
306.668
306.681
306.694
306.708
306.723
306.739
306.755
306.771
306.788
306.806
306.824
306.842
306.861
306.88
306.9
306.919
306.939
306.959
306.98
307
307.02
307.041
307.061
307.082
307.102
307.122
307.142
307.162
307.182
307.201
307.22
307.239
307.258
307.276
307.294
307.312
307.329
307.346
307.362
307.378
307.394
307.409
307.424
307.438
307.452
307.466
307.479
307.492
307.505
307.517
307.529
307.541
307.552
307.563
307.574
307.585
307.596
307.607
307.617
307.628
307.638
307.649
307.66
307.67
307.681
307.693
307.704
307.717
307.729
307.742
307.756
307.77
307.785
307.801
307.818
307.835
307.854
307.874
307.896
307.919
307.943
307.969
307.996
308.026
308.057
308.09
308.126
308.164
308.204
308.246
308.291
308.338
308.387
308.439
308.495
308.553
308.614
308.679
308.747
308.818
308.892
308.97
309.051
309.135
309.223
309.314
309.407
309.504
309.603
309.705
309.809
309.915
310.022
310.132
310.244
310.357
310.474
310.598
310.733
310.883
311.061
311.292
311.589
311.842
308.144
307.547
307.013
306.61
306.297
306.045
305.838
305.664
305.515
305.387
305.275
305.178
305.093
305.018
304.952
304.895
304.845
304.801
304.763
304.73
304.702
304.677
304.657
304.639
304.624
304.612
304.601
304.593
304.586
304.58
304.576
304.572
304.569
304.566
304.564
304.561
304.559
304.557
304.555
304.553
304.55
304.548
304.545
304.542
304.538
304.534
304.53
304.526
304.522
304.517
304.512
304.508
304.503
304.498
304.493
304.488
304.483
304.479
304.474
304.47
304.466
304.462
304.458
304.455
304.452
304.449
304.447
304.445
304.444
304.443
304.442
304.442
304.443
304.443
304.445
304.447
304.449
304.452
304.455
304.459
304.463
304.467
304.473
304.478
304.484
304.49
304.497
304.504
304.512
304.519
304.527
304.536
304.545
304.554
304.563
304.573
304.583
304.593
304.603
304.614
304.624
304.635
304.646
304.658
304.669
304.681
304.692
304.704
304.716
304.728
304.74
304.752
304.764
304.776
304.788
304.8
304.813
304.825
304.838
304.85
304.863
304.875
304.888
304.901
304.913
304.926
304.939
304.952
304.965
304.978
304.991
305.005
305.018
305.032
305.046
305.06
305.074
305.089
305.104
305.119
305.135
305.151
305.167
305.184
305.202
305.22
305.239
305.258
305.279
305.3
305.322
305.346
305.37
305.395
305.422
305.451
305.48
305.511
305.544
305.579
305.616
305.655
305.695
305.738
305.784
305.831
305.882
305.935
305.99
306.049
306.11
306.175
306.243
306.314
306.388
306.466
306.548
306.633
306.722
306.814
306.909
307.008
307.11
307.215
307.322
307.432
307.543
307.656
307.77
307.885
308
308.116
308.234
308.356
308.487
308.635
308.811
309.035
309.334
309.649
308.144
307.547
307.014
306.611
306.297
306.045
305.838
305.664
305.515
305.386
305.275
305.178
305.093
305.018
304.952
304.895
304.845
304.801
304.763
304.73
304.702
304.677
304.657
304.639
304.624
304.612
304.601
304.593
304.586
304.58
304.576
304.572
304.569
304.566
304.564
304.561
304.559
304.557
304.555
304.553
304.55
304.548
304.545
304.542
304.538
304.534
304.53
304.526
304.522
304.517
304.512
304.508
304.503
304.498
304.493
304.488
304.483
304.479
304.474
304.47
304.466
304.462
304.458
304.455
304.452
304.449
304.447
304.445
304.444
304.443
304.442
304.442
304.443
304.443
304.445
304.447
304.449
304.452
304.455
304.459
304.463
304.468
304.473
304.478
304.484
304.49
304.497
304.504
304.512
304.519
304.528
304.536
304.545
304.554
304.563
304.573
304.583
304.593
304.603
304.614
304.625
304.635
304.647
304.658
304.669
304.681
304.692
304.704
304.716
304.728
304.74
304.752
304.764
304.776
304.788
304.801
304.813
304.825
304.838
304.85
304.863
304.875
304.888
304.901
304.913
304.926
304.939
304.952
304.965
304.978
304.991
305.005
305.018
305.032
305.046
305.06
305.074
305.089
305.104
305.119
305.135
305.151
305.167
305.184
305.202
305.22
305.239
305.258
305.279
305.3
305.322
305.346
305.37
305.395
305.422
305.451
305.48
305.512
305.544
305.579
305.616
305.655
305.695
305.738
305.784
305.831
305.882
305.935
305.99
306.049
306.11
306.175
306.243
306.314
306.388
306.466
306.548
306.633
306.722
306.814
306.909
307.008
307.11
307.215
307.322
307.432
307.543
307.656
307.77
307.885
308
308.116
308.234
308.356
308.487
308.635
308.811
309.035
309.334
309.649
306.111
305.789
305.479
305.216
304.992
304.801
304.638
304.497
304.375
304.27
304.178
304.098
304.028
303.967
303.915
303.869
303.83
303.797
303.768
303.745
303.725
303.709
303.697
303.687
303.68
303.674
303.671
303.669
303.668
303.669
303.67
303.672
303.674
303.677
303.679
303.682
303.684
303.686
303.688
303.69
303.691
303.691
303.692
303.691
303.69
303.689
303.687
303.685
303.682
303.679
303.676
303.672
303.668
303.664
303.659
303.655
303.65
303.645
303.64
303.635
303.631
303.626
303.621
303.617
303.612
303.608
303.605
303.601
303.598
303.595
303.592
303.59
303.588
303.586
303.585
303.584
303.583
303.583
303.584
303.584
303.585
303.587
303.589
303.591
303.594
303.597
303.6
303.604
303.608
303.612
303.617
303.622
303.628
303.634
303.64
303.646
303.653
303.66
303.667
303.675
303.682
303.69
303.699
303.707
303.716
303.725
303.734
303.743
303.753
303.763
303.773
303.783
303.793
303.804
303.815
303.826
303.837
303.848
303.859
303.871
303.883
303.895
303.907
303.919
303.931
303.944
303.957
303.97
303.983
303.996
304.01
304.024
304.038
304.052
304.067
304.082
304.097
304.113
304.128
304.145
304.161
304.179
304.196
304.215
304.233
304.253
304.273
304.294
304.316
304.339
304.362
304.387
304.413
304.44
304.468
304.498
304.529
304.561
304.596
304.632
304.67
304.71
304.752
304.796
304.843
304.892
304.943
304.997
305.054
305.113
305.176
305.241
305.31
305.382
305.457
305.536
305.618
305.703
305.792
305.884
305.979
306.077
306.178
306.281
306.387
306.494
306.603
306.712
306.822
306.932
307.04
307.148
307.255
307.363
307.473
307.587
307.712
307.849
308.003
308.158
306.111
305.789
305.479
305.216
304.992
304.801
304.637
304.497
304.375
304.27
304.178
304.098
304.028
303.967
303.914
303.869
303.83
303.797
303.768
303.745
303.725
303.709
303.697
303.687
303.68
303.674
303.671
303.669
303.668
303.669
303.67
303.672
303.674
303.677
303.679
303.682
303.684
303.686
303.688
303.69
303.691
303.691
303.692
303.691
303.69
303.689
303.687
303.685
303.682
303.679
303.676
303.672
303.668
303.664
303.659
303.655
303.65
303.645
303.64
303.635
303.631
303.626
303.621
303.617
303.613
303.608
303.605
303.601
303.598
303.595
303.592
303.59
303.588
303.586
303.585
303.584
303.583
303.583
303.584
303.584
303.585
303.587
303.589
303.591
303.594
303.597
303.6
303.604
303.608
303.612
303.617
303.622
303.628
303.634
303.64
303.646
303.653
303.66
303.667
303.675
303.682
303.69
303.699
303.707
303.716
303.725
303.734
303.743
303.753
303.763
303.773
303.783
303.793
303.804
303.815
303.826
303.837
303.848
303.859
303.871
303.883
303.895
303.907
303.919
303.932
303.944
303.957
303.97
303.983
303.997
304.01
304.024
304.038
304.052
304.067
304.082
304.097
304.113
304.128
304.145
304.161
304.179
304.196
304.215
304.233
304.253
304.273
304.294
304.316
304.339
304.362
304.387
304.413
304.44
304.468
304.498
304.529
304.561
304.596
304.632
304.67
304.71
304.752
304.796
304.843
304.892
304.943
304.997
305.054
305.113
305.176
305.241
305.31
305.382
305.457
305.536
305.618
305.703
305.792
305.884
305.979
306.077
306.178
306.281
306.387
306.494
306.603
306.712
306.822
306.932
307.04
307.148
307.255
307.363
307.473
307.587
307.712
307.849
308.003
308.158
304.827
304.67
304.497
304.328
304.171
304.027
303.899
303.786
303.686
303.598
303.52
303.453
303.394
303.342
303.298
303.26
303.228
303.201
303.179
303.161
303.146
303.135
303.127
303.121
303.118
303.117
303.117
303.118
303.121
303.125
303.129
303.134
303.139
303.144
303.149
303.154
303.159
303.163
303.167
303.171
303.174
303.177
303.178
303.18
303.18
303.181
303.18
303.179
303.177
303.175
303.173
303.17
303.166
303.163
303.159
303.154
303.15
303.145
303.14
303.135
303.13
303.125
303.121
303.116
303.111
303.106
303.102
303.097
303.093
303.089
303.086
303.083
303.08
303.077
303.075
303.073
303.071
303.069
303.069
303.068
303.068
303.068
303.068
303.069
303.07
303.072
303.074
303.076
303.079
303.082
303.085
303.089
303.093
303.097
303.102
303.107
303.112
303.117
303.123
303.129
303.136
303.143
303.15
303.157
303.164
303.172
303.18
303.189
303.197
303.206
303.215
303.224
303.234
303.244
303.253
303.264
303.274
303.285
303.296
303.307
303.318
303.329
303.341
303.353
303.365
303.378
303.39
303.403
303.416
303.429
303.443
303.457
303.471
303.485
303.5
303.515
303.53
303.546
303.562
303.579
303.596
303.613
303.631
303.65
303.669
303.689
303.71
303.731
303.753
303.777
303.801
303.826
303.852
303.88
303.909
303.939
303.97
304.004
304.039
304.075
304.114
304.154
304.197
304.241
304.288
304.338
304.39
304.444
304.501
304.561
304.624
304.69
304.758
304.83
304.906
304.984
305.066
305.15
305.238
305.329
305.423
305.52
305.619
305.721
305.824
305.928
306.034
306.139
306.245
306.349
306.452
306.552
306.65
306.746
306.838
306.928
307.016
307.096
307.163
307.209
304.827
304.67
304.497
304.328
304.171
304.027
303.899
303.786
303.686
303.598
303.52
303.453
303.394
303.342
303.298
303.26
303.228
303.201
303.179
303.161
303.146
303.135
303.127
303.121
303.118
303.117
303.117
303.118
303.121
303.125
303.129
303.134
303.139
303.144
303.149
303.154
303.159
303.163
303.167
303.171
303.174
303.177
303.178
303.18
303.18
303.181
303.18
303.179
303.177
303.175
303.173
303.17
303.166
303.163
303.159
303.154
303.15
303.145
303.14
303.135
303.13
303.125
303.121
303.116
303.111
303.106
303.102
303.097
303.093
303.089
303.086
303.083
303.08
303.077
303.075
303.073
303.071
303.069
303.069
303.068
303.068
303.068
303.068
303.069
303.07
303.072
303.074
303.076
303.079
303.082
303.085
303.089
303.093
303.097
303.102
303.107
303.112
303.117
303.123
303.129
303.136
303.143
303.15
303.157
303.164
303.172
303.18
303.189
303.197
303.206
303.215
303.224
303.234
303.244
303.253
303.264
303.274
303.285
303.296
303.307
303.318
303.329
303.341
303.353
303.365
303.378
303.39
303.403
303.416
303.429
303.443
303.457
303.471
303.485
303.5
303.515
303.53
303.546
303.562
303.579
303.596
303.613
303.631
303.65
303.669
303.689
303.71
303.731
303.753
303.777
303.801
303.826
303.852
303.88
303.909
303.939
303.97
304.004
304.038
304.075
304.114
304.154
304.197
304.241
304.288
304.338
304.39
304.444
304.501
304.561
304.624
304.69
304.758
304.83
304.906
304.984
305.066
305.15
305.238
305.329
305.423
305.52
305.619
305.721
305.824
305.928
306.034
306.139
306.245
306.349
306.452
306.552
306.65
306.746
306.838
306.928
307.016
307.096
307.163
307.209
303.955
303.875
303.774
303.664
303.553
303.447
303.347
303.257
303.175
303.102
303.037
302.98
302.93
302.887
302.849
302.818
302.791
302.769
302.751
302.737
302.726
302.719
302.714
302.711
302.711
302.712
302.715
302.719
302.724
302.729
302.736
302.742
302.749
302.756
302.763
302.77
302.776
302.783
302.788
302.793
302.797
302.801
302.804
302.807
302.809
302.81
302.81
302.81
302.809
302.808
302.806
302.804
302.801
302.797
302.794
302.79
302.786
302.781
302.777
302.772
302.767
302.762
302.757
302.752
302.747
302.742
302.737
302.732
302.728
302.724
302.72
302.716
302.712
302.709
302.706
302.703
302.701
302.699
302.697
302.696
302.695
302.694
302.694
302.694
302.694
302.695
302.696
302.697
302.699
302.701
302.704
302.707
302.71
302.713
302.717
302.721
302.726
302.73
302.735
302.741
302.746
302.752
302.759
302.765
302.772
302.779
302.787
302.794
302.802
302.81
302.819
302.827
302.836
302.846
302.855
302.865
302.875
302.885
302.895
302.906
302.917
302.928
302.94
302.951
302.963
302.975
302.987
303
303.013
303.026
303.039
303.053
303.067
303.081
303.096
303.111
303.126
303.142
303.158
303.175
303.192
303.209
303.227
303.246
303.265
303.285
303.306
303.328
303.35
303.373
303.398
303.423
303.45
303.477
303.506
303.537
303.569
303.602
303.637
303.674
303.713
303.754
303.796
303.841
303.888
303.938
303.99
304.045
304.102
304.162
304.225
304.29
304.359
304.431
304.506
304.584
304.665
304.749
304.836
304.926
305.018
305.113
305.211
305.31
305.41
305.512
305.614
305.715
305.816
305.916
306.013
306.107
306.197
306.282
306.362
306.434
306.498
306.548
306.576
306.577
303.955
303.875
303.774
303.664
303.553
303.447
303.347
303.257
303.175
303.102
303.037
302.98
302.93
302.887
302.849
302.818
302.791
302.769
302.751
302.737
302.726
302.719
302.714
302.711
302.711
302.712
302.715
302.719
302.724
302.729
302.736
302.742
302.749
302.756
302.763
302.77
302.776
302.783
302.788
302.793
302.797
302.801
302.804
302.807
302.809
302.81
302.81
302.81
302.809
302.808
302.806
302.804
302.801
302.797
302.794
302.79
302.786
302.781
302.777
302.772
302.767
302.762
302.757
302.752
302.747
302.742
302.737
302.732
302.728
302.724
302.72
302.716
302.712
302.709
302.706
302.703
302.701
302.699
302.697
302.696
302.695
302.694
302.694
302.694
302.694
302.695
302.696
302.697
302.699
302.701
302.704
302.707
302.71
302.713
302.717
302.721
302.726
302.73
302.735
302.741
302.746
302.752
302.759
302.765
302.772
302.779
302.787
302.794
302.802
302.81
302.819
302.827
302.836
302.846
302.855
302.865
302.875
302.885
302.895
302.906
302.917
302.928
302.94
302.951
302.963
302.975
302.987
303
303.013
303.026
303.039
303.053
303.067
303.081
303.096
303.111
303.126
303.142
303.158
303.175
303.192
303.209
303.227
303.246
303.265
303.285
303.306
303.328
303.35
303.373
303.398
303.423
303.449
303.477
303.506
303.537
303.569
303.602
303.637
303.674
303.713
303.754
303.796
303.841
303.888
303.938
303.99
304.045
304.102
304.162
304.225
304.29
304.359
304.431
304.506
304.584
304.665
304.749
304.836
304.926
305.018
305.113
305.211
305.31
305.41
305.512
305.614
305.716
305.816
305.916
306.013
306.107
306.197
306.282
306.362
306.434
306.498
306.548
306.576
306.577
303.314
303.268
303.206
303.132
303.053
302.974
302.897
302.825
302.759
302.699
302.645
302.597
302.555
302.519
302.488
302.461
302.44
302.422
302.408
302.397
302.39
302.385
302.382
302.382
302.384
302.387
302.392
302.398
302.405
302.412
302.42
302.428
302.437
302.445
302.453
302.461
302.469
302.476
302.483
302.489
302.495
302.499
302.503
302.507
302.509
302.511
302.513
302.513
302.513
302.512
302.511
302.509
302.507
302.504
302.501
302.497
302.493
302.489
302.484
302.48
302.475
302.47
302.465
302.46
302.455
302.45
302.445
302.44
302.435
302.431
302.426
302.422
302.418
302.415
302.411
302.408
302.406
302.403
302.401
302.399
302.397
302.396
302.395
302.395
302.395
302.395
302.395
302.396
302.398
302.399
302.401
302.403
302.406
302.409
302.412
302.416
302.42
302.424
302.428
302.433
302.438
302.444
302.45
302.456
302.462
302.469
302.476
302.483
302.49
302.498
302.506
302.514
302.523
302.532
302.541
302.55
302.56
302.57
302.58
302.59
302.601
302.611
302.623
302.634
302.645
302.657
302.669
302.682
302.694
302.707
302.72
302.734
302.748
302.762
302.776
302.791
302.806
302.822
302.838
302.854
302.871
302.889
302.907
302.925
302.945
302.965
302.985
303.007
303.029
303.053
303.077
303.103
303.129
303.157
303.186
303.217
303.249
303.282
303.318
303.355
303.394
303.434
303.477
303.522
303.57
303.619
303.671
303.726
303.783
303.843
303.906
303.971
304.04
304.111
304.186
304.263
304.344
304.427
304.513
304.601
304.693
304.786
304.881
304.978
305.076
305.174
305.273
305.371
305.468
305.563
305.654
305.742
305.826
305.903
305.973
306.034
306.084
306.119
306.133
306.122
303.314
303.268
303.206
303.132
303.053
302.974
302.897
302.825
302.759
302.699
302.645
302.597
302.555
302.519
302.488
302.461
302.44
302.422
302.408
302.397
302.39
302.385
302.382
302.382
302.384
302.387
302.392
302.398
302.405
302.412
302.42
302.428
302.437
302.445
302.453
302.461
302.469
302.476
302.483
302.489
302.495
302.499
302.503
302.507
302.509
302.511
302.513
302.513
302.513
302.512
302.511
302.509
302.507
302.504
302.501
302.497
302.493
302.489
302.484
302.48
302.475
302.47
302.465
302.46
302.455
302.45
302.445
302.44
302.435
302.431
302.426
302.422
302.418
302.415
302.411
302.408
302.406
302.403
302.401
302.399
302.397
302.396
302.395
302.395
302.395
302.395
302.395
302.396
302.398
302.399
302.401
302.403
302.406
302.409
302.412
302.416
302.42
302.424
302.428
302.433
302.438
302.444
302.45
302.456
302.462
302.469
302.476
302.483
302.49
302.498
302.506
302.514
302.523
302.532
302.541
302.55
302.56
302.57
302.58
302.59
302.601
302.611
302.623
302.634
302.645
302.657
302.669
302.682
302.694
302.707
302.72
302.734
302.748
302.762
302.776
302.791
302.806
302.822
302.838
302.854
302.871
302.889
302.907
302.925
302.945
302.965
302.985
303.007
303.029
303.053
303.077
303.103
303.129
303.157
303.186
303.217
303.249
303.282
303.318
303.355
303.394
303.434
303.477
303.522
303.57
303.619
303.671
303.726
303.783
303.843
303.906
303.971
304.04
304.111
304.186
304.263
304.344
304.427
304.513
304.601
304.693
304.786
304.881
304.978
305.076
305.174
305.273
305.371
305.468
305.563
305.654
305.742
305.826
305.903
305.973
306.034
306.084
306.119
306.133
306.122
302.81
302.781
302.74
302.688
302.631
302.572
302.513
302.456
302.403
302.354
302.31
302.27
302.236
302.206
302.18
302.158
302.141
302.127
302.116
302.108
302.104
302.101
302.101
302.103
302.107
302.112
302.118
302.126
302.134
302.143
302.152
302.162
302.171
302.181
302.19
302.199
302.208
302.216
302.223
302.23
302.237
302.242
302.247
302.251
302.255
302.257
302.259
302.26
302.261
302.261
302.26
302.258
302.256
302.254
302.251
302.248
302.244
302.24
302.236
302.231
302.227
302.222
302.217
302.212
302.207
302.202
302.197
302.192
302.187
302.182
302.178
302.173
302.169
302.165
302.162
302.158
302.155
302.153
302.15
302.148
302.146
302.144
302.143
302.142
302.142
302.142
302.142
302.142
302.143
302.144
302.146
302.148
302.15
302.152
302.155
302.158
302.162
302.166
302.17
302.174
302.179
302.184
302.19
302.195
302.201
302.208
302.214
302.221
302.228
302.236
302.243
302.251
302.26
302.268
302.277
302.286
302.295
302.305
302.315
302.325
302.335
302.346
302.356
302.368
302.379
302.39
302.402
302.414
302.427
302.439
302.452
302.466
302.479
302.493
302.507
302.522
302.537
302.552
302.568
302.585
302.602
302.619
302.637
302.655
302.675
302.695
302.715
302.737
302.759
302.783
302.807
302.833
302.859
302.887
302.916
302.947
302.979
303.013
303.048
303.085
303.124
303.165
303.208
303.253
303.301
303.35
303.402
303.457
303.514
303.574
303.637
303.702
303.77
303.841
303.915
303.992
304.072
304.154
304.239
304.326
304.416
304.507
304.601
304.695
304.791
304.886
304.982
305.076
305.169
305.26
305.347
305.43
305.508
305.579
305.643
305.696
305.739
305.767
305.778
305.767
302.81
302.781
302.739
302.688
302.631
302.572
302.513
302.456
302.403
302.354
302.31
302.27
302.236
302.206
302.18
302.158
302.141
302.127
302.116
302.108
302.104
302.101
302.101
302.103
302.107
302.112
302.118
302.126
302.134
302.143
302.152
302.162
302.171
302.181
302.19
302.199
302.208
302.216
302.223
302.23
302.237
302.242
302.247
302.251
302.254
302.257
302.259
302.26
302.261
302.261
302.26
302.258
302.256
302.254
302.251
302.248
302.244
302.24
302.236
302.231
302.227
302.222
302.217
302.212
302.207
302.202
302.197
302.192
302.187
302.182
302.178
302.173
302.169
302.165
302.162
302.158
302.155
302.153
302.15
302.148
302.146
302.144
302.143
302.142
302.142
302.142
302.142
302.142
302.143
302.144
302.146
302.148
302.15
302.152
302.155
302.158
302.162
302.166
302.17
302.174
302.179
302.184
302.19
302.195
302.201
302.208
302.214
302.221
302.228
302.236
302.243
302.251
302.26
302.268
302.277
302.286
302.295
302.305
302.315
302.325
302.335
302.346
302.356
302.368
302.379
302.39
302.402
302.414
302.427
302.439
302.452
302.466
302.479
302.493
302.507
302.522
302.537
302.552
302.568
302.585
302.602
302.619
302.637
302.655
302.675
302.695
302.715
302.737
302.759
302.783
302.807
302.833
302.859
302.887
302.916
302.947
302.979
303.013
303.048
303.085
303.124
303.165
303.208
303.253
303.301
303.35
303.402
303.457
303.514
303.574
303.637
303.702
303.77
303.841
303.915
303.992
304.072
304.154
304.239
304.326
304.416
304.507
304.601
304.695
304.791
304.886
304.982
305.076
305.169
305.26
305.347
305.43
305.508
305.579
305.643
305.696
305.739
305.767
305.778
305.767
302.395
302.374
302.345
302.309
302.267
302.222
302.176
302.132
302.089
302.05
302.014
301.982
301.954
301.929
301.908
301.891
301.877
301.867
301.859
301.854
301.852
301.852
301.854
301.858
301.863
301.87
301.877
301.886
301.896
301.905
301.916
301.926
301.937
301.947
301.957
301.967
301.977
301.986
301.994
302.002
302.009
302.015
302.02
302.025
302.029
302.032
302.035
302.037
302.038
302.038
302.038
302.037
302.035
302.033
302.031
302.028
302.024
302.02
302.016
302.012
302.007
302.003
301.998
301.993
301.988
301.983
301.978
301.973
301.968
301.963
301.959
301.954
301.95
301.946
301.942
301.939
301.935
301.932
301.929
301.927
301.925
301.923
301.922
301.92
301.92
301.919
301.919
301.919
301.92
301.92
301.922
301.923
301.925
301.927
301.93
301.933
301.936
301.94
301.943
301.948
301.952
301.957
301.962
301.967
301.973
301.979
301.986
301.992
301.999
302.006
302.014
302.022
302.03
302.038
302.046
302.055
302.064
302.074
302.083
302.093
302.103
302.113
302.124
302.135
302.146
302.157
302.169
302.181
302.193
302.206
302.218
302.231
302.245
302.258
302.273
302.287
302.302
302.317
302.333
302.349
302.366
302.383
302.401
302.419
302.439
302.458
302.479
302.501
302.523
302.546
302.571
302.596
302.623
302.651
302.68
302.711
302.743
302.777
302.812
302.849
302.889
302.93
302.973
303.018
303.065
303.115
303.167
303.222
303.279
303.339
303.401
303.466
303.534
303.605
303.678
303.755
303.833
303.915
303.999
304.085
304.173
304.263
304.354
304.446
304.539
304.632
304.725
304.816
304.906
304.993
305.076
305.155
305.228
305.295
305.354
305.403
305.442
305.468
305.479
305.473
302.395
302.374
302.345
302.308
302.266
302.222
302.176
302.132
302.089
302.05
302.014
301.982
301.954
301.929
301.908
301.891
301.877
301.867
301.859
301.854
301.852
301.852
301.854
301.858
301.863
301.87
301.877
301.886
301.896
301.905
301.916
301.926
301.937
301.947
301.957
301.967
301.977
301.986
301.994
302.002
302.009
302.015
302.02
302.025
302.029
302.032
302.035
302.037
302.038
302.038
302.038
302.037
302.035
302.033
302.031
302.028
302.024
302.02
302.016
302.012
302.007
302.003
301.998
301.993
301.988
301.983
301.978
301.973
301.968
301.963
301.959
301.954
301.95
301.946
301.942
301.939
301.935
301.932
301.929
301.927
301.925
301.923
301.922
301.92
301.92
301.919
301.919
301.919
301.92
301.92
301.922
301.923
301.925
301.927
301.93
301.933
301.936
301.94
301.943
301.948
301.952
301.957
301.962
301.967
301.973
301.979
301.986
301.992
301.999
302.006
302.014
302.022
302.03
302.038
302.046
302.055
302.064
302.074
302.083
302.093
302.103
302.113
302.124
302.135
302.146
302.157
302.169
302.181
302.193
302.206
302.218
302.231
302.245
302.258
302.273
302.287
302.302
302.317
302.333
302.349
302.366
302.383
302.401
302.419
302.439
302.458
302.479
302.501
302.523
302.546
302.571
302.596
302.623
302.651
302.68
302.711
302.743
302.777
302.812
302.849
302.889
302.93
302.973
303.018
303.065
303.115
303.167
303.222
303.279
303.339
303.401
303.466
303.534
303.605
303.678
303.755
303.833
303.915
303.999
304.085
304.173
304.263
304.354
304.446
304.539
304.632
304.725
304.816
304.906
304.993
305.076
305.155
305.228
305.295
305.354
305.403
305.442
305.468
305.479
305.473
302.041
302.025
302.004
301.977
301.945
301.911
301.876
301.842
301.808
301.777
301.748
301.722
301.7
301.68
301.664
301.65
301.64
301.633
301.628
301.625
301.625
301.627
301.631
301.636
301.643
301.651
301.66
301.67
301.68
301.691
301.702
301.714
301.725
301.736
301.747
301.758
301.768
301.777
301.786
301.795
301.802
301.809
301.815
301.82
301.825
301.829
301.832
301.834
301.835
301.836
301.836
301.836
301.834
301.833
301.831
301.828
301.825
301.821
301.817
301.813
301.809
301.804
301.799
301.795
301.79
301.785
301.78
301.775
301.77
301.765
301.76
301.756
301.751
301.747
301.743
301.74
301.736
301.733
301.73
301.728
301.725
301.723
301.721
301.72
301.719
301.718
301.718
301.718
301.718
301.719
301.72
301.721
301.723
301.725
301.727
301.73
301.733
301.736
301.74
301.744
301.748
301.752
301.757
301.763
301.768
301.774
301.78
301.787
301.793
301.8
301.808
301.815
301.823
301.831
301.839
301.848
301.857
301.866
301.875
301.885
301.895
301.905
301.915
301.926
301.937
301.948
301.96
301.971
301.983
301.996
302.008
302.021
302.034
302.048
302.062
302.076
302.091
302.106
302.122
302.138
302.154
302.171
302.189
302.208
302.227
302.246
302.267
302.289
302.311
302.334
302.359
302.384
302.411
302.439
302.468
302.499
302.531
302.565
302.601
302.638
302.677
302.718
302.762
302.807
302.854
302.904
302.956
303.011
303.068
303.128
303.19
303.255
303.323
303.393
303.466
303.541
303.619
303.7
303.783
303.867
303.954
304.042
304.132
304.222
304.313
304.403
304.493
304.582
304.668
304.752
304.832
304.907
304.977
305.041
305.097
305.144
305.181
305.207
305.22
305.22
302.041
302.025
302.004
301.977
301.945
301.911
301.876
301.842
301.808
301.777
301.748
301.722
301.7
301.68
301.664
301.65
301.64
301.633
301.628
301.625
301.625
301.627
301.631
301.636
301.643
301.651
301.66
301.67
301.68
301.691
301.702
301.714
301.725
301.736
301.747
301.758
301.768
301.777
301.786
301.795
301.802
301.809
301.815
301.82
301.825
301.829
301.832
301.834
301.835
301.836
301.836
301.836
301.834
301.833
301.831
301.828
301.825
301.821
301.817
301.813
301.809
301.804
301.799
301.795
301.79
301.785
301.78
301.775
301.77
301.765
301.76
301.756
301.751
301.747
301.743
301.74
301.736
301.733
301.73
301.728
301.725
301.723
301.721
301.72
301.719
301.718
301.718
301.718
301.718
301.719
301.72
301.721
301.723
301.725
301.727
301.73
301.733
301.736
301.74
301.744
301.748
301.752
301.757
301.763
301.768
301.774
301.78
301.787
301.793
301.8
301.808
301.815
301.823
301.831
301.839
301.848
301.857
301.866
301.875
301.885
301.895
301.905
301.915
301.926
301.937
301.948
301.96
301.971
301.983
301.996
302.008
302.021
302.034
302.048
302.062
302.076
302.091
302.106
302.122
302.138
302.154
302.171
302.189
302.207
302.227
302.246
302.267
302.289
302.311
302.334
302.359
302.384
302.411
302.439
302.468
302.499
302.531
302.565
302.601
302.638
302.677
302.718
302.762
302.807
302.854
302.904
302.956
303.011
303.068
303.128
303.19
303.255
303.323
303.393
303.466
303.541
303.619
303.7
303.783
303.867
303.954
304.042
304.132
304.222
304.313
304.403
304.493
304.582
304.668
304.752
304.832
304.908
304.977
305.041
305.097
305.144
305.181
305.207
305.22
305.22
301.732
301.719
301.703
301.683
301.659
301.633
301.606
301.579
301.553
301.528
301.505
301.485
301.467
301.452
301.44
301.43
301.423
301.418
301.416
301.416
301.417
301.421
301.426
301.433
301.441
301.45
301.46
301.471
301.483
301.494
301.506
301.518
301.53
301.542
301.554
301.565
301.575
301.586
301.595
301.604
301.612
301.619
301.626
301.632
301.637
301.641
301.644
301.647
301.649
301.65
301.65
301.65
301.649
301.648
301.646
301.643
301.641
301.637
301.634
301.63
301.625
301.621
301.616
301.612
301.607
301.602
301.597
301.592
301.587
301.582
301.578
301.573
301.569
301.564
301.56
301.557
301.553
301.55
301.547
301.544
301.542
301.539
301.537
301.536
301.535
301.534
301.533
301.533
301.533
301.534
301.534
301.535
301.537
301.539
301.541
301.543
301.546
301.549
301.553
301.556
301.561
301.565
301.57
301.575
301.58
301.586
301.592
301.598
301.605
301.611
301.619
301.626
301.634
301.642
301.65