/*--------------------------------*- C++ -*----------------------------------*\
  =========                 |
  \\      /  F ield         | OpenFOAM: The Open Source CFD Toolbox
   \\    /   O peration     | Website:  https://openfoam.org
    \\  /    A nd           | Version:  8
     \\/     M anipulation  |
\*---------------------------------------------------------------------------*/
FoamFile
{
    version     2.0;
    format      ascii;
    class       volVectorField;
    location    "2000";
    object      U;
}
// * * * * * * * * * * * * * * * * * * * * * * * * * * * * * * * * * * * * * //

dimensions      [0 1 -1 0 0 0 0];

internalField   nonuniform List<vector> 
46000
(
(0.000262208 2.35609e-06 -0.000275124)
(0.000787123 3.53936e-06 -0.000252826)
(0.000905851 4.11833e-06 -4.82891e-05)
(0.000638392 4.09215e-06 0.000169819)
(9.49938e-05 3.12172e-06 0.00032624)
(-0.000616379 2.21877e-06 0.00042416)
(-0.00142881 1.43479e-06 0.000481362)
(-0.002297 7.34993e-07 0.00051486)
(-0.00319866 1.98178e-07 0.000536819)
(-0.00412662 -1.39525e-07 0.000555499)
(-0.00508293 -3.02493e-07 0.00057625)
(-0.0060754 -3.46392e-07 0.000602377)
(-0.00711507 -3.26366e-07 0.000635774)
(-0.00821463 -2.82224e-07 0.00067734)
(-0.00938728 -2.37626e-07 0.000727289)
(-0.010646 -2.04086e-07 0.000785346)
(-0.0120027 -1.84351e-07 0.000850899)
(-0.0134685 -1.76128e-07 0.000923095)
(-0.0150525 -1.7511e-07 0.00100091)
(-0.0167624 -1.77271e-07 0.00108321)
(-0.018604 -1.80065e-07 0.00116879)
(-0.0205811 -1.82253e-07 0.0012564)
(-0.0226958 -1.83054e-07 0.00134478)
(-0.0249479 -1.81907e-07 0.00143266)
(-0.0273355 -1.78547e-07 0.00151882)
(-0.0298548 -1.73134e-07 0.00160204)
(-0.0325003 -1.66284e-07 0.00168121)
(-0.0352648 -1.58503e-07 0.00175526)
(-0.0381394 -1.49837e-07 0.00182323)
(-0.0411141 -1.39973e-07 0.00188428)
(-0.0441775 -1.28728e-07 0.00193764)
(-0.0473172 -1.16047e-07 0.00198271)
(-0.0505199 -1.0233e-07 0.00201896)
(-0.0537715 -8.82245e-08 0.00204602)
(-0.0570576 -7.45744e-08 0.00206359)
(-0.0603631 -6.24436e-08 0.00207151)
(-0.0636729 -5.27721e-08 0.00206974)
(-0.0669719 -4.61504e-08 0.00205832)
(-0.0702451 -4.26553e-08 0.00203742)
(-0.0734777 -4.18432e-08 0.00200729)
(-0.0766554 -4.30187e-08 0.00196827)
(-0.0797645 -4.54933e-08 0.00192078)
(-0.0827919 -4.87667e-08 0.00186531)
(-0.0857252 -5.27079e-08 0.00180238)
(-0.0885531 -5.74612e-08 0.00173257)
(-0.0912648 -6.34126e-08 0.00165649)
(-0.0938508 -7.11798e-08 0.00157476)
(-0.0963024 -8.12761e-08 0.001488)
(-0.0986118 -9.39567e-08 0.00139687)
(-0.100772 -1.08896e-07 0.00130199)
(-0.102779 -1.25227e-07 0.001204)
(-0.104625 -1.41679e-07 0.00110349)
(-0.106309 -1.56787e-07 0.00100107)
(-0.107827 -1.69107e-07 0.000897293)
(-0.109177 -1.77616e-07 0.00079271)
(-0.110357 -1.81766e-07 0.00068783)
(-0.111369 -1.81768e-07 0.000583141)
(-0.112211 -1.78568e-07 0.000479102)
(-0.112886 -1.73613e-07 0.000376149)
(-0.113395 -1.68465e-07 0.00027469)
(-0.11374 -1.64303e-07 0.000175087)
(-0.113925 -1.61877e-07 7.76153e-05)
(-0.113952 -1.61348e-07 -1.74974e-05)
(-0.113827 -1.62413e-07 -0.000110011)
(-0.113552 -1.64515e-07 -0.000199807)
(-0.113132 -1.67095e-07 -0.000286808)
(-0.112571 -1.69725e-07 -0.000370834)
(-0.111875 -1.7203e-07 -0.000451726)
(-0.111049 -1.73681e-07 -0.000529368)
(-0.110097 -1.7441e-07 -0.000603678)
(-0.109025 -1.73967e-07 -0.000674592)
(-0.107838 -1.72438e-07 -0.000742063)
(-0.106542 -1.70053e-07 -0.000806063)
(-0.105143 -1.67346e-07 -0.000866584)
(-0.103646 -1.65089e-07 -0.000923639)
(-0.102056 -1.64024e-07 -0.000977258)
(-0.100379 -1.64578e-07 -0.00102748)
(-0.0986207 -1.6675e-07 -0.00107437)
(-0.0967857 -1.70115e-07 -0.00111797)
(-0.0948794 -1.7393e-07 -0.00115836)
(-0.0929069 -1.77467e-07 -0.0011956)
(-0.0908733 -1.80135e-07 -0.00122977)
(-0.0887833 -1.81736e-07 -0.00126095)
(-0.0866419 -1.8243e-07 -0.00128921)
(-0.0844534 -1.82383e-07 -0.00131465)
(-0.0822225 -1.81846e-07 -0.00133737)
(-0.0799533 -1.8098e-07 -0.00135745)
(-0.0776502 -1.79694e-07 -0.00137499)
(-0.075317 -1.7781e-07 -0.0013901)
(-0.0729577 -1.75254e-07 -0.00140288)
(-0.0705759 -1.7195e-07 -0.00141342)
(-0.0681752 -1.68087e-07 -0.00142183)
(-0.065759 -1.63878e-07 -0.00142822)
(-0.0633305 -1.59725e-07 -0.00143269)
(-0.0608928 -1.55774e-07 -0.00143535)
(-0.0584489 -1.52112e-07 -0.0014363)
(-0.0560014 -1.48573e-07 -0.00143566)
(-0.0535531 -1.44883e-07 -0.00143352)
(-0.0511063 -1.40718e-07 -0.00142999)
(-0.0486633 -1.35827e-07 -0.00142516)
(-0.0462264 -1.30159e-07 -0.00141912)
(-0.0437975 -1.23892e-07 -0.00141198)
(-0.0413786 -1.17476e-07 -0.00140381)
(-0.0389715 -1.11382e-07 -0.00139471)
(-0.0365776 -1.06238e-07 -0.00138477)
(-0.0341987 -1.02581e-07 -0.00137406)
(-0.0318359 -1.00839e-07 -0.00136268)
(-0.0294906 -1.0125e-07 -0.0013507)
(-0.0271639 -1.03819e-07 -0.00133821)
(-0.0248567 -1.08286e-07 -0.0013253)
(-0.02257 -1.14159e-07 -0.00131204)
(-0.0203045 -1.20598e-07 -0.0012985)
(-0.0180608 -1.26674e-07 -0.00128475)
(-0.0158395 -1.31499e-07 -0.00127085)
(-0.013641 -1.34118e-07 -0.00125686)
(-0.0114654 -1.3383e-07 -0.00124295)
(-0.00931307 -1.30406e-07 -0.00122896)
(-0.00718399 -1.24222e-07 -0.0012153)
(-0.00507799 -1.16315e-07 -0.00120261)
(-0.00299498 -1.07976e-07 -0.00119033)
(-0.000936131 -1.00444e-07 -0.00117754)
(0.00110255 -9.38333e-08 -0.0011626)
(0.00311304 -8.94958e-08 -0.00114605)
(0.00510054 -8.83819e-08 -0.0011298)
(0.0070635 -8.99602e-08 -0.00111392)
(0.00900246 -9.43523e-08 -0.00109841)
(0.0109177 -1.00919e-07 -0.00108329)
(0.0128097 -1.08395e-07 -0.00106856)
(0.0146786 -1.1571e-07 -0.00105421)
(0.0165251 -1.22116e-07 -0.00104025)
(0.0183493 -1.2725e-07 -0.00102668)
(0.0201519 -1.31112e-07 -0.00101349)
(0.0219332 -1.33938e-07 -0.00100067)
(0.0236936 -1.35995e-07 -0.000988208)
(0.0254336 -1.37514e-07 -0.00097608)
(0.0271534 -1.38623e-07 -0.000964255)
(0.0288535 -1.3959e-07 -0.000952692)
(0.0305341 -1.40409e-07 -0.000941339)
(0.0321954 -1.41241e-07 -0.00093013)
(0.0338374 -1.42141e-07 -0.000918984)
(0.03546 -1.43115e-07 -0.000907807)
(0.0370631 -1.44251e-07 -0.000896486)
(0.038646 -1.45522e-07 -0.000884889)
(0.0402083 -1.46935e-07 -0.00087287)
(0.0417488 -1.48496e-07 -0.00086026)
(0.0432665 -1.50293e-07 -0.000846872)
(0.0447597 -1.52414e-07 -0.000832499)
(0.0462265 -1.54886e-07 -0.000816912)
(0.0476646 -1.5781e-07 -0.000799862)
(0.0490712 -1.6122e-07 -0.000781079)
(0.0504431 -1.65081e-07 -0.000760271)
(0.0517764 -1.69247e-07 -0.000737131)
(0.053067 -1.73562e-07 -0.000711331)
(0.0543098 -1.77757e-07 -0.000682531)
(0.0554995 -1.81663e-07 -0.000650379)
(0.0566299 -1.85099e-07 -0.000614514)
(0.0576942 -1.8797e-07 -0.000574569)
(0.0586852 -1.90262e-07 -0.000530175)
(0.0595948 -1.9201e-07 -0.000480973)
(0.0604142 -1.93261e-07 -0.000426614)
(0.0611343 -1.94101e-07 -0.000366781)
(0.0617452 -1.94633e-07 -0.000301196)
(0.0622365 -1.94998e-07 -0.000229657)
(0.0625975 -1.95297e-07 -0.000152074)
(0.0628173 -1.95624e-07 -6.85089e-05)
(0.0628838 -1.9726e-07 2.11221e-05)
(0.0627885 -2.00296e-07 0.000117462)
(0.0625156 -2.03867e-07 0.000221002)
(0.0620535 -2.07779e-07 0.000331628)
(0.0613893 -2.1172e-07 0.00044905)
(0.0605108 -2.15476e-07 0.000572886)
(0.0594063 -2.18884e-07 0.000702644)
(0.0580647 -2.22073e-07 0.000837702)
(0.0564762 -2.25096e-07 0.000977282)
(0.0546319 -2.27974e-07 0.00112042)
(0.0525248 -2.30444e-07 0.00126597)
(0.0501498 -2.32174e-07 0.00141252)
(0.0475041 -2.32981e-07 0.00155842)
(0.0445878 -2.32986e-07 0.00170174)
(0.0414043 -2.32608e-07 0.00184022)
(0.0379611 -2.3228e-07 0.00197125)
(0.0342701 -2.32373e-07 0.00209179)
(0.0303487 -2.33147e-07 0.00219834)
(0.0262208 -2.34843e-07 0.00228684)
(0.0219175 -2.37783e-07 0.00235259)
(0.0174787 -2.41967e-07 0.00239005)
(0.0129549 -2.4741e-07 0.00239268)
(0.00840751 -2.54173e-07 0.00235274)
(0.00392209 -2.62102e-07 0.00226053)
(-0.000422105 -2.68334e-07 0.00209573)
(-0.00447916 -2.725e-07 0.00184021)
(-0.00809627 -2.78972e-07 0.00148632)
(-0.0111002 -2.88012e-07 0.00102803)
(-0.0132638 -2.98613e-07 0.000448059)
(-0.0143385 -3.10477e-07 -0.000265263)
(-0.0140491 -3.18392e-07 -0.00106749)
(-0.0121968 -3.18959e-07 -0.00184067)
(-0.00879702 -3.14968e-07 -0.00227938)
(-0.00441779 -3.0555e-07 -0.00187353)
(-0.000796752 -1.08903e-07 -0.000832712)
(0.000262529 2.35608e-06 -0.000268831)
(0.000790066 3.53938e-06 -0.000244227)
(0.000905584 4.11824e-06 -4.28997e-05)
(0.000637903 4.09204e-06 0.000173057)
(9.30335e-05 3.12163e-06 0.000327827)
(-0.000617628 2.21873e-06 0.000424643)
(-0.00142857 1.43477e-06 0.000481142)
(-0.00229566 7.34983e-07 0.000514237)
(-0.0031967 1.98176e-07 0.000536013)
(-0.00412443 -1.39523e-07 0.000554648)
(-0.0050808 -3.02488e-07 0.000575432)
(-0.00607346 -3.46387e-07 0.00060163)
(-0.00711337 -3.26361e-07 0.0006351)
(-0.00821316 -2.8222e-07 0.000676733)
(-0.00938601 -2.37623e-07 0.000726738)
(-0.0106448 -2.04083e-07 0.000784845)
(-0.0120017 -1.84348e-07 0.000850441)
(-0.0134675 -1.76125e-07 0.000922673)
(-0.0150516 -1.75107e-07 0.00100052)
(-0.0167616 -1.77268e-07 0.00108285)
(-0.0186032 -1.80062e-07 0.00116845)
(-0.0205804 -1.8225e-07 0.00125609)
(-0.0226951 -1.83051e-07 0.0013445)
(-0.0249472 -1.81904e-07 0.00143242)
(-0.0273349 -1.78544e-07 0.00151859)
(-0.0298542 -1.73131e-07 0.00160184)
(-0.0324998 -1.66281e-07 0.00168102)
(-0.0352642 -1.585e-07 0.00175509)
(-0.0381388 -1.49834e-07 0.00182308)
(-0.0411135 -1.39971e-07 0.00188415)
(-0.0441769 -1.28726e-07 0.00193754)
(-0.0473166 -1.16045e-07 0.00198263)
(-0.0505193 -1.02328e-07 0.00201892)
(-0.053771 -8.8223e-08 0.002046)
(-0.057057 -7.45732e-08 0.0020636)
(-0.0603625 -6.24426e-08 0.00207155)
(-0.0636723 -5.27713e-08 0.0020698)
(-0.0669713 -4.61497e-08 0.00205841)
(-0.0702444 -4.26547e-08 0.00203753)
(-0.073477 -4.18425e-08 0.00200742)
(-0.0766547 -4.3018e-08 0.00196842)
(-0.0797637 -4.54926e-08 0.00192095)
(-0.0827911 -4.8766e-08 0.0018655)
(-0.0857244 -5.27071e-08 0.00180259)
(-0.0885523 -5.74603e-08 0.0017328)
(-0.091264 -6.34116e-08 0.00165672)
(-0.09385 -7.11787e-08 0.001575)
(-0.0963016 -8.12749e-08 0.00148825)
(-0.098611 -9.39552e-08 0.00139712)
(-0.100772 -1.08894e-07 0.00130224)
(-0.102778 -1.25225e-07 0.00120424)
(-0.104625 -1.41677e-07 0.00110373)
(-0.106308 -1.56785e-07 0.00100131)
(-0.107826 -1.69104e-07 0.000897537)
(-0.109176 -1.77613e-07 0.000792959)
(-0.110357 -1.81763e-07 0.000688088)
(-0.111368 -1.81765e-07 0.000583412)
(-0.112211 -1.78565e-07 0.000479389)
(-0.112885 -1.73611e-07 0.000376453)
(-0.113394 -1.68462e-07 0.00027501)
(-0.113739 -1.64301e-07 0.000175421)
(-0.113924 -1.61875e-07 7.79599e-05)
(-0.113952 -1.61345e-07 -1.71457e-05)
(-0.113826 -1.6241e-07 -0.000109655)
(-0.113551 -1.64513e-07 -0.000199448)
(-0.113131 -1.67092e-07 -0.000286447)
(-0.112571 -1.69723e-07 -0.00037047)
(-0.111875 -1.72028e-07 -0.000451358)
(-0.111048 -1.73679e-07 -0.000528993)
(-0.110096 -1.74407e-07 -0.000603292)
(-0.109024 -1.73965e-07 -0.00067419)
(-0.107837 -1.72436e-07 -0.000741644)
(-0.106542 -1.70051e-07 -0.000805629)
(-0.105142 -1.67344e-07 -0.000866139)
(-0.103645 -1.65087e-07 -0.000923188)
(-0.102055 -1.64022e-07 -0.000976805)
(-0.100379 -1.64576e-07 -0.00102703)
(-0.09862 -1.66748e-07 -0.00107392)
(-0.0967849 -1.70113e-07 -0.00111752)
(-0.0948786 -1.73928e-07 -0.00115791)
(-0.0929062 -1.77465e-07 -0.00119515)
(-0.0908725 -1.80133e-07 -0.00122932)
(-0.0887826 -1.81734e-07 -0.00126049)
(-0.0866411 -1.82428e-07 -0.00128875)
(-0.0844527 -1.82381e-07 -0.0013142)
(-0.0822218 -1.81844e-07 -0.00133691)
(-0.0799526 -1.80978e-07 -0.001357)
(-0.0776495 -1.79692e-07 -0.00137454)
(-0.0753163 -1.77808e-07 -0.00138965)
(-0.072957 -1.75253e-07 -0.00140242)
(-0.0705752 -1.71948e-07 -0.00141296)
(-0.0681745 -1.68085e-07 -0.00142137)
(-0.0657583 -1.63876e-07 -0.00142776)
(-0.0633298 -1.59724e-07 -0.00143223)
(-0.0608922 -1.55773e-07 -0.00143489)
(-0.0584482 -1.52111e-07 -0.00143585)
(-0.0560007 -1.48572e-07 -0.0014352)
(-0.0535524 -1.44882e-07 -0.00143306)
(-0.0511056 -1.40717e-07 -0.00142953)
(-0.0486626 -1.35826e-07 -0.00142469)
(-0.0462257 -1.30158e-07 -0.00141865)
(-0.0437969 -1.23891e-07 -0.0014115)
(-0.041378 -1.17475e-07 -0.00140333)
(-0.0389708 -1.11381e-07 -0.00139422)
(-0.036577 -1.06238e-07 -0.00138427)
(-0.034198 -1.0258e-07 -0.00137357)
(-0.0318353 -1.00839e-07 -0.00136218)
(-0.02949 -1.01249e-07 -0.00135021)
(-0.0271633 -1.03819e-07 -0.00133774)
(-0.0248562 -1.08286e-07 -0.00132484)
(-0.0225696 -1.14159e-07 -0.00131159)
(-0.0203041 -1.20598e-07 -0.00129807)
(-0.0180604 -1.26674e-07 -0.00128435)
(-0.015839 -1.31499e-07 -0.00127047)
(-0.0136405 -1.34117e-07 -0.0012565)
(-0.0114649 -1.33829e-07 -0.0012426)
(-0.00931257 -1.30405e-07 -0.00122863)
(-0.00718347 -1.24222e-07 -0.00121498)
(-0.00507744 -1.16315e-07 -0.00120231)
(-0.00299441 -1.07976e-07 -0.00119004)
(-0.000935533 -1.00444e-07 -0.00117726)
(0.00110316 -9.3833e-08 -0.0011623)
(0.00311366 -8.94956e-08 -0.00114574)
(0.00510117 -8.83817e-08 -0.00112947)
(0.00706413 -8.996e-08 -0.00111357)
(0.0090031 -9.43521e-08 -0.00109804)
(0.0109184 -1.00919e-07 -0.0010829)
(0.0128103 -1.08395e-07 -0.00106815)
(0.0146793 -1.1571e-07 -0.00105379)
(0.0165257 -1.22116e-07 -0.00103981)
(0.01835 -1.2725e-07 -0.00102622)
(0.0201525 -1.31112e-07 -0.00101302)
(0.0219338 -1.33937e-07 -0.00100018)
(0.0236942 -1.35995e-07 -0.000987711)
(0.0254341 -1.37514e-07 -0.000975573)
(0.0271539 -1.38623e-07 -0.000963741)
(0.028854 -1.3959e-07 -0.000952173)
(0.0305346 -1.40409e-07 -0.000940816)
(0.0321959 -1.41241e-07 -0.000929603)
(0.0338378 -1.42141e-07 -0.000918455)
(0.0354605 -1.43115e-07 -0.000907275)
(0.0370635 -1.44251e-07 -0.00089595)
(0.0386464 -1.45522e-07 -0.00088435)
(0.0402087 -1.46935e-07 -0.000872326)
(0.0417492 -1.48496e-07 -0.000859709)
(0.0432669 -1.50293e-07 -0.000846314)
(0.0447601 -1.52415e-07 -0.000831932)
(0.0462269 -1.54887e-07 -0.000816337)
(0.047665 -1.5781e-07 -0.000799278)
(0.0490716 -1.6122e-07 -0.000780488)
(0.0504434 -1.65082e-07 -0.000759675)
(0.0517767 -1.69248e-07 -0.00073653)
(0.0530672 -1.73563e-07 -0.000710726)
(0.0543101 -1.77758e-07 -0.000681925)
(0.0554997 -1.81664e-07 -0.000649772)
(0.0566301 -1.85099e-07 -0.000613907)
(0.0576945 -1.8797e-07 -0.000573961)
(0.0586855 -1.90263e-07 -0.000529565)
(0.059595 -1.92011e-07 -0.000480356)
(0.0604145 -1.93261e-07 -0.000425988)
(0.0611346 -1.94102e-07 -0.000366143)
(0.0617455 -1.94634e-07 -0.000300544)
(0.0622368 -1.94999e-07 -0.00022899)
(0.0625977 -1.95298e-07 -0.000151393)
(0.0628175 -1.95625e-07 -6.78155e-05)
(0.0628841 -1.97261e-07 2.18253e-05)
(0.0627887 -2.00297e-07 0.000118171)
(0.0625158 -2.03868e-07 0.000221716)
(0.0620537 -2.07779e-07 0.000332346)
(0.0613895 -2.11721e-07 0.00044977)
(0.060511 -2.15477e-07 0.000573611)
(0.0594065 -2.18885e-07 0.000703376)
(0.058065 -2.22073e-07 0.000838444)
(0.0564764 -2.25097e-07 0.000978036)
(0.0546322 -2.27975e-07 0.00112119)
(0.0525251 -2.30445e-07 0.00126675)
(0.0501501 -2.32175e-07 0.00141332)
(0.0475044 -2.32982e-07 0.00155925)
(0.044588 -2.32987e-07 0.00170259)
(0.0414045 -2.32609e-07 0.00184109)
(0.0379613 -2.32281e-07 0.00197214)
(0.0342702 -2.32374e-07 0.00209271)
(0.0303489 -2.33147e-07 0.00219928)
(0.026221 -2.34844e-07 0.00228781)
(0.0219176 -2.37784e-07 0.00235358)
(0.0174788 -2.41968e-07 0.00239106)
(0.012955 -2.4741e-07 0.00239372)
(0.0084076 -2.54173e-07 0.0023538)
(0.00392218 -2.62102e-07 0.00226161)
(-0.000422013 -2.68335e-07 0.00209682)
(-0.00447908 -2.72501e-07 0.0018413)
(-0.00809621 -2.78973e-07 0.0014874)
(-0.0111002 -2.88013e-07 0.00102911)
(-0.0132638 -2.98614e-07 0.000449146)
(-0.0143385 -3.10478e-07 -0.000264171)
(-0.014049 -3.18394e-07 -0.0010664)
(-0.0121967 -3.18961e-07 -0.00183956)
(-0.00879664 -3.14971e-07 -0.00227825)
(-0.00441694 -3.05554e-07 -0.00187238)
(-0.000796191 -1.08903e-07 -0.000831738)
(0.000226904 -1.55061e-06 -0.000837205)
(0.000363438 -1.83245e-06 -0.000433417)
(2.14358e-05 -6.81215e-07 0.000231553)
(-0.000545871 1.28985e-07 0.000741769)
(-0.00126629 2.395e-07 0.00107271)
(-0.0020769 2.09338e-07 0.00127094)
(-0.00294705 1.15665e-07 0.00138569)
(-0.00385725 -1.38318e-08 0.00145455)
(-0.0047998 -1.26984e-07 0.00150382)
(-0.00577513 -1.9697e-07 0.00155104)
(-0.00678907 -2.23602e-07 0.00160737)
(-0.00785097 -2.19849e-07 0.00167955)
(-0.0089722 -2.00259e-07 0.00177122)
(-0.0101651 -1.7587e-07 0.00188389)
(-0.0114422 -1.53269e-07 0.0020176)
(-0.0128156 -1.35392e-07 0.00217134)
(-0.0142964 -1.22539e-07 0.00234334)
(-0.0158947 -1.13743e-07 0.00253133)
(-0.0176189 -1.07674e-07 0.00273266)
(-0.0194759 -1.03223e-07 0.00294444)
(-0.0214707 -9.96356e-08 0.00316362)
(-0.0236064 -9.63316e-08 0.00338708)
(-0.0258843 -9.27922e-08 0.00361169)
(-0.0283036 -8.86285e-08 0.00383432)
(-0.0308619 -8.37218e-08 0.00405195)
(-0.0335548 -7.81998e-08 0.00426168)
(-0.0363762 -7.23157e-08 0.00446074)
(-0.0393185 -6.62662e-08 0.00464657)
(-0.0423724 -6.00696e-08 0.00481684)
(-0.0455274 -5.3654e-08 0.00496944)
(-0.048772 -4.69592e-08 0.00510254)
(-0.0520932 -3.99935e-08 0.00521458)
(-0.0554775 -3.28728e-08 0.00530429)
(-0.0589106 -2.5813e-08 0.00537069)
(-0.0623775 -1.91218e-08 0.00541308)
(-0.0658632 -1.31369e-08 0.00543103)
(-0.0693522 -8.16601e-09 0.00542439)
(-0.0728291 -4.35415e-09 0.00539328)
(-0.0762788 -1.65797e-09 0.00533805)
(-0.0796862 1.38523e-10 0.0052593)
(-0.0830368 1.31804e-09 0.00515781)
(-0.0863166 2.16659e-09 0.00503457)
(-0.0895122 2.89683e-09 0.00489072)
(-0.092611 3.62132e-09 0.00472755)
(-0.0956011 4.34337e-09 0.00454644)
(-0.0984716 4.96124e-09 0.00434887)
(-0.101212 5.29899e-09 0.00413638)
(-0.103814 5.14232e-09 0.00391054)
(-0.10627 4.37867e-09 0.00367297)
(-0.108571 3.0556e-09 0.00342525)
(-0.110712 1.36407e-09 0.00316899)
(-0.112688 -4.24084e-10 0.00290572)
(-0.114494 -1.97784e-09 0.00263697)
(-0.116128 -3.00956e-09 0.00236419)
(-0.117587 -3.27081e-09 0.00208879)
(-0.118869 -2.59822e-09 0.00181208)
(-0.119974 -9.76825e-10 0.00153532)
(-0.120901 1.39239e-09 0.00125969)
(-0.121652 4.15839e-09 0.000986287)
(-0.122228 6.96434e-09 0.000716143)
(-0.12263 9.57679e-09 0.000450206)
(-0.122862 1.19332e-08 0.000189358)
(-0.122926 1.40687e-08 -6.56825e-05)
(-0.122825 1.59182e-08 -0.000314581)
(-0.122564 1.72741e-08 -0.000556962)
(-0.122146 1.79848e-08 -0.000792247)
(-0.121576 1.80194e-08 -0.00101997)
(-0.12086 1.75873e-08 -0.00123976)
(-0.120001 1.71186e-08 -0.00145132)
(-0.119005 1.71117e-08 -0.00165443)
(-0.117876 1.79226e-08 -0.0018489)
(-0.116621 1.95713e-08 -0.00203463)
(-0.115245 2.17776e-08 -0.00221153)
(-0.113752 2.40532e-08 -0.00237959)
(-0.112149 2.58979e-08 -0.00253881)
(-0.110441 2.70191e-08 -0.00268925)
(-0.108632 2.74067e-08 -0.00283101)
(-0.106728 2.72859e-08 -0.00296419)
(-0.104735 2.69592e-08 -0.00308894)
(-0.102658 2.66908e-08 -0.0032054)
(-0.100501 2.66626e-08 -0.00331374)
(-0.0982702 2.6907e-08 -0.00341415)
(-0.0959695 2.73291e-08 -0.00350683)
(-0.0936041 2.78062e-08 -0.00359196)
(-0.0911785 2.82166e-08 -0.00366978)
(-0.0886972 2.85213e-08 -0.00374051)
(-0.0861647 2.87634e-08 -0.00380436)
(-0.0835851 2.90797e-08 -0.00386157)
(-0.0809627 2.96162e-08 -0.00391239)
(-0.0783013 3.04695e-08 -0.00395704)
(-0.075605 3.16447e-08 -0.00399577)
(-0.0728773 3.30427e-08 -0.00402883)
(-0.070122 3.44782e-08 -0.00405646)
(-0.0673425 3.57487e-08 -0.00407889)
(-0.0645421 3.67491e-08 -0.00409637)
(-0.0617241 3.75061e-08 -0.00410914)
(-0.0588916 3.8103e-08 -0.00411744)
(-0.0560476 3.86575e-08 -0.00412149)
(-0.053195 3.92954e-08 -0.00412151)
(-0.0503364 4.01385e-08 -0.00411775)
(-0.0474745 4.12336e-08 -0.0041104)
(-0.0446119 4.25506e-08 -0.00409968)
(-0.0417509 4.39845e-08 -0.0040858)
(-0.0388937 4.54035e-08 -0.00406896)
(-0.0360426 4.66324e-08 -0.00404937)
(-0.0331996 4.7496e-08 -0.00402723)
(-0.0303666 4.78793e-08 -0.00400273)
(-0.0275455 4.77036e-08 -0.00397608)
(-0.0247379 4.6954e-08 -0.00394748)
(-0.0219454 4.56804e-08 -0.00391712)
(-0.0191695 4.40229e-08 -0.0038852)
(-0.0164116 4.21768e-08 -0.00385191)
(-0.0136727 4.03923e-08 -0.00381744)
(-0.0109541 3.8903e-08 -0.00378192)
(-0.00825678 3.7911e-08 -0.00374562)
(-0.00558134 3.76915e-08 -0.00370891)
(-0.00292895 3.84585e-08 -0.00367198)
(-0.000299445 4.01485e-08 -0.0036345)
(0.00230535 4.26015e-08 -0.00359626)
(0.00488315 4.54572e-08 -0.00355747)
(0.00743411 4.81179e-08 -0.00351812)
(0.00995794 4.98525e-08 -0.00347742)
(0.012454 5.0195e-08 -0.00343582)
(0.0149224 4.94141e-08 -0.00339437)
(0.0173626 4.77434e-08 -0.00335314)
(0.0197747 4.53213e-08 -0.00331225)
(0.0221584 4.23714e-08 -0.00327178)
(0.0245139 3.92393e-08 -0.00323178)
(0.0268412 3.62589e-08 -0.00319231)
(0.0291405 3.36506e-08 -0.00315342)
(0.031412 3.15065e-08 -0.00311514)
(0.0336559 2.98081e-08 -0.00307748)
(0.0358724 2.84903e-08 -0.00304047)
(0.038062 2.74948e-08 -0.0030041)
(0.0402248 2.67749e-08 -0.00296831)
(0.0423611 2.62888e-08 -0.00293307)
(0.0444711 2.59664e-08 -0.00289827)
(0.0465551 2.57442e-08 -0.00286379)
(0.048613 2.55806e-08 -0.00282947)
(0.0506448 2.54386e-08 -0.00279511)
(0.0526504 2.52884e-08 -0.00276044)
(0.0546294 2.51097e-08 -0.00272518)
(0.0565812 2.49011e-08 -0.00268897)
(0.0585051 2.46306e-08 -0.0026514)
(0.0603999 2.42832e-08 -0.00261202)
(0.0622642 2.38306e-08 -0.00257031)
(0.0640963 2.32676e-08 -0.00252568)
(0.065894 2.25928e-08 -0.0024775)
(0.0676546 2.18159e-08 -0.00242507)
(0.0693752 2.09371e-08 -0.00236762)
(0.071052 1.99547e-08 -0.00230433)
(0.072681 1.88903e-08 -0.00223433)
(0.0742572 1.77925e-08 -0.00215667)
(0.0757754 1.67297e-08 -0.00207039)
(0.0772294 1.57655e-08 -0.00197447)
(0.0786125 1.493e-08 -0.00186786)
(0.0799172 1.42098e-08 -0.0017495)
(0.0811354 1.35898e-08 -0.00161829)
(0.0822581 1.30417e-08 -0.00147316)
(0.0832758 1.25703e-08 -0.00131305)
(0.084178 1.2211e-08 -0.00113696)
(0.0849539 1.19737e-08 -0.000943945)
(0.0855917 1.18419e-08 -0.000733199)
(0.0860791 1.17619e-08 -0.000504079)
(0.0864032 1.15632e-08 -0.000256147)
(0.0865503 1.12888e-08 1.08892e-05)
(0.0865066 1.08943e-08 0.000298322)
(0.0862583 1.02803e-08 0.000607285)
(0.0857911 9.65123e-09 0.000937638)
(0.0850911 9.11241e-09 0.00128905)
(0.0841439 8.7309e-09 0.00166088)
(0.0829359 8.50171e-09 0.00205216)
(0.081454 8.39302e-09 0.00246158)
(0.0796858 8.425e-09 0.00288735)
(0.0776204 8.67487e-09 0.00332721)
(0.075248 9.28034e-09 0.00377834)
(0.0725613 1.0381e-08 0.00423728)
(0.0695547 1.19922e-08 0.00469983)
(0.066226 1.40273e-08 0.00516102)
(0.0625759 1.62801e-08 0.00561492)
(0.0586094 1.86148e-08 0.00605457)
(0.054336 2.09575e-08 0.00647181)
(0.0497709 2.32361e-08 0.00685705)
(0.0449356 2.52589e-08 0.00719902)
(0.0398592 2.69046e-08 0.00748445)
(0.0345796 2.81477e-08 0.00769758)
(0.0291451 2.89809e-08 0.00781954)
(0.0236161 2.92406e-08 0.00782723)
(0.0180689 2.88016e-08 0.00769295)
(0.0125945 2.72538e-08 0.00737741)
(0.00730354 2.43282e-08 0.00683519)
(0.00233264 2.05784e-08 0.00602085)
(-0.00216959 1.63781e-08 0.00487543)
(-0.00598329 1.13799e-08 0.00334535)
(-0.00890532 6.32203e-09 0.00138487)
(-0.0106947 3.56196e-09 -0.000988862)
(-0.0110627 5.26193e-09 -0.00360534)
(-0.00976594 7.86926e-09 -0.00598254)
(-0.00662602 2.07828e-08 -0.00699878)
(-0.00174884 2.33186e-07 -0.00461647)
(0.000224477 -1.55058e-06 -0.000840324)
(0.000360148 -1.83235e-06 -0.000435545)
(1.86968e-05 -6.81159e-07 0.000230268)
(-0.000546363 1.28975e-07 0.000740963)
(-0.00126643 2.39485e-07 0.00107255)
(-0.00207635 2.09326e-07 0.00127099)
(-0.00294579 1.15659e-07 0.00138563)
(-0.0038556 -1.38311e-08 0.00145434)
(-0.00479805 -1.26978e-07 0.00150351)
(-0.00577345 -1.96962e-07 0.00155069)
(-0.00678755 -2.23593e-07 0.00160702)
(-0.00784962 -2.1984e-07 0.00167922)
(-0.008971 -2.0025e-07 0.00177091)
(-0.010164 -1.75863e-07 0.00188361)
(-0.0114412 -1.53263e-07 0.00201734)
(-0.0128146 -1.35387e-07 0.0021711)
(-0.0142955 -1.22535e-07 0.00234313)
(-0.0158938 -1.13739e-07 0.00253114)
(-0.017618 -1.0767e-07 0.00273249)
(-0.019475 -1.0322e-07 0.00294428)
(-0.0214699 -9.9632e-08 0.00316347)
(-0.0236056 -9.63282e-08 0.00338694)
(-0.0258835 -9.27889e-08 0.00361155)
(-0.0283029 -8.86254e-08 0.00383419)
(-0.0308612 -8.37189e-08 0.00405183)
(-0.0335541 -7.8197e-08 0.00426156)
(-0.0363755 -7.23131e-08 0.00446063)
(-0.0393177 -6.62639e-08 0.00464648)
(-0.0423716 -6.00675e-08 0.00481676)
(-0.0455267 -5.36521e-08 0.00496937)
(-0.0487713 -4.69576e-08 0.00510248)
(-0.0520925 -3.99921e-08 0.00521454)
(-0.0554768 -3.28717e-08 0.00530427)
(-0.0589098 -2.58121e-08 0.00537069)
(-0.0623767 -1.91212e-08 0.0054131)
(-0.0658624 -1.31365e-08 0.00543106)
(-0.0693513 -8.16572e-09 0.00542444)
(-0.0728283 -4.354e-09 0.00539334)
(-0.0762779 -1.65791e-09 0.00533813)
(-0.0796853 1.38518e-10 0.00525938)
(-0.0830359 1.31799e-09 0.0051579)
(-0.0863157 2.16652e-09 0.00503467)
(-0.0895113 2.89673e-09 0.00489083)
(-0.09261 3.62119e-09 0.00472765)
(-0.0956001 4.34322e-09 0.00454654)
(-0.0984705 4.96107e-09 0.00434897)
(-0.101211 5.29881e-09 0.00413647)
(-0.103813 5.14214e-09 0.00391064)
(-0.106268 4.37852e-09 0.00367305)
(-0.10857 3.05549e-09 0.00342533)
(-0.110711 1.36402e-09 0.00316906)
(-0.112687 -4.24069e-10 0.00290579)
(-0.114493 -1.97777e-09 0.00263704)
(-0.116127 -3.00946e-09 0.00236426)
(-0.117586 -3.2707e-09 0.00208886)
(-0.118868 -2.59813e-09 0.00181215)
(-0.119973 -9.76792e-10 0.0015354)
(-0.1209 1.39234e-09 0.00125977)
(-0.121651 4.15825e-09 0.000986372)
(-0.122227 6.9641e-09 0.00071623)
(-0.122629 9.57646e-09 0.000450296)
(-0.122861 1.19328e-08 0.000189449)
(-0.122925 1.40682e-08 -6.55908e-05)
(-0.122824 1.59176e-08 -0.000314487)
(-0.122563 1.72735e-08 -0.000556865)
(-0.122145 1.79842e-08 -0.000792147)
(-0.121575 1.80188e-08 -0.00101987)
(-0.120859 1.75868e-08 -0.00123966)
(-0.12 1.71181e-08 -0.00145122)
(-0.119004 1.71112e-08 -0.00165432)
(-0.117875 1.7922e-08 -0.00184879)
(-0.11662 1.95707e-08 -0.00203451)
(-0.115244 2.1777e-08 -0.0022114)
(-0.113751 2.40525e-08 -0.00237945)
(-0.112148 2.58971e-08 -0.00253866)
(-0.11044 2.70182e-08 -0.00268911)
(-0.108631 2.74059e-08 -0.00283087)
(-0.106727 2.72851e-08 -0.00296406)
(-0.104734 2.69584e-08 -0.00308881)
(-0.102657 2.66901e-08 -0.00320527)
(-0.1005 2.66618e-08 -0.00331362)
(-0.0982693 2.69063e-08 -0.00341403)
(-0.0959686 2.73283e-08 -0.00350671)
(-0.0936032 2.78054e-08 -0.00359185)
(-0.0911776 2.82159e-08 -0.00366967)
(-0.0886963 2.85205e-08 -0.0037404)
(-0.0861638 2.87626e-08 -0.00380425)
(-0.0835843 2.9079e-08 -0.00386147)
(-0.0809618 2.96154e-08 -0.00391228)
(-0.0783005 3.04688e-08 -0.00395694)
(-0.0756042 3.1644e-08 -0.00399567)
(-0.0728765 3.30419e-08 -0.00402873)
(-0.0701212 3.44774e-08 -0.00405636)
(-0.0673417 3.57479e-08 -0.00407879)
(-0.0645413 3.67483e-08 -0.00409627)
(-0.0617234 3.75053e-08 -0.00410904)
(-0.0588909 3.81022e-08 -0.00411733)
(-0.0560469 3.86567e-08 -0.00412138)
(-0.0531942 3.92946e-08 -0.0041214)
(-0.0503357 4.01377e-08 -0.00411763)
(-0.0474738 4.12328e-08 -0.00411027)
(-0.0446112 4.25498e-08 -0.00409955)
(-0.0417502 4.39837e-08 -0.00408566)
(-0.038893 4.54027e-08 -0.00406882)
(-0.0360419 4.66316e-08 -0.00404922)
(-0.0331989 4.74953e-08 -0.00402707)
(-0.030366 4.78785e-08 -0.00400258)
(-0.0275448 4.77029e-08 -0.00397593)
(-0.0247372 4.69533e-08 -0.00394734)
(-0.0219448 4.56797e-08 -0.00391699)
(-0.0191689 4.40223e-08 -0.00388509)
(-0.0164109 4.21763e-08 -0.00385182)
(-0.0136721 4.03918e-08 -0.00381737)
(-0.0109535 3.89026e-08 -0.00378188)
(-0.00825617 3.79105e-08 -0.0037456)
(-0.00558074 3.76911e-08 -0.0037089)
(-0.00292836 3.84581e-08 -0.00367199)
(-0.000298867 4.01481e-08 -0.00363452)
(0.00230592 4.26011e-08 -0.00359629)
(0.00488372 4.54568e-08 -0.0035575)
(0.00743468 4.81175e-08 -0.00351815)
(0.00995851 4.98521e-08 -0.00347744)
(0.0124546 5.01946e-08 -0.00343582)
(0.014923 4.94138e-08 -0.00339436)
(0.0173632 4.77431e-08 -0.00335312)
(0.0197753 4.5321e-08 -0.00331222)
(0.022159 4.23712e-08 -0.00327173)
(0.0245145 3.92391e-08 -0.00323172)
(0.0268418 3.62587e-08 -0.00319224)
(0.0291411 3.36505e-08 -0.00315333)
(0.0314125 3.15064e-08 -0.00311503)
(0.0336564 2.9808e-08 -0.00307737)
(0.0358729 2.84903e-08 -0.00304035)
(0.0380625 2.74948e-08 -0.00300396)
(0.0402253 2.67749e-08 -0.00296818)
(0.0423615 2.62888e-08 -0.00293293)
(0.0444716 2.59664e-08 -0.00289812)
(0.0465555 2.57442e-08 -0.00286365)
(0.0486134 2.55806e-08 -0.00282932)
(0.0506452 2.54386e-08 -0.00279496)
(0.0526508 2.52884e-08 -0.00276029)
(0.0546298 2.51098e-08 -0.00272503)
(0.0565816 2.49011e-08 -0.00268881)
(0.0585055 2.46306e-08 -0.00265125)
(0.0604003 2.42833e-08 -0.00261186)
(0.0622646 2.38306e-08 -0.00257014)
(0.0640967 2.32677e-08 -0.0025255)
(0.0658944 2.25928e-08 -0.00247732)
(0.067655 2.1816e-08 -0.00242488)
(0.0693756 2.09372e-08 -0.00236743)
(0.0710524 1.99548e-08 -0.00230414)
(0.0726813 1.88904e-08 -0.00223413)
(0.0742576 1.77926e-08 -0.00215648)
(0.0757757 1.67298e-08 -0.0020702)
(0.0772297 1.57656e-08 -0.00197429)
(0.0786128 1.49301e-08 -0.00186769)
(0.0799175 1.42099e-08 -0.00174933)
(0.0811357 1.35899e-08 -0.00161812)
(0.0822585 1.30417e-08 -0.00147299)
(0.0832761 1.25704e-08 -0.00131287)
(0.0841784 1.2211e-08 -0.00113677)
(0.0849543 1.19738e-08 -0.000943746)
(0.0855921 1.18419e-08 -0.000732986)
(0.0860794 1.1762e-08 -0.000503855)
(0.0864036 1.15633e-08 -0.000255916)
(0.0865506 1.12889e-08 1.11241e-05)
(0.086507 1.08943e-08 0.000298556)
(0.0862586 1.02804e-08 0.000607515)
(0.0857915 9.65129e-09 0.000937861)
(0.0850914 9.11247e-09 0.00128926)
(0.0841443 8.73096e-09 0.00166109)
(0.0829363 8.50176e-09 0.00205237)
(0.0814543 8.39308e-09 0.00246179)
(0.0796862 8.42506e-09 0.00288757)
(0.0776207 8.67493e-09 0.00332744)
(0.0752484 9.2804e-09 0.00377859)
(0.0725616 1.0381e-08 0.00423754)
(0.069555 1.19923e-08 0.00470012)
(0.0662262 1.40274e-08 0.00516132)
(0.0625761 1.62802e-08 0.00561524)
(0.0586096 1.86149e-08 0.00605491)
(0.0543362 2.09576e-08 0.00647217)
(0.0497711 2.32363e-08 0.00685742)
(0.0449358 2.52591e-08 0.0071994)
(0.0398594 2.69048e-08 0.00748484)
(0.0345797 2.81478e-08 0.00769798)
(0.0291452 2.89811e-08 0.00781995)
(0.0236162 2.92408e-08 0.00782764)
(0.018069 2.88018e-08 0.00769337)
(0.0125946 2.7254e-08 0.00737784)
(0.00730361 2.43284e-08 0.00683563)
(0.00233268 2.05784e-08 0.0060213)
(-0.00216957 1.63782e-08 0.00487589)
(-0.00598328 1.13799e-08 0.00334582)
(-0.00890533 6.32204e-09 0.00138535)
(-0.0106947 3.56197e-09 -0.000988352)
(-0.0110627 5.26193e-09 -0.00360477)
(-0.00976576 7.86927e-09 -0.00598184)