/*--------------------------------*- C++ -*----------------------------------*\
  =========                 |
  \\      /  F ield         | OpenFOAM: The Open Source CFD Toolbox
   \\    /   O peration     | Website:  https://openfoam.org
    \\  /    A nd           | Version:  8
     \\/     M anipulation  |
\*---------------------------------------------------------------------------*/
FoamFile
{
    version     2.0;
    format      ascii;
    class       volScalarField;
    location    "900";
    object      alphat;
}
// * * * * * * * * * * * * * * * * * * * * * * * * * * * * * * * * * * * * * //

dimensions      [1 -1 -1 0 0 0 0];

internalField   nonuniform List<scalar> 
46000
(
8.39618e-08
3.95421e-07
8.3572e-07
1.31851e-06
1.84479e-06
2.37568e-06
2.89294e-06
3.39999e-06
3.87831e-06
4.33007e-06
4.75616e-06
5.1555e-06
5.52699e-06
5.86963e-06
6.18261e-06
6.46531e-06
6.71732e-06
6.93843e-06
7.12869e-06
7.28839e-06
7.41804e-06
7.51838e-06
7.59037e-06
7.63511e-06
7.65394e-06
7.65094e-06
7.63381e-06
7.59834e-06
7.54444e-06
7.47352e-06
7.38754e-06
7.28864e-06
7.17903e-06
7.06087e-06
6.93626e-06
6.80715e-06
6.67537e-06
6.54258e-06
6.41026e-06
6.27971e-06
6.15204e-06
6.02821e-06
5.909e-06
5.79502e-06
5.68676e-06
5.58456e-06
5.48866e-06
5.39921e-06
5.31626e-06
5.23978e-06
5.16972e-06
5.10594e-06
5.0483e-06
4.9966e-06
4.95065e-06
4.91023e-06
4.87512e-06
4.84508e-06
4.81988e-06
4.79931e-06
4.78391e-06
4.77347e-06
4.7671e-06
4.76446e-06
4.76536e-06
4.76965e-06
4.7772e-06
4.78787e-06
4.80155e-06
4.81809e-06
4.8374e-06
4.85935e-06
4.88386e-06
4.91081e-06
4.94009e-06
4.97164e-06
5.00536e-06
5.04116e-06
5.07896e-06
5.11871e-06
5.16035e-06
5.2038e-06
5.24903e-06
5.29597e-06
5.34461e-06
5.39488e-06
5.44675e-06
5.50021e-06
5.55521e-06
5.61174e-06
5.66976e-06
5.72926e-06
5.79021e-06
5.85258e-06
5.91634e-06
5.98145e-06
6.04789e-06
6.11561e-06
6.18456e-06
6.25471e-06
6.32599e-06
6.39836e-06
6.47174e-06
6.54608e-06
6.6213e-06
6.69734e-06
6.77411e-06
6.85155e-06
6.92956e-06
7.00808e-06
7.08703e-06
7.16634e-06
7.24595e-06
7.32579e-06
7.40579e-06
7.48592e-06
7.56613e-06
7.6464e-06
7.72666e-06
7.80692e-06
7.88716e-06
7.96741e-06
8.04766e-06
8.12792e-06
8.20821e-06
8.28859e-06
8.36909e-06
8.44977e-06
8.53067e-06
8.61188e-06
8.69348e-06
8.77556e-06
8.85822e-06
8.94155e-06
9.02567e-06
9.1107e-06
9.19679e-06
9.28406e-06
9.37266e-06
9.46277e-06
9.55455e-06
9.64818e-06
9.74383e-06
9.8417e-06
9.94199e-06
1.00449e-05
1.01506e-05
1.02593e-05
1.03712e-05
1.04864e-05
1.06051e-05
1.07273e-05
1.08531e-05
1.09826e-05
1.11156e-05
1.12521e-05
1.13917e-05
1.15342e-05
1.16789e-05
1.18254e-05
1.19728e-05
1.212e-05
1.22659e-05
1.2409e-05
1.25478e-05
1.26801e-05
1.28039e-05
1.29167e-05
1.30158e-05
1.30983e-05
1.31611e-05
1.32012e-05
1.32173e-05
1.32082e-05
1.31674e-05
1.30906e-05
1.29743e-05
1.28154e-05
1.26112e-05
1.23594e-05
1.20585e-05
1.17075e-05
1.1306e-05
1.08548e-05
1.03552e-05
9.80985e-06
9.22212e-06
8.59647e-06
7.93829e-06
7.25378e-06
6.54986e-06
5.83383e-06
5.11256e-06
4.3873e-06
3.6602e-06
2.95188e-06
2.23512e-06
1.5265e-06
8.07127e-07
1.81399e-07
8.3956e-08
3.95421e-07
8.35721e-07
1.31852e-06
1.84482e-06
2.37572e-06
2.89299e-06
3.40005e-06
3.87836e-06
4.33011e-06
4.75619e-06
5.15552e-06
5.52702e-06
5.86968e-06
6.1827e-06
6.46543e-06
6.71746e-06
6.93858e-06
7.12885e-06
7.28854e-06
7.41818e-06
7.51851e-06
7.59049e-06
7.63522e-06
7.65404e-06
7.65109e-06
7.63397e-06
7.59851e-06
7.54462e-06
7.47369e-06
7.3877e-06
7.28878e-06
7.17915e-06
7.06098e-06
6.93635e-06
6.80722e-06
6.67544e-06
6.54264e-06
6.41031e-06
6.27976e-06
6.1521e-06
6.02827e-06
5.90906e-06
5.79508e-06
5.68682e-06
5.58462e-06
5.48872e-06
5.39927e-06
5.3163e-06
5.23982e-06
5.16975e-06
5.10597e-06
5.04832e-06
4.99663e-06
4.95068e-06
4.91028e-06
4.87518e-06
4.84516e-06
4.81997e-06
4.79941e-06
4.78397e-06
4.77353e-06
4.76716e-06
4.76452e-06
4.76542e-06
4.76972e-06
4.77727e-06
4.78795e-06
4.80163e-06
4.81818e-06
4.83748e-06
4.85945e-06
4.88395e-06
4.9109e-06
4.94018e-06
4.97173e-06
5.00545e-06
5.04124e-06
5.07905e-06
5.1188e-06
5.16044e-06
5.20389e-06
5.24911e-06
5.29606e-06
5.34469e-06
5.39496e-06
5.44684e-06
5.5003e-06
5.5553e-06
5.61183e-06
5.66985e-06
5.72936e-06
5.7903e-06
5.85267e-06
5.91642e-06
5.98154e-06
6.04798e-06
6.1157e-06
6.18465e-06
6.2548e-06
6.32608e-06
6.39845e-06
6.47183e-06
6.54617e-06
6.62139e-06
6.69743e-06
6.7742e-06
6.85164e-06
6.92966e-06
7.00818e-06
7.08712e-06
7.16644e-06
7.24604e-06
7.32588e-06
7.40588e-06
7.48601e-06
7.56623e-06
7.64649e-06
7.72675e-06
7.80701e-06
7.88726e-06
7.96751e-06
8.04776e-06
8.12801e-06
8.20831e-06
8.28868e-06
8.36919e-06
8.44986e-06
8.53076e-06
8.61197e-06
8.69357e-06
8.77565e-06
8.85831e-06
8.94164e-06
9.02576e-06
9.11079e-06
9.19687e-06
9.28414e-06
9.37275e-06
9.46286e-06
9.55464e-06
9.64827e-06
9.74392e-06
9.84179e-06
9.94208e-06
1.0045e-05
1.01507e-05
1.02594e-05
1.03713e-05
1.04865e-05
1.06051e-05
1.07274e-05
1.08532e-05
1.09827e-05
1.11157e-05
1.12522e-05
1.13918e-05
1.15343e-05
1.1679e-05
1.18255e-05
1.19729e-05
1.21201e-05
1.2266e-05
1.24091e-05
1.25478e-05
1.26802e-05
1.2804e-05
1.29168e-05
1.30159e-05
1.30984e-05
1.31613e-05
1.32013e-05
1.32174e-05
1.32083e-05
1.31675e-05
1.30907e-05
1.29744e-05
1.28155e-05
1.26113e-05
1.23596e-05
1.20587e-05
1.17076e-05
1.13062e-05
1.08549e-05
1.03554e-05
9.80997e-06
9.22222e-06
8.59656e-06
7.93836e-06
7.25384e-06
6.54991e-06
5.83388e-06
5.11261e-06
4.38735e-06
3.66024e-06
2.95191e-06
2.23514e-06
1.52654e-06
8.07144e-07
1.81398e-07
3.67958e-07
1.20564e-05
2.4675e-05
3.43402e-05
4.18441e-05
4.81229e-05
5.35449e-05
5.83081e-05
6.25576e-05
6.6349e-05
6.97197e-05
7.27035e-05
7.53298e-05
7.76245e-05
7.96113e-05
8.13118e-05
8.27462e-05
8.3934e-05
8.48933e-05
8.56417e-05
8.61959e-05
8.65718e-05
8.67838e-05
8.68442e-05
8.67589e-05
8.65101e-05
8.61091e-05
8.56174e-05
8.50521e-05
8.44282e-05
8.37591e-05
8.30562e-05
8.23297e-05
8.15886e-05
8.08409e-05
8.0094e-05
7.93539e-05
7.86262e-05
7.79156e-05
7.72261e-05
7.6561e-05
7.59232e-05
7.53148e-05
7.47375e-05
7.41926e-05
7.36808e-05
7.32028e-05
7.27587e-05
7.23484e-05
7.19716e-05
7.16279e-05
7.13166e-05
7.10371e-05
7.07885e-05
7.05698e-05
7.03801e-05
7.02185e-05
7.00836e-05
6.99742e-05
6.98875e-05
6.98165e-05
6.97661e-05
6.97373e-05
6.97303e-05
6.97449e-05
6.97803e-05
6.9836e-05
6.99111e-05
7.00048e-05
7.01165e-05
7.02453e-05
7.03904e-05
7.05513e-05
7.07271e-05
7.09171e-05
7.11208e-05
7.13374e-05
7.15663e-05
7.18071e-05
7.20591e-05
7.23219e-05
7.25949e-05
7.28779e-05
7.31703e-05
7.34717e-05
7.37819e-05
7.41004e-05
7.4427e-05
7.47613e-05
7.51031e-05
7.5452e-05
7.58078e-05
7.61702e-05
7.65388e-05
7.69134e-05
7.72935e-05
7.76789e-05
7.80691e-05
7.84639e-05
7.88628e-05
7.92654e-05
7.96712e-05
8.00799e-05
8.04909e-05
8.09039e-05
8.13184e-05
8.17338e-05
8.21499e-05
8.25661e-05
8.29821e-05
8.33974e-05
8.38117e-05
8.42249e-05
8.46364e-05
8.50462e-05
8.5454e-05
8.58597e-05
8.62633e-05
8.66646e-05
8.70635e-05
8.74603e-05
8.78551e-05
8.82479e-05
8.8639e-05
8.90284e-05
8.94165e-05
8.98036e-05
9.01901e-05
9.05763e-05
9.09626e-05
9.13495e-05
9.17375e-05
9.2127e-05
9.25186e-05
9.29128e-05
9.33104e-05
9.37119e-05
9.41179e-05
9.45293e-05
9.49467e-05
9.53708e-05
9.58026e-05
9.62428e-05
9.6692e-05
9.71513e-05
9.76212e-05
9.81026e-05
9.85961e-05
9.91021e-05
9.96211e-05
0.000100154
0.0001007
0.000101259
0.000101831
0.000102415
0.000103011
0.000103615
0.000104228
0.000104845
0.000105463
0.000106079
0.000106688
0.000107285
0.000107863
0.000108415
0.000108933
0.000109409
0.000109832
0.000110193
0.00011048
0.00011068
0.000110781
0.000110769
0.000110601
0.000110274
0.000109777
0.0001091
0.000108229
0.000107153
0.00010586
0.000104342
0.000102589
0.000100594
9.83545e-05
9.58663e-05
9.31295e-05
9.01461e-05
8.69196e-05
8.34552e-05
7.9759e-05
7.58361e-05
7.16882e-05
6.73093e-05
6.26784e-05
5.76993e-05
5.20271e-05
4.48777e-05
3.43351e-05
1.78705e-05
7.41577e-07
3.67942e-07
1.20561e-05
2.46747e-05
3.434e-05
4.18441e-05
4.81231e-05
5.35451e-05
5.83082e-05
6.25576e-05
6.63487e-05
6.97191e-05
7.27026e-05
7.53287e-05
7.76235e-05
7.96105e-05
8.13114e-05
8.27462e-05
8.39342e-05
8.48937e-05
8.56422e-05
8.61965e-05
8.65723e-05
8.67842e-05
8.68445e-05
8.67591e-05
8.65106e-05
8.61098e-05
8.56181e-05
8.50528e-05
8.4429e-05
8.37598e-05
8.30567e-05
8.23301e-05
8.15888e-05
8.08411e-05
8.00941e-05
7.93539e-05
7.86262e-05
7.79156e-05
7.72261e-05
7.65611e-05
7.59233e-05
7.53149e-05
7.47376e-05
7.41927e-05
7.36809e-05
7.32029e-05
7.27587e-05
7.23483e-05
7.19715e-05
7.16277e-05
7.13164e-05
7.10369e-05
7.07883e-05
7.05696e-05
7.03801e-05
7.02185e-05
7.00838e-05
6.99745e-05
6.98878e-05
6.98165e-05
6.97658e-05
6.97369e-05
6.97299e-05
6.97445e-05
6.978e-05
6.98357e-05
6.99109e-05
7.00048e-05
7.01165e-05
7.02454e-05
7.03907e-05
7.05516e-05
7.07274e-05
7.09175e-05
7.11211e-05
7.13377e-05
7.15667e-05
7.18074e-05
7.20594e-05
7.23222e-05
7.25952e-05
7.28781e-05
7.31705e-05
7.3472e-05
7.37822e-05
7.41007e-05
7.44273e-05
7.47616e-05
7.51034e-05
7.54523e-05
7.58081e-05
7.61705e-05
7.6539e-05
7.69136e-05
7.72937e-05
7.76791e-05
7.80693e-05
7.84641e-05
7.8863e-05
7.92656e-05
7.96714e-05
8.00801e-05
8.04911e-05
8.09041e-05
8.13185e-05
8.1734e-05
8.21501e-05
8.25663e-05
8.29822e-05
8.33976e-05
8.38119e-05
8.42251e-05
8.46366e-05
8.50464e-05
8.54542e-05
8.58599e-05
8.62635e-05
8.66647e-05
8.70637e-05
8.74606e-05
8.78554e-05
8.82482e-05
8.86392e-05
8.90286e-05
8.94167e-05
8.98038e-05
9.01903e-05
9.05765e-05
9.09629e-05
9.13498e-05
9.17377e-05
9.21272e-05
9.25188e-05
9.29131e-05
9.33106e-05
9.37121e-05
9.41182e-05
9.45295e-05
9.49469e-05
9.53711e-05
9.58028e-05
9.62429e-05
9.66922e-05
9.71515e-05
9.76215e-05
9.81028e-05
9.85962e-05
9.91022e-05
9.96213e-05
0.000100154
0.0001007
0.000101259
0.000101831
0.000102416
0.000103011
0.000103616
0.000104228
0.000104845
0.000105463
0.000106079
0.000106688
0.000107285
0.000107863
0.000108415
0.000108933
0.000109409
0.000109832
0.000110193
0.00011048
0.00011068
0.000110781
0.000110769
0.000110601
0.000110274
0.000109777
0.0001091
0.000108229
0.000107153
0.000105861
0.000104342
0.000102589
0.000100595
9.8355e-05
9.58667e-05
9.31299e-05
9.01464e-05
8.69198e-05
8.34555e-05
7.97592e-05
7.58363e-05
7.16884e-05
6.73095e-05
6.26786e-05
5.76995e-05
5.20273e-05
4.48779e-05
3.43356e-05
1.78708e-05
7.41568e-07
7.34657e-07
2.4119e-05
5.23955e-05
7.37644e-05
9.04677e-05
0.000104275
0.000116048
0.000126232
0.000135105
0.00014284
0.000149558
0.000155357
0.00016032
0.000164523
0.000168032
0.000170912
0.000173221
0.000175015
0.000176348
0.000177268
0.000177821
0.00017805
0.000177992
0.00017768
0.000177137
0.000176374
0.000175391
0.000174277
0.000173065
0.000171781
0.00017045
0.000169093
0.000167727
0.000166366
0.000165023
0.000163708
0.000162431
0.000161197
0.000160014
0.000158884
0.000157812
0.0001568
0.000155849
0.00015496
0.000154133
0.000153367
0.000152662
0.000152016
0.000151427
0.000150894
0.000150414
0.000149986
0.000149608
0.000149277
0.000148991
0.000148748
0.000148547
0.000148385
0.000148258
0.000148164
0.000148097
0.000148058
0.00014805
0.000148072
0.000148124
0.000148206
0.000148318
0.000148458
0.000148626
0.000148821
0.000149041
0.000149287
0.000149556
0.000149849
0.000150165
0.000150501
0.000150859
0.000151236
0.000151632
0.000152047
0.00015248
0.000152929
0.000153395
0.000153877
0.000154374
0.000154886
0.000155412
0.000155952
0.000156504
0.00015707
0.000157647
0.000158236
0.000158836
0.000159446
0.000160065
0.000160694
0.000161331
0.000161975
0.000162627
0.000163284
0.000163947
0.000164613
0.000165284
0.000165957
0.000166632
0.000167309
0.000167985
0.000168662
0.000169337
0.000170011
0.000170682
0.00017135
0.000172016
0.000172678
0.000173336
0.00017399
0.000174639
0.000175285
0.000175927
0.000176565
0.000177199
0.00017783
0.000178457
0.000179083
0.000179706
0.000180327
0.000180948
0.000181568
0.000182189
0.000182812
0.000183436
0.000184063
0.000184695
0.000185331
0.000185973
0.000186622
0.000187279
0.000187946
0.000188623
0.000189312
0.000190014
0.000190731
0.000191464
0.000192214
0.000192982
0.000193771
0.00019458
0.000195412
0.000196266
0.000197144
0.000198045
0.00019897
0.000199919
0.00020089
0.000201882
0.000202893
0.000203919
0.000204956
0.000206001
0.000207047
0.000208086
0.000209112
0.000210115
0.000211083
0.000212005
0.000212868
0.000213657
0.000214356
0.000214947
0.000215412
0.00021573
0.00021588
0.000215836
0.000215554
0.000215015
0.000214202
0.000213096
0.000211677
0.000209926
0.000207823
0.000205352
0.000202496
0.000199239
0.000195568
0.000191469
0.00018693
0.000181939
0.00017648
0.000170538
0.000164089
0.000157095
0.000149497
0.000141189
0.000131971
0.000121439
0.000108755
9.22845e-05
6.88865e-05
3.3935e-05
1.55453e-06
7.3466e-07
2.41187e-05
5.23945e-05
7.37631e-05
9.04661e-05
0.000104273
0.000116046
0.000126231
0.000135104
0.000142838
0.000149556
0.000155355
0.000160319
0.000164522
0.000168031
0.000170911
0.00017322
0.000175015
0.000176348
0.000177268
0.000177821
0.00017805
0.000177993
0.000177681
0.000177138
0.000176374
0.000175392
0.000174278
0.000173066
0.000171782
0.000170451
0.000169094
0.000167728
0.000166367
0.000165024
0.000163709
0.000162432
0.000161198
0.000160014
0.000158885
0.000157813
0.000156801
0.00015585
0.000154961
0.000154134
0.000153368
0.000152662
0.000152016
0.000151427
0.000150894
0.000150414
0.000149986
0.000149608
0.000149277
0.000148991
0.000148749
0.000148547
0.000148385
0.000148259
0.000148165
0.000148097
0.000148058
0.00014805
0.000148072
0.000148124
0.000148206
0.000148318
0.000148458
0.000148626
0.000148821
0.000149041
0.000149287
0.000149557
0.00014985
0.000150165
0.000150502
0.000150859
0.000151236
0.000151633
0.000152047
0.00015248
0.00015293
0.000153396
0.000153877
0.000154374
0.000154886
0.000155412
0.000155952
0.000156505
0.00015707
0.000157647
0.000158236
0.000158836
0.000159446
0.000160066
0.000160694
0.000161331
0.000161976
0.000162627
0.000163284
0.000163947
0.000164614
0.000165284
0.000165958
0.000166633
0.000167309
0.000167986
0.000168662
0.000169337
0.000170011
0.000170682
0.000171351
0.000172016
0.000172678
0.000173336
0.00017399
0.00017464
0.000175286
0.000175927
0.000176565
0.000177199
0.00017783
0.000178458
0.000179083
0.000179706
0.000180328
0.000180948
0.000181569
0.00018219
0.000182812
0.000183436
0.000184064
0.000184695
0.000185331
0.000185973
0.000186622
0.000187279
0.000187946
0.000188623
0.000189312
0.000190015
0.000190731
0.000191464
0.000192214
0.000192983
0.000193771
0.00019458
0.000195412
0.000196266
0.000197144
0.000198045
0.000198971
0.000199919
0.00020089
0.000201882
0.000202893
0.000203919
0.000204956
0.000206001
0.000207047
0.000208087
0.000209112
0.000210115
0.000211083
0.000212005
0.000212868
0.000213657
0.000214356
0.000214947
0.000215412
0.00021573
0.000215881
0.000215836
0.000215554
0.000215015
0.000214203
0.000213097
0.000211678
0.000209926
0.000207824
0.000205353
0.000202496
0.00019924
0.000195568
0.00019147
0.000186931
0.000181939
0.000176481
0.000170539
0.000164089
0.000157095
0.000149497
0.000141189
0.000131972
0.000121439
0.000108755
9.22848e-05
6.88868e-05
3.39351e-05
1.55451e-06
1.09274e-06
3.23002e-05
7.15124e-05
0.000102337
0.000127119
0.000147766
0.000165361
0.000180536
0.000193689
0.000205085
0.00021492
0.000223348
0.000230498
0.000236488
0.000241424
0.000245405
0.000248528
0.000250881
0.00025255
0.000253614
0.000254149
0.000254223
0.000253898
0.000253226
0.000252254
0.000251015
0.000249534
0.000247889
0.000246126
0.000244283
0.000242392
0.000240481
0.000238573
0.000236689
0.000234843
0.000233049
0.000231318
0.000229659
0.000228079
0.000226581
0.00022517
0.000223847
0.000222614
0.00022147
0.000220415
0.000219445
0.00021856
0.000217756
0.00021703
0.000216378
0.000215798
0.000215286
0.000214838
0.000214451
0.000214121
0.000213845
0.000213619
0.000213442
0.000213308
0.000213215
0.000213157
0.000213135
0.000213148
0.000213197
0.000213282
0.000213402
0.000213556
0.000213745
0.000213966
0.000214219
0.000214504
0.000214819
0.000215164
0.000215537
0.000215939
0.000216367
0.000216822
0.000217302
0.000217806
0.000218334
0.000218886
0.00021946
0.000220055
0.000220672
0.000221308
0.000221965
0.00022264
0.000223333
0.000224045
0.000224773
0.000225517
0.000226276
0.00022705
0.000227837
0.000228638
0.00022945
0.000230272
0.000231105
0.000231946
0.000232795
0.00023365
0.00023451
0.000235375
0.000236242
0.000237112
0.000237982
0.000238853
0.000239722
0.000240589
0.000241453
0.000242314
0.000243171
0.000244024
0.000244871
0.000245713
0.00024655
0.000247381
0.000248207
0.000249028
0.000249844
0.000250656
0.000251463
0.000252268
0.000253069
0.000253869
0.000254667
0.000255465
0.000256264
0.000257065
0.000257868
0.000258676
0.000259488
0.000260307
0.000261134
0.000261971
0.000262818
0.000263677
0.000264551
0.00026544
0.000266347
0.000267273
0.000268221
0.000269191
0.000270187
0.000271209
0.000272259
0.000273339
0.00027445
0.000275594
0.000276771
0.000277982
0.000279226
0.000280503
0.000281812
0.000283149
0.000284513
0.000285899
0.000287301
0.000288714
0.00029013
0.000291539
0.00029293
0.000294291
0.000295609
0.000296866
0.000298046
0.000299131
0.000300097
0.000300925
0.000301588
0.000302063
0.000302322
0.000302325
0.000302038
0.000301433
0.000300483
0.000299162
0.000297444
0.000295303
0.000292712
0.000289646
0.000286078
0.000281984
0.000277336
0.000272106
0.000266264
0.000259774
0.000252594
0.000244672
0.00023594
0.000226298
0.000215601
0.000203615
0.000189946
0.000173906
0.000154262
0.000128857
9.4113e-05
4.58389e-05
2.467e-06
1.09276e-06
3.23e-05
7.15111e-05
0.000102335
0.000127116
0.000147762
0.000165358
0.000180533
0.000193685
0.000205082
0.000214917
0.000223345
0.000230496
0.000236486
0.000241422
0.000245404
0.000248527
0.00025088
0.000252549
0.000253614
0.00025415
0.000254224
0.000253898
0.000253227
0.000252255
0.000251017
0.000249536
0.000247891
0.000246128
0.000244285
0.000242394
0.000240483
0.000238576
0.000236691
0.000234845
0.000233051
0.00023132
0.000229661
0.00022808
0.000226583
0.000225172
0.000223849
0.000222616
0.000221472
0.000220416
0.000219447
0.000218561
0.000217757
0.000217031
0.00021638
0.0002158
0.000215287
0.000214839
0.000214452
0.000214122
0.000213846
0.00021362
0.000213443
0.00021331
0.000213216
0.000213159
0.000213136
0.000213149
0.000213198
0.000213283
0.000213403
0.000213557
0.000213746
0.000213967
0.00021422
0.000214505
0.00021482
0.000215165
0.000215538
0.00021594
0.000216368
0.000216823
0.000217302
0.000217807
0.000218335
0.000218887
0.000219461
0.000220056
0.000220673
0.000221309
0.000221966
0.000222641
0.000223334
0.000224046
0.000224774
0.000225518
0.000226277
0.000227051
0.000227838
0.000228639
0.000229451
0.000230273
0.000231106
0.000231947
0.000232796
0.000233651
0.000234511
0.000235376
0.000236243
0.000237113
0.000237983
0.000238854
0.000239723
0.00024059
0.000241454
0.000242315
0.000243172
0.000244025
0.000244872
0.000245714
0.000246551
0.000247382
0.000248208
0.000249029
0.000249845
0.000250657
0.000251464
0.000252269
0.00025307
0.00025387
0.000254668
0.000255466
0.000256265
0.000257066
0.000257869
0.000258677
0.000259489
0.000260308
0.000261135
0.000261972
0.000262819
0.000263678
0.000264552
0.000265441
0.000266348
0.000267274
0.000268222
0.000269192
0.000270187
0.000271209
0.00027226
0.00027334
0.000274451
0.000275595
0.000276772
0.000277983
0.000279227
0.000280504
0.000281812
0.00028315
0.000284514
0.000285899
0.000287302
0.000288715
0.000290131
0.000291539
0.000292931
0.000294292
0.000295609
0.000296867
0.000298047
0.000299131
0.000300098
0.000300925
0.000301589
0.000302064
0.000302323
0.000302326
0.000302039
0.000301434
0.000300484
0.000299163
0.000297445
0.000295304
0.000292713
0.000289647
0.00028608
0.000281986
0.000277338
0.000272108
0.000266265
0.000259775
0.000252595
0.000244674
0.000235941
0.000226299
0.000215602
0.000203616
0.000189948
0.000173907
0.000154263
0.000128858
9.41135e-05
4.58392e-05
2.46698e-06
1.46028e-06
3.78664e-05
8.4873e-05
0.000123236
0.000154625
0.000180972
0.000203493
0.000222938
0.000239795
0.000254399
0.000266996
0.000277782
0.000286922
0.000294563
0.00030084
0.000305881
0.000309808
0.000312738
0.000314783
0.000316049
0.000316635
0.000316633
0.000316127
0.000315192
0.000313893
0.000312284
0.000310412
0.000308339
0.000306134
0.000303839
0.000301495
0.000299134
0.000296785
0.000294469
0.000292207
0.000290015
0.000287904
0.000285886
0.000283967
0.000282152
0.000280447
0.000278852
0.000277368
0.000275996
0.000274732
0.000273575
0.000272522
0.000271568
0.00027071
0.000269943
0.000269263
0.000268664
0.000268143
0.000267694
0.000267313
0.000266995
0.000266738
0.000266535
0.000266384
0.000266281
0.00026622
0.0002662
0.000266222
0.000266284
0.000266386
0.000266527
0.000266706
0.000266924
0.000267178
0.000267469
0.000267795
0.000268156
0.00026855
0.000268978
0.000269438
0.00026993
0.000270452
0.000271004
0.000271585
0.000272194
0.000272831
0.000273495
0.000274184
0.000274899
0.000275639
0.000276402
0.000277188
0.000277997
0.000278826
0.000279676
0.000280546
0.000281434
0.000282339
0.000283261
0.000284199
0.00028515
0.000286114
0.00028709
0.000288075
0.00028907
0.000290072
0.00029108
0.000292093
0.000293109
0.000294127
0.000295146
0.000296165
0.000297182
0.000298196
0.000299207
0.000300214
0.000301216
0.000302212
0.000303202
0.000304187
0.000305165
0.000306137
0.000307103
0.000308063
0.000309018
0.000309968
0.000310914
0.000311857
0.000312797
0.000313735
0.000314673
0.000315611
0.000316551
0.000317494
0.000318442
0.000319395
0.000320356
0.000321325
0.000322306
0.000323299
0.000324306
0.000325329
0.000326371
0.000327433
0.000328518
0.000329627
0.000330764
0.00033193
0.000333128
0.00033436
0.000335627
0.000336933
0.000338278
0.000339664
0.000341092
0.000342562
0.000344075
0.00034563
0.000347224
0.000348856
0.000350521
0.000352215
0.000353932
0.000355663
0.000357401
0.000359133
0.000360846
0.000362528
0.00036416
0.000365725
0.000367202
0.000368568
0.000369801
0.000370873
0.000371756
0.000372422
0.00037284
0.000372964
0.000372763
0.000372203
0.000371252
0.000369877
0.000368047
0.000365728
0.000362886
0.000359489
0.000355499
0.000350879
0.000345588
0.000339578
0.000332799
0.000325189
0.000316674
0.000307162
0.000296535
0.00028463
0.000271215
0.000255938
0.000238246
0.000217233
0.000191394
0.000158263
0.000114053
5.51735e-05
3.42015e-06
1.46031e-06
3.78663e-05
8.48714e-05
0.000123234
0.000154622
0.000180968
0.000203489
0.000222934
0.000239791
0.000254395
0.000266993
0.000277779
0.000286919
0.000294561
0.000300838
0.000305879
0.000309807
0.000312737
0.000314783
0.000316049
0.000316635
0.000316634
0.000316129
0.000315194
0.000313894
0.000312286
0.000310414
0.000308342
0.000306136
0.000303842
0.000301498
0.000299137
0.000296788
0.000294472
0.00029221
0.000290018
0.000287907
0.000285889
0.00028397
0.000282155
0.00028045
0.000278855
0.000277371
0.000275998
0.000274735
0.000273578
0.000272524
0.000271571
0.000270713
0.000269946
0.000269265
0.000268667
0.000268145
0.000267696
0.000267315
0.000266997
0.00026674
0.000266537
0.000266386
0.000266282
0.000266222
0.000266202
0.000266223
0.000266285
0.000266387
0.000266528
0.000266708
0.000266925
0.00026718
0.00026747
0.000267796
0.000268157
0.000268552
0.00026898
0.00026944
0.000269931
0.000270453
0.000271005
0.000271587
0.000272196
0.000272833
0.000273496
0.000274186
0.000274901
0.00027564
0.000276404
0.00027719
0.000277998
0.000278828
0.000279678
0.000280547
0.000281435
0.000282341
0.000283263
0.0002842
0.000285151
0.000286116
0.000287091
0.000288077
0.000289072
0.000290074
0.000291082
0.000292095
0.000293111
0.000294129
0.000295148
0.000296166
0.000297183
0.000298198
0.000299209
0.000300215
0.000301217
0.000302214
0.000303204
0.000304188
0.000305167
0.000306139
0.000307105
0.000308065
0.00030902
0.00030997
0.000310916
0.000311858
0.000312798
0.000313737
0.000314674
0.000315613
0.000316553
0.000317496
0.000318443
0.000319397
0.000320357
0.000321327
0.000322307
0.0003233
0.000324307
0.000325331
0.000326372
0.000327434
0.000328519
0.000329629
0.000330765
0.000331931
0.000333129
0.000334361
0.000335628
0.000336934
0.000338279
0.000339665
0.000341093
0.000342564
0.000344077
0.000345631
0.000347225
0.000348857
0.000350522
0.000352216
0.000353933
0.000355665
0.000357402
0.000359134
0.000360848
0.000362529
0.000364161
0.000365726
0.000367203
0.000368569
0.000369802
0.000370874
0.000371757
0.000372423
0.000372841
0.000372966
0.000372765
0.000372205
0.000371253
0.000369879
0.000368048
0.000365729
0.000362888
0.000359491
0.000355501
0.000350881
0.00034559
0.000339581
0.000332801
0.000325191
0.000316676
0.000307165
0.000296537
0.000284632
0.000271217
0.00025594
0.000238248
0.000217235
0.000191396
0.000158264
0.000114053
5.51738e-05
3.42012e-06
1.82613e-06
4.23044e-05
9.51326e-05
0.000139409
0.000176123
0.000207141
0.000233745
0.000256765
0.000276753
0.000294093
0.000309069
0.000321909
0.000332802
0.000341916
0.000349407
0.000355424
0.00036011
0.000363601
0.000366031
0.000367527
0.000368208
0.000368188
0.000367569
0.000366446
0.0003649
0.000363004
0.000360821
0.00035841
0.00035585
0.000353194
0.000350485
0.000347761
0.000345052
0.000342386
0.000339784
0.000337264
0.000334838
0.000332519
0.000330314
0.000328229
0.000326269
0.000324436
0.00032273
0.000321151
0.000319696
0.000318364
0.000317151
0.000316051
0.000315062
0.000314177
0.000313391
0.000312699
0.000312095
0.000311573
0.000311129
0.000310758
0.000310454
0.000310213
0.000310029
0.0003099
0.000309821
0.000309787
0.0003098
0.000309858
0.00030996
0.000310105
0.000310292
0.00031052
0.000310789
0.000311098
0.000311446
0.000311833
0.000312257
0.000312717
0.000313214
0.000313747
0.000314313
0.000314914
0.000315547
0.000316213
0.000316909
0.000317637
0.000318394
0.000319181
0.000319996
0.000320838
0.000321706
0.0003226
0.000323518
0.00032446
0.000325424
0.00032641
0.000327415
0.00032844
0.000329481
0.000330539
0.000331611
0.000332696
0.000333793
0.0003349
0.000336015
0.000337136
0.000338263
0.000339394
0.000340527
0.00034166
0.000342793
0.000343924
0.000345053
0.000346177
0.000347297
0.000348412
0.00034952
0.000350622
0.000351718
0.000352807
0.000353889
0.000354965
0.000356035
0.0003571
0.000358159
0.000359215
0.000360267
0.000361318
0.000362367
0.000363416
0.000364467
0.000365521
0.000366579
0.000367643
0.000368714
0.000369795
0.000370887
0.000371993
0.000373113
0.000374252
0.00037541
0.00037659
0.000377795
0.000379027
0.000380288
0.000381583
0.000382912
0.00038428
0.000385687
0.000387138
0.000388633
0.000390176
0.000391768
0.000393409
0.000395101
0.000396844
0.000398636
0.000400477
0.000402362
0.000404289
0.000406252
0.000408243
0.000410255
0.000412277
0.000414297
0.000416301
0.000418273
0.000420195
0.000422047
0.000423806
0.000425448
0.000426946
0.000428272
0.000429395
0.000430284
0.000430903
0.00043121
0.000431169
0.000430743
0.000429896
0.000428592
0.000426793
0.000424459
0.000421549
0.000418021
0.000413828
0.000408917
0.000403233
0.000396709
0.00038927
0.000380828
0.000371275
0.000360479
0.000348273
0.000334432
0.000318647
0.000300467
0.000279209
0.000253806
0.000222561
0.000182806
0.000130659
6.30312e-05
4.35652e-06
1.82617e-06
4.23043e-05
9.51309e-05
0.000139406
0.000176119
0.000207136
0.00023374
0.00025676
0.000276748
0.000294088
0.000309065
0.000321905
0.000332798
0.000341913
0.000349405
0.000355423
0.000360109
0.000363601
0.000366031
0.000367527
0.000368209
0.000368189
0.000367571
0.000366448
0.000364902
0.000363006
0.000360824
0.000358413
0.000355854
0.000353198
0.000350489
0.000347764
0.000345056
0.00034239
0.000339788
0.000337267
0.000334842
0.000332523
0.000330318
0.000328233
0.000326273
0.00032444
0.000322734
0.000321154
0.0003197
0.000318368
0.000317154
0.000316055
0.000315065
0.00031418
0.000313394
0.000312702
0.000312098
0.000311576
0.000311132
0.000310761
0.000310456
0.000310215
0.000310032
0.000309903
0.000309823
0.00030979
0.000309803
0.000309861
0.000309962
0.000310107
0.000310294
0.000310523
0.000310792
0.000311101
0.000311449
0.000311835
0.000312259
0.00031272
0.000313217
0.000313749
0.000314315
0.000314916
0.000315549
0.000316215
0.000316912
0.000317639
0.000318397
0.000319183
0.000319998
0.00032084
0.000321708
0.000322602
0.00032352
0.000324462
0.000325427
0.000326412
0.000327418
0.000328442
0.000329484
0.000330541
0.000331613
0.000332699
0.000333795
0.000334902
0.000336017
0.000337139
0.000338265
0.000339396
0.000340529
0.000341662
0.000342795
0.000343927
0.000345055
0.00034618
0.000347299
0.000348414
0.000349522
0.000350624
0.00035172
0.000352809
0.000353891
0.000354967
0.000356037
0.000357102
0.000358162
0.000359217
0.00036027
0.00036132
0.000362369
0.000363418
0.000364469
0.000365523
0.000366581
0.000367645
0.000368716
0.000369797
0.000370889
0.000371995
0.000373115
0.000374254
0.000375412
0.000376592
0.000377797
0.000379029
0.00038029
0.000381585
0.000382914
0.000384281
0.000385689
0.00038714
0.000388635
0.000390178
0.00039177
0.000393411
0.000395103
0.000396846
0.000398638
0.000400479
0.000402364
0.000404291
0.000406253
0.000408245
0.000410256
0.000412278
0.000414298
0.000416302
0.000418274
0.000420196
0.000422048
0.000423807
0.000425449
0.000426947
0.000428273
0.000429397
0.000430285
0.000430905
0.000431212
0.00043117
0.000430745
0.000429898
0.000428594
0.000426795
0.000424461
0.000421551
0.000418024
0.00041383
0.00040892
0.000403235
0.000396712
0.000389273
0.000380831
0.000371278
0.000360482
0.000348276
0.000334435
0.00031865
0.000300469
0.000279211
0.000253808
0.000222563
0.000182807
0.00013066
6.30313e-05
4.35647e-06
2.19057e-06
4.61557e-05
0.000103649
0.000152641
0.000193663
0.000228505
0.000258479
0.000284468
0.000307069
0.000326706
0.000343693
0.000358279
0.000370672
0.000381058
0.000389608
0.000396485
0.000401847
0.000405847
0.000408634
0.000410352
0.000411139
0.000411124
0.000410427
0.000409158
0.000407416
0.000405286
0.000402846
0.000400159
0.000397311
0.000394359
0.000391351
0.000388329
0.000385328
0.000382376
0.000379496
0.000376706
0.00037402
0.000371451
0.000369007
0.000366694
0.000364516
0.000362476
0.000360574
0.00035881
0.000357183
0.000355688
0.000354324
0.000353084
0.000351965
0.000350961
0.000350066
0.000349274
0.000348579
0.000347976
0.000347458
0.00034702
0.000346656
0.000346362
0.000346132
0.000345962
0.000345848
0.000345785