/*--------------------------------*- C++ -*----------------------------------*\
  =========                 |
  \\      /  F ield         | OpenFOAM: The Open Source CFD Toolbox
   \\    /   O peration     | Website:  https://openfoam.org
    \\  /    A nd           | Version:  8
     \\/     M anipulation  |
\*---------------------------------------------------------------------------*/
FoamFile
{
    version     2.0;
    format      ascii;
    class       volScalarField;
    location    "900";
    object      epsilon;
}
// * * * * * * * * * * * * * * * * * * * * * * * * * * * * * * * * * * * * * //

dimensions      [0 2 -3 0 0 0 0];

internalField   nonuniform List<scalar> 
46000
(
1.54576
6.55521
13.8161
21.7477
30.3743
39.0562
47.5048
55.7821
63.5839
70.9521
77.9008
84.4135
90.4728
96.0635
101.173
105.791
109.912
113.531
116.649
119.271
121.405
123.062
124.258
125.011
125.342
125.317
125.061
124.505
123.648
122.513
121.13
119.536
117.766
115.854
113.836
111.744
109.606
107.45
105.301
103.179
101.103
99.089
97.1489
95.2935
93.5306
91.8661
90.3041
88.8469
87.4954
86.2494
85.1078
84.0687
83.1294
82.2872
81.5387
80.8804
80.3087
79.8198
79.4098
79.0757
78.8265
78.6579
78.5554
78.514
78.5307
78.6028
78.7283
78.9049
79.1303
79.4027
79.7203
80.0811
80.4832
80.9251
81.4055
81.9227
82.4751
83.0615
83.6811
84.3323
85.0138
85.7251
86.4653
87.2335
88.0289
88.8511
89.6996
90.5738
91.4729
92.3969
93.3453
94.3176
95.3133
96.3322
97.3738
98.4374
99.5225
100.628
101.755
102.9
104.063
105.245
106.443
107.656
108.884
110.125
111.377
112.641
113.913
115.194
116.482
117.775
119.073
120.375
121.68
122.987
124.294
125.602
126.91
128.219
129.527
130.834
132.141
133.448
134.757
136.067
137.378
138.692
140.01
141.333
142.662
143.998
145.343
146.7
148.07
149.454
150.855
152.276
153.718
155.185
156.678
158.202
159.758
161.35
162.982
164.656
166.375
168.143
169.964
171.838
173.769
175.757
177.804
179.91
182.075
184.295
186.567
188.885
191.241
193.626
196.027
198.425
200.803
203.136
205.398
207.558
209.581
211.425
213.047
214.4
215.434
216.1
216.376
216.244
215.598
214.366
212.49
209.921
206.614
202.533
197.651
191.949
185.424
178.084
169.953
161.069
151.488
141.281
130.534
119.347
107.831
96.1039
84.277
72.3682
60.4142
48.7541
36.9414
25.2489
13.367
3.33474
1.54589
6.55466
13.8157
21.7477
30.374
39.0555
47.5039
55.7815
63.584
70.9536
77.9043
84.4188
90.4795
96.0705
101.179
105.796
109.914
113.532
116.649
119.271
121.404
123.062
124.259
125.013
125.345
125.321
125.065
124.509
123.652
122.516
121.134
119.539
117.768
115.856
113.837
111.744
109.606
107.451
105.301
103.179
101.104
99.0893
97.1494
95.2941
93.5313
91.8669
90.3048
88.8473
87.4956
86.2494
85.1075
84.0681
83.1288
82.2866
81.5383
80.8804
80.3091
79.8207
79.4113
79.0777
78.8302
78.6624
78.5605
78.5193
78.5359
78.6079
78.7329
78.9088
79.1337
79.4056
79.7226
80.0828
80.4846
80.9265
81.4069
81.9239
82.4762
83.063
83.6827
84.3338
85.0153
85.7266
86.4669
87.2351
88.0305
88.8527
89.7011
90.5752
91.4745
92.3986
93.347
94.3193
95.3152
96.3343
97.376
98.4396
99.5246
100.631
101.757
102.902
104.066
105.247
106.445
107.658
108.886
110.127
111.379
112.643
113.915
115.196
116.484
117.777
119.075
120.377
121.682
122.988
124.296
125.604
126.912
128.221
129.528
130.835
132.142
133.45
134.759
136.069
137.38
138.694
140.012
141.334
142.663
143.999
145.345
146.702
148.072
149.456
150.857
152.277
153.719
155.186
156.68
158.203
159.76
161.352
162.983
164.656
166.376
168.145
169.966
171.84
173.77
175.758
177.805
179.911
182.076
184.296
186.567
188.885
191.242
193.627
196.027
198.425
200.803
203.136
205.4
207.561
209.584
211.428
213.05
214.402
215.436
216.101
216.377
216.245
215.598
214.366
212.491
209.922
206.616
202.536
197.654
191.953
185.428
178.088
169.956
161.071
151.489
141.282
130.535
119.347
107.831
96.1044
84.2775
72.3689
60.415
48.7546
36.9416
25.2476
13.3655
3.33428
7.23499
6.13906
8.83691
12.0399
15.5144
19.1172
22.695
26.2456
29.7262
33.1243
36.4307
39.633
42.717
45.6676
48.4692
51.1058
53.5618
55.8224
57.8737
59.7035
61.3019
62.661
63.7762
64.646
65.2752
65.6849
65.9036
65.9181
65.7305
65.3503
64.7925
64.0757
63.2202
62.2475
61.1791
60.0362
58.8393
57.6072
56.3576
55.1062
53.8671
52.6523
51.472
50.3347
49.2471
48.2144
47.2405
46.3278
45.478
44.6917
43.9686
43.308
42.7087
42.169
41.6871
41.2608
40.8879
40.5662
40.2934
40.0681
39.8914
39.7606
39.671
39.6194
39.6035
39.6212
39.6711
39.7515
39.8609
39.9982
40.1619
40.3509
40.5642
40.8005
41.0589
41.3386
41.6385
41.9578
42.2958
42.6519
43.0252
43.4152
43.8215
44.2435
44.6807
45.1329
45.5996
46.0806
46.5755
47.0842
47.6065
48.1421
48.6908
49.2526
49.8271
50.4142
51.0135
51.625
52.2482
52.8828
53.5285
54.185
54.8516
55.528
56.2137
56.908
57.6103
58.3202
59.0367
59.7595
60.4877
61.2208
61.958
62.6988
63.4426
64.189
64.9373
65.6871
66.4381
67.1901
67.9427
68.6958
69.4493
70.2034
70.9582
71.7137
72.4704
73.2284
73.9883
74.7507
75.5161
76.2852
77.059
77.8383
78.624
79.4171
80.2189
81.0305
81.8534
82.6889
83.5385
84.4037
85.2863
86.188
87.1105
88.0557
89.0254
90.0213
91.0451
92.0984
93.1824
94.2984
95.4471
96.6289
97.8435
99.0901
100.367
101.671
102.999
104.346
105.704
107.066
108.421
109.758
111.061
112.314
113.499
114.592
115.571
116.409
117.08
117.558
117.82
117.85
117.604
117.043
116.134
114.848
113.159
111.046
108.493
105.49
102.035
98.1328
93.7962
89.0469
83.9146
78.4368
72.6583
66.6296
60.4063
54.0469
47.6093
41.1447
34.7192
28.4423
22.3624
16.9254
12.6737
14.6615
7.23572
6.13915
8.83711
12.0402
15.5148
19.1177
22.6956
26.2462
29.7269
33.1251
36.4316
39.6341
42.7183
45.6689
48.4705
51.107
53.563
55.8235
57.8747
59.7045
61.3028
62.6619
63.7771
64.647
65.2761
65.6857
65.9043
65.9189
65.7312
65.3511
64.7934
64.0766
63.2212
62.2485
61.1801
60.0373
58.8403
57.6083
56.3586
55.1072
53.8681
52.6532
51.4729
50.3356
49.248
48.2153
47.2414
46.3289
45.4791
44.6928
43.9697
43.3091
42.7097
42.17
41.688
41.2617
40.8888
40.567
40.2942
40.0689
39.8923
39.7616
39.672
39.6204
39.6045
39.6223
39.6721
39.7525
39.8619
39.9991
40.1628
40.3518
40.565
40.8013
41.0598
41.3394
41.6393
41.9586
42.2967
42.6527
43.026
43.4161
43.8223
44.2443
44.6816
45.1337
45.6004
46.0814
46.5763
47.0851
47.6073
48.1429
48.6917
49.2535
49.828
50.415
51.0144
51.6259
52.2491
52.8837
53.5294
54.1858
54.8524
55.5288
56.2145
56.9088
57.6112
58.321
59.0376
59.7603
60.4886
61.2216
61.9588
62.6996
63.4435
64.1898
64.9381
65.6879
66.4389
67.1909
67.9434
68.6965
69.4501
70.2042
70.959
71.7146
72.4712
73.2292
73.9891
74.7514
75.5168
76.286
77.0598
77.8391
78.6247
79.4179
80.2196
81.0312
81.8541
82.6896
83.5392
84.4045
85.2871
86.1887
87.1112
88.0564
89.0261
90.022
91.0458
92.0991
93.1831
94.2991
95.4478
96.6296
97.8442
99.0907
100.367
101.672
103
104.346
105.705
107.067
108.422
109.758
111.062
112.315
113.499
114.593
115.572
116.41
117.081
117.558
117.821
117.851
117.605
117.044
116.135
114.849
113.16
111.047
108.494
105.491
102.036
98.1335
93.797
89.0477
83.9154
78.4376
72.659
66.6302
60.4069
54.0474
47.6097
41.1451
34.7196
28.4426
22.3627
16.9255
12.6736
14.6612
14.1289
8.60285
9.84273
12.0175
14.4941
17.1213
19.8154
22.5371
25.2566
27.9543
30.6155
33.2268
35.7752
38.2474
40.6296
42.9076
45.0668
47.0923
48.9697
50.6852
52.2259
53.5808
54.7408
55.6999
56.4558
57.0127
57.3802
57.5579
57.5484
57.3589
57.0005
56.4874
55.836
55.064
54.1902
53.2334
52.2122
51.1444
50.0468
48.9348
47.8226
46.7223
45.6448
44.5991
43.5926
42.6314
41.7201
40.8619
40.0593
39.3134
38.6248
37.9934
37.4183
36.8986
36.4327
36.0188
35.6552
35.3397
35.0707
34.8462
34.6654
34.5263
34.426
34.362
34.3321
34.3345
34.3675
34.4295
34.5191
34.6348
34.7755
34.94
35.127
35.3356
35.5647
35.8135
36.081
36.3664
36.6689
36.9879
37.3226
37.6726
38.0373
38.4161
38.8087
39.2146
39.6336
40.0653
40.5094
40.9658
41.4342
41.9144
42.4063
42.9098
43.4245
43.9505
44.4874
45.0352
45.5935
46.1621
46.7407
47.3291
47.9268
48.5335
49.1488
49.7722
50.4032
51.0413
51.6859
52.3365
52.9924
53.6532
54.3182
54.9869
55.6588
56.3333
57.0101
57.6885
58.3684
59.0493
59.731
60.4134
61.0962
61.7794
62.4632
63.1476
63.8327
64.5188
65.2062
65.8955
66.587
67.2814
67.9793
68.6814
69.3885
70.1015
70.8215
71.5493
72.2863
73.0336
73.7925
74.5643
75.3504
76.1524
76.9717
77.81
78.6687
79.5494
80.4536
81.3826
82.3376
83.3197
84.3294
85.3673
86.4329
87.5258
88.6443
89.7863
90.9486
92.1267
93.3151
94.5065
95.6924
96.8623
98.004
99.103
100.143
101.106
101.971
102.716
103.319
103.756
104.005
104.042
103.837
103.361
102.587
101.49
100.05
98.2481
96.0728
93.5168
90.5788
87.264
83.5843
79.5581
75.2103
70.572
65.6798
60.5752
55.3049
49.9211
44.4831
39.0618
33.7528
28.694
24.088
20.3628
18.7696
30.3558
14.1294
8.60312
9.84317
12.0181
14.4948
17.1221
19.8162
22.538
25.2576
27.9553
30.6165
33.2278
35.7762
38.2484
40.6306
42.9086
45.0677
47.0932
48.9706
50.686
52.2267
53.5816
54.7416
55.7005
56.4564
57.0132
57.3807
57.5583
57.5488
57.3593
57.0009
56.4878
55.8364
55.0645
54.1907
53.2339
52.2127
51.1449
50.0473
48.9353
47.8231
46.7228
45.6453
44.5996
43.5932
42.632
41.7206
40.8625
40.0599
39.314
38.6254
37.994
37.419
36.8992
36.4333
36.0194
35.6558
35.3403
35.0712
34.8468
34.6659
34.5268
34.4265
34.3626
34.3327
34.3351
34.3681
34.4301
34.5197
34.6354
34.7761
34.9405
35.1276
35.3362
35.5653
35.8141
36.0816
36.367
36.6695
36.9885
37.3232
37.6732
38.0378
38.4167
38.8092
39.2152
39.6342
40.0658
40.51
40.9664
41.4348
41.915
42.4069
42.9103
43.4251
43.9511
44.488
45.0357
45.594
46.1626
46.7413
47.3296
47.9274
48.5341
49.1494
49.7728
50.4038
51.0418
51.6864
52.337
52.993
53.6537
54.3187
54.9874
55.6593
56.3339
57.0106
57.689
58.3689
59.0498
59.7315
60.4138
61.0967
61.7799
62.4637
63.1481
63.8332
64.5193
65.2067
65.896
66.5875
67.2819
67.9797
68.6819
69.389
70.102
70.8219
71.5498
72.2868
73.0341
73.793
74.5647
75.3509
76.1528
76.9722
77.8104
78.6692
79.5499
80.454
81.383
82.3381
83.3201
84.3299
85.3677
86.4334
87.5262
88.6448
89.7868
90.949
92.1272
93.3155
94.507
95.6929
96.8628
98.0045
99.1035
100.144
101.106
101.971
102.717
103.32
103.756
104.005
104.042
103.837
103.362
102.587
101.491
100.05
98.2485
96.0732
93.5171
90.5791
87.2644
83.5846
79.5584
75.2107
70.5724
65.6801
60.5755
55.3052
49.9214
44.4833
39.062
33.753
28.6941
24.088
20.3628
18.7696
30.3558
20.6812
11.524
11.8548
13.4944
15.5654
17.8451
20.2349
22.6797
25.1432
27.6
30.0317
32.4236
34.763
37.0384
39.2384
41.3518
43.3666
45.2709
47.0523
48.6985
50.1976
51.5385
52.7114
53.7084
54.5242
55.1571
55.6082
55.8785
55.97
55.8881
55.6413
55.2411
54.701
54.0366
53.2644
52.4015
51.4655
50.4734
49.4417
48.3857
47.3197
46.2565
45.2075
44.1826
43.19
42.2366
41.3278
40.4678
39.6597
38.9056
38.2064
37.5628
36.9745
36.4407
35.9603
35.532
35.1541
34.8248
34.5423
34.3048
34.1107
33.9582
33.8451
33.769
33.728
33.7202
33.7438
33.7973
33.8791
33.9878
34.1221
34.2807
34.4624
34.6662
34.8908
35.1355
35.3991
35.681
35.9802
36.296
36.6277
36.9748
37.3365
37.7125
38.1023
38.5053
38.9213
39.3499
39.7909
40.2439
40.7088
41.1854
41.6734
42.1728
42.6832
43.2047
43.7369
44.2797
44.8329
45.3962
45.9694
46.5521
47.1441
47.745
48.3543
48.9717
49.5967
50.2287
50.8673
51.512
52.1621
52.8171
53.4765
54.1396
54.8061
55.4755
56.1471
56.8207
57.4957
58.172
58.8491
59.527
60.2053
60.8842
61.5635
62.2433
62.9237
63.6051
64.2877
64.9717
65.6578
66.3464
67.0381
67.7336
68.4336
69.1391
69.8508
70.5699
71.2974
72.0344
72.7822
73.542
74.3153
75.1034
75.9079
76.7301
77.5716
78.4338
79.3181
80.226
81.1584
82.1163
83.1004
84.111
85.1478
86.2102
87.2967
88.4051
89.5324
90.6742
91.8251
92.9783
94.1253
95.2562
96.3592
97.4206
98.4247
99.3542
100.19
100.911
101.495
101.92
102.163
102.2
102.004
101.551
100.816
99.7785
98.4193
96.7238
94.6815
92.2866
89.5389
86.4436
83.0113
79.2583
75.2061
70.8812
66.3149
61.5439
56.6111
51.5681
46.4794
41.4303
36.5401
31.9854
28.0524
25.3392
25.9147
47.8582
20.6813
11.5243
11.8553
13.4951
15.5662
17.846
20.2358
22.6807
25.1442
27.601
30.0327
32.4245
34.7639
37.0393
39.2393
41.3526
43.3674
45.2716
47.0529
48.6991
50.1981
51.5389
52.7118
53.7087
54.5245
55.1573
55.6084
55.8786
55.9701
55.8881
55.6413
55.2411
54.7011
54.0366
53.2644
52.4016
51.4656
50.4735
49.4417
48.3857
47.3198
46.2566
45.2077
44.1827
43.1901
42.2367
41.328
40.468
39.66
38.9058
38.2067
37.5631
36.9747
36.441
35.9606
35.5323
35.1544
34.8251
34.5426
34.3051
34.111
33.9585
33.8454
33.7693
33.7283
33.7205
33.7442
33.7976
33.8794
33.9881
34.1224
34.281
34.4627
34.6665
34.8912
35.1358
35.3995
35.6813
35.9805
36.2963
36.628
36.9751
37.3368
37.7128
38.1025
38.5056
38.9216
39.3502
39.7912
40.2442
40.7091
41.1857
41.6737
42.173
42.6835
43.205
43.7372
44.28
44.8332
45.3965
45.9696
46.5524
47.1444
47.7452
48.3546
48.9719
49.5969
50.229
50.8676
51.5122
52.1623
52.8173
53.4767
54.1399
54.8064
55.4757
56.1474
56.8209
57.496
58.1722
58.8493
59.5272
60.2055
60.8844
61.5637
62.2435
62.9239
63.6053
64.2878
64.9719
65.658
66.3466
67.0383
67.7338
68.4338
69.1392
69.851
70.5701
71.2975
72.0346
72.7824
73.5422
74.3155
75.1036
75.908
76.7303
77.5717
78.4339
79.3183
80.2261
81.1585
82.1165
83.1006
84.1111
85.148
86.2103
87.2969
88.4053
89.5326
90.6744
91.8253
92.9785
94.1255
95.2565
96.3594
97.4208
98.4249
99.3545
100.19
100.911
101.495
101.92
102.163
102.2
102.004
101.551
100.816
99.7787
98.4195
96.724
94.6816
92.2867
89.539
86.4436
83.0113
79.2584
75.2061
70.8811
66.3148
61.5439
56.6111
51.5681
46.4794
41.4302
36.54
31.9854
28.0523
25.339
25.9145
47.8572
27.2948
14.7119
14.2477
15.5183
17.3543
19.4566
21.6985
24.0093
26.3437
28.6708
30.9686
33.2212
35.4165
37.5448
39.5976
41.5671
43.4452
45.2235
46.8934
48.4454
49.8702
51.1582
52.3005
53.289
54.1173
54.7806
55.2766
55.6042
55.764
55.7596
55.5969
55.2848
54.8344
54.2586
53.5717
52.7892
51.927
51.0012
50.0275
49.0209
47.9958
46.9651
45.9407
44.9329
43.9507
43.0018
42.0924
41.2275
40.4108
39.6452
38.9323
38.2734
37.6686
37.1178
36.6201
36.1746
35.7798
35.4343
35.1362
34.8839
34.6757
34.5096
34.3838
34.2961
34.2447
34.2277
34.2433
34.29
34.3662
34.4704
34.6012
34.7573
34.9374
35.1405
35.3653
35.6109
35.8762
36.1603
36.4625
36.7818
37.1176
37.4692
37.8359
38.2173
38.6128
39.022
39.4444
39.8798
40.3276
40.7878
41.26
41.744
42.2396
42.7466
43.2648
43.7941
44.3341
44.8847
45.4457
46.0169
46.5979
47.1885
47.7883
48.3969
49.0141
49.6392
50.272
50.9119
51.5584
52.2109
52.869
53.532
54.1995
54.871
55.5458
56.2235
56.9037
57.5859
58.2698
58.9549
59.641
60.3279
61.0155
61.7035
62.3921
63.0813
63.7711
64.4617
65.1535
65.8469
66.5421
67.2397
67.9403
68.6445
69.3531
70.0669
70.7867
71.5137
72.2488
72.9932
73.748
74.5146
75.2943
76.0885
76.8986
77.7261
78.5725
79.4392
80.3276
81.239
82.1746
83.1351
84.1212
85.1332
86.1708
87.2333
88.3192
89.4263
90.5515
91.6904
92.8377
93.9864
95.1283
96.2535
97.3503
98.4053
99.4033
100.327
101.158
101.877
102.461
102.888
103.137
103.183
103.003
102.575
101.876
100.888
99.5948
97.9832
96.0444
93.7739
91.1714
88.2414
84.9928
81.4387
77.5966
73.4877
69.138
64.5791
59.8501
55.0019
50.1031
45.2498
40.582
36.3137
32.8124
30.8965
33.5863
66.0527
27.2949
14.7123
14.2484
15.5191
17.3552
19.4576
21.6995
24.0103
26.3447
28.6718
30.9696
33.2221
35.4174
37.5456
39.5984
41.5678
43.4458
45.224
46.8938
48.4458
49.8705
51.1584
52.3007
53.2891
54.1173
54.7806
55.2765
55.604
55.7639
55.7594
55.5967
55.2846
54.8342
54.2583
53.5714
52.7889
51.9268
51.001
50.0273
49.0207
47.9956
46.9649
45.9405
44.9327
43.9506
43.0017
42.0923
41.2274
40.4108
39.6451
38.9323
38.2734
37.6686
37.1178
36.6202
36.1747
35.7799
35.4343
35.1363
34.884
34.6757
34.5097
34.3839
34.2962
34.2448
34.2278
34.2434
34.2901
34.3663
34.4705
34.6013
34.7574
34.9375
35.1406
35.3654
35.611
35.8763
36.1604
36.4626
36.7819
37.1177
37.4693
37.836
38.2174
38.6129
39.0221
39.4445
39.8798
40.3277
40.7879
41.2601
41.7441
42.2397
42.7467
43.2649
43.7941
44.3342
44.8848
45.4458
46.0169
46.5979
47.1885
47.7883
48.397
49.0141
49.6393
50.2721
50.9119
51.5584
52.2109
52.869
53.5321
54.1996
54.871
55.5458
56.2235
56.9037
57.5859
58.2698
58.9549
59.641
60.3279
61.0154
61.7035
62.3921
63.0812
63.771
64.4617
65.1535
65.8468
66.542
67.2396
67.9402
68.6444
69.353
70.0668
70.7867
71.5136
72.2487
72.9931
73.7479
74.5145
75.2942
76.0884
76.8985
77.726
78.5724
79.4391
80.3276
81.239
82.1745
83.135
84.1211
85.1331
86.1707
87.2332
88.3191
89.4263
90.5514
91.6904
92.8376
93.9864
95.1283
96.2535
97.3503
98.4053
99.4033
100.327
101.158
101.877
102.461
102.888
103.137
103.183
103.003
102.575
101.876
100.888
99.5947
97.9831
96.0443
93.7737
91.1712
88.2412
84.9926
81.4385
77.5963
73.4874
69.1378
64.5788
59.8499
55.0017
50.1028
45.2496
40.5818
36.3135
32.8122
30.8961
33.5859
66.051
33.7998
18.0313
16.8408
17.8162
19.4856
21.4717
23.6173
25.8364
28.0747
30.2961
32.4758
34.5971
36.6488
38.6233
40.5156
42.3216
44.0375
45.6596
47.1833
48.6031
49.9129
51.1058
52.1746
53.1121
53.9117
54.5676
55.0754
55.432
55.636
55.6887
55.5939
55.3576
54.9881
54.4958
53.8925
53.1916
52.407
51.5535
50.6457
49.6978
48.7237
47.7363
46.7476
45.7681
44.8075
43.8738
42.974
42.1136
41.2972
40.5283
39.8092
39.1415
38.5262
37.9635
37.4531
36.9942
36.5859
36.2269
35.9155
35.6503
35.4295
35.2514
35.1141
35.0157
34.9546
34.9288
34.9367
34.9766
35.047
35.1464
35.2735
35.4267
35.6049
35.8069
36.0314
36.2775
36.544
36.8302
37.1349
37.4575
37.7972
38.1532
38.5249
38.9117
39.313
39.7285
40.1575
40.5998
41.055
41.5227
42.0027
42.4947
42.9985
43.5138
44.0404
44.5781
45.1266
45.6858
46.2554
46.8351
47.4246
48.0236
48.6318
49.2488
49.8743
50.5077
51.1487
51.7967
52.4513
53.1119
53.778
54.4492
55.1248
55.8043
56.4873
57.1733
57.8619
58.5525
59.2449
59.9386
60.6335
61.3293
62.0258
62.7229
63.4207
64.1191
64.8182
65.5183
66.2195
66.9223
67.627
68.3341
69.0441
69.7578
70.4757
71.1988
71.9279
72.664
73.4082
74.1615
74.9251
75.7004
76.4887
77.2913
78.1098
78.9455
79.8
80.6746
81.5708
82.4898
83.4327
84.4004
85.3935
86.4122
87.4562
88.5249
89.6166
90.7291
91.8593
93.0027
94.1541
95.3065
96.4516
97.5798
98.6795
99.7375
100.739
101.667
102.505
103.231
103.826
104.268
104.536
104.608
104.462
104.077
103.436
102.521
101.317
99.8149
98.006
95.8863
93.4553
90.716
87.6745
84.3399
80.7243
76.8431
72.7156
68.3671
63.8322
59.1595
54.4196
49.7166
45.2079
41.1429
37.9683
36.7212
41.3027
83.8512
33.7998
18.0317
16.8415
17.817
19.4866
21.4727
23.6183
25.8374
28.0757
30.2971
32.4767
34.598
36.6496
38.6241
40.5162
42.3221
44.038
45.66
47.1836
48.6033
49.913
51.1058
52.1746
53.112
53.9116
54.5674
55.0752
55.4317
55.6356
55.6883
55.5934
55.3571
54.9876
54.4953
53.892
53.1911
52.4066
51.5531
50.6452
49.6974
48.7233
47.736
46.7472
45.7678
44.8072
43.8735
42.9737
42.1134
41.297
40.5281
39.809
39.1414
38.5261
37.9634
37.453
36.9941
36.5858
36.2268
35.9154
35.6502
35.4294
35.2513
35.114
35.0157
34.9545
34.9287
34.9366
34.9765
35.047
35.1464
35.2734
35.4267
35.6049
35.8068
36.0314
36.2774
36.544
36.8301
37.1349
37.4575
37.7971
38.1531
38.5248
38.9116
39.313
39.7284
40.1574
40.5997
41.0549
41.5226
42.0026
42.4946
42.9984
43.5137
44.0403
44.578
45.1265
45.6857
46.2553
46.8349
47.4245
48.0235
48.6317
49.2487
49.8741
50.5076
51.1485
51.7966
52.4511
53.1118
53.7779
54.449
55.1246
55.8042
56.4872
57.1732
57.8617
58.5523
59.2447
59.9384
60.6333
61.3291
62.0256
62.7227
63.4204
64.1188
64.818
65.518
66.2193
66.9221
67.6268
68.3339
69.0439
69.7575
70.4755
71.1986
71.9277
72.6638
73.4079
74.1612
74.9249
75.7002
76.4884
77.2911
78.1095
78.9453
79.7997
80.6743
81.5705
82.4895
83.4324
84.4001
85.3932
86.4119
87.456
88.5246
89.6164
90.7289
91.859
93.0025
94.1539
95.3063
96.4514
97.5796
98.6793
99.7373
100.739
101.667
102.504
103.231
103.826
104.268
104.536
104.608
104.461
104.077
103.436
102.52
101.317
99.8146
98.0056
95.8859
93.455
90.7157
87.6742
84.3395
80.7239
76.8426
72.7151
68.3667
63.8318
59.1591
54.4192
49.7162
45.2075
41.1425
37.968
36.7207
41.3022
83.85
40.242
21.3549
19.5233
20.25
21.7852
23.6776
25.7409
27.8748
30.017
32.1266
34.177
36.1513
38.0396
39.8371
41.5423
43.1553
44.6772
46.1089
47.4504
48.7007
49.8573
50.9167
51.8738
52.7231
53.4585
54.074
54.564
54.9239
55.15
55.2418
55.2003
55.029
54.7333
54.3207
53.8005
53.1836
52.4819
51.7081
50.8755
49.9972
49.0864
48.1554
47.2159
46.2786
45.3533
44.4484
43.5713
42.7282
41.9241
41.163
40.448
39.7813
39.1642
38.5974
38.0813
37.6153
37.1989
36.8309
36.5103
36.2355
36.005
35.8171
35.6702
35.5626
35.4926
35.4585
35.4586
35.4915
35.5555
35.6492
35.7712
35.9202
36.0947
36.2937
36.5159
36.7602
37.0256
37.3112
37.616
37.9391
38.2799
38.6374
39.0111
39.4003
39.8045
40.2231
40.6557
41.1018
41.561
42.033
42.5175
43.0141
43.5226
44.0427
44.5742
45.1168
45.6702
46.2342
46.8085
47.3929
47.987
48.5904
49.2029
49.8241
50.4535
51.0907
51.7354
52.387
53.045
53.7089
54.3783
55.0526
55.7313
56.414
57.1001
57.7893
58.481
59.1748
59.8705
60.5677
61.2661
61.9656
62.6659
63.3669
64.0687
64.7713
65.4748
66.1792
66.885
67.5923
68.3017
69.0135
69.7283
70.4467
71.1695
71.8973
72.6312
73.3721
74.1209
74.8788
75.6471
76.4269
77.2197
78.0268
78.8496
79.6896
80.5482
81.427
82.3272
83.2501
84.1969
85.1683
86.1651
87.1872
88.2347
89.3065
90.4013
91.5167
92.6495
93.7956
94.9494
96.1043
97.2522
98.3835
99.4869
100.55
101.558
102.495
103.343
104.085
104.701
105.17
105.472
105.587
105.497
105.183
104.629
103.82
102.744
101.392
99.7568
97.8352
95.6252
93.1276
90.3448
87.2811
83.9423
80.3366
76.476
72.3783
68.072
63.6017
59.038
54.4904
50.1309
46.2419
43.347
42.6973
49.0594
101.483
40.2422
21.3553
19.5241
20.251
21.7862
23.6786
25.742
27.8758
30.018
32.1276
34.1779
36.1521
38.0403
39.8378
41.5428
43.1558
44.6776
46.1092
47.4506
48.7008
49.8573
50.9166
51.8737
52.7229
53.4582
54.0737
54.5636
54.9234
55.1495
55.2412
55.1997
55.0284
54.7327
54.3201
53.7999
53.183
52.4813
51.7075
50.8749
49.9967
49.0858
48.1548
47.2154
46.2781
45.3528
44.448
43.5709
42.7278
41.9237
41.1627
40.4477
39.781
39.1639
38.5971
38.081
37.615
37.1986
36.8307
36.5101
36.2353
36.0048
35.8169
35.67
35.5624
35.4924
35.4583
35.4584
35.4913
35.5553
35.6491
35.771
35.92
36.0945
36.2935
36.5157
36.76
37.0255
37.311
37.6158
37.939
38.2797
38.6372
39.0109
39.4001
39.8043
40.2229
40.6554
41.1015
41.5608
42.0328
42.5173
43.0139
43.5224
44.0425
44.574
45.1165
45.6699
46.234
46.8083
47.3926
47.9867
48.5901
49.2026
49.8238
50.4532
51.0905
51.7351
52.3867
53.0447
53.7086
54.378
55.0523
55.731
56.4137
57.0998
57.7889
58.4806
59.1745
59.8702
60.5674
61.2658
61.9652
62.6655
63.3666
64.0684
64.7709
65.4744
66.1788
66.8846
67.592
68.3013
69.0131
69.7279
70.4463
71.1691
71.8969
72.6308
73.3716
74.1205
74.8784
75.6467
76.4265
77.2193
78.0263
78.8491
79.6891
80.5478
81.4266
82.3268
83.2497
84.1965
85.1679
86.1646
87.1868
88.2343
89.3061
90.4009
91.5163
92.6491
93.7952
94.949
96.104
97.2519
98.3831
99.4866
100.549
101.557
102.494
103.343
104.085
104.701
105.17
105.472
105.587
105.497
105.183
104.628
103.819
102.743
101.391
99.7564
97.8347
95.6247
93.1271
90.3443
87.2806
83.9418
80.3361
76.4755
72.3778
68.0715
63.6012
59.0375
54.4899
50.1304
46.2414
43.3464
42.6967
49.0587
101.483
46.8122
24.688
22.2364
22.7353
24.1488
25.9523
27.9311
29.9716
32.0044
33.9852
35.8859
37.6902
39.3903
40.9843
42.4746
43.8659
45.1641
46.3749
47.5032
48.5524
49.5242
50.4181
51.2321
51.9623
52.6037
53.1505
53.5967
53.9365
54.1643
54.2774
54.2745
54.1564
53.9257
53.5871
53.1472
52.6141
51.9975
51.3081
50.5573
49.757
48.9191
48.0553
47.1767
46.2938
45.4163
44.5528
43.7109
42.8971
42.117
41.375
40.6746
40.0186
39.4088
38.8464
38.332
37.8657
37.4472
37.0757
36.7504
36.47
36.2331
36.0382
35.884
35.7687
35.691
35.6492
35.6418
35.6673
35.7243
35.8112
35.9268
36.0696
36.2384
36.4321
36.6493
36.8891
37.1504
37.4322
37.7336
38.0537
38.3917
38.7469
39.1186
39.506
39.9088
40.3262
40.7577
41.203
41.6617
42.1332
42.6173
43.1135
43.6217
44.1415
44.6726
45.2148
45.7676
46.3309
46.9044
47.4877
48.0805
48.6825
49.2932
49.9124
50.5396
51.1744
51.8163
52.465
53.1198
53.7805
54.4464
55.1171
55.7921
56.4709
57.1532
57.8385
58.5264
59.2165
59.9085
60.602
61.2969
61.993
62.69
63.388
64.0868
64.7866
65.4873
66.1893
66.8926
67.5977
68.3049
69.0146
69.7274
70.4438
71.1647
71.8907
72.6226
73.3616
74.1085
74.8644
75.6307
76.4084
77.1991
78.0039
78.8244
79.662
80.5182
81.3944
82.2919
83.2121
84.1559
85.1244
86.118
87.1369
88.1811
89.2495
90.3409
91.4529
92.5824
93.7253
94.8764
96.0291
97.1756
98.3067
99.4115
100.478
101.493
102.44
103.304
104.068
104.713
105.22
105.572
105.75
105.739
105.523
105.088
104.421
103.513
102.356
100.945
99.2732
97.3395
95.1412
92.6766
89.9443
86.943
83.6731
80.1377
76.3467
72.3209
68.0997
63.7514
59.3885
55.1953
51.4839
48.85
48.7462
56.7306
118.028
46.8126
24.6885
22.2373
22.7363
24.1499
25.9533
27.9322
29.9726
32.0054
33.9861
35.8867
37.691
39.391
40.9849
42.4751
43.8663
45.1643
46.375
47.5032
48.5524
49.5241
50.418
51.2319
51.962
52.6033
53.15
53.5962
53.9359
54.1637
54.2767
54.2738
54.1557
53.925
53.5864
53.1464
52.6133
51.9967
51.3073
50.5566
49.7563
48.9184
48.0546
47.176
46.2932
45.4157
44.5522
43.7103
42.8966
42.1165
41.3745
40.6741
40.0181
39.4083
38.8459
38.3316
37.8653
37.4468
37.0754
36.75
36.4696
36.2327
36.0379
35.8836
35.7684
35.6906
35.6488
35.6415
35.667
35.724
35.8109
35.9265
36.0693
36.2381
36.4317
36.649
36.8888
37.1501
37.4319
37.7333
38.0534
38.3914
38.7466
39.1182
39.5057
39.9084
40.3258
40.7574
41.2027
41.6613
42.1328
42.6169
43.1132
43.6214
44.1412
44.6723
45.2144
45.7673
46.3306
46.904
47.4873
48.0801
48.682
49.2928
49.912
50.5392
51.174
51.8159
52.4645
53.1194
53.78
54.4459
55.1166
55.7916
56.4705
57.1528
57.8381
58.5259
59.216
59.908
60.6015
61.2964
61.9925
62.6895
63.3875
64.0863
64.7861
65.4868
66.1888
66.8921
67.5972
68.3044
69.0141
69.7268
70.4433
71.1641
71.8901
72.6221
73.361
74.1079
74.8639
75.6301
76.4079
77.1985
78.0033
78.8238
79.6615
80.5177
81.3938
82.2914
83.2115
84.1554
85.1238
86.1174
87.1364
88.1805
89.249
90.3403
91.4523
92.5819
93.7248
94.8759
96.0286
97.1751
98.3062
99.411
100.478
101.492
102.44
103.304
104.067
104.712
105.219
105.571
105.75
105.739
105.523
105.087
104.421
103.513
102.356
100.944
99.2726
97.3389
95.1406
92.676
89.9437
86.9424
83.6725
80.1371
76.3461
72.3203
68.0991
63.7508
59.3879
55.1947
51.4833
48.8493
48.7454
56.7298
118.027
53.2684
27.9794
24.9313
25.2125
26.5069
28.2173
30.102
32.035
33.9408
35.7725
37.5017
39.1131
40.6013
41.968
43.2195
44.3652
45.4158
46.382
47.2734
48.0978
48.8607
49.5653
50.212
50.7991
51.3228
51.7779
52.1583
52.4573
52.6679
52.7852
52.8059
52.7281
52.5517
52.2788
51.913
51.46
50.927
50.3225
49.6561
48.938
48.1788
47.3892
46.5796
45.76
44.9398
44.1275
43.3308
42.5565
41.8102
41.0969
40.4204
39.784
39.1897
38.6394
38.1339
37.6738
37.2591
36.8893
36.5638
36.2818
36.0419
35.843
35.6836
35.5626
35.4784
35.4298
35.4152
35.4333
35.4826
35.5618
35.6696
35.8047
35.9658
36.1518
36.3615
36.5938
36.8478
37.1225
37.4169
37.7301
38.0615
38.4102
38.7754
39.1567
39.5533
39.9647
40.3904
40.8299
41.2827
41.7484
42.2267
42.7172
43.2194
43.7332
44.2581
44.7939
45.3401
45.8966
46.463
47.0389
47.624
48.2179
48.8203
49.4308
50.049
50.6745
51.3067
51.9454
52.5901
53.2402
53.8955
54.5553
55.2193
55.887
56.5581
57.2321
57.9086
58.5875
59.2682
59.9507
60.6345
61.3197
62.006
62.6933
63.3817
64.0712
64.7618
65.4538
66.1473
66.8427
67.5403
68.2405
68.9439
69.651
70.3626
71.0793
71.8021
72.5317
73.2693
74.016
74.7728
75.541
76.3221
77.1172
77.9278
78.7555
79.6015
80.4674
81.3545
82.2641
83.1972
84.1547
85.1372
86.1451
87.178
88.2352
89.3154
90.4164
91.5352
92.668
93.8097
94.9541
96.0938
97.22
98.3228
99.3907
100.411
101.37
102.253
103.043
103.725
104.282
104.698
104.958
105.049
104.957
104.671
104.182
103.481
102.563
101.421
100.05
98.4459
96.6031
94.5151
92.1741
89.5713
86.6986
83.55
80.1259
76.4389
72.5215
68.4378
64.3017
60.3065
56.7911
54.4184
54.8299
64.3245
133.877
53.269
27.98
24.9323
25.2136
26.508
28.2184
30.1031
32.036
33.9418
35.7734
37.5024
39.1137
40.6019
41.9684
43.2198
44.3654
45.416
46.3821
47.2733
48.0976
48.8605
49.565
50.2117
50.7987
51.3223
51.7774
52.1577
52.4566
52.6672
52.7845
52.8051
52.7273
52.5509
52.2779
51.9121
51.4591
50.9261
50.3217
49.6553
48.9372
48.178
47.3884
46.5789
45.7593
44.9391
44.1268
43.3302
42.5558
41.8096
41.0963
40.4199
39.7834
39.1892
38.6389
38.1334
37.6733
37.2586
36.8888
36.5634
36.2813
36.0414
35.8425
35.6832
35.5621
35.478
35.4293
35.4148
35.4328
35.4822
35.5614
35.6692
35.8043
35.9654
36.1514
36.3611
36.5934
36.8474
37.122
37.4164
37.7297
38.0611
38.4097
38.775
39.1563
39.5529
39.9643
40.3899
40.8294
41.2822
41.748
42.2263
42.7167
43.219
43.7327
44.2576
44.7934
45.3396
45.8961
46.4625
47.0384
47.6235
48.2174
48.8198
49.4303
50.0485
50.6739
51.3062
51.9449
52.5896
53.2397
53.8949
54.5547
55.2187
55.8864
56.5575
57.2315
57.9081
58.5869
59.2676
59.9501
60.6339
61.3191
62.0054
62.6927
63.3811
64.0705
64.7612
65.4532
66.1467
66.8421
67.5396
68.2399
68.9433
69.6504
70.3619
71.0787
71.8014
72.5311
73.2687
74.0153
74.7721
75.5404
76.3214
77.1165
77.9272
78.7548
79.6009
80.4668
81.3539
82.2634
83.1965
84.154
85.1366
86.1444
87.1773
88.2345
89.3147
90.4157
91.5346
92.6674
93.8091
94.9535
96.0931
97.2194
98.3221
99.39
100.41
101.369
102.252
103.043
103.725
104.281
104.697
104.958
105.048
104.956
104.67
104.181
103.481
102.562
101.42
100.049
98.4452
96.6025
94.5144
92.1734
89.5707
86.6979
83.5493
80.1253
76.4383
72.5208
68.4372
64.301
60.3058
56.7904
54.4175
54.8289
64.3234
133.875
59.6625
31.209
27.573
27.6389
28.8108
30.4199
32.1983
34.0084
35.7696
37.4333
38.9712
40.3701
41.6271
42.7478
43.7427
44.6257
45.4124
46.1181
46.757
47.341
47.8795
48.3786
48.8417
49.2687
49.6575
50.0033
50.3
50.5407
50.7175
50.8233
50.8527
50.8015
50.6673
50.4493
50.1488
49.7688
49.3142
48.7912
48.2075
47.5716
46.8927
46.1802
45.4437
44.6925
43.9355
43.181
42.4365
41.7088
41.0039
40.3267
39.6815
39.0717
38.4999
37.9681
37.4777
37.0294
36.6235
36.2601
35.9387
35.6586
35.419
35.2187
35.0565
34.9315
34.8423
34.7877
34.7663
34.777
34.8183
34.8891
34.988
35.1138
35.2654
35.4416
35.6413
35.8636
36.1073
36.3716
36.6556
36.9583
37.2792
37.6173
37.972
38.3426
38.7285
39.1292
39.5442
39.9728
40.4147
40.8694
41.3365
41.8156
42.3064
42.8084
43.3213
43.8447
44.3784
44.922
45.4751
46.0373
46.6084
47.1879
47.7754
48.3707
48.9732
49.5826
50.1985
50.8204
51.4479
52.0807
52.7183
53.3602
54.0061
54.6556
55.3083
55.9639
56.622
57.2824