/*--------------------------------*- C++ -*----------------------------------*\
  =========                 |
  \\      /  F ield         | OpenFOAM: The Open Source CFD Toolbox
   \\    /   O peration     | Website:  https://openfoam.org
    \\  /    A nd           | Version:  8
     \\/     M anipulation  |
\*---------------------------------------------------------------------------*/
FoamFile
{
    version     2.0;
    format      ascii;
    class       volScalarField;
    location    "900";
    object      k;
}
// * * * * * * * * * * * * * * * * * * * * * * * * * * * * * * * * * * * * * //

dimensions      [0 2 -2 0 0 0 0];

internalField   nonuniform List<scalar> 
46000
(
0.00122126
0.00545174
0.0114911
0.0180888
0.0252635
0.0324862
0.0395152
0.0464011
0.0528927
0.0590232
0.0648049
0.070224
0.075266
0.0799181
0.0841697
0.0880125
0.091441
0.0944524
0.0970472
0.099229
0.101005
0.102384
0.10338
0.104006
0.104282
0.104262
0.104049
0.103586
0.102873
0.101929
0.100778
0.0994517
0.0979784
0.0963878
0.0947083
0.0929664
0.091187
0.0893925
0.0876031
0.0858365
0.0841081
0.0824308
0.0808152
0.07927
0.0778017
0.0764153
0.075114
0.0738999
0.0727738
0.0717354
0.070784
0.0699178
0.0691349
0.0684327
0.0678087
0.0672598
0.066783
0.0663752
0.0660332
0.0657543
0.065546
0.065405
0.0653193
0.0652844
0.0652978
0.0653575
0.0654616
0.0656083
0.0657958
0.0660224
0.0662867
0.0665871
0.0669221
0.0672903
0.0676905
0.0681214
0.0685818
0.0690706
0.0695869
0.0701296
0.0706978
0.0712908
0.0719079
0.0725484
0.0732117
0.0738974
0.074605
0.075334
0.076084
0.0768546
0.0776457
0.0784567
0.0792874
0.0801374
0.0810063
0.0818936
0.0827988
0.0837214
0.0846608
0.0856164
0.0865873
0.0875729
0.0885724
0.0895847
0.0906091
0.0916444
0.0926897
0.0937438
0.0948058
0.0958747
0.0969494
0.0980289
0.0991123
0.100199
0.101288
0.102378
0.10347
0.104561
0.105654
0.106746
0.107838
0.108929
0.110021
0.111112
0.112205
0.113298
0.114393
0.11549
0.116591
0.117695
0.118805
0.11992
0.121044
0.122177
0.123321
0.124477
0.125647
0.126833
0.128037
0.129262
0.130509
0.131782
0.133081
0.134411
0.135773
0.137171
0.138607
0.140084
0.141604
0.143168
0.14478
0.14644
0.148149
0.149907
0.151714
0.153567
0.155463
0.157398
0.159364
0.161354
0.163356
0.165357
0.16734
0.169285
0.171171
0.172972
0.174657
0.176193
0.177544
0.17867
0.17953
0.180082
0.180309
0.180196
0.179654
0.178623
0.177055
0.17491
0.17215
0.168745
0.164672
0.159917
0.154476
0.148357
0.141579
0.134175
0.126191
0.117686
0.108732
0.099412
0.0898188
0.0800507
0.0701995
0.0602809
0.050324
0.0406113
0.0307709
0.0210307
0.0111316
0.00263711
0.00122127
0.00545151
0.011491
0.0180889
0.0252635
0.0324863
0.0395152
0.0464012
0.0528932
0.0590242
0.0648065
0.0702263
0.0752689
0.0799213
0.0841728
0.0880152
0.0914431
0.0944539
0.0970483
0.0992298
0.101005
0.102385
0.103381
0.104008
0.104284
0.104264
0.104051
0.103589
0.102876
0.101931
0.100781
0.0994537
0.09798
0.0963891
0.0947092
0.0929672
0.0911876
0.089393
0.0876035
0.0858369
0.0841086
0.0824313
0.0808159
0.0792707
0.0778025
0.076416
0.0751147
0.0739005
0.0727742
0.0717357
0.070784
0.0699178
0.0691348
0.0684327
0.0678087
0.06726
0.0667835
0.0663761
0.0660344
0.0657558
0.0655479
0.0654073
0.0653218
0.065287
0.0653004
0.0653601
0.065464
0.0656104
0.0657977
0.0660242
0.0662883
0.0665884
0.0669233
0.0672915
0.0676916
0.0681225
0.0685829
0.0690718
0.0695881
0.0701308
0.070699
0.071292
0.0719091
0.0725496
0.073213
0.0738987
0.0746062
0.0753352
0.0760852
0.076856
0.077647
0.0784581
0.0792888
0.0801388
0.0810078
0.0818951
0.0828003
0.0837229
0.0846623
0.0856178
0.0865888
0.0875744
0.0885738
0.0895862
0.0906105
0.0916459
0.0926912
0.0937453
0.0948073
0.0958762
0.0969509
0.0980304
0.0991138
0.1002
0.101289
0.10238
0.103471
0.104563
0.105655
0.106747
0.107839
0.10893
0.110022
0.111114
0.112206
0.113299
0.114394
0.115491
0.116592
0.117696
0.118806
0.119922
0.121045
0.122179
0.123322
0.124478
0.125648
0.126834
0.128039
0.129263
0.130511
0.131783
0.133082
0.134412
0.135774
0.137172
0.138608
0.140085
0.141605
0.14317
0.144781
0.146441
0.14815
0.149908
0.151715
0.153568
0.155464
0.157399
0.159365
0.161355
0.163357
0.165357
0.16734
0.169286
0.171172
0.172973
0.174658
0.176195
0.177546
0.178672
0.179531
0.180084
0.18031
0.180197
0.179654
0.178623
0.177056
0.174911
0.172152
0.168747
0.164674
0.15992
0.154479
0.14836
0.141581
0.134176
0.126192
0.117687
0.108733
0.0994124
0.0898192
0.0800512
0.0702001
0.0602815
0.0503246
0.0406117
0.0307711
0.0210304
0.0111311
0.00263692
0.00550294
0.028971
0.0496524
0.0682941
0.0855062
0.101728
0.116865
0.131104
0.144487
0.157049
0.168812
0.179789
0.189985
0.199402
0.20804
0.215898
0.222974
0.229271
0.234791
0.239541
0.243532
0.246777
0.249294
0.251104
0.252229
0.252688
0.252553
0.251891
0.250733
0.249122
0.247104
0.244732
0.242059
0.239137
0.236017
0.232748
0.229376
0.225945
0.222493
0.219057
0.215667
0.212351
0.209132
0.206032
0.203065
0.200244
0.19758
0.195079
0.192746
0.190584
0.188592
0.18677
0.185117
0.183627
0.182298
0.181124
0.180101
0.179223
0.178483
0.177876
0.177396
0.177043
0.17681
0.176688
0.176672
0.176759
0.176942
0.177217
0.177582
0.17803
0.178559
0.179164
0.179843
0.180592
0.181407
0.182285
0.183225
0.184221
0.185274
0.186378
0.187534
0.188738
0.189989
0.191284
0.192623
0.194004
0.195425
0.196886
0.198384
0.19992
0.201492
0.2031
0.204742
0.206417
0.208124
0.209863
0.211633
0.213431
0.215257
0.217109
0.218987
0.220888
0.222812
0.224755
0.226717
0.228695
0.230689
0.232694
0.234711
0.236737
0.238769
0.240806
0.242847
0.24489
0.246933
0.248975
0.251015
0.253052
0.255085
0.257113
0.259137
0.261156
0.26317
0.265179
0.267185
0.269188
0.271189
0.273189
0.275189
0.277191
0.279198
0.281211
0.283232
0.285264
0.287309
0.28937
0.291451
0.293555
0.295684
0.297843
0.300036
0.302266
0.304538
0.306855
0.309223
0.311645
0.314126
0.316669
0.319278
0.321956
0.324707
0.327532
0.330431
0.333405
0.336451
0.339567
0.342745
0.345979
0.349257
0.352564
0.355883
0.359191
0.362463
0.365669
0.368771
0.37173
0.374499
0.377026
0.379256
0.381126
0.382574
0.383534
0.383948
0.383718
0.382763
0.381004
0.378369
0.374786
0.370192
0.364532
0.357758
0.349835
0.340741
0.330468
0.319023
0.306429
0.292724
0.277961
0.262207
0.245537
0.228034
0.209779
0.190841
0.171253
0.15098
0.129796
0.106915
0.0813758
0.0508119
0.0111351
0.00550309
0.0289707
0.0496526
0.068295
0.0855075
0.101729
0.116867
0.131105
0.144489
0.15705
0.168814
0.17979
0.189987
0.199404
0.208042
0.2159
0.222976
0.229273
0.234793
0.239544
0.243535
0.24678
0.249297
0.251106
0.252231
0.25269
0.252555
0.251894
0.250736
0.249124
0.247107
0.244735
0.242062
0.239139
0.236019
0.23275
0.229379
0.225947
0.222495
0.219059
0.215669
0.212353
0.209134
0.206034
0.203067
0.200246
0.197582
0.195081
0.192749
0.190586
0.188594
0.186773
0.185119
0.183629
0.1823
0.181126
0.180103
0.179225
0.178485
0.177878
0.177398
0.177045
0.176811
0.17669
0.176674
0.17676
0.176944
0.177219
0.177584
0.178032
0.178561
0.179167
0.179845
0.180594
0.181409
0.182288
0.183227
0.184224
0.185276
0.186381
0.187536
0.18874
0.189991
0.191286
0.192625
0.194006
0.195427
0.196888
0.198386
0.199922
0.201495
0.203102
0.204744
0.206419
0.208127
0.209866
0.211635
0.213433
0.215259
0.217111
0.218989
0.22089
0.222814
0.224757
0.226719
0.228697
0.230691
0.232696
0.234713
0.236738
0.238771
0.240808
0.242849
0.244892
0.246935
0.248977
0.251017
0.253054
0.255087
0.257115
0.259139
0.261157
0.263171
0.265181
0.267187
0.26919
0.271191
0.27319
0.275191
0.277193
0.2792
0.281212
0.283233
0.285265
0.287311
0.289372
0.291453
0.293556
0.295686
0.297845
0.300038
0.302268
0.304539
0.306857
0.309224
0.311646
0.314127
0.31667
0.319279
0.321958
0.324708
0.327533
0.330432
0.333406
0.336453
0.339568
0.342747
0.345981
0.349258
0.352565
0.355884
0.359193
0.362465
0.36567
0.368772
0.371731
0.3745
0.377027
0.379257
0.381128
0.382576
0.383536
0.38395
0.38372
0.382764
0.381006
0.37837
0.374787
0.370194
0.364534
0.35776
0.349837
0.340743
0.33047
0.319026
0.306431
0.292726
0.277963
0.262209
0.245538
0.228035
0.20978
0.190842
0.171254
0.150981
0.129797
0.106916
0.0813766
0.0508122
0.0111349
0.0108269
0.048345
0.0761345
0.0997363
0.121228
0.141392
0.160414
0.178382
0.195327
0.211268
0.226216
0.240179
0.253163
0.265172
0.27621
0.286279
0.295384
0.303527
0.310718
0.316963
0.322276
0.326673
0.330173
0.332799
0.334577
0.33554
0.335724
0.335218
0.334067
0.332322
0.330041
0.327285
0.324119
0.320604
0.316804
0.312781
0.308593
0.304295
0.299938
0.295571
0.291234
0.286968
0.282804
0.27877
0.274892
0.271188
0.267674
0.264362
0.26126
0.258374
0.255706
0.253257
0.251026
0.249009
0.247203
0.245602
0.2442
0.24299
0.241965
0.241118
0.240441
0.239931
0.239579
0.239377
0.239319
0.239396
0.239604
0.239936
0.240386
0.240948
0.241618
0.24239
0.24326
0.244222
0.245272
0.246405
0.247619
0.248909
0.250271
0.251702
0.2532
0.25476
0.256381
0.258061
0.259796
0.261585
0.263426
0.265317
0.267257
0.269245
0.271278
0.273355
0.275476
0.277639
0.279842
0.282085
0.284365
0.286682
0.289033
0.291417
0.293832
0.296277
0.298748
0.301245
0.303765
0.306305
0.308863
0.311436
0.314023
0.316621
0.319227
0.321839
0.324455
0.327074
0.329692
0.332309
0.334922
0.337531
0.340135
0.342733
0.345324
0.347908
0.350485
0.353057
0.355622
0.358183
0.36074
0.363294
0.365849
0.368405
0.370964
0.37353
0.376106
0.378693
0.381296
0.383918
0.386563
0.389234
0.391937
0.394676
0.397455
0.40028
0.403156
0.406087
0.40908
0.412139
0.415269
0.418477
0.421765
0.425138
0.428599
0.432151
0.435794
0.439528
0.44335
0.447255
0.451237
0.455285
0.459386
0.46352
0.467667
0.471799
0.475884
0.479884
0.483756
0.48745
0.490909
0.494071
0.496868
0.499225
0.501066
0.502308
0.502872
0.502648
0.501544
0.49947
0.496337
0.492062
0.486568
0.479788
0.471664
0.462151
0.451219
0.43885
0.425042
0.409808
0.393177
0.375187
0.355889
0.335341
0.313604
0.290737
0.266787
0.241771
0.215644
0.188201
0.158871
0.126219
0.0850592
0.0231508
0.0108271
0.0483454
0.0761355
0.0997378
0.12123
0.141394
0.160416
0.178384
0.19533
0.211271
0.226218
0.240181
0.253166
0.265175
0.276213
0.286282
0.295386
0.30353
0.31072
0.316966
0.322279
0.326676
0.330175
0.332801
0.334579
0.335542
0.335726
0.335221
0.334069
0.332324
0.330043
0.327288
0.324121
0.320606
0.316806
0.312783
0.308595
0.304297
0.29994
0.295573
0.291237
0.28697
0.282806
0.278773
0.274894
0.27119
0.267677
0.264364
0.261262
0.258376
0.255708
0.253259
0.251028
0.249011
0.247205
0.245604
0.244202
0.242992
0.241968
0.241121
0.240444
0.239933
0.239581
0.239379
0.239321
0.239398
0.239606
0.239938
0.240388
0.240951
0.24162
0.242393
0.243262
0.244224
0.245274
0.246408
0.247621
0.248911
0.250273
0.251704
0.253202
0.254762
0.256383
0.258063
0.259798
0.261587
0.263428
0.265319
0.26726
0.269247
0.27128
0.273358
0.275478
0.277641
0.279844
0.282087
0.284367
0.286684
0.289035
0.291419
0.293834
0.296279
0.298751
0.301247
0.303767
0.306307
0.308865
0.311438
0.314025
0.316623
0.319229
0.321841
0.324457
0.327075
0.329694
0.33231
0.334924
0.337533
0.340137
0.342735
0.345326
0.34791
0.350487
0.353058
0.355624
0.358184
0.360741
0.363296
0.36585
0.368406
0.370966
0.373532
0.376107
0.378695
0.381298
0.38392
0.386564
0.389236
0.391939
0.394678
0.397457
0.400282
0.403157
0.406089
0.409081
0.41214
0.415271
0.418478
0.421766
0.425139
0.428601
0.432152
0.435795
0.439529
0.443351
0.447257
0.451239
0.455287
0.459387
0.463521
0.467668
0.4718
0.475885
0.479886
0.483758
0.487451
0.49091
0.494073
0.496869
0.499227
0.501067
0.50231
0.502873
0.502649
0.501546
0.499472
0.496339
0.492063
0.48657
0.479789
0.471666
0.462153
0.451221
0.438852
0.425044
0.40981
0.393178
0.375188
0.35589
0.335342
0.313606
0.290739
0.266788
0.241772
0.215644
0.188201
0.158872
0.126219
0.0850593
0.0231506
0.015933
0.0646019
0.0974215
0.124272
0.14869
0.171595
0.19325
0.213735
0.233067
0.251247
0.268276
0.284159
0.298902
0.312515
0.325011
0.336402
0.346703
0.35593
0.364097
0.371223
0.377326
0.382426
0.386547
0.389714
0.391954
0.393302
0.39379
0.393494
0.392464
0.390757
0.388433
0.385556
0.382193
0.37841
0.374276
0.369858
0.365221
0.360427
0.355534
0.350598
0.345668
0.340791
0.336006
0.33135
0.326851
0.322535
0.318424
0.314534
0.310876
0.307461
0.304292
0.301373
0.298705
0.296284
0.294109
0.292173
0.29047
0.288993
0.287736
0.286688
0.285843
0.285194
0.284732
0.284449
0.284337
0.284388
0.284594
0.284948
0.285443
0.286073
0.286831
0.287711
0.288707
0.289813
0.291024
0.292334
0.29374
0.295235
0.296817
0.29848
0.300222
0.302038
0.303926
0.305882
0.307904
0.309989
0.312135
0.314339
0.3166
0.318916
0.321285
0.323705
0.326176
0.328694
0.331259
0.333869
0.336522
0.339216
0.34195
0.344722
0.347528
0.350368
0.353239
0.356138
0.359063
0.362011
0.36498
0.367966
0.370967
0.373981
0.377004
0.380034
0.383068
0.386105
0.389142
0.392178
0.39521
0.398237
0.401258
0.404271
0.407278
0.410276
0.413267
0.416251
0.419228
0.422199
0.425165
0.428129
0.431093
0.434057
0.437026
0.440002
0.442987
0.445986
0.449002
0.45204
0.455103
0.458197
0.461325
0.464495
0.46771
0.470977
0.474302
0.47769
0.481147
0.48468
0.488295
0.491997
0.495791
0.499682
0.503673
0.507766
0.511964
0.516264
0.520665
0.52516
0.529742
0.534397
0.539111
0.543864
0.548629
0.553377
0.558071
0.562668
0.567118
0.571367
0.57535
0.578998
0.582235
0.584978
0.587141
0.588635
0.589356
0.589202
0.588073
0.585868
0.582494
0.577861
0.571886
0.564496
0.555627
0.545229
0.533263
0.519703
0.504538
0.487766
0.4694
0.449457
0.427967
0.40496
0.380472
0.354539
0.327189
0.298435
0.268238
0.236414
0.202385
0.164402
0.116036
0.0365788
0.0159332
0.0646027
0.0974228
0.124274
0.148692
0.171597
0.193253
0.213738
0.233069
0.25125
0.268279
0.284162
0.298904
0.312518
0.325013
0.336404
0.346706
0.355932
0.3641
0.371225
0.377328
0.382428
0.386549
0.389716
0.391956
0.393303
0.393792
0.393495
0.392466
0.390759
0.388435
0.385558
0.382195
0.378412
0.374278
0.36986
0.365223
0.360428
0.355536
0.3506
0.34567
0.340793
0.336008
0.331351
0.326853
0.322537
0.318426
0.314536
0.310878
0.307463
0.304294
0.301375
0.298707
0.296286
0.294111
0.292174
0.290472
0.288995
0.287738
0.28669
0.285845
0.285196
0.284734
0.284451
0.284339
0.28439
0.284596
0.28495
0.285445
0.286075
0.286833
0.287713
0.288709
0.289815
0.291025
0.292336
0.293741
0.295237
0.296819
0.298482
0.300224
0.30204
0.303928
0.305884
0.307906
0.309991
0.312137
0.314341
0.316602
0.318918
0.321287
0.323707
0.326178
0.328696
0.331261
0.333871
0.336524
0.339218
0.341952
0.344723
0.34753
0.35037
0.353241
0.35614
0.359065
0.362013
0.364981
0.367968
0.370969
0.373982
0.377005
0.380035
0.38307
0.386107
0.389144
0.392179
0.395211
0.398238
0.401259
0.404273
0.407279
0.410278
0.413269
0.416252
0.419229
0.4222
0.425167
0.428131
0.431094
0.434059
0.437027
0.440003
0.442988
0.445987
0.449004
0.452041
0.455104
0.458198
0.461327
0.464496
0.467711
0.470978
0.474303
0.477691
0.481148
0.484682
0.488296
0.491998
0.495792
0.499683
0.503674
0.507768
0.511965
0.516266
0.520666
0.525161
0.529743
0.534398
0.539113
0.543865
0.54863
0.553378
0.558072
0.562669
0.56712
0.571368
0.575351
0.579
0.582236
0.58498
0.587143
0.588636
0.589358
0.589204
0.588074
0.58587
0.582496
0.577863
0.571888
0.564498
0.555629
0.545231
0.533264
0.519705
0.504539
0.487768
0.469401
0.449459
0.427968
0.404961
0.380474
0.35454
0.32719
0.298436
0.268239
0.236415
0.202385
0.164402
0.116036
0.0365783
0.021116
0.0788924
0.116179
0.146053
0.172959
0.198082
0.22178
0.244153
0.265217
0.284966
0.303399
0.320519
0.336342
0.350888
0.364184
0.376261
0.387151
0.396885
0.405496
0.413014
0.41947
0.424893
0.429312
0.432757
0.435257
0.436845
0.437555
0.437437
0.436552
0.434952
0.432695
0.429842
0.426458
0.422609
0.418362
0.413785
0.408945
0.403907
0.398732
0.39348
0.388205
0.382957
0.377783
0.372723
0.367812
0.36308
0.358553
0.354252
0.350192
0.346386
0.342843
0.339567
0.33656
0.333824
0.331354
0.329147
0.327198
0.325499
0.324044
0.322823
0.321828
0.321051
0.320484
0.320118
0.319944
0.319954
0.320139
0.320492
0.321004
0.321669
0.322479
0.323427
0.324506
0.32571
0.327033
0.328469
0.330012
0.331657
0.3334
0.335235
0.337158
0.339166
0.341254
0.343419
0.345659
0.347969
0.350347
0.352791
0.355298
0.357866
0.360493
0.363177
0.365915
0.368708
0.371551
0.374443
0.377383
0.380368
0.383395
0.386464
0.389571
0.392714
0.39589
0.399096
0.402331
0.40559
0.408872
0.412172
0.415489
0.418819
0.422159
0.425507
0.42886
0.432215
0.435571
0.438925
0.442275
0.445621
0.44896
0.452292
0.455616
0.458931
0.462239
0.465539
0.468832
0.472119
0.475401
0.478681
0.48196
0.485241
0.488526
0.491819
0.495123
0.498442
0.501779
0.50514
0.508529
0.511952
0.515413
0.518919
0.522475
0.526088
0.529764
0.53351
0.537332
0.541238
0.545233
0.549324
0.553516
0.557814
0.562223
0.566744
0.571379
0.576128
0.580986
0.585948
0.591004
0.596142
0.601343
0.606587
0.611846
0.617085
0.622267
0.627344
0.632264
0.636965
0.641382
0.645438
0.649054
0.65214
0.654606
0.656355
0.657278
0.657273
0.656235
0.654065
0.650665
0.645943
0.639816
0.632205
0.623047
0.612283
0.599869
0.585769
0.569957
0.552413
0.533126
0.512088
0.489295
0.464745
0.438441
0.410386
0.380588
0.349045
0.315708
0.280375
0.242389
0.19969
0.144815
0.0505614
0.0211163
0.0788933
0.11618
0.146055
0.172961
0.198085
0.221783
0.244156
0.265219
0.284969
0.303401
0.320522
0.336344
0.35089
0.364187
0.376263
0.387153
0.396887
0.405497
0.413016
0.419472
0.424895
0.429314
0.432759
0.435259
0.436847
0.437556
0.437439
0.436554
0.434954
0.432696
0.429843
0.426459
0.42261
0.418363
0.413786
0.408946
0.403908
0.398733
0.393481
0.388206
0.382959
0.377785
0.372724
0.367813
0.363082
0.358555
0.354253
0.350194
0.346388
0.342844
0.339568
0.336562
0.333825
0.331355
0.329149
0.327199
0.325501
0.324045
0.322825
0.32183
0.321053
0.320485
0.320119
0.319945
0.319955
0.320141
0.320493
0.321006
0.321671
0.32248
0.323428
0.324507
0.325711
0.327034
0.32847
0.330013
0.331659
0.333401
0.335236
0.33716
0.339167
0.341256
0.343421
0.34566
0.34797
0.350348
0.352792
0.355299
0.357867
0.360494
0.363178
0.365917
0.368709
0.371552
0.374445
0.377384
0.380369
0.383397
0.386465
0.389572
0.392715
0.395891
0.399098
0.402332
0.405591
0.408873
0.412173
0.41549
0.41882
0.42216
0.425508
0.428861
0.432216
0.435572
0.438926
0.442276
0.445622
0.448961
0.452293
0.455617
0.458932
0.46224
0.46554
0.468833
0.47212
0.475402
0.478682
0.481961
0.485242
0.488527
0.49182
0.495124
0.498442
0.50178
0.505141
0.50853
0.511953
0.515414
0.51892
0.522476
0.526089
0.529765
0.533511
0.537333
0.541239
0.545234
0.549324
0.553517
0.557815
0.562224
0.566745
0.57138
0.576129
0.580987
0.585948
0.591005
0.596142
0.601344
0.606588
0.611847
0.617086
0.622268
0.627345
0.632265
0.636966
0.641383
0.645439
0.649054
0.652141
0.654607
0.656356
0.657279
0.657274
0.656236
0.654066
0.650666
0.645944
0.639817
0.632207
0.623048
0.612284
0.59987
0.58577
0.569958
0.552414
0.533127
0.512089
0.489296
0.464746
0.438441
0.410386
0.380588
0.349045
0.315708
0.280375
0.242389
0.19969
0.144814
0.0505605
0.0262343
0.0921893
0.133569
0.166275
0.19542
0.22244
0.247793
0.271615
0.293934
0.314752
0.334067
0.351895
0.368261
0.383203
0.39677
0.409014
0.419989
0.429751
0.438353
0.445845
0.452271
0.457676
0.462095
0.465565
0.468118
0.469787
0.470603
0.470601
0.469838
0.468362
0.466224
0.463479
0.460186
0.456404
0.452199
0.447633
0.442771
0.437676
0.432412
0.427038
0.42161
0.416182
0.410802
0.405515
0.400359
0.39537
0.390575
0.386
0.381665
0.377584
0.37377
0.370231
0.36697
0.36399
0.361291
0.358868
0.356719
0.354836
0.353212
0.351841
0.350713
0.349818
0.34915
0.3487
0.348458
0.348416
0.348565
0.348898
0.349405
0.350078
0.35091
0.351894
0.353022
0.354286
0.355681
0.357201
0.358838
0.360587
0.362443
0.364401
0.366456
0.368604
0.37084
0.37316
0.375561
0.37804
0.380593
0.383217
0.385911
0.38867
0.391494
0.394378
0.397322
0.400323
0.403379
0.406487
0.409645
0.412851
0.416103
0.419397
0.422732
0.426105
0.429512
0.432952
0.43642
0.439914
0.443431
0.446968
0.450522
0.45409
0.457668
0.461254
0.464846
0.46844
0.472035
0.475628
0.479218
0.482803
0.486382
0.489953
0.493517
0.497072
0.50062
0.50416
0.507693
0.511221
0.514744
0.518265
0.521786
0.52531
0.528838
0.532376
0.535925
0.539491
0.543077
0.546689
0.550331
0.554009
0.557729
0.561497
0.56532
0.569203
0.573155
0.577182
0.581291
0.585489
0.589784
0.594182
0.598689
0.603311
0.608051
0.612913
0.617897
0.623002
0.628226
0.633562
0.639
0.644526
0.650122
0.655764
0.661424
0.667067
0.672651
0.678128
0.683442
0.688531
0.693325
0.697746
0.70171
0.705129
0.707906
0.709944
0.711132
0.71137
0.710556
0.708589
0.705374
0.700821
0.694846
0.687372
0.67833
0.667659
0.655305
0.641219
0.625358
0.607678
0.588139
0.566698
0.543312
0.517938
0.490535
0.46107
0.429514
0.395836
0.359955
0.321619
0.280053
0.232867
0.171543
0.0642589
0.0262346
0.0921902
0.133571
0.166278
0.195423
0.222443
0.247796
0.271617
0.293937
0.314754
0.33407
0.351897
0.368263
0.383205
0.396772
0.409016
0.419991
0.429753
0.438355
0.445846
0.452273
0.457677
0.462096
0.465566
0.468119
0.469788
0.470604
0.470602
0.469839
0.468363
0.466225
0.46348
0.460186
0.456405
0.452199
0.447633
0.442771
0.437677
0.432413
0.427039
0.421611
0.416183
0.410803
0.405516
0.40036
0.39537
0.390576
0.386001
0.381665
0.377585
0.373771
0.370232
0.366971
0.363991
0.361292
0.358869
0.35672
0.354837
0.353213
0.351842
0.350714
0.349819
0.349151
0.348701
0.348459
0.348417
0.348566
0.348899
0.349406
0.350079
0.350911
0.351895
0.353023
0.354287
0.355682
0.357202
0.358839
0.360588
0.362444
0.364402
0.366457
0.368605
0.370841
0.373161
0.375562
0.378041
0.380594
0.383218
0.385912
0.388671
0.391495
0.394379
0.397323
0.400324
0.40338
0.406488
0.409646
0.412852
0.416104
0.419398
0.422733
0.426106
0.429513
0.432952
0.436421
0.439915
0.443432
0.446969
0.450523
0.454091
0.457669
0.461255
0.464847
0.468441
0.472036
0.475629
0.479219
0.482804
0.486382
0.489954
0.493517
0.497073
0.500621
0.504161
0.507694
0.511222
0.514745
0.518266
0.521787
0.52531
0.528839
0.532376
0.535926
0.539491
0.543078
0.546689
0.550331
0.55401
0.55773
0.561498
0.56532
0.569204
0.573155
0.577182
0.581291
0.58549
0.589785
0.594183
0.59869
0.603311
0.608052
0.612913
0.617897
0.623003
0.628227
0.633563
0.639
0.644526
0.650122
0.655765
0.661425
0.667068
0.672652
0.678128
0.683443
0.688532
0.693325
0.697746
0.701711
0.70513
0.707907
0.709944
0.711133
0.711371
0.710556
0.70859
0.705375
0.700822
0.694847
0.687373
0.678331
0.66766
0.655306
0.64122
0.625358
0.607679
0.58814
0.566699
0.543312
0.517938
0.490535
0.46107
0.429515
0.395836
0.359955
0.321619
0.280053
0.232866
0.171542
0.0642581
0.0313126
0.104683
0.149977
0.185341
0.216517
0.245174
0.271869
0.296784
0.31997
0.34144
0.361208
0.3793
0.395762
0.410654
0.424047
0.436022
0.446661
0.456044
0.464252
0.471354
0.477418
0.4825
0.486649
0.489909
0.492315
0.493901
0.494695
0.494724
0.494034
0.492664
0.490658
0.48806
0.484922
0.481295
0.477234
0.472798
0.468045
0.463035
0.457827
0.45248
0.44705
0.441591
0.436152
0.430781
0.425518
0.4204
0.415462
0.410728
0.406224
0.401968
0.397974
0.394252
0.39081
0.387651
0.384778
0.382189
0.37988
0.377847
0.376084
0.374583
0.373336
0.372335
0.371571
0.371037
0.370723
0.370622
0.370723
0.371019
0.371501
0.372161
0.372991
0.373983
0.375129
0.376422
0.377855
0.379422
0.381115
0.382929
0.384858
0.386896
0.389039
0.391281
0.393618
0.396046
0.398561
0.401159
0.403837
0.406591
0.409419
0.412317
0.415283
0.418314
0.421407
0.42456
0.427771
0.431037
0.434355
0.437722
0.441137
0.444596
0.448097
0.451636
0.45521
0.458818
0.462454
0.466118
0.469804
0.47351
0.477234
0.480971
0.484719
0.488476
0.492237
0.496002
0.499767
0.503531
0.507292
0.511048
0.514799
0.518543
0.522279
0.526008
0.529729
0.533443
0.537151
0.540854
0.544554
0.548252
0.551951
0.555653
0.559362
0.56308
0.566813
0.570563
0.574335
0.578134
0.581967
0.585838
0.589753
0.59372
0.597744
0.601834
0.605995
0.610237
0.614566
0.61899
0.623517
0.628152
0.632904
0.637777
0.642776
0.647904
0.653162
0.658549
0.664063
0.669696
0.675439
0.681276
0.68719
0.693157
0.699146
0.705122
0.711042
0.716858
0.722513
0.727943
0.733078
0.73784
0.742145
0.745903
0.749019
0.751395
0.752925
0.753513
0.753059
0.751469
0.74865
0.744516
0.738984
0.73198
0.72343
0.71327
0.701433
0.687857
0.672474
0.655215
0.636002
0.614753
0.591378
0.565786
0.537887
0.507597
0.474842
0.439546
0.401576
0.360609
0.315737
0.264254
0.196731
0.0778489
0.0313131
0.104684
0.149979
0.185343
0.21652
0.245177
0.271872
0.296787
0.319973
0.341443
0.36121
0.379302
0.395764
0.410655
0.424049
0.436024
0.446662
0.456046
0.464253
0.471355
0.477419
0.4825
0.48665
0.489909
0.492316
0.493901
0.494695
0.494725
0.494034
0.492664
0.490658
0.488061
0.484922
0.481295
0.477235
0.472798
0.468045
0.463035
0.457827
0.45248
0.447051
0.441591
0.436153
0.430781
0.425518
0.420401
0.415462
0.410729
0.406225
0.401968
0.397974
0.394252
0.39081
0.387652
0.384779
0.382189
0.37988
0.377847
0.376084
0.374584
0.373337
0.372336
0.371572
0.371038
0.370724
0.370622
0.370723
0.371019
0.371502
0.372162
0.372992
0.373983
0.37513
0.376423
0.377856
0.379422
0.381115
0.382929
0.384858
0.386897
0.389039
0.391282
0.393619
0.396047
0.398562
0.40116
0.403838
0.406592
0.409419
0.412318
0.415283
0.418314
0.421408
0.424561
0.427772
0.431037
0.434355
0.437723
0.441137
0.444596
0.448097
0.451636
0.455211
0.458818
0.462455
0.466118
0.469804
0.473511
0.477234
0.480971
0.48472
0.488476
0.492238
0.496002
0.499768
0.503532
0.507293
0.511049
0.514799
0.518543
0.522279
0.526008
0.529729
0.533443
0.537151
0.540854
0.544554
0.548252
0.551951
0.555653
0.559362
0.563081
0.566813
0.570563
0.574335
0.578135
0.581967
0.585838
0.589753
0.59372
0.597744
0.601834
0.605995
0.610237
0.614566
0.61899
0.623517
0.628152
0.632904
0.637777
0.642776
0.647904
0.653162
0.658549
0.664063
0.669696
0.675439
0.681276
0.68719
0.693157
0.699146
0.705122
0.711042
0.716858
0.722513
0.727943
0.733078
0.73784
0.742145
0.745903
0.749019
0.751395
0.752926
0.753513
0.753059
0.751469
0.74865
0.744516
0.738985
0.73198
0.723431
0.71327
0.701434
0.687857
0.672475
0.655215
0.636002
0.614753
0.591379
0.565786
0.537887
0.507596
0.474842
0.439545
0.401576
0.360609
0.315736
0.264253
0.19673
0.0778481
0.0364958
0.116659
0.16558
0.203394
0.236391
0.266444
0.294205
0.319905
0.343622
0.365391
0.385244
0.403228
0.419409
0.433875
0.446725
0.458068
0.468017
0.476683
0.484171
0.49058
0.495994
0.50049
0.504131
0.506968
0.509043
0.510388
0.511031
0.510994
0.510306
0.509
0.507108
0.504665
0.50171
0.498283
0.49443
0.4902
0.485645
0.480817
0.475771
0.470561
0.465242
0.459866
0.454483
0.449139
0.443878
0.438739
0.433757
0.428961
0.424378
0.420028
0.415929
0.412095
0.408534
0.405253
0.402256
0.399543
0.397112
0.39496
0.393082
0.391472
0.390122
0.389024
0.388171
0.387554
0.387166
0.386998
0.387042
0.387289
0.38773
0.388358
0.389164
0.39014
0.391279
0.392572
0.394013
0.395594
0.397309
0.399153
0.401117
0.403198
0.405389
0.407686
0.410083
0.412576
0.415162
0.417835
0.420592
0.423429
0.426344
0.429333
0.432393
0.435521
0.438713
0.441968
0.445282
0.448653
0.452078
0.455553
0.459076
0.462644
0.466254
0.469903
0.473588
0.477305
0.481052
0.484825
0.488621
0.492437
0.49627
0.500117
0.503974
0.50784
0.511711
0.515585
0.51946
0.523334
0.527205
0.531073
0.534934
0.53879
0.542639
0.546482
0.550318
0.554147
0.557972
0.561793
0.565611
0.569429
0.573248
0.577073
0.580905
0.584749
0.588607
0.592485
0.596388
0.600319
0.604285
0.608293
0.612347
0.616455
0.620625
0.624862
0.629176
0.633574
0.638064
0.642654
0.647351
0.652163
0.657096
0.662158
0.667351
0.672681
0.678148
0.683751
0.689489
0.695353
0.701334
0.707417
0.713585
0.719813
0.72607
0.732322
0.738527
0.744634
0.750588
0.756327
0.761781
0.766873
0.771521
0.775637
0.77913
0.781904
0.783861
0.784909
0.784956
0.783913
0.781694
0.778217
0.773404
0.767179
0.759469
0.7502
0.739295
0.726671
0.712236
0.695888
0.67751
0.656973
0.634137
0.608854
0.580978
0.550369
0.516897
0.480427
0.440761
0.397491
0.349565
0.293986
0.220504
0.0906145
0.0364963
0.11666
0.165582
0.203396
0.236393
0.266447
0.294208
0.319907
0.343625
0.365394
0.385246
0.40323
0.419411
0.433877
0.446727
0.45807
0.468018
0.476684
0.484172
0.49058
0.495995
0.500491
0.504131
0.506968
0.509043
0.510388
0.511031
0.510993
0.510306
0.509
0.507108
0.504665
0.501709
0.498282
0.49443
0.4902
0.485644
0.480816
0.47577
0.470561
0.465242
0.459866
0.454483
0.449139
0.443878
0.438739
0.433757
0.428961
0.424378
0.420028
0.415929
0.412095
0.408534
0.405254
0.402256
0.399543
0.397112
0.39496
0.393082
0.391472
0.390122
0.389025
0.388171
0.387555
0.387167
0.386999
0.387042
0.387289
0.387731
0.388358
0.389164
0.39014
0.391279
0.392572
0.394013
0.395594
0.39731
0.399153
0.401117
0.403198
0.405389
0.407686
0.410083
0.412576
0.415162
0.417835
0.420592
0.423429
0.426344
0.429333
0.432393
0.435521
0.438713
0.441968
0.445282
0.448653
0.452078
0.455553
0.459076
0.462644
0.466254
0.469903
0.473588
0.477305
0.481052
0.484825
0.488621
0.492437
0.49627
0.500117
0.503974
0.50784
0.511711
0.515585
0.51946
0.523334
0.527205
0.531072
0.534934
0.53879
0.542639
0.546482
0.550317
0.554147
0.557972
0.561792
0.565611
0.569428
0.573248
0.577073
0.580905
0.584748
0.588607
0.592485
0.596387
0.600319
0.604285
0.608292
0.612347
0.616455
0.620624
0.624862
0.629176
0.633574
0.638064
0.642653
0.64735
0.652162
0.657096
0.662157
0.667351
0.672681
0.678148
0.683751
0.689488
0.695352
0.701333
0.707417
0.713585
0.719812
0.72607
0.732322
0.738526
0.744634
0.750588
0.756327
0.761781
0.766872
0.771521
0.775637
0.77913
0.781904
0.783861
0.784909
0.784956
0.783913
0.781694
0.778217
0.773404
0.767179
0.759469
0.7502
0.739295
0.726671
0.712236
0.695888
0.67751
0.656973
0.634137
0.608854
0.580978
0.550369
0.516897
0.480426
0.44076
0.397489
0.349563
0.293984
0.220503
0.0906135
0.0415838
0.128171
0.180434
0.220475
0.255079
0.2863
0.314875
0.341086
0.365045
0.386811
0.406439
0.424001
0.43959
0.453321
0.465323
0.475738
0.48471
0.492381
0.498885
0.504347
0.508877
0.512567
0.515496
0.517725
0.519302
0.520263
0.520631
0.520424
0.519659
0.518359
0.516543
0.514234
0.511459
0.508246
0.50463
0.500648
0.496342
0.491757
0.486941
0.481944
0.476815
0.471605
0.46636
0.461129
0.455953
0.450874
0.445926
0.441143
0.436552
0.432177
0.428036
0.424147
0.42052
0.417165
0.414086
0.411286
0.408765
0.406522
0.404552
0.402851
0.401411
0.400227
0.39929
0.398593
0.39813
0.397891
0.39787