/*--------------------------------*- C++ -*----------------------------------*\
  =========                 |
  \\      /  F ield         | OpenFOAM: The Open Source CFD Toolbox
   \\    /   O peration     | Website:  https://openfoam.org
    \\  /    A nd           | Version:  8
     \\/     M anipulation  |
\*---------------------------------------------------------------------------*/
FoamFile
{
    version     2.0;
    format      ascii;
    class       volScalarField;
    location    "900";
    object      nut;
}
// * * * * * * * * * * * * * * * * * * * * * * * * * * * * * * * * * * * * * //

dimensions      [0 2 -1 0 0 0 0];

internalField   nonuniform List<scalar> 
46000
(
8.68392e-08
4.08062e-07
8.60163e-07
1.35409e-06
1.89114e-06
2.43194e-06
2.95824e-06
3.47379e-06
3.95993e-06
4.41899e-06
4.85195e-06
5.25777e-06
5.63537e-06
5.98377e-06
6.30217e-06
6.58995e-06
6.84669e-06
7.07221e-06
7.26652e-06
7.42992e-06
7.56291e-06
7.66622e-06
7.74081e-06
7.78777e-06
7.80843e-06
7.80692e-06
7.791e-06
7.75639e-06
7.70301e-06
7.63226e-06
7.54612e-06
7.44676e-06
7.33642e-06
7.21729e-06
7.09148e-06
6.961e-06
6.82769e-06
6.69324e-06
6.55917e-06
6.4268e-06
6.29728e-06
6.17158e-06
6.0505e-06
5.93468e-06
5.82461e-06
5.72068e-06
5.62311e-06
5.53207e-06
5.44762e-06
5.36975e-06
5.29838e-06
5.2334e-06
5.17467e-06
5.12198e-06
5.07515e-06
5.03396e-06
4.99817e-06
4.96757e-06
4.94189e-06
4.92094e-06
4.90526e-06
4.89466e-06
4.8882e-06
4.88555e-06
4.88653e-06
4.89098e-06
4.89875e-06
4.90971e-06
4.92374e-06
4.94072e-06
4.96051e-06
4.98302e-06
5.00813e-06
5.03574e-06
5.06575e-06
5.09806e-06
5.1326e-06
5.16927e-06
5.20799e-06
5.24869e-06
5.29133e-06
5.33582e-06
5.38212e-06
5.43019e-06
5.47998e-06
5.53144e-06
5.58454e-06
5.63926e-06
5.69556e-06
5.75341e-06
5.81279e-06
5.87368e-06
5.93605e-06
5.99986e-06
6.06509e-06
6.13171e-06
6.19968e-06
6.26895e-06
6.33948e-06
6.41123e-06
6.48414e-06
6.55815e-06
6.63319e-06
6.70921e-06
6.78613e-06
6.86388e-06
6.94238e-06
7.02155e-06
7.10132e-06
7.1816e-06
7.26231e-06
7.34339e-06
7.42477e-06
7.50639e-06
7.58817e-06
7.67008e-06
7.75208e-06
7.83412e-06
7.91617e-06
7.99821e-06
8.08023e-06
8.16226e-06
8.24429e-06
8.32632e-06
8.40839e-06
8.49054e-06
8.57282e-06
8.65527e-06
8.73795e-06
8.82094e-06
8.90433e-06
8.98821e-06
9.07267e-06
9.15781e-06
9.24376e-06
9.33064e-06
9.41858e-06
9.50773e-06
9.59824e-06
9.69028e-06
9.78402e-06
9.87963e-06
9.97731e-06
1.00772e-05
1.01796e-05
1.02847e-05
1.03926e-05
1.05036e-05
1.06178e-05
1.07354e-05
1.08565e-05
1.09812e-05
1.11096e-05
1.12417e-05
1.13774e-05
1.15166e-05
1.16591e-05
1.18044e-05
1.19521e-05
1.21015e-05
1.22518e-05
1.24019e-05
1.25508e-05
1.26968e-05
1.28383e-05
1.29734e-05
1.30997e-05
1.32149e-05
1.33162e-05
1.34005e-05
1.34649e-05
1.35061e-05
1.35229e-05
1.35142e-05
1.34732e-05
1.33955e-05
1.32777e-05
1.31164e-05
1.29091e-05
1.26534e-05
1.23476e-05
1.19907e-05
1.15824e-05
1.11233e-05
1.06148e-05
1.00594e-05
9.46061e-06
8.8228e-06
8.15139e-06
7.45261e-06
6.7334e-06
6.0011e-06
5.26262e-06
4.51912e-06
3.77271e-06
3.04456e-06
2.3068e-06
1.57655e-06
8.34308e-07
1.87688e-07
8.68332e-08
4.08062e-07
8.60165e-07
1.3541e-06
1.89116e-06
2.43198e-06
2.9583e-06
3.47385e-06
3.95998e-06
4.41903e-06
4.85198e-06
5.25779e-06
5.63539e-06
5.98382e-06
6.30225e-06
6.59006e-06
6.84684e-06
7.07236e-06
7.26668e-06
7.43007e-06
7.56305e-06
7.66635e-06
7.74093e-06
7.78788e-06
7.80853e-06
7.80707e-06
7.79116e-06
7.75657e-06
7.70319e-06
7.63243e-06
7.54628e-06
7.44691e-06
7.33655e-06
7.2174e-06
7.09157e-06
6.96107e-06
6.82776e-06
6.6933e-06
6.55923e-06
6.42685e-06
6.29734e-06
6.17164e-06
6.05056e-06
5.93474e-06
5.82468e-06
5.72074e-06
5.62318e-06
5.53213e-06
5.44767e-06
5.36978e-06
5.29841e-06
5.23343e-06
5.17469e-06
5.12201e-06
5.07518e-06
5.034e-06
4.99823e-06
4.96764e-06
4.94198e-06
4.92104e-06
4.90533e-06
4.89472e-06
4.88826e-06
4.88561e-06
4.88659e-06
4.89104e-06
4.89882e-06
4.90979e-06
4.92383e-06
4.9408e-06
4.9606e-06
4.98311e-06
5.00823e-06
5.03583e-06
5.06584e-06
5.09816e-06
5.13269e-06
5.16936e-06
5.20807e-06
5.24878e-06
5.29142e-06
5.33591e-06
5.38221e-06
5.43028e-06
5.48006e-06
5.53153e-06
5.58463e-06
5.63935e-06
5.69565e-06
5.7535e-06
5.81288e-06
5.87377e-06
5.93614e-06
5.99995e-06
6.06518e-06
6.1318e-06
6.19977e-06
6.26904e-06
6.33958e-06
6.41132e-06
6.48423e-06
6.55824e-06
6.63329e-06
6.7093e-06
6.78623e-06
6.86397e-06
6.94248e-06
7.02165e-06
7.10141e-06
7.18169e-06
7.2624e-06
7.34348e-06
7.42487e-06
7.50648e-06
7.58826e-06
7.67018e-06
7.75218e-06
7.83422e-06
7.91626e-06
7.9983e-06
8.08033e-06
8.16236e-06
8.24438e-06
8.32641e-06
8.40848e-06
8.49063e-06
8.57291e-06
8.65536e-06
8.73804e-06
8.82104e-06
8.90443e-06
8.9883e-06
9.07276e-06
9.1579e-06
9.24385e-06
9.33073e-06
9.41867e-06
9.50782e-06
9.59833e-06
9.69037e-06
9.78411e-06
9.87972e-06
9.9774e-06
1.00773e-05
1.01797e-05
1.02848e-05
1.03927e-05
1.05037e-05
1.06179e-05
1.07354e-05
1.08565e-05
1.09813e-05
1.11097e-05
1.12418e-05
1.13775e-05
1.15167e-05
1.16592e-05
1.18045e-05
1.19522e-05
1.21016e-05
1.22519e-05
1.2402e-05
1.25509e-05
1.26969e-05
1.28384e-05
1.29734e-05
1.30998e-05
1.3215e-05
1.33163e-05
1.34006e-05
1.3465e-05
1.35062e-05
1.3523e-05
1.35142e-05
1.34733e-05
1.33956e-05
1.32778e-05
1.31165e-05
1.29092e-05
1.26535e-05
1.23478e-05
1.19909e-05
1.15826e-05
1.11234e-05
1.06149e-05
1.00596e-05
9.46071e-06
8.82288e-06
8.15146e-06
7.45268e-06
6.73346e-06
6.00115e-06
5.26267e-06
4.51917e-06
3.77275e-06
3.04459e-06
2.30681e-06
1.57659e-06
8.34326e-07
1.87687e-07
3.76699e-07
1.23046e-05
2.51086e-05
3.48648e-05
4.24135e-05
4.87191e-05
5.41607e-05
5.89406e-05
6.32063e-05
6.70141e-05
7.04017e-05
7.34028e-05
7.60469e-05
7.83601e-05
8.03659e-05
8.20858e-05
8.35403e-05
8.47483e-05
8.57282e-05
8.64974e-05
8.70725e-05
8.74691e-05
8.77018e-05
8.77826e-05
8.77171e-05
8.74872e-05
8.71039e-05
8.6629e-05
8.60795e-05
8.54708e-05
8.48158e-05
8.41262e-05
8.34121e-05
8.26826e-05
8.19456e-05
8.12084e-05
8.04772e-05
7.97575e-05
7.9054e-05
7.83709e-05
7.77114e-05
7.70784e-05
7.64741e-05
7.59003e-05
7.53583e-05
7.48489e-05
7.43729e-05
7.39303e-05
7.35213e-05
7.31456e-05
7.28027e-05
7.24922e-05
7.22132e-05
7.19652e-05
7.17471e-05
7.1558e-05
7.1397e-05
7.1263e-05
7.11545e-05
7.10688e-05
7.09988e-05
7.09495e-05
7.0922e-05
7.09165e-05
7.09327e-05
7.09701e-05
7.10279e-05
7.11054e-05
7.12017e-05
7.13162e-05
7.14481e-05
7.15965e-05
7.17609e-05
7.19404e-05
7.21344e-05
7.23421e-05
7.2563e-05
7.27965e-05
7.30418e-05
7.32986e-05
7.35664e-05
7.38446e-05
7.41327e-05
7.44305e-05
7.47374e-05
7.50532e-05
7.53774e-05
7.57098e-05
7.60501e-05
7.63978e-05
7.67528e-05
7.71147e-05
7.74833e-05
7.78582e-05
7.8239e-05
7.86255e-05
7.90173e-05
7.94139e-05
7.98151e-05
8.02205e-05
8.06296e-05
8.10419e-05
8.14571e-05
8.18746e-05
8.22941e-05
8.2715e-05
8.3137e-05
8.35595e-05
8.39822e-05
8.44046e-05
8.48264e-05
8.52471e-05
8.56667e-05
8.60846e-05
8.65007e-05
8.69148e-05
8.73269e-05
8.77367e-05
8.81443e-05
8.85494e-05
8.89524e-05
8.93534e-05
8.97524e-05
9.01495e-05
9.05451e-05
9.09393e-05
9.13325e-05
9.1725e-05
9.21173e-05
9.25096e-05
9.29025e-05
9.32965e-05
9.36921e-05
9.40897e-05
9.44899e-05
9.48935e-05
9.53011e-05
9.57132e-05
9.61307e-05
9.65542e-05
9.69846e-05
9.74227e-05
9.78691e-05
9.83248e-05
9.87905e-05
9.92671e-05
9.97551e-05
0.000100255
0.000100768
0.000101294
0.000101834
0.000102387
0.000102954
0.000103533
0.000104125
0.000104728
0.000105341
0.000105961
0.000106586
0.000107212
0.000107836
0.000108453
0.000109058
0.000109643
0.000110203
0.000110729
0.000111212
0.000111643
0.00011201
0.000112303
0.00011251
0.000112616
0.000112608
0.000112444
0.000112119
0.000111624
0.000110946
0.000110074
0.000108995
0.000107698
0.000106174
0.000104413
0.00010241
0.000100159
9.76568e-05
9.49039e-05
9.19015e-05
8.86526e-05
8.5162e-05
8.14346e-05
7.74745e-05
7.32819e-05
6.88487e-05
6.41515e-05
5.90898e-05
5.33087e-05
4.60043e-05
3.52122e-05
1.83346e-05
7.61121e-07
3.76682e-07
1.23042e-05
2.51083e-05
3.48646e-05
4.24135e-05
4.87192e-05
5.41609e-05
5.89407e-05
6.32063e-05
6.70138e-05
7.0401e-05
7.34018e-05
7.60458e-05
7.83591e-05
8.03651e-05
8.20854e-05
8.35402e-05
8.47485e-05
8.57286e-05
8.64979e-05
8.7073e-05
8.74696e-05
8.77022e-05
8.77828e-05
8.77173e-05
8.74877e-05
8.71046e-05
8.66297e-05
8.60803e-05
8.54715e-05
8.48165e-05
8.41268e-05
8.34126e-05
8.26829e-05
8.19458e-05
8.12085e-05
8.04773e-05
7.97575e-05
7.90541e-05
7.83709e-05
7.77114e-05
7.70784e-05
7.64742e-05
7.59004e-05
7.53584e-05
7.4849e-05
7.43729e-05
7.39303e-05
7.35212e-05
7.31454e-05
7.28025e-05
7.24919e-05
7.2213e-05
7.1965e-05
7.17469e-05
7.1558e-05
7.13971e-05
7.12632e-05
7.11548e-05
7.10691e-05
7.09988e-05
7.09492e-05
7.09216e-05
7.09161e-05
7.09323e-05
7.09697e-05
7.10276e-05
7.11052e-05
7.12017e-05
7.13163e-05
7.14482e-05
7.15968e-05
7.17612e-05
7.19407e-05
7.21347e-05
7.23425e-05
7.25634e-05
7.27968e-05
7.30421e-05
7.32989e-05
7.35667e-05
7.38448e-05
7.4133e-05
7.44307e-05
7.47377e-05
7.50535e-05
7.53777e-05
7.57101e-05
7.60503e-05
7.63981e-05
7.67531e-05
7.7115e-05
7.74836e-05
7.78584e-05
7.82392e-05
7.86257e-05
7.90175e-05
7.94141e-05
7.98153e-05
8.02207e-05
8.06298e-05
8.10421e-05
8.14572e-05
8.18748e-05
8.22943e-05
8.27152e-05
8.31372e-05
8.35597e-05
8.39824e-05
8.44048e-05
8.48265e-05
8.52473e-05
8.56668e-05
8.60848e-05
8.65009e-05
8.6915e-05
8.73271e-05
8.77369e-05
8.81444e-05
8.85496e-05
8.89527e-05
8.93536e-05
8.97526e-05
9.01498e-05
9.05453e-05
9.09395e-05
9.13327e-05
9.17253e-05
9.21175e-05
9.25098e-05
9.29028e-05
9.32968e-05
9.36923e-05
9.40899e-05
9.44902e-05
9.48937e-05
9.53013e-05
9.57134e-05
9.61309e-05
9.65545e-05
9.69848e-05
9.74229e-05
9.78693e-05
9.8325e-05
9.87907e-05
9.92673e-05
9.97553e-05
0.000100255
0.000100768
0.000101294
0.000101834
0.000102387
0.000102954
0.000103533
0.000104125
0.000104728
0.000105341
0.000105961
0.000106586
0.000107212
0.000107836
0.000108453
0.000109058
0.000109644
0.000110203
0.000110729
0.000111212
0.000111643
0.00011201
0.000112303
0.00011251
0.000112616
0.000112608
0.000112444
0.000112119
0.000111624
0.000110946
0.000110074
0.000108995
0.000107699
0.000106174
0.000104414
0.00010241
0.000100159
9.76573e-05
9.49043e-05
9.19018e-05
8.86529e-05
8.51622e-05
8.14348e-05
7.74747e-05
7.32821e-05
6.88489e-05
6.41517e-05
5.909e-05
5.33088e-05
4.60045e-05
3.52127e-05
1.83348e-05
7.61112e-07
7.46689e-07
2.44513e-05
5.30017e-05
7.4496e-05
9.12551e-05
0.000105088
0.000116876
0.000127071
0.000135954
0.000143701
0.000150434
0.000156251
0.000161236
0.000165462
0.000168997
0.000171905
0.000174245
0.000176071
0.000177438
0.000178394
0.000178984
0.00017925
0.000179231
0.000178958
0.000178454
0.000177729
0.000176785
0.000175709
0.000174533
0.000173285
0.000171989
0.000170665
0.000169331
0.000168001
0.000166688
0.000165401
0.00016415
0.000162942
0.000161782
0.000160674
0.000159623
0.00015863
0.000157696
0.000156823
0.000156011
0.000155258
0.000154565
0.00015393
0.000153351
0.000152827
0.000152355
0.000151935
0.000151563
0.000151239
0.000150959
0.000150722
0.000150526
0.000150368
0.000150247
0.000150157
0.000150094
0.00015006
0.000150056
0.000150082
0.000150139
0.000150226
0.000150343
0.000150488
0.000150661
0.000150861
0.000151087
0.000151339
0.000151615
0.000151914
0.000152236
0.000152579
0.000152944
0.000153328
0.000153732
0.000154155
0.000154595
0.000155053
0.000155527
0.000156017
0.000156523
0.000157043
0.000157578
0.000158127
0.000158689
0.000159263
0.00015985
0.000160448
0.000161057
0.000161677
0.000162306
0.000162944
0.00016359
0.000164244
0.000164905
0.000165572
0.000166244
0.000166921
0.0001676
0.000168283
0.000168968
0.000169653
0.000170339
0.000171025
0.000171709
0.000172392
0.000173072
0.00017375
0.000174424
0.000175095
0.000175762
0.000176425
0.000177084
0.000177738
0.000178389
0.000179035
0.000179678
0.000180318
0.000180954
0.000181588
0.00018222
0.00018285
0.000183479
0.000184108
0.000184738
0.000185369
0.000186002
0.000186638
0.000187278
0.000187922
0.000188573
0.000189231
0.000189897
0.000190572
0.000191258
0.000191956
0.000192667
0.000193393
0.000194134
0.000194894
0.000195671
0.000196469
0.000197288
0.000198129
0.000198993
0.000199881
0.000200792
0.000201728
0.000202687
0.000203668
0.000204671
0.000205692
0.000206729
0.000207778
0.000208834
0.000209891
0.000210942
0.00021198
0.000212994
0.000213974
0.000214908
0.000215782
0.000216583
0.000217293
0.000217895
0.000218372
0.000218701
0.000218862
0.000218829
0.000218556
0.000218027
0.000217223
0.000216124
0.000214713
0.000212968
0.000210871
0.000208405
0.000205552
0.000202298
0.000198628
0.000194528
0.000189985
0.000184987
0.000179516
0.000173556
0.000167078
0.000160045
0.000152391
0.000144005
0.000134679
0.000123995
0.000111095
9.43047e-05
7.04131e-05
3.4692e-05
1.58903e-06
7.46692e-07
2.4451e-05
5.30008e-05
7.44947e-05
9.12535e-05
0.000105086
0.000116874
0.000127069
0.000135953
0.0001437
0.000150433
0.00015625
0.000161234
0.00016546
0.000168996
0.000171904
0.000174244
0.000176071
0.000177438
0.000178393
0.000178984
0.000179251
0.000179232
0.000178958
0.000178455
0.00017773
0.000176786
0.00017571
0.000174534
0.000173286
0.00017199
0.000170666
0.000169332
0.000168002
0.000166689
0.000165402
0.000164151
0.000162943
0.000161783
0.000160675
0.000159624
0.00015863
0.000157697
0.000156824
0.000156011
0.000155259
0.000154565
0.00015393
0.000153351
0.000152827
0.000152355
0.000151935
0.000151563
0.000151239
0.000150959
0.000150722
0.000150526
0.000150368
0.000150247
0.000150158
0.000150095
0.000150061
0.000150056
0.000150083
0.000150139
0.000150226
0.000150343
0.000150488
0.000150661
0.000150861
0.000151088
0.000151339
0.000151615
0.000151914
0.000152236
0.00015258
0.000152944
0.000153329
0.000153733
0.000154155
0.000154595
0.000155053
0.000155527
0.000156018
0.000156523
0.000157044
0.000157579
0.000158127
0.000158689
0.000159264
0.00015985
0.000160448
0.000161057
0.000161677
0.000162306
0.000162944
0.000163591
0.000164245
0.000164906
0.000165572
0.000166244
0.000166921
0.000167601
0.000168283
0.000168968
0.000169654
0.00017034
0.000171025
0.00017171
0.000172392
0.000173073
0.00017375
0.000174425
0.000175096
0.000175762
0.000176425
0.000177084
0.000177739
0.000178389
0.000179036
0.000179679
0.000180318
0.000180955
0.000181588
0.00018222
0.00018285
0.00018348
0.000184109
0.000184738
0.000185369
0.000186002
0.000186638
0.000187278
0.000187923
0.000188573
0.000189231
0.000189897
0.000190572
0.000191258
0.000191956
0.000192667
0.000193393
0.000194135
0.000194894
0.000195672
0.000196469
0.000197288
0.000198129
0.000198993
0.000199881
0.000200792
0.000201728
0.000202687
0.000203669
0.000204671
0.000205693
0.00020673
0.000207778
0.000208834
0.000209891
0.000210943
0.00021198
0.000212994
0.000213974
0.000214908
0.000215782
0.000216583
0.000217293
0.000217896
0.000218372
0.000218702
0.000218863
0.000218829
0.000218556
0.000218027
0.000217223
0.000216125
0.000214713
0.000212968
0.000210871
0.000208405
0.000205553
0.000202299
0.000198628
0.000194529
0.000189986
0.000184987
0.000179517
0.000173556
0.000167079
0.000160046
0.000152392
0.000144006
0.00013468
0.000123996
0.000111095
9.4305e-05
7.04134e-05
3.46922e-05
1.589e-06
1.10475e-06
3.25934e-05
7.20541e-05
0.000102999
0.000127834
0.000148502
0.000166104
0.000181283
0.000194439
0.000205842
0.000215688
0.000224132
0.000231304
0.000237319
0.000242285
0.000246301
0.000249461
0.000251856
0.000253569
0.000254681
0.000255266
0.000255391
0.000255119
0.000254502
0.000253585
0.000252402
0.000250976
0.000249387
0.000247678
0.000245888
0.00024405
0.00024219
0.000240332
0.000238495
0.000236696
0.000234947
0.000233258
0.00023164
0.000230097
0.000228636
0.000227259
0.000225968
0.000224764
0.000223648
0.000222617
0.000221671
0.000220807
0.000220023
0.000219315
0.00021868
0.000218116
0.000217618
0.000217183
0.000216807
0.000216488
0.000216223
0.000216007
0.000215839
0.000215714
0.000215629
0.00021558
0.000215564
0.000215585
0.000215642
0.000215734
0.000215861
0.000216022
0.000216218
0.000216446
0.000216707
0.000217
0.000217323
0.000217676
0.000218058
0.000218468
0.000218905
0.000219369
0.000219858
0.000220372
0.00022091
0.000221471
0.000222055
0.000222661
0.000223288
0.000223935
0.000224602
0.000225289
0.000225993
0.000226716
0.000227455
0.00022821
0.000228981
0.000229767
0.000230566
0.000231377
0.000232201
0.000233035
0.000233879
0.000234732
0.000235592
0.000236458
0.00023733
0.000238206
0.000239085
0.000239965
0.000240847
0.000241728
0.000242608
0.000243486
0.000244361
0.000245233
0.0002461
0.000246963
0.000247821
0.000248674
0.000249521
0.000250363
0.000251199
0.000252031
0.000252857
0.000253679
0.000254497
0.000255311
0.000256123
0.000256933
0.000257741
0.00025855
0.000259359
0.000260169
0.000260983
0.000261801
0.000262624
0.000263453
0.00026429
0.000265137
0.000265994
0.000266864
0.000267748
0.000268648
0.000269565
0.000270502
0.00027146
0.000272441
0.000273448
0.000274481
0.000275542
0.000276633
0.000277756
0.000278912
0.000280101
0.000281323
0.00028258
0.000283869
0.00028519
0.00028654
0.000287917
0.000289316
0.000290732
0.000292159
0.000293589
0.000295012
0.000296417
0.000297793
0.000299125
0.000300398
0.000301594
0.000302693
0.000303676
0.00030452
0.0003052
0.000305692
0.000305968
0.000305988
0.000305719
0.000305131
0.0003042
0.000302898
0.000301198
0.000299076
0.000296504
0.000293457
0.000289909
0.000285834
0.000281203
0.00027599
0.00027016
0.000263679
0.000256501
0.000248572
0.000239818
0.000230137
0.000219376
0.00020729
0.000193475
0.000177221
0.000157267
0.00013141
9.59981e-05
4.67606e-05
2.51621e-06
1.10477e-06
3.25932e-05
7.20527e-05
0.000102997
0.000127831
0.000148499
0.000166101
0.000181279
0.000194436
0.000205839
0.000215686
0.00022413
0.000231301
0.000237317
0.000242283
0.0002463
0.00024946
0.000251855
0.000253569
0.000254681
0.000255266
0.000255392
0.00025512
0.000254503
0.000253587
0.000252403
0.000250978
0.000249388
0.00024768
0.00024589
0.000244052
0.000242192
0.000240334
0.000238498
0.000236698
0.000234949
0.00023326
0.000231642
0.000230099
0.000228638
0.000227261
0.00022597
0.000224766
0.000223649
0.000222619
0.000221673
0.000220809
0.000220024
0.000219316
0.000218682
0.000218117
0.000217619
0.000217184
0.000216808
0.000216489
0.000216224
0.000216008
0.00021584
0.000215715
0.00021563
0.000215581
0.000215565
0.000215586
0.000215643
0.000215735
0.000215862
0.000216023
0.000216219
0.000216447
0.000216708
0.000217001
0.000217324
0.000217677
0.000218059
0.000218469
0.000218906
0.00021937
0.000219859
0.000220373
0.000220911
0.000221472
0.000222056
0.000222662
0.000223289
0.000223936
0.000224603
0.00022529
0.000225994
0.000226717
0.000227456
0.000228211
0.000228982
0.000229768
0.000230567
0.000231378
0.000232202
0.000233036
0.00023388
0.000234733
0.000235593
0.000236459
0.000237331
0.000238207
0.000239086
0.000239966
0.000240848
0.000241729
0.000242609
0.000243487
0.000244362
0.000245234
0.000246101
0.000246964
0.000247822
0.000248675
0.000249522
0.000250364
0.0002512
0.000252032
0.000252858
0.00025368
0.000254498
0.000255312
0.000256124
0.000256934
0.000257742
0.000258551
0.00025936
0.00026017
0.000260984
0.000261802
0.000262624
0.000263454
0.000264291
0.000265138
0.000265995
0.000266865
0.000267749
0.000268649
0.000269566
0.000270503
0.000271461
0.000272442
0.000273449
0.000274481
0.000275543
0.000276634
0.000277757
0.000278913
0.000280102
0.000281324
0.00028258
0.00028387
0.000285191
0.000286541
0.000287918
0.000289317
0.000290733
0.00029216
0.000293589
0.000295012
0.000296418
0.000297794
0.000299126
0.000300398
0.000301594
0.000302694
0.000303677
0.00030452
0.000305201
0.000305692
0.000305968
0.000305989
0.00030572
0.000305132
0.000304201
0.000302898
0.000301199
0.000299077
0.000296505
0.000293459
0.000289911
0.000285835
0.000281205
0.000275991
0.000270162
0.00026368
0.000256502
0.000248573
0.00023982
0.000230139
0.000219377
0.000207292
0.000193476
0.000177222
0.000157268
0.000131411
9.59986e-05
4.67609e-05
2.51618e-06
1.47024e-06
3.80755e-05
8.52611e-05
0.000123713
0.000155139
0.000181496
0.000204014
0.000223454
0.000240307
0.000254911
0.000267515
0.000278314
0.000287474
0.000295141
0.00030145
0.000306529
0.0003105
0.000313478
0.000315576
0.000316898
0.000317544
0.000317605
0.000317164
0.000316296
0.000315064
0.000313524
0.000311721
0.000309719
0.000307582
0.000305356
0.000303079
0.000300784
0.000298498
0.000296245
0.000294043
0.000291909
0.000289854
0.000287888
0.00028602
0.000284253
0.000282593
0.00028104
0.000279596
0.00027826
0.000277031
0.000275906
0.000274882
0.000273956
0.000273123
0.000272379
0.00027172
0.000271141
0.000270638
0.000270206
0.00026984
0.000269538
0.000269293
0.000269104
0.000268965
0.000268872
0.000268823
0.000268813
0.000268845
0.000268916
0.000269027
0.000269178
0.000269367
0.000269593
0.000269857
0.000270157
0.000270492
0.000270863
0.000271267
0.000271705
0.000272175
0.000272677
0.000273209
0.000273772
0.000274364
0.000274984
0.000275632
0.000276308
0.000277009
0.000277736
0.000278487
0.000279263
0.000280061
0.000280882
0.000281724
0.000282587
0.000283469
0.00028437
0.000285288
0.000286223
0.000287173
0.000288137
0.000289114
0.000290102
0.000291101
0.000292108
0.000293122
0.000294143
0.000295168
0.000296197
0.000297227
0.000298258
0.000299288
0.000300317
0.000301344
0.000302366
0.000303385
0.000304398
0.000305406
0.000306408
0.000307404
0.000308393
0.000309376
0.000310354
0.000311325
0.000312291
0.000313253
0.00031421
0.000315163
0.000316114
0.000317064
0.000318013
0.000318962
0.000319914
0.000320868
0.000321827
0.000322791
0.000323763
0.000324744
0.000325736
0.00032674
0.000327758
0.000328793
0.000329846
0.00033092
0.000332016
0.000333137
0.000334286
0.000335464
0.000336673
0.000337917
0.000339197
0.000340515
0.000341872
0.000343271
0.000344712
0.000346196
0.000347722
0.00034929
0.000350898
0.000352544
0.000354224
0.000355933
0.000357665
0.000359412
0.000361165
0.000362913
0.000364643
0.000366342
0.000367991
0.000369574
0.00037107
0.000372456
0.000373709
0.000374802
0.000375708
0.000376396
0.000376838
0.000376988
0.000376812
0.00037628
0.000375357
0.000374012
0.000372213
0.000369926
0.000367119
0.000363757
0.000359804
0.00035522
0.000349964
0.000343989
0.00033724
0.000329655
0.000321157
0.00031165
0.00030101
0.000289067
0.000275581
0.000260188
0.000242319
0.000221044
0.000194827
0.00016115
0.000116157
5.6196e-05
3.48329e-06
1.47026e-06
3.80753e-05
8.52595e-05
0.000123711
0.000155135
0.000181491
0.000204009
0.000223449
0.000240303
0.000254908
0.000267512
0.000278311
0.000287471
0.000295139
0.000301448
0.000306528
0.000310499
0.000313478
0.000315576
0.000316898
0.000317544
0.000317606
0.000317165
0.000316297
0.000315066
0.000313526
0.000311724
0.000309721
0.000307585
0.000305359
0.000303082
0.000300787
0.000298501
0.000296248
0.000294046
0.000291912
0.000289857
0.000287891
0.000286023
0.000284256
0.000282595
0.000281043
0.000279599
0.000278263
0.000277034
0.000275908
0.000274885
0.000273958
0.000273125
0.000272381
0.000271722
0.000271143
0.00027064
0.000270208
0.000269842
0.00026954
0.000269295
0.000269106
0.000268967
0.000268874
0.000268825
0.000268815
0.000268846
0.000268918
0.000269029
0.00026918
0.000269368
0.000269595
0.000269858
0.000270158
0.000270494
0.000270864
0.000271269
0.000271706
0.000272176
0.000272678
0.000273211
0.000273773
0.000274365
0.000274986
0.000275634
0.000276309
0.000277011
0.000277737
0.000278489
0.000279264
0.000280063
0.000280884
0.000281726
0.000282588
0.000283471
0.000284372
0.00028529
0.000286225
0.000287175
0.000288139
0.000289116
0.000290104
0.000291102
0.00029211
0.000293124
0.000294145
0.00029517
0.000296198
0.000297229
0.00029826
0.00029929
0.000300319
0.000301345
0.000302368
0.000303386
0.0003044
0.000305407
0.000306409
0.000307405
0.000308395
0.000309378
0.000310355
0.000311327
0.000312293
0.000313254
0.000314211
0.000315165
0.000316116
0.000317066
0.000318014
0.000318964
0.000319915
0.00032087
0.000321828
0.000322793
0.000323765
0.000324746
0.000325737
0.000326741
0.00032776
0.000328794
0.000329848
0.000330921
0.000332017
0.000333139
0.000334287
0.000335465
0.000336675
0.000337918
0.000339198
0.000340516
0.000341874
0.000343273
0.000344714
0.000346197
0.000347723
0.000349291
0.0003509
0.000352545
0.000354225
0.000355934
0.000357666
0.000359413
0.000361166
0.000362914
0.000364644
0.000366343
0.000367992
0.000369575
0.000371071
0.000372457
0.00037371
0.000374803
0.000375709
0.000376398
0.000376839
0.000376989
0.000376814
0.000376281
0.000375358
0.000374014
0.000372214
0.000369928
0.000367121
0.000363759
0.000359806
0.000355222
0.000349966
0.000343991
0.000337242
0.000329657
0.000321159
0.000311652
0.000301012
0.000289069
0.000275583
0.00026019
0.000242321
0.000221046
0.000194828
0.000161151
0.000116158
5.61964e-05
3.48326e-06
1.83261e-06
4.24205e-05
9.53443e-05
0.000139664
0.000176387
0.000207397
0.000233986
0.000256991
0.000276967
0.000294301
0.000309279
0.000322128
0.000333038
0.000342177
0.000349702
0.00035576
0.000360492
0.000364036
0.000366524
0.000368083
0.000368832
0.000368883
0.000368338
0.000367291
0.000365823
0.000364007
0.000361904
0.000359574
0.000357095
0.000354519
0.000351889
0.000349242
0.000346609
0.000344017
0.000341486
0.000339034
0.000336675
0.000334419
0.000332274
0.000330247
0.000328341
0.000326558
0.0003249
0.000323365
0.000321953
0.000320659
0.000319482
0.000318416
0.000317457
0.000316601
0.000315841
0.000315173
0.000314592
0.000314091
0.000313666
0.000313313
0.000313025
0.0003128
0.000312631
0.000312516
0.00031245
0.000312429
0.000312454
0.000312523
0.000312636
0.000312792
0.000312989
0.000313228
0.000313508
0.000313827
0.000314186
0.000314583
0.000315018
0.00031549
0.000315997
0.000316541
0.000317119
0.000317731
0.000318376
0.000319054
0.000319763
0.000320503
0.000321273
0.000322072
0.0003229
0.000323755
0.000324636
0.000325543
0.000326475
0.000327431
0.000328408
0.000329407
0.000330427
0.000331464
0.00033252
0.000333591
0.000334676
0.000335775
0.000336885
0.000338005
0.000339133
0.000340268
0.000341407
0.000342551
0.000343696
0.000344842
0.000345988
0.000347132
0.000348272
0.000349409
0.000350541
0.000351667
0.000352788
0.000353902
0.000355009
0.00035611
0.000357204
0.000358292
0.000359374
0.00036045
0.000361521
0.000362589
0.000363653
0.000364715
0.000365776
0.000366837
0.000367899
0.000368964
0.000370034
0.00037111
0.000372193
0.000373286
0.00037439
0.000375507
0.00037664
0.00037779
0.00037896
0.000380152
0.000381369
0.000382613
0.000383887
0.000385193
0.000386535
0.000387915
0.000389335
0.000390799
0.000392307
0.000393863
0.000395468
0.000397123
0.000398829
0.000400585
0.000402392
0.000404247
0.000406148
0.00040809
0.000410068
0.000412075
0.000414104
0.000416143
0.000418181
0.000420203
0.000422195
0.000424137
0.000426009
0.00042779
0.000429455
0.000430978
0.00043233
0.000433481
0.000434398
0.000435049
0.000435388
0.000435381
0.000434993
0.000434185
0.000432923
0.000431168
0.000428881
0.000426021
0.000422544
0.000418404
0.000413547
0.000407917
0.000401445
0.000394055
0.000385654
0.000376133
0.000365354
0.000353143
0.000339268
0.000323408
0.0003051
0.000283643
0.000257944
0.000226272
0.00018591
0.000132906
6.41225e-05
4.432e-06
1.83264e-06
4.24204e-05
9.53425e-05
0.000139661
0.000176383
0.000207392
0.000233981
0.000256986
0.000276962
0.000294296
0.000309275
0.000322124
0.000333035
0.000342175
0.0003497
0.000355758
0.000360491
0.000364036
0.000366524
0.000368083
0.000368833
0.000368884
0.00036834
0.000367293
0.000365825
0.000364009
0.000361907
0.000359577
0.000357099
0.000354522
0.000351892
0.000349245
0.000346613
0.000344021
0.00034149
0.000339038
0.000336679
0.000334423
0.000332278
0.000330251
0.000328344
0.000326562
0.000324904
0.000323369
0.000321956
0.000320663
0.000319485
0.000318419
0.00031746
0.000316604
0.000315844
0.000315176
0.000314595
0.000314094
0.000313669
0.000313316
0.000313028
0.000312802
0.000312634
0.000312518
0.000312452
0.000312431
0.000312456
0.000312525
0.000312638
0.000312794
0.000312992
0.000313231
0.00031351
0.00031383
0.000314188
0.000314585
0.00031502
0.000315492
0.000316
0.000316543
0.000317121
0.000317733
0.000318378
0.000319056
0.000319765
0.000320505
0.000321275
0.000322074
0.000322902
0.000323757
0.000324639
0.000325546
0.000326478
0.000327433
0.000328411
0.00032941
0.000330429
0.000331467
0.000332522
0.000333593
0.000334679
0.000335777
0.000336887
0.000338007
0.000339135
0.00034027
0.00034141
0.000342553
0.000343698
0.000344845
0.00034599
0.000347134
0.000348274
0.000349411
0.000350543
0.00035167
0.00035279
0.000353904
0.000355011
0.000356112
0.000357206
0.000358294
0.000359376
0.000360452
0.000361523
0.000362591
0.000363655
0.000364717
0.000365778
0.000366839
0.000367901
0.000368966
0.000370036
0.000371112
0.000372195
0.000373288
0.000374392
0.000375509
0.000376642
0.000377792
0.000378962
0.000380154
0.000381371
0.000382615
0.000383889
0.000385195
0.000386537
0.000387917
0.000389337
0.0003908
0.000392309
0.000393865
0.00039547
0.000397125
0.00039883
0.000400587
0.000402394
0.000404249
0.000406149
0.000408091
0.000410069
0.000412077
0.000414105
0.000416144
0.000418182
0.000420205
0.000422196
0.000424138
0.000426011
0.000427792
0.000429457
0.00043098
0.000432331
0.000433482
0.0004344
0.00043505
0.00043539
0.000435383
0.000434994
0.000434187
0.000432925
0.00043117
0.000428883
0.000426023
0.000422546
0.000418406
0.00041355
0.000407919
0.000401448
0.000394057
0.000385657
0.000376136
0.000365357
0.000353146
0.00033927
0.000323411
0.000305103
0.000283645
0.000257946
0.000226274
0.000185911
0.000132906
6.41227e-05
4.43195e-06
2.19282e-06
4.61846e-05
0.00010369
0.000152672
0.000193671
0.000228483
0.000258427
0.000284389
0.000306969
0.000326593
0.000343575
0.000358166
0.000370573
0.000380983
0.000389565
0.000396484
0.000401894
0.00040595
0.000408799
0.000410585
0.000411445
0.000411507
0.000410891
0.000409706
0.000408049
0.000406007
0.000403656
0.000401059
0.0003983
0.000395436
0.000392517
0.000389581
0.000386665
0.000383795
0.000380995
0.000378282
0.000375671
0.000373174
0.000370798
0.000368549
0.000366433
0.00036445
0.000362603
0.00036089
0.00035931
0.000357859
0.000356536
0.000355335
0.000354251
0.000353279
0.000352414
0.00035165
0.000350982
0.000350402
0.000349906
0.000349489
0.000349145
0.000348868
0.000348655
0.000348501
0.000348402
0.000348353
0.000348354