/*--------------------------------*- C++ -*----------------------------------*\
  =========                 |
  \\      /  F ield         | OpenFOAM: The Open Source CFD Toolbox
   \\    /   O peration     | Website:  https://openfoam.org
    \\  /    A nd           | Version:  8
     \\/     M anipulation  |
\*---------------------------------------------------------------------------*/
FoamFile
{
    version     2.0;
    format      ascii;
    class       surfaceScalarField;
    location    "900";
    object      phi;
}
// * * * * * * * * * * * * * * * * * * * * * * * * * * * * * * * * * * * * * //

dimensions      [1 0 -1 0 0 0 0];

internalField   nonuniform List<scalar> 
114370
(
-1.26712e-09
-7.73337e-14
1.2672e-09
-2.66099e-09
7.70308e-14
1.39471e-09
-3.47948e-09
6.87278e-14
8.19101e-10
-3.54294e-09
-5.31292e-15
6.40079e-11
-2.93318e-09
-1.65547e-14
-6.09245e-10
-1.80413e-09
1.70495e-14
-1.12858e-09
-3.053e-10
5.33257e-14
-1.49842e-09
1.43368e-09
7.60189e-14
-1.73859e-09
3.30697e-09
7.43904e-14
-1.87292e-09
5.23876e-09
4.18668e-14
-1.93143e-09
7.17167e-09
-1.9935e-14
-1.93253e-09
9.06137e-09
-9.48793e-14
-1.88927e-09
1.08735e-08
-1.57782e-13
-1.81163e-09
1.25813e-08
-1.87396e-13
-1.70741e-09
1.41646e-08
-1.76623e-13
-1.58289e-09
1.56083e-08
-1.33418e-13
-1.4433e-09
1.69016e-08
-7.41915e-14
-1.29308e-09
1.80379e-08
-1.58422e-14
-1.13609e-09
1.90137e-08
2.92951e-14
-9.75703e-10
1.98286e-08
5.51434e-14
-8.14913e-10
2.0485e-08
6.15434e-14
-6.56368e-10
2.09875e-08
5.23765e-14
-5.02418e-10
2.13427e-08
3.24686e-14
-3.55158e-10
2.15593e-08
4.88589e-15
-2.1649e-10
2.16477e-08
-2.95838e-14
-8.82165e-11
2.16193e-08
-6.7012e-14
2.85103e-11
2.14853e-08
-1.01334e-13
1.34201e-10
2.12564e-08
-1.25928e-13
2.29219e-10
2.09437e-08
-1.33104e-13
3.12968e-10
2.05587e-08
-1.20371e-13
3.85258e-10
2.01129e-08
-9.21778e-14
4.46109e-10
1.96174e-08
-5.7253e-14
4.95738e-10
1.90831e-08
-2.36774e-14
5.34529e-10
1.85203e-08
4.68862e-15
5.63014e-10
1.79387e-08
2.81875e-14
5.81847e-10
1.73472e-08
4.86312e-14
5.91773e-10
1.67538e-08
6.65672e-14
5.93609e-10
1.61657e-08
8.06067e-14
5.88212e-10
1.55895e-08
8.87619e-14
5.76461e-10
1.50304e-08
9.01053e-14
5.59234e-10
1.44932e-08
8.52559e-14
5.37396e-10
1.39816e-08
7.56989e-14
5.11779e-10
1.34986e-08
6.29744e-14
4.83171e-10
1.30465e-08
4.85998e-14
4.5231e-10
1.26269e-08
3.46255e-14
4.19872e-10
1.22406e-08
2.40052e-14
3.86467e-10
1.18882e-08
2.00577e-14
3.52641e-10
1.15696e-08
2.50701e-14
3.1887e-10
1.12842e-08
3.91917e-14
2.85561e-10
1.10314e-08
6.0169e-14
2.53056e-10
1.081e-08
8.35597e-14
2.21632e-10
1.06186e-08
1.03757e-13
1.91506e-10
1.04559e-08
1.16326e-13
1.6284e-10
1.03204e-08
1.19408e-13
1.35744e-10
1.02102e-08
1.12488e-13
1.10287e-10
1.01239e-08
9.53537e-14
8.64926e-11
1.00598e-08
6.91543e-14
6.43465e-11
1.00163e-08
3.64702e-14
4.37945e-11
9.99185e-09
-1.97303e-16
2.47452e-11
9.98515e-09
-3.79815e-14
7.05358e-12
9.99474e-09
-7.54293e-14
-9.21123e-12
1.00191e-08
-1.08532e-13
-2.39336e-11
1.00568e-08
-1.30985e-13
-3.72239e-11
1.01064e-08
-1.40742e-13
-4.92094e-11
1.01669e-08
-1.3955e-13
-6.00069e-11
1.02371e-08
-1.30132e-13
-6.97258e-11
1.03161e-08
-1.12558e-13
-7.84641e-11
1.04029e-08
-8.84509e-14
-8.63079e-11
1.04967e-08
-6.53777e-14
-9.33395e-11
1.05968e-08
-4.83691e-14
-9.9639e-11
1.07025e-08
-3.2685e-14
-1.05275e-10
1.08133e-08
-1.59882e-14
-1.10303e-10
1.09285e-08
-8.11646e-15
-1.14782e-10
1.10477e-08
-1.4758e-14
-1.18769e-10
1.11705e-08
-2.3794e-14
-1.22308e-10
1.12964e-08
-2.39092e-14
-1.25433e-10
1.1425e-08
-2.25018e-14
-1.28182e-10
1.15561e-08
-2.86359e-14
-1.30594e-10
1.16893e-08
-3.39909e-14
-1.32703e-10
1.18243e-08
-2.77868e-14
-1.34545e-10
1.1961e-08
-1.61051e-14
-1.36158e-10
1.2099e-08
-1.10024e-14
-1.37581e-10
1.22384e-08
-1.26743e-14
-1.38848e-10
1.23789e-08
-1.40647e-14
-1.39997e-10
1.25204e-08
-1.25816e-14
-1.41058e-10
1.2663e-08
-9.39322e-15
-1.42057e-10
1.28065e-08
-6.15764e-15
-1.43016e-10
1.29509e-08
-6.61175e-15
-1.43965e-10
1.30963e-08
-1.33788e-14
-1.44931e-10
1.32427e-08
-2.22738e-14
-1.45935e-10
1.33901e-08
-2.73853e-14
-1.46995e-10
1.35387e-08
-3.025e-14
-1.48127e-10
1.36885e-08
-3.5922e-14
-1.49341e-10
1.38396e-08
-4.26267e-14
-1.50635e-10
1.39921e-08
-4.38463e-14
-1.52002e-10
1.4146e-08
-3.87148e-14
-1.53436e-10
1.43014e-08
-3.24066e-14
-1.54928e-10
1.44583e-08
-2.78144e-14
-1.56458e-10
1.46167e-08
-2.37478e-14
-1.58003e-10
1.47766e-08
-1.99516e-14
-1.59547e-10
1.49381e-08
-1.75821e-14
-1.61071e-10
1.5101e-08
-1.57776e-14
-1.62548e-10
1.52652e-08
-1.3208e-14
-1.63947e-10
1.54308e-08
-1.1843e-14
-1.6525e-10
1.55975e-08
-1.4075e-14
-1.66439e-10
1.57653e-08
-1.74534e-14
-1.67488e-10
1.5934e-08
-1.77649e-14
-1.68364e-10
1.61033e-08
-1.61781e-14
-1.69039e-10
1.6273e-08
-1.72794e-14
-1.69497e-10
1.6443e-08
-2.03596e-14
-1.69723e-10
1.66129e-08
-1.95329e-14
-1.69697e-10
1.67826e-08
-1.38899e-14
-1.69409e-10
1.69516e-08
-1.06454e-14
-1.68866e-10
1.71199e-08
-1.4693e-14
-1.68085e-10
1.72872e-08
-2.09348e-14
-1.67075e-10
1.74533e-08
-2.19726e-14
-1.6584e-10
1.76178e-08
-1.86269e-14
-1.64395e-10
1.77808e-08
-1.60929e-14
-1.62766e-10
1.7942e-08
-1.28192e-14
-1.60979e-10
1.81012e-08
-2.07902e-15
-1.59054e-10
1.82583e-08
1.42894e-14
-1.5702e-10
1.84133e-08
2.20797e-14
-1.54917e-10
1.85662e-08
1.00816e-14
-1.52789e-10
1.8717e-08
-1.48248e-14
-1.50664e-10
1.88657e-08
-3.34543e-14
-1.48561e-10
1.90124e-08
-3.36829e-14
-1.46499e-10
1.91571e-08
-1.96991e-14
-1.44503e-10
1.92998e-08
-3.39312e-15
-1.42595e-10
1.94408e-08
7.42154e-15
-1.40791e-10
1.958e-08
1.07758e-14
-1.39112e-10
1.97178e-08
6.50398e-15
-1.37587e-10
1.98542e-08
-3.78461e-15
-1.36247e-10
1.99895e-08
-1.3868e-14
-1.35103e-10
2.01238e-08
-1.52502e-14
-1.34149e-10
2.02573e-08
-4.85102e-15
-1.33378e-10
2.03902e-08
1.1085e-14
-1.32802e-10
2.05228e-08
2.20287e-14
-1.32438e-10
2.06552e-08
2.16067e-14
-1.32302e-10
2.07877e-08
1.11614e-14
-1.32397e-10
2.09205e-08
-2.55816e-15
-1.3272e-10
2.10538e-08
-1.12586e-14
-1.33273e-10
2.11879e-08
-8.6191e-15
-1.34062e-10
2.13231e-08
5.65975e-15
-1.35091e-10
2.14594e-08
2.32082e-14
-1.36363e-10
2.15973e-08
3.08285e-14
-1.37887e-10
2.17369e-08
2.10187e-14
-1.3967e-10
2.18786e-08
2.47419e-16
-1.41718e-10
2.20227e-08
-1.48972e-14
-1.44023e-10
2.21692e-08
-1.20415e-14
-1.46573e-10
2.23185e-08
5.70839e-15
-1.49354e-10
2.24708e-08
2.31774e-14
-1.52357e-10
2.26263e-08
2.78363e-14
-1.55568e-10
2.27852e-08
2.0833e-14
-1.58951e-10
2.29476e-08
1.35465e-14
-1.62451e-10
2.31135e-08
1.43036e-14
-1.65997e-10
2.32829e-08
1.97504e-14
-1.69511e-10
2.34557e-08
1.99413e-14
-1.729e-10
2.36316e-08
1.12811e-14
-1.76045e-10
2.38103e-08
2.66717e-15
-1.78788e-10
2.39911e-08
6.82643e-15
-1.80929e-10
2.41732e-08
2.51096e-14
-1.82234e-10
2.43555e-08
4.30338e-14
-1.82441e-10
2.45366e-08
4.36891e-14
-1.81251e-10
2.47148e-08
2.54725e-14
-1.78314e-10
2.48879e-08
3.50313e-15
-1.73213e-10
2.50533e-08
-7.8544e-15
-1.65472e-10
2.52078e-08
-1.06821e-14
-1.54573e-10
2.53477e-08
-1.81524e-14
-1.39955e-10
2.54686e-08
-3.51355e-14
-1.21013e-10
2.55657e-08
-4.96861e-14
-9.70911e-11
2.56332e-08
-4.60786e-14
-6.74917e-11
2.56646e-08
-2.24178e-14
-3.14882e-11
2.5653e-08
7.52144e-15
1.15671e-11
2.559e-08
3.15127e-14
6.2862e-11
2.54661e-08
4.91705e-14
1.23752e-10
2.52709e-08
6.18564e-14
1.95098e-10
2.49931e-08
6.24045e-14
2.77689e-10
2.46208e-08
4.15483e-14
3.72218e-10
2.41415e-08
4.44508e-15
4.79235e-10
2.35424e-08
-3.00913e-14
5.99096e-10
2.28105e-08
-5.14675e-14
7.31886e-10
2.19332e-08
-6.71065e-14
8.77331e-10
2.08986e-08
-8.13576e-14
1.03468e-09
1.96961e-08
-7.88214e-14
1.20256e-09
1.83172e-08
-4.75577e-14
1.37886e-09
1.67566e-08
-6.18298e-15
1.56053e-09
1.50132e-08
1.96612e-14
1.74331e-09
1.30916e-08
3.62627e-14
1.92144e-09
1.10042e-08
6.19682e-14
2.08724e-09
8.77344e-09
8.41453e-14
2.23049e-09
6.43562e-09
8.13311e-14
2.33754e-09
4.04555e-09
6.43698e-14
2.3898e-09
1.68362e-09
4.73509e-14
2.36165e-09
-5.30143e-10
1.91424e-14
2.2135e-09
-2.41506e-09
-1.71054e-14
1.88467e-09
-3.7372e-09
-4.23621e-14
1.32191e-09
-4.21874e-09
-3.67768e-14
4.81295e-10
-3.61708e-09
3.33368e-14
-6.01989e-10
-1.95627e-09
1.47638e-13
-1.66131e-09
2.22241e-13
-1.95691e-09
-1.26708e-09
1.26738e-09
-2.66103e-09
1.39506e-09
-3.47948e-09
8.19283e-10
-3.54293e-09
6.40902e-11
-2.93319e-09
-6.09181e-10
-1.80412e-09
-1.12851e-09
-3.05192e-10
-1.49835e-09
1.43391e-09
-1.73854e-09
3.30732e-09
-1.8729e-09
5.23922e-09
-1.93145e-09
7.17218e-09
-1.93261e-09
9.06184e-09
-1.88942e-09
1.08738e-08
-1.81183e-09
1.25815e-08
-1.70762e-09
1.41647e-08
-1.58308e-09
1.56082e-08
-1.44345e-09
1.69015e-08
-1.29318e-09
1.80377e-08
-1.13613e-09
1.90136e-08
-9.75705e-10
1.98287e-08
-8.14887e-10
2.04852e-08
-6.56331e-10
2.09877e-08
-5.02385e-10
2.1343e-08
-3.55142e-10
2.15596e-08
-2.16502e-10
2.1648e-08
-8.82599e-11
2.16197e-08
2.84329e-11
2.14856e-08
1.34092e-10
2.12566e-08
2.29092e-10
2.09438e-08
3.12841e-10
2.05588e-08
3.85149e-10
2.01129e-08
4.46034e-10
1.96174e-08
4.95705e-10
1.90831e-08
5.34541e-10
1.85203e-08
5.63069e-10
1.79387e-08
5.8194e-10
1.73471e-08
5.91897e-10
1.67538e-08
5.93757e-10
1.61658e-08
5.88376e-10
1.55895e-08
5.76633e-10
1.50305e-08
5.59407e-10
1.44934e-08
5.37563e-10
1.39818e-08
5.11934e-10
1.34988e-08
4.83314e-10
1.30467e-08
4.52441e-10
1.2627e-08
4.19993e-10
1.22407e-08
3.86583e-10
1.18883e-08
3.52757e-10
1.15696e-08
3.18991e-10
1.12843e-08
2.85694e-10
1.10314e-08
2.53205e-10
1.081e-08
2.21798e-10
1.06187e-08
1.91685e-10
1.04561e-08
1.63025e-10
1.03206e-08
1.35928e-10
1.02105e-08
1.10458e-10
1.01243e-08
8.664e-11
1.00603e-08
6.44627e-11
1.00168e-08
4.38734e-11
9.99234e-09
2.47814e-11
9.98563e-09
7.04302e-12
9.99519e-09
-9.26157e-12
1.00195e-08
-2.40128e-11
1.00571e-08
-3.73253e-11
1.01067e-08
-4.93228e-11
1.01671e-08
-6.01223e-11
1.02372e-08
-6.98339e-11
1.03161e-08
-7.85564e-11
1.04029e-08
-8.63796e-11
1.04967e-08
-9.33903e-11
1.05968e-08
-9.96673e-11
1.07026e-08
-1.05279e-10
1.08134e-08
-1.10288e-10
1.09286e-08
-1.14757e-10
1.10479e-08
-1.18736e-10
1.11706e-08
-1.22264e-10
1.12965e-08
-1.25384e-10
1.14251e-08
-1.28138e-10
1.15562e-08
-1.30553e-10
1.16894e-08
-1.3266e-10
1.18244e-08
-1.34497e-10
1.1961e-08
-1.36111e-10
1.20991e-08
-1.37536e-10
1.22385e-08
-1.38804e-10
1.2379e-08
-1.39952e-10
1.25206e-08
-1.41013e-10
1.26631e-08
-1.42014e-10
1.28066e-08
-1.42978e-10
1.29511e-08
-1.43931e-10
1.30965e-08
-1.449e-10
1.32429e-08
-1.45904e-10
1.33903e-08
-1.46967e-10
1.35389e-08
-1.48104e-10
1.36887e-08
-1.49322e-10
1.38398e-08
-1.50615e-10
1.39922e-08
-1.51982e-10
1.41461e-08
-1.53418e-10
1.43015e-08
-1.54911e-10
1.44584e-08
-1.56441e-10
1.46168e-08
-1.57988e-10
1.47767e-08
-1.59535e-10
1.49382e-08
-1.61062e-10
1.51011e-08
-1.62539e-10
1.52654e-08
-1.63942e-10
1.54309e-08
-1.65249e-10
1.55977e-08
-1.6644e-10
1.57655e-08
-1.67484e-10
1.59341e-08
-1.68354e-10
1.61034e-08
-1.6903e-10
1.62732e-08
-1.69494e-10
1.64431e-08
-1.6972e-10
1.66131e-08
-1.69689e-10
1.67827e-08
-1.69396e-10
1.69518e-08
-1.68855e-10
1.71201e-08
-1.68077e-10
1.72873e-08
-1.67067e-10
1.74533e-08
-1.65831e-10
1.76179e-08
-1.64388e-10
1.77809e-08
-1.62762e-10
1.7942e-08
-1.60973e-10
1.81012e-08
-1.59043e-10
1.82584e-08
-1.57007e-10
1.84135e-08
-1.5491e-10
1.85664e-08
-1.52788e-10
1.87172e-08
-1.50664e-10
1.88659e-08
-1.48556e-10
1.90125e-08
-1.46487e-10
1.91571e-08
-1.44482e-10
1.92999e-08
-1.42565e-10
1.94408e-08
-1.40756e-10
1.95801e-08
-1.3908e-10
1.97179e-08
-1.37565e-10
1.98543e-08
-1.36233e-10
1.99896e-08
-1.3509e-10
2.01239e-08
-1.34132e-10
2.02574e-08
-1.33359e-10
2.03903e-08
-1.32783e-10
2.05229e-08
-1.32419e-10
2.06553e-08
-1.32279e-10
2.07878e-08
-1.3237e-10
2.09206e-08
-1.32696e-10
2.10539e-08
-1.33256e-10
2.1188e-08
-1.34049e-10
2.13231e-08
-1.35075e-10
2.14595e-08
-1.36341e-10
2.15974e-08
-1.37862e-10
2.17371e-08
-1.39654e-10
2.18787e-08
-1.41715e-10
2.20227e-08
-1.4403e-10
2.21693e-08
-1.46579e-10
2.23186e-08
-1.49352e-10
2.24709e-08
-1.52345e-10
2.26264e-08
-1.5555e-10
2.27853e-08
-1.58932e-10
2.29477e-08
-1.62435e-10
2.31136e-08
-1.65984e-10
2.3283e-08
-1.69498e-10
2.34558e-08
-1.72887e-10
2.36317e-08
-1.76032e-10
2.38103e-08
-1.78775e-10
2.39911e-08
-1.80914e-10
2.41733e-08
-1.82215e-10
2.43556e-08
-1.82419e-10
2.45367e-08
-1.81233e-10
2.4715e-08
-1.78306e-10
2.48881e-08
-1.73221e-10
2.50534e-08
-1.65498e-10
2.5208e-08
-1.54613e-10
2.53478e-08
-1.40005e-10
2.54688e-08
-1.21065e-10
2.55658e-08
-9.71375e-11
2.56332e-08
-6.75268e-11
2.56646e-08
-3.15053e-11
2.56529e-08
1.15743e-11
2.559e-08
6.28916e-11
2.54662e-08
1.23793e-10
2.5271e-08
1.95139e-10
2.49933e-08
2.77724e-10
2.4621e-08
3.72238e-10
2.41418e-08
4.79228e-10
2.35426e-08
5.99054e-10
2.28107e-08
7.31819e-10
2.19334e-08
8.77256e-10
2.08987e-08
1.0346e-09
1.96961e-08
1.20248e-09
1.83172e-08
1.3788e-09
1.67566e-08
1.5605e-09
1.50132e-08
1.74331e-09
1.30916e-08
1.92146e-09
1.10042e-08
2.08729e-09
8.77353e-09
2.23059e-09
6.43575e-09
2.33766e-09
4.04568e-09
2.38991e-09
1.68374e-09
2.36174e-09
-5.30058e-10
2.21355e-09
-2.41504e-09
1.88468e-09
-3.7373e-09
1.3219e-09
-4.21892e-09
4.81251e-10
-3.6173e-09
-6.01962e-10
-1.95646e-09
-1.66114e-09
-1.95669e-09
-1.29365e-09
-2.07352e-13
2.56197e-09
-1.97576e-09
-2.94598e-14
2.07809e-09
-1.82066e-09
1.78083e-14
6.64739e-10
-1.03848e-09
3.71838e-15
-7.17564e-10
2.03246e-10
-1.17261e-14
-1.85042e-09
1.77854e-09
-1.59393e-14
-2.70336e-09
3.58437e-09
-1.21203e-14
-3.30377e-09
5.54125e-09
-2.15038e-15
-3.69505e-09
7.58537e-09
1.23481e-14
-3.91667e-09
9.66167e-09
2.84377e-14
-4.00742e-09
1.1725e-08
4.19155e-14
-3.99562e-09
1.3739e-08
4.89536e-14
-3.90298e-09
1.5674e-08
4.74308e-14
-3.7465e-09
1.75066e-08
3.76454e-14
-3.53978e-09
1.92179e-08
2.25096e-14
-3.29405e-09
2.07936e-08
6.66189e-15
-3.01879e-09
2.22228e-08
-5.62961e-15
-2.72219e-09
2.34983e-08
-1.25692e-14
-2.41143e-09
2.46156e-08
-1.5199e-14
-2.0929e-09
2.55731e-08
-1.56534e-14
-1.77229e-09
2.63716e-08
-1.48767e-14
-1.45468e-09
2.70139e-08
-1.19191e-14
-1.1446e-09
2.75049e-08
-5.36956e-15
-8.46054e-10
2.78511e-08
4.55386e-15
-5.62554e-10
2.80601e-08
1.54846e-14
-2.97122e-10
2.81409e-08
2.37342e-14
-5.21179e-11
2.81038e-08
2.70686e-14
1.71408e-10
2.79602e-08
2.59103e-14
3.72992e-10
2.77213e-08
2.17815e-14
5.51971e-10
2.73988e-08
1.60679e-14
7.08014e-10
2.7004e-08
9.12652e-15
8.41124e-10
2.65483e-08
6.74272e-16
9.51643e-10
2.60429e-08
-9.14583e-15
1.04022e-09
2.54984e-08
-1.91566e-14
1.10779e-09
2.49251e-08
-2.75354e-14
1.15551e-09
2.43324e-08
-3.27665e-14
1.18475e-09
2.37294e-08
-3.43785e-14
1.19701e-09
2.3124e-08
-3.2946e-14
1.19392e-09
2.25236e-08
-2.9528e-14
1.17716e-09
2.19347e-08
-2.51458e-14
1.14846e-09
2.13629e-08
-2.06705e-14
1.10953e-09
2.08129e-08
-1.69865e-14
1.06203e-09
2.02888e-08
-1.50685e-14
1.00759e-09
1.97937e-08
-1.57656e-14
9.47719e-10
1.933e-08
-1.94069e-14
8.83842e-10
1.88995e-08
-2.55125e-14
8.17256e-10
1.85033e-08
-3.29134e-14
7.49132e-10
1.8142e-08
-4.02885e-14
6.80504e-10
1.78157e-08
-4.66025e-14
6.12273e-10
1.75238e-08
-5.10841e-14
5.45204e-10
1.72659e-08
-5.32008e-14
4.79932e-10
1.70408e-08
-5.2827e-14
4.16971e-10
1.68472e-08
-4.99386e-14
3.56716e-10
1.66839e-08
-4.41407e-14
2.99459e-10
1.65491e-08
-3.53076e-14
2.45393e-10
1.64413e-08
-2.44586e-14
1.94626e-10
1.63588e-08
-1.30557e-14
1.47188e-10
1.62999e-08
-2.02918e-15
1.03044e-10
1.62628e-08
7.73337e-15
6.21023e-11
1.6246e-08
1.51076e-14
2.42314e-11
1.62477e-08
2.02798e-14
-1.06032e-11
1.62665e-08
2.40703e-14
-4.24009e-11
1.63009e-08
2.68517e-14
-7.12984e-11
1.63495e-08
2.90722e-14
-9.74877e-11
1.6411e-08
3.06541e-14
-1.21165e-10
1.64842e-08
3.09125e-14
-1.42534e-10
1.65679e-08
2.98445e-14
-1.6178e-10
1.66611e-08
2.84609e-14
-1.79072e-10
1.67628e-08
2.63932e-14
-1.94575e-10
1.6872e-08
2.19782e-14
-2.08455e-10
1.69881e-08
1.6225e-14
-2.20849e-10
1.71101e-08
1.20713e-14
-2.31873e-10
1.72374e-08
8.58641e-15
-2.4165e-10
1.73694e-08
2.39719e-15
-2.50306e-10
1.75055e-08
-4.4949e-15
-2.57936e-10
1.76452e-08
-6.3552e-15
-2.64622e-10
1.7788e-08
-3.44314e-15
-2.70458e-10
1.79334e-08
-1.39042e-15
-2.75548e-10
1.80812e-08
-1.12969e-15
-2.79973e-10
1.8231e-08
1.63087e-15
-2.83801e-10
1.83825e-08
7.28995e-15
-2.87119e-10
1.85354e-08
1.11177e-14
-2.90015e-10
1.86896e-08
1.10053e-14
-2.92561e-10
1.8845e-08
9.69459e-15
-2.94825e-10
1.90013e-08
9.62593e-15
-2.96879e-10
1.91585e-08
1.0516e-14
-2.98795e-10
1.93166e-08
1.12273e-14
-3.00629e-10
1.94756e-08
1.06332e-14
-3.02434e-10
1.96354e-08
7.91837e-15
-3.04265e-10
1.97961e-08
4.12876e-15
-3.0617e-10
1.99577e-08
1.65344e-15
-3.08181e-10
2.01204e-08
1.07711e-15
-3.10324e-10
2.02841e-08
8.23761e-16
-3.12621e-10
2.0449e-08
4.19489e-16
-3.1508e-10
2.06152e-08
1.25869e-15
-3.17697e-10
2.07827e-08
3.59993e-15
-3.20455e-10
2.09515e-08
5.72596e-15
-3.23339e-10
2.11218e-08
6.7913e-15
-3.26319e-10
2.12935e-08
7.84851e-15
-3.29354e-10
2.14667e-08
9.43915e-15
-3.32396e-10
2.16414e-08
1.07132e-14
-3.35397e-10
2.18175e-08
1.14714e-14
-3.38303e-10
2.19949e-08
1.24943e-14
-3.41061e-10
2.21736e-08
1.32129e-14
-3.43616e-10
2.23533e-08
1.17872e-14
-3.45917e-10
2.2534e-08
8.5333e-15
-3.47909e-10
2.27154e-08
6.51929e-15
-3.49534e-10
2.28974e-08
7.23151e-15
-3.50747e-10
2.30797e-08
8.23712e-15
-3.51515e-10
2.3262e-08
7.21765e-15
-3.51812e-10
2.34441e-08
5.84592e-15
-3.51606e-10
2.36258e-08
6.70797e-15
-3.50877e-10
2.38067e-08
8.20309e-15
-3.49631e-10
2.39867e-08
6.38424e-15
-3.47892e-10
2.41655e-08
1.4573e-15
-3.45682e-10
2.43429e-08
-1.52718e-15
-3.43009e-10
2.45186e-08
5.64805e-16
-3.39899e-10
2.46924e-08
4.95433e-15
-3.36411e-10
2.48642e-08
7.55122e-15
-3.32615e-10
2.50338e-08
8.54673e-15
-3.28561e-10
2.52012e-08
1.02875e-14
-3.24288e-10
2.53663e-08
1.15248e-14
-3.19847e-10
2.55289e-08
8.01983e-15
-3.15313e-10
2.56892e-08
-6.87399e-16
-3.10765e-10
2.5847e-08
-8.66312e-15
-3.06262e-10
2.60025e-08
-9.70917e-15
-3.01844e-10
2.61558e-08
-4.15968e-15
-2.97556e-10
2.63068e-08
2.45244e-15
-2.93453e-10
2.64558e-08
6.1062e-15
-2.89587e-10
2.66029e-08
7.15582e-15
-2.85996e-10
2.67482e-08
7.04405e-15
-2.82711e-10
2.68918e-08
5.36702e-15
-2.79762e-10
2.70341e-08
1.78762e-15
-2.77178e-10
2.7175e-08
-1.116e-15
-2.7498e-10
2.7315e-08
3.04732e-16
-2.73177e-10
2.74541e-08
5.84685e-15
-2.7178e-10
2.75925e-08
1.02636e-14
-2.70805e-10
2.77306e-08
8.28478e-15
-2.70273e-10
2.78685e-08
4.0511e-16
-2.70196e-10
2.80064e-08
-7.14018e-15
-2.70578e-10
2.81446e-08
-8.14597e-15
-2.71423e-10
2.82834e-08
-1.93282e-15
-2.72743e-10
2.84228e-08
6.42271e-15
-2.74551e-10
2.85633e-08
1.05444e-14
-2.76857e-10
2.87051e-08
7.64817e-15
-2.79666e-10
2.88484e-08
2.93809e-16
-2.82978e-10
2.89934e-08
-5.70529e-15
-2.86798e-10
2.91405e-08
-5.5646e-15
-2.91124e-10
2.92899e-08
8.5378e-16
-2.95949e-10
2.94417e-08
8.80711e-15
-3.01248e-10
2.95963e-08
1.24089e-14
-3.0698e-10
2.97537e-08
9.50782e-15
-3.1309e-10
2.99142e-08
3.27485e-15
-3.195e-10
3.00777e-08
-1.21341e-15
-3.26107e-10
3.02444e-08
-2.07572e-15
-3.32776e-10
3.04141e-08
-2.10427e-15
-3.39333e-10
3.05867e-08
-4.97993e-15
-3.45558e-10
3.07617e-08
-1.03667e-14
-3.51184e-10
3.09387e-08
-1.35487e-14
-3.55889e-10
3.1117e-08
-1.05698e-14
-3.59281e-10
3.12955e-08
-3.43813e-15
-3.60892e-10
3.14731e-08
1.0707e-15
-3.60173e-10
3.16483e-08
-1.06391e-15
-3.56482e-10
3.18189e-08
-5.43093e-15
-3.49083e-10
3.19827e-08
-3.24914e-15
-3.37133e-10
3.21368e-08
7.83745e-15
-3.19683e-10
3.22778e-08
1.89963e-14
-2.95678e-10
3.24017e-08
1.88138e-14
-2.63948e-10
3.25038e-08
5.94558e-15
-2.23207e-10
3.25787e-08
-9.89295e-15
-1.72069e-10
3.26203e-08
-1.96248e-14
-1.09057e-10
3.26213e-08
-2.32566e-14
-3.26284e-11
3.2574e-08
-2.40169e-14
5.8881e-11
3.24693e-08
-2.00288e-14
1.6746e-10
3.22979e-08
-7.85808e-15
2.95144e-10
3.20492e-08
7.45391e-15
4.43685e-10
3.17122e-08
1.39782e-14
6.14663e-10
3.12749e-08
8.70674e-15
8.09454e-10
3.07249e-08
3.81895e-15
1.02914e-09
3.00496e-08
1.0332e-14
1.27436e-09
2.92363e-08
2.17612e-14
1.54518e-09
2.82726e-08
2.40672e-14
1.84093e-09
2.71472e-08
1.69974e-14
2.15999e-09
2.58501e-08
1.16837e-14
2.49961e-09
2.43734e-08
9.81322e-15
2.85553e-09
2.27121e-08
3.11677e-15
3.22168e-09
2.08656e-08
-6.86223e-15
3.58973e-09
1.88384e-08
-9.86713e-15
3.94853e-09
1.6642e-08
-7.7495e-15
4.28343e-09
1.42971e-08
-1.03867e-14
4.57526e-09
1.18355e-08
-1.47663e-14
4.79895e-09
9.30379e-09
-1.19713e-14
4.92131e-09
6.76694e-09
-3.25221e-15
4.89827e-09
4.31037e-09
3.28065e-15
4.66981e-09
2.03924e-09
-5.27533e-15
4.15554e-09
8.89202e-11
-3.07695e-14
3.27197e-09
-1.36482e-09
-5.28468e-14
1.93477e-09
-2.07842e-09
-6.00705e-14
1.11281e-10
-1.66936e-09
-3.03473e-14
-2.07084e-09
5.38753e-14
-3.62668e-09
-1.29386e-09
2.56207e-09
-1.97594e-09
2.07822e-09
-1.82071e-09
6.64738e-10
-1.03845e-09
-7.17618e-10
2.03306e-10
-1.85046e-09
1.7786e-09
-2.70336e-09
3.58444e-09
-3.30376e-09
5.54133e-09
-3.69503e-09
7.58548e-09
-3.91666e-09
9.66183e-09
-4.00744e-09
1.17252e-08
-3.99568e-09
1.37392e-08
-3.90309e-09
1.56743e-08
-3.74664e-09
1.75069e-08
-3.53993e-09
1.92182e-08
-3.29419e-09
2.07938e-08
-3.0189e-09
2.2223e-08
-2.72227e-09
2.34985e-08
-2.41148e-09
2.46158e-08
-2.09292e-09
2.55733e-08
-1.77229e-09
2.63717e-08
-1.45468e-09
2.7014e-08
-1.14459e-09
2.7505e-08
-8.46055e-10
2.78512e-08
-5.62575e-10
2.80602e-08
-2.97166e-10
2.8141e-08
-5.21863e-11
2.81039e-08
1.7132e-10
2.79603e-08
3.72894e-10
2.77215e-08
5.51872e-10
2.73989e-08
7.07925e-10
2.70041e-08
8.41054e-10
2.65484e-08
9.51598e-10
2.6043e-08
1.0402e-09
2.54985e-08
1.10779e-09
2.49252e-08
1.15554e-09
2.43325e-08
1.18479e-09
2.37294e-08
1.19707e-09
2.31241e-08
1.19399e-09
2.25237e-08
1.17724e-09
2.19348e-08
1.14855e-09
2.1363e-08
1.10961e-09
2.0813e-08
1.06211e-09
2.02889e-08
1.00766e-09
1.97938e-08
9.47777e-10
1.93302e-08
8.83892e-10
1.88997e-08
8.173e-10
1.85035e-08
7.49173e-10
1.81422e-08
6.80546e-10
1.78158e-08
6.1232e-10
1.7524e-08
5.4526e-10
1.7266e-08
4.79999e-10
1.70409e-08
4.17046e-10
1.68473e-08
3.56797e-10
1.6684e-08
2.9954e-10
1.65492e-08
2.45467e-10
1.64414e-08
1.94685e-10
1.6359e-08
1.47229e-10
1.63001e-08
1.03064e-10
1.6263e-08
6.20981e-11
1.62462e-08
2.42024e-11
1.62479e-08
-1.06549e-11
1.62667e-08
-4.24712e-11
1.63011e-08
-7.13825e-11
1.63497e-08
-9.75815e-11
1.64112e-08
-1.21264e-10
1.64844e-08
-1.4263e-10
1.65681e-08
-1.61865e-10
1.66613e-08
-1.79146e-10
1.67629e-08
-1.94642e-10
1.68722e-08
-2.08508e-10
1.69882e-08
-2.20881e-10
1.71103e-08
-2.31892e-10
1.72376e-08
-2.41668e-10
1.73696e-08
-2.50319e-10
1.75057e-08
-2.57935e-10
1.76453e-08
-2.64613e-10
1.77881e-08
-2.70458e-10
1.79336e-08
-2.75555e-10
1.80813e-08
-2.79974e-10
1.82311e-08
-2.83797e-10
1.83826e-08
-2.87116e-10
1.85355e-08
-2.90014e-10
1.86898e-08
-2.92561e-10
1.88451e-08
-2.94827e-10
1.90014e-08
-2.96882e-10
1.91587e-08
-2.98797e-10
1.93168e-08
-3.00632e-10
1.94757e-08
-3.02443e-10
1.96355e-08
-3.0428e-10
1.97962e-08
-3.06185e-10
1.99579e-08
-3.08194e-10
2.01205e-08
-3.10339e-10
2.02843e-08
-3.12638e-10
2.04492e-08
-3.15099e-10
2.06153e-08
-3.17715e-10
2.07828e-08
-3.20476e-10
2.09516e-08
-3.2336e-10
2.11219e-08
-3.26337e-10
2.12936e-08
-3.29369e-10
2.14668e-08
-3.32411e-10
2.16415e-08
-3.35413e-10
2.18176e-08
-3.38321e-10
2.1995e-08
-3.41078e-10
2.21737e-08
-3.43634e-10
2.23534e-08
-3.45935e-10
2.25341e-08
-3.47923e-10
2.27156e-08
-3.49542e-10
2.28975e-08
-3.50753e-10
2.30798e-08
-3.51524e-10
2.32621e-08
-3.5182e-10
2.34442e-08
-3.51609e-10
2.36259e-08
-3.50876e-10
2.38069e-08
-3.49632e-10
2.39869e-08
-3.47896e-10
2.41656e-08
-3.45683e-10
2.4343e-08
-3.43006e-10
2.45187e-08
-3.399e-10
2.46925e-08
-3.36421e-10
2.48643e-08
-3.32625e-10
2.50339e-08
-3.28562e-10
2.52013e-08
-3.24281e-10
2.53664e-08
-3.19845e-10
2.5529e-08
-3.15323e-10
2.56893e-08
-3.1078e-10
2.58471e-08
-3.06271e-10
2.60026e-08
-3.01843e-10
2.61558e-08
-2.9755e-10
2.63069e-08
-2.93444e-10
2.64559e-08
-2.89574e-10
2.6603e-08
-2.8598e-10
2.67482e-08
-2.82696e-10
2.68919e-08
-2.79753e-10
2.70341e-08
-2.77174e-10
2.71751e-08
-2.74977e-10
2.7315e-08
-2.73173e-10
2.74542e-08
-2.71777e-10
2.75926e-08
-2.70802e-10
2.77307e-08
-2.70266e-10
2.78686e-08
-2.70181e-10
2.80065e-08
-2.70558e-10
2.81447e-08
-2.71404e-10
2.82834e-08
-2.72728e-10
2.84229e-08
-2.74536e-10
2.85634e-08
-2.76839e-10
2.87052e-08
-2.79644e-10
2.88485e-08
-2.82959e-10
2.89935e-08
-2.86786e-10
2.91406e-08
-2.9112e-10
2.92899e-08
-2.95945e-10
2.94418e-08
-3.01236e-10
2.95963e-08
-3.06958e-10
2.97538e-08
-3.13061e-10
2.99143e-08
-3.19471e-10
3.00778e-08
-3.26084e-10
3.02445e-08
-3.32758e-10
3.04142e-08
-3.39316e-10
3.05868e-08
-3.4554e-10
3.07618e-08
-3.51166e-10
3.09388e-08
-3.55871e-10
3.1117e-08
-3.59263e-10
3.12956e-08
-3.60872e-10
3.14732e-08
-3.60149e-10
3.16483e-08
-3.56458e-10
3.1819e-08
-3.49065e-10
3.19828e-08
-3.37128e-10
3.21369e-08
-3.19695e-10
3.22779e-08
-2.95706e-10
3.24019e-08
-2.63984e-10
3.2504e-08
-2.23245e-10
3.25789e-08
-1.72105e-10
3.26203e-08
-1.09087e-10
3.26214e-08
-3.26456e-11
3.2574e-08
5.88843e-11
3.24693e-08
1.67481e-10
3.22979e-08
2.95171e-10
3.20493e-08
4.43709e-10
3.17123e-08
6.14687e-10
3.1275e-08
8.0948e-10
3.0725e-08
1.02915e-09
3.00497e-08
1.27435e-09
2.92364e-08
1.54514e-09
2.82727e-08
1.84087e-09
2.71474e-08
2.15994e-09
2.58503e-08
2.49957e-09
2.43735e-08
2.8555e-09
2.27122e-08
3.22168e-09
2.08657e-08
3.58974e-09
1.88384e-08
3.94855e-09
1.66421e-08
4.28347e-09
1.42971e-08
4.57534e-09
1.18355e-08
4.79902e-09
9.30384e-09
4.92138e-09
6.76702e-09
4.89833e-09
4.31049e-09
4.66984e-09
2.03935e-09
4.15556e-09
8.89786e-11
3.27197e-09
-1.36489e-09
1.93476e-09
-2.0786e-09
1.1132e-10
-1.66958e-09
-2.07066e-09
-3.62648e-09
-6.76917e-10
-1.7161e-13
3.23971e-09
-4.73045e-10
-3.80097e-14
1.87503e-09
3.37203e-10
4.3629e-15
-1.45184e-10
1.50896e-09
7.89467e-15
-1.8891e-09
2.93286e-09
-4.85792e-16
-3.27412e-09
4.54845e-09
-9.51245e-15
-4.31877e-09
6.30757e-09
-1.4169e-14
-5.06275e-09
8.16631e-09
-1.37093e-14
-5.55364e-09
1.00852e-08
-9.44372e-15
-5.83547e-09
1.20265e-08
-1.86383e-15
-5.94852e-09
1.39562e-08
8.54172e-15
-5.92525e-09
1.58451e-08
1.97998e-14
-5.79186e-09
1.76684e-08
2.84387e-14
-5.56968e-09
1.9405e-08
3.12123e-14
-5.27635e-09
2.10378e-08
2.72236e-14
-4.92679e-09
2.25529e-08
1.85204e-14
-4.53386e-09
2.39396e-08
8.58501e-15
-4.10885e-09
2.519e-08
8.93927e-17
-3.66181e-09
2.62989e-08
-6.16273e-15
-3.20174e-09
2.72634e-08
-1.05167e-14
-2.73678e-09
2.8083e-08
-1.30652e-14
-2.27421e-09
2.8759e-08
-1.30954e-14
-1.82058e-09
2.92947e-08
-9.75805e-15
-1.38168e-09
2.96947e-08
-3.18164e-15
-9.6257e-10
2.99652e-08
5.22042e-15
-5.67567e-10
3.01133e-08
1.34005e-14
-2.00122e-10
3.01474e-08
1.97021e-14
1.37299e-10
3.00774e-08
2.33302e-14
4.43071e-10
2.99132e-08
2.40867e-14
7.16167e-10
2.96653e-08
2.19938e-14
9.55983e-10
2.93441e-08
1.71793e-14
1.16239e-09
2.89601e-08
1.01117e-14
1.33573e-09
2.85236e-08
1.79924e-15
1.4768e-09
2.80446e-08
-6.38232e-15
1.5868e-09
2.7533e-08
-1.3179e-14
1.6673e-09
2.69977e-08
-1.78994e-14
1.72013e-09
2.64474e-08
-2.05174e-14
1.7474e-09
2.58901e-08
-2.14303e-14
1.75139e-09
2.53328e-08
-2.11172e-14
1.7345e-09
2.47822e-08
-1.99623e-14
1.69918e-09
2.42439e-08
-1.83049e-14
1.64793e-09
2.37229e-08
-1.65477e-14
1.58319e-09
2.32232e-08
-1.51667e-14
1.50733e-09
2.27484e-08
-1.46054e-14
1.42263e-09
2.23012e-08
-1.51071e-14
1.33119e-09
2.18835e-08
-1.6582e-14
1.23499e-09
2.1497e-08
-1.87114e-14
1.1358e-09
2.11424e-08
-2.12591e-14
1.03522e-09
2.08201e-08
-2.41239e-14
9.34633e-10
2.05302e-08
-2.70319e-14
8.35242e-10
2.02722e-08
-2.95393e-14
7.38053e-10
2.00454e-08
-3.13507e-14
6.43891e-10
1.98488e-08
-3.20241e-14
5.53406e-10
1.96813e-08
-3.0633e-14
4.67088e-10
1.95416e-08
-2.66601e-14
3.85285e-10
1.94281e-08
-2.08178e-14
3.08213e-10
1.93394e-08
-1.40928e-14
2.35975e-10
1.9274e-08
-6.80833e-15
1.68581e-10
1.92302e-08
6.30697e-16
1.05964e-10
1.92065e-08
7.26548e-15
4.80062e-11
1.92014e-08
1.25599e-14
-5.40244e-12
1.92135e-08
1.7034e-14
-5.436e-11
1.92413e-08
2.13431e-14
-9.90387e-11
1.92836e-08
2.51511e-14
-1.39682e-10
1.9339e-08
2.73819e-14
-1.76544e-10
1.94065e-08
2.77553e-14
-2.09893e-10
1.94848e-08
2.75224e-14
-2.39994e-10
1.95729e-08
2.72076e-14
-2.67091e-10
1.96699e-08
2.4807e-14
-2.91422e-10
1.97748e-08
1.9356e-14
-3.13217e-10
1.98867e-08
1.42201e-14
-3.32689e-10
2.0005e-08
1.19479e-14
-3.50024e-10
2.01289e-08
9.0023e-15
-3.65401e-10
2.02577e-08
2.19838e-15
-3.78997e-10
2.03909e-08
-3.79157e-15
-3.90976e-10
2.05279e-08
-3.31295e-15
-4.01481e-10
2.06682e-08
5.59166e-16
-4.10651e-10
2.08115e-08
1.53684e-15
-4.18628e-10
2.09572e-08
5.07596e-16
-4.25552e-10
2.11051e-08
2.33864e-15
-4.3155e-10
2.12549e-08
6.81182e-15
-4.36744e-10
2.14063e-08
9.76339e-15
-4.41253e-10
2.1559e-08
9.62059e-15
-4.45199e-10
2.17131e-08
7.93893e-15
-4.48701e-10
2.18682e-08
6.63202e-15
-4.51867e-10
2.20243e-08
7.19233e-15
-4.54793e-10
2.21814e-08
9.3726e-15
-4.57575e-10
2.23394e-08
1.00765e-14
-4.60305e-10
2.24984e-08
7.11937e-15
-4.63064e-10
2.26582e-08
3.24781e-15
-4.6591e-10
2.28191e-08
2.43326e-15
-4.68898e-10
2.2981e-08
3.85211e-15
-4.72074e-10
2.3144e-08
3.97709e-15
-4.75469e-10
2.33081e-08
2.7338e-15
-4.79088e-10
2.34735e-08
2.79215e-15
-4.82927e-10
2.36402e-08
4.30512e-15
-4.86977e-10
2.38082e-08
5.0766e-15
-4.9121e-10
2.39775e-08
4.88947e-15
-4.95572e-10
2.41483e-08
5.39244e-15
-5.00001e-10
2.43205e-08
6.50858e-15
-5.0444e-10
2.4494e-08
6.89527e-15
-5.08823e-10
2.46689e-08
7.18888e-15
-5.13067e-10
2.4845e-08
8.84625e-15
-5.1708e-10
2.50222e-08
1.0307e-14
-5.20778e-10
2.52005e-08
8.52464e-15
-5.2409e-10
2.53796e-08
4.45764e-15
-5.2694e-10
2.55594e-08
2.76776e-15
-5.29244e-10
2.57397e-08
5.0414e-15
-5.3093e-10
2.59202e-08
7.3288e-15
-5.31947e-10
2.61007e-08
6.22238e-15
-5.32259e-10
2.6281e-08
3.63483e-15
-5.31836e-10
2.64608e-08
2.79892e-15
-5.30652e-10
2.664e-08
2.76949e-15
-5.28706e-10
2.68181e-08
7.79501e-16
-5.26014e-10
2.69951e-08
-2.01253e-15
-5.22609e-10
2.71707e-08
-1.75637e-15
-5.18532e-10
2.73447e-08
1.60515e-15
-5.13836e-10
2.75169e-08
3.71947e-15
-5.08586e-10
2.76872e-08
2.68791e-15
-5.02851e-10
2.78554e-08
2.25174e-15
-4.96712e-10
2.80214e-08
5.60817e-15
-4.90258e-10
2.81852e-08
9.37995e-15
-4.83585e-10
2.83467e-08
7.61071e-15
-4.76784e-10
2.85059e-08
2.72513e-16
-4.69932e-10
2.86628e-08
-6.2462e-15
-4.63113e-10
2.88174e-08
-7.1727e-15
-4.56416e-10
2.89699e-08
-4.18469e-15
-4.49936e-10
2.91202e-08
-1.11054e-15
-4.43744e-10
2.92686e-08
1.68437e-15
-4.37892e-10
2.9415e-08
5.72286e-15
-4.32424e-10