/*--------------------------------*- C++ -*----------------------------------*\
  =========                 |
  \\      /  F ield         | OpenFOAM: The Open Source CFD Toolbox
   \\    /   O peration     | Website:  https://openfoam.org
    \\  /    A nd           | Version:  8
     \\/     M anipulation  |
\*---------------------------------------------------------------------------*/
FoamFile
{
    version     2.0;
    format      ascii;
    class       volScalarField;
    location    "900";
    object      T;
}
// * * * * * * * * * * * * * * * * * * * * * * * * * * * * * * * * * * * * * //

dimensions      [0 0 0 1 0 0 0];

internalField   nonuniform List<scalar> 
46000
(
311.045
310.326
309.472
308.759
308.169
307.71
307.358
307.081
306.871
306.708
306.581
306.484
306.41
306.358
306.323
306.304
306.299
306.305
306.323
306.35
306.385
306.428
306.478
306.534
306.595
306.66
306.725
306.792
306.862
306.933
307.005
307.078
307.151
307.224
307.296
307.367
307.436
307.503
307.568
307.629
307.688
307.743
307.795
307.844
307.889
307.931
307.97
308.006
308.038
308.068
308.094
308.118
308.14
308.16
308.177
308.193
308.207
308.219
308.229
308.239
308.247
308.253
308.258
308.262
308.266
308.268
308.271
308.272
308.273
308.273
308.273
308.272
308.271
308.27
308.268
308.266
308.264
308.261
308.258
308.255
308.251
308.247
308.243
308.239
308.234
308.229
308.224
308.219
308.214
308.208
308.202
308.196
308.189
308.183
308.176
308.168
308.161
308.154
308.146
308.138
308.13
308.122
308.113
308.105
308.096
308.088
308.079
308.071
308.062
308.054
308.045
308.037
308.028
308.02
308.012
308.004
307.996
307.988
307.98
307.972
307.965
307.957
307.95
307.943
307.935
307.928
307.921
307.914
307.907
307.9
307.893
307.886
307.879
307.872
307.864
307.857
307.85
307.842
307.834
307.826
307.818
307.809
307.8
307.791
307.782
307.772
307.762
307.752
307.741
307.73
307.719
307.707
307.695
307.683
307.67
307.657
307.644
307.63
307.617
307.604
307.591
307.578
307.566
307.554
307.544
307.535
307.527
307.521
307.518
307.517
307.519
307.525
307.534
307.547
307.564
307.587
307.615
307.651
307.693
307.744
307.804
307.874
307.955
308.047
308.152
308.27
308.403
308.551
308.714
308.893
309.086
309.291
309.505
309.723
309.94
310.147
310.357
310.582
310.86
311.169
311.045
310.326
309.472
308.758
308.168
307.71
307.358
307.081
306.87
306.707
306.581
306.483
306.41
306.358
306.323
306.304
306.299
306.305
306.323
306.35
306.385
306.428
306.478
306.534
306.595
306.66
306.725
306.792
306.862
306.933
307.005
307.078
307.151
307.224
307.296
307.367
307.436
307.503
307.568
307.629
307.688
307.743
307.795
307.844
307.889
307.931
307.97
308.006
308.038
308.068
308.094
308.118
308.14
308.16
308.177
308.193
308.206
308.219
308.229
308.239
308.246
308.253
308.258
308.262
308.266
308.268
308.27
308.272
308.273
308.273
308.273
308.272
308.271
308.27
308.268
308.266
308.264
308.261
308.258
308.255
308.251
308.247
308.243
308.239
308.234
308.229
308.224
308.219
308.214
308.208
308.202
308.196
308.189
308.183
308.176
308.168
308.161
308.154
308.146
308.138
308.13
308.122
308.113
308.105
308.096
308.088
308.079
308.071
308.062
308.054
308.045
308.037
308.028
308.02
308.012
308.004
307.996
307.988
307.98
307.972
307.965
307.957
307.95
307.943
307.935
307.928
307.921
307.914
307.907
307.9
307.893
307.886
307.879
307.872
307.864
307.857
307.85
307.842
307.834
307.826
307.818
307.809
307.8
307.791
307.782
307.772
307.762
307.752
307.741
307.73
307.719
307.707
307.695
307.683
307.67
307.657
307.644
307.63
307.617
307.604
307.591
307.578
307.566
307.554
307.544
307.535
307.527
307.521
307.518
307.517
307.519
307.525
307.534
307.547
307.564
307.587
307.615
307.651
307.693
307.744
307.804
307.874
307.954
308.047
308.152
308.27
308.403
308.551
308.714
308.893
309.086
309.291
309.505
309.723
309.94
310.147
310.357
310.582
310.86
311.169
307.734
306.722
305.757
305.016
304.475
304.079
303.79
303.577
303.421
303.308
303.229
303.175
303.143
303.129
303.13
303.143
303.168
303.203
303.246
303.298
303.356
303.42
303.489
303.563
303.641
303.723
303.807
303.892
303.979
304.066
304.153
304.24
304.326
304.411
304.494
304.574
304.653
304.728
304.8
304.869
304.934
304.996
305.053
305.107
305.156
305.202
305.244
305.283
305.318
305.35
305.379
305.405
305.429
305.45
305.47
305.487
305.502
305.517
305.529
305.541
305.551
305.56
305.568
305.575
305.582
305.588
305.594
305.599
305.603
305.608
305.612
305.615
305.619
305.622
305.625
305.628
305.63
305.633
305.635
305.637
305.639
305.641
305.642
305.644
305.645
305.646
305.647
305.648
305.649
305.649
305.649
305.649
305.649
305.649
305.648
305.647
305.646
305.645
305.643
305.641
305.64
305.638
305.636
305.633
305.631
305.628
305.626
305.623
305.621
305.618
305.615
305.613
305.61
305.608
305.605
305.603
305.6
305.598
305.596
305.594
305.591
305.589
305.587
305.585
305.584
305.582
305.58
305.578
305.576
305.574
305.572
305.57
305.568
305.566
305.564
305.561
305.559
305.556
305.553
305.55
305.547
305.543
305.539
305.535
305.531
305.527
305.522
305.517
305.511
305.506
305.5
305.493
305.487
305.48
305.473
305.466
305.459
305.452
305.445
305.438
305.431
305.424
305.419
305.414
305.41
305.407
305.405
305.406
305.408
305.413
305.421
305.431
305.445
305.464
305.486
305.514
305.548
305.587
305.634
305.689
305.753
305.826
305.909
306.004
306.112
306.232
306.367
306.516
306.68
306.859
307.049
307.249
307.453
307.654
307.844
308.014
308.163
308.303
308.437
308.559
307.734
306.722
305.756
305.015
304.475
304.079
303.79
303.577
303.421
303.308
303.229
303.175
303.143
303.129
303.13
303.143
303.168
303.203
303.246
303.298
303.356
303.42
303.489
303.563
303.641
303.723
303.807
303.892
303.979
304.066
304.153
304.24
304.326
304.411
304.494
304.574
304.653
304.728
304.8
304.869
304.934
304.996
305.053
305.107
305.156
305.202
305.244
305.283
305.318
305.35
305.379
305.405
305.429
305.45
305.47
305.487
305.502
305.517
305.529
305.541
305.551
305.56
305.568
305.575
305.582
305.588
305.594
305.599
305.603
305.608
305.612
305.615
305.619
305.622
305.625
305.628
305.63
305.633
305.635
305.637
305.639
305.641
305.642
305.644
305.645
305.646
305.647
305.648
305.649
305.649
305.649
305.649
305.649
305.649
305.648
305.647
305.646
305.645
305.643
305.641
305.64
305.638
305.636
305.633
305.631
305.628
305.626
305.623
305.621
305.618
305.615
305.613
305.61
305.608
305.605
305.603
305.6
305.598
305.596
305.594
305.591
305.589
305.587
305.585
305.584
305.582
305.58
305.578
305.576
305.574
305.572
305.57
305.568
305.566
305.564
305.561
305.559
305.556
305.553
305.55
305.547
305.543
305.539
305.535
305.531
305.527
305.522
305.517
305.511
305.506
305.5
305.493
305.487
305.48
305.473
305.466
305.459
305.452
305.445
305.438
305.431
305.424
305.419
305.414
305.41
305.407
305.405
305.406
305.408
305.413
305.421
305.431
305.445
305.464
305.486
305.514
305.548
305.587
305.634
305.689
305.753
305.826
305.909
306.004
306.112
306.232
306.367
306.516
306.68
306.859
307.049
307.249
307.453
307.654
307.844
308.013
308.163
308.303
308.437
308.559
305.371
304.531
303.813
303.274
302.876
302.58
302.361
302.199
302.082
301.999
301.943
301.909
301.893
301.891
301.903
301.926
301.958
301.999
302.048
302.103
302.165
302.232
302.304
302.38
302.46
302.543
302.628
302.715
302.804
302.892
302.981
303.07
303.158
303.244
303.329
303.412
303.492
303.569
303.643
303.714
303.781
303.844
303.904
303.96
304.011
304.059
304.104
304.144
304.182
304.216
304.247
304.275
304.301
304.324
304.345
304.364
304.381
304.397
304.412
304.425
304.436
304.447
304.457
304.466
304.475
304.482
304.49
304.496
304.503
304.509
304.515
304.52
304.525
304.53
304.535
304.54
304.544
304.549
304.553
304.557
304.561
304.565
304.569
304.573
304.576
304.579
304.583
304.586
304.589
304.591
304.594
304.596
304.598
304.6
304.601
304.603
304.604
304.605
304.606
304.606
304.607
304.607
304.607
304.607
304.607
304.607
304.606
304.606
304.605
304.605
304.604
304.604
304.603
304.603
304.602
304.602
304.601
304.601
304.6
304.6
304.6
304.6
304.599
304.599
304.599
304.599
304.599
304.599
304.599
304.598
304.598
304.598
304.597
304.597
304.596
304.595
304.595
304.594
304.592
304.591
304.589
304.588
304.586
304.583
304.581
304.578
304.575
304.572
304.568
304.565
304.56
304.556
304.552
304.547
304.542
304.537
304.532
304.527
304.522
304.517
304.513
304.509
304.506
304.503
304.502
304.502
304.503
304.506
304.511
304.518
304.529
304.542
304.558
304.579
304.604
304.634
304.67
304.712
304.761
304.817
304.882
304.956
305.04
305.135
305.242
305.361
305.492
305.637
305.795
305.965
306.145
306.331
306.519
306.702
306.872
307.021
307.141
307.227
307.274
307.236
305.371
304.53
303.813
303.274
302.876
302.58
302.361
302.199
302.082
301.999
301.943
301.909
301.892
301.891
301.903
301.926
301.958
301.999
302.048
302.103
302.165
302.232
302.304
302.38
302.46
302.543
302.628
302.715
302.804
302.892
302.981
303.07
303.158
303.244
303.329
303.412
303.492
303.569
303.643
303.714
303.781
303.844
303.904
303.96
304.011
304.059
304.104
304.144
304.182
304.216
304.247
304.275
304.301
304.324
304.345
304.364
304.381
304.397
304.412
304.425
304.436
304.447
304.457
304.466
304.475
304.482
304.49
304.496
304.503
304.509
304.515
304.52
304.525
304.53
304.535
304.54
304.544
304.549
304.553
304.557
304.561
304.565
304.569
304.573
304.576
304.579
304.583
304.586
304.589
304.591
304.594
304.596
304.598
304.6
304.601
304.603
304.604
304.605
304.606
304.606
304.607
304.607
304.607
304.607
304.607
304.607
304.606
304.606
304.605
304.605
304.604
304.604
304.603
304.603
304.602
304.602
304.601
304.601
304.6
304.6
304.6
304.6
304.599
304.599
304.599
304.599
304.599
304.599
304.599
304.598
304.598
304.598
304.597
304.597
304.596
304.595
304.595
304.594
304.592
304.591
304.589
304.588
304.586
304.583
304.581
304.578
304.575
304.572
304.568
304.565
304.56
304.556
304.552
304.547
304.542
304.537
304.532
304.527
304.522
304.517
304.513
304.509
304.506
304.503
304.502
304.502
304.503
304.506
304.511
304.518
304.529
304.542
304.558
304.579
304.604
304.634
304.67
304.712
304.761
304.817
304.882
304.956
305.04
305.135
305.242
305.361
305.492
305.637
305.795
305.965
306.145
306.331
306.519
306.702
306.872
307.021
307.141
307.227
307.274
307.236
303.624
302.999
302.506
302.142
301.865
301.652
301.492
301.373
301.286
301.226
301.187
301.167
301.161
301.167
301.185
301.212
301.247
301.29
301.34
301.397
301.458
301.525
301.596
301.671
301.75
301.831
301.915
302.001
302.088
302.176
302.264
302.352
302.439
302.525
302.61
302.692
302.773
302.85
302.925
302.996
303.064
303.128
303.188
303.245
303.298
303.347
303.393
303.435
303.474
303.509
303.542
303.571
303.599
303.623
303.646
303.666
303.685
303.702
303.718
303.732
303.745
303.757
303.768
303.778
303.788
303.797
303.805
303.813
303.82
303.827
303.834
303.841
303.847
303.853
303.859
303.865
303.87
303.876
303.881
303.886
303.891
303.896
303.901
303.906
303.91
303.915
303.919
303.923
303.927
303.931
303.935
303.938
303.941
303.944
303.947
303.949
303.952
303.954
303.956
303.957
303.959
303.96
303.962
303.963
303.964
303.964
303.965
303.966
303.966
303.967
303.967
303.968
303.968
303.968
303.969
303.969
303.97
303.97
303.971
303.972
303.972
303.973
303.974
303.974
303.975
303.976
303.976
303.977
303.978
303.978
303.979
303.98
303.98
303.98
303.98
303.981
303.98
303.98
303.98
303.979
303.979
303.978
303.977
303.975
303.974
303.972
303.97
303.967
303.965
303.962
303.959
303.956
303.952
303.949
303.945
303.941
303.937
303.934
303.93
303.927
303.924
303.921
303.92
303.919
303.919
303.92
303.923
303.928
303.935
303.945
303.957
303.972
303.991
304.013
304.04
304.073
304.11
304.154
304.205
304.263
304.329
304.405
304.489
304.584
304.69
304.807
304.936
305.077
305.229
305.391
305.561
305.736
305.911
306.08
306.235
306.37
306.476
306.546
306.57
306.518
303.623
302.998
302.506
302.142
301.865
301.652
301.492
301.373
301.286
301.226
301.187
301.167
301.161
301.167
301.185
301.212
301.247
301.29
301.34
301.397
301.458
301.525
301.596
301.671
301.75
301.831
301.915
302.001
302.088
302.176
302.264
302.352
302.439
302.525
302.61
302.692
302.773
302.85
302.925
302.996
303.064
303.128
303.188
303.245
303.298
303.347
303.393
303.435
303.474
303.509
303.542
303.571
303.599
303.623
303.646
303.666
303.685
303.702
303.718
303.732
303.745
303.757
303.768
303.778
303.788
303.797
303.805
303.813
303.82
303.827
303.834
303.841
303.847
303.853
303.859
303.865
303.87
303.876
303.881
303.886
303.891
303.896
303.901
303.906
303.91
303.915
303.919
303.923
303.927
303.931
303.935
303.938
303.941
303.944
303.947
303.949
303.952
303.954
303.956
303.957
303.959
303.96
303.962
303.963
303.964
303.964
303.965
303.966
303.966
303.967
303.967
303.968
303.968
303.968
303.969
303.969
303.97
303.97
303.971
303.972
303.972
303.973
303.974
303.974
303.975
303.976
303.976
303.977
303.978
303.978
303.979
303.98
303.98
303.98
303.98
303.981
303.98
303.98
303.98
303.979
303.979
303.978
303.977
303.975
303.974
303.972
303.97
303.967
303.965
303.962
303.959
303.956
303.952
303.949
303.945
303.941
303.937
303.934
303.93
303.927
303.924
303.921
303.92
303.919
303.919
303.92
303.923
303.928
303.935
303.945
303.957
303.972
303.991
304.013
304.04
304.073
304.11
304.154
304.205
304.263
304.329
304.405
304.489
304.584
304.69
304.807
304.936
305.077
305.229
305.391
305.561
305.736
305.911
306.08
306.235
306.37
306.476
306.546
306.57
306.518
302.258
301.83
301.518
301.286
301.103
300.961
300.851
300.769
300.71
300.67
300.647
300.637
300.64
300.653
300.675
300.705
300.743
300.787
300.837
300.893
300.954
301.02
301.089
301.163
301.239
301.319
301.401
301.485
301.57
301.656
301.742
301.828
301.914
301.998
302.081
302.163
302.242
302.319
302.393
302.463
302.531
302.595
302.656
302.713
302.766
302.816
302.862
302.905
302.944
302.981
303.014
303.045
303.073
303.099
303.122
303.144
303.164
303.182
303.198
303.213
303.227
303.24
303.252
303.263
303.273
303.283
303.292
303.301
303.309
303.317
303.324
303.331
303.338
303.345
303.351
303.358
303.364
303.37
303.376
303.382
303.388
303.393
303.399
303.404
303.409
303.414
303.419
303.424
303.429
303.433
303.437
303.442
303.445
303.449
303.453
303.456
303.459
303.462
303.464
303.467
303.469
303.471
303.473
303.475
303.476
303.478
303.479
303.48
303.482
303.483
303.484
303.485
303.486
303.487
303.488
303.489
303.49
303.491
303.492
303.494
303.495
303.496
303.497
303.499
303.5
303.501
303.502
303.504
303.505
303.506
303.507
303.508
303.509
303.51
303.511
303.511
303.512
303.512
303.512
303.512
303.512
303.512
303.511
303.51
303.509
303.508
303.507
303.505
303.503
303.501
303.498
303.496
303.493
303.49
303.487
303.484
303.482
303.479
303.476
303.474
303.472
303.471
303.47
303.471
303.472
303.475
303.48
303.486
303.495
303.506
303.52
303.537
303.557
303.582
303.611
303.645
303.685
303.731
303.784
303.843
303.911
303.988
304.073
304.168
304.274
304.389
304.516
304.653
304.8
304.955
305.117
305.281
305.445
305.602
305.747
305.873
305.972
306.039
306.065
306.042
302.258
301.83
301.518
301.286
301.103
300.961
300.851
300.769
300.71
300.67
300.647
300.637
300.64
300.653
300.675
300.705
300.743
300.787
300.837
300.893
300.954
301.02
301.089
301.163
301.239
301.319
301.401
301.485
301.57
301.656
301.742
301.828
301.914
301.998
302.081
302.163
302.242
302.319
302.393
302.463
302.531
302.595
302.656
302.713
302.766
302.816
302.862
302.905
302.944
302.981
303.014
303.045
303.073
303.099
303.122
303.144
303.164
303.182
303.198
303.213
303.227
303.24
303.252
303.263
303.273
303.283
303.292
303.301
303.309
303.317
303.324
303.331
303.338
303.345
303.351
303.358
303.364
303.37
303.376
303.382
303.388
303.393
303.399
303.404
303.409
303.414
303.419
303.424
303.429
303.433
303.438
303.442
303.445
303.449
303.453
303.456
303.459
303.462
303.464
303.467
303.469
303.471
303.473
303.475
303.476
303.478
303.479
303.48
303.482
303.483
303.484
303.485
303.486
303.487
303.488
303.489
303.49
303.491
303.492
303.494
303.495
303.496
303.497
303.499
303.5
303.501
303.502
303.504
303.505
303.506
303.507
303.508
303.509
303.51
303.511
303.511
303.512
303.512
303.512
303.512
303.512
303.512
303.511
303.51
303.509
303.508
303.507
303.505
303.503
303.501
303.498
303.496
303.493
303.49
303.487
303.484
303.482
303.479
303.476
303.474
303.472
303.471
303.47
303.471
303.472
303.475
303.48
303.486
303.495
303.506
303.52
303.537
303.557
303.582
303.611
303.645
303.685
303.731
303.784
303.843
303.911
303.987
304.073
304.168
304.274
304.389
304.516
304.653
304.8
304.955
305.117
305.281
305.445
305.602
305.747
305.873
305.972
306.039
306.066
306.042
301.178
300.912
300.74
300.607
300.499
300.412
300.344
300.293
300.258
300.236
300.226
300.227
300.237
300.255
300.281
300.314
300.353
300.398
300.449
300.504
300.564
300.628
300.696
300.767
300.841
300.918
300.998
301.079
301.162
301.246
301.33
301.414
301.497
301.58
301.661
301.741
301.818
301.894
301.966
302.036
302.103
302.166
302.226
302.283
302.336
302.386
302.432
302.475
302.515
302.552
302.586
302.617
302.646
302.672
302.696
302.718
302.738
302.757
302.774
302.79
302.805
302.818
302.831
302.842
302.853
302.863
302.873
302.882
302.89
302.899
302.907
302.914
302.922
302.929
302.936
302.943
302.949
302.956
302.962
302.968
302.975
302.981
302.987
302.992
302.998
303.003
303.009
303.014
303.019
303.024
303.029
303.033
303.038
303.042
303.046
303.049
303.053
303.056
303.059
303.062
303.065
303.067
303.07
303.072
303.074
303.076
303.078
303.08
303.081
303.083
303.084
303.086
303.087
303.089
303.09
303.092
303.093
303.095
303.097
303.098
303.1
303.101
303.103
303.105
303.106
303.108
303.11
303.111
303.113
303.114
303.116
303.117
303.118
303.12
303.121
303.122
303.123
303.123
303.124
303.124
303.124
303.124
303.124
303.124
303.123
303.122
303.121
303.12
303.119
303.117
303.115
303.113
303.111
303.109
303.107
303.104
303.102
303.1
303.098
303.097
303.096
303.096
303.096
303.098
303.101
303.105
303.111
303.119
303.129
303.142
303.157
303.176
303.199
303.225
303.257
303.293
303.335
303.383
303.437
303.499
303.568
303.646
303.732
303.827
303.932
304.047
304.172
304.305
304.447
304.597
304.751
304.907
305.062
305.21
305.347
305.467
305.565
305.635
305.673
305.677
301.178
300.912
300.74
300.607
300.499
300.412
300.344
300.293
300.258
300.236
300.226
300.227
300.237
300.255
300.281
300.314
300.353
300.398
300.449
300.504
300.564
300.628
300.696
300.767
300.841
300.919
300.998
301.079
301.162
301.246
301.33
301.414
301.497
301.58
301.661
301.741
301.818
301.894
301.966
302.036
302.103
302.166
302.226
302.283
302.336
302.386
302.432
302.475
302.515
302.552
302.586
302.617
302.646
302.672
302.696
302.718
302.738
302.757
302.774
302.79
302.805
302.818
302.831
302.842
302.853
302.863
302.873
302.882
302.89
302.899
302.907
302.914
302.922
302.929
302.936
302.943
302.949
302.956
302.962
302.968
302.975
302.981
302.987
302.992
302.998
303.003
303.009
303.014
303.019
303.024
303.029
303.033
303.038
303.042
303.046
303.049
303.053
303.056
303.059
303.062
303.065
303.067
303.07
303.072
303.074
303.076
303.078
303.08
303.081
303.083
303.084
303.086
303.087
303.089
303.09
303.092
303.093
303.095
303.097
303.098
303.1
303.101
303.103
303.105
303.106
303.108
303.11
303.111
303.113
303.114
303.116
303.117
303.118
303.12
303.121
303.122
303.123
303.123
303.124
303.124
303.124
303.124
303.124
303.124
303.123
303.122
303.121
303.12
303.119
303.117
303.115
303.113
303.111
303.109
303.107
303.104
303.102
303.1
303.098
303.097
303.096
303.096
303.096
303.098
303.101
303.105
303.111
303.119
303.129
303.142
303.157
303.176
303.199
303.225
303.257
303.293
303.335
303.383
303.437
303.499
303.568
303.646
303.732
303.827
303.932
304.047
304.172
304.305
304.447
304.597
304.751
304.907
305.062
305.21
305.347
305.467
305.565
305.635
305.673
305.677
300.341
300.209
300.131
300.068
300.014
299.969
299.933
299.907
299.891
299.884
299.886
299.895
299.911
299.934
299.964
299.999
300.039
300.084
300.134
300.189
300.248
300.31
300.376
300.445
300.517
300.592
300.669
300.748
300.828
300.909
300.99
301.071
301.152
301.233
301.312
301.389
301.465
301.539
301.61
301.678
301.743
301.806
301.865
301.921
301.973
302.022
302.068
302.111
302.151
302.188
302.222
302.253
302.282
302.308
302.333
302.355
302.376
302.395
302.412
302.428
302.443
302.457
302.47
302.482
302.493
302.504
302.513
302.523
302.532
302.54
302.549
302.556
302.564
302.572
302.579
302.586
302.593
302.6
302.606
302.613
302.619
302.625
302.632
302.638
302.644
302.65
302.655
302.661
302.666
302.671
302.676
302.681
302.686
302.69
302.694
302.698
302.702
302.706
302.709
302.713
302.716
302.718
302.721
302.724
302.726
302.728
302.731
302.733
302.735
302.737
302.739
302.74
302.742
302.744
302.746
302.748
302.75
302.751
302.753
302.755
302.757
302.759
302.761
302.763
302.765
302.767
302.769
302.771
302.773
302.774
302.776
302.778
302.779
302.781
302.782
302.783
302.785
302.786
302.786
302.787
302.788
302.788
302.788
302.788
302.788
302.787
302.786
302.786
302.784
302.783
302.782
302.78
302.778
302.777
302.775
302.773
302.772
302.77
302.769
302.769
302.769
302.769
302.771
302.773
302.777
302.783
302.79
302.8
302.811
302.826
302.843
302.864
302.888
302.917
302.95
302.989
303.033
303.083
303.139
303.202
303.273
303.352
303.439
303.535
303.64
303.754
303.876
304.007
304.145
304.29
304.438
304.587
304.735
304.876
305.008
305.124
305.222
305.296
305.346
305.363
300.341
300.209
300.131
300.068
300.014
299.969
299.933
299.907
299.891
299.884
299.886
299.895
299.911
299.934
299.964
299.999
300.039
300.084
300.135
300.189
300.248
300.31
300.376
300.445
300.517
300.592
300.669
300.748
300.828
300.909
300.99
301.071
301.152
301.233
301.312
301.389
301.465
301.539
301.61
301.678
301.743
301.806
301.865
301.921
301.973
302.022
302.068
302.111
302.151
302.188
302.222
302.253
302.282
302.308
302.333
302.355
302.376
302.395
302.412
302.428
302.443
302.457
302.47
302.482
302.493
302.504
302.513
302.523
302.532
302.54
302.549
302.556
302.564
302.572
302.579
302.586
302.593
302.6
302.606
302.613
302.619
302.626
302.632
302.638
302.644
302.65
302.655
302.661
302.666
302.671
302.676
302.681
302.686
302.69
302.694
302.698
302.702
302.706
302.709
302.713
302.716
302.718
302.721
302.724
302.726
302.728
302.731
302.733
302.735
302.737
302.739
302.74
302.742
302.744
302.746
302.748
302.75
302.751
302.753
302.755
302.757
302.759
302.761
302.763
302.765
302.767
302.769
302.771
302.773
302.774
302.776
302.778
302.779
302.781
302.782
302.783
302.785
302.786
302.786
302.787
302.788
302.788
302.788
302.788
302.788
302.787
302.786
302.786
302.784
302.783
302.782
302.78
302.778
302.777
302.775
302.773
302.772
302.77
302.769
302.769
302.769
302.769
302.771
302.773
302.777
302.783
302.79
302.8
302.811
302.826
302.843
302.864
302.888
302.917
302.95
302.989
303.033
303.083
303.139
303.202
303.273
303.352
303.439
303.535
303.64
303.754
303.876
304.007
304.145
304.29
304.438
304.587
304.735
304.876
305.008
305.124
305.222
305.297
305.346
305.363
299.705
299.678
299.662
299.644
299.626
299.61
299.599
299.592
299.591
299.595
299.606
299.622
299.643
299.67
299.702
299.738
299.779
299.825
299.874
299.928
299.985
300.046
300.11
300.177
300.246
300.318
300.393
300.469
300.546
300.624
300.703
300.781
300.86
300.938
301.014
301.089
301.163
301.234
301.303
301.37
301.434
301.494
301.552
301.607
301.658
301.707
301.752
301.794
301.833
301.87
301.904
301.935
301.963
301.99
302.014
302.037
302.057
302.076
302.094
302.11
302.125
302.139
302.152
302.164
302.176
302.186
302.196
302.206
302.215
302.224
302.232
302.24
302.248
302.256
302.263
302.27
302.277
302.284
302.291
302.298
302.304
302.311
302.317
302.323
302.329
302.335
302.341
302.347
302.353
302.358
302.363
302.368
302.373
302.378
302.382
302.386
302.39
302.394
302.398
302.401
302.405
302.408
302.411
302.414
302.416
302.419
302.421
302.424
302.426
302.428
302.43
302.432
302.435
302.437
302.439
302.441
302.443
302.445
302.447
302.449
302.451
302.454
302.456
302.458
302.46
302.462
302.464
302.467
302.469
302.471
302.473
302.475
302.476
302.478
302.48
302.481
302.482
302.484
302.485
302.486
302.486
302.487
302.487
302.487
302.487
302.487
302.487
302.486
302.485
302.484
302.483
302.482
302.481
302.479
302.478
302.477
302.476
302.475
302.475
302.475
302.475
302.477
302.48
302.483
302.488
302.495
302.504
302.515
302.528
302.544
302.563
302.586
302.612
302.643
302.679
302.719
302.765
302.817
302.876
302.941
303.014
303.094
303.182
303.278
303.383
303.496
303.617
303.745
303.88
304.02
304.163
304.307
304.449
304.585
304.713
304.827
304.925
305.005
305.066
305.104
299.705
299.678
299.661
299.644
299.626
299.61
299.599
299.592
299.591
299.595
299.606
299.622
299.643
299.67
299.702
299.738
299.779
299.825
299.874
299.928
299.985
300.046
300.11
300.177
300.246
300.318
300.393
300.469
300.546
300.624
300.703
300.781
300.86
300.938
301.014
301.089
301.163
301.234
301.303
301.37
301.434
301.494
301.552
301.607
301.658
301.707
301.752
301.794
301.833
301.87
301.904
301.935
301.963
301.99
302.014
302.037
302.057
302.076
302.094
302.11
302.125
302.139
302.152
302.164
302.176
302.186
302.196
302.206
302.215
302.224
302.232
302.24
302.248
302.256
302.263
302.27
302.277
302.284
302.291
302.298
302.304
302.311
302.317
302.323
302.329
302.335
302.341
302.347
302.353
302.358
302.363
302.368
302.373
302.378
302.382
302.386
302.39
302.394
302.398
302.401
302.405
302.408
302.411
302.414
302.416
302.419
302.421
302.424
302.426
302.428
302.43
302.432
302.435
302.437
302.439
302.441
302.443
302.445
302.447
302.449
302.451
302.454
302.456
302.458
302.46
302.462
302.464
302.467
302.469
302.471
302.473
302.475
302.476
302.478
302.48
302.481
302.483
302.484
302.485
302.486
302.486
302.487
302.487
302.487
302.487
302.487
302.487
302.486
302.485
302.484
302.483
302.482
302.481
302.479
302.478
302.477
302.476
302.475
302.475
302.475
302.475
302.477
302.48
302.483
302.488
302.495
302.504
302.515
302.528
302.544
302.563
302.586
302.612
302.643
302.679
302.719
302.765
302.817
302.876
302.941
303.014
303.094
303.182
303.278
303.383
303.496
303.617
303.745
303.88
304.02
304.163
304.307
304.449
304.585
304.713
304.827
304.925
305.005
305.066
305.104
299.274
299.29
299.306
299.315
299.32
299.323
299.327
299.334
299.343
299.356
299.373
299.395
299.42
299.449
299.483
299.52
299.562
299.607
299.656
299.708
299.764
299.823
299.884
299.949
300.016
300.086
300.157
300.23
300.304
300.38
300.456
300.531
300.607
300.682
300.756
300.829
300.9
300.969
301.036
301.1
301.162
301.221
301.277
301.33
301.381
301.428
301.472
301.513
301.552
301.587
301.621
301.651
301.68
301.706
301.73
301.752
301.773
301.791
301.809
301.825
301.84
301.854
301.867
301.879
301.89
301.901
301.911
301.921
301.93
301.939
301.947
301.955
301.963
301.971
301.978
301.985
301.992
301.999
302.006
302.013
302.02
302.026
302.033
302.039
302.045
302.051
302.057
302.063
302.069
302.074
302.079
302.085
302.09
302.094
302.099
302.103
302.108
302.112
302.115
302.119
302.122
302.126
302.129
302.132
302.135
302.138
302.14
302.143
302.145
302.148
302.15
302.152
302.155
302.157
302.159
302.162
302.164
302.166
302.169
302.171
302.173
302.176
302.178
302.18
302.183
302.185
302.187
302.19
302.192
302.194
302.196
302.198
302.2
302.202
302.204
302.206
302.207
302.209
302.21
302.211
302.212
302.213
302.213
302.213
302.214
302.214
302.213
302.213
302.212
302.212
302.211
302.21
302.209
302.208
302.207
302.206
302.206
302.206
302.206
302.207
302.208
302.211
302.214
302.219
302.225
302.233
302.243
302.256
302.271
302.288
302.31
302.334
302.363
302.396
302.433
302.476
302.524
302.578
302.639
302.706
302.78
302.862
302.951
303.048
303.153
303.265
303.385
303.511
303.643
303.779
303.918
304.058
304.195
304.327
304.452
304.565
304.665
304.75
304.82
304.876
299.274
299.29
299.306
299.315
299.32
299.323
299.327
299.334
299.343
299.356
299.373
299.395
299.42
299.449
299.483
299.52
299.562
299.607
299.656
299.708
299.764
299.823
299.884
299.949
300.016
300.086
300.157
300.23
300.304
300.38
300.456
300.531
300.607
300.682
300.756
300.829
300.9
300.969
301.036
301.1
301.162
301.221
301.277
301.33
301.381
301.428
301.472
301.513
301.552
301.587
301.621
301.651
301.68
301.706
301.73
301.752
301.773
301.791
301.809
301.825
301.84
301.854
301.867
301.879
301.89
301.901
301.911
301.921
301.93
301.939
301.947
301.955
301.963
301.971
301.978
301.985
301.992
301.999
302.006
302.013
302.02
302.026
302.033
302.039
302.045
302.051
302.057
302.063
302.069
302.074
302.079
302.085
302.09
302.094
302.099
302.103
302.108
302.112
302.115
302.119
302.122
302.126
302.129
302.132
302.135
302.138
302.14
302.143
302.145
302.148
302.15
302.152
302.155
302.157
302.159
302.162
302.164
302.166
302.169
302.171
302.173
302.176
302.178
302.18
302.183
302.185
302.187
302.19
302.192
302.194
302.196
302.198
302.2
302.202
302.204
302.206
302.207
302.209
302.21
302.211
302.212
302.213
302.213
302.213
302.214
302.214
302.213
302.213
302.212
302.212
302.211
302.21
302.209
302.208
302.207
302.206
302.206
302.206
302.206
302.207
302.208
302.211
302.214
302.219
302.225
302.233
302.243
302.256
302.271
302.288
302.31
302.334
302.363
302.395
302.433
302.476
302.524
302.578
302.639
302.706
302.78
302.862
302.951
303.048
303.153
303.265
303.385
303.511
303.643
303.779
303.918
304.058
304.195
304.327
304.452
304.565
304.665
304.75
304.82
304.876
298.978
299.011
299.04
299.062
299.08
299.094
299.109
299.124
299.14
299.159
299.181
299.205
299.233
299.264
299.299
299.337
299.378
299.422
299.47
299.521
299.575
299.632
299.692
299.754
299.818
299.885
299.954
300.024
300.095
300.167
300.24
300.313
300.386
300.458
300.529
300.599
300.668
300.734
300.799
300.861
300.921
300.978
301.032
301.083
301.132
301.178
301.221
301.261
301.298
301.333
301.366
301.396
301.423
301.449
301.472
301.494
301.514
301.533
301.55
301.566
301.581
301.594
301.607
301.619
301.63
301.641
301.651
301.66
301.669
301.678
301.686
301.694
301.702
301.71
301.717
301.724
301.732
301.738
301.745
301.752
301.759
301.765
301.772
301.778
301.784
301.79
301.796
301.802
301.808
301.813
301.819
301.824
301.829
301.834
301.838
301.843
301.847
301.851
301.855
301.859
301.863
301.866
301.869
301.872
301.875
301.878
301.881
301.884
301.887
301.889
301.892
301.894
301.897
301.899
301.902