/*--------------------------------*- C++ -*----------------------------------*\
  =========                 |
  \\      /  F ield         | OpenFOAM: The Open Source CFD Toolbox
   \\    /   O peration     | Website:  https://openfoam.org
    \\  /    A nd           | Version:  8
     \\/     M anipulation  |
\*---------------------------------------------------------------------------*/
FoamFile
{
    version     2.0;
    format      ascii;
    class       volVectorField;
    location    "900";
    object      U;
}
// * * * * * * * * * * * * * * * * * * * * * * * * * * * * * * * * * * * * * //

dimensions      [0 1 -1 0 0 0 0];

internalField   nonuniform List<vector> 
46000
(
(-0.00430075 -3.44216e-07 0.00466658)
(-0.0161615 -6.43717e-07 0.00642319)
(-0.0253653 -1.54699e-09 0.00491958)
(-0.0287214 -2.09941e-08 0.0016252)
(-0.0262308 -2.71656e-07 -0.00169224)
(-0.0191314 -3.03038e-07 -0.00441192)
(-0.00875779 -2.21266e-07 -0.00645707)
(0.00409914 -5.25612e-08 -0.00781921)
(0.0181957 1.32149e-07 -0.00854884)
(0.0330249 3.19639e-07 -0.00886584)
(0.0480559 4.85981e-07 -0.00888692)
(0.0629004 5.79632e-07 -0.00868218)
(0.0772609 5.62805e-07 -0.00830537)
(0.0909061 4.46436e-07 -0.00779843)
(0.103658 2.8043e-07 -0.00719469)
(0.115383 1.16498e-07 -0.00652121)
(0.125982 -1.51375e-08 -0.00580045)
(0.13539 -1.09922e-07 -0.00505155)
(0.143569 -1.74571e-07 -0.00429099)
(0.150504 -2.13811e-07 -0.00353312)
(0.156205 -2.2624e-07 -0.00279046)
(0.160698 -2.08023e-07 -0.00207406)
(0.164026 -1.58527e-07 -0.00139385)
(0.166248 -8.84782e-08 -0.000758999)
(0.167437 -2.23816e-08 -0.000177998)
(0.167675 3.74601e-08 0.000345466)
(0.167065 8.04101e-08 0.000815818)
(0.165672 8.19067e-08 0.00123552)
(0.163587 5.04618e-08 0.00160239)
(0.160896 1.68424e-09 0.00191563)
(0.15769 -5.33437e-08 0.00217561)
(0.154054 -1.12511e-07 0.00238373)
(0.150075 -1.79805e-07 0.00254221)
(0.145835 -2.58075e-07 0.00265389)
(0.141411 -3.4327e-07 0.00272196)
(0.136873 -4.25673e-07 0.00275001)
(0.132289 -4.95227e-07 0.00274191)
(0.127717 -5.46317e-07 0.00270177)
(0.12321 -5.79351e-07 0.00263383)
(0.118814 -5.98335e-07 0.00254231)
(0.114569 -6.08489e-07 0.00243127)
(0.110508 -6.14621e-07 0.00230456)
(0.106657 -6.21817e-07 0.00216585)
(0.103036 -6.36135e-07 0.00201852)
(0.0996619 -6.62829e-07 0.00186564)
(0.0965433 -7.05142e-07 0.00170993)
(0.0936857 -7.63503e-07 0.0015537)
(0.0910903 -8.341e-07 0.00139891)
(0.0887548 -9.08751e-07 0.00124718)
(0.0866741 -9.7856e-07 0.00109991)
(0.0848409 -1.03513e-06 0.000958246)
(0.0832459 -1.06676e-06 0.000823097)
(0.0818786 -1.06099e-06 0.000695123)
(0.0807272 -1.01321e-06 0.000574777)
(0.0797795 -9.2096e-07 0.000462258)
(0.0790227 -7.78982e-07 0.000357524)
(0.0784443 -5.92845e-07 0.00026042)
(0.0780319 -3.80673e-07 0.000170682)
(0.0777738 -1.56534e-07 8.77615e-05)
(0.0776579 7.07854e-08 1.08634e-05)
(0.0776754 2.54654e-07 -5.93945e-05)
(0.0778136 3.71041e-07 -0.000122385)
(0.0780593 4.34645e-07 -0.000178938)
(0.0784025 4.39951e-07 -0.000229786)
(0.0788332 3.96054e-07 -0.000275495)
(0.0793431 3.24453e-07 -0.000316704)
(0.0799246 2.3076e-07 -0.00035401)
(0.0805706 1.16577e-07 -0.00038759)
(0.0812743 1.57973e-08 -0.000417573)
(0.0820305 -4.27897e-08 -0.000444523)
(0.0828339 -8.61894e-08 -0.000468888)
(0.0836786 -1.36861e-07 -0.000490498)
(0.08456 -1.56697e-07 -0.000509359)
(0.0854747 -1.32274e-07 -0.000526166)
(0.0864184 -1.26643e-07 -0.000541348)
(0.0873869 -1.68155e-07 -0.00055461)
(0.088377 -1.99277e-07 -0.000566015)
(0.0893866 -1.99205e-07 -0.000576369)
(0.0904134 -2.26649e-07 -0.000586014)
(0.0914549 -2.96412e-07 -0.000594474)
(0.0925096 -3.47706e-07 -0.000601646)
(0.0935767 -3.60413e-07 -0.000608143)
(0.0946544 -3.77593e-07 -0.000614219)
(0.095741 -4.07524e-07 -0.000619552)
(0.0968359 -4.13369e-07 -0.00062423)
(0.0979385 -3.89953e-07 -0.000628877)
(0.0990482 -3.60379e-07 -0.000633728)
(0.100165 -3.20645e-07 -0.000638521)
(0.101289 -2.59437e-07 -0.000643279)
(0.102421 -1.98353e-07 -0.000648357)
(0.103562 -1.56552e-07 -0.000653788)
(0.104711 -1.1519e-07 -0.000659315)
(0.105869 -5.95607e-08 -0.000664987)
(0.107037 -1.47865e-08 -0.000671104)
(0.108215 -3.66812e-09 -0.000677671)
(0.109403 -1.00854e-08 -0.000684469)
(0.110601 -1.44826e-08 -0.00069151)
(0.111812 -2.79252e-08 -0.000698929)
(0.113034 -6.3204e-08 -0.000706553)
(0.114268 -1.0535e-07 -0.00071403)
(0.115515 -1.35842e-07 -0.000721298)
(0.116774 -1.59029e-07 -0.000728504)
(0.118044 -1.82117e-07 -0.000735574)
(0.119326 -1.93216e-07 -0.000742208)
(0.120618 -1.81221e-07 -0.000748212)
(0.12192 -1.56839e-07 -0.000753478)
(0.123228 -1.33706e-07 -0.000757758)
(0.124541 -1.05257e-07 -0.000760839)
(0.125859 -6.12178e-08 -0.000762871)
(0.127178 -1.21041e-08 -0.000764111)
(0.128498 2.42589e-08 -0.000764393)
(0.129815 4.92928e-08 -0.0007633)
(0.13113 7.31232e-08 -0.000760892)
(0.13244 8.7014e-08 -0.00075769)
(0.133743 7.2427e-08 -0.000753781)
(0.135036 3.56696e-08 -0.000748493)
(0.136318 5.87748e-09 -0.000741397)
(0.137588 -5.37497e-09 -0.000733213)
(0.138845 -1.79461e-08 -0.000725106)
(0.140087 -4.5725e-08 -0.000717232)
(0.141313 -6.9348e-08 -0.000708643)
(0.142522 -6.55121e-08 -0.000698745)
(0.143716 -4.70869e-08 -0.000688239)
(0.144894 -4.82982e-08 -0.000678278)
(0.146055 -7.45351e-08 -0.000669117)
(0.147198 -9.20729e-08 -0.000660132)
(0.148324 -7.31716e-08 -0.000650994)
(0.149435 -3.12703e-08 -0.000642214)
(0.150531 -3.51033e-10 -0.000634385)
(0.151615 6.36041e-09 -0.000627374)
(0.152686 1.24107e-09 -0.000620646)
(0.153747 -5.32558e-09 -0.000614158)
(0.154798 -1.75697e-08 -0.00060851)
(0.15584 -3.62907e-08 -0.000604209)
(0.156874 -4.48728e-08 -0.000601132)
(0.157903 -2.51341e-08 -0.000598879)
(0.158928 1.79875e-08 -0.000597413)
(0.159953 5.86571e-08 -0.000597057)
(0.160978 7.66388e-08 -0.000597969)
(0.162003 7.47825e-08 -0.000599893)
(0.16303 6.97613e-08 -0.000602551)
(0.164062 7.25276e-08 -0.000606068)
(0.165101 8.19401e-08 -0.000610827)
(0.166149 9.1289e-08 -0.000616962)
(0.167208 9.34672e-08 -0.000624209)
(0.16828 8.05918e-08 -0.000632319)
(0.169367 4.77578e-08 -0.000641484)
(0.17047 2.52173e-09 -0.000652191)
(0.171592 -3.25869e-08 -0.000664662)
(0.172733 -3.54719e-08 -0.000678538)
(0.173898 -5.1465e-09 -0.000693177)
(0.175087 3.47177e-08 -0.000708219)
(0.176303 5.66967e-08 -0.000723796)
(0.177545 5.37542e-08 -0.000740193)
(0.178814 4.14399e-08 -0.000757321)
(0.18011 3.6972e-08 -0.00077456)
(0.181435 4.01345e-08 -0.000791084)
(0.182785 3.65598e-08 -0.000806298)
(0.184159 1.71685e-08 -0.000819905)
(0.18555 -9.30455e-09 -0.000831502)
(0.186954 -2.36996e-08 -0.000840136)
(0.188363 -1.48483e-08 -0.000844243)
(0.18977 1.06091e-08 -0.000842006)
(0.191163 3.67634e-08 -0.000831716)
(0.192526 5.62232e-08 -0.000811818)
(0.193839 7.64104e-08 -0.000780612)
(0.195081 1.05038e-07 -0.000735844)
(0.196227 1.31642e-07 -0.000674537)
(0.197247 1.31932e-07 -0.000593344)
(0.198105 9.37146e-08 -0.000489245)
(0.198758 3.46965e-08 -0.000359744)
(0.19916 -8.40123e-09 -0.000201837)
(0.199256 -2.19585e-08 -1.21798e-05)
(0.198993 -8.85796e-09 0.000215349)
(0.198296 2.51937e-08 0.000487826)
(0.19709 6.41727e-08 0.000809297)
(0.195291 1.02849e-07 0.00118323)
(0.19281 1.49937e-07 0.001614)
(0.189553 2.10943e-07 0.00210583)
(0.18542 2.72987e-07 0.00266081)
(0.180308 3.22109e-07 0.00327863)
(0.174118 3.64531e-07 0.00395789)
(0.166753 3.98661e-07 0.00469632)
(0.158122 3.8369e-07 0.00548868)
(0.148148 2.98622e-07 0.00632509)
(0.136773 2.15393e-07 0.00719098)
(0.123969 2.06346e-07 0.0080663)
(0.109743 2.05473e-07 0.00892299)
(0.094151 1.33624e-07 0.00972305)
(0.0773208 9.56163e-08 0.0104164)
(0.0594714 1.76724e-07 0.0109337)
(0.0409375 2.13589e-07 0.0111758)
(0.0222494 1.49758e-07 0.0110021)
(0.00414338 1.42361e-07 0.010152)
(-0.012402 6.426e-08 0.00819146)
(-0.025305 -1.10875e-07 0.00495787)
(-0.0329623 -4.19041e-08 0.000447569)
(-0.032712 -4.71795e-08 -0.0048208)
(-0.0236024 -5.35444e-09 -0.00875174)
(-0.00738253 1.00921e-07 -0.00784103)
(-0.00430656 -3.44189e-07 0.00467408)
(-0.0161647 -6.43744e-07 0.00643183)
(-0.025362 -1.54705e-09 0.00492332)
(-0.02872 -2.09941e-08 0.00162659)
(-0.026232 -2.71656e-07 -0.00169022)
(-0.0191328 -3.03043e-07 -0.00440879)
(-0.00875819 -2.21272e-07 -0.0064537)
(0.00410025 -5.25623e-08 -0.00781688)
(0.0181986 1.32149e-07 -0.00854884)
(0.03303 3.19629e-07 -0.00886928)
(0.0480624 4.8595e-07 -0.00889434)
(0.062907 5.79583e-07 -0.00869306)
(0.0772658 5.62755e-07 -0.00831801)
(0.0909084 4.46403e-07 -0.00781054)
(0.103658 2.80415e-07 -0.0072042)
(0.11538 1.16496e-07 -0.00652697)
(0.125979 -1.51375e-08 -0.00580243)
(0.135387 -1.09924e-07 -0.00505051)
(0.143567 -1.74575e-07 -0.00428799)
(0.150504 -2.13815e-07 -0.0035292)
(0.156206 -2.26244e-07 -0.00278654)
(0.1607 -2.08025e-07 -0.00207101)
(0.164029 -1.58526e-07 -0.00139245)
(0.166252 -8.84771e-08 -0.000759846)
(0.167441 -2.2381e-08 -0.000181345)
(0.167679 3.74593e-08 0.000339858)
(0.167069 8.04082e-08 0.000808634)
(0.165674 8.19048e-08 0.00122773)
(0.163587 5.04608e-08 0.00159505)
(0.160896 1.68422e-09 0.00190969)
(0.157688 -5.33433e-08 0.00217178)
(0.154052 -1.12511e-07 0.0023824)
(0.150074 -1.79806e-07 0.00254346)
(0.145834 -2.58076e-07 0.0026575)
(0.14141 -3.43273e-07 0.00272757)
(0.136872 -4.25678e-07 0.00275711)
(0.132288 -4.95233e-07 0.00274996)
(0.127716 -5.46324e-07 0.00271024)
(0.12321 -5.79358e-07 0.00264222)
(0.118815 -5.98341e-07 0.0025502)
(0.11457 -6.08494e-07 0.00243839)
(0.110509 -6.14625e-07 0.00231083)
(0.106658 -6.2182e-07 0.00217136)
(0.103038 -6.36137e-07 0.00202354)
(0.0996636 -6.62831e-07 0.00187058)
(0.0965446 -7.05144e-07 0.00171525)
(0.0936864 -7.63507e-07 0.00155985)
(0.0910904 -8.34109e-07 0.00140624)
(0.0887543 -9.08765e-07 0.0012559)
(0.0866733 -9.78579e-07 0.00111002)
(0.0848401 -1.03515e-06 0.000969512)
(0.0832457 -1.06678e-06 0.000835023)
(0.0818792 -1.06101e-06 0.000707061)
(0.0807288 -1.01323e-06 0.000585994)
(0.0797821 -9.20973e-07 0.000471991)
(0.0790264 -7.78988e-07 0.00036512)
(0.0784488 -5.92844e-07 0.000265462)
(0.078037 -3.80669e-07 0.00017298)
(0.0777792 -1.56532e-07 8.73104e-05)
(0.0776633 7.07836e-08 7.8586e-06)
(0.0776806 2.54642e-07 -6.45857e-05)
(0.0778179 3.71019e-07 -0.000129279)
(0.0780625 4.34618e-07 -0.000186933)
(0.0784045 4.39925e-07 -0.000238267)
(0.0788342 3.96032e-07 -0.000283981)
(0.0793433 3.24437e-07 -0.000324724)
(0.0799242 2.3075e-07 -0.000361006)
(0.0805698 1.16574e-07 -0.000393265)
(0.0812738 1.5797e-08 -0.000422059)
(0.0820304 -4.2789e-08 -0.000447872)
(0.0828338 -8.61885e-08 -0.000470852)
(0.0836788 -1.36861e-07 -0.000491182)
(0.0845611 -1.56697e-07 -0.000509429)
(0.0854764 -1.32273e-07 -0.000526003)
(0.0864198 -1.26643e-07 -0.000540731)
(0.0873878 -1.68155e-07 -0.000553583)
(0.088378 -1.99277e-07 -0.000565213)
(0.0893879 -1.99203e-07 -0.000576136)
(0.0904141 -2.26647e-07 -0.000586)
(0.0914549 -2.96411e-07 -0.000594381)
(0.0925098 -3.47706e-07 -0.000601642)
(0.0935774 -3.60412e-07 -0.000608364)
(0.0946553 -3.77591e-07 -0.000614519)
(0.0957419 -4.07523e-07 -0.000619849)
(0.0968368 -4.13367e-07 -0.000624571)
(0.0979396 -3.89952e-07 -0.000629167)
(0.0990494 -3.60378e-07 -0.000633851)
(0.100166 -3.20643e-07 -0.000638632)
(0.101291 -2.59435e-07 -0.000643577)
(0.102423 -1.98351e-07 -0.000648717)
(0.103564 -1.56551e-07 -0.000653978)
(0.104713 -1.15189e-07 -0.00065943)
(0.105871 -5.95601e-08 -0.000665328)
(0.107039 -1.47863e-08 -0.000671758)
(0.108216 -3.66808e-09 -0.000678511)
(0.109403 -1.00853e-08 -0.000685418)
(0.110602 -1.44824e-08 -0.000692551)
(0.111812 -2.79249e-08 -0.000699976)
(0.113034 -6.32035e-08 -0.000707546)
(0.114268 -1.05349e-07 -0.000715075)
(0.115515 -1.35841e-07 -0.000722512)
(0.116774 -1.59027e-07 -0.000729835)
(0.118045 -1.82115e-07 -0.000736915)
(0.119327 -1.93215e-07 -0.000743568)
(0.12062 -1.81219e-07 -0.000749604)
(0.121921 -1.56837e-07 -0.000754768)
(0.123229 -1.33705e-07 -0.000758829)
(0.124543 -1.05256e-07 -0.000761808)
(0.12586 -6.12172e-08 -0.000763918)
(0.12718 -1.2104e-08 -0.000765179)
(0.128499 2.42587e-08 -0.000765309)
(0.129816 4.92924e-08 -0.000764131)
(0.131131 7.31225e-08 -0.000761863)
(0.132441 8.70131e-08 -0.00075874)
(0.133744 7.24263e-08 -0.00075454)
(0.135037 3.56694e-08 -0.000748859)
(0.136319 5.87745e-09 -0.000741827)
(0.137589 -5.37493e-09 -0.00073416)
(0.138846 -1.7946e-08 -0.00072634)
(0.140087 -4.57248e-08 -0.000718072)
(0.141313 -6.9348e-08 -0.000708819)
(0.142523 -6.5512e-08 -0.000698693)
(0.143718 -4.70867e-08 -0.000688471)
(0.144897 -4.82977e-08 -0.000678753)
(0.146057 -7.45344e-08 -0.000669451)
(0.147199 -9.20724e-08 -0.000660203)
(0.148324 -7.31714e-08 -0.000651031)
(0.149435 -3.12702e-08 -0.000642346)
(0.150532 -3.51033e-10 -0.000634418)
(0.151615 6.3604e-09 -0.000627129)
(0.152687 1.24107e-09 -0.000620297)
(0.153748 -5.32555e-09 -0.00061404)
(0.154799 -1.75696e-08 -0.000608684)
(0.155841 -3.62905e-08 -0.000604424)
(0.156874 -4.48727e-08 -0.000601208)
(0.157903 -2.5134e-08 -0.000598927)
(0.158929 1.79875e-08 -0.000597565)
(0.159954 5.86569e-08 -0.000597161)
(0.160979 7.66385e-08 -0.000597721)
(0.162004 7.47822e-08 -0.00059929)
(0.163031 6.9761e-08 -0.000602017)
(0.164063 7.25273e-08 -0.000606034)
(0.165101 8.19398e-08 -0.00061124)
(0.166149 9.12889e-08 -0.00061732)
(0.167209 9.34672e-08 -0.000624097)
(0.168281 8.05917e-08 -0.000631843)
(0.169368 4.77576e-08 -0.000641147)
(0.170471 2.52171e-09 -0.00065239)
(0.171592 -3.25867e-08 -0.000665348)
(0.172733 -3.54719e-08 -0.000679322)
(0.173898 -5.14649e-09 -0.000693698)
(0.175088 3.47176e-08 -0.000708385)
(0.176304 5.66965e-08 -0.000723722)
(0.177546 5.3754e-08 -0.00073997)
(0.178814 4.14399e-08 -0.000756884)
(0.180111 3.6972e-08 -0.000773763)
(0.181435 4.01345e-08 -0.000789888)
(0.182786 3.65599e-08 -0.000804864)
(0.18416 1.71685e-08 -0.00081848)
(0.18555 -9.30458e-09 -0.000830213)
(0.186953 -2.36997e-08 -0.000838903)
(0.188363 -1.48484e-08 -0.000842928)
(0.189771 1.06092e-08 -0.000840687)
(0.191165 3.67633e-08 -0.000830849)
(0.192528 5.62228e-08 -0.000812077)
(0.193841 7.64095e-08 -0.000782403)
(0.195083 1.05036e-07 -0.000738851)
(0.196229 1.3164e-07 -0.000677773)
(0.197249 1.3193e-07 -0.000595772)
(0.198106 9.37136e-08 -0.00049034)
(0.198758 3.46964e-08 -0.000359434)
(0.199158 -8.40128e-09 -0.000200099)
(0.199254 -2.19586e-08 -9.1493e-06)
(0.198992 -8.858e-09 0.000218894)
(0.198296 2.51938e-08 0.000490619)
(0.19709 6.41729e-08 0.000810619)
(0.195292 1.02849e-07 0.00118355)
(0.192813 1.49936e-07 0.00161402)
(0.189557 2.1094e-07 0.00210512)
(0.185423 2.72983e-07 0.00265815)
(0.180311 3.22104e-07 0.00327367)
(0.17412 3.64525e-07 0.00395188)
(0.166754 3.98655e-07 0.00469072)
(0.158122 3.83685e-07 0.00548426)
(0.148146 2.98621e-07 0.00632256)
(0.136771 2.15394e-07 0.00719112)
(0.123968 2.06346e-07 0.00806867)
(0.109742 2.05474e-07 0.00892608)
(0.09415 1.33625e-07 0.00972641)
(0.0773211 9.56171e-08 0.0104204)
(0.0594731 1.76724e-07 0.0109374)
(0.0409391 2.13588e-07 0.0111783)
(0.022251 1.49758e-07 0.0110035)
(0.00414535 1.42361e-07 0.0101525)
(-0.0124008 6.42598e-08 0.00819201)
(-0.0253048 -1.10875e-07 0.00496101)
(-0.0329645 -4.19033e-08 0.000452129)
(-0.032717 -4.71803e-08 -0.00481413)
(-0.0236071 -5.35476e-09 -0.00874358)
(-0.00738491 1.00928e-07 -0.00783552)
(-0.00553959 6.81271e-07 0.0166159)
(-0.014608 3.29279e-07 0.0163419)
(-0.0159589 2.85304e-07 0.00783934)
(-0.0119779 1.84535e-07 -0.00155586)
(-0.00393873 6.11354e-08 -0.00953999)
(0.0071214 5.37537e-09 -0.015589)
(0.0202294 -2.71282e-08 -0.0198262)
(0.0347809 -4.38718e-08 -0.0225581)
(0.0502015 -5.89133e-08 -0.0240814)
(0.0660622 -6.64633e-08 -0.0247109)
(0.081977 -5.92547e-08 -0.0246554)
(0.0976396 -3.46986e-08 -0.0240697)
(0.112802 3.35446e-09 -0.0230716)
(0.127264 4.57285e-08 -0.0217537)
(0.140865 8.02123e-08 -0.0201908)
(0.153482 9.63948e-08 -0.0184453)
(0.165019 9.0634e-08 -0.0165702)
(0.175407 6.64991e-08 -0.0146115)
(0.184602 3.17466e-08 -0.0126099)
(0.19258 -6.34689e-09 -0.0106012)
(0.199339 -4.24895e-08 -0.0086173)
(0.204892 -7.26253e-08 -0.00668661)
(0.209268 -9.27293e-08 -0.00483437)
(0.212511 -9.88186e-08 -0.00308314)
(0.214676 -8.79448e-08 -0.00145309)
(0.215821 -6.55661e-08 4.11295e-05)
(0.216022 -3.68876e-08 0.00139884)
(0.215364 -3.88801e-09 0.00262142)
(0.21393 2.9268e-08 0.00370348)
(0.211808 5.94068e-08 0.00464274)
(0.209086 8.35199e-08 0.00543934)
(0.205852 9.88038e-08 0.00609565)
(0.202191 1.03517e-07 0.00661607)
(0.198187 9.80736e-08 0.00700672)
(0.19392 8.5054e-08 0.00727512)
(0.189465 6.76186e-08 0.00742999)
(0.184894 4.82704e-08 0.007481)
(0.180271 2.85254e-08 0.00743847)
(0.175656 8.973e-09 0.00731315)
(0.171103 -9.64173e-09 0.00711591)
(0.166657 -2.60389e-08 0.00685751)
(0.16236 -3.85954e-08 0.0065484)
(0.158244 -4.59997e-08 0.00619857)
(0.154338 -4.80104e-08 0.00581741)
(0.150664 -4.51701e-08 0.00541362)
(0.147237 -3.86467e-08 0.00499509)
(0.144069 -3.07389e-08 0.00456888)
(0.141167 -2.43979e-08 0.00414121)
(0.138532 -2.15101e-08 0.00371746)
(0.136164 -2.31243e-08 0.00330221)
(0.134059 -3.12475e-08 0.00289928)
(0.132209 -4.57264e-08 0.00251173)
(0.130607 -6.12642e-08 0.00214187)
(0.129243 -7.30238e-08 0.00179134)
(0.128104 -7.94588e-08 0.00146119)
(0.127178 -7.68151e-08 0.0011519)
(0.126454 -6.10761e-08 0.00086348)
(0.125917 -3.42613e-08 0.000595481)
(0.125555 -7.22973e-10 0.000347122)
(0.125355 3.43939e-08 0.000117152)
(0.125304 6.86567e-08 -9.42539e-05)
(0.12539 9.99309e-08 -0.000286414)
(0.125601 1.27225e-07 -0.000460374)
(0.125927 1.46524e-07 -0.000617641)
(0.126357 1.49704e-07 -0.00075967)
(0.12688 1.46461e-07 -0.000887755)
(0.12749 1.50539e-07 -0.00100299)
(0.128176 1.49041e-07 -0.00110645)
(0.128931 1.28237e-07 -0.00119924)
(0.129748 1.11639e-07 -0.00128226)
(0.130621 1.20358e-07 -0.00135624)
(0.131543 1.27648e-07 -0.00142198)
(0.132508 1.08379e-07 -0.00148034)
(0.133512 8.90926e-08 -0.00153198)
(0.134549 9.5697e-08 -0.00157742)
(0.135616 1.04039e-07 -0.00161735)
(0.136708 8.91542e-08 -0.00165247)
(0.137821 6.8791e-08 -0.00168321)
(0.138954 6.2093e-08 -0.00171)
(0.140103 5.81523e-08 -0.00173343)
(0.141266 4.85625e-08 -0.00175395)
(0.142442 4.17586e-08 -0.00177176)
(0.143628 3.48491e-08 -0.00178727)
(0.144823 1.73505e-08 -0.00180121)
(0.146026 3.26216e-09 -0.00181405)
(0.147236 1.51258e-08 -0.00182592)
(0.148453 4.10443e-08 -0.0018372)
(0.149676 4.9749e-08 -0.00184857)
(0.150906 4.20131e-08 -0.0018604)
(0.152142 4.7301e-08 -0.00187266)
(0.153386 7.3645e-08 -0.00188544)
(0.154637 9.80832e-08 -0.00189914)
(0.155897 1.05475e-07 -0.00191393)
(0.157164 1.04528e-07 -0.0019296)
(0.158441 1.03539e-07 -0.00194609)
(0.159728 9.80373e-08 -0.00196355)
(0.161024 8.68006e-08 -0.00198184)
(0.162332 7.71385e-08 -0.00200048)
(0.16365 6.89925e-08 -0.00201919)
(0.16498 5.28582e-08 -0.00203805)
(0.166321 2.89212e-08 -0.00205705)
(0.167674 1.11572e-08 -0.0020757)
(0.169037 6.26956e-09 -0.00209344)
(0.170411 4.15129e-09 -0.00211001)
(0.171794 -3.34997e-09 -0.0021251)
(0.173185 -8.03354e-09 -0.00213815)
(0.174582 7.99472e-10 -0.00214858)
(0.175985 1.94193e-08 -0.00215621)
(0.177389 3.68978e-08 -0.00216108)
(0.178796 5.00388e-08 -0.00216306)
(0.180201 6.03218e-08 -0.00216194)
(0.181604 6.38349e-08 -0.00215778)
(0.183002 5.71687e-08 -0.00215073)
(0.184394 4.83325e-08 -0.00214065)
(0.185778 4.76395e-08 -0.00212719)
(0.187152 4.90915e-08 -0.00211048)
(0.188513 3.60645e-08 -0.0020912)
(0.18986 9.12939e-09 -0.00206996)
(0.191193 -7.07937e-09 -0.00204673)
(0.192509 5.30145e-09 -0.00202143)
(0.193808 2.98303e-08 -0.0019946)
(0.195089 3.34039e-08 -0.00196726)
(0.196352 7.43819e-09 -0.00193996)
(0.197597 -2.28723e-08 -0.00191253)
(0.198823 -3.20203e-08 -0.00188489)
(0.200031 -2.24372e-08 -0.00185762)
(0.201219 -1.14739e-08 -0.0018316)
(0.202391 -1.89261e-09 -0.00180714)
(0.203546 1.8834e-08 -0.00178391)
(0.204686 5.14737e-08 -0.00176179)
(0.205812 7.33427e-08 -0.00174128)
(0.206925 6.24698e-08 -0.00172315)
(0.208026 2.58803e-08 -0.00170765)
(0.209116 -6.44955e-09 -0.00169464)
(0.210197 -1.4289e-08 -0.0016841)
(0.211271 -4.90386e-09 -0.00167633)
(0.212339 2.70115e-09 -0.00167158)
(0.213403 2.15061e-09 -0.00166962)
(0.214465 1.77236e-09 -0.00167005)
(0.215527 7.57048e-09 -0.00167281)
(0.216589 1.39944e-08 -0.00167833)
(0.217653 1.35363e-08 -0.00168705)
(0.218723 8.05288e-09 -0.001699)
(0.219799 4.46631e-09 -0.00171395)
(0.220884 2.38857e-09 -0.00173189)
(0.22198 -6.84329e-09 -0.00175314)
(0.223088 -2.67315e-08 -0.00177804)
(0.224211 -4.65965e-08 -0.00180653)
(0.225349 -5.11126e-08 -0.00183819)
(0.226506 -3.80953e-08 -0.00187254)
(0.227684 -2.24241e-08 -0.00190929)
(0.228883 -2.01341e-08 -0.00194827)
(0.230105 -3.08705e-08 -0.00198917)
(0.23135 -3.90222e-08 -0.00203145)
(0.232619 -3.2052e-08 -0.00207436)
(0.233912 -1.50416e-08 -0.00211693)
(0.235228 -4.85124e-09 -0.00215793)
(0.236566 -1.09943e-08 -0.0021957)
(0.23792 -2.56592e-08 -0.0022282)
(0.239287 -3.45841e-08 -0.00225293)
(0.24066 -3.50086e-08 -0.00226702)
(0.242031 -3.80887e-08 -0.00226704)
(0.243391 -5.3185e-08 -0.00224903)
(0.244725 -7.46659e-08 -0.0022085)
(0.246017 -8.72895e-08 -0.00214044)
(0.247247 -8.13132e-08 -0.00203918)
(0.24839 -5.89589e-08 -0.00189816)
(0.24942 -2.95539e-08 -0.00170996)
(0.250303 -3.46916e-09 -0.00146662)
(0.251001 1.17772e-08 -0.00115995)
(0.251469 1.59483e-08 -0.000781261)
(0.251655 1.55024e-08 -0.000321183)
(0.251505 1.69427e-08 0.000230018)
(0.25095 1.19021e-08 0.000886207)
(0.249922 -1.35349e-08 0.00166183)
(0.248342 -4.91677e-08 0.00256772)
(0.24613 -6.29552e-08 0.00361444)
(0.243196 -3.89803e-08 0.00481153)
(0.239446 -6.04955e-09 0.0061659)
(0.234783 -4.42642e-09 0.00768129)
(0.229106 -2.60435e-08 0.00935871)
(0.22232 -2.06651e-08 0.0111958)
(0.214331 2.97461e-08 0.0131846)
(0.205053 8.55025e-08 0.0153084)
(0.194415 1.17629e-07 0.0175409)
(0.182362 1.41779e-07 0.0198451)
(0.16887 1.50789e-07 0.0221701)
(0.153946 1.02079e-07 0.0244463)
(0.137646 1.60402e-08 0.02658)
(0.120086 -4.27047e-08 0.028447)
(0.101459 -9.08497e-08 0.0298808)
(0.0820561 -1.36445e-07 0.0306554)
(0.0623005 -9.67041e-08 0.0304605)
(0.0427753 -3.01784e-08 0.0288457)
(0.0241898 -1.09895e-08 0.0251585)
(0.00753058 8.87671e-08 0.0187422)
(-0.00611463 7.91218e-08 0.00894814)
(-0.0149549 4.54137e-08 -0.00414239)
(-0.0173563 9.69225e-08 -0.0184265)
(-0.00811987 -2.65295e-07 -0.0250541)
(-0.00554634 6.81157e-07 0.0166198)
(-0.014613 3.29265e-07 0.0163464)
(-0.0159596 2.85306e-07 0.00784066)
(-0.0119773 1.84536e-07 -0.0015559)
(-0.00393812 6.11357e-08 -0.00953981)
(0.00712185 5.3754e-09 -0.0155882)
(0.0202297 -2.71284e-08 -0.0198249)
(0.0347811 -4.38722e-08 -0.0225565)
(0.0502016 -5.89138e-08 -0.02408)
(0.0660627 -6.64639e-08 -0.0247101)
(0.0819779 -5.92552e-08 -0.0246556)
(0.0976412 -3.46988e-08 -0.024071)
(0.112804 3.35447e-09 -0.0230739)
(0.127266 4.57285e-08 -0.0217565)
(0.140868 8.02121e-08 -0.0201936)
(0.153485 9.63945e-08 -0.0184475)
(0.165021 9.06337e-08 -0.0165716)
(0.175408 6.64989e-08 -0.0146121)
(0.184603 3.17465e-08 -0.0126098)
(0.192581 -6.34688e-09 -0.0106007)
(0.19934 -4.24895e-08 -0.00861653)
(0.204893 -7.26253e-08 -0.00668582)
(0.209269 -9.27292e-08 -0.00483379)
(0.212512 -9.88185e-08 -0.00308298)
(0.214676 -8.79445e-08 -0.00145349)
(0.215822 -6.5566e-08 4.01087e-05)
(0.216024 -3.68874e-08 0.00139724)
(0.215365 -3.88799e-09 0.00261944)
(0.213931 2.92677e-08 0.00370135)
(0.211809 5.94063e-08 0.00464076)
(0.209088 8.35193e-08 0.00543776)
(0.205853 9.88031e-08 0.00609462)
(0.202192 1.03516e-07 0.00661566)
(0.198188 9.80731e-08 0.0070069)
(0.193921 8.50536e-08 0.00727581)
(0.189466 6.76184e-08 0.00743111)
(0.184894 4.82703e-08 0.00748244)
(0.180271 2.85254e-08 0.00744013)
(0.175657 8.97299e-09 0.00731494)
(0.171103 -9.64171e-09 0.00711773)
(0.166658 -2.60388e-08 0.00685927)
(0.16236 -3.85953e-08 0.00655003)
(0.158245 -4.59996e-08 0.00620003)
(0.15434 -4.80103e-08 0.0058187)
(0.150665 -4.517e-08 0.00541476)
(0.147239 -3.86466e-08 0.00499614)
(0.144071 -3.07388e-08 0.00456991)
(0.141168 -2.43979e-08 0.00414232)
(0.138533 -2.15101e-08 0.00371874)
(0.136165 -2.31243e-08 0.00330375)
(0.134059 -3.12475e-08 0.00290111)
(0.13221 -4.57265e-08 0.00251382)
(0.130608 -6.12643e-08 0.00214415)
(0.129243 -7.30239e-08 0.00179368)
(0.128104 -7.94589e-08 0.0014634)
(0.127179 -7.68152e-08 0.00115382)
(0.126454 -6.10761e-08 0.00086499)
(0.125918 -3.42613e-08 0.000596476)
(0.125556 -7.22971e-10 0.000347521)
(0.125357 3.43938e-08 0.000116935)
(0.125306 6.86564e-08 -9.50276e-05)
(0.125392 9.99305e-08 -0.000287669)
(0.125603 1.27224e-07 -0.000462043)
(0.125928 1.46524e-07 -0.000619589)
(0.126358 1.49703e-07 -0.00076172)
(0.126882 1.46461e-07 -0.000889767)
(0.127491 1.50539e-07 -0.00100488)
(0.128177 1.4904e-07 -0.00110814)
(0.128932 1.28236e-07 -0.00120062)
(0.12975 1.11639e-07 -0.00128325)
(0.130622 1.20357e-07 -0.00135689)
(0.131544 1.27647e-07 -0.00142241)
(0.13251 1.08379e-07 -0.00148055)
(0.133514 8.90922e-08 -0.0015319)
(0.134551 9.56966e-08 -0.00157717)
(0.135617 1.04038e-07 -0.00161716)
(0.136708 8.91539e-08 -0.00165241)
(0.137822 6.87908e-08 -0.00168316)
(0.138955 6.20928e-08 -0.0017099)
(0.140104 5.81521e-08 -0.00173338)
(0.141267 4.85623e-08 -0.00175402)
(0.142443 4.17585e-08 -0.00177191)
(0.143629 3.4849e-08 -0.0017874)
(0.144824 1.73505e-08 -0.00180124)
(0.146027 3.26215e-09 -0.00181399)
(0.147237 1.51258e-08 -0.00182594)
(0.148454 4.10441e-08 -0.00183742)
(0.149677 4.97489e-08 -0.00184884)
(0.150907 4.2013e-08 -0.0018605)
(0.152144 4.73008e-08 -0.00187264)
(0.153387 7.36447e-08 -0.00188554)
(0.154639 9.80828e-08 -0.00189944)
(0.155898 1.05474e-07 -0.00191426)
(0.157165 1.04528e-07 -0.00192985)
(0.158442 1.03539e-07 -0.00194632)
(0.159728 9.8037e-08 -0.00196378)
(0.161025 8.68004e-08 -0.00198202)
(0.162332 7.71383e-08 -0.00200062)
(0.163651 6.89923e-08 -0.00201941)
(0.164981 5.2858e-08 -0.00203836)
(0.166322 2.89211e-08 -0.00205732)
(0.167675 1.11572e-08 -0.00207588)
(0.169038 6.26955e-09 -0.00209366)
(0.170412 4.15128e-09 -0.00211033)
(0.171795 -3.34997e-09 -0.00212538)
(0.173186 -8.03352e-09 -0.00213823)
(0.174583 7.9947e-10 -0.00214855)
(0.175985 1.94192e-08 -0.00215631)
(0.17739 3.68977e-08 -0.00216135)
(0.178797 5.00387e-08 -0.00216334)
(0.180202 6.03216e-08 -0.0021621)
(0.181605 6.38348e-08 -0.00215788)
(0.183003 5.71686e-08 -0.00215082)
(0.184395 4.83324e-08 -0.0021407)
(0.185779 4.76393e-08 -0.00212718)
(0.187153 4.90913e-08 -0.00211048)
(0.188514 3.60644e-08 -0.00209128)
(0.189861 9.12937e-09 -0.00207003)
(0.191193 -7.07935e-09 -0.0020467)
(0.192509 5.30144e-09 -0.00202139)
(0.193808 2.98302e-08 -0.00199472)
(0.19509 3.34038e-08 -0.00196752)
(0.196353 7.43817e-09 -0.00194014)
(0.197598 -2.28722e-08 -0.0019125)
(0.198824 -3.20203e-08 -0.00188472)
(0.200031 -2.24371e-08 -0.00185747)
(0.20122 -1.14738e-08 -0.00183144)
(0.202391 -1.89261e-09 -0.00180686)
(0.203547 1.88339e-08 -0.00178361)
(0.204687 5.14736e-08 -0.00176175)
(0.205813 7.33425e-08 -0.00174165)
(0.206926 6.24696e-08 -0.00172367)
(0.208027 2.58802e-08 -0.00170796)
(0.209117 -6.44954e-09 -0.00169461)
(0.210197 -1.4289e-08 -0.00168391)
(0.211271 -4.90386e-09 -0.00167619)
(0.212339 2.70115e-09 -0.00167142)
(0.213404 2.15061e-09 -0.00166927)
(0.214467 1.77236e-09 -0.00166952)
(0.215528 7.57046e-09 -0.00167236)
(0.216589 1.39944e-08 -0.00167815)
(0.217653 1.35362e-08 -0.00168707)
(0.218723 8.05287e-09 -0.00169895)
(0.219799 4.46631e-09 -0.00171365)
(0.220885 2.38857e-09 -0.00173141)
(0.221981 -6.84328e-09 -0.00175272)
(0.223089 -2.67315e-08 -0.00177783)
(0.224211 -4.65964e-08 -0.00180652)
(0.225349 -5.11125e-08 -0.00183827)
(0.226506 -3.80952e-08 -0.00187258)
(0.227684 -2.24241e-08 -0.00190919)
(0.228884 -2.0134e-08 -0.00194798)
(0.230106 -3.08704e-08 -0.00198873)
(0.231351 -3.90222e-08 -0.00203097)
(0.23262 -3.2052e-08 -0.00207396)
(0.233913 -1.50416e-08 -0.00211664)
(0.235229 -4.85123e-09 -0.00215768)
(0.236567 -1.09943e-08 -0.00219543)
(0.237921 -2.56591e-08 -0.00222791)
(0.239287 -3.4584e-08 -0.00225266)
(0.24066 -3.50086e-08 -0.00226672)
(0.242032 -3.80887e-08 -0.00226664)
(0.243392 -5.3185e-08 -0.00224849)
(0.244726 -7.46658e-08 -0.00220796)
(0.246017 -8.72895e-08 -0.00214017)
(0.247247 -8.13131e-08 -0.00203934)
(0.24839 -5.89589e-08 -0.00189869)
(0.249421 -2.95539e-08 -0.00171063)
(0.250305 -3.46915e-09 -0.00146724)
(0.251003 1.17771e-08 -0.00116049)
(0.25147 1.59482e-08 -0.000781701)
(0.251656 1.55024e-08 -0.000321396)
(0.251505 1.69427e-08 0.000230144)
(0.25095 1.1902e-08 0.000886607)
(0.249921 -1.35349e-08 0.00166235)
(0.248342 -4.91677e-08 0.00256833)
(0.24613 -6.29552e-08 0.00361517)
(0.243197 -3.89802e-08 0.00481214)
(0.239447 -6.04954e-09 0.00616593)
(0.234783 -4.42641e-09 0.00768061)
(0.229106 -2.60435e-08 0.00935772)
(0.222321 -2.0665e-08 0.0111949)
(0.214332 2.97459e-08 0.0131835)
(0.205054 8.5502e-08 0.0153069)
(0.194416 1.17629e-07 0.0175393)
(0.182363 1.41778e-07 0.019844)
(0.168871 1.50788e-07 0.0221695)
(0.153946 1.02078e-07 0.024446)
(0.137646 1.60402e-08 0.0265805)
(0.120086 -4.27046e-08 0.0284486)
(0.101459 -9.08494e-08 0.0298832)
(0.0820562 -1.36445e-07 0.0306579)
(0.0623008 -9.67039e-08 0.0304623)
(0.0427761 -3.01783e-08 0.0288461)
(0.0241915 -1.09894e-08 0.025158)
(0.00753228 8.87663e-08 0.018741)
(-0.0061144 7.9121e-08 0.0089469)
(-0.0149566 4.54135e-08 -0.00414151)
(-0.0173607 9.69204e-08 -0.0184227)
(-0.00812465 -2.65306e-07 -0.0250475)
(-0.00397743 -2.33298e-07 0.0249402)
(-0.00599253 -1.58582e-08 0.0174206)
(-0.00129967 8.93721e-08 0.0029677)
(0.00652593 8.38398e-08 -0.0100942)
(0.0165811 3.45356e-08 -0.0205099)
(0.0282898 -1.20331e-09 -0.0283169)
(0.0412476 -1.01971e-08 -0.0338319)
(0.05512 2.38572e-08 -0.0374428)
(0.0695911 8.37355e-08 -0.0395016)
(0.0843712 1.56322e-07 -0.0403315)
(0.0991848 2.30595e-07 -0.0401846)
(0.113794 2.89917e-07 -0.0392597)
(0.127992 3.14949e-07 -0.0377146)
(0.141608 2.94296e-07 -0.0356775)
(0.154496 2.31315e-07 -0.0332553)
(0.16654 1.4287e-07 -0.0305389)
(0.177646 5.11543e-08 -0.0276075)
(0.187744 -2.60956e-08 -0.0245307)
(0.196784 -8.07292e-08 -0.021371)
(0.204735 -1.10957e-07 -0.0181841)
(0.211584 -1.17369e-07 -0.0150201)
(0.217334 -9.89174e-08 -0.0119236)
(0.222001 -5.635e-08 -0.00893428)
(0.225617 4.90015e-09 -0.0060867)
(0.228221 7.35393e-08 -0.00341005)
(0.229863 1.35006e-07 -0.000927726)
(0.230601 1.77693e-07 0.00134513)