/*--------------------------------*- C++ -*----------------------------------*\
  =========                 |
  \\      /  F ield         | OpenFOAM: The Open Source CFD Toolbox
   \\    /   O peration     | Website:  https://openfoam.org
    \\  /    A nd           | Version:  8
     \\/     M anipulation  |
\*---------------------------------------------------------------------------*/
FoamFile
{
    version     2.0;
    format      ascii;
    class       volScalarField;
    location    "2500";
    object      alphat;
}
// * * * * * * * * * * * * * * * * * * * * * * * * * * * * * * * * * * * * * //

dimensions      [1 -1 -1 0 0 0 0];

internalField   nonuniform List<scalar> 
48000
(
8.50561e-05
7.4104e-05
9.17273e-05
0.000104938
0.00011589
0.000125084
0.000133046
0.000140217
0.000146811
0.000152859
0.000158488
0.000163762
0.000168728
0.000173425
0.000177883
0.000182125
0.000186169
0.000190032
0.000193724
0.000197258
0.000200641
0.00020388
0.000206983
0.000209954
0.000212798
0.000215521
0.000218125
0.000220615
0.000222995
0.000225266
0.000227433
0.000229499
0.000231465
0.000233336
0.000235113
0.0002368
0.000238399
0.000239913
0.000241343
0.000242694
0.000243966
0.000245163
0.000246287
0.000247339
0.000248323
0.00024924
0.000250101
0.000250903
0.000251646
0.000252331
0.00025296
0.000253534
0.000254056
0.000254528
0.000254951
0.000255328
0.00025566
0.00025595
0.000256198
0.000256406
0.000256576
0.000256709
0.000256807
0.00025687
0.000256901
0.000256901
0.00025687
0.00025681
0.000256722
0.000256606
0.000256465
0.000256299
0.000256108
0.000255895
0.000255658
0.0002554
0.000255121
0.000254822
0.000254503
0.000254165
0.000253809
0.000253435
0.000253043
0.000252635
0.00025221
0.00025177
0.000251314
0.000250843
0.000250357
0.000249856
0.000249342
0.000248813
0.000248271
0.000247716
0.000247147
0.000246565
0.00024597
0.000245362
0.000244742
0.000244109
0.000243463
0.000242805
0.000242135
0.000241452
0.000240757
0.000240049
0.000239328
0.000238596
0.00023785
0.000237092
0.000236321
0.000235537
0.00023474
0.000233929
0.000233106
0.000232269
0.000231418
0.000230553
0.000229674
0.000228781
0.000227873
0.000226951
0.000226013
0.00022506
0.000224092
0.000223108
0.000222107
0.000221091
0.000220058
0.000219008
0.00021794
0.000216856
0.000215753
0.000214632
0.000213493
0.000212336
0.000211159
0.000209963
0.000208747
0.000207512
0.000206256
0.00020498
0.000203682
0.000202364
0.000201024
0.000199662
0.000198279
0.000196873
0.000195444
0.000193992
0.000192517
0.000191018
0.000189495
0.000187948
0.000186377
0.00018478
0.000183159
0.000181511
0.000179838
0.000178138
0.000176412
0.000174658
0.000172876
0.000171067
0.000169228
0.00016736
0.000165462
0.000163533
0.000161573
0.00015958
0.000157554
0.000155492
0.000153395
0.000151259
0.000149085
0.000146869
0.000144609
0.000142303
0.000139948
0.00013754
0.000135075
0.00013255
0.000129962
0.000127322
0.00012461
0.000121802
0.000118885
0.000115842
0.00011265
0.000109282
0.000105703
0.000101861
9.77096e-05
9.31892e-05
8.81289e-05
8.2314e-05
7.54184e-05
6.71266e-05
5.96343e-05
0.000265062
8.50534e-05
7.41049e-05
9.17281e-05
0.000104939
0.000115891
0.000125085
0.000133047
0.000140217
0.000146811
0.00015286
0.000158489
0.000163762
0.000168728
0.000173425
0.000177883
0.000182125
0.00018617
0.000190032
0.000193725
0.000197258
0.000200641
0.00020388
0.000206983
0.000209954
0.000212798
0.000215521
0.000218125
0.000220616
0.000222995
0.000225266
0.000227433
0.000229499
0.000231465
0.000233336
0.000235113
0.0002368
0.000238399
0.000239913
0.000241343
0.000242694
0.000243966
0.000245163
0.000246287
0.000247339
0.000248323
0.00024924
0.000250101
0.000250903
0.000251646
0.000252331
0.00025296
0.000253534
0.000254056
0.000254528
0.000254951
0.000255328
0.00025566
0.00025595
0.000256198
0.000256406
0.000256576
0.000256709
0.000256807
0.00025687
0.000256901
0.000256901
0.00025687
0.00025681
0.000256721
0.000256606
0.000256465
0.000256299
0.000256108
0.000255894
0.000255658
0.0002554
0.000255121
0.000254822
0.000254503
0.000254165
0.000253809
0.000253435
0.000253043
0.000252635
0.00025221
0.00025177
0.000251314
0.000250843
0.000250357
0.000249856
0.000249342
0.000248813
0.000248271
0.000247715
0.000247147
0.000246565
0.00024597
0.000245362
0.000244742
0.000244109
0.000243463
0.000242805
0.000242135
0.000241452
0.000240756
0.000240049
0.000239328
0.000238595
0.00023785
0.000237092
0.000236321
0.000235537
0.00023474
0.000233929
0.000233106
0.000232269
0.000231418
0.000230553
0.000229674
0.000228781
0.000227873
0.00022695
0.000226013
0.00022506
0.000224092
0.000223108
0.000222107
0.000221091
0.000220058
0.000219008
0.00021794
0.000216856
0.000215753
0.000214632
0.000213493
0.000212336
0.000211159
0.000209963
0.000208747
0.000207512
0.000206256
0.000204979
0.000203682
0.000202364
0.000201024
0.000199662
0.000198279
0.000196873
0.000195444
0.000193992
0.000192517
0.000191018
0.000189495
0.000187948
0.000186377
0.00018478
0.000183159
0.000181511
0.000179838
0.000178138
0.000176412
0.000174658
0.000172876
0.000171067
0.000169228
0.00016736
0.000165462
0.000163533
0.000161573
0.00015958
0.000157553
0.000155492
0.000153395
0.000151259
0.000149085
0.000146869
0.000144609
0.000142303
0.000139948
0.00013754
0.000135075
0.00013255
0.000129962
0.000127322
0.00012461
0.000121802
0.000118885
0.000115842
0.00011265
0.000109282
0.000105703
0.000101861
9.77095e-05
9.3189e-05
8.81281e-05
8.23102e-05
7.5404e-05
6.70883e-05
5.96297e-05
0.000264678
6.42958e-05
0.000473274
0.000751985
0.000946037
0.00109122
0.00121034
0.00131239
0.00140192
0.00148179
0.00155432
0.00162081
0.00168227
0.00173944
0.0017929
0.0018431
0.00189041
0.00193513
0.00197748
0.00201769
0.00205591
0.00209229
0.00212696
0.00216001
0.00219155
0.00222165
0.00225039
0.00227783
0.00230403
0.00232903
0.0023529
0.00237567
0.00239739
0.00241809
0.00243781
0.00245657
0.00247443
0.00249139
0.00250751
0.00252279
0.00253727
0.00255098
0.00256393
0.00257616
0.00258767
0.00259849
0.0026086
0.00261789
0.0026265
0.0026345
0.00264195
0.00264885
0.00265525
0.00266114
0.00266657
0.00267154
0.00267606
0.00268015
0.00268384
0.00268712
0.00269003
0.00269256
0.00269473
0.00269655
0.00269804
0.00269921
0.00270006
0.00270061
0.00270087
0.00270084
0.00270054
0.00269998
0.00269915
0.00269808
0.00269677
0.00269523
0.00269345
0.00269146
0.00268925
0.00268683
0.00268421
0.00268139
0.00267838
0.00267518
0.0026718
0.00266824
0.0026645
0.00266059
0.00265651
0.00265227
0.00264786
0.0026433
0.00263857
0.0026337
0.00262867
0.00262348
0.00261815
0.00261267
0.00260704
0.00260127
0.00259534
0.00258928
0.00258307
0.00257671
0.00257021
0.00256357
0.00255678
0.00254985
0.00254277
0.00253554
0.00252817
0.00252064
0.00251297
0.00250514
0.00249716
0.00248903
0.00248074
0.0024723
0.00246369
0.00245492
0.00244599
0.00243689
0.00242762
0.00241817
0.00240856
0.00239877
0.0023888
0.00237864
0.00236831
0.00235778
0.00234706
0.00233615
0.00232505
0.00231374
0.00230223
0.00229052
0.00227859
0.00226646
0.00225411
0.00224154
0.00222875
0.00221573
0.00220249
0.00218902
0.00217531
0.00216136
0.00214718
0.00213275
0.00211807
0.00210315
0.00208797
0.00207253
0.00205683
0.00204087
0.00202464
0.00200814
0.00199136
0.00197431
0.00195697
0.00193934
0.00192142
0.0019032
0.00188467
0.00186583
0.00184668
0.0018272
0.00180739
0.00178724
0.00176673
0.00174586
0.00172462
0.00170298
0.00168094
0.00165847
0.00163556
0.00161218
0.0015883
0.00156389
0.00153891
0.00151333
0.00148707
0.00146009
0.00143227
0.0014035
0.00137359
0.00134244
0.00131
0.00127614
0.00124062
0.00120315
0.00116332
0.00112056
0.00107393
0.00102179
0.000962186
0.000893148
0.000810206
0.000704057
0.000550178
0.000288626
4.61991e-05
6.4296e-05
0.000473293
0.000752013
0.000946068
0.00109125
0.00121037
0.00131242
0.00140195
0.00148182
0.00155435
0.00162084
0.0016823
0.00173946
0.00179292
0.00184313
0.00189044
0.00193515
0.00197751
0.00201771
0.00205593
0.00209231
0.00212698
0.00216003
0.00219157
0.00222167
0.00225041
0.00227785
0.00230404
0.00232905
0.00235292
0.00237569
0.00239741
0.0024181
0.00243782
0.00245659
0.00247444
0.00249141
0.00250752
0.0025228
0.00253728
0.00255099
0.00256394
0.00257617
0.00258768
0.0025985
0.00260861
0.0026179
0.00262651
0.00263452
0.00264196
0.00264886
0.00265526
0.00266115
0.00266658
0.00267154
0.00267607
0.00268016
0.00268385
0.00268713
0.00269003
0.00269256
0.00269474
0.00269656
0.00269805
0.00269921
0.00270007
0.00270062
0.00270088
0.00270085
0.00270055
0.00269999
0.00269916
0.00269809
0.00269678
0.00269523
0.00269346
0.00269147
0.00268926
0.00268684
0.00268422
0.0026814
0.00267839
0.00267519
0.00267181
0.00266825
0.00266451
0.0026606
0.00265652
0.00265228
0.00264787
0.00264331
0.00263858
0.0026337
0.00262867
0.00262349
0.00261816
0.00261268
0.00260705
0.00260127
0.00259535
0.00258929
0.00258308
0.00257672
0.00257022
0.00256358
0.00255679
0.00254985
0.00254277
0.00253555
0.00252817
0.00252065
0.00251297
0.00250515
0.00249717
0.00248904
0.00248075
0.0024723
0.0024637
0.00245493
0.00244599
0.00243689
0.00242762
0.00241818
0.00240857
0.00239878
0.0023888
0.00237865
0.00236831
0.00235779
0.00234707
0.00233616
0.00232505
0.00231375
0.00230224
0.00229052
0.0022786
0.00226646
0.00225411
0.00224154
0.00222875
0.00221574
0.0022025
0.00218902
0.00217532
0.00216137
0.00214718
0.00213276
0.00211808
0.00210315
0.00208797
0.00207254
0.00205684
0.00204088
0.00202465
0.00200815
0.00199137
0.00197431
0.00195697
0.00193934
0.00192142
0.0019032
0.00188468
0.00186584
0.00184669
0.00182721
0.0018074
0.00178724
0.00176674
0.00174587
0.00172462
0.00170299
0.00168094
0.00165848
0.00163556
0.00161218
0.0015883
0.00156389
0.00153892
0.00151333
0.00148708
0.00146009
0.00143228
0.00140351
0.00137359
0.00134244
0.00131001
0.00127614
0.00124062
0.00120315
0.00116333
0.00112056
0.00107394
0.00102179
0.000962191
0.000893156
0.000810241
0.000704235
0.00055079
0.000288595
4.6182e-05
7.87196e-05
0.000717107
0.00127524
0.00169161
0.00202078
0.00229433
0.00252955
0.00273638
0.00292115
0.00308832
0.00324099
0.00338144
0.00351142
0.00363232
0.00374522
0.00385101
0.00395045
0.00404414
0.00413261
0.00421632
0.00429563
0.0043709
0.00444241
0.00451042
0.00457515
0.00463681
0.00469558
0.0047516
0.00480504
0.00485601
0.00490463
0.00495102
0.00499527
0.00503747
0.0050777
0.00511605
0.00515259
0.00518737
0.00522047
0.00525195
0.00528186
0.00531026
0.00533718
0.00536268
0.00538677
0.00540946
0.00543072
0.00545066
0.00546938
0.00548694
0.0055034
0.00551881
0.00553322
0.00554665
0.00555914
0.00557073
0.00558144
0.00559131
0.00560036
0.00560863
0.00561613
0.00562289
0.00562893
0.00563428
0.00563896
0.00564299
0.00564639
0.00564917
0.00565137
0.00565298
0.00565404
0.00565456
0.00565454
0.00565402
0.00565299
0.00565148
0.00564949
0.00564704
0.00564415
0.00564081
0.00563704
0.00563286
0.00562826
0.00562326
0.00561787
0.00561209
0.00560594
0.00559941
0.00559251
0.00558526
0.00557764
0.00556968
0.00556137
0.00555272
0.00554373
0.0055344
0.00552474
0.00551475
0.00550443
0.00549378
0.0054828
0.0054715
0.00545987
0.00544792
0.00543564
0.00542303
0.00541009
0.00539683
0.00538323
0.00536931
0.00535504
0.00534044
0.0053255
0.00531021
0.00529458
0.00527859
0.00526225
0.00524555
0.00522848
0.00521105
0.00519325
0.00517506
0.00515649
0.00513754
0.00511819
0.00509843
0.00507827
0.0050577
0.00503671
0.0050153
0.00499345
0.00497117
0.00494844
0.00492525
0.00490161
0.00487751
0.00485293
0.00482787
0.00480232
0.00477628
0.00474973
0.00472268
0.00469511
0.00466701
0.00463838
0.00460921
0.00457948
0.0045492
0.00451835
0.00448692
0.00445491
0.0044223
0.00438909
0.00435526
0.0043208
0.0042857
0.00424995
0.00421353
0.00417644
0.00413865
0.00410015
0.00406092
0.00402094
0.00398019
0.00393865
0.00389629
0.00385309
0.00380901
0.00376402
0.00371808
0.00367115
0.00362317
0.00357411
0.00352388
0.00347242
0.00341966
0.00336549
0.00330981
0.00325248
0.00319336
0.00313226
0.00306893
0.00300311
0.00293444
0.00286262
0.00278725
0.0027078
0.00262357
0.00253367
0.0024369
0.00233159
0.00221542
0.00208503
0.00193564
0.00176164
0.00155352
0.00129597
0.000963461
0.000517072
5.69789e-05
7.872e-05
0.000717132
0.00127528
0.00169167
0.00202084
0.00229439
0.00252962
0.00273644
0.00292122
0.00308839
0.00324105
0.0033815
0.00351148
0.00363237
0.00374527
0.00385106
0.0039505
0.00404419
0.00413266
0.00421636
0.00429567
0.00437094
0.00444245
0.00451045
0.00457519
0.00463684
0.00469561
0.00475163
0.00480506
0.00485603
0.00490466
0.00495104
0.00499529
0.00503749
0.00507772
0.00511607
0.0051526
0.00518739
0.00522049
0.00525197
0.00528188
0.00531027
0.0053372
0.00536269
0.00538678
0.00540947
0.00543073
0.00545067
0.00546939
0.00548695
0.00550341
0.00551882
0.00553322
0.00554665
0.00555915
0.00557073
0.00558145
0.00559132
0.00560037
0.00560863
0.00561613
0.00562289
0.00562894
0.00563429
0.00563897
0.00564299
0.00564639
0.00564918
0.00565137
0.00565299
0.00565405
0.00565456
0.00565455
0.00565402
0.00565299
0.00565148
0.0056495
0.00564705
0.00564415
0.00564081
0.00563705
0.00563286
0.00562826
0.00562327
0.00561787
0.0056121
0.00560594
0.00559941
0.00559251
0.00558526
0.00557764
0.00556968
0.00556137
0.00555272
0.00554373
0.0055344
0.00552474
0.00551475
0.00550443
0.00549378
0.0054828
0.0054715
0.00545987
0.00544792
0.00543564
0.00542303
0.0054101
0.00539683
0.00538323
0.00536931
0.00535504
0.00534044
0.0053255
0.00531021
0.00529458
0.00527859
0.00526225
0.00524555
0.00522848
0.00521105
0.00519325
0.00517506
0.00515649
0.00513754
0.00511819
0.00509843
0.00507827
0.0050577
0.00503671
0.0050153
0.00499345
0.00497117
0.00494844
0.00492525
0.00490161
0.00487751
0.00485293
0.00482787
0.00480232
0.00477628
0.00474973
0.00472268
0.00469511
0.00466701
0.00463838
0.00460921
0.00457948
0.0045492
0.00451835
0.00448692
0.00445491
0.0044223
0.00438909
0.00435526
0.0043208
0.0042857
0.00424995
0.00421353
0.00417644
0.00413865
0.00410015
0.00406092
0.00402094
0.00398019
0.00393865
0.00389629
0.00385309
0.00380901
0.00376402
0.00371808
0.00367115
0.00362317
0.0035741
0.00352388
0.00347242
0.00341966
0.00336549
0.00330981
0.00325248
0.00319336
0.00313225
0.00306893
0.00300311
0.00293444
0.00286261
0.00278725
0.0027078
0.00262357
0.00253367
0.0024369
0.00233159
0.00221542
0.00208503
0.00193564
0.00176164
0.00155351
0.00129598
0.00096352
0.000516732
5.70118e-05
8.92986e-05
0.000862194
0.00162139
0.00222413
0.0027169
0.00313341
0.00349474
0.00381428
0.00410098
0.00436107
0.00459906
0.00481831
0.0050214
0.00521038
0.00538689
0.00555227
0.00570764
0.00585395
0.00599202
0.00612254
0.00624612
0.00636329
0.00647452
0.00658022
0.00668077
0.00677648
0.00686766
0.00695457
0.00703744
0.0071165
0.00719195
0.00726395
0.00733267
0.00739827
0.00746089
0.00752064
0.00757765
0.00763203
0.00768389
0.00773331
0.00778038
0.0078252
0.00786782
0.00790833
0.00794676
0.00798316
0.00801756
0.00805007
0.00808078
0.00810977
0.00813712
0.0081629
0.00818717
0.00820998
0.0082314
0.00825146
0.00827022
0.00828772
0.00830399
0.00831909
0.00833304
0.00834589
0.00835766
0.0083684
0.00837812
0.00838687
0.00839467
0.00840155
0.00840753
0.00841265
0.00841692
0.00842037
0.00842302
0.00842488
0.00842599
0.00842636
0.00842601
0.00842495
0.0084232
0.00842078
0.0084177
0.00841398
0.00840962
0.00840465
0.00839907
0.00839289
0.00838613
0.00837878
0.00837088
0.00836241
0.00835338
0.00834381
0.00833371
0.00832307
0.00831189
0.0083002
0.00828798
0.00827525
0.008262
0.00824823
0.00823396
0.00821917
0.00820388
0.00818807
0.00817175
0.00815492
0.00813758
0.00811972
0.00810134
0.00808243
0.00806301
0.00804305
0.00802256
0.00800153
0.00797995
0.00795783
0.00793515
0.0079119
0.00788809
0.0078637
0.00783873
0.00781316
0.007787
0.00776022
0.00773283
0.00770481
0.00767616
0.00764686
0.0076169
0.00758628
0.00755498
0.007523
0.00749032
0.00745693
0.00742283
0.00738799
0.00735241
0.00731607
0.00727897
0.00724109
0.00720242
0.00716294
0.00712265
0.00708152
0.00703955
0.00699672
0.00695301
0.00690841
0.00686291
0.00681649
0.00676912
0.0067208
0.00667149
0.0066212
0.00656988
0.00651752
0.0064641
0.00640959
0.00635396
0.00629719
0.00623924
0.00618007
0.00611966
0.00605796
0.00599493
0.00593051
0.00586466
0.00579731
0.00572841
0.00565787
0.00558563
0.00551157
0.00543562
0.00535764
0.0052775
0.00519506
0.00511015
0.00502255
0.00493204
0.00483833
0.0047411
0.00463996
0.00453443
0.00442396
0.00430793
0.00418555
0.00405586
0.00391763
0.00376926
0.00360868
0.00343316
0.00323911
0.00302165
0.00277414
0.00248805
0.00215138
0.00174693
0.00125157
0.000644138
6.6472e-05
8.92993e-05
0.000862219
0.00162144
0.0022242
0.00271699
0.0031335
0.00349483
0.00381438
0.00410107
0.00436116
0.00459915
0.0048184
0.00502149
0.00521047
0.00538697
0.00555234
0.00570771
0.00585402
0.00599209
0.00612261
0.00624618
0.00636335
0.00647458
0.00658027
0.00668082
0.00677653
0.0068677
0.00695461
0.00703748
0.00711654
0.00719198
0.00726398
0.0073327
0.0073983
0.00746091
0.00752067
0.00757768
0.00763206
0.00768391
0.00773333
0.0077804
0.00782521
0.00786784
0.00790834
0.00794677
0.00798317
0.00801758
0.00805008
0.00808079
0.00810978
0.00813713
0.0081629
0.00818717
0.00820999
0.0082314
0.00825147
0.00827022
0.00828772
0.008304
0.00831909
0.00833304
0.00834589
0.00835766
0.0083684
0.00837812
0.00838687
0.00839467
0.00840155
0.00840754
0.00841265
0.00841692
0.00842037
0.00842301
0.00842488
0.00842599
0.00842636
0.00842601
0.00842495
0.0084232
0.00842078
0.0084177
0.00841398
0.00840962
0.00840465
0.00839907
0.00839289
0.00838612
0.00837878
0.00837087
0.0083624
0.00835338
0.00834381
0.0083337
0.00832306
0.00831189
0.00830019
0.00828798
0.00827524
0.00826199
0.00824823
0.00823395
0.00821917
0.00820387
0.00818807
0.00817175
0.00815492
0.00813757
0.00811971
0.00810133
0.00808243
0.008063
0.00804304
0.00802255
0.00800152
0.00797995
0.00795782
0.00793514
0.0079119
0.00788808
0.00786369
0.00783872
0.00781315
0.00778699
0.00776021
0.00773282
0.0077048
0.00767615
0.00764685
0.00761689
0.00758627
0.00755498
0.00752299
0.00749031
0.00745693
0.00742282
0.00738798
0.0073524
0.00731606
0.00727896
0.00724108
0.00720241
0.00716293
0.00712264
0.00708151
0.00703954
0.00699671
0.006953
0.00690841
0.0068629
0.00681648
0.00676911
0.00672079
0.00667149
0.00662119
0.00656987
0.00651751
0.00646409
0.00640958
0.00635395
0.00629718
0.00623923
0.00618007
0.00611965
0.00605795
0.00599492
0.0059305
0.00586465
0.00579731
0.0057284
0.00565787
0.00558562
0.00551157
0.00543561
0.00535763
0.00527749
0.00519505
0.00511014
0.00502254
0.00493203
0.00483833
0.0047411
0.00463995
0.00453442
0.00442396
0.00430792
0.00418554
0.00405586
0.00391762
0.00376925
0.00360867
0.00343316
0.00323911
0.00302164
0.00277414
0.00248805
0.00215138
0.00174693
0.00125158
0.000644051
6.64772e-05
9.78248e-05
0.000962164
0.00186849
0.00261892
0.00324694
0.00378521
0.00425636
0.00467571
0.00505388
0.0053984
0.0057148
0.00600722
0.00627887
0.00653229
0.00676951
0.00699221
0.00720181
0.00739949
0.00758626
0.00776302
0.00793053
0.00808948
0.00824047
0.00838404
0.00852067
0.0086508
0.00877482
0.00889308
0.0090059
0.00911358
0.00921638
0.00931456
0.00940833
0.0094979
0.00958347
0.00966521
0.00974328
0.00981784
0.00988902
0.00995697
0.0100218
0.0100836
0.0101426
0.0101987
0.0102521
0.0103029
0.0103511
0.0103968
0.0104402
0.0104814
0.0105203
0.0105572
0.0105921
0.0106251
0.0106562
0.0106855
0.0107131
0.0107391
0.0107634
0.0107862
0.0108074
0.0108272
0.0108456
0.0108626
0.0108783
0.0108926
0.0109057
0.0109176
0.0109284
0.0109379
0.0109464
0.0109537
0.01096
0.0109653
0.0109695
0.0109728
0.0109751
0.0109764
0.0109769
0.0109764
0.0109751
0.0109729
0.0109698
0.010966
0.0109613
0.0109558
0.0109495
0.0109425
0.0109347
0.0109261
0.0109168
0.0109068
0.010896
0.0108845
0.0108724
0.0108595
0.0108458
0.0108315
0.0108166
0.0108009
0.0107845
0.0107674
0.0107497
0.0107312
0.0107121
0.0106922
0.0106717
0.0106505
0.0106286
0.0106059
0.0105826
0.0105585
0.0105337
0.0105082
0.010482
0.010455
0.0104272
0.0103987
0.0103695
0.0103394
0.0103086
0.0102769
0.0102445
0.0102112
0.0101771
0.0101421
0.0101063
0.0100696
0.010032
0.00999351
0.0099541
0.00991377
0.00987248
0.00983023
0.00978701
0.00974279
0.00969756
0.0096513
0.009604
0.00955564
0.00950619
0.00945564
0.00940397
0.00935116
0.00929719
0.00924203
0.00918567
0.00912808
0.00906924
0.00900913
0.0089477
0.00888495
0.00882083
0.00875533
0.0086884
0.00862001
0.00855012
0.0084787
0.00840571
0.00833109
0.0082548
0.00817678
0.00809698
0.00801534
0.00793179
0.00784625
0.00775864
0.00766887
0.00757684
0.00748244
0.00738555
0.00728602
0.00718371
0.00707843
0.00696999
0.00685816
0.00674268
0.00662324
0.0064995
0.00637104
0.00623739
0.00609798
0.00595213
0.00579905
0.00563779
0.00546721
0.00528591
0.00509211
0.0048836
0.00465759
0.00441048
0.00413766
0.00383313
0.0034891
0.0030956
0.00263989
0.00210531
0.00147274
0.000734755
7.29941e-05
9.78255e-05
0.00096219
0.00186855
0.00261901
0.00324704
0.00378532
0.00425647
0.00467583
0.005054
0.00539852
0.00571491
0.00600733
0.00627898
0.00653239
0.00676961
0.00699231
0.00720191
0.00739958
0.00758635
0.0077631
0.00793061
0.00808956
0.00824054
0.00838411
0.00852074
0.00865086
0.00877488
0.00889313
0.00900595
0.00911363
0.00921643
0.0093146
0.00940837
0.00949794
0.00958351
0.00966524
0.00974331
0.00981787
0.00988905
0.009957
0.0100218
0.0100837
0.0101426
0.0101987
0.0102521
0.0103029
0.0103511
0.0103969
0.0104402
0.0104814
0.0105203
0.0105572
0.0105921
0.0106251
0.0106562
0.0106855
0.0107132
0.0107391
0.0107634
0.0107862
0.0108074
0.0108272
0.0108456
0.0108626
0.0108783
0.0108926
0.0109057
0.0109176
0.0109284
0.0109379
0.0109464
0.0109537
0.01096
0.0109653
0.0109695
0.0109728
0.0109751
0.0109764
0.0109769
0.0109764
0.0109751
0.0109729
0.0109698
0.010966
0.0109613
0.0109558
0.0109495
0.0109425
0.0109347
0.0109261
0.0109168
0.0109068
0.010896
0.0108845
0.0108723
0.0108594
0.0108458
0.0108315
0.0108165
0.0108009
0.0107845
0.0107674
0.0107496
0.0107312
0.0107121
0.0106922
0.0106717
0.0106505
0.0106285
0.0106059
0.0105826
0.0105585
0.0105337
0.0105082
0.010482
0.010455
0.0104272
0.0103987
0.0103695
0.0103394
0.0103086
0.0102769
0.0102445
0.0102112
0.0101771
0.0101421
0.0101063
0.0100696
0.010032
0.0099935
0.00995409
0.00991375
0.00987247
0.00983022
0.009787
0.00974278
0.00969755
0.00965129
0.00960399
0.00955562
0.00950618
0.00945563
0.00940396
0.00935115
0.00929717
0.00924202
0.00918566
0.00912807
0.00906923
0.00900911
0.00894769
0.00888494
0.00882082
0.00875532
0.00868839
0.00862
0.00855011
0.00847869
0.00840569
0.00833107
0.00825478
0.00817677
0.00809697
0.00801533
0.00793178
0.00784623
0.00775862
0.00766886
0.00757683
0.00748243
0.00738554
0.00728601
0.0071837
0.00707842
0.00696998
0.00685815
0.00674267
0.00662323
0.00649949
0.00637103
0.00623738
0.00609797
0.00595212
0.00579903
0.00563778
0.0054672
0.0052859
0.0050921
0.0048836
0.00465758
0.00441047
0.00413765
0.00383313
0.0034891
0.0030956
0.00263989
0.00210531
0.00147274
0.000734738
7.29949e-05
0.000105086
0.00104212
0.00206035
0.00292715
0.00366511
0.00430473
0.00486901
0.00537429
0.00583224
0.00625127
0.00663762
0.00699602
0.0073301
0.00764277
0.00793633
0.00821271
0.00847349
0.00872003
0.00895348
0.00917484
0.00938501
0.00958476
0.00977478
0.00995571
0.0101281
0.0102925
0.0104493
0.0105989
0.0107418
0.0108783
0.0110087
0.0111333
0.0112525
0.0113664
0.0114753
0.0115794
0.0116789
0.011774
0.011865
0.0119519
0.0120349
0.0121141
0.0121898
0.012262
0.0123308
0.0123964
0.0124589
0.0125183
0.0125748
0.0126285
0.0126796
0.012728
0.012774
0.0128176
0.0128589
0.012898
0.012935
0.0129699
0.0130027
0.0130337
0.0130628
0.01309
0.0131155
0.0131393
0.0131615
0.013182
0.013201
0.0132185
0.0132346
0.0132492
0.0132624
0.0132742
0.0132848
0.013294
0.013302
0.0133088
0.0133144
0.0133189
0.0133221
0.0133243
0.0133254
0.0133254
0.0133244
0.0133223
0.0133193
0.0133152
0.0133102
0.0133042
0.0132972
0.0132893
0.0132805
0.0132708
0.0132601
0.0132486
0.0132362
0.0132229
0.0132087
0.0131937
0.0131777
0.013161
0.0131433
0.0131248
0.0131055
0.0130852
0.0130641
0.0130422
0.0130194
0.0129957
0.0129711
0.0129457
0.0129193
0.0128921
0.0128639
0.0128349
0.0128049
0.012774
0.0127422
0.0127094
0.0126756
0.0126409
0.0126052
0.0125685
0.0125307
0.0124919
0.0124521
0.0124112
0.0123693
0.0123262
0.012282
0.0122367
0.0121903
0.0121426
0.0120938
0.0120438
0.0119925
0.01194
0.0118862
0.0118311
0.0117747
0.0117169
0.0116578
0.0115972
0.0115353
0.0114719
0.011407
0.0113406
0.0112727
0.0112032
0.0111322
0.0110594
0.010985
0.0109089
0.0108311
0.0107515
0.01067
0.0105866
0.0105013
0.010414
0.0103247
0.0102332
0.0101396
0.0100437
0.00994551
0.00984488
0.00974175
0.00963601
0.00952754
0.00941623
0.00930193
0.0091845
0.00906377
0.00893955
0.00881163
0.00867977
0.00854371
0.00840313
0.00825768
0.00810697
0.00795053
0.00778781
0.00761818
0.00744089
0.00725508
0.00705971
0.00685353
0.00663506
0.00640248
0.00615359
0.00588563
0.0055952
0.00527806
0.00492888
0.00454099
0.00410598
0.0036134
0.00305047
0.00240215
0.0016537
0.00080843
7.84927e-05
0.000105087
0.00104214
0.00206041
0.00292724
0.00366522
0.00430485
0.00486913
0.00537442
0.00583237
0.0062514
0.00663776
0.00699615
0.00733023
0.00764289
0.00793646
0.00821283
0.00847361
0.00872014
0.00895358
0.00917494
0.00938511
0.00958485
0.00977487
0.00995579
0.0101282
0.0102925
0.0104493
0.010599
0.0107419
0.0108784
0.0110088
0.0111334
0.0112525
0.0113664
0.0114753
0.0115794
0.0116789
0.0117741
0.011865
0.0119519
0.0120349
0.0121142
0.0121898
0.012262
0.0123309
0.0123965
0.0124589
0.0125183
0.0125748
0.0126286
0.0126796
0.0127281
0.0127741
0.0128177
0.012859
0.012898
0.012935
0.0129699
0.0130027
0.0130337
0.0130628
0.01309
0.0131155
0.0131393
0.0131615
0.013182
0.013201
0.0132185
0.0132346
0.0132492
0.0132624
0.0132742
0.0132848
0.013294
0.013302
0.0133088
0.0133144
0.0133189
0.0133221
0.0133243
0.0133254
0.0133254
0.0133244
0.0133223
0.0133193
0.0133152
0.0133102
0.0133042
0.0132972
0.0132893
0.0132805
0.0132708
0.0132601
0.0132486
0.0132362
0.0132229
0.0132087
0.0131937
0.0131777
0.013161
0.0131433
0.0131248
0.0131055
0.0130852
0.0130641
0.0130422
0.0130194
0.0129957
0.0129711
0.0129457
0.0129193
0.0128921
0.0128639
0.0128349
0.0128049
0.012774
0.0127422
0.0127094
0.0126756
0.0126409
0.0126052
0.0125685
0.0125307
0.0124919
0.0124521
0.0124112
0.0123693
0.0123262
0.012282
0.0122367
0.0121902
0.0121426
0.0120938
0.0120437
0.0119925
0.01194
0.0118862
0.0118311
0.0117747
0.0117169
0.0116578
0.0115972
0.0115353
0.0114719
0.011407
0.0113406
0.0112727
0.0112032
0.0111321
0.0110594
0.010985
0.0109089
0.0108311
0.0107514
0.01067
0.0105866
0.0105013
0.010414
0.0103247
0.0102332
0.0101396
0.0100437
0.00994549
0.00984487
0.00974174
0.00963599
0.00952753
0.00941621
0.00930192
0.00918449
0.00906376
0.00893954
0.00881162
0.00867976
0.00854369
0.00840311
0.00825767
0.00810696
0.00795052
0.00778779
0.00761817
0.00744088
0.00725507
0.00705969
0.00685352
0.00663505
0.00640247
0.00615358
0.00588562
0.0055952
0.00527806
0.00492888
0.00454098
0.00410598
0.0036134
0.00305047
0.00240215
0.0016537
0.000808424
7.84929e-05
0.000111669
0.00111048
0.00221866
0.00317888
0.00400649
0.00473014
0.00537276
0.00595126
0.00647795
0.00696187
0.00740976
0.00782676
0.00821682
0.00858309
0.00892809
0.00925387
0.00956216
0.00985439
0.0101318
0.0103955
0.0106464
0.0108854
0.0111132
0.0113304
0.0115377
0.0117357
0.0119248
0.0121055
0.0122782
0.0124434
0.0126014
0.0127525
0.0128971
0.0130355
0.0131679
0.0132945
0.0134157
0.0135317
0.0136426
0.0137487
0.0138502
0.0139472
0.0140399
0.0141285
0.0142131
0.0142938
0.0143708
0.0144442
0.0145141
0.0145807
0.0146442
0.0147045
0.0147619
0.0148165
0.0148683
0.0149175
0.0149641
0.0150082
0.01505
0.0150895
0.0151267
0.0151618
0.0151947
0.0152257
0.0152547
0.0152818
0.015307
0.0153305
0.0153522
0.0153722
0.0153906
0.0154073
0.0154225
0.0154362
0.0154484
0.0154591
0.0154684
0.0154764
0.0154829
0.0154882
0.0154922
0.0154948
0.0154963
0.0154965
0.0154955
0.0154934
0.0154901
0.0154856
0.01548
0.0154733
0.0154655
0.0154566
0.0154466
0.0154356
0.0154235
0.0154103
0.0153962
0.0153809
0.0153647
0.0153474
0.0153291
0.0153098
0.0152894
0.0152681
0.0152456
0.0152222
0.0151977
0.0151722
0.0151457
0.0151181
0.0150894
0.0150597
0.0150289
0.014997
0.014964
0.0149299
0.0148947
0.0148584
0.0148209
0.0147822
0.0147424
0.0147013
0.0146591
0.0146156
0.0145708
0.0145248
0.0144775
0.0144289
0.0143789
0.0143276
0.0142749
0.0142208
0.0141652
0.0141083
0.0140498
0.0139898
0.0139283
0.0138652
0.0138006
0.0137343
0.0136663
0.0135967
0.0135253
0.0134522
0.0133773
0.0133006
0.013222
0.0131415
0.0130591
0.0129747
0.0128882
0.0127996
0.0127089
0.0126161
0.0125209
0.0124235
0.0123236
0.0122213
0.0121165
0.0120091
0.011899
0.0117862
0.0116704
0.0115517
0.0114298
0.0113047
0.0111763
0.0110443
0.0109085
0.0107689
0.0106252
0.0104771
0.0103244
0.0101668
0.0100039
0.00983545
0.00966089
0.00947974
0.00929145
0.00909533
0.0088906
0.00867636
0.00845154
0.00821486
0.00796484
0.00769968
0.00741722
0.00711486
0.00678942
0.00643702
0.00605295
0.00563138
0.00516523
0.00464585
0.00406281
0.00340387
0.00265587
0.00180782
0.000871546
8.33153e-05
0.000111669
0.0011105
0.00221872
0.00317896
0.0040066
0.00473026
0.00537289
0.0059514
0.00647809
0.00696201
0.00740991
0.0078269
0.00821696
0.00858323
0.00892822
0.009254
0.00956228
0.00985452
0.0101319
0.0103956
0.0106466
0.0108855
0.0111133
0.0113305
0.0115378
0.0117358
0.0119249
0.0121056
0.0122783
0.0124435
0.0126015
0.0127526
0.0128972
0.0130355
0.0131679
0.0132946
0.0134158
0.0135317
0.0136427
0.0137488
0.0138503
0.0139473
0.01404
0.0141285
0.0142131
0.0142938
0.0143708
0.0144442
0.0145141
0.0145807
0.0146442
0.0147045
0.0147619
0.0148165
0.0148683
0.0149175
0.0149641
0.0150082
0.01505
0.0150895
0.0151267
0.0151618
0.0151948
0.0152257
0.0152547
0.0152818
0.0153071
0.0153305
0.0153522
0.0153722
0.0153906
0.0154073
0.0154225
0.0154362
0.0154484
0.0154591
0.0154684
0.0154764
0.0154829
0.0154882
0.0154922
0.0154948
0.0154963
0.0154965
0.0154955
0.0154934
0.0154901
0.0154856
0.01548
0.0154733
0.0154655
0.0154566
0.0154466
0.0154356
0.0154235
0.0154103
0.0153962
0.0153809
0.0153647
0.0153474
0.0153291
0.0153098
0.0152894
0.015268
0.0152456
0.0152222
0.0151977
0.0151722
0.0151457
0.0151181
0.0150894
0.0150597
0.0150289
0.014997
0.014964
0.0149299