/*--------------------------------*- C++ -*----------------------------------*\
  =========                 |
  \\      /  F ield         | OpenFOAM: The Open Source CFD Toolbox
   \\    /   O peration     | Website:  https://openfoam.org
    \\  /    A nd           | Version:  8
     \\/     M anipulation  |
\*---------------------------------------------------------------------------*/
FoamFile
{
    version     2.0;
    format      ascii;
    class       volScalarField;
    location    "2500";
    object      k;
}
// * * * * * * * * * * * * * * * * * * * * * * * * * * * * * * * * * * * * * //

dimensions      [0 2 -2 0 0 0 0];

internalField   nonuniform List<scalar> 
48000
(
0.0274971
0.0511457
0.0783689
0.102576
0.125105
0.145742
0.164887
0.183143
0.20077
0.217655
0.233982
0.249811
0.265193
0.280166
0.294755
0.308982
0.32286
0.336397
0.349601
0.362472
0.375014
0.387224
0.399102
0.410645
0.421851
0.432718
0.443244
0.453426
0.463263
0.472753
0.481896
0.490693
0.499143
0.507248
0.51501
0.522432
0.529515
0.536265
0.542684
0.548779
0.554553
0.560012
0.565161
0.570006
0.574553
0.578808
0.582816
0.586568
0.590051
0.593271
0.596233
0.598947
0.60142
0.603659
0.605673
0.607469
0.609055
0.610437
0.611623
0.61262
0.613435
0.614074
0.614544
0.614851
0.615001
0.615
0.614854
0.614569
0.614149
0.613599
0.612926
0.612133
0.611225
0.610206
0.609081
0.607853
0.606527
0.605106
0.603593
0.601992
0.600307
0.598539
0.596692
0.594769
0.592772
0.590704
0.588567
0.586362
0.584093
0.58176
0.579367
0.576914
0.574402
0.571834
0.569211
0.566533
0.563803
0.56102
0.558187
0.555303
0.55237
0.549388
0.546358
0.543281
0.540156
0.536985
0.533767
0.530502
0.527192
0.523836
0.520434
0.516986
0.513493
0.509954
0.506369
0.502738
0.499061
0.495337
0.491568
0.487751
0.483888
0.479977
0.476019
0.472013
0.46796
0.463858
0.459708
0.455509
0.451261
0.446964
0.442618
0.438222
0.433777
0.429282
0.424737
0.420143
0.415498
0.410804
0.40606
0.401267
0.396424
0.391533
0.386592
0.381603
0.376566
0.371481
0.366349
0.361171
0.355947
0.350678
0.345364
0.340007
0.334607
0.329166
0.323683
0.318161
0.3126
0.307002
0.301367
0.295696
0.289991
0.284254
0.278484
0.272683
0.266853
0.260994
0.255107
0.249193
0.243254
0.237289
0.2313
0.225286
0.219249
0.213187
0.2071
0.200989
0.194851
0.188686
0.18249
0.176263
0.170001
0.163704
0.157374
0.151043
0.144677
0.13823
0.131688
0.125032
0.118236
0.111273
0.104102
0.0966732
0.0889523
0.0809105
0.0723553
0.0630921
0.0528205
0.0410917
0.0277564
0.024504
0.0274973
0.0511469
0.0783704
0.102577
0.125107
0.145744
0.164889
0.183144
0.200772
0.217657
0.233983
0.249813
0.265195
0.280167
0.294757
0.308983
0.322861
0.336399
0.349602
0.362474
0.375015
0.387225
0.399103
0.410646
0.421852
0.432719
0.443245
0.453427
0.463263
0.472754
0.481897
0.490693
0.499144
0.507249
0.515011
0.522432
0.529515
0.536265
0.542685
0.548779
0.554553
0.560012
0.565161
0.570007
0.574554
0.578808
0.582816
0.586568
0.590052
0.593271
0.596233
0.598947
0.60142
0.603659
0.605673
0.607469
0.609055
0.610437
0.611623
0.61262
0.613435
0.614074
0.614544
0.614851
0.615001
0.615
0.614854
0.614569
0.614149
0.613599
0.612926
0.612133
0.611224
0.610206
0.60908
0.607853
0.606527
0.605105
0.603593
0.601992
0.600306
0.598539
0.596692
0.594769
0.592772
0.590704
0.588566
0.586362
0.584093
0.58176
0.579367
0.576913
0.574402
0.571834
0.569211
0.566533
0.563803
0.56102
0.558187
0.555303
0.55237
0.549388
0.546358
0.543281
0.540156
0.536984
0.533766
0.530502
0.527192
0.523836
0.520434
0.516986
0.513493
0.509954
0.506369
0.502738
0.499061
0.495337
0.491567
0.487751
0.483887
0.479977
0.476019
0.472013
0.467959
0.463858
0.459707
0.455508
0.451261
0.446964
0.442618
0.438222
0.433777
0.429282
0.424737
0.420143
0.415498
0.410804
0.40606
0.401267
0.396424
0.391532
0.386592
0.381603
0.376566
0.371481
0.366349
0.361171
0.355947
0.350678
0.345364
0.340007
0.334607
0.329166
0.323683
0.318161
0.3126
0.307002
0.301367
0.295696
0.289991
0.284254
0.278484
0.272683
0.266853
0.260994
0.255107
0.249193
0.243254
0.237289
0.2313
0.225286
0.219249
0.213187
0.2071
0.200989
0.194851
0.188685
0.18249
0.176263
0.170001
0.163704
0.157374
0.151043
0.144677
0.13823
0.131688
0.125032
0.118236
0.111273
0.104102
0.0966733
0.0889523
0.0809105
0.0723551
0.0630911
0.0528166
0.0410816
0.0277564
0.0244887
0.051812
0.130247
0.186103
0.235472
0.280821
0.323477
0.363783
0.402318
0.439428
0.475322
0.51017
0.544094
0.577184
0.609503
0.641096
0.671993
0.702211
0.73176
0.760642
0.788855
0.816393
0.843245
0.869403
0.894855
0.919591
0.943598
0.966869
0.989392
1.01116
1.03217
1.05242
1.0719
1.09062
1.10857
1.12575
1.14218
1.15786
1.17279
1.18698
1.20045
1.2132
1.22525
1.23661
1.24729
1.2573
1.26667
1.27539
1.28352
1.29104
1.29799
1.30437
1.31021
1.31551
1.32031
1.32461
1.32842
1.33178
1.33469
1.33717
1.33923
1.34089
1.34217
1.34308
1.34363
1.34383
1.34371
1.34326
1.34251
1.34147
1.34014
1.33855
1.33669
1.33458
1.33223
1.32965
1.32684
1.32382
1.32059
1.31717
1.31355
1.30975
1.30577
1.30162
1.29731
1.29283
1.2882
1.28342
1.2785
1.27344
1.26824
1.26291
1.25745
1.25186
1.24616
1.24033
1.23439
1.22834
1.22217
1.2159
1.20951
1.20302
1.19643
1.18974
1.18294
1.17604
1.16904
1.16195
1.15475
1.14746
1.14007
1.13258
1.12499
1.11731
1.10953
1.10165
1.09368
1.0856
1.07743
1.06916
1.06079
1.05232
1.04375
1.03508
1.02631
1.01743
1.00846
0.999379
0.990198
0.980913
0.971524
0.962031
0.952433
0.942731
0.932923
0.92301
0.912992
0.902869
0.892641
0.882308
0.871871
0.861331
0.850687
0.83994
0.829092
0.818143
0.807095
0.795949
0.784705
0.773366
0.761933
0.750408
0.738792
0.727089
0.715299
0.703424
0.691469
0.679433
0.667321
0.655135
0.642876
0.630548
0.618153
0.605694
0.593173
0.580593
0.567956
0.555263
0.542519
0.529723
0.516877
0.503983
0.491042
0.478053
0.465017
0.451933
0.438799
0.425612
0.41237
0.399067
0.385699
0.372256
0.358732
0.345116
0.331395
0.317545
0.303527
0.289333
0.274928
0.260262
0.245283
0.229918
0.214075
0.197623
0.18042
0.162265
0.14283
0.12158
0.0974443
0.0677859
0.0360423
0.0518132
0.13025
0.186104
0.235474
0.280822
0.323478
0.363785
0.402319
0.439429
0.475323
0.510171
0.544095
0.577185
0.609504
0.641097
0.671993
0.702211
0.73176
0.760643
0.788856
0.816393
0.843245
0.869403
0.894855
0.919591
0.943598
0.966868
0.989392
1.01116
1.03217
1.05242
1.0719
1.09062
1.10857
1.12575
1.14218
1.15786
1.17279
1.18698
1.20045
1.2132
1.22525
1.23661
1.24728
1.2573
1.26666
1.27539
1.28351
1.29104
1.29799
1.30437
1.31021
1.31551
1.32031
1.32461
1.32842
1.33178
1.33469
1.33717
1.33923
1.34089
1.34217
1.34308
1.34362
1.34383
1.3437
1.34326
1.34251
1.34147
1.34014
1.33855
1.33669
1.33458
1.33223
1.32965
1.32684
1.32382
1.32059
1.31717
1.31355
1.30975
1.30577
1.30162
1.29731
1.29283
1.2882
1.28342
1.2785
1.27344
1.26824
1.26291
1.25745
1.25186
1.24616
1.24033
1.23439
1.22834
1.22217
1.21589
1.20951
1.20302
1.19643
1.18974
1.18294
1.17604
1.16904
1.16195
1.15475
1.14746
1.14007
1.13258
1.12499
1.11731
1.10953
1.10165
1.09367
1.0856
1.07743
1.06916
1.06079
1.05232
1.04375
1.03508
1.0263
1.01743
1.00846
0.999378
0.990197
0.980912
0.971523
0.96203
0.952432
0.942729
0.932922
0.923009
0.912991
0.902868
0.89264
0.882307
0.87187
0.861329
0.850686
0.839939
0.829091
0.818142
0.807094
0.795948
0.784704
0.773365
0.761932
0.750407
0.738791
0.727088
0.715298
0.703424
0.691468
0.679433
0.66732
0.655134
0.642875
0.630547
0.618152
0.605693
0.593172
0.580592
0.567955
0.555263
0.542518
0.529722
0.516876
0.503983
0.491041
0.478053
0.465017
0.451932
0.438798
0.425612
0.412369
0.399067
0.385698
0.372256
0.358732
0.345115
0.331395
0.317544
0.303527
0.289333
0.274927
0.260262
0.245282
0.229918
0.214074
0.197623
0.18042
0.162265
0.14283
0.121581
0.0974421
0.0677822
0.0360361
0.0776714
0.185769
0.255997
0.315921
0.371156
0.423424
0.473406
0.52153
0.568085
0.613271
0.657243
0.700118
0.741982
0.782902
0.822923
0.862077
0.900381
0.937846
0.974472
1.01026
1.04519
1.07926
1.11245
1.14475
1.17614
1.20661
1.23615
1.26474
1.29238
1.31906
1.34476
1.36949
1.39325
1.41603
1.43784
1.45869
1.47857
1.49751
1.5155
1.53258
1.54873
1.56399
1.57837
1.59189
1.60456
1.6164
1.62743
1.63769
1.64719
1.65594
1.66398
1.67132
1.67798
1.68398
1.68936
1.69412
1.69829
1.70189
1.70494
1.70745
1.70946
1.71098
1.71202
1.71261
1.71275
1.71248
1.7118
1.71073
1.70929
1.70748
1.70534
1.70285
1.70005
1.69695
1.69354
1.68986
1.6859
1.68168
1.6772
1.67249
1.66754
1.66236
1.65697
1.65137
1.64557
1.63957
1.63338
1.62701
1.62046
1.61375
1.60686
1.59982
1.59261
1.58526
1.57775
1.5701
1.56231
1.55437
1.5463
1.53809
1.52976
1.52129
1.51269
1.50396
1.49511
1.48614
1.47704
1.46782
1.45847
1.449
1.43941
1.4297
1.41987
1.40992
1.39984
1.38965
1.37933
1.36889
1.35832
1.34763
1.33682
1.32588
1.31482
1.30363
1.29232
1.28087
1.26931
1.25761
1.24578
1.23382
1.22174
1.20952
1.19718
1.1847
1.17209
1.15935
1.14648
1.13349
1.12036
1.1071
1.09371
1.0802
1.06656
1.05279
1.0389
1.02488
1.01074
0.996487
0.982112
0.967621
0.953017
0.938301
0.923476
0.908545
0.89351
0.878375
0.863143
0.847816
0.832397
0.816891
0.8013
0.785626
0.769875
0.754048
0.738149
0.722181
0.706145
0.690046
0.673885
0.657664
0.641385
0.625048
0.608654
0.592203
0.575694
0.559125
0.542493
0.525794
0.509023
0.492172
0.475233
0.458195
0.441044
0.423763
0.406329
0.388711
0.370878
0.352788
0.334393
0.315642
0.296454
0.276731
0.256344
0.235117
0.212845
0.189182
0.163545
0.134719
0.0992089
0.0424584
0.0776729
0.185771
0.255999
0.315922
0.371157
0.423424
0.473406
0.52153
0.568085
0.613271
0.657243
0.700118
0.741982
0.782902
0.822923
0.862076
0.900381
0.937846
0.974472
1.01026
1.04519
1.07925
1.11245
1.14475
1.17614
1.20661
1.23615
1.26474
1.29238
1.31905
1.34476
1.36949
1.39325
1.41603
1.43784
1.45868
1.47857
1.49751
1.5155
1.53257
1.54873
1.56399
1.57837
1.59189
1.60456
1.6164
1.62743
1.63769
1.64718
1.65594
1.66398
1.67131
1.67797
1.68398
1.68935
1.69412
1.69829
1.70188
1.70493
1.70745
1.70946
1.71098
1.71202
1.7126
1.71275
1.71248
1.7118
1.71073
1.70929
1.70748
1.70533
1.70285
1.70005
1.69694
1.69354
1.68985
1.6859
1.68167
1.6772
1.67249
1.66754
1.66236
1.65697
1.65137
1.64556
1.63957
1.63338
1.62701
1.62046
1.61374
1.60686
1.59981
1.59261
1.58526
1.57775
1.5701
1.5623
1.55437
1.5463
1.53809
1.52975
1.52129
1.51269
1.50396
1.49511
1.48614
1.47704
1.46781
1.45847
1.449
1.43941
1.4297
1.41987
1.40992
1.39984
1.38964
1.37933
1.36888
1.35832
1.34763
1.33682
1.32588
1.31482
1.30363
1.29232
1.28087
1.2693
1.25761
1.24578
1.23382
1.22174
1.20952
1.19717
1.1847
1.17209
1.15935
1.14648
1.13348
1.12036
1.1071
1.09371
1.0802
1.06655
1.05279
1.0389
1.02488
1.01074
0.996486
0.982111
0.96762
0.953015
0.938299
0.923475
0.908544
0.893509
0.878374
0.863142
0.847815
0.832396
0.81689
0.801298
0.785625
0.769874
0.754047
0.738148
0.72218
0.706144
0.690045
0.673884
0.657663
0.641384
0.625047
0.608653
0.592202
0.575693
0.559124
0.542492
0.525793
0.509022
0.492171
0.475232
0.458194
0.441043
0.423763
0.406328
0.38871
0.370878
0.352788
0.334393
0.315642
0.296454
0.276731
0.256344
0.235117
0.212845
0.189183
0.163547
0.13472
0.09921
0.0424696
0.0999572
0.233087
0.314823
0.382717
0.444957
0.503902
0.560469
0.615115
0.668113
0.719645
0.769848
0.818826
0.866659
0.913409
0.959121
1.00383
1.04755
1.0903
1.13208
1.17289
1.21271
1.25155
1.28938
1.32619
1.36197
1.39669
1.43036
1.46294
1.49444
1.52485
1.55414
1.58233
1.60941
1.63539
1.66025
1.68401
1.70668
1.72827
1.74879
1.76825
1.78666
1.80405
1.82044
1.83583
1.85027
1.86375
1.87632
1.88799
1.89879
1.90874
1.91787
1.9262
1.93376
1.94056
1.94664
1.95201
1.95671
1.96075
1.96416
1.96696
1.96918
1.97083
1.97193
1.97251
1.97259
1.97219
1.97132
1.97
1.96825
1.96609
1.96353
1.96058
1.95728
1.95362
1.94962
1.94529
1.94065
1.93572
1.93049
1.92498
1.91921
1.91318
1.90689
1.90037
1.89362
1.88664
1.87945
1.87205
1.86445
1.85665
1.84866
1.84048
1.83213
1.8236
1.8149
1.80603
1.797
1.78781
1.77847
1.76897
1.75932
1.74952
1.73958
1.72949
1.71925
1.70888
1.69836
1.68771
1.67691
1.66598
1.65491
1.6437
1.63235
1.62087
1.60925
1.59749
1.58559
1.57355
1.56137
1.54906
1.5366
1.524
1.51126
1.49838
1.48535
1.47219
1.45887
1.44541
1.43181
1.41806
1.40416
1.39012
1.37593
1.36159
1.34711
1.33247
1.31769
1.30277
1.2877
1.27248
1.25711
1.24161
1.22596
1.21016
1.19423
1.17816
1.16195
1.14561
1.12914
1.11253
1.0958
1.07894
1.06196
1.04487
1.02765
1.01033
0.992889
0.975347
0.957703
0.93996
0.922123
0.904194
0.886177
0.868077
0.849895
0.831637
0.813304
0.7949
0.776427
0.757887
0.739282
0.720614
0.701882
0.683087
0.664228
0.645304
0.62631
0.607243
0.588098
0.568867
0.54954
0.530107
0.510552
0.490859
0.471003
0.450957
0.430689
0.410157
0.389313
0.368098
0.346431
0.324225
0.301351
0.27763
0.252829
0.226572
0.198163
0.16605
0.125465
0.0554194
0.0999589
0.233089
0.314824
0.382717
0.444957
0.503902
0.560469
0.615115
0.668112
0.719644
0.769847
0.818825
0.866658
0.913408
0.959121
1.00383
1.04755
1.0903
1.13208
1.17289
1.21271
1.25155
1.28938
1.32619
1.36197
1.39669
1.43036
1.46294
1.49444
1.52484
1.55414
1.58233
1.60941
1.63538
1.66025
1.68401
1.70668
1.72827
1.74879
1.76824
1.78666
1.80405
1.82044
1.83583
1.85026
1.86375
1.87632
1.88799
1.89879
1.90874
1.91787
1.9262
1.93376
1.94056
1.94664
1.95201
1.95671
1.96075
1.96416
1.96696
1.96917
1.97082
1.97193
1.97251
1.97259
1.97219
1.97131
1.97
1.96825
1.96608
1.96352
1.96058
1.95727
1.95361
1.94961
1.94529
1.94065
1.93571
1.93049
1.92498
1.91921
1.91317
1.90689
1.90037
1.89362
1.88664
1.87945
1.87205
1.86444
1.85664
1.84865
1.84048
1.83212
1.8236
1.8149
1.80603
1.797
1.78781
1.77847
1.76897
1.75932
1.74952
1.73957
1.72949
1.71925
1.70888
1.69836
1.68771
1.67691
1.66598
1.65491
1.6437
1.63235
1.62087
1.60925
1.59749
1.58559
1.57355
1.56137
1.54906
1.5366
1.524
1.51126
1.49838
1.48535
1.47218
1.45887
1.44541
1.43181
1.41806
1.40416
1.39012
1.37593
1.36159
1.3471
1.33247
1.31769
1.30277
1.28769
1.27248
1.25711
1.24161
1.22595
1.21016
1.19423
1.17816
1.16195
1.14561
1.12914
1.11253
1.0958
1.07894
1.06196
1.04487
1.02765
1.01032
0.992888
0.975346
0.957702
0.939959
0.922122
0.904193
0.886176
0.868076
0.849895
0.831636
0.813303
0.794899
0.776426
0.757886
0.739281
0.720613
0.701881
0.683086
0.664228
0.645303
0.626309
0.607243
0.588097
0.568866
0.549539
0.530106
0.510552
0.490858
0.471003
0.450957
0.430688
0.410156
0.389312
0.368097
0.346431
0.324225
0.301351
0.27763
0.252829
0.226572
0.198163
0.166049
0.125463
0.0554215
0.119955
0.27606
0.368809
0.444222
0.512685
0.577309
0.639301
0.699222
0.757371
0.813935
0.869042
0.92279
0.975255
1.0265
1.07656
1.12549
1.1733
1.22001
1.26563
1.31016
1.35359
1.39593
1.43716
1.47727
1.51624
1.55406
1.59072
1.62621
1.66051
1.69363
1.72554
1.75625
1.78575
1.81404
1.84114
1.86704
1.89175
1.91528
1.93764
1.95886
1.97894
1.9979
2.01577
2.03256
2.0483
2.063
2.07671
2.08943
2.10121
2.11205
2.122
2.13107
2.13929
2.14669
2.1533
2.15913
2.16422
2.1686
2.17228
2.17529
2.17766
2.17941
2.18056
2.18113
2.18115
2.18064
2.17962
2.1781
2.17612
2.17367
2.17079
2.16749
2.16379
2.15969
2.15523
2.15041
2.14524
2.13974
2.13392
2.12779
2.12137
2.11466
2.10768
2.10044
2.09294
2.08519
2.07721
2.069
2.06056
2.05191
2.04305
2.03398
2.02472
2.01526
2.00562
1.99579
1.98579
1.9756
1.96525
1.95473
1.94404
1.93319
1.92218
1.91101
1.89968
1.8882
1.87656
1.86477
1.85283
1.84074
1.82849
1.8161
1.80355
1.79085
1.778
1.765
1.75185
1.73855
1.72509
1.71149
1.69773
1.68381
1.66974
1.65552
1.64114
1.6266
1.61191
1.59706
1.58205
1.56688
1.55155
1.53606
1.52041
1.5046
1.48863
1.47251
1.45622
1.43977
1.42316
1.4064
1.38947
1.37239
1.35516
1.33777
1.32023
1.30254
1.2847
1.26672
1.24859
1.23032
1.21191
1.19337
1.1747
1.15589
1.13696
1.11791
1.09874
1.07945
1.06006
1.04055
1.02095
1.00124
0.981441
0.961549
0.941569
0.921505
0.901361
0.881138
0.860841
0.840471
0.82003
0.79952
0.778941
0.758295
0.737579
0.716792
0.695931
0.674993
0.653972
0.632861
0.61165
0.590329
0.568884
0.547296
0.525545
0.503603
0.48144
0.459016
0.436285
0.413187
0.389649
0.365573
0.340829
0.315227
0.288501
0.260212
0.229504
0.194424
0.148966
0.0667959
0.119956
0.276062
0.36881
0.444222
0.512685
0.577308
0.639301
0.699221
0.757371
0.813934
0.869042
0.92279
0.975254
1.0265
1.07656
1.12549
1.1733
1.22001
1.26562
1.31015
1.35359
1.39593
1.43716
1.47726
1.51624
1.55406
1.59072
1.62621
1.66051
1.69362
1.72554
1.75624
1.78575
1.81404
1.84114
1.86703
1.89174
1.91527
1.93764
1.95885
1.97893
1.9979
2.01577
2.03256
2.04829
2.063
2.07671
2.08943
2.10121
2.11205
2.122
2.13107
2.13929
2.14669
2.15329
2.15913
2.16422
2.16859
2.17228
2.17529
2.17766
2.1794
2.18055
2.18113
2.18115
2.18064
2.17962
2.1781
2.17611
2.17367
2.17079
2.16749
2.16379
2.15969
2.15523
2.1504
2.14523
2.13973
2.13392
2.12779
2.12137
2.11466
2.10768
2.10044
2.09294
2.08519
2.07721
2.069
2.06056
2.05191
2.04304
2.03398
2.02472
2.01526
2.00562
1.99579
1.98578
1.9756
1.96525
1.95473
1.94404
1.93319
1.92218
1.91101
1.89968
1.8882
1.87656
1.86477
1.85283
1.84074
1.82849
1.81609
1.80355
1.79085
1.778
1.765
1.75185
1.73855
1.72509
1.71149
1.69773
1.68381
1.66974
1.65552
1.64114
1.6266
1.61191
1.59706
1.58205
1.56688
1.55155
1.53606
1.52041
1.5046
1.48863
1.4725
1.45622
1.43977
1.42316
1.4064
1.38947
1.37239
1.35516
1.33777
1.32023
1.30254
1.2847
1.26672
1.24859
1.23032
1.21191
1.19337
1.1747
1.15589
1.13696
1.11791
1.09874
1.07945
1.06006
1.04055
1.02095
1.00124
0.98144
0.961548
0.941569
0.921505
0.90136
0.881138
0.86084
0.84047
0.820029
0.799519
0.778941
0.758294
0.737578
0.716791
0.695931
0.674993
0.653971
0.63286
0.61165
0.590329
0.568883
0.547296
0.525544
0.503603
0.481439
0.459016
0.436284
0.413187
0.389648
0.365573
0.340829
0.315227
0.288501
0.260212
0.229505
0.194424
0.148965
0.0667963
0.138421
0.316614
0.420175
0.503024
0.57749
0.647411
0.71431
0.778886
0.841497
0.902355
0.961595
1.01932
1.0756
1.13051
1.18409
1.23639
1.28743
1.33725
1.38586
1.43327
1.47947
1.52448
1.56829
1.61088
1.65226
1.6924
1.73131
1.76897
1.80537
1.8405
1.87437
1.90696
1.93827
1.96831
1.99707
2.02458
2.05082
2.07582
2.09958
2.12213
2.14347
2.16363
2.18263
2.20049
2.21723
2.23288
2.24746
2.26101
2.27353
2.28508
2.29566
2.30531
2.31406
2.32193
2.32895
2.33515
2.34056
2.3452
2.3491
2.35228
2.35478
2.35661
2.3578
2.35838
2.35836
2.35778
2.35664
2.35497
2.3528
2.35014
2.34701
2.34343
2.33941
2.33498
2.33014
2.32492
2.31933
2.31338
2.30708
2.30046
2.29352
2.28627
2.27873
2.2709
2.2628
2.25443
2.2458
2.23693
2.22781
2.21846
2.20889
2.1991
2.18909
2.17888
2.16846
2.15785
2.14704
2.13604
2.12486
2.1135
2.10196
2.09024
2.07835
2.06629
2.05406
2.04166
2.02909
2.01636
2.00347
1.99042
1.9772
1.96382
1.95027
1.93657
1.9227
1.90868
1.89449
1.88013
1.86562
1.85094
1.8361
1.82109
1.80591
1.79057
1.77507
1.75939
1.74355
1.72754
1.71136
1.69501
1.67849
1.6618
1.64494
1.62791
1.61071
1.59333
1.57579
1.55807
1.54019
1.52214
1.50392
1.48553
1.46698
1.44826
1.42939
1.41035
1.39115
1.3718
1.3523
1.33264
1.31284
1.29289
1.2728
1.25258
1.23222
1.21172
1.19111
1.17037
1.14951
1.12853
1.10745
1.08626
1.06497
1.04357
1.02209
1.00051
0.978846
0.957097
0.935266
0.913356
0.89137
0.869309
0.847173
0.824963
0.802679
0.780318
0.757879
0.735358
0.71275
0.690048
0.667244
0.644326
0.621282
0.598096
0.574746
0.551209
0.527453
0.503443
0.479133
0.454463
0.429359
0.403721
0.377409
0.350218
0.321832
0.29172
0.258861
0.220912
0.170736
0.077245
0.138423
0.316616
0.420176
0.503024
0.577489
0.647411
0.71431
0.778885
0.841497
0.902354
0.961595
1.01932
1.0756
1.13051
1.18409
1.23639
1.28743
1.33725
1.38586
1.43326
1.47947
1.52448
1.56828
1.61088
1.65225
1.6924
1.73131
1.76897
1.80537
1.8405
1.87436
1.90695
1.93827
1.96831
1.99707
2.02457
2.05082
2.07582
2.09958
2.12213
2.14347
2.16363
2.18263
2.20049
2.21723
2.23288
2.24746
2.261
2.27353
2.28507
2.29566
2.30531
2.31405
2.32192
2.32895
2.33515
2.34055
2.34519
2.34909
2.35228
2.35478
2.35661
2.3578
2.35838
2.35836
2.35777
2.35664
2.35497
2.3528
2.35014
2.34701
2.34342
2.33941
2.33497
2.33014
2.32492
2.31933
2.31338
2.30708
2.30046
2.29352
2.28627
2.27873
2.2709
2.26279
2.25443
2.2458
2.23692
2.22781
2.21846
2.20889
2.1991
2.18909
2.17888
2.16846
2.15784
2.14704
2.13604
2.12486
2.1135
2.10196
2.09024
2.07835
2.06629
2.05406
2.04166
2.02909
2.01636
2.00347
1.99041
1.9772
1.96381
1.95027
1.93657
1.9227
1.90867
1.89448
1.88013
1.86562
1.85094
1.83609
1.82109
1.80591
1.79057
1.77507
1.75939
1.74355
1.72754
1.71136
1.69501
1.67849
1.6618
1.64494
1.62791
1.61071
1.59333
1.57579
1.55807
1.54019
1.52214
1.50392
1.48553
1.46698
1.44826
1.42938
1.41035
1.39115
1.3718
1.35229
1.33264
1.31284
1.29289
1.2728
1.25258
1.23221
1.21172
1.19111
1.17037
1.14951
1.12853
1.10745
1.08626
1.06497
1.04357
1.02209
1.00051
0.978845
0.957096
0.935265
0.913356
0.89137
0.869308
0.847172
0.824963
0.802678
0.780318
0.757879
0.735358
0.71275
0.690048
0.667243
0.644326
0.621282
0.598095
0.574746
0.551208
0.527453
0.503443
0.479132
0.454463
0.429359
0.403721
0.377409
0.350218
0.321832
0.29172
0.258862
0.220912
0.170736
0.0772451
0.156316
0.355634
0.469972
0.560262
0.640674
0.715732
0.787274
0.856153
0.922807
0.987486
1.05035
1.1115
1.17104
1.22903
1.28554
1.3406
1.39427
1.44658
1.49756
1.54722
1.59558
1.64264
1.68841
1.7329
1.77609
1.81798
1.85857
1.89784
1.93581
1.97245
2.00776
2.04175
2.07441
2.10575
2.13576
2.16447
2.19186
2.21796
2.24278
2.26633
2.28864
2.30971
2.32957
2.34825
2.36576
2.38214
2.3974
2.41158
2.42469
2.43678
2.44787
2.45798
2.46714
2.47539
2.48275
2.48924
2.49491
2.49977
2.50385
2.50719
2.5098
2.51171
2.51294
2.51353
2.5135
2.51286
2.51164
2.50987
2.50756
2.50473
2.50141
2.49761
2.49335
2.48864
2.48352
2.47798
2.47205
2.46575
2.45907
2.45205
2.44469
2.43701
2.42901
2.4207
2.41211
2.40323
2.39408
2.38466
2.37499
2.36507
2.35491
2.34452
2.3339
2.32306
2.312
2.30073
2.28926
2.27758
2.26571
2.25365
2.24139
2.22895
2.21632
2.20351
2.19052
2.17736
2.16401
2.15049
2.1368
2.12293
2.10889
2.09468
2.0803
2.06575
2.05102
2.03612
2.02105
2.00581
1.9904
1.97481
1.95905
1.94311
1.927
1.91072
1.89425
1.87761
1.8608
1.8438
1.82663
1.80927
1.79174
1.77402
1.75613
1.73806
1.7198
1.70137
1.68275
1.66396
1.64499
1.62584
1.60651
1.58701
1.56733
1.54748
1.52746
1.50727
1.48692
1.4664
1.44571
1.42487
1.40387
1.38272
1.36143
1.33998
1.31839
1.29667
1.27481
1.25281
1.2307
1.20846
1.1861
1.16363
1.14104
1.11835
1.09556
1.07267
1.04969
1.02661
1.00345
0.980199
0.956865
0.933448
0.909951
0.886373
0.862714
0.838973
0.815147
0.791234
0.767229
0.743126
0.718917
0.694592
0.670139
0.645542
0.620783
0.595838
0.570678
0.545268
0.519561
0.493499
0.467004
0.439967
0.412236
0.383582
0.353641
0.321783
0.286826
0.246047
0.191273
0.08703
0.156318
0.355636
0.469973
0.560262
0.640673
0.715732
0.787273
0.856152
0.922806
0.987485
1.05035
1.1115
1.17104
1.22903
1.28553
1.3406
1.39427
1.44658
1.49756
1.54722
1.59558
1.64264
1.68841
1.7329
1.77609
1.81798
1.85857
1.89784
1.9358
1.97244
2.00776
2.04175
2.07441
2.10575
2.13576
2.16446
2.19186
2.21796
2.24278
2.26633
2.28863
2.30971
2.32957
2.34825
2.36576
2.38214
2.3974
2.41157
2.42469
2.43678
2.44786
2.45797
2.46714
2.47539
2.48274
2.48924
2.49491
2.49977
2.50385
2.50719
2.5098
2.51171
2.51294
2.51353
2.5135
2.51286
2.51164
2.50987
2.50756
2.50473
2.50141
2.49761
2.49335
2.48864
2.48352
2.47798
2.47205
2.46574
2.45907
2.45205
2.44469
2.437
2.429
2.4207
2.41211
2.40323
2.39408
2.38466
2.37499
2.36507
2.35491
2.34452
2.3339
2.32306
2.312
2.30073
2.28926
2.27758
2.26571
2.25365
2.24139
2.22895
2.21632
2.20351
2.19052
2.17735
2.16401
2.15049
2.1368
2.12293
2.10889
2.09468
2.0803
2.06575
2.05102
2.03612
2.02105
2.00581
1.9904
1.97481
1.95905
1.94311
1.927
1.91071
1.89425
1.87761
1.86079
1.8438
1.82662
1.80927
1.79174
1.77402
1.75613
1.73806
1.7198
1.70137
1.68275
1.66396
1.64499
1.62584
1.60651
1.58701
1.56733
1.54748
1.52746
1.50727
1.48691
1.46639
1.44571
1.42487
1.40387
1.38272
1.36142
1.33998
1.31839
1.29667
1.27481
1.25281
1.2307
1.20846
1.1861
1.16362
1.14104
1.11835
1.09556
1.07267
1.04969
1.02661
1.00345
0.980199
0.956864
0.933448
0.909951
0.886372
0.862713
0.838972
0.815147
0.791234
0.767229
0.743126
0.718917
0.694592
0.670138
0.645542
0.620782
0.595837
0.570678
0.545268
0.519561
0.493499
0.467004
0.439967
0.412236
0.383582
0.353641
0.321784
0.286826
0.246047
0.191273
0.0870301
0.174089
0.393881
0.518858
0.616577
0.702914
0.783028
0.859055
0.93201
1.00242
1.07059
1.1367
1.20089
1.26325
1.32388
1.38285
1.44022
1.49604
1.55036
1.60322
1.65465
1.70467
1.75331
1.80057
1.84647
1.89101
1.93419
1.976
2.01646
2.05556
2.09329
2.12965
2.16465
2.19829
2.23057
2.26149
2.29106
2.3193
2.3462
2.3718
2.39609
2.4191
2.44085
2.46136
2.48065
2.49874
2.51567
2.53145
2.54611
2.55968
2.57219
2.58367
2.59414
2.60363
2.61218
2.6198
2.62654
2.63242
2.63746
2.6417
2.64516
2.64787
2.64986
2.65114
2.65175
2.65171
2.65105
2.64978
2.64793
2.64552
2.64257
2.63911
2.63514
2.6307
2.62579
2.62044
2.61466
2.60847
2.60188
2.59491
2.58757
2.57987
2.57184
2.56347
2.55479
2.54579
2.5365
2.52692
2.51707
2.50694
2.49655
2.48591
2.47503
2.4639
2.45254
2.44095
2.42914
2.41711
2.40487
2.39242
2.37977
2.36692
2.35387
2.34062
2.32719
2.31356
2.29974
2.28574
2.27156
2.25719
2.24263
2.2279
2.21299
2.19789
2.18261
2.16715
2.15152
2.1357
2.1197
2.10352
2.08715
2.07061
2.05388
2.03697
2.01987
2.00259
1.98512
1.96746
1.94962
1.9316
1.91338
1.89497
1.87638
1.8576
1.83863
1.81947
1.80012
1.78058
1.76086
1.74095
1.72085
1.70057
1.6801
1.65945
1.63862
1.61761
1.59643
1.57507
1.55353
1.53183
1.50996
1.48792
1.46573
1.44337
1.42087
1.39821
1.3754
1.35246
1.32937
1.30615
1.2828
1.25932
1.23572
1.21201
1.18817
1.16423
1.14018
1.11603
1.09178
1.06743
1.04298
1.01845
0.993819
0.969104
0.944299
0.919406
0.894424
0.86935
0.844182
0.818915
0.793545
0.768064
0.742463
0.716731
0.690853
0.664811
0.638584
0.612142
0.58545
0.558462
0.531115
0.503326
0.474979
0.445902
0.415838
0.384372
0.350788
0.313726
0.270124
0.210858
0.096383
0.174091
0.393883
0.518859
0.616577
0.702914
0.783027
0.859055
0.93201
1.00242
1.07059
1.1367
1.20088
1.26325
1.32388
1.38285
1.44022
1.49604
1.55036
1.60322
1.65465
1.70467
1.75331
1.80057
1.84647
1.89101
1.93418
1.976
2.01646
2.05556
2.09329
2.12965
2.16465
2.19829
2.23057
2.26149
2.29106
2.3193
2.3462
2.37179
2.39609
2.4191
2.44085
2.46136
2.48065
2.49874
2.51567
2.53145
2.54611
2.55968
2.57219
2.58366
2.59413
2.60363
2.61218
2.6198
2.62654
2.63242
2.63746
2.6417
2.64516
2.64787
2.64986
2.65114
2.65175
2.65171
2.65105
2.64978
2.64793
2.64552
2.64257
2.63911
2.63514
2.6307
2.62579
2.62044
2.61466
2.60847
2.60188
2.59491
2.58757
2.57987
2.57184
2.56347
2.55478
2.54579
2.5365
2.52692
2.51707
2.50694
2.49655
2.48591
2.47502
2.4639
2.45254
2.44095
2.42914
2.41711
2.40487
2.39242
2.37977
2.36692
2.35387
2.34062
2.32719
2.31356
2.29974
2.28574
2.27156
2.25719
2.24263
2.2279
2.21298
2.19789
2.18261
2.16715
2.15152
2.1357
2.1197
2.10352
2.08715
2.07061
2.05388
2.03697
2.01987
2.00259
1.98512
1.96746
1.94962
1.93159
1.91338
1.89497
1.87638
1.8576
1.83863
1.81947
1.80012
1.78058
1.76086
1.74095
1.72085
1.70057
1.6801
1.65945
1.63862
1.61761
1.59643
1.57507
1.55353
1.53183
1.50996
1.48792
1.46573
1.44337
1.42087
1.39821
1.3754
1.35246
1.32937
1.30615
1.2828
1.25932
1.23572
1.21201
1.18817
1.16423
1.14018
1.11603
1.09178
1.06743
1.04298
1.01845
0.993819
0.969103
0.944299
0.919406
0.894424
0.86935
0.844182
0.818915
0.793545
0.768064
0.742463
0.716731
0.690853
0.664811
0.638584
0.612142
0.58545
0.558462
0.531115
0.503326
0.474979
0.445902
0.415838
0.384372
0.350788
0.313726
0.270125
0.210858
0.0963831
0.191589
0.431681
0.567228
0.672373
0.764625
0.84974
0.930144
1.00701
1.08096
1.15235
1.22142
1.28832
1.35317
1.41608
1.47714
1.53643
1.59401
1.64995
1.7043
1.7571
1.80839
1.85821
1.90657
1.95349
1.99899
2.04308
2.08576
2.12703
2.16691
2.20539
2.24247
2.27816
2.31246
2.34538
2.37691
2.40708
2.43589
2.46336
2.48948
2.51429
2.5378
2.56003
2.581
2.60072
2.61923
2.63656
2.65271
2.66773
2.68164
2.69446
2.70623
2.71698
2.72672
2.7355
2.74334
2.75027
2.75632
2.76151
2.76588
2.76945
2.77225
2.7743
2.77563
2.77627
2.77625
2.77557
2.77428
2.77238
2.76991
2.76688
2.76331
2.75923
2.75465
2.74959
2.74407
2.73811
2.73171
2.72491
2.71771
2.71012
2.70217
2.69385
2.6852
2.67621
2.6669
2.65728
2.64736
2.63715
2.62666
2.61589
2.60486
2.59357
2.58203
2.57024
2.55822
2.54596
2.53348
2.52077
2.50785
2.49471
2.48136
2.4678
2.45404
2.44008
2.42592
2.41156
2.397
2.38226
2.36732
2.35218
2.33686
2.32135
2.30565
2.28976
2.27368
2.25742
2.24096
2.22431
2.20748
2.19045
2.17324
2.15583
2.13823
2.12044
2.10245
2.08427
2.0659
2.04733
2.02857
2.00961
1.99046
1.97111
1.95156
1.93182
1.91187
1.89174
1.8714
1.85087
1.83015
1.80923
1.78812
1.76681
1.74532
1.72364
1.70177
1.67971
1.65747
1.63506
1.61246
1.58969
1.56675
1.54363
1.52035
1.49691
1.47331
1.44956
1.42566
1.4016
1.37741
1.35307
1.3286
1.304
1.27927
1.25442
1.22944
1.20435
1.17915
1.15384
1.12842
1.1029
1.07728
1.05155
1.02573
0.999808
0.973789
0.947672
0.921454
0.895134
0.868707
0.84217
0.815514
0.788733
0.761816
0.734748
0.707513
0.680089
0.652447
0.62455
0.596351
0.567783
0.538756
0.509141
0.47875
0.447292
0.414305
0.378986
0.339806
0.293385
0.229688
0.105338
0.191591
0.431683
0.567228
0.672373
0.764624
0.849739
0.930143
1.00701
1.08096
1.15235
1.22142
1.28831
1.35317
1.41608
1.47714
1.53643
1.59401
1.64995
1.7043
1.7571
1.80839
1.85821
1.90657
1.95349
1.99899
2.04308
2.08576
2.12703
2.16691
2.20538
2.24247
2.27816
2.31246
2.34537
2.37691
2.40708
2.43589
2.46335
2.48948
2.51429
2.5378
2.56003
2.58099
2.60072
2.61923
2.63656
2.65271
2.66773
2.68164
2.69446
2.70623
2.71698
2.72672
2.7355
2.74334
2.75027
2.75632
2.76151
2.76588
2.76945
2.77225
2.7743
2.77563
2.77627
2.77624
2.77557
2.77427
2.77238
2.76991
2.76688
2.76331
2.75923
2.75465
2.74959
2.74407
2.7381
2.73171
2.72491
2.71771
2.71012
2.70217
2.69385
2.6852
2.67621
2.6669
2.65728
2.64736
2.63715
2.62666
2.61589
2.60486
2.59357
2.58203
2.57024
2.55822
2.54596
2.53348
2.52077
2.50785
2.49471
2.48136
2.4678
2.45404
2.44008
2.42591
2.41156
2.397
2.38225
2.36731
2.35218
2.33686
2.32135
2.30565
2.28976
2.27368
2.25741
2.24096
2.22431
2.20748
2.19045
2.17324
2.15583
2.13823
2.12044
2.10245
2.08427
2.0659
2.04733
2.02857
2.00961
1.99046
1.97111
1.95156
1.93181
1.91187
1.89174
1.8714
1.85087
1.83015
1.80923
1.78812
1.76681
1.74532
1.72364
1.70177
1.67971
1.65747
1.63506
1.61246