/*--------------------------------*- C++ -*----------------------------------*\
  =========                 |
  \\      /  F ield         | OpenFOAM: The Open Source CFD Toolbox
   \\    /   O peration     | Website:  https://openfoam.org
    \\  /    A nd           | Version:  8
     \\/     M anipulation  |
\*---------------------------------------------------------------------------*/
FoamFile
{
    version     2.0;
    format      ascii;
    class       volScalarField;
    location    "2500";
    object      nut;
}
// * * * * * * * * * * * * * * * * * * * * * * * * * * * * * * * * * * * * * //

dimensions      [0 2 -1 0 0 0 0];

internalField   nonuniform List<scalar> 
48000
(
8.45888e-05
7.36969e-05
9.12234e-05
0.000104361
0.000115254
0.000124397
0.000132316
0.000139446
0.000146004
0.00015202
0.000157618
0.000162862
0.000167801
0.000172472
0.000176905
0.000181124
0.000185146
0.000188987
0.00019266
0.000196174
0.000199538
0.000202759
0.000205845
0.000208799
0.000211628
0.000214336
0.000216926
0.000219402
0.000221768
0.000224027
0.000226182
0.000228236
0.000230192
0.000232052
0.00023382
0.000235498
0.000237088
0.000238593
0.000240015
0.000241358
0.000242624
0.000243814
0.000244931
0.000245978
0.000246956
0.000247868
0.000248724
0.000249522
0.000250261
0.000250942
0.000251567
0.000252138
0.000252657
0.000253126
0.000253547
0.000253922
0.000254252
0.00025454
0.000254786
0.000254993
0.000255162
0.000255294
0.000255391
0.000255455
0.000255485
0.000255485
0.000255454
0.000255394
0.000255306
0.000255192
0.000255051
0.000254886
0.000254696
0.000254484
0.000254249
0.000253992
0.000253714
0.000253417
0.0002531
0.000252763
0.000252409
0.000252037
0.000251648
0.000251242
0.000250819
0.000250381
0.000249928
0.000249459
0.000248976
0.000248478
0.000247966
0.000247441
0.000246902
0.000246349
0.000245783
0.000245204
0.000244613
0.000244008
0.000243391
0.000242762
0.00024212
0.000241466
0.000240799
0.00024012
0.000239428
0.000238724
0.000238008
0.000237279
0.000236538
0.000235784
0.000235017
0.000234237
0.000233444
0.000232639
0.000231819
0.000230987
0.000230141
0.000229281
0.000228407
0.000227518
0.000226616
0.000225698
0.000224766
0.000223818
0.000222855
0.000221876
0.000220882
0.000219871
0.000218843
0.000217799
0.000216738
0.000215659
0.000214562
0.000213448
0.000212315
0.000211164
0.000209994
0.000208804
0.000207595
0.000206366
0.000205118
0.000203848
0.000202558
0.000201247
0.000199915
0.00019856
0.000197184
0.000195786
0.000194365
0.000192921
0.000191454
0.000189964
0.000188449
0.000186911
0.000185348
0.000183761
0.000182148
0.000180509
0.000178845
0.000177155
0.000175438
0.000173694
0.000171922
0.000170123
0.000168294
0.000166437
0.000164549
0.000162631
0.000160681
0.000158699
0.000156684
0.000154634
0.000152548
0.000150425
0.000148262
0.000146058
0.000143811
0.000141518
0.000139175
0.00013678
0.000134329
0.000131818
0.000129245
0.000126619
0.000123922
0.00012113
0.000118229
0.000115202
0.000112028
0.000108679
0.000105119
0.000101299
9.71703e-05
9.26749e-05
8.76425e-05
8.18597e-05
7.50021e-05
6.67561e-05
5.93052e-05
0.000263599
8.45861e-05
7.36978e-05
9.12242e-05
0.000104362
0.000115254
0.000124398
0.000132316
0.000139447
0.000146005
0.00015202
0.000157618
0.000162862
0.000167801
0.000172472
0.000176906
0.000181124
0.000185146
0.000188988
0.00019266
0.000196174
0.000199538
0.00020276
0.000205845
0.0002088
0.000211629
0.000214336
0.000216926
0.000219403
0.000221769
0.000224028
0.000226183
0.000228236
0.000230192
0.000232052
0.00023382
0.000235498
0.000237088
0.000238593
0.000240015
0.000241358
0.000242624
0.000243814
0.000244931
0.000245978
0.000246956
0.000247868
0.000248724
0.000249522
0.000250261
0.000250942
0.000251567
0.000252138
0.000252657
0.000253126
0.000253547
0.000253922
0.000254252
0.00025454
0.000254786
0.000254993
0.000255162
0.000255294
0.000255391
0.000255455
0.000255485
0.000255485
0.000255454
0.000255394
0.000255306
0.000255192
0.000255051
0.000254886
0.000254696
0.000254484
0.000254249
0.000253992
0.000253714
0.000253417
0.000253099
0.000252763
0.000252409
0.000252037
0.000251648
0.000251242
0.000250819
0.000250381
0.000249928
0.000249459
0.000248976
0.000248478
0.000247966
0.000247441
0.000246901
0.000246349
0.000245783
0.000245204
0.000244613
0.000244008
0.000243391
0.000242762
0.00024212
0.000241465
0.000240799
0.00024012
0.000239428
0.000238724
0.000238008
0.000237279
0.000236537
0.000235783
0.000235017
0.000234237
0.000233444
0.000232639
0.000231819
0.000230987
0.000230141
0.000229281
0.000228407
0.000227518
0.000226616
0.000225698
0.000224766
0.000223818
0.000222855
0.000221876
0.000220882
0.000219871
0.000218843
0.000217799
0.000216738
0.000215659
0.000214562
0.000213448
0.000212315
0.000211164
0.000209994
0.000208804
0.000207595
0.000206366
0.000205118
0.000203848
0.000202558
0.000201247
0.000199915
0.00019856
0.000197184
0.000195786
0.000194365
0.000192921
0.000191454
0.000189964
0.000188449
0.000186911
0.000185348
0.00018376
0.000182148
0.000180509
0.000178845
0.000177155
0.000175438
0.000173694
0.000171922
0.000170122
0.000168294
0.000166437
0.000164549
0.000162631
0.000160681
0.000158699
0.000156684
0.000154634
0.000152548
0.000150425
0.000148262
0.000146058
0.000143811
0.000141518
0.000139175
0.00013678
0.000134329
0.000131818
0.000129245
0.000126619
0.000123922
0.00012113
0.000118229
0.000115202
0.000112028
0.000108679
0.000105119
0.000101299
9.71702e-05
9.26747e-05
8.76417e-05
8.18559e-05
7.49879e-05
6.67181e-05
5.93006e-05
0.000263217
6.39426e-05
0.000470674
0.000747854
0.00094084
0.00108522
0.00120369
0.00130518
0.00139422
0.00147365
0.00154578
0.00161191
0.00167303
0.00172988
0.00178305
0.00183297
0.00188002
0.00192449
0.00196662
0.0020066
0.00204461
0.00208079
0.00211526
0.00214814
0.0021795
0.00220944
0.00223802
0.0022653
0.00229136
0.00231623
0.00233996
0.00236261
0.0023842
0.00240479
0.0024244
0.00244306
0.00246081
0.00247769
0.00249371
0.00250891
0.00252331
0.00253694
0.00254982
0.00256198
0.00257343
0.00258419
0.00259424
0.00260347
0.00261204
0.00262
0.0026274
0.00263426
0.00264062
0.00264649
0.00265188
0.00265682
0.00266132
0.00266539
0.00266905
0.00267232
0.0026752
0.00267772
0.00267988
0.00268169
0.00268317
0.00268433
0.00268518
0.00268572
0.00268598
0.00268595
0.00268565
0.00268509
0.00268427
0.00268321
0.0026819
0.00268036
0.0026786
0.00267662
0.00267442
0.00267201
0.00266941
0.0026666
0.00266361
0.00266043
0.00265706
0.00265352
0.0026498
0.00264591
0.00264186
0.00263764
0.00263326
0.00262872
0.00262402
0.00261917
0.00261416
0.00260901
0.00260371
0.00259825
0.00259266
0.00258691
0.00258102
0.00257499
0.00256882
0.0025625
0.00255603
0.00254942
0.00254267
0.00253578
0.00252874
0.00252155
0.00251421
0.00250673
0.0024991
0.00249132
0.00248338
0.0024753
0.00246705
0.00245865
0.00245009
0.00244137
0.00243249
0.00242344
0.00241422
0.00240483
0.00239527
0.00238553
0.00237561
0.00236552
0.00235524
0.00234477
0.00233411
0.00232326
0.00231222
0.00230097
0.00228953
0.00227788
0.00226602
0.00225395
0.00224167
0.00222917
0.00221645
0.0022035
0.00219033
0.00217694
0.0021633
0.00214944
0.00213533
0.00212098
0.00210638
0.00209154
0.00207644
0.00206109
0.00204548
0.00202961
0.00201347
0.00199706
0.00198037
0.00196341
0.00194617
0.00192864
0.00191081
0.00189269
0.00187427
0.00185554
0.00183649
0.00181712
0.00179742
0.00177737
0.00175698
0.00173623
0.0017151
0.00169358
0.00167166
0.00164932
0.00162653
0.00160328
0.00157953
0.00155526
0.00153042
0.00150497
0.00147887
0.00145203
0.00142437
0.00139576
0.001366
0.00133503
0.00130277
0.0012691
0.00123377
0.00119651
0.0011569
0.00111437
0.00106801
0.00101615
0.000956876
0.000888219
0.000805735
0.000700171
0.000547142
0.000287033
4.59442e-05
6.39428e-05
0.000470693
0.000747882
0.000940871
0.00108525
0.00120372
0.00130521
0.00139425
0.00147368
0.00154581
0.00161194
0.00167305
0.00172991
0.00178307
0.001833
0.00188005
0.00192452
0.00196664
0.00200662
0.00204463
0.00208081
0.00211529
0.00214816
0.00217952
0.00220945
0.00223803
0.00226532
0.00229137
0.00231624
0.00233998
0.00236262
0.00238422
0.0024048
0.00242441
0.00244307
0.00246083
0.0024777
0.00249372
0.00250892
0.00252332
0.00253695
0.00254983
0.00256199
0.00257344
0.0025842
0.00259425
0.00260348
0.00261205
0.00262001
0.00262741
0.00263428
0.00264063
0.0026465
0.00265189
0.00265683
0.00266133
0.0026654
0.00266906
0.00267233
0.00267521
0.00267773
0.00267989
0.0026817
0.00268318
0.00268434
0.00268519
0.00268573
0.00268599
0.00268596
0.00268566
0.0026851
0.00268428
0.00268322
0.00268191
0.00268037
0.00267861
0.00267662
0.00267443
0.00267202
0.00266942
0.00266661
0.00266362
0.00266044
0.00265707
0.00265353
0.00264981
0.00264592
0.00264187
0.00263765
0.00263326
0.00262872
0.00262403
0.00261917
0.00261417
0.00260902
0.00260371
0.00259826
0.00259266
0.00258692
0.00258103
0.002575
0.00256882
0.0025625
0.00255604
0.00254943
0.00254268
0.00253578
0.00252874
0.00252156
0.00251422
0.00250674
0.00249911
0.00249133
0.00248339
0.0024753
0.00246706
0.00245866
0.0024501
0.00244138
0.00243249
0.00242344
0.00241423
0.00240484
0.00239527
0.00238554
0.00237562
0.00236552
0.00235524
0.00234478
0.00233412
0.00232327
0.00231222
0.00230098
0.00228953
0.00227788
0.00226602
0.00225396
0.00224167
0.00222917
0.00221645
0.00220351
0.00219034
0.00217694
0.00216331
0.00214944
0.00213533
0.00212099
0.00210639
0.00209155
0.00207645
0.0020611
0.00204549
0.00202961
0.00201347
0.00199706
0.00198038
0.00196342
0.00194617
0.00192864
0.00191082
0.0018927
0.00187428
0.00185554
0.0018365
0.00181712
0.00179742
0.00177738
0.00175699
0.00173623
0.00171511
0.00169359
0.00167167
0.00164932
0.00162654
0.00160328
0.00157954
0.00155526
0.00153043
0.00150498
0.00147887
0.00145203
0.00142437
0.00139576
0.00136601
0.00133503
0.00130278
0.0012691
0.00123378
0.00119651
0.00115691
0.00111438
0.00106801
0.00101615
0.000956881
0.000888227
0.00080577
0.000700348
0.00054775
0.000287002
4.59272e-05
7.82872e-05
0.000713168
0.00126823
0.00168232
0.00200967
0.00228172
0.00251565
0.00272135
0.00290511
0.00307136
0.00322318
0.00336286
0.00349213
0.00361236
0.00372464
0.00382985
0.00392874
0.00402191
0.0041099
0.00419314
0.00427202
0.00434687
0.00441799
0.00448562
0.00455
0.00461132
0.00466976
0.00472547
0.00477861
0.0048293
0.00487766
0.00492379
0.00496779
0.00500976
0.00504977
0.00508791
0.00512424
0.00515883
0.00519175
0.00522305
0.0052528
0.00528103
0.00530781
0.00533316
0.00535712
0.00537968
0.00540082
0.00542065
0.00543926
0.00545673
0.0054731
0.00548842
0.00550274
0.00551609
0.00552852
0.00554004
0.00555069
0.0055605
0.00556951
0.00557772
0.00558518
0.0055919
0.00559791
0.00560323
0.00560788
0.00561189
0.00561526
0.00561803
0.00562021
0.00562182
0.00562287
0.00562338
0.00562337
0.00562284
0.00562182
0.00562031
0.00561834
0.0056159
0.00561302
0.0056097
0.00560595
0.00560179
0.00559722
0.00559225
0.00558688
0.00558114
0.00557501
0.00556852
0.00556166
0.00555444
0.00554687
0.00553895
0.00553069
0.00552208
0.00551314
0.00550387
0.00549426
0.00548432
0.00547406
0.00546347
0.00545255
0.00544131
0.00542974
0.00541786
0.00540564
0.00539311
0.00538024
0.00536705
0.00535353
0.00533968
0.00532549
0.00531097
0.00529611
0.00528091
0.00526536
0.00524946
0.00523321
0.0052166
0.00519963
0.00518229
0.00516459
0.0051465
0.00512804
0.00510919
0.00508994
0.0050703
0.00505025
0.00502979
0.00500892
0.00498762
0.00496589
0.00494373
0.00492113
0.00489807
0.00487456
0.00485059
0.00482615
0.00480122
0.00477582
0.00474992
0.00472352
0.00469662
0.0046692
0.00464125
0.00461278
0.00458377
0.00455421
0.00452409
0.00449341
0.00446216
0.00443033
0.0043979
0.00436487
0.00433122
0.00429695
0.00426205
0.00422649
0.00419028
0.00415339
0.00411581
0.00407752
0.00403851
0.00399875
0.00395823
0.00391691
0.00387479
0.00383183
0.00378799
0.00374325
0.00369756
0.00365089
0.00360318
0.00355438
0.00350443
0.00345326
0.00340079
0.00334692
0.00329154
0.00323453
0.00317574
0.00311497
0.00305199
0.00298653
0.00291825
0.00284682
0.00277187
0.00269286
0.00260909
0.00251969
0.00242345
0.00231872
0.00220319
0.00207352
0.00192495
0.00175192
0.00154494
0.00128881
0.000958144
0.000514219
5.66644e-05
7.82876e-05
0.000713193
0.00126828
0.00168238
0.00200974
0.00228179
0.00251572
0.00272141
0.00290517
0.00307142
0.00322324
0.00336292
0.00349219
0.00361241
0.00372469
0.0038299
0.00392879
0.00402196
0.00410994
0.00419318
0.00427206
0.00434691
0.00441803
0.00448566
0.00455003
0.00461135
0.00466979
0.0047255
0.00477864
0.00482933
0.00487768
0.00492381
0.00496781
0.00500978
0.00504979
0.00508792
0.00512425
0.00515885
0.00519176
0.00522307
0.00525281
0.00528105
0.00530782
0.00533317
0.00535713
0.00537969
0.00540083
0.00542066
0.00543927
0.00545674
0.0054731
0.00548843
0.00550275
0.0055161
0.00552852
0.00554004
0.0055507
0.00556051
0.00556951
0.00557773
0.00558518
0.00559191
0.00559791
0.00560323
0.00560789
0.00561189
0.00561527
0.00561804
0.00562022
0.00562182
0.00562287
0.00562338
0.00562337
0.00562285
0.00562182
0.00562032
0.00561834
0.00561591
0.00561302
0.0056097
0.00560596
0.00560179
0.00559722
0.00559225
0.00558689
0.00558114
0.00557502
0.00556852
0.00556166
0.00555445
0.00554687
0.00553896
0.00553069
0.00552209
0.00551314
0.00550387
0.00549426
0.00548432
0.00547406
0.00546347
0.00545255
0.00544131
0.00542975
0.00541786
0.00540564
0.00539311
0.00538024
0.00536705
0.00535353
0.00533968
0.00532549
0.00531097
0.00529611
0.00528091
0.00526536
0.00524946
0.00523321
0.0052166
0.00519963
0.00518229
0.00516459
0.0051465
0.00512804
0.00510919
0.00508994
0.0050703
0.00505025
0.00502979
0.00500892
0.00498762
0.00496589
0.00494373
0.00492113
0.00489807
0.00487456
0.00485059
0.00482614
0.00480122
0.00477582
0.00474992
0.00472352
0.00469662
0.0046692
0.00464125
0.00461278
0.00458377
0.00455421
0.00452409
0.00449341
0.00446216
0.00443032
0.0043979
0.00436486
0.00433122
0.00429695
0.00426205
0.00422649
0.00419028
0.00415339
0.00411581
0.00407752
0.0040385
0.00399875
0.00395822
0.00391691
0.00387479
0.00383183
0.00378799
0.00374325
0.00369756
0.00365089
0.00360318
0.00355438
0.00350443
0.00345326
0.00340079
0.00334692
0.00329154
0.00323453
0.00317574
0.00311497
0.00305199
0.00298653
0.00291825
0.00284682
0.00277186
0.00269286
0.00260909
0.00251969
0.00242345
0.00231872
0.0022032
0.00207352
0.00192495
0.00175192
0.00154494
0.00128882
0.000958202
0.00051388
5.66972e-05
8.88081e-05
0.000857458
0.00161248
0.00221191
0.00270198
0.0031162
0.00347554
0.00379333
0.00407845
0.00433711
0.00457379
0.00479184
0.00499381
0.00518175
0.00535729
0.00552176
0.00567627
0.00582178
0.00595909
0.00608889
0.00621179
0.00632831
0.00643893
0.00654405
0.00664404
0.00673922
0.0068299
0.00691632
0.00699874
0.00707737
0.00715239
0.00722399
0.00729234
0.00735758
0.00741984
0.00747926
0.00753596
0.00759004
0.0076416
0.00769075
0.00773756
0.00778213
0.00782451
0.00786479
0.00790301
0.00793921
0.00797342
0.00800575
0.00803628
0.00806511
0.0080923
0.00811794
0.00814207
0.00816476
0.00818605
0.008206
0.00822466
0.00824205
0.00825824
0.00827325
0.00828712
0.00829989
0.0083116
0.00832227
0.00833194
0.00834064
0.0083484
0.00835524
0.00836119
0.00836627
0.00837052
0.00837394
0.00837657
0.00837843
0.00837953
0.0083799
0.00837954
0.00837849
0.00837675
0.00837434
0.00837128
0.00836757
0.00836324
0.00835829
0.00835274
0.0083466
0.00833987
0.00833256
0.0083247
0.00831627
0.0083073
0.00829778
0.00828773
0.00827715
0.00826604
0.0082544
0.00824225
0.00822959
0.00821641
0.00820272
0.00818853
0.00817382
0.00815861
0.00814289
0.00812666
0.00810992
0.00809267
0.00807491
0.00805663
0.00803783
0.00801851
0.00799867
0.00797829
0.00795737
0.00793592
0.00791391
0.00789136
0.00786824
0.00784456
0.00782031
0.00779547
0.00777004
0.00774402
0.0077174
0.00769015
0.00766229
0.00763379
0.00760466
0.00757487
0.00754441
0.00751329
0.00748148
0.00744898
0.00741578
0.00738186
0.00734722
0.00731183
0.0072757
0.0072388
0.00720113
0.00716267
0.00712341
0.00708334
0.00704244
0.0070007
0.0069581
0.00691464
0.00687029
0.00682504
0.00677887
0.00673176
0.0066837
0.00663468
0.00658465
0.00653362
0.00648155
0.00642843
0.00637422
0.0063189
0.00626244
0.0062048
0.00614597
0.00608589
0.00602453
0.00596184
0.00589778
0.00583229
0.00576532
0.0056968
0.00562665
0.0055548
0.00548116
0.00540562
0.00532807
0.00524838
0.00516639
0.00508194
0.00499483
0.00490482
0.00481163
0.00471494
0.00461435
0.0045094
0.00439955
0.00428415
0.00416245
0.00403348
0.00389601
0.00374845
0.00358876
0.00341421
0.00322123
0.00300497
0.00275883
0.00247432
0.0021395
0.00173729
0.00124466
0.000640583
6.61051e-05
8.88087e-05
0.000857483
0.00161254
0.00221198
0.00270206
0.00311629
0.00347563
0.00379342
0.00407854
0.0043372
0.00457388
0.00479192
0.0049939
0.00518184
0.00535737
0.00552183
0.00567635
0.00582185
0.00595916
0.00608896
0.00621185
0.00632837
0.00643898
0.0065441
0.00664408
0.00673927
0.00682994
0.00691636
0.00699878
0.0070774
0.00715242
0.00722403
0.00729237
0.0073576
0.00741987
0.00747929
0.00753598
0.00759006
0.00764162
0.00769077
0.00773758
0.00778214
0.00782453
0.00786481
0.00790302
0.00793922
0.00797343
0.00800576
0.00803629
0.00806512
0.00809231
0.00811795
0.00814208
0.00816477
0.00818606
0.00820601
0.00822466
0.00824206
0.00825824
0.00827325
0.00828712
0.0082999
0.0083116
0.00832227
0.00833195
0.00834064
0.0083484
0.00835524
0.00836119
0.00836627
0.00837052
0.00837394
0.00837657
0.00837843
0.00837953
0.00837989
0.00837954
0.00837849
0.00837675
0.00837434
0.00837127
0.00836757
0.00836324
0.00835829
0.00835274
0.00834659
0.00833986
0.00833256
0.00832469
0.00831627
0.0083073
0.00829778
0.00828773
0.00827714
0.00826603
0.0082544
0.00824225
0.00822958
0.00821641
0.00820272
0.00818852
0.00817382
0.00815861
0.00814288
0.00812666
0.00810992
0.00809267
0.00807491
0.00805663
0.00803783
0.00801851
0.00799866
0.00797828
0.00795737
0.00793591
0.00791391
0.00789135
0.00786824
0.00784455
0.0078203
0.00779546
0.00777004
0.00774402
0.00771739
0.00769015
0.00766228
0.00763379
0.00760465
0.00757486
0.00754441
0.00751328
0.00748148
0.00744898
0.00741577
0.00738185
0.00734721
0.00731182
0.00727569
0.00723879
0.00720112
0.00716266
0.0071234
0.00708333
0.00704243
0.00700069
0.0069581
0.00691463
0.00687028
0.00682503
0.00677886
0.00673175
0.0066837
0.00663467
0.00658465
0.00653361
0.00648154
0.00642842
0.00637421
0.00631889
0.00626243
0.0062048
0.00614596
0.00608588
0.00602452
0.00596183
0.00589777
0.00583229
0.00576531
0.00569679
0.00562664
0.00555479
0.00548115
0.00540561
0.00532806
0.00524837
0.00516638
0.00508194
0.00499482
0.00490481
0.00481162
0.00471493
0.00461435
0.0045094
0.00439954
0.00428414
0.00416244
0.00403347
0.003896
0.00374845
0.00358876
0.00341421
0.00322123
0.00300497
0.00275883
0.00247432
0.0021395
0.00173729
0.00124467
0.000640497
6.61104e-05
9.72875e-05
0.000956879
0.00185823
0.00260454
0.00322911
0.00376442
0.00423297
0.00465003
0.00502612
0.00536875
0.0056834
0.00597421
0.00624437
0.00649639
0.00673231
0.00695379
0.00716223
0.00735882
0.00754457
0.00772035
0.00788694
0.00804501
0.00819517
0.00833795
0.00847383
0.00860324
0.00872657
0.00884417
0.00895637
0.00906346
0.00916569
0.00926333
0.00935658
0.00944565
0.00953074
0.00961203
0.00968967
0.00976381
0.0098346
0.00990218
0.00996665
0.0100281
0.0100867
0.0101426
0.0101957
0.0102462
0.0102941
0.0103396
0.0103827
0.0104236
0.0104624
0.0104991
0.0105338
0.0105666
0.0105975
0.0106267
0.0106541
0.0106799
0.0107041
0.0107267
0.0107479
0.0107675
0.0107858
0.0108027
0.0108183
0.0108326
0.0108456
0.0108575
0.0108681
0.0108776
0.010886
0.0108933
0.0108996
0.0109048
0.010909
0.0109123
0.0109145
0.0109159
0.0109163
0.0109159
0.0109145
0.0109124
0.0109093
0.0109055
0.0109008
0.0108954
0.0108891
0.0108821
0.0108744
0.0108658
0.0108566
0.0108466
0.0108359
0.0108245
0.0108124
0.0107995
0.010786
0.0107718
0.0107569
0.0107413
0.010725
0.010708
0.0106903
0.010672
0.010653
0.0106332
0.0106128
0.0105917
0.0105699
0.0105474
0.0105242
0.0105003
0.0104756
0.0104502
0.0104241
0.0103973
0.0103697
0.0103414
0.0103122
0.0102824
0.0102517
0.0102202
0.0101879
0.0101548
0.0101209
0.0100861
0.0100505
0.010014
0.00997664
0.00993836
0.00989917
0.00985905
0.009818
0.00977598
0.009733
0.00968902
0.00964404
0.00959804
0.009551
0.0095029
0.00945372
0.00940345
0.00935207
0.00929955
0.00924588
0.00919103
0.00913498
0.00907771
0.00901919
0.00895941
0.00889832
0.00883592
0.00877215
0.00870701
0.00864045
0.00857244
0.00850294
0.00843191
0.00835932
0.00828511
0.00820924
0.00813165
0.0080523
0.00797111
0.00788801
0.00780294
0.00771582
0.00762655
0.00753502
0.00744115
0.00734479
0.00724581
0.00714407
0.00703937
0.00693153
0.00682031
0.00670547
0.00658669
0.00646363
0.00633588
0.00620297
0.00606432
0.00591928
0.00576704
0.00560668
0.00543704
0.00525673
0.005064
0.00485665
0.00463189
0.00438614
0.00411482
0.00381198
0.00346985
0.00307852
0.00262532
0.00209369
0.00146461
0.0007307
7.25913e-05
9.72881e-05
0.000956904
0.00185829
0.00260462
0.0032292
0.00376452
0.00423309
0.00465014
0.00502623
0.00536886
0.00568352
0.00597433
0.00624448
0.0064965
0.00673241
0.00695389
0.00716233
0.00735891
0.00754466
0.00772043
0.00788702
0.00804509
0.00819524
0.00833802
0.00847389
0.0086033
0.00872663
0.00884423
0.00895643
0.00906351
0.00916574
0.00926337
0.00935662
0.00944569
0.00953078
0.00961206
0.0096897
0.00976384
0.00983463
0.0099022
0.00996667
0.0100282
0.0100868
0.0101426
0.0101957
0.0102462
0.0102941
0.0103396
0.0103828
0.0104237
0.0104624
0.0104991
0.0105338
0.0105666
0.0105975
0.0106267
0.0106541
0.0106799
0.0107041
0.0107267
0.0107479
0.0107675
0.0107858
0.0108027
0.0108183
0.0108326
0.0108456
0.0108575
0.0108681
0.0108776
0.010886
0.0108933
0.0108996
0.0109048
0.010909
0.0109123
0.0109145
0.0109159
0.0109163
0.0109159
0.0109145
0.0109123
0.0109093
0.0109055
0.0109008
0.0108954
0.0108891
0.0108821
0.0108744
0.0108658
0.0108566
0.0108466
0.0108359
0.0108245
0.0108124
0.0107995
0.010786
0.0107718
0.0107569
0.0107413
0.010725
0.010708
0.0106903
0.010672
0.0106529
0.0106332
0.0106128
0.0105917
0.0105699
0.0105474
0.0105242
0.0105002
0.0104756
0.0104502
0.0104241
0.0103973
0.0103697
0.0103414
0.0103122
0.0102824
0.0102517
0.0102202
0.0101879
0.0101548
0.0101209
0.0100861
0.0100505
0.010014
0.00997663
0.00993835
0.00989916
0.00985904
0.00981799
0.00977597
0.00973299
0.00968901
0.00964403
0.00959803
0.00955099
0.00950289
0.00945371
0.00940344
0.00935206
0.00929954
0.00924587
0.00919102
0.00913497
0.0090777
0.00901918
0.00895939
0.00889831
0.0088359
0.00877214
0.008707
0.00864044
0.00857242
0.00850292
0.0084319
0.0083593
0.0082851
0.00820923
0.00813164
0.00805228
0.00797109
0.007888
0.00780293
0.00771581
0.00762653
0.00753501
0.00744114
0.00734478
0.0072458
0.00714405
0.00703936
0.00693152
0.0068203
0.00670546
0.00658668
0.00646362
0.00633587
0.00620296
0.00606431
0.00591927
0.00576703
0.00560667
0.00543703
0.00525672
0.005064
0.00485664
0.00463188
0.00438613
0.00411482
0.00381197
0.00346984
0.00307852
0.00262532
0.00209369
0.00146461
0.000730683
7.25921e-05
0.000104509
0.00103639
0.00204903
0.00291108
0.00364498
0.00428108
0.00484226
0.00534477
0.0058002
0.00621693
0.00660116
0.00695758
0.00728983
0.00760077
0.00789272
0.00816758
0.00842693
0.0086721
0.00890427
0.00912441
0.00933342
0.00953207
0.00972105
0.00990097
0.0100724
0.0102359
0.0103918
0.0105406
0.0106827
0.0108185
0.0109482
0.0110721
0.0111906
0.0113038
0.0114121
0.0115157
0.0116146
0.0117092
0.0117997
0.0118861
0.0119686
0.0120475
0.0121227
0.0121945
0.012263
0.0123282
0.0123903
0.0124494
0.0125056
0.012559
0.0126097
0.0126579
0.0127037
0.012747
0.0127881
0.012827
0.0128637
0.0128984
0.0129311
0.0129619
0.0129908
0.0130179
0.0130432
0.0130669
0.0130889
0.0131094
0.0131283
0.0131457
0.0131616
0.0131761
0.0131892
0.013201
0.0132115
0.0132207
0.0132287
0.0132354
0.013241
0.0132454
0.0132487
0.0132508
0.0132519
0.0132519
0.0132509
0.0132489
0.0132458
0.0132418
0.0132367
0.0132308
0.0132239
0.013216
0.0132072
0.0131976
0.013187
0.0131755
0.0131632
0.0131499
0.0131358
0.0131209
0.013105
0.0130884
0.0130708
0.0130524
0.0130331
0.013013
0.0129921
0.0129702
0.0129475
0.012924
0.0128995
0.0128742
0.012848
0.0128209
0.012793
0.0127641
0.0127343
0.0127035
0.0126719
0.0126393
0.0126057
0.0125712
0.0125356
0.0124991
0.0124616
0.012423
0.0123834
0.0123427
0.012301
0.0122582
0.0122142
0.0121692
0.012123
0.0120756
0.0120271
0.0119773
0.0119263
0.0118741
0.0118206
0.0117658
0.0117097
0.0116522
0.0115934
0.0115332
0.0114716
0.0114086
0.0113441
0.0112781
0.0112105
0.0111414
0.0110707
0.0109984
0.0109244
0.0108487
0.0107713
0.0106921
0.0106111
0.0105282
0.0104434
0.0103565
0.0102677
0.0101767
0.0100836
0.00998829
0.00989062
0.00979055
0.00968799
0.00958283
0.00947496
0.00936426
0.0092506
0.00913382
0.00901375
0.00889022
0.008763
0.00863187
0.00849656
0.00835675
0.00821211
0.00806223
0.00790665
0.00774483
0.00757613
0.00739983
0.00721504
0.00702074
0.0068157
0.00659844
0.00636715
0.00611963
0.00585315
0.00556433
0.00524893
0.00490168
0.00451593
0.00408332
0.00359345
0.00303363
0.00238889
0.00164457
0.000803969
7.80595e-05
0.000104509
0.00103642
0.00204909
0.00291116
0.00364508
0.0042812
0.00484238
0.0053449
0.00580033
0.00621706
0.00660129
0.00695771
0.00728996
0.0076009
0.00789285
0.0081677
0.00842704
0.00867221
0.00890437
0.00912451
0.00933352
0.00953216
0.00972113
0.00990106
0.0100725
0.0102359
0.0103919
0.0105407
0.0106828
0.0108185
0.0109482
0.0110722
0.0111906
0.0113039
0.0114122
0.0115157
0.0116147
0.0117093
0.0117997
0.0118861
0.0119687
0.0120475
0.0121227
0.0121945
0.012263
0.0123282
0.0123903
0.0124494
0.0125056
0.012559
0.0126098
0.012658
0.0127037
0.012747
0.0127881
0.012827
0.0128637
0.0128984
0.0129311
0.0129619
0.0129908
0.0130179
0.0130432
0.0130669
0.0130889
0.0131094
0.0131283
0.0131457
0.0131616
0.0131761
0.0131892
0.013201
0.0132115
0.0132207
0.0132287
0.0132354
0.013241
0.0132454
0.0132487
0.0132508
0.0132519
0.0132519
0.0132509
0.0132489
0.0132458
0.0132418
0.0132367
0.0132308
0.0132239
0.013216
0.0132072
0.0131976
0.013187
0.0131755
0.0131632
0.0131499
0.0131358
0.0131209
0.013105
0.0130883
0.0130708
0.0130524
0.0130331
0.013013
0.0129921
0.0129702
0.0129475
0.012924
0.0128995
0.0128742
0.012848
0.0128209
0.012793
0.0127641
0.0127343
0.0127035
0.0126719
0.0126393
0.0126057
0.0125711
0.0125356
0.0124991
0.0124616
0.012423
0.0123834
0.0123427
0.012301
0.0122582
0.0122142
0.0121692
0.012123
0.0120756
0.012027
0.0119773
0.0119263
0.0118741
0.0118206
0.0117658
0.0117097
0.0116522
0.0115934
0.0115332
0.0114716
0.0114086
0.0113441
0.011278
0.0112105
0.0111414
0.0110707
0.0109984
0.0109244
0.0108487
0.0107713
0.0106921
0.0106111
0.0105282
0.0104433
0.0103565
0.0102677
0.0101767
0.0100836
0.00998827
0.00989061
0.00979054
0.00968797
0.00958281
0.00947495
0.00936425
0.00925058
0.0091338
0.00901374
0.0088902
0.00876299
0.00863186
0.00849654
0.00835674
0.0082121
0.00806222
0.00790664
0.00774482
0.00757612
0.00739982
0.00721503
0.00702073
0.00681569
0.00659843
0.00636714
0.00611962
0.00585314
0.00556432
0.00524893
0.00490168
0.00451592
0.00408332
0.00359346
0.00303363
0.0023889
0.00164457
0.000803963
7.80597e-05
0.000111055
0.00110438
0.00220647
0.00316141
0.00398448
0.00470415
0.00534325
0.00591857
0.00644236
0.00692362
0.00736905
0.00778376
0.00817168
0.00853593
0.00887903
0.00920302
0.00950961
0.00980024
0.0100761
0.0103384
0.0105879
0.0108256
0.0110521
0.0112681
0.0114743
0.0116712
0.0118592
0.0120389
0.0122107
0.012375
0.0125321
0.0126824
0.0128262
0.0129638
0.0130954
0.0132214
0.0133419
0.0134572
0.0135676
0.0136731
0.013774
0.0138705
0.0139626
0.0140507
0.0141348
0.0142151
0.0142916
0.0143646
0.0144342
0.0145004
0.0145635
0.0146235
0.0146806
0.0147349
0.0147864
0.0148353
0.0148816
0.0149255
0.0149671
0.0150063
0.0150433
0.0150782
0.015111
0.0151418
0.0151706
0.0151976
0.0152227
0.015246
0.0152676
0.0152875
0.0153057
0.0153224
0.0153375
0.0153511
0.0153632
0.0153739
0.0153831
0.015391
0.0153976
0.0154028
0.0154067
0.0154094
0.0154108
0.015411
0.0154101
0.0154079
0.0154046
0.0154002
0.0153946
0.0153879
0.0153802
0.0153713
0.0153614
0.0153504
0.0153384
0.0153253
0.0153112
0.0152961
0.0152799
0.0152627
0.0152445
0.0152253
0.0152051
0.0151838
0.0151615
0.0151382
0.0151139
0.0150885
0.0150621
0.0150347
0.0150062
0.0149766
0.014946
0.0149143
0.0148815
0.0148476
0.0148125
0.0147764
0.0147391
0.0147006
0.014661
0.0146202
0.0145782
0.0145349
0.0144904
0.0144446
0.0143976
0.0143492
0.0142995
0.0142485
0.0141961
0.0141423
0.0140871
0.0140304
0.0139723
0.0139126
0.0138514
0.0137887
0.0137244
0.0136585
0.0135909
0.0135217
0.0134507
0.013378
0.0133035
0.0132272
0.0131491
0.013069
0.012987
0.0129031
0.0128171
0.012729
0.0126388
0.0125464
0.0124518
0.0123549
0.0122556
0.0121539
0.0120497
0.0119429
0.0118334
0.0117211
0.011606
0.0114879
0.0113667
0.0112423
0.0111146
0.0109833
0.0108483
0.0107095
0.0105666
0.0104193
0.0102674
0.0101107
0.00994874
0.00978117
0.00960757
0.00942743
0.00924017
0.00904513
0.00884154
0.00862848
0.00840489
0.00816953
0.00792089
0.00765719
0.00737629
0.00707559
0.00675195
0.0064015
0.00601954
0.00560031
0.00513673
0.00462021
0.00404039
0.00338509
0.00264121
0.00179784
0.000866736
8.28555e-05
0.000111056
0.0011044
0.00220653
0.0031615
0.00398459
0.00470428
0.00534338
0.00591871
0.00644251
0.00692377
0.0073692
0.0077839
0.00817182
0.00853607
0.00887917
0.00920315
0.00950974
0.00980036
0.0100763
0.0103385
0.010588
0.0108257
0.0110522
0.0112682
0.0114744
0.0116712
0.0118593
0.012039
0.0122108
0.0123751
0.0125322
0.0126825
0.0128262
0.0129638
0.0130955
0.0132214
0.013342
0.0134573
0.0135676
0.0136731
0.013774
0.0138705
0.0139627
0.0140507
0.0141348
0.0142151
0.0142917
0.0143646
0.0144342
0.0145004
0.0145635
0.0146235
0.0146806
0.0147349
0.0147864
0.0148353
0.0148816
0.0149255
0.0149671
0.0150063
0.0150433
0.0150782
0.015111
0.0151418
0.0151706
0.0151976
0.0152227
0.015246
0.0152676
0.0152875
0.0153057
0.0153224
0.0153375
0.0153511
0.0153632
0.0153739
0.0153831
0.015391
0.0153976
0.0154028
0.0154067
0.0154094
0.0154108
0.015411
0.0154101
0.0154079
0.0154046
0.0154002
0.0153946
0.0153879
0.0153802
0.0153713
0.0153614
0.0153504
0.0153384
0.0153253
0.0153112
0.0152961
0.0152799
0.0152627
0.0152445
0.0152253
0.0152051
0.0151838
0.0151615
0.0151382
0.0151139
0.0150885
0.0150621
0.0150347