/*--------------------------------*- C++ -*----------------------------------*\
  =========                 |
  \\      /  F ield         | OpenFOAM: The Open Source CFD Toolbox
   \\    /   O peration     | Website:  https://openfoam.org
    \\  /    A nd           | Version:  8
     \\/     M anipulation  |
\*---------------------------------------------------------------------------*/
FoamFile
{
    version     2.0;
    format      ascii;
    class       volScalarField;
    location    "3700";
    object      nut;
}
// * * * * * * * * * * * * * * * * * * * * * * * * * * * * * * * * * * * * * //

dimensions      [0 2 -1 0 0 0 0];

internalField   nonuniform List<scalar> 
48000
(
5.1408e-05
8.90627e-05
0.000110258
0.000125879
0.000138978
0.000150002
0.000159567
0.000168062
0.000175874
0.00018309
0.000189778
0.000196031
0.000201906
0.000207446
0.000212688
0.00021766
0.000222382
0.000226875
0.000231153
0.000235228
0.000239111
0.000242812
0.000246338
0.000249695
0.000252892
0.000255932
0.000258822
0.000261566
0.000264168
0.000266634
0.000268967
0.000271171
0.00027325
0.000275209
0.00027705
0.000278779
0.000280397
0.000281909
0.000283319
0.00028463
0.000285845
0.000286967
0.000288001
0.000288948
0.000289831
0.000290638
0.000291368
0.000292025
0.00029261
0.000293129
0.000293583
0.000293975
0.000294309
0.000294588
0.000294813
0.000294988
0.000295115
0.000295196
0.000295234
0.000295231
0.000295189
0.000295109
0.000294994
0.000294846
0.000294667
0.000294457
0.000294219
0.000293954
0.000293663
0.000293348
0.000293009
0.000292649
0.000292268
0.000291867
0.000291447
0.000291008
0.000290553
0.000290081
0.000289594
0.000289091
0.000288574
0.000288043
0.000287498
0.000286941
0.000286371
0.000285788
0.000285194
0.000284588
0.00028397
0.000283342
0.000282702
0.000282052
0.000281391
0.000280719
0.000280037
0.000279345
0.000278641
0.000277928
0.000277204
0.000276469
0.000275724
0.000274967
0.0002742
0.000273422
0.000272633
0.000271833
0.000271021
0.000270197
0.000269361
0.000268514
0.000267654
0.000266781
0.000265895
0.000264997
0.000264085
0.000263159
0.000262219
0.000261265
0.000260297
0.000259313
0.000258314
0.0002573
0.00025627
0.000255223
0.00025416
0.00025308
0.000251983
0.000250868
0.000249735
0.000248583
0.000247413
0.000246224
0.000245016
0.000243788
0.000242539
0.00024127
0.000239981
0.00023867
0.000237337
0.000235983
0.000234606
0.000233207
0.000231785
0.000230339
0.00022887
0.000227377
0.000225859
0.000224317
0.00022275
0.000221157
0.000219538
0.000217893
0.000216222
0.000214524
0.000212798
0.000211044
0.000209263
0.000207453
0.000205613
0.000203744
0.000201845
0.000199915
0.000197954
0.00019596
0.000193934
0.000191875
0.00018978
0.000187651
0.000185484
0.00018328
0.000181037
0.000178753
0.000176427
0.000174056
0.000171638
0.000169172
0.000166653
0.00016408
0.000161447
0.000158752
0.000155993
0.000153178
0.000150297
0.000147324
0.000144247
0.000141054
0.000137728
0.000134249
0.000130592
0.000126724
0.000122601
0.000118175
0.000113411
0.00010817
0.000102285
9.54975e-05
8.73549e-05
7.70092e-05
6.38757e-05
0.000204844
5.14084e-05
8.90631e-05
0.000110259
0.000125879
0.000138978
0.000150003
0.000159567
0.000168062
0.000175874
0.00018309
0.000189778
0.000196031
0.000201906
0.000207447
0.000212689
0.00021766
0.000222383
0.000226875
0.000231153
0.000235228
0.000239111
0.000242812
0.000246338
0.000249696
0.000252892
0.000255932
0.000258822
0.000261566
0.000264168
0.000266634
0.000268967
0.000271171
0.000273251
0.000275209
0.000277051
0.000278779
0.000280397
0.000281909
0.000283319
0.00028463
0.000285845
0.000286967
0.000288001
0.000288948
0.000289831
0.000290638
0.000291368
0.000292025
0.00029261
0.000293129
0.000293583
0.000293975
0.000294309
0.000294588
0.000294813
0.000294988
0.000295115
0.000295196
0.000295234
0.000295231
0.000295189
0.000295109
0.000294994
0.000294846
0.000294667
0.000294457
0.000294219
0.000293954
0.000293663
0.000293348
0.000293009
0.000292649
0.000292268
0.000291867
0.000291447
0.000291008
0.000290553
0.000290081
0.000289594
0.000289091
0.000288574
0.000288043
0.000287498
0.000286941
0.000286371
0.000285788
0.000285194
0.000284588
0.00028397
0.000283342
0.000282702
0.000282052
0.000281391
0.000280719
0.000280037
0.000279345
0.000278641
0.000277928
0.000277204
0.000276469
0.000275724
0.000274967
0.0002742
0.000273422
0.000272633
0.000271833
0.000271021
0.000270197
0.000269361
0.000268514
0.000267654
0.000266781
0.000265895
0.000264997
0.000264085
0.000263159
0.000262219
0.000261265
0.000260297
0.000259313
0.000258314
0.0002573
0.00025627
0.000255223
0.00025416
0.00025308
0.000251983
0.000250868
0.000249735
0.000248583
0.000247413
0.000246224
0.000245016
0.000243788
0.000242539
0.00024127
0.000239981
0.00023867
0.000237337
0.000235983
0.000234606
0.000233207
0.000231785
0.000230339
0.00022887
0.000227377
0.000225859
0.000224317
0.00022275
0.000221157
0.000219538
0.000217893
0.000216222
0.000214524
0.000212798
0.000211044
0.000209263
0.000207453
0.000205613
0.000203744
0.000201845
0.000199915
0.000197954
0.00019596
0.000193934
0.000191875
0.00018978
0.000187651
0.000185484
0.00018328
0.000181037
0.000178753
0.000176427
0.000174056
0.000171639
0.000169172
0.000166653
0.00016408
0.000161447
0.000158752
0.000155993
0.000153178
0.000150297
0.000147324
0.000144247
0.000141054
0.000137728
0.000134249
0.000130592
0.000126724
0.000122601
0.000118175
0.000113411
0.00010817
0.000102285
9.54974e-05
8.73543e-05
7.70082e-05
6.3881e-05
0.000204851
7.73895e-05
0.000573445
0.000908552
0.00114319
0.001318
0.00146068
0.00158304
0.00169065
0.0017865
0.00187314
0.00195242
0.00202549
0.00209327
0.00215644
0.00221553
0.00227099
0.00232316
0.00237233
0.00241876
0.00246264
0.00250416
0.00254347
0.00258071
0.00261599
0.00264943
0.00268112
0.00271115
0.0027396
0.00276654
0.00279203
0.00281615
0.00283894
0.00286046
0.00288077
0.00289992
0.00291794
0.00293488
0.0029508
0.00296571
0.00297967
0.0029927
0.00300483
0.00301608
0.00302642
0.00303564
0.00304403
0.00305171
0.00305872
0.0030651
0.0030709
0.00307612
0.00308081
0.00308498
0.00308865
0.00309185
0.0030946
0.00309691
0.00309881
0.00310031
0.00310143
0.00310218
0.00310258
0.00310265
0.0031024
0.00310185
0.003101
0.00309986
0.00309846
0.0030968
0.00309489
0.00309274
0.00309037
0.00308777
0.00308496
0.00308195
0.00307874
0.00307535
0.00307177
0.00306801
0.00306408
0.00305998
0.00305573
0.00305131
0.00304674
0.00304203
0.00303716
0.00303215
0.003027
0.00302171
0.00301629
0.00301072
0.00300503
0.0029992
0.00299323
0.00298714
0.00298091
0.00297456
0.00296806
0.00296144
0.00295469
0.0029478
0.00294077
0.00293361
0.00292632
0.00291888
0.00291131
0.00290359
0.00289573
0.00288772
0.00287956
0.00287125
0.00286279
0.00285418
0.0028454
0.00283646
0.00282736
0.0028181
0.00280866
0.00279905
0.00278926
0.0027793
0.00276915
0.00275882
0.00274829
0.00273758
0.00272666
0.00271555
0.00270424
0.00269271
0.00268098
0.00266903
0.00265687
0.00264448
0.00263187
0.00261904
0.00260597
0.00259266
0.00257911
0.00256533
0.00255129
0.002537
0.00252246
0.00250767
0.00249261
0.00247728
0.00246169
0.00244582
0.00242968
0.00241325
0.00239654
0.00237955
0.00236225
0.00234466
0.00232677
0.00230856
0.00229005
0.00227122
0.00225206
0.00223257
0.00221274
0.00219258
0.00217206
0.00215118
0.00212993
0.0021083
0.00208628
0.00206386
0.00204103
0.00201777
0.00199406
0.00196988
0.00194523
0.00192006
0.00189435
0.00186809
0.00184121
0.0018137
0.00178549
0.00175653
0.00172674
0.00169599
0.00166411
0.00163103
0.00159671
0.00156105
0.00152389
0.00148502
0.00144415
0.00140092
0.00135481
0.00130508
0.00125044
0.00118898
0.00111959
0.00103936
0.000943407
0.000822902
0.000660046
0.000414353
5.5526e-05
7.739e-05
0.000573454
0.000908566
0.0011432
0.00131801
0.00146069
0.00158306
0.00169066
0.00178651
0.00187315
0.00195243
0.0020255
0.00209328
0.00215645
0.00221554
0.002271
0.00232317
0.00237234
0.00241877
0.00246265
0.00250417
0.00254348
0.00258072
0.002616
0.00264944
0.00268113
0.00271116
0.00273961
0.00276655
0.00279204
0.00281615
0.00283895
0.00286047
0.00288078
0.00289992
0.00291795
0.00293489
0.0029508
0.00296572
0.00297967
0.0029927
0.00300484
0.00301609
0.00302642
0.00303564
0.00304404
0.00305172
0.00305873
0.00306511
0.0030709
0.00307613
0.00308081
0.00308498
0.00308866
0.00309186
0.0030946
0.00309692
0.00309881
0.00310031
0.00310143
0.00310218
0.00310259
0.00310266
0.00310241
0.00310185
0.003101
0.00309987
0.00309847
0.00309681
0.0030949
0.00309275
0.00309037
0.00308778
0.00308497
0.00308196
0.00307875
0.00307535
0.00307177
0.00306801
0.00306408
0.00305999
0.00305573
0.00305132
0.00304675
0.00304203
0.00303717
0.00303216
0.00302701
0.00302172
0.00301629
0.00301073
0.00300503
0.0029992
0.00299324
0.00298714
0.00298092
0.00297456
0.00296807
0.00296145
0.00295469
0.0029478
0.00294078
0.00293362
0.00292632
0.00291889
0.00291131
0.00290359
0.00289573
0.00288772
0.00287957
0.00287126
0.0028628
0.00285418
0.00284541
0.00283647
0.00282737
0.0028181
0.00280867
0.00279906
0.00278927
0.0027793
0.00276916
0.00275882
0.0027483
0.00273758
0.00272667
0.00271556
0.00270424
0.00269272
0.00268099
0.00266904
0.00265687
0.00264449
0.00263188
0.00261904
0.00260597
0.00259266
0.00257912
0.00256533
0.00255129
0.00253701
0.00252247
0.00250767
0.00249261
0.00247729
0.00246169
0.00244583
0.00242968
0.00241326
0.00239655
0.00237955
0.00236226
0.00234466
0.00232677
0.00230857
0.00229005
0.00227122
0.00225206
0.00223257
0.00221275
0.00219258
0.00217206
0.00215118
0.00212993
0.0021083
0.00208629
0.00206387
0.00204103
0.00201777
0.00199406
0.00196989
0.00194523
0.00192006
0.00189436
0.00186809
0.00184122
0.0018137
0.0017855
0.00175654
0.00172674
0.00169599
0.00166412
0.00163103
0.00159671
0.00156106
0.0015239
0.00148502
0.00144415
0.00140092
0.00135481
0.00130508
0.00125044
0.00118898
0.00111959
0.00103936
0.000943407
0.000822901
0.000660045
0.000414353
5.55202e-05
9.51529e-05
0.000869662
0.00154676
0.0020538
0.00245253
0.00278281
0.00306619
0.00331515
0.00353724
0.0037377
0.00392033
0.00408788
0.00424242
0.00438561
0.00451875
0.00464289
0.00475894
0.00486764
0.00496962
0.00506543
0.00515557
0.00524045
0.00532045
0.00539591
0.00546713
0.00553437
0.00559789
0.00565791
0.00571463
0.00576824
0.00581891
0.00586681
0.00591206
0.00595481
0.00599519
0.0060333
0.00606926
0.00610317
0.0061351
0.00616516
0.00619341
0.00621991
0.0062447
0.00626777
0.00628906
0.00630879
0.0063271
0.0063441
0.00635986
0.00637446
0.00638794
0.00640037
0.00641178
0.00642223
0.00643174
0.00644037
0.00644814
0.00645509
0.00646125
0.00646666
0.00647133
0.0064753
0.0064786
0.00648125
0.00648327
0.00648469
0.00648553
0.00648581
0.00648555
0.00648477
0.00648348
0.00648171
0.00647947
0.00647677
0.00647362
0.00647005
0.00646606
0.00646167
0.00645688
0.00645171
0.00644616
0.00644025
0.00643397
0.00642735
0.00642038
0.00641307
0.00640542
0.00639744
0.00638914
0.00638051
0.00637157
0.0063623
0.00635272
0.00634282
0.00633261
0.00632209
0.00631125
0.0063001
0.00628863
0.00627684
0.00626474
0.00625232
0.00623957
0.00622649
0.00621309
0.00619935
0.00618528
0.00617087
0.00615611
0.006141
0.00612554
0.00610972
0.00609354
0.00607698
0.00606005
0.00604274
0.00602504
0.00600695
0.00598846
0.00596956
0.00595025
0.00593051
0.00591035
0.00588976
0.00586872
0.00584723
0.00582529
0.00580288
0.00578
0.00575664
0.00573279
0.00570844
0.00568359
0.00565823
0.00563235
0.00560594
0.00557899
0.00555149
0.00552344
0.00549482
0.00546563
0.00543586
0.0054055
0.00537453
0.00534296
0.00531076
0.00527793
0.00524446
0.00521034
0.00517555
0.00514008
0.00510393
0.00506708
0.00502951
0.00499121
0.00495216
0.00491236
0.00487178
0.0048304
0.0047882
0.00474517
0.00470128
0.00465651
0.00461083
0.0045642
0.00451661
0.00446801
0.00441836
0.00436762
0.00431574
0.00426268
0.00420836
0.00415273
0.0040957
0.00403719
0.00397709
0.00391529
0.00385166
0.00378601
0.00371815
0.00364784
0.00357478
0.0034987
0.0034193
0.0033362
0.00324886
0.00315664
0.00305872
0.002954
0.00284105
0.00271785
0.00258161
0.00242835
0.00225376
0.00205079
0.00180852
0.00150967
0.00112616
0.000617308
6.76437e-05
9.51532e-05
0.000869674
0.00154678
0.00205383
0.00245256
0.00278284
0.00306622
0.00331518
0.00353727
0.00373773
0.00392036
0.0040879
0.00424245
0.00438564
0.00451877
0.00464292
0.00475896
0.00486766
0.00496963
0.00506545
0.00515559
0.00524047
0.00532047
0.00539593
0.00546714
0.00553439
0.0055979
0.00565792
0.00571464
0.00576825
0.00581893
0.00586682
0.00591207
0.00595482
0.0059952
0.00603331
0.00606927
0.00610317
0.00613511
0.00616517
0.00619342
0.00621992
0.0062447
0.00626778
0.00628907
0.0063088
0.00632711
0.00634411
0.00635987
0.00637446
0.00638795
0.00640037
0.00641179
0.00642223
0.00643175
0.00644037
0.00644815
0.0064551
0.00646126
0.00646666
0.00647133
0.00647531
0.0064786
0.00648125
0.00648327
0.00648469
0.00648553
0.00648581
0.00648555
0.00648477
0.00648349
0.00648171
0.00647947
0.00647677
0.00647363
0.00647005
0.00646607
0.00646167
0.00645688
0.00645171
0.00644616
0.00644025
0.00643398
0.00642735
0.00642038
0.00641307
0.00640542
0.00639744
0.00638914
0.00638051
0.00637157
0.0063623
0.00635272
0.00634283
0.00633262
0.00632209
0.00631125
0.0063001
0.00628863
0.00627685
0.00626474
0.00625232
0.00623957
0.00622649
0.00621309
0.00619935
0.00618528
0.00617087
0.00615611
0.006141
0.00612554
0.00610972
0.00609354
0.00607698
0.00606006
0.00604274
0.00602505
0.00600695
0.00598846
0.00596956
0.00595025
0.00593052
0.00591035
0.00588976
0.00586872
0.00584723
0.00582529
0.00580288
0.00578
0.00575664
0.00573279
0.00570844
0.00568359
0.00565823
0.00563235
0.00560594
0.00557899
0.00555149
0.00552344
0.00549482
0.00546563
0.00543586
0.0054055
0.00537453
0.00534296
0.00531076
0.00527793
0.00524446
0.00521034
0.00517555
0.00514009
0.00510393
0.00506708
0.00502951
0.00499121
0.00495216
0.00491236
0.00487178
0.0048304
0.0047882
0.00474517
0.00470129
0.00465651
0.00461083
0.0045642
0.00451661
0.00446801
0.00441836
0.00436762
0.00431574
0.00426268
0.00420836
0.00415273
0.0040957
0.00403719
0.00397709
0.00391529
0.00385166
0.00378601
0.00371816
0.00364784
0.00357478
0.0034987
0.0034193
0.0033362
0.00324886
0.00315664
0.00305872
0.002954
0.00284105
0.00271785
0.00258161
0.00242835
0.00225376
0.00205079
0.00180852
0.00150966
0.00112616
0.00061731
6.76449e-05
0.000107774
0.00105067
0.00197656
0.00271161
0.00331132
0.0038171
0.00425492
0.0046413
0.00498718
0.00530011
0.00558558
0.00584766
0.00608948
0.0063135
0.00652169
0.00671569
0.00689686
0.00706636
0.00722519
0.00737422
0.00751422
0.00764587
0.00776978
0.0078865
0.00799654
0.00810032
0.00819828
0.00829078
0.00837816
0.00846074
0.00853881
0.00861263
0.00868245
0.00874849
0.00881096
0.00887004
0.00892593
0.00897877
0.00902871
0.0090759
0.00912045
0.00916246
0.00920201
0.00923917
0.00927397
0.00930658
0.00933717
0.00936584
0.00939272
0.0094179
0.00944146
0.00946349
0.00948404
0.00950319
0.00952099
0.00953749
0.00955275
0.00956682
0.00957973
0.00959154
0.00960229
0.009612
0.00962073
0.0096285
0.00963535
0.0096413
0.0096464
0.00965065
0.0096541
0.00965677
0.00965868
0.00965986
0.00966032
0.00966008
0.00965917
0.0096576
0.00965539
0.00965256
0.00964911
0.00964506
0.00964042
0.00963521
0.00962943
0.0096231
0.00961622
0.00960879
0.00960084
0.00959235
0.00958335
0.00957382
0.00956378
0.00955323
0.00954216
0.00953059
0.0095185
0.00950591
0.00949281
0.0094792
0.00946508
0.00945044
0.00943529
0.00941962
0.00940342
0.00938669
0.00936943
0.00935163
0.00933328
0.00931439
0.00929494
0.00927492
0.00925433
0.00923317
0.00921142
0.00918907
0.00916611
0.00914255
0.00911836
0.00909354
0.00906808
0.00904197
0.0090152
0.00898775
0.00895962
0.00893079
0.00890126
0.00887101
0.00884003
0.00880831
0.00877584
0.0087426
0.00870858
0.00867377
0.00863815
0.00860171
0.00856444
0.00852633
0.00848736
0.00844751
0.00840677
0.00836512
0.00832256
0.00827906
0.0082346
0.00818918
0.00814277
0.00809535
0.00804691
0.00799743
0.00794689
0.00789526
0.00784253
0.00778867
0.00773365
0.00767746
0.00762007
0.00756144
0.00750155
0.00744036
0.00737785
0.00731397
0.00724868
0.00718194
0.00711371
0.00704393
0.00697256
0.00689952
0.00682476
0.00674819
0.00666975
0.00658935
0.00650687
0.00642222
0.00633527
0.00624587
0.00615387
0.00605908
0.00596129
0.00586025
0.00575566
0.00564719
0.00553444
0.00541694
0.00529416
0.00516551
0.00503022
0.00488738
0.0047358
0.00457402
0.00440012
0.00421173
0.00400564
0.00377765
0.00352217
0.00323198
0.00289744
0.00250453
0.00203344
0.00145736
0.000751892
7.7026e-05
0.000107774
0.00105068
0.00197659
0.00271165
0.00331136
0.00381714
0.00425496
0.00464134
0.00498722
0.00530015
0.00558562
0.0058477
0.00608952
0.00631353
0.00652172
0.00671572
0.00689689
0.00706639
0.00722521
0.00737424
0.00751424
0.00764589
0.0077698
0.00788653
0.00799656
0.00810034
0.0081983
0.0082908
0.00837818
0.00846076
0.00853883
0.00861265
0.00868246
0.0087485
0.00881097
0.00887006
0.00892594
0.00897878
0.00902872
0.00907591
0.00912046
0.00916247
0.00920202
0.00923918
0.00927397
0.00930659
0.00933717
0.00936585
0.00939273
0.0094179
0.00944147
0.00946349
0.00948405
0.00950319
0.00952099
0.00953749
0.00955275
0.00956682
0.00957974
0.00959155
0.00960229
0.00961201
0.00962073
0.0096285
0.00963535
0.0096413
0.0096464
0.00965065
0.00965411
0.00965677
0.00965868
0.00965986
0.00966032
0.00966008
0.00965917
0.0096576
0.00965539
0.00965255
0.0096491
0.00964506
0.00964042
0.00963521
0.00962943
0.0096231
0.00961621
0.00960879
0.00960084
0.00959235
0.00958335
0.00957382
0.00956378
0.00955322
0.00954216
0.00953059
0.0095185
0.00950591
0.00949281
0.0094792
0.00946508
0.00945044
0.00943529
0.00941961
0.00940342
0.00938669
0.00936943
0.00935163
0.00933328
0.00931439
0.00929494
0.00927492
0.00925433
0.00923317
0.00921141
0.00918906
0.00916611
0.00914255
0.00911836
0.00909354
0.00906808
0.00904197
0.00901519
0.00898775
0.00895962
0.00893079
0.00890126
0.00887101
0.00884003
0.00880831
0.00877584
0.00874259
0.00870857
0.00867376
0.00863815
0.00860171
0.00856444
0.00852633
0.00848735
0.0084475
0.00840676
0.00836512
0.00832255
0.00827905
0.0082346
0.00818917
0.00814276
0.00809535
0.00804691
0.00799743
0.00794688
0.00789526
0.00784252
0.00778866
0.00773365
0.00767746
0.00762006
0.00756144
0.00750154
0.00744036
0.00737784
0.00731396
0.00724867
0.00718194
0.00711371
0.00704393
0.00697255
0.00689952
0.00682475
0.00674819
0.00666975
0.00658934
0.00650687
0.00642222
0.00633527
0.00624587
0.00615387
0.00605908
0.00596128
0.00586024
0.00575566
0.00564719
0.00553444
0.00541693
0.00529416
0.0051655
0.00503022
0.00488738
0.0047358
0.00457401
0.00440012
0.00421172
0.00400564
0.00377765
0.00352217
0.00323198
0.00289744
0.00250453
0.00203344
0.00145736
0.000751892
7.70264e-05
0.000118007
0.00117386
0.0022837
0.00320254
0.00397066
0.00462781
0.00520168
0.00571113
0.00616917
0.00658507
0.00696558
0.00731581
0.00763967
0.00794028
0.00822013
0.0084813
0.00872551
0.00895424
0.00916877
0.00937024
0.00955962
0.00973781
0.00990561
0.0100637
0.0102129
0.0103536
0.0104865
0.010612
0.0107306
0.0108428
0.0109489
0.0110494
0.0111445
0.0112345
0.0113198
0.0114006
0.0114772
0.0115497
0.0116185
0.0116836
0.0117453
0.0118037
0.0118589
0.011911
0.0119602
0.0120067
0.0120505
0.0120919
0.0121309
0.0121678
0.0122025
0.0122352
0.012266
0.012295
0.0123223
0.0123478
0.0123718
0.0123942
0.0124151
0.0124346
0.0124527
0.0124695
0.012485
0.0124992
0.0125122
0.0125241
0.0125348
0.0125445
0.0125531
0.0125606
0.0125672
0.0125728
0.0125774
0.0125812
0.012584
0.012586
0.0125871
0.0125873
0.0125868
0.0125854
0.0125832
0.0125803
0.0125766
0.0125721
0.0125669
0.012561
0.0125543
0.0125469
0.0125388
0.01253
0.0125205
0.0125102
0.0124993
0.0124877
0.0124753
0.0124623
0.0124485
0.0124341
0.0124189
0.0124031
0.0123865
0.0123692
0.0123511
0.0123324
0.0123129
0.0122926
0.0122716
0.0122498
0.0122273
0.012204
0.0121799
0.012155
0.0121293
0.0121027
0.0120754
0.0120471
0.0120181
0.0119881
0.0119573
0.0119255
0.0118929
0.0118593
0.0118248
0.0117894
0.0117529
0.0117155
0.011677
0.0116376
0.0115971
0.0115555
0.0115129
0.0114692
0.0114244
0.0113784
0.0113313
0.011283
0.0112335
0.0111829
0.0111309
0.0110778
0.0110233
0.0109676
0.0109105
0.0108521
0.0107923
0.0107311
0.0106684
0.0106043
0.0105388
0.0104717
0.010403
0.0103327
0.0102609
0.0101873
0.0101121
0.0100351
0.00995625
0.0098756
0.00979306
0.00970855
0.00962203
0.00953343
0.00944268
0.00934969
0.00925439
0.00915669
0.00905648
0.00895365
0.00884809
0.00873965
0.00862819
0.00851354
0.0083955
0.00827388
0.00814842
0.00801886
0.00788486
0.00774608
0.00760207
0.00745236
0.00729635
0.0071334
0.00696271
0.00678336
0.00659424
0.006394
0.00618096
0.00595304
0.00570764
0.00544151
0.00515047
0.00482918
0.0044709
0.00406677
0.00360573
0.00307293
0.00244928
0.00171269
0.00085456
8.45222e-05
0.000118008
0.00117387
0.00228372
0.00320257
0.0039707
0.00462785
0.00520173
0.00571118
0.00616922
0.00658511
0.00696563
0.00731585
0.00763972
0.00794032
0.00822018
0.00848134
0.00872555
0.00895428
0.00916881
0.00937027
0.00955966
0.00973785
0.00990565
0.0100638
0.0102129
0.0103536
0.0104865
0.010612
0.0107306
0.0108428
0.0109489
0.0110494
0.0111445
0.0112345
0.0113198
0.0114006
0.0114772
0.0115498
0.0116185
0.0116836
0.0117453
0.0118037
0.0118589
0.011911
0.0119602
0.0120067
0.0120505
0.0120919
0.0121309
0.0121678
0.0122025
0.0122352
0.012266
0.012295
0.0123223
0.0123478
0.0123718
0.0123942
0.0124151
0.0124346
0.0124527
0.0124695
0.012485
0.0124992
0.0125122
0.0125241
0.0125348
0.0125445
0.0125531
0.0125606
0.0125672
0.0125728
0.0125774
0.0125812
0.012584
0.012586
0.0125871
0.0125873
0.0125868
0.0125854
0.0125832
0.0125803
0.0125766
0.0125721
0.0125669
0.012561
0.0125543
0.0125469
0.0125388
0.01253
0.0125205
0.0125102
0.0124993
0.0124877
0.0124753
0.0124623
0.0124485
0.0124341
0.0124189
0.0124031
0.0123865
0.0123692
0.0123511
0.0123324
0.0123129
0.0122926
0.0122716
0.0122498
0.0122273
0.012204
0.0121799
0.012155
0.0121293
0.0121027
0.0120754
0.0120471
0.0120181
0.0119881
0.0119573
0.0119255
0.0118929
0.0118593
0.0118248
0.0117893
0.0117529
0.0117155
0.011677
0.0116376
0.0115971
0.0115555
0.0115129
0.0114692
0.0114244
0.0113784
0.0113313
0.011283
0.0112335
0.0111828
0.0111309
0.0110778
0.0110233
0.0109676
0.0109105
0.0108521
0.0107923
0.0107311
0.0106684
0.0106043
0.0105388
0.0104716
0.010403
0.0103327
0.0102608
0.0101873
0.010112
0.010035
0.00995624
0.0098756
0.00979305
0.00970855
0.00962203
0.00953343
0.00944267
0.00934969
0.00925439
0.00915668
0.00905647
0.00895364
0.00884808
0.00873964
0.00862818
0.00851353
0.0083955
0.00827388
0.00814842
0.00801885
0.00788486
0.00774607
0.00760207
0.00745235
0.00729635
0.00713339
0.0069627
0.00678335
0.00659424
0.006394
0.00618095
0.00595303
0.00570764
0.0054415
0.00515046
0.00482918
0.00447089
0.00406677
0.00360573
0.00307293
0.00244928
0.00171269
0.000854558
8.45223e-05
0.000126696
0.00127165
0.00252173
0.00358723
0.00449401
0.00527873
0.00596935
0.00658591
0.00714273
0.00765024
0.00811612
0.00854624
0.00894511
0.00931633
0.00966278
0.00998686
0.0102906
0.0105756
0.0108435
0.0110955
0.0113328
0.0115564
0.0117673
0.0119662
0.0121541
0.0123316
0.0124994
0.0126581
0.0128082
0.0129503
0.0130849
0.0132125
0.0133333
0.0134479
0.0135566
0.0136598
0.0137576
0.0138505
0.0139387
0.0140224
0.0141018
0.0141772
0.0142487
0.0143166
0.0143809
0.0144418
0.0144995
0.0145543
0.0146062
0.0146554
0.014702
0.0147461
0.014788
0.0148275
0.014865
0.0149004
0.0149338
0.0149653
0.014995
0.015023
0.0150492
0.0150739
0.0150969
0.0151185
0.0151386
0.0151572
0.0151745
0.0151904
0.0152051
0.0152184
0.0152306
0.0152415
0.0152513
0.01526
0.0152675
0.015274
0.0152794
0.0152837
0.0152871
0.0152894
0.0152908
0.0152911
0.0152906
0.015289
0.0152866
0.0152832
0.0152789
0.0152737
0.0152676
0.0152605
0.0152526
0.0152438
0.0152341
0.0152236
0.0152121
0.0151997
0.0151865
0.0151723
0.0151573
0.0151413
0.0151245
0.0151067
0.015088
0.0150683
0.0150478
0.0150262
0.0150037
0.0149803
0.0149559
0.0149304
0.014904
0.0148765
0.0148481
0.0148185
0.014788
0.0147563
0.0147235
0.0146897
0.0146547
0.0146185
0.0145813
0.0145428
0.0145031
0.0144622
0.0144201
0.0143767
0.0143321
0.0142861
0.0142388
0.0141902
0.0141402
0.0140888
0.014036
0.0139817
0.013926
0.0138688
0.01381
0.0137497
0.0136879
0.0136244
0.0135593
0.0134925
0.013424
0.0133538
0.0132818
0.013208
0.0131323
0.0130548
0.0129753
0.0128939
0.0128104
0.0127249
0.0126373
0.0125475
0.0124554
0.0123611
0.0122645
0.0121654
0.0120638
0.0119597
0.0118529
0.0117434
0.0116311
0.0115158
0.0113974
0.0112759
0.0111511
0.0110228
0.0108908
0.0107551
0.0106153
0.0104713
0.0103228
0.0101695
0.0100111
0.00984719
0.0096774
0.00950122
0.00931808
0.00912735
0.00892827
0.00871996
0.00850139
0.00827135
0.00802837
0.00777072
0.00749625
0.00720237
0.0068859
0.00654289
0.00616844
0.00575647
0.00529937
0.00478759
0.00420936
0.00355038
0.00279341
0.00192153
0.000938904
9.08543e-05
0.000126696
0.00127166
0.00252176
0.00358726
0.00449405
0.00527877
0.0059694
0.00658596
0.00714279
0.00765029
0.00811618
0.00854629
0.00894517
0.00931638
0.00966283
0.00998691
0.0102906
0.0105757
0.0108435
0.0110955
0.0113328
0.0115564
0.0117673
0.0119663
0.0121542
0.0123317
0.0124994
0.0126581
0.0128082
0.0129504
0.013085
0.0132125
0.0133334
0.013448
0.0135566
0.0136598
0.0137576
0.0138505
0.0139387
0.0140224
0.0141018
0.0141772
0.0142488
0.0143166
0.0143809
0.0144418
0.0144996
0.0145543
0.0146062
0.0146554
0.014702
0.0147462
0.014788
0.0148276
0.014865
0.0149004
0.0149338
0.0149653
0.014995
0.015023
0.0150492
0.0150739
0.0150969
0.0151185
0.0151386
0.0151572
0.0151745
0.0151904
0.0152051
0.0152184
0.0152306
0.0152415
0.0152513
0.01526
0.0152675
0.015274
0.0152794
0.0152837
0.0152871
0.0152894
0.0152908
0.0152911
0.0152906
0.015289
0.0152866
0.0152832
0.0152789
0.0152737
0.0152676
0.0152605
0.0152526
0.0152438
0.0152341
0.0152236
0.0152121
0.0151997
0.0151865
0.0151723
0.0151573
0.0151413
0.0151245
0.0151067
0.015088
0.0150683
0.0150478
0.0150262
0.0150037
0.0149803
0.0149559
0.0149304
0.014904
0.0148765
0.0148481
0.0148185
0.0147879
0.0147563
0.0147235
0.0146897
0.0146547
0.0146185
0.0145813
0.0145428
0.0145031
0.0144622
0.0144201
0.0143767
0.0143321
0.0142861
0.0142388
0.0141902
0.0141402
0.0140888
0.014036
0.0139817
0.013926
0.0138688
0.01381
0.0137497
0.0136879
0.0136244
0.0135593
0.0134925
0.013424
0.0133538
0.0132818
0.013208
0.0131323
0.0130548
0.0129753
0.0128939
0.0128104
0.0127249
0.0126373
0.0125475
0.0124554
0.0123611
0.0122645
0.0121654
0.0120638
0.0119597
0.0118529
0.0117434
0.0116311
0.0115158
0.0113974
0.0112759
0.0111511
0.0110228
0.0108908
0.0107551
0.0106153
0.0104713
0.0103228
0.0101695
0.0100111
0.00984719
0.00967739
0.00950121
0.00931808
0.00912735
0.00892827
0.00871995
0.00850139
0.00827134
0.00802837
0.00777071
0.00749624
0.00720237
0.0068859
0.00654288
0.00616844
0.00575647
0.00529937
0.00478759
0.00420936
0.00355038
0.00279341
0.00192153
0.000938902
9.08543e-05
0.000134393
0.00135537
0.00271814
0.0039023
0.00492342
0.00581518
0.00660517
0.007314
0.00795682
0.0085448
0.00908635
0.00958786
0.0100543
0.0104896
0.010897
0.0112791
0.0116381
0.0119758
0.012294
0.0125939
0.0128769
0.0131442
0.0133967
0.0136354
0.0138611
0.0140747
0.014277
0.0144685
0.01465
0.0148221
0.0149852
0.01514
0.0152868
0.0154263
0.0155587
0.0156845
0.0158041
0.0159177
0.0160258
0.0161285
0.0162262
0.0163191
0.0164075
0.0164915
0.0165713
0.0166472
0.0167194
0.016788
0.0168532
0.0169152
0.0169742
0.0170303
0.0170837
0.0171343
0.0171825
0.0172282
0.0172716
0.0173128
0.0173518
0.0173887
0.0174237
0.0174567
0.0174879
0.0175174
0.017545
0.017571
0.0175954
0.0176182
0.0176395
0.0176593
0.0176776
0.0176945
0.0177101
0.0177243
0.0177372
0.0177488
0.0177592
0.0177683
0.0177762
0.0177829
0.0177885
0.0177929
0.0177961
0.0177983
0.0177993
0.0177992
0.017798
0.0177957
0.0177923
0.0177879
0.0177823
0.0177757
0.0177681
0.0177593
0.0177495
0.0177386
0.0177267
0.0177136
0.0176995
0.0176843
0.017668
0.0176506
0.017632
0.0176124
0.0175916
0.0175696
0.0175465
0.0175222
0.0174968
0.0174701
0.0174422
0.0174131
0.0173828
0.0173511
0.0173182
0.017284
0.0172485
0.0172117
0.0171734
0.0171338
0.0170928
0.0170504
0.0170065
0.0169611
0.0169142
0.0168658
0.0168159
0.0167644
0.0167113
0.0166565
0.0166001
0.016542
0.0164821
0.0164206
0.0163572
0.016292
0.016225
0.016156
0.0160852
0.0160123
0.0159375
0.0158607
0.0157817
0.0157007
0.0156174
0.015532
0.0154443
0.0153542
0.0152618
0.015167
0.0150697
0.0149698
0.0148674
0.0147622
0.0146544
0.0145437
0.0144301
0.0143134
0.0141938
0.0140709
0.0139447
0.0138152
0.0136821
0.0135454
0.0134048
0.0132603
0.0131117
0.0129587
0.0128012
0.0126389
0.0124716
0.0122991
0.0121208
0.0119366
0.011746
0.0115486
0.0113437
0.0111309
0.0109094
0.0106784
0.010437
0.0101841
0.0099185
0.00963864
0.0093428
0.00902886
0.00869431
0.00833612
0.0079506
0.00753332
0.00707884
0.00658056
0.00603043
0.00541867
0.00473353
0.00396148
0.00308744
0.00209926
0.00101125
9.63959e-05
0.000134393
0.00135539
0.00271817
0.00390234
0.00492347
0.00581522
0.00660522
0.00731406
0.00795687
0.00854486
0.00908641
0.00958792
0.0100544
0.0104897
0.0108971
0.0112792
0.0116381
0.0119759
0.012294
0.0125939
0.012877
0.0131442
0.0133967
0.0136354
0.0138612
0.0140748
0.014277
0.0144686
0.0146501
0.0148221
0.0149852
0.01514
0.0152869
0.0154263
0.0155587
0.0156846
0.0158041
0.0159178
0.0160258
0.0161286
0.0162262
0.0163192
0.0164075
0.0164915
0.0165713
0.0166472
0.0167194
0.016788
0.0168532
0.0169153
0.0169743
0.0170303
0.0170837
0.0171343
0.0171825
0.0172282
0.0172716
0.0173128
0.0173518
0.0173887
0.0174237
0.0174568
0.0174879
0.0175174
0.017545
0.017571
0.0175954
0.0176182
0.0176395
0.0176593
0.0176776
0.0176945
0.0177101
0.0177243
0.0177372
0.0177488
0.0177592
0.0177683
0.0177762
0.0177829
0.0177885
0.0177929
0.0177961
0.0177983
0.0177993
0.0177992
0.017798
0.0177957
0.0177923
0.0177878
0.0177823
0.0177757
0.0177681
0.0177593
0.0177495
0.0177386
0.0177267
0.0177136
0.0176995
0.0176843
0.017668
0.0176506
0.017632
0.0176124
0.0175916
0.0175696
0.0175465
0.0175222
0.0174968
0.0174701
0.0174422
0.0174131
0.0173828
0.0173511
0.0173182
0.017284
0.0172485
0.0172116
0.0171734
0.0171338
0.0170928
0.0170504
0.0170065
0.0169611
0.0169142
0.0168658
0.0168159
0.0167644
0.0167113
0.0166565
0.0166001
0.016542