/*--------------------------------*- C++ -*----------------------------------*\
  =========                 |
  \\      /  F ield         | OpenFOAM: The Open Source CFD Toolbox
   \\    /   O peration     | Website:  https://openfoam.org
    \\  /    A nd           | Version:  8
     \\/     M anipulation  |
\*---------------------------------------------------------------------------*/
FoamFile
{
    version     2.0;
    format      ascii;
    class       surfaceScalarField;
    location    "3700";
    object      phi;
}
// * * * * * * * * * * * * * * * * * * * * * * * * * * * * * * * * * * * * * //

dimensions      [1 0 -1 0 0 0 0];

internalField   nonuniform List<scalar> 
119360
(
-3.54617e-07
2.22866e-12
3.54615e-07
-6.30286e-07
3.06143e-13
2.75623e-07
-7.64755e-07
2.68673e-13
1.34456e-07
-7.69213e-07
9.54786e-14
4.44648e-09
-6.76547e-07
-2.15388e-14
-9.26753e-08
-5.16872e-07
-1.0969e-13
-1.59685e-07
-3.12384e-07
-1.69698e-13
-2.04497e-07
-7.8967e-08
-2.08972e-13
-2.33426e-07
1.71717e-07
-2.38754e-13
-2.50693e-07
4.31051e-07
-2.4844e-13
-2.59343e-07
6.93238e-07
-2.34673e-13
-2.62195e-07
9.54263e-07
-2.14328e-13
-2.61033e-07
1.21122e-06
-1.89959e-13
-2.5697e-07
1.46201e-06
-1.63869e-13
-2.50798e-07
1.70509e-06
-1.37445e-13
-2.43081e-07
1.93931e-06
-1.11966e-13
-2.34232e-07
2.16387e-06
-8.79571e-14
-2.24564e-07
2.37818e-06
-6.58081e-14
-2.14317e-07
2.58185e-06
-4.57685e-14
-2.03678e-07
2.77464e-06
-2.78384e-14
-1.92797e-07
2.95643e-06
-1.19344e-14
-1.81796e-07
3.12719e-06
2.0683e-15
-1.70772e-07
3.28699e-06
1.43085e-14
-1.59806e-07
3.43595e-06
2.48557e-14
-1.48967e-07
3.57425e-06
3.3904e-14
-1.3831e-07
3.70213e-06
4.15091e-14
-1.27882e-07
3.81984e-06
4.79068e-14
-1.17722e-07
3.9277e-06
5.31249e-14
-1.0786e-07
4.02601e-06
5.72744e-14
-9.83242e-08
4.11514e-06
6.03691e-14
-8.91346e-08
4.19544e-06
6.26451e-14
-8.03074e-08
4.26729e-06
6.40884e-14
-7.18549e-08
4.33107e-06
6.4935e-14
-6.37856e-08
4.38717e-06
6.50738e-14
-5.61048e-08
4.43598e-06
6.46991e-14
-4.88148e-08
4.47789e-06
6.39081e-14
-4.19152e-08
4.51328e-06
6.2673e-14
-3.54034e-08
4.54255e-06
6.11604e-14
-2.92746e-08
4.56607e-06
5.93841e-14
-2.35223e-08
4.5842e-06
5.73579e-14
-1.81384e-08
4.59731e-06
5.52485e-14
-1.31134e-08
4.60574e-06
5.29726e-14
-8.43698e-09
4.60983e-06
5.06412e-14
-4.0976e-09
4.60991e-06
4.82265e-14
-8.11463e-11
4.60628e-06
4.58256e-14
3.6253e-09
4.59924e-06
4.35358e-14
7.03434e-09
4.58907e-06
4.12599e-14
1.01609e-08
4.57605e-06
3.91088e-14
1.30194e-08
4.56042e-06
3.71105e-14
1.56242e-08
4.54243e-06
3.51815e-14
1.79892e-08
4.52229e-06
3.33496e-14
2.01286e-08
4.50023e-06
3.16982e-14
2.2056e-08
4.47644e-06
3.02688e-14
2.37851e-08
4.45111e-06
2.89088e-14
2.5329e-08
4.4244e-06
2.77847e-14
2.67007e-08
4.39649e-06
2.67994e-14
2.79126e-08
4.36751e-06
2.59251e-14
2.89765e-08
4.3376e-06
2.51619e-14
2.9904e-08
4.30689e-06
2.46623e-14
3.07058e-08
4.27549e-06
2.42737e-14
3.13925e-08
4.24351e-06
2.39129e-14
3.19737e-08
4.21105e-06
2.3899e-14
3.24587e-08
4.17819e-06
2.39268e-14
3.28562e-08
4.14501e-06
2.40656e-14
3.31743e-08
4.11159e-06
2.42876e-14
3.34206e-08
4.07798e-06
2.46762e-14
3.36023e-08
4.04425e-06
2.51758e-14
3.37258e-08
4.01045e-06
2.57726e-14
3.37973e-08
3.97663e-06
2.64387e-14
3.38224e-08
3.94282e-06
2.71881e-14
3.38063e-08
3.90906e-06
2.79653e-14
3.37537e-08
3.87539e-06
2.88118e-14
3.36691e-08
3.84183e-06
2.97555e-14
3.35565e-08
3.8084e-06
3.07547e-14
3.34195e-08
3.77514e-06
3.17261e-14
3.32616e-08
3.74205e-06
3.27114e-14
3.30856e-08
3.70915e-06
3.37662e-14
3.28946e-08
3.67646e-06
3.48764e-14
3.26909e-08
3.64398e-06
3.59033e-14
3.24769e-08
3.61172e-06
3.69858e-14
3.22547e-08
3.57969e-06
3.81099e-14
3.20261e-08
3.54789e-06
3.92062e-14
3.1793e-08
3.51633e-06
4.03164e-14
3.15568e-08
3.48501e-06
4.14266e-14
3.13191e-08
3.45392e-06
4.25507e-14
3.10811e-08
3.42307e-06
4.35638e-14
3.0844e-08
3.39246e-06
4.46046e-14
3.06088e-08
3.36208e-06
4.57287e-14
3.03767e-08
3.33193e-06
4.67417e-14
3.01483e-08
3.302e-06
4.7727e-14
2.99248e-08
3.27229e-06
4.87401e-14
2.97066e-08
3.24279e-06
4.96838e-14
2.94947e-08
3.2135e-06
5.06135e-14
2.92896e-08
3.1844e-06
5.16127e-14
2.9092e-08
3.1555e-06
5.25564e-14
2.89024e-08
3.12677e-06
5.33474e-14
2.87214e-08
3.09822e-06
5.41523e-14
2.85495e-08
3.06983e-06
5.49294e-14
2.83871e-08
3.04159e-06
5.57343e-14
2.82347e-08
3.01349e-06
5.65115e-14
2.80929e-08
2.98553e-06
5.72886e-14
2.79618e-08
2.95768e-06
5.8038e-14
2.78421e-08
2.92994e-06
5.8718e-14
2.7734e-08
2.9023e-06
5.93286e-14
2.7638e-08
2.87474e-06
5.99947e-14
2.75543e-08
2.84725e-06
6.06608e-14
2.74834e-08
2.81982e-06
6.1313e-14
2.74256e-08
2.79244e-06
6.18959e-14
2.73811e-08
2.76508e-06
6.24509e-14
2.73505e-08
2.73775e-06
6.30754e-14
2.73338e-08
2.71041e-06
6.35889e-14
2.73315e-08
2.68306e-06
6.41301e-14
2.73439e-08
2.65569e-06
6.46574e-14
2.73712e-08
2.62827e-06
6.52125e-14
2.74137e-08
2.60079e-06
6.57954e-14
2.74717e-08
2.57324e-06
6.63088e-14
2.75455e-08
2.5456e-06
6.685e-14
2.76353e-08
2.51786e-06
6.73357e-14
2.77413e-08
2.48999e-06
6.79047e-14
2.78638e-08
2.46198e-06
6.84182e-14
2.8003e-08
2.43382e-06
6.89733e-14
2.81591e-08
2.40548e-06
6.95145e-14
2.83323e-08
2.37695e-06
7.01528e-14
2.85227e-08
2.34822e-06
7.07634e-14
2.87306e-08
2.31926e-06
7.13602e-14
2.89561e-08
2.29005e-06
7.20818e-14
2.91993e-08
2.26059e-06
7.28034e-14
2.94604e-08
2.23084e-06
7.3414e-14
2.97393e-08
2.2008e-06
7.43022e-14
3.00361e-08
2.17045e-06
7.49961e-14
3.03509e-08
2.13976e-06
7.5912e-14
3.06838e-08
2.10872e-06
7.67169e-14
3.10345e-08
2.07731e-06
7.7605e-14
3.14032e-08
2.04552e-06
7.85487e-14
3.17897e-08
2.01332e-06
7.95479e-14
3.21938e-08
1.9807e-06
8.06581e-14
3.26154e-08
1.94764e-06
8.17128e-14
3.30543e-08
1.91412e-06
8.2934e-14
3.35103e-08
1.88013e-06
8.40442e-14
3.39829e-08
1.84566e-06
8.5321e-14
3.44719e-08
1.81067e-06
8.66255e-14
3.49768e-08
1.77517e-06
8.80688e-14
3.54972e-08
1.73913e-06
8.9512e-14
3.60326e-08
1.70255e-06
9.09831e-14
3.65822e-08
1.66539e-06
9.25929e-14
3.71455e-08
1.62767e-06
9.42304e-14
3.77217e-08
1.58935e-06
9.5868e-14
3.831e-08
1.55044e-06
9.77831e-14
3.89094e-08
1.51091e-06
9.96428e-14
3.9519e-08
1.47077e-06
1.01558e-13
4.01376e-08
1.43e-06
1.03584e-13
4.07641e-08
1.38859e-06
1.05749e-13
4.13971e-08
1.34655e-06
1.07997e-13
4.20351e-08
1.30387e-06
1.10634e-13
4.26766e-08
1.26054e-06
1.13382e-13
4.33198e-08
1.21657e-06
1.16268e-13
4.39629e-08
1.17196e-06
1.19432e-13
4.46037e-08
1.12672e-06
1.22846e-13
4.52402e-08
1.08084e-06
1.26593e-13
4.58697e-08
1.03434e-06
1.30701e-13
4.64896e-08
9.87239e-07
1.35003e-13
4.70971e-08
9.39542e-07
1.39472e-13
4.76887e-08
8.91274e-07
1.44274e-13
4.82611e-08
8.42456e-07
1.49075e-13
4.88102e-08
7.93116e-07
1.53877e-13
4.93319e-08
7.43287e-07
1.58484e-13
4.98212e-08
6.93005e-07
1.6287e-13
5.02731e-08
6.42315e-07
1.66867e-13
5.06814e-08
5.91267e-07
1.70225e-13
5.10399e-08
5.39917e-07
1.73167e-13
5.1341e-08
4.88331e-07
1.75582e-13
5.15766e-08
4.36584e-07
1.77664e-13
5.17374e-08
3.84762e-07
1.79717e-13
5.1813e-08
3.3296e-07
1.82188e-13
5.17916e-08
2.81291e-07
1.85019e-13
5.16597e-08
2.29879e-07
1.8871e-13
5.14018e-08
1.78868e-07
1.93318e-13
5.10004e-08
1.28422e-07
1.98869e-13
5.04348e-08
7.87311e-08
2.04753e-13
4.96801e-08
3.00125e-08
2.09999e-13
4.87072e-08
-1.74732e-08
2.12469e-13
4.74741e-08
-6.34106e-08
2.10693e-13
4.59254e-08
-1.07446e-07
2.06391e-13
4.40238e-08
-1.49195e-07
2.01728e-13
4.17363e-08
-1.88213e-07
1.98064e-13
3.90058e-08
-2.23975e-07
1.98341e-13
3.57495e-08
-2.55863e-07
2.0628e-13
3.18752e-08
-2.83154e-07
2.25209e-13
2.72776e-08
-3.0499e-07
2.55851e-13
2.18235e-08
-3.20364e-07
2.94931e-13
1.53598e-08
-3.28082e-07
3.33511e-13
7.70441e-09
-3.26758e-07
3.55549e-13
-1.33913e-09
-3.1485e-07
3.46501e-13
-1.19253e-08
-2.90696e-07
3.06089e-13
-2.41706e-08
-2.52671e-07
2.59126e-13
-3.80435e-08
-1.99695e-07
2.61069e-13
-5.29963e-08
-1.32503e-07
3.50053e-13
-6.72117e-08
-5.65722e-08
4.43534e-13
-7.5955e-08
5.55413e-09
4.6052e-13
-6.21597e-08
1.00808e-13
5.50203e-09
-3.54628e-07
3.54604e-07
-6.30286e-07
2.75618e-07
-7.64753e-07
1.34453e-07
-7.6921e-07
4.44402e-09
-6.76544e-07
-9.26775e-08
-5.16868e-07
-1.59687e-07
-3.1238e-07
-2.04499e-07
-7.89632e-08
-2.33428e-07
1.7172e-07
-2.50695e-07
4.31054e-07
-2.59345e-07
6.93241e-07
-2.62197e-07
9.54265e-07
-2.61035e-07
1.21123e-06
-2.56971e-07
1.46202e-06
-2.50799e-07
1.70509e-06
-2.43082e-07
1.93931e-06
-2.34233e-07
2.16387e-06
-2.24565e-07
2.37818e-06
-2.14318e-07
2.58185e-06
-2.03679e-07
2.77464e-06
-1.92798e-07
2.95643e-06
-1.81797e-07
3.12719e-06
-1.70773e-07
3.28699e-06
-1.59808e-07
3.43595e-06
-1.48968e-07
3.57425e-06
-1.38311e-07
3.70213e-06
-1.27883e-07
3.81984e-06
-1.17722e-07
3.9277e-06
-1.07861e-07
4.02601e-06
-9.83251e-08
4.11514e-06
-8.91354e-08
4.19544e-06
-8.03082e-08
4.26729e-06
-7.18558e-08
4.33107e-06
-6.37865e-08
4.38717e-06
-5.61057e-08
4.43598e-06
-4.88156e-08
4.47789e-06
-4.1916e-08
4.51328e-06
-3.54042e-08
4.54255e-06
-2.92754e-08
4.56607e-06
-2.35231e-08
4.5842e-06
-1.81391e-08
4.59731e-06
-1.31142e-08
4.60574e-06
-8.43773e-09
4.60983e-06
-4.09835e-09
4.60991e-06
-8.18821e-11
4.60628e-06
3.62457e-09
4.59924e-06
7.03362e-09
4.58907e-06
1.01602e-08
4.57605e-06
1.30187e-08
4.56042e-06
1.56235e-08
4.54242e-06
1.79885e-08
4.52229e-06
2.01279e-08
4.50023e-06
2.20553e-08
4.47644e-06
2.37844e-08
4.45111e-06
2.53284e-08
4.4244e-06
2.67001e-08
4.39649e-06
2.79119e-08
4.36751e-06
2.89759e-08
4.3376e-06
2.99033e-08
4.30689e-06
3.07052e-08
4.27549e-06
3.13919e-08
4.24351e-06
3.19731e-08
4.21105e-06
3.24581e-08
4.17819e-06
3.28556e-08
4.14501e-06
3.31737e-08
4.11159e-06
3.342e-08
4.07798e-06
3.36017e-08
4.04425e-06
3.37252e-08
4.01045e-06
3.37967e-08
3.97663e-06
3.38218e-08
3.94282e-06
3.38057e-08
3.90906e-06
3.37532e-08
3.87539e-06
3.36686e-08
3.84183e-06
3.35559e-08
3.8084e-06
3.3419e-08
3.77514e-06
3.3261e-08
3.74205e-06
3.30851e-08
3.70915e-06
3.2894e-08
3.67645e-06
3.26903e-08
3.64397e-06
3.24763e-08
3.61172e-06
3.22541e-08
3.57969e-06
3.20256e-08
3.54789e-06
3.17924e-08
3.51633e-06
3.15563e-08
3.48501e-06
3.13186e-08
3.45392e-06
3.10805e-08
3.42307e-06
3.08434e-08
3.39246e-06
3.06083e-08
3.36208e-06
3.03761e-08
3.33193e-06
3.01478e-08
3.302e-06
2.99242e-08
3.27229e-06
2.97061e-08
3.24279e-06
2.94941e-08
3.2135e-06
2.92891e-08
3.1844e-06
2.90914e-08
3.1555e-06
2.89018e-08
3.12677e-06
2.87208e-08
3.09822e-06
2.85489e-08
3.06983e-06
2.83865e-08
3.04159e-06
2.82342e-08
3.01349e-06
2.80923e-08
2.98553e-06
2.79613e-08
2.95768e-06
2.78415e-08
2.92994e-06
2.77334e-08
2.9023e-06
2.76374e-08
2.87474e-06
2.75537e-08
2.84725e-06
2.74828e-08
2.81982e-06
2.7425e-08
2.79244e-06
2.73805e-08
2.76508e-06
2.73499e-08
2.73775e-06
2.73332e-08
2.71041e-06
2.73309e-08
2.68306e-06
2.73433e-08
2.65569e-06
2.73706e-08
2.62827e-06
2.74131e-08
2.60079e-06
2.74711e-08
2.57324e-06
2.75449e-08
2.5456e-06
2.76346e-08
2.51786e-06
2.77406e-08
2.48999e-06
2.78631e-08
2.46198e-06
2.80023e-08
2.43382e-06
2.81584e-08
2.40548e-06
2.83316e-08
2.37695e-06
2.85221e-08
2.34822e-06
2.873e-08
2.31926e-06
2.89555e-08
2.29005e-06
2.91987e-08
2.26059e-06
2.94597e-08
2.23084e-06
2.97386e-08
2.2008e-06
3.00354e-08
2.17045e-06
3.03502e-08
2.13976e-06
3.06831e-08
2.10872e-06
3.10338e-08
2.07731e-06
3.14025e-08
2.04552e-06
3.17889e-08
2.01332e-06
3.21931e-08
1.9807e-06
3.26147e-08
1.94764e-06
3.30536e-08
1.91412e-06
3.35095e-08
1.88013e-06
3.39821e-08
1.84566e-06
3.44711e-08
1.81067e-06
3.49761e-08
1.77517e-06
3.54964e-08
1.73913e-06
3.60318e-08
1.70255e-06
3.65814e-08
1.66539e-06
3.71447e-08
1.62767e-06
3.77209e-08
1.58935e-06
3.83092e-08
1.55044e-06
3.89086e-08
1.51091e-06
3.95182e-08
1.47077e-06
4.01368e-08
1.43e-06
4.07632e-08
1.38859e-06
4.13962e-08
1.34655e-06
4.20342e-08
1.30387e-06
4.26756e-08
1.26054e-06
4.33188e-08
1.21657e-06
4.39619e-08
1.17196e-06
4.46028e-08
1.12672e-06
4.52392e-08
1.08084e-06
4.58687e-08
1.03434e-06
4.64886e-08
9.87239e-07
4.7096e-08
9.39543e-07
4.76877e-08
8.91274e-07
4.826e-08
8.42456e-07
4.88091e-08
7.93116e-07
4.93307e-08
7.43287e-07
4.98201e-08
6.93006e-07
5.02719e-08
6.42316e-07
5.06802e-08
5.91267e-07
5.10386e-08
5.39917e-07
5.13397e-08
4.88332e-07
5.15753e-08
4.36585e-07
5.17361e-08
3.84762e-07
5.18117e-08
3.32961e-07
5.17902e-08
2.81291e-07
5.16582e-08
2.29879e-07
5.14004e-08
1.78868e-07
5.09989e-08
1.28423e-07
5.04333e-08
7.87315e-08
4.96785e-08
3.00129e-08
4.87056e-08
-1.74728e-08
4.74725e-08
-6.34102e-08
4.59238e-08
-1.07446e-07
4.40221e-08
-1.49195e-07
4.17346e-08
-1.88213e-07
3.90041e-08
-2.23975e-07
3.57477e-08
-2.55863e-07
3.18734e-08
-2.83153e-07
2.72758e-08
-3.0499e-07
2.18217e-08
-3.20363e-07
1.53578e-08
-3.28082e-07
7.70236e-09
-3.26759e-07
-1.34133e-09
-3.1485e-07
-1.19276e-08
-2.90697e-07
-2.41732e-08
-2.52672e-07
-3.80462e-08
-1.99695e-07
-5.2999e-08
-1.32505e-07
-6.72143e-08
-5.65766e-08
-7.59585e-08
5.54676e-09
-6.21664e-08
5.48329e-09
-2.49345e-07
2.33865e-13
6.03917e-07
-3.0956e-07
2.82264e-14
3.35814e-07
-2.8797e-07
3.7872e-14
1.12855e-07
-2.12787e-07
4.73199e-15
-7.07463e-08
-9.40419e-08
-7.8967e-15
-2.11429e-07
5.99663e-08
-1.92209e-14
-3.13702e-07
2.40801e-07
-2.84982e-14
-3.8534e-07
4.40873e-07
-3.53746e-14
-4.33508e-07
6.54e-07
-4.02317e-14
-4.63828e-07
8.75211e-07
-4.23203e-14
-4.80563e-07
1.1004e-06
-4.22093e-14
-4.8739e-07
1.32629e-06
-4.12308e-14
-4.86928e-07
1.55033e-06
-3.94614e-14
-4.81019e-07
1.77054e-06
-3.72756e-14
-4.71022e-07
1.9854e-06
-3.48921e-14
-4.57944e-07
2.19371e-06
-3.24357e-14
-4.42548e-07
2.39456e-06
-3.00348e-14
-4.25424e-07
2.58727e-06
-2.77484e-14
-4.07034e-07
2.77133e-06
-2.56112e-14
-3.87745e-07
2.94638e-06
-2.36544e-14
-3.67855e-07
3.11219e-06
-2.18468e-14
-3.47607e-07
3.26861e-06
-2.02162e-14
-3.27199e-07
3.41559e-06
-1.87555e-14
-3.068e-07
3.55317e-06
-1.74371e-14
-2.86546e-07
3.68141e-06
-1.62817e-14
-2.66556e-07
3.80044e-06
-1.52582e-14
-2.46926e-07
3.91045e-06
-1.43666e-14
-2.2774e-07
4.01165e-06
-1.36102e-14
-2.09064e-07
4.10428e-06
-1.29718e-14
-1.90956e-07
4.1886e-06
-1.24409e-14
-1.73461e-07
4.2649e-06
-1.20177e-14
-1.56616e-07
4.33349e-06
-1.16915e-14
-1.40448e-07
4.39468e-06
-1.14243e-14
-1.2498e-07
4.44879e-06
-1.12404e-14
-1.10225e-07
4.49616e-06
-1.11467e-14
-9.6192e-08
4.53712e-06
-1.10635e-14
-8.28831e-08
4.57201e-06
-1.10426e-14
-7.02967e-08
4.60116e-06
-1.10565e-14
-5.84267e-08
4.62489e-06
-1.10981e-14
-4.72634e-08
4.64354e-06
-1.1164e-14
-3.67936e-08
4.65743e-06
-1.12264e-14
-2.70012e-08
4.66685e-06
-1.13201e-14
-1.7868e-08
4.67212e-06
-1.13929e-14
-9.37323e-09
4.67353e-06
-1.14346e-14
-1.49421e-09
4.67136e-06
-1.15109e-14
5.79242e-09
4.66588e-06
-1.16115e-14
1.25112e-08
4.65735e-06
-1.16739e-14
1.86883e-08
4.64601e-06
-1.16947e-14
2.43498e-08
4.63211e-06
-1.16912e-14
2.95221e-08
4.61586e-06
-1.16878e-14
3.42315e-08
4.59748e-06
-1.16496e-14
3.85042e-08
4.57717e-06
-1.16079e-14
4.23662e-08
4.55511e-06
-1.15351e-14
4.5843e-08
4.53147e-06
-1.1431e-14
4.89594e-08
4.50643e-06
-1.13199e-14
5.17399e-08
4.48013e-06
-1.11742e-14
5.42078e-08
4.45272e-06
-1.10389e-14
5.6386e-08
4.42432e-06
-1.08654e-14
5.82961e-08
4.39506e-06
-1.06781e-14
5.99589e-08
4.36506e-06
-1.04768e-14
6.13942e-08
4.33441e-06
-1.02826e-14
6.2621e-08
4.30321e-06
-1.00466e-14
6.36568e-08
4.27154e-06
-9.82111e-15
6.45185e-08
4.23949e-06
-9.58519e-15
6.52218e-08
4.20712e-06
-9.36661e-15
6.57814e-08
4.17451e-06
-9.13069e-15
6.6211e-08
4.14171e-06
-8.88089e-15
6.65236e-08
4.10877e-06
-8.63803e-15
6.67309e-08
4.07575e-06
-8.39518e-15
6.6844e-08
4.04268e-06
-8.1662e-15
6.68731e-08
4.0096e-06
-7.92681e-15
6.68276e-08
3.97655e-06
-7.7013e-15
6.67162e-08
3.94356e-06
-7.47579e-15
6.65468e-08
3.91065e-06
-7.26069e-15
6.63267e-08
3.87784e-06
-7.06988e-15
6.60626e-08
3.84516e-06
-6.86866e-15
6.57606e-08
3.81263e-06
-6.70907e-15
6.54263e-08
3.78025e-06
-6.52867e-15
6.50648e-08
3.74805e-06
-6.38296e-15
6.46807e-08
3.71602e-06
-6.21991e-15
6.42782e-08
3.68418e-06
-6.09155e-15
6.38614e-08
3.65254e-06
-5.97012e-15
6.34335e-08
3.62109e-06
-5.86258e-15
6.29979e-08
3.58985e-06
-5.77586e-15
6.25576e-08
3.55881e-06
-5.68566e-15
6.2115e-08
3.52798e-06
-5.63016e-15
6.16728e-08
3.49735e-06
-5.55385e-15
6.12331e-08
3.46693e-06
-5.50529e-15
6.0798e-08
3.4367e-06
-5.47407e-15
6.03693e-08
3.40668e-06
-5.4498e-15
5.99488e-08
3.37684e-06
-5.42552e-15
5.95381e-08
3.34719e-06
-5.41166e-15
5.91387e-08
3.31773e-06
-5.41861e-15
5.87519e-08
3.28844e-06
-5.4325e-15
5.8379e-08
3.25931e-06
-5.44292e-15
5.80212e-08
3.23035e-06
-5.46028e-15
5.76797e-08
3.20154e-06
-5.50193e-15
5.73555e-08
3.17288e-06
-5.55745e-15
5.70496e-08
3.14435e-06
-5.61645e-15
5.67629e-08
3.11594e-06
-5.65116e-15
5.64963e-08
3.08765e-06
-5.69974e-15
5.62508e-08
3.05946e-06
-5.76567e-15
5.60271e-08
3.03136e-06
-5.83855e-15
5.58259e-08
3.00335e-06
-5.91489e-15
5.56482e-08
2.9754e-06
-5.97735e-15
5.54946e-08
2.94752e-06
-6.03634e-15
5.53658e-08
2.91968e-06
-6.11962e-15
5.52625e-08
2.89187e-06
-6.19943e-15
5.51854e-08
2.86408e-06
-6.2723e-15
5.51351e-08
2.8363e-06
-6.35211e-15
5.51122e-08
2.80851e-06
-6.43192e-15
5.51174e-08
2.7807e-06
-6.51867e-15
5.51511e-08
2.75285e-06
-6.59501e-15
5.52141e-08
2.72495e-06
-6.67135e-15
5.53068e-08
2.69699e-06
-6.73034e-15
5.54298e-08
2.66895e-06
-6.79974e-15
5.55836e-08
2.64081e-06
-6.89343e-15
5.57686e-08
2.61256e-06
-6.9663e-15
5.59853e-08
2.58419e-06
-7.03223e-15
5.62342e-08
2.55567e-06
-7.11551e-15
5.65157e-08
2.527e-06
-7.18838e-15
5.68301e-08
2.49815e-06
-7.25084e-15
5.71778e-08
2.46911e-06
-7.30636e-15
5.75591e-08
2.43986e-06
-7.36882e-15
5.79743e-08
2.41039e-06
-7.43822e-15
5.84236e-08
2.38067e-06
-7.49721e-15
5.89073e-08
2.3507e-06
-7.53885e-15
5.94255e-08
2.32046e-06
-7.60825e-15
5.99784e-08
2.28993e-06
-7.64295e-15
6.05659e-08
2.25909e-06
-7.70194e-15
6.11881e-08
2.22792e-06
-7.75399e-15
6.1845e-08
2.19641e-06
-7.81645e-15
6.25364e-08
2.16455e-06
-7.87197e-15
6.32621e-08
2.13231e-06
-7.91361e-15
6.4022e-08
2.09969e-06
-7.98301e-15
6.48156e-08
2.06666e-06
-8.03159e-15
6.56425e-08
2.0332e-06
-8.08364e-15
6.65024e-08
1.99931e-06
-8.13915e-15
6.73945e-08
1.96497e-06
-8.21202e-15
6.83182e-08
1.93017e-06
-8.26754e-15
6.92726e-08
1.89488e-06
-8.32999e-15
7.0257e-08
1.8591e-06
-8.38551e-15
7.12702e-08
1.82282e-06
-8.47225e-15
7.23112e-08
1.78602e-06
-8.53471e-15
7.33785e-08
1.74869e-06
-8.60063e-15
7.44709e-08
1.71082e-06
-8.69431e-15
7.55867e-08
1.6724e-06
-8.79146e-15
7.67242e-08
1.63342e-06
-8.88514e-15
7.78814e-08
1.59388e-06
-8.97535e-15
7.90563e-08
1.55376e-06
-9.07597e-15
8.02466e-08
1.51307e-06
-9.187e-15
8.14498e-08
1.4718e-06
-9.29456e-15
8.26632e-08
1.42995e-06
-9.38824e-15
8.38837e-08
1.38751e-06
-9.47498e-15
8.51082e-08
1.34449e-06
-9.56865e-15
8.63331e-08
1.30089e-06
-9.6658e-15
8.75546e-08
1.25672e-06
-9.74907e-15
8.87685e-08
1.21199e-06
-9.81847e-15
8.99703e-08
1.16669e-06
-9.91214e-15
9.11551e-08
1.12086e-06
-9.98847e-15
9.23175e-08
1.0745e-06
-1.0096e-14
9.34516e-08
1.02763e-06
-1.0214e-14
9.4551e-08
9.80275e-07
-1.03736e-14
9.56087e-08
9.32461e-07
-1.05818e-14
9.6617e-08
8.84219e-07
-1.08454e-14
9.75674e-08
8.35582e-07
-1.12271e-14
9.84506e-08
7.86591e-07
-1.16573e-14
9.92563e-08
7.37292e-07
-1.21777e-14
9.99732e-08
6.87735e-07
-1.28161e-14
1.00589e-07
6.37979e-07
-1.34822e-14
1.01089e-07
5.88091e-07
-1.419e-14
1.01457e-07
5.38142e-07
-1.49047e-14
1.01677e-07
4.88218e-07
-1.55708e-14
1.01729e-07
4.38411e-07
-1.61051e-14
1.0159e-07
3.88826e-07
-1.65284e-14
1.01235e-07
3.39583e-07
-1.68268e-14
1.00636e-07
2.90814e-07
-1.69586e-14
9.976e-08
2.4267e-07
-1.70419e-14
9.85695e-08
1.9532e-07
-1.71599e-14
9.70203e-08
1.48956e-07
-1.75068e-14
9.5061e-08
1.03793e-07
-1.81799e-14
9.26268e-08
6.00685e-08
-1.90264e-14
8.96392e-08
1.80514e-08
-2.00395e-14
8.60302e-08
-2.19449e-08
-2.11705e-14
8.17218e-08
-5.95613e-08
-2.20657e-14
7.66111e-08
-9.44062e-08
-2.19824e-14
7.05834e-08
-1.26046e-07
-2.03379e-14
6.35034e-08
-1.53993e-07
-1.67643e-14
5.52129e-08
-1.77706e-07
-1.14075e-14
4.5525e-08
-1.96596e-07
-5.46089e-15
3.42368e-08
-2.10034e-07
-1.40163e-15
2.1129e-08
-2.17378e-07
-2.80329e-15
5.99024e-09
-2.17999e-07
-1.24969e-14
-1.13191e-08
-2.1138e-07
-2.90046e-14
-3.08059e-08
-1.97254e-07
-4.09672e-14
-5.21862e-08
-1.75774e-07
-2.498e-14
-7.44952e-08
-1.4764e-07
3.20022e-14
-9.53672e-08
-1.1391e-07
1.52933e-14
-1.09712e-07
-7.09368e-08
-1.48215e-13
-1.05176e-07
-1.99529e-12
-6.54818e-08
-2.49348e-07
6.03913e-07
-3.09559e-07
3.35811e-07
-2.87968e-07
1.12853e-07
-2.12785e-07
-7.07477e-08
-9.404e-08
-2.1143e-07
5.99681e-08
-3.13703e-07
2.40802e-07
-3.85341e-07
4.40875e-07
-4.33508e-07
6.54001e-07
-4.63828e-07
8.75212e-07
-4.80563e-07
1.1004e-06
-4.8739e-07
1.32629e-06
-4.86929e-07
1.55033e-06
-4.81019e-07
1.77054e-06
-4.71022e-07
1.9854e-06
-4.57944e-07
2.19371e-06
-4.42548e-07
2.39456e-06
-4.25424e-07
2.58727e-06
-4.07034e-07
2.77133e-06
-3.87745e-07
2.94638e-06
-3.67856e-07
3.11219e-06
-3.47607e-07
3.26861e-06
-3.27199e-07
3.41559e-06
-3.068e-07
3.55317e-06
-2.86546e-07
3.6814e-06
-2.66556e-07
3.80044e-06
-2.46926e-07
3.91045e-06
-2.2774e-07
4.01165e-06
-2.09064e-07
4.10428e-06
-1.90956e-07
4.1886e-06
-1.73461e-07
4.2649e-06
-1.56616e-07
4.33349e-06
-1.40448e-07
4.39467e-06
-1.2498e-07
4.44879e-06
-1.10225e-07
4.49616e-06
-9.6192e-08
4.53712e-06
-8.28831e-08
4.57201e-06
-7.02967e-08
4.60116e-06
-5.84268e-08
4.62489e-06
-4.72635e-08
4.64354e-06
-3.67936e-08
4.65743e-06
-2.70013e-08
4.66685e-06
-1.78681e-08
4.67212e-06
-9.37333e-09
4.67353e-06
-1.49432e-09
4.67136e-06
5.7923e-09
4.66588e-06
1.25111e-08
4.65735e-06
1.86882e-08
4.64601e-06
2.43496e-08
4.63211e-06
2.95219e-08
4.61586e-06
3.42313e-08
4.59748e-06
3.85041e-08
4.57717e-06
4.23661e-08
4.55511e-06
4.58428e-08
4.53147e-06
4.89593e-08
4.50643e-06
5.17397e-08
4.48013e-06
5.42077e-08
4.45272e-06
5.63858e-08
4.42432e-06
5.82959e-08
4.39506e-06
5.99587e-08
4.36506e-06
6.13941e-08
4.33441e-06
6.26208e-08
4.3032e-06
6.36566e-08
4.27154e-06
6.45183e-08
4.23949e-06
6.52216e-08
4.20712e-06
6.57812e-08
4.17451e-06
6.62109e-08
4.14171e-06
6.65234e-08
4.10877e-06
6.67307e-08
4.07575e-06
6.68438e-08
4.04268e-06
6.6873e-08
4.0096e-06
6.68275e-08
3.97655e-06
6.67161e-08
3.94356e-06
6.65467e-08
3.91065e-06
6.63266e-08
3.87784e-06
6.60625e-08
3.84516e-06
6.57605e-08
3.81263e-06
6.54261e-08
3.78025e-06
6.50646e-08
3.74804e-06
6.46805e-08
3.71602e-06
6.42781e-08
3.68418e-06
6.38612e-08
3.65254e-06
6.34334e-08
3.62109e-06
6.29978e-08
3.58985e-06
6.25574e-08
3.55881e-06
6.21149e-08
3.52798e-06
6.16727e-08
3.49735e-06
6.1233e-08
3.46693e-06
6.07979e-08
3.4367e-06
6.03692e-08
3.40668e-06
5.99487e-08
3.37684e-06
5.9538e-08
3.34719e-06
5.91386e-08
3.31773e-06
5.87518e-08
3.28844e-06
5.83789e-08
3.25931e-06
5.80211e-08
3.23035e-06
5.76796e-08
3.20154e-06
5.73554e-08
3.17288e-06
5.70495e-08
3.14434e-06
5.67628e-08
3.11594e-06
5.64962e-08
3.08765e-06
5.62507e-08
3.05946e-06
5.6027e-08
3.03136e-06
5.58258e-08
3.00335e-06
5.56481e-08
2.9754e-06
5.54945e-08
2.94752e-06
5.53657e-08
2.91968e-06
5.52624e-08
2.89187e-06
5.51853e-08
2.86408e-06
5.5135e-08
2.8363e-06
5.51121e-08
2.80851e-06
5.51173e-08
2.7807e-06
5.5151e-08
2.75285e-06
5.5214e-08
2.72495e-06
5.53067e-08
2.69699e-06
5.54297e-08
2.66895e-06
5.55835e-08
2.64081e-06
5.57685e-08
2.61256e-06
5.59852e-08
2.58419e-06
5.62341e-08
2.55567e-06
5.65156e-08
2.527e-06
5.683e-08
2.49815e-06
5.71777e-08
2.46911e-06
5.7559e-08
2.43986e-06
5.79742e-08
2.41039e-06
5.84235e-08
2.38067e-06
5.89072e-08
2.3507e-06
5.94254e-08
2.32046e-06
5.99783e-08
2.28993e-06
6.05658e-08
2.25909e-06
6.1188e-08
2.22792e-06
6.18449e-08
2.19641e-06
6.25363e-08
2.16455e-06
6.3262e-08
2.13231e-06
6.40218e-08
2.09969e-06
6.48155e-08
2.06665e-06
6.56424e-08
2.0332e-06
6.65023e-08
1.99931e-06
6.73944e-08
1.96497e-06
6.83181e-08
1.93017e-06
6.92725e-08
1.89488e-06
7.02569e-08
1.8591e-06
7.12701e-08
1.82282e-06
7.23111e-08
1.78602e-06
7.33784e-08
1.74869e-06
7.44708e-08
1.71082e-06
7.55866e-08
1.6724e-06
7.6724e-08
1.63342e-06
7.78813e-08
1.59388e-06
7.90562e-08
1.55377e-06
8.02465e-08
1.51307e-06
8.14497e-08
1.4718e-06
8.2663e-08
1.42995e-06
8.38836e-08
1.38751e-06
8.5108e-08
1.34449e-06
8.63329e-08
1.30089e-06
8.75544e-08
1.25672e-06
8.87684e-08
1.21199e-06
8.99702e-08
1.16669e-06
9.1155e-08
1.12086e-06
9.23174e-08
1.0745e-06
9.34515e-08
1.02763e-06
9.45509e-08
9.80275e-07
9.56086e-08
9.32462e-07
9.66169e-08
8.84219e-07
9.75673e-08
8.35582e-07
9.84505e-08
7.86591e-07
9.92562e-08
7.37292e-07
9.99731e-08
6.87735e-07
1.00589e-07
6.3798e-07
1.01088e-07
5.88091e-07
1.01457e-07
5.38142e-07
1.01677e-07
4.88218e-07
1.01729e-07
4.38411e-07
1.0159e-07
3.88827e-07
1.01235e-07
3.39583e-07
1.00636e-07
2.90814e-07
9.97598e-08
2.4267e-07
9.85693e-08
1.9532e-07
9.70201e-08
1.48956e-07
9.50608e-08
1.03793e-07
9.26267e-08
6.00687e-08
8.9639e-08
1.80516e-08
8.603e-08
-2.19447e-08
8.17216e-08
-5.95611e-08
7.6611e-08
-9.44061e-08
7.05832e-08
-1.26046e-07
6.35033e-08
-1.53992e-07
5.52127e-08
-1.77706e-07
4.55248e-08
-1.96596e-07
3.42366e-08
-2.10034e-07
2.11288e-08
-2.17378e-07
5.99002e-09
-2.17999e-07
-1.13193e-08
-2.1138e-07
-3.08062e-08
-1.97254e-07
-5.21865e-08
-1.75774e-07
-7.44955e-08
-1.47641e-07
-9.53678e-08
-1.13912e-07
-1.09713e-07
-7.09448e-08
-1.05177e-07
-6.54814e-08
-9.11468e-08
3.80802e-13
6.95051e-07
-5.45477e-08
2.79489e-14
2.99202e-07
3.30964e-08
4.20631e-14
2.52075e-08
1.46456e-07
3.06766e-14
-1.84108e-07
2.79837e-07
3.2179e-14
-3.44812e-07
4.31134e-07
3.19847e-14
-4.65001e-07
5.97856e-07
3.06837e-14
-5.52064e-07
7.76988e-07
2.88866e-14
-6.12641e-07
9.65452e-07
2.64233e-14
-6.52294e-07
1.16042e-06
2.37588e-14
-6.75529e-07
1.35913e-06
2.13788e-14
-6.86105e-07
1.55913e-06
1.91826e-14
-6.86935e-07
1.75836e-06
1.73091e-14
-6.80241e-07
1.95507e-06
1.57202e-14
-6.67733e-07
2.14786e-06
1.43948e-14
-6.50735e-07
2.33559e-06
1.3276e-14
-6.3028e-07
2.51735e-06
1.23236e-14
-6.07186e-07
2.69242e-06
1.14996e-14
-5.82107e-07
2.86025e-06
1.07884e-14
-5.55576e-07
3.02042e-06
1.01622e-14
-5.28025e-07
3.17262e-06
9.59843e-15
-4.99814e-07
3.31666e-06
9.10058e-15
-4.71242e-07
3.45242e-06
8.65304e-15
-4.42559e-07
3.57985e-06
8.23151e-15
-4.13977e-07
3.69897e-06
7.85509e-15
-3.85674e-07
3.80984e-06
7.49255e-15
-3.578e-07
3.91258e-06
7.17164e-15
-3.30483e-07
4.00734e-06
6.86113e-15
-3.03829e-07
4.09431e-06
6.56277e-15
-2.77927e-07
4.1737e-06
6.29043e-15
-2.52851e-07
4.24574e-06
6.02503e-15
-2.28658e-07
4.31069e-06
5.76831e-15
-2.05397e-07
4.36881e-06
5.52199e-15
-1.83102e-07
4.42038e-06
5.28781e-15
-1.61799e-07
4.4657e-06
5.05884e-15
-1.41504e-07
4.50504e-06
4.85068e-15
-1.22226e-07
4.5387e-06
4.65293e-15
-1.03966e-07
4.56699e-06
4.45865e-15
-8.67175e-08
4.5902e-06
4.27825e-15
-7.04709e-08
4.60862e-06
4.09611e-15
-5.52095e-08
4.62253e-06
3.93652e-15
-4.09129e-08
4.63221e-06
3.78735e-15
-2.75568e-08
4.63795e-06
3.65205e-15
-1.51138e-08
4.64001e-06
3.53583e-15
-3.55349e-09
4.63865e-06
3.41614e-15
7.15624e-09
4.63411e-06
3.31379e-15
1.70493e-08
4.62663e-06
3.22186e-15
2.61613e-08
4.61645e-06
3.15594e-15
3.45286e-08
4.60379e-06
3.09697e-15
4.21882e-08
4.58884e-06
3.0536e-15
4.91769e-08
4.57181e-06
3.01718e-15
5.55319e-08
4.55289e-06
3.00677e-15
6.12898e-08
4.53224e-06
2.9981e-15
6.64868e-08
4.51004e-06
2.99464e-15
7.11582e-08
4.48644e-06
3.01719e-15
7.53388e-08
4.46159e-06
3.04148e-15
7.90622e-08
4.43561e-06
3.07617e-15
8.23606e-08
4.40864e-06
3.11087e-15
8.52655e-08
4.38079e-06
3.16638e-15
8.78065e-08
4.35217e-06
3.22883e-15
9.00123e-08
4.32288e-06
3.28954e-15
9.19099e-08
4.29302e-06
3.36067e-15
9.35251e-08
4.26265e-06
3.43699e-15
9.4882e-08
4.23187e-06
3.50812e-15
9.60034e-08
4.20074e-06
3.58097e-15
9.69109e-08
4.16932e-06
3.66771e-15
9.76243e-08
4.13768e-06
3.74577e-15
9.81625e-08
4.10587e-06
3.82903e-15
9.85427e-08
4.07393e-06
3.91923e-15
9.87812e-08
4.04191e-06
4.00249e-15
9.88929e-08
4.00985e-06
4.08229e-15
9.88916e-08
3.97777e-06
4.16555e-15
9.87901e-08
3.94572e-06
4.24361e-15
9.86002e-08
3.91371e-06
4.32166e-15
9.83326e-08
3.88178e-06
4.39278e-15
9.79973e-08
3.84993e-06
4.46564e-15
9.76033e-08
3.8182e-06
4.52635e-15
9.71591e-08
3.78659e-06
4.59052e-15
9.66721e-08
3.75512e-06
4.64603e-15
9.61494e-08
3.7238e-06
4.70674e-15
9.55974e-08
3.69264e-06
4.75704e-15
9.50218e-08
3.66165e-06
4.79867e-15
9.44279e-08
3.63082e-06
4.8455e-15
9.38206e-08
3.60018e-06
4.88712e-15
9.32044e-08
3.56971e-06
4.92008e-15
9.25832e-08
3.53942e-06
4.95129e-15
9.19608e-08
3.50931e-06
4.97731e-15
9.13406e-08
3.47938e-06
5.00159e-15
9.07258e-08
3.44963e-06
5.01893e-15
9.01191e-08
3.42006e-06
5.02933e-15
8.95232e-08
3.39065e-06
5.04667e-15
8.89407e-08
3.36142e-06
5.05533e-15
8.83736e-08
3.33234e-06
5.06226e-15
8.78243e-08
3.30343e-06
5.06746e-15
8.72946e-08
3.27466e-06
5.06919e-15
8.67863e-08
3.24604e-06
5.06571e-15
8.63012e-08
3.21755e-06
5.06223e-15
8.58409e-08
3.1892e-06
5.05876e-15
8.5407e-08
3.16096e-06
5.06049e-15
8.50008e-08
3.13283e-06
5.05007e-15
8.46238e-08
3.1048e-06
5.04139e-15
8.42772e-08
3.07687e-06
5.03271e-15
8.39624e-08
3.04901e-06
5.02403e-15
8.36804e-08
3.02123e-06
5.01014e-15
8.34326e-08
2.9935e-06
5.0084e-15
8.32199e-08
2.96582e-06
5.00145e-15
8.30435e-08
2.93818e-06
4.99798e-15
8.29043e-08
2.91056e-06
4.99277e-15
8.28034e-08
2.88295e-06
4.98409e-15
8.27417e-08
2.85534e-06
4.97714e-15
8.27201e-08
2.82772e-06
4.97887e-15
8.27396e-08
2.80007e-06
4.97713e-15
8.2801e-08
2.77238e-06
4.98059e-15
8.29052e-08
2.74463e-06
4.98405e-15
8.30528e-08
2.71682e-06
4.99446e-15
8.32448e-08
2.68892e-06
5.00312e-15
8.34818e-08
2.66092e-06
5.01006e-15
8.37645e-08
2.63281e-06
5.02219e-15
8.40936e-08
2.60457e-06
5.03433e-15
8.44697e-08
2.5762e-06
5.04994e-15
8.48934e-08
2.54766e-06
5.06901e-15
8.53652e-08
2.51895e-06
5.10023e-15
8.58856e-08
2.49005e-06
5.12798e-15
8.64551e-08
2.46095e-06
5.16441e-15
8.70739e-08
2.43163e-06
5.19042e-15
8.77425e-08
2.40208e-06
5.23552e-15
8.8461e-08
2.37227e-06
5.27889e-15
8.92297e-08
2.3422e-06
5.31704e-15
9.00486e-08
2.31185e-06
5.36561e-15
9.09179e-08
2.2812e-06
5.41765e-15
9.18374e-08
2.25024e-06
5.47489e-15
9.28071e-08
2.21895e-06
5.5304e-15
9.38266e-08
2.18731e-06
5.57897e-15
9.48956e-08
2.15532e-06
5.64662e-15
9.60137e-08
2.12295e-06
5.70212e-15
9.71804e-08
2.0902e-06
5.76977e-15
9.83948e-08
2.05705e-06
5.83743e-15
9.96563e-08
2.02348e-06
5.91375e-15
1.00964e-07
1.98948e-06
5.98487e-15
1.02316e-07
1.95504e-06
6.06987e-15
1.03712e-07
1.92014e-06
6.1514e-15