/*--------------------------------*- C++ -*----------------------------------*\
  =========                 |
  \\      /  F ield         | OpenFOAM: The Open Source CFD Toolbox
   \\    /   O peration     | Website:  https://openfoam.org
    \\  /    A nd           | Version:  8
     \\/     M anipulation  |
\*---------------------------------------------------------------------------*/
FoamFile
{
    version     2.0;
    format      ascii;
    class       surfaceScalarField;
    location    "4500";
    object      phi;
}
// * * * * * * * * * * * * * * * * * * * * * * * * * * * * * * * * * * * * * //

dimensions      [1 0 -1 0 0 0 0];

internalField   nonuniform List<scalar> 
119360
(
-3.50865e-07
1.86605e-12
3.50863e-07
-6.41629e-07
2.38695e-13
2.90725e-07
-7.94856e-07
2.24485e-13
1.53216e-07
-8.16738e-07
1.05359e-13
2.18723e-08
-7.38409e-07
3.08907e-14
-7.8337e-08
-5.89468e-07
-2.45648e-14
-1.48948e-07
-3.92318e-07
-6.11188e-14
-1.97158e-07
-1.6324e-07
-8.48775e-14
-2.29084e-07
8.59281e-08
-1.0439e-13
-2.49176e-07
3.46283e-07
-1.15519e-13
-2.60362e-07
6.11474e-07
-1.11828e-13
-2.65198e-07
8.77246e-07
-1.0203e-13
-2.65778e-07
1.14046e-06
-8.92624e-14
-2.63225e-07
1.39884e-06
-7.5107e-14
-2.58378e-07
1.65065e-06
-6.04797e-14
-2.51824e-07
1.89464e-06
-4.5908e-14
-2.43996e-07
2.12986e-06
-3.20024e-14
-2.35221e-07
2.3556e-06
-1.8985e-14
-2.25746e-07
2.57136e-06
-6.91128e-15
-2.15768e-07
2.7768e-06
3.94119e-15
-2.05442e-07
2.97168e-06
1.37667e-14
-1.94892e-07
3.1559e-06
2.26346e-14
-1.84223e-07
3.32941e-06
3.04895e-14
-1.73517e-07
3.49225e-06
3.74978e-14
-1.62845e-07
3.64451e-06
4.36318e-14
-1.52267e-07
3.78634e-06
4.90025e-14
-1.41832e-07
3.91792e-06
5.35961e-14
-1.31582e-07
4.03947e-06
5.75097e-14
-1.21554e-07
4.15124e-06
6.0771e-14
-1.11776e-07
4.2535e-06
6.33662e-14
-1.02274e-07
4.34657e-06
6.55311e-14
-9.30698e-08
4.43074e-06
6.70854e-14
-8.41794e-08
4.50635e-06
6.81818e-14
-7.56167e-08
4.57374e-06
6.88619e-14
-6.73924e-08
4.63325e-06
6.91256e-14
-5.95143e-08
4.68523e-06
6.90562e-14
-5.19879e-08
4.73004e-06
6.86676e-14
-4.4816e-08
4.76804e-06
6.79876e-14
-3.79999e-08
4.79957e-06
6.70579e-14
-3.15385e-08
4.825e-06
6.59199e-14
-2.54295e-08
4.84466e-06
6.4657e-14
-1.96689e-08
4.85891e-06
6.31444e-14
-1.42513e-08
4.86807e-06
6.1493e-14
-9.17067e-09
4.87249e-06
5.96611e-14
-4.41949e-09
4.87247e-06
5.78431e-14
1.26215e-11
4.86833e-06
5.59835e-14
4.13485e-09
4.86037e-06
5.40962e-14
7.9561e-09
4.84888e-06
5.21949e-14
1.1488e-08
4.83413e-06
5.02937e-14
1.4742e-08
4.8164e-06
4.84064e-14
1.77295e-08
4.79593e-06
4.6519e-14
2.04621e-08
4.77298e-06
4.47149e-14
2.29514e-08
4.74776e-06
4.29525e-14
2.52094e-08
4.72051e-06
4.12733e-14
2.72479e-08
4.69143e-06
3.96912e-14
2.9079e-08
4.66071e-06
3.81369e-14
3.07144e-08
4.62854e-06
3.67353e-14
3.21658e-08
4.59509e-06
3.53475e-14
3.34447e-08
4.56052e-06
3.41124e-14
3.45624e-08
4.52499e-06
3.30022e-14
3.55298e-08
4.48863e-06
3.19475e-14
3.63575e-08
4.45157e-06
3.10177e-14
3.70559e-08
4.41393e-06
3.01712e-14
3.76348e-08
4.37582e-06
2.94218e-14
3.81037e-08
4.33735e-06
2.88251e-14
3.84717e-08
4.2986e-06
2.827e-14
3.87475e-08
4.25965e-06
2.77843e-14
3.89393e-08
4.22059e-06
2.74235e-14
3.90551e-08
4.18149e-06
2.71182e-14
3.91021e-08
4.1424e-06
2.68962e-14
3.90874e-08
4.10338e-06
2.6688e-14
3.90174e-08
4.06447e-06
2.66464e-14
3.88984e-08
4.02573e-06
2.6577e-14
3.87361e-08
3.98719e-06
2.67019e-14
3.85358e-08
3.94889e-06
2.67575e-14
3.83025e-08
3.91084e-06
2.68546e-14
3.80408e-08
3.87309e-06
2.70489e-14
3.7755e-08
3.83563e-06
2.73542e-14
3.74489e-08
3.7985e-06
2.75208e-14
3.71264e-08
3.76171e-06
2.77844e-14
3.67905e-08
3.72526e-06
2.81175e-14
3.64445e-08
3.68917e-06
2.8409e-14
3.6091e-08
3.65343e-06
2.87698e-14
3.57327e-08
3.61806e-06
2.91306e-14
3.53718e-08
3.58304e-06
2.95053e-14
3.50104e-08
3.54839e-06
2.988e-14
3.46505e-08
3.51409e-06
3.01853e-14
3.42938e-08
3.48015e-06
3.05878e-14
3.39417e-08
3.44655e-06
3.09902e-14
3.35958e-08
3.41329e-06
3.13233e-14
3.32573e-08
3.38036e-06
3.1698e-14
3.29273e-08
3.34775e-06
3.21004e-14
3.26069e-08
3.31544e-06
3.24474e-14
3.22969e-08
3.28344e-06
3.28637e-14
3.19983e-08
3.25173e-06
3.31968e-14
3.17117e-08
3.22029e-06
3.35437e-14
3.14379e-08
3.18911e-06
3.38351e-14
3.11774e-08
3.15817e-06
3.41682e-14
3.09307e-08
3.12747e-06
3.45151e-14
3.06985e-08
3.09699e-06
3.48343e-14
3.0481e-08
3.0667e-06
3.51118e-14
3.02788e-08
3.03661e-06
3.5431e-14
3.00922e-08
3.00668e-06
3.56669e-14
2.99215e-08
2.97691e-06
3.6e-14
2.97671e-08
2.94728e-06
3.62359e-14
2.96292e-08
2.91777e-06
3.65689e-14
2.95082e-08
2.88836e-06
3.68326e-14
2.94042e-08
2.85904e-06
3.71379e-14
2.93175e-08
2.82979e-06
3.73877e-14
2.92482e-08
2.80059e-06
3.76791e-14
2.91967e-08
2.77142e-06
3.79983e-14
2.91631e-08
2.74227e-06
3.82203e-14
2.91476e-08
2.71312e-06
3.85117e-14
2.91503e-08
2.68394e-06
3.87476e-14
2.91714e-08
2.65473e-06
3.90668e-14
2.9211e-08
2.62546e-06
3.93305e-14
2.92693e-08
2.59611e-06
3.96358e-14
2.93464e-08
2.56666e-06
3.99966e-14
2.94424e-08
2.5371e-06
4.03435e-14
2.95574e-08
2.50741e-06
4.07598e-14
2.96915e-08
2.47756e-06
4.11068e-14
2.98447e-08
2.44754e-06
4.14676e-14
3.00171e-08
2.41733e-06
4.20088e-14
3.02087e-08
2.3869e-06
4.24251e-14
3.04196e-08
2.35625e-06
4.28414e-14
3.06497e-08
2.32535e-06
4.33271e-14
3.08991e-08
2.29418e-06
4.38406e-14
3.11676e-08
2.26272e-06
4.44234e-14
3.14552e-08
2.23095e-06
4.50063e-14
3.17618e-08
2.19886e-06
4.55614e-14
3.20872e-08
2.16643e-06
4.61998e-14
3.24313e-08
2.13363e-06
4.68104e-14
3.2794e-08
2.10045e-06
4.75181e-14
3.31749e-08
2.06688e-06
4.82675e-14
3.35738e-08
2.03288e-06
4.89891e-14
3.39904e-08
1.99845e-06
4.97663e-14
3.44243e-08
1.96357e-06
5.06544e-14
3.48752e-08
1.92823e-06
5.15704e-14
3.53426e-08
1.8924e-06
5.2403e-14
3.5826e-08
1.85607e-06
5.33744e-14
3.63249e-08
1.81923e-06
5.44014e-14
3.68386e-08
1.78186e-06
5.55116e-14
3.73665e-08
1.74395e-06
5.65108e-14
3.79078e-08
1.70548e-06
5.76765e-14
3.84618e-08
1.66645e-06
5.88977e-14
3.90276e-08
1.62684e-06
6.00635e-14
3.96042e-08
1.58665e-06
6.13125e-14
4.01906e-08
1.54586e-06
6.27002e-14
4.07858e-08
1.50446e-06
6.40047e-14
4.13883e-08
1.46246e-06
6.52537e-14
4.19971e-08
1.41985e-06
6.66137e-14
4.26106e-08
1.37662e-06
6.78905e-14
4.32273e-08
1.33277e-06
6.92783e-14
4.38455e-08
1.2883e-06
7.0444e-14
4.44635e-08
1.24322e-06
7.1693e-14
4.50794e-08
1.19752e-06
7.27754e-14
4.5691e-08
1.15122e-06
7.38579e-14
4.62961e-08
1.10432e-06
7.48848e-14
4.68922e-08
1.05684e-06
7.5884e-14
4.74767e-08
1.00879e-06
7.6911e-14
4.80466e-08
9.60187e-07
7.79657e-14
4.85989e-08
9.11052e-07
7.90759e-14
4.913e-08
8.61411e-07
8.06024e-14
4.96363e-08
8.11293e-07
8.23233e-14
5.01135e-08
7.6073e-07
8.49046e-14
5.05573e-08
7.09762e-07
8.80687e-14
5.09626e-08
6.58433e-07
9.2343e-14
5.13239e-08
6.06792e-07
9.77554e-14
5.16352e-08
5.54897e-07
1.04167e-13
5.18897e-08
5.02812e-07
1.11883e-13
5.20797e-08
4.50609e-07
1.20459e-13
5.2197e-08
3.98371e-07
1.29202e-13
5.22321e-08
3.4619e-07
1.37723e-13
5.21743e-08
2.94173e-07
1.44829e-13
5.20115e-08
2.42436e-07
1.49214e-13
5.17301e-08
1.91114e-07
1.49242e-13
5.13147e-08
1.4036e-07
1.43524e-13
5.0747e-08
9.03466e-08
1.30424e-13
5.00061e-08
4.12732e-08
1.09024e-13
4.90658e-08
-6.62995e-09
7.84652e-14
4.78955e-08
-5.30787e-08
3.8969e-14
4.64411e-08
-9.77536e-08
-4.27417e-15
4.46673e-08
-1.40311e-07
-4.563e-14
4.25502e-08
-1.80363e-07
-7.81595e-14
4.00448e-08
-2.17455e-07
-9.14267e-14
3.7086e-08
-2.51055e-07
-7.27472e-14
3.35936e-08
-2.80545e-07
-9.54774e-15
2.94843e-08
-3.05199e-07
1.05083e-13
2.46492e-08
-3.2417e-07
2.64899e-13
1.89646e-08
-3.36458e-07
4.40204e-13
1.22824e-08
-3.40897e-07
5.73375e-13
4.43038e-09
-3.36153e-07
5.88196e-13
-4.75358e-09
-3.20757e-07
4.31877e-13
-1.54077e-08
-2.93139e-07
1.35891e-13
-2.7631e-08
-2.51824e-07
-1.46216e-13
-4.13284e-08
-1.95975e-07
-2.03226e-13
-5.5862e-08
-1.2672e-07
4.99616e-15
-6.9266e-08
-5.02117e-08
1.108e-13
-7.65226e-08
9.23972e-09
-2.76446e-13
-5.94725e-08
-1.59606e-12
9.21241e-09
-3.50875e-07
3.50854e-07
-6.41629e-07
2.90722e-07
-7.94855e-07
1.53214e-07
-8.16736e-07
2.18705e-08
-7.38407e-07
-7.83387e-08
-5.89466e-07
-1.4895e-07
-3.92315e-07
-1.9716e-07
-1.63238e-07
-2.29086e-07
8.59303e-08
-2.49177e-07
3.46285e-07
-2.60363e-07
6.11476e-07
-2.65199e-07
8.77248e-07
-2.65779e-07
1.14047e-06
-2.63226e-07
1.39884e-06
-2.58379e-07
1.65066e-06
-2.51825e-07
1.89465e-06
-2.43997e-07
2.12986e-06
-2.35222e-07
2.3556e-06
-2.25747e-07
2.57136e-06
-2.15769e-07
2.7768e-06
-2.05443e-07
2.97168e-06
-1.94893e-07
3.1559e-06
-1.84224e-07
3.32941e-06
-1.73518e-07
3.49225e-06
-1.62846e-07
3.64451e-06
-1.52268e-07
3.78634e-06
-1.41833e-07
3.91792e-06
-1.31583e-07
4.03946e-06
-1.21554e-07
4.15124e-06
-1.11777e-07
4.2535e-06
-1.02275e-07
4.34657e-06
-9.30705e-08
4.43074e-06
-8.41801e-08
4.50635e-06
-7.56174e-08
4.57374e-06
-6.73931e-08
4.63325e-06
-5.9515e-08
4.68523e-06
-5.19885e-08
4.73004e-06
-4.48167e-08
4.76804e-06
-3.80005e-08
4.79957e-06
-3.15392e-08
4.825e-06
-2.54302e-08
4.84466e-06
-1.96695e-08
4.85891e-06
-1.4252e-08
4.86807e-06
-9.1713e-09
4.87249e-06
-4.42012e-09
4.87247e-06
1.19961e-11
4.86833e-06
4.13422e-09
4.86037e-06
7.95548e-09
4.84888e-06
1.14874e-08
4.83413e-06
1.47414e-08
4.8164e-06
1.77289e-08
4.79593e-06
2.04615e-08
4.77297e-06
2.29508e-08
4.74776e-06
2.52088e-08
4.72051e-06
2.72473e-08
4.69143e-06
2.90784e-08
4.66071e-06
3.07138e-08
4.62854e-06
3.21652e-08
4.59509e-06
3.34441e-08
4.56052e-06
3.45618e-08
4.52499e-06
3.55292e-08
4.48863e-06
3.6357e-08
4.45157e-06
3.70553e-08
4.41393e-06
3.76342e-08
4.37582e-06
3.81031e-08
4.33735e-06
3.84711e-08
4.29859e-06
3.87469e-08
4.25965e-06
3.89388e-08
4.22059e-06
3.90545e-08
4.18149e-06
3.91015e-08
4.1424e-06
3.90868e-08
4.10337e-06
3.90169e-08
4.06447e-06
3.88979e-08
4.02573e-06
3.87356e-08
3.98719e-06
3.85353e-08
3.94889e-06
3.8302e-08
3.91084e-06
3.80403e-08
3.87308e-06
3.77544e-08
3.83563e-06
3.74484e-08
3.7985e-06
3.71258e-08
3.76171e-06
3.679e-08
3.72526e-06
3.6444e-08
3.68917e-06
3.60905e-08
3.65343e-06
3.57322e-08
3.61806e-06
3.53713e-08
3.58304e-06
3.50099e-08
3.54839e-06
3.465e-08
3.51409e-06
3.42933e-08
3.48015e-06
3.39412e-08
3.44655e-06
3.35953e-08
3.41329e-06
3.32568e-08
3.38035e-06
3.29268e-08
3.34774e-06
3.26064e-08
3.31544e-06
3.22965e-08
3.28344e-06
3.19978e-08
3.25173e-06
3.17112e-08
3.22029e-06
3.14374e-08
3.18911e-06
3.11769e-08
3.15817e-06
3.09302e-08
3.12747e-06
3.0698e-08
3.09699e-06
3.04805e-08
3.0667e-06
3.02783e-08
3.03661e-06
3.00917e-08
3.00668e-06
2.9921e-08
2.97691e-06
2.97666e-08
2.94728e-06
2.96288e-08
2.91777e-06
2.95077e-08
2.88836e-06
2.94037e-08
2.85904e-06
2.9317e-08
2.82979e-06
2.92478e-08
2.80059e-06
2.91963e-08
2.77142e-06
2.91626e-08
2.74227e-06
2.91471e-08
2.71312e-06
2.91498e-08
2.68394e-06
2.91709e-08
2.65473e-06
2.92105e-08
2.62546e-06
2.92688e-08
2.59611e-06
2.93459e-08
2.56666e-06
2.94419e-08
2.5371e-06
2.95569e-08
2.50741e-06
2.9691e-08
2.47756e-06
2.98442e-08
2.44754e-06
3.00166e-08
2.41733e-06
3.02082e-08
2.3869e-06
3.04191e-08
2.35625e-06
3.06493e-08
2.32535e-06
3.08986e-08
2.29418e-06
3.11671e-08
2.26272e-06
3.14547e-08
2.23095e-06
3.17613e-08
2.19886e-06
3.20867e-08
2.16643e-06
3.24308e-08
2.13363e-06
3.27935e-08
2.10045e-06
3.31744e-08
2.06688e-06
3.35733e-08
2.03288e-06
3.39899e-08
1.99845e-06
3.44238e-08
1.96357e-06
3.48747e-08
1.92823e-06
3.53421e-08
1.8924e-06
3.58255e-08
1.85607e-06
3.63244e-08
1.81923e-06
3.68381e-08
1.78186e-06
3.73659e-08
1.74395e-06
3.79073e-08
1.70548e-06
3.84613e-08
1.66645e-06
3.90271e-08
1.62684e-06
3.96037e-08
1.58665e-06
4.01901e-08
1.54586e-06
4.07852e-08
1.50447e-06
4.13877e-08
1.46246e-06
4.19965e-08
1.41985e-06
4.261e-08
1.37662e-06
4.32266e-08
1.33277e-06
4.38449e-08
1.2883e-06
4.44629e-08
1.24322e-06
4.50788e-08
1.19752e-06
4.56904e-08
1.15122e-06
4.62954e-08
1.10432e-06
4.68916e-08
1.05684e-06
4.7476e-08
1.00879e-06
4.80459e-08
9.60187e-07
4.85982e-08
9.11053e-07
4.91293e-08
8.61411e-07
4.96356e-08
8.11293e-07
5.01128e-08
7.6073e-07
5.05566e-08
7.09763e-07
5.09619e-08
6.58433e-07
5.13232e-08
6.06793e-07
5.16344e-08
5.54898e-07
5.18889e-08
5.02812e-07
5.20789e-08
4.50609e-07
5.21962e-08
3.98371e-07
5.22312e-08
3.46191e-07
5.21734e-08
2.94173e-07
5.20106e-08
2.42436e-07
5.17292e-08
1.91115e-07
5.13137e-08
1.4036e-07
5.0746e-08
9.03468e-08
5.00051e-08
4.12734e-08
4.90648e-08
-6.62977e-09
4.78944e-08
-5.30785e-08
4.644e-08
-9.77534e-08
4.46663e-08
-1.40311e-07
4.25492e-08
-1.80363e-07
4.00439e-08
-2.17455e-07
3.7085e-08
-2.51054e-07
3.35927e-08
-2.80544e-07
2.94834e-08
-3.05199e-07
2.46483e-08
-3.24169e-07
1.89637e-08
-3.36458e-07
1.22814e-08
-3.40897e-07
4.4292e-09
-3.36153e-07
-4.75503e-09
-3.20758e-07
-1.54095e-08
-2.9314e-07
-2.76331e-08
-2.51825e-07
-4.13304e-08
-1.95975e-07
-5.58634e-08
-1.26722e-07
-6.92667e-08
-5.02157e-08
-7.65239e-08
9.23435e-09
-5.94757e-08
9.20401e-09
-2.65755e-07
1.79125e-13
6.16581e-07
-3.36292e-07
1.97457e-14
3.61243e-07
-3.24241e-07
2.86425e-14
1.41156e-07
-2.57489e-07
2.3792e-15
-4.48883e-08
-1.45666e-07
-6.68974e-15
-1.90167e-07
3.07539e-09
-1.4142e-14
-2.97697e-07
1.80535e-07
-1.99706e-14
-3.74625e-07
3.7908e-07
-2.41408e-14
-4.27637e-07
5.92422e-07
-2.72286e-14
-4.62524e-07
8.15447e-07
-2.8651e-14
-4.83394e-07
1.044e-06
-2.83873e-14
-4.93753e-07
1.27464e-06
-2.75962e-14
-4.9643e-07
1.5047e-06
-2.63888e-14
-4.93294e-07
1.73208e-06
-2.49455e-14
-4.85757e-07
1.95511e-06
-2.33981e-14
-4.74862e-07
2.17251e-06
-2.17987e-14
-4.61397e-07
2.38325e-06
-2.02096e-14
-4.45971e-07
2.58656e-06
-1.8742e-14
-4.29059e-07
2.78183e-06
-1.73542e-14
-4.11042e-07
2.9686e-06
-1.60636e-14
-3.92223e-07
3.14656e-06
-1.48944e-14
-3.72854e-07
3.31547e-06
-1.38119e-14
-3.53138e-07
3.4752e-06
-1.28265e-14
-3.3325e-07
3.62568e-06
-1.19487e-14
-3.13331e-07
3.76691e-06
-1.11369e-14
-2.93505e-07
3.89895e-06
-1.04083e-14
-2.73876e-07
4.02189e-06
-9.78029e-15
-2.5453e-07
4.13588e-06
-9.22864e-15
-2.35544e-07
4.24108e-06
-8.74984e-15
-2.16981e-07
4.33769e-06
-8.35084e-15
-1.98896e-07
4.42595e-06
-8.00388e-15
-1.81333e-07
4.5061e-06
-7.72284e-15
-1.6433e-07
4.57839e-06
-7.50078e-15
-1.47918e-07
4.64312e-06
-7.33423e-15
-1.32122e-07
4.70056e-06
-7.23013e-15
-1.1696e-07
4.75101e-06
-7.14685e-15
-1.02447e-07
4.79478e-06
-7.1052e-15
-8.85904e-08
4.83218e-06
-7.10172e-15
-7.53967e-08
4.8635e-06
-7.12252e-15
-6.28666e-08
4.88906e-06
-7.17108e-15
-5.09979e-08
4.90917e-06
-7.23351e-15
-3.9785e-08
4.92414e-06
-7.32023e-15
-2.92201e-08
4.93426e-06
-7.4243e-15
-1.92923e-08
4.93982e-06
-7.5249e-15
-9.98892e-09
4.94112e-06
-7.63244e-15
-1.29447e-09
4.93845e-06
-7.77814e-15
6.80727e-09
4.93207e-06
-7.91344e-15
1.43341e-08
4.92224e-06
-8.02445e-15
2.13058e-08
4.90924e-06
-8.12852e-15
2.77425e-08
4.8933e-06
-8.22565e-15
3.36655e-08
4.87466e-06
-8.31237e-15
3.9096e-08
4.85355e-06
-8.4095e-15
4.40561e-08
4.83019e-06
-8.48582e-15
4.85679e-08
4.80478e-06
-8.54826e-15
5.26539e-08
4.77752e-06
-8.6107e-15
5.63364e-08
4.74859e-06
-8.63497e-15
5.96379e-08
4.71817e-06
-8.66965e-15
6.25804e-08
4.68643e-06
-8.67658e-15
6.51856e-08
4.65351e-06
-8.68698e-15
6.74749e-08
4.61957e-06
-8.66962e-15
6.94693e-08
4.58473e-06
-8.63492e-15
7.11889e-08
4.54913e-06
-8.60021e-15
7.26535e-08
4.51288e-06
-8.55857e-15
7.38821e-08
4.47609e-06
-8.51346e-15
7.4893e-08
4.43885e-06
-8.44059e-15
7.57036e-08
4.40127e-06
-8.37467e-15
7.63308e-08
4.36341e-06
-8.3018e-15
7.67905e-08
4.32537e-06
-8.222e-15
7.70979e-08
4.2872e-06
-8.12485e-15
7.72673e-08
4.24897e-06
-8.04505e-15
7.73124e-08
4.21074e-06
-7.96524e-15
7.72459e-08
4.17255e-06
-7.86463e-15
7.70798e-08
4.13446e-06
-7.76401e-15
7.68254e-08
4.0965e-06
-7.64604e-15
7.64931e-08
4.05871e-06
-7.55584e-15
7.60928e-08
4.02111e-06
-7.44481e-15
7.56335e-08
3.98374e-06
-7.33726e-15
7.51237e-08
3.94661e-06
-7.24358e-15
7.45713e-08
3.90975e-06
-7.16378e-15
7.39833e-08
3.87317e-06
-7.06664e-15
7.33664e-08
3.83689e-06
-6.98337e-15
7.27268e-08
3.80091e-06
-6.89664e-15
7.207e-08
3.76523e-06
-6.8099e-15
7.14011e-08
3.72988e-06
-6.72317e-15
7.07247e-08
3.69484e-06
-6.64337e-15
7.00452e-08
3.66012e-06
-6.58439e-15
6.93663e-08
3.62572e-06
-6.51501e-15
6.86917e-08
3.59164e-06
-6.45256e-15
6.80245e-08
3.55786e-06
-6.38318e-15
6.73675e-08
3.52439e-06
-6.3242e-15
6.67234e-08
3.49122e-06
-6.2791e-15
6.60945e-08
3.45834e-06
-6.21319e-15
6.5483e-08
3.42575e-06
-6.16115e-15
6.48908e-08
3.39342e-06
-6.11258e-15
6.43196e-08
3.36136e-06
-6.07443e-15
6.3771e-08
3.32955e-06
-6.03627e-15
6.32464e-08
3.29797e-06
-5.99811e-15
6.27471e-08
3.26663e-06
-5.97383e-15
6.22743e-08
3.23549e-06
-5.93567e-15
6.18289e-08
3.20456e-06
-5.90446e-15
6.1412e-08
3.17381e-06
-5.86977e-15
6.10244e-08
3.14323e-06
-5.83508e-15
6.06669e-08
3.11281e-06
-5.80387e-15
6.03402e-08
3.08253e-06
-5.78653e-15
6.0045e-08
3.05238e-06
-5.75184e-15
5.97819e-08
3.02233e-06
-5.72062e-15
5.95515e-08
2.99238e-06
-5.69982e-15
5.93543e-08
2.9625e-06
-5.6686e-15
5.91908e-08
2.93268e-06
-5.64432e-15
5.90613e-08
2.90291e-06
-5.60963e-15
5.89665e-08
2.87317e-06
-5.57148e-15
5.89065e-08
2.84343e-06
-5.55067e-15
5.88818e-08
2.81368e-06
-5.52292e-15
5.88928e-08
2.78391e-06
-5.51599e-15
5.89397e-08
2.7541e-06
-5.49519e-15
5.90227e-08
2.72422e-06
-5.4605e-15
5.91423e-08
2.69427e-06
-5.44316e-15
5.92985e-08
2.66421e-06
-5.41542e-15
5.94917e-08
2.63405e-06
-5.3842e-15
5.97218e-08
2.60375e-06
-5.33564e-15
5.99892e-08
2.57329e-06
-5.30789e-15
6.02939e-08
2.54267e-06
-5.2732e-15
6.0636e-08
2.51186e-06
-5.25239e-15
6.10155e-08
2.48085e-06
-5.22465e-15
6.14324e-08
2.44961e-06
-5.19343e-15
6.18866e-08
2.41812e-06
-5.17956e-15
6.23782e-08
2.38638e-06
-5.14488e-15
6.29068e-08
2.35436e-06
-5.1206e-15
6.34724e-08
2.32205e-06
-5.08938e-15
6.40747e-08
2.28942e-06
-5.06857e-15
6.47133e-08
2.25646e-06
-5.06511e-15
6.5388e-08
2.22315e-06
-5.03736e-15
6.60982e-08
2.18948e-06
-5.03043e-15
6.68434e-08
2.15542e-06
-5.00962e-15
6.76231e-08
2.12098e-06
-4.99922e-15
6.84366e-08
2.08611e-06
-4.99923e-15
6.92831e-08
2.05082e-06
-4.98536e-15
7.01618e-08
2.01509e-06
-4.97495e-15
7.10717e-08
1.9789e-06
-4.9819e-15
7.20117e-08
1.94224e-06
-4.98191e-15
7.29808e-08
1.9051e-06
-4.98885e-15
7.39775e-08
1.86746e-06
-4.97845e-15
7.50007e-08
1.82932e-06
-5.00274e-15
7.60486e-08
1.79066e-06
-5.01663e-15
7.71197e-08
1.75147e-06
-5.02357e-15
7.82121e-08
1.71175e-06
-5.06868e-15
7.93239e-08
1.67148e-06
-5.11032e-15
8.04529e-08
1.63067e-06
-5.13114e-15
8.1597e-08
1.5893e-06
-5.17625e-15
8.27535e-08
1.54737e-06
-5.23523e-15
8.39198e-08
1.50488e-06
-5.30463e-15
8.50931e-08
1.46184e-06
-5.3879e-15
8.62701e-08
1.41823e-06
-5.4677e-15
8.74477e-08
1.37407e-06
-5.5371e-15
8.86221e-08
1.32936e-06
-5.67935e-15
8.97894e-08
1.2841e-06
-5.80425e-15
9.09455e-08
1.2383e-06
-5.93263e-15
9.20857e-08
1.19199e-06
-6.08529e-15
9.32053e-08
1.14516e-06
-6.24141e-15
9.42989e-08
1.09784e-06
-6.35591e-15
9.53607e-08
1.05005e-06
-6.49122e-15
9.63845e-08
1.00181e-06
-6.59878e-15
9.73635e-08
9.53155e-07
-6.67511e-15
9.82904e-08
9.04107e-07
-6.70634e-15
9.9157e-08
8.54705e-07
-6.67859e-15
9.99546e-08
8.0499e-07
-6.55716e-15
1.00674e-07
7.55006e-07
-6.36287e-15
1.01303e-07
7.04805e-07
-6.09226e-15
1.01832e-07
6.54443e-07
-5.78001e-15
1.02246e-07
6.03986e-07
-5.44001e-15
1.02532e-07
5.53504e-07
-5.14857e-15
1.02674e-07
5.03077e-07
-4.98898e-15
1.02653e-07
4.52796e-07
-5.07225e-15
1.0245e-07
4.02759e-07
-5.50246e-15
1.02043e-07
3.53078e-07
-6.50861e-15
1.01405e-07
3.03878e-07
-8.11149e-15
1.00508e-07
2.55298e-07
-1.0443e-14
9.932e-08
2.07496e-07
-1.35655e-14
9.78016e-08
1.60648e-07
-1.73541e-14
9.59078e-08
1.1495e-07
-2.16979e-14
9.35867e-08
7.06193e-08
-2.60555e-14
9.07653e-08
2.78984e-08
-2.98372e-14
8.7382e-08
-1.29343e-08
-3.24393e-14
8.33771e-08
-5.15566e-08
-3.27723e-14
7.86615e-08
-8.76151e-08
-2.92751e-14
7.31392e-08
-1.20725e-07
-2.02337e-14
6.66985e-08
-1.50454e-07
-4.00367e-15
5.92079e-08
-1.7632e-07
1.99078e-14
5.05099e-08
-1.97793e-07
4.86764e-14
4.04321e-08
-2.14301e-07
7.41144e-14
2.87832e-08
-2.25243e-07
8.19692e-14
1.53634e-08
-2.30002e-07
5.59206e-14
-5.35091e-12
-2.27996e-07
-9.4507e-15
-1.74251e-08
-2.1878e-07
-9.02402e-14
-3.68587e-08
-2.02172e-07
-1.24414e-13
-5.79467e-08
-1.78436e-07
-4.49917e-14
-7.96095e-08
-1.484e-07
1.17129e-13
-9.93142e-08
-1.13217e-07
1.35864e-13
-1.11722e-07
-6.86638e-08
-6.134e-14
-1.0405e-07
-1.5632e-12
-5.94772e-08
-2.65757e-07
6.16579e-07
-3.36292e-07
3.61241e-07
-3.2424e-07
1.41155e-07
-2.57488e-07
-4.48893e-08
-1.45665e-07
-1.90167e-07
3.07655e-09
-2.97697e-07
1.80536e-07
-3.74625e-07
3.79081e-07
-4.27637e-07
5.92423e-07
-4.62524e-07
8.15448e-07
-4.83394e-07
1.044e-06
-4.93753e-07
1.27464e-06
-4.96431e-07
1.50471e-06
-4.93294e-07
1.73208e-06
-4.85758e-07
1.95511e-06
-4.74862e-07
2.17251e-06
-4.61397e-07
2.38325e-06
-4.45971e-07
2.58656e-06
-4.29059e-07
2.78183e-06
-4.11042e-07
2.9686e-06
-3.92223e-07
3.14656e-06
-3.72854e-07
3.31547e-06
-3.53138e-07
3.4752e-06
-3.3325e-07
3.62568e-06
-3.13331e-07
3.76691e-06
-2.93505e-07
3.89895e-06
-2.73876e-07
4.02189e-06
-2.5453e-07
4.13588e-06
-2.35544e-07
4.24108e-06
-2.16981e-07
4.33769e-06
-1.98896e-07
4.42595e-06
-1.81333e-07
4.5061e-06
-1.6433e-07
4.57839e-06
-1.47918e-07
4.64312e-06
-1.32122e-07
4.70056e-06
-1.1696e-07
4.75101e-06
-1.02447e-07
4.79478e-06
-8.85904e-08
4.83217e-06
-7.53967e-08
4.8635e-06
-6.28666e-08
4.88906e-06
-5.09979e-08
4.90917e-06
-3.97851e-08
4.92414e-06
-2.92201e-08
4.93425e-06
-1.92924e-08
4.93982e-06
-9.98896e-09
4.94112e-06
-1.29451e-09
4.93845e-06
6.80722e-09
4.93206e-06
1.4334e-08
4.92224e-06
2.13057e-08
4.90924e-06
2.77425e-08
4.8933e-06
3.36654e-08
4.87466e-06
3.90959e-08
4.85355e-06
4.4056e-08
4.83019e-06
4.85678e-08
4.80478e-06
5.26538e-08
4.77752e-06
5.63363e-08
4.74859e-06
5.96378e-08
4.71817e-06
6.25802e-08
4.68643e-06
6.51855e-08
4.65351e-06
6.74748e-08
4.61957e-06
6.94691e-08
4.58473e-06
7.11888e-08
4.54913e-06
7.26534e-08
4.51288e-06
7.3882e-08
4.47609e-06
7.48929e-08
4.43885e-06
7.57035e-08
4.40127e-06
7.63307e-08
4.36341e-06
7.67904e-08
4.32537e-06
7.70978e-08
4.2872e-06
7.72672e-08
4.24897e-06
7.73123e-08
4.21074e-06
7.72458e-08
4.17255e-06
7.70797e-08
4.13446e-06
7.68252e-08
4.0965e-06
7.64929e-08
4.05871e-06
7.60926e-08
4.02111e-06
7.56334e-08
3.98374e-06
7.51236e-08
3.94661e-06
7.45711e-08
3.90975e-06
7.39832e-08
3.87317e-06
7.33663e-08
3.83689e-06
7.27267e-08
3.80091e-06
7.20699e-08
3.76523e-06
7.14009e-08
3.72988e-06
7.07246e-08
3.69484e-06
7.00451e-08
3.66012e-06
6.93662e-08
3.62572e-06
6.86916e-08
3.59163e-06
6.80243e-08
3.55786e-06
6.73674e-08
3.52439e-06
6.67233e-08
3.49122e-06
6.60944e-08
3.45834e-06
6.54829e-08
3.42574e-06
6.48907e-08
3.39342e-06
6.43195e-08
3.36136e-06
6.37709e-08
3.32955e-06
6.32463e-08
3.29797e-06
6.2747e-08
3.26663e-06
6.22742e-08
3.23549e-06
6.18288e-08
3.20456e-06
6.14119e-08
3.17381e-06
6.10243e-08
3.14323e-06
6.06668e-08
3.11281e-06
6.03401e-08
3.08253e-06
6.00449e-08
3.05238e-06
5.97819e-08
3.02233e-06
5.95514e-08
2.99238e-06
5.93542e-08
2.9625e-06
5.91907e-08
2.93268e-06
5.90613e-08
2.90291e-06
5.89664e-08
2.87316e-06
5.89064e-08
2.84343e-06
5.88818e-08
2.81368e-06
5.88927e-08
2.78391e-06
5.89396e-08
2.7541e-06
5.90227e-08
2.72422e-06
5.91422e-08
2.69427e-06
5.92984e-08
2.66421e-06
5.94916e-08
2.63405e-06
5.97218e-08
2.60375e-06
5.99891e-08
2.57329e-06
6.02938e-08
2.54267e-06
6.06359e-08
2.51186e-06
6.10154e-08
2.48085e-06
6.14323e-08
2.44961e-06
6.18865e-08
2.41812e-06
6.23781e-08
2.38638e-06
6.29067e-08
2.35436e-06
6.34723e-08
2.32205e-06
6.40746e-08
2.28942e-06
6.47133e-08
2.25646e-06
6.53879e-08
2.22315e-06
6.60981e-08
2.18948e-06
6.68434e-08
2.15542e-06
6.76231e-08
2.12098e-06
6.84365e-08
2.08611e-06
6.9283e-08
2.05082e-06
7.01617e-08
2.01509e-06
7.10716e-08
1.9789e-06
7.20116e-08
1.94224e-06
7.29807e-08
1.9051e-06
7.39775e-08
1.86746e-06
7.50006e-08
1.82932e-06
7.60485e-08
1.79066e-06
7.71196e-08
1.75147e-06
7.8212e-08
1.71175e-06
7.93238e-08
1.67148e-06
8.04529e-08
1.63067e-06
8.15969e-08
1.5893e-06
8.27534e-08
1.54737e-06
8.39197e-08
1.50488e-06
8.5093e-08
1.46184e-06
8.62701e-08
1.41823e-06
8.74476e-08
1.37407e-06
8.8622e-08
1.32936e-06
8.97893e-08
1.2841e-06
9.09454e-08
1.2383e-06
9.20856e-08
1.19199e-06
9.32052e-08
1.14516e-06
9.42988e-08
1.09784e-06
9.53606e-08
1.05005e-06
9.63844e-08
1.00181e-06
9.73634e-08
9.53155e-07
9.82903e-08
9.04107e-07
9.91569e-08
8.54706e-07
9.99545e-08
8.0499e-07
1.00673e-07
7.55006e-07
1.01303e-07
7.04805e-07
1.01831e-07
6.54443e-07
1.02246e-07
6.03986e-07
1.02532e-07
5.53504e-07
1.02674e-07
5.03078e-07
1.02653e-07
4.52796e-07
1.0245e-07
4.02759e-07
1.02043e-07
3.53078e-07
1.01405e-07
3.03878e-07
1.00508e-07
2.55299e-07
9.93199e-08
2.07497e-07
9.78015e-08
1.60648e-07
9.59077e-08
1.1495e-07
9.35866e-08
7.06195e-08
9.07652e-08
2.78986e-08
8.73819e-08
-1.29342e-08
8.3377e-08
-5.15565e-08
7.86614e-08
-8.7615e-08
7.31391e-08
-1.20725e-07
6.66984e-08
-1.50453e-07
5.92078e-08
-1.76319e-07
5.05098e-08
-1.97793e-07
4.0432e-08
-2.14301e-07
2.87831e-08
-2.25243e-07
1.53632e-08
-2.30002e-07
-5.52922e-12
-2.27996e-07
-1.74252e-08
-2.1878e-07
-3.68588e-08
-2.02172e-07
-5.79469e-08
-1.78436e-07
-7.96097e-08
-1.48401e-07
-9.93147e-08
-1.13219e-07
-1.11723e-07
-6.86698e-08
-1.04051e-07
-5.94769e-08
-1.10179e-07
2.8826e-13
7.2675e-07
-8.36517e-08
2.14668e-14
3.34705e-07
-2.39143e-09
3.52972e-14
5.98937e-08
1.0643e-07
2.31198e-14
-1.53711e-07
2.36502e-07
2.18397e-14
-3.20241e-07
3.85611e-07
2.05631e-14
-4.46808e-07
5.51262e-07
1.92101e-14
-5.40276e-07
7.30563e-07
1.78605e-14
-6.06939e-07
9.20355e-07
1.63027e-14
-6.52317e-07
1.11778e-06
1.47034e-14
-6.80816e-07
1.32014e-06
1.32844e-14
-6.96118e-07
1.52492e-06
1.19729e-14
-7.0121e-07
1.72997e-06
1.08801e-14
-6.98347e-07
1.93349e-06
9.97458e-15
-6.89279e-07
2.13399e-06
9.2356e-15
-6.75361e-07
2.33024e-06
8.62152e-15
-6.57649e-07
2.52125e-06
8.1202e-15
-6.36983e-07
2.70622e-06
7.68306e-15
-6.14031e-07
2.88451e-06
7.32919e-15
-5.89335e-07
3.05563e-06
7.01175e-15
-5.63339e-07
3.21918e-06
6.73594e-15
-5.36409e-07
3.37489e-06
6.49656e-15
-5.08851e-07
3.52257e-06
6.2884e-15
-4.80923e-07
3.66207e-06
6.08372e-15
-4.52841e-07
3.79336e-06
5.92066e-15
-4.24791e-07
3.91641e-06
5.75761e-15
-3.96932e-07
4.03128e-06
5.6067e-15
-3.694e-07
4.13805e-06
5.46793e-15
-3.42311e-07
4.23683e-06
5.3309e-15
-3.15764e-07
4.32778e-06
5.20427e-15
-2.89844e-07
4.41107e-06
5.08111e-15
-2.64623e-07
4.4869e-06
4.95796e-15
-2.40161e-07
4.55549e-06
4.8348e-15
-2.16507e-07
4.61706e-06
4.71858e-15
-1.93702e-07
4.67188e-06
4.60237e-15
-1.71777e-07
4.72019e-06
4.49829e-15
-1.50757e-07
4.76226e-06
4.38728e-15
-1.30659e-07
4.79835e-06
4.27973e-15
-1.11494e-07
4.82875e-06
4.17739e-15
-9.32656e-08
4.85373e-06
4.07158e-15
-7.59747e-08
4.87356e-06
3.97445e-15
-5.96159e-08
4.88852e-06
3.88251e-15
-4.418e-08
4.89888e-06
3.78538e-15
-2.96538e-08
4.90491e-06
3.70212e-15
-1.60208e-08
4.90687e-06
3.61019e-15
-3.26123e-09
4.90503e-06
3.53387e-15
8.64678e-09
4.89964e-06
3.45754e-15
1.97274e-08
4.89094e-06
3.39337e-15
3.00072e-08
4.87916e-06
3.33266e-15
3.95142e-08
4.86455e-06
3.28062e-15
4.82775e-08
4.84732e-06
3.23206e-15
5.63272e-08
4.82768e-06
3.20084e-15
6.3694e-08
4.80584e-06
3.16962e-15
7.04094e-08
4.78199e-06
3.14187e-15
7.6505e-08
4.75631e-06
3.128e-15
8.20126e-08
4.72898e-06
3.11413e-15
8.6964e-08
4.70017e-06
3.10893e-15
9.13906e-08
4.67003e-06
3.10373e-15
9.53236e-08
4.63871e-06
3.10894e-15
9.87935e-08
4.60635e-06
3.12629e-15
1.0183e-07
4.57308e-06
3.14017e-15
1.04463e-07
4.53901e-06
3.15926e-15
1.0672e-07
4.50426e-06
3.17661e-15
1.08629e-07
4.46894e-06
3.20263e-15
1.10217e-07
4.43313e-06
3.23213e-15
1.11507e-07
4.39694e-06
3.26509e-15
1.12526e-07
4.36043e-06
3.29111e-15
1.13296e-07
4.32369e-06
3.32581e-15
1.13838e-07
4.28678e-06
3.35877e-15
1.14175e-07
4.24977e-06
3.39694e-15
1.14326e-07
4.2127e-06
3.42296e-15
1.14309e-07
4.17564e-06
3.45592e-15
1.14142e-07
4.13862e-06
3.48714e-15
1.13842e-07
4.10169e-06
3.52531e-15
1.13424e-07
4.06488e-06
3.55306e-15
1.12902e-07
4.02822e-06
3.58949e-15
1.1229e-07
3.99175e-06
3.61378e-15
1.116e-07
3.95547e-06
3.63633e-15
1.10844e-07
3.91942e-06
3.65194e-15
1.10033e-07
3.88361e-06
3.68317e-15
1.09176e-07
3.84806e-06
3.70398e-15
1.08282e-07
3.81277e-06
3.72133e-15
1.0736e-07
3.77775e-06
3.73867e-15
1.06417e-07
3.74301e-06
3.75775e-15
1.05461e-07
3.70856e-06
3.76816e-15
1.04498e-07
3.67439e-06
3.77683e-15
1.03533e-07
3.64051e-06
3.78723e-15
1.02572e-07
3.60691e-06
3.79591e-15
1.01619e-07
3.5736e-06
3.80284e-15
1.0068e-07
3.54057e-06
3.80284e-15
9.97581e-08
3.5078e-06
3.80977e-15
9.88566e-08
3.47531e-06
3.81324e-15
9.7979e-08
3.44307e-06
3.81324e-15
9.71282e-08
3.41108e-06
3.82017e-15
9.6307e-08
3.37933e-06
3.83057e-15
9.55178e-08
3.34782e-06
3.81843e-15
9.47627e-08
3.31652e-06
3.82016e-15
9.40437e-08
3.28543e-06
3.81842e-15
9.33626e-08
3.25454e-06
3.82015e-15
9.27211e-08
3.22383e-06
3.82361e-15
9.21207e-08
3.19329e-06
3.82708e-15
9.15626e-08
3.16291e-06
3.82707e-15
9.10482e-08
3.13267e-06
3.8288e-15
9.05785e-08
3.10256e-06
3.83574e-15
9.01546e-08
3.07256e-06
3.83747e-15
8.97774e-08
3.04267e-06
3.83746e-15
8.94478e-08
3.01285e-06
3.85134e-15
8.91667e-08
2.98311e-06
3.86001e-15
8.89347e-08
2.95342e-06
3.87214e-15
8.87526e-08
2.92376e-06
3.88255e-15
8.8621e-08
2.89413e-06
3.89122e-15
8.85404e-08
2.8645e-06
3.91029e-15
8.85115e-08
2.83485e-06
3.92764e-15
8.85347e-08
2.80518e-06
3.9363e-15
8.86104e-08
2.77547e-06
3.95538e-15
8.87392e-08
2.74569e-06
3.97966e-15
8.89212e-08
2.71583e-06
4.00221e-15
8.9157e-08
2.68587e-06
4.02129e-15
8.94466e-08
2.6558e-06
4.04904e-15
8.97905e-08
2.6256e-06
4.08026e-15
9.01887e-08
2.59525e-06
4.11495e-15
9.06414e-08
2.56474e-06
4.1479e-15
9.11486e-08
2.53404e-06
4.17912e-15
9.17104e-08
2.50315e-06
4.21728e-15
9.23268e-08
2.47204e-06
4.25544e-15
9.29975e-08
2.44069e-06
4.2936e-15
9.37225e-08
2.4091e-06
4.3387e-15
9.45014e-08
2.37724e-06
4.37859e-15
9.53339e-08
2.34509e-06
4.42369e-15
9.62197e-08
2.31265e-06
4.47053e-15
9.71581e-08
2.27988e-06
4.51215e-15
9.81486e-08
2.24679e-06
4.55899e-15
9.91904e-08
2.21335e-06
4.61103e-15
1.00283e-07
2.17955e-06
4.6648e-15
1.01425e-07
2.14537e-06
4.71684e-15
1.02615e-07
2.1108e-06
4.76541e-15
1.03852e-07
2.07583e-06
4.81918e-15
1.05136e-07
2.04043e-06
4.88336e-15
1.06464e-07
2.00461e-06
4.93366e-15
1.07835e-07
1.96834e-06
4.99784e-15
1.09247e-07
1.93162e-06
5.06203e-15