/*--------------------------------*- C++ -*----------------------------------*\
  =========                 |
  \\      /  F ield         | OpenFOAM: The Open Source CFD Toolbox
   \\    /   O peration     | Website:  https://openfoam.org
    \\  /    A nd           | Version:  8
     \\/     M anipulation  |
\*---------------------------------------------------------------------------*/
FoamFile
{
    version     2.0;
    format      ascii;
    class       volVectorField;
    location    "4500";
    object      U;
}
// * * * * * * * * * * * * * * * * * * * * * * * * * * * * * * * * * * * * * //

dimensions      [0 1 -1 0 0 0 0];

internalField   nonuniform List<vector> 
48000
(
(-0.0159466 2.54482e-07 0.0175198)
(-0.0364767 3.2598e-08 0.0184374)
(-0.0514076 3.07478e-08 0.0101979)
(-0.0571183 1.43839e-08 0.00176895)
(-0.054538 4.16886e-09 -0.0045509)
(-0.0463741 -3.45721e-09 -0.00892147)
(-0.0342165 -8.48669e-09 -0.0118836)
(-0.0194259 -1.17648e-08 -0.0138633)
(-0.00289605 -1.44489e-08 -0.015097)
(0.0147698 -1.59795e-08 -0.0156784)
(0.0328025 -1.54731e-08 -0.0158036)
(0.0510761 -1.41215e-08 -0.0156872)
(0.0692561 -1.23777e-08 -0.0154031)
(0.0871741 -1.04398e-08 -0.0150015)
(0.104694 -8.42567e-09 -0.0145172)
(0.121715 -6.43062e-09 -0.0139747)
(0.138162 -4.51933e-09 -0.0133918)
(0.15398 -2.72988e-09 -0.0127819)
(0.169128 -1.07749e-09 -0.0121551)
(0.183577 4.20695e-10 -0.0115192)
(0.197309 1.7723e-09 -0.0108802)
(0.210312 2.99255e-09 -0.0102429)
(0.22258 4.07955e-09 -0.00961117)
(0.234114 5.0409e-09 -0.0089881)
(0.244918 5.89184e-09 -0.00837619)
(0.255001 6.63808e-09 -0.00777752)
(0.264374 7.27581e-09 -0.00719378)
(0.27305 7.81836e-09 -0.00662635)
(0.281047 8.27904e-09 -0.00607637)
(0.288383 8.64836e-09 -0.00554474)
(0.295077 8.95485e-09 -0.00503219)
(0.301149 9.17948e-09 -0.00453926)
(0.306623 9.34891e-09 -0.00406636)
(0.311522 9.45361e-09 -0.00361376)
(0.315868 9.50311e-09 -0.00318161)
(0.319685 9.50882e-09 -0.00276996)
(0.322999 9.46694e-09 -0.00237877)
(0.325832 9.3927e-09 -0.00200789)
(0.328211 9.28229e-09 -0.00165711)
(0.330158 9.13951e-09 -0.00132615)
(0.331698 8.97961e-09 -0.00101467)
(0.332855 8.78734e-09 -0.000722275)
(0.333653 8.57603e-09 -0.000448548)
(0.334113 8.34379e-09 -0.000192999)
(0.334258 8.10774e-09 4.54097e-05)
(0.334111 7.86788e-09 0.000266966)
(0.333691 7.6204e-09 0.000471736)
(0.333019 7.37102e-09 0.000660651)
(0.332114 7.12545e-09 0.00083447)
(0.330996 6.87798e-09 0.000993866)
(0.329681 6.63051e-09 0.00113949)
(0.328188 6.39636e-09 0.00127199)
(0.326532 6.16602e-09 0.00139202)
(0.324729 5.94139e-09 0.00150023)
(0.322794 5.73389e-09 0.00159729)
(0.32074 5.5283e-09 0.00168383)
(0.31858 5.34365e-09 0.0017605)
(0.316327 5.159e-09 0.00182791)
(0.313992 4.99528e-09 0.00188669)
(0.311585 4.8468e-09 0.00193741)
(0.309117 4.70593e-09 0.00198065)
(0.306597 4.57839e-09 0.00201697)
(0.304034 4.46417e-09 0.00204691)
(0.301434 4.36138e-09 0.00207097)
(0.298806 4.27952e-09 0.00208965)
(0.296156 4.19957e-09 0.0021034)
(0.29349 4.13294e-09 0.00211268)
(0.290814 4.07583e-09 0.00211791)
(0.288132 4.03776e-09 0.00211948)
(0.28545 3.99969e-09 0.00211777)
(0.28277 3.96733e-09 0.00211313)
(0.280097 3.9521e-09 0.00210588)
(0.277434 3.93877e-09 0.00209635)
(0.274783 3.94448e-09 0.0020848)
(0.272147 3.94448e-09 0.00207152)
(0.269528 3.954e-09 0.00205674)
(0.266928 3.97114e-09 0.0020407)
(0.264349 4.00159e-09 0.00202361)
(0.261791 4.01873e-09 0.00200565)
(0.259255 4.04728e-09 0.00198702)
(0.256743 4.08154e-09 0.00196787)
(0.254256 4.112e-09 0.00194835)
(0.251792 4.15388e-09 0.00192859)
(0.249353 4.19386e-09 0.00190873)
(0.246939 4.23383e-09 0.00188887)
(0.24455 4.27571e-09 0.00186911)
(0.242186 4.31188e-09 0.00184954)
(0.239846 4.35756e-09 0.00183026)
(0.237529 4.39944e-09 0.00181133)
(0.235237 4.43942e-09 0.00179282)
(0.232967 4.4832e-09 0.00177479)
(0.230719 4.52508e-09 0.0017573)
(0.228494 4.56886e-09 0.00174039)
(0.226289 4.61835e-09 0.00172412)
(0.224104 4.65642e-09 0.00170851)
(0.221938 4.69449e-09 0.00169361)
(0.219791 4.72875e-09 0.00167945)
(0.217661 4.77063e-09 0.00166606)
(0.215548 4.81251e-09 0.00165346)
(0.21345 4.84867e-09 0.00164167)
(0.211366 4.88103e-09 0.00163073)
(0.209296 4.9191e-09 0.00162066)
(0.207238 4.95146e-09 0.00161146)
(0.205191 4.98573e-09 0.00160315)
(0.203154 5.01808e-09 0.00159577)
(0.201126 5.05615e-09 0.00158931)
(0.199106 5.09232e-09 0.00158379)
(0.197092 5.12658e-09 0.00157923)
(0.195084 5.15894e-09 0.00157564)
(0.19308 5.19701e-09 0.00157303)
(0.191078 5.23508e-09 0.00157141)
(0.189079 5.26363e-09 0.0015708)
(0.18708 5.3017e-09 0.00157121)
(0.18508 5.33025e-09 0.00157263)
(0.183078 5.37403e-09 0.0015751)
(0.181072 5.40639e-09 0.0015786)
(0.179062 5.44446e-09 0.00158316)
(0.177046 5.49395e-09 0.00158878)
(0.175023 5.53773e-09 0.00159546)
(0.172991 5.59103e-09 0.00160323)
(0.17095 5.63481e-09 0.00161207)
(0.168897 5.6824e-09 0.001622)
(0.166832 5.75093e-09 0.00163302)
(0.164753 5.80994e-09 0.00164513)
(0.162659 5.86324e-09 0.00165834)
(0.160548 5.92796e-09 0.00167266)
(0.15842 5.99458e-09 0.00168807)
(0.156272 6.06882e-09 0.00170458)
(0.154105 6.14687e-09 0.00172219)
(0.151915 6.2211e-09 0.0017409)
(0.149703 6.30867e-09 0.0017607)
(0.147466 6.39433e-09 0.00178157)
(0.145204 6.4838e-09 0.00180353)
(0.142915 6.58278e-09 0.00182655)
(0.140598 6.68558e-09 0.00185062)
(0.138252 6.78456e-09 0.00187573)
(0.135876 6.90258e-09 0.00190186)
(0.133468 7.02441e-09 0.001929)
(0.131027 7.13863e-09 0.00195712)
(0.128553 7.26807e-09 0.00198619)
(0.126044 7.40513e-09 0.00201619)
(0.123499 7.55742e-09 0.00204709)
(0.120918 7.69828e-09 0.00207885)
(0.118299 7.85057e-09 0.00211144)
(0.115642 8.01047e-09 0.00214481)
(0.112945 8.17418e-09 0.00217892)
(0.110208 8.34931e-09 0.00221372)
(0.107431 8.53206e-09 0.00224916)
(0.104613 8.7148e-09 0.00228516)
(0.101754 8.89755e-09 0.00232168)
(0.098852 9.09171e-09 0.00235863)
(0.0959082 9.28207e-09 0.00239594)
(0.092922 9.48386e-09 0.00243353)
(0.0898933 9.66279e-09 0.00247129)
(0.0868223 9.86458e-09 0.00250914)
(0.0837092 1.00435e-08 0.00254696)
(0.0805543 1.02301e-08 0.00258463)
(0.0773581 1.04128e-08 0.00262202)
(0.0741215 1.05841e-08 0.00265899)
(0.0708451 1.07631e-08 0.00269539)
(0.0675303 1.0942e-08 0.00273103)
(0.0641782 1.11286e-08 0.00276574)
(0.0607904 1.13532e-08 0.00279929)
(0.0573689 1.15854e-08 0.00283147)
(0.0539157 1.189e-08 0.00286202)
(0.0504333 1.22479e-08 0.00289065)
(0.0469245 1.27086e-08 0.00291706)
(0.0433925 1.32606e-08 0.00294087)
(0.039841 1.3885e-08 0.00296172)
(0.0362741 1.46388e-08 0.00297914)
(0.0326965 1.54726e-08 0.00299263)
(0.0291135 1.63254e-08 0.00300165)
(0.0255311 1.71782e-08 0.00300553)
(0.0219561 1.79435e-08 0.00300355)
(0.018396 1.84917e-08 0.00299489)
(0.0148596 1.87392e-08 0.00297857)
(0.0113565 1.85679e-08 0.0029535)
(0.00789794 1.78788e-08 0.00291836)
(0.00449642 1.65957e-08 0.0028715)
(0.00116939 1.46464e-08 0.00281)
(-0.00207663 1.19852e-08 0.0027262)
(-0.00520309 9.08788e-09 0.00261914)
(-0.00820126 6.44947e-09 0.0024918)
(-0.0110411 4.48113e-09 0.0023421)
(-0.0136945 3.87578e-09 0.00216571)
(-0.0161281 5.42913e-09 0.00195742)
(-0.0183025 9.88359e-09 0.00171207)
(-0.020172 1.76123e-08 0.00142267)
(-0.0216828 2.80593e-08 0.00108111)
(-0.0227718 3.92221e-08 0.000677376)
(-0.0233656 4.73163e-08 0.000199306)
(-0.0233773 4.73772e-08 -0.000365022)
(-0.0227093 3.63438e-08 -0.00102709)
(-0.0212589 1.68889e-08 -0.0017979)
(-0.0189166 -7.00506e-10 -0.00267868)
(-0.0155937 -3.33511e-09 -0.00363757)
(-0.0112744 9.9293e-09 -0.00455447)
(-0.00625773 1.22289e-08 -0.00505365)
(-0.000665891 -1.74217e-08 -0.00345706)
(0.00115748 -1.08153e-07 0.00157412)
(-0.0159475 2.54479e-07 0.017519)
(-0.0364769 3.25979e-08 0.0184371)
(-0.0514076 3.07477e-08 0.0101977)
(-0.0571182 1.43839e-08 0.00176878)
(-0.0545379 4.16884e-09 -0.00455105)
(-0.0463739 -3.4572e-09 -0.00892162)
(-0.0342163 -8.48666e-09 -0.0118837)
(-0.0194258 -1.17648e-08 -0.0138635)
(-0.00289589 -1.44489e-08 -0.0150971)
(0.01477 -1.59794e-08 -0.0156785)
(0.0328026 -1.54731e-08 -0.0158038)
(0.0510763 -1.41214e-08 -0.0156873)
(0.0692562 -1.23777e-08 -0.0154032)
(0.0871742 -1.04397e-08 -0.0150017)
(0.104694 -8.42565e-09 -0.0145173)
(0.121715 -6.43061e-09 -0.0139748)
(0.138162 -4.51932e-09 -0.0133919)
(0.15398 -2.72988e-09 -0.012782)
(0.169128 -1.07749e-09 -0.0121552)
(0.183577 4.20695e-10 -0.0115193)
(0.197309 1.7723e-09 -0.0108803)
(0.210312 2.99255e-09 -0.010243)
(0.22258 4.07954e-09 -0.00961127)
(0.234114 5.0409e-09 -0.00898819)
(0.244918 5.89184e-09 -0.00837628)
(0.255001 6.63807e-09 -0.00777761)
(0.264374 7.2758e-09 -0.00719386)
(0.27305 7.81835e-09 -0.00662644)
(0.281047 8.27904e-09 -0.00607646)
(0.288383 8.64835e-09 -0.00554483)
(0.295077 8.95484e-09 -0.00503227)
(0.301149 9.17947e-09 -0.00453934)
(0.306623 9.3489e-09 -0.00406644)
(0.311522 9.4536e-09 -0.00361383)
(0.315868 9.5031e-09 -0.00318169)
(0.319685 9.50881e-09 -0.00277004)
(0.322998 9.46693e-09 -0.00237884)
(0.325832 9.39269e-09 -0.00200796)
(0.328211 9.28228e-09 -0.00165719)
(0.330158 9.13951e-09 -0.00132623)
(0.331698 8.9796e-09 -0.00101474)
(0.332855 8.78733e-09 -0.000722348)
(0.333653 8.57603e-09 -0.000448621)
(0.334113 8.34378e-09 -0.000193071)
(0.334258 8.10773e-09 4.53384e-05)
(0.33411 7.86787e-09 0.000266896)
(0.33369 7.6204e-09 0.000471666)
(0.333018 7.37102e-09 0.000660581)
(0.332114 7.12545e-09 0.000834401)
(0.330996 6.87798e-09 0.000993797)
(0.329681 6.6305e-09 0.00113942)
(0.328188 6.39636e-09 0.00127192)
(0.326532 6.16602e-09 0.00139195)
(0.324729 5.94139e-09 0.00150017)
(0.322794 5.73389e-09 0.00159722)
(0.32074 5.5283e-09 0.00168377)
(0.31858 5.34365e-09 0.00176043)
(0.316327 5.15899e-09 0.00182785)
(0.313992 4.99528e-09 0.00188662)
(0.311585 4.8468e-09 0.00193734)
(0.309117 4.70593e-09 0.00198059)
(0.306597 4.57839e-09 0.00201691)
(0.304033 4.46417e-09 0.00204685)
(0.301434 4.36137e-09 0.00207091)
(0.298806 4.27952e-09 0.00208958)
(0.296156 4.19957e-09 0.00210334)
(0.29349 4.13294e-09 0.00211262)
(0.290814 4.07583e-09 0.00211785)
(0.288132 4.03776e-09 0.00211942)
(0.28545 3.99969e-09 0.00211771)
(0.28277 3.96733e-09 0.00211307)
(0.280097 3.9521e-09 0.00210582)
(0.277434 3.93877e-09 0.00209629)
(0.274783 3.94448e-09 0.00208474)
(0.272147 3.94448e-09 0.00207146)
(0.269528 3.954e-09 0.00205668)
(0.266928 3.97113e-09 0.00204064)
(0.264349 4.00159e-09 0.00202355)
(0.261791 4.01872e-09 0.0020056)
(0.259255 4.04728e-09 0.00198696)
(0.256743 4.08154e-09 0.00196781)
(0.254255 4.112e-09 0.00194829)
(0.251792 4.15388e-09 0.00192854)
(0.249353 4.19385e-09 0.00190867)
(0.246939 4.23383e-09 0.00188881)
(0.24455 4.27571e-09 0.00186905)
(0.242186 4.31188e-09 0.00184949)
(0.239846 4.35756e-09 0.0018302)
(0.237529 4.39944e-09 0.00181127)
(0.235237 4.43941e-09 0.00179276)
(0.232967 4.4832e-09 0.00177473)
(0.230719 4.52507e-09 0.00175724)
(0.228494 4.56885e-09 0.00174034)
(0.226289 4.61835e-09 0.00172406)
(0.224104 4.65642e-09 0.00170846)
(0.221938 4.69449e-09 0.00169356)
(0.219791 4.72875e-09 0.0016794)
(0.217661 4.77063e-09 0.001666)
(0.215548 4.81251e-09 0.0016534)
(0.21345 4.84867e-09 0.00164162)
(0.211366 4.88103e-09 0.00163068)
(0.209296 4.9191e-09 0.0016206)
(0.207238 4.95146e-09 0.0016114)
(0.205191 4.98572e-09 0.0016031)
(0.203154 5.01808e-09 0.00159571)
(0.201126 5.05615e-09 0.00158925)
(0.199106 5.09232e-09 0.00158374)
(0.197092 5.12658e-09 0.00157918)
(0.195084 5.15894e-09 0.00157559)
(0.19308 5.19701e-09 0.00157298)
(0.191078 5.23508e-09 0.00157136)
(0.189079 5.26363e-09 0.00157075)
(0.18708 5.3017e-09 0.00157115)
(0.18508 5.33025e-09 0.00157258)
(0.183078 5.37403e-09 0.00157504)
(0.181072 5.40639e-09 0.00157855)
(0.179062 5.44446e-09 0.00158311)
(0.177046 5.49395e-09 0.00158873)
(0.175023 5.53773e-09 0.00159541)
(0.172991 5.59103e-09 0.00160317)
(0.17095 5.63481e-09 0.00161202)
(0.168897 5.6824e-09 0.00162194)
(0.166832 5.75093e-09 0.00163296)
(0.164753 5.80994e-09 0.00164508)
(0.162659 5.86323e-09 0.00165829)
(0.160548 5.92795e-09 0.0016726)
(0.15842 5.99458e-09 0.00168802)
(0.156272 6.06882e-09 0.00170453)
(0.154105 6.14686e-09 0.00172214)
(0.151915 6.2211e-09 0.00174085)
(0.149703 6.30867e-09 0.00176064)
(0.147466 6.39433e-09 0.00178152)
(0.145204 6.48379e-09 0.00180347)
(0.142915 6.58278e-09 0.00182649)
(0.140598 6.68557e-09 0.00185057)
(0.138252 6.78456e-09 0.00187568)
(0.135876 6.90258e-09 0.00190181)
(0.133468 7.02441e-09 0.00192894)
(0.131027 7.13862e-09 0.00195706)
(0.128553 7.26807e-09 0.00198613)
(0.126044 7.40513e-09 0.00201613)
(0.123499 7.55741e-09 0.00204703)
(0.120918 7.69828e-09 0.00207879)
(0.118299 7.85057e-09 0.00211138)
(0.115642 8.01047e-09 0.00214475)
(0.112945 8.17418e-09 0.00217886)
(0.110208 8.34931e-09 0.00221366)
(0.107431 8.53205e-09 0.0022491)
(0.104613 8.7148e-09 0.0022851)
(0.101754 8.89754e-09 0.00232162)
(0.098852 9.09171e-09 0.00235857)
(0.0959082 9.28207e-09 0.00239588)
(0.092922 9.48385e-09 0.00243346)
(0.0898933 9.66279e-09 0.00247122)
(0.0868223 9.86457e-09 0.00250907)
(0.0837092 1.00435e-08 0.00254689)
(0.0805543 1.02301e-08 0.00258456)
(0.0773582 1.04128e-08 0.00262195)
(0.0741215 1.05841e-08 0.00265892)
(0.0708451 1.07631e-08 0.00269531)
(0.0675303 1.0942e-08 0.00273096)
(0.0641782 1.11286e-08 0.00276566)
(0.0607905 1.13532e-08 0.00279922)
(0.0573689 1.15854e-08 0.00283139)
(0.0539157 1.189e-08 0.00286194)
(0.0504333 1.22479e-08 0.00289057)
(0.0469245 1.27086e-08 0.00291697)
(0.0433925 1.32606e-08 0.00294079)
(0.039841 1.3885e-08 0.00296163)
(0.0362741 1.46388e-08 0.00297905)
(0.0326965 1.54726e-08 0.00299254)
(0.0291135 1.63254e-08 0.00300155)
(0.0255311 1.71782e-08 0.00300543)
(0.0219561 1.79435e-08 0.00300346)
(0.018396 1.84917e-08 0.00299479)
(0.0148596 1.87392e-08 0.00297847)
(0.0113565 1.85679e-08 0.0029534)
(0.00789796 1.78788e-08 0.00291825)
(0.00449643 1.65957e-08 0.00287139)
(0.00116941 1.46464e-08 0.00280989)
(-0.00207661 1.19852e-08 0.00272608)
(-0.00520307 9.08787e-09 0.00261902)
(-0.00820124 6.44947e-09 0.00249168)
(-0.011041 4.48113e-09 0.00234198)
(-0.0136945 3.87578e-09 0.00216559)
(-0.0161281 5.42913e-09 0.00195729)
(-0.0183025 9.88358e-09 0.00171194)
(-0.020172 1.76122e-08 0.00142254)
(-0.0216828 2.80593e-08 0.00108098)
(-0.0227718 3.92221e-08 0.000677238)
(-0.0233656 4.73162e-08 0.00019916)
(-0.0233773 4.73771e-08 -0.000365174)
(-0.0227093 3.63438e-08 -0.00102725)
(-0.0212589 1.68889e-08 -0.00179807)
(-0.0189166 -7.00505e-10 -0.00267886)
(-0.0155937 -3.3351e-09 -0.00363775)
(-0.0112745 9.92924e-09 -0.00455467)
(-0.0062579 1.22288e-08 -0.0050539)
(-0.000666154 -1.7422e-08 -0.00345744)
(0.00115726 -1.08158e-07 0.00157346)
(-0.0152038 2.44343e-08 0.0411848)
(-0.0225645 2.78665e-09 0.0283414)
(-0.0235756 3.98802e-09 0.013747)
(-0.0207994 3.69197e-10 0.000397846)
(-0.0144921 -8.80536e-10 -0.0101402)
(-0.00543606 -1.9085e-09 -0.0178331)
(0.00590051 -2.71184e-09 -0.0232429)
(0.018901 -3.28674e-09 -0.0268998)
(0.0331183 -3.71315e-09 -0.0292604)
(0.0481632 -3.90827e-09 -0.0306206)
(0.0637073 -3.87305e-09 -0.0312514)
(0.079506 -3.76548e-09 -0.0313772)
(0.0953441 -3.60129e-09 -0.0311271)
(0.111062 -3.40425e-09 -0.0305993)
(0.126533 -3.19152e-09 -0.0298632)
(0.141655 -2.97354e-09 -0.0289702)
(0.156353 -2.75747e-09 -0.0279594)
(0.170564 -2.55616e-09 -0.0268609)
(0.184241 -2.36626e-09 -0.0256985)
(0.197349 -2.1897e-09 -0.024491)
(0.209862 -2.02883e-09 -0.0232537)
(0.22176 -1.87987e-09 -0.0219991)
(0.233032 -1.74518e-09 -0.0207376)
(0.24367 -1.62334e-09 -0.0194779)
(0.253674 -1.51293e-09 -0.0182271)
(0.263044 -1.41299e-09 -0.0169915)
(0.271786 -1.32732e-09 -0.0157763)
(0.279908 -1.25069e-09 -0.0145858)
(0.287422 -1.18501e-09 -0.0134238)
(0.294339 -1.12885e-09 -0.0122935)
(0.300675 -1.08174e-09 -0.0111974)
(0.306446 -1.04318e-09 -0.0101377)
(0.311669 -1.01272e-09 -0.0091161)
(0.316363 -9.90354e-10 -0.00813402)
(0.320547 -9.75122e-10 -0.00719246)
(0.324242 -9.64174e-10 -0.00629214)
(0.327468 -9.58937e-10 -0.00543351)
(0.330246 -9.58459e-10 -0.00461677)
(0.332597 -9.61312e-10 -0.00384187)
(0.334543 -9.68924e-10 -0.00310859)
(0.336104 -9.7844e-10 -0.00241651)
(0.337301 -9.91764e-10 -0.00176504)
(0.338156 -1.00651e-09 -0.00115348)
(0.338689 -1.02127e-09 -0.000580967)
(0.338919 -1.03792e-09 -4.65276e-05)
(0.338867 -1.05981e-09 0.000450967)
(0.338552 -1.07932e-09 0.000912753)
(0.337992 -1.09693e-09 0.00134006)
(0.337205 -1.11311e-09 0.00173419)
(0.336208 -1.12881e-09 0.00209645)
(0.335018 -1.14356e-09 0.00242821)
(0.333651 -1.15831e-09 0.00273085)
(0.332122 -1.17116e-09 0.00300578)
(0.330446 -1.18258e-09 0.00325439)
(0.328637 -1.19257e-09 0.00347811)
(0.326706 -1.19971e-09 0.00367833)
(0.324668 -1.20684e-09 0.00385643)
(0.322534 -1.21017e-09 0.00401377)
(0.320314 -1.21446e-09 0.00415169)
(0.318018 -1.21445e-09 0.00427149)
(0.315657 -1.2135e-09 0.00437443)
(0.31324 -1.2116e-09 0.00446174)
(0.310774 -1.20826e-09 0.00453459)
(0.308267 -1.20445e-09 0.00459412)
(0.305727 -1.19731e-09 0.00464142)
(0.303159 -1.19065e-09 0.00467752)
(0.300571 -1.18303e-09 0.00470341)
(0.297966 -1.17447e-09 0.00472003)
(0.295352 -1.16352e-09 0.00472826)
(0.292731 -1.154e-09 0.00472895)
(0.290108 -1.14448e-09 0.00472288)
(0.287486 -1.13258e-09 0.00471078)
(0.284869 -1.12021e-09 0.00469336)
(0.282261 -1.1064e-09 0.00467125)
(0.279662 -1.09403e-09 0.00464505)
(0.277076 -1.08118e-09 0.00461533)
(0.274505 -1.06833e-09 0.00458259)
(0.27195 -1.05548e-09 0.00454732)
(0.269412 -1.04453e-09 0.00450996)
(0.266893 -1.03168e-09 0.00447091)
(0.264394 -1.01979e-09 0.00443054)
(0.261916 -1.00836e-09 0.00438919)
(0.259459 -9.96942e-10 0.00434716)
(0.257023 -9.84568e-10 0.00430476)
(0.254609 -9.73147e-10 0.00426222)
(0.252216 -9.6458e-10 0.00421979)
(0.249846 -9.54111e-10 0.00417767)
(0.247498 -9.44117e-10 0.00413607)
(0.24517 -9.35075e-10 0.00409514)
(0.242864 -9.25081e-10 0.00405505)
(0.240579 -9.17467e-10 0.00401595)
(0.238314 -9.06998e-10 0.00397795)
(0.236069 -8.98908e-10 0.00394117)
(0.233843 -8.91294e-10 0.00390572)
(0.231635 -8.8368e-10 0.00387169)
(0.229445 -8.77018e-10 0.00383916)
(0.227271 -8.6988e-10 0.00380821)
(0.225114 -8.63218e-10 0.00377891)
(0.222971 -8.57032e-10 0.00375132)
(0.220843 -8.50846e-10 0.0037255)
(0.218728 -8.44184e-10 0.00370149)
(0.216625 -8.37522e-10 0.00367936)
(0.214534 -8.32288e-10 0.00365913)
(0.212452 -8.26578e-10 0.00364084)
(0.21038 -8.20868e-10 0.00362454)
(0.208316 -8.14207e-10 0.00361026)
(0.206258 -8.08973e-10 0.00359803)
(0.204207 -8.03739e-10 0.00358788)
(0.20216 -7.98505e-10 0.00357983)
(0.200117 -7.91843e-10 0.00357391)
(0.198076 -7.85182e-10 0.00357015)
(0.196037 -7.79472e-10 0.00356856)
(0.193997 -7.74238e-10 0.00356917)
(0.191956 -7.71384e-10 0.003572)
(0.189913 -7.6615e-10 0.00357706)
(0.187867 -7.59488e-10 0.00358437)
(0.185815 -7.55206e-10 0.00359394)
(0.183758 -7.49497e-10 0.00360579)
(0.181693 -7.43787e-10 0.00361992)
(0.17962 -7.37125e-10 0.00363636)
(0.177537 -7.31415e-10 0.0036551)
(0.175442 -7.25706e-10 0.00367615)
(0.173336 -7.20948e-10 0.00369952)
(0.171216 -7.15714e-10 0.0037252)
(0.169082 -7.1048e-10 0.00375319)
(0.166931 -7.06674e-10 0.0037835)
(0.164763 -7.0144e-10 0.00381611)
(0.162577 -6.97158e-10 0.00385101)
(0.160371 -6.91924e-10 0.0038882)
(0.158144 -6.88594e-10 0.00392764)
(0.155895 -6.86215e-10 0.00396933)
(0.153623 -6.81933e-10 0.00401323)
(0.151326 -6.79554e-10 0.00405932)
(0.149004 -6.75748e-10 0.00410757)
(0.146655 -6.7337e-10 0.00415792)
(0.144279 -6.72895e-10 0.00421035)
(0.141873 -6.7004e-10 0.0042648)
(0.139438 -6.68613e-10 0.00432122)
(0.136972 -6.68614e-10 0.00437954)
(0.134474 -6.67663e-10 0.0044397)
(0.131943 -6.6814e-10 0.00450161)
(0.129379 -6.67189e-10 0.0045652)
(0.126781 -6.69569e-10 0.00463038)
(0.124147 -6.71474e-10 0.00469705)
(0.121477 -6.71951e-10 0.00476509)
(0.118772 -6.77662e-10 0.0048344)
(0.116029 -6.82422e-10 0.00490485)
(0.113248 -6.85278e-10 0.00497629)
(0.11043 -6.90038e-10 0.00504858)
(0.107574 -6.97653e-10 0.00512156)
(0.104679 -7.05744e-10 0.00519506)
(0.101746 -7.15739e-10 0.00526888)
(0.0987743 -7.25257e-10 0.00534283)
(0.0957644 -7.343e-10 0.00541668)
(0.0927165 -7.50957e-10 0.00549019)
(0.089631 -7.65235e-10 0.00556312)
(0.0865084 -7.81416e-10 0.00563519)
(0.0833495 -7.99977e-10 0.00570609)
(0.0801551 -8.20917e-10 0.0057755)
(0.0769263 -8.37099e-10 0.00584307)
(0.0736644 -8.56135e-10 0.00590842)
(0.070371 -8.73744e-10 0.00597113)
(0.0670477 -8.88974e-10 0.00603073)
(0.0636965 -9.00872e-10 0.00608675)
(0.0603198 -9.08486e-10 0.00613862)
(0.05692 -9.08011e-10 0.00618575)
(0.0535003 -9.023e-10 0.00622747)
(0.0500638 -8.89927e-10 0.00626305)
(0.0466142 -8.73747e-10 0.00629168)
(0.0431557 -8.54711e-10 0.00631245)
(0.039693 -8.40434e-10 0.00632435)
(0.0362311 -8.38531e-10 0.00632626)
(0.032776 -8.5376e-10 0.0063169)
(0.029334 -8.99447e-10 0.00629483)
(0.0259125 -9.89869e-10 0.00625845)
(0.0225194 -1.12883e-09 0.00620589)
(0.0191637 -1.323e-09 0.00613503)
(0.0158558 -1.57904e-09 0.00604336)
(0.0126068 -1.88171e-09 0.00592785)
(0.00942984 -2.22436e-09 0.00578495)
(0.00633832 -2.55369e-09 0.00560865)
(0.00334907 -2.8221e-09 0.005395)
(0.00047868 -2.99818e-09 0.00514118)
(-0.00225212 -3.01151e-09 0.0048411)
(-0.004819 -2.76214e-09 0.00448828)
(-0.00719799 -2.14917e-09 0.00407479)
(-0.00936059 -1.08505e-09 0.00359118)
(-0.0112757 4.46407e-10 0.00302589)
(-0.0129084 2.23105e-09 0.00236599)
(-0.0142209 3.72158e-09 0.00159668)
(-0.0151725 3.97856e-09 0.000701659)
(-0.0157216 1.97596e-09 -0.000334164)
(-0.015825 -2.52514e-09 -0.00152094)
(-0.0154465 -7.82861e-09 -0.00286029)
(-0.0145621 -9.89498e-09 -0.00432844)
(-0.0131717 -4.74571e-09 -0.00583873)
(-0.0113162 5.10933e-09 -0.00716495)
(-0.00904734 5.4025e-09 -0.00779642)
(-0.00632099 -5.92406e-09 -0.00646133)
(-0.00370669 -1.3846e-07 -0.00116648)
(-0.0152041 2.44342e-08 0.0411845)
(-0.0225645 2.78663e-09 0.0283412)
(-0.0235756 3.988e-09 0.0137468)
(-0.0207993 3.69195e-10 0.000397749)
(-0.014492 -8.80531e-10 -0.0101403)
(-0.00543598 -1.90849e-09 -0.0178332)
(0.00590059 -2.71183e-09 -0.023243)
(0.018901 -3.28672e-09 -0.0268999)
(0.0331184 -3.71314e-09 -0.0292604)
(0.0481632 -3.90826e-09 -0.0306207)
(0.0637074 -3.87303e-09 -0.0312515)
(0.079506 -3.76547e-09 -0.0313772)
(0.0953441 -3.60128e-09 -0.0311272)
(0.111062 -3.40425e-09 -0.0305994)
(0.126533 -3.19151e-09 -0.0298632)
(0.141655 -2.97354e-09 -0.0289702)
(0.156353 -2.75747e-09 -0.0279594)
(0.170564 -2.55615e-09 -0.026861)
(0.184241 -2.36626e-09 -0.0256985)
(0.197349 -2.18969e-09 -0.024491)
(0.209862 -2.02883e-09 -0.0232537)
(0.22176 -1.87987e-09 -0.0219992)
(0.233032 -1.74518e-09 -0.0207377)
(0.24367 -1.62334e-09 -0.0194779)
(0.253674 -1.51293e-09 -0.0182271)
(0.263044 -1.41298e-09 -0.0169915)
(0.271786 -1.32732e-09 -0.0157763)
(0.279908 -1.25069e-09 -0.0145858)
(0.287422 -1.18501e-09 -0.0134238)
(0.294339 -1.12885e-09 -0.0122935)
(0.300675 -1.08173e-09 -0.0111974)
(0.306446 -1.04318e-09 -0.0101377)
(0.311669 -1.01272e-09 -0.00911611)
(0.316363 -9.90353e-10 -0.00813403)
(0.320547 -9.75121e-10 -0.00719247)
(0.324242 -9.64173e-10 -0.00629215)
(0.327468 -9.58936e-10 -0.00543352)
(0.330246 -9.58457e-10 -0.00461678)
(0.332597 -9.61311e-10 -0.00384188)
(0.334542 -9.68923e-10 -0.0031086)
(0.336104 -9.78439e-10 -0.00241652)
(0.337301 -9.91763e-10 -0.00176506)
(0.338156 -1.00651e-09 -0.0011535)
(0.338689 -1.02126e-09 -0.00058098)
(0.338919 -1.03792e-09 -4.65409e-05)
(0.338867 -1.05981e-09 0.000450953)
(0.338552 -1.07932e-09 0.000912739)
(0.337992 -1.09693e-09 0.00134005)
(0.337205 -1.11311e-09 0.00173417)
(0.336208 -1.12881e-09 0.00209643)
(0.335018 -1.14356e-09 0.00242819)
(0.333651 -1.15831e-09 0.00273083)
(0.332122 -1.17116e-09 0.00300576)
(0.330446 -1.18258e-09 0.00325438)
(0.328636 -1.19257e-09 0.0034781)
(0.326706 -1.19971e-09 0.00367831)
(0.324668 -1.20684e-09 0.00385641)
(0.322534 -1.21017e-09 0.00401376)
(0.320314 -1.21445e-09 0.00415168)
(0.318018 -1.21445e-09 0.00427148)
(0.315657 -1.2135e-09 0.00437442)
(0.31324 -1.21159e-09 0.00446172)
(0.310774 -1.20826e-09 0.00453457)
(0.308267 -1.20445e-09 0.00459411)
(0.305727 -1.19731e-09 0.0046414)
(0.303159 -1.19065e-09 0.0046775)
(0.300571 -1.18303e-09 0.00470339)
(0.297966 -1.17446e-09 0.00472001)
(0.295351 -1.16352e-09 0.00472825)
(0.292731 -1.154e-09 0.00472893)
(0.290107 -1.14448e-09 0.00472286)
(0.287486 -1.13258e-09 0.00471076)
(0.284869 -1.12021e-09 0.00469334)
(0.282261 -1.1064e-09 0.00467123)
(0.279662 -1.09403e-09 0.00464503)
(0.277076 -1.08118e-09 0.00461531)
(0.274505 -1.06833e-09 0.00458258)
(0.27195 -1.05548e-09 0.00454731)
(0.269412 -1.04453e-09 0.00450994)
(0.266893 -1.03168e-09 0.00447089)
(0.264394 -1.01978e-09 0.00443052)
(0.261916 -1.00836e-09 0.00438917)
(0.259459 -9.96941e-10 0.00434715)
(0.257023 -9.84568e-10 0.00430474)
(0.254609 -9.73146e-10 0.00426221)
(0.252216 -9.6458e-10 0.00421977)
(0.249846 -9.5411e-10 0.00417766)
(0.247497 -9.44116e-10 0.00413605)
(0.24517 -9.35074e-10 0.00409513)
(0.242864 -9.2508e-10 0.00405504)
(0.240579 -9.17466e-10 0.00401593)
(0.238314 -9.06997e-10 0.00397793)
(0.236069 -8.98907e-10 0.00394116)
(0.233843 -8.91293e-10 0.0039057)
(0.231635 -8.83679e-10 0.00387167)
(0.229445 -8.77017e-10 0.00383915)
(0.227271 -8.69879e-10 0.0038082)
(0.225114 -8.63217e-10 0.0037789)
(0.222971 -8.57031e-10 0.00375131)
(0.220843 -8.50845e-10 0.00372548)
(0.218728 -8.44183e-10 0.00370148)
(0.216625 -8.37522e-10 0.00367934)
(0.214534 -8.32288e-10 0.00365911)
(0.212452 -8.26578e-10 0.00364083)
(0.21038 -8.20868e-10 0.00362453)
(0.208316 -8.14206e-10 0.00361025)
(0.206258 -8.08972e-10 0.00359802)
(0.204207 -8.03738e-10 0.00358787)
(0.20216 -7.98504e-10 0.00357982)
(0.200117 -7.91843e-10 0.0035739)
(0.198076 -7.85181e-10 0.00357014)
(0.196037 -7.79471e-10 0.00356855)
(0.193997 -7.74237e-10 0.00356916)
(0.191956 -7.71383e-10 0.00357199)
(0.189913 -7.66149e-10 0.00357704)
(0.187867 -7.59488e-10 0.00358435)
(0.185815 -7.55206e-10 0.00359392)
(0.183758 -7.49496e-10 0.00360577)
(0.181693 -7.43786e-10 0.00361991)
(0.17962 -7.37125e-10 0.00363634)
(0.177537 -7.31415e-10 0.00365509)
(0.175442 -7.25705e-10 0.00367614)
(0.173336 -7.20947e-10 0.0036995)
(0.171216 -7.15713e-10 0.00372518)
(0.169082 -7.1048e-10 0.00375318)
(0.166931 -7.06673e-10 0.00378349)
(0.164763 -7.01439e-10 0.0038161)
(0.162577 -6.97157e-10 0.003851)
(0.160371 -6.91923e-10 0.00388818)
(0.158144 -6.88593e-10 0.00392763)
(0.155895 -6.86215e-10 0.00396931)
(0.153623 -6.81933e-10 0.00401322)
(0.151326 -6.79554e-10 0.00405931)
(0.149004 -6.75748e-10 0.00410755)
(0.146655 -6.73369e-10 0.00415791)
(0.144279 -6.72894e-10 0.00421034)
(0.141873 -6.7004e-10 0.00426479)
(0.139438 -6.68613e-10 0.00432121)
(0.136972 -6.68614e-10 0.00437953)
(0.134474 -6.67663e-10 0.00443968)
(0.131943 -6.6814e-10 0.0045016)
(0.129379 -6.67189e-10 0.00456519)
(0.126781 -6.69569e-10 0.00463037)
(0.124147 -6.71473e-10 0.00469703)
(0.121477 -6.7195e-10 0.00476508)
(0.118772 -6.77662e-10 0.00483439)
(0.116029 -6.82421e-10 0.00490483)
(0.113248 -6.85278e-10 0.00497628)
(0.11043 -6.90037e-10 0.00504857)
(0.107574 -6.97652e-10 0.00512155)
(0.104679 -7.05743e-10 0.00519504)
(0.101746 -7.15738e-10 0.00526887)
(0.0987743 -7.25257e-10 0.00534281)
(0.0957644 -7.343e-10 0.00541666)
(0.0927165 -7.50957e-10 0.00549018)
(0.089631 -7.65234e-10 0.00556311)
(0.0865084 -7.81416e-10 0.00563517)
(0.0833495 -7.99976e-10 0.00570607)
(0.0801551 -8.20917e-10 0.00577549)
(0.0769263 -8.37098e-10 0.00584306)
(0.0736644 -8.56135e-10 0.0059084)
(0.070371 -8.73743e-10 0.00597111)
(0.0670477 -8.88973e-10 0.00603072)
(0.0636965 -9.00871e-10 0.00608673)
(0.0603198 -9.08486e-10 0.0061386)
(0.05692 -9.0801e-10 0.00618573)
(0.0535003 -9.023e-10 0.00622745)
(0.0500638 -8.89927e-10 0.00626303)
(0.0466142 -8.73746e-10 0.00629166)
(0.0431557 -8.5471e-10 0.00631243)
(0.039693 -8.40434e-10 0.00632433)
(0.0362311 -8.3853e-10 0.00632624)
(0.032776 -8.53759e-10 0.00631688)
(0.029334 -8.99446e-10 0.00629481)
(0.0259125 -9.89868e-10 0.00625843)
(0.0225194 -1.12883e-09 0.00620587)
(0.0191638 -1.323e-09 0.00613501)
(0.0158558 -1.57904e-09 0.00604334)
(0.0126068 -1.88171e-09 0.00592782)
(0.00942985 -2.22436e-09 0.00578493)
(0.00633833 -2.55369e-09 0.00560863)
(0.00334908 -2.8221e-09 0.00539498)
(0.000478689 -2.99818e-09 0.00514115)
(-0.00225211 -3.01151e-09 0.00484108)
(-0.00481899 -2.76213e-09 0.00448826)
(-0.00719798 -2.14917e-09 0.00407477)
(-0.00936058 -1.08505e-09 0.00359116)
(-0.0112757 4.46406e-10 0.00302586)
(-0.0129084 2.23104e-09 0.00236597)
(-0.0142209 3.72157e-09 0.00159665)
(-0.0151725 3.97856e-09 0.000701627)
(-0.0157216 1.97596e-09 -0.000334197)
(-0.015825 -2.52513e-09 -0.00152097)
(-0.0154465 -7.8286e-09 -0.00286033)
(-0.0145621 -9.89497e-09 -0.00432848)
(-0.0131717 -4.74569e-09 -0.00583878)
(-0.0113163 5.10928e-09 -0.00716501)
(-0.00904741 5.40242e-09 -0.0077965)
(-0.00632117 -5.92407e-09 -0.00646147)
(-0.00370704 -1.38463e-07 -0.00116676)
(-0.00703547 3.95417e-08 0.0559705)
(-0.00800886 3.0075e-09 0.0290079)
(-0.00344917 4.88945e-09 0.00876814)
(0.00315728 3.2057e-09 -0.0074274)
(0.011415 3.0244e-09 -0.0200421)
(0.0210299 2.84642e-09 -0.0295315)
(0.0318745 2.65844e-09 -0.0364446)
(0.0437564 2.47141e-09 -0.0413022)
(0.0564654 2.2563e-09 -0.0445582)
(0.0697914 2.0369e-09 -0.0465644)
(0.0835452 1.84083e-09 -0.0476111)
(0.0975469 1.65998e-09 -0.0479307)
(0.111634 1.50912e-09 -0.0476929)
(0.125673 1.38419e-09 -0.0470265)
(0.139551 1.28163e-09 -0.0460292)
(0.153176 1.19692e-09 -0.0447762)
(0.166471 1.12768e-09 -0.043326)
(0.179377 1.06748e-09 -0.0417251)
(0.191844 1.01846e-09 -0.0400104)
(0.203834 9.73962e-10 -0.0382122)
(0.215316 9.36366e-10 -0.0363552)
(0.226269 9.03291e-10 -0.0344599)
(0.236676 8.74975e-10 -0.0325434)
(0.246526 8.4666e-10 -0.0306203)
(0.255812 8.23579e-10 -0.0287027)
(0.264534 8.00974e-10 -0.0268012)
(0.272692 7.80273e-10 -0.0249247)
(0.280291 7.61238e-10 -0.0230807)
(0.287338 7.41964e-10 -0.0212758)
(0.293841 7.24832e-10 -0.0195154)
(0.299813 7.07701e-10 -0.0178043)
(0.305266 6.90807e-10 -0.0161463)
(0.310215 6.74151e-10 -0.0145445)
(0.314675 6.57733e-10 -0.0130016)
(0.318662 6.41553e-10 -0.0115195)
(0.322194 6.268e-10 -0.0100997)
(0.325288 6.11334e-10 -0.00874329)
(0.327964 5.96344e-10 -0.00745079)
(0.33024 5.81592e-10 -0.00622246)
(0.332134 5.66601e-10 -0.00505815)
(0.333666 5.52563e-10 -0.00395745)
(0.334854 5.39238e-10 -0.00291963)