/*--------------------------------*- C++ -*----------------------------------*\
  =========                 |
  \\      /  F ield         | OpenFOAM: The Open Source CFD Toolbox
   \\    /   O peration     | Website:  https://openfoam.org
    \\  /    A nd           | Version:  8
     \\/     M anipulation  |
\*---------------------------------------------------------------------------*/
FoamFile
{
    version     2.0;
    format      ascii;
    class       volScalarField;
    location    "1600";
    object      alphat;
}
// * * * * * * * * * * * * * * * * * * * * * * * * * * * * * * * * * * * * * //

dimensions      [1 -1 -1 0 0 0 0];

internalField   nonuniform List<scalar> 
48000
(
5.76186e-05
5.40839e-05
6.93843e-05
7.96459e-05
8.7826e-05
9.46364e-05
0.000100612
0.000105998
0.000110879
0.000115385
0.000119586
0.000123534
0.000127267
0.000130814
0.000134197
0.000137434
0.000140539
0.000143522
0.000146393
0.000149159
0.000151825
0.000154397
0.000156878
0.000159272
0.000161581
0.000163809
0.000165958
0.000168029
0.000170025
0.000171947
0.000173796
0.000175575
0.000177285
0.000178928
0.000180504
0.000182016
0.000183464
0.000184851
0.000186177
0.000187445
0.000188654
0.000189808
0.000190907
0.000191952
0.000192946
0.000193889
0.000194783
0.000195629
0.000196428
0.000197182
0.000197892
0.000198559
0.000199184
0.000199773
0.000200326
0.00020084
0.000201319
0.000201761
0.000202169
0.000202543
0.000202884
0.000203194
0.000203473
0.000203723
0.000203944
0.000204136
0.000204302
0.000204441
0.000204555
0.000204644
0.000204708
0.000204749
0.000204767
0.000204763
0.000204737
0.00020469
0.000204622
0.000204534
0.000204427
0.0002043
0.000204155
0.000203991
0.000203809
0.00020361
0.000203393
0.00020316
0.000202909
0.000202643
0.00020236
0.000202062
0.000201748
0.000201419
0.000201074
0.000200715
0.000200341
0.000199952
0.000199549
0.000199132
0.0001987
0.000198255
0.000197795
0.000197322
0.000196835
0.000196334
0.000195819
0.000195291
0.000194749
0.000194194
0.000193625
0.000193042
0.000192446
0.000191837
0.000191213
0.000190576
0.000189926
0.000189261
0.000188583
0.00018789
0.000187184
0.000186463
0.000185728
0.000184979
0.000184215
0.000183436
0.000182642
0.000181834
0.00018101
0.000180171
0.000179317
0.000178446
0.00017756
0.000176658
0.000175739
0.000174804
0.000173852
0.000172883
0.000171897
0.000170894
0.000169873
0.000168834
0.000167777
0.000166702
0.000165608
0.000164496
0.000163364
0.000162214
0.000161043
0.000159853
0.000158643
0.000157413
0.000156163
0.000154892
0.000153599
0.000152286
0.000150951
0.000149595
0.000148217
0.000146816
0.000145393
0.000143948
0.000142479
0.000140988
0.000139472
0.000137933
0.00013637
0.000134781
0.000133168
0.000131529
0.000129865
0.000128173
0.000126455
0.000124708
0.000122932
0.000121127
0.00011929
0.000117422
0.000115519
0.000113581
0.000111606
0.00010959
0.000107532
0.000105427
0.000103272
0.000101064
9.87983e-05
9.64849e-05
9.41087e-05
9.16395e-05
8.90614e-05
8.63532e-05
8.3486e-05
8.04218e-05
7.71076e-05
7.34966e-05
6.95092e-05
6.49516e-05
5.95634e-05
5.21097e-05
4.62385e-05
0.000180128
5.76166e-05
5.41104e-05
6.93865e-05
7.96469e-05
8.78271e-05
9.46375e-05
0.000100613
0.000105999
0.00011088
0.000115386
0.000119587
0.000123535
0.000127268
0.000130814
0.000134198
0.000137435
0.000140539
0.000143523
0.000146394
0.000149159
0.000151826
0.000154397
0.000156878
0.000159272
0.000161582
0.00016381
0.000165958
0.000168029
0.000170025
0.000171947
0.000173797
0.000175576
0.000177286
0.000178928
0.000180504
0.000182016
0.000183464
0.000184851
0.000186177
0.000187445
0.000188654
0.000189808
0.000190907
0.000191952
0.000192946
0.000193889
0.000194783
0.000195629
0.000196428
0.000197182
0.000197892
0.000198559
0.000199184
0.000199773
0.000200325
0.00020084
0.000201319
0.000201761
0.000202169
0.000202543
0.000202884
0.000203194
0.000203473
0.000203723
0.000203944
0.000204136
0.000204302
0.000204441
0.000204555
0.000204643
0.000204708
0.000204749
0.000204767
0.000204763
0.000204737
0.00020469
0.000204622
0.000204534
0.000204427
0.0002043
0.000204155
0.000203991
0.000203809
0.00020361
0.000203393
0.00020316
0.000202909
0.000202643
0.00020236
0.000202062
0.000201748
0.000201419
0.000201074
0.000200715
0.000200341
0.000199952
0.000199549
0.000199132
0.0001987
0.000198255
0.000197795
0.000197322
0.000196834
0.000196333
0.000195819
0.000195291
0.000194749
0.000194194
0.000193625
0.000193042
0.000192446
0.000191837
0.000191213
0.000190576
0.000189926
0.000189261
0.000188583
0.00018789
0.000187184
0.000186463
0.000185728
0.000184979
0.000184215
0.000183436
0.000182642
0.000181834
0.00018101
0.000180171
0.000179316
0.000178446
0.00017756
0.000176658
0.000175739
0.000174804
0.000173852
0.000172883
0.000171897
0.000170894
0.000169873
0.000168834
0.000167777
0.000166702
0.000165608
0.000164496
0.000163364
0.000162213
0.000161043
0.000159853
0.000158643
0.000157413
0.000156163
0.000154891
0.000153599
0.000152286
0.000150951
0.000149595
0.000148217
0.000146816
0.000145393
0.000143948
0.000142479
0.000140988
0.000139472
0.000137933
0.00013637
0.000134781
0.000133168
0.000131529
0.000129865
0.000128173
0.000126454
0.000124708
0.000122932
0.000121127
0.00011929
0.000117422
0.000115519
0.000113581
0.000111606
0.00010959
0.000107532
0.000105427
0.000103272
0.000101064
9.87984e-05
9.64849e-05
9.41087e-05
9.16395e-05
8.90614e-05
8.63533e-05
8.34861e-05
8.04219e-05
7.71075e-05
7.34953e-05
6.95005e-05
6.4898e-05
5.9264e-05
5.07701e-05
4.28148e-05
0.000159355
4.73061e-05
0.000357735
0.00057372
0.00072049
0.00083105
0.00092127
0.000998032
0.00106516
0.00112521
0.00117969
0.00122966
0.00127592
0.00131906
0.00135954
0.0013977
0.00143381
0.00146811
0.00150077
0.00153194
0.00156174
0.00159027
0.00161761
0.00164384
0.00166902
0.00169319
0.00171642
0.00173873
0.00176016
0.00178076
0.00180054
0.00181953
0.00183776
0.00185526
0.00187205
0.00188814
0.00190357
0.00191834
0.00193248
0.00194601
0.00195895
0.00197131
0.0019831
0.00199436
0.00200508
0.0020153
0.00202501
0.00203425
0.00204301
0.00205132
0.00205919
0.00206662
0.00207362
0.00208018
0.00208618
0.00209178
0.00209702
0.00210191
0.00210646
0.00211069
0.00211461
0.00211823
0.00212156
0.0021246
0.00212736
0.00212985
0.00213207
0.00213405
0.00213577
0.00213725
0.00213849
0.0021395
0.00214028
0.00214084
0.00214119
0.00214132
0.00214124
0.00214097
0.00214049
0.00213982
0.00213895
0.0021379
0.00213666
0.00213524
0.00213364
0.00213186
0.00212991
0.00212779
0.0021255
0.00212304
0.00212042
0.00211763
0.00211469
0.00211158
0.00210832
0.0021049
0.00210132
0.00209759
0.00209371
0.00208968
0.00208549
0.00208116
0.00207667
0.00207204
0.00206726
0.00206233
0.00205725
0.00205202
0.00204665
0.00204112
0.00203545
0.00202963
0.00202366
0.00201754
0.00201127
0.00200485
0.00199827
0.00199155
0.00198467
0.00197763
0.00197044
0.00196309
0.00195558
0.00194791
0.00194008
0.00193209
0.00192393
0.0019156
0.00190711
0.00189844
0.00188961
0.00188059
0.00187141
0.00186204
0.00185249
0.00184276
0.00183284
0.00182274
0.00181244
0.00180196
0.00179128
0.0017804
0.00176933
0.00175805
0.00174657
0.00173489
0.00172299
0.00171089
0.00169857
0.00168604
0.00167329
0.00166032
0.00164713
0.00163371
0.00162006
0.00160619
0.00159208
0.00157773
0.00156315
0.00154832
0.00153325
0.00151793
0.00150236
0.00148654
0.00147045
0.0014541
0.00143749
0.00142059
0.00140342
0.00138596
0.0013682
0.00135014
0.00133176
0.00131306
0.00129401
0.00127462
0.00125485
0.00123468
0.0012141
0.00119306
0.00117155
0.00114951
0.00112688
0.00110361
0.00107961
0.00105473
0.00102877
0.00100163
0.000973219
0.000943366
0.000911774
0.000878023
0.000841491
0.000801114
0.000754828
0.000700592
0.000635278
0.00055214
0.000437283
0.000274082
0.000233905
4.73261e-05
0.000357792
0.000573768
0.00072054
0.000831102
0.000921323
0.000998084
0.00106521
0.00112526
0.00117973
0.00122971
0.00127597
0.00131911
0.00135958
0.00139774
0.00143386
0.00146815
0.00150081
0.00153198
0.00156178
0.00159031
0.00161765
0.00164388
0.00166905
0.00169323
0.00171645
0.00173876
0.0017602
0.00178079
0.00180057
0.00181956
0.00183779
0.00185529
0.00187208
0.00188817
0.00190359
0.00191837
0.00193251
0.00194604
0.00195897
0.00197133
0.00198313
0.00199438
0.0020051
0.00201532
0.00202503
0.00203427
0.00204303
0.00205134
0.00205921
0.00206664
0.00207364
0.00208019
0.0020862
0.0020918
0.00209704
0.00210193
0.00210648
0.00211071
0.00211463
0.00211825
0.00212157
0.00212461
0.00212737
0.00212986
0.00213209
0.00213406
0.00213578
0.00213726
0.0021385
0.00213951
0.00214029
0.00214086
0.0021412
0.00214133
0.00214126
0.00214098
0.0021405
0.00213983
0.00213896
0.00213791
0.00213667
0.00213525
0.00213365
0.00213187
0.00212992
0.0021278
0.00212551
0.00212305
0.00212043
0.00211765
0.0021147
0.00211159
0.00210833
0.00210491
0.00210134
0.00209761
0.00209372
0.00208969
0.00208551
0.00208117
0.00207669
0.00207205
0.00206727
0.00206234
0.00205726
0.00205203
0.00204666
0.00204113
0.00203546
0.00202964
0.00202367
0.00201755
0.00201128
0.00200486
0.00199828
0.00199156
0.00198468
0.00197764
0.00197045
0.0019631
0.00195559
0.00194792
0.00194009
0.0019321
0.00192394
0.00191561
0.00190712
0.00189845
0.00188962
0.0018806
0.00187141
0.00186205
0.0018525
0.00184277
0.00183285
0.00182275
0.00181245
0.00180197
0.00179129
0.00178041
0.00176934
0.00175806
0.00174658
0.0017349
0.001723
0.0017109
0.00169858
0.00168605
0.0016733
0.00166033
0.00164714
0.00163372
0.00162007
0.0016062
0.00159209
0.00157774
0.00156316
0.00154833
0.00153326
0.00151794
0.00150237
0.00148655
0.00147046
0.00145411
0.00143749
0.0014206
0.00140343
0.00138596
0.00136821
0.00135014
0.00133177
0.00131306
0.00129402
0.00127462
0.00125485
0.00123469
0.0012141
0.00119307
0.00117156
0.00114951
0.00112689
0.00110362
0.00107961
0.00105473
0.00102878
0.00100163
0.000973227
0.000943374
0.000911782
0.00087803
0.000841496
0.000801114
0.000754802
0.000700427
0.0006344
0.000547611
0.000415051
0.000194655
3.11072e-05
5.94909e-05
0.000543822
0.000971904
0.00129355
0.00154882
0.00176077
0.00194235
0.00210143
0.00224324
0.00237128
0.00248809
0.00259553
0.00269504
0.00278772
0.00287446
0.00295597
0.00303282
0.0031055
0.00317439
0.00323982
0.00330209
0.00336143
0.00341804
0.0034721
0.00352377
0.00357319
0.00362046
0.00366571
0.00370902
0.0037505
0.00379021
0.00382823
0.00386463
0.00389948
0.00393283
0.00396474
0.00399527
0.00402447
0.00405238
0.00407905
0.00410452
0.00412885
0.00415205
0.00417419
0.00419528
0.00421538
0.0042345
0.00425268
0.00426996
0.00428634
0.00430187
0.00431655
0.00433036
0.00434329
0.00435537
0.00436672
0.00437738
0.00438738
0.00439673
0.00440546
0.00441359
0.00442114
0.00442813
0.00443456
0.00444046
0.00444584
0.00445071
0.00445508
0.00445897
0.00446239
0.00446535
0.00446785
0.00446991
0.00447153
0.00447273
0.00447351
0.00447388
0.00447385
0.00447342
0.00447261
0.00447141
0.00446983
0.00446788
0.00446556
0.00446288
0.00445984
0.00445645
0.00445271
0.00444862
0.00444419
0.00443943
0.00443433
0.00442889
0.00442313
0.00441704
0.00441062
0.00440388
0.00439682
0.00438944
0.00438174
0.00437372
0.00436539
0.00435674
0.00434778
0.0043385
0.0043289
0.00431899
0.00430877
0.00429823
0.00428737
0.0042762
0.00426471
0.00425289
0.00424076
0.0042283
0.00421552
0.00420241
0.00418897
0.00417519
0.00416108
0.00414664
0.00413185
0.00411672
0.00410124
0.00408541
0.00406923
0.00405269
0.00403578
0.00401851
0.00400086
0.00398285
0.00396445
0.00394566
0.00392649
0.00390693
0.00388696
0.00386659
0.00384582
0.00382462
0.00380301
0.00378098
0.00375851
0.00373561
0.00371227
0.00368848
0.00366424
0.00363954
0.00361438
0.00358875
0.00356263
0.00353604
0.00350895
0.00348137
0.00345328
0.00342469
0.00339557
0.00336592
0.00333574
0.00330501
0.00327372
0.00324186
0.00320943
0.0031764
0.00314277
0.00310852
0.00307363
0.00303808
0.00300186
0.00296493
0.00292728
0.00288887
0.00284968
0.00280966
0.00276876
0.00272695
0.00268417
0.00264034
0.00259539
0.00254924
0.00250176
0.00245285
0.00240233
0.00235001
0.00229565
0.00223896
0.00217953
0.002117
0.00205088
0.00198051
0.00190495
0.00182294
0.00173274
0.00163172
0.00151597
0.00137983
0.00121576
0.00100905
0.000729056
0.000335577
4.46602e-05
5.94927e-05
0.000543864
0.00097198
0.00129365
0.00154893
0.00176088
0.00194246
0.00210155
0.00224335
0.0023714
0.0024882
0.00259564
0.00269515
0.00278783
0.00287456
0.00295607
0.00303291
0.00310558
0.00317447
0.00323991
0.00330217
0.00336151
0.00341811
0.00347217
0.00352384
0.00357325
0.00362052
0.00366577
0.00370908
0.00375055
0.00379026
0.00382828
0.00386468
0.00389952
0.00393287
0.00396478
0.00399531
0.0040245
0.00405241
0.00407908
0.00410455
0.00412887
0.00415208
0.00417421
0.00419531
0.0042154
0.00423452
0.0042527
0.00426997
0.00428636
0.00430189
0.00431656
0.00433038
0.0043433
0.00435538
0.00436673
0.00437739
0.00438738
0.00439674
0.00440547
0.0044136
0.00442115
0.00442813
0.00443457
0.00444047
0.00444584
0.00445071
0.00445509
0.00445898
0.00446239
0.00446535
0.00446785
0.00446991
0.00447153
0.00447273
0.00447351
0.00447388
0.00447385
0.00447342
0.00447261
0.00447141
0.00446983
0.00446788
0.00446556
0.00446288
0.00445984
0.00445645
0.00445271
0.00444862
0.00444419
0.00443943
0.00443433
0.00442889
0.00442313
0.00441704
0.00441062
0.00440388
0.00439682
0.00438944
0.00438174
0.00437372
0.00436539
0.00435674
0.00434777
0.00433849
0.0043289
0.00431899
0.00430877
0.00429823
0.00428737
0.0042762
0.0042647
0.00425289
0.00424075
0.0042283
0.00421551
0.0042024
0.00418896
0.00417519
0.00416108
0.00414663
0.00413185
0.00411672
0.00410124
0.00408541
0.00406922
0.00405268
0.00403578
0.0040185
0.00400086
0.00398284
0.00396444
0.00394566
0.00392649
0.00390692
0.00388696
0.00386659
0.00384581
0.00382462
0.00380301
0.00378097
0.00375851
0.00373561
0.00371227
0.00368848
0.00366424
0.00363954
0.00361437
0.00358874
0.00356263
0.00353603
0.00350895
0.00348137
0.00345328
0.00342468
0.00339556
0.00336592
0.00333573
0.003305
0.00327371
0.00324186
0.00320942
0.0031764
0.00314277
0.00310851
0.00307362
0.00303808
0.00300185
0.00296493
0.00292728
0.00288887
0.00284967
0.00280965
0.00276876
0.00272695
0.00268416
0.00264034
0.00259539
0.00254923
0.00250176
0.00245284
0.00240232
0.00235001
0.00229565
0.00223895
0.00217953
0.002117
0.00205088
0.00198051
0.00190495
0.00182294
0.00173274
0.00163171
0.00151594
0.00137975
0.00121553
0.00100918
0.000734966
0.000355677
3.29176e-05
6.77389e-05
0.00065099
0.0012355
0.00170541
0.00209171
0.00241865
0.00270195
0.00295196
0.00317575
0.00337834
0.00356341
0.00373372
0.00389141
0.00403815
0.00417531
0.00430398
0.00442506
0.00453931
0.00464736
0.00474974
0.00484692
0.00493929
0.00502719
0.00511093
0.00519076
0.00526692
0.00533962
0.00540905
0.00547537
0.00553874
0.00559931
0.00565719
0.00571253
0.00576541
0.00581596
0.00586427
0.00591044
0.00595455
0.00599668
0.00603691
0.00607533
0.00611199
0.00614698
0.00618034
0.00621215
0.00624246
0.00627132
0.00629878
0.0063249
0.00634972
0.00637327
0.00639557
0.00641666
0.00643653
0.00645521
0.00647282
0.00648941
0.00650503
0.00651971
0.00653349
0.00654638
0.00655843
0.00656965
0.00658007
0.00658971
0.0065986
0.00660674
0.00661417
0.00662089
0.00662692
0.00663229
0.00663699
0.00664105
0.00664448
0.00664729
0.00664949
0.00665109
0.0066521
0.00665254
0.0066524
0.00665171
0.00665046
0.00664867
0.00664633
0.00664347
0.00664008
0.00663617
0.00663174
0.00662681
0.00662137
0.00661543
0.00660899
0.00660206
0.00659464
0.00658674
0.00657835
0.00656949
0.00656014
0.00655032
0.00654002
0.00652925
0.00651801
0.00650629
0.00649411
0.00648145
0.00646832
0.00645472
0.00644064
0.0064261
0.00641107
0.00639557
0.00637959
0.00636313
0.00634619
0.00632876
0.00631083
0.00629242
0.00627351
0.00625409
0.00623417
0.00621374
0.0061928
0.00617133
0.00614934
0.00612682
0.00610376
0.00608016
0.00605601
0.00603131
0.00600604
0.0059802
0.00595378
0.00592679
0.0058992
0.00587101
0.00584221
0.0058128
0.00578277
0.0057521
0.0057208
0.00568884
0.00565623
0.00562295
0.00558899
0.00555434
0.005519
0.00548295
0.00544619
0.00540869
0.00537046
0.00533147
0.00529172
0.00525119
0.00520987
0.00516775
0.00512481
0.00508103
0.00503639
0.00499089
0.00494449
0.00489718
0.00484893
0.00479972
0.00474953
0.00469831
0.00464604
0.00459268
0.00453819
0.00448253
0.00442564
0.00436746
0.00430794
0.004247
0.00418455
0.0041205
0.00405475
0.00398717
0.0039176
0.0038459
0.00377184
0.00369521
0.0036157
0.00353298
0.00344662
0.00335612
0.00326085
0.00316006
0.00305283
0.00293795
0.00281384
0.00267836
0.00252865
0.00236079
0.0021694
0.0019471
0.0016842
0.00136705
0.000976671
0.000492855
5.27726e-05
6.77402e-05
0.000651032
0.00123559
0.00170554
0.00209186
0.00241881
0.00270212
0.00295213
0.00317592
0.00337851
0.00356358
0.00373389
0.00389157
0.00403831
0.00417547
0.00430413
0.0044252
0.00453945
0.00464749
0.00474987
0.00484704
0.0049394
0.0050273
0.00511103
0.00519086
0.00526701
0.00533971
0.00540913
0.00547545
0.00553882
0.00559938
0.00565726
0.00571259
0.00576547
0.00581602
0.00586433
0.00591049
0.00595459
0.00599672
0.00603695
0.00607536
0.00611203
0.00614701
0.00618037
0.00621217
0.00624248
0.00627134
0.0062988
0.00632492
0.00634973
0.00637328
0.00639558
0.00641667
0.00643654
0.00645521
0.00647282
0.00648942
0.00650503
0.00651971
0.00653348
0.00654638
0.00655842
0.00656964
0.00658006
0.00658971
0.00659859
0.00660674
0.00661416
0.00662088
0.00662692
0.00663228
0.00663698
0.00664104
0.00664447
0.00664728
0.00664948
0.00665108
0.00665209
0.00665253
0.00665239
0.0066517
0.00665045
0.00664865
0.00664632
0.00664346
0.00664006
0.00663615
0.00663173
0.00662679
0.00662135
0.00661541
0.00660898
0.00660205
0.00659463
0.00658673
0.00657834
0.00656947
0.00656013
0.0065503
0.00654001
0.00652924
0.00651799
0.00650628
0.00649409
0.00648143
0.0064683
0.0064547
0.00644063
0.00642608
0.00641106
0.00639556
0.00637958
0.00636312
0.00634617
0.00632874
0.00631082
0.0062924
0.00627349
0.00625408
0.00623416
0.00621373
0.00619278
0.00617132
0.00614933
0.0061268
0.00610375
0.00608014
0.00605599
0.00603129
0.00600602
0.00598018
0.00595377
0.00592677
0.00589918
0.00587099
0.00584219
0.00581278
0.00578275
0.00575208
0.00572078
0.00568882
0.00565621
0.00562293
0.00558897
0.00555433
0.00551898
0.00548294
0.00544617
0.00540867
0.00537044
0.00533145
0.0052917
0.00525117
0.00520986
0.00516773
0.00512479
0.00508101
0.00503637
0.00499087
0.00494447
0.00489716
0.00484891
0.0047997
0.00474951
0.00469829
0.00464602
0.00459266
0.00453818
0.00448251
0.00442562
0.00436745
0.00430792
0.00424698
0.00418453
0.00412049
0.00405473
0.00398715
0.00391759
0.00384588
0.00377183
0.00369519
0.00361569
0.00353297
0.00344661
0.00335611
0.00326083
0.00316005
0.00305282
0.00293794
0.00281383
0.00267835
0.00252864
0.00236078
0.00216938
0.00194703
0.00168385
0.00136569
0.00097353
0.000494705
5.14471e-05
7.42312e-05
0.000727579
0.00142631
0.00201355
0.00250897
0.00293517
0.00330857
0.00364069
0.00393975
0.00421172
0.00446105
0.00469115
0.00490466
0.0051037
0.00528997
0.00546485
0.0056295
0.00578489
0.00593184
0.00607105
0.00620311
0.00632856
0.00644785
0.00656139
0.00666953
0.00677259
0.00687087
0.00696462
0.00705408
0.00713946
0.00722098
0.0072988
0.00737312
0.00744408
0.00751184
0.00757654
0.00763832
0.0076973
0.0077536
0.00780733
0.00785861
0.00790753
0.00795418
0.00799868
0.00804109
0.0080815
0.00811999
0.00815663
0.00819149
0.00822463
0.00825611
0.00828597
0.00831425
0.008341
0.00836625
0.00839009
0.0084126
0.00843385
0.00845387
0.00847271
0.00849041
0.008507
0.00852252
0.00853701
0.00855049
0.00856299
0.00857453
0.00858514
0.00859485
0.00860367
0.00861162
0.00861873
0.00862501
0.00863047
0.00863514
0.00863902
0.00864213
0.00864449
0.0086461
0.00864698
0.00864714
0.00864658
0.00864532
0.00864337
0.00864073
0.00863741
0.00863343
0.00862877
0.00862346
0.0086175
0.00861089
0.00860364
0.00859575
0.00858723
0.00857808
0.0085683
0.0085579
0.00854688
0.00853524
0.00852298
0.00851011
0.00849662
0.00848252
0.00846781
0.00845248
0.00843654
0.00841998
0.00840281
0.00838501
0.0083666
0.00834756
0.0083279
0.00830761
0.00828668
0.00826512
0.00824291
0.00822006
0.00819656
0.0081724
0.00814758
0.00812209
0.00809592
0.00806907
0.00804153
0.00801329
0.00798434
0.00795468
0.00792429
0.00789317
0.00786131
0.0078287
0.00779533
0.00776119
0.00772626
0.00769054
0.00765402
0.00761668
0.00757852
0.00753951
0.00749965
0.00745893
0.00741733
0.00737484
0.00733145
0.00728714
0.00724189
0.00719569
0.00714853
0.00710038
0.00705124
0.00700108
0.00694988
0.00689763
0.0068443
0.00678987
0.00673432
0.00667762
0.00661974
0.00656066
0.00650035
0.00643876
0.00637587
0.00631164
0.00624602
0.00617896
0.00611041
0.00604032
0.00596862
0.00589524
0.00582009
0.0057431
0.00566416
0.00558316
0.00549998
0.00541446
0.00532644
0.00523574
0.00514213
0.00504536
0.00494513
0.00484107
0.00473278
0.00461974
0.00450136
0.00437688
0.00424543
0.00410592
0.00395699
0.00379692
0.00362353
0.00343398
0.0032246
0.00299055
0.00272554
0.00242129
0.00206709
0.00165008
0.00115515
0.000575701
5.78488e-05
7.42328e-05
0.000727623
0.00142641
0.00201369
0.00250914
0.00293536
0.00330877
0.00364091
0.00393997
0.00421193
0.00446126
0.00469136
0.00490487
0.00510391
0.00529017
0.00546504
0.00562969
0.00578507
0.00593202
0.00607121
0.00620327
0.00632871
0.006448
0.00656153
0.00666966
0.00677272
0.00687099
0.00696473
0.00705418
0.00713956
0.00722107
0.00729889
0.0073732
0.00744416
0.00751192
0.00757661
0.00763839
0.00769736
0.00775365
0.00780738
0.00785865
0.00790757
0.00795422
0.00799871
0.00804112
0.00808153
0.00812002
0.00815665
0.00819151
0.00822465
0.00825612
0.00828598
0.00831426
0.00834101
0.00836626
0.00839009
0.00841261
0.00843385
0.00845387
0.00847271
0.0084904
0.008507
0.00852252
0.008537
0.00855048
0.00856298
0.00857452
0.00858513
0.00859484
0.00860366
0.00861161
0.00861872
0.00862499
0.00863046
0.00863512
0.00863901
0.00864212
0.00864447
0.00864609
0.00864697
0.00864712
0.00864657
0.00864531
0.00864335
0.00864071
0.0086374
0.00863341
0.00862876
0.00862345
0.00861748
0.00861087
0.00860362
0.00859573
0.00858721
0.00857806
0.00856828
0.00855788
0.00854686
0.00853522
0.00852296
0.00851009
0.0084966
0.0084825
0.00846779
0.00845246
0.00843652
0.00841996
0.00840278
0.00838499
0.00836658
0.00834754
0.00832788
0.00830759
0.00828666
0.0082651
0.00824289
0.00822004
0.00819654
0.00817238
0.00814756
0.00812207
0.0080959
0.00806905
0.0080415
0.00801326
0.00798432
0.00795465
0.00792427
0.00789315
0.00786129
0.00782868
0.00779531
0.00776116
0.00772624
0.00769052
0.007654
0.00761666
0.00757849
0.00753949
0.00749963
0.00745891
0.00741731
0.00737482
0.00733142
0.00728711
0.00724186
0.00719567
0.0071485
0.00710036
0.00705121
0.00700105
0.00694986
0.0068976
0.00684427
0.00678984
0.00673429
0.00667759
0.00661971
0.00656064
0.00650032
0.00643874
0.00637585
0.00631161
0.00624599
0.00617893
0.00611039
0.0060403
0.00596859
0.00589521
0.00582007
0.00574308
0.00566414
0.00558314
0.00549995
0.00541444
0.00532642
0.00523572
0.00514211
0.00504534
0.0049451
0.00484105
0.00473276
0.00461972
0.00450134
0.00437687
0.00424542
0.0041059
0.00395697
0.0037969
0.00362351
0.00343397
0.00322458
0.00299054
0.00272553
0.00242128
0.00206706
0.00164989
0.00115435
0.000575487
5.7677e-05
7.98185e-05
0.000789307
0.00157607
0.0022563
0.00284109
0.00335077
0.00380158
0.0042055
0.00457135
0.00490569
0.00521348
0.00549855
0.0057639
0.00601194
0.00624459
0.00646346
0.00666988
0.00686495
0.00704964
0.00722475
0.00739098
0.00754897
0.00769925
0.00784229
0.00797855
0.00810839
0.00823218
0.00835023
0.00846283
0.00857027
0.00867278
0.00877062
0.00886398
0.00895308
0.00903812
0.00911927
0.00919672
0.00927061
0.00934111
0.00940837
0.00947252
0.0095337
0.00959204
0.00964764
0.00970064
0.00975113
0.00979921
0.00984499
0.00988855
0.00992997
0.00996933
0.0100067
0.0100421
0.0100757
0.0101075
0.0101375
0.0101659
0.0101928
0.0102181
0.010242
0.0102645
0.0102856
0.0103054
0.010324
0.0103413
0.0103574
0.0103724
0.0103862
0.010399
0.0104106
0.0104212
0.0104308
0.0104394
0.010447
0.0104536
0.0104593
0.0104641
0.0104679
0.0104708
0.0104729
0.0104741
0.0104744
0.0104739
0.0104726
0.0104704
0.0104674
0.0104636
0.010459
0.0104536
0.0104474
0.0104404
0.0104327
0.0104241
0.0104149
0.0104048
0.010394
0.0103825
0.0103702
0.0103571
0.0103434
0.0103288
0.0103135
0.0102975
0.0102808
0.0102633
0.010245
0.010226
0.0102063
0.0101858
0.0101645
0.0101425
0.0101198
0.0100962
0.0100719
0.0100469
0.010021
0.00999438
0.00996694
0.00993871
0.00990967
0.00987981
0.00984913
0.00981761
0.00978525
0.00975204
0.00971797
0.00968301
0.00964718
0.00961044
0.0095728
0.00953424
0.00949474
0.00945429
0.00941288
0.0093705
0.00932713
0.00928275
0.00923735
0.00919091
0.00914342
0.00909486
0.00904521
0.00899446
0.00894258
0.00888956
0.00883538
0.00878001
0.00872344
0.00866564
0.00860658
0.00854625
0.00848461
0.00842164
0.00835732
0.0082916
0.00822445
0.00815585
0.00808576
0.00801412
0.00794091
0.00786607
0.00778955
0.00771129
0.00763125
0.00754934
0.00746551
0.00737966
0.00729172
0.00720157
0.00710913
0.00701425
0.00691682
0.00681667
0.00671363
0.00660752
0.00649809
0.0063851
0.00626826
0.00614721
0.00602156
0.00589084
0.00575449
0.00561185
0.00546212
0.00530437
0.00513744
0.00495992
0.0047701
0.00456582
0.0043444
0.00410245
0.0038357
0.00353873
0.00320469
0.002825
0.00238906
0.0018847
0.00129973
0.000636165
6.22029e-05
7.98202e-05
0.000789353
0.00157618
0.00225645
0.00284128
0.00335099
0.00380181
0.00420574
0.00457159
0.00490594
0.00521373
0.0054988
0.00576415
0.00601218
0.00624483
0.00646369
0.0066701
0.00686517
0.00704985
0.00722495
0.00739118
0.00754915
0.00769942
0.00784246
0.00797871
0.00810854
0.00823232
0.00835037
0.00846296
0.00857039
0.0086729
0.00877073
0.00886408
0.00895318
0.00903821
0.00911936
0.0091968
0.00927069
0.00934118
0.00940843
0.00947258
0.00953376
0.00959209
0.00964769
0.00970068
0.00975117
0.00979925
0.00984502
0.00988858
0.00992999
0.00996935
0.0100067
0.0100422
0.0100757
0.0101075
0.0101375
0.0101659
0.0101928
0.0102181
0.010242
0.0102645
0.0102856
0.0103054
0.010324
0.0103413
0.0103574
0.0103724
0.0103862
0.0103989
0.0104106
0.0104212
0.0104308
0.0104394
0.010447
0.0104536
0.0104593
0.010464
0.0104679
0.0104708
0.0104729
0.0104741
0.0104744
0.0104739
0.0104725
0.0104704
0.0104674
0.0104635
0.0104589
0.0104535
0.0104473
0.0104404
0.0104326
0.0104241
0.0104148
0.0104048
0.010394
0.0103825
0.0103702
0.0103571
0.0103433
0.0103288
0.0103135
0.0102975
0.0102807
0.0102632
0.010245
0.010226
0.0102062
0.0101858
0.0101645
0.0101425
0.0101197
0.0100962
0.0100719
0.0100468
0.010021
0.00999435
0.00996692
0.00993869
0.00990965
0.00987979
0.00984911
0.00981759
0.00978523
0.00975202
0.00971794
0.00968299
0.00964715
0.00961042
0.00957278
0.00953421
0.00949471
0.00945427
0.00941286
0.00937047
0.0093271
0.00928272
0.00923732
0.00919088
0.00914339
0.00909483
0.00904519
0.00899443
0.00894256
0.00888954
0.00883535
0.00877999
0.00872341
0.00866561
0.00860655
0.00854622
0.00848458
0.00842162
0.00835729
0.00829157
0.00822443
0.00815583
0.00808573
0.00801409
0.00794088
0.00786604
0.00778952
0.00771127
0.00763122
0.00754932
0.00746548
0.00737964
0.00729169
0.00720155
0.0071091
0.00701423
0.00691679
0.00681664
0.00671361
0.00660749
0.00649807
0.00638508
0.00626823
0.00614719
0.00602154
0.00589081
0.00575446
0.00561182
0.0054621
0.00530435
0.00513742
0.0049599
0.00477008
0.0045658
0.00434438
0.00410244
0.00383569
0.00353872
0.00320468
0.00282499
0.00238906
0.00188469
0.00129961
0.000636079
6.21835e-05
8.49246e-05
0.000842272
0.0017004
0.00245595
0.00311426
0.00369382
0.00421047
0.00467634
0.00510057
0.00549007
0.00585013
0.00618485
0.00649746
0.00679055
0.00706623
0.00732622
0.00757196
0.00780465
0.00802533
0.00823489
0.0084341
0.00862364
0.0088041
0.00897601
0.00913987
0.00929609
0.00944509
0.00958721
0.00972281
0.00985219
0.00997565
0.0100935
0.0102059
0.0103131
0.0104155
0.0105131
0.0106063
0.0106952
0.0107799
0.0108608
0.0109378
0.0110113
0.0110814
0.0111481
0.0112117
0.0112723
0.01133
0.0113849
0.0114372
0.0114869
0.0115341
0.011579
0.0116216
0.011662
0.0117002
0.0117364
0.0117707
0.0118031
0.0118337
0.0118626
0.0118898
0.0119155
0.0119396
0.0119622
0.0119833
0.0120031
0.0120215
0.0120385
0.0120543
0.0120688
0.0120821
0.0120942
0.0121051
0.0121148
0.0121235
0.012131
0.0121375
0.0121429
0.0121472
0.0121506
0.0121529
0.0121542
0.0121545
0.0121539
0.0121523
0.0121498
0.0121463
0.0121419
0.0121366
0.0121304
0.0121232
0.0121152
0.0121063
0.0120965
0.0120858
0.0120743
0.0120618
0.0120485
0.0120344
0.0120194
0.0120035
0.0119867
0.0119691
0.0119506
0.0119313
0.0119111
0.0118901
0.0118681
0.0118453
0.0118217
0.0117971
0.0117717
0.0117454
0.0117182
0.01169
0.011661
0.0116311
0.0116002
0.0115684
0.0115357
0.011502
0.0114674
0.0114317
0.0113951
0.0113575
0.0113189
0.0112793
0.0112386
0.0111969
0.0111541
0.0111102
0.0110652
0.0110191
0.0109719
0.0109236
0.010874
0.0108233
0.0107714
0.0107183
0.0106639
0.0106082
0.0105513
0.010493
0.0104334
0.0103725
0.0103101
0.0102464
0.0101812
0.0101146
0.0100464
0.00997671
0.00990546
0.00983261
0.00975812
0.00968195
0.00960406
0.00952441
0.00944294
0.0093596
0.00927435
0.00918711
0.00909782
0.00900641
0.00891281
0.00881693
0.00871867
0.00861794
0.00851463
0.0084086
0.00829973
0.00818785
0.0080728
0.00795439
0.0078324
0.00770658
0.00757664
0.00744228
0.00730312
0.00715874
0.00700863
0.00685222
0.00668882
0.00651763
0.00633768
0.00614782
0.00594667
0.00573255
0.00550341
0.00525677
0.00498953
0.0046979
0.00437716
0.0040215
0.00362381
0.00317544
0.00266619
0.00208482
0.00142204
0.000686707
6.60986e-05
8.49264e-05
0.00084232
0.0017005
0.00245611
0.00311446
0.00369405
0.00421072
0.0046766
0.00510084
0.00549035
0.00585041
0.00618512
0.00649773
0.00679082
0.0070665
0.00732648
0.00757221
0.00780489
0.00802557
0.00823512
0.00843432
0.00862385
0.0088043
0.00897621
0.00914005
0.00929627
0.00944525
0.00958737
0.00972296
0.00985234
0.00997579
0.0100936
0.010206
0.0103133
0.0104156
0.0105132
0.0106064
0.0106953
0.01078
0.0108608
0.0109379
0.0110114
0.0110814
0.0111482
0.0112118
0.0112724
0.0113301
0.011385
0.0114372
0.0114869
0.0115342
0.011579
0.0116216
0.011662
0.0117002
0.0117364
0.0117707
0.0118031
0.0118337
0.0118626
0.0118898
0.0119155
0.0119396
0.0119622
0.0119833
0.0120031
0.0120215
0.0120385
0.0120543
0.0120688