/*--------------------------------*- C++ -*----------------------------------*\
  =========                 |
  \\      /  F ield         | OpenFOAM: The Open Source CFD Toolbox
   \\    /   O peration     | Website:  https://openfoam.org
    \\  /    A nd           | Version:  8
     \\/     M anipulation  |
\*---------------------------------------------------------------------------*/
FoamFile
{
    version     2.0;
    format      ascii;
    class       volScalarField;
    location    "1600";
    object      epsilon;
}
// * * * * * * * * * * * * * * * * * * * * * * * * * * * * * * * * * * * * * //

dimensions      [0 2 -3 0 0 0 0];

internalField   nonuniform List<scalar> 
48000
(
0.593683
1.39358
2.62823
3.9578
5.304
6.63535
7.9739
9.32345
10.6713
12.0257
13.3876
14.7577
16.1361
17.5231
18.9181
20.3203
21.7289
23.1423
24.5592
25.9777
27.396
28.812
30.2236
31.6288
33.0251
34.4106
35.7829
37.1399
38.4795
39.7998
41.0988
42.3747
43.6258
44.8505
46.0473
47.215
48.3522
49.458
50.5315
51.5717
52.578
53.5498
54.4868
55.3885
56.2546
57.0852
57.8801
58.6392
59.3628
60.051
60.7038
61.3213
61.9037
62.4561
62.9776
63.4664
63.9228
64.3471
64.74
65.1021
65.434
65.7363
66.0098
66.255
66.4726
66.6632
66.8275
66.9662
67.0799
67.1691
67.2346
67.2769
67.2966
67.2943
67.2705
67.2259
67.161
67.0762
66.9722
66.8494
66.7083
66.5493
66.3731
66.1799
65.9703
65.7446
65.5033
65.2467
64.9754
64.6895
64.3896
64.0758
63.7487
63.4085
63.0556
62.6902
62.3126
61.9233
61.5223
61.11
60.6868
60.2527
59.8081
59.3533
58.8884
58.4136
57.9293
57.4356
56.9327
56.4208
55.9002
55.3709
54.8333
54.2874
53.7334
53.1716
52.602
52.0249
51.4404
50.8487
50.2499
49.6441
49.0317
48.4126
47.7871
47.1553
46.5174
45.8735
45.2238
44.5685
43.9078
43.2417
42.5706
41.8946
41.2138
40.5286
39.839
39.1454
38.4478
37.7467
37.0421
36.3344
35.6237
34.9105
34.1948
33.4771
32.7576
32.0367
31.3145
30.5915
29.868
29.1443
28.4208
27.6978
26.9756
26.2548
25.5355
24.8183
24.1035
23.3915
22.6826
21.9774
21.2761
20.5791
19.887
19.2
18.5185
17.843
17.1738
16.5112
15.8556
15.2074
14.5668
13.9341
13.3097
12.6937
12.0865
11.4882
10.8989
10.3188
9.74799
9.18654
8.63453
8.0922
7.55995
7.04121
6.5336
6.03261
5.53758
5.04756
4.56123
4.07716
3.59349
3.11156
2.6309
2.14195
1.63959
1.13824
0.93281
0.188387
0.593658
1.39337
2.62841
3.95803
5.30425
6.63562
7.9742
9.32376
10.6716
12.026
13.388
14.758
16.1365
17.5234
18.9184
20.3207
21.7292
23.1427
24.5595
25.978
27.3963
28.8123
30.2239
31.629
33.0254
34.4108
35.7831
37.1401
38.4798
39.8
41.099
42.3749
43.626
44.8507
46.0475
47.2151
48.3524
49.4582
50.5316
51.5718
52.5781
53.5499
54.4868
55.3885
56.2547
57.0852
57.8801
58.6393
59.3628
60.051
60.7038
61.3213
61.9037
62.4561
62.9775
63.4664
63.9227
64.347
64.7399
65.102
65.4339
65.7362
66.0097
66.2549
66.4725
66.6631
66.8274
66.9661
67.0798
67.169
67.2345
67.2768
67.2965
67.2942
67.2704
67.2258
67.1608
67.0761
66.9721
66.8493
66.7082
66.5492
66.373
66.1798
65.9702
65.7445
65.5032
65.2466
64.9753
64.6894
64.3894
64.0757
63.7486
63.4084
63.0555
62.6901
62.3125
61.9232
61.5222
61.1099
60.6867
60.2526
59.808
59.3532
58.8883
58.4135
57.9292
57.4355
56.9326
56.4208
55.9001
55.3709
54.8332
54.2873
53.7333
53.1715
52.6019
52.0248
51.4403
50.8486
50.2498
49.644
49.0316
48.4125
47.787
47.1552
46.5173
45.8734
45.2237
44.5684
43.9077
43.2416
42.5705
41.8945
41.2138
40.5285
39.8389
39.1453
38.4478
37.7466
37.042
36.3343
35.6237
34.9104
34.1948
33.4771
32.7576
32.0366
31.3145
30.5915
29.8679
29.1443
28.4207
27.6977
26.9756
26.2547
25.5355
24.8183
24.1035
23.3914
22.6826
21.9773
21.276
20.5791
19.887
19.2
18.5185
17.843
17.1738
16.5112
15.8556
15.2073
14.5667
13.9341
13.3097
12.6937
12.0865
11.4881
10.8989
10.3188
9.74798
9.18654
8.63453
8.0922
7.55994
7.0412
6.5336
6.03261
5.53758
5.04756
4.56123
4.07716
3.5935
3.11162
2.63119
2.14332
1.64585
1.16334
1.02752
0.208906
1.65895
1.40537
1.79473
2.2809
2.80266
3.33649
3.88013
4.43268
4.9926
5.5603
6.13597
6.71966
7.31128
7.91061
8.51726
9.1307
9.75029
10.3752
11.0047
11.6377
12.2733
12.9103
13.5476
14.1841
14.8187
15.4502
16.0774
16.6993
17.3147
17.9226
18.5219
19.1116
19.691
20.259
20.815
21.3581
21.8877
22.4032
22.904
23.3897
23.8598
24.3141
24.7522
25.1738
25.5788
25.9671
26.3386
26.6932
27.031
27.352
27.6562
27.9439
28.2155
28.4723
28.7138
28.9398
29.1505
29.3458
29.5261
29.6917
29.8428
29.9797
30.1028
30.2124
30.3088
30.3923
30.4633
30.522
30.5689
30.6041
30.6281
30.6411
30.6434
30.6353
30.6172
30.5893
30.5519
30.5052
30.4495
30.3851
30.3123
30.2311
30.142
30.0451
29.9407
29.8289
29.71
29.5841
29.4515
29.3124
29.1668
29.0151
28.8574
28.6938
28.5245
28.3496
28.1694
27.9839
27.7933
27.5977
27.3972
27.1921
26.9823
26.768
26.5494
26.3265
26.0994
25.8683
25.6332
25.3943
25.1516
24.9053
24.6553
24.4019
24.145
23.8848
23.6213
23.3547
23.0849
22.8122
22.5364
22.2578
21.9764
21.6923
21.4055
21.1162
20.8243
20.53
20.2333
19.9343
19.6332
19.3299
19.0246
18.7173
18.4082
18.0972
17.7846
17.4704
17.1547
16.8377
16.5193
16.1998
15.8792
15.5577
15.2354
14.9124
14.5889
14.2649
13.9406
13.6163
13.2919
12.9677
12.6438
12.3204
11.9976
11.6757
11.3547
11.0348
10.7163
10.3993
10.0839
9.77041
9.45892
9.14962
8.8427
8.53832
8.23665
7.93787
7.64213
7.34959
7.0604
6.77472
6.49267
6.21438
5.93997
5.66954
5.4032
5.14101
4.88306
4.62938
4.38002
4.13501
3.89437
3.65818
3.42652
3.19965
2.97712
2.75802
2.54252
2.33036
2.12115
1.91473
1.71112
1.51125
1.31539
1.12319
0.936913
0.765095
0.628672
0.322941
1.65875
1.40528
1.79466
2.28082
2.80255
3.33636
3.87999
4.43252
4.99243
5.56012
6.13578
6.71946
7.31108
7.91039
8.51703
9.13047
9.75004
10.375
11.0044
11.6374
12.273
12.91
13.5473
14.1838
14.8184
15.4499
16.0771
16.699
17.3144
17.9222
18.5215
19.1113
19.6906
20.2587
20.8146
21.3577
21.8873
22.4028
22.9036
23.3893
23.8595
24.3137
24.7518
25.1734
25.5784
25.9667
26.3382
26.6928
27.0306
27.3516
27.6559
27.9436
28.2151
28.4719
28.7134
28.9395
29.1501
29.3454
29.5257
29.6913
29.8424
29.9794
30.1025
30.2121
30.3084
30.392
30.4629
30.5217
30.5685
30.6037
30.6277
30.6407
30.643
30.635
30.6169
30.589
30.5515
30.5049
30.4492
30.3848
30.3119
30.2308
30.1417
30.0448
29.9404
29.8286
29.7096
29.5838
29.4512
29.312
29.1665
29.0148
28.8571
28.6935
28.5242
28.3493
28.1691
27.9836
27.793
27.5974
27.397
27.1918
26.982
26.7677
26.5491
26.3262
26.0992
25.868
25.633
25.3941
25.1514
24.905
24.6551
24.4016
24.1447
23.8845
23.6211
23.3544
23.0847
22.8119
22.5362
22.2576
21.9762
21.6921
21.4053
21.1159
20.8241
20.5298
20.2331
19.9341
19.633
19.3297
19.0244
18.7171
18.408
18.097
17.7844
17.4703
17.1546
16.8375
16.5192
16.1996
15.8791
15.5576
15.2353
14.9123
14.5887
14.2647
13.9405
13.6161
13.2917
12.9675
12.6437
12.3203
11.9975
11.6755
11.3545
11.0347
10.7162
10.3992
10.0838
9.7703
9.45881
9.14952
8.84259
8.53822
8.23655
7.93777
7.64204
7.3495
7.06032
6.77464
6.49259
6.2143
5.93989
5.66947
5.40313
5.14095
4.88299
4.62932
4.37996
4.13495
3.89432
3.65813
3.42648
3.19961
2.97708
2.75798
2.54248
2.33033
2.12113
1.91471
1.71111
1.51127
1.31558
1.12413
0.941817
0.792656
0.805228
1.58566
3.00473
1.88959
2.00209
2.2809
2.61799
2.98374
3.36739
3.7641
4.17132
4.58781
5.01289
5.44609
5.88703
6.33534
6.79058
7.25225
7.71979
8.19256
8.66984
9.15086
9.63482
10.1208
10.608
11.0955
11.5823
12.0675
12.5503
13.0295
13.5045
13.9743
14.4381
14.8951
15.3445
15.7856
16.2177
16.6403
17.0526
17.4544
17.8449
18.2239
18.591
18.9457
19.288
19.6175
19.9341
20.2375
20.5279
20.805
21.0688
21.3195
21.557
21.7814
21.9931
22.1923
22.3794
22.554
22.7165
22.8668
23.0052
23.132
23.2472
23.3511
23.4441
23.5263
23.598
23.6594
23.7109
23.7526
23.7849
23.8079
23.822
23.8274
23.8244
23.8131
23.7938
23.7669
23.7324
23.6906
23.6417
23.586
23.5236
23.4547
23.3796
23.2984
23.2113
23.1185
23.0201
22.9164
22.8074
22.6933
22.5744
22.4506
22.3222
22.1893
22.0521
21.9106
21.7649
21.6153
21.4618
21.3045
21.1435
20.979
20.8109
20.6395
20.4648
20.287
20.106
19.922
19.735
19.5452
19.3526
19.1572
18.9593
18.7587
18.5557
18.3502
18.1423
17.9321
17.7197
17.505
17.2883
17.0695
16.8486
16.6259
16.4012
16.1747
15.9464
15.7164
15.4847
15.2515
15.0167
14.7805
14.5428
14.3039
14.0636
13.8222
13.5796
13.336
13.0914
12.846
12.5997
12.3528
12.1052
11.857
11.6085
11.3596
11.1104
10.8611
10.6118
10.3626
10.1136
9.86494
9.6167
9.36902
9.12204
8.87587
8.63065
8.3865
8.14358
7.90199
7.66189
7.42341
7.18668
6.95184
6.71902
6.48835
6.25996
6.03399
5.81055
5.58976
5.37174
5.1566
4.94445
4.73537
4.52947
4.32682
4.1275
3.93157
3.73909
3.55011
3.36468
3.18281
3.00456
2.82997
2.65906
2.49187
2.3283
2.16818
2.01151
1.85827
1.70853
1.56267
1.42109
1.2847
1.15499
1.03451
0.930405
0.869425
1.00272
2.26559
3.00493
1.88953
2.00198
2.28076
2.61783
2.98356
3.3672
3.7639
4.17111
4.5876
5.01266
5.44586
5.8868
6.3351
6.79033
7.25201
7.71954
8.1923
8.66958
9.15061
9.63456
10.1206
10.6078
11.0953
11.5821
12.0673
12.55
13.0293
13.5043
13.9741
14.4379
14.8948
15.3442
15.7853
16.2175
16.64
17.0524
17.4541
17.8447
18.2237
18.5907
18.9455
19.2878
19.6173
19.9338
20.2373
20.5277
20.8048
21.0686
21.3193
21.5568
21.7812
21.9929
22.1922
22.3792
22.5539
22.7163
22.8667
23.0051
23.1318
23.247
23.351
23.4439
23.5261
23.5978
23.6592
23.7107
23.7524
23.7847
23.8078
23.8219
23.8273
23.8242
23.813
23.7937
23.7667
23.7322
23.6905
23.6416
23.5859
23.5235
23.4546
23.3795
23.2983
23.2112
23.1184
23.02
22.9163
22.8073
22.6932
22.5743
22.4505
22.3221
22.1892
22.052
21.9105
21.7648
21.6152
21.4617
21.3044
21.1434
20.9789
20.8108
20.6394
20.4648
20.2869
20.1059
19.9219
19.7349
19.5451
19.3525
19.1571
18.9592
18.7586
18.5556
18.3501
18.1422
17.932
17.7196
17.505
17.2882
17.0694
16.8486
16.6258
16.4011
16.1746
15.9463
15.7163
15.4847
15.2514
15.0167
14.7804
14.5428
14.3038
14.0636
13.8221
13.5796
13.336
13.0914
12.8459
12.5997
12.3527
12.1051
11.857
11.6084
11.3595
11.1104
10.8611
10.6118
10.3626
10.1136
9.8649
9.61666
9.36899
9.122
8.87583
8.63061
8.38647
8.14354
7.90196
7.66187
7.42338
7.18665
6.95181
6.71899
6.48832
6.25994
6.03396
5.81052
5.58974
5.37172
5.15658
4.94443
4.73535
4.52945
4.3268
4.12748
3.93155
3.73908
3.5501
3.36466
3.1828
3.00455
2.82995
2.65905
2.49186
2.32829
2.16817
2.0115
1.85827
1.70852
1.56266
1.42109
1.28472
1.15507
1.03478
0.930954
0.866159
0.951628
1.99793
4.4099
2.48096
2.37763
2.53435
2.77939
3.06772
3.38191
3.71372
4.05875
4.41451
4.77951
5.15279
5.53365
5.92151
6.31587
6.7162
7.12196
7.53256
7.94737
8.36573
8.78693
9.21022
9.63483
10.06
10.4849
10.9087
11.3306
11.7499
12.1657
12.5773
12.984
13.3849
13.7795
14.1672
14.5472
14.919
15.2822
15.6362
15.9806
16.3149
16.639
16.9523
17.2548
17.5461
17.8261
18.0946
18.3516
18.5969
18.8305
19.0525
19.2629
19.4616
19.649
19.8252
19.9903
20.1443
20.2875
20.4198
20.5415
20.6527
20.7537
20.8446
20.9256
20.997
21.0589
21.1117
21.1555
21.1906
21.2171
21.2354
21.2456
21.248
21.2428
21.2302
21.2105
21.1837
21.1503
21.1103
21.0639
21.0114
20.9528
20.8885
20.8186
20.7433
20.6626
20.5769
20.4861
20.3906
20.2904
20.1857
20.0766
19.9632
19.8458
19.7243
19.599
19.4699
19.3371
19.2008
19.0611
18.918
18.7717
18.6223
18.4698
18.3143
18.156
17.9949
17.831
17.6646
17.4955
17.324
17.1501
16.9738
16.7952
16.6144
16.4315
16.2464
16.0593
15.8703
15.6793
15.4864
15.2918
15.0954
14.8973
14.6975
14.4962
14.2933
14.089
13.8832
13.6761
13.4676
13.2579
13.047
12.835
12.6219
12.4077
12.1927
11.9767
11.7599
11.5424
11.3243
11.1055
10.8862
10.6665
10.4464
10.2261
10.0056
9.78502
9.56444
9.34397
9.12371
8.90376
8.68423
8.46521
8.24683
8.02918
7.81239
7.59658
7.38185
7.16832
6.95611
6.74534
6.53614
6.32861
6.12287
5.91905
5.71726
5.51761
5.32021
5.12518
4.9326
4.7426
4.55525
4.37066
4.18892
4.01009
3.83426
3.6615
3.49187
3.32543
3.16224
3.00233
2.84578
2.69261
2.54289
2.39667
2.254
2.11491
1.97945
1.84771
1.7199
1.5963
1.47743
1.36407
1.25756
1.16013
1.07573
1.01268
0.993204
1.11721
2.08689
4.41015
2.48089
2.37749
2.53418
2.7792
3.06752
3.3817
3.7135
4.05852
4.41428
4.77927
5.15255
5.5334
5.92126
6.31562
6.71595
7.12171
7.5323
7.94712
8.36548
8.78668
9.20997
9.63459
10.0597
10.4846
10.9085
11.3304
11.7497
12.1655
12.5771
12.9837
13.3847
13.7793
14.167
14.547
14.9188
15.282
15.636
15.9804
16.3148
16.6388
16.9522
17.2546
17.546
17.826
18.0945
18.3514
18.5968
18.8304
19.0524
19.2627
19.4615
19.6489
19.8251
19.9901
20.1442
20.2874
20.4197
20.5414
20.6527
20.7536
20.8445
20.9255
20.9969
21.0589
21.1116
21.1554
21.1905
21.217
21.2353
21.2455
21.2479
21.2427
21.2302
21.2104
21.1837
21.1502
21.1102
21.0638
21.0113
20.9528
20.8885
20.8186
20.7432
20.6626
20.5768
20.4861
20.3906
20.2904
20.1857
20.0766
19.9632
19.8457
19.7243
19.5989
19.4698
19.3371
19.2008
19.0611
18.918
18.7717
18.6222
18.4698
18.3143
18.156
17.9949
17.831
17.6645
17.4955
17.324
17.15
16.9738
16.7952
16.6144
16.4314
16.2464
16.0593
15.8702
15.6793
15.4864
15.2918
15.0954
14.8973
14.6975
14.4962
14.2933
14.089
13.8832
13.6761
13.4676
13.2579
13.047
12.835
12.6219
12.4077
12.1927
11.9767
11.7599
11.5424
11.3243
11.1055
10.8862
10.6665
10.4464
10.2261
10.0056
9.78501
9.56444
9.34397
9.12371
8.90376
8.68422
8.46521
8.24682
8.02918
7.81239
7.59657
7.38184
7.16831
6.95611
6.74534
6.53614
6.32861
6.12287
5.91905
5.71726
5.51761
5.32021
5.12517
4.9326
4.7426
4.55525
4.37066
4.18892
4.01009
3.83426
3.6615
3.49187
3.32543
3.16223
3.00233
2.84578
2.69261
2.54289
2.39667
2.254
2.11491
1.97945
1.84771
1.7199
1.5963
1.47743
1.36407
1.25758
1.16019
1.076
1.01402
0.998129
1.118
2.09197
5.80063
3.11538
2.82371
2.88659
3.06846
3.30772
3.58046
3.87519
4.1857
4.50835
4.8409
5.18189
5.53028
5.88534
6.24642
6.61296
6.98441
7.36022
7.73981
8.12259
8.50793
8.89516
9.28362
9.67261
10.0614
10.4493
10.8356
11.2196
11.6006
11.9778
12.3507
12.7185
13.0807
13.4367
13.7859
14.1278
14.4619
14.7878
15.105
15.4132
15.712
16.0012
16.2805
16.5496
16.8085
17.0569
17.2947
17.5219
17.7383
17.9441
18.1391
18.3235
18.4974
18.6608
18.8139
18.9567
19.0894
19.2121
19.3249
19.4279
19.5214
19.6054
19.6803
19.7462
19.8032
19.8517
19.8917
19.9236
19.9475
19.9636
19.9721
19.9733
19.9674
19.9545
19.9348
19.9086
19.876
19.8373
19.7925
19.742
19.6858
19.6242
19.5572
19.4851
19.4081
19.3262
19.2396
19.1485
19.0531
18.9533
18.8494
18.7415
18.6298
18.5143
18.3951
18.2724
18.1463
18.0168
17.8841
17.7483
17.6095
17.4677
17.3231
17.1757
17.0256
16.8729
16.7177
16.56
16.4
16.2376
16.073
15.9062
15.7373
15.5663
15.3934
15.2185
15.0417
14.8632
14.6828
14.5008
14.3171
14.1319
13.945
13.7567
13.567
13.3758
13.1834
12.9896
12.7947
12.5985
12.4013
12.203
12.0037
11.8035
11.6023
11.4004
11.1977
10.9944
10.7904
10.5858
10.3808
10.1754
9.9697
9.76372
9.55758
9.35136
9.14515
8.93903
8.7331
8.52745
8.32218
8.11739
7.91317
7.70963
7.50687
7.305
7.10412
6.90434
6.70577
6.50853
6.31271
6.11843
5.9258
5.73493
5.54592
5.35888
5.17392
4.99113
4.81062
4.63249
4.45681
4.2837
4.11322
3.94547
3.78052
3.61844
3.45931
3.30319
3.15014
3.00024
2.85354
2.7101
2.57
2.43332
2.30014
2.17056
2.0447
1.92272
1.80485
1.69141
1.5829
1.48003
1.38391
1.29631
1.22016
1.16083
1.12982
1.15678
1.36006
2.73791
5.80092
3.11528
2.82354
2.88639
3.06824
3.3075
3.58023
3.87495
4.18546
4.50811
4.84065
5.18163
5.53003
5.88508
6.24616
6.6127
6.98415
7.35996
7.73956
8.12234
8.50768
8.89492
9.28338
9.67237
10.0612
10.4491
10.8354
11.2194
11.6003
11.9776
12.3505
12.7183
13.0805
13.4365
13.7857
14.1276
14.4617
14.7876
15.1048
15.413
15.7119
16.0011
16.2804
16.5495
16.8084
17.0568
17.2946
17.5217
17.7382
17.944
18.139
18.3234
18.4973
18.6607
18.8138
18.9566
19.0893
19.212
19.3248
19.4278
19.5213
19.6054
19.6803
19.7461
19.8032
19.8516
19.8917
19.9236
19.9474
19.9636
19.9721
19.9733
19.9673
19.9544
19.9348
19.9086
19.876
19.8372
19.7925
19.742
19.6858
19.6241
19.5572
19.4851
19.4081
19.3262
19.2396
19.1485
19.053
18.9533
18.8494
18.7415
18.6298
18.5143
18.3951
18.2724
18.1463
18.0168
17.8841
17.7483
17.6095
17.4677
17.3231
17.1757
17.0256
16.8729
16.7177
16.56
16.4
16.2376
16.073
15.9062
15.7373
15.5663
15.3934
15.2185
15.0417
14.8632
14.6828
14.5008
14.3171
14.1319
13.945
13.7567
13.567
13.3758
13.1834
12.9896
12.7947
12.5985
12.4013
12.203
12.0037
11.8035
11.6023
11.4004
11.1977
10.9944
10.7904
10.5859
10.3808
10.1754
9.9697
9.76372
9.55758
9.35136
9.14515
8.93903
8.73311
8.52746
8.32219
8.11739
7.91317
7.70963
7.50687
7.305
7.10412
6.90434
6.70578
6.50853
6.31271
6.11844
5.92581
5.73493
5.54592
5.35889
5.17392
4.99114
4.81063
4.63249
4.45682
4.2837
4.11323
3.94547
3.78052
3.61844
3.45931
3.30319
3.15015
3.00024
2.85354
2.7101
2.57001
2.43332
2.30014
2.17056
2.0447
1.92272
1.80485
1.69141
1.5829
1.48003
1.38392
1.29632
1.22017
1.16086
1.13
1.15786
1.36132
2.74048
7.21219
3.77429
3.31225
3.29602
3.42842
3.63164
3.87547
4.14539
4.43343
4.7349
5.04685
5.36736
5.6951
6.02911
6.36865
6.7131
7.0619
7.41451
7.7704
8.12902
8.48982
8.8522
9.21558
9.57933
9.94283
10.3054
10.6665
11.0255
11.3816
11.7343
12.0831
12.4272
12.7662
13.0995
13.4265
13.7469
14.0602
14.3659
14.6637
14.9531
15.234
15.5059
15.7688
16.0222
16.2662
16.5004
16.7248
16.9393
17.1439
17.3385
17.5231
17.6977
17.8624
18.0173
18.1624
18.2979
18.4238
18.5402
18.6473
18.7452
18.834
18.914
18.9852
19.0478
19.102
19.1481
19.1861
19.2164
19.239
19.2541
19.2621
19.263
19.257
19.2443
19.2252
19.1997
19.1682
19.1307
19.0874
19.0385
18.9842
18.9246
18.8599
18.7903
18.7158
18.6366
18.553
18.4649
18.3726
18.2762
18.1758
18.0715
17.9634
17.8518
17.7365
17.6179
17.4959
17.3708
17.2425
17.1112
16.9769
16.8398
16.7
16.5574
16.4123
16.2647
16.1146
15.9621
15.8074
15.6504
15.4913
15.3301
15.1668
15.0016
14.8345
14.6655
14.4948
14.3223
14.1481
13.9723
13.7949
13.616
13.4357
13.2539
13.0708
12.8864
12.7007
12.5138
12.3258
12.1367
11.9466
11.7555
11.5634
11.3705
11.1768
10.9824
10.7873
10.5916
10.3953
10.1986
10.0014
9.80393
9.60619
9.40827
9.21025
9.01221
8.81424
8.61641
8.41882
8.22157
8.02473
7.82841
7.6327
7.4377
7.24351
7.05023
6.85795
6.66679
6.47685
6.28823
6.10102
5.91535
5.73131
5.549
5.36852
5.18997
5.01346
4.83908
4.66691
4.49706
4.32961
4.16465
4.00225
3.84251
3.68549
3.53128
3.37994
3.23155
3.08618
2.9439
2.8048
2.66895
2.53644
2.4074
2.28194
2.1602
2.04239
1.92876
1.81962
1.71545
1.61689
1.52489
1.44084
1.36697
1.30694
1.26757
1.2634
1.33258
1.6242
3.41425
7.21253
3.77417
3.31207
3.29581
3.42819
3.6314
3.87523
4.14513
4.43317
4.73464
5.04659
5.3671
5.69483
6.02884
6.36839
6.71284
7.06164
7.41425
7.77014
8.12877
8.48957
8.85195
9.21533
9.57909
9.94259
10.3052
10.6663
11.0252
11.3814
11.7341
12.0829
12.427
12.766
13.0993
13.4264
13.7468
14.06
14.3657
14.6635
14.953
15.2338
15.5058
15.7686
16.0221
16.266
16.5003
16.7247
16.9392
17.1438
17.3384
17.523
17.6976
17.8623
18.0172
18.1623
18.2978
18.4237
18.5402
18.6473
18.7452
18.834
18.9139
18.9851
19.0477
19.102
19.1481
19.1861
19.2163
19.2389
19.2541
19.262
19.2629
19.2569
19.2443
19.2252
19.1997
19.1682
19.1307
19.0874
19.0385
18.9842
18.9246
18.8599
18.7902
18.7158
18.6366
18.553
18.4649
18.3726
18.2762
18.1758
18.0715
17.9634
17.8517
17.7365
17.6179
17.4959
17.3708
17.2425
17.1111
16.9769
16.8398
16.6999
16.5574
16.4123
16.2647
16.1146
15.9621
15.8074
15.6504
15.4913
15.3301
15.1668
15.0016
14.8345
14.6655
14.4948
14.3223
14.1481
13.9723
13.7949
13.616
13.4357
13.2539
13.0708
12.8864
12.7007
12.5138
12.3258
12.1367
11.9466
11.7555
11.5634
11.3705
11.1768
10.9824
10.7873
10.5916
10.3953
10.1986
10.0014
9.80394
9.6062
9.40828
9.21026
9.01222
8.81424
8.61642
8.41883
8.22157
8.02474
7.82842
7.63271
7.43771
7.24352
7.05023
6.85796
6.6668
6.47686
6.28823
6.10103
5.91536
5.73131
5.549
5.36853
5.18998
5.01347
4.83908
4.66692
4.49707
4.32962
4.16465
4.00226
3.84252
3.6855
3.53129
3.37995
3.23155
3.08618
2.94391
2.8048
2.66895
2.53645
2.4074
2.28194
2.16021
2.0424
1.92876
1.81962
1.71545
1.6169
1.52489
1.44085
1.36697
1.30695
1.26758
1.26342
1.33275
1.62452
3.41473
8.68531
4.46124
3.83461
3.74715
3.83779
4.01225
4.23407
4.48573
4.75766
5.04414
5.34158
5.64763
5.96067
6.27958
6.60348
6.93171
7.26368
7.59888
7.93679
8.27693
8.6188
8.96187
9.30562
9.64951
9.99298
10.3355
10.6764
11.0153
11.3515
11.6845
12.0137
12.3386
12.6587
12.9736
13.2826
13.5855
13.8818
14.1711
14.453
14.7272
14.9935
15.2514
15.5009
15.7417
15.9736
16.1964
16.4101
16.6145
16.8095
16.9952
17.1716
17.3385
17.4961
17.6444
17.7834
17.9133
18.0341
18.1459
18.2488
18.343
18.4285
18.5056
18.5742
18.6347
18.6872
18.7318
18.7687
18.798
18.8201
18.8349
18.8428
18.8438
18.8382
18.8262
18.8078
18.7833
18.7529
18.7167
18.6749
18.6276
18.575
18.5173
18.4546
18.387
18.3147
18.2378
18.1565
18.071
17.9812
17.8874
17.7897
17.6881
17.5829
17.4741
17.3619
17.2462
17.1273
17.0053
16.8801
16.752
16.621
16.4872
16.3507
16.2116
16.0699
15.9257
15.7791
15.6302
15.4791
15.3257
15.1703
15.0127
14.8532
14.6918
14.5284
14.3633
14.1964
14.0278
13.8576
13.6858
13.5125
13.3376
13.1614
12.9838
12.8049
12.6247
12.4433
12.2607
12.077
11.8923
11.7066
11.52
11.3325
11.1442
10.9551
10.7653
10.5749
10.3839
10.1924
10.0005
9.8082
9.61562
9.42283
9.2299
9.0369
8.84392
8.65104
8.45834
8.26591
8.07384
7.88222
7.69114
7.50069
7.31096
7.12206
6.93408
6.74711
6.56126
6.37663
6.19331
6.0114
5.831
5.65222
5.47515
5.29988
5.1265
4.95513
4.78584
4.61872
4.45387
4.29137
4.1313
3.97374
3.81878
3.66649
3.51695
3.37025
3.22644
3.08563
2.94789
2.81332
2.68203
2.55412
2.42975
2.30907
2.19228
2.07964
1.97147
1.86821
1.77044
1.67896
1.59492
1.52002
1.45694
1.41014
1.3879
1.40782
1.51667
1.89615
4.09889
8.6857
4.4611
3.8344
3.74692
3.83754
4.01199
4.2338
4.48546
4.75739
5.04387
5.34131
5.64736
5.9604
6.27931
6.60321
6.93144
7.26342
7.59861
7.93653
8.27668
8.61855
8.96162
9.30538
9.64927
9.99275
10.3353
10.6762
11.0151
11.3513
11.6843
12.0135
12.3384
12.6585
12.9734
13.2825
13.5854
13.8817
14.1709
14.4529
14.7271
14.9933
15.2513
15.5008
15.7416
15.9734
16.1963
16.41
16.6144
16.8095
16.9952
17.1715
17.3384
17.496
17.6443
17.7833
17.9132
18.034
18.1459
18.2488
18.343
18.4285
18.5055
18.5742
18.6347
18.6871
18.7317
18.7686
18.798
18.82
18.8349
18.8428
18.8438
18.8382
18.8261
18.8078
18.7833
18.7529
18.7167
18.6749
18.6276
18.575
18.5173
18.4546
18.387
18.3147
18.2378
18.1565
18.071
17.9812
17.8874
17.7897
17.6881
17.5829
17.4741
17.3619
17.2462
17.1273
17.0053
16.8801
16.752
16.621
16.4872
16.3507
16.2116
16.0699
15.9257
15.7791
15.6302
15.4791
15.3257
15.1703
15.0127
14.8532
14.6918
14.5285
14.3633
14.1964
14.0278
13.8576
13.6858
13.5125
13.3376
13.1614
12.9838
12.8049
12.6247
12.4433
12.2607
12.077
11.8923
11.7066
11.52
11.3325
11.1442
10.9551
10.7653
10.5749
10.3839
10.1924
10.0005
9.8082
9.61563
9.42284
9.2299
9.03691
8.84393
8.65105
8.45835
8.26592
8.07385
7.88223
7.69115
7.50069
7.31097
7.12207
6.93408
6.74712
6.56127
6.37663
6.19331
6.01141
5.83101
5.65223
5.47515
5.29988
5.12651
4.95514
4.78584
4.61873
4.45388
4.29137
4.1313
3.97375
3.81879
3.6665
3.51696
3.37025
3.22645
3.08564
2.9479
2.81333
2.68203
2.55413
2.42975
2.30907
2.19228
2.07964
1.97148
1.86822
1.77044
1.67896
1.59492
1.52002
1.45694
1.41015
1.38791
1.40783
1.51671
1.89625
4.099
10.1986
5.17428
4.38704
4.23335
4.28712
4.43737
4.6414
4.87877
5.13832
5.41338
5.69977
5.99474
6.2964
6.60346
6.91496
7.23017
7.54848
7.8694
8.19245
8.51717
8.84313
9.16986
9.49691
9.82381
10.1501
10.4752
10.7987
11.1201
11.4389
11.7546
12.0667
12.3748
12.6783
12.9769
13.2701
13.5575
13.8387
14.1134
14.3813
14.642
14.8953
15.1408
15.3785
15.608
15.8292
16.0419
16.2461
16.4415
16.6283
16.8062
16.9752
17.1355
17.2869
17.4294
17.5632
17.6884
17.8048
17.9128
18.0122
18.1033
18.1862
18.2609
18.3276
18.3864
18.4376
18.4811
18.5173
18.5462
18.5679
18.5828
18.5908
18.5923
18.5873
18.576
18.5586
18.5352
18.506
18.4711
18.4308
18.3851
18.3342
18.2782
18.2173
18.1517
18.0814
18.0066
17.9275
17.8441
17.7566
17.6651
17.5697
17.4706
17.3678
17.2614
17.1516
17.0385
16.9221
16.8026
16.68
16.5545
16.4261
16.2949
16.161
16.0245
15.8855
15.744
15.6001
15.4539
15.3054
15.1547
15.002
14.8472
14.6904
14.5317
14.3711
14.2087
14.0446
13.8788
13.7114
13.5424
13.3719
13.1999
13.0265
12.8517
12.6757
12.4984
12.3199
12.1403
11.9595
11.7778
11.5951
11.4115
11.227
11.0417
10.8557
10.669
10.4817
10.2938
10.1055
9.91676
9.72768
9.53833
9.34878
9.15912
8.96941
8.77973
8.59018
8.40082
8.21175
8.02305
7.83481
7.64712
7.46007
7.27375
7.08826
6.90369
6.72013
6.53767
6.35643
6.17648
5.99793
5.82088
5.6454
5.47161
5.29959
5.12944
4.96124
4.79508
4.63105
4.46924
4.30972
4.15259
3.99792
3.8458
3.6963
3.5495
3.4055
3.26437
3.12622
2.99113
2.85922
2.73061
2.60545
2.48391
2.36618
2.25253
2.14325
2.03876
1.93956
1.84637
1.76013
1.6822
1.61459
1.56044
1.525
1.51805
1.56039
1.70737
2.17414
4.79057
10.1991
5.17411
4.3868
4.23309
4.28685
4.4371
4.64112
4.87849
5.13803
5.4131
5.69949
5.99445
6.29612
6.60319
6.91469
7.22989
7.54822
7.86914
8.19219
8.51691
8.84287
9.16961
9.49667
9.82358
10.1498
10.475
10.7985
11.1199
11.4387
11.7544
12.0665
12.3746
12.6781
12.9767
13.2699
13.5573
13.8386
14.1133
14.3812
14.6419
14.8951
15.1407
15.3784
15.6079
15.8291
16.0418
16.246
16.4415
16.6282
16.8061
16.9752
17.1354
17.2868
17.4294
17.5632
17.6883
17.8048
17.9127
18.0122
18.1033
18.1861
18.2608
18.3276
18.3864
18.4375
18.4811
18.5172
18.5461
18.5679
18.5828
18.5908
18.5923
18.5873
18.576
18.5586
18.5352
18.506
18.4711
18.4308
18.3851
18.3342
18.2782
18.2173
18.1517
18.0814
18.0066
17.9275
17.8441
17.7566
17.6651
17.5697
17.4706
17.3678
17.2614
17.1516
17.0385
16.9221
16.8026
16.68
16.5545
16.4261
16.2949
16.161
16.0245
15.8855
15.744
15.6001
15.4539
15.3054
15.1548
15.002
14.8472
14.6904
14.5317
14.3711
14.2088
14.0446
13.8788
13.7114
13.5424
13.3719
13.1999
13.0265
12.8517
12.6757
12.4984
12.3199
12.1403
11.9595
11.7778
11.5951
11.4115
11.227
11.0417
10.8557
10.669
10.4817
10.2938
10.1055
9.91676
9.72768
9.53833
9.34879
9.15912
8.96941
8.77974
8.59019
8.40083
8.21176
8.02306
7.83482
7.64713
7.46008
7.27376
7.08827
6.90369
6.72013
6.53768
6.35644
6.17649
5.99794
5.82088
5.64541
5.47162
5.2996
5.12944
4.96124
4.79508
4.63106
4.46924
4.30973
4.1526
3.99793
3.8458
3.6963
3.54951
3.40551
3.26438
3.12622
2.99113
2.85922
2.73062
2.60546
2.48391
2.36619
2.25253
2.14326
2.03876
1.93957
1.84637
1.76013
1.6822
1.61459
1.56044
1.52501
1.51806
1.5604
1.70739
2.17419
4.79062
11.7604
5.91513
4.96883
4.75209
4.77223
4.90134
5.09037
5.31599
5.56548
5.8313
6.1087
6.39454
6.68672
6.9838
7.28471
7.58868
7.8951
8.20348
8.51338
8.82438
9.1361
9.44814
9.76011
10.0716
10.3822
10.6915
10.999
11.3044
11.6072
11.9069
12.2032
12.4956
12.7837
13.0671
13.3455
13.6185
13.8857
14.1468
14.4015
14.6495
14.8906
15.1245
15.351
15.5699
15.781
15.9843
16.1795
16.3665
16.5454
16.7159
16.8782
17.0321
17.1777
17.3149
17.4438
17.5645
17.677
17.7813
17.8775
17.9658
18.0462
18.1188
18.1838
18.2412
18.2911
18.3338
18.3694
18.3979
18.4195
18.4345
18.4428
18.4448
18.4404
18.43
18.4135
18.3912
18.3633
18.3298
18.2909
18.2468
18.1975
18.1433
18.0842
18.0204
17.9521
17.8793
17.8022
17.7209
17.6354
17.5461
17.4529
17.3559
17.2553
17.1512
17.0436
16.9327
16.8186
16.7013
16.581
16.4578
16.3316
16.2027
16.0711
15.9369
15.8001
15.6608
15.5192
15.3752
15.2289
15.0805
14.93
14.7774
14.6228
14.4663
14.3079
14.1477
13.9858
13.8221
13.6569
13.49
13.3217
13.1518
12.9806
12.808
12.6341
12.4589
12.2826
12.1051
11.9266
11.747
11.5664
11.385
11.2027
11.0196
10.8357
10.6512
10.4661
10.2805
10.0944
9.90787
9.72102
9.53391
9.34661
9.1592
8.97176
8.78435
8.59707
8.41
8.22321
8.03679
7.85084
7.66543
7.48065
7.2966
7.11337
6.93105
6.74973
6.5695
6.39045
6.21269
6.03629
5.86136
5.68798
5.51624
5.34624
5.17805
5.01178
4.8475
4.68531
4.52527
4.36748
4.21203
4.05898
3.90842
3.76044
3.61513
3.47257
3.33286
3.1961
3.06241
2.93191
2.80474
2.68109
2.56114
2.44514
2.33338
2.22624
2.12418
2.02782
1.93795
1.85569
1.78259
1.72098
1.67445
1.64909
1.65618
1.71981
1.90376
2.45685
5.48719
11.7609
5.91494
4.96857
4.75181
4.77194
4.90104
5.09007
5.31569
5.56519
5.83101
6.1084
6.39425
6.68644
6.98351
7.28443
7.5884
7.89483
8.20322
8.51312
8.82413
9.13585
9.4479
9.75987
10.0714
10.382
10.6913
10.9988
11.3042
11.607
11.9067
12.203
12.4954
12.7835
13.067
13.3453
13.6183
13.8855
14.1466
14.4013
14.6494
14.8905
15.1244
15.3509
15.5698
15.7809
15.9842
16.1794
16.3665
16.5453
16.7159
16.8781
17.032
17.1776
17.3148
17.4438
17.5644
17.6769
17.7812
17.8775
17.9658
18.0462
18.1188
18.1837
18.2411
18.2911
18.3338
18.3693
18.3979
18.4195
18.4345
18.4428
18.4448
18.4404
18.43
18.4135
18.3912
18.3633
18.3298
18.2909
18.2468
18.1975
18.1433
18.0842
18.0204
17.9521
17.8793
17.8022
17.7209
17.6355
17.5461
17.4529
17.3559
17.2553
17.1512
17.0436
16.9327
16.8186
16.7013
16.581
16.4578
16.3316
16.2027
16.0711
15.9369
15.8001
15.6608
15.5192
15.3752
15.229
15.0805
14.93
14.7774
14.6228
14.4663
14.3079
14.1477
13.9858
13.8222
13.6569
13.49
13.3217
13.1518
12.9806
12.808
12.6341
12.459
12.2826
12.1051
11.9266
11.747
11.5664
11.385
11.2027
11.0196
10.8357
10.6512
10.4661
10.2805
10.0944
9.90787
9.72103
9.53392
9.34662
9.15921
8.97177
8.78436
8.59708
8.41
8.22321
8.0368
7.85084
7.66543
7.48066
7.29661
7.11338
6.93106
6.74973
6.5695
6.39046
6.21269
6.0363
5.86136
5.68798
5.51625
5.34624
5.17806
5.01179
4.84751
4.68531
4.52528
4.36749
4.21203
4.05898
3.90843
3.76045
3.61514
3.47258
3.33287
3.19611
3.06241
2.93191
2.80475
2.68109
2.56114
2.44514
2.33339
2.22625
2.12419
2.02782
1.93795
1.85569
1.78259
1.72098
1.67445
1.6491
1.65619
1.71981
1.90378
2.4569
5.48722
13.3701
6.68505
5.58043
5.30286
5.29171
5.40181
5.57775
5.7933
6.03424
6.29215
6.56174
6.83958
7.12333
7.41142
7.70271
7.99639
8.29186
8.58862
8.88627
9.18444
9.4828
9.78102
10.0787
10.3757
10.6714
10.9656
11.2579
11.548
11.8355
12.1199
12.401
12.6784
12.9517
13.2206
13.4847
13.7437
13.9973
14.2452
14.4871
14.7229
14.9521
15.1746
15.3903
15.5988
15.8001
15.9941
16.1805
16.3593
16.5304
16.6937
16.8492
16.9969
17.1367
17.2686
17.3927
17.509
17.6175
17.7182
17.8113
17.8968
17.9748
18.0453
18.1085
18.1644
18.2132
18.255
18.2899
18.3181
18.3396
18.3546
18.3633
18.3657
18.3619
18.3523
18.3368
18.3156
18.2888
18.2566
18.2192
18.1765
18.1289
18.0763
18.019
17.9571
17.8906
17.8197
17.7445
17.6652
17.5818
17.4945
17.4033
17.3085
17.21
17.1079
17.0025
16.8937
16.7817
16.6666
16.5484
16.4273
16.3032
16.1764
16.0469
15.9147
15.7799
15.6427
15.5031
15.3611
15.2169
15.0704
14.9219
14.7712
14.6185
14.4639
14.3075
14.1491
13.9891
13.8273
13.6638
13.4988