/*--------------------------------*- C++ -*----------------------------------*\
  =========                 |
  \\      /  F ield         | OpenFOAM: The Open Source CFD Toolbox
   \\    /   O peration     | Website:  https://openfoam.org
    \\  /    A nd           | Version:  8
     \\/     M anipulation  |
\*---------------------------------------------------------------------------*/
FoamFile
{
    version     2.0;
    format      ascii;
    class       volScalarField;
    location    "1600";
    object      nut;
}
// * * * * * * * * * * * * * * * * * * * * * * * * * * * * * * * * * * * * * //

dimensions      [0 2 -1 0 0 0 0];

internalField   nonuniform List<scalar> 
48000
(
5.73016e-05
5.37863e-05
6.90026e-05
7.92077e-05
8.73427e-05
9.41157e-05
0.000100058
0.000105415
0.000110269
0.00011475
0.000118928
0.000122854
0.000126567
0.000130094
0.000133458
0.000136678
0.000139765
0.000142732
0.000145588
0.000148338
0.00015099
0.000153547
0.000156014
0.000158395
0.000160692
0.000162907
0.000165044
0.000167104
0.000169088
0.000171
0.000172839
0.000174608
0.000176309
0.000177942
0.00017951
0.000181013
0.000182454
0.000183833
0.000185151
0.000186412
0.000187615
0.000188762
0.000189855
0.000190895
0.000191883
0.00019282
0.000193709
0.000194551
0.000195346
0.000196095
0.000196801
0.000197464
0.000198086
0.000198672
0.000199221
0.000199733
0.000200208
0.000200648
0.000201054
0.000201426
0.000201765
0.000202074
0.000202351
0.000202599
0.000202819
0.00020301
0.000203175
0.000203313
0.000203426
0.000203515
0.000203579
0.000203619
0.000203637
0.000203633
0.000203607
0.000203561
0.000203493
0.000203406
0.000203299
0.000203173
0.000203028
0.000202865
0.000202685
0.000202486
0.000202271
0.000202039
0.00020179
0.000201525
0.000201244
0.000200947
0.000200635
0.000200307
0.000199965
0.000199607
0.000199235
0.000198849
0.000198448
0.000198033
0.000197604
0.000197161
0.000196704
0.000196233
0.000195748
0.00019525
0.000194738
0.000194213
0.000193674
0.000193122
0.000192556
0.000191977
0.000191384
0.000190778
0.000190158
0.000189525
0.000188878
0.000188217
0.000187542
0.000186853
0.000186151
0.000185434
0.000184703
0.000183958
0.000183198
0.000182424
0.000181635
0.00018083
0.000180011
0.000179177
0.000178327
0.000177461
0.00017658
0.000175683
0.000174769
0.000173839
0.000172893
0.000171929
0.000170949
0.000169951
0.000168936
0.000167902
0.000166851
0.000165782
0.000164694
0.000163588
0.000162463
0.000161318
0.000160155
0.000158971
0.000157768
0.000156545
0.000155301
0.000154037
0.000152752
0.000151446
0.000150118
0.000148769
0.000147399
0.000146006
0.000144591
0.000143154
0.000141693
0.00014021
0.000138703
0.000137172
0.000135617
0.000134038
0.000132433
0.000130804
0.000129148
0.000127466
0.000125757
0.00012402
0.000122254
0.000120458
0.000118632
0.000116774
0.000114882
0.000112955
0.00011099
0.000108985
0.000106938
0.000104845
0.000102702
0.000100506
9.82531e-05
9.59524e-05
9.35893e-05
9.11338e-05
8.85699e-05
8.58766e-05
8.30253e-05
7.9978e-05
7.66821e-05
7.3091e-05
6.91256e-05
6.45931e-05
5.92347e-05
5.18221e-05
4.59833e-05
0.000179134
5.72996e-05
5.38127e-05
6.90047e-05
7.92087e-05
8.73438e-05
9.41168e-05
0.000100059
0.000105416
0.00011027
0.000114751
0.000118929
0.000122855
0.000126567
0.000130094
0.000133459
0.000136678
0.000139766
0.000142733
0.000145588
0.000148338
0.00015099
0.000153547
0.000156015
0.000158395
0.000160692
0.000162908
0.000165044
0.000167104
0.000169089
0.000171
0.000172839
0.000174609
0.000176309
0.000177942
0.00017951
0.000181013
0.000182454
0.000183833
0.000185152
0.000186412
0.000187615
0.000188762
0.000189855
0.000190894
0.000191883
0.00019282
0.000193709
0.000194551
0.000195346
0.000196095
0.000196801
0.000197464
0.000198085
0.000198672
0.000199221
0.000199733
0.000200208
0.000200648
0.000201054
0.000201426
0.000201765
0.000202073
0.000202351
0.000202599
0.000202819
0.00020301
0.000203175
0.000203313
0.000203426
0.000203514
0.000203579
0.000203619
0.000203637
0.000203633
0.000203607
0.00020356
0.000203493
0.000203406
0.000203299
0.000203173
0.000203028
0.000202865
0.000202684
0.000202486
0.000202271
0.000202038
0.00020179
0.000201525
0.000201244
0.000200947
0.000200635
0.000200307
0.000199965
0.000199607
0.000199235
0.000198849
0.000198448
0.000198033
0.000197604
0.00019716
0.000196703
0.000196233
0.000195748
0.00019525
0.000194738
0.000194213
0.000193674
0.000193122
0.000192556
0.000191977
0.000191384
0.000190778
0.000190158
0.000189525
0.000188877
0.000188217
0.000187542
0.000186853
0.000186151
0.000185434
0.000184703
0.000183958
0.000183198
0.000182424
0.000181634
0.00018083
0.000180011
0.000179177
0.000178327
0.000177461
0.00017658
0.000175683
0.000174769
0.000173839
0.000172893
0.000171929
0.000170949
0.000169951
0.000168935
0.000167902
0.000166851
0.000165782
0.000164694
0.000163588
0.000162463
0.000161318
0.000160154
0.000158971
0.000157768
0.000156544
0.000155301
0.000154037
0.000152752
0.000151446
0.000150118
0.000148769
0.000147399
0.000146006
0.000144591
0.000143153
0.000141693
0.00014021
0.000138703
0.000137172
0.000135617
0.000134038
0.000132433
0.000130804
0.000129148
0.000127466
0.000125757
0.00012402
0.000122254
0.000120458
0.000118632
0.000116774
0.000114882
0.000112954
0.00011099
0.000108985
0.000106938
0.000104845
0.000102702
0.000100506
9.82531e-05
9.59524e-05
9.35893e-05
9.11338e-05
8.85699e-05
8.58767e-05
8.30253e-05
7.9978e-05
7.6682e-05
7.30897e-05
6.9117e-05
6.45398e-05
5.89369e-05
5.04899e-05
4.25785e-05
0.000158475
4.70458e-05
0.000355766
0.000570563
0.000716526
0.000826477
0.000916201
0.000992541
0.00105929
0.00111902
0.00117319
0.00122289
0.0012689
0.00131181
0.00135206
0.00139
0.00142592
0.00146003
0.00149251
0.00152351
0.00155314
0.00158151
0.00160871
0.00163479
0.00165983
0.00168387
0.00170697
0.00172915
0.00175047
0.00177095
0.00179062
0.00180951
0.00182764
0.00184504
0.00186174
0.00187774
0.00189308
0.00190777
0.00192184
0.00193529
0.00194815
0.00196044
0.00197217
0.00198337
0.00199403
0.00200419
0.00201385
0.00202303
0.00203175
0.00204001
0.00204783
0.00205523
0.00206219
0.00206871
0.00207468
0.00208025
0.00208546
0.00209032
0.00209485
0.00209905
0.00210295
0.00210655
0.00210986
0.00211288
0.00211562
0.0021181
0.00212031
0.00212227
0.00212399
0.00212546
0.00212669
0.00212769
0.00212847
0.00212903
0.00212937
0.0021295
0.00212943
0.00212915
0.00212868
0.00212801
0.00212715
0.0021261
0.00212487
0.00212346
0.00212186
0.0021201
0.00211816
0.00211605
0.00211377
0.00211133
0.00210872
0.00210595
0.00210302
0.00209993
0.00209668
0.00209328
0.00208973
0.00208602
0.00208216
0.00207815
0.00207399
0.00206967
0.00206521
0.00206061
0.00205585
0.00205095
0.0020459
0.0020407
0.00203535
0.00202986
0.00202422
0.00201843
0.00201249
0.0020064
0.00200017
0.00199378
0.00198725
0.00198056
0.00197371
0.00196672
0.00195957
0.00195226
0.00194479
0.00193716
0.00192938
0.00192143
0.00191331
0.00190503
0.00189659
0.00188797
0.00187918
0.00187022
0.00186108
0.00185176
0.00184227
0.00183259
0.00182273
0.00181268
0.00180244
0.00179201
0.00178139
0.00177058
0.00175956
0.00174835
0.00173693
0.00172531
0.00171349
0.00170145
0.0016892
0.00167674
0.00166406
0.00165116
0.00163804
0.00162469
0.00161112
0.00159732
0.00158329
0.00156903
0.00155452
0.00153978
0.00152479
0.00150956
0.00149407
0.00147833
0.00146234
0.00144608
0.00142955
0.00141275
0.00139567
0.00137831
0.00136065
0.00134268
0.00132441
0.00130581
0.00128687
0.00126758
0.00124792
0.00122787
0.0012074
0.00118648
0.00116508
0.00114316
0.00112066
0.00109752
0.00107365
0.0010489
0.00102309
0.000996099
0.000967848
0.000938159
0.000906742
0.000873177
0.000836847
0.000796693
0.000750662
0.000696725
0.000631772
0.000549093
0.000434869
0.000272569
0.000232615
4.70657e-05
0.000355823
0.000570611
0.000716575
0.000826529
0.000916253
0.000992592
0.00105935
0.00111907
0.00117324
0.00122294
0.00126895
0.00131185
0.0013521
0.00139005
0.00142596
0.00146007
0.00149255
0.00152355
0.00155318
0.00158155
0.00160874
0.00163483
0.00165986
0.0016839
0.001707
0.00172919
0.0017505
0.00177098
0.00179065
0.00180954
0.00182767
0.00184507
0.00186176
0.00187777
0.00189311
0.0019078
0.00192186
0.00193531
0.00194818
0.00196047
0.0019722
0.00198339
0.00199405
0.00200421
0.00201387
0.00202305
0.00203177
0.00204003
0.00204785
0.00205524
0.00206221
0.00206872
0.00207469
0.00208027
0.00208547
0.00209033
0.00209486
0.00209907
0.00210297
0.00210657
0.00210987
0.00211289
0.00211564
0.00211811
0.00212033
0.00212229
0.002124
0.00212547
0.00212671
0.00212771
0.00212849
0.00212904
0.00212939
0.00212952
0.00212944
0.00212917
0.00212869
0.00212802
0.00212716
0.00212611
0.00212488
0.00212347
0.00212188
0.00212011
0.00211817
0.00211606
0.00211378
0.00211134
0.00210873
0.00210596
0.00210303
0.00209994
0.0020967
0.00209329
0.00208974
0.00208603
0.00208217
0.00207816
0.002074
0.00206969
0.00206523
0.00206062
0.00205586
0.00205096
0.00204591
0.00204071
0.00203536
0.00202987
0.00202423
0.00201844
0.0020125
0.00200642
0.00200018
0.00199379
0.00198726
0.00198057
0.00197372
0.00196673
0.00195958
0.00195227
0.0019448
0.00193717
0.00192939
0.00192144
0.00191332
0.00190504
0.0018966
0.00188798
0.00187919
0.00187023
0.00186109
0.00185177
0.00184227
0.0018326
0.00182274
0.00181269
0.00180245
0.00179202
0.0017814
0.00177059
0.00175957
0.00174836
0.00173694
0.00172532
0.00171349
0.00170146
0.00168921
0.00167675
0.00166407
0.00165117
0.00163805
0.0016247
0.00161113
0.00159733
0.0015833
0.00156903
0.00155453
0.00153979
0.0015248
0.00150957
0.00149408
0.00147834
0.00146235
0.00144609
0.00142956
0.00141276
0.00139568
0.00137832
0.00136066
0.00134269
0.00132442
0.00130582
0.00128688
0.00126759
0.00124793
0.00122787
0.0012074
0.00118649
0.00116509
0.00114317
0.00112067
0.00109753
0.00107366
0.00104891
0.0010231
0.000996107
0.000967856
0.000938167
0.00090675
0.000873184
0.000836852
0.000796693
0.000750637
0.000696562
0.000630899
0.000544589
0.00041276
0.000193581
3.09356e-05
5.91636e-05
0.00054083
0.000966557
0.00128643
0.0015403
0.00175108
0.00193166
0.00208987
0.00223089
0.00235823
0.0024744
0.00258125
0.00268021
0.00277238
0.00285864
0.0029397
0.00301613
0.0030884
0.00315691
0.00322199
0.00328391
0.00334292
0.00339922
0.00345299
0.00350437
0.00355351
0.00360053
0.00364552
0.0036886
0.00372984
0.00376933
0.00380714
0.00384334
0.003878
0.00391116
0.0039429
0.00397326
0.00400229
0.00403005
0.00405657
0.00408191
0.00410609
0.00412917
0.00415118
0.00417216
0.00419214
0.00421116
0.00422924
0.00424642
0.00426271
0.00427815
0.00429275
0.00430649
0.00431934
0.00433135
0.00434264
0.00435324
0.00436318
0.00437248
0.00438116
0.00438925
0.00439676
0.0044037
0.0044101
0.00441597
0.00442132
0.00442616
0.00443051
0.00443438
0.00443777
0.00444071
0.0044432
0.00444525
0.00444686
0.00444805
0.00444883
0.0044492
0.00444917
0.00444874
0.00444793
0.00444673
0.00444516
0.00444322
0.00444092
0.00443825
0.00443523
0.00443186
0.00442814
0.00442407
0.00441967
0.00441493
0.00440986
0.00440445
0.00439872
0.00439266
0.00438628
0.00437958
0.00437256
0.00436522
0.00435756
0.00434959
0.0043413
0.0043327
0.00432378
0.00431455
0.00430501
0.00429516
0.00428499
0.00427451
0.00426371
0.0042526
0.00424117
0.00422942
0.00421735
0.00420496
0.00419225
0.00417921
0.00416585
0.00415215
0.00413812
0.00412375
0.00410905
0.004094
0.00407861
0.00406287
0.00404677
0.00403032
0.00401351
0.00399633
0.00397878
0.00396086
0.00394257
0.00392389
0.00390482
0.00388536
0.00386551
0.00384525
0.00382459
0.00380352
0.00378203
0.00376011
0.00373777
0.003715
0.00369178
0.00366813
0.00364402
0.00361946
0.00359443
0.00356894
0.00354297
0.00351652
0.00348959
0.00346216
0.00343423
0.00340579
0.00337683
0.00334734
0.00331733
0.00328677
0.00325565
0.00322397
0.00319172
0.00315887
0.00312543
0.00309136
0.00305667
0.00302131
0.00298529
0.00294857
0.00291113
0.00287293
0.00283395
0.00279415
0.00275348
0.0027119
0.00266935
0.00262577
0.00258107
0.00253517
0.00248796
0.00243931
0.00238907
0.00233704
0.00228299
0.0022266
0.00216751
0.00210532
0.00203956
0.00196958
0.00189443
0.00181288
0.00172318
0.00162271
0.0015076
0.00137222
0.00120905
0.00100348
0.000725032
0.000333725
4.44137e-05
5.91654e-05
0.000540872
0.000966632
0.00128653
0.0015404
0.0017512
0.00193177
0.00208999
0.00223101
0.00235835
0.00247451
0.00258136
0.00268032
0.00277248
0.00285874
0.0029398
0.00301622
0.00308849
0.003157
0.00322207
0.00328399
0.003343
0.0033993
0.00345306
0.00350444
0.00355357
0.00360059
0.00364558
0.00368865
0.00372989
0.00376938
0.00380719
0.00384339
0.00387804
0.0039112
0.00394294
0.0039733
0.00400233
0.00403008
0.0040566
0.00408193
0.00410612
0.0041292
0.00415121
0.00417218
0.00419216
0.00421118
0.00422926
0.00424643
0.00426273
0.00427817
0.00429276
0.0043065
0.00431935
0.00433136
0.00434265
0.00435325
0.00436319
0.00437249
0.00438117
0.00438926
0.00439676
0.00440371
0.00441011
0.00441597
0.00442132
0.00442616
0.00443051
0.00443438
0.00443778
0.00444071
0.0044432
0.00444525
0.00444686
0.00444805
0.00444883
0.0044492
0.00444917
0.00444874
0.00444793
0.00444673
0.00444516
0.00444322
0.00444092
0.00443825
0.00443523
0.00443186
0.00442814
0.00442407
0.00441967
0.00441493
0.00440985
0.00440445
0.00439872
0.00439266
0.00438628
0.00437958
0.00437255
0.00436521
0.00435756
0.00434958
0.0043413
0.0043327
0.00432378
0.00431455
0.00430501
0.00429516
0.00428499
0.00427451
0.00426371
0.0042526
0.00424117
0.00422942
0.00421735
0.00420496
0.00419225
0.00417921
0.00416584
0.00415215
0.00413812
0.00412375
0.00410905
0.004094
0.0040786
0.00406286
0.00404677
0.00403032
0.0040135
0.00399633
0.00397878
0.00396086
0.00394256
0.00392388
0.00390482
0.00388536
0.00386551
0.00384525
0.00382459
0.00380351
0.00378202
0.00376011
0.00373777
0.00371499
0.00369178
0.00366812
0.00364402
0.00361945
0.00359443
0.00356893
0.00354297
0.00351652
0.00348958
0.00346215
0.00343422
0.00340578
0.00337682
0.00334734
0.00331732
0.00328676
0.00325565
0.00322397
0.00319171
0.00315887
0.00312542
0.00309136
0.00305666
0.00302131
0.00298529
0.00294856
0.00291112
0.00287293
0.00283395
0.00279415
0.00275348
0.0027119
0.00266935
0.00262576
0.00258106
0.00253516
0.00248795
0.00243931
0.00238906
0.00233704
0.00228298
0.0022266
0.0021675
0.00210531
0.00203956
0.00196958
0.00189443
0.00181288
0.00172318
0.0016227
0.00150758
0.00137213
0.00120883
0.00100361
0.00073091
0.000353714
3.27359e-05
6.73662e-05
0.000647408
0.0012287
0.00169603
0.0020802
0.00240534
0.00268708
0.00293571
0.00315827
0.00335975
0.0035438
0.00371317
0.00386999
0.00401593
0.00415233
0.00428029
0.00440071
0.00451432
0.00462178
0.00472359
0.00482024
0.0049121
0.00499951
0.00508279
0.00516218
0.00523792
0.00531022
0.00537926
0.00544521
0.00550824
0.00556847
0.00562603
0.00568106
0.00573365
0.00578392
0.00583197
0.00587787
0.00592174
0.00596364
0.00600365
0.00604185
0.00607831
0.0061131
0.00614628
0.00617791
0.00620805
0.00623675
0.00626406
0.00629004
0.00631471
0.00633813
0.00636031
0.00638128
0.00640104
0.00641961
0.00643713
0.00645363
0.00646916
0.00648376
0.00649745
0.00651027
0.00652225
0.00653341
0.00654377
0.00655336
0.0065622
0.0065703
0.00657768
0.00658436
0.00659036
0.0065957
0.00660037
0.00660441
0.00660782
0.00661061
0.0066128
0.00661439
0.0066154
0.00661583
0.0066157
0.006615
0.00661376
0.00661198
0.00660966
0.00660681
0.00660344
0.00659955
0.00659514
0.00659024
0.00658483
0.00657892
0.00657252
0.00656563
0.00655825
0.00655039
0.00654205
0.00653323
0.00652394
0.00651417
0.00650393
0.00649322
0.00648204
0.00647039
0.00645827
0.00644568
0.00643262
0.0064191
0.0064051
0.00639063
0.00637569
0.00636028
0.00634439
0.00632802
0.00631116
0.00629383
0.00627601
0.00625769
0.00623888
0.00621958
0.00619977
0.00617945
0.00615862
0.00613727
0.00611541
0.00609301
0.00607008
0.00604661
0.00602259
0.00599802
0.00597289
0.0059472
0.00592093
0.00589408
0.00586664
0.00583861
0.00580997
0.00578072
0.00575085
0.00572036
0.00568922
0.00565745
0.00562501
0.00559191
0.00555814
0.00552369
0.00548854
0.00545269
0.00541613
0.00537884
0.00534082
0.00530205
0.00526252
0.00522221
0.00518112
0.00513923
0.00509652
0.00505298
0.0050086
0.00496334
0.0049172
0.00487015
0.00482217
0.00477323
0.00472331
0.00467238
0.0046204
0.00456734
0.00451315
0.00445779
0.00440121
0.00434336
0.00428416
0.00422356
0.00416145
0.00409776
0.00403237
0.00396516
0.00389598
0.00382467
0.00375103
0.00367481
0.00359575
0.00351348
0.0034276
0.0033376
0.00324285
0.00314262
0.00303598
0.00292174
0.00279831
0.00266358
0.0025147
0.00234776
0.00215743
0.00193636
0.00167491
0.00135951
0.000971281
0.000490135
5.24814e-05
6.73675e-05
0.00064745
0.00122879
0.00169615
0.00208035
0.0024055
0.00268725
0.00293588
0.00315844
0.00335992
0.00354397
0.00371334
0.00387015
0.00401609
0.00415249
0.00428044
0.00440085
0.00451446
0.00462191
0.00472372
0.00482036
0.00491221
0.00499962
0.00508289
0.00516228
0.00523801
0.0053103
0.00537934
0.00544529
0.00550831
0.00556854
0.0056261
0.00568112
0.00573371
0.00578398
0.00583202
0.00587792
0.00592178
0.00596368
0.00600369
0.00604188
0.00607834
0.00611313
0.0061463
0.00617793
0.00620807
0.00623677
0.00626408
0.00629005
0.00631473
0.00633814
0.00636032
0.00638129
0.00640105
0.00641962
0.00643713
0.00645363
0.00646916
0.00648376
0.00649745
0.00651027
0.00652225
0.00653341
0.00654377
0.00655336
0.00656219
0.00657029
0.00657767
0.00658436
0.00659036
0.00659569
0.00660036
0.0066044
0.00660781
0.0066106
0.00661279
0.00661438
0.00661539
0.00661582
0.00661568
0.00661499
0.00661375
0.00661197
0.00660964
0.0066068
0.00660342
0.00659953
0.00659513
0.00659022
0.00658481
0.00657891
0.0065725
0.00656561
0.00655824
0.00655038
0.00654204
0.00653322
0.00652392
0.00651416
0.00650391
0.0064932
0.00648202
0.00647037
0.00645825
0.00644566
0.00643261
0.00641908
0.00640508
0.00639062
0.00637568
0.00636026
0.00634437
0.006328
0.00631115
0.00629381
0.00627599
0.00625768
0.00623887
0.00621956
0.00619975
0.00617943
0.0061586
0.00613726
0.00611539
0.00609299
0.00607006
0.00604659
0.00602257
0.005998
0.00597287
0.00594718
0.00592091
0.00589406
0.00586662
0.00583859
0.00580995
0.0057807
0.00575084
0.00572034
0.00568921
0.00565743
0.00562499
0.0055919
0.00555813
0.00552367
0.00548853
0.00545268
0.00541611
0.00537883
0.0053408
0.00530203
0.0052625
0.00522219
0.0051811
0.00513921
0.0050965
0.00505297
0.00500858
0.00496332
0.00491718
0.00487013
0.00482215
0.00477322
0.0047233
0.00467236
0.00462038
0.00456732
0.00451313
0.00445777
0.0044012
0.00434334
0.00428415
0.00422354
0.00416144
0.00409774
0.00403236
0.00396515
0.00389597
0.00382466
0.00375101
0.0036748
0.00359573
0.00351347
0.00342759
0.00333758
0.00324284
0.00314261
0.00303597
0.00292173
0.0027983
0.00266357
0.00251469
0.00234775
0.00215741
0.00193628
0.00167456
0.00135815
0.000968157
0.000491975
5.11631e-05
7.38228e-05
0.000723576
0.00141846
0.00200247
0.00249516
0.00291902
0.00329036
0.00362066
0.00391807
0.00418854
0.0044365
0.00466533
0.00487767
0.00507562
0.00526085
0.00543477
0.00559852
0.00575305
0.00589919
0.00603763
0.00616896
0.00629372
0.00641235
0.00652526
0.00663281
0.0067353
0.00683303
0.00692626
0.00701523
0.00710014
0.0071812
0.0072586
0.0073325
0.00740307
0.00747046
0.0075348
0.00759624
0.00765489
0.00771087
0.00776431
0.0078153
0.00786395
0.00791035
0.00795459
0.00799677
0.00803695
0.00807523
0.00811167
0.00814633
0.00817929
0.00821059
0.00824028
0.00826841
0.00829501
0.00832012
0.00834382
0.00836621
0.00838733
0.00840724
0.00842598
0.00844358
0.00846008
0.00847551
0.00848992
0.00850332
0.00851575
0.00852723
0.00853778
0.00854743
0.0085562
0.00856411
0.00857118
0.00857742
0.00858285
0.00858749
0.00859135
0.00859445
0.00859679
0.00859839
0.00859927
0.00859942
0.00859887
0.00859762
0.00859568
0.00859305
0.00858975
0.00858578
0.00858116
0.00857588
0.00856995
0.00856337
0.00855616
0.00854832
0.00853984
0.00853074
0.00852102
0.00851067
0.00849971
0.00848814
0.00847595
0.00846315
0.00844973
0.00843571
0.00842108
0.00840583
0.00838998
0.00837351
0.00835643
0.00833874
0.00832043
0.00830149
0.00828194
0.00826176
0.00824095
0.00821951
0.00819742
0.0081747
0.00815133
0.0081273
0.00810262
0.00807726
0.00805124
0.00802454
0.00799715
0.00796906
0.00794027
0.00791078
0.00788056
0.00784961
0.00781793
0.0077855
0.00775231
0.00771836
0.00768362
0.0076481
0.00761178
0.00757465
0.00753669
0.0074979
0.00745826
0.00741777
0.0073764
0.00733414
0.00729099
0.00724692
0.00720192
0.00715598
0.00710908
0.0070612
0.00701232
0.00696244
0.00691153
0.00685956
0.00680653
0.0067524
0.00669715
0.00664076
0.00658321
0.00652445
0.00646447
0.00640323
0.00634069
0.00627681
0.00621155
0.00614486
0.00607669
0.00600698
0.00593568
0.0058627
0.00578797
0.00571141
0.0056329
0.00555235
0.00546962
0.00538458
0.00529705
0.00520685
0.00511375
0.00501752
0.00491783
0.00481436
0.00470666
0.00459425
0.00447651
0.00435273
0.004222
0.00408326
0.00393515
0.00377596
0.00360353
0.00341503
0.0032068
0.00297405
0.00271049
0.00240793
0.00205568
0.00164097
0.00114878
0.000572524
5.75295e-05
7.38243e-05
0.00072362
0.00141856
0.00200261
0.00249534
0.00291921
0.00329057
0.00362087
0.00391829
0.00418876
0.00443671
0.00466554
0.00487788
0.00507582
0.00526105
0.00543496
0.0055987
0.00575323
0.00589936
0.00603779
0.00616912
0.00629387
0.0064125
0.0065254
0.00663294
0.00673543
0.00683315
0.00692638
0.00701533
0.00710024
0.0071813
0.00725869
0.00733259
0.00740315
0.00747053
0.00753487
0.0075963
0.00765495
0.00771093
0.00776436
0.00781535
0.00786399
0.00791039
0.00795463
0.0079968
0.00803698
0.00807525
0.00811169
0.00814635
0.0081793
0.0082106
0.00824029
0.00826842
0.00829502
0.00832013
0.00834383
0.00836621
0.00838734
0.00840724
0.00842598
0.00844357
0.00846007
0.00847551
0.00848991
0.00850332
0.00851574
0.00852722
0.00853777
0.00854742
0.00855619
0.0085641
0.00857117
0.00857741
0.00858284
0.00858748
0.00859134
0.00859443
0.00859678
0.00859838
0.00859925
0.00859941
0.00859885
0.0085976
0.00859566
0.00859303
0.00858973
0.00858577
0.00858114
0.00857586
0.00856993
0.00856335
0.00855614
0.0085483
0.00853982
0.00853072
0.008521
0.00851065
0.00849969
0.00848812
0.00847593
0.00846313
0.00844971
0.00843569
0.00842106
0.00840581
0.00838996
0.00837349
0.00835641
0.00833872
0.0083204
0.00830147
0.00828192
0.00826174
0.00824093
0.00821948
0.0081974
0.00817468
0.00815131
0.00812728
0.00810259
0.00807724
0.00805122
0.00802451
0.00799712
0.00796904
0.00794025
0.00791075
0.00788054
0.00784959
0.00781791
0.00778548
0.00775229
0.00771833
0.0076836
0.00764808
0.00761176
0.00757462
0.00753667
0.00749788
0.00745824
0.00741774
0.00737637
0.00733412
0.00729096
0.00724689
0.0072019
0.00715595
0.00710905
0.00706117
0.0070123
0.00696242
0.0069115
0.00685954
0.0068065
0.00675237
0.00669713
0.00664074
0.00658318
0.00652443
0.00646445
0.0064032
0.00634066
0.00627678
0.00621152
0.00614483
0.00607667
0.00600696
0.00593565
0.00586268
0.00578795
0.00571138
0.00563288
0.00555233
0.0054696
0.00538455
0.00529703
0.00520682
0.00511373
0.00501749
0.00491781
0.00481433
0.00470664
0.00459423
0.00447649
0.00435271
0.00422199
0.00408324
0.00393513
0.00377595
0.00360352
0.00341502
0.00320679
0.00297404
0.00271048
0.00240792
0.00205565
0.00164078
0.00114798
0.000572311
5.73587e-05
7.93794e-05
0.000784964
0.0015674
0.00224389
0.00282546
0.00333234
0.00378066
0.00418236
0.00454619
0.00487869
0.00518479
0.00546829
0.00573219
0.00597885
0.00621023
0.00642789
0.00663317
0.00682717
0.00701083
0.00718497
0.0073503
0.00750741
0.00765686
0.00779912
0.00793462
0.00806374
0.00818684
0.00830424
0.00841623
0.00852307
0.00862502
0.0087223
0.00881515
0.00890376
0.00898833
0.00906903
0.00914605
0.00921953
0.00928964
0.00935652
0.00942032
0.00948116
0.00953917
0.00959447
0.00964717
0.00969738
0.0097452
0.00979072
0.00983403
0.00987522
0.00991436
0.00995152
0.00998677
0.0100202
0.0100518
0.0100816
0.0101098
0.0101365
0.0101617
0.0101855
0.0102078
0.0102289
0.0102486
0.010267
0.0102842
0.0103003
0.0103152
0.0103289
0.0103416
0.0103532
0.0103637
0.0103733
0.0103818
0.0103893
0.0103959
0.0104016
0.0104063
0.0104101
0.0104131
0.0104151
0.0104163
0.0104166
0.0104161
0.0104148
0.0104126
0.0104096
0.0104058
0.0104012
0.0103959
0.0103897
0.0103828
0.0103751
0.0103666
0.0103574
0.0103474
0.0103367
0.0103252
0.010313
0.0103
0.0102863
0.0102718
0.0102566
0.0102407
0.010224
0.0102066
0.0101885
0.0101696
0.0101499
0.0101296
0.0101084
0.0100866
0.0100639
0.0100405
0.0100164
0.00999142
0.00996571
0.00993922
0.00991194
0.00988386
0.00985498
0.00982529
0.00979477
0.00976343
0.00973125
0.00969822
0.00966433
0.00962958
0.00959394
0.00955741
0.00951997
0.00948162
0.00944234
0.00940212
0.00936094
0.00931879
0.00927565
0.00923152
0.00918637
0.00914019
0.00909296
0.00904467
0.0089953
0.00894482
0.00889323
0.0088405
0.00878662
0.00873156
0.0086753
0.00861781
0.00855908
0.00849908
0.00843779
0.00837517
0.00831119
0.00824584
0.00817907
0.00811084
0.00804113
0.00796989
0.00789708
0.00782265
0.00774656
0.00766874
0.00758913
0.00750768
0.00742431
0.00733893
0.00725147
0.00716183
0.00706989
0.00697554
0.00687865
0.00677905
0.00667658
0.00657105
0.00646223
0.00634986
0.00623366
0.00611328
0.00598833
0.00585833
0.00572273
0.00558087
0.00543198
0.0052751
0.00510909
0.00493255
0.00474377
0.00454062
0.00432042
0.00407981
0.00381453
0.0035192
0.003187
0.00280941
0.00237588
0.0018743
0.00129256
0.000632654
6.18596e-05
7.93811e-05
0.00078501
0.00156751
0.00224404
0.00282565
0.00333255
0.00378089
0.0041826
0.00454644
0.00487894
0.00518504
0.00546854
0.00573243
0.00597909
0.00621046
0.00642812
0.00663339
0.00682738
0.00701104
0.00718517
0.00735049
0.00750759
0.00765703
0.00779928
0.00793478
0.0080639
0.00818699
0.00830438
0.00841636
0.00852319
0.00862513
0.00872242
0.00881526
0.00890386
0.00898842
0.00906912
0.00914613
0.0092196
0.00928971
0.00935659
0.00942038
0.00948121
0.00953922
0.00959451
0.00964721
0.00969742
0.00974523
0.00979075
0.00983406
0.00987525
0.00991438
0.00995154
0.00998679
0.0100202
0.0100518
0.0100816
0.0101099
0.0101365
0.0101617
0.0101855
0.0102078
0.0102289
0.0102486
0.010267
0.0102842
0.0103003
0.0103152
0.0103289
0.0103416
0.0103532
0.0103637
0.0103732
0.0103818
0.0103893
0.0103959
0.0104016
0.0104063
0.0104101
0.0104131
0.0104151
0.0104163
0.0104166
0.0104161
0.0104147
0.0104126
0.0104096
0.0104058
0.0104012
0.0103958
0.0103897
0.0103828
0.0103751
0.0103666
0.0103574
0.0103474
0.0103367
0.0103252
0.0103129
0.0103
0.0102863
0.0102718
0.0102566
0.0102407
0.010224
0.0102066
0.0101884
0.0101696
0.0101499
0.0101295
0.0101084
0.0100865
0.0100639
0.0100405
0.0100163
0.0099914
0.00996569
0.0099392
0.00991192
0.00988384
0.00985496
0.00982526
0.00979475
0.00976341
0.00973123
0.0096982
0.00966431
0.00962955
0.00959391
0.00955738
0.00951995
0.0094816
0.00944231
0.00940209
0.00936091
0.00931876
0.00927563
0.00923149
0.00918634
0.00914016
0.00909293
0.00904464
0.00899527
0.0089448
0.00889321
0.00884048
0.00878659
0.00873153
0.00867527
0.00861778
0.00855905
0.00849905
0.00843776
0.00837514
0.00831117
0.00824581
0.00817904
0.00811082
0.0080411
0.00796987
0.00789706
0.00782263
0.00774653
0.00766871
0.00758911
0.00750765
0.00742428
0.00733891
0.00725145
0.0071618
0.00706987
0.00697552
0.00687862
0.00677902
0.00667656
0.00657102
0.0064622
0.00634984
0.00623364
0.00611326
0.0059883
0.0058583
0.00572271
0.00558085
0.00543196
0.00527508
0.00510907
0.00493253
0.00474376
0.0045406
0.00432041
0.0040798
0.00381452
0.00351919
0.003187
0.0028094
0.00237587
0.00187428
0.00129244
0.000632569
6.18403e-05
8.44575e-05
0.000837639
0.00169104
0.00244244
0.00309712
0.0036735
0.0041873
0.00465061
0.00507251
0.00545986
0.00581794
0.00615081
0.0064617
0.00675319
0.00702735
0.0072859
0.00753028
0.00776169
0.00798116
0.00818956
0.00838767
0.00857616
0.00875563
0.00892659
0.00908954
0.0092449
0.00939307
0.00953442
0.00966927
0.00979793
0.00992071
0.0100379
0.0101497
0.0102563
0.0103581
0.0104552
0.0105479
0.0106362
0.0107205
0.0108009
0.0108776
0.0109506
0.0110203
0.0110867
0.0111499
0.0112102
0.0112676
0.0113222
0.0113741
0.0114236
0.0114705
0.0115152
0.0115575
0.0115977
0.0116357
0.0116717
0.0117057
0.011738
0.0117684
0.0117972
0.0118243
0.0118498
0.0118737
0.0118962
0.0119172
0.0119369
0.0119552
0.0119721
0.0119878
0.0120022
0.0120154
0.0120274
0.0120383
0.012048
0.0120566
0.0120641
0.0120705
0.0120759
0.0120802
0.0120835
0.0120858
0.0120871
0.0120875
0.0120868
0.0120853
0.0120827
0.0120793
0.0120749
0.0120696
0.0120634
0.0120563
0.0120484
0.0120395
0.0120297
0.0120191
0.0120076
0.0119953
0.011982
0.011968
0.011953
0.0119372
0.0119206
0.0119031
0.0118847
0.0118655
0.0118454
0.0118244
0.0118026
0.01178
0.0117564
0.011732
0.0117067
0.0116806
0.0116535
0.0116255
0.0115967
0.0115669
0.0115362
0.0115046
0.011472
0.0114385
0.0114041
0.0113686
0.0113322
0.0112948
0.0112564
0.011217
0.0111766
0.0111351
0.0110925
0.0110489
0.0110042
0.0109583
0.0109114
0.0108633
0.010814
0.0107636
0.010712
0.0106591
0.010605
0.0105497
0.010493
0.0104351
0.0103758
0.0103152
0.0102532
0.0101898
0.010125
0.0100587
0.00999095
0.00992165
0.00985079
0.00977834
0.00970427
0.00962852
0.00955106
0.00947184
0.00939082
0.00930795
0.00922316
0.0091364
0.00904761
0.00895671
0.00886362
0.00876827
0.00867056
0.00857038
0.00846764
0.00836219
0.00825392
0.00814266
0.00802825
0.00791049
0.00778917
0.00766404
0.00753483
0.00740121
0.00726282
0.00711923
0.00696995
0.0068144
0.00665191
0.00648166
0.0063027
0.00611389
0.00591385
0.00570091
0.00547304
0.00522776
0.004962
0.00467197
0.004353
0.00399931
0.00360381
0.00315792
0.00265147
0.00207331
0.0014142
0.000682917
6.57338e-05
8.44593e-05
0.000837686
0.00169115
0.0024426
0.00309732
0.00367372
0.00418755
0.00465087
0.00507278
0.00546014
0.00581821
0.00615109
0.00646198
0.00675345
0.00702761
0.00728615
0.00753053
0.00776193
0.00798139
0.00818979
0.00838789
0.00857637
0.00875583
0.00892678
0.00908972
0.00924508
0.00939324
0.00953457
0.00966942
0.00979808
0.00992084
0.010038
0.0101498
0.0102564
0.0103582
0.0104553
0.010548
0.0106363
0.0107206
0.010801
0.0108776
0.0109507
0.0110204
0.0110867
0.01115
0.0112102
0.0112676
0.0113222
0.0113742
0.0114236
0.0114706
0.0115152
0.0115575
0.0115977
0.0116357
0.0116717
0.0117058
0.011738
0.0117684
0.0117972
0.0118243
0.0118498
0.0118737
0.0118962
0.0119172
0.0119369
0.0119551
0.0119721
0.0119878
0.0120022
0.0120154
0.0120274