/*--------------------------------*- C++ -*----------------------------------*\
  =========                 |
  \\      /  F ield         | OpenFOAM: The Open Source CFD Toolbox
   \\    /   O peration     | Website:  https://openfoam.org
    \\  /    A nd           | Version:  8
     \\/     M anipulation  |
\*---------------------------------------------------------------------------*/
FoamFile
{
    version     2.0;
    format      ascii;
    class       volVectorField;
    location    "1600";
    object      U;
}
// * * * * * * * * * * * * * * * * * * * * * * * * * * * * * * * * * * * * * //

dimensions      [0 1 -1 0 0 0 0];

internalField   nonuniform List<vector> 
48000
(
(-0.0127678 -8.47733e-08 0.0141155)
(-0.0201359 -1.76322e-07 0.0099066)
(-0.027956 -1.91529e-07 0.0022251)
(-0.0255451 -2.32874e-07 -0.00325684)
(-0.0195509 -2.89034e-07 -0.00668499)
(-0.0105983 -3.19835e-07 -0.00875272)
(8.34786e-05 -3.33344e-07 -0.00989244)
(0.0116659 -3.19334e-07 -0.0103477)
(0.0235581 -3.00205e-07 -0.0103962)
(0.0355407 -2.81854e-07 -0.0102352)
(0.0473688 -2.56284e-07 -0.00994959)
(0.0589207 -2.30752e-07 -0.00959153)
(0.0701158 -2.09621e-07 -0.00919384)
(0.0809058 -1.91799e-07 -0.00877733)
(0.0912632 -1.79833e-07 -0.00835535)
(0.101175 -1.76113e-07 -0.00793642)
(0.110638 -1.75816e-07 -0.00752589)
(0.119655 -1.71617e-07 -0.00712702)
(0.128233 -1.61862e-07 -0.00674167)
(0.136382 -1.49862e-07 -0.00637078)
(0.144113 -1.3748e-07 -0.00601468)
(0.15144 -1.23127e-07 -0.00567325)
(0.158376 -1.06093e-07 -0.00534616)
(0.164932 -8.92838e-08 -0.00503292)
(0.171124 -7.67959e-08 -0.00473296)
(0.176963 -6.99314e-08 -0.00444568)
(0.182462 -6.70188e-08 -0.00417045)
(0.187634 -6.59756e-08 -0.00390669)
(0.192489 -6.64858e-08 -0.00365382)
(0.19704 -6.91737e-08 -0.00341133)
(0.201298 -7.33617e-08 -0.00317872)
(0.205273 -7.67731e-08 -0.00295556)
(0.208976 -7.65903e-08 -0.00274142)
(0.212416 -7.16104e-08 -0.00253594)
(0.215604 -6.29069e-08 -0.00233879)
(0.218549 -5.30385e-08 -0.00214968)
(0.221261 -4.43274e-08 -0.00196835)
(0.223747 -3.77218e-08 -0.00179455)
(0.226018 -3.28256e-08 -0.00162805)
(0.228082 -2.89232e-08 -0.00146865)
(0.229946 -2.60144e-08 -0.00131616)
(0.231621 -2.48037e-08 -0.00117039)
(0.233112 -2.61172e-08 -0.00103116)
(0.23443 -2.99093e-08 -0.000898306)
(0.235581 -3.47788e-08 -0.000771648)
(0.236573 -3.8586e-08 -0.00065101)
(0.237413 -3.95531e-08 -0.000536214)
(0.238108 -3.70555e-08 -0.000427083)
(0.238666 -3.19005e-08 -0.000323443)
(0.239094 -2.57366e-08 -0.000225125)
(0.239397 -2.02046e-08 -0.000131959)
(0.239583 -1.61804e-08 -4.37692e-05)
(0.239657 -1.37095e-08 3.97909e-05)
(0.239625 -1.2316e-08 0.00011879)
(0.239494 -1.16079e-08 0.00019313)
(0.239269 -1.15546e-08 0.000263039)
(0.238954 -1.25026e-08 0.00032878)
(0.238557 -1.48174e-08 0.000390554)
(0.23808 -1.85676e-08 0.000448543)
(0.23753 -2.33076e-08 0.000502918)
(0.236911 -2.8139e-08 0.000553847)
(0.236226 -3.20947e-08 0.000601495)
(0.235481 -3.45238e-08 0.000646027)
(0.234679 -3.53005e-08 0.000687602)
(0.233823 -3.49235e-08 0.000726373)
(0.232918 -3.42992e-08 0.000762489)
(0.231967 -3.43372e-08 0.00079609)
(0.230972 -3.5666e-08 0.000827313)
(0.229937 -3.8411e-08 0.000856289)
(0.228865 -4.22144e-08 0.000883145)
(0.227758 -4.63986e-08 0.000908007)
(0.226619 -5.01373e-08 0.000930994)
(0.22545 -5.28633e-08 0.000952224)
(0.224253 -5.43101e-08 0.000971808)
(0.223031 -5.46184e-08 0.000989854)
(0.221786 -5.42453e-08 0.00100646)
(0.220518 -5.37428e-08 0.00102173)
(0.219231 -5.36628e-08 0.00103575)
(0.217925 -5.42986e-08 0.0010486)
(0.216602 -5.56921e-08 0.00106037)
(0.215263 -5.75386e-08 0.00107114)
(0.21391 -5.94498e-08 0.00108098)
(0.212543 -6.08395e-08 0.00108996)
(0.211165 -6.12126e-08 0.00109815)
(0.209775 -6.02646e-08 0.00110562)
(0.208375 -5.78813e-08 0.00111243)
(0.206966 -5.4234e-08 0.00111863)
(0.205548 -4.96691e-08 0.00112428)
(0.204123 -4.46626e-08 0.00112944)
(0.20269 -3.97665e-08 0.00113415)
(0.20125 -3.54605e-08 0.00113845)
(0.199804 -3.2152e-08 0.00114239)
(0.198352 -3.00276e-08 0.00114601)
(0.196895 -2.91329e-08 0.00114933)
(0.195433 -2.93499e-08 0.00115241)
(0.193966 -3.03322e-08 0.00115527)
(0.192495 -3.17256e-08 0.00115795)
(0.191019 -3.30505e-08 0.00116047)
(0.18954 -3.38843e-08 0.00116287)
(0.188057 -3.38767e-08 0.00116518)
(0.18657 -3.27269e-08 0.00116743)
(0.18508 -3.03208e-08 0.00116963)
(0.183586 -2.67229e-08 0.00117183)
(0.182089 -2.21695e-08 0.00117404)
(0.180588 -1.70145e-08 0.00117629)
(0.179084 -1.17415e-08 0.0011786)
(0.177576 -6.92153e-09 0.00118099)
(0.176064 -3.09526e-09 0.00118349)
(0.174549 -6.54826e-10 0.00118611)
(0.173029 1.10426e-10 0.00118889)
(0.171505 -8.64226e-10 0.00119184)
(0.169977 -3.33893e-09 0.00119498)
(0.168443 -6.9063e-09 0.00119835)
(0.166905 -1.106e-08 0.00120197)
(0.165362 -1.51071e-08 0.00120586)
(0.163813 -1.85336e-08 0.00121005)
(0.162257 -2.08484e-08 0.00121456)
(0.160696 -2.18992e-08 0.00121944)
(0.159127 -2.1804e-08 0.00122469)
(0.157552 -2.08103e-08 0.00123035)
(0.155968 -1.94435e-08 0.00123643)
(0.154376 -1.81567e-08 0.00124298)
(0.152775 -1.73229e-08 0.00125)
(0.151165 -1.71401e-08 0.00125752)
(0.149544 -1.75399e-08 0.00126557)
(0.147913 -1.82366e-08 0.00127418)
(0.14627 -1.89372e-08 0.00128336)
(0.144614 -1.93407e-08 0.00129315)
(0.142946 -1.93636e-08 0.00130358)
(0.141264 -1.92798e-08 0.00131467)
(0.139567 -1.94359e-08 0.00132646)
(0.137855 -2.04753e-08 0.00133896)
(0.136127 -2.27787e-08 0.00135222)
(0.134381 -2.65021e-08 0.00136624)
(0.132617 -3.13602e-08 0.00138106)
(0.130833 -3.67702e-08 0.0013967)
(0.12903 -4.18491e-08 0.00141319)
(0.127205 -4.58467e-08 0.00143055)
(0.125359 -4.82795e-08 0.0014488)
(0.123489 -4.90105e-08 0.00146799)
(0.121594 -4.8348e-08 0.00148813)
(0.119674 -4.66843e-08 0.00150925)
(0.117727 -4.43809e-08 0.00153137)
(0.115753 -4.1476e-08 0.00155452)
(0.113749 -3.80076e-08 0.00157874)
(0.111715 -3.3991e-08 0.00160403)
(0.10965 -2.97459e-08 0.00163042)
(0.107551 -2.59082e-08 0.00165794)
(0.105419 -2.32812e-08 0.00168661)
(0.103251 -2.22837e-08 0.00171644)
(0.101046 -2.26911e-08 0.00174744)
(0.0988032 -2.3582e-08 0.00177965)
(0.096521 -2.36886e-08 0.00181307)
(0.0941981 -2.22076e-08 0.00184771)
(0.0918331 -1.91961e-08 0.00188359)
(0.0894249 -1.56706e-08 0.00192071)
(0.086972 -1.26971e-08 0.00195906)
(0.0844733 -1.06869e-08 0.00199863)
(0.0819275 -8.74521e-09 0.00203941)
(0.0793335 -5.40627e-09 0.00208135)
(0.0766902 1.82747e-10 0.00212444)
(0.0739965 7.13856e-09 0.00216861)
(0.0712516 1.33139e-08 0.0022138)
(0.0684546 1.6729e-08 0.00225991)
(0.0656049 1.76465e-08 0.00230683)
(0.0627022 1.88153e-08 0.00235442)
(0.059746 2.31975e-08 0.00240253)
(0.0567366 3.11355e-08 0.00245096)
(0.0536741 3.93211e-08 0.00249949)
(0.0505593 4.37603e-08 0.00254782)
(0.0473931 4.36994e-08 0.00259562)
(0.0441771 4.3273e-08 0.00264248)
(0.0409135 4.77884e-08 0.00268794)
(0.0376049 5.76263e-08 0.00273145)
(0.0342548 6.7053e-08 0.00277233)
(0.0308676 7.07308e-08 0.00280982)
(0.0274487 7.12029e-08 0.00284296)
(0.0240046 7.77209e-08 0.00287065)
(0.0205433 9.49296e-08 0.00289158)
(0.0170745 1.15732e-07 0.00290418)
(0.0136097 1.29324e-07 0.00290655)
(0.010163 1.37517e-07 0.00289636)
(0.00675047 1.54551e-07 0.00287073)
(0.00339584 1.87857e-07 0.0028259)
(0.000116699 2.24436e-07 0.00275245)
(-0.00305196 2.55556e-07 0.00263967)
(-0.00606418 2.99378e-07 0.00248686)
(-0.0088871 3.74464e-07 0.0022936)
(-0.0114638 4.69637e-07 0.00205132)
(-0.0137328 5.7266e-07 0.00174658)
(-0.0156158 7.08113e-07 0.00136435)
(-0.0170178 9.04383e-07 0.000886127)
(-0.0178245 1.19089e-06 0.000288724)
(-0.0178969 1.74556e-06 -0.00044848)
(-0.0170807 2.89713e-06 -0.001337)
(-0.0152085 4.62654e-06 -0.00236649)
(-0.0123223 8.05605e-06 -0.0034586)
(-0.00793125 -8.57352e-06 -0.00431353)
(-0.00320643 -2.29589e-05 -0.00345109)
(-0.00129216 -2.19241e-05 -0.00109491)
(-0.012768 -8.47843e-08 0.0141152)
(-0.0201363 -1.76337e-07 0.00990579)
(-0.027956 -1.91527e-07 0.00222449)
(-0.0255446 -2.32865e-07 -0.00325731)
(-0.0195504 -2.89023e-07 -0.00668539)
(-0.0105977 -3.19825e-07 -0.00875304)
(8.407e-05 -3.33333e-07 -0.0098927)
(0.0116664 -3.19323e-07 -0.010348)
(0.0235586 -3.00197e-07 -0.0103964)
(0.0355411 -2.81847e-07 -0.0102354)
(0.0473691 -2.56278e-07 -0.00994976)
(0.0589209 -2.30747e-07 -0.00959171)
(0.0701159 -2.09617e-07 -0.00919401)
(0.0809057 -1.91796e-07 -0.00877749)
(0.0912631 -1.7983e-07 -0.00835551)
(0.101175 -1.76111e-07 -0.00793657)
(0.110638 -1.75814e-07 -0.00752602)
(0.119655 -1.71614e-07 -0.00712712)
(0.128232 -1.6186e-07 -0.00674176)
(0.136381 -1.4986e-07 -0.00637085)
(0.144113 -1.37479e-07 -0.00601472)
(0.15144 -1.23126e-07 -0.00567328)
(0.158375 -1.06092e-07 -0.00534618)
(0.164932 -8.9283e-08 -0.00503294)
(0.171124 -7.67952e-08 -0.00473298)
(0.176963 -6.99308e-08 -0.00444569)
(0.182462 -6.70183e-08 -0.00417046)
(0.187633 -6.59751e-08 -0.0039067)
(0.192489 -6.64853e-08 -0.00365383)
(0.19704 -6.91733e-08 -0.00341133)
(0.201297 -7.33613e-08 -0.00317872)
(0.205272 -7.67726e-08 -0.00295554)
(0.208975 -7.65898e-08 -0.00274138)
(0.212416 -7.161e-08 -0.00253589)
(0.215604 -6.29066e-08 -0.00233873)
(0.218549 -5.30382e-08 -0.00214962)
(0.22126 -4.43272e-08 -0.00196828)
(0.223747 -3.77216e-08 -0.00179448)
(0.226018 -3.28255e-08 -0.00162798)
(0.228081 -2.89231e-08 -0.00146858)
(0.229946 -2.60143e-08 -0.00131609)
(0.23162 -2.48036e-08 -0.00117033)
(0.233112 -2.61171e-08 -0.0010311)
(0.23443 -2.99092e-08 -0.000898252)
(0.23558 -3.47787e-08 -0.000771592)
(0.236572 -3.85859e-08 -0.000650949)
(0.237412 -3.9553e-08 -0.000536146)
(0.238108 -3.70554e-08 -0.00042701)
(0.238666 -3.19004e-08 -0.000323369)
(0.239094 -2.57365e-08 -0.000225051)
(0.239397 -2.02046e-08 -0.000131889)
(0.239583 -1.61803e-08 -4.37046e-05)
(0.239657 -1.37094e-08 3.98493e-05)
(0.239625 -1.2316e-08 0.000118842)
(0.239494 -1.16078e-08 0.000193175)
(0.239268 -1.15546e-08 0.000263076)
(0.238954 -1.25026e-08 0.000328807)
(0.238556 -1.48174e-08 0.000390573)
(0.23808 -1.85675e-08 0.000448554)
(0.23753 -2.33075e-08 0.000502923)
(0.23691 -2.81389e-08 0.000553849)
(0.236226 -3.20947e-08 0.000601496)
(0.235481 -3.45237e-08 0.000646028)
(0.234678 -3.53004e-08 0.000687603)
(0.233823 -3.49235e-08 0.000726374)
(0.232918 -3.42991e-08 0.000762487)
(0.231967 -3.43372e-08 0.000796086)
(0.230972 -3.56659e-08 0.000827306)
(0.229937 -3.84109e-08 0.000856279)
(0.228865 -4.22143e-08 0.000883135)
(0.227758 -4.63985e-08 0.000907998)
(0.226619 -5.01372e-08 0.000930989)
(0.22545 -5.28632e-08 0.000952223)
(0.224253 -5.43099e-08 0.000971813)
(0.223031 -5.46183e-08 0.000989865)
(0.221785 -5.42452e-08 0.00100648)
(0.220518 -5.37427e-08 0.00102175)
(0.21923 -5.36627e-08 0.00103577)
(0.217924 -5.42985e-08 0.00104863)
(0.216601 -5.5692e-08 0.0010604)
(0.215263 -5.75385e-08 0.00107117)
(0.21391 -5.94497e-08 0.00108101)
(0.212543 -6.08394e-08 0.00109)
(0.211165 -6.12125e-08 0.0010982)
(0.209775 -6.02645e-08 0.00110567)
(0.208375 -5.78812e-08 0.00111248)
(0.206966 -5.42338e-08 0.00111869)
(0.205548 -4.9669e-08 0.00112434)
(0.204122 -4.46625e-08 0.0011295)
(0.202689 -3.97664e-08 0.00113421)
(0.20125 -3.54604e-08 0.00113851)
(0.199804 -3.21519e-08 0.00114244)
(0.198352 -3.00275e-08 0.00114605)
(0.196895 -2.91328e-08 0.00114938)
(0.195432 -2.93498e-08 0.00115245)
(0.193966 -3.03321e-08 0.00115531)
(0.192494 -3.17256e-08 0.00115799)
(0.191019 -3.30505e-08 0.00116051)
(0.18954 -3.38843e-08 0.00116291)
(0.188057 -3.38766e-08 0.00116522)
(0.18657 -3.27269e-08 0.00116747)
(0.18508 -3.03207e-08 0.00116968)
(0.183586 -2.67229e-08 0.00117188)
(0.182089 -2.21694e-08 0.00117409)
(0.180588 -1.70145e-08 0.00117634)
(0.179084 -1.17415e-08 0.00117864)
(0.177576 -6.92151e-09 0.00118103)
(0.176064 -3.09525e-09 0.00118352)
(0.174549 -6.54825e-10 0.00118614)
(0.173029 1.10426e-10 0.0011889)
(0.171505 -8.64225e-10 0.00119184)
(0.169976 -3.33892e-09 0.00119498)
(0.168443 -6.90629e-09 0.00119834)
(0.166905 -1.106e-08 0.00120195)
(0.165362 -1.51071e-08 0.00120584)
(0.163813 -1.85336e-08 0.00121003)
(0.162257 -2.08483e-08 0.00121455)
(0.160696 -2.18991e-08 0.00121943)
(0.159127 -2.1804e-08 0.00122469)
(0.157552 -2.08103e-08 0.00123035)
(0.155968 -1.94435e-08 0.00123644)
(0.154376 -1.81566e-08 0.00124299)
(0.152775 -1.73229e-08 0.00125002)
(0.151165 -1.71401e-08 0.00125754)
(0.149544 -1.75399e-08 0.00126559)
(0.147912 -1.82366e-08 0.00127419)
(0.146269 -1.89371e-08 0.00128337)
(0.144614 -1.93407e-08 0.00129316)
(0.142946 -1.93635e-08 0.00130359)
(0.141264 -1.92798e-08 0.00131468)
(0.139567 -1.94359e-08 0.00132647)
(0.137855 -2.04752e-08 0.00133897)
(0.136126 -2.27786e-08 0.00135222)
(0.134381 -2.65021e-08 0.00136625)
(0.132617 -3.13601e-08 0.00138107)
(0.130833 -3.67702e-08 0.00139671)
(0.12903 -4.1849e-08 0.0014132)
(0.127205 -4.58466e-08 0.00143056)
(0.125359 -4.82794e-08 0.00144883)
(0.123489 -4.90104e-08 0.00146802)
(0.121594 -4.83479e-08 0.00148817)
(0.119674 -4.66842e-08 0.00150929)
(0.117727 -4.43808e-08 0.00153142)
(0.115753 -4.14759e-08 0.00155458)
(0.113749 -3.80075e-08 0.00157879)
(0.111715 -3.39909e-08 0.00160408)
(0.10965 -2.97458e-08 0.00163048)
(0.107551 -2.59082e-08 0.00165799)
(0.105419 -2.32812e-08 0.00168666)
(0.103251 -2.22837e-08 0.00171648)
(0.101046 -2.2691e-08 0.00174748)
(0.0988032 -2.35819e-08 0.00177969)
(0.096521 -2.36885e-08 0.0018131)
(0.0941981 -2.22075e-08 0.00184775)
(0.0918331 -1.9196e-08 0.00188363)
(0.0894249 -1.56705e-08 0.00192075)
(0.086972 -1.26971e-08 0.0019591)
(0.0844733 -1.06869e-08 0.00199867)
(0.0819275 -8.74519e-09 0.00203945)
(0.0793335 -5.40626e-09 0.0020814)
(0.0766902 1.82747e-10 0.00212449)
(0.0739965 7.13854e-09 0.00216866)
(0.0712516 1.33139e-08 0.00221384)
(0.0684546 1.67289e-08 0.00225995)
(0.065605 1.76465e-08 0.00230686)
(0.0627022 1.88153e-08 0.00235445)
(0.0597461 2.31974e-08 0.00240256)
(0.0567366 3.11355e-08 0.00245099)
(0.0536742 3.9321e-08 0.00249951)
(0.0505593 4.37602e-08 0.00254784)
(0.0473931 4.36993e-08 0.00259563)
(0.0441772 4.32729e-08 0.00264249)
(0.0409135 4.77882e-08 0.00268795)
(0.037605 5.76261e-08 0.00273145)
(0.0342549 6.70528e-08 0.00277234)
(0.0308677 7.07305e-08 0.00280982)
(0.0274488 7.12026e-08 0.00284296)
(0.0240048 7.77206e-08 0.00287065)
(0.0205435 9.49292e-08 0.00289159)
(0.0170748 1.15732e-07 0.0029042)
(0.01361 1.29324e-07 0.00290657)
(0.0101634 1.37517e-07 0.0028964)
(0.0067509 1.5455e-07 0.00287078)
(0.00339637 1.87856e-07 0.00282597)
(0.000117336 2.24436e-07 0.00275255)
(-0.00305121 2.55556e-07 0.00263979)
(-0.00606329 2.99377e-07 0.002487)
(-0.00888602 3.74464e-07 0.00229377)
(-0.0114625 4.69637e-07 0.00205153)
(-0.0137312 5.72661e-07 0.00174684)
(-0.0156139 7.08115e-07 0.00136469)
(-0.0170156 9.04385e-07 0.000886629)
(-0.0178219 1.19089e-06 0.000289443)
(-0.0178935 1.74553e-06 -0.000447535)
(-0.0170763 2.89677e-06 -0.00133576)
(-0.0152007 4.6231e-06 -0.00236493)
(-0.0123329 8.02203e-06 -0.00346004)
(-0.00786431 -8.08901e-06 -0.00434041)
(-0.00325848 -2.03514e-05 -0.00352966)
(-0.00127854 -1.86364e-05 -0.00132232)
(-0.00793625 5.4089e-08 0.0230446)
(-0.00857173 -1.44504e-08 0.0119282)
(-0.00625421 -1.00119e-08 0.00115064)
(-0.00143895 -1.60008e-08 -0.00736783)
(0.0050699 -2.15128e-08 -0.0130905)
(0.0129589 -2.28344e-08 -0.0167204)
(0.0218053 -1.74225e-08 -0.0188558)
(0.0312749 -1.22732e-08 -0.019948)
(0.0410959 -9.15705e-09 -0.0203552)
(0.0510631 -6.64528e-09 -0.0203267)
(0.0610164 -4.95017e-09 -0.0200129)
(0.0708447 -4.10979e-09 -0.0195156)
(0.0804689 -3.09426e-09 -0.0189017)
(0.0898342 -2.44042e-09 -0.0182167)
(0.0989038 -3.56841e-09 -0.0174911)
(0.107654 -5.75768e-09 -0.0167462)
(0.116069 -6.75144e-09 -0.0159963)
(0.124144 -5.75491e-09 -0.0152513)
(0.131874 -3.82368e-09 -0.0145177)
(0.139261 -1.8953e-09 -0.0137999)
(0.146309 3.07201e-10 -0.0131006)
(0.153023 3.24547e-09 -0.0124214)
(0.15941 6.44073e-09 -0.0117632)
(0.165477 8.83645e-09 -0.0111262)
(0.171233 9.87106e-09 -0.0105103)
(0.176685 9.92339e-09 -0.00991538)
(0.181843 9.68921e-09 -0.00934086)
(0.186714 9.44743e-09 -0.00878625)
(0.191308 8.97435e-09 -0.00825099)
(0.195632 8.11959e-09 -0.00773453)
(0.199695 7.21153e-09 -0.0072363)
(0.203506 6.9688e-09 -0.00675581)
(0.207072 7.90633e-09 -0.00629254)
(0.210402 9.9337e-09 -0.00584605)
(0.213503 1.23837e-08 -0.00541592)
(0.216384 1.45167e-08 -0.00500177)
(0.219051 1.5953e-08 -0.00460323)
(0.221513 1.67858e-08 -0.00421997)
(0.223776 1.73283e-08 -0.00385167)
(0.225849 1.77833e-08 -0.00349802)
(0.227738 1.80202e-08 -0.00315871)
(0.22945 1.77823e-08 -0.00283347)
(0.230992 1.69209e-08 -0.002522)
(0.232372 1.56292e-08 -0.00222401)
(0.233596 1.43747e-08 -0.00193919)
(0.234671 1.36818e-08 -0.00166724)
(0.235602 1.37969e-08 -0.00140784)
(0.236397 1.46193e-08 -0.00116068)
(0.237062 1.57367e-08 -0.000925434)
(0.237602 1.66914e-08 -0.000701753)
(0.238024 1.71882e-08 -0.000489293)
(0.238333 1.71758e-08 -0.000287693)
(0.238534 1.68008e-08 -9.65784e-05)
(0.238634 1.6223e-08 8.4333e-05)
(0.238637 1.5531e-08 0.000255263)
(0.238549 1.47096e-08 0.000416582)
(0.238373 1.36616e-08 0.000568719)
(0.238116 1.23348e-08 0.000712062)
(0.237781 1.07843e-08 0.000846985)
(0.237373 9.18046e-09 0.000973854)
(0.236896 7.76225e-09 0.00109303)
(0.236354 6.73524e-09 0.00120486)
(0.23575 6.16414e-09 0.0013097)
(0.235089 5.98995e-09 0.00140788)
(0.234375 6.05085e-09 0.00149973)
(0.233609 6.11937e-09 0.00158559)
(0.232795 6.0337e-09 0.00166575)
(0.231937 5.73482e-09 0.00174054)
(0.231037 5.26843e-09 0.00181023)
(0.230098 4.77015e-09 0.00187512)
(0.229122 4.41606e-09 0.00193548)
(0.228112 4.33658e-09 0.00199157)
(0.227069 4.59499e-09 0.00204366)
(0.225997 5.15227e-09 0.00209198)
(0.224897 5.90609e-09 0.00213677)
(0.223771 6.70941e-09 0.00217825)
(0.22262 7.41851e-09 0.00221665)
(0.221447 7.93914e-09 0.00225216)
(0.220253 8.24466e-09 0.00228498)
(0.219039 8.36268e-09 0.00231529)
(0.217807 8.3741e-09 0.00234328)
(0.216558 8.39313e-09 0.0023691)
(0.215292 8.51591e-09 0.00239293)
(0.214012 8.82619e-09 0.0024149)
(0.212718 9.34112e-09 0.00243518)
(0.211412 1.0034e-08 0.00245388)
(0.210093 1.08345e-08 0.00247115)
(0.208763 1.16521e-08 0.0024871)
(0.207422 1.23793e-08 0.00250186)
(0.206071 1.29161e-08 0.00251552)
(0.204711 1.3194e-08 0.00252819)
(0.203343 1.31816e-08 0.00253998)
(0.201966 1.28885e-08 0.00255096)
(0.200581 1.23555e-08 0.00256124)
(0.199189 1.16559e-08 0.0025709)
(0.19779 1.0884e-08 0.00258001)
(0.196383 1.0152e-08 0.00258865)
(0.194971 9.55142e-09 0.00259689)
(0.193552 9.15642e-09 0.0026048)
(0.192127 9.02507e-09 0.00261245)
(0.190696 9.16879e-09 0.0026199)
(0.18926 9.56284e-09 0.00262721)
(0.187817 1.01453e-08 0.00263443)
(0.186369 1.08202e-08 0.00264163)
(0.184916 1.14703e-08 0.00264886)
(0.183456 1.19671e-08 0.00265617)
(0.181991 1.22022e-08 0.00266361)
(0.180521 1.2088e-08 0.00267125)
(0.179044 1.15873e-08 0.00267914)
(0.177561 1.07088e-08 0.00268732)
(0.176072 9.51904e-09 0.00269586)
(0.174577 8.15034e-09 0.00270481)
(0.173075 6.7331e-09 0.00271423)
(0.171566 5.42722e-09 0.00272418)
(0.170051 4.37547e-09 0.00273471)
(0.168527 3.66732e-09 0.00274588)
(0.166996 3.3399e-09 0.00275775)
(0.165457 3.36465e-09 0.00277036)
(0.163909 3.65304e-09 0.00278377)
(0.162352 4.08231e-09 0.00279804)
(0.160786 4.50777e-09 0.00281322)
(0.15921 4.82091e-09 0.00282936)
(0.157623 4.95607e-09 0.00284652)
(0.156025 4.90753e-09 0.00286475)
(0.154415 4.7343e-09 0.0028841)
(0.152793 4.51062e-09 0.00290463)
(0.151159 4.31836e-09 0.00292639)
(0.14951 4.20795e-09 0.00294945)
(0.147848 4.17178e-09 0.00297386)
(0.14617 4.1318e-09 0.00299967)
(0.144476 4.00045e-09 0.00302694)
(0.142766 3.67874e-09 0.00305572)
(0.141039 3.14382e-09 0.00308608)
(0.139293 2.43378e-09 0.00311805)
(0.137528 1.67709e-09 0.0031517)
(0.135743 1.0546e-09 0.00318706)
(0.133937 7.28134e-10 0.0032242)
(0.132109 7.88098e-10 0.00326314)
(0.130259 1.22498e-09 0.00330395)
(0.128384 1.94359e-09 0.00334666)
(0.126485 2.80308e-09 0.00339132)
(0.124559 3.68445e-09 0.00343797)
(0.122607 4.53632e-09 0.00348664)
(0.120627 5.37201e-09 0.00353739)
(0.118618 6.21721e-09 0.00359024)
(0.116578 7.05861e-09 0.00364523)
(0.114508 7.7896e-09 0.00370239)
(0.112405 8.2379e-09 0.00376175)
(0.110268 8.28169e-09 0.00382333)
(0.108097 7.91619e-09 0.00388715)
(0.10589 7.3394e-09 0.00395323)
(0.103646 6.85017e-09 0.00402157)
(0.101364 6.69597e-09 0.00409218)
(0.0990431 6.91298e-09 0.00416503)
(0.0966821 7.27182e-09 0.00424011)
(0.09428 7.44124e-09 0.00431738)
(0.0918358 7.2366e-09 0.00439678)
(0.0893485 6.78925e-09 0.00447826)
(0.0868173 6.48372e-09 0.00456171)
(0.0842413 6.67218e-09 0.00464702)
(0.0816198 7.28609e-09 0.00473405)
(0.0789523 7.81054e-09 0.00482262)
(0.0762382 7.62303e-09 0.00491252)
(0.0734773 6.59127e-09 0.0050035)
(0.0706693 5.31109e-09 0.00509525)
(0.0678142 4.69337e-09 0.00518742)
(0.0649125 5.12073e-09 0.00527958)
(0.0619646 5.93072e-09 0.00537124)
(0.0589714 5.89265e-09 0.00546183)
(0.055934 4.42115e-09 0.00555067)
(0.0528542 2.37e-09 0.00563698)
(0.0497339 1.38393e-09 0.00571986)
(0.0465759 2.10445e-09 0.00579825)
(0.0433833 3.28755e-09 0.00587093)
(0.0401601 3.05435e-09 0.00593647)
(0.036911 1.41915e-09 0.00599321)
(0.0336416 8.12845e-10 0.00603924)
(0.0303588 3.27042e-09 0.00607228)
(0.0270703 7.47836e-09 0.00608971)
(0.0237856 9.84837e-09 0.00608841)
(0.0205155 9.45432e-09 0.0060647)
(0.017273 9.87692e-09 0.00601417)
(0.014073 1.41325e-08 0.00593133)
(0.0109334 1.97767e-08 0.00580973)
(0.00787424 2.32755e-08 0.00563981)
(0.00491899 2.81983e-08 0.00541012)
(0.00209539 4.09583e-08 0.00511184)
(-0.000567141 5.82945e-08 0.0047338)
(-0.00302795 7.1755e-08 0.00426044)
(-0.00524595 8.58932e-08 0.00367264)
(-0.00717439 1.15909e-07 0.00294731)
(-0.00876093 1.66095e-07 0.00205729)
(-0.00994967 2.32807e-07 0.000972845)
(-0.0106846 3.39497e-07 -0.000329639)
(-0.0109089 5.87939e-07 -0.00185274)
(-0.0105738 1.16304e-06 -0.00355129)
(-0.00965613 2.95388e-06 -0.00527798)
(-0.00815912 5.04241e-06 -0.0065638)
(-0.00560384 7.24609e-08 -0.00632296)
(-0.00290829 2.93378e-05 -0.00414424)
(-0.00793642 5.4092e-08 0.0230442)
(-0.00857177 -1.44499e-08 0.0119277)
(-0.00625396 -1.00114e-08 0.00115011)
(-0.0014387 -1.59998e-08 -0.00736827)
(0.00507012 -2.15115e-08 -0.0130909)
(0.0129591 -2.28332e-08 -0.0167207)
(0.0218055 -1.74216e-08 -0.018856)
(0.0312749 -1.22727e-08 -0.0199482)
(0.0410959 -9.15667e-09 -0.0203554)
(0.0510631 -6.64502e-09 -0.0203269)
(0.0610163 -4.94999e-09 -0.0200131)
(0.0708446 -4.10965e-09 -0.0195157)
(0.0804687 -3.09417e-09 -0.0189019)
(0.089834 -2.44035e-09 -0.0182168)
(0.0989034 -3.56831e-09 -0.0174912)
(0.107653 -5.75753e-09 -0.0167463)
(0.116069 -6.75127e-09 -0.0159964)
(0.124143 -5.75477e-09 -0.0152514)
(0.131873 -3.82359e-09 -0.0145178)
(0.139261 -1.89526e-09 -0.0138)
(0.146309 3.07194e-10 -0.0131007)
(0.153023 3.2454e-09 -0.0124215)
(0.15941 6.44061e-09 -0.0117632)
(0.165477 8.83629e-09 -0.0111262)
(0.171232 9.87089e-09 -0.0105104)
(0.176685 9.92322e-09 -0.00991541)
(0.181842 9.68906e-09 -0.00934089)
(0.186714 9.44729e-09 -0.00878627)
(0.191307 8.97422e-09 -0.00825101)
(0.195631 8.11948e-09 -0.00773454)
(0.199695 7.21144e-09 -0.00723632)
(0.203505 6.96871e-09 -0.00675581)
(0.207072 7.90623e-09 -0.00629254)
(0.210402 9.93358e-09 -0.00584604)
(0.213503 1.23835e-08 -0.00541591)
(0.216383 1.45165e-08 -0.00500176)
(0.219051 1.59528e-08 -0.00460322)
(0.221512 1.67856e-08 -0.00421996)
(0.223776 1.73281e-08 -0.00385166)
(0.225848 1.77831e-08 -0.003498)
(0.227737 1.80201e-08 -0.0031587)
(0.229449 1.77821e-08 -0.00283346)
(0.230992 1.69207e-08 -0.00252199)
(0.232372 1.56291e-08 -0.002224)
(0.233596 1.43746e-08 -0.00193918)
(0.23467 1.36817e-08 -0.00166723)
(0.235602 1.37968e-08 -0.00140783)
(0.236397 1.46192e-08 -0.00116067)
(0.237062 1.57366e-08 -0.000925423)
(0.237602 1.66913e-08 -0.000701743)
(0.238024 1.71881e-08 -0.000489285)
(0.238332 1.71757e-08 -0.000287687)
(0.238534 1.68007e-08 -9.65748e-05)
(0.238634 1.62229e-08 8.43344e-05)
(0.238637 1.55309e-08 0.000255262)
(0.238548 1.47095e-08 0.000416578)
(0.238373 1.36616e-08 0.000568712)
(0.238115 1.23347e-08 0.000712051)
(0.237781 1.07842e-08 0.000846972)
(0.237372 9.18042e-09 0.000973839)
(0.236895 7.76221e-09 0.00109301)
(0.236353 6.7352e-09 0.00120484)
(0.23575 6.16411e-09 0.00130968)
(0.235089 5.98992e-09 0.00140786)
(0.234374 6.05082e-09 0.00149972)
(0.233609 6.11934e-09 0.00158557)
(0.232795 6.03367e-09 0.00166574)
(0.231937 5.7348e-09 0.00174052)
(0.231037 5.2684e-09 0.00181022)
(0.230098 4.77012e-09 0.0018751)
(0.229122 4.41604e-09 0.00193546)
(0.228112 4.33656e-09 0.00199156)
(0.227069 4.59497e-09 0.00204364)
(0.225997 5.15224e-09 0.00209197)
(0.224897 5.90607e-09 0.00213676)
(0.223771 6.70939e-09 0.00217825)
(0.22262 7.41848e-09 0.00221664)
(0.221447 7.93911e-09 0.00225215)
(0.220253 8.24463e-09 0.00228497)
(0.219039 8.36265e-09 0.00231529)
(0.217807 8.37406e-09 0.00234327)
(0.216557 8.3931e-09 0.0023691)
(0.215292 8.51587e-09 0.00239293)
(0.214012 8.82616e-09 0.0024149)
(0.212718 9.34108e-09 0.00243518)
(0.211411 1.0034e-08 0.00245388)
(0.210093 1.08345e-08 0.00247115)
(0.208762 1.16521e-08 0.0024871)
(0.207422 1.23792e-08 0.00250186)
(0.206071 1.2916e-08 0.00251552)
(0.204711 1.3194e-08 0.00252819)
(0.203343 1.31816e-08 0.00253997)
(0.201966 1.28884e-08 0.00255096)
(0.200581 1.23554e-08 0.00256124)
(0.199189 1.16558e-08 0.00257089)
(0.197789 1.08839e-08 0.00258)
(0.196383 1.0152e-08 0.00258864)
(0.194971 9.55139e-09 0.00259689)
(0.193552 9.15639e-09 0.0026048)
(0.192127 9.02504e-09 0.00261245)
(0.190696 9.16876e-09 0.0026199)
(0.18926 9.5628e-09 0.00262721)
(0.187817 1.01453e-08 0.00263444)
(0.186369 1.08201e-08 0.00264164)
(0.184916 1.14702e-08 0.00264886)
(0.183456 1.19671e-08 0.00265617)
(0.181991 1.22022e-08 0.00266362)
(0.180521 1.20879e-08 0.00267125)
(0.179044 1.15873e-08 0.00267913)
(0.177561 1.07088e-08 0.00268731)
(0.176072 9.51901e-09 0.00269585)
(0.174577 8.15031e-09 0.0027048)
(0.173075 6.73308e-09 0.00271422)
(0.171566 5.4272e-09 0.00272417)
(0.170051 4.37545e-09 0.0027347)
(0.168527 3.66731e-09 0.00274587)
(0.166996 3.33989e-09 0.00275773)
(0.165457 3.36464e-09 0.00277035)
(0.163909 3.65303e-09 0.00278377)
(0.162352 4.0823e-09 0.00279804)
(0.160786 4.50775e-09 0.00281322)
(0.159209 4.8209e-09 0.00282937)
(0.157623 4.95605e-09 0.00284652)
(0.156025 4.90751e-09 0.00286475)
(0.154415 4.73428e-09 0.0028841)
(0.152793 4.51061e-09 0.00290463)
(0.151159 4.31834e-09 0.00292639)
(0.14951 4.20793e-09 0.00294944)
(0.147848 4.17176e-09 0.00297385)
(0.14617 4.13179e-09 0.00299966)
(0.144476 4.00044e-09 0.00302693)
(0.142766 3.67873e-09 0.00305571)
(0.141039 3.14381e-09 0.00308607)
(0.139293 2.43377e-09 0.00311804)
(0.137528 1.67708e-09 0.00315169)
(0.135743 1.0546e-09 0.00318706)
(0.133937 7.28132e-10 0.00322419)
(0.132109 7.88096e-10 0.00326314)
(0.130259 1.22497e-09 0.00330395)
(0.128384 1.94359e-09 0.00334666)
(0.126485 2.80307e-09 0.00339132)
(0.124559 3.68444e-09 0.00343797)
(0.122607 4.5363e-09 0.00348665)
(0.120627 5.37199e-09 0.00353739)
(0.118618 6.21719e-09 0.00359024)
(0.116578 7.05859e-09 0.00364523)
(0.114508 7.78957e-09 0.00370239)
(0.112405 8.23787e-09 0.00376175)
(0.110268 8.28166e-09 0.00382333)
(0.108097 7.91616e-09 0.00388715)
(0.10589 7.33937e-09 0.00395323)
(0.103646 6.85014e-09 0.00402157)
(0.101364 6.69595e-09 0.00409217)
(0.0990431 6.91296e-09 0.00416503)
(0.0966821 7.27179e-09 0.00424011)
(0.09428 7.44121e-09 0.00431738)
(0.0918358 7.23657e-09 0.00439678)
(0.0893485 6.78923e-09 0.00447826)
(0.0868173 6.4837e-09 0.00456171)
(0.0842413 6.67215e-09 0.00464702)
(0.0816198 7.28607e-09 0.00473405)
(0.0789523 7.81051e-09 0.00482262)
(0.0762382 7.62301e-09 0.00491252)
(0.0734773 6.59125e-09 0.0050035)
(0.0706693 5.31107e-09 0.00509525)
(0.0678143 4.69335e-09 0.00518741)
(0.0649125 5.12071e-09 0.00527957)
(0.0619646 5.9307e-09 0.00537123)
(0.0589714 5.89262e-09 0.00546182)
(0.055934 4.42113e-09 0.00555066)
(0.0528542 2.36999e-09 0.00563698)
(0.0497339 1.38392e-09 0.00571986)
(0.0465759 2.10444e-09 0.00579825)
(0.0433833 3.28753e-09 0.00587093)
(0.0401601 3.05434e-09 0.00593647)
(0.036911 1.41914e-09 0.00599321)
(0.0336417 8.12841e-10 0.00603924)
(0.0303588 3.2704e-09 0.00607229)
(0.0270704 7.47833e-09 0.00608972)
(0.0237857 9.84832e-09 0.00608843)
(0.0205157 9.45427e-09 0.00606473)
(0.0172732 9.87687e-09 0.0060142)
(0.0140732 1.41324e-08 0.00593138)
(0.0109336 1.97766e-08 0.00580979)
(0.00787452 2.32754e-08 0.00563989)
(0.00491933 2.81982e-08 0.00541022)
(0.0020958 4.0958e-08 0.00511197)
(-0.000566639 5.82942e-08 0.00473396)
(-0.00302734 7.17546e-08 0.00426065)
(-0.0052452 8.58927e-08 0.00367293)
(-0.00717349 1.15909e-07 0.00294769)
(-0.00875985 1.66094e-07 0.00205781)
(-0.0099484 2.32805e-07 0.000973592)
(-0.0106831 3.39492e-07 -0.000328544)
(-0.0109068 5.87927e-07 -0.0018511)
(-0.0105696 1.16314e-06 -0.00354825)
(-0.00964953 2.9579e-06 -0.00527389)
(-0.00813944 5.09078e-06 -0.00654423)
(-0.0055336 7.36371e-08 -0.00620972)
(-0.00319524 3.19305e-05 -0.00405486)
(-0.00055106 3.39001e-07 0.0293799)
(0.0019497 2.42513e-08 0.00859261)
(0.00741227 9.49047e-09 -0.00502074)
(0.0135798 8.91771e-09 -0.0146053)
(0.0203113 9.67463e-09 -0.021213)
(0.0276028 1.15493e-08 -0.0255916)
(0.0353812 1.34832e-08 -0.0283159)
(0.0435449 1.4729e-08 -0.0298363)
(0.0519752 1.57492e-08 -0.0305039)
(0.060551 1.62973e-08 -0.0305789)
(0.069164 1.61292e-08 -0.0302433)
(0.0777277 1.5598e-08 -0.0296269)
(0.0861735 1.49759e-08 -0.0288209)
(0.0944494 1.38284e-08 -0.0278904)
(0.102517 1.20156e-08 -0.0268814)
(0.110348 1.02147e-08 -0.025827)
(0.117922 9.08098e-09 -0.0247504)
(0.125228 8.65643e-09 -0.0236685)
(0.132256 8.63926e-09 -0.0225927)
(0.139002 8.78058e-09 -0.0215314)
(0.145466 9.09276e-09 -0.0204901)
(0.151648 9.66716e-09 -0.0194724)
(0.157551 1.03663e-08 -0.0184807)
(0.163178 1.08084e-08 -0.0175164)
(0.168534 1.07574e-08 -0.0165802)
(0.173625 1.03572e-08 -0.0156722)
(0.178455 9.92548e-09 -0.0147923)
(0.183032 9.56235e-09 -0.0139403)
(0.18736 9.08118e-09 -0.0131158)
(0.191448 8.37111e-09 -0.0123181)
(0.195301 7.6182e-09 -0.0115468)
(0.198926 7.23794e-09 -0.0108013)
(0.202329 7.47921e-09 -0.0100811)
(0.205517 8.23733e-09 -0.00938572)
(0.208496 9.14155e-09 -0.00871464)
(0.211274 9.84731e-09 -0.00806743)
(0.213855 1.02423e-08 -0.00744364)
(0.216248 1.04393e-08 -0.00684285)
(0.218458 1.0594e-08 -0.00626467)