/*--------------------------------*- C++ -*----------------------------------*\
  =========                 |
  \\      /  F ield         | OpenFOAM: The Open Source CFD Toolbox
   \\    /   O peration     | Website:  https://openfoam.org
    \\  /    A nd           | Version:  8
     \\/     M anipulation  |
\*---------------------------------------------------------------------------*/
FoamFile
{
    version     2.0;
    format      ascii;
    class       volScalarField;
    location    "4400";
    object      alphat;
}
// * * * * * * * * * * * * * * * * * * * * * * * * * * * * * * * * * * * * * //

dimensions      [1 -1 -1 0 0 0 0];

internalField   nonuniform List<scalar> 
48000
(
5.41419e-05
9.43187e-05
0.000116807
0.000133331
0.00014711
0.000158776
0.000168914
0.000177904
0.000186111
0.000193755
0.000200828
0.000207444
0.000213663
0.00021953
0.000225083
0.000230352
0.000235359
0.000240125
0.000244665
0.000248992
0.000253118
0.000257053
0.000260803
0.000264377
0.000267781
0.000271021
0.000274102
0.000277029
0.000279806
0.000282439
0.00028493
0.000287284
0.000289506
0.000291598
0.000293565
0.000295411
0.000297138
0.000298751
0.000300253
0.000301649
0.00030294
0.000304131
0.000305226
0.000306226
0.000307139
0.000307984
0.000308748
0.00030943
0.000310035
0.000310565
0.000311024
0.000311415
0.000311741
0.000312006
0.000312211
0.000312361
0.000312458
0.000312504
0.000312502
0.000312454
0.000312364
0.000312232
0.000312062
0.000311855
0.000311614
0.000311339
0.000311034
0.000310699
0.000310337
0.000309949
0.000309536
0.0003091
0.000308642
0.000308163
0.000307664
0.000307147
0.000306612
0.000306061
0.000305494
0.000304911
0.000304314
0.000303704
0.00030308
0.000302444
0.000301796
0.000301136
0.000300465
0.000299783
0.000299091
0.000298388
0.000297675
0.000296953
0.00029622
0.000295478
0.000294726
0.000293965
0.000293194
0.000292414
0.000291624
0.000290825
0.000290015
0.000289196
0.000288367
0.000287528
0.000286678
0.000285818
0.000284947
0.000284065
0.000283172
0.000282267
0.000281351
0.000280422
0.000279481
0.000278528
0.000277561
0.000276582
0.000275588
0.000274581
0.000273559
0.000272522
0.00027147
0.000270403
0.00026932
0.000268221
0.000267105
0.000265973
0.000264822
0.000263655
0.000262469
0.000261264
0.00026004
0.000258797
0.000257535
0.000256252
0.000254949
0.000253625
0.000252279
0.000250912
0.000249523
0.000248111
0.000246677
0.000245219
0.000243738
0.000242233
0.000240703
0.000239149
0.000237569
0.000235964
0.000234333
0.000232676
0.000230992
0.000229281
0.000227542
0.000225776
0.000223981
0.000222157
0.000220304
0.000218421
0.000216508
0.000214563
0.000212588
0.00021058
0.000208539
0.000206464
0.000204355
0.000202211
0.00020003
0.000197812
0.000195555
0.000193258
0.00019092
0.000188539
0.000186112
0.000183638
0.000181115
0.000178539
0.000175908
0.000173218
0.000170465
0.000167649
0.00016477
0.000161834
0.000158812
0.000155689
0.000152457
0.000149099
0.000145599
0.000141936
0.000138081
0.000134001
0.000129649
0.000124988
0.000119956
0.000114412
0.000108184
0.000100995
9.23415e-05
8.10322e-05
6.18644e-05
8.03014e-05
5.41422e-05
9.4319e-05
0.000116807
0.000133331
0.00014711
0.000158776
0.000168914
0.000177904
0.000186111
0.000193756
0.000200828
0.000207444
0.000213663
0.00021953
0.000225083
0.000230352
0.000235359
0.000240125
0.000244665
0.000248992
0.000253118
0.000257053
0.000260803
0.000264377
0.000267781
0.000271021
0.000274102
0.000277029
0.000279806
0.000282439
0.00028493
0.000287284
0.000289506
0.000291598
0.000293565
0.000295411
0.000297138
0.000298751
0.000300253
0.000301649
0.00030294
0.000304131
0.000305226
0.000306226
0.000307139
0.000307984
0.000308748
0.00030943
0.000310035
0.000310565
0.000311024
0.000311415
0.000311741
0.000312006
0.000312211
0.000312361
0.000312458
0.000312504
0.000312502
0.000312454
0.000312364
0.000312232
0.000312062
0.000311855
0.000311614
0.000311339
0.000311034
0.000310699
0.000310337
0.000309949
0.000309536
0.0003091
0.000308642
0.000308163
0.000307664
0.000307147
0.000306612
0.000306061
0.000305494
0.000304911
0.000304314
0.000303704
0.00030308
0.000302444
0.000301796
0.000301136
0.000300465
0.000299783
0.000299091
0.000298388
0.000297675
0.000296953
0.00029622
0.000295478
0.000294726
0.000293965
0.000293194
0.000292414
0.000291624
0.000290825
0.000290015
0.000289196
0.000288367
0.000287528
0.000286678
0.000285818
0.000284947
0.000284065
0.000283172
0.000282267
0.000281351
0.000280422
0.000279481
0.000278528
0.000277561
0.000276581
0.000275588
0.000274581
0.000273559
0.000272522
0.00027147
0.000270403
0.00026932
0.000268221
0.000267105
0.000265973
0.000264822
0.000263655
0.000262468
0.000261264
0.00026004
0.000258797
0.000257535
0.000256252
0.000254949
0.000253625
0.000252279
0.000250912
0.000249523
0.000248111
0.000246677
0.000245219
0.000243738
0.000242233
0.000240703
0.000239149
0.000237569
0.000235964
0.000234333
0.000232676
0.000230992
0.000229281
0.000227542
0.000225776
0.000223981
0.000222157
0.000220304
0.000218421
0.000216508
0.000214563
0.000212588
0.00021058
0.000208539
0.000206464
0.000204355
0.000202211
0.00020003
0.000197812
0.000195555
0.000193258
0.00019092
0.000188539
0.000186112
0.000183638
0.000181115
0.000178539
0.000175908
0.000173218
0.000170465
0.000167649
0.00016477
0.000161834
0.000158812
0.00015569
0.000152457
0.000149099
0.000145599
0.000141936
0.000138081
0.000134001
0.000129649
0.000124988
0.000119956
0.000114412
0.000108184
0.000100996
9.23415e-05
8.10313e-05
6.18629e-05
8.02925e-05
8.21298e-05
0.000609187
0.000964278
0.00121241
0.00139909
0.00155035
0.00167996
0.00179395
0.00189573
0.00198753
0.00207155
0.00214902
0.00222088
0.00228787
0.00235055
0.00240939
0.00246476
0.00251695
0.00256624
0.00261283
0.00265691
0.00269865
0.00273818
0.00277564
0.00281114
0.00284477
0.00287662
0.00290679
0.00293535
0.00296236
0.00298789
0.00301201
0.00303477
0.00305623
0.00307643
0.00309542
0.00311326
0.00312999
0.00314564
0.00316026
0.00317389
0.00318655
0.00319828
0.00320907
0.00321883
0.00322751
0.00323533
0.00324238
0.00324875
0.00325447
0.00325957
0.00326409
0.00326804
0.00327147
0.00327438
0.0032768
0.00327876
0.00328027
0.00328136
0.00328204
0.00328233
0.00328224
0.00328181
0.00328103
0.00327993
0.00327852
0.00327681
0.00327482
0.00327255
0.00327003
0.00326727
0.00326426
0.00326103
0.00325758
0.00325393
0.00325007
0.00324602
0.00324179
0.00323738
0.00323279
0.00322805
0.00322314
0.00321807
0.00321286
0.0032075
0.003202
0.00319635
0.00319058
0.00318466
0.00317862
0.00317244
0.00316614
0.00315971
0.00315315
0.00314647
0.00313966
0.00313273
0.00312567
0.00311848
0.00311117
0.00310373
0.00309616
0.00308846
0.00308063
0.00307267
0.00306457
0.00305633
0.00304795
0.00303943
0.00303077
0.00302195
0.00301299
0.00300388
0.0029946
0.00298517
0.00297558
0.00296582
0.00295589
0.00294579
0.00293551
0.00292505
0.0029144
0.00290357
0.00289255
0.00288134
0.00286992
0.0028583
0.00284648
0.00283444
0.00282219
0.00280973
0.00279704
0.00278412
0.00277097
0.00275759
0.00274397
0.00273011
0.002716
0.00270164
0.00268703
0.00267216
0.00265703
0.00264163
0.00262595
0.00261001
0.00259378
0.00257727
0.00256048
0.00254339
0.002526
0.00250831
0.00249032
0.00247201
0.00245339
0.00243445
0.00241517
0.00239557
0.00237562
0.00235533
0.00233468
0.00231367
0.00229228
0.00227052
0.00224837
0.00222581
0.00220285
0.00217945
0.00215562
0.00213132
0.00210656
0.0020813
0.00205551
0.00202919
0.00200229
0.00197479
0.00194664
0.0019178
0.00188821
0.0018578
0.00182646
0.00179406
0.00176045
0.00172562
0.0016895
0.00165196
0.00161282
0.00157184
0.00152872
0.00148307
0.00143431
0.0013816
0.00132336
0.00125837
0.00118494
0.00110003
0.000998451
0.000870782
0.000697665
0.000434695
5.50905e-05
8.21301e-05
0.000609192
0.000964287
0.00121241
0.0013991
0.00155036
0.00167997
0.00179396
0.00189574
0.00198753
0.00207156
0.00214902
0.00222088
0.00228787
0.00235056
0.0024094
0.00246477
0.00251696
0.00256624
0.00261283
0.00265692
0.00269865
0.00273819
0.00277565
0.00281114
0.00284477
0.00287663
0.0029068
0.00293535
0.00296236
0.0029879
0.00301202
0.00303478
0.00305623
0.00307643
0.00309543
0.00311327
0.00312999
0.00314565
0.00316027
0.00317389
0.00318656
0.00319828
0.00320907
0.00321884
0.00322752
0.00323533
0.00324239
0.00324876
0.00325447
0.00325957
0.00326409
0.00326805
0.00327147
0.00327438
0.00327681
0.00327876
0.00328028
0.00328136
0.00328204
0.00328233
0.00328225
0.00328181
0.00328103
0.00327993
0.00327852
0.00327681
0.00327482
0.00327256
0.00327004
0.00326727
0.00326427
0.00326104
0.00325759
0.00325393
0.00325007
0.00324602
0.00324179
0.00323738
0.0032328
0.00322805
0.00322314
0.00321808
0.00321286
0.0032075
0.003202
0.00319636
0.00319058
0.00318467
0.00317862
0.00317245
0.00316614
0.00315971
0.00315316
0.00314647
0.00313966
0.00313273
0.00312567
0.00311849
0.00311117
0.00310373
0.00309617
0.00308847
0.00308064
0.00307267
0.00306457
0.00305633
0.00304796
0.00303944
0.00303077
0.00302196
0.003013
0.00300388
0.00299461
0.00298518
0.00297558
0.00296582
0.00295589
0.00294579
0.00293551
0.00292505
0.00291441
0.00290358
0.00289256
0.00288134
0.00286992
0.00285831
0.00284648
0.00283445
0.0028222
0.00280973
0.00279704
0.00278412
0.00277098
0.00275759
0.00274398
0.00273011
0.00271601
0.00270165
0.00268703
0.00267216
0.00265703
0.00264163
0.00262596
0.00261001
0.00259379
0.00257728
0.00256048
0.00254339
0.002526
0.00250832
0.00249032
0.00247202
0.00245339
0.00243445
0.00241518
0.00239557
0.00237562
0.00235533
0.00233468
0.00231367
0.00229229
0.00227052
0.00224837
0.00222582
0.00220285
0.00217945
0.00215562
0.00213133
0.00210656
0.0020813
0.00205552
0.00202919
0.0020023
0.00197479
0.00194664
0.0019178
0.00188821
0.0018578
0.00182646
0.00179407
0.00176045
0.00172562
0.0016895
0.00165197
0.00161282
0.00157184
0.00152872
0.00148307
0.00143432
0.0013816
0.00132336
0.00125837
0.00118494
0.00110003
0.000998455
0.000870791
0.000697684
0.00043469
5.50898e-05
0.000101055
0.000924537
0.00164491
0.00218502
0.00260951
0.00296071
0.00326175
0.00352616
0.0037621
0.00397501
0.00416897
0.00434692
0.00451107
0.00466317
0.00480459
0.00493646
0.00505972
0.00517515
0.00528342
0.00538511
0.00548073
0.00557072
0.00565549
0.00573538
0.00581071
0.00588176
0.00594881
0.00601209
0.00607181
0.00612817
0.00618136
0.00623156
0.0062789
0.00632355
0.00636563
0.00640528
0.0064426
0.00647772
0.00651072
0.0065417
0.00657075
0.00659793
0.00662331
0.00664692
0.00666873
0.00668871
0.0067071
0.00672404
0.00673963
0.00675397
0.00676712
0.00677915
0.0067901
0.00680003
0.00680898
0.00681699
0.00682411
0.00683037
0.0068358
0.00684044
0.00684433
0.00684748
0.00684994
0.00685172
0.00685286
0.00685337
0.00685329
0.00685264
0.00685142
0.00684968
0.00684742
0.00684467
0.00684144
0.00683774
0.0068336
0.00682902
0.00682403
0.00681863
0.00681283
0.00680665
0.0068001
0.00679318
0.00678591
0.00677829
0.00677033
0.00676203
0.00675341
0.00674446
0.00673519
0.0067256
0.00671571
0.0067055
0.00669499
0.00668416
0.00667303
0.0066616
0.00664986
0.00663781
0.00662546
0.00661279
0.00659981
0.00658652
0.00657291
0.00655898
0.00654473
0.00653015
0.00651524
0.00649999
0.00648439
0.00646845
0.00645216
0.00643551
0.00641849
0.00640111
0.00638334
0.0063652
0.00634666
0.00632772
0.00630838
0.00628862
0.00626845
0.00624784
0.00622681
0.00620532
0.00618339
0.00616099
0.00613813
0.00611479
0.00609096
0.00606664
0.00604181
0.00601648
0.00599062
0.00596423
0.0059373
0.00590983
0.00588179
0.00585319
0.00582401
0.00579424
0.00576388
0.0057329
0.00570131
0.0056691
0.00563624
0.00560273
0.00556856
0.00553372
0.00549819
0.00546196
0.00542502
0.00538736
0.00534895
0.00530979
0.00526986
0.00522915
0.00518762
0.00514528
0.00510209
0.00505804
0.0050131
0.00496724
0.00492045
0.00487268
0.00482392
0.00477412
0.00472324
0.00467125
0.0046181
0.00456373
0.00450809
0.00445111
0.00439272
0.00433284
0.00427137
0.00420819
0.0041432
0.00407622
0.00400708
0.00393554
0.00386135
0.00378423
0.00370392
0.0036201
0.00353232
0.00344001
0.00334251
0.00323891
0.00312804
0.00300837
0.00287773
0.00273313
0.00257057
0.00238556
0.00217056
0.00191405
0.00159774
0.00119185
0.000653109
7.13634e-05
0.000101055
0.000924544
0.00164492
0.00218504
0.00260953
0.00296073
0.00326176
0.00352618
0.00376211
0.00397502
0.00416898
0.00434693
0.00451109
0.00466318
0.00480461
0.00493648
0.00505974
0.00517516
0.00528343
0.00538512
0.00548074
0.00557074
0.0056555
0.00573539
0.00581072
0.00588177
0.00594882
0.00601209
0.00607181
0.00612818
0.00618137
0.00623156
0.00627891
0.00632356
0.00636564
0.00640529
0.00644261
0.00647772
0.00651072
0.0065417
0.00657075
0.00659794
0.00662332
0.00664693
0.00666874
0.00668872
0.0067071
0.00672404
0.00673963
0.00675397
0.00676712
0.00677915
0.0067901
0.00680003
0.00680898
0.006817
0.00682411
0.00683037
0.0068358
0.00684045
0.00684433
0.00684749
0.00684994
0.00685172
0.00685286
0.00685338
0.0068533
0.00685264
0.00685143
0.00684968
0.00684742
0.00684467
0.00684144
0.00683774
0.0068336
0.00682902
0.00682403
0.00681863
0.00681283
0.00680665
0.0068001
0.00679318
0.00678591
0.00677829
0.00677033
0.00676203
0.00675341
0.00674446
0.00673519
0.00672561
0.00671571
0.0067055
0.00669499
0.00668417
0.00667304
0.0066616
0.00664986
0.00663781
0.00662546
0.00661279
0.00659982
0.00658652
0.00657292
0.00655899
0.00654473
0.00653015
0.00651524
0.00649999
0.00648439
0.00646845
0.00645216
0.00643551
0.00641849
0.00640111
0.00638334
0.0063652
0.00634666
0.00632772
0.00630838
0.00628862
0.00626845
0.00624785
0.00622681
0.00620532
0.00618339
0.00616099
0.00613813
0.00611479
0.00609096
0.00606664
0.00604181
0.00601648
0.00599062
0.00596423
0.0059373
0.00590983
0.00588179
0.00585319
0.00582401
0.00579424
0.00576388
0.00573291
0.00570132
0.0056691
0.00563624
0.00560273
0.00556856
0.00553372
0.00549819
0.00546196
0.00542502
0.00538736
0.00534895
0.00530979
0.00526986
0.00522915
0.00518763
0.00514528
0.00510209
0.00505804
0.0050131
0.00496724
0.00492045
0.00487268
0.00482392
0.00477412
0.00472324
0.00467125
0.0046181
0.00456373
0.00450809
0.00445111
0.00439272
0.00433284
0.00427137
0.0042082
0.0041432
0.00407622
0.00400708
0.00393554
0.00386135
0.00378423
0.00370392
0.0036201
0.00353232
0.00344001
0.00334251
0.00323891
0.00312804
0.00300837
0.00287773
0.00273313
0.00257057
0.00238556
0.00217056
0.00191405
0.00159774
0.00119185
0.000653096
7.13631e-05
0.000114385
0.00111879
0.00210592
0.00289036
0.00353011
0.00406934
0.00453583
0.00494734
0.00531558
0.00564864
0.00595238
0.00623117
0.00648833
0.0067265
0.00694778
0.0071539
0.0073463
0.00752622
0.00769471
0.00785269
0.00800098
0.00814029
0.00827127
0.0083945
0.00851051
0.00861978
0.00872274
0.0088198
0.00891133
0.00899766
0.00907911
0.00915597
0.00922849
0.00929694
0.00936153
0.00942247
0.00947997
0.0095342
0.00958533
0.00963351
0.00967887
0.00972155
0.00976164
0.00979922
0.00983434
0.00986706
0.00989757
0.00992603
0.00995257
0.00997731
0.0100003
0.0100218
0.0100417
0.0100601
0.0100771
0.0100928
0.0101072
0.0101204
0.0101324
0.0101432
0.010153
0.0101617
0.0101694
0.0101762
0.010182
0.0101869
0.0101909
0.0101941
0.0101965
0.0101981
0.0101989
0.010199
0.0101983
0.010197
0.010195
0.0101923
0.010189
0.0101851
0.0101805
0.0101754
0.0101697
0.0101634
0.0101566
0.0101492
0.0101412
0.0101327
0.0101237
0.0101142
0.0101042
0.0100936
0.0100826
0.010071
0.010059
0.0100464
0.0100333
0.0100198
0.0100057
0.00999112
0.00997604
0.00996046
0.00994436
0.00992775
0.00991061
0.00989295
0.00987476
0.00985603
0.00983675
0.00981692
0.00979654
0.00977558
0.00975405
0.00973194
0.00970923
0.00968592
0.009662
0.00963745
0.00961227
0.00958645
0.00955996
0.00953282
0.00950499
0.00947647
0.00944725
0.00941732
0.00938665
0.00935525
0.00932309
0.00929016
0.00925645
0.00922195
0.00918664
0.0091505
0.00911353
0.0090757
0.009037
0.00899742
0.00895694
0.00891554
0.00887321
0.00882994
0.00878569
0.00874047
0.00869424
0.00864699
0.0085987
0.00854935
0.00849892
0.00844738
0.00839473
0.00834093
0.00828595
0.00822979
0.00817239
0.00811375
0.00805383
0.0079926
0.00793002
0.00786606
0.00780069
0.00773386
0.00766553
0.00759566
0.00752419
0.00745106
0.00737623
0.00729962
0.00722116
0.00714079
0.0070584
0.0069739
0.00688719
0.00679816
0.00670665
0.00661253
0.00651562
0.00641571
0.00631259
0.00620598
0.00609557
0.00598098
0.0058618
0.00573755
0.00560769
0.00547156
0.00532836
0.0051771
0.00501651
0.00484501
0.00466063
0.00446079
0.0042421
0.00400012
0.00372896
0.00342134
0.00306683
0.00265067
0.00215197
0.00154236
0.000795884
8.14111e-05
0.000114385
0.0011188
0.00210594
0.00289038
0.00353013
0.00406937
0.00453585
0.00494736
0.0053156
0.00564866
0.0059524
0.00623119
0.00648835
0.00672652
0.0069478
0.00715392
0.00734632
0.00752624
0.00769473
0.00785271
0.00800099
0.0081403
0.00827128
0.00839451
0.00851052
0.00861979
0.00872275
0.00881981
0.00891134
0.00899767
0.00907912
0.00915598
0.0092285
0.00929694
0.00936153
0.00942248
0.00947998
0.00953421
0.00958534
0.00963351
0.00967888
0.00972156
0.00976164
0.00979922
0.00983434
0.00986706
0.00989757
0.00992603
0.00995258
0.00997731
0.0100004
0.0100218
0.0100417
0.0100601
0.0100771
0.0100928
0.0101072
0.0101204
0.0101324
0.0101432
0.010153
0.0101617
0.0101695
0.0101762
0.010182
0.0101869
0.0101909
0.0101941
0.0101965
0.0101981
0.0101989
0.010199
0.0101983
0.010197
0.010195
0.0101923
0.010189
0.0101851
0.0101805
0.0101754
0.0101697
0.0101634
0.0101566
0.0101492
0.0101412
0.0101327
0.0101237
0.0101142
0.0101042
0.0100936
0.0100826
0.010071
0.010059
0.0100464
0.0100333
0.0100198
0.0100057
0.00999112
0.00997604
0.00996046
0.00994436
0.00992775
0.00991061
0.00989295
0.00987476
0.00985602
0.00983675
0.00981692
0.00979654
0.00977558
0.00975405
0.00973194
0.00970923
0.00968592
0.009662
0.00963745
0.00961227
0.00958644
0.00955996
0.00953282
0.00950499
0.00947647
0.00944725
0.00941732
0.00938665
0.00935525
0.00932309
0.00929016
0.00925645
0.00922195
0.00918664
0.0091505
0.00911352
0.0090757
0.009037
0.00899742
0.00895694
0.00891554
0.00887321
0.00882993
0.00878569
0.00874046
0.00869423
0.00864698
0.00859869
0.00854934
0.00849891
0.00844738
0.00839473
0.00834093
0.00828595
0.00822978
0.00817239
0.00811375
0.00805383
0.00799259
0.00793002
0.00786606
0.00780069
0.00773386
0.00766553
0.00759566
0.00752418
0.00745106
0.00737623
0.00729962
0.00722116
0.00714078
0.00705839
0.0069739
0.00688719
0.00679815
0.00670665
0.00661253
0.00651561
0.00641571
0.00631259
0.00620598
0.00609556
0.00598098
0.0058618
0.00573755
0.00560768
0.00547156
0.00532836
0.0051771
0.00501651
0.00484501
0.00466063
0.00446078
0.0042421
0.00400012
0.00372896
0.00342134
0.00306683
0.00265067
0.00215197
0.00154235
0.000795878
8.1411e-05
0.000125226
0.00125071
0.00243602
0.00341825
0.00423946
0.00494182
0.00555487
0.00609879
0.00658754
0.00703107
0.00743663
0.0078097
0.0081545
0.00847435
0.00877193
0.00904945
0.00930876
0.00955144
0.00977885
0.00999219
0.0101925
0.0103808
0.0105578
0.0107244
0.0108812
0.0110289
0.0111681
0.0112994
0.0114232
0.0115401
0.0116503
0.0117544
0.0118528
0.0119456
0.0120334
0.0121163
0.0121947
0.0122688
0.0123388
0.0124049
0.0124674
0.0125263
0.012582
0.0126344
0.0126838
0.0127301
0.0127738
0.0128148
0.0128533
0.0128895
0.0129236
0.0129556
0.0129856
0.0130137
0.01304
0.0130646
0.0130876
0.013109
0.0131289
0.0131473
0.0131644
0.0131801
0.0131945
0.0132076
0.0132196
0.0132304
0.0132401
0.0132486
0.0132562
0.0132627
0.0132682
0.0132727
0.0132763
0.013279
0.0132808
0.0132817
0.0132818
0.013281
0.0132795
0.0132771
0.0132739
0.01327
0.0132654
0.01326
0.0132538
0.0132469
0.0132393
0.013231
0.013222
0.0132123
0.0132019
0.0131908
0.013179
0.0131665
0.0131533
0.0131394
0.0131248
0.0131095
0.0130935
0.0130768
0.0130594
0.0130413
0.0130224
0.0130028
0.0129825
0.0129614
0.0129395
0.0129169
0.0128935
0.0128693
0.0128443
0.0128185
0.0127919
0.0127644
0.0127361
0.0127069
0.0126769
0.0126459
0.012614
0.0125812
0.0125475
0.0125128
0.0124771
0.0124405
0.0124028
0.0123641
0.0123243
0.0122835
0.0122416
0.0121986
0.0121545
0.0121092
0.0120628
0.0120152
0.0119664
0.0119163
0.011865
0.0118124
0.0117586
0.0117034
0.0116468
0.0115889
0.0115296
0.0114688
0.0114066
0.0113429
0.0112777
0.0112109
0.0111426
0.0110726
0.011001
0.0109276
0.0108526
0.0107758
0.0106971
0.0106166
0.0105341
0.0104497
0.0103633
0.0102747
0.010184
0.0100911
0.00999584
0.00989821
0.0097981
0.00969541
0.00959004
0.00948187
0.00937075
0.00925656
0.00913913
0.00901828
0.00889381
0.00876548
0.00863305
0.00849621
0.00835462
0.0082079
0.00805558
0.00789715
0.00773198
0.00755938
0.00737853
0.00718845
0.00698794
0.00677557
0.00654954
0.00630765
0.00604716
0.00576459
0.00545553
0.00511445
0.00473416
0.00430543
0.00381665
0.00325213
0.00259175
0.00181218
0.000904259
8.9332e-05
0.000125226
0.00125071
0.00243603
0.00341827
0.00423948
0.00494184
0.0055549
0.00609882
0.00658757
0.00703109
0.00743666
0.00780973
0.00815453
0.00847438
0.00877196
0.00904948
0.00930879
0.00955147
0.00977888
0.00999221
0.0101925
0.0103808
0.0105578
0.0107244
0.0108812
0.0110289
0.0111682
0.0112994
0.0114232
0.0115401
0.0116503
0.0117545
0.0118528
0.0119457
0.0120334
0.0121163
0.0121947
0.0122688
0.0123388
0.0124049
0.0124674
0.0125263
0.012582
0.0126344
0.0126838
0.0127302
0.0127738
0.0128148
0.0128533
0.0128895
0.0129236
0.0129556
0.0129856
0.0130137
0.01304
0.0130646
0.0130876
0.013109
0.0131289
0.0131473
0.0131644
0.0131801
0.0131945
0.0132077
0.0132196
0.0132304
0.0132401
0.0132486
0.0132562
0.0132627
0.0132682
0.0132727
0.0132763
0.013279
0.0132808
0.0132817
0.0132818
0.013281
0.0132795
0.0132771
0.0132739
0.01327
0.0132654
0.01326
0.0132538
0.0132469
0.0132393
0.013231
0.013222
0.0132123
0.0132019
0.0131908
0.013179
0.0131665
0.0131533
0.0131394
0.0131248
0.0131095
0.0130935
0.0130768
0.0130594
0.0130413
0.0130224
0.0130028
0.0129825
0.0129614
0.0129395
0.0129169
0.0128935
0.0128693
0.0128443
0.0128185
0.0127919
0.0127644
0.0127361
0.0127069
0.0126769
0.0126459
0.012614
0.0125812
0.0125475
0.0125128
0.0124771
0.0124405
0.0124028
0.0123641
0.0123243
0.0122835
0.0122416
0.0121986
0.0121545
0.0121092
0.0120628
0.0120152
0.0119664
0.0119163
0.011865
0.0118124
0.0117586
0.0117034
0.0116468
0.0115889
0.0115296
0.0114688
0.0114066
0.0113429
0.0112777
0.0112109
0.0111426
0.0110726
0.011001
0.0109276
0.0108526
0.0107758
0.0106971
0.0106166
0.0105341
0.0104497
0.0103633
0.0102747
0.010184
0.0100911
0.00999583
0.0098982
0.0097981
0.00969541
0.00959004
0.00948186
0.00937075
0.00925656
0.00913913
0.00901828
0.0088938
0.00876548
0.00863305
0.00849621
0.00835462
0.0082079
0.00805558
0.00789714
0.00773198
0.00755938
0.00737853
0.00718845
0.00698794
0.00677556
0.00654953
0.00630765
0.00604715
0.00576459
0.00545553
0.00511445
0.00473415
0.00430543
0.00381665
0.00325213
0.00259175
0.00181218
0.000904256
8.9332e-05
0.000134403
0.00135503
0.00269172
0.00383253
0.00480391
0.00564448
0.00638394
0.00704369
0.00763909
0.00818131
0.00867868
0.00913748
0.0095626
0.00995789
0.0103265
0.010671
0.0109934
0.0112958
0.0115796
0.0118462
0.012097
0.0123329
0.012555
0.0127643
0.0129615
0.0131475
0.0133229
0.0134885
0.0136447
0.0137924
0.0139318
0.0140636
0.0141882
0.014306
0.0144175
0.014523
0.0146229
0.0147174
0.0148069
0.0148916
0.0149718
0.0150478
0.0151196
0.0151876
0.0152519
0.0153127
0.0153701
0.0154243
0.0154756
0.0155241
0.0155699
0.0156132
0.0156541
0.0156927
0.0157291
0.0157635
0.0157958
0.0158263
0.0158549
0.0158818
0.015907
0.0159306
0.0159526
0.0159731
0.0159921
0.0160097
0.016026
0.0160409
0.0160546
0.016067
0.0160782
0.0160882
0.0160971
0.0161049
0.0161115
0.0161171
0.0161217
0.0161252
0.0161278
0.0161293
0.0161299
0.0161295
0.0161282
0.0161259
0.0161228
0.0161187
0.0161137
0.0161078
0.0161011
0.0160934
0.0160849
0.0160755
0.0160652
0.016054
0.0160419
0.016029
0.0160151
0.0160004
0.0159848
0.0159682
0.0159508
0.0159324
0.0159131
0.0158929
0.0158717
0.0158496
0.0158264
0.0158023
0.0157772
0.0157511
0.015724
0.0156958
0.0156666
0.0156363
0.0156049
0.0155724
0.0155388
0.015504
0.015468
0.0154309
0.0153926
0.015353
0.0153122
0.0152702
0.0152268
0.0151822
0.0151361
0.0150888
0.01504
0.0149898
0.0149382
0.0148852
0.0148306
0.0147745
0.0147169
0.0146577
0.0145969
0.0145344
0.0144703
0.0144044
0.0143369
0.0142675
0.0141964
0.0141234
0.0140485
0.0139717
0.0138929
0.0138121
0.0137293
0.0136443
0.0135572
0.0134679
0.0133763
0.0132824
0.0131861
0.0130874
0.0129862
0.0128823
0.0127758
0.0126666
0.0125545
0.0124394
0.0123214
0.0122001
0.0120756
0.0119477
0.0118162
0.011681
0.0115419
0.0113987
0.0112512
0.0110991
0.0109422
0.0107802
0.0106127
0.0104393
0.0102596
0.010073
0.00987901
0.00967687
0.00946579
0.00924484
0.00901294
0.00876878
0.00851083
0.00823722
0.0079457
0.0076335
0.00729726
0.00693281
0.00653499
0.0060974
0.00561202
0.00506879
0.00445563
0.00375724
0.00295552
0.00203271
0.000993167
9.60142e-05
0.000134404
0.00135503
0.00269173
0.00383256
0.00480394
0.00564451
0.00638397
0.00704372
0.00763912
0.00818135
0.00867871
0.00913751
0.00956263
0.00995793
0.0103265
0.010671
0.0109935
0.0112958
0.0115796
0.0118462
0.012097
0.0123329
0.012555
0.0127643
0.0129615
0.0131475
0.0133229
0.0134885
0.0136448
0.0137924
0.0139318
0.0140636
0.0141882
0.0143061
0.0144175
0.014523
0.0146229
0.0147174
0.0148069
0.0148916
0.0149718
0.0150478
0.0151196
0.0151876
0.0152519
0.0153127
0.0153701
0.0154243
0.0154756
0.0155241
0.0155699
0.0156132
0.0156541
0.0156927
0.0157291
0.0157635
0.0157958
0.0158263
0.0158549
0.0158818
0.015907
0.0159306
0.0159526
0.0159731
0.0159921
0.0160097
0.016026
0.0160409
0.0160546
0.016067
0.0160782
0.0160882
0.0160971
0.0161049
0.0161115
0.0161171
0.0161217
0.0161252
0.0161278
0.0161293
0.0161299
0.0161295
0.0161282
0.0161259
0.0161228
0.0161187
0.0161137
0.0161078
0.0161011
0.0160934
0.0160849
0.0160755
0.0160652
0.016054
0.0160419
0.016029
0.0160151
0.0160004
0.0159848
0.0159682
0.0159508
0.0159324
0.0159131
0.0158929
0.0158717
0.0158496
0.0158264
0.0158023
0.0157772
0.0157511
0.015724
0.0156958
0.0156666
0.0156363
0.0156049
0.0155724
0.0155388
0.015504
0.015468
0.0154309
0.0153926
0.015353
0.0153122
0.0152702
0.0152268
0.0151822
0.0151361
0.0150888
0.01504
0.0149898
0.0149382
0.0148852
0.0148306
0.0147745
0.0147169
0.0146577
0.0145969
0.0145344
0.0144703
0.0144044
0.0143369
0.0142675
0.0141964
0.0141234
0.0140485
0.0139717
0.0138929
0.0138121
0.0137292
0.0136443
0.0135572
0.0134679
0.0133763
0.0132824
0.0131861
0.0130874
0.0129861
0.0128823
0.0127758
0.0126666
0.0125545
0.0124394
0.0123213
0.0122001
0.0120756
0.0119477
0.0118162
0.011681
0.0115419
0.0113987
0.0112512
0.0110991
0.0109422
0.0107802
0.0106127
0.0104393
0.0102596
0.010073
0.00987901
0.00967686
0.00946578
0.00924484
0.00901293
0.00876878
0.00851083
0.00823722
0.00794569
0.0076335
0.00729726
0.00693281
0.00653499
0.0060974
0.00561202
0.00506879
0.00445563
0.00375724
0.00295553
0.00203271
0.000993165
9.60143e-05
0.00014252
0.00144423
0.00290248
0.00417209
0.00526785
0.00622493
0.0070725
0.0078325
0.00852114
0.00915046
0.00972949
0.0102652
0.0107628
0.0112268
0.0116605
0.0120668
0.012448
0.0128062
0.0131431
0.0134603
0.0137592
0.0140409
0.0143066
0.0145573
0.014794
0.0150175
0.0152286
0.0154281
0.0156167
0.015795
0.0159637
0.0161233
0.0162745
0.0164175
0.0165531
0.0166815
0.0168033
0.0169187
0.0170281
0.017132
0.0172305
0.0173239
0.0174125
0.0174966
0.0175764
0.017652
0.0177237
0.0177917
0.0178563
0.0179175
0.0179757
0.0180308
0.0180831
0.0181328
0.0181799
0.0182245
0.0182669
0.018307
0.0183449
0.0183808
0.0184147
0.0184468
0.0184769
0.0185054
0.0185321
0.0185572
0.0185807
0.0186026
0.018623
0.018642
0.0186596
0.0186758
0.0186906
0.0187041
0.0187164
0.0187274
0.0187372
0.0187457
0.0187531
0.0187593
0.0187644
0.0187683
0.0187711
0.0187728
0.0187734
0.018773
0.0187714
0.0187688
0.0187651
0.0187604
0.0187546
0.0187477
0.0187398
0.0187308
0.0187207
0.0187096
0.0186974
0.0186841
0.0186698
0.0186543
0.0186378
0.0186201
0.0186013
0.0185814
0.0185603
0.018538
0.0185146
0.01849
0.0184641
0.0184371
0.0184088
0.0183792
0.0183483
0.0183162
0.0182827
0.0182479
0.0182117
0.0181741
0.0181351
0.0180947
0.0180528
0.0180094
0.0179645
0.017918
0.01787
0.0178204
0.0177691
0.0177162
0.0176616
0.0176053
0.0175472
0.0174874
0.0174257
0.0173622
0.0172968
0.0172294
0.0171601
0.0170888
0.0170154
0.01694
0.0168624
0.0167826
0.0167007
0.0166164
0.0165299
0.0164409
0.0163496
0.0162558
0.0161594
0.0160605
0.0159588
0.0158545
0.0157474
0.0156373
0.0155244
0.0154084
0.0152893
0.0151669
0.0150413
0.0149122
0.0147796
0.0146434
0.0145033
0.0143594
0.0142113
0.014059
0.0139022
0.0137408
0.0135745
0.0134031
0.0132262
0.0130437
0.0128552
0.0126602
0.0124584
0.0122492
0.0120321
0.0118064
0.0115714
0.0113263
0.01107
0.0108015
0.0105193
0.010222
0.00990755
0.00957383
0.00921815
0.0088373
0.0084274
0.00798375
0.00750066
0.00697116
0.00638682
0.00573737
0.00501054
0.00419207
0.00326623
0.00222033
0.0010694
0.000101859
0.00014252
0.00144424
0.0029025
0.00417211
0.00526788
0.00622496
0.00707253
0.00783253
0.00852118
0.00915049
0.00972953
0.0102652
0.0107629
0.0112268
0.0116605
0.0120668
0.012448
0.0128062
0.0131431
0.0134604
0.0137592
0.0140409
0.0143066
0.0145573
0.014794
0.0150175
0.0152286
0.0154281
0.0156167
0.015795
0.0159637
0.0161234
0.0162745
0.0164176
0.0165531
0.0166815
0.0168033
0.0169187
0.0170282
0.017132
0.0172305
0.0173239
0.0174125
0.0174966
0.0175764
0.017652
0.0177237
0.0177918
0.0178563
0.0179175
0.0179757
0.0180308
0.0180831
0.0181328
0.0181799
0.0182246
0.0182669
0.018307
0.0183449
0.0183808
0.0184147
0.0184468
0.018477
0.0185054
0.0185321
0.0185572
0.0185807
0.0186026
0.018623
0.018642
0.0186596
0.0186758
0.0186906
0.0187041
0.0187164
0.0187274
0.0187372
0.0187457
0.0187531
0.0187593
0.0187644
0.0187683
0.0187711
0.0187728
0.0187734
0.018773
0.0187714
0.0187688
0.0187651
0.0187604
0.0187546
0.0187477
0.0187398
0.0187308
0.0187207
0.0187096
0.0186974
0.0186841
0.0186698
0.0186543
0.0186378
0.0186201
0.0186013
0.0185814
0.0185603
0.018538
0.0185146
0.01849
0.0184641
0.0184371
0.0184088
0.0183792
0.0183483
0.0183162
0.0182827
0.0182479
0.0182117
0.0181741
0.0181351
0.0180947
0.0180528
0.0180094
0.0179645
0.017918
0.01787
0.0178204
0.0177691
0.0177162
0.0176616
0.0176053
0.0175472
0.0174874
0.0174257
0.0173622
0.0172968
0.0172294
0.0171601
0.0170888
0.0170154
0.01694
0.0168624
0.0167826