/*--------------------------------*- C++ -*----------------------------------*\
  =========                 |
  \\      /  F ield         | OpenFOAM: The Open Source CFD Toolbox
   \\    /   O peration     | Website:  https://openfoam.org
    \\  /    A nd           | Version:  8
     \\/     M anipulation  |
\*---------------------------------------------------------------------------*/
FoamFile
{
    version     2.0;
    format      ascii;
    class       volScalarField;
    location    "4400";
    object      epsilon;
}
// * * * * * * * * * * * * * * * * * * * * * * * * * * * * * * * * * * * * * //

dimensions      [0 2 -3 0 0 0 0];

internalField   nonuniform List<scalar> 
48000
(
1.69923
6.6026
12.5408
18.6515
25.0525
31.4978
37.9242
44.308
50.7269
57.2383
63.7375
70.2472
76.7558
83.2542
89.7331
96.1826
102.592
108.951
115.249
121.472
127.612
133.655
139.59
145.408
151.097
156.648
162.05
167.296
172.378
177.289
182.021
186.57
190.931
195.1
199.075
202.852
206.431
209.81
212.991
215.974
218.759
221.35
223.747
225.953
227.979
229.866
231.58
233.119
234.488
235.692
236.738
237.632
238.38
238.987
239.46
239.804
240.027
240.133
240.128
240.019
239.81
239.507
239.116
238.641
238.087
237.459
236.761
235.998
235.174
234.293
233.358
232.373
231.342
230.267
229.151
227.998
226.809
225.588
224.336
223.055
221.749
220.417
219.062
217.686
216.29
214.875
213.442
211.992
210.527
209.047
207.553
206.045
204.524
202.991
201.446
199.889
198.321
196.742
195.152
193.552
191.941
190.319
188.687
187.044
185.391
183.728
182.053
180.368
178.672
176.966
175.248
173.518
171.778
170.026
168.262
166.486
164.699
162.899
161.087
159.263
157.426
155.577
153.715
151.841
149.954
148.054
146.142
144.217
142.279
140.329
138.367
136.392
134.406
132.407
130.397
128.376
126.344
124.301
122.247
120.184
118.112
116.03
113.94
111.842
109.736
107.624
105.506
103.381
101.253
99.1194
96.9827
94.8434
92.7021
90.5596
88.4168
86.2744
84.1333
81.9943
79.8582
77.7259
75.5983
73.4761
71.3603
69.2516
67.1509
65.059
62.9767
60.9046
58.8437
56.7945
54.7577
52.734
50.7238
48.7279
46.7465
44.7802
42.8293
40.8942
38.9756
37.0756
35.1977
33.3495
31.5158
29.6932
27.8818
26.0798
24.2859
22.4983
20.7147
18.932
17.1467
15.363
13.5812
11.784
9.96268
8.10615
6.19977
4.2276
2.21654
0.657751
1.69926
6.60265
12.5409
18.6516
25.0526
31.4979
37.9244
44.3081
50.7271
57.2384
63.7377
70.2473
76.756
83.2544
89.7332
96.1827
102.592
108.951
115.249
121.473
127.612
133.655
139.591
145.408
151.097
156.648
162.05
167.297
172.378
177.289
182.021
186.57
190.931
195.1
199.075
202.852
206.431
209.81
212.991
215.974
218.759
221.35
223.747
225.953
227.98
229.866
231.58
233.119
234.488
235.692
236.738
237.632
238.38
238.987
239.46
239.804
240.027
240.133
240.128
240.019
239.81
239.507
239.116
238.64
238.087
237.459
236.761
235.998
235.174
234.293
233.358
232.373
231.342
230.267
229.151
227.998
226.809
225.588
224.336
223.055
221.749
220.417
219.062
217.686
216.29
214.875
213.442
211.992
210.527
209.047
207.553
206.045
204.524
202.991
201.446
199.889
198.321
196.742
195.152
193.552
191.941
190.319
188.687
187.044
185.391
183.728
182.053
180.368
178.672
176.966
175.248
173.518
171.778
170.026
168.262
166.486
164.699
162.899
161.087
159.263
157.426
155.577
153.715
151.841
149.954
148.054
146.142
144.217
142.279
140.329
138.367
136.392
134.406
132.407
130.397
128.376
126.344
124.301
122.247
120.184
118.112
116.03
113.94
111.842
109.736
107.624
105.506
103.381
101.253
99.1194
96.9827
94.8434
92.7021
90.5596
88.4168
86.2744
84.1333
81.9943
79.8582
77.7259
75.5983
73.4761
71.3603
69.2516
67.1509
65.059
62.9767
60.9047
58.8437
56.7945
54.7577
52.734
50.7238
48.7279
46.7465
44.7802
42.8293
40.8942
38.9756
37.0756
35.1977
33.3495
31.5158
29.6932
27.8818
26.0798
24.2859
22.4983
20.7147
18.9321
17.1467
15.363
13.5812
11.784
9.96269
8.10615
6.19976
4.2276
2.21661
0.657754
7.89298
6.74484
8.62
10.9072
13.3905
15.9728
18.6158
21.2779
23.9697
26.6962
29.4474
32.2211
35.0139
37.822
40.641
43.4665
46.2933
49.116
51.9287
54.7255
57.5003
60.2467
62.9584
65.6293
68.2532
70.8242
73.3366
75.785
78.1645
80.4702
82.698
84.8441
86.9051
88.878
90.7605
92.5505
94.2467
95.8479
97.3535
98.7633
100.078
101.297
102.422
103.456
104.404
105.272
106.057
106.758
107.375
107.912
108.37
108.753
109.064
109.305
109.479
109.591
109.642
109.636
109.576
109.464
109.305
109.1
108.852
108.565
108.239
107.879
107.486
107.063
106.611
106.133
105.63
105.105
104.559
103.994
103.411
102.812
102.198
101.57
100.929
100.277
99.6138
98.941
98.2593
97.5694
96.872
96.1677
95.4571
94.7406
94.0188
93.292
92.5605
91.8247
91.0849
90.3412
89.5939
88.8432
88.0891
87.3319
86.5715
85.808
85.0414
84.2719
83.4993
82.7238
81.9451
81.1634
80.3785
79.5905
78.7991
78.0045
77.2064
76.4048
75.5997
74.7909
73.9784
73.1621
72.3419
71.5177
70.6895
69.8571
69.0207
68.18
67.335
66.4858
65.6322
64.7743
63.9121
63.0455
62.1746
61.2994
60.4199
59.5363
58.6485
57.7566
56.8608
55.9611
55.0577
54.1507
53.2403
52.3266
51.4098
50.4901
49.5677
48.6428
47.7157
46.7866
45.8558
44.9236
43.9902
43.056
42.1212
41.1861
40.2512
39.3167
38.3829
37.4503
36.5191
35.5898
34.6626
33.738
32.8163
31.8978
30.9829
30.072
29.1653
28.2633
27.3663
26.4745
25.5883
24.7079
23.8336
22.9658
22.1045
21.25
20.4026
19.5623
18.7294
17.904
17.0864
16.277
15.4764
14.6849
13.9006
13.1224
12.3513
11.5861
10.8266
10.0722
9.32251
8.57704
7.83587
7.10085
6.37165
5.64576
4.92277
4.20448
3.49792
2.82676
2.28448
2.70249
7.89307
6.74482
8.61996
10.9071
13.3905
15.9727
18.6158
21.2778
23.9696
26.6961
29.4473
32.221
35.0138
37.8218
40.6409
43.4664
46.2932
49.1158
51.9286
54.7254
57.5001
60.2465
62.9583
65.6291
68.253
70.824
73.3364
75.7849
78.1643
80.47
82.6979
84.8439
86.9049
88.8778
90.7603
92.5504
94.2465
95.8477
97.3533
98.7631
100.077
101.297
102.422
103.456
104.404
105.272
106.057
106.758
107.375
107.912
108.37
108.753
109.063
109.304
109.479
109.59
109.642
109.636
109.575
109.464
109.305
109.1
108.852
108.564
108.239
107.879
107.486
107.063
106.611
106.133
105.63
105.105
104.559
103.994
103.411
102.812
102.198
101.57
100.929
100.277
99.6136
98.9408
98.2591
97.5692
96.8718
96.1675
95.4569
94.7405
94.0186
93.2918
92.5603
91.8245
91.0847
90.341
89.5938
88.843
88.089
87.3317
86.5713
85.8078
85.0413
84.2717
83.4992
82.7236
81.945
81.1632
80.3784
79.5903
78.799
78.0043
77.2062
76.4047
75.5995
74.7908
73.9782
73.1619
72.3417
71.5175
70.6893
69.857
69.0205
68.1798
67.3349
66.4857
65.6321
64.7742
63.912
63.0454
62.1745
61.2993
60.4198
59.5362
58.6484
57.7565
56.8607
55.961
55.0576
54.1506
53.2402
52.3265
51.4097
50.49
49.5676
48.6427
47.7156
46.7865
45.8558
44.9235
43.9901
43.0559
42.1211
41.186
40.2511
39.3166
38.3828
37.4502
36.5191
35.5897
34.6626
33.7379
32.8162
31.8977
30.9828
30.0719
29.1653
28.2633
27.3662
26.4744
25.5882
24.7078
23.8336
22.9657
22.1044
21.25
20.4025
19.5623
18.7294
17.904
17.0864
16.277
15.4763
14.6849
13.9005
13.1224
12.3512
11.5861
10.8266
10.0722
9.32249
8.57701
7.83585
7.10083
6.37164
5.64574
4.92276
4.20446
3.49788
2.82668
2.28448
2.70238
14.703
9.04318
9.54661
10.8939
12.5323
14.3198
16.1979
18.1348
20.1175
22.1385
24.1912
26.2708
28.3732
30.4945
32.631
34.7787
36.9334
39.0906
41.2458
43.3942
45.5306
47.6501
49.7474
51.8175
53.8551
55.8553
57.8132
59.7242
61.5838
63.3879
65.1327
66.8147
68.4307
69.9781
71.4545
72.858
74.1869
75.4401
76.6169
77.7168
78.7398
79.6862
80.5571
81.3537
82.0784
82.7344
83.3213
83.8399
84.2912
84.6771
84.9995
85.2608
85.4632
85.6093
85.7015
85.7424
85.7346
85.6807
85.5831
85.4443
85.2667
85.0528
84.8048
84.5249
84.2154
83.8782
83.5153
83.1286
82.72
82.2911
81.8434
81.3787
80.8982
80.4033
79.8953
79.3753
78.8445
78.3038
77.7542
77.1966
76.6318
76.0604
75.4832
74.9007
74.3136
73.7223
73.1273
72.529
71.9278
71.3239
70.7176
70.1092
69.499
68.887
68.2734
67.6584
67.0421
66.4245
65.8057
65.1858
64.5647
63.9425
63.3191
62.6946
62.0689
61.4419
60.8137
60.1842
59.5533
58.9209
58.287
57.6516
57.0145
56.3756
55.735
55.0925
54.448
53.8016
53.153
52.5024
51.8496
51.1945
50.5372
49.8776
49.2156
48.5513
47.8847
47.2157
46.5443
45.8705
45.1945
44.5162
43.8356
43.1528
42.4679
41.781
41.0921
40.4013
39.7088
39.0147
38.3191
37.6222
36.924
36.2248
35.5247
34.824
34.1228
33.4213
32.7197
32.0183
31.3173
30.6168
29.9173
29.2188
28.5216
27.8261
27.1324
26.4408
25.7516
25.0651
24.3814
23.7009
23.0239
22.3505
21.681
21.0156
20.3547
19.6984
19.0469
18.4005
17.7593
17.1235
16.4934
15.869
15.2506
14.6382
14.0321
13.4323
12.8389
12.2523
11.6726
11.0997
10.5332
9.9731
9.4192
8.87129
8.32982
7.7947
7.26602
6.74415
6.22976
5.72413
5.22889
4.74554
4.27809
3.83504
3.43568
3.13167
3.12175
5.19775
14.7031
9.04315
9.54654
10.8938
12.5322
14.3197
16.1978
18.1347
20.1174
22.1384
24.1911
26.2707
28.3731
30.4944
32.6309
34.7786
36.9333
39.0905
41.2457
43.394
45.5305
47.65
49.7473
51.8174
53.855
55.8552
57.8131
59.7241
61.5837
63.3878
65.1325
66.8145
68.4306
69.978
71.4544
72.8579
74.1868
75.44
76.6168
77.7167
78.7396
79.6861
80.5569
81.3535
82.0783
82.7343
83.3212
83.8397
84.2911
84.677
84.9994
85.2607
85.4631
85.6091
85.7014
85.7423
85.7345
85.6806
85.583
85.4442
85.2666
85.0527
84.8047
84.5248
84.2153
83.8781
83.5152
83.1285
82.7199
82.291
81.8433
81.3786
80.8981
80.4032
79.8952
79.3752
78.8444
78.3037
77.7541
77.1965
76.6317
76.0603
75.4831
74.9007
74.3135
73.7223
73.1273
72.5289
71.9277
71.3238
70.7175
70.1092
69.4989
68.8869
68.2734
67.6584
67.042
66.4245
65.8057
65.1857
64.5646
63.9424
63.319
62.6945
62.0688
61.4419
60.8137
60.1841
59.5532
58.9209
58.287
57.6515
57.0144
56.3756
55.7349
55.0924
54.448
53.8015
53.153
52.5023
51.8495
51.1945
50.5372
49.8775
49.2156
48.5513
47.8846
47.2156
46.5442
45.8705
45.1944
44.5161
43.8355
43.1528
42.4679
41.7809
41.092
40.4013
39.7088
39.0147
38.3191
37.6221
36.924
36.2248
35.5247
34.824
34.1228
33.4213
32.7197
32.0183
31.3172
30.6168
29.9172
29.2187
28.5216
27.8261
27.1324
26.4408
25.7516
25.0651
24.3814
23.7009
23.0238
22.3504
21.6809
21.0156
20.3547
19.6983
19.0469
18.4004
17.7593
17.1235
16.4934
15.869
15.2506
14.6382
14.0321
13.4322
12.8389
12.2523
11.6726
11.0996
10.5332
9.97308
9.41919
8.87128
8.32981
7.79469
7.26602
6.74414
6.22976
5.72412
5.22888
4.74554
4.27809
3.83504
3.43568
3.13167
3.12182
5.19779
21.3227
11.7516
11.2696
12.058
13.2756
14.707
16.266
17.9096
19.6141
21.365
23.1524
24.9692
26.8097
28.6693
30.5437
32.429
34.3211
36.216
38.1096
39.9976
41.8758
43.7396
45.5846
47.4062
49.2
50.9616
52.6865
54.3708
56.0102
57.6011
59.1401
60.6237
62.0492
63.4139
64.7155
65.9522
67.1224
68.2249
69.2589
70.2237
71.1194
71.9462
72.7046
73.3956
74.0208
74.5818
75.0795
75.5149
75.8893
76.2043
76.4618
76.6637
76.8121
76.9094
76.9577
76.9594
76.9169
76.8325
76.7084
76.547
76.3506
76.1213
75.8612
75.5725
75.257
74.9168
74.5537
74.1694
73.7656
73.3439
72.9057
72.4526
71.9858
71.5066
71.0161
70.5155
70.0058
69.4878
68.9626
68.4308
67.8933
67.3506
66.8035
66.2525
65.6981
65.1407
64.5808
64.0188
63.4549
62.8896
62.3229
61.7552
61.1867
60.6174
60.0476
59.4773
58.9067
58.3358
57.7647
57.1933
56.6218
56.05
55.4781
54.9059
54.3335
53.7608
53.1878
52.6144
52.0405
51.4661
50.8912
50.3156
49.7394
49.1623
48.5844
48.0056
47.4258
46.845
46.2631
45.68
45.0957
44.5102
43.9234
43.3352
42.7457
42.1549
41.5626
40.9689
40.3738
39.7773
39.1794
38.5802
37.9797
37.3779
36.7749
36.1707
35.5654
34.9592
34.352
33.744
33.1353
32.5261
31.9164
31.3064
30.6962
30.086
29.476
28.8663
28.2571
27.6485
27.0409
26.4343
25.8291
25.2252
24.6231
24.0229
23.4249
22.8291
22.236
21.6456
21.0582
20.474
19.8933
19.3162
18.743
18.1739
17.609
17.0485
16.4927
15.9417
15.3958
14.855
14.3195
13.7895
13.2651
12.7465
12.2337
11.727
11.2266
10.7324
10.2447
9.76354
9.28891
8.82086
8.3595
7.90499
7.45764
7.01779
6.58607
6.16342
5.75102
5.35074
4.96537
4.59911
4.25942
3.96064
3.73373
3.66014
4.05522
7.68804
21.3228
11.7515
11.2696
12.0579
13.2756
14.7069
16.2659
17.9095
19.614
21.3649
23.1523
24.9691
26.8096
28.6692
30.5436
32.4289
34.321
36.2159
38.1094
39.9975
41.8756
43.7395
45.5844
47.4061
49.1999
50.9615
52.6864
54.3706
56.0101
57.601
59.14
60.6236
62.0491
63.4138
64.7154
65.9521
67.1223
68.2248
69.2588
70.2237
71.1194
71.9461
72.7045
73.3955
74.0207
74.5817
75.0794
75.5148
75.8892
76.2042
76.4617
76.6636
76.812
76.9093
76.9576
76.9594
76.9168
76.8324
76.7083
76.547
76.3505
76.1212
75.8612
75.5724
75.257
74.9168
74.5537
74.1694
73.7655
73.3438
72.9057
72.4526
71.9858
71.5065
71.0161
70.5155
70.0057
69.4878
68.9625
68.4308
67.8932
67.3506
66.8035
66.2524
65.698
65.1406
64.5808
64.0187
63.4549
62.8895
62.3229
61.7552
61.1866
60.6174
60.0476
59.4773
58.9067
58.3358
57.7646
57.1933
56.6217
56.05
55.478
54.9059
54.3335
53.7608
53.1878
52.6143
52.0405
51.4661
50.8912
50.3156
49.7393
49.1623
48.5844
48.0056
47.4258
46.845
46.2631
45.68
45.0957
44.5102
43.9234
43.3352
42.7457
42.1548
41.5625
40.9689
40.3738
39.7773
39.1794
38.5802
37.9797
37.3779
36.7748
36.1707
35.5654
34.9592
34.352
33.744
33.1353
32.5261
31.9164
31.3064
30.6962
30.086
29.476
28.8663
28.257
27.6485
27.0409
26.4343
25.829
25.2252
24.6231
24.0229
23.4249
22.8291
22.236
21.6456
21.0582
20.474
19.8933
19.3162
18.743
18.1738
17.6089
17.0485
16.4927
15.9417
15.3958
14.855
14.3195
13.7895
13.2651
12.7464
12.2337
11.727
11.2266
10.7324
10.2447
9.76353
9.28891
8.82086
8.3595
7.90499
7.45764
7.01779
6.58607
6.16342
5.75101
5.35074
4.96537
4.59911
4.25942
3.96064
3.73373
3.66015
4.05524
7.68805
27.9782
14.6866
13.3307
13.6859
14.6174
15.8301
17.2076
18.6924
20.2519
21.8655
23.5197
25.2048
26.9134
28.6398
30.3791
32.1271
33.8797
35.633
37.3834
39.1268
40.8596
42.5778
44.2774
45.9545
47.6051
49.2254
50.8115
52.3596
53.8662
55.3278
56.7414
58.1038
59.4124
60.6647
61.8587
62.9924
64.0644
65.0735
66.0188
66.8998
67.7162
68.4681
69.1561
69.7807
70.3432
70.8447
71.2862
71.669
71.9942
72.2635
72.4786
72.6413
72.7537
72.8177
72.8355
72.8093
72.7414
72.6338
72.4888
72.3085
72.0952
71.8508
71.5775
71.2771
70.9516
70.6029
70.2327
69.8426
69.4344
69.0095
68.5693
68.1153
67.6487
67.1708
66.6826
66.1852
65.6796
65.1668
64.6475
64.1225
63.5925
63.0583
62.5204
61.9793
61.4356
60.8896
60.3419
59.7926
59.2423
58.6911
58.1392
57.587
57.0346
56.4821
55.9297
55.3774
54.8254
54.2738
53.7225
53.1716
52.6212
52.0711
51.5215
50.9722
50.4233
49.8748
49.3265
48.7784
48.2305
47.6826
47.1349
46.5871
46.0392
45.4912
44.9429
44.3943
43.8454
43.2961
42.7463
42.196
41.6451
41.0935
40.5413
39.9884
39.4347
38.8803
38.3251
37.7691
37.2124
36.6548
36.0965
35.5374
34.9776
34.4171
33.8559
33.2942
32.7319
32.1692
31.6061
31.0427
30.4791
29.9155
29.3519
28.7884
28.2252
27.6625
27.1003
26.5388
25.9782
25.4186
24.8603
24.3033
23.7479
23.1942
22.6425
22.0928
21.5455
21.0007
20.4586
19.9194
19.3833
18.8505
18.3211
17.7955
17.2736
16.7559
16.2423
15.7331
15.2286
14.7287
14.2338
13.7439
13.2592
12.78
12.3062
11.8382
11.3759
10.9197
10.4696
10.0258
9.58858
9.15796
8.73418
8.31743
7.908
7.50626
7.11272
6.72804
6.35316
5.98937
5.63844
5.30311
4.98731
4.69723
4.44356
4.24613
4.14733
4.25864
5.01248
10.1562
27.9783
14.6865
13.3307
13.6858
14.6173
15.83
17.2075
18.6923
20.2518
21.8654
23.5196
25.2047
26.9133
28.6397
30.379
32.127
33.8796
35.6329
37.3832
39.1267
40.8595
42.5777
44.2773
45.9544
47.605
49.2253
50.8114
52.3595
53.8661
55.3277
56.7413
58.1037
59.4123
60.6646
61.8586
62.9923
64.0643
65.0734
66.0187
66.8997
67.7161
68.4681
69.156
69.7807
70.3431
70.8446
71.2862
71.6689
71.9942
72.2635
72.4786
72.6413
72.7536
72.8176
72.8355
72.8093
72.7413
72.6337
72.4887
72.3085
72.0951
71.8508
71.5774
71.277
70.9516
70.6028
70.2326
69.8426
69.4343
69.0094
68.5693
68.1153
67.6487
67.1707
66.6825
66.1852
65.6796
65.1667
64.6474
64.1224
63.5925
63.0583
62.5204
61.9793
61.4355
60.8896
60.3418
59.7926
59.2422
58.691
58.1392
57.587
57.0346
56.4821
55.9296
55.3774
54.8254
54.2738
53.7225
53.1716
52.6211
52.0711
51.5214
50.9722
50.4233
49.8747
49.3264
48.7784
48.2304
47.6826
47.1349
46.5871
46.0392
45.4911
44.9429
44.3943
43.8454
43.2961
42.7463
42.196
41.645
41.0935
40.5413
39.9884
39.4347
38.8803
38.3251
37.7691
37.2124
36.6548
36.0965
35.5374
34.9775
34.417
33.8559
33.2942
32.7319
32.1692
31.6061
31.0427
30.4791
29.9155
29.3519
28.7884
28.2252
27.6625
27.1003
26.5388
25.9782
25.4186
24.8603
24.3033
23.7479
23.1942
22.6425
22.0928
21.5455
21.0007
20.4586
19.9194
19.3833
18.8505
18.3211
17.7955
17.2736
16.7559
16.2423
15.7331
15.2286
14.7287
14.2338
13.7439
13.2592
12.78
12.3062
11.8382
11.3759
10.9197
10.4696
10.0258
9.58858
9.15796
8.73418
8.31743
7.908
7.50626
7.11272
6.72804
6.35316
5.98937
5.63844
5.30311
4.98731
4.69723
4.44356
4.24613
4.14733
4.25865
5.0125
10.1562
34.5917
17.7513
15.5912
15.5819
16.2928
17.3502
18.6079
19.9935
21.466
22.9995
24.5767
26.1853
27.8165
29.4633
31.1202
32.7825
34.4461
36.1073
37.7625
39.4082
41.0411
42.6578
44.2548
45.8286
47.376
48.8933
50.3774
51.825
53.2327
54.5977
55.9171
57.1881
58.4083
59.5755
60.6876
61.7429
62.7401
63.678
64.5556
65.3724
66.1282
66.823
67.457
68.0308
68.5453
69.0015
69.4003
69.7429
70.0306
70.2649
70.4473
70.5797
70.6639
70.7018
70.6954
70.6468
70.5581
70.4314
70.2688
70.0723
69.844
69.5858
69.2999
68.988
68.652
68.2936
67.9147
67.5169
67.1016
66.6704
66.2247
65.7659
65.2951
64.8136
64.3225
63.8228
63.3155
62.8014
62.2815
61.7564
61.2268
60.6935
60.157
59.6178
59.0765
58.5334
57.9889
57.4435
56.8974
56.3509
55.8042
55.2575
54.7111
54.1651
53.6196
53.0747
52.5305
51.9871
51.4445
50.9027
50.3618
49.8217
49.2825
48.7441
48.2065
47.6696
47.1335
46.598
46.0631
45.5288
44.995
44.4615
43.9285
43.3957
42.8632
42.3308
41.7985
41.2662
40.734
40.2016
39.6691
39.1365
38.6036
38.0705
37.537
37.0033
36.4692
35.9348
35.4
34.8649
34.3295
33.7937
33.2576
32.7213
32.1847
31.6479
31.111
30.574
30.0371
29.5002
28.9635
28.4271
27.8911
27.3555
26.8205
26.2863
25.7529
25.2205
24.6892
24.1592
23.6307
23.1038
22.5786
22.0553
21.5341
21.0152
20.4988
19.9849
19.4739
18.9658
18.4609
17.9593
17.4612
16.9668
16.4763
15.9897
15.5074
15.0295
14.5561
14.0874
13.6235
13.1647
12.7111
12.2628
11.8201
11.383
10.9518
10.5266
10.1076
9.69515
9.28934
8.89046
8.4988
8.11471
7.73863
7.37109
7.01283
6.66478
6.32819
6.00475
5.69683
5.40785
5.14287
4.90988
4.72259
4.60622
4.61442
4.88864
5.97807
12.61
34.5919
17.7512
15.5911
15.5819
16.2927
17.3501
18.6078
19.9934
21.4659
22.9994
24.5766
26.1852
27.8164
29.4632
31.1201
32.7824
34.446
36.1072
37.7624
39.4081
41.041
42.6577
44.2547
45.8285
47.3758
48.8932
50.3773
51.8249
53.2326
54.5976
55.917
57.188
58.4082
59.5754
60.6875
61.7429
62.74
63.6779
64.5555
65.3723
66.1281
66.8229
67.4569
68.0307
68.5452
69.0014
69.4002
69.7428
70.0306
70.2648
70.4473
70.5797
70.6638
70.7017
70.6953
70.6468
70.5581
70.4314
70.2687
70.0722
69.8439
69.5858
69.2998
68.9879
68.6519
68.2936
67.9147
67.5168
67.1015
66.6704
66.2247
65.7658
65.2951
64.8136
64.3225
63.8228
63.3154
62.8014
62.2814
61.7563
61.2268
60.6935
60.157
59.6178
59.0764
58.5333
57.9889
57.4435
56.8974
56.3508
55.8042
55.2575
54.7111
54.1651
53.6196
53.0747
52.5305
51.9871
51.4445
50.9027
50.3618
49.8217
49.2825
48.744
48.2064
47.6696
47.1334
46.598
46.0631
45.5288
44.9949
44.4615
43.9285
43.3957
42.8632
42.3308
41.7985
41.2662
40.734
40.2016
39.6691
39.1365
38.6036
38.0704
37.537
37.0033
36.4692
35.9348
35.4
34.8649
34.3295
33.7937
33.2576
32.7212
32.1847
31.6479
31.111
30.574
30.0371
29.5002
28.9635
28.4271
27.891
27.3555
26.8205
26.2863
25.7529
25.2205
24.6892
24.1592
23.6307
23.1038
22.5786
22.0553
21.5341
21.0152
20.4988
19.9849
19.4739
18.9658
18.4609
17.9593
17.4612
16.9668
16.4763
15.9897
15.5074
15.0295
14.5561
14.0874
13.6235
13.1647
12.7111
12.2628
11.8201
11.383
10.9518
10.5266
10.1076
9.69515
9.28934
8.89046
8.4988
8.11471
7.73863
7.37109
7.01283
6.66478
6.32819
6.00475
5.69684
5.40785
5.14287
4.90988
4.72259
4.60622
4.61442
4.88864
5.97808
12.61
41.245
20.9139
17.9993
17.6683
18.197
19.1351
20.3066
21.6249
23.0407
24.523
26.0512
27.6107
29.1909
30.7838
32.3832
33.9842
35.5824
37.1743
38.7565
40.3259
41.8797
43.4147
44.9282
46.4172
47.8788
49.3102
50.7085
52.0708
53.3945
54.6769
55.9155
57.1078
58.2518
59.3453
60.3865
61.3739
62.3062
63.1822
64.001
64.7622
65.4654
66.1105
66.6977
67.2276
67.7006
68.1178
68.4801
68.7884
69.044
69.2484
69.403
69.5094
69.5695
69.585
69.5579
69.49
69.3834
69.2401
69.062
68.8512
68.6096
68.3391
68.0416
67.719
67.3731
67.0055
66.618
66.2121
65.7895
65.3514
64.8993
64.4346
63.9584
63.4719
62.9762
62.4723
61.9612
61.4437
60.9207
60.3929
59.8611
59.3257
58.7876
58.2471
57.7047
57.161
56.6162
56.0707
55.5249
54.9791
54.4333
53.888
53.3432
52.7991
52.2559
51.7135
51.1722
50.632
50.093
49.5551
49.0183
48.4828
47.9484
47.4152
46.8831
46.3522
45.8222
45.2933
44.7653
44.2382
43.7119
43.1864
42.6616
42.1374
41.6138
41.0907
40.568
40.0458
39.5238
39.0021
38.4807
37.9594
37.4382
36.9172
36.3961
35.8752
35.3542
34.8332
34.3122
33.7912
33.2702
32.7492
32.2282
31.7072
31.1864
30.6656
30.1451
29.6247
29.1047
28.585
28.0658
27.5471
27.029
26.5116
25.9951
25.4795
24.965
24.4517
23.9397
23.4292
22.9202
22.413
21.9077
21.4045
20.9034
20.4047
19.9085
19.4151
18.9244
18.4368
17.9523
17.4712
16.9937
16.5198
16.0497
15.5837
15.1218
14.6643
14.2112
13.7629
13.3194
12.8809
12.4475
12.0195
11.5971
11.1803
10.7695
10.3649
9.96656
9.5749
9.19018
8.81272
8.44291
8.08123
7.72826
7.38471
7.05151
6.72983
6.42123
6.12781
5.85248
5.59938
5.37468
5.18808
5.05601
5.00909
5.11225
5.5369
6.94883
15.056
41.2452
20.9138
17.9992
17.6682
18.1969
19.135
20.3065
21.6248
23.0406
24.5229
26.0511
27.6106
29.1908
30.7837
32.3831
33.984
35.5823
37.1742
38.7564
40.3258
41.8796
43.4146
44.9281
46.4171
47.8787
49.3101
50.7084
52.0707
53.3944
54.6768
55.9154
57.1078
58.2517
59.3452
60.3864
61.3739
62.3061
63.1821
64.0009
64.7621
65.4653
66.1104
66.6977
67.2275
67.7006
68.1178
68.48
68.7883
69.044
69.2483
69.4029
69.5094
69.5694
69.585
69.5578
69.49
69.3834
69.2401
69.062
68.8512
68.6095
68.339
68.0416
67.719
67.373
67.0055
66.618
66.2121
65.7894
65.3514
64.8993
64.4345
63.9583
63.4719
62.9762
62.4723
61.9612
61.4437
60.9207
60.3929
59.861
59.3257
58.7876
58.2471
57.7047
57.1609
56.6162
56.0707
55.5249
54.979
54.4333
53.888
53.3432
52.7991
52.2558
51.7135
51.1722
50.632
50.0929
49.555
49.0183
48.4828
47.9484
47.4152
46.8831
46.3521
45.8222
45.2933
44.7653
44.2382
43.7119
43.1864
42.6616
42.1374
41.6138
41.0907
40.568
40.0457
39.5238
39.0021
38.4807
37.9594
37.4382
36.9171
36.3961
35.8752
35.3542
34.8332
34.3122
33.7912
33.2702
32.7492
32.2282
31.7072
31.1864
30.6656
30.1451
29.6247
29.1047
28.585
28.0658
27.5471
27.029
26.5116
25.9951
25.4795
24.965
24.4517
23.9397
23.4292
22.9202
22.413
21.9077
21.4045
20.9034
20.4047
19.9085
19.4151
18.9244
18.4368
17.9523
17.4712
16.9937
16.5198
16.0497
15.5837
15.1218
14.6643
14.2112
13.7629
13.3194
12.8809
12.4475
12.0195
11.5971
11.1803
10.7695
10.3649
9.96656
9.5749
9.19018
8.81272
8.44291
8.08124
7.72826
7.38471
7.05151
6.72983
6.42123
6.12782
5.85248
5.59938
5.37468
5.18808
5.05601
5.00909
5.11226
5.5369
6.94884
15.056
48.1291
24.1806
20.5359
19.9093
20.2803
21.1214
22.2272
23.4969
24.8732
26.3204
27.8146
29.339
30.8817
32.4335
33.9877
35.5389
37.083
38.6163
40.1358
41.6387
43.1226
44.585
46.0234
47.4357
48.8193
50.172
51.4913
52.7751
54.0209
55.2266
56.3899
57.5089
58.5815
59.6061
60.581
61.5047
62.376
63.1939
63.9577
64.6666
65.3205
65.9191
66.4627
66.9515
67.3861
67.7672
68.0956
68.3724
68.5986
68.7757
68.9048
68.9877
69.0259
69.0212
68.9753
68.8901
68.7674
68.6091
68.4172
68.1935
67.94
67.6584
67.3505
67.0183
66.6633
66.2873
65.8919
65.4787
65.049
64.6044
64.1463
63.6758
63.1942
62.7026
62.2021
61.6938
61.1785
60.6571
60.1304
59.5992
59.0642
58.526
57.9852
57.4422
56.8977
56.352
55.8055
55.2586
54.7115
54.1647
53.6182
53.0723
52.5272
51.9831
51.44
50.8981
50.3575
49.8183
49.2804
48.7439
48.2089
47.6753
47.1431
46.6123
46.083
45.555
45.0283
44.5028
43.9786
43.4556
42.9336
42.4127
41.8927
41.3737
40.8555
40.3381
39.8214
39.3054
38.7899
38.275
37.7607
37.2467
36.7332
36.22
35.7072
35.1946
34.6824
34.1704
33.6587
33.1472
32.6359
32.125
31.6142
31.1038
30.5937
30.084
29.5747
29.0658
28.5575
28.0497
27.5426
27.0362
26.5306
26.0259
25.5223
25.0197
24.5184
24.0183
23.5198
23.0228
22.5275
22.0341
21.5426
21.0533
20.5662
20.0815
19.5994
19.12
18.6435
18.17
17.6997
17.2327
16.7693
16.3094
15.8534
15.4014
14.9535
14.5099
14.0707
13.6362
13.2066
12.7818
12.3623
11.9481
11.5395
11.1366
10.7398
10.3492
9.96509
9.58787
9.21786
8.85548
8.5012
8.15561
7.81943
7.49353
7.17901
6.87731
6.59028
6.32039
6.07108
5.84721
5.65602
5.5089
5.42504
5.44033
5.63102
6.19852
7.92533
17.5002
48.1292
24.1805
20.5358
19.9092
20.2802
21.1213
22.2271
23.4967
24.8731
26.3203
27.8145
29.3389
30.8816
32.4334
33.9876
35.5388
37.0829
38.6162
40.1357
41.6386
43.1225
44.5849
46.0233
47.4356
48.8192
50.1719
51.4912
52.775
54.0208
55.2265
56.3898
57.5088
58.5815
59.606
60.5809
61.5046
62.3759
63.1938
63.9576
64.6666
65.3204
65.9191
66.4626
66.9514
67.386
67.7671
68.0956
68.3723
68.5986
68.7756
68.9048
68.9877
69.0259
69.0212
68.9753
68.89
68.7674
68.6091
68.4172
68.1935
67.9399
67.6583
67.3505
67.0183
66.6633
66.2873
65.8919
65.4786
65.049
64.6044
64.1462
63.6757
63.1941
62.7026
62.2021
61.6937
61.1784
60.657
60.1304
59.5992
59.0642
58.526
57.9851
57.4422
56.8977
56.352
55.8055
55.2586
54.7115
54.1646
53.6182
53.0723
52.5272
51.9831
51.44
50.8981
50.3575
49.8182
49.2804
48.7439
48.2088
47.6753
47.1431
46.6123
46.083
45.555
45.0283
44.5028
43.9786
43.4556
42.9336
42.4127
41.8927
41.3737
40.8555
40.3381
39.8214
39.3053
38.7899
38.275
37.7607
37.2467
36.7332
36.22
35.7072
35.1946
34.6824
34.1704
33.6587
33.1472
32.6359
32.1249
31.6142
31.1038
30.5937
30.084
29.5747
29.0658
28.5575
28.0497
27.5426
27.0362
26.5306
26.0259
25.5223
25.0197
24.5184
24.0183
23.5198
23.0228
22.5275
22.0341
21.5426
21.0533
20.5662
20.0815
19.5994
19.12
18.6435
18.17
17.6997
17.2327
16.7692
16.3094
15.8534
15.4014
14.9535
14.5099
14.0707
13.6362
13.2066
12.7818
12.3623
11.9481
11.5395
11.1366
10.7398
10.3492
9.96509
9.58787
9.21786
8.85548
8.5012
8.15561
7.81943
7.49353
7.17902
6.87731
6.59028
6.3204
6.07108
5.84721
5.65602
5.5089
5.42504
5.44034
5.63103
6.19852
7.92535
17.5002
55.2994
27.5705
23.1965
22.2882
22.5168
23.2754
24.3284
25.5607
26.9077
28.3287
29.7968
31.2934
32.8048
34.3214
35.8357
37.3423
38.8368
40.3158
41.7765
43.2167
44.6342
46.0271
47.3936
48.7319
50.0401
51.3165
52.5593
53.7666
54.9365
56.0673
57.1571
58.2043
59.2072
60.1642
61.074
61.9353
62.7469
63.5079
64.2176
64.8755
65.4811
66.0343
66.5352
66.984
67.3812
67.7273
68.0232
68.2697
68.4678
68.6187
68.7237
68.7842
68.8018
68.7781
68.7147
68.6133
68.4757
68.3037
68.0991
67.8638
67.5994
67.3077
66.9906
66.6497
66.2868
65.9033
65.5009
65.0811
64.6454
64.195
63.7314
63.2559
62.7694
62.2733
61.7686
61.2562
60.7371
60.2121
59.682
59.1476
58.6096
58.0685
57.525
56.9796
56.4328
55.8849
55.3365
54.7878
54.2392
53.6908
53.1431
52.5961
52.0502
51.5053
50.9617
50.4195
49.8787
49.3395
48.8018
48.2657
47.7313
47.1985
46.6674
46.1379
45.6099
45.0835
44.5587
44.0353
43.5134
42.9928
42.4735
41.9555
41.4387
40.923
40.4084
39.8948
39.3821
38.8704
38.3594
37.8492
37.3398
36.831
36.3228
35.8152
35.3082
34.8017
34.2957
33.7902
33.2851
32.7805
32.2764
31.7727
31.2695
30.7668
30.2646
29.7629
29.2619
28.7614
28.2617
27.7627
27.2645
26.7671
26.2707
25.7754
25.2812
24.7882
24.2965
23.8063
23.3175
22.8305
22.3452
21.8618
21.3804
20.9012
20.4243
19.9498
19.4778
19.0086
18.5422
18.0789
17.6186
17.1617
16.7083
16.2584
15.8123
15.3701
14.932
14.4981
14.0687
13.6438
13.2238
12.8086
12.3986
11.994
11.595
11.2017
10.8146
10.4338
10.0597
9.69275
9.33324
8.98171
8.63874
8.30502
7.98139
7.66887
7.36876
7.08271
6.81287
6.56208
6.33429
6.13508
5.97276
5.86037
5.81998
5.8926
6.16613
6.8725
8.91225
19.9616
55.2996
27.5704
23.1964
22.2881
22.5167
23.2753
24.3282
25.5606
26.9076
28.3286
29.7967
31.2932
32.8047
34.3213
35.8356
37.3422
38.8367
40.3157
41.7764
43.2166
44.6341
46.027
47.3935
48.7318
50.04
51.3164
52.5592
53.7665
54.9364
56.0672
57.157
58.2042
59.2071
60.1641
61.0739
61.9352
62.7468
63.5078
64.2176
64.8754
65.481
66.0343
66.5352
66.984
67.3811
67.7273
68.0232
68.2696
68.4677
68.6186
68.7236
68.7842
68.8018
68.7781
68.7146
68.6133
68.4757
68.3037
68.0991
67.8637
67.5993
67.3077
66.9906
66.6497
66.2867
65.9033
65.5009
65.0811
64.6453
64.195
63.7314
63.2558
62.7694
62.2733
61.7686
61.2562
60.7371
60.2121
59.682
59.1476
58.6096
58.0685
57.525
56.9796
56.4328
55.8849
55.3365
54.7878
54.2391
53.6908
53.1431
52.5961
52.0501
51.5053
50.9617
50.4195
49.8787
49.3395
48.8018
48.2657
47.7313
47.1985
46.6674
46.1378
45.6099
45.0835
44.5587
44.0353
43.5134
42.9928
42.4735
41.9555
41.4387
40.923
40.4084
39.8948
39.3821
38.8704
38.3594
37.8492
37.3398
36.831
36.3228
35.8152
35.3082
34.8017
34.2957
33.7902
33.2851
32.7805
32.2764
31.7727
31.2695
30.7668
30.2646
29.7629
29.2619
28.7614
28.2617
27.7627
27.2644
26.7671
26.2707
25.7754
25.2812
24.7882
24.2965
23.8063
23.3175
22.8305
22.3452
21.8618
21.3804
20.9012
20.4243
19.9498
19.4778
19.0086
18.5422
18.0789
17.6186
17.1617
16.7083
16.2584
15.8123
15.3701
14.932
14.4981
14.0687
13.6438
13.2238
12.8086
12.3986
11.994
11.595
11.2017
10.8146
10.4338
10.0597
9.69275
9.33324
8.98171
8.63874
8.30502
7.98139
7.66887
7.36876
7.08271
6.81287
6.56208
6.33429
6.13508
5.97276
5.86037
5.81998
5.8926
6.16614
6.87251
8.91227
19.9616
62.6749
31.0784
25.9768
24.7964
24.8928
25.5782
26.5865
27.7885
29.1117
30.511
31.9567
33.4281
34.9106
36.3936
37.8694
39.3321
40.7777
42.2028
43.6052
44.9827
46.3339
47.6574
48.9518
50.216
51.4486
52.6486
53.8145
54.945
56.0387
57.0943
58.1104
59.0855
60.0183
60.9075
61.752
62.5506
63.3022
64.0062
64.6617
65.2683
65.8256
66.3333
66.7916
67.2005
67.5605
67.8719
68.1355
68.352
68.5224
68.6478
68.7292
68.7681
68.7658
68.7237
68.6435
68.5268
68.3752
68.1903
67.9739
67.7277
67.4534
67.1528
66.8273
66.4788
66.1087
65.7188
65.3104
64.885
64.4441
63.9889
63.5208
63.0411
62.5507
62.0509
61.5427
61.0271
60.5049
59.977
59.4442
58.9072
58.3667
57.8234
57.2778
56.7304
56.1817
55.6321
55.082
54.5319
53.9819
53.4323
52.8835
52.3356
51.7888
51.2433
50.6991
50.1565
49.6155
49.0761
48.5385
48.0026
47.4686
46.9363
46.4058
45.8771
45.3501
44.8249
44.3014
43.7795
43.2592
42.7405
42.2232
41.7074