/*--------------------------------*- C++ -*----------------------------------*\
  =========                 |
  \\      /  F ield         | OpenFOAM: The Open Source CFD Toolbox
   \\    /   O peration     | Website:  https://openfoam.org
    \\  /    A nd           | Version:  8
     \\/     M anipulation  |
\*---------------------------------------------------------------------------*/
FoamFile
{
    version     2.0;
    format      ascii;
    class       volScalarField;
    location    "4400";
    object      k;
}
// * * * * * * * * * * * * * * * * * * * * * * * * * * * * * * * * * * * * * //

dimensions      [0 2 -2 0 0 0 0];

internalField   nonuniform List<scalar> 
48000
(
0.0318842
0.0829544
0.127227
0.16577
0.201804
0.23508
0.266056
0.295132
0.322989
0.350069
0.37609
0.40128
0.425699
0.4494
0.472422
0.494796
0.516542
0.537672
0.558195
0.578115
0.597433
0.616149
0.634259
0.651762
0.668653
0.684929
0.700589
0.71563
0.73005
0.743849
0.757028
0.76959
0.781537
0.792873
0.803605
0.813738
0.823281
0.832243
0.840633
0.848463
0.855743
0.862485
0.868702
0.874403
0.879623
0.88447
0.888861
0.892794
0.896286
0.899353
0.902012
0.904281
0.906176
0.907714
0.908911
0.909783
0.910345
0.910613
0.910602
0.910325
0.909797
0.909031
0.90804
0.906836
0.905432
0.903839
0.902068
0.900129
0.898032
0.895787
0.893402
0.890886
0.888248
0.885494
0.882631
0.879666
0.876606
0.873456
0.870221
0.866906
0.863517
0.860056
0.856528
0.852937
0.849286
0.845577
0.841813
0.837997
0.834131
0.830217
0.826255
0.822248
0.818197
0.814103
0.809967
0.805788
0.801569
0.797308
0.793007
0.788665
0.784282
0.779858
0.775393
0.770886
0.766337
0.761745
0.75711
0.752431
0.747707
0.742938
0.738121
0.733258
0.728346
0.723385
0.718373
0.71331
0.708195
0.703027
0.697804
0.692525
0.687191
0.681799
0.676349
0.670839
0.665269
0.659639
0.653946
0.648191
0.642372
0.636489
0.630541
0.624528
0.618449
0.612303
0.606091
0.599811
0.593464
0.58705
0.580567
0.574016
0.567398
0.560712
0.553958
0.547137
0.540248
0.533293
0.526271
0.519184
0.512032
0.504815
0.497534
0.49019
0.482784
0.475317
0.467789
0.460202
0.452556
0.444852
0.437093
0.429277
0.421407
0.413484
0.405507
0.397479
0.3894
0.38127
0.373091
0.364862
0.356584
0.348256
0.33988
0.331453
0.322976
0.314447
0.305864
0.297226
0.288529
0.279772
0.270952
0.262073
0.253147
0.244206
0.23517
0.226014
0.216726
0.207284
0.197667
0.187844
0.17778
0.167429
0.15673
0.145663
0.13417
0.122056
0.109131
0.095112
0.0795359
0.0615252
0.0389256
0.0241585
0.0318846
0.0829548
0.127228
0.16577
0.201805
0.235081
0.266057
0.295133
0.32299
0.350069
0.376091
0.401281
0.4257
0.4494
0.472423
0.494797
0.516542
0.537672
0.558196
0.578116
0.597434
0.616149
0.63426
0.651762
0.668653
0.68493
0.700589
0.71563
0.73005
0.743849
0.757029
0.76959
0.781537
0.792873
0.803605
0.813738
0.823281
0.832243
0.840634
0.848463
0.855743
0.862485
0.868702
0.874404
0.879624
0.88447
0.888861
0.892794
0.896286
0.899353
0.902012
0.904281
0.906176
0.907714
0.908911
0.909783
0.910345
0.910613
0.910602
0.910325
0.909797
0.909031
0.90804
0.906836
0.905432
0.903839
0.902068
0.900129
0.898032
0.895787
0.893402
0.890886
0.888248
0.885494
0.882631
0.879666
0.876606
0.873456
0.870221
0.866906
0.863517
0.860056
0.856528
0.852937
0.849286
0.845577
0.841813
0.837997
0.834131
0.830217
0.826255
0.822248
0.818197
0.814103
0.809967
0.805788
0.801569
0.797308
0.793007
0.788665
0.784282
0.779858
0.775393
0.770886
0.766337
0.761745
0.75711
0.752431
0.747707
0.742937
0.738121
0.733258
0.728346
0.723385
0.718373
0.71331
0.708195
0.703026
0.697804
0.692525
0.687191
0.681799
0.676349
0.670839
0.665269
0.659639
0.653946
0.648191
0.642372
0.636489
0.630541
0.624528
0.618449
0.612303
0.606091
0.599811
0.593464
0.58705
0.580567
0.574016
0.567398
0.560712
0.553958
0.547137
0.540248
0.533293
0.526271
0.519184
0.512032
0.504815
0.497534
0.49019
0.482784
0.475317
0.467789
0.460202
0.452556
0.444852
0.437093
0.429277
0.421407
0.413484
0.405507
0.397479
0.3894
0.38127
0.373091
0.364862
0.356584
0.348256
0.33988
0.331453
0.322976
0.314447
0.305864
0.297226
0.288529
0.279772
0.270952
0.262073
0.253147
0.244206
0.23517
0.226014
0.216726
0.207284
0.197667
0.187844
0.17778
0.167429
0.15673
0.145663
0.13417
0.122056
0.109131
0.095112
0.0795359
0.0615248
0.0389257
0.0241572
0.0846358
0.213081
0.303066
0.382264
0.454993
0.523105
0.58786
0.64946
0.708602
0.76571
0.821021
0.874727
0.926969
0.977845
1.02743
1.07576
1.12287
1.16878
1.21349
1.25699
1.29929
1.34036
1.3802
1.41877
1.45608
1.4921
1.52681
1.5602
1.59227
1.623
1.65239
1.68043
1.70713
1.7325
1.75652
1.77923
1.80062
1.82073
1.83955
1.85713
1.87347
1.8886
1.90256
1.91536
1.92703
1.93764
1.9472
1.95575
1.96332
1.96995
1.97568
1.98054
1.98456
1.98779
1.99027
1.99202
1.99307
1.99348
1.99326
1.99246
1.99109
1.9892
1.98681
1.98394
1.98064
1.97691
1.97279
1.96831
1.96347
1.95831
1.95284
1.94708
1.94106
1.93478
1.92827
1.92153
1.91459
1.90745
1.90013
1.89264
1.88499
1.87718
1.86924
1.86115
1.85294
1.84461
1.83616
1.8276
1.81894
1.81017
1.80131
1.79235
1.7833
1.77416
1.76494
1.75563
1.74623
1.73675
1.72718
1.71753
1.70779
1.69798
1.68807
1.67808
1.668
1.65784
1.64759
1.63724
1.6268
1.61627
1.60564
1.59491
1.58409
1.57316
1.56212
1.55098
1.53973
1.52837
1.51689
1.5053
1.4936
1.48177
1.46982
1.45775
1.44555
1.43322
1.42077
1.40818
1.39546
1.38261
1.36962
1.35649
1.34323
1.32982
1.31628
1.3026
1.28877
1.27481
1.2607
1.24645
1.23206
1.21753
1.20285
1.18804
1.17308
1.15799
1.14276
1.12739
1.11189
1.09625
1.08048
1.06458
1.04856
1.0324
1.01612
0.999721
0.983199
0.966559
0.949803
0.932932
0.91595
0.898859
0.881659
0.864354
0.846944
0.829432
0.811818
0.794103
0.776287
0.758371
0.740353
0.722234
0.70401
0.685678
0.667237
0.648679
0.63
0.611191
0.592245
0.573151
0.553899
0.534471
0.514832
0.494952
0.474824
0.4544
0.433638
0.412481
0.390862
0.368695
0.34587
0.322234
0.29765
0.271886
0.244615
0.215376
0.183458
0.14762
0.104752
0.04056
0.0846363
0.213081
0.303067
0.382264
0.454994
0.523105
0.58786
0.64946
0.708602
0.76571
0.821021
0.874728
0.926969
0.977845
1.02743
1.07576
1.12287
1.16878
1.21349
1.25699
1.29929
1.34036
1.3802
1.41877
1.45608
1.4921
1.52681
1.5602
1.59227
1.623
1.65239
1.68043
1.70713
1.73249
1.75652
1.77923
1.80062
1.82073
1.83955
1.85712
1.87347
1.8886
1.90256
1.91536
1.92703
1.93764
1.9472
1.95575
1.96332
1.96995
1.97568
1.98054
1.98456
1.98779
1.99027
1.99201
1.99307
1.99348
1.99326
1.99246
1.99109
1.9892
1.98681
1.98394
1.98064
1.97691
1.97279
1.96831
1.96347
1.95831
1.95284
1.94708
1.94106
1.93478
1.92827
1.92153
1.91459
1.90745
1.90013
1.89264
1.88499
1.87718
1.86923
1.86115
1.85294
1.84461
1.83616
1.8276
1.81894
1.81017
1.80131
1.79235
1.7833
1.77416
1.76494
1.75562
1.74623
1.73674
1.72718
1.71753
1.70779
1.69797
1.68807
1.67808
1.668
1.65784
1.64759
1.63724
1.6268
1.61627
1.60564
1.59491
1.58409
1.57316
1.56212
1.55098
1.53973
1.52837
1.51689
1.5053
1.4936
1.48177
1.46982
1.45775
1.44555
1.43322
1.42077
1.40818
1.39546
1.38261
1.36962
1.35649
1.34323
1.32982
1.31628
1.3026
1.28877
1.27481
1.2607
1.24645
1.23206
1.21753
1.20285
1.18804
1.17308
1.15799
1.14276
1.12739
1.11189
1.09625
1.08048
1.06458
1.04856
1.0324
1.01612
0.999721
0.983199
0.966558
0.949802
0.932932
0.91595
0.898858
0.881659
0.864354
0.846944
0.829431
0.811817
0.794102
0.776287
0.75837
0.740353
0.722233
0.704009
0.685678
0.667236
0.648679
0.629999
0.611191
0.592245
0.573151
0.553899
0.534471
0.514832
0.494952
0.474824
0.4544
0.433637
0.412481
0.390862
0.368695
0.345869
0.322234
0.29765
0.271886
0.244615
0.215376
0.183458
0.14762
0.104752
0.0405589
0.128134
0.303953
0.41656
0.512864
0.601143
0.684461
0.764077
0.840602
0.914502
0.986112
1.05566
1.12334
1.18926
1.25353
1.31621
1.37736
1.437
1.49514
1.55178
1.60693
1.66056
1.71266
1.76321
1.81218
1.85956
1.90532
1.94945
1.99191
2.03271
2.07181
2.10923
2.14495
2.17896
2.21128
2.24191
2.27086
2.29814
2.32378
2.34779
2.3702
2.39104
2.41033
2.42813
2.44445
2.45934
2.47284
2.485
2.49587
2.50548
2.51388
2.52111
2.52722
2.53226
2.53628
2.53931
2.54141
2.54262
2.54299
2.54255
2.54135
2.53943
2.53682
2.53358
2.52972
2.52529
2.52033
2.51485
2.5089
2.50251
2.49569
2.48849
2.48091
2.47299
2.46475
2.45621
2.44738
2.43829
2.42895
2.41939
2.4096
2.39961
2.38943
2.37907
2.36855
2.35786
2.34702
2.33604
2.32492
2.31367
2.3023
2.29081
2.2792
2.26747
2.25564
2.24371
2.23166
2.21952
2.20727
2.19492
2.18246
2.16991
2.15725
2.14449
2.13163
2.11866
2.10558
2.0924
2.0791
2.06569
2.05217
2.03853
2.02477
2.01088
1.99688
1.98274
1.96847
1.95407
1.93954
1.92487
1.91005
1.89509
1.87998
1.86473
1.84932
1.83376
1.81804
1.80216
1.78612
1.76992
1.75355
1.73702
1.72031
1.70344
1.68639
1.66918
1.65179
1.63422
1.61648
1.59857
1.58048
1.56222
1.54378
1.52517
1.50639
1.48743
1.46831
1.44901
1.42954
1.40991
1.39011
1.37016
1.35004
1.32976
1.30932
1.28874
1.268
1.24711
1.22608
1.20491
1.18359
1.16214
1.14056
1.11884
1.09699
1.07502
1.05292
1.03069
1.00834
0.985872
0.963277
0.940559
0.917715
0.894744
0.871643
0.848406
0.825029
0.801504
0.777822
0.753973
0.729943
0.705716
0.681272
0.656582
0.631615
0.606337
0.580698
0.554665
0.528172
0.501143
0.473485
0.44508
0.415778
0.385386
0.353684
0.320323
0.284799
0.246284
0.203084
0.150096
0.064021
0.128134
0.303953
0.416561
0.512864
0.601143
0.684461
0.764077
0.840602
0.914502
0.986111
1.05566
1.12334
1.18926
1.25353
1.31621
1.37736
1.437
1.49513
1.55178
1.60692
1.66056
1.71266
1.76321
1.81218
1.85956
1.90532
1.94944
1.99191
2.0327
2.07181
2.10923
2.14494
2.17896
2.21128
2.24191
2.27086
2.29814
2.32377
2.34779
2.3702
2.39104
2.41033
2.42812
2.44444
2.45933
2.47284
2.485
2.49587
2.50548
2.51387
2.52111
2.52722
2.53226
2.53628
2.53931
2.54141
2.54262
2.54299
2.54255
2.54135
2.53943
2.53682
2.53357
2.52972
2.52529
2.52033
2.51485
2.5089
2.50251
2.49569
2.48849
2.48091
2.47299
2.46475
2.4562
2.44738
2.43829
2.42895
2.41938
2.4096
2.39961
2.38943
2.37907
2.36855
2.35786
2.34702
2.33604
2.32492
2.31367
2.3023
2.2908
2.2792
2.26747
2.25564
2.24371
2.23166
2.21952
2.20727
2.19492
2.18246
2.16991
2.15725
2.14449
2.13163
2.11866
2.10558
2.09239
2.0791
2.06569
2.05217
2.03853
2.02477
2.01088
1.99687
1.98274
1.96847
1.95407
1.93954
1.92486
1.91005
1.89509
1.87998
1.86473
1.84932
1.83376
1.81804
1.80216
1.78612
1.76992
1.75355
1.73701
1.72031
1.70344
1.68639
1.66918
1.65179
1.63422
1.61648
1.59857
1.58048
1.56222
1.54378
1.52517
1.50639
1.48743
1.4683
1.44901
1.42954
1.40991
1.39011
1.37015
1.35003
1.32976
1.30932
1.28874
1.268
1.24711
1.22608
1.20491
1.18359
1.16214
1.14056
1.11884
1.09699
1.07502
1.05292
1.03069
1.00834
0.985872
0.963277
0.940558
0.917715
0.894744
0.871642
0.848406
0.825029
0.801504
0.777822
0.753972
0.729942
0.705716
0.681272
0.656582
0.631615
0.606337
0.580698
0.554665
0.528172
0.501143
0.473485
0.445079
0.415778
0.385386
0.353683
0.320323
0.284799
0.246284
0.203084
0.150096
0.0640211
0.164168
0.381159
0.512105
0.620578
0.719622
0.813217
0.902924
0.98949
1.07335
1.1548
1.23403
1.3112
1.38642
1.45977
1.53132
1.60111
1.66916
1.73549
1.8001
1.86298
1.92413
1.98353
2.04116
2.097
2.15101
2.20319
2.25351
2.30194
2.34848
2.39311
2.43582
2.4766
2.51545
2.55237
2.58738
2.62047
2.65167
2.68099
2.70846
2.73411
2.75796
2.78005
2.80042
2.81911
2.83616
2.85162
2.86554
2.87796
2.88894
2.89853
2.90677
2.91372
2.91943
2.92396
2.92735
2.92966
2.93094
2.93124
2.93061
2.92909
2.92674
2.9236
2.9197
2.91511
2.90985
2.90396
2.89749
2.89046
2.88292
2.87489
2.8664
2.85749
2.84818
2.8385
2.82847
2.81811
2.80745
2.79651
2.7853
2.77384
2.76214
2.75023
2.73812
2.72581
2.71331
2.70065
2.68782
2.67484
2.66172
2.64845
2.63505
2.62151
2.60785
2.59407
2.58017
2.56615
2.55202
2.53777
2.52341
2.50894
2.49435
2.47966
2.46484
2.44991
2.43487
2.4197
2.40442
2.38901
2.37348
2.35782
2.34203
2.3261
2.31004
2.29385
2.27751
2.26102
2.24439
2.2276
2.21067
2.19357
2.17631
2.15889
2.1413
2.12355
2.10562
2.08751
2.06923
2.05077
2.03212
2.01329
1.99427
1.97507
1.95567
1.93609
1.91631
1.89633
1.87617
1.8558
1.83524
1.81449
1.79354
1.77239
1.75105
1.72952
1.7078
1.68588
1.66377
1.64147
1.61899
1.59632
1.57347
1.55044
1.52724
1.50385
1.4803
1.45658
1.43269
1.40864
1.38443
1.36007
1.33555
1.31088
1.28606
1.26109
1.23599
1.21074
1.18535
1.15983
1.13416
1.10837
1.08243
1.05635
1.03013
1.00377
0.977259
0.950592
0.923762
0.896761
0.869576
0.842193
0.814596
0.786763
0.758667
0.730278
0.701559
0.672467
0.642952
0.612949
0.582388
0.55118
0.519206
0.486318
0.452321
0.416977
0.379924
0.340594
0.297966
0.249757
0.188846
0.0831623
0.164168
0.381159
0.512105
0.620578
0.719622
0.813217
0.902924
0.98949
1.07335
1.1548
1.23403
1.3112
1.38642
1.45977
1.53132
1.60111
1.66916
1.73549
1.8001
1.86298
1.92413
1.98353
2.04116
2.09699
2.15101
2.20319
2.25351
2.30194
2.34848
2.39311
2.43582
2.4766
2.51545
2.55237
2.58738
2.62047
2.65167
2.68099
2.70846
2.73411
2.75796
2.78005
2.80042
2.81911
2.83616
2.85162
2.86554
2.87796
2.88894
2.89853
2.90677
2.91372
2.91943
2.92396
2.92735
2.92966
2.93094
2.93124
2.93061
2.92909
2.92674
2.92359
2.9197
2.91511
2.90985
2.90396
2.89749
2.89046
2.88292
2.87489
2.8664
2.85749
2.84818
2.8385
2.82847
2.81811
2.80745
2.79651
2.7853
2.77384
2.76214
2.75023
2.73811
2.7258
2.71331
2.70065
2.68782
2.67484
2.66172
2.64845
2.63504
2.62151
2.60785
2.59407
2.58017
2.56615
2.55202
2.53777
2.52341
2.50894
2.49435
2.47965
2.46484
2.44991
2.43487
2.4197
2.40442
2.38901
2.37348
2.35782
2.34203
2.3261
2.31004
2.29385
2.27751
2.26102
2.24439
2.2276
2.21066
2.19357
2.17631
2.15889
2.1413
2.12355
2.10562
2.08751
2.06923
2.05077
2.03212
2.01329
1.99427
1.97507
1.95567
1.93609
1.91631
1.89633
1.87616
1.8558
1.83524
1.81449
1.79354
1.77239
1.75105
1.72952
1.70779
1.68588
1.66377
1.64147
1.61899
1.59632
1.57347
1.55044
1.52723
1.50385
1.4803
1.45658
1.43269
1.40864
1.38443
1.36007
1.33555
1.31088
1.28606
1.26109
1.23599
1.21074
1.18535
1.15983
1.13416
1.10836
1.08243
1.05635
1.03013
1.00377
0.977259
0.950592
0.923762
0.89676
0.869575
0.842193
0.814596
0.786763
0.758667
0.730278
0.701559
0.672467
0.642952
0.612949
0.582388
0.55118
0.519206
0.486318
0.452321
0.416977
0.379924
0.340594
0.297966
0.249757
0.188846
0.0831623
0.196761
0.450527
0.599032
0.718987
0.82751
0.929753
1.02773
1.12237
1.21416
1.30339
1.39023
1.47483
1.55728
1.63765
1.716
1.79238
1.8668
1.93929
2.00986
2.0785
2.14521
2.20998
2.27279
2.33363
2.39248
2.44931
2.50411
2.55687
2.60756
2.65618
2.70272
2.74717
2.78953
2.8298
2.86798
2.9041
2.93816
2.97019
3.00021
3.02824
3.05432
3.07849
3.10078
3.12124
3.1399
3.15683
3.17208
3.18568
3.1977
3.20819
3.2172
3.22479
3.23101
3.23593
3.2396
3.24207
3.24341
3.24365
3.24287
3.24111
3.23842
3.23486
3.23046
3.22528
3.21937
3.21276
3.20549
3.19761
3.18916
3.18016
3.17066
3.16069
3.15027
3.13944
3.12822
3.11664
3.10472
3.09249
3.07996
3.06716
3.05409
3.04079
3.02726
3.01352
2.99957
2.98544
2.97113
2.95665
2.94201
2.92721
2.91227
2.89719
2.88196
2.86661
2.85113
2.83552
2.81979
2.80393
2.78795
2.77185
2.75563
2.73928
2.72281
2.70622
2.68951
2.67266
2.65569
2.63858
2.62135
2.60397
2.58646
2.5688
2.55099
2.53304
2.51494
2.49667
2.47825
2.45967
2.44092
2.422
2.40291
2.38364
2.3642
2.34457
2.32475
2.30475
2.28455
2.26416
2.24357
2.22279
2.2018
2.18061
2.15922
2.13761
2.1158
2.09379
2.07156
2.04912
2.02647
2.00361
1.98053
1.95725
1.93376
1.91005
1.88614
1.86202
1.8377
1.81317
1.78844
1.76351
1.73838
1.71306
1.68755
1.66185
1.63596
1.60989
1.58363
1.55721
1.53061
1.50384
1.4769
1.4498
1.42254
1.39512
1.36754
1.33981
1.31193
1.2839
1.25572
1.22739
1.19892
1.17029
1.14151
1.11258
1.08348
1.05422
1.02479
0.995172
0.965363
0.935347
0.905106
0.874621
0.843865
0.81281
0.781421
0.749655
0.717464
0.684786
0.65155
0.617663
0.583009
0.547447
0.510777
0.472723
0.432896
0.390623
0.344634
0.292021
0.223795
0.100126
0.196762
0.450527
0.599032
0.718987
0.82751
0.929753
1.02773
1.12237
1.21416
1.30339
1.39023
1.47483
1.55728
1.63765
1.716
1.79238
1.8668
1.93929
2.00986
2.0785
2.14521
2.20998
2.27279
2.33363
2.39247
2.44931
2.50411
2.55687
2.60756
2.65618
2.70272
2.74717
2.78953
2.82979
2.86798
2.9041
2.93816
2.97019
3.00021
3.02824
3.05432
3.07849
3.10078
3.12124
3.1399
3.15683
3.17207
3.18568
3.1977
3.20818
3.2172
3.22479
3.23101
3.23593
3.2396
3.24207
3.2434
3.24365
3.24287
3.24111
3.23842
3.23486
3.23046
3.22528
3.21937
3.21275
3.20549
3.19761
3.18916
3.18016
3.17066
3.16069
3.15027
3.13944
3.12822
3.11664
3.10472
3.09249
3.07996
3.06715
3.05409
3.04079
3.02726
3.01351
2.99957
2.98544
2.97113
2.95665
2.94201
2.92721
2.91227
2.89718
2.88196
2.86661
2.85113
2.83552
2.81978
2.80393
2.78795
2.77185
2.75562
2.73928
2.72281
2.70622
2.68951
2.67266
2.65569
2.63858
2.62135
2.60397
2.58645
2.5688
2.55099
2.53304
2.51493
2.49667
2.47825
2.45967
2.44092
2.422
2.40291
2.38364
2.3642
2.34457
2.32475
2.30475
2.28455
2.26416
2.24357
2.22279
2.2018
2.18061
2.15922
2.13761
2.1158
2.09379
2.07156
2.04912
2.02647
2.00361
1.98053
1.95725
1.93376
1.91005
1.88614
1.86202
1.8377
1.81317
1.78844
1.76351
1.73838
1.71306
1.68755
1.66185
1.63596
1.60989
1.58363
1.55721
1.53061
1.50384
1.4769
1.4498
1.42253
1.39511
1.36754
1.33981
1.31193
1.2839
1.25572
1.22739
1.19892
1.17029
1.14151
1.11258
1.08348
1.05422
1.02479
0.995172
0.965363
0.935346
0.905106
0.87462
0.843865
0.81281
0.781421
0.749655
0.717464
0.684786
0.651549
0.617663
0.583009
0.547447
0.510777
0.472723
0.432896
0.390623
0.344634
0.292021
0.223795
0.100126
0.22666
0.515551
0.680985
0.812338
0.929989
1.04027
1.14571
1.24746
1.34611
1.44196
1.53522
1.62602
1.71444
1.80056
1.88443
1.9661
2.04559
2.12294
2.19816
2.27126
2.34223
2.41109
2.47783
2.54243
2.60489
2.66519
2.72333
2.77928
2.83305
2.88462
2.93399
2.98115
3.0261
3.06885
3.1094
3.14778
3.18398
3.21804
3.24998
3.27982
3.30759
3.33335
3.35711
3.37893
3.39885
3.41693
3.4332
3.44774
3.46058
3.47179
3.48142
3.48953
3.49617
3.50142
3.50533
3.50795
3.50934
3.50957
3.50868
3.50674
3.5038
3.49991
3.49512
3.48948
3.48305
3.47586
3.46796
3.4594
3.45021
3.44044
3.43011
3.41927
3.40795
3.39618
3.38399
3.37141
3.35846
3.34516
3.33154
3.31763
3.30343
3.28898
3.27427
3.25934
3.24419
3.22883
3.21328
3.19755
3.18165
3.16558
3.14935
3.13297
3.11644
3.09977
3.08296
3.06602
3.04894
3.03174
3.0144
2.99693
2.97934
2.96161
2.94376
2.92577
2.90765
2.8894
2.87101
2.85248
2.8338
2.81499
2.79603
2.77691
2.75764
2.73822
2.71863
2.69888
2.67896
2.65887
2.6386
2.61815
2.59753
2.57671
2.55571
2.53451
2.51311
2.49152
2.46972
2.44772
2.42551
2.40309
2.38046
2.35761
2.33454
2.31126
2.28776
2.26403
2.24008
2.21591
2.19151
2.1669
2.14205
2.11698
2.09169
2.06618
2.04045
2.01449
1.98832
1.96193
1.93533
1.90851
1.88148
1.85425
1.82681
1.79917
1.77133
1.74329
1.71507
1.68665
1.65805
1.62927
1.6003
1.57117
1.54185
1.51237
1.48273
1.45291
1.42294
1.3928
1.3625
1.33205
1.30143
1.27065
1.23971
1.20861
1.17733
1.14588
1.11425
1.08243
1.05041
1.01817
0.985707
0.952991
0.920003
0.886713
0.85309
0.819093
0.784675
0.749777
0.714326
0.678233
0.641381
0.603618
0.564728
0.524402
0.482194
0.437304
0.388198
0.331366
0.256135
0.115665
0.22666
0.515551
0.680985
0.812338
0.929988
1.04027
1.14571
1.24746
1.34611
1.44196
1.53522
1.62602
1.71444
1.80056
1.88443
1.9661
2.04559
2.12294
2.19816
2.27126
2.34223
2.41109
2.47783
2.54243
2.60489
2.66519
2.72333
2.77928
2.83305
2.88462
2.93399
2.98115
3.0261
3.06885
3.1094
3.14778
3.18398
3.21804
3.24998
3.27982
3.30759
3.33334
3.35711
3.37893
3.39885
3.41693
3.4332
3.44774
3.46058
3.47179
3.48142
3.48953
3.49617
3.50142
3.50532
3.50794
3.50934
3.50957
3.50868
3.50674
3.5038
3.49991
3.49512
3.48948
3.48305
3.47586
3.46796
3.4594
3.45021
3.44044
3.43011
3.41927
3.40795
3.39618
3.38399
3.37141
3.35845
3.34516
3.33154
3.31763
3.30343
3.28898
3.27427
3.25934
3.24419
3.22883
3.21328
3.19755
3.18165
3.16558
3.14935
3.13297
3.11644
3.09977
3.08296
3.06602
3.04894
3.03174
3.0144
2.99693
2.97934
2.96161
2.94376
2.92577
2.90765
2.8894
2.87101
2.85248
2.8338
2.81499
2.79602
2.77691
2.75764
2.73822
2.71863
2.69888
2.67896
2.65887
2.6386
2.61815
2.59752
2.57671
2.5557
2.53451
2.51311
2.49152
2.46972
2.44772
2.42551
2.40309
2.38046
2.35761
2.33454
2.31126
2.28776
2.26403
2.24008
2.21591
2.19151
2.16689
2.14205
2.11698
2.09169
2.06618
2.04045
2.01449
1.98832
1.96193
1.93533
1.90851
1.88148
1.85425
1.82681
1.79917
1.77133
1.74329
1.71507
1.68665
1.65805
1.62927
1.6003
1.57117
1.54185
1.51237
1.48272
1.45291
1.42294
1.3928
1.3625
1.33205
1.30143
1.27065
1.23971
1.20861
1.17733
1.14588
1.11425
1.08243
1.05041
1.01817
0.985707
0.952991
0.920003
0.886713
0.85309
0.819093
0.784675
0.749776
0.714326
0.678233
0.641381
0.603618
0.564728
0.524402
0.482194
0.437304
0.388198
0.331367
0.256135
0.115665
0.254863
0.577721
0.759793
0.90252
1.0292
1.14727
1.25976
1.36808
1.47292
1.57468
1.67356
1.76972
1.86324
1.95421
2.04268
2.12871
2.21233
2.29358
2.37249
2.44908
2.52337
2.59536
2.66508
2.73251
2.79767
2.86055
2.92114
2.97945
3.03546
3.08919
3.14062
3.18976
3.23661
3.28117
3.32347
3.3635
3.4013
3.43686
3.47023
3.50143
3.5305
3.55745
3.58235
3.60522
3.62612
3.64509
3.66219
3.67746
3.69096
3.70276
3.71289
3.72143
3.72844
3.73397
3.73809
3.74085
3.74232
3.74255
3.74161
3.73954
3.73642
3.73229
3.7272
3.72121
3.71437
3.70673
3.69834
3.68923
3.67945
3.66905
3.65806
3.64652
3.63446
3.62192
3.60893
3.59552
3.58171
3.56754
3.55302
3.53818
3.52305
3.50762
3.49194
3.47601
3.45984
3.44346
3.42687
3.41008
3.39311
3.37597
3.35865
3.34117
3.32353
3.30575
3.28781
3.26974
3.25152
3.23316
3.21467
3.19604
3.17727
3.15837
3.13933
3.12015
3.10083
3.08137
3.06177
3.04203
3.02213
3.00208
2.98188
2.96152
2.941
2.92031
2.89946
2.87843
2.85723
2.83584
2.81428
2.79252
2.77058
2.74844
2.7261
2.70356
2.68082
2.65786
2.6347
2.61132
2.58772
2.5639
2.53986
2.51559
2.4911
2.46637
2.44142
2.41623
2.39081
2.36516
2.33927
2.31314
2.28678
2.26019
2.23336
2.2063
2.179
2.15148
2.12372
2.09573
2.06752
2.03908
2.01042
1.98154
1.95245
1.92314
1.89362
1.86389
1.83396
1.80383
1.7735
1.74297
1.71226
1.68136
1.65027
1.619
1.58755
1.55592
1.52412
1.49215
1.46001
1.42769
1.3952
1.36254
1.32971
1.29671
1.26352
1.23015
1.19659
1.16283
1.12887
1.09468
1.06026
1.02559
0.990644
0.955396
0.919816
0.883867
0.8475
0.81066
0.773273
0.735247
0.696461
0.656749
0.615879
0.573505
0.529082
0.481693
0.429543
0.368569
0.286551
0.130176
0.254864
0.577722
0.759793
0.90252
1.0292
1.14727
1.25976
1.36808
1.47292
1.57468
1.67356
1.76972
1.86324
1.95421
2.04268
2.12871
2.21233
2.29358
2.37249
2.44908
2.52337
2.59536
2.66508
2.73251
2.79767
2.86055
2.92114
2.97944
3.03546
3.08919
3.14062
3.18976
3.23661
3.28117
3.32347
3.3635
3.40129
3.43686
3.47023
3.50143
3.5305
3.55745
3.58235
3.60522
3.62612
3.64509
3.66219
3.67746
3.69096
3.70275
3.71289
3.72143
3.72844
3.73397
3.73809
3.74085
3.74232
3.74255
3.7416
3.73954
3.73642
3.73228
3.7272
3.72121
3.71437
3.70673
3.69833
3.68923
3.67945
3.66905
3.65806
3.64652
3.63446
3.62192
3.60893
3.59552
3.58171
3.56754
3.55302
3.53818
3.52304
3.50762
3.49194
3.47601
3.45984
3.44346
3.42687
3.41008
3.39311
3.37597
3.35865
3.34117
3.32353
3.30575
3.28781
3.26974
3.25152
3.23316
3.21467
3.19604
3.17727
3.15837
3.13933
3.12015
3.10083
3.08137
3.06177
3.04202
3.02213
3.00208
2.98188
2.96152
2.941
2.92031
2.89946
2.87843
2.85723
2.83584
2.81428
2.79252
2.77058
2.74844
2.7261
2.70356
2.68082
2.65786
2.6347
2.61132
2.58772
2.5639
2.53986
2.51559
2.4911
2.46637
2.44142
2.41623
2.39081
2.36516
2.33927
2.31314
2.28678
2.26019
2.23336
2.2063
2.179
2.15147
2.12372
2.09573
2.06752
2.03908
2.01042
1.98154
1.95245
1.92314
1.89362
1.86389
1.83396
1.80383
1.7735
1.74297
1.71226
1.68136
1.65027
1.619
1.58755
1.55592
1.52412
1.49215
1.46
1.42769
1.3952
1.36254
1.32971
1.29671
1.26352
1.23015
1.19659
1.16283
1.12887
1.09468
1.06026
1.02559
0.990643
0.955396
0.919816
0.883867
0.8475
0.81066
0.773273
0.735247
0.696461
0.656749
0.615879
0.573505
0.529082
0.481693
0.429543
0.368569
0.286551
0.130176
0.282486
0.637929
0.836487
0.990561
1.12622
1.25194
1.37124
1.48577
1.59637
1.7035
1.80744
1.90833
2.00629
2.10142
2.19378
2.28343
2.37043
2.45483
2.53668
2.616
2.69284
2.76721
2.83916
2.90868
2.97581
3.04054
3.10288
3.16286
3.22046
3.2757
3.32858
3.3791
3.42728
3.47313
3.51665
3.55787
3.59679
3.63344
3.66785
3.70005
3.73005
3.75791
3.78365
3.80732
3.82897
3.84863
3.86637
3.88222
3.89626
3.90852
3.91908
3.92798
3.93529
3.94107
3.94538
3.94829
3.94984
3.9501
3.94914
3.94701
3.94376
3.93946
3.93416
3.92791
3.92077
3.91278
3.904
3.89446
3.88423
3.87333
3.8618
3.8497
3.83705
3.82389
3.81025
3.79616
3.78165
3.76676
3.7515
3.73589
3.71997
3.70375
3.68724
3.67048
3.65347
3.63622
3.61875
3.60108
3.58321
3.56515
3.54691
3.5285
3.50993
3.49119
3.4723
3.45326
3.43407
3.41473
3.39525
3.37562
3.35585
3.33594
3.31589
3.29569
3.27534
3.25485
3.23421
3.21341
3.19247
3.17136
3.15009
3.12866
3.10706
3.08528
3.06334
3.04121
3.0189
2.99641
2.97372
2.95084
2.92776
2.90448
2.88099
2.85729
2.83338
2.80925
2.7849
2.76033
2.73553
2.7105
2.68524
2.65975
2.63402
2.60805
2.58184
2.55539
2.52869
2.50175
2.47457
2.44714
2.41947
2.39155
2.36338
2.33498
2.30632
2.27743
2.24829
2.21891
2.1893
2.15945
2.12937
2.09905
2.06851
2.03774
2.00675
1.97553
1.94411
1.91247
1.88061
1.84856
1.81629
1.78383
1.75117
1.71832
1.68527
1.65203
1.61861
1.585
1.55121
1.51723
1.48307
1.44873
1.4142
1.37949
1.34459
1.30949
1.27419
1.23869
1.20298
1.16703
1.13085
1.09441
1.05769
1.02068
0.983327
0.945609
0.907478
0.868874
0.829723
0.789929
0.749362
0.70784
0.665105
0.620767
0.5742
0.524355
0.469191
0.40412
0.315493
0.143909
0.282486
0.63793
0.836487
0.99056
1.12622
1.25194
1.37124
1.48577
1.59637
1.7035
1.80744
1.90833
2.00629
2.10142
2.19378
2.28343
2.37043
2.45483
2.53668
2.616
2.69284
2.76721
2.83916
2.90868
2.9758
3.04054
3.10288
3.16286
3.22046
3.2757
3.32857
3.3791
3.42728
3.47313
3.51665
3.55786
3.59679
3.63344
3.66785
3.70005
3.73005
3.75791
3.78365
3.80732
3.82897
3.84863
3.86637
3.88222
3.89626
3.90852
3.91908
3.92798
3.93529
3.94107
3.94538
3.94828
3.94984
3.9501
3.94914
3.94701
3.94376
3.93946
3.93416
3.92791
3.92077
3.91278
3.904
3.89446
3.88423
3.87333
3.8618
3.8497
3.83705
3.82389
3.81025
3.79616
3.78165
3.76676
3.7515
3.73589
3.71997
3.70375
3.68724
3.67048
3.65347
3.63622
3.61875
3.60108
3.58321
3.56515
3.54691
3.5285
3.50993
3.49119
3.4723
3.45326
3.43407
3.41473
3.39525
3.37562
3.35585
3.33594
3.31589
3.29569
3.27534
3.25485
3.23421
3.21341
3.19246
3.17136
3.15009
3.12866
3.10706
3.08528
3.06334
3.04121
3.0189
2.99641
2.97372
2.95084
2.92776
2.90448
2.88099
2.85729
2.83338
2.80925
2.7849
2.76033
2.73553
2.7105
2.68524
2.65975
2.63402
2.60805
2.58184
2.55539
2.52869
2.50175
2.47457
2.44714
2.41947
2.39155
2.36338
2.33497
2.30632
2.27743
2.24829
2.21891
2.1893
2.15945
2.12936
2.09905
2.06851
2.03774
2.00675
1.97553
1.94411
1.91247
1.88061
1.84856
1.81629
1.78383
1.75117
1.71832
1.68527
1.65203
1.61861
1.585
1.55121
1.51723
1.48307
1.44873
1.4142
1.37949
1.34459
1.30949
1.27419
1.23869
1.20298
1.16703
1.13085
1.09441
1.05769
1.02068
0.983327
0.945609
0.907478
0.868874
0.829723
0.789929
0.749362
0.70784
0.665105
0.620767
0.5742
0.524355
0.469191
0.404121
0.315493
0.143909
0.309888
0.696974
0.911757
1.0771
1.22169
1.35495
1.48087
1.60134
1.71736
1.82947
1.93798
2.04311
2.14497
2.24369
2.33935
2.43203
2.5218
2.60873
2.69288
2.77431
2.85306
2.9292
3.00274
3.07374
3.14222
3.20821
3.27173
3.3328
3.39144
3.44766
3.50147
3.55288
3.60192
3.64859
3.69292
3.7349
3.77458
3.81196
3.84708
3.87995
3.91062
3.93911
3.96546
3.98971
4.01191
4.03209
4.05031
4.06662
4.08107
4.09371
4.1046
4.11381
4.12138
4.12738
4.13187
4.13491
4.13656
4.13688
4.13593
4.13377
4.13046
4.12606
4.12061
4.11418
4.10682
4.09858
4.08951
4.07966
4.06907
4.05778
4.04585
4.0333
4.02018
4.00652
3.99236
3.97774
3.96267
3.94718
3.93132
3.91509
3.89853
3.88164
3.86447
3.84701
3.8293
3.81133
3.79314
3.77472
3.7561
3.73728
3.71826
3.69907
3.6797
3.66017
3.64046
3.6206
3.60059
3.58042
3.5601
3.53962
3.519
3.49823
3.47731
3.45624
3.43501
3.41363
3.3921
3.37041
3.34856
3.32654
3.30435
3.282
3.25947
3.23676
3.21388
3.1908
3.16754
3.14408
3.12043
3.09658
3.07252
3.04825
3.02376
2.99906
2.97414
2.949
2.92363
2.89802
2.87218
2.84611
2.81979
2.79323
2.76643
2.73938
2.71208
2.68453
2.65673
2.62867
2.60036
2.5718
2.54297
2.5139
2.48457
2.45498
2.42514
2.39505
2.3647
2.33411
2.30326
2.27217
2.24083
2.20925
2.17743
2.14537
2.11307
2.08055
2.04779
2.01481
1.9816
1.94818
1.91453
1.88068
1.84661
1.81233
1.77785
1.74316
1.70827
1.67319
1.6379
1.60242
1.56674
1.53087
1.4948
1.45853
1.42205
1.38538
1.34849
1.31139
1.27406
1.2365
1.19869
1.16063
1.12228
1.08362
1.04464
1.00528
0.965504
0.925253
0.884448
0.842985
0.800724
0.757465
0.71292
0.666653
0.617964
0.565656
0.50747
0.438329
0.343248
0.157105
0.309889
0.696974
0.911757
1.0771
1.22169
1.35495
1.48087
1.60134
1.71736
1.82946
1.93798
2.0431
2.14497
2.24369
2.33935
2.43203
2.5218
2.60873
2.69288
2.77431
2.85306
2.92919
3.00274
3.07374
3.14222
3.20821
3.27173
3.3328
3.39144
3.44766
3.50147
3.55288
3.60192
3.64859
3.69292
3.7349
3.77458
3.81196
3.84708
3.87995
3.91062
3.93911
3.96546
3.98971
4.01191
4.03209
4.05031
4.06662
4.08106
4.09371
4.1046
4.11381
4.12138
4.12738
4.13187
4.13491
4.13656
4.13688
4.13593
4.13377
4.13046
4.12606
4.12061
4.11418
4.10682
4.09858
4.08951
4.07966
4.06907
4.05778
4.04585
4.0333
4.02018
4.00652
3.99236
3.97774
3.96267
3.94718
3.93132
3.91509
3.89852
3.88164
3.86447
3.84701
3.82929
3.81133
3.79314
3.77472
3.7561
3.73727
3.71826
3.69907
3.6797
3.66016
3.64046
3.6206
3.60059
3.58042
3.5601
3.53962
3.519
3.49823
3.47731
3.45624
3.43501
3.41363
3.3921
3.37041
3.34855
3.32654
3.30435
3.282
3.25947
3.23676
3.21388
3.1908
3.16754
3.14408
3.12043
3.09658
3.07252
3.04825
3.02376
2.99906
2.97414
2.949
2.92363
2.89802
2.87218
2.84611
2.81979
2.79323
2.76643
2.73938
2.71208
2.68453
2.65673
2.62867
2.60036
2.57179
2.54297
2.5139
2.48457
2.45498
2.42514
2.39505
2.3647
2.33411
2.30326
2.27217
2.24083
2.20925
2.17743
2.14537
2.11307
2.08055
2.04779
2.01481
1.9816
1.94818
1.91453
1.88068
1.84661
1.81233
1.77785
1.74316
1.70827
1.67319
1.6379
1.60242
1.56674
1.53087
1.4948
1.45853
1.42205
1.38538
1.34849
1.31139
1.27406
1.2365
1.19869
1.16063
1.12228
1.08362
1.04464
1.00528
0.965504
0.925253
0.884448
0.842985
0.800724
0.757465
0.71292
0.666653
0.617964
0.565656
0.50747
0.43833
0.343248
0.157105