/*--------------------------------*- C++ -*----------------------------------*\
  =========                 |
  \\      /  F ield         | OpenFOAM: The Open Source CFD Toolbox
   \\    /   O peration     | Website:  https://openfoam.org
    \\  /    A nd           | Version:  8
     \\/     M anipulation  |
\*---------------------------------------------------------------------------*/
FoamFile
{
    version     2.0;
    format      ascii;
    class       volScalarField;
    location    "4400";
    object      nut;
}
// * * * * * * * * * * * * * * * * * * * * * * * * * * * * * * * * * * * * * //

dimensions      [0 2 -1 0 0 0 0];

internalField   nonuniform List<scalar> 
48000
(
5.38445e-05
9.38007e-05
0.000116165
0.000132599
0.000146302
0.000157904
0.000167986
0.000176927
0.000185088
0.000192691
0.000199725
0.000206305
0.000212489
0.000218324
0.000223847
0.000229086
0.000234066
0.000238806
0.000243321
0.000247625
0.000251728
0.000255641
0.00025937
0.000262925
0.00026631
0.000269532
0.000272596
0.000275507
0.000278269
0.000280887
0.000283364
0.000285706
0.000287915
0.000289996
0.000291952
0.000293787
0.000295505
0.000297109
0.000298603
0.000299991
0.000301275
0.00030246
0.000303548
0.000304542
0.00030545
0.000306291
0.00030705
0.000307729
0.00030833
0.000308857
0.000309313
0.000309702
0.000310026
0.000310289
0.000310494
0.000310643
0.000310739
0.000310784
0.000310782
0.000310735
0.000310645
0.000310514
0.000310345
0.000310139
0.000309898
0.000309626
0.000309322
0.000308989
0.000308629
0.000308243
0.000307832
0.000307398
0.000306942
0.000306466
0.00030597
0.000305456
0.000304924
0.000304375
0.000303811
0.000303231
0.000302638
0.000302031
0.00030141
0.000300778
0.000300133
0.000299477
0.000298809
0.000298131
0.000297443
0.000296744
0.000296035
0.000295316
0.000294587
0.000293849
0.000293102
0.000292345
0.000291578
0.000290802
0.000290016
0.000289221
0.000288416
0.000287602
0.000286777
0.000285942
0.000285097
0.000284242
0.000283375
0.000282498
0.00028161
0.00028071
0.000279799
0.000278876
0.00027794
0.000276992
0.00027603
0.000275056
0.000274068
0.000273066
0.00027205
0.000271019
0.000269973
0.000268912
0.000267835
0.000266741
0.000265632
0.000264505
0.000263361
0.0002622
0.00026102
0.000259822
0.000258606
0.00025737
0.000256114
0.000254838
0.000253542
0.000252225
0.000250887
0.000249528
0.000248146
0.000246742
0.000245316
0.000243866
0.000242393
0.000240896
0.000239375
0.000237829
0.000236258
0.000234662
0.00023304
0.000231392
0.000229717
0.000228016
0.000226287
0.00022453
0.000222745
0.000220931
0.000219088
0.000217216
0.000215313
0.000213379
0.000211414
0.000209417
0.000207388
0.000205325
0.000203227
0.000201095
0.000198926
0.00019672
0.000194476
0.000192192
0.000189866
0.000187498
0.000185085
0.000182625
0.000180115
0.000177554
0.000174937
0.000172262
0.000169525
0.000166724
0.000163861
0.000160941
0.000157935
0.00015483
0.000151616
0.000148276
0.000144796
0.000141152
0.000137319
0.000133261
0.000128933
0.000124298
0.000119294
0.000113781
0.000107587
0.000100438
9.18319e-05
8.0585e-05
6.1523e-05
7.98582e-05
5.38449e-05
9.3801e-05
0.000116166
0.000132599
0.000146302
0.000157904
0.000167986
0.000176927
0.000185089
0.000192691
0.000199725
0.000206305
0.000212489
0.000218324
0.000223847
0.000229086
0.000234066
0.000238806
0.000243321
0.000247625
0.000251728
0.000255641
0.000259371
0.000262925
0.00026631
0.000269532
0.000272596
0.000275507
0.000278269
0.000280887
0.000283364
0.000285706
0.000287915
0.000289996
0.000291952
0.000293787
0.000295505
0.000297109
0.000298603
0.000299991
0.000301275
0.00030246
0.000303548
0.000304542
0.00030545
0.000306291
0.00030705
0.000307729
0.00030833
0.000308857
0.000309313
0.000309702
0.000310026
0.000310289
0.000310494
0.000310643
0.000310739
0.000310784
0.000310782
0.000310735
0.000310645
0.000310514
0.000310345
0.000310139
0.000309898
0.000309626
0.000309322
0.000308989
0.000308629
0.000308243
0.000307832
0.000307398
0.000306942
0.000306466
0.00030597
0.000305456
0.000304924
0.000304375
0.000303811
0.000303231
0.000302638
0.000302031
0.00030141
0.000300778
0.000300133
0.000299477
0.000298809
0.000298131
0.000297443
0.000296744
0.000296035
0.000295316
0.000294587
0.000293849
0.000293102
0.000292345
0.000291578
0.000290802
0.000290016
0.000289221
0.000288416
0.000287602
0.000286777
0.000285942
0.000285097
0.000284242
0.000283375
0.000282498
0.00028161
0.00028071
0.000279799
0.000278876
0.00027794
0.000276992
0.00027603
0.000275056
0.000274068
0.000273066
0.00027205
0.000271019
0.000269973
0.000268912
0.000267835
0.000266741
0.000265632
0.000264505
0.000263361
0.0002622
0.00026102
0.000259822
0.000258606
0.00025737
0.000256114
0.000254838
0.000253542
0.000252225
0.000250887
0.000249528
0.000248146
0.000246742
0.000245316
0.000243866
0.000242393
0.000240896
0.000239375
0.000237829
0.000236258
0.000234662
0.00023304
0.000231392
0.000229717
0.000228016
0.000226287
0.00022453
0.000222745
0.000220931
0.000219088
0.000217216
0.000215313
0.000213379
0.000211414
0.000209417
0.000207388
0.000205325
0.000203227
0.000201095
0.000198926
0.00019672
0.000194476
0.000192192
0.000189866
0.000187498
0.000185085
0.000182625
0.000180115
0.000177554
0.000174937
0.000172262
0.000169525
0.000166724
0.000163861
0.000160941
0.000157935
0.00015483
0.000151616
0.000148276
0.000144796
0.000141152
0.000137319
0.000133261
0.000128933
0.000124298
0.000119294
0.000113781
0.000107587
0.000100438
9.18319e-05
8.05841e-05
6.15215e-05
7.98494e-05
8.16787e-05
0.000605841
0.000958983
0.00120575
0.00139141
0.00154184
0.00167073
0.0017841
0.00188532
0.00197661
0.00206017
0.00213721
0.00220868
0.0022753
0.00233764
0.00239616
0.00245122
0.00250313
0.00255214
0.00259847
0.00264231
0.00268382
0.00272314
0.00276039
0.00279569
0.00282914
0.00286082
0.00289082
0.00291922
0.00294608
0.00297147
0.00299546
0.00301809
0.00303943
0.00305952
0.00307841
0.00309615
0.00311279
0.00312835
0.00314289
0.00315644
0.00316903
0.00318069
0.00319143
0.00320114
0.00320977
0.00321754
0.00322455
0.00323089
0.00323657
0.00324164
0.00324613
0.00325007
0.00325347
0.00325637
0.00325878
0.00326072
0.00326222
0.0032633
0.00326398
0.00326426
0.00326418
0.00326374
0.00326297
0.00326187
0.00326047
0.00325877
0.00325679
0.00325454
0.00325203
0.00324928
0.00324629
0.00324307
0.00323964
0.00323601
0.00323217
0.00322814
0.00322393
0.00321954
0.00321499
0.00321026
0.00320538
0.00320034
0.00319516
0.00318983
0.00318435
0.00317874
0.00317299
0.00316711
0.0031611
0.00315496
0.00314869
0.00314229
0.00313577
0.00312912
0.00312235
0.00311546
0.00310844
0.00310129
0.00309402
0.00308662
0.00307909
0.00307143
0.00306364
0.00305572
0.00304767
0.00303947
0.00303114
0.00302267
0.00301405
0.00300529
0.00299637
0.00298731
0.00297809
0.00296871
0.00295916
0.00294946
0.00293958
0.00292954
0.00291931
0.00290891
0.00289833
0.00288756
0.0028766
0.00286544
0.00285409
0.00284253
0.00283077
0.00281881
0.00280662
0.00279422
0.0027816
0.00276876
0.00275568
0.00274238
0.00272883
0.00271505
0.00270102
0.00268674
0.0026722
0.00265741
0.00264236
0.00262705
0.00261146
0.00259561
0.00257947
0.00256305
0.00254635
0.00252935
0.00251206
0.00249447
0.00247658
0.00245837
0.00243985
0.00242101
0.00240185
0.00238235
0.00236251
0.00234233
0.00232179
0.0023009
0.00227963
0.00225799
0.00223596
0.00221353
0.00219069
0.00216742
0.00214372
0.00211956
0.00209493
0.00206981
0.00204417
0.00201799
0.00199124
0.00196389
0.0019359
0.00190721
0.00187779
0.00184754
0.00181638
0.00178416
0.00175073
0.00171609
0.00168018
0.00164285
0.00160392
0.00156316
0.00152028
0.00147488
0.0014264
0.00137398
0.00131606
0.00125142
0.0011784
0.00109396
0.000992941
0.000865976
0.000693814
0.000432296
5.47865e-05
8.1679e-05
0.000605847
0.000958991
0.00120576
0.00139142
0.00154185
0.00167074
0.00178411
0.00188533
0.00197662
0.00206018
0.00213722
0.00220869
0.00227531
0.00233765
0.00239617
0.00245123
0.00250314
0.00255215
0.00259848
0.00264232
0.00268383
0.00272315
0.0027604
0.0027957
0.00282914
0.00286083
0.00289083
0.00291922
0.00294609
0.00297148
0.00299546
0.0030181
0.00303944
0.00305953
0.00307842
0.00309616
0.00311279
0.00312836
0.0031429
0.00315644
0.00316904
0.0031807
0.00319143
0.00320114
0.00320977
0.00321754
0.00322456
0.00323089
0.00323657
0.00324165
0.00324614
0.00325007
0.00325347
0.00325637
0.00325878
0.00326073
0.00326223
0.00326331
0.00326398
0.00326427
0.00326419
0.00326375
0.00326297
0.00326188
0.00326047
0.00325877
0.00325679
0.00325454
0.00325203
0.00324928
0.00324629
0.00324308
0.00323965
0.00323601
0.00323217
0.00322815
0.00322393
0.00321955
0.00321499
0.00321027
0.00320538
0.00320035
0.00319516
0.00318983
0.00318436
0.00317874
0.003173
0.00316712
0.0031611
0.00315496
0.00314869
0.0031423
0.00313577
0.00312913
0.00312236
0.00311546
0.00310844
0.00310129
0.00309402
0.00308662
0.00307909
0.00307144
0.00306365
0.00305573
0.00304767
0.00303948
0.00303115
0.00302267
0.00301406
0.00300529
0.00299638
0.00298731
0.00297809
0.00296871
0.00295917
0.00294946
0.00293959
0.00292954
0.00291932
0.00290891
0.00289833
0.00288756
0.0028766
0.00286544
0.00285409
0.00284254
0.00283078
0.00281881
0.00280663
0.00279423
0.00278161
0.00276876
0.00275569
0.00274238
0.00272883
0.00271505
0.00270102
0.00268674
0.00267221
0.00265742
0.00264237
0.00262705
0.00261147
0.00259561
0.00257947
0.00256305
0.00254635
0.00252936
0.00251207
0.00249447
0.00247658
0.00245838
0.00243986
0.00242102
0.00240185
0.00238235
0.00236251
0.00234233
0.0023218
0.0023009
0.00227964
0.00225799
0.00223596
0.00221353
0.00219069
0.00216743
0.00214372
0.00211957
0.00209494
0.00206981
0.00204417
0.00201799
0.00199125
0.00196389
0.0019359
0.00190722
0.00187779
0.00184755
0.00181638
0.00178416
0.00175073
0.0017161
0.00168018
0.00164285
0.00160392
0.00156316
0.00152029
0.00147488
0.0014264
0.00137398
0.00131606
0.00125142
0.0011784
0.00109396
0.000992945
0.000865985
0.000693834
0.000432291
5.47858e-05
0.0001005
0.00091946
0.00163587
0.00217302
0.00259518
0.00294445
0.00324383
0.00350679
0.00374143
0.00395317
0.00414607
0.00432304
0.00448629
0.00463756
0.0047782
0.00490935
0.00503193
0.00514672
0.0052544
0.00535553
0.00545062
0.00554012
0.00562442
0.00570387
0.00577878
0.00584945
0.00591613
0.00597905
0.00603844
0.0060945
0.0061474
0.00619731
0.0062444
0.0062888
0.00633065
0.00637008
0.00640719
0.00644211
0.00647493
0.00650574
0.00653462
0.00656166
0.0065869
0.00661038
0.00663207
0.00665193
0.00667022
0.00668706
0.00670257
0.00671682
0.0067299
0.00674186
0.00675275
0.00676262
0.00677152
0.00677949
0.00678657
0.00679279
0.00679819
0.0068028
0.00680666
0.0068098
0.00681224
0.00681401
0.00681514
0.00681565
0.00681557
0.00681491
0.0068137
0.00681197
0.00680972
0.00680698
0.00680376
0.00680008
0.00679596
0.00679141
0.00678644
0.00678107
0.0067753
0.00676916
0.00676264
0.00675576
0.00674852
0.00674094
0.00673302
0.00672477
0.00671619
0.00670729
0.00669807
0.00668854
0.00667869
0.00666854
0.00665808
0.00664732
0.00663625
0.00662488
0.0066132
0.00660122
0.00658893
0.00657633
0.00656342
0.0065502
0.00653667
0.00652282
0.00650864
0.00649414
0.00647931
0.00646414
0.00644863
0.00643278
0.00641657
0.00640001
0.00638309
0.0063658
0.00634813
0.00633008
0.00631165
0.00629281
0.00627358
0.00625393
0.00623387
0.00621338
0.00619245
0.00617109
0.00614927
0.006127
0.00610426
0.00608105
0.00605735
0.00603317
0.00600848
0.00598328
0.00595756
0.00593132
0.00590454
0.00587722
0.00584934
0.00582089
0.00579187
0.00576227
0.00573207
0.00570127
0.00566985
0.00563781
0.00560514
0.00557181
0.00553783
0.00550318
0.00546785
0.00543182
0.00539508
0.00535763
0.00531943
0.00528049
0.00524078
0.00520029
0.005159
0.00511689
0.00507394
0.00503012
0.00498543
0.00493983
0.00489329
0.00484579
0.0047973
0.00474777
0.00469718
0.00464547
0.00459261
0.00453854
0.00448321
0.00442654
0.00436848
0.00430892
0.00424779
0.00418497
0.00412033
0.00405372
0.00398496
0.00391382
0.00384004
0.00376334
0.00368348
0.00360012
0.00351282
0.00342103
0.00332406
0.00322103
0.00311078
0.00299176
0.00286185
0.00271805
0.00255638
0.00237239
0.00215858
0.00190349
0.00158892
0.00118527
0.000649505
7.09695e-05
0.0001005
0.000919467
0.00163589
0.00217304
0.0025952
0.00294447
0.00324385
0.00350681
0.00374145
0.00395319
0.00414609
0.00432306
0.00448631
0.00463757
0.00477822
0.00490936
0.00503194
0.00514674
0.00525441
0.00535554
0.00545063
0.00554013
0.00562443
0.00570388
0.00577879
0.00584946
0.00591614
0.00597906
0.00603845
0.00609451
0.00614741
0.00619732
0.00624441
0.00628881
0.00633066
0.00637008
0.0064072
0.00644212
0.00647493
0.00650574
0.00653463
0.00656167
0.00658691
0.00661038
0.00663207
0.00665194
0.00667022
0.00668706
0.00670257
0.00671683
0.00672991
0.00674186
0.00675275
0.00676263
0.00677152
0.00677949
0.00678657
0.00679279
0.00679819
0.00680281
0.00680667
0.0068098
0.00681224
0.00681401
0.00681514
0.00681565
0.00681557
0.00681491
0.00681371
0.00681197
0.00680972
0.00680698
0.00680376
0.00680009
0.00679596
0.00679141
0.00678644
0.00678107
0.0067753
0.00676916
0.00676264
0.00675576
0.00674852
0.00674094
0.00673302
0.00672477
0.00671619
0.00670729
0.00669807
0.00668854
0.00667869
0.00666854
0.00665808
0.00664732
0.00663625
0.00662488
0.0066132
0.00660122
0.00658893
0.00657633
0.00656343
0.00655021
0.00653667
0.00652282
0.00650864
0.00649414
0.00647931
0.00646414
0.00644863
0.00643278
0.00641658
0.00640002
0.00638309
0.0063658
0.00634813
0.00633009
0.00631165
0.00629281
0.00627358
0.00625393
0.00623387
0.00621338
0.00619245
0.00617109
0.00614927
0.006127
0.00610426
0.00608105
0.00605735
0.00603317
0.00600848
0.00598328
0.00595757
0.00593132
0.00590454
0.00587722
0.00584934
0.00582089
0.00579187
0.00576227
0.00573207
0.00570127
0.00566986
0.00563781
0.00560514
0.00557181
0.00553783
0.00550318
0.00546785
0.00543182
0.00539508
0.00535763
0.00531943
0.00528049
0.00524078
0.00520029
0.005159
0.00511689
0.00507394
0.00503012
0.00498543
0.00493983
0.00489329
0.00484579
0.0047973
0.00474777
0.00469718
0.00464547
0.00459261
0.00453854
0.00448321
0.00442654
0.00436848
0.00430893
0.00424779
0.00418497
0.00412033
0.00405372
0.00398496
0.00391382
0.00384004
0.00376334
0.00368348
0.00360012
0.00351282
0.00342103
0.00332406
0.00322103
0.00311078
0.00299176
0.00286185
0.00271805
0.00255638
0.00237239
0.00215858
0.00190349
0.00158892
0.00118527
0.000649491
7.09693e-05
0.000113756
0.00111265
0.00209436
0.00287449
0.00351072
0.004047
0.00451092
0.00492017
0.00528638
0.00561761
0.00591969
0.00619694
0.00645269
0.00668955
0.00690962
0.0071146
0.00730595
0.00748488
0.00765244
0.00780956
0.00795703
0.00809557
0.00822583
0.00834838
0.00846375
0.00857242
0.00867481
0.00877134
0.00886237
0.00894822
0.00902922
0.00910565
0.00917778
0.00924584
0.00931008
0.00937068
0.00942786
0.00948179
0.00953264
0.00958055
0.00962567
0.0096681
0.00970797
0.00974534
0.00978027
0.0098128
0.00984314
0.00987144
0.00989784
0.00992244
0.00994534
0.00996665
0.00998642
0.0100047
0.0100217
0.0100373
0.0100516
0.0100647
0.0100766
0.0100874
0.0100971
0.0101058
0.0101135
0.0101202
0.010126
0.0101308
0.0101348
0.010138
0.0101404
0.0101419
0.0101427
0.0101428
0.0101422
0.0101409
0.0101388
0.0101362
0.0101329
0.010129
0.0101245
0.0101194
0.0101137
0.0101074
0.0101006
0.0100932
0.0100853
0.0100769
0.0100679
0.0100585
0.0100485
0.010038
0.010027
0.0100155
0.0100035
0.00999101
0.00997801
0.00996452
0.00995053
0.00993604
0.00992104
0.00990554
0.00988953
0.009873
0.00985596
0.0098384
0.0098203
0.00980167
0.0097825
0.00976278
0.00974251
0.00972167
0.00970025
0.00967826
0.00965568
0.00963249
0.0096087
0.00958429
0.00955925
0.00953356
0.00950723
0.00948023
0.00945255
0.00942419
0.00939513
0.00936536
0.00933487
0.00930363
0.00927165
0.00923891
0.00920538
0.00917107
0.00913595
0.00910001
0.00906324
0.00902562
0.00898714
0.00894777
0.00890752
0.00886635
0.00882425
0.00878121
0.00873721
0.00869224
0.00864626
0.00859927
0.00855125
0.00850217
0.00845202
0.00840077
0.0083484
0.0082949
0.00824023
0.00818437
0.0081273
0.00806898
0.00800939
0.00794849
0.00788626
0.00782266
0.00775764
0.00769118
0.00762323
0.00755374
0.00748266
0.00740994
0.00733552
0.00725934
0.00718131
0.00710138
0.00701944
0.00693541
0.00684919
0.00676064
0.00666964
0.00657604
0.00647966
0.00638031
0.00627775
0.00617173
0.00606193
0.00594797
0.00582945
0.00570589
0.00557674
0.00544136
0.00529896
0.00514853
0.00498882
0.00481828
0.00463491
0.00443617
0.00421869
0.00397805
0.00370838
0.00340245
0.0030499
0.00263604
0.00214009
0.00153384
0.000791492
8.09618e-05
0.000113757
0.00111266
0.00209437
0.0028745
0.00351074
0.00404702
0.00451094
0.00492019
0.00528641
0.00561764
0.00591971
0.00619696
0.00645272
0.00668958
0.00690964
0.00711462
0.00730597
0.0074849
0.00765246
0.00780957
0.00795704
0.00809558
0.00822584
0.00834839
0.00846376
0.00857243
0.00867483
0.00877135
0.00886238
0.00894823
0.00902923
0.00910566
0.00917779
0.00924585
0.00931008
0.00937069
0.00942787
0.0094818
0.00953265
0.00958056
0.00962567
0.00966811
0.00970797
0.00974534
0.00978027
0.0098128
0.00984315
0.00987145
0.00989784
0.00992244
0.00994535
0.00996665
0.00998642
0.0100047
0.0100217
0.0100373
0.0100516
0.0100647
0.0100766
0.0100874
0.0100971
0.0101058
0.0101135
0.0101202
0.010126
0.0101308
0.0101348
0.010138
0.0101404
0.0101419
0.0101427
0.0101428
0.0101422
0.0101409
0.0101388
0.0101362
0.0101329
0.010129
0.0101245
0.0101194
0.0101137
0.0101074
0.0101006
0.0100932
0.0100853
0.0100769
0.0100679
0.0100585
0.0100485
0.010038
0.010027
0.0100155
0.0100035
0.00999101
0.00997801
0.00996452
0.00995053
0.00993604
0.00992104
0.00990554
0.00988953
0.009873
0.00985596
0.00983839
0.0098203
0.00980167
0.0097825
0.00976278
0.00974251
0.00972167
0.00970025
0.00967826
0.00965568
0.00963249
0.0096087
0.00958429
0.00955925
0.00953356
0.00950723
0.00948023
0.00945255
0.00942419
0.00939513
0.00936536
0.00933487
0.00930363
0.00927165
0.0092389
0.00920538
0.00917107
0.00913595
0.00910001
0.00906324
0.00902562
0.00898713
0.00894777
0.00890751
0.00886635
0.00882425
0.00878121
0.00873721
0.00869223
0.00864626
0.00859927
0.00855124
0.00850217
0.00845201
0.00840077
0.0083484
0.0082949
0.00824023
0.00818437
0.00812729
0.00806897
0.00800938
0.00794849
0.00788626
0.00782265
0.00775764
0.00769118
0.00762323
0.00755374
0.00748266
0.00740994
0.00733552
0.00725933
0.00718131
0.00710138
0.00701944
0.00693541
0.00684918
0.00676064
0.00666964
0.00657603
0.00647966
0.0063803
0.00627775
0.00617173
0.00606192
0.00594797
0.00582945
0.00570588
0.00557674
0.00544136
0.00529896
0.00514852
0.00498882
0.00481827
0.00463491
0.00443617
0.00421869
0.00397805
0.00370838
0.00340245
0.0030499
0.00263604
0.00214009
0.00153384
0.000791486
8.09617e-05
0.000124538
0.00124384
0.00242264
0.00339947
0.00421617
0.00491468
0.00552436
0.00606529
0.00655136
0.00699245
0.00739579
0.00776681
0.00810971
0.0084278
0.00872375
0.00899974
0.00925763
0.00949898
0.00972514
0.0099373
0.0101365
0.0103237
0.0104998
0.0106654
0.0108214
0.0109683
0.0111068
0.0112373
0.0113605
0.0114766
0.0115863
0.0116898
0.0117876
0.01188
0.0119673
0.0120497
0.0121277
0.0122013
0.0122709
0.0123367
0.0123988
0.0124575
0.0125128
0.0125649
0.012614
0.0126601
0.0127035
0.0127443
0.0127826
0.0128186
0.0128525
0.0128843
0.0129141
0.0129421
0.0129683
0.0129927
0.0130156
0.0130369
0.0130566
0.013075
0.0130919
0.0131075
0.0131219
0.0131349
0.0131468
0.0131576
0.0131672
0.0131757
0.0131832
0.0131896
0.0131951
0.0131996
0.0132032
0.0132058
0.0132076
0.0132085
0.0132086
0.0132079
0.0132063
0.0132039
0.0132008
0.0131969
0.0131923
0.0131869
0.0131808
0.0131739
0.0131664
0.0131581
0.0131492
0.0131395
0.0131291
0.0131181
0.0131063
0.0130939
0.0130808
0.013067
0.0130525
0.0130373
0.0130213
0.0130047
0.0129874
0.0129694
0.0129506
0.0129311
0.0129109
0.0128899
0.0128682
0.0128457
0.0128224
0.0127984
0.0127735
0.0127478
0.0127214
0.012694
0.0126659
0.0126368
0.0126069
0.0125761
0.0125444
0.0125118
0.0124783
0.0124438
0.0124083
0.0123718
0.0123344
0.0122959
0.0122563
0.0122157
0.0121741
0.0121313
0.0120874
0.0120424
0.0119962
0.0119489
0.0119003
0.0118506
0.0117995
0.0117473
0.0116937
0.0116388
0.0115826
0.0115249
0.011466
0.0114055
0.0113437
0.0112803
0.0112155
0.0111491
0.0110811
0.0110115
0.0109403
0.0108673
0.0107927
0.0107163
0.0106381
0.010558
0.010476
0.010392
0.0103061
0.010218
0.0101278
0.0100354
0.00994067
0.00984358
0.00974403
0.00964191
0.00953712
0.00942954
0.00931904
0.00920548
0.0090887
0.00896851
0.00884473
0.00871711
0.00858541
0.00844932
0.00830852
0.0081626
0.00801112
0.00785356
0.00768931
0.00751767
0.00733781
0.00714878
0.00694938
0.00673817
0.00651339
0.00627284
0.00601378
0.00573277
0.00542543
0.00508622
0.00470803
0.00428167
0.00379559
0.00323418
0.00257744
0.00180218
0.000899268
8.8839e-05
0.000124538
0.00124384
0.00242265
0.0033995
0.0042162
0.0049147
0.00552439
0.00606532
0.00655139
0.00699248
0.00739582
0.00776684
0.00810974
0.00842783
0.00872378
0.00899977
0.00925766
0.009499
0.00972516
0.00993732
0.0101365
0.0103237
0.0104998
0.0106655
0.0108214
0.0109683
0.0111068
0.0112374
0.0113605
0.0114767
0.0115863
0.0116899
0.0117876
0.01188
0.0119673
0.0120497
0.0121277
0.0122013
0.0122709
0.0123367
0.0123988
0.0124575
0.0125128
0.0125649
0.012614
0.0126601
0.0127035
0.0127443
0.0127826
0.0128187
0.0128525
0.0128843
0.0129141
0.0129421
0.0129683
0.0129927
0.0130156
0.0130369
0.0130566
0.013075
0.0130919
0.0131075
0.0131219
0.013135
0.0131468
0.0131576
0.0131672
0.0131757
0.0131832
0.0131896
0.0131951
0.0131996
0.0132032
0.0132058
0.0132076
0.0132085
0.0132086
0.0132079
0.0132063
0.0132039
0.0132008
0.0131969
0.0131923
0.0131869
0.0131808
0.0131739
0.0131664
0.0131581
0.0131492
0.0131395
0.0131291
0.0131181
0.0131063
0.0130939
0.0130808
0.013067
0.0130525
0.0130373
0.0130213
0.0130047
0.0129874
0.0129694
0.0129506
0.0129311
0.0129109
0.0128899
0.0128682
0.0128457
0.0128224
0.0127984
0.0127735
0.0127478
0.0127214
0.012694
0.0126659
0.0126368
0.0126069
0.0125761
0.0125444
0.0125118
0.0124783
0.0124438
0.0124083
0.0123718
0.0123343
0.0122959
0.0122563
0.0122157
0.0121741
0.0121313
0.0120874
0.0120424
0.0119962
0.0119489
0.0119003
0.0118506
0.0117995
0.0117473
0.0116937
0.0116388
0.0115825
0.0115249
0.0114659
0.0114055
0.0113437
0.0112803
0.0112155
0.0111491
0.0110811
0.0110115
0.0109403
0.0108673
0.0107927
0.0107163
0.0106381
0.010558
0.010476
0.010392
0.0103061
0.010218
0.0101278
0.0100354
0.00994067
0.00984358
0.00974402
0.0096419
0.00953711
0.00942953
0.00931904
0.00920548
0.00908869
0.00896851
0.00884472
0.00871711
0.0085854
0.00844932
0.00830851
0.0081626
0.00801112
0.00785356
0.00768931
0.00751766
0.00733781
0.00714877
0.00694937
0.00673817
0.00651339
0.00627284
0.00601378
0.00573277
0.00542542
0.00508622
0.00470803
0.00428167
0.00379559
0.00323418
0.00257744
0.00180218
0.000899266
8.8839e-05
0.000133665
0.00134759
0.00267694
0.00381149
0.00477753
0.00561348
0.00634888
0.007005
0.00759713
0.00813638
0.00863102
0.0090873
0.00951008
0.0099032
0.0102698
0.0106123
0.0109331
0.0112337
0.011516
0.0117811
0.0120305
0.0122651
0.012486
0.0126942
0.0128903
0.0130752
0.0132497
0.0134143
0.0135698
0.0137166
0.0138552
0.0139863
0.0141102
0.0142274
0.0143383
0.0144432
0.0145425
0.0146365
0.0147255
0.0148097
0.0148895
0.014965
0.0150365
0.0151041
0.015168
0.0152284
0.0152855
0.0153395
0.0153905
0.0154387
0.0154842
0.0155273
0.0155679
0.0156063
0.0156426
0.0156767
0.0157089
0.0157392
0.0157677
0.0157944
0.0158195
0.0158429
0.0158648
0.0158851
0.0159041
0.0159216
0.0159378
0.0159526
0.0159662
0.0159785
0.0159897
0.0159996
0.0160084
0.0160162
0.0160228
0.0160284
0.0160329
0.0160364
0.0160389
0.0160404
0.016041
0.0160406
0.0160393
0.0160371
0.0160339
0.0160299
0.0160249
0.0160191
0.0160123
0.0160047
0.0159962
0.0159869
0.0159766
0.0159655
0.0159535
0.0159406
0.0159268
0.0159122
0.0158966
0.0158802
0.0158628
0.0158446
0.0158254
0.0158052
0.0157842
0.0157621
0.0157392
0.0157152
0.0156902
0.0156643
0.0156373
0.0156092
0.0155802
0.01555
0.0155188
0.0154865
0.015453
0.0154185
0.0153827
0.0153458
0.0153077
0.0152683
0.0152278
0.0151859
0.0151428
0.0150984
0.0150526
0.0150055
0.014957
0.0149071
0.0148558
0.014803
0.0147488
0.014693
0.0146357
0.0145768
0.0145163
0.0144542
0.0143904
0.014325
0.0142578
0.0141888
0.014118
0.0140454
0.013971
0.0138946
0.0138162
0.0137359
0.0136535
0.013569
0.0134824
0.0133936
0.0133025
0.0132091
0.0131134
0.0130152
0.0129145
0.0128112
0.0127053
0.0125967
0.0124852
0.0123708
0.0122534
0.0121328
0.012009
0.0118817
0.011751
0.0116165
0.0114782
0.0113358
0.0111891
0.0110378
0.0108818
0.0107207
0.0105541
0.0103817
0.010203
0.0100174
0.00982449
0.00962346
0.00941355
0.00919382
0.0089632
0.00872039
0.00846386
0.00819177
0.00790185
0.00759137
0.00725699
0.00689455
0.00649893
0.00606375
0.00558105
0.00504082
0.00443104
0.0037365
0.00293921
0.00202149
0.000987686
9.54844e-05
0.000133665
0.00134759
0.00267695
0.00381151
0.00477756
0.00561351
0.00634891
0.00700504
0.00759716
0.00813641
0.00863105
0.00908733
0.00951011
0.00990323
0.0102698
0.0106124
0.0109331
0.0112338
0.011516
0.0117812
0.0120305
0.0122652
0.0124861
0.0126942
0.0128903
0.0130753
0.0132497
0.0134144
0.0135698
0.0137166
0.0138553
0.0139863
0.0141103
0.0142274
0.0143383
0.0144432
0.0145425
0.0146365
0.0147255
0.0148097
0.0148895
0.014965
0.0150365
0.0151041
0.0151681
0.0152285
0.0152855
0.0153395
0.0153905
0.0154387
0.0154842
0.0155273
0.015568
0.0156063
0.0156426
0.0156767
0.0157089
0.0157392
0.0157677
0.0157944
0.0158195
0.0158429
0.0158648
0.0158851
0.0159041
0.0159216
0.0159378
0.0159526
0.0159662
0.0159785
0.0159897
0.0159996
0.0160085
0.0160162
0.0160228
0.0160284
0.0160329
0.0160364
0.0160389
0.0160404
0.016041
0.0160406
0.0160393
0.0160371
0.0160339
0.0160299
0.0160249
0.0160191
0.0160123
0.0160047
0.0159962
0.0159869
0.0159766
0.0159655
0.0159535
0.0159406
0.0159268
0.0159122
0.0158966
0.0158802
0.0158628
0.0158446
0.0158254
0.0158052
0.0157842
0.0157621
0.0157392
0.0157152
0.0156902
0.0156643
0.0156373
0.0156092
0.0155802
0.01555
0.0155188
0.0154865
0.015453
0.0154185
0.0153827
0.0153458
0.0153077
0.0152683
0.0152278
0.0151859
0.0151428
0.0150984
0.0150526
0.0150055
0.014957
0.0149071
0.0148558
0.014803
0.0147488
0.014693
0.0146357
0.0145768
0.0145163
0.0144542
0.0143904
0.0143249
0.0142577
0.0141888
0.014118
0.0140454
0.013971
0.0138946
0.0138162
0.0137359
0.0136535
0.013569
0.0134824
0.0133936
0.0133025
0.0132091
0.0131134
0.0130152
0.0129145
0.0128112
0.0127053
0.0125967
0.0124852
0.0123708
0.0122534
0.0121328
0.012009
0.0118817
0.011751
0.0116165
0.0114782
0.0113358
0.0111891
0.0110378
0.0108818
0.0107207
0.0105541
0.0103817
0.010203
0.0100174
0.00982449
0.00962346
0.00941354
0.00919382
0.00896319
0.00872039
0.00846386
0.00819176
0.00790184
0.00759137
0.00725698
0.00689455
0.00649893
0.00606375
0.00558105
0.00504082
0.00443104
0.0037365
0.00293921
0.00202149
0.000987684
9.54844e-05
0.000141737
0.0014363
0.00288654
0.00414918
0.00523892
0.00619074
0.00703365
0.00778948
0.00847434
0.0091002
0.00967606
0.0102088
0.0107037
0.0111651
0.0115964
0.0120005
0.0123796
0.0127358
0.0130709
0.0133864
0.0136836
0.0139637
0.014228
0.0144773
0.0147127
0.0149349
0.0151449
0.0153433
0.0155309
0.0157082
0.015876
0.0160347
0.016185
0.0163273
0.0164621
0.0165898
0.0167109
0.0168257
0.0169345
0.0170378
0.0171357
0.0172286
0.0173168
0.0174004
0.0174797
0.0175549
0.0176262
0.0176939
0.0177581
0.017819
0.0178768
0.0179316
0.0179837
0.018033
0.0180799
0.0181243
0.0181664
0.0182062
0.018244
0.0182797
0.0183134
0.0183452
0.0183752
0.0184035
0.0184301
0.018455
0.0184784
0.0185002
0.0185205
0.0185394
0.0185568
0.0185729
0.0185877
0.0186011
0.0186133
0.0186242
0.0186339
0.0186424
0.0186498
0.018656
0.018661
0.0186649
0.0186677
0.0186694
0.01867
0.0186695
0.018668
0.0186654
0.0186617
0.018657
0.0186512
0.0186444
0.0186365
0.0186275
0.0186175
0.0186065
0.0185943
0.0185811
0.0185668
0.0185515
0.018535
0.0185174
0.0184987
0.0184789
0.0184579
0.0184358
0.0184125
0.018388
0.0183623
0.0183354
0.0183072
0.0182778
0.0182471
0.0182152
0.0181819
0.0181472
0.0181112
0.0180738
0.0180351
0.0179948
0.0179532
0.01791
0.0178654
0.0178192
0.0177714
0.0177221
0.0176711
0.0176185
0.0175642
0.0175082
0.0174504
0.0173909
0.0173296
0.0172664
0.0172013
0.0171344
0.0170654
0.0169945
0.0169215
0.0168465
0.0167693
0.01669
0.0166085
0.0165247
0.0164387
0.0163502
0.0162594
0.0161661
0.0160702
0.0159718
0.0158708
0.015767
0.0156605
0.0155511
0.0154387
0.0153234
0.0152049
0.0150832
0.0149583
0.0148299
0.0146981
0.0145626
0.0144233
0.0142801
0.0141329
0.0139814
0.0138255
0.0136649
0.0134995
0.0133291
0.0131533
0.0129718
0.0127842
0.0125904
0.0123896
0.0121816
0.0119657
0.0117412
0.0115076
0.0112638
0.011009
0.0107419
0.0104613
0.0101656
0.00985288
0.009521
0.00916728
0.00878853
0.00838089
0.00793969
0.00745926
0.00693269
0.00635157
0.00570571
0.00498289
0.00416894
0.00324821
0.00220807
0.0010635
0.000101297
0.000141738
0.0014363
0.00288656
0.0041492
0.00523895
0.00619077
0.00703368
0.00778951
0.00847438
0.00910024
0.00967609
0.0102088
0.0107038
0.0111652
0.0115965
0.0120005
0.0123796
0.0127359
0.0130709
0.0133864
0.0136836
0.0139638
0.014228
0.0144774
0.0147127
0.014935
0.0151449
0.0153433
0.0155309
0.0157082
0.015876
0.0160348
0.016185
0.0163273
0.0164621
0.0165899
0.0167109
0.0168257
0.0169346
0.0170378
0.0171357
0.0172287
0.0173168
0.0174004
0.0174797
0.0175549
0.0176262
0.0176939
0.0177581
0.017819
0.0178768
0.0179316
0.0179837
0.018033
0.0180799
0.0181243
0.0181664
0.0182062
0.018244
0.0182797
0.0183134
0.0183452
0.0183752
0.0184035
0.0184301
0.018455
0.0184784
0.0185002
0.0185205
0.0185394
0.0185568
0.0185729
0.0185877
0.0186011
0.0186133
0.0186242
0.0186339
0.0186424
0.0186498
0.018656
0.018661
0.0186649
0.0186677
0.0186694
0.01867
0.0186695
0.018668
0.0186654
0.0186617
0.018657
0.0186512
0.0186444
0.0186365
0.0186275
0.0186175
0.0186065
0.0185943
0.0185811
0.0185668
0.0185515
0.018535
0.0185174
0.0184987
0.0184789
0.0184579
0.0184358
0.0184125
0.018388
0.0183623
0.0183354
0.0183072
0.0182778
0.0182471
0.0182152
0.0181819
0.0181472
0.0181112
0.0180738
0.0180351
0.0179948
0.0179532
0.01791
0.0178654
0.0178192
0.0177714
0.0177221
0.0176711
0.0176185
0.0175642
0.0175082
0.0174504
0.0173909
0.0173296
0.0172664
0.0172013
0.0171343
0.0170654
0.0169945