/*--------------------------------*- C++ -*----------------------------------*\
  =========                 |
  \\      /  F ield         | OpenFOAM: The Open Source CFD Toolbox
   \\    /   O peration     | Website:  https://openfoam.org
    \\  /    A nd           | Version:  8
     \\/     M anipulation  |
\*---------------------------------------------------------------------------*/
FoamFile
{
    version     2.0;
    format      ascii;
    class       volScalarField;
    location    "400";
    object      alphat;
}
// * * * * * * * * * * * * * * * * * * * * * * * * * * * * * * * * * * * * * //

dimensions      [1 -1 -1 0 0 0 0];

internalField   nonuniform List<scalar> 
46000
(
6.99994e-07
2.64794e-06
5.35694e-06
8.21834e-06
1.10973e-05
1.3618e-05
1.59393e-05
1.80832e-05
2.00581e-05
2.18692e-05
2.35197e-05
2.5012e-05
2.63482e-05
2.75304e-05
2.85605e-05
2.94415e-05
3.01764e-05
3.07696e-05
3.12262e-05
3.15522e-05
3.1757e-05
3.18769e-05
3.19153e-05
3.1867e-05
3.17359e-05
3.15311e-05
3.12645e-05
3.09492e-05
3.05984e-05
3.02249e-05
2.98403e-05
2.94548e-05
2.9077e-05
2.87139e-05
2.83706e-05
2.80511e-05
2.77574e-05
2.7491e-05
2.72518e-05
2.70393e-05
2.68525e-05
2.66899e-05
2.65497e-05
2.64302e-05
2.63296e-05
2.6246e-05
2.6178e-05
2.61239e-05
2.60826e-05
2.60527e-05
2.60333e-05
2.60234e-05
2.60229e-05
2.60322e-05
2.60494e-05
2.60736e-05
2.61039e-05
2.61399e-05
2.61813e-05
2.62275e-05
2.62781e-05
2.63327e-05
2.63908e-05
2.6452e-05
2.65157e-05
2.65814e-05
2.66486e-05
2.67168e-05
2.67855e-05
2.68541e-05
2.69222e-05
2.69893e-05
2.70551e-05
2.71192e-05
2.71813e-05
2.72412e-05
2.72988e-05
2.73539e-05
2.74066e-05
2.74571e-05
2.75055e-05
2.75522e-05
2.75976e-05
2.76422e-05
2.76865e-05
2.77314e-05
2.77773e-05
2.7825e-05
2.78753e-05
2.79288e-05
2.79861e-05
2.80478e-05
2.81143e-05
2.81859e-05
2.82627e-05
2.83449e-05
2.84324e-05
2.85248e-05
2.86218e-05
2.8723e-05
2.88276e-05
2.89351e-05
2.90448e-05
2.91557e-05
2.92672e-05
2.93785e-05
2.9489e-05
2.95978e-05
2.97046e-05
2.98088e-05
2.991e-05
3.0008e-05
3.01025e-05
3.01937e-05
3.02814e-05
3.03659e-05
3.04473e-05
3.05261e-05
3.06024e-05
3.06768e-05
3.07495e-05
3.0821e-05
3.08916e-05
3.09617e-05
3.10315e-05
3.11012e-05
3.1171e-05
3.1241e-05
3.1311e-05
3.13811e-05
3.14511e-05
3.15208e-05
3.159e-05
3.16584e-05
3.17258e-05
3.1792e-05
3.18566e-05
3.19197e-05
3.1981e-05
3.20406e-05
3.20984e-05
3.21545e-05
3.22093e-05
3.22627e-05
3.23152e-05
3.23671e-05
3.24187e-05
3.24704e-05
3.25225e-05
3.25754e-05
3.26294e-05
3.26847e-05
3.27417e-05
3.28003e-05
3.28607e-05
3.29229e-05
3.29869e-05
3.30524e-05
3.31192e-05
3.31871e-05
3.32557e-05
3.33246e-05
3.33932e-05
3.34611e-05
3.35274e-05
3.35916e-05
3.36528e-05
3.37099e-05
3.37618e-05
3.38073e-05
3.38455e-05
3.38761e-05
3.3895e-05
3.38982e-05
3.38813e-05
3.38388e-05
3.37642e-05
3.36498e-05
3.3486e-05
3.32616e-05
3.29638e-05
3.2578e-05
3.20881e-05
3.1477e-05
3.0727e-05
2.98207e-05
2.87418e-05
2.7476e-05
2.60125e-05
2.43449e-05
2.24723e-05
2.04012e-05
1.81466e-05
1.57347e-05
1.32048e-05
1.06022e-05
7.89029e-06
5.35445e-06
2.99968e-06
9.86513e-07
6.99952e-07
2.64826e-06
5.35802e-06
8.21929e-06
1.1098e-05
1.36185e-05
1.59398e-05
1.80836e-05
2.00584e-05
2.18693e-05
2.35197e-05
2.50119e-05
2.63481e-05
2.75303e-05
2.85605e-05
2.94414e-05
3.01765e-05
3.07697e-05
3.12263e-05
3.15523e-05
3.17572e-05
3.1877e-05
3.19155e-05
3.18672e-05
3.17361e-05
3.15313e-05
3.12646e-05
3.09493e-05
3.05985e-05
3.0225e-05
2.98404e-05
2.94549e-05
2.90771e-05
2.87139e-05
2.83707e-05
2.80511e-05
2.77575e-05
2.7491e-05
2.72518e-05
2.70394e-05
2.68526e-05
2.669e-05
2.65498e-05
2.64303e-05
2.63296e-05
2.62461e-05
2.6178e-05
2.6124e-05
2.60827e-05
2.60528e-05
2.60334e-05
2.60235e-05
2.6023e-05
2.60323e-05
2.60495e-05
2.60736e-05
2.6104e-05
2.614e-05
2.61814e-05
2.62276e-05
2.62782e-05
2.63328e-05
2.63909e-05
2.64521e-05
2.65158e-05
2.65815e-05
2.66487e-05
2.67169e-05
2.67856e-05
2.68542e-05
2.69223e-05
2.69894e-05
2.70552e-05
2.71193e-05
2.71814e-05
2.72413e-05
2.72989e-05
2.7354e-05
2.74067e-05
2.74572e-05
2.75056e-05
2.75523e-05
2.75977e-05
2.76423e-05
2.76866e-05
2.77314e-05
2.77774e-05
2.78251e-05
2.78754e-05
2.79289e-05
2.79862e-05
2.80479e-05
2.81144e-05
2.8186e-05
2.82628e-05
2.8345e-05
2.84325e-05
2.85249e-05
2.86219e-05
2.87231e-05
2.88277e-05
2.89352e-05
2.90448e-05
2.91558e-05
2.92673e-05
2.93786e-05
2.9489e-05
2.95979e-05
2.97047e-05
2.98089e-05
2.99101e-05
3.0008e-05
3.01026e-05
3.01937e-05
3.02815e-05
3.0366e-05
3.04474e-05
3.05262e-05
3.06025e-05
3.06769e-05
3.07496e-05
3.08211e-05
3.08917e-05
3.09618e-05
3.10316e-05
3.11013e-05
3.11711e-05
3.12411e-05
3.13111e-05
3.13812e-05
3.14512e-05
3.15209e-05
3.15901e-05
3.16585e-05
3.17259e-05
3.1792e-05
3.18567e-05
3.19198e-05
3.19811e-05
3.20406e-05
3.20984e-05
3.21546e-05
3.22093e-05
3.22628e-05
3.23153e-05
3.23672e-05
3.24188e-05
3.24705e-05
3.25226e-05
3.25755e-05
3.26295e-05
3.26848e-05
3.27417e-05
3.28004e-05
3.28608e-05
3.2923e-05
3.29869e-05
3.30524e-05
3.31193e-05
3.31872e-05
3.32558e-05
3.33246e-05
3.33933e-05
3.34611e-05
3.35275e-05
3.35917e-05
3.36529e-05
3.371e-05
3.37619e-05
3.38073e-05
3.38455e-05
3.38761e-05
3.38951e-05
3.38983e-05
3.38813e-05
3.38388e-05
3.37643e-05
3.36498e-05
3.3486e-05
3.32617e-05
3.29639e-05
3.2578e-05
3.20882e-05
3.14771e-05
3.07271e-05
2.98208e-05
2.87419e-05
2.74761e-05
2.60126e-05
2.4345e-05
2.24725e-05
2.04014e-05
1.81469e-05
1.57351e-05
1.32052e-05
1.06026e-05
7.89059e-06
5.35467e-06
3.00018e-06
9.86657e-07
2.04508e-06
3.08497e-05
5.62836e-05
7.44241e-05
8.89977e-05
0.00010132
0.000111782
0.000120656
0.000128152
0.000134443
0.000139671
0.000143959
0.000147418
0.000150145
0.000152228
0.000153747
0.000154774
0.000155373
0.000155602
0.000155506
0.00015511
0.000154373
0.000153463
0.000152427
0.000151312
0.000150156
0.000148993
0.000147851
0.000146752
0.000145714
0.00014475
0.000143869
0.000143076
0.000142373
0.000141759
0.00014123
0.00014078
0.000140404
0.000140094
0.000139843
0.000139643
0.000139488
0.00013937
0.000139286
0.000139229
0.000139197
0.000139185
0.000139191
0.000139213
0.000139249
0.000139299
0.00013936
0.000139429
0.000139507
0.000139595
0.000139693
0.0001398
0.000139917
0.000140043
0.000140178
0.00014032
0.000140469
0.000140624
0.000140783
0.000140946
0.000141112
0.000141278
0.000141445
0.000141611
0.000141775
0.000141937
0.000142094
0.000142247
0.000142395
0.000142538
0.000142675
0.000142807
0.000142933
0.000143055
0.000143172
0.000143286
0.000143397
0.000143508
0.000143619
0.000143732
0.000143848
0.00014397
0.000144099
0.000144236
0.000144383
0.00014454
0.000144709
0.000144889
0.000145082
0.000145286
0.000145502
0.000145728
0.000145964
0.000146207
0.000146456
0.000146709
0.000146965
0.000147222
0.000147477
0.00014773
0.000147978
0.00014822
0.000148456
0.000148683
0.000148903
0.000149113
0.000149315
0.000149509
0.000149694
0.000149873
0.000150044
0.00015021
0.000150372
0.000150529
0.000150685
0.000150838
0.000150991
0.000151143
0.000151296
0.00015145
0.000151605
0.00015176
0.000151917
0.000152074
0.00015223
0.000152387
0.000152541
0.000152694
0.000152845
0.000152992
0.000153135
0.000153274
0.000153409
0.00015354
0.000153667
0.00015379
0.00015391
0.000154027
0.000154142
0.000154256
0.00015437
0.000154485
0.000154602
0.00015472
0.000154842
0.000154967
0.000155097
0.000155231
0.000155369
0.000155512
0.000155659
0.00015581
0.000155964
0.000156121
0.000156281
0.000156442
0.000156603
0.000156763
0.000156921
0.000157077
0.000157227
0.000157371
0.000157506
0.000157629
0.000157738
0.000157828
0.000157884
0.0001579
0.000157866
0.000157772
0.0001576
0.000157331
0.00015694
0.000156398
0.000155669
0.000154713
0.000153483
0.000151929
0.000149995
0.000147625
0.000144761
0.000141347
0.000137332
0.000132672
0.000127334
0.000121301
0.000114572
0.000107167
9.91295e-05
9.05156e-05
8.1342e-05
7.13735e-05
5.8616e-05
3.6025e-05
3.30064e-06
2.04534e-06
3.08505e-05
5.62819e-05
7.44222e-05
8.89959e-05
0.000101318
0.000111781
0.000120655
0.000128152
0.000134443
0.000139671
0.000143959
0.000147418
0.000150145
0.000152228
0.000153746
0.000154773
0.000155372
0.000155601
0.000155505
0.000155109
0.000154373
0.000153463
0.000152428
0.000151312
0.000150157
0.000148994
0.000147851
0.000146752
0.000145714
0.00014475
0.000143869
0.000143076
0.000142373
0.000141759
0.00014123
0.000140781
0.000140404
0.000140094
0.000139843
0.000139643
0.000139488
0.00013937
0.000139286
0.000139229
0.000139197
0.000139185
0.000139191
0.000139213
0.000139249
0.000139299
0.00013936
0.000139429
0.000139507
0.000139595
0.000139693
0.0001398
0.000139917
0.000140043
0.000140178
0.00014032
0.000140469
0.000140624
0.000140783
0.000140946
0.000141112
0.000141278
0.000141445
0.000141611
0.000141775
0.000141937
0.000142094
0.000142247
0.000142395
0.000142538
0.000142675
0.000142807
0.000142933
0.000143055
0.000143172
0.000143286
0.000143397
0.000143508
0.000143619
0.000143732
0.000143848
0.00014397
0.000144099
0.000144236
0.000144383
0.00014454
0.000144709
0.000144889
0.000145082
0.000145286
0.000145502
0.000145728
0.000145964
0.000146207
0.000146456
0.000146709
0.000146965
0.000147222
0.000147477
0.00014773
0.000147978
0.00014822
0.000148456
0.000148683
0.000148902
0.000149113
0.000149315
0.000149509
0.000149694
0.000149872
0.000150044
0.00015021
0.000150372
0.000150529
0.000150685
0.000150838
0.000150991
0.000151143
0.000151296
0.00015145
0.000151605
0.00015176
0.000151917
0.000152074
0.00015223
0.000152387
0.000152541
0.000152694
0.000152844
0.000152992
0.000153135
0.000153274
0.000153409
0.00015354
0.000153667
0.00015379
0.00015391
0.000154027
0.000154142
0.000154256
0.00015437
0.000154485
0.000154601
0.00015472
0.000154842
0.000154967
0.000155097
0.00015523
0.000155369
0.000155512
0.000155659
0.00015581
0.000155964
0.000156121
0.000156281
0.000156441
0.000156602
0.000156763
0.000156921
0.000157076
0.000157227
0.000157371
0.000157506
0.000157629
0.000157738
0.000157828
0.000157884
0.0001579
0.000157866
0.000157772
0.0001576
0.000157331
0.00015694
0.000156398
0.000155669
0.000154713
0.000153483
0.000151929
0.000149995
0.000147625
0.000144761
0.000141347
0.000137332
0.000132672
0.000127334
0.000121301
0.000114572
0.000107168
9.91304e-05
9.05167e-05
8.13432e-05
7.13748e-05
5.86172e-05
3.6026e-05
3.30076e-06
3.76516e-06
5.11765e-05
9.58071e-05
0.000129745
0.000156935
0.000179345
0.000197964
0.000213406
0.000226112
0.000236438
0.000244687
0.000251129
0.000256009
0.00025955
0.000261954
0.000263405
0.000264063
0.000264072
0.000263551
0.000262598
0.000261278
0.000259613
0.000257744
0.000255766
0.000253749
0.00025175
0.000249815
0.000247978
0.000246267
0.000244702
0.000243293
0.000242047
0.000240963
0.000240038
0.000239263
0.000238628
0.00023812
0.000237725
0.000237429
0.000237218
0.00023708
0.000237001
0.000236972
0.000236982
0.000237025
0.000237094
0.000237183
0.00023729
0.00023741
0.000237542
0.000237685
0.000237836
0.000237993
0.000238156
0.000238326
0.000238503
0.000238689
0.000238883
0.000239085
0.000239294
0.000239511
0.000239733
0.000239961
0.000240192
0.000240426
0.000240661
0.000240897
0.00024113
0.000241362
0.000241589
0.000241812
0.00024203
0.000242241
0.000242446
0.000242643
0.000242834
0.000243018
0.000243196
0.000243369
0.000243538
0.000243704
0.000243869
0.000244035
0.000244203
0.000244377
0.000244557
0.000244747
0.000244948
0.000245161
0.000245388
0.00024563
0.000245888
0.000246161
0.000246449
0.000246752
0.000247068
0.000247395
0.000247731
0.000248074
0.000248422
0.000248771
0.000249119
0.000249464
0.000249804
0.000250136
0.000250458
0.00025077
0.000251069
0.000251356
0.000251631
0.000251893
0.000252143
0.000252381
0.00025261
0.00025283
0.000253043
0.00025325
0.000253452
0.000253652
0.000253851
0.00025405
0.00025425
0.000254452
0.000254656
0.000254863
0.000255072
0.000255284
0.000255497
0.000255711
0.000255925
0.000256138
0.000256349
0.000256557
0.000256761
0.00025696
0.000257154
0.000257342
0.000257523
0.000257699
0.00025787
0.000258036
0.000258197
0.000258356
0.000258513
0.00025867
0.000258827
0.000258987
0.000259149
0.000259316
0.000259488
0.000259666
0.00025985
0.00026004
0.000260238
0.000260442
0.000260653
0.000260869
0.000261091
0.000261317
0.000261547
0.00026178
0.000262014
0.00026225
0.000262485
0.000262719
0.00026295
0.000263175
0.000263393
0.000263599
0.000263789
0.000263957
0.000264088
0.000264172
0.000264196
0.000264142
0.00026399
0.000263711
0.000263269
0.000262624
0.000261725
0.000260516
0.000258931
0.000256898
0.000254339
0.000251171
0.000247307
0.000242661
0.000237148
0.000230684
0.000223193
0.000214604
0.000204852
0.000193871
0.000181572
0.000167771
0.00015197
0.00013273
0.000105951
6.24396e-05
6.65815e-06
3.76587e-06
5.1179e-05
9.58074e-05
0.000129745
0.000156935
0.000179344
0.000197963
0.000213404
0.000226111
0.000236437
0.000244686
0.000251128
0.000256008
0.000259549
0.000261954
0.000263404
0.000264063
0.000264072
0.000263551
0.000262598
0.000261278
0.000259613
0.000257745
0.000255767
0.00025375
0.000251751
0.000249815
0.000247979
0.000246268
0.000244703
0.000243294
0.000242047
0.000240964
0.000240039
0.000239264
0.000238629
0.000238121
0.000237726
0.00023743
0.000237219
0.00023708
0.000237002
0.000236972
0.000236983
0.000237026
0.000237094
0.000237184
0.00023729
0.000237411
0.000237543
0.000237686
0.000237837
0.000237994
0.000238157
0.000238326
0.000238504
0.00023869
0.000238884
0.000239086
0.000239295
0.000239512
0.000239734
0.000239962
0.000240193
0.000240427
0.000240662
0.000240897
0.000241131
0.000241362
0.00024159
0.000241813
0.00024203
0.000242242
0.000242446
0.000242644
0.000242835
0.000243019
0.000243197
0.00024337
0.000243539
0.000243705
0.00024387
0.000244036
0.000244204
0.000244378
0.000244558
0.000244748
0.000244948
0.000245161
0.000245389
0.000245631
0.000245888
0.000246161
0.00024645
0.000246753
0.000247068
0.000247395
0.000247732
0.000248075
0.000248422
0.000248772
0.00024912
0.000249465
0.000249805
0.000250136
0.000250459
0.00025077
0.00025107
0.000251357
0.000251631
0.000251893
0.000252143
0.000252382
0.000252611
0.000252831
0.000253043
0.00025325
0.000253453
0.000253653
0.000253852
0.000254051
0.000254251
0.000254453
0.000254657
0.000254863
0.000255073
0.000255284
0.000255498
0.000255712
0.000255926
0.000256139
0.00025635
0.000256558
0.000256762
0.000256961
0.000257154
0.000257342
0.000257524
0.0002577
0.00025787
0.000258036
0.000258198
0.000258357
0.000258514
0.000258671
0.000258828
0.000258987
0.00025915
0.000259317
0.000259488
0.000259666
0.00025985
0.000260041
0.000260239
0.000260443
0.000260653
0.00026087
0.000261091
0.000261318
0.000261547
0.00026178
0.000262015
0.000262251
0.000262486
0.000262719
0.00026295
0.000263175
0.000263393
0.000263599
0.00026379
0.000263958
0.000264088
0.000264172
0.000264196
0.000264143
0.000263991
0.000263711
0.00026327
0.000262625
0.000261726
0.000260517
0.000258932
0.000256899
0.00025434
0.000251172
0.000247308
0.000242662
0.000237149
0.000230685
0.000223194
0.000214605
0.000204853
0.000193872
0.000181574
0.000167772
0.000151971
0.000132731
0.000105952
6.24398e-05
6.65818e-06
5.59205e-06
6.23622e-05
0.00011975
0.000165116
0.000201854
0.000232185
0.000257389
0.000278278
0.000295435
0.000309324
0.000320343
0.000328853
0.000335187
0.000339659
0.000342556
0.000344146
0.000344666
0.000344328
0.000343311
0.000341762
0.000339799
0.000337504
0.000334953
0.00033231
0.000329656
0.000327054
0.000324559
0.000322211
0.00032004
0.000318065
0.000316298
0.000314745
0.000313402
0.000312263
0.000311316
0.000310547
0.000309939
0.000309475
0.000309137
0.000308907
0.000308768
0.000308705
0.000308704
0.000308753
0.000308842
0.000308963
0.000309108
0.000309274
0.000309454
0.000309648
0.000309851
0.000310063
0.000310281
0.000310503
0.000310732
0.000310968
0.00031121
0.00031146
0.000311716
0.00031198
0.00031225
0.000312526
0.000312806
0.000313089
0.000313374
0.00031366
0.000313946
0.000314229
0.00031451
0.000314786
0.000315057
0.000315322
0.00031558
0.00031583
0.000316074
0.00031631
0.00031654
0.000316764
0.000316982
0.000317197
0.00031741
0.000317623
0.000317838
0.000318057
0.000318283
0.000318518
0.000318763
0.000319022
0.000319295
0.000319584
0.00031989
0.000320213
0.000320552
0.000320908
0.000321279
0.000321662
0.000322057
0.000322459
0.000322868
0.000323278
0.000323689
0.000324096
0.000324497
0.00032489
0.000325271
0.000325641
0.000325996
0.000326337
0.000326663
0.000326973
0.00032727
0.000327552
0.000327823
0.000328082
0.000328333
0.000328576
0.000328813
0.000329047
0.00032928
0.000329512
0.000329745
0.000329981
0.00033022
0.000330462
0.000330708
0.000330957
0.00033121
0.000331465
0.000331721
0.000331976
0.000332231
0.000332483
0.000332731
0.000332975
0.000333213
0.000333444
0.000333669
0.000333887
0.000334098
0.000334304
0.000334504
0.000334699
0.000334892
0.000335084
0.000335275
0.000335468
0.000335663
0.000335863
0.000336068
0.00033628
0.000336499
0.000336726
0.000336961
0.000337205
0.000337457
0.000337718
0.000337986
0.000338262
0.000338545
0.000338834
0.000339129
0.000339429
0.000339733
0.000340041
0.000340352
0.000340664
0.000340976
0.000341287
0.000341591
0.000341885
0.000342159
0.000342404
0.000342608
0.000342757
0.00034283
0.000342803
0.000342644
0.000342313
0.000341763
0.000340937
0.000339769
0.000338184
0.000336097
0.000333417
0.000330044
0.000325872
0.000320788
0.000314674
0.000307407
0.000298856
0.000288879
0.000277313
0.000263957
0.000248515
0.000230469
0.000208753
0.000180981
0.000141845
8.1621e-05
1.01318e-05
5.59267e-06
6.23639e-05
0.000119751
0.000165116
0.000201853
0.000232184
0.000257388
0.000278277
0.000295434
0.000309323
0.000320342
0.000328852
0.000335187
0.000339658
0.000342556
0.000344146
0.000344667
0.000344329
0.000343311
0.000341763
0.0003398
0.000337506
0.000334954
0.000332312
0.000329658
0.000327056
0.000324561
0.000322213
0.000320042
0.000318067
0.000316301
0.000314747
0.000313404
0.000312265
0.000311318
0.000310549
0.000309941
0.000309477
0.000309139
0.000308909
0.00030877
0.000308707
0.000308706
0.000308755
0.000308844
0.000308965
0.00030911
0.000309275
0.000309456
0.00030965
0.000309853
0.000310065
0.000310283
0.000310505
0.000310734
0.000310969
0.000311212
0.000311462
0.000311718
0.000311982
0.000312252
0.000312528
0.000312808
0.000313091
0.000313376
0.000313662
0.000313948
0.000314231
0.000314512
0.000314788
0.000315059
0.000315324
0.000315582
0.000315832
0.000316076
0.000316312
0.000316542
0.000316766
0.000316984
0.000317199
0.000317412
0.000317625
0.00031784
0.000318059
0.000318285
0.00031852
0.000318765
0.000319024
0.000319297
0.000319586
0.000319892
0.000320215
0.000320554
0.00032091
0.000321281
0.000321664
0.000322059
0.000322461
0.00032287
0.00032328
0.000323691
0.000324098
0.000324499
0.000324892
0.000325273
0.000325643
0.000325998
0.000326339
0.000326665
0.000326975
0.000327272
0.000327554
0.000327825
0.000328084
0.000328335
0.000328578
0.000328815
0.000329049
0.000329282
0.000329514
0.000329747
0.000329983
0.000330222
0.000330464
0.00033071
0.000330959
0.000331212
0.000331467
0.000331722
0.000331978
0.000332233
0.000332485
0.000332733
0.000332977
0.000333215
0.000333446
0.000333671
0.000333889
0.0003341
0.000334306
0.000334506
0.000334701
0.000334894
0.000335086
0.000335277
0.00033547
0.000335665
0.000335865
0.00033607
0.000336282
0.000336501
0.000336728
0.000336963
0.000337207
0.000337459
0.00033772
0.000337988
0.000338264
0.000338547
0.000338836
0.000339131
0.000339431
0.000339735
0.000340043
0.000340354
0.000340666
0.000340978
0.000341288
0.000341593
0.000341887
0.000342161
0.000342406
0.00034261
0.000342758
0.000342832
0.000342805
0.000342646
0.000342315
0.000341765
0.000340939
0.000339771
0.000338185
0.000336099
0.000333419
0.000330046
0.000325874
0.00032079
0.000314676
0.00030741
0.000298859
0.000288881
0.000277316
0.000263959
0.000248517
0.000230471
0.000208754
0.000180982
0.000141846
8.1621e-05
1.01315e-05
7.57578e-06
7.1012e-05
0.000136868
0.000190056
0.000233494
0.000269515
0.000299549
0.000324522
0.000345094
0.000361787
0.00037505
0.000385289
0.000392889
0.000398215
0.000401616
0.000403416
0.000403913
0.000403374
0.000402028
0.000400069
0.000397652
0.000394897
0.000391889
0.000388791
0.000385696
0.000382679
0.000379796
0.00037709
0.000374594
0.000372325
0.000370296
0.00036851
0.000366963
0.000365646
0.000364547
0.000363649
0.000362934
0.000362384
0.000361977
0.000361694
0.000361518
0.000361431
0.000361417
0.000361464
0.000361558
0.000361691
0.000361855
0.000362043
0.00036225
0.000362472
0.000362706
0.00036295
0.000363201
0.000363458
0.000363721
0.000363991
0.000364267
0.000364551
0.000364843
0.000365141
0.000365445
0.000365755
0.000366069
0.000366387
0.000366707
0.000367028
0.000367348
0.000367667
0.000367983
0.000368296
0.000368603
0.000368905
0.0003692
0.000369489
0.000369771
0.000370046
0.000370316
0.000370579
0.000370839
0.000371095
0.000371351
0.000371607
0.000371865
0.000372129
0.0003724
0.00037268
0.000372972
0.000373277
0.000373596
0.000373932
0.000374284
0.000374653
0.000375038
0.000375438
0.000375852
0.000376278
0.000376713
0.000377155
0.000377601
0.000378047
0.000378492
0.000378931
0.000379362
0.000379784
0.000380193
0.000380588
0.000380968
0.000381332
0.000381681
0.000382014
0.000382332
0.000382637
0.000382929
0.000383211
0.000383484
0.000383751
0.000384012
0.000384271
0.000384529
0.000384788
0.000385048
0.000385312
0.00038558
0.000385851
0.000386127
0.000386406
0.000386689
0.000386974
0.00038726
0.000387546
0.000387831
0.000388113
0.000388391
0.000388663
0.00038893
0.00038919
0.000389442
0.000389688
0.000389927
0.00039016
0.000390388
0.000390611
0.000390832
0.000391052
0.000391271
0.000391493
0.000391718
0.000391948
0.000392185
0.000392428
0.00039268
0.000392942
0.000393212
0.000393493
0.000393784
0.000394085
0.000394396
0.000394717
0.000395048
0.000395389
0.000395739
0.000396099
0.000396468
0.000396847
0.000397236
0.000397633
0.000398039
0.000398452
0.00039887
0.000399287
0.000399697
0.000400091
0.00040046
0.000400787
0.000401054
0.000401235
0.000401298
0.000401202
0.000400897
0.000400325
0.000399415
0.000398088
0.000396253
0.000393811
0.000390648
0.000386642
0.000381657
0.000375543
0.00036813
0.000359226
0.000348608
0.000336
0.000321045
0.000303229
0.000281707
0.000254934
0.00021987
0.000170516
9.71513e-05
1.34254e-05
7.57633e-06
7.10135e-05
0.000136867
0.000190055
0.000233492
0.000269513
0.000299548
0.000324521
0.000345093
0.000361787
0.000375049
0.000385288
0.000392889
0.000398216
0.000401617
0.000403417
0.000403914
0.000403375
0.00040203
0.000400071
0.000397654
0.000394899
0.000391892
0.000388794
0.000385699
0.000382682
0.000379799
0.000377093
0.000374597
0.000372328
0.000370299
0.000368513
0.000366966
0.000365649
0.00036455
0.000363652
0.000362937
0.000362386
0.000361979
0.000361697
0.000361521
0.000361434
0.00036142
0.000361466
0.000361561
0.000361694
0.000361858
0.000362046
0.000362253
0.000362475
0.000362709
0.000362953
0.000363204
0.00036346
0.000363724
0.000363993
0.00036427
0.000364554
0.000364845
0.000365143
0.000365448
0.000365758
0.000366072
0.00036639
0.00036671
0.00036703
0.000367351
0.00036767
0.000367986
0.000368299
0.000368606
0.000368908
0.000369203
0.000369492
0.000369774
0.000370049
0.000370318
0.000370582
0.000370842
0.000371098
0.000371354
0.00037161
0.000371868
0.000372132
0.000372403
0.000372683
0.000372975
0.00037328
0.000373599
0.000373935
0.000374287
0.000374656
0.000375041
0.000375441
0.000375855
0.000376281
0.000376716
0.000377158
0.000377603
0.00037805
0.000378494
0.000378934
0.000379365
0.000379786
0.000380195
0.000380591
0.000380971
0.000381335
0.000381684
0.000382017
0.000382335
0.00038264
0.000382932
0.000383214
0.000383487
0.000383754
0.000384015
0.000384274
0.000384532
0.000384791
0.000385051
0.000385315
0.000385582
0.000385854
0.00038613
0.000386409
0.000386692
0.000386977
0.000387263
0.000387549
0.000387834
0.000388116
0.000388394
0.000388666
0.000388933
0.000389192
0.000389445
0.000389691
0.00038993
0.000390163
0.000390391
0.000390614
0.000390835
0.000391054
0.000391274
0.000391496
0.000391721
0.000391951
0.000392188
0.000392431
0.000392683
0.000392944
0.000393215
0.000393496
0.000393787
0.000394088
0.000394399
0.00039472
0.000395051
0.000395392
0.000395742
0.000396102
0.000396471
0.00039685
0.000397238
0.000397636
0.000398042
0.000398455
0.000398873
0.00039929
0.0003997
0.000400094
0.000400462
0.000400789
0.000401057
0.000401238
0.000401301
0.000401205
0.0004009
0.000400327
0.000399417
0.00039809
0.000396256
0.000393814
0.000390651
0.000386645
0.000381661
0.000375546
0.000368133
0.00035923
0.000348611
0.000336003
0.000321048
0.000303232
0.000281709
0.000254936
0.000219872
0.000170517
9.71512e-05
1.34249e-05
9.46434e-06
7.89405e-05
0.000150905
0.000209517
0.000257568
0.0002975
0.000330859
0.000358655
0.000381605
0.000400271
0.000415128
0.00042661
0.000435126
0.000441071
0.000444827
0.000446758
0.000447204
0.000446476
0.000444844
0.000442539
0.00043975
0.000436625
0.000433271
0.000429831
0.000426413
0.000423097
0.000419941
0.000416988
0.000414267
0.000411797
0.000409586
0.000407635
0.000405939
0.000404488
0.000403268
0.000402263
0.000401452
0.000400817
0.000400337
0.000399991
0.000399762
0.000399631
0.000399581
0.0003996
0.000399674
0.000399793
0.000399948
0.000400132
0.000400339
0.000400565
0.000400806
0.000401059
0.000401321
0.00040159
0.000401867
0.000402151
0.000402443
0.000402743
0.000403051
0.000403366
0.000403687
0.000404015
0.000404348
0.000404686
0.000405026
0.000405368
0.000405711
0.000406053
0.000406394
0.000406732
0.000407066
0.000407396
0.000407721
0.000408041
0.000408354
0.000408663
0.000408967
0.000409266
0.000409562
0.000409856
0.000410149
0.000410444
0.000410742
0.000411045
0.000411355
0.000411674
0.000412004
0.000412346
0.000412701
0.000413072
0.000413457
0.000413857
0.00041427
0.000414697
0.000415136
0.000415584
0.000416039
0.000416499
0.000416961
0.000417422
0.000417878
0.000418329
0.00041877
0.000419201
0.000419618
0.000420022
0.000420411
0.000420784
0.000421142
0.000421485
0.000421815
0.000422131
0.000422437
0.000422733
0.000423022
0.000423306
0.000423585
0.000423863
0.000424141
0.000424421
0.000424703
0.000424988
0.000425278
0.000425572
0.00042587
0.000426172
0.000426477
0.000426784
0.000427092
0.000427399
0.000427705
0.000428008
0.000428306
0.000428599
0.000428887
0.000429167
0.000429441
0.000429708
0.000429968
0.000430223
0.000430472
0.000430718
0.000430962
0.000431205
0.000431448
0.000431694
0.000431944
0.000432199
0.00043246
0.00043273
0.000433009
0.000433298
0.000433598
0.000433908
0.000434231
0.000434566
0.000434913
0.000435274
0.000435647
0.000436035
0.000436437
0.000436854
0.000437288
0.000437739
0.000438209
0.000438698
0.000439207
0.000439737
0.000440285
0.000440849
0.000441424
0.000442004
0.00044258
0.00044314
0.000443665
0.000444133
0.000444512
0.000444762
0.000444836
0.000444675
0.000444209
0.000443358
0.000442028
0.000440111
0.000437487
0.000434015
0.000429534
0.000423859
0.000416771
0.00040801
0.000397262
0.000384133
0.000368109
0.000348461
0.000324059
0.000292982
0.000251745
0.000193977
0.000110184
1.63603e-05
9.46487e-06
7.89416e-05
0.000150905
0.000209516
0.000257566
0.000297498
0.000330857
0.000358653
0.000381604
0.00040027
0.000415127
0.00042661
0.000435126
0.000441071
0.000444827
0.000446759
0.000447206
0.000446477
0.000444846
0.000442541
0.000439753
0.000436628
0.000433274
0.000429834
0.000426416
0.0004231
0.000419944
0.000416991
0.000414271
0.0004118
0.000409589
0.000407638
0.000405942
0.000404492
0.000403272
0.000402266
0.000401456
0.00040082
0.00040034
0.000399995
0.000399765
0.000399634
0.000399585
0.000399603
0.000399677
0.000399796
0.000399951
0.000400135
0.000400343
0.000400569
0.00040081
0.000401062
0.000401324
0.000401594
0.00040187
0.000402155
0.000402447
0.000402747
0.000403054
0.000403369
0.000403691
0.000404019
0.000404352
0.000404689
0.000405029
0.000405372
0.000405715
0.000406057
0.000406398
0.000406736
0.00040707
0.0004074
0.000407725
0.000408044
0.000408358
0.000408667
0.00040897
0.000409269
0.000409565
0.000409859
0.000410153
0.000410448
0.000410745
0.000411048
0.000411358
0.000411677
0.000412007
0.000412349
0.000412705
0.000413075
0.00041346
0.00041386
0.000414274
0.000414701
0.000415139
0.000415588
0.000416043
0.000416503
0.000416964
0.000417425
0.000417882
0.000418332
0.000418774
0.000419204
0.000419622
0.000420025
0.000420414
0.000420787
0.000421145
0.000421489
0.000421818
0.000422135
0.000422441
0.000422737
0.000423026
0.000423309
0.000423589
0.000423867
0.000424145
0.000424424
0.000424706
0.000424992
0.000425281
0.000425575
0.000425873
0.000426175
0.00042648
0.000426787
0.000427095
0.000427403
0.000427708
0.000428011
0.00042831
0.000428603
0.00042889
0.000429171
0.000429445
0.000429711
0.000429972
0.000430226
0.000430476
0.000430722
0.000430965
0.000431208
0.000431452
0.000431697
0.000431947
0.000432202
0.000432464
0.000432734
0.000433013
0.000433301
0.000433601
0.000433912
0.000434234
0.000434569
0.000434917
0.000435277
0.000435651
0.000436038
0.00043644
0.000436857
0.000437291
0.000437742
0.000438212
0.000438701
0.000439211
0.00043974
0.000440288
0.000440852
0.000441427
0.000442007
0.000442583
0.000443143
0.000443668
0.000444136
0.000444515
0.000444765
0.000444839
0.000444678
0.000444212
0.000443361
0.000442031
0.000440115
0.000437491
0.000434019
0.000429538
0.000423863
0.000416775
0.000408014
0.000397266
0.000384137
0.000368113
0.000348464
0.000324062
0.000292985
0.000251746
0.000193979
0.000110184
1.63597e-05
1.12942e-05
8.6326e-05
0.000163118
0.00022565
0.000276874
0.000319401
0.000354903
0.000384476
0.000408896
0.000428764
0.00044458
0.000456795
0.000465831
0.000472097
0.000475993
0.000477903
0.000478196
0.000477213
0.000475257
0.000472591
0.000469434
0.000465956
0.000462292
0.000458545
0.000454853
0.000451295
0.000447927
0.000444788
0.000441906
0.000439292
0.000436953
0.000434887
0.000433085
0.000431537
0.000430226
0.000429134
0.000428243
0.000427533
0.000426982
0.000426572
0.000426283
0.000426099
0.000426002
0.000425978
0.000426015
0.000426103
0.000426231
0.000426393
0.000426582
0.000426793
0.000427022
0.000427266
0.000427521
0.000427785
0.000428059
0.000428341
0.000428632
0.000428933
0.000429241
0.000429559
0.000429884
0.000430216
0.000430555
0.000430899
0.000431248
0.0004316
0.000431954