/*--------------------------------*- C++ -*----------------------------------*\
  =========                 |
  \\      /  F ield         | OpenFOAM: The Open Source CFD Toolbox
   \\    /   O peration     | Website:  https://openfoam.org
    \\  /    A nd           | Version:  8
     \\/     M anipulation  |
\*---------------------------------------------------------------------------*/
FoamFile
{
    version     2.0;
    format      ascii;
    class       volScalarField;
    location    "400";
    object      epsilon;
}
// * * * * * * * * * * * * * * * * * * * * * * * * * * * * * * * * * * * * * //

dimensions      [0 2 -3 0 0 0 0];

internalField   nonuniform List<scalar> 
46000
(
12.8071
43.6902
87.9267
134.435
181.053
221.832
259.37
294.03
325.958
355.239
381.93
406.074
427.706
446.858
463.566
477.873
489.831
499.508
506.983
512.355
515.776
517.844
518.581
517.909
515.894
512.687
508.479
503.482
497.91
491.971
485.85
479.714
473.7
467.922
462.463
457.384
452.722
448.496
444.708
441.349
438.402
435.841
433.641
431.772
430.204
428.91
427.865
427.043
426.424
425.989
425.721
425.606
425.643
425.835
426.153
426.582
427.109
427.729
428.432
429.214
430.066
430.982
431.955
432.976
434.037
435.13
436.246
437.376
438.513
439.649
440.775
441.885
442.973
444.031
445.057
446.046
446.995
447.904
448.774
449.605
450.403
451.172
451.919
452.653
453.383
454.12
454.874
455.658
456.483
457.36
458.3
459.31
460.399
461.571
462.829
464.173
465.603
467.114
468.7
470.353
472.062
473.818
475.607
477.417
479.237
481.052
482.853
484.628
486.369
488.066
489.715
491.311
492.852
494.336
495.764
497.14
498.467
499.749
500.992
502.203
503.388
504.553
505.703
506.845
507.983
509.119
510.257
511.397
512.538
513.681
514.821
515.956
517.083
518.196
519.292
520.368
521.419
522.443
523.438
524.404
525.342
526.252
527.137
528.002
528.851
529.689
530.521
531.355
532.196
533.048
533.918
534.81
535.726
536.669
537.641
538.642
539.669
540.721
541.794
542.883
543.982
545.085
546.182
547.265
548.322
549.344
550.314
551.218
552.036
552.75
553.347
553.82
554.103
554.132
553.835
553.126
551.902
550.035
547.373
543.736
538.914
532.672
524.749
514.865
502.733
488.065
470.594
450.083
426.351
399.284
368.862
335.175
298.456
259.111
217.757
175.109
130.547
88.6655
49.7241
18.1146
12.8079
43.6906
87.9526
134.464
181.084
221.863
259.397
294.051
325.972
355.247
381.934
406.076
427.707
446.859
463.568
477.875
489.834
499.512
506.988
512.36
515.781
517.848
518.585
517.912
515.898
512.69
508.481
503.484
497.912
491.972
485.851
479.715
473.701
467.923
462.464
457.385
452.723
448.497
444.709
441.35
438.403
435.843
433.643
431.773
430.206
428.912
427.867
427.045
426.426
425.991
425.723
425.608
425.645
425.837
426.155
426.584
427.112
427.731
428.434
429.216
430.068
430.985
431.957
432.978
434.039
435.132
436.248
437.378
438.516
439.651
440.778
441.888
442.975
444.034
445.059
446.048
446.997
447.906
448.776
449.608
450.405
451.174
451.922
452.655
453.385
454.122
454.876
455.66
456.486
457.363
458.302
459.313
460.401
461.573
462.831
464.176
465.606
467.117
468.702
470.355
472.064
473.82
475.609
477.419
479.239
481.054
482.855
484.63
486.371
488.068
489.717
491.313
492.854
494.338
495.767
497.142
498.469
499.751
500.995
502.205
503.39
504.555
505.705
506.847
507.985
509.121
510.259
511.399
512.54
513.683
514.823
515.958
517.084
518.198
519.294
520.37
521.421
522.445
523.44
524.406
525.343
526.253
527.139
528.004
528.852
529.69
530.523
531.357
532.197
533.05
533.92
534.811
535.728
536.671
537.643
538.643
539.671
540.723
541.796
542.885
543.984
545.086
546.183
547.266
548.324
549.345
550.315
551.219
552.038
552.751
553.348
553.821
554.104
554.133
553.836
553.127
551.903
550.036
547.374
543.737
538.916
532.674
524.751
514.867
502.734
488.067
470.595
450.085
426.352
399.286
368.864
335.177
298.459
259.115
217.762
175.113
130.546
88.6619
49.7173
18.1122
39.5304
39.4006
58.4536
79.5587
101.311
122.639
143.471
163.78
183.535
202.688
221.17
238.889
255.731
271.568
286.263
299.679
311.693
322.197
331.11
338.391
344.059
348.284
351.085
352.486
352.569
351.463
349.325
346.332
342.665
338.505
334.018
329.356
324.651
320.011
315.526
311.263
307.271
303.58
300.209
297.163
294.438
292.025
289.909
288.072
286.494
285.155
284.035
283.115
282.378
281.806
281.385
281.102
280.951
280.923
281.005
281.186
281.455
281.805
282.229
282.722
283.276
283.887
284.547
285.25
285.99
286.761
287.555
288.366
289.188
290.014
290.838
291.654
292.456
293.239
294
294.735
295.44
296.114
296.757
297.368
297.949
298.503
299.034
299.547
300.049
300.546
301.047
301.56
302.094
302.657
303.258
303.905
304.604
305.361
306.182
307.067
308.019
309.037
310.118
311.259
312.455
313.698
314.981
316.295
317.631
318.98
320.332
321.679
323.012
324.324
325.608
326.859
328.072
329.245
330.376
331.465
332.514
333.522
334.495
335.436
336.348
337.236
338.105
338.959
339.802
340.637
341.468
342.297
343.124
343.95
344.775
345.598
346.416
347.228
348.03
348.821
349.597
350.357
351.099
351.821
352.523
353.206
353.869
354.516
355.149
355.77
356.384
356.994
357.605
358.221
358.845
359.482
360.135
360.805
361.495
362.206
362.937
363.687
364.455
365.236
366.028
366.826
367.622
368.411
369.183
369.931
370.642
371.305
371.905
372.427
372.857
373.179
373.355
373.345
373.097
372.555
371.645
370.284
368.369
365.782
362.387
358.032
352.554
345.78
337.539
327.666
316.016
302.472
286.954
269.43
249.915
228.475
205.228
180.358
154.145
127.038
99.8217
74.7219
55.2581
64.865
39.5425
39.3971
58.4552
79.5625
101.316
122.645
143.478
163.787
183.542
202.695
221.176
238.894
255.736
271.571
286.265
299.681
311.694
322.197
331.11
338.391
344.058
348.282
351.083
352.483
352.567
351.461
349.323
346.329
342.664
338.503
334.017
329.355
324.65
320.01
315.526
311.263
307.27
303.58
300.209
297.163
294.439
292.026
289.91
288.073
286.495
285.155
284.036
283.116
282.378
281.806
281.385
281.103
280.951
280.924
281.006
281.186
281.455
281.805
282.23
282.723
283.277
283.887
284.547
285.251
285.991
286.761
287.556
288.367
289.189
290.015
290.838
291.654
292.456
293.24
294.001
294.735
295.44
296.115
296.757
297.368
297.949
298.503
299.034
299.548
300.049
300.547
301.047
301.56
302.094
302.657
303.258
303.905
304.604
305.362
306.182
307.068
308.02
309.037
310.119
311.26
312.455
313.698
314.981
316.295
317.631
318.98
320.333
321.68
323.013
324.325
325.609
326.859
328.073
329.245
330.377
331.466
332.514
333.523
334.496
335.436
336.348
337.236
338.105
338.959
339.802
340.637
341.468
342.297
343.124
343.951
344.776
345.598
346.416
347.228
348.03
348.821
349.598
350.357
351.099
351.821
352.523
353.206
353.869
354.516
355.149
355.77
356.384
356.994
357.605
358.221
358.845
359.482
360.135
360.805
361.495
362.206
362.937
363.687
364.455
365.236
366.028
366.825
367.622
368.41
369.183
369.93
370.642
371.305
371.905
372.427
372.857
373.178
373.355
373.344
373.097
372.554
371.645
370.284
368.369
365.782
362.387
358.032
352.554
345.78
337.539
327.666
316.016
302.472
286.954
269.43
249.915
228.474
205.226
180.356
154.143
127.037
99.8204
74.72
55.2548
64.8631
70.9465
55.2948
67.4339
83.5313
100.947
118.729
136.471
153.979
171.161
187.963
204.338
220.231
235.566
250.245
264.151
277.15
289.107
299.888
309.377
317.483
324.155
329.401
333.236
335.689
336.834
336.779
335.662
333.636
330.867
327.519
323.75
319.708
315.523
311.307
307.155
303.141
299.323
295.742
292.424
289.384
286.63
284.157
281.96
280.025
278.34
276.889
275.654
274.62
273.772
273.093
272.57
272.192
271.946
271.825
271.816
271.911
272.101
272.376
272.732
273.16
273.654
274.207
274.814
275.468
276.161
276.888
277.642
278.416
279.203
279.997
280.792
281.582
282.361
283.124
283.866
284.584
285.275
285.936
286.566
287.166
287.736
288.278
288.796
289.294
289.778
290.254
290.731
291.214
291.714
292.238
292.794
293.391
294.034
294.731
295.486
296.302
297.181
298.124
299.13
300.195
301.315
302.485
303.698
304.946
306.222
307.516
308.819
310.124
311.421
312.703
313.964
315.196
316.397
317.561
318.688
319.774
320.822
321.831
322.803
323.742
324.651
325.534
326.394
327.236
328.064
328.881
329.69
330.494
331.293
332.089
332.883
333.672
334.457
335.235
336.004
336.763
337.509
338.241
338.955
339.652
340.331
340.991
341.634
342.261
342.874
343.476
344.069
344.658
345.246
345.837
346.435
347.043
347.665
348.302
348.957
349.63
350.322
351.032
351.759
352.5
353.251
354.008
354.765
355.515
356.251
356.964
357.643
358.277
358.85
359.348
359.752
360.04
360.18
360.134
359.857
359.292
358.373
357.018
355.135
352.612
349.328
345.147
339.924
333.513
325.768
316.557
305.768
293.315
279.149
263.252
245.646
226.386
205.568
183.351
160.038
136.231
113.163
93.4111
83.4036
129.487
70.9606
55.2991
67.4391
83.5369
100.953
118.735
136.476
153.985
171.166
187.967
204.342
220.234
235.569
250.247
264.152
277.151
289.107
299.888
309.376
317.481
324.153
329.398
333.233
335.686
336.831
336.776
335.659
333.633
330.864
327.516
323.747
319.705
315.52
311.305
307.153
303.14
299.321
295.74
292.422
289.383
286.628
284.156
281.958
280.024
278.339
276.887
275.653
274.619
273.77
273.092
272.569
272.19
271.945
271.823
271.815
271.91
272.099
272.375
272.73
273.158
273.652
274.206
274.813
275.467
276.16
276.887
277.641
278.414
279.202
279.996
280.791
281.58
282.359
283.122
283.865
284.583
285.273
285.935
286.565
287.164
287.734
288.276
288.794
289.292
289.776
290.253
290.729
291.213
291.712
292.236
292.793
293.389
294.033
294.729
295.484
296.3
297.18
298.123
299.128
300.193
301.313
302.483
303.696
304.945
306.22
307.514
308.818
310.122
311.419
312.701
313.962
315.195
316.395
317.56
318.686
319.773
320.82
321.829
322.801
323.74
324.649
325.532
326.392
327.234
328.062
328.879
329.688
330.492
331.291
332.087
332.881
333.67
334.455
335.233
336.002
336.761
337.507
338.238
338.953
339.65
340.329
340.989
341.632
342.259
342.872
343.474
344.067
344.656
345.244
345.835
346.433
347.041
347.663
348.3
348.954
349.628
350.32
351.03
351.757
352.498
353.249
354.005
354.762
355.513
356.249
356.962
357.641
358.274
358.848
359.346
359.75
360.038
360.178
360.132
359.855
359.29
358.371
357.016
355.133
352.61
349.326
345.145
339.923
333.511
325.766
316.555
305.766
293.314
279.147
263.25
245.645
226.385
205.566
183.35
160.036
136.229
113.161
93.4088
83.4
129.482
103.362
74.7812
83.042
97.0102
112.803
129.167
145.517
161.56
177.166
192.295
206.943
221.119
234.817
248.006
260.628
272.597
283.809
294.143
303.48
311.712
318.752
324.542
329.052
332.281
334.277
335.119
334.914
333.79
331.887
329.349
326.322
322.941
319.333
315.609
311.865
308.179
304.615
301.222
298.034
295.075
292.358
289.889
287.668
285.69
283.945
282.423
281.111
279.997
279.068
278.31
277.71
277.258
276.943
276.754
276.682
276.717
276.853
277.08
277.391
277.78
278.24
278.764
279.344
279.975
280.65
281.361
282.102
282.866
283.647
284.438
285.232
286.023
286.806
287.576
288.327
289.057
289.76
290.436
291.082
291.699
292.287
292.847
293.383
293.899
294.399
294.89
295.379
295.874
296.381
296.909
297.465
298.058
298.694
299.379
300.119
300.915
301.772
302.69
303.667
304.703
305.793
306.933
308.116
309.336
310.586
311.856
313.14
314.429
315.715
316.99
318.249
319.484
320.691
321.866
323.007
324.111
325.178
326.208
327.204
328.166
329.098
330.004
330.885
331.747
332.592
333.423
334.245
335.058
335.864
336.665
337.46
338.25
339.034
339.81
340.577
341.333
342.076
342.805
343.518
344.215
344.894
345.556
346.201
346.831
347.448
348.054
348.652
349.245
349.837
350.431
351.031
351.64
352.262
352.898
353.55
354.221
354.909
355.615
356.337
357.074
357.821
358.575
359.331
360.082
360.822
361.541
362.23
362.877
363.467
363.986
364.411
364.721
364.885
364.866
364.622
364.097
363.226
361.932
360.126
357.703
354.548
350.538
345.54
339.424
332.065
323.348
313.181
301.492
288.236
273.392
256.96
238.964
219.462
198.597
176.696
154.479
133.444
116.768
113.855
195.827
103.373
74.7862
83.0481
97.0165
112.809
129.173
145.522
161.564
177.17
192.298
206.946
221.121
234.818
248.006
260.627
272.596
283.807
294.14
303.477
311.709
318.748
324.538
329.047
332.276
334.272
335.114
334.909
333.785
331.882
329.345
326.317
322.937
319.329
315.605
311.861
308.175
304.612
301.218
298.03
295.071
292.355
289.886
287.665
285.686
283.942
282.42
281.108
279.994
279.065
278.306
277.707
277.255
276.94
276.751
276.678
276.714
276.849
277.076
277.388
277.777
278.237
278.76
279.341
279.972
280.646
281.357
282.099
282.863
283.643
284.434
285.228
286.019
286.803
287.572
288.324
289.053
289.757
290.432
291.079
291.695
292.283
292.843
293.379
293.895
294.395
294.887
295.376
295.87
296.377
296.905
297.462
298.055
298.691
299.376
300.115
300.912
301.768
302.686
303.664
304.699
305.789
306.929
308.112
309.332
310.582
311.853
313.136
314.425
315.711
316.986
318.245
319.48
320.687
321.862
323.002
324.107
325.174
326.204
327.2
328.162
329.094
329.999
330.881
331.742
332.587
333.419
334.24
335.053
335.86
336.66
337.456
338.246
339.03
339.806
340.573
341.329
342.072
342.801
343.514
344.21
344.889
345.551
346.197
346.827
347.443
348.049
348.647
349.24
349.832
350.427
351.027
351.636
352.257
352.893
353.546
354.216
354.905
355.61
356.333
357.069
357.817
358.571
359.326
360.078
360.817
361.537
362.226
362.872
363.463
363.981
364.407
364.716
364.88
364.862
364.617
364.092
363.221
361.928
360.121
357.699
354.544
350.534
345.536
339.42
332.061
323.344
313.177
301.489
288.233
273.388
256.957
238.96
219.459
198.594
176.692
154.476
133.441
116.764
113.85
195.819
138.174
95.6858
100.881
113.47
128.219
143.516
158.626
173.195
187.085
200.284
212.85
224.865
236.406
247.527
258.243
268.531
278.334
287.564
296.117
303.88
310.75
316.636
321.47
325.203
327.847
329.446
330.069
329.809
328.776
327.089
324.871
322.243
319.32
316.206
312.994
309.763
306.58
303.498
300.558
297.79
295.214
292.843
290.684
288.737
287
285.466
284.129
282.979
282.005
281.199
280.548
280.043
279.675
279.432
279.307
279.291
279.377
279.558
279.826
280.174
280.596
281.084
281.632
282.233
282.88
283.567
284.286
285.032
285.796
286.574
287.358
288.143
288.922
289.692
290.446
291.181
291.893
292.58
293.241
293.874
294.48
295.06
295.616
296.153
296.675
297.186
297.694
298.204
298.725
299.262
299.824
300.418
301.049
301.724
302.447
303.222
304.052
304.937
305.878
306.873
307.918
309.011
310.146
311.318
312.519
313.743
314.982
316.23
317.478
318.72
319.949
321.161
322.35
323.512
324.644
325.744
326.811
327.845
328.847
329.818
330.76
331.676
332.568
333.44
334.294
335.133
335.96
336.776
337.583
338.382
339.174
339.959
340.736
341.504
342.262
343.009
343.744
344.464
345.17
345.86
346.534
347.192
347.835
348.464
349.08
349.687
350.287
350.882
351.476
352.072
352.673
353.283
353.904
354.539
355.189
355.856
356.541
357.243
357.962
358.695
359.441
360.196
360.955
361.713
362.464
363.2
363.912
364.589
365.218
365.784
366.265
366.64
366.882
366.956
366.821
366.427
365.712
364.604
363.021
360.868
358.042
354.43
349.919
344.396
337.754
329.899
320.75
310.242
298.324
284.953
270.089
253.705
235.799
216.468
196.027
175.252
155.823
141.51
144.509
258.184
138.184
95.6912
100.888
113.476
128.225
143.522
158.631
173.199
187.088
200.286
212.851
224.865
236.406
247.526
258.241
268.529
278.331
287.561
296.113
303.876
310.745
316.631
321.465
325.197
327.842
329.44
330.063
329.803
328.77
327.084
324.866
322.238
319.315
316.2
312.988
309.758
306.575
303.493
300.553
297.785
295.209
292.838
290.679
288.732
286.995
285.462
284.125
282.974
282.001
281.194
280.543
280.039
279.67
279.427
279.302
279.287
279.373
279.553
279.821
280.169
280.591
281.079
281.627
282.228
282.875
283.562
284.281
285.027
285.791
286.569
287.353
288.138
288.917
289.686
290.441
291.175
291.888
292.575
293.236
293.869
294.474
295.054
295.611
296.148
296.67
297.181
297.689
298.199
298.719
299.257
299.819
300.412
301.044
301.719
302.442
303.217
304.047
304.932
305.873
306.867
307.913
309.006
310.141
311.313
312.514
313.738
314.977
316.224
317.472
318.714
319.944
321.155
322.344
323.506
324.638
325.738
326.805
327.84
328.841
329.812
330.754
331.67
332.562
333.434
334.288
335.127
335.954
336.77
337.577
338.376
339.168
339.953
340.73
341.498
342.256
343.003
343.738
344.458
345.164
345.854
346.528
347.186
347.829
348.458
349.074
349.681
350.281
350.876
351.47
352.066
352.667
353.277
353.898
354.532
355.183
355.85
356.535
357.237
357.956
358.689
359.435
360.19
360.949
361.707
362.458
363.194
363.906
364.583
365.212
365.777
366.259
366.634
366.876
366.95
366.815
366.421
365.706
364.598
363.016
360.863
358.036
354.425
349.914
344.391
337.749
329.894
320.745
310.237
298.319
284.948
270.085
253.7
235.795
216.463
196.023
175.248
155.818
141.505
144.503
258.174
171.619
116.404
119.112
130.632
144.464
158.66
172.366
185.199
197.038
207.923
217.985
227.39
236.306
244.871
253.179
261.277
269.157
276.772
284.038
290.851
297.099
302.674
307.481
311.427
314.48
316.644
317.949
318.451
318.224
317.358
315.949
314.098
311.904
309.461
306.855
304.161
301.446
298.764
296.16
293.669
291.317
289.122
287.097
285.248
283.579
282.089
280.773
279.628
278.646
277.82
277.142
276.605
276.198
275.914
275.744
275.682
275.721
275.854
276.074
276.374
276.749
277.191
277.694
278.252
278.857
279.504
280.185
280.895
281.627
282.374
283.132
283.893
284.653
285.407
286.149
286.876
287.585
288.272
288.937
289.577
290.193
290.785
291.356
291.909
292.446
292.973
293.494
294.016
294.544
295.086
295.646
296.232
296.849
297.502
298.197
298.935
299.721
300.555
301.438
302.369
303.346
304.365
305.424
306.516
307.638
308.783
309.944
311.116
312.293
313.468
314.635
315.79
316.928
318.045
319.139
320.206
321.245
322.256
323.239
324.195
325.124
326.029
326.911
327.773
328.617
329.446
330.26
331.063
331.855
332.637
333.41
334.175
334.93
335.675
336.41
337.134
337.846
338.545
339.23
339.901
340.558
341.2
341.83
342.447
343.053
343.651
344.242
344.83
345.417
346.006
346.6
347.201
347.813
348.438
349.078
349.734
350.408
351.098
351.806
352.53
353.268
354.018
354.777
355.54
356.302
357.056
357.797
358.514
359.196
359.828
360.393
360.871
361.238
361.464
361.511
361.336
360.885
360.094
358.891
357.195
354.918
351.967
348.249
343.672
338.152
331.613
323.987
315.21
305.217
293.931
281.26
267.105
251.385
234.119
215.568
196.503
178.72
166.499
174.393
313.481
171.632
116.411
119.119
130.639
144.471
158.665
172.37
185.202
197.04
207.924
217.985
227.39
236.304
244.868
253.176
261.273
269.153
276.768
284.033
290.846
297.094
302.668
307.476
311.421
314.474
316.637
317.943
318.445
318.218
317.352
315.943
314.092
311.898
309.455
306.849
304.155
301.44
298.758
296.154
293.663
291.311
289.116
287.091
285.243
283.574
282.083
280.768
279.622
278.64
277.815
277.137
276.599
276.193
275.908
275.739
275.677
275.715
275.848
276.068
276.369
276.743
277.186
277.689
278.246
278.851
279.498
280.179
280.889
281.621
282.369
283.126
283.887
284.647
285.401
286.143
286.87
287.579
288.266
288.93
289.571
290.187
290.779
291.35
291.903
292.44
292.967
293.488
294.01
294.538
295.079
295.64
296.225
296.843
297.496
298.19
298.929
299.715
300.549
301.432
302.363
303.339
304.359
305.417
306.51
307.632
308.776
309.938
311.11
312.286
313.461
314.629
315.784
316.922
318.039
319.132
320.199
321.238
322.25
323.233
324.188
325.117
326.022
326.904
327.766
328.61
329.439
330.253
331.056
331.848
332.63
333.403
334.168
334.923
335.668
336.403
337.127
337.839
338.538
339.223
339.894
340.551
341.193
341.822
342.44
343.046
343.644
344.235
344.823
345.41
345.999
346.592
347.194
347.806
348.431
349.071
349.727
350.4
351.091
351.799
352.523
353.261
354.011
354.77
355.532
356.294
357.049
357.79
358.507
359.188
359.821
360.386
360.864
361.231
361.457
361.504
361.329
360.878
360.087
358.884
357.189
354.912
351.961
348.242
343.666
338.146
331.607
323.981
315.204
305.211
293.925
281.255
267.1
251.38
234.113
215.562
196.497
178.714
166.493
174.386
313.468
204.287
136.4
136.849
147.408
160.309
173.278
185.371
196.203
205.693
213.95
221.188
227.664
233.636
239.327
244.909
250.489
256.113
261.769
267.399
272.909
278.185
283.107
287.559
291.436
294.642
297.145
298.937
300.037
300.483
300.333
299.658
298.533
297.041
295.26
293.267
291.131
288.915
286.673
284.451
282.286
280.208
278.24
276.399
274.696
273.14
271.733
270.477
269.371
268.41
267.592
266.909
266.356
265.926
265.612
265.406
265.303
265.297
265.381
265.551
265.799
266.119
266.506
266.954
267.455
268.005
268.597
269.225
269.884
270.566
271.268
271.982
272.704
273.428
274.15
274.865
275.57
276.261
276.935
277.59
278.225
278.84
279.435
280.01
280.568
281.112
281.645
282.171
282.695
283.221
283.756
284.304
284.871
285.461
286.079
286.73
287.417
288.141
288.906
289.711
290.556
291.441
292.363
293.32
294.308
295.324
296.362
297.417
298.486
299.562
300.64
301.717
302.786
303.845
304.889
305.916
306.923
307.908
308.87
309.809
310.725
311.618
312.489
313.34
314.172
314.986
315.784
316.568
317.338
318.097
318.845
319.583
320.31
321.028
321.736
322.433
323.12
323.795
324.459
325.11
325.749
326.376
326.991
327.595
328.189
328.773
329.351
329.924
330.493
331.062
331.633
332.209
332.793
333.386
333.991
334.61
335.245
335.897
336.566
337.254
337.96
338.682
339.42
340.172
340.934
341.704
342.476
343.246
344.007
344.75
345.463
346.132
346.741
347.269
347.692
347.981
348.097
347.998
347.633
346.943
345.865
344.33
342.269
339.614
336.298
332.262
327.451
321.807
315.267
307.746
299.129
289.261
277.959
265.043
250.429
234.288
217.339
201.435
191.284
203.488
364.225
204.299
136.408
136.857
147.416
160.316
173.283
185.376
196.206
205.695
213.951
221.187
227.663
233.634
239.325
244.905
250.485
256.109
261.765
267.394
272.904
278.18
283.101
287.553
291.43
294.636
297.139
298.931
300.03
300.476
300.327
299.651
298.527
297.034
295.254
293.261
291.125
288.909
286.667
284.445
282.28
280.202
278.234
276.393
274.69
273.134
271.727
270.472
269.365
268.405
267.586
266.903
266.35
265.92
265.606
265.4
265.297
265.291
265.375
265.544
265.792
266.113
266.5
266.947
267.449
267.999
268.591
269.219
269.877
270.56
271.261
271.975
272.697
273.421
274.143
274.859
275.563
276.254
276.928
277.583
278.219
278.834
279.428
280.003
280.562
281.105
281.638
282.164
282.688
283.215
283.749
284.297
284.864
285.454
286.073
286.723
287.41
288.134
288.899
289.704
290.549
291.434
292.356
293.313
294.301
295.317
296.355
297.41
298.479
299.555
300.633
301.709
302.779
303.838
304.882
305.908
306.915
307.9
308.863
309.802
310.718
311.611
312.482
313.333
314.164
314.978
315.776
316.56
317.331
318.09
318.838
319.575
320.303
321.021
321.728
322.426
323.112
323.788
324.451
325.102
325.742
326.369
326.984
327.587
328.181
328.766
329.343
329.916
330.486
331.055
331.626
332.202
332.785
333.378
333.983
334.602
335.237
335.889
336.559
337.247
337.952
338.675
339.413
340.164
340.927
341.696
342.469
343.239
344
344.742
345.456
346.125
346.733
347.262
347.685
347.973
348.09
347.991
347.626
346.936
345.858
344.323
342.263
339.607
336.291
332.256
327.444
321.801
315.261
307.74
299.123
289.255
277.953
265.037
250.423
234.283
217.333
201.428
191.277
203.479
364.211
235.461
155.302
153.641
163.271
175.186
186.807
197.122
205.76
212.702
218.137
222.37
225.753
228.63
231.305
234.018
236.931
240.137
243.654
247.446
251.429
255.492
259.507
263.344
266.888
269.996
272.601
274.661
276.158
277.099
277.511
277.437
276.93
276.053
274.868
273.441
271.832
270.099
268.292
266.456
264.63
262.845
261.127
259.495
257.967
256.551
255.257
254.087
253.045
252.129
251.337
250.668
250.115
249.675
249.342
249.109
248.971
248.924
248.963
249.082
249.275
249.538
249.864
250.249
250.687
251.172
251.699
252.263
252.858
253.479
254.121
254.779
255.448
256.123
256.8
257.475
258.144
258.803
259.451
260.085
260.703
261.305
261.89
262.458
263.011
263.55
264.078
264.598
265.113
265.627
266.144
266.669
267.205
267.757
268.328
268.923
269.544
270.194
270.875
271.588
272.334
273.112
273.921
274.76
275.626
276.517
277.43
278.362
279.307
280.263
281.225
282.19
283.153
284.112
285.062
286.001
286.927
287.837
288.729
289.604
290.46
291.297
292.115
292.915
293.697
294.463
295.214
295.95
296.672
297.383
298.081
298.769
299.446
300.114
300.771
301.418
302.055
302.683
303.3
303.906
304.503
305.09
305.667
306.235
306.795
307.347
307.895
308.438
308.98
309.521
310.065
310.613
311.168
311.732
312.307
312.896
313.501
314.122
314.761
315.42
316.099
316.797
317.516
318.253
319.009
319.781
320.567
321.364
322.168
322.973
323.773
324.557
325.312
326.023
326.672
327.239
327.695
328.009
328.146
328.063
327.718
327.066
326.064
324.672
322.853
320.575
317.804
314.497
310.588
305.974
300.496
293.934
286.013
276.443
265.018
251.789
237.38
223.656
215.671
231.785
410.896
235.472
155.31
153.65
163.279
175.193
186.812
197.126
205.762
212.703
218.137
222.369
225.751
228.628
231.302
234.014
236.927
240.132
243.649
247.441
251.424
255.487
259.501
263.339
266.882
269.99
272.595
274.655
276.152
277.093
277.505
277.431
276.924
276.046
274.862
273.435
271.826
270.093
268.286
266.45
264.624
262.839
261.121
259.49
257.961
256.545
255.251
254.081
253.039
252.123
251.332
250.662
250.11
249.669
249.336
249.103
248.965
248.918
248.957
249.076
249.269
249.532
249.858
250.243
250.68
251.166
251.693
252.257
252.852
253.473
254.115
254.773
255.442
256.117
256.793
257.468
258.137
258.797
259.445
260.079
260.697
261.298
261.883
262.451
263.004
263.544
264.072
264.591
265.106
265.62
266.137
266.662
267.198
267.75
268.321
268.916
269.537
270.188
270.869
271.582
272.327
273.105
273.914
274.753
275.619
276.511
277.424
278.355
279.3
280.256
281.218
282.183
283.146
284.105
285.055
285.994
286.919
287.829
288.722
289.597
290.453
291.289
292.108
292.907
293.69
294.456
295.206
295.942
296.665
297.375
298.074
298.762
299.439
300.106
300.763
301.411
302.048
302.675
303.292
303.899
304.496
305.082
305.659
306.227
306.787
307.34
307.887
308.431
308.972
309.513
310.057
310.605
311.16
311.724
312.3
312.889
313.493
314.114
314.754
315.413
316.091
316.79
317.508
318.246
319.001
319.773
320.559
321.356
322.16
322.966
323.766
324.55
325.304
326.015
326.665
327.231
327.688
328.002
328.139
328.056
327.711
327.059
326.057
324.665
322.847
320.569
317.798
314.491
310.582
305.968
300.49
293.928
286.007
276.438
265.013
251.783
237.374
223.649
215.662
231.774
410.88
264.523
172.856
169.251
177.976
188.864
199.061
207.501
213.848
218.154
220.699
221.884
222.152
221.932
221.6
221.452
221.702
222.473
223.81
225.693
228.047
230.761
233.703
236.734
239.726
242.521
245.01
247.123
248.811
250.053
250.847
251.213
251.182
250.796
250.104
249.157
248.008
246.705
245.295
243.82
242.318
240.819
239.351
237.936
236.591
235.33
234.162
233.095
232.133
231.278
230.53
229.888
229.349
228.911
228.569
228.317
228.153
228.071
228.068
228.139
228.28
228.485
228.749
229.069
229.44
229.856
230.313
230.807
231.332
231.884
232.458
233.051
233.658
234.274
234.896
235.52
236.142
236.76
237.371
237.972
238.562
239.139
239.703
240.253
240.789
241.313
241.825
242.328
242.823
243.314
243.804
244.295
244.791
245.296
245.812
246.343
246.891
247.459
248.049
248.663
249.302
249.966
250.655
251.369
252.107
252.867
253.647
254.446
255.259
256.086
256.922
257.764
258.61
259.456
260.299
261.137
261.968
262.788
263.597
264.392
265.173
265.939
266.689
267.424
268.143
268.847
269.536
270.212
270.874
271.524
272.163
272.79
273.407
274.014
274.612
275.2
275.78
276.351
276.913
277.468
278.014
278.552
279.083
279.607
280.125
280.638
281.147
281.653
282.158
282.663
283.17
283.682
284.2
284.727
285.265
285.816
286.381
286.964
287.566
288.188
288.832
289.499
290.19
290.907
291.649
292.416
293.209
294.027
294.869
295.733
296.616
297.515
298.418
299.318
300.204
301.064
301.882
302.639
303.315
303.89
304.343
304.654
304.811
304.803
304.626
304.276
303.744
303.001
301.983
300.567
298.555
295.66
291.514
285.71
277.905
268.008
256.52
245.267
239.562
259.239
453.703
264.534
172.865
169.26
177.984
188.871
199.066
207.505
213.85
218.155
220.699
221.882
222.15
221.929
221.596
221.449
221.698
222.468
223.806
225.688
228.042
230.756
233.698
236.729
239.721
242.515
245.005
247.117
248.805
250.047
250.842
251.207
251.176
250.79
250.098
249.152
248.002
246.699
245.29
243.815
242.312
240.814
239.346
237.931
236.586
235.324
234.157
233.09
232.128
231.272
230.524
229.882
229.344
228.905
228.563
228.312
228.147
228.066
228.063
228.134
228.274
228.479
228.744
229.064
229.434
229.85
230.307
230.801
231.326
231.878
232.452
233.045
233.651
234.268
234.889
235.513
236.136
236.754
237.365
237.966
238.556
239.133
239.696
240.246
240.783
241.306
241.819
242.321
242.817
243.308
243.798
244.289
244.785
245.289
245.805
246.336
246.884
247.453
248.043
248.657
249.295
249.959
250.648
251.362
252.1
252.86
253.641
254.439
255.253
256.079
256.915
257.757
258.603
259.449
260.293
261.131
261.961
262.781
263.59
264.385
265.166
265.932
266.682
267.417
268.136
268.84
269.529
270.205
270.867
271.517
272.156
272.783
273.4
274.007
274.605
275.193
275.773
276.344
276.906
277.461
278.007
278.545
279.076
279.6
280.118
280.631
281.14
281.646
282.15
282.656
283.163
283.675
284.193
284.72
285.258
285.809
286.374
286.957
287.559
288.181
288.825
289.492
290.183
290.9
291.642
292.409
293.202
294.02
294.862
295.726
296.609
297.508
298.412
299.311
300.198
301.057
301.875
302.632
303.309
303.884
304.336
304.648
304.804
304.796
304.62
304.27
303.738
302.996
301.977
300.562
298.55
295.655
291.509
285.705
277.899
268.002
256.513
245.259
239.552
259.228
453.686
291.061
188.893
183.542
191.409
201.271
210.027
216.576
220.628
222.317
222.016
220.224
217.474
214.272
211.058
208.178
205.881
204.316
203.544
203.554
204.277
205.6
207.389
209.496
211.778
214.097
216.291
218.268
219.958
221.314
222.314
222.953
223.245
223.214
222.895
222.325
221.546
220.601
219.53
218.37
217.157
215.92
214.687
213.479
212.314
211.208
210.172
209.215
208.342
207.557
206.863
206.259
205.745
205.318
204.977
204.716
204.533
204.424
204.386
204.414
204.506
204.657
204.863
205.12
205.425
205.772
206.158
206.58
207.033
207.513
208.017
208.54
209.079
209.631
210.192
210.758
211.326
211.895
212.46
213.019
213.572
214.115
214.647
215.169
215.678
216.176
216.663
217.139
217.606
218.066
218.519
218.97
219.42
219.871
220.327
220.79
221.262
221.747
222.246
222.76
223.293
223.844
224.415
225.006
225.617
226.248
226.897
227.564
228.246
228.943
229.652
230.37
231.095
231.825
232.557
233.289