/*--------------------------------*- C++ -*----------------------------------*\
  =========                 |
  \\      /  F ield         | OpenFOAM: The Open Source CFD Toolbox
   \\    /   O peration     | Website:  https://openfoam.org
    \\  /    A nd           | Version:  8
     \\/     M anipulation  |
\*---------------------------------------------------------------------------*/
FoamFile
{
    version     2.0;
    format      ascii;
    class       volScalarField;
    location    "400";
    object      k;
}
// * * * * * * * * * * * * * * * * * * * * * * * * * * * * * * * * * * * * * //

dimensions      [0 2 -2 0 0 0 0];

internalField   nonuniform List<scalar> 
46000
(
0.010126
0.0362804
0.0730365
0.111689
0.150468
0.184394
0.215626
0.244469
0.271042
0.295416
0.317638
0.337743
0.35576
0.371715
0.385637
0.397561
0.407532
0.415603
0.421842
0.42633
0.429193
0.43092
0.431544
0.430996
0.429331
0.42667
0.423174
0.419019
0.414383
0.409438
0.404339
0.399224
0.39421
0.389389
0.384833
0.380591
0.376696
0.373163
0.369994
0.367184
0.364715
0.36257
0.360725
0.359156
0.357839
0.35675
0.355869
0.355175
0.35465
0.354279
0.354048
0.353944
0.353967
0.35412
0.354378
0.354729
0.355163
0.355673
0.356254
0.3569
0.357605
0.358363
0.359169
0.360015
0.360894
0.3618
0.362726
0.363665
0.364609
0.365552
0.366488
0.36741
0.368314
0.369194
0.370047
0.37087
0.37166
0.372417
0.373141
0.373834
0.374499
0.37514
0.375763
0.376375
0.376984
0.377598
0.378228
0.378881
0.379569
0.3803
0.381082
0.381924
0.38283
0.383805
0.384851
0.38597
0.387159
0.388416
0.389734
0.391108
0.39253
0.393989
0.395477
0.396983
0.398496
0.400006
0.401505
0.402982
0.40443
0.405843
0.407215
0.408544
0.409827
0.411063
0.412253
0.413399
0.414505
0.415573
0.416609
0.417618
0.418605
0.419576
0.420535
0.421486
0.422434
0.423381
0.424329
0.425278
0.426229
0.427181
0.428131
0.429077
0.430015
0.430943
0.431857
0.432754
0.433631
0.434485
0.435316
0.436122
0.436905
0.437666
0.438406
0.439129
0.43984
0.440541
0.441238
0.441936
0.44264
0.443354
0.444083
0.44483
0.445598
0.446389
0.447203
0.448041
0.448903
0.449785
0.450685
0.451599
0.452521
0.453447
0.454369
0.45528
0.456171
0.457031
0.45785
0.458614
0.459308
0.459914
0.460422
0.460828
0.461075
0.461111
0.460875
0.460294
0.459283
0.457733
0.45552
0.452491
0.448472
0.443267
0.436659
0.428414
0.418295
0.406063
0.391496
0.374399
0.354622
0.332072
0.306736
0.278689
0.248128
0.215394
0.181001
0.145543
0.108494
0.0737034
0.0413309
0.0143095
0.010126
0.0362827
0.0730545
0.111708
0.150486
0.18441
0.215641
0.24448
0.271049
0.29542
0.31764
0.337744
0.35576
0.371715
0.385637
0.397562
0.407533
0.415605
0.421845
0.426334
0.429197
0.430923
0.431547
0.430999
0.429333
0.426672
0.423176
0.419021
0.414385
0.409439
0.40434
0.399225
0.394211
0.38939
0.384833
0.380592
0.376697
0.373164
0.369995
0.367184
0.364716
0.362571
0.360726
0.359157
0.35784
0.356752
0.35587
0.355176
0.354652
0.354281
0.354049
0.353946
0.353969
0.354121
0.35438
0.354731
0.355164
0.355675
0.356256
0.356901
0.357606
0.358365
0.35917
0.360016
0.360896
0.361802
0.362728
0.363666
0.364611
0.365554
0.366489
0.367412
0.368316
0.369196
0.370049
0.370871
0.371662
0.372419
0.373143
0.373836
0.374501
0.375142
0.375765
0.376377
0.376986
0.3776
0.378229
0.378883
0.379571
0.380302
0.381084
0.381925
0.382831
0.383807
0.384853
0.385972
0.387161
0.388417
0.389736
0.39111
0.392531
0.393991
0.395479
0.396984
0.398497
0.400008
0.401506
0.402983
0.404431
0.405844
0.407217
0.408546
0.409828
0.411064
0.412255
0.413401
0.414506
0.415574
0.416611
0.41762
0.418607
0.419577
0.420536
0.421488
0.422435
0.423382
0.42433
0.42528
0.426231
0.427182
0.428132
0.429078
0.430017
0.430945
0.431859
0.432755
0.433632
0.434486
0.435317
0.436124
0.436907
0.437667
0.438407
0.439131
0.439841
0.440542
0.441239
0.441938
0.442641
0.443356
0.444084
0.444831
0.445599
0.44639
0.447204
0.448043
0.448904
0.449786
0.450686
0.4516
0.452523
0.453448
0.45437
0.455281
0.456172
0.457032
0.457851
0.458615
0.459309
0.459915
0.460423
0.460829
0.461076
0.461112
0.460875
0.460295
0.459283
0.457734
0.455521
0.452491
0.448473
0.443268
0.43666
0.428416
0.418296
0.406065
0.391497
0.3744
0.354623
0.332074
0.306737
0.278692
0.248132
0.215398
0.181006
0.145548
0.108496
0.0737034
0.0413316
0.0143096
0.0302313
0.116892
0.191963
0.257266
0.317277
0.372326
0.422898
0.469372
0.512044
0.551136
0.58681
0.61918
0.648325
0.674302
0.697156
0.716932
0.733685
0.747482
0.75841
0.766576
0.772097
0.775094
0.776024
0.775062
0.772431
0.768384
0.763185
0.7571
0.750385
0.743277
0.735987
0.7287
0.721568
0.714716
0.708236
0.702195
0.696635
0.691577
0.687026
0.682974
0.679401
0.676284
0.673591
0.671291
0.669353
0.667745
0.666438
0.665405
0.664621
0.664063
0.663712
0.663549
0.66356
0.663736
0.664064
0.66453
0.665123
0.665834
0.666653
0.667572
0.668581
0.669672
0.670834
0.672057
0.673332
0.674647
0.675993
0.677358
0.678732
0.680106
0.681469
0.682814
0.684132
0.685415
0.686659
0.687857
0.689008
0.690109
0.691161
0.692165
0.693126
0.69405
0.694944
0.695818
0.696683
0.697552
0.698436
0.699351
0.700309
0.701323
0.702407
0.703571
0.704823
0.706172
0.70762
0.709171
0.710822
0.712571
0.714411
0.716334
0.718328
0.720382
0.722482
0.724613
0.726762
0.728913
0.731052
0.733168
0.735247
0.73728
0.73926
0.741179
0.743034
0.744823
0.746545
0.748204
0.749801
0.751342
0.752833
0.75428
0.755691
0.757072
0.758431
0.759774
0.761106
0.762432
0.763754
0.765076
0.766396
0.767715
0.76903
0.770339
0.771637
0.772922
0.774187
0.77543
0.776647
0.777834
0.77899
0.780113
0.781205
0.782266
0.7833
0.78431
0.785301
0.78628
0.787251
0.788223
0.789201
0.790191
0.791201
0.792234
0.793295
0.794387
0.795512
0.796669
0.797859
0.799079
0.800325
0.801591
0.802871
0.804158
0.805442
0.806712
0.807957
0.809162
0.81031
0.811383
0.812358
0.81321
0.813914
0.814411
0.814648
0.814555
0.814047
0.813019
0.811343
0.808862
0.805389
0.800702
0.79455
0.786646
0.776679
0.764317
0.74922
0.731054
0.709505
0.684302
0.655227
0.622137
0.584971
0.543755
0.498614
0.449768
0.397539
0.34232
0.284401
0.223079
0.150419
0.0493236
0.0302378
0.116888
0.191962
0.257269
0.317281
0.372332
0.422906
0.469381
0.512054
0.551146
0.586819
0.619187
0.648331
0.674306
0.697158
0.716933
0.733685
0.747481
0.758409
0.766574
0.772095
0.775092
0.776023
0.775061
0.77243
0.768382
0.763183
0.757099
0.750384
0.743276
0.735986
0.728699
0.721568
0.714716
0.708236
0.702195
0.696635
0.691577
0.687026
0.682974
0.679402
0.676284
0.673591
0.671292
0.669354
0.667746
0.666439
0.665406
0.664621
0.664063
0.663712
0.66355
0.66356
0.663737
0.664065
0.664531
0.665124
0.665835
0.666654
0.667573
0.668582
0.669673
0.670835
0.672058
0.673333
0.674648
0.675993
0.677358
0.678733
0.680106
0.68147
0.682815
0.684132
0.685416
0.686659
0.687858
0.689008
0.690109
0.691161
0.692166
0.693127
0.694051
0.694945
0.695819
0.696684
0.697552
0.698437
0.699351
0.700309
0.701324
0.702408
0.703571
0.704824
0.706172
0.707621
0.709171
0.710823
0.712572
0.714412
0.716334
0.718329
0.720382
0.722482
0.724614
0.726762
0.728913
0.731053
0.733168
0.735247
0.737281
0.73926
0.741179
0.743034
0.744823
0.746546
0.748204
0.749801
0.751342
0.752833
0.75428
0.755691
0.757072
0.758431
0.759774
0.761106
0.762432
0.763754
0.765076
0.766396
0.767715
0.76903
0.770339
0.771638
0.772922
0.774187
0.77543
0.776647
0.777834
0.77899
0.780113
0.781205
0.782266
0.7833
0.78431
0.785301
0.786279
0.787251
0.788222
0.7892
0.790191
0.791201
0.792234
0.793295
0.794387
0.795511
0.796669
0.797859
0.799079
0.800324
0.80159
0.802871
0.804158
0.805442
0.806712
0.807957
0.809161
0.81031
0.811383
0.812358
0.813209
0.813913
0.814411
0.814647
0.814554
0.814046
0.813019
0.811343
0.808862
0.805388
0.800702
0.79455
0.786646
0.776679
0.764317
0.749221
0.731054
0.709506
0.684302
0.655228
0.622138
0.584971
0.543756
0.498614
0.449768
0.39754
0.342321
0.284402
0.223079
0.150417
0.0493237
0.0547203
0.17776
0.268324
0.347325
0.419775
0.486562
0.54799
0.604318
0.655823
0.702782
0.745456
0.784068
0.818806
0.849822
0.877234
0.901142
0.921633
0.938793
0.952715
0.963501
0.971262
0.976108
0.978379
0.978346
0.976288
0.972501
0.967289
0.960953
0.953785
0.946055
0.938009
0.929863
0.921799
0.913968
0.906486
0.899443
0.892897
0.886885
0.881424
0.876515
0.872146
0.868296
0.864937
0.862041
0.859573
0.857501
0.855795
0.854424
0.85336
0.852578
0.852054
0.851767
0.851697
0.85183
0.85215
0.852645
0.853301
0.854105
0.855048
0.856117
0.857301
0.858588
0.859966
0.861423
0.862946
0.864522
0.866138
0.867783
0.869442
0.871105
0.872759
0.874395
0.876001
0.877569
0.879093
0.880565
0.881982
0.883342
0.884644
0.88589
0.887084
0.888233
0.889346
0.890433
0.891506
0.89258
0.893669
0.894789
0.895955
0.897184
0.898488
0.899881
0.901374
0.902975
0.90469
0.906521
0.908469
0.910529
0.912696
0.914959
0.917309
0.919731
0.922211
0.924732
0.927278
0.929832
0.932378
0.934902
0.93739
0.93983
0.942212
0.944529
0.946774
0.948946
0.951042
0.953064
0.955016
0.956901
0.958726
0.960499
0.962225
0.963914
0.965573
0.967209
0.968827
0.970434
0.972032
0.973625
0.975213
0.976795
0.97837
0.979935
0.981486
0.983019
0.98453
0.986015
0.987468
0.988888
0.990273
0.991621
0.992932
0.994209
0.995454
0.996672
0.997868
0.999049
1.00022
1.00139
1.00257
1.00376
1.00498
1.00622
1.00749
1.00879
1.01014
1.01152
1.01294
1.0144
1.01589
1.01741
1.01894
1.02049
1.02204
1.02358
1.02509
1.02657
1.02799
1.02933
1.03055
1.03164
1.03256
1.03323
1.0336
1.03359
1.03309
1.032
1.03014
1.02735
1.0234
1.01804
1.01098
1.00189
0.990416
0.976192
0.958836
0.937975
0.913258
0.884375
0.851063
0.813119
0.770395
0.722801
0.670296
0.612893
0.550674
0.483791
0.412269
0.334771
0.242878
0.0988152
0.0547309
0.177771
0.268334
0.347336
0.419786
0.486572
0.548
0.604327
0.655831
0.702789
0.745461
0.784072
0.81881
0.849824
0.877235
0.901142
0.921633
0.938792
0.952713
0.963498
0.97126
0.976105
0.978376
0.978343
0.976286
0.972499
0.967286
0.960951
0.953782
0.946053
0.938007
0.929861
0.921797
0.913966
0.906485
0.899441
0.892895
0.886884
0.881423
0.876514
0.872145
0.868295
0.864937
0.86204
0.859572
0.857501
0.855794
0.854423
0.853359
0.852577
0.852053
0.851766
0.851696
0.851829
0.85215
0.852644
0.8533
0.854105
0.855047
0.856116
0.8573
0.858587
0.859965
0.861422
0.862945
0.864521
0.866137
0.867782
0.869441
0.871104
0.872758
0.874394
0.876
0.877568
0.879092
0.880564
0.881981
0.883341
0.884642
0.885888
0.887083
0.888232
0.889345
0.890432
0.891505
0.892579
0.893668
0.894788
0.895954
0.897183
0.898487
0.89988
0.901373
0.902974
0.904689
0.90652
0.908468
0.910528
0.912695
0.914958
0.917308
0.91973
0.92221
0.924731
0.927276
0.929831
0.932377
0.934901
0.937389
0.939829
0.942211
0.944527
0.946773
0.948944
0.95104
0.953063
0.955014
0.956899
0.958725
0.960497
0.962224
0.963913
0.965572
0.967207
0.968826
0.970432
0.972031
0.973623
0.975211
0.976793
0.978368
0.979933
0.981484
0.983018
0.984529
0.986013
0.987467
0.988887
0.990271
0.991619
0.99293
0.994207
0.995452
0.99667
0.997866
0.999047
1.00022
1.00139
1.00257
1.00376
1.00497
1.00621
1.00748
1.00879
1.01014
1.01152
1.01294
1.0144
1.01589
1.0174
1.01894
1.02049
1.02204
1.02358
1.02509
1.02657
1.02799
1.02932
1.03055
1.03164
1.03255
1.03323
1.0336
1.03358
1.03309
1.03199
1.03014
1.02735
1.0234
1.01804
1.01098
1.00189
0.990415
0.976191
0.958835
0.937974
0.913257
0.884374
0.851062
0.813118
0.770394
0.7228
0.670295
0.612892
0.550673
0.483789
0.412267
0.334768
0.242873
0.0988135
0.0802309
0.227695
0.33235
0.421691
0.502682
0.576851
0.64461
0.706224
0.762011
0.812349
0.857642
0.898283
0.934629
0.966985
0.9956
1.02067
1.04235
1.06077
1.07601
1.08819
1.09739
1.10372
1.10731
1.10849
1.10753
1.10469
1.10029
1.09462
1.08795
1.08058
1.07275
1.06469
1.05659
1.04862
1.04091
1.03357
1.02667
1.02026
1.01438
1.00904
1.00424
0.99996
0.996189
0.9929
0.990067
0.987659
0.985649
0.984008
0.982708
0.981724
0.981032
0.980609
0.980433
0.980487
0.980755
0.981223
0.981876
0.982703
0.98369
0.984824
0.986091
0.987479
0.988974
0.990562
0.99223
0.993961
0.995744
0.997563
0.999404
1.00126
1.0031
1.00493
1.00674
1.00851
1.01023
1.01191
1.01352
1.01508
1.01658
1.01801
1.0194
1.02073
1.02203
1.02329
1.02454
1.02579
1.02705
1.02833
1.02967
1.03106
1.03253
1.03409
1.03575
1.03752
1.0394
1.0414
1.04353
1.04577
1.04812
1.05058
1.05312
1.05575
1.05843
1.06117
1.06393
1.06671
1.06949
1.07224
1.07497
1.07765
1.08028
1.08284
1.08533
1.08775
1.09009
1.09236
1.09456
1.09668
1.09875
1.10075
1.10271
1.10462
1.1065
1.10835
1.11018
1.11199
1.11378
1.11557
1.11735
1.11911
1.12087
1.12261
1.12433
1.12603
1.1277
1.12935
1.13096
1.13254
1.13408
1.13558
1.13704
1.13847
1.13986
1.14123
1.14257
1.1439
1.14522
1.14653
1.14786
1.1492
1.15056
1.15194
1.15337
1.15482
1.15633
1.15787
1.15945
1.16108
1.16275
1.16444
1.16617
1.16791
1.16967
1.17142
1.17316
1.17487
1.17653
1.17812
1.1796
1.18096
1.18212
1.18306
1.18368
1.18392
1.18366
1.18277
1.1811
1.17844
1.17458
1.16924
1.16212
1.15287
1.14115
1.12656
1.10872
1.08724
1.06176
1.03193
0.997448
0.958021
0.913379
0.863258
0.807396
0.745545
0.677514
0.603173
0.522201
0.432596
0.324098
0.149758
0.0802397
0.227706
0.332362
0.421704
0.502695
0.576862
0.64462
0.706233
0.762018
0.812354
0.857645
0.898285
0.93463
0.966985
0.995599
1.02067
1.04235
1.06076
1.07601
1.08818
1.09739
1.10372
1.10731
1.10849
1.10752
1.10469
1.10029
1.09461
1.08795
1.08058
1.07275
1.06468
1.05659
1.04862
1.04091
1.03357
1.02667
1.02026
1.01438
1.00904
1.00424
0.999958
0.996186
0.992898
0.990064
0.987657
0.985647
0.984005
0.982705
0.981721
0.981029
0.980606
0.980431
0.980484
0.980752
0.98122
0.981874
0.982701
0.983687
0.984821
0.986088
0.987477
0.988972
0.99056
0.992227
0.993959
0.995741
0.99756
0.999401
1.00125
1.0031
1.00493
1.00674
1.00851
1.01023
1.0119
1.01352
1.01508
1.01657
1.01801
1.01939
1.02073
1.02202
1.02329
1.02454
1.02578
1.02704
1.02833
1.02966
1.03106
1.03253
1.03408
1.03574
1.03751
1.0394
1.0414
1.04353
1.04577
1.04812
1.05057
1.05312
1.05574
1.05843
1.06116
1.06393
1.06671
1.06948
1.07224
1.07497
1.07765
1.08027
1.08284
1.08533
1.08775
1.09009
1.09236
1.09455
1.09668
1.09874
1.10075
1.1027
1.10462
1.1065
1.10835
1.11017
1.11198
1.11378
1.11557
1.11734
1.11911
1.12086
1.1226
1.12432
1.12602
1.1277
1.12935
1.13096
1.13254
1.13407
1.13557
1.13704
1.13846
1.13986
1.14122
1.14257
1.14389
1.14521
1.14653
1.14785
1.14919
1.15055
1.15194
1.15336
1.15482
1.15632
1.15786
1.15945
1.16108
1.16274
1.16444
1.16617
1.16791
1.16967
1.17142
1.17316
1.17487
1.17653
1.17811
1.1796
1.18095
1.18212
1.18305
1.18368
1.18391
1.18365
1.18277
1.18109
1.17844
1.17458
1.16924
1.16211
1.15287
1.14115
1.12656
1.10872
1.08724
1.06176
1.03193
0.997446
0.958018
0.913377
0.863256
0.807393
0.745542
0.67751
0.603169
0.522196
0.432591
0.324091
0.149753
0.107732
0.274449
0.391193
0.488861
0.575966
0.654657
0.725589
0.789158
0.845812
0.896093
0.940604
0.979957
1.01473
1.04542
1.07245
1.09616
1.1168
1.13453
1.14949
1.16176
1.17142
1.17851
1.1831
1.1854
1.18562
1.18401
1.18081
1.17629
1.17071
1.16431
1.15733
1.14999
1.14249
1.13499
1.12763
1.12052
1.11376
1.1074
1.1015
1.09608
1.09114
1.0867
1.08274
1.07924
1.0762
1.07358
1.07136
1.06952
1.06804
1.06688
1.06604
1.06548
1.06519
1.06514
1.06533
1.06573
1.06633
1.06712
1.06809
1.06922
1.0705
1.07191
1.07345
1.07508
1.07681
1.07861
1.08047
1.08238
1.08432
1.08628
1.08824
1.09019
1.09212
1.09402
1.09588
1.0977
1.09946
1.10116
1.10281
1.1044
1.10594
1.10742
1.10887
1.11029
1.11168
1.11308
1.11448
1.1159
1.11736
1.11888
1.12047
1.12214
1.1239
1.12577
1.12774
1.12983
1.13203
1.13435
1.13677
1.13929
1.1419
1.14459
1.14734
1.15014
1.15298
1.15584
1.15869
1.16154
1.16436
1.16715
1.16989
1.17257
1.17519
1.17774
1.18022
1.18263
1.18497
1.18725
1.18947
1.19163
1.19373
1.1958
1.19783
1.19982
1.20179
1.20374
1.20567
1.20758
1.20948
1.21136
1.21323
1.21507
1.2169
1.2187
1.22047
1.22222
1.22392
1.2256
1.22723
1.22883
1.23039
1.23191
1.2334
1.23487
1.23631
1.23774
1.23916
1.24058
1.242
1.24344
1.24491
1.2464
1.24793
1.24949
1.2511
1.25275
1.25446
1.2562
1.25799
1.25982
1.26169
1.26359
1.26551
1.26745
1.26938
1.27131
1.27321
1.27505
1.27683
1.27849
1.27999
1.28128
1.2823
1.28297
1.28317
1.28279
1.28165
1.27958
1.27635
1.27169
1.2653
1.25687
1.24603
1.23243
1.21568
1.19541
1.17124
1.1428
1.10972
1.07159
1.02799
0.978425
0.922343
0.859173
0.788368
0.709405
0.62146
0.521711
0.398039
0.1978
0.10774
0.27446
0.391206
0.488874
0.575979
0.654668
0.725598
0.789166
0.845817
0.896096
0.940606
0.979957
1.01473
1.04542
1.07245
1.09616
1.11679
1.13453
1.14949
1.16176
1.17141
1.1785
1.18309
1.18539
1.18561
1.184
1.18081
1.17629
1.1707
1.1643
1.15732
1.14999
1.14248
1.13498
1.12762
1.12052
1.11375
1.1074
1.1015
1.09607
1.09114
1.0867
1.08273
1.07924
1.07619
1.07357
1.07136
1.06952
1.06803
1.06688
1.06603
1.06548
1.06518
1.06514
1.06532
1.06572
1.06633
1.06712
1.06809
1.06922
1.0705
1.07191
1.07344
1.07508
1.0768
1.07861
1.08047
1.08238
1.08432
1.08627
1.08823
1.09018
1.09212
1.09402
1.09588
1.09769
1.09945
1.10116
1.1028
1.10439
1.10593
1.10742
1.10887
1.11028
1.11168
1.11307
1.11447
1.11589
1.11736
1.11888
1.12046
1.12213
1.1239
1.12576
1.12774
1.12983
1.13203
1.13434
1.13676
1.13928
1.1419
1.14458
1.14734
1.15014
1.15298
1.15583
1.15869
1.16154
1.16436
1.16714
1.16988
1.17256
1.17518
1.17773
1.18021
1.18262
1.18497
1.18724
1.18946
1.19162
1.19373
1.19579
1.19782
1.19982
1.20179
1.20373
1.20566
1.20757
1.20947
1.21135
1.21322
1.21507
1.21689
1.21869
1.22047
1.22221
1.22392
1.22559
1.22722
1.22882
1.23038
1.2319
1.2334
1.23486
1.2363
1.23773
1.23915
1.24057
1.242
1.24344
1.2449
1.24639
1.24792
1.24949
1.25109
1.25275
1.25445
1.2562
1.25799
1.25982
1.26169
1.26359
1.26551
1.26744
1.26938
1.2713
1.2732
1.27505
1.27682
1.27848
1.27998
1.28128
1.2823
1.28296
1.28316
1.28278
1.28165
1.27958
1.27634
1.27168
1.2653
1.25686
1.24603
1.23243
1.21568
1.1954
1.17123
1.14279
1.10971
1.07159
1.02799
0.978421
0.922338
0.859169
0.788363
0.709399
0.621454
0.521704
0.39803
0.197793
0.13407
0.318911
0.446047
0.550418
0.641786
0.722848
0.79456
0.857531
0.912412
0.959969
1.00105
1.03653
1.06722
1.09387
1.11709
1.13738
1.15509
1.17049
1.18371
1.19485
1.20395
1.21101
1.21604
1.21911
1.22034
1.21992
1.21802
1.21484
1.21059
1.20547
1.1997
1.19346
1.18694
1.18029
1.17365
1.16715
1.16086
1.15487
1.14923
1.14398
1.13914
1.13474
1.13076
1.12721
1.12408
1.12135
1.119
1.11703
1.11541
1.11412
1.11314
1.11245
1.11204
1.11188
1.11196
1.11227
1.11278
1.1135
1.1144
1.11547
1.1167
1.11808
1.11958
1.1212
1.12291
1.12471
1.12658
1.12851
1.13048
1.13247
1.13447
1.13648
1.13848
1.14045
1.14239
1.14429
1.14615
1.14796
1.14972
1.15142
1.15308
1.15469
1.15626
1.1578
1.15932
1.16082
1.16234
1.16387
1.16543
1.16703
1.16869
1.17042
1.17224
1.17414
1.17613
1.17823
1.18043
1.18272
1.18512
1.1876
1.19017
1.19281
1.19551
1.19826
1.20105
1.20386
1.20668
1.2095
1.2123
1.21507
1.21781
1.2205
1.22315
1.22573
1.22826
1.23073
1.23314
1.23548
1.23778
1.24002
1.24221
1.24436
1.24647
1.24855
1.2506
1.25263
1.25463
1.25661
1.25857
1.26051
1.26243
1.26432
1.2662
1.26804
1.26986
1.27164
1.2734
1.27511
1.27679
1.27844
1.28005
1.28162
1.28317
1.28469
1.2862
1.28769
1.28917
1.29065
1.29215
1.29365
1.29518
1.29674
1.29833
1.29997
1.30164
1.30337
1.30515
1.30697
1.30885
1.31078
1.31276
1.31478
1.31684
1.31894
1.32106
1.3232
1.32534
1.32747
1.32957
1.33159
1.33351
1.33528
1.33684
1.33811
1.33901
1.33941
1.33916
1.3381
1.33601
1.33265
1.32775
1.32102
1.31213
1.30075
1.28652
1.26909
1.24808
1.22309
1.19366
1.15925
1.11923
1.07284
1.01917
0.95728
0.886157
0.804781
0.7117
0.603186
0.465377
0.24047
0.134079
0.318922
0.44606
0.550431
0.641798
0.722859
0.794569
0.857537
0.912416
0.959971
1.00105
1.03653
1.06722
1.09387
1.11709
1.13737
1.15509
1.17048
1.1837
1.19484
1.20394
1.211
1.21604
1.2191
1.22034
1.21991
1.21801
1.21483
1.21058
1.20546
1.19969
1.19346
1.18693
1.18029
1.17365
1.16714
1.16085
1.15486
1.14922
1.14397
1.13914
1.13473
1.13075
1.1272
1.12407
1.12134
1.119
1.11702
1.1154
1.11411
1.11313
1.11245
1.11204
1.11188
1.11196
1.11226
1.11278
1.11349
1.11439
1.11547
1.1167
1.11807
1.11957
1.12119
1.12291
1.12471
1.12658
1.1285
1.13047
1.13246
1.13447
1.13647
1.13847
1.14044
1.14238
1.14429
1.14615
1.14795
1.14971
1.15142
1.15307
1.15468
1.15625
1.15779
1.15931
1.16082
1.16233
1.16386
1.16542
1.16702
1.16869
1.17042
1.17223
1.17413
1.17613
1.17822
1.18042
1.18272
1.18511
1.18759
1.19016
1.1928
1.19551
1.19826
1.20105
1.20386
1.20668
1.20949
1.21229
1.21507
1.2178
1.2205
1.22314
1.22573
1.22825
1.23072
1.23313
1.23548
1.23777
1.24001
1.2422
1.24435
1.24647
1.24854
1.25059
1.25262
1.25462
1.2566
1.25856
1.2605
1.26242
1.26432
1.26619
1.26803
1.26985
1.27164
1.27339
1.2751
1.27678
1.27843
1.28004
1.28161
1.28316
1.28468
1.28619
1.28768
1.28916
1.29065
1.29214
1.29365
1.29517
1.29673
1.29833
1.29996
1.30164
1.30336
1.30514
1.30697
1.30885
1.31077
1.31275
1.31477
1.31684
1.31893
1.32105
1.32319
1.32533
1.32746
1.32956
1.33158
1.3335
1.33527
1.33683
1.3381
1.339
1.3394
1.33916
1.33809
1.336
1.33264
1.32775
1.32101
1.31212
1.30074
1.28651
1.26909
1.24808
1.22308
1.19365
1.15925
1.11923
1.07283
1.01917
0.957274
0.886151
0.804773
0.711691
0.603177
0.465367
0.240461
0.159728
0.360865
0.496892
0.606579
0.700718
0.782486
0.853154
0.913597
0.964722
1.00756
1.04324
1.07291
1.09766
1.11847
1.13619
1.15146
1.16477
1.17646
1.18673
1.19565
1.20324
1.20947
1.21428
1.21762
1.21951
1.22002
1.21926
1.21736
1.21445
1.21069
1.20624
1.20125
1.19588
1.19028
1.18456
1.17885
1.17323
1.1678
1.16261
1.1577
1.15312
1.14889
1.14502
1.14153
1.1384
1.13564
1.13324
1.13119
1.12947
1.12808
1.12698
1.12618
1.12565
1.12537
1.12533
1.12552
1.12592
1.12653
1.12732
1.1283
1.12943
1.13072
1.13214
1.13368
1.13533
1.13707
1.13889
1.14077
1.14271
1.14468
1.14667
1.14868
1.15069
1.15268
1.15466
1.1566
1.15852
1.16039
1.16222
1.164
1.16574
1.16744
1.16911
1.17074
1.17235
1.17395
1.17554
1.17714
1.17876
1.18042
1.18211
1.18386
1.18567
1.18756
1.18951
1.19155
1.19368
1.19588
1.19817
1.20054
1.20298
1.20548
1.20804
1.21065
1.2133
1.21597
1.21865
1.22135
1.22403
1.2267
1.22935
1.23197
1.23456
1.2371
1.23959
1.24204
1.24444
1.24679
1.2491
1.25135
1.25357
1.25575
1.25789
1.25999
1.26207
1.26411
1.26613
1.26813
1.2701
1.27205
1.27397
1.27587
1.27774
1.27958
1.28139
1.28318
1.28493
1.28665
1.28833
1.28998
1.2916
1.2932
1.29476
1.29631
1.29784
1.29936
1.30087
1.30239
1.30391
1.30545
1.30702
1.30861
1.31023
1.3119
1.31362
1.31538
1.3172
1.31908
1.32101
1.32301
1.32507
1.32719
1.32938
1.33162
1.33392
1.33627
1.33867
1.34111
1.34356
1.34601
1.34843
1.35077
1.353
1.35505
1.35685
1.35828
1.35924
1.35956
1.35908
1.35758
1.35483
1.35058
1.34456
1.33648
1.32602
1.31286
1.2966
1.27681
1.25293
1.22428
1.18998
1.14895
1.09992
1.04147
0.972084
0.890153
0.793529
0.67757
0.526881
0.279692
0.159736
0.360877
0.496906
0.606592
0.70073
0.782496
0.853162
0.913602
0.964724
1.00756
1.04324
1.0729
1.09765
1.11847
1.13618
1.15145
1.16476
1.17646
1.18672
1.19564
1.20323
1.20946
1.21427
1.21761
1.2195
1.22001
1.21925
1.21735
1.21444
1.21068
1.20623
1.20124
1.19587
1.19027
1.18455
1.17884
1.17323
1.16779
1.1626
1.15769
1.15311
1.14888
1.14502
1.14152
1.1384
1.13564
1.13324
1.13118
1.12947
1.12807
1.12698
1.12617
1.12564
1.12536
1.12532
1.12551
1.12591
1.12652
1.12732
1.12829
1.12942
1.13071
1.13213
1.13367
1.13532
1.13706
1.13888
1.14077
1.1427
1.14467
1.14667
1.14867
1.15068
1.15267
1.15465
1.15659
1.15851
1.16038
1.16221
1.16399
1.16573
1.16743
1.1691
1.17073
1.17234
1.17394
1.17553
1.17713
1.17876
1.18041
1.1821
1.18385
1.18566
1.18755
1.18951
1.19154
1.19367
1.19587
1.19816
1.20053
1.20297
1.20547
1.20803
1.21064
1.21329
1.21596
1.21865
1.22134
1.22402
1.2267
1.22935
1.23196
1.23455
1.23709
1.23958
1.24203
1.24443
1.24678
1.24909
1.25135
1.25356
1.25574
1.25788
1.25998
1.26206
1.2641
1.26612
1.26812
1.27009
1.27204
1.27396
1.27586
1.27773
1.27957
1.28139
1.28317
1.28492
1.28664
1.28832
1.28997
1.29159
1.29319
1.29475
1.2963
1.29783
1.29935
1.30086
1.30238
1.3039
1.30544
1.30701
1.3086
1.31022
1.31189
1.31361
1.31537
1.31719
1.31907
1.321
1.323
1.32506
1.32718
1.32937
1.33161
1.33391
1.33627
1.33866
1.3411
1.34355
1.346
1.34842
1.35076
1.35299
1.35504
1.35684
1.35827
1.35923
1.35956
1.35907
1.35757
1.35482
1.35057
1.34455
1.33647
1.32602
1.31285
1.29659
1.2768
1.25293
1.22428
1.18997
1.14895
1.09992
1.04146
0.972076
0.890144
0.793518
0.677559
0.526869
0.279681
0.184181
0.399946
0.543574
0.657411
0.753137
0.834349
0.902638
0.959165
1.00513
1.04185
1.07075
1.09327
1.11079
1.12452
1.13553
1.14464
1.15247
1.15943
1.16576
1.17156
1.17681
1.18145
1.18535
1.18839
1.19045
1.19151
1.19158
1.19071
1.18897
1.18643
1.18323
1.17946
1.17525
1.17071
1.16597
1.16112
1.15627
1.15147
1.14682
1.14235
1.13811
1.13415
1.13047
1.12711
1.12406
1.12133
1.11892
1.11683
1.11505
1.11358
1.11239
1.11148
1.11083
1.11044
1.11027
1.11033
1.11061
1.11108
1.11175
1.11259
1.1136
1.11476
1.11606
1.11749
1.11902
1.12066
1.12239
1.12418
1.12604
1.12794
1.12988
1.13184
1.13381
1.13579
1.13775
1.1397
1.14163
1.14353
1.14539
1.14723
1.14902
1.15078
1.1525
1.1542
1.15587
1.15753
1.15917
1.16081
1.16246
1.16413
1.16582
1.16755
1.16931
1.17113
1.17301
1.17494
1.17693
1.17899
1.18112
1.18331
1.18556
1.18786
1.19021
1.19261
1.19504
1.19751
1.19999
1.20249
1.205
1.2075
1.20999
1.21247
1.21493
1.21736
1.21977
1.22213
1.22447
1.22677
1.22902
1.23125
1.23343
1.23558
1.2377
1.23978
1.24183
1.24385
1.24585
1.24781
1.24975
1.25166
1.25355
1.2554
1.25723
1.25903
1.26081
1.26255
1.26426
1.26595
1.2676
1.26923
1.27083
1.27241
1.27396
1.2755
1.27703
1.27855
1.28006
1.28158
1.28311
1.28466
1.28622
1.28782
1.28945
1.29112
1.29284
1.29462
1.29645
1.29835
1.30032
1.30237
1.30449
1.30669
1.30898
1.31136
1.31384
1.3164
1.31907
1.32182
1.32467
1.32759
1.33057
1.33357
1.33658
1.33955
1.34241
1.3451
1.34752
1.34955
1.35105
1.35187
1.35182
1.35071
1.34833
1.34444
1.33878
1.33103
1.32082
1.30766
1.29088
1.26963
1.24276
1.20887
1.16627
1.11303
1.04708
0.966184
0.867452
0.745349
0.58312
0.315821
0.184188
0.399958
0.543588
0.657424
0.753148
0.834358
0.902644
0.959169
1.00513
1.04184
1.07074
1.09327
1.11078
1.12452
1.13552
1.14463
1.15246
1.15942
1.16575
1.17155
1.17681
1.18144
1.18534
1.18838
1.19044
1.1915
1.19157
1.1907
1.18896
1.18643
1.18322
1.17945
1.17524
1.17071
1.16596
1.16112
1.15626
1.15147
1.14681
1.14234
1.13811
1.13414
1.13047
1.1271
1.12405
1.12132
1.11891
1.11682
1.11505
1.11357
1.11238
1.11147
1.11083
1.11043
1.11026
1.11032
1.1106
1.11107
1.11174
1.11258
1.11359
1.11475
1.11605
1.11748
1.11902
1.12065
1.12238
1.12417
1.12603
1.12793
1.12987
1.13183
1.1338
1.13578
1.13774
1.13969
1.14162
1.14352
1.14539
1.14722
1.14901
1.15077
1.15249
1.15419
1.15586
1.15752
1.15916
1.1608
1.16245
1.16412
1.16581
1.16754
1.16931
1.17112
1.173
1.17493
1.17692
1.17899
1.18111
1.1833
1.18555
1.18785
1.1902
1.1926
1.19504
1.1975
1.19998
1.20248
1.20499
1.20749
1.20999
1.21246
1.21492
1.21735
1.21976
1.22212
1.22446
1.22676
1.22902
1.23124
1.23342
1.23557
1.23769
1.23977
1.24182
1.24384
1.24584
1.2478
1.24974
1.25165
1.25354
1.25539
1.25722
1.25902
1.2608
1.26254
1.26425
1.26594
1.26759
1.26922
1.27082
1.2724
1.27395
1.27549
1.27702
1.27854
1.28005
1.28157
1.2831
1.28465
1.28621
1.28781
1.28944
1.29111
1.29283
1.29461
1.29644
1.29834
1.30031
1.30236
1.30448
1.30668
1.30897
1.31135
1.31383
1.31639
1.31906
1.32181
1.32466
1.32758
1.33056
1.33356
1.33657
1.33954
1.3424
1.34509
1.34751
1.34954
1.35104
1.35186
1.35181
1.3507
1.34832
1.34443
1.33877
1.33102
1.32081
1.30765
1.29087
1.26962
1.24276
1.20887
1.16626
1.11302
1.04707
0.966174
0.86744
0.745336
0.583106
0.315809
0.206968
0.435837
0.585984
0.703041
0.799462
0.879223
0.944224
0.995924
1.03582
1.06555
1.08683
1.1014
1.11089
1.1168
1.12036
1.12258
1.1242
1.12571
1.12741
1.12938
1.13162
1.134
1.13636
1.1385
1.14021
1.14134
1.14183
1.14164
1.14075
1.13919
1.13702
1.1343
1.13112
1.12757
1.12375
1.11973
1.11561
1.11147
1.10737
1.10337
1.09951
1.09585
1.09241
1.08922
1.08629
1.08363
1.08126
1.07916
1.07735
1.07582
1.07456
1.07356
1.07281
1.0723
1.07201
1.07194
1.07208
1.07241
1.07293
1.07363
1.07449
1.07551
1.07666
1.07794
1.07934
1.08084
1.08244
1.08411
1.08586
1.08766
1.0895
1.09138
1.09329
1.0952
1.09713
1.09905
1.10095
1.10285
1.10471
1.10656
1.10837
1.11016
1.11192
1.11364
1.11534
1.11702
1.11869
1.12034
1.12198
1.12363
1.12529
1.12696
1.12865
1.13037
1.13212
1.13391
1.13574
1.13762
1.13954
1.14151
1.14352
1.14559
1.14769
1.14984
1.15202
1.15423
1.15647
1.15873
1.16101
1.1633
1.16559
1.16789
1.17017
1.17245
1.17471
1.17696
1.17918
1.18138
1.18355
1.18569
1.1878
1.18988
1.19193
1.19395
1.19593
1.19789
1.19982
1.20172
1.20359
1.20543
1.20724
1.20902
1.21078
1.21251
1.21421
1.21588
1.21753
1.21915
1.22075
1.22233
1.22388
1.22542
1.22694
1.22844
1.22994
1.23143
1.23292
1.23442
1.23592
1.23745
1.23899
1.24057
1.24218
1.24383
1.24554
1.2473
1.24913
1.25102
1.253
1.25507
1.25724
1.25951
1.26189
1.2644
1.26703
1.26982
1.27275
1.27584
1.27909
1.28251
1.2861
1.28983
1.2937
1.29768
1.30175
1.30585
1.30992
1.3139
1.31768
1.32117
1.32425
1.32679
1.32864
1.32962
1.32953
1.32809
1.32491
1.31945
1.31094
1.29832
1.28019
1.25478
1.21997
1.17331
1.11217
1.03361
0.934013
0.806971
0.634498
0.349008
0.206975
0.435849
0.585998
0.703054
0.799474
0.879232
0.944229
0.995927
1.03582
1.06555
1.08682
1.10139
1.11089
1.11679
1.12036
1.12257
1.12419
1.12571
1.1274
1.12937
1.13161
1.13399
1.13635
1.13849
1.1402
1.14133
1.14182
1.14163
1.14074
1.13918
1.13701
1.13429
1.13112
1.12757
1.12374
1.11972
1.11561
1.11146
1.10736
1.10336
1.09951
1.09585
1.09241
1.08921
1.08628
1.08362
1.08125
1.07916
1.07735
1.07581
1.07455
1.07355
1.0728
1.07229
1.072
1.07193
1.07207
1.0724
1.07293
1.07362
1.07448
1.0755
1.07665
1.07793
1.07933
1.08083
1.08243
1.08411
1.08585
1.08765
1.08949
1.09137
1.09328
1.09519
1.09712
1.09904
1.10094
1.10284
1.10471
1.10655
1.10836
1.11015
1.11191
1.11363
1.11534
1.11702
1.11868
1.12033
1.12198
1.12362
1.12528
1.12695
1.12864
1.13036
1.13211
1.1339
1.13573
1.13761
1.13953
1.1415
1.14351
1.14558
1.14768
1.14983
1.15201
1.15422
1.15646
1.15872
1.161
1.16329
1.16558
1.16788
1.17016
1.17244
1.1747
1.17695
1.17917
1.18137
1.18354
1.18568
1.18779
1.18987
1.19192
1.19394
1.19592
1.19788
1.19981
1.20171
1.20358
1.20542
1.20723
1.20901
1.21077
1.2125
1.2142
1.21587