/*--------------------------------*- C++ -*----------------------------------*\
  =========                 |
  \\      /  F ield         | OpenFOAM: The Open Source CFD Toolbox
   \\    /   O peration     | Website:  https://openfoam.org
    \\  /    A nd           | Version:  8
     \\/     M anipulation  |
\*---------------------------------------------------------------------------*/
FoamFile
{
    version     2.0;
    format      ascii;
    class       volScalarField;
    location    "400";
    object      nut;
}
// * * * * * * * * * * * * * * * * * * * * * * * * * * * * * * * * * * * * * //

dimensions      [0 2 -1 0 0 0 0];

internalField   nonuniform List<scalar> 
46000
(
7.20557e-07
2.71146e-06
5.46011e-06
8.35125e-06
1.12545e-05
1.37946e-05
1.61334e-05
1.82935e-05
2.0284e-05
2.211e-05
2.37752e-05
2.5282e-05
2.66325e-05
2.78287e-05
2.88727e-05
2.97672e-05
3.05154e-05
3.11213e-05
3.159e-05
3.19274e-05
3.2143e-05
3.22728e-05
3.23203e-05
3.22802e-05
3.21562e-05
3.19576e-05
3.16963e-05
3.13853e-05
3.10382e-05
3.06676e-05
3.02853e-05
2.99016e-05
2.95253e-05
2.91633e-05
2.8821e-05
2.85022e-05
2.82093e-05
2.79435e-05
2.7705e-05
2.74933e-05
2.73073e-05
2.71455e-05
2.70062e-05
2.68877e-05
2.67881e-05
2.67057e-05
2.66389e-05
2.65862e-05
2.65462e-05
2.65177e-05
2.64997e-05
2.64914e-05
2.64925e-05
2.65034e-05
2.65223e-05
2.65481e-05
2.65802e-05
2.66181e-05
2.66612e-05
2.67092e-05
2.67617e-05
2.68182e-05
2.68782e-05
2.69413e-05
2.7007e-05
2.70746e-05
2.71437e-05
2.72139e-05
2.72844e-05
2.73549e-05
2.74249e-05
2.74938e-05
2.75614e-05
2.76273e-05
2.76912e-05
2.77528e-05
2.78119e-05
2.78687e-05
2.79229e-05
2.79749e-05
2.80248e-05
2.80729e-05
2.81197e-05
2.81656e-05
2.82113e-05
2.82574e-05
2.83046e-05
2.83537e-05
2.84053e-05
2.84601e-05
2.85188e-05
2.85818e-05
2.86497e-05
2.87227e-05
2.88011e-05
2.88848e-05
2.89738e-05
2.90678e-05
2.91665e-05
2.92693e-05
2.93757e-05
2.94849e-05
2.95963e-05
2.9709e-05
2.98222e-05
2.99353e-05
3.00475e-05
3.01581e-05
3.02666e-05
3.03724e-05
3.04752e-05
3.05748e-05
3.0671e-05
3.07636e-05
3.08528e-05
3.09388e-05
3.10216e-05
3.11018e-05
3.11795e-05
3.12552e-05
3.13292e-05
3.1402e-05
3.14739e-05
3.15453e-05
3.16163e-05
3.16873e-05
3.17584e-05
3.18296e-05
3.19009e-05
3.19722e-05
3.20435e-05
3.21144e-05
3.21848e-05
3.22544e-05
3.23229e-05
3.23902e-05
3.2456e-05
3.25202e-05
3.25826e-05
3.26432e-05
3.27021e-05
3.27593e-05
3.2815e-05
3.28694e-05
3.29229e-05
3.29757e-05
3.30283e-05
3.30809e-05
3.31339e-05
3.31878e-05
3.32427e-05
3.3299e-05
3.33569e-05
3.34166e-05
3.3478e-05
3.35412e-05
3.36062e-05
3.36728e-05
3.37407e-05
3.38097e-05
3.38794e-05
3.39494e-05
3.40191e-05
3.40881e-05
3.41556e-05
3.42208e-05
3.4283e-05
3.43411e-05
3.4394e-05
3.44403e-05
3.44792e-05
3.45105e-05
3.453e-05
3.45335e-05
3.45166e-05
3.44738e-05
3.43986e-05
3.42829e-05
3.41172e-05
3.38901e-05
3.35887e-05
3.31981e-05
3.2702e-05
3.20832e-05
3.13235e-05
3.04055e-05
2.93124e-05
2.80297e-05
2.65464e-05
2.48557e-05
2.29566e-05
2.0855e-05
1.85659e-05
1.61148e-05
1.35404e-05
1.08872e-05
8.11496e-06
5.51396e-06
3.09191e-06
1.01733e-06
7.20513e-07
2.71178e-06
5.4612e-06
8.35221e-06
1.12552e-05
1.37952e-05
1.61339e-05
1.82939e-05
2.02843e-05
2.21102e-05
2.37752e-05
2.52819e-05
2.66324e-05
2.78286e-05
2.88727e-05
2.97672e-05
3.05154e-05
3.11214e-05
3.15901e-05
3.19276e-05
3.21432e-05
3.2273e-05
3.23205e-05
3.22804e-05
3.21564e-05
3.19578e-05
3.16965e-05
3.13855e-05
3.10383e-05
3.06677e-05
3.02854e-05
2.99017e-05
2.95253e-05
2.91633e-05
2.88211e-05
2.85023e-05
2.82094e-05
2.79435e-05
2.77051e-05
2.74933e-05
2.73073e-05
2.71456e-05
2.70063e-05
2.68878e-05
2.67882e-05
2.67058e-05
2.6639e-05
2.65863e-05
2.65462e-05
2.65178e-05
2.64998e-05
2.64915e-05
2.64926e-05
2.65035e-05
2.65224e-05
2.65482e-05
2.65803e-05
2.66182e-05
2.66613e-05
2.67093e-05
2.67618e-05
2.68183e-05
2.68783e-05
2.69414e-05
2.70071e-05
2.70747e-05
2.71438e-05
2.72139e-05
2.72845e-05
2.7355e-05
2.74249e-05
2.74939e-05
2.75615e-05
2.76274e-05
2.76913e-05
2.77529e-05
2.7812e-05
2.78688e-05
2.7923e-05
2.7975e-05
2.80249e-05
2.8073e-05
2.81198e-05
2.81657e-05
2.82114e-05
2.82575e-05
2.83048e-05
2.83538e-05
2.84054e-05
2.84602e-05
2.85189e-05
2.85819e-05
2.86498e-05
2.87228e-05
2.88012e-05
2.88849e-05
2.89739e-05
2.90679e-05
2.91666e-05
2.92694e-05
2.93758e-05
2.9485e-05
2.95964e-05
2.97091e-05
2.98223e-05
2.99354e-05
3.00476e-05
3.01582e-05
3.02667e-05
3.03725e-05
3.04753e-05
3.05749e-05
3.0671e-05
3.07637e-05
3.08529e-05
3.09389e-05
3.10217e-05
3.11019e-05
3.11796e-05
3.12553e-05
3.13293e-05
3.14021e-05
3.1474e-05
3.15454e-05
3.16164e-05
3.16874e-05
3.17585e-05
3.18297e-05
3.1901e-05
3.19723e-05
3.20435e-05
3.21145e-05
3.21849e-05
3.22545e-05
3.2323e-05
3.23903e-05
3.24561e-05
3.25203e-05
3.25827e-05
3.26433e-05
3.27022e-05
3.27594e-05
3.28151e-05
3.28695e-05
3.2923e-05
3.29758e-05
3.30283e-05
3.3081e-05
3.3134e-05
3.31879e-05
3.32428e-05
3.32991e-05
3.3357e-05
3.34166e-05
3.34781e-05
3.35413e-05
3.36063e-05
3.36728e-05
3.37408e-05
3.38098e-05
3.38795e-05
3.39495e-05
3.40192e-05
3.40881e-05
3.41556e-05
3.42209e-05
3.42831e-05
3.43412e-05
3.4394e-05
3.44403e-05
3.44793e-05
3.45106e-05
3.453e-05
3.45336e-05
3.45166e-05
3.44739e-05
3.43986e-05
3.42829e-05
3.41172e-05
3.38902e-05
3.35888e-05
3.31982e-05
3.27021e-05
3.20833e-05
3.13236e-05
3.04056e-05
2.93125e-05
2.80298e-05
2.65465e-05
2.48558e-05
2.29567e-05
2.08553e-05
1.85662e-05
1.61152e-05
1.35409e-05
1.08877e-05
8.11527e-06
5.51418e-06
3.09243e-06
1.01748e-06
2.08077e-06
3.12111e-05
5.67368e-05
7.48722e-05
8.94254e-05
0.000101733
0.000112189
0.000121064
0.00012857
0.000134876
0.000140124
0.000144438
0.000147926
0.000150686
0.000152805
0.000154362
0.00015543
0.000156071
0.000156343
0.000156291
0.000155939
0.000155245
0.000154376
0.000153382
0.000152306
0.000151189
0.000150063
0.000148956
0.000147891
0.000146885
0.000145953
0.000145102
0.000144338
0.000143663
0.000143075
0.000142571
0.000142145
0.000141792
0.000141503
0.000141272
0.000141092
0.000140955
0.000140855
0.000140787
0.000140746
0.000140729
0.000140731
0.000140751
0.000140786
0.000140835
0.000140897
0.000140969
0.00014105
0.000141139
0.000141237
0.000141344
0.000141461
0.000141588
0.000141723
0.000141866
0.000142017
0.000142174
0.000142337
0.000142505
0.000142676
0.000142849
0.000143023
0.000143197
0.00014337
0.000143541
0.000143709
0.000143873
0.000144033
0.000144187
0.000144337
0.00014448
0.000144618
0.00014475
0.000144877
0.000145
0.00014512
0.000145236
0.000145352
0.000145469
0.000145587
0.000145708
0.000145835
0.000145968
0.00014611
0.000146261
0.000146423
0.000146596
0.00014678
0.000146977
0.000147185
0.000147405
0.000147634
0.000147873
0.000148119
0.000148372
0.000148628
0.000148887
0.000149146
0.000149404
0.000149659
0.00014991
0.000150155
0.000150392
0.000150622
0.000150844
0.000151057
0.000151261
0.000151457
0.000151645
0.000151826
0.000152
0.000152169
0.000152333
0.000152493
0.000152651
0.000152807
0.000152962
0.000153117
0.000153273
0.000153429
0.000153586
0.000153744
0.000153903
0.000154063
0.000154222
0.000154381
0.000154538
0.000154693
0.000154846
0.000154995
0.000155141
0.000155282
0.000155419
0.000155552
0.000155681
0.000155806
0.000155928
0.000156047
0.000156164
0.000156281
0.000156397
0.000156513
0.000156632
0.000156752
0.000156876
0.000157003
0.000157135
0.00015727
0.000157411
0.000157555
0.000157704
0.000157857
0.000158013
0.000158173
0.000158334
0.000158496
0.000158659
0.000158822
0.000158982
0.000159139
0.000159292
0.000159438
0.000159575
0.0001597
0.000159811
0.000159903
0.000159961
0.000159978
0.000159946
0.000159852
0.000159681
0.000159413
0.000159022
0.000158478
0.000157747
0.000156788
0.000155553
0.000153993
0.000152051
0.000149671
0.000146794
0.000143366
0.000139333
0.000134652
0.000129291
0.00012323
0.000116469
0.000109027
0.000100945
9.22727e-05
8.30181e-05
7.29257e-05
5.99394e-05
3.68514e-05
3.37553e-06
2.08103e-06
3.12118e-05
5.67351e-05
7.48702e-05
8.94235e-05
0.000101731
0.000112188
0.000121064
0.00012857
0.000134876
0.000140124
0.000144438
0.000147926
0.000150686
0.000152805
0.000154362
0.000155429
0.000156071
0.000156342
0.00015629
0.000155938
0.000155245
0.000154377
0.000153382
0.000152307
0.000151189
0.000150063
0.000148956
0.000147891
0.000146886
0.000145953
0.000145102
0.000144338
0.000143663
0.000143075
0.000142571
0.000142145
0.000141792
0.000141503
0.000141272
0.000141092
0.000140955
0.000140855
0.000140787
0.000140746
0.000140729
0.000140731
0.000140751
0.000140786
0.000140835
0.000140897
0.000140969
0.00014105
0.000141139
0.000141237
0.000141344
0.000141461
0.000141588
0.000141723
0.000141866
0.000142017
0.000142174
0.000142337
0.000142505
0.000142676
0.000142849
0.000143023
0.000143197
0.00014337
0.000143541
0.000143709
0.000143873
0.000144033
0.000144187
0.000144337
0.00014448
0.000144618
0.00014475
0.000144877
0.000145
0.00014512
0.000145236
0.000145352
0.000145469
0.000145587
0.000145708
0.000145835
0.000145968
0.00014611
0.000146261
0.000146423
0.000146596
0.00014678
0.000146977
0.000147185
0.000147405
0.000147634
0.000147873
0.000148119
0.000148372
0.000148628
0.000148887
0.000149146
0.000149404
0.000149659
0.00014991
0.000150155
0.000150392
0.000150622
0.000150844
0.000151057
0.000151261
0.000151457
0.000151645
0.000151826
0.000152
0.000152169
0.000152332
0.000152493
0.00015265
0.000152807
0.000152962
0.000153117
0.000153272
0.000153429
0.000153586
0.000153744
0.000153903
0.000154063
0.000154222
0.000154381
0.000154538
0.000154693
0.000154846
0.000154995
0.00015514
0.000155282
0.000155419
0.000155552
0.000155681
0.000155806
0.000155928
0.000156047
0.000156164
0.00015628
0.000156397
0.000156513
0.000156631
0.000156752
0.000156876
0.000157003
0.000157134
0.00015727
0.00015741
0.000157555
0.000157704
0.000157857
0.000158013
0.000158172
0.000158334
0.000158496
0.000158659
0.000158821
0.000158982
0.000159139
0.000159292
0.000159437
0.000159575
0.0001597
0.000159811
0.000159903
0.000159961
0.000159978
0.000159946
0.000159852
0.000159681
0.000159413
0.000159022
0.000158478
0.000157747
0.000156788
0.000155553
0.000153993
0.000152051
0.000149671
0.000146795
0.000143366
0.000139333
0.000134652
0.000129291
0.000123231
0.00011647
0.000109028
0.000100946
9.22738e-05
8.30194e-05
7.2927e-05
5.99407e-05
3.68525e-05
3.37565e-06
3.79847e-06
5.1431e-05
9.60909e-05
0.000129976
0.000157102
0.000179457
0.000198038
0.000213457
0.000226157
0.00023649
0.000244758
0.00025123
0.000256149
0.000259736
0.000262193
0.000263702
0.000264424
0.000264498
0.000264046
0.000263164
0.000261916
0.000260324
0.000258527
0.00025662
0.000254673
0.000252742
0.000250872
0.0002491
0.000247452
0.000245946
0.000244595
0.000243404
0.000242373
0.000241499
0.000240773
0.000240184
0.00023972
0.000239367
0.000239111
0.000238939
0.000238836
0.000238792
0.000238795
0.000238836
0.000238908
0.000239005
0.000239121
0.000239252
0.000239397
0.000239552
0.000239717
0.000239889
0.000240066
0.000240248
0.000240436
0.000240631
0.000240834
0.000241044
0.000241261
0.000241486
0.000241717
0.000241954
0.000242195
0.00024244
0.000242687
0.000242935
0.000243182
0.000243428
0.000243671
0.00024391
0.000244144
0.000244373
0.000244595
0.00024481
0.000245018
0.000245219
0.000245414
0.000245602
0.000245784
0.000245962
0.000246138
0.000246312
0.000246487
0.000246664
0.000246846
0.000247035
0.000247232
0.000247441
0.000247661
0.000247896
0.000248145
0.000248409
0.000248688
0.000248982
0.000249291
0.000249611
0.000249943
0.000250284
0.000250631
0.000250982
0.000251335
0.000251687
0.000252035
0.000252378
0.000252712
0.000253037
0.000253351
0.000253653
0.000253943
0.00025422
0.000254484
0.000254737
0.000254978
0.00025521
0.000255433
0.000255648
0.000255858
0.000256064
0.000256268
0.00025647
0.000256673
0.000256876
0.000257081
0.000257289
0.0002575
0.000257712
0.000257928
0.000258144
0.000258362
0.00025858
0.000258796
0.00025901
0.000259221
0.000259428
0.000259631
0.000259827
0.000260018
0.000260203
0.000260381
0.000260555
0.000260723
0.000260888
0.00026105
0.00026121
0.000261369
0.000261529
0.000261691
0.000261856
0.000262026
0.0002622
0.000262381
0.000262567
0.000262761
0.000262961
0.000263168
0.00026338
0.000263599
0.000263823
0.000264052
0.000264284
0.00026452
0.000264757
0.000264995
0.000265233
0.000265469
0.000265703
0.000265931
0.000266152
0.000266361
0.000266555
0.000266726
0.000266861
0.000266948
0.000266976
0.000266927
0.000266778
0.000266503
0.000266065
0.000265424
0.000264529
0.000263324
0.000261743
0.000259714
0.000257159
0.000253994
0.000250134
0.000245492
0.000239983
0.000233524
0.000226036
0.00021745
0.000207697
0.000196707
0.000184386
0.000170533
0.000154626
0.000135176
0.000107979
6.3655e-05
6.78677e-06
3.79918e-06
5.14334e-05
9.60912e-05
0.000129976
0.000157101
0.000179456
0.000198037
0.000213456
0.000226156
0.000236489
0.000244757
0.000251229
0.000256148
0.000259735
0.000262193
0.000263702
0.000264423
0.000264498
0.000264046
0.000263164
0.000261917
0.000260324
0.000258527
0.000256621
0.000254674
0.000252743
0.000250873
0.000249101
0.000247453
0.000245947
0.000244596
0.000243405
0.000242374
0.0002415
0.000240774
0.000240185
0.000239721
0.000239368
0.000239112
0.000238939
0.000238837
0.000238792
0.000238796
0.000238837
0.000238909
0.000239006
0.000239122
0.000239253
0.000239398
0.000239553
0.000239717
0.000239889
0.000240066
0.000240248
0.000240437
0.000240632
0.000240834
0.000241045
0.000241262
0.000241487
0.000241718
0.000241955
0.000242196
0.000242441
0.000242688
0.000242935
0.000243183
0.000243429
0.000243672
0.000243911
0.000244145
0.000244373
0.000244596
0.000244811
0.000245019
0.00024522
0.000245414
0.000245602
0.000245785
0.000245963
0.000246138
0.000246313
0.000246487
0.000246665
0.000246847
0.000247035
0.000247233
0.000247441
0.000247662
0.000247896
0.000248145
0.000248409
0.000248689
0.000248983
0.000249291
0.000249612
0.000249944
0.000250285
0.000250632
0.000250983
0.000251336
0.000251688
0.000252036
0.000252378
0.000252713
0.000253038
0.000253352
0.000253654
0.000253943
0.00025422
0.000254485
0.000254737
0.000254979
0.00025521
0.000255433
0.000255649
0.000255859
0.000256065
0.000256269
0.000256471
0.000256673
0.000256877
0.000257082
0.00025729
0.0002575
0.000257713
0.000257928
0.000258145
0.000258363
0.00025858
0.000258797
0.000259011
0.000259222
0.000259429
0.000259631
0.000259828
0.000260018
0.000260203
0.000260382
0.000260555
0.000260724
0.000260889
0.00026105
0.00026121
0.00026137
0.00026153
0.000261692
0.000261857
0.000262027
0.000262201
0.000262381
0.000262568
0.000262761
0.000262961
0.000263168
0.000263381
0.0002636
0.000263824
0.000264053
0.000264285
0.00026452
0.000264757
0.000264996
0.000265233
0.00026547
0.000265703
0.000265931
0.000266152
0.000266362
0.000266556
0.000266727
0.000266861
0.000266949
0.000266976
0.000266927
0.000266779
0.000266503
0.000266066
0.000265425
0.00026453
0.000263325
0.000261744
0.000259715
0.000257159
0.000253995
0.000250135
0.000245493
0.000239984
0.000233525
0.000226037
0.000217451
0.000207698
0.000196709
0.000184387
0.000170534
0.000154627
0.000135177
0.00010798
6.36553e-05
6.78681e-06
5.60486e-06
6.23962e-05
0.000119711
0.000164973
0.000201609
0.000231855
0.000256994
0.00027784
0.000294974
0.000308859
0.000319891
0.000328429
0.000334805
0.000339329
0.000342288
0.000343948
0.000344545
0.000344289
0.000343358
0.000341898
0.000340026
0.000337824
0.000335365
0.000332815
0.000330251
0.000327739
0.000325331
0.000323067
0.000320977
0.000319081
0.000317391
0.00031591
0.000314637
0.000313565
0.000312682
0.000311974
0.000311424
0.000311015
0.000310729
0.000310549
0.000310457
0.000310439
0.00031048
0.00031057
0.000310697
0.000310854
0.000311035
0.000311233
0.000311445
0.000311669
0.000311901
0.00031214
0.000312384
0.000312631
0.000312884
0.000313142
0.000313406
0.000313677
0.000313954
0.000314238
0.000314526
0.00031482
0.000315118
0.000315418
0.00031572
0.000316022
0.000316324
0.000316623
0.000316918
0.000317209
0.000317494
0.000317773
0.000318045
0.000318309
0.000318566
0.000318816
0.000319058
0.000319295
0.000319526
0.000319753
0.000319978
0.000320203
0.00032043
0.00032066
0.000320897
0.000321142
0.000321398
0.000321666
0.000321948
0.000322246
0.000322561
0.000322891
0.000323238
0.000323601
0.000323978
0.000324367
0.000324767
0.000325175
0.000325588
0.000326002
0.000326417
0.000326827
0.000327231
0.000327626
0.000328011
0.000328383
0.000328741
0.000329084
0.000329412
0.000329726
0.000330025
0.00033031
0.000330584
0.000330846
0.0003311
0.000331346
0.000331588
0.000331826
0.000332062
0.000332298
0.000332536
0.000332776
0.000333019
0.000333265
0.000333516
0.000333769
0.000334026
0.000334285
0.000334545
0.000334805
0.000335064
0.00033532
0.000335572
0.000335819
0.000336061
0.000336296
0.000336524
0.000336745
0.00033696
0.000337169
0.000337372
0.000337572
0.000337768
0.000337963
0.000338157
0.000338353
0.000338552
0.000338755
0.000338963
0.000339178
0.0003394
0.00033963
0.000339868
0.000340115
0.00034037
0.000340633
0.000340905
0.000341183
0.000341469
0.000341761
0.000342059
0.000342361
0.000342668
0.000342979
0.000343293
0.000343609
0.000343925
0.000344239
0.000344548
0.000344846
0.000345126
0.000345376
0.000345586
0.000345741
0.000345821
0.000345801
0.000345651
0.000345329
0.00034479
0.000343975
0.00034282
0.00034125
0.00033918
0.000336519
0.000333168
0.000329021
0.000323965
0.000317884
0.000310652
0.000302139
0.000292199
0.000280668
0.000267335
0.000251894
0.000233804
0.000211962
0.000183915
0.00014424
8.30315e-05
1.03074e-05
5.60547e-06
6.23979e-05
0.000119711
0.000164973
0.000201609
0.000231854
0.000256993
0.000277839
0.000294973
0.000308858
0.000319891
0.000328429
0.000334805
0.000339329
0.000342288
0.000343948
0.000344546
0.00034429
0.000343358
0.0003419
0.000340027
0.000337825
0.000335367
0.000332817
0.000330253
0.000327741
0.000325333
0.000323069
0.000320979
0.000319083
0.000317393
0.000315912
0.000314639
0.000313567
0.000312684
0.000311976
0.000311426
0.000311017
0.000310731
0.000310551
0.000310459
0.000310441
0.000310482
0.000310572
0.000310699
0.000310856
0.000311037
0.000311235
0.000311447
0.000311671
0.000311903
0.000312142
0.000312386
0.000312633
0.000312886
0.000313144
0.000313408
0.000313679
0.000313956
0.00031424
0.000314528
0.000314822
0.00031512
0.00031542
0.000315722
0.000316024
0.000316326
0.000316625
0.00031692
0.000317211
0.000317496
0.000317775
0.000318047
0.000318311
0.000318568
0.000318818
0.00031906
0.000319297
0.000319528
0.000319755
0.00031998
0.000320205
0.000320432
0.000320662
0.000320899
0.000321144
0.0003214
0.000321668
0.000321951
0.000322248
0.000322563
0.000322893
0.00032324
0.000323603
0.00032398
0.000324369
0.000324769
0.000325177
0.00032559
0.000326004
0.000326419
0.000326829
0.000327233
0.000327628
0.000328013
0.000328385
0.000328743
0.000329086
0.000329414
0.000329728
0.000330027
0.000330312
0.000330586
0.000330848
0.000331102
0.000331349
0.00033159
0.000331828
0.000332064
0.0003323
0.000332538
0.000332778
0.000333021
0.000333267
0.000333518
0.000333772
0.000334028
0.000334287
0.000334547
0.000334807
0.000335066
0.000335322
0.000335574
0.000335821
0.000336063
0.000336298
0.000336526
0.000336747
0.000336962
0.000337171
0.000337374
0.000337574
0.00033777
0.000337965
0.000338159
0.000338355
0.000338554
0.000338757
0.000338965
0.00033918
0.000339402
0.000339632
0.00033987
0.000340117
0.000340372
0.000340635
0.000340907
0.000341185
0.000341471
0.000341763
0.00034206
0.000342363
0.00034267
0.000342981
0.000343295
0.000343611
0.000343927
0.000344241
0.000344549
0.000344848
0.000345127
0.000345378
0.000345588
0.000345742
0.000345823
0.000345803
0.000345652
0.000345331
0.000344791
0.000343977
0.000342822
0.000341252
0.000339182
0.000336521
0.000333171
0.000329023
0.000323968
0.000317886
0.000310655
0.000302141
0.000292201
0.00028067
0.000267337
0.000251896
0.000233807
0.000211963
0.000183916
0.000144241
8.30315e-05
1.03072e-05
7.55972e-06
7.08468e-05
0.000136526
0.000189554
0.000232855
0.000268763
0.00029871
0.00032362
0.000344153
0.00036083
0.000374096
0.000384357
0.000391996
0.000397375
0.000400841
0.000402716
0.000403297
0.000402848
0.000401598
0.000399738
0.000397424
0.000394773
0.000391871
0.000388879
0.000385888
0.000382973
0.00038019
0.000377582
0.000375179
0.000373002
0.000371061
0.000369358
0.000367892
0.000366652
0.000365626
0.000364798
0.00036415
0.000363663
0.000363316
0.000363091
0.000362969
0.000362933
0.000362968
0.000363061
0.000363199
0.000363374
0.000363578
0.000363803
0.000364046
0.000364303
0.000364569
0.000364844
0.000365125
0.000365411
0.000365701
0.000365997
0.000366299
0.000366607
0.000366921
0.000367241
0.000367567
0.000367897
0.000368232
0.000368569
0.000368908
0.000369247
0.000369586
0.000369922
0.000370256
0.000370585
0.000370909
0.000371226
0.000371538
0.000371842
0.00037214
0.00037243
0.000372714
0.000372993
0.000373267
0.000373537
0.000373807
0.000374076
0.000374348
0.000374625
0.000374908
0.0003752
0.000375503
0.000375819
0.000376149
0.000376495
0.000376856
0.000377233
0.000377626
0.000378034
0.000378454
0.000378886
0.000379327
0.000379774
0.000380224
0.000380674
0.000381122
0.000381564
0.000381999
0.000382422
0.000382834
0.000383231
0.000383614
0.000383981
0.000384332
0.000384667
0.000384989
0.000385296
0.000385592
0.000385877
0.000386154
0.000386424
0.00038669
0.000386953
0.000387215
0.000387478
0.000387744
0.000388012
0.000388284
0.000388561
0.000388841
0.000389126
0.000389413
0.000389703
0.000389993
0.000390284
0.000390573
0.000390859
0.000391141
0.000391418
0.000391688
0.000391952
0.000392209
0.000392458
0.000392701
0.000392938
0.000393169
0.000393397
0.000393621
0.000393845
0.000394068
0.000394294
0.000394522
0.000394756
0.000394996
0.000395243
0.000395498
0.000395762
0.000396036
0.00039632
0.000396614
0.000396918
0.000397232
0.000397555
0.000397889
0.000398233
0.000398586
0.000398949
0.000399321
0.000399703
0.000400095
0.000400497
0.000400907
0.000401325
0.000401747
0.000402171
0.000402587
0.000402988
0.000403364
0.0004037
0.000403977
0.00040417
0.000404246
0.000404164
0.000403877
0.000403324
0.000402437
0.000401136
0.000399333
0.000396926
0.000393805
0.000389847
0.000384916
0.000378862
0.000371517
0.000362685
0.00035214
0.000339601
0.000324702
0.00030691
0.000285354
0.000258445
0.000223069
0.000173107
9.8673e-05
1.36385e-05
7.56026e-06
7.08482e-05
0.000136525
0.000189553
0.000232853
0.000268761
0.000298708
0.000323618
0.000344152
0.000360829
0.000374095
0.000384357
0.000391996
0.000397376
0.000400841
0.000402717
0.000403298
0.000402849
0.000401599
0.00039974
0.000397426
0.000394775
0.000391874
0.000388881
0.000385891
0.000382975
0.000380193
0.000377585
0.000375182
0.000373005
0.000371064
0.000369361
0.000367895
0.000366655
0.000365629
0.000364801
0.000364153
0.000363666
0.000363319
0.000363094
0.000362972
0.000362936
0.000362971
0.000363064
0.000363202
0.000363377
0.00036358
0.000363806
0.000364049
0.000364305
0.000364572
0.000364847
0.000365128
0.000365413
0.000365704
0.000366
0.000366301
0.00036661
0.000366924
0.000367244
0.00036757
0.0003679
0.000368235
0.000368572
0.000368911
0.00036925
0.000369589
0.000369925
0.000370259
0.000370588
0.000370912
0.000371229
0.000371541
0.000371845
0.000372143
0.000372433
0.000372717
0.000372996
0.00037327
0.00037354
0.00037381
0.000374079
0.000374351
0.000374628
0.000374911
0.000375203
0.000375506
0.000375822
0.000376152
0.000376498
0.000376859
0.000377236
0.000377629
0.000378037
0.000378457
0.000378889
0.00037933
0.000379776
0.000380227
0.000380677
0.000381125
0.000381567
0.000382001
0.000382425
0.000382837
0.000383234
0.000383617
0.000383984
0.000384335
0.00038467
0.000384991
0.000385299
0.000385595
0.00038588
0.000386157
0.000386427
0.000386693
0.000386956
0.000387218
0.000387481
0.000387747
0.000388015
0.000388287
0.000388564
0.000388844
0.000389129
0.000389416
0.000389706
0.000389996
0.000390287
0.000390576
0.000390862
0.000391144
0.000391421
0.000391691
0.000391955
0.000392212
0.000392461
0.000392704
0.000392941
0.000393172
0.0003934
0.000393624
0.000393848
0.000394071
0.000394296
0.000394525
0.000394759
0.000394999
0.000395246
0.000395501
0.000395765
0.000396039
0.000396323
0.000396616
0.00039692
0.000397234
0.000397558
0.000397892
0.000398236
0.000398589
0.000398951
0.000399324
0.000399706
0.000400098
0.000400499
0.00040091
0.000401328
0.00040175
0.000402173
0.000402589
0.000402991
0.000403367
0.000403703
0.00040398
0.000404173
0.000404248
0.000404167
0.000403879
0.000403326
0.000402439
0.000401139
0.000399336
0.000396929
0.000393808
0.00038985
0.000384919
0.000378866
0.00037152
0.000362688
0.000352143
0.000339604
0.000324705
0.000306913
0.000285357
0.000258447
0.00022307
0.000173109
9.8673e-05
1.3638e-05
9.42625e-06
7.86343e-05
0.000150331
0.000208727
0.000256603
0.000296395
0.000329644
0.000357359
0.000380255
0.000398891
0.000413742
0.000425238
0.000433787
0.000439782
0.000443601
0.000445608
0.00044614
0.000445505
0.000443972
0.000441772
0.000439092
0.000436077
0.000432835
0.000429507
0.0004262
0.000422993
0.000419945
0.000417096
0.000414477
0.000412104
0.000409987
0.000408127
0.000406517
0.000405149
0.000404008
0.000403078
0.000402339
0.000401771
0.000401355
0.000401071
0.000400899
0.000400823
0.000400825
0.000400893
0.000401014
0.000401178
0.000401375
0.000401599
0.000401845
0.000402107
0.000402383
0.000402669
0.000402963
0.000403262
0.000403568
0.000403879
0.000404198
0.000404523
0.000404855
0.000405194
0.000405538
0.000405888
0.000406243
0.000406601
0.000406961
0.000407323
0.000407685
0.000408046
0.000408405
0.000408761
0.000409112
0.00040946
0.000409802
0.000410138
0.000410468
0.000410793
0.000411113
0.000411428
0.00041174
0.000412049
0.000412357
0.000412666
0.000412978
0.000413295
0.000413618
0.00041395
0.000414292
0.000414646
0.000415012
0.000415393
0.000415787
0.000416196
0.000416617
0.000417052
0.000417497
0.00041795
0.000418411
0.000418875
0.000419341
0.000419805
0.000420265
0.000420718
0.000421162
0.000421594
0.000422014
0.00042242
0.00042281
0.000423186
0.000423546
0.000423892
0.000424224
0.000424544
0.000424853
0.000425153
0.000425446
0.000425733
0.000426017
0.0004263
0.000426583
0.000426867
0.000427154
0.000427444
0.000427739
0.000428038
0.000428341
0.000428648
0.000428958
0.00042927
0.000429583
0.000429895
0.000430205
0.000430512
0.000430815
0.000431113
0.000431404
0.000431689
0.000431967
0.000432238
0.000432502
0.000432761
0.000433015
0.000433265
0.000433512
0.000433759
0.000434006
0.000434256
0.000434509
0.000434768
0.000435033
0.000435306
0.000435588
0.00043588
0.000436183
0.000436497
0.000436822
0.00043716
0.00043751
0.000437873
0.000438249
0.00043864
0.000439044
0.000439465
0.000439902
0.000440356
0.00044083
0.000441323
0.000441837
0.000442372
0.000442926
0.000443497
0.000444079
0.000444667
0.000445253
0.000445824
0.000446362
0.000446845
0.000447241
0.000447512
0.000447609
0.000447476
0.000447043
0.00044623
0.000444945
0.000443081
0.000440518
0.000437116
0.000432715
0.000427129
0.000420139
0.000411483
0.000400843
0.000387817
0.000371878
0.000352277
0.000327854
0.000296639
0.000255073
0.000196667
0.000111769
1.66017e-05
9.42677e-06
7.86354e-05
0.00015033
0.000208726
0.000256602
0.000296393
0.000329642
0.000357357
0.000380254
0.00039889
0.000413742
0.000425238
0.000433788
0.000439782
0.000443602
0.000445609
0.000446141
0.000445506
0.000443974
0.000441775
0.000439094
0.000436079
0.000432838
0.00042951
0.000426203
0.000422997
0.000419948
0.0004171
0.00041448
0.000412108
0.000409991
0.00040813
0.000406521
0.000405153
0.000404012
0.000403081
0.000402342
0.000401775
0.000401359
0.000401074
0.000400902
0.000400826
0.000400829
0.000400897
0.000401018
0.000401181
0.000401378
0.000401603
0.000401848
0.000402111
0.000402386
0.000402672
0.000402966
0.000403265
0.000403571
0.000403883
0.000404202
0.000404527
0.000404859
0.000405197
0.000405542
0.000405892
0.000406246
0.000406604
0.000406965
0.000407326
0.000407688
0.000408049
0.000408408
0.000408764
0.000409116
0.000409463
0.000409805
0.000410141
0.000410472
0.000410797
0.000411116
0.000411432
0.000411743
0.000412052
0.000412361
0.00041267
0.000412982
0.000413299
0.000413622
0.000413954
0.000414296
0.000414649
0.000415016
0.000415396
0.000415791
0.000416199
0.000416621
0.000417055
0.0004175
0.000417954
0.000418414
0.000418879
0.000419344
0.000419808
0.000420268
0.000420721
0.000421165
0.000421598
0.000422017
0.000422423
0.000422814
0.000423189
0.00042355
0.000423896
0.000424228
0.000424548
0.000424857
0.000425157
0.000425449
0.000425737
0.000426021
0.000426303
0.000426586
0.00042687
0.000427157
0.000427448
0.000427743
0.000428042
0.000428345
0.000428652
0.000428962
0.000429274
0.000429586
0.000429898
0.000430209
0.000430516
0.000430819
0.000431116
0.000431408
0.000431693
0.000431971
0.000432242
0.000432506
0.000432765
0.000433018
0.000433268
0.000433516
0.000433762
0.00043401
0.000434259
0.000434513
0.000434771
0.000435037
0.00043531
0.000435592
0.000435884
0.000436187
0.0004365
0.000436826
0.000437163
0.000437513
0.000437876
0.000438253
0.000438643
0.000439048
0.000439468
0.000439905
0.00044036
0.000440833
0.000441327
0.000441841
0.000442375
0.000442929
0.0004435
0.000444082
0.00044467
0.000445256
0.000445827
0.000446366
0.000446848
0.000447244
0.000447515
0.000447613
0.000447479
0.000447046
0.000446234
0.000444949
0.000443085
0.000440522
0.00043712
0.000432719
0.000427133
0.000420143
0.000411488
0.000400847
0.000387821
0.000371881
0.000352281
0.000327857
0.000296642
0.000255075
0.000196669
0.000111769
1.66011e-05
1.12399e-05
8.59242e-05
0.000162377
0.000224644
0.000275658
0.000318019
0.000353391
0.000382866
0.000407218
0.000427044
0.000442843
0.000455064
0.000464126
0.000470437
0.000474392
0.000476375
0.000476753
0.000475862
0.000474006
0.000471446
0.000468398
0.000465032
0.000461482
0.000457849
0.000454271
0.000450824
0.000447566
0.000444535
0.000441756
0.000439243
0.000437001
0.000435027
0.000433314
0.00043185
0.00043062
0.000429605
0.000428787
0.000428146
0.000427661
0.000427313
0.000427083
0.000426954
0.00042691
0.000426937
0.000427021
0.000427154
0.000427325
0.000427527
0.000427755
0.000428003
0.000428267
0.000428544
0.000428832
0.000429127
0.000429429
0.00042974
0.000430058
0.000430384
0.000430717
0.000431058
0.000431406
0.000431761
0.000432121
0.000432486