/*--------------------------------*- C++ -*----------------------------------*\
  =========                 |
  \\      /  F ield         | OpenFOAM: The Open Source CFD Toolbox
   \\    /   O peration     | Website:  https://openfoam.org
    \\  /    A nd           | Version:  8
     \\/     M anipulation  |
\*---------------------------------------------------------------------------*/
FoamFile
{
    version     2.0;
    format      ascii;
    class       surfaceScalarField;
    location    "400";
    object      phi;
}
// * * * * * * * * * * * * * * * * * * * * * * * * * * * * * * * * * * * * * //

dimensions      [1 0 -1 0 0 0 0];

internalField   nonuniform List<scalar> 
114370
(
-5.22727e-09
1.47768e-13
5.22713e-09
-7.06292e-09
3.70894e-13
1.85174e-09
-4.93013e-09
5.01045e-13
-2.12504e-09
-1.082e-11
1.34284e-13
-4.91363e-09
6.46773e-09
-1.66418e-13
-6.47522e-09
1.36286e-08
-3.66667e-13
-7.15818e-09
2.09788e-08
-4.68507e-13
-7.348e-09
2.81971e-08
-4.61797e-13
-7.21665e-09
3.50721e-08
-3.9592e-13
-6.87379e-09
4.14632e-08
-3.17975e-13
-6.3903e-09
4.72785e-08
-2.53714e-13
-5.81487e-09
5.24619e-08
-2.0715e-13
-5.18314e-09
5.69847e-08
-1.70881e-13
-4.52255e-09
6.08398e-08
-1.37745e-13
-3.85493e-09
6.40379e-08
-1.05795e-13
-3.19791e-09
6.66038e-08
-7.69398e-14
-2.56569e-09
6.85735e-08
-5.34786e-14
-1.96953e-09
6.99919e-08
-3.59364e-14
-1.41814e-09
7.09102e-08
-2.31365e-14
-9.18025e-10
7.13842e-08
-1.32943e-14
-4.73727e-10
7.14726e-08
-5.29953e-15
-8.81169e-11
7.1233e-08
3.02731e-15
2.3991e-10
7.07195e-08
1.13712e-14
5.1385e-10
6.99834e-08
1.7043e-14
7.36336e-10
6.90733e-08
1.97684e-14
9.10473e-10
6.80336e-08
2.02427e-14
1.0399e-09
6.69052e-08
1.95089e-14
1.12867e-09
6.57244e-08
1.84417e-14
1.18114e-09
6.45228e-08
1.75196e-14
1.20185e-09
6.33277e-08
1.67875e-14
1.19539e-09
6.21617e-08
1.59662e-14
1.16628e-09
6.1043e-08
1.46565e-14
1.11889e-09
5.99859e-08
1.25685e-14
1.05736e-09
5.90006e-08
9.70666e-15
9.85508e-10
5.8094e-08
6.4065e-15
9.06791e-10
5.72699e-08
3.16184e-15
8.2426e-10
5.65295e-08
3.60191e-16
7.40543e-10
5.58719e-08
-1.84852e-15
6.57831e-10
5.52941e-08
-3.54397e-15
5.77889e-10
5.47922e-08
-4.93455e-15
5.02071e-10
5.4361e-08
-6.21661e-15
4.31348e-10
5.39947e-08
-7.47059e-15
3.66347e-10
5.36874e-08
-8.64499e-15
3.07392e-10
5.3433e-08
-9.62056e-15
2.54553e-10
5.32254e-08
-1.02874e-14
2.07689e-10
5.3059e-08
-1.05743e-14
1.66501e-10
5.29286e-08
-1.04555e-14
1.30568e-10
5.28293e-08
-9.96883e-15
9.9392e-11
5.2757e-08
-9.22279e-15
7.24252e-11
5.2708e-08
-8.37993e-15
4.90999e-11
5.26793e-08
-7.61025e-15
2.88536e-11
5.26682e-08
-7.06901e-15
1.1146e-11
5.26728e-08
-6.89575e-15
-4.39163e-12
5.26909e-08
-7.1836e-15
-1.7966e-11
5.27208e-08
-7.90177e-15
-2.98312e-11
5.27612e-08
-8.88481e-15
-4.02672e-11
5.28109e-08
-9.91708e-15
-4.94994e-11
5.28687e-08
-1.08275e-14
-5.76945e-11
5.29338e-08
-1.15079e-14
-6.49646e-11
5.30053e-08
-1.18942e-14
-7.13742e-11
5.30824e-08
-1.19467e-14
-7.69493e-11
5.31643e-08
-1.16859e-14
-8.16884e-11
5.325e-08
-1.12083e-14
-8.55723e-11
5.33388e-08
-1.06729e-14
-8.85734e-11
5.34296e-08
-1.02359e-14
-9.06638e-11
5.35216e-08
-9.99278e-15
-9.18208e-11
5.36139e-08
-9.95191e-15
-9.20315e-11
5.37054e-08
-1.0042e-14
-9.12954e-11
5.37952e-08
-1.01458e-14
-8.96264e-11
5.38824e-08
-1.01491e-14
-8.70531e-11
5.39663e-08
-9.96785e-15
-8.36195e-11
5.40459e-08
-9.57439e-15
-7.93849e-11
5.41205e-08
-8.99207e-15
-7.44242e-11
5.41895e-08
-8.29103e-15
-6.88287e-11
5.42524e-08
-7.57112e-15
-6.27058e-11
5.43088e-08
-6.93924e-15
-5.6181e-11
5.43584e-08
-6.4841e-15
-4.93973e-11
5.44012e-08
-6.2486e-15
-4.25159e-11
5.44371e-08
-6.21488e-15
-3.57153e-11
5.44665e-08
-6.31126e-15
-2.91888e-11
5.44898e-08
-6.4304e-15
-2.31421e-11
5.45078e-08
-6.46671e-15
-1.77876e-11
5.45214e-08
-6.34895e-15
-1.33384e-11
5.45316e-08
-6.07008e-15
-1.00007e-11
5.45398e-08
-5.68822e-15
-7.96545e-12
5.45474e-08
-5.30331e-15
-7.39924e-12
5.4556e-08
-5.0252e-15
-8.43526e-12
5.45674e-08
-4.93076e-15
-1.11646e-11
5.45832e-08
-5.04036e-15
-1.56284e-11
5.46052e-08
-5.31139e-15
-2.18118e-11
5.46351e-08
-5.66537e-15
-2.96402e-11
5.46743e-08
-6.02748e-15
-3.8978e-11
5.47241e-08
-6.3562e-15
-4.96307e-11
5.47857e-08
-6.65141e-15
-6.13497e-11
5.48597e-08
-6.94327e-15
-7.38409e-11
5.49467e-08
-7.2824e-15
-8.67746e-11
5.50467e-08
-7.70773e-15
-9.97978e-11
5.51594e-08
-8.20212e-15
-1.12548e-10
5.52843e-08
-8.67483e-15
-1.24669e-10
5.54203e-08
-9.01646e-15
-1.35821e-10
5.55662e-08
-9.16326e-15
-1.45697e-10
5.57204e-08
-9.1019e-15
-1.54036e-10
5.58812e-08
-8.8469e-15
-1.60628e-10
5.60467e-08
-8.44608e-15
-1.65326e-10
5.62149e-08
-8.00676e-15
-1.68048e-10
5.63838e-08
-7.64714e-15
-1.68778e-10
5.65516e-08
-7.40559e-15
-1.67568e-10
5.67162e-08
-7.20578e-15
-1.64529e-10
5.68762e-08
-6.93842e-15
-1.59829e-10
5.703e-08
-6.55668e-15
-1.53681e-10
5.71765e-08
-6.07856e-15
-1.46337e-10
5.73147e-08
-5.51532e-15
-1.38074e-10
5.7444e-08
-4.84323e-15
-1.29184e-10
5.75641e-08
-4.06293e-15
-1.19965e-10
5.7675e-08
-3.23157e-15
-1.10709e-10
5.77768e-08
-2.40541e-15
-1.0169e-10
5.787e-08
-1.57556e-15
-9.316e-11
5.79555e-08
-7.1612e-16
-8.53354e-11
5.8034e-08
1.05379e-16
-7.83955e-11
5.81065e-08
7.43647e-16
-7.24751e-11
5.81743e-08
1.08972e-15
-6.76619e-11
5.82384e-08
1.1371e-15
-6.39953e-11
5.82999e-08
9.34575e-16
-6.14668e-11
5.836e-08
5.40902e-16
-6.00218e-11
5.84196e-08
5.39877e-17
-5.95634e-11
5.84797e-08
-3.83379e-16
-5.99575e-11
5.85408e-08
-6.68414e-16
-6.10408e-11
5.86034e-08
-8.26923e-16
-6.26288e-11
5.8668e-08
-9.61254e-16
-6.45258e-11
5.87346e-08
-1.12822e-15
-6.65347e-11
5.88031e-08
-1.298e-15
-6.84662e-11
5.88733e-08
-1.4061e-15
-7.0149e-11
5.89448e-08
-1.42041e-15
-7.14377e-11
5.9017e-08
-1.33822e-15
-7.22204e-11
5.90895e-08
-1.16844e-15
-7.24235e-11
5.91615e-08
-9.35441e-16
-7.20145e-11
5.92326e-08
-6.64497e-16
-7.10028e-11
5.9302e-08
-3.44655e-16
-6.94385e-11
5.93695e-08
7.31992e-17
-6.74086e-11
5.94345e-08
6.01101e-16
-6.50302e-11
5.9497e-08
1.13681e-15
-6.24434e-11
5.95568e-08
1.50197e-15
-5.98032e-11
5.96141e-08
1.59034e-15
-5.72702e-11
5.96692e-08
1.45959e-15
-5.50013e-11
5.97224e-08
1.2691e-15
-5.31402e-11
5.97742e-08
1.13152e-15
-5.18097e-11
5.98253e-08
1.04858e-15
-5.11049e-11
5.98764e-08
9.68679e-16
-5.10886e-11
5.99283e-08
8.53868e-16
-5.17877e-11
5.99815e-08
7.01762e-16
-5.31923e-11
6.00367e-08
5.41091e-16
-5.52555e-11
6.00946e-08
4.3604e-16
-5.78956e-11
6.01556e-08
4.46672e-16
-6.09995e-11
6.02201e-08
5.58135e-16
-6.44275e-11
6.02881e-08
6.77731e-16
-6.80185e-11
6.03596e-08
7.43441e-16
-7.15948e-11
6.04345e-08
8.26389e-16
-7.49676e-11
6.05124e-08
1.06676e-15
-7.79424e-11
6.05927e-08
1.47031e-15
-8.0324e-11
6.06746e-08
1.83277e-15
-8.19199e-11
6.0757e-08
1.93165e-15
-8.25431e-11
6.08389e-08
1.7725e-15
-8.20139e-11
6.0919e-08
1.56272e-15
-8.01609e-11
6.09957e-08
1.42893e-15
-7.68189e-11
6.10675e-08
1.23715e-15
-7.18264e-11
6.11324e-08
7.95345e-16
-6.50208e-11
6.11885e-08
1.98285e-16
-5.62325e-11
6.12337e-08
-1.16989e-16
-4.52731e-11
6.12655e-08
3.12802e-16
-3.19102e-11
6.12812e-08
1.53385e-15
-1.58292e-11
6.12778e-08
3.28939e-15
3.39431e-12
6.12512e-08
4.84914e-15
2.65217e-11
6.11966e-08
5.29347e-15
5.45341e-11
6.11081e-08
4.33743e-15
8.84812e-11
6.09783e-08
2.48433e-15
1.29713e-10
6.07984e-08
9.67665e-16
1.79965e-10
6.05569e-08
1.10214e-15
2.4145e-10
6.024e-08
3.38672e-15
3.16939e-10
5.98301e-08
7.05713e-15
4.09853e-10
5.93058e-08
1.05195e-14
5.2433e-10
5.86405e-08
1.23509e-14
6.65268e-10
5.78021e-08
1.21027e-14
8.3833e-10
5.67522e-08
1.05081e-14
1.04987e-09
5.54454e-08
9.16706e-15
1.30674e-09
5.38293e-08
9.95141e-15
1.616e-09
5.18448e-08
1.43393e-14
1.98438e-09
4.94272e-08
2.2861e-14
2.41753e-09
4.65081e-08
3.49537e-14
2.9189e-09
4.30196e-08
4.98723e-14
3.48827e-09
3.88997e-08
6.91059e-14
4.11958e-09
3.41012e-08
9.80059e-14
4.798e-09
2.86051e-08
1.41523e-13
5.49554e-09
2.24403e-08
1.94673e-13
6.16409e-09
1.57162e-08
2.41044e-13
6.7233e-09
8.67948e-09
2.74261e-13
7.03587e-09
1.81105e-09
3.34161e-13
6.8674e-09
-3.91198e-09
4.91374e-13
5.72171e-09
-6.96187e-09
7.15409e-13
3.04838e-09
-5.74382e-09
1.02359e-12
-1.21986e-09
1.36822e-12
-5.74611e-09
-5.22447e-09
5.22499e-09
-7.05854e-09
1.84538e-09
-4.92839e-09
-2.13051e-09
-1.00245e-11
-4.91758e-09
6.46826e-09
-6.47795e-09
1.36288e-08
-7.15991e-09
2.09787e-08
-7.34881e-09
2.81968e-08
-7.21667e-09
3.50718e-08
-6.8732e-09
4.1463e-08
-6.38932e-09
4.72785e-08
-5.81374e-09
5.24621e-08
-5.18206e-09
5.6985e-08
-4.52165e-09
6.08402e-08
-3.85428e-09
6.40383e-08
-3.19751e-09
6.66041e-08
-2.56552e-09
6.85738e-08
-1.96957e-09
6.9992e-08
-1.41836e-09
7.09102e-08
-9.18389e-10
7.13841e-08
-4.74209e-10
7.14724e-08
-8.86864e-11
7.12327e-08
2.39282e-10
7.07191e-08
5.13193e-10
6.9983e-08
7.35679e-10
6.90728e-08
9.09841e-10
6.80332e-08
1.03931e-09
6.69047e-08
1.12813e-09
6.57238e-08
1.18067e-09
6.45223e-08
1.20145e-09
6.33271e-08
1.19506e-09
6.21611e-08
1.16602e-09
6.10425e-08
1.1187e-09
5.99854e-08
1.05723e-09
5.90001e-08
9.85428e-10
5.80936e-08
9.06753e-10
5.72695e-08
8.24256e-10
5.65292e-08
7.40565e-10
5.58715e-08
6.57873e-10
5.52938e-08
5.77945e-10
5.47919e-08
5.02134e-10
5.43607e-08
4.31412e-10
5.39945e-08
3.66408e-10
5.36872e-08
3.07447e-10
5.34327e-08
2.546e-10
5.32252e-08
2.0773e-10
5.30588e-08
1.66535e-10
5.29283e-08
1.30598e-10
5.2829e-08
9.94189e-11
5.27567e-08
7.24503e-11
5.27077e-08
4.9124e-11
5.2679e-08
2.88768e-11
5.2668e-08
1.11685e-11
5.26725e-08
-4.36935e-12
5.26906e-08
-1.79434e-11
5.27205e-08
-2.98077e-11
5.27609e-08
-4.02426e-11
5.28106e-08
-4.94736e-11
5.28684e-08
-5.76675e-11
5.29335e-08
-6.49365e-11
5.30051e-08
-7.13453e-11
5.30822e-08
-7.69197e-11
5.3164e-08
-8.16581e-11
5.32498e-08
-8.55411e-11
5.33385e-08
-8.85414e-11
5.34294e-08
-9.06311e-11
5.35214e-08
-9.17877e-11
5.36136e-08
-9.19984e-11
5.37051e-08
-9.12631e-11
5.37949e-08
-8.95953e-11
5.38822e-08
-8.70239e-11
5.3966e-08
-8.35924e-11
5.40456e-08
-7.93602e-11
5.41202e-08
-7.44019e-11
5.41892e-08
-6.88084e-11
5.42522e-08
-6.26874e-11
5.43085e-08
-5.6164e-11
5.43581e-08
-4.93816e-11
5.44009e-08
-4.25015e-11
5.44368e-08
-3.57022e-11
5.44662e-08
-2.91775e-11
5.44896e-08
-2.31329e-11
5.45075e-08
-1.77808e-11
5.45211e-08
-1.33341e-11
5.45313e-08
-9.99892e-12
5.45395e-08
-7.96577e-12
5.45471e-08
-7.40104e-12
5.45557e-08
-8.43772e-12
5.45671e-08
-1.11669e-11
5.45829e-08
-1.56297e-11
5.46049e-08
-2.18116e-11
5.46348e-08
-2.9638e-11
5.4674e-08
-3.89734e-11
5.47238e-08
-4.96235e-11
5.47854e-08
-6.13397e-11
5.48594e-08
-7.38278e-11
5.49464e-08
-8.6758e-11
5.50464e-08
-9.97777e-11
5.51591e-08
-1.12525e-10
5.5284e-08
-1.24641e-10
5.542e-08
-1.3579e-10
5.55659e-08
-1.45664e-10
5.57201e-08
-1.54001e-10
5.58809e-08
-1.60592e-10
5.60464e-08
-1.6529e-10
5.62146e-08
-1.68013e-10
5.63835e-08
-1.68745e-10
5.65513e-08
-1.67537e-10
5.67159e-08
-1.64501e-10
5.68759e-08
-1.59805e-10
5.70297e-08
-1.53662e-10
5.71762e-08
-1.46323e-10
5.73144e-08
-1.38065e-10
5.74437e-08
-1.2918e-10
5.75638e-08
-1.19966e-10
5.76746e-08
-1.10713e-10
5.77764e-08
-1.01697e-10
5.78697e-08
-9.31691e-11
5.79552e-08
-8.5346e-11
5.80336e-08
-7.84067e-11
5.81062e-08
-7.24859e-11
5.8174e-08
-6.76716e-11
5.8238e-08
-6.40037e-11
5.82996e-08
-6.14736e-11
5.83597e-08
-6.00267e-11
5.84193e-08
-5.95663e-11
5.84793e-08
-5.99586e-11
5.85404e-08
-6.10401e-11
5.86031e-08
-6.26264e-11
5.86677e-08
-6.45222e-11
5.87343e-08
-6.65301e-11
5.88028e-08
-6.84613e-11
5.8873e-08
-7.0144e-11
5.89444e-08
-7.14331e-11
5.90167e-08
-7.22166e-11
5.90891e-08
-7.24207e-11
5.91612e-08
-7.20129e-11
5.92322e-08
-7.10027e-11
5.93017e-08
-6.94405e-11
5.93691e-08
-6.74129e-11
5.94342e-08
-6.5037e-11
5.94967e-08
-6.24527e-11
5.95565e-08
-5.98147e-11
5.96138e-08
-5.72836e-11
5.96688e-08
-5.50158e-11
5.9722e-08
-5.31553e-11
5.97738e-08
-5.18246e-11
5.9825e-08
-5.11191e-11
5.98761e-08
-5.11019e-11
5.99279e-08
-5.18003e-11
5.99811e-08
-5.32045e-11
6.00364e-08
-5.52673e-11
6.00943e-08
-5.79069e-11
6.01553e-08
-6.10107e-11
6.02197e-08
-6.44389e-11
6.02877e-08
-6.80304e-11
6.03593e-08
-7.16074e-11
6.04342e-08
-7.49816e-11
6.05121e-08
-7.79586e-11
6.05924e-08
-8.0343e-11
6.06742e-08
-8.19419e-11
6.07567e-08
-8.25684e-11
6.08386e-08
-8.20434e-11
6.09187e-08
-8.01948e-11
6.09954e-08
-7.68567e-11
6.10671e-08
-7.18667e-11
6.1132e-08
-6.50625e-11
6.11881e-08
-5.62749e-11
6.12333e-08
-4.53162e-11
6.12651e-08
-3.19555e-11
6.12809e-08
-1.588e-11
6.12774e-08
3.33339e-12
6.12508e-08
2.64481e-11
6.11962e-08
5.44503e-11
6.11077e-08
8.83934e-11
6.0978e-08
1.29628e-10
6.0798e-08
1.7989e-10
6.05566e-08
2.41384e-10
6.02396e-08
3.16881e-10
5.98298e-08
4.09797e-10
5.93055e-08
5.24268e-10
5.86402e-08
6.65198e-10
5.78019e-08
8.38253e-10
5.67519e-08
1.04979e-09
5.54451e-08
1.30666e-09
5.3829e-08
1.61592e-09
5.18446e-08
1.98431e-09
4.94269e-08
2.41745e-09
4.65079e-08
2.91881e-09
4.30194e-08
3.48813e-09
3.88996e-08
4.11934e-09
3.41012e-08
4.79761e-09
2.86052e-08
5.49493e-09
2.24405e-08
6.16317e-09
1.57163e-08
6.72202e-09
8.67923e-09
7.03425e-09
1.81043e-09
6.8655e-09
-3.91282e-09
5.71971e-09
-6.96243e-09
3.04635e-09
-5.74363e-09
-1.22198e-09
-5.74684e-09
-1.42081e-09
-6.69255e-13
6.6352e-09
8.68972e-10
-5.92295e-13
-4.49502e-10
5.23609e-09
-8.31281e-14
-6.4986e-09
1.072e-08
1.96722e-14
-1.04012e-08
1.69209e-08
6.65604e-14
-1.26788e-08
2.35352e-08
7.75684e-14
-1.37742e-08
3.02714e-08
5.75669e-14
-1.40855e-08
3.69079e-08
3.54418e-14
-1.3854e-08
4.32791e-08
2.10378e-14
-1.32456e-08
4.92636e-08
1.33342e-14
-1.23751e-08
5.47749e-08
7.80753e-15
-1.13263e-08
5.9755e-08
1.53719e-15
-1.01631e-08
6.41688e-08
-5.71028e-15
-8.93627e-09
6.80011e-08
-1.24695e-14
-7.68694e-09
7.12524e-08
-1.72223e-14
-6.4489e-09
7.39367e-08
-1.93534e-14
-5.24972e-09
7.60791e-08
-1.90686e-14
-4.1115e-09
7.77128e-08
-1.70326e-14
-3.05146e-09
7.88775e-08
-1.41147e-14
-2.08241e-09
7.96174e-08
-1.10275e-14
-1.21317e-09
7.99787e-08
-7.92244e-15
-4.49007e-10
8.00105e-08
-5.21258e-15
2.08456e-10
7.97636e-08
-2.94873e-15
7.61141e-10
7.92865e-08
-8.76062e-16
1.21374e-09
7.86251e-08
7.12172e-16
1.57218e-09
7.7822e-08
1.82454e-15
1.84328e-09
7.69162e-08
2.65257e-15
2.03472e-09
7.59428e-08
3.36292e-15
2.15483e-09
7.49326e-08
4.01711e-15
2.21231e-09
7.39123e-08
4.59223e-15
2.21602e-09
7.29041e-08
5.03897e-15
2.17469e-09
7.19264e-08
5.32785e-15
2.0968e-09
7.09937e-08
5.44602e-15
1.99034e-09
7.01166e-08
5.36881e-15
1.86273e-09
6.9303e-08
5.076e-15
1.72067e-09
6.85573e-08
4.59736e-15
1.5701e-09
6.78819e-08
4.00888e-15
1.4161e-09
6.72769e-08
3.39941e-15
1.26295e-09
6.67408e-08
2.82898e-15
1.1141e-09
6.62708e-08
2.31003e-15
9.7221e-10
6.5863e-08
1.82464e-15
8.39205e-10
6.55131e-08
1.36104e-15
7.16366e-10
6.52162e-08
9.32775e-16
6.04396e-10
6.49674e-08
5.64466e-16
5.03513e-10
6.47616e-08
2.75032e-16
4.1354e-10
6.45942e-08
7.37979e-17
3.33989e-10
6.44607e-08
-2.89347e-17
2.64146e-10
6.43571e-08
-2.6985e-17
2.03145e-10
6.42795e-08
6.38722e-17
1.5003e-10
6.42249e-08
1.95227e-16
1.03812e-10
6.41904e-08
3.18832e-16
6.35222e-11
6.41734e-08
4.18423e-16
2.82555e-11
6.41718e-08
4.99527e-16
-2.74365e-12
6.4184e-08
5.54122e-16
-3.00332e-11
6.42084e-08
5.52717e-16
-5.40994e-11
6.42437e-08
4.75038e-16
-7.54059e-11
6.42886e-08
3.31004e-16
-9.43278e-11
6.43422e-08
1.46963e-16
-1.11145e-10
6.44034e-08
-4.92226e-17
-1.26048e-10
6.44714e-08
-2.28712e-16
-1.39146e-10
6.4545e-08
-3.59305e-16
-1.50487e-10
6.46236e-08
-4.10589e-16
-1.60073e-10
6.47061e-08
-3.68361e-16
-1.67875e-10
6.47915e-08
-2.41945e-16
-1.73853e-10
6.4879e-08
-6.02346e-17
-1.77966e-10
6.49675e-08
1.35516e-16
-1.80182e-10
6.50562e-08
3.01235e-16
-1.80489e-10
6.5144e-08
3.97076e-16
-1.78896e-10
6.523e-08
3.97508e-16
-1.75441e-10
6.53133e-08
2.98952e-16
-1.70189e-10
6.53931e-08
1.25044e-16
-1.63232e-10
6.54687e-08
-7.55359e-17
-1.54696e-10
6.55392e-08
-2.41258e-16
-1.44735e-10
6.56041e-08
-3.16396e-16
-1.33536e-10
6.5663e-08
-2.70101e-16
-1.21318e-10
6.57153e-08
-1.06278e-16
-1.08335e-10
6.5761e-08
1.37235e-16
-9.48782e-11
6.58e-08
4.01079e-16
-8.1271e-11
6.58324e-08
6.21936e-16
-6.78714e-11
6.58585e-08
7.52698e-16
-5.50656e-11
6.58789e-08
7.71681e-16
-4.32616e-11
6.58942e-08
6.87449e-16
-3.28788e-11
6.59054e-08
5.32854e-16
-2.43354e-11
6.59137e-08
3.51373e-16
-1.80333e-11
6.59203e-08
1.85504e-16
-1.43408e-11
6.59267e-08
6.68537e-17
-1.35753e-11
6.59345e-08
9.24478e-18
-1.59854e-11
6.59453e-08
1.0509e-17
-2.17345e-11
6.59608e-08
5.14558e-17
-3.08866e-11
6.59826e-08
1.08287e-16
-4.33954e-11
6.60123e-08
1.59914e-16
-5.90981e-11
6.60512e-08
1.94356e-16
-7.77144e-11
6.61007e-08
2.07059e-16
-9.88516e-11
6.61616e-08
2.07726e-16
-1.22015e-10
6.62346e-08
2.18909e-16
-1.46624e-10
6.632e-08
2.58928e-16
-1.72033e-10
6.6418e-08
3.23015e-16
-1.97552e-10
6.65281e-08
3.96151e-16
-2.2248e-10
6.66498e-08
4.69123e-16
-2.46125e-10
6.6782e-08
5.27671e-16
-2.67836e-10
6.69235e-08
5.40734e-16
-2.87026e-10
6.70729e-08
4.87387e-16
-3.03194e-10
6.72284e-08
3.93055e-16
-3.15947e-10
6.73882e-08
3.11135e-16
-3.25008e-10
6.75506e-08
2.6575e-16
-3.30227e-10
6.77136e-08
2.48986e-16
-3.31581e-10
6.78754e-08
2.61331e-16
-3.29176e-10
6.80342e-08
3.17153e-16
-3.23231e-10
6.81886e-08
3.98996e-16
-3.14074e-10
6.83372e-08
4.50698e-16
-3.02119e-10
6.84789e-08
4.36427e-16
-2.87852e-10
6.86128e-08
3.7391e-16
-2.71807e-10
6.87383e-08
3.05866e-16
-2.54551e-10
6.88551e-08
2.61838e-16
-2.36658e-10
6.89632e-08
2.73864e-16
-2.18688e-10
6.90628e-08
3.78699e-16
-2.0117e-10
6.91544e-08
5.67019e-16
-1.84586e-10
6.92385e-08
7.60545e-16
-1.69356e-10
6.9316e-08
8.86364e-16
-1.55821e-10
6.93879e-08
9.61878e-16
-1.44239e-10
6.94551e-08
1.05723e-15
-1.34775e-10
6.95186e-08
1.18067e-15
-1.27503e-10
6.95796e-08
1.25473e-15
-1.22405e-10
6.96391e-08
1.21716e-15
-1.1937e-10
6.96978e-08
1.09595e-15
-1.1821e-10
6.97565e-08
9.60482e-16
-1.18666e-10
6.98159e-08
8.3526e-16
-1.20423e-10
6.98765e-08
7.04943e-16
-1.23129e-10
6.99384e-08
5.70885e-16
-1.26411e-10
7.00018e-08
4.50759e-16
-1.29894e-10
7.00666e-08
3.41203e-16
-1.33221e-10
7.01325e-08
2.23243e-16
-1.36068e-10
7.01993e-08
1.12547e-16
-1.38165e-10
7.02664e-08
5.03683e-17
-1.39303e-10
7.03333e-08
3.75751e-17
-1.39351e-10
7.03996e-08
1.74636e-17
-1.38254e-10
7.04646e-08
-4.09744e-17
-1.36037e-10
7.0528e-08
-7.00847e-17
-1.32802e-10
7.05893e-08
3.76316e-17
-1.28718e-10
7.06483e-08
3.07816e-16
-1.24012e-10
7.07049e-08
6.47064e-16
-1.18953e-10
7.07589e-08
9.4018e-16
-1.13834e-10
7.08106e-08
1.15572e-15
-1.0896e-10
7.08603e-08
1.34291e-15
-1.04624e-10
7.09082e-08
1.54512e-15
-1.01096e-10
7.0955e-08
1.74354e-15
-9.86007e-11
7.10012e-08
1.9001e-15
-9.73115e-11
7.10475e-08
2.014e-15
-9.73389e-11
7.10944e-08
2.10454e-15
-9.87257e-11
7.11427e-08
2.15811e-15
-1.01444e-10
7.11928e-08
2.14299e-15
-1.05396e-10
7.12453e-08
2.07838e-15
-1.10416e-10
7.13006e-08
2.02939e-15
-1.16283e-10
7.13588e-08
2.01606e-15
-1.22722e-10
7.14202e-08
1.97921e-15
-1.29417e-10
7.14846e-08
1.87594e-15
-1.36022e-10
7.15517e-08
1.75582e-15
-1.4217e-10
7.16212e-08
1.68042e-15
-1.47484e-10
7.16924e-08
1.59803e-15
-1.51583e-10
7.17644e-08
1.37974e-15
-1.54093e-10
7.18365e-08
9.98104e-16
-1.54647e-10
7.19072e-08
6.09371e-16
-1.52895e-10
7.19755e-08
4.12216e-16
-1.485e-10
7.20397e-08
4.50713e-16
-1.41128e-10
7.20982e-08
5.69172e-16
-1.30451e-10
7.21492e-08
5.43704e-16
-1.16125e-10
7.21907e-08
2.45778e-16
-9.778e-11
7.22203e-08
-2.75437e-16
-7.49843e-11
7.22355e-08
-7.97408e-16
-4.71981e-11
7.22333e-08
-1.0223e-15
-1.37154e-11
7.22102e-08
-8.31179e-16
2.6483e-11
7.21619e-08
-3.18593e-16
7.48102e-11
7.20834e-08
2.58664e-16
1.33039e-10
7.19684e-08
5.87583e-16
2.03391e-10
7.18094e-08
5.74062e-16
2.88709e-10
7.15968e-08
3.93692e-16
3.92614e-10
7.13186e-08
3.50381e-16
5.19673e-10
7.09599e-08
6.49425e-16
6.7556e-10
7.05026e-08
1.26344e-15
8.672e-10
6.9924e-08
1.96951e-15
1.10288e-09
6.91969e-08
2.48838e-15
1.39232e-09
6.82886e-08
2.61709e-15
1.74655e-09
6.71607e-08
2.30506e-15
2.17776e-09
6.57685e-08
1.64777e-15
2.69883e-09
6.40618e-08
7.93858e-16
3.32262e-09
6.19853e-08
-1.20061e-16
4.06087e-09
5.94801e-08
-9.86117e-16
4.92265e-09
5.64869e-08
-1.98294e-15
5.91217e-09
5.29494e-08
-4.11473e-15
7.02584e-09
4.88209e-08
-8.93933e-15
8.24828e-09
4.40723e-08
-1.64608e-14
9.54687e-09
3.87041e-08
-2.3216e-14
1.08641e-08
3.27626e-08
-2.51793e-14
1.21061e-08
2.63614e-08
-2.5942e-14
1.31253e-08
1.97089e-08
-4.1302e-14
1.36892e-08
1.31344e-08
-8.35269e-14
1.34429e-08
7.03956e-09
-1.34221e-13
1.18178e-08
1.92192e-09
-1.59252e-13
8.16714e-09
-1.12188e-09
-5.82941e-14
1.82503e-09
7.45434e-13
-6.86636e-09
-1.4253e-09
6.64166e-09
8.69926e-10
-4.47507e-10
5.23702e-09
-6.49866e-09
1.0721e-08
-1.04017e-08
1.6922e-08
-1.26794e-08
2.35362e-08
-1.3775e-08
3.02723e-08
-1.40862e-08
3.69085e-08
-1.38545e-08
4.32795e-08
-1.32459e-08
4.92638e-08
-1.23753e-08
5.4775e-08
-1.13264e-08
5.9755e-08
-1.01631e-08
6.41688e-08
-8.93616e-09
6.8001e-08
-7.6868e-09
7.12522e-08
-6.44874e-09
7.39365e-08
-5.24956e-09
7.60788e-08
-4.11135e-09
7.77124e-08
-3.05133e-09
7.88772e-08
-2.08231e-09
7.9617e-08
-1.2131e-09
7.99783e-08
-4.48971e-10
8.00101e-08
2.08461e-10
7.97631e-08
7.61123e-10
7.9286e-08
1.21371e-09
7.86246e-08
1.57214e-09
7.78215e-08
1.84322e-09
7.69158e-08
2.03466e-09
7.59424e-08
2.15476e-09
7.49322e-08
2.21225e-09
7.39118e-08
2.21595e-09
7.29037e-08
2.17462e-09
7.1926e-08
2.09673e-09
7.09932e-08
1.99028e-09
7.01162e-08
1.86268e-09
6.93026e-08
1.72063e-09
6.85569e-08
1.57006e-09
6.78815e-08
1.41607e-09
6.72765e-08
1.26293e-09
6.67404e-08
1.11409e-09
6.62704e-08
9.72197e-10
6.58627e-08
8.39197e-10
6.55128e-08
7.16362e-10
6.52159e-08
6.04395e-10
6.4967e-08
5.03514e-10
6.47612e-08
4.13542e-10
6.45938e-08
3.33991e-10
6.44604e-08
2.64149e-10
6.43567e-08
2.03148e-10
6.42792e-08
1.50033e-10
6.42246e-08
1.03814e-10
6.419e-08
6.35239e-11
6.4173e-08
2.82567e-11
6.41715e-08
-2.74323e-12
6.41837e-08
-3.00336e-11
6.4208e-08
-5.41005e-11
6.42433e-08
-7.54075e-11
6.42883e-08
-9.43296e-11
6.43418e-08
-1.11147e-10
6.44031e-08
-1.26049e-10
6.4471e-08
-1.39146e-10
6.45447e-08
-1.50487e-10
6.46232e-08
-1.60071e-10
6.47057e-08
-1.67873e-10
6.47911e-08
-1.7385e-10
6.48786e-08
-1.77962e-10
6.49672e-08
-1.80178e-10
6.50558e-08
-1.80485e-10
6.51436e-08
-1.78893e-10
6.52296e-08
-1.75438e-10
6.53129e-08
-1.70185e-10
6.53928e-08
-1.63228e-10
6.54683e-08
-1.54692e-10
6.55388e-08
-1.4473e-10
6.56037e-08
-1.3353e-10
6.56626e-08
-1.21312e-10
6.5715e-08
-1.08329e-10
6.57607e-08
-9.48723e-11
6.57996e-08
-8.12655e-11
6.5832e-08
-6.78663e-11
6.58581e-08
-5.50611e-11
6.58785e-08
-4.32577e-11
6.58938e-08
-3.28755e-11
6.5905e-08
-2.43327e-11
6.59133e-08
-1.80312e-11
6.59199e-08
-1.43394e-11
6.59263e-08
-1.35747e-11
6.59341e-08
-1.59857e-11
6.59449e-08
-2.17359e-11
6.59604e-08
-3.08891e-11
6.59822e-08
-4.33989e-11
6.60119e-08
-5.91024e-11
6.60509e-08
-7.77193e-11
6.61003e-08
-9.88569e-11
6.61612e-08
-1.22021e-10
6.62342e-08
-1.4663e-10
6.63197e-08
-1.72039e-10
6.64176e-08
-1.97558e-10
6.65278e-08
-2.22486e-10
6.66494e-08
-2.46131e-10
6.67816e-08
-2.67841e-10
6.69231e-08
-2.8703e-10
6.70725e-08
-3.03197e-10
6.7228e-08
-3.15949e-10
6.73879e-08
-3.25009e-10
6.75502e-08
-3.30226e-10
6.77132e-08
-3.3158e-10
6.7875e-08
-3.29174e-10
6.80338e-08
-3.23229e-10
6.81882e-08
-3.14071e-10
6.83368e-08
-3.02116e-10
6.84785e-08
-2.87848e-10
6.86124e-08
-2.71803e-10
6.87379e-08
-2.54548e-10
6.88547e-08
-2.36655e-10
6.89628e-08
-2.18684e-10
6.90624e-08
-2.01167e-10
6.91539e-08
-1.84584e-10
6.92381e-08
-1.69353e-10
6.93156e-08
-1.55818e-10
6.93874e-08
-1.44235e-10
6.94546e-08
-1.34772e-10
6.95182e-08
-1.27502e-10
6.95792e-08
-1.22404e-10
6.96386e-08
-1.1937e-10
6.96973e-08
-1.1821e-10
6.97561e-08
-1.18665e-10
6.98155e-08
-1.20422e-10
6.98761e-08
-1.23127e-10
6.9938e-08
-1.26409e-10
7.00014e-08
-1.29892e-10
7.00662e-08
-1.33218e-10
7.01321e-08
-1.36065e-10
7.01989e-08
-1.38161e-10
7.0266e-08
-1.39299e-10
7.03329e-08
-1.39346e-10
7.03992e-08
-1.38249e-10
7.04642e-08
-1.36031e-10
7.05276e-08
-1.32796e-10
7.05889e-08
-1.28712e-10
7.06479e-08
-1.24005e-10
7.07044e-08
-1.18945e-10
7.07585e-08
-1.13827e-10
7.08102e-08
-1.08953e-10
7.08598e-08
-1.04619e-10
7.09078e-08
-1.01091e-10
7.09546e-08
-9.85975e-11
7.10008e-08
-9.73093e-11
7.10471e-08
-9.73377e-11
7.1094e-08
-9.87256e-11
7.11423e-08
-1.01445e-10
7.11924e-08
-1.05397e-10
7.12449e-08
-1.10419e-10
7.13001e-08
-1.16286e-10
7.13584e-08
-1.22725e-10
7.14198e-08
-1.29421e-10
7.14841e-08
-1.36026e-10
7.15513e-08
-1.42175e-10
7.16207e-08
-1.47489e-10
7.16919e-08
-1.51588e-10
7.1764e-08
-1.54097e-10
7.1836e-08
-1.54651e-10
7.19068e-08
-1.529e-10
7.1975e-08
-1.48504e-10
7.20393e-08
-1.41133e-10
7.20978e-08
-1.30455e-10
7.21488e-08
-1.1613e-10
7.21902e-08
-9.77852e-11
7.22199e-08
-7.49886e-11
7.22351e-08
-4.72005e-11
7.22329e-08
-1.37159e-11
7.22098e-08
2.64834e-11
7.21615e-08
7.48109e-11
7.20829e-08
1.33039e-10
7.1968e-08
2.03391e-10
7.1809e-08
2.88705e-10
7.15964e-08
3.92605e-10
7.13182e-08
5.19657e-10
7.09595e-08
6.75538e-10
7.05022e-08
8.67175e-10
6.99236e-08
1.10286e-09
6.91965e-08
1.3923e-09
6.82883e-08
1.74653e-09
6.71603e-08
2.17775e-09
6.57682e-08
2.69882e-09
6.40615e-08
3.32261e-09
6.1985e-08
4.06087e-09
5.94798e-08
4.92266e-09
5.64865e-08
5.9122e-09
5.2949e-08
7.02591e-09
4.88204e-08
8.24839e-09
4.40718e-08
9.54704e-09
3.87037e-08
1.08643e-08
3.27623e-08
1.21064e-08
2.63611e-08
1.31255e-08
1.97086e-08
1.36894e-08
1.31341e-08
1.34431e-08
7.03903e-09
1.18179e-08
1.9216e-09
8.16725e-09
-1.12016e-09
1.82472e-09
-6.86769e-09
2.39752e-09
6.72065e-13
4.24978e-09
6.91893e-09
8.69473e-14
-4.96828e-09
1.19507e-08
1.21408e-13
-1.15298e-08
1.73286e-08
1.07758e-13
-1.57783e-08
2.2994e-08
9.86034e-14
-1.83436e-08
2.88583e-08
8.92673e-14
-1.96381e-08
3.47799e-08
6.67623e-14
-2.00066e-08
4.0621e-08
3.87672e-14
-1.96947e-08
4.62606e-08
1.43668e-14
-1.88848e-08
5.15999e-08
-1.8346e-15
-1.77141e-08
5.65626e-08
-1.03317e-14
-1.62887e-08
6.10934e-08
-1.36054e-14
-1.46936e-08
6.51557e-08
-1.39755e-14
-1.29984e-08
6.87297e-08
-1.2693e-14
-1.12607e-08
7.18097e-08
-1.01735e-14
-9.52874e-09
7.44021e-08
-6.60689e-15
-7.84202e-09
7.65234e-08
-2.2744e-15
-6.23272e-09
7.8198e-08
2.37078e-15
-4.7261e-09
7.94567e-08
6.76643e-15
-3.3411e-09
8.03345e-08
1.04198e-14
-2.09097e-09
8.08693e-08
1.31104e-14
-9.83772e-10
8.11008e-08
1.49311e-14
-2.306e-11
8.1071e-08
1.61802e-14
7.90963e-10
8.0822e-08
1.71192e-14
1.46265e-09
8.03943e-08
1.76579e-14
1.99996e-09
7.98254e-08
1.76046e-14
2.41216e-09
7.91502e-08
1.687e-14
2.7099e-09
7.84002e-08
1.55139e-14
2.90483e-09
7.76034e-08
1.372e-14
3.0092e-09
7.67839e-08
1.17391e-14
3.03551e-09
7.59625e-08
9.80706e-15
2.99617e-09
7.51562e-08
8.07518e-15
2.9032e-09
7.43786e-08
6.57702e-15
2.768e-09
7.36403e-08
5.26509e-15
2.6011e-09
7.2949e-08
4.08081e-15
2.41207e-09
7.23099e-08
3.00869e-15
2.20935e-09
7.17258e-08
2.07415e-15
2.00026e-09
7.11979e-08
1.31928e-15
1.79089e-09
7.07259e-08
7.781e-16
1.5862e-09
7.03081e-08
4.58661e-16
1.39006e-09
6.99421e-08
3.37735e-16
1.20528e-09
6.96248e-08
3.6705e-16
1.03378e-09
6.93526e-08
4.87056e-16
8.76665e-10
6.91218e-08
6.3723e-16
7.34367e-10
6.89286e-08
7.66046e-16
6.06753e-10
6.87694e-08
8.4041e-16
4.93258e-10
6.86406e-08
8.54251e-16
3.92994e-10
6.85389e-08
8.26109e-16
3.04854e-10
6.84614e-08
7.77289e-16
2.27601e-10
6.84053e-08
7.12182e-16
1.59953e-10
6.83683e-08
6.21625e-16
1.0065e-10
6.83481e-08
5.07542e-16
4.85145e-11
6.83429e-08
3.90098e-16
2.5078e-12
6.83511e-08
2.88837e-16
-3.82153e-11
6.83714e-08
2.03269e-16
-7.43468e-11
6.84026e-08
1.19626e-16
-1.06487e-10
6.84434e-08
3.25936e-17
-1.35119e-10
6.8493e-08
-4.97768e-17
-1.60601e-10
6.85502e-08
-1.14448e-16
-1.83175e-10
6.86141e-08
-1.52232e-16
-2.02986e-10
6.86838e-08
-1.61772e-16
-2.20095e-10
6.87583e-08
-1.45428e-16
-2.34509e-10
6.88367e-08
-1.06587e-16
-2.46197e-10
6.8918e-08
-4.78241e-17
-2.55116e-10
6.90014e-08
2.98308e-17
-2.6122e-10
6.90858e-08
1.22854e-16
-2.64481e-10
6.91702e-08
2.22464e-16
-2.64896e-10
6.92539e-08
3.13264e-16
-2.62493e-10
6.93359e-08
3.77366e-16
-2.57337e-10
6.94154e-08
4.02329e-16
-2.49536e-10
6.94915e-08
3.87203e-16
-2.39234e-10
6.95635e-08
3.45622e-16
-2.26624e-10
6.96308e-08
3.01224e-16
-2.1194e-10
6.96928e-08
2.79404e-16
-1.95465e-10
6.97491e-08
2.96752e-16
-1.77529e-10
6.97994e-08
3.56683e-16
-1.58515e-10
6.98435e-08
4.49602e-16
-1.38856e-10
6.98813e-08
5.57485e-16
-1.19036e-10
6.99131e-08
6.62469e-16
-9.95859e-11
6.99392e-08
7.513e-16
-8.1076e-11
6.99602e-08
8.1769e-16
-6.4105e-11
6.99767e-08
8.62804e-16
-4.92848e-11
6.99896e-08
8.90897e-16
-3.72211e-11
7.00002e-08
9.06768e-16
-2.8491e-11
7.00095e-08
9.12963e-16
-2.36181e-11
7.00191e-08
9.11028e-16
-2.30475e-11
7.00303e-08
9.03185e-16
-2.71201e-11
7.00447e-08
8.9331e-16
-3.605e-11
7.00638e-08
8.82893e-16
-4.99051e-11
7.00891e-08
8.70715e-16
-6.85931e-11
7.0122e-08
8.57588e-16
-9.1854e-11
7.01636e-08
8.43973e-16
-1.19261e-10
7.02151e-08
8.24637e-16
-1.50227e-10
7.02772e-08
7.94729e-16
-1.84025e-10
7.03504e-08
7.63544e-16
-2.19806e-10
7.04351e-08
7.48214e-16
-2.56634e-10
7.05312e-08
7.50309e-16
-2.93519e-10
7.06382e-08
7.53675e-16
-3.29453e-10
7.07557e-08
7.55818e-16
-3.63452e-10
7.08825e-08
7.68936e-16
-3.94591e-10
7.10176e-08
7.83162e-16
-4.22042e-10
7.11596e-08
7.56078e-16
-4.45103e-10
7.1307e-08
6.74645e-16
-4.63225e-10
7.14581e-08
5.92369e-16
-4.76028e-10
7.16112e-08
5.66118e-16
-4.83311e-10
7.17648e-08
5.81498e-16
-4.85058e-10
7.19171e-08
5.92243e-16
-4.81426e-10
7.20667e-08
6.07459e-16
-4.72741e-10
7.22121e-08
6.7217e-16
-4.59476e-10
7.23523e-08
7.63742e-16
-4.42229e-10
7.24862e-08
7.90778e-16
-4.21694e-10
7.26131e-08
7.18855e-16
-3.98638e-10
7.27325e-08
6.27066e-16
-3.73868e-10
7.28441e-08
6.01116e-16
-3.48201e-10
7.29479e-08
6.30028e-16
-3.22435e-10
7.30441e-08
6.61707e-16
-2.97322e-10
7.31331e-08
6.98159e-16
-2.73545e-10
7.32154e-08
7.59711e-16
-2.51695e-10
7.32919e-08
7.95299e-16
-2.32254e-10
7.33633e-08
7.23824e-16
-2.15583e-10
7.34305e-08
5.59732e-16
-2.01913e-10
7.34943e-08
4.1868e-16
-1.91339e-10
7.35558e-08
3.76102e-16
-1.83827e-10
7.36157e-08
3.88412e-16
-1.79215e-10
7.36747e-08
3.76599e-16
-1.77228e-10
7.37336e-08
3.21365e-16
-1.77496e-10
7.37927e-08
2.39242e-16
-1.7957e-10
7.38526e-08
1.18847e-16
-1.82949e-10
7.39133e-08
-4.83052e-17
-1.87106e-10
7.39749e-08
-2.03748e-16
-1.91516e-10
7.40374e-08
-2.53862e-16
-1.95679e-10
7.41005e-08
-1.72843e-16
-1.99146e-10
7.41639e-08
-3.30603e-17