/*--------------------------------*- C++ -*----------------------------------*\
  =========                 |
  \\      /  F ield         | OpenFOAM: The Open Source CFD Toolbox
   \\    /   O peration     | Website:  https://openfoam.org
    \\  /    A nd           | Version:  8
     \\/     M anipulation  |
\*---------------------------------------------------------------------------*/
FoamFile
{
    version     2.0;
    format      ascii;
    class       volScalarField;
    location    "400";
    object      T;
}
// * * * * * * * * * * * * * * * * * * * * * * * * * * * * * * * * * * * * * //

dimensions      [0 0 0 1 0 0 0];

internalField   nonuniform List<scalar> 
46000
(
309.513
307.809
306.298
305.305
304.655
304.269
304.011
303.833
303.711
303.631
303.582
303.559
303.558
303.573
303.604
303.648
303.703
303.767
303.839
303.918
304.003
304.089
304.177
304.267
304.358
304.449
304.541
304.633
304.723
304.812
304.898
304.981
305.061
305.137
305.208
305.276
305.339
305.398
305.453
305.504
305.551
305.594
305.634
305.672
305.706
305.738
305.768
305.795
305.821
305.845
305.867
305.888
305.908
305.926
305.943
305.959
305.974
305.987
306
306.013
306.024
306.035
306.045
306.054
306.063
306.072
306.08
306.088
306.095
306.103
306.11
306.117
306.124
306.13
306.137
306.144
306.15
306.157
306.164
306.17
306.176
306.183
306.189
306.195
306.2
306.206
306.211
306.215
306.219
306.223
306.225
306.228
306.229
306.23
306.23
306.23
306.229
306.227
306.225
306.222
306.219
306.215
306.212
306.208
306.204
306.2
306.196
306.192
306.189
306.186
306.183
306.18
306.178
306.176
306.174
306.172
306.171
306.17
306.169
306.169
306.168
306.167
306.167
306.167
306.166
306.165
306.165
306.164
306.163
306.163
306.162
306.161
306.16
306.159
306.158
306.157
306.156
306.155
306.155
306.154
306.154
306.153
306.153
306.153
306.152
306.152
306.152
306.151
306.151
306.151
306.15
306.149
306.148
306.147
306.146
306.145
306.143
306.142
306.14
306.138
306.137
306.135
306.133
306.131
306.13
306.129
306.128
306.127
306.126
306.126
306.127
306.128
306.129
306.132
306.135
306.14
306.147
306.156
306.167
306.182
306.202
306.227
306.258
306.298
306.348
306.411
306.488
306.585
306.704
306.851
307.031
307.254
307.527
307.861
308.263
308.726
309.229
309.642
309.943
310.098
309.512
307.808
306.298
305.305
304.655
304.269
304.011
303.833
303.711
303.631
303.582
303.559
303.558
303.574
303.604
303.648
303.703
303.767
303.839
303.918
304.003
304.09
304.177
304.267
304.358
304.449
304.541
304.633
304.723
304.812
304.898
304.981
305.061
305.137
305.209
305.276
305.339
305.398
305.453
305.504
305.551
305.594
305.635
305.672
305.706
305.738
305.768
305.795
305.821
305.845
305.868
305.888
305.908
305.926
305.943
305.959
305.974
305.987
306
306.013
306.024
306.035
306.045
306.054
306.063
306.072
306.08
306.088
306.095
306.103
306.11
306.117
306.124
306.131
306.137
306.144
306.151
306.157
306.164
306.17
306.176
306.183
306.189
306.195
306.2
306.206
306.211
306.215
306.219
306.223
306.225
306.228
306.229
306.23
306.23
306.23
306.229
306.227
306.225
306.222
306.219
306.215
306.212
306.208
306.204
306.2
306.196
306.193
306.189
306.186
306.183
306.18
306.178
306.176
306.174
306.172
306.171
306.17
306.169
306.169
306.168
306.168
306.167
306.167
306.166
306.166
306.165
306.164
306.163
306.163
306.162
306.161
306.16
306.159
306.158
306.157
306.156
306.155
306.155
306.154
306.154
306.153
306.153
306.153
306.152
306.152
306.152
306.151
306.151
306.151
306.15
306.149
306.148
306.147
306.146
306.145
306.143
306.142
306.14
306.138
306.137
306.135
306.133
306.131
306.13
306.129
306.128
306.127
306.126
306.127
306.127
306.128
306.129
306.132
306.135
306.14
306.147
306.156
306.167
306.182
306.202
306.227
306.258
306.298
306.348
306.411
306.489
306.585
306.704
306.851
307.031
307.254
307.527
307.861
308.263
308.726
309.229
309.642
309.943
310.098
305.718
303.859
302.663
301.995
301.594
301.354
301.21
301.126
301.083
301.069
301.078
301.104
301.145
301.197
301.259
301.33
301.407
301.491
301.581
301.674
301.771
301.872
301.973
302.075
302.176
302.276
302.375
302.472
302.567
302.659
302.748
302.833
302.915
302.992
303.065
303.135
303.2
303.261
303.318
303.372
303.422
303.469
303.513
303.554
303.593
303.629
303.663
303.695
303.725
303.754
303.781
303.806
303.83
303.853
303.875
303.895
303.915
303.933
303.951
303.967
303.983
303.999
304.013
304.027
304.04
304.053
304.065
304.077
304.089
304.1
304.111
304.122
304.133
304.143
304.153
304.163
304.173
304.183
304.193
304.203
304.212
304.221
304.23
304.239
304.247
304.255
304.262
304.269
304.275
304.281
304.286
304.291
304.295
304.298
304.3
304.302
304.303
304.304
304.304
304.304
304.303
304.302
304.3
304.299
304.297
304.296
304.294
304.293
304.291
304.29
304.289
304.289
304.289
304.289
304.289
304.289
304.29
304.291
304.292
304.293
304.294
304.295
304.297
304.298
304.299
304.301
304.302
304.303
304.304
304.305
304.306
304.306
304.307
304.308
304.308
304.309
304.31
304.311
304.312
304.312
304.313
304.314
304.315
304.316
304.317
304.318
304.319
304.32
304.321
304.322
304.322
304.323
304.323
304.323
304.323
304.323
304.323
304.323
304.323
304.322
304.322
304.321
304.321
304.321
304.32
304.321
304.321
304.321
304.322
304.323
304.325
304.327
304.33
304.334
304.339
304.345
304.353
304.363
304.375
304.391
304.411
304.436
304.468
304.507
304.557
304.618
304.694
304.788
304.903
305.045
305.219
305.431
305.688
305.994
306.348
306.73
307.095
307.36
307.475
307.395
305.717
303.859
302.662
301.995
301.594
301.354
301.21
301.126
301.083
301.069
301.078
301.104
301.145
301.197
301.259
301.33
301.407
301.492
301.581
301.674
301.772
301.872
301.973
302.075
302.176
302.276
302.375
302.472
302.567
302.659
302.748
302.833
302.915
302.992
303.066
303.135
303.2
303.261
303.319
303.372
303.422
303.469
303.513
303.554
303.593
303.629
303.663
303.695
303.725
303.754
303.781
303.806
303.83
303.853
303.875
303.895
303.915
303.933
303.951
303.968
303.983
303.999
304.013
304.027
304.04
304.053
304.065
304.077
304.089
304.1
304.111
304.122
304.133
304.143
304.153
304.164
304.174
304.183
304.193
304.203
304.212
304.221
304.23
304.239
304.247
304.255
304.262
304.269
304.275
304.281
304.286
304.291
304.295
304.298
304.3
304.302
304.303
304.304
304.304
304.304
304.303
304.302
304.3
304.299
304.297
304.296
304.294
304.293
304.291
304.29
304.29
304.289
304.289
304.289
304.289
304.289
304.29
304.291
304.292
304.293
304.294
304.296
304.297
304.298
304.299
304.301
304.302
304.303
304.304
304.305
304.306
304.306
304.307
304.308
304.309
304.309
304.31
304.311
304.312
304.312
304.313
304.314
304.315
304.316
304.317
304.318
304.319
304.32
304.321
304.322
304.322
304.323
304.323
304.323
304.323
304.323
304.323
304.323
304.323
304.322
304.322
304.321
304.321
304.321
304.321
304.321
304.321
304.321
304.322
304.323
304.325
304.327
304.33
304.334
304.339
304.345
304.353
304.363
304.375
304.391
304.411
304.436
304.468
304.507
304.557
304.618
304.694
304.788
304.903
305.045
305.219
305.431
305.688
305.994
306.348
306.73
307.095
307.36
307.475
307.395
302.923
301.649
300.985
300.594
300.354
300.209
300.124
300.081
300.067
300.074
300.097
300.134
300.182
300.239
300.304
300.376
300.454
300.537
300.625
300.717
300.812
300.91
301.009
301.109
301.209
301.308
301.406
301.502
301.595
301.686
301.774
301.859
301.94
302.017
302.09
302.16
302.225
302.287
302.345
302.4
302.451
302.5
302.545
302.588
302.628
302.665
302.701
302.735
302.766
302.797
302.825
302.852
302.878
302.902
302.925
302.947
302.968
302.988
303.007
303.025
303.043
303.059
303.075
303.09
303.105
303.119
303.133
303.146
303.159
303.172
303.184
303.196
303.208
303.219
303.231
303.242
303.253
303.264
303.275
303.285
303.296
303.306
303.316
303.325
303.334
303.343
303.351
303.358
303.366
303.372
303.378
303.383
303.387
303.391
303.394
303.397
303.399
303.4
303.401
303.401
303.401
303.401
303.4
303.399
303.398
303.397
303.396
303.396
303.395
303.395
303.395
303.395
303.395
303.396
303.396
303.398
303.399
303.4
303.402
303.404
303.406
303.408
303.409
303.411
303.413
303.415
303.417
303.418
303.42
303.422
303.423
303.424
303.426
303.427
303.428
303.43
303.431
303.432
303.434
303.435
303.436
303.438
303.439
303.441
303.442
303.444
303.445
303.446
303.447
303.448
303.449
303.45
303.451
303.452
303.452
303.452
303.453
303.453
303.453
303.453
303.453
303.453
303.453
303.453
303.453
303.454
303.454
303.455
303.457
303.459
303.461
303.463
303.467
303.471
303.477
303.484
303.492
303.503
303.516
303.533
303.554
303.581
303.614
303.654
303.705
303.768
303.844
303.938
304.053
304.193
304.362
304.565
304.806
305.086
305.399
305.726
306.031
306.26
306.365
306.317
302.922
301.649
300.985
300.594
300.354
300.209
300.124
300.081
300.067
300.074
300.097
300.134
300.182
300.239
300.304
300.376
300.454
300.537
300.625
300.717
300.812
300.91
301.009
301.109
301.209
301.308
301.406
301.502
301.595
301.686
301.774
301.859
301.94
302.017
302.09
302.16
302.225
302.287
302.345
302.4
302.451
302.5
302.545
302.588
302.628
302.665
302.701
302.735
302.767
302.797
302.825
302.852
302.878
302.902
302.925
302.947
302.968
302.988
303.007
303.025
303.043
303.059
303.075
303.09
303.105
303.119
303.133
303.146
303.159
303.172
303.184
303.196
303.208
303.219
303.231
303.242
303.253
303.264
303.275
303.285
303.296
303.306
303.316
303.325
303.334
303.343
303.351
303.359
303.366
303.372
303.378
303.383
303.388
303.391
303.394
303.397
303.399
303.4
303.401
303.401
303.401
303.401
303.4
303.399
303.398
303.397
303.397
303.396
303.395
303.395
303.395
303.395
303.395
303.396
303.397
303.398
303.399
303.4
303.402
303.404
303.406
303.408
303.409
303.411
303.413
303.415
303.417
303.419
303.42
303.422
303.423
303.424
303.426
303.427
303.428
303.43
303.431
303.432
303.434
303.435
303.436
303.438
303.439
303.441
303.442
303.444
303.445
303.446
303.447
303.449
303.45
303.45
303.451
303.452
303.452
303.452
303.453
303.453
303.453
303.453
303.453
303.453
303.453
303.453
303.453
303.454
303.455
303.456
303.457
303.459
303.461
303.463
303.467
303.471
303.477
303.484
303.492
303.503
303.516
303.533
303.554
303.581
303.614
303.655
303.705
303.768
303.844
303.938
304.053
304.193
304.362
304.565
304.806
305.086
305.399
305.726
306.031
306.26
306.365
306.317
300.762
300.182
299.891
299.711
299.596
299.526
299.488
299.475
299.479
299.499
299.529
299.57
299.619
299.676
299.739
299.808
299.883
299.962
300.046
300.133
300.223
300.316
300.41
300.506
300.601
300.697
300.791
300.883
300.974
301.062
301.147
301.23
301.309
301.384
301.456
301.524
301.589
301.65
301.708
301.762
301.813
301.862
301.907
301.95
301.99
302.028
302.064
302.099
302.131
302.161
302.19
302.218
302.244
302.269
302.292
302.315
302.336
302.356
302.376
302.394
302.412
302.429
302.446
302.461
302.477
302.491
302.506
302.519
302.533
302.546
302.559
302.571
302.584
302.596
302.608
302.62
302.631
302.642
302.654
302.665
302.675
302.686
302.696
302.706
302.715
302.724
302.732
302.74
302.747
302.754
302.76
302.765
302.77
302.774
302.777
302.78
302.782
302.784
302.785
302.785
302.785
302.785
302.785
302.785
302.784
302.783
302.783
302.783
302.782
302.782
302.783
302.783
302.784
302.785
302.786
302.787
302.789
302.791
302.793
302.795
302.797
302.799
302.802
302.804
302.806
302.808
302.81
302.812
302.814
302.816
302.818
302.82
302.821
302.823
302.825
302.826
302.828
302.829
302.831
302.833
302.834
302.836
302.838
302.839
302.841
302.843
302.844
302.846
302.847
302.848
302.849
302.85
302.851
302.852
302.853
302.853
302.854
302.854
302.854
302.854
302.855
302.855
302.855
302.855
302.856
302.857
302.858
302.859
302.86
302.862
302.865
302.868
302.872
302.877
302.883
302.89
302.9
302.911
302.926
302.944
302.967
302.995
303.03
303.073
303.126
303.19
303.27
303.366
303.482
303.621
303.787
303.984
304.212
304.472
304.755
305.047
305.318
305.534
305.662
305.679
300.761
300.181
299.891
299.711
299.596
299.526
299.488
299.475
299.48
299.499
299.53
299.57
299.619
299.676
299.739
299.808
299.883
299.962
300.046
300.133
300.223
300.316
300.41
300.506
300.601
300.697
300.791
300.883
300.974
301.062
301.147
301.23
301.309
301.384
301.456
301.524
301.589
301.65
301.708
301.762
301.814
301.862
301.907
301.95
301.99
302.029
302.065
302.099
302.131
302.161
302.19
302.218
302.244
302.269
302.292
302.315
302.336
302.356
302.376
302.395
302.412
302.429
302.446
302.461
302.477
302.491
302.506
302.519
302.533
302.546
302.559
302.571
302.584
302.596
302.608
302.62
302.631
302.643
302.654
302.665
302.675
302.686
302.696
302.706
302.715
302.724
302.732
302.74
302.747
302.754
302.76
302.765
302.77
302.774
302.777
302.78
302.782
302.784
302.785
302.785
302.785
302.785
302.785
302.785
302.784
302.783
302.783
302.783
302.782
302.782
302.783
302.783
302.784
302.785
302.786
302.787
302.789
302.791
302.793
302.795
302.797
302.8
302.802
302.804
302.806
302.808
302.81
302.812
302.814
302.816
302.818
302.82
302.821
302.823
302.825
302.826
302.828
302.829
302.831
302.833
302.834
302.836
302.838
302.839
302.841
302.843
302.844
302.846
302.847
302.848
302.85
302.851
302.851
302.852
302.853
302.853
302.854
302.854
302.854
302.854
302.855
302.855
302.855
302.855
302.856
302.857
302.858
302.859
302.86
302.862
302.865
302.868
302.872
302.877
302.883
302.89
302.9
302.911
302.926
302.944
302.967
302.995
303.03
303.073
303.126
303.191
303.27
303.366
303.482
303.621
303.787
303.984
304.212
304.472
304.755
305.047
305.318
305.534
305.662
305.679
299.292
299.222
299.165
299.118
299.085
299.067
299.063
299.07
299.088
299.115
299.15
299.192
299.241
299.295
299.355
299.421
299.491
299.565
299.643
299.724
299.809
299.896
299.985
300.075
300.165
300.256
300.345
300.434
300.52
300.605
300.686
300.766
300.842
300.914
300.984
301.05
301.113
301.173
301.229
301.282
301.332
301.379
301.424
301.466
301.506
301.544
301.579
301.613
301.645
301.675
301.704
301.731
301.757
301.781
301.805
301.827
301.848
301.869
301.888
301.907
301.924
301.941
301.958
301.974
301.989
302.004
302.018
302.032
302.046
302.059
302.072
302.085
302.097
302.109
302.122
302.134
302.145
302.157
302.168
302.179
302.19
302.201
302.211
302.221
302.23
302.239
302.247
302.255
302.262
302.269
302.275
302.28
302.285
302.289
302.292
302.295
302.297
302.299
302.3
302.3
302.301
302.301
302.3
302.3
302.3
302.299
302.299
302.299
302.299
302.299
302.3
302.3
302.301
302.303
302.304
302.306
302.308
302.31
302.312
302.315
302.317
302.32
302.322
302.324
302.327
302.329
302.332
302.334
302.336
302.338
302.34
302.342
302.344
302.346
302.347
302.349
302.351
302.353
302.355
302.357
302.358
302.36
302.362
302.364
302.366
302.367
302.369
302.371
302.372
302.373
302.375
302.376
302.377
302.377
302.378
302.379
302.379
302.38
302.38
302.38
302.38
302.381
302.381
302.382
302.382
302.383
302.384
302.386
302.388
302.39
302.393
302.396
302.4
302.406
302.412
302.42
302.431
302.443
302.459
302.479
302.503
302.533
302.57
302.616
302.672
302.74
302.822
302.921
303.039
303.179
303.343
303.535
303.754
303.998
304.261
304.528
304.78
304.991
305.141
305.208
299.292
299.222
299.165
299.118
299.085
299.067
299.063
299.07
299.088
299.115
299.15
299.192
299.241
299.295
299.355
299.421
299.491
299.565
299.643
299.724
299.809
299.896
299.985
300.075
300.165
300.256
300.345
300.434
300.52
300.605
300.687
300.766
300.842
300.914
300.984
301.05
301.113
301.173
301.229
301.282
301.332
301.38
301.424
301.466
301.506
301.544
301.579
301.613
301.645
301.675
301.704
301.731
301.757
301.781
301.805
301.827
301.848
301.869
301.888
301.907
301.924
301.942
301.958
301.974
301.989
302.004
302.018
302.032
302.046
302.059
302.072
302.085
302.097
302.11
302.122
302.134
302.145
302.157
302.168
302.179
302.19
302.201
302.211
302.221
302.23
302.239
302.247
302.255
302.262
302.269
302.275
302.28
302.285
302.289
302.292
302.295
302.297
302.299
302.3
302.3
302.301
302.301
302.3
302.3
302.3
302.299
302.299
302.299
302.299
302.299
302.3
302.301
302.302
302.303
302.304
302.306
302.308
302.31
302.312
302.315
302.317
302.32
302.322
302.325
302.327
302.329
302.332
302.334
302.336
302.338
302.34
302.342
302.344
302.346
302.348
302.349
302.351
302.353
302.355
302.357
302.358
302.36
302.362
302.364
302.366
302.367
302.369
302.371
302.372
302.373
302.375
302.376
302.377
302.378
302.378
302.379
302.379
302.38
302.38
302.38
302.381
302.381
302.381
302.382
302.382
302.383
302.384
302.386
302.388
302.39
302.393
302.396
302.4
302.406
302.412
302.42
302.431
302.443
302.459
302.479
302.503
302.533
302.57
302.616
302.672
302.74
302.822
302.921
303.039
303.179
303.344
303.535
303.754
303.998
304.261
304.528
304.78
304.991
305.141
305.208
298.653
298.702
298.727
298.739
298.747
298.757
298.772
298.791
298.817
298.847
298.884
298.925
298.972
299.023
299.079
299.14
299.205
299.273
299.346
299.422
299.5
299.581
299.664
299.748
299.833
299.919
300.003
300.087
300.169
300.249
300.327
300.402
300.474
300.544
300.611
300.674
300.734
300.792
300.846
300.897
300.946
300.991
301.035
301.075
301.114
301.151
301.185
301.218
301.249
301.278
301.306
301.333
301.358
301.382
301.405
301.426
301.447
301.467
301.486
301.504
301.521
301.538
301.554
301.57
301.585
301.6
301.614
301.628
301.641
301.654
301.667
301.68
301.692
301.705
301.717
301.729
301.74
301.752
301.763
301.774
301.785
301.795
301.805
301.815
301.824
301.833
301.841
301.849
301.856
301.862
301.868
301.873
301.878
301.882
301.885
301.887
301.889
301.891
301.892
301.892
301.893
301.893
301.893
301.892
301.892
301.892
301.892
301.892
301.892
301.893
301.893
301.894
301.896
301.897
301.899
301.901
301.903
301.905
301.908
301.91
301.913
301.915
301.918
301.921
301.923
301.926
301.928
301.931
301.933
301.935
301.937
301.939
301.941
301.943
301.945
301.947
301.949
301.951
301.953
301.955
301.957
301.959
301.961
301.963
301.965
301.966
301.968
301.97
301.971
301.973
301.974
301.975
301.976
301.977
301.977
301.978
301.978
301.979
301.979
301.979
301.98
301.98
301.981
301.981
301.982
301.983
301.984
301.986
301.988
301.99
301.993
301.997
302.001
302.007
302.014
302.023
302.034
302.048
302.065
302.087
302.113
302.146
302.185
302.234
302.293
302.365
302.45
302.552
302.673
302.814
302.978
303.166
303.378
303.611
303.858
304.11
304.349
304.559
304.728
304.846
298.653
298.702
298.727
298.739
298.747
298.757
298.772
298.791
298.817
298.847
298.884
298.925
298.972
299.023
299.079
299.14
299.205
299.274
299.346
299.422
299.5
299.581
299.664
299.749
299.834
299.919
300.003
300.087
300.169
300.249
300.327
300.402
300.474
300.544
300.611
300.674
300.734
300.792
300.846
300.897
300.946
300.991
301.035
301.075
301.114
301.151
301.185
301.218
301.249
301.278
301.306
301.333
301.358
301.382
301.405
301.426
301.447
301.467
301.486
301.504
301.521
301.538
301.554
301.57
301.585
301.6
301.614
301.628
301.641
301.654
301.667
301.68
301.692
301.705
301.717
301.729
301.74
301.752
301.763
301.774
301.785
301.795
301.805
301.815
301.824
301.833
301.841
301.849
301.856
301.863
301.868
301.873
301.878
301.882
301.885
301.887
301.889
301.891
301.892
301.892
301.893
301.893
301.893
301.892
301.892
301.892
301.892
301.892
301.892
301.893
301.893
301.894
301.896
301.897
301.899
301.901
301.903
301.905
301.908
301.91
301.913
301.915
301.918
301.921
301.923
301.926
301.928
301.931
301.933
301.935
301.937
301.939
301.941
301.943
301.945
301.947
301.949
301.951
301.953
301.955
301.957
301.959
301.961
301.963
301.965
301.966
301.968
301.97
301.971
301.973
301.974
301.975
301.976
301.977
301.977
301.978
301.978
301.979
301.979
301.98
301.98
301.98
301.981
301.981
301.982
301.983
301.984
301.986
301.988
301.99
301.993
301.997
302.001
302.007
302.014
302.023
302.034
302.048
302.065
302.087
302.113
302.146
302.185
302.234
302.293
302.365
302.45
302.552
302.673
302.814
302.978
303.166
303.378
303.611
303.859
304.11
304.349
304.56
304.729
304.846
298.388
298.442
298.48
298.508
298.53
298.552
298.574
298.598
298.626
298.657
298.693
298.732
298.776
298.823
298.875
298.931
298.99
299.054
299.12
299.19
299.263
299.338
299.415
299.493
299.573
299.652
299.731
299.81
299.887
299.963
300.036
300.107
300.176
300.242
300.305
300.365
300.423
300.477
300.529
300.578
300.624
300.668
300.709
300.748
300.785
300.82
300.853
300.885
300.914
300.943
300.969
300.995
301.019
301.042
301.064
301.085
301.105
301.124
301.142
301.16
301.176
301.193
301.208
301.223
301.238
301.252
301.266
301.279
301.293
301.306
301.318
301.331
301.343
301.355
301.367
301.379
301.39
301.401
301.413
301.423
301.434
301.444
301.454
301.463
301.472
301.481
301.489
301.496
301.503
301.509
301.515
301.519
301.524
301.527
301.53
301.532
301.534
301.536
301.536
301.537
301.537
301.537
301.537
301.537
301.537
301.537
301.537
301.537
301.537
301.538
301.539
301.54
301.541
301.543
301.545
301.547
301.549
301.552
301.555
301.557
301.56
301.563
301.566
301.568
301.571
301.574
301.576
301.579
301.581
301.583
301.586
301.588
301.59
301.592
301.594
301.596
301.598
301.6
301.602
301.604
301.606
301.608
301.61
301.612
301.614
301.616
301.617
301.619
301.62
301.622
301.623
301.624
301.625
301.626
301.626
301.627
301.627
301.628
301.628
301.629
301.629
301.629
301.63
301.63
301.631
301.632
301.633
301.635
301.637
301.64
301.643
301.647
301.652
301.658
301.666
301.676
301.688
301.703
301.722
301.745
301.773
301.809
301.851
301.903
301.966
302.041
302.131
302.236
302.359
302.503
302.667
302.853
303.059
303.284
303.521
303.761
303.993
304.204
304.387
304.542
298.388
298.442
298.48
298.508
298.53
298.552
298.574
298.598
298.626
298.657
298.693
298.732
298.776
298.823
298.875
298.931
298.991
299.054
299.12
299.19
299.263
299.338
299.415
299.493
299.573
299.652
299.732
299.81
299.887
299.963
300.036
300.107
300.176
300.242
300.305
300.365
300.423
300.477
300.529
300.578
300.624
300.668
300.709
300.748
300.785
300.82
300.853
300.885
300.915
300.943
300.969
300.995
301.019
301.042
301.064
301.085
301.105
301.124
301.142
301.16
301.177
301.193
301.208
301.223
301.238
301.252
301.266
301.28
301.293
301.306
301.318
301.331
301.343
301.355
301.367
301.379
301.39
301.401
301.413
301.423
301.434
301.444
301.454
301.463
301.472
301.481
301.489
301.496
301.503
301.509
301.515
301.52
301.524
301.527
301.53
301.532
301.534
301.536
301.536
301.537
301.537
301.537
301.537
301.537
301.537
301.537
301.537
301.537
301.537
301.538
301.539
301.54
301.541
301.543
301.545
301.547
301.549
301.552
301.555
301.557
301.56
301.563
301.566
301.568
301.571
301.574
301.576
301.579
301.581
301.583
301.586
301.588
301.59
301.592
301.594
301.596
301.598
301.6
301.602
301.604
301.606
301.608
301.61
301.612
301.614
301.616
301.617
301.619
301.621
301.622
301.623
301.624
301.625
301.626
301.627
301.627
301.628
301.628
301.628
301.629
301.629
301.629
301.63
301.63
301.631
301.632
301.633
301.635
301.637
301.64
301.643
301.647
301.652
301.658
301.666
301.676
301.688
301.703
301.722
301.745
301.773
301.809
301.851
301.904
301.966
302.041
302.131
302.236
302.36
302.503
302.667
302.853
303.059
303.284
303.521
303.761
303.993
304.204
304.387
304.542
298.276
298.313
298.345
298.371
298.395
298.418
298.441
298.466
298.493
298.523
298.556
298.592
298.632
298.675
298.722
298.773
298.828
298.885
298.946
299.01
299.077
299.146
299.217
299.29
299.364
299.438
299.512
299.585
299.657
299.728
299.797
299.864
299.928
299.99
300.05
300.107
300.161
300.212
300.261
300.308
300.351
300.393
300.432
300.469
300.504
300.537
300.568
300.598
300.626
300.653
300.678
300.702
300.725
300.747
300.767
300.787
300.806
300.824
300.842
300.858
300.874
300.89
300.905
300.919
300.933
300.947
300.96
300.973
300.986
300.998
301.011
301.023
301.035
301.047
301.058
301.069
301.081
301.092
301.102
301.113
301.123
301.133
301.142
301.152
301.16
301.168
301.176
301.183
301.189
301.195
301.2
301.205
301.209
301.212
301.214
301.216
301.218
301.219
301.22
301.22
301.22
301.22
301.22
301.22
301.22
301.22
301.22
301.22
301.221
301.222
301.223
301.224
301.226
301.227
301.23
301.232
301.234
301.237
301.24
301.242
301.245
301.248
301.251
301.254
301.257
301.259
301.262
301.265
301.267
301.269
301.272
301.274
301.276
301.278
301.28
301.282
301.284
301.287
301.289
301.291
301.293
301.295
301.297
301.299
301.3
301.302
301.304
301.305
301.307
301.308
301.309
301.31
301.311
301.312
301.312
301.313
301.313
301.314
301.314
301.314
301.315
301.315
301.315
301.316
301.317
301.318
301.319
301.321
301.323
301.326
301.329
301.333
301.339
301.346
301.354
301.365
301.378
301.395
301.415
301.44
301.472
301.51
301.556
301.612
301.678
301.757
301.851
301.96
302.087
302.232
302.397
302.581
302.784
303.003
303.232
303.465
303.691
303.903
304.097
304.276
298.276
298.313
298.345
298.372
298.395
298.418
298.441
298.466
298.493
298.523
298.556
298.592
298.632
298.675
298.722
298.773
298.828
298.885
298.946
299.01
299.077
299.146
299.217
299.29
299.364
299.438
299.512
299.585
299.657
299.728
299.797
299.864
299.928
299.99
300.05
300.107
300.161
300.212
300.261
300.308
300.351
300.393
300.432
300.469
300.504
300.537
300.568
300.598
300.626
300.653
300.678
300.702
300.725
300.747
300.768
300.787
300.806
300.824
300.842
300.858
300.874
300.89
300.905
300.919
300.933
300.947
300.96
300.973
300.986
300.999
301.011
301.023
301.035
301.047
301.058
301.07
301.081
301.092
301.102
301.113
301.123
301.133
301.143
301.152
301.16
301.168
301.176
301.183
301.189
301.195
301.2
301.205
301.209
301.212
301.214
301.216
301.218
301.219
301.22
301.22
301.22
301.22
301.22
301.22
301.22
301.22
301.22
301.22
301.221
301.222
301.223
301.224
301.226
301.227
301.23
301.232
301.234
301.237
301.24
301.243
301.245
301.248
301.251
301.254
301.257
301.259
301.262
301.265
301.267
301.269
301.272
301.274
301.276
301.278
301.28
301.282
301.285
301.287
301.289
301.291
301.293
301.295
301.297
301.299
301.3
301.302
301.304
301.305
301.307
301.308
301.309
301.31
301.311
301.312
301.313
301.313
301.313
301.314
301.314
301.314
301.315
301.315
301.315
301.316
301.317
301.318
301.319
301.321
301.323
301.326
301.329
301.333
301.339
301.346
301.354
301.365
301.378
301.395
301.415
301.44
301.472
301.51
301.556
301.612
301.678
301.758
301.851
301.96
302.087
302.232
302.397
302.581
302.784
303.003
303.233
303.465
303.692
303.903
304.097
304.277
298.224
298.248
298.271
298.292
298.312
298.332
298.353
298.376
298.4
298.427
298.457
298.489
298.525
298.565
298.607
298.653
298.702
298.755
298.811
298.869
298.93
298.994
299.059
299.126
299.194
299.263
299.331
299.399
299.467
299.532
299.597
299.659
299.72
299.778
299.833
299.887
299.937
299.986
300.031
300.075
300.116
300.155
300.191
300.226
300.259
300.29
300.319
300.347
300.373
300.398
300.422
300.444
300.466
300.486
300.505
300.524
300.542
300.559
300.575
300.591
300.606
300.62
300.635
300.648
300.662
300.675
300.687
300.7
300.712
300.724
300.736
300.747
300.759
300.77
300.781
300.792
300.803
300.813
300.824
300.834
300.844
300.853
300.862
300.871
300.879
300.887
300.894
300.9
300.906
300.912
300.916
300.92
300.924
300.927
300.929
300.931
300.932
300.933
300.933
300.934
300.934
300.934
300.933
300.933
300.933
300.933
300.933
300.934
300.934
300.935
300.937
300.938
300.94
300.942
300.944
300.947
300.949
300.952
300.955
300.958
300.961
300.964
300.966
300.969
300.972
300.975
300.978
300.98
300.983
300.985
300.987
300.989
300.992
300.994
300.996
300.998
301
301.002
301.004
301.006
301.008
301.01
301.012
301.014
301.016
301.018
301.019
301.021
301.022
301.023
301.024
301.025
301.026
301.027
301.027
301.028
301.028
301.028
301.028
301.029
301.029
301.029
301.03
301.03
301.031
301.032
301.033
301.035
301.037
301.04
301.044
301.049
301.054
301.062
301.071
301.083
301.098
301.116
301.138
301.166
301.2
301.241
301.291
301.351
301.422
301.505
301.603
301.716
301.846
301.994
302.16
302.344
302.544
302.758
302.982
303.209
303.432
303.644
303.844
304.041
298.224
298.248
298.271
298.292
298.312
298.332
298.353
298.376
298.4
298.427
298.457
298.489
298.525
298.565
298.607
298.653
298.702
298.755
298.811
298.869
298.93
298.994
299.059
299.126
299.194
299.263
299.331
299.399
299.467
299.532
299.597
299.659
299.72
299.778
299.834
299.887
299.937
299.986
300.031
300.075
300.116
300.155
300.191
300.226
300.259
300.29
300.319
300.347
300.373
300.398
300.422
300.444
300.466
300.486
300.505
300.524
300.542
300.559
300.575
300.591
300.606
300.62
300.635
300.648
300.662
300.675
300.687
300.7
300.712
300.724
300.736
300.747
300.759
300.77
300.781
300.792
300.803
300.813
300.824
300.834
300.844
300.853
300.862
300.871
300.879
300.887
300.894
300.9
300.906
300.912
300.916
300.92
300.924
300.927
300.929
300.931
300.932
300.933
300.933
300.934
300.934
300.934
300.933
300.933
300.933
300.933
300.933
300.934
300.935
300.935
300.937
300.938
300.94
300.942
300.944
300.947
300.949
300.952
300.955
300.958
300.961
300.964
300.967
300.969
300.972
300.975
300.978
300.98
300.983
300.985
300.987
300.99
300.992
300.994
300.996
300.998
301
301.002
301.004
301.006
301.008
301.01
301.012
301.014
301.016
301.018
301.019
301.021
301.022
301.023
301.025
301.025
301.026
301.027
301.027
301.028
301.028
301.028
301.029
301.029
301.029
301.029
301.03
301.03
301.031
301.032
301.033
301.035
301.037
301.04
301.044
301.049
301.054
301.062
301.071
301.083
301.098
301.116
301.138
301.166
301.2
301.241
301.291
301.351
301.422
301.505
301.603
301.716
301.846
301.994
302.16
302.344
302.544
302.759
302.982
303.209
303.432
303.644
303.844
304.041
298.199
298.214
298.229
298.245
298.261
298.277
298.295
298.315
298.336
298.359
298.386
298.415
298.447
298.482
298.52
298.561
298.606
298.653
298.704
298.757
298.813
298.871
298.931
298.992
299.055
299.118
299.181
299.244
299.307
299.368
299.428
299.486
299.542
299.596
299.648
299.697
299.744
299.789
299.832
299.872
299.91
299.946
299.98
300.012
300.043
300.071
300.099
300.124
300.149
300.172
300.194
300.214
300.234
300.253
300.271
300.288
300.305
300.32
300.336
300.35
300.364
300.378
300.391
300.404
300.416
300.429
300.441
300.452
300.464
300.475
300.487
300.498
300.508
300.519
300.53
300.54
300.551
300.561
300.571
300.58
300.589
300.598
300.607
300.615
300.623
300.63
300.637
300.643
300.648
300.653
300.657
300.661
300.664
300.666
300.668
300.67
300.671
300.671
300.672
300.672
300.672
300.672
300.671
300.671
300.671
300.671
300.672
300.672
300.673
300.674
300.675
300.677
300.679
300.681
300.683
300.686
300.688
300.691