/*--------------------------------*- C++ -*----------------------------------*\
  =========                 |
  \\      /  F ield         | OpenFOAM: The Open Source CFD Toolbox
   \\    /   O peration     | Website:  https://openfoam.org
    \\  /    A nd           | Version:  8
     \\/     M anipulation  |
\*---------------------------------------------------------------------------*/
FoamFile
{
    version     2.0;
    format      ascii;
    class       volVectorField;
    location    "400";
    object      U;
}
// * * * * * * * * * * * * * * * * * * * * * * * * * * * * * * * * * * * * * //

dimensions      [0 1 -1 0 0 0 0];

internalField   nonuniform List<vector> 
46000
(
(-0.0251986 4.61978e-07 0.0251211)
(-0.0567955 4.70243e-06 0.0130513)
(-0.0517461 1.19116e-05 -0.00789094)
(-0.0228898 7.68513e-06 -0.024476)
(0.0238817 3.66233e-06 -0.0338954)
(0.0765258 7.5083e-07 -0.0372733)
(0.13287 -1.47737e-06 -0.0378844)
(0.189127 -2.77351e-06 -0.0368157)
(0.243426 -3.38762e-06 -0.0346944)
(0.294457 -3.55547e-06 -0.0319148)
(0.341364 -3.44559e-06 -0.0287363)
(0.3836 -3.14057e-06 -0.025341)
(0.420856 -2.68809e-06 -0.0218642)
(0.453005 -2.13709e-06 -0.01841)
(0.480068 -1.55446e-06 -0.01506)
(0.502187 -1.00288e-06 -0.0118781)
(0.519597 -5.25622e-07 -0.0089138)
(0.53261 -1.39068e-07 -0.00620397)
(0.541594 1.6437e-07 -0.00377558)
(0.546965 4.01904e-07 -0.00164582)
(0.549143 5.83074e-07 0.000184245)
(0.548608 7.34359e-07 0.00172732)
(0.545763 8.5915e-07 0.00299851)
(0.541013 9.33414e-07 0.00401258)
(0.534745 9.57233e-07 0.00478972)
(0.527316 9.36953e-07 0.0053519)
(0.519051 8.82697e-07 0.00572175)
(0.510246 8.05983e-07 0.00592203)
(0.501162 7.16976e-07 0.0059754)
(0.492024 6.22272e-07 0.00590411)
(0.483023 5.24981e-07 0.00572969)
(0.474316 4.26287e-07 0.00547266)
(0.466026 3.27319e-07 0.00515222)
(0.458248 2.30853e-07 0.0047861)
(0.451047 1.41849e-07 0.00439026)
(0.444464 6.56443e-08 0.00397886)
(0.438518 4.93871e-09 0.00356408)
(0.43321 -4.09818e-08 0.00315613)
(0.428525 -7.48032e-08 0.00276328)
(0.424435 -9.93033e-08 0.00239188)
(0.420907 -1.16635e-07 0.00204651)
(0.417897 -1.28444e-07 0.00173011)
(0.415361 -1.3588e-07 0.00144418)
(0.413252 -1.39623e-07 0.00118897)
(0.411523 -1.40086e-07 0.000963703)
(0.41013 -1.37473e-07 0.000766831)
(0.409031 -1.31838e-07 0.000596198)
(0.408187 -1.23315e-07 0.000449246)
(0.407564 -1.12499e-07 0.00032316)
(0.407132 -1.00648e-07 0.000214989)
(0.406865 -8.9556e-08 0.00012179)
(0.406742 -8.14265e-08 4.08981e-05)
(0.406745 -7.87551e-08 -2.91958e-05)
(0.406859 -8.36313e-08 -8.9744e-05)
(0.407068 -9.63846e-08 -0.000142386)
(0.407362 -1.14954e-07 -0.000188404)
(0.40773 -1.35596e-07 -0.000228871)
(0.408165 -1.54324e-07 -0.000264619)
(0.408658 -1.67932e-07 -0.000296231)
(0.409202 -1.74525e-07 -0.000324061)
(0.409793 -1.73578e-07 -0.000348262)
(0.410422 -1.66083e-07 -0.000368841)
(0.411084 -1.54324e-07 -0.000385702)
(0.411772 -1.41435e-07 -0.000398697)
(0.412479 -1.30548e-07 -0.000407668)
(0.413199 -1.23936e-07 -0.000412477)
(0.413923 -1.22353e-07 -0.000413035)
(0.414645 -1.24847e-07 -0.000409311)
(0.415357 -1.29046e-07 -0.000401346)
(0.416053 -1.31961e-07 -0.000389249)
(0.416725 -1.30877e-07 -0.000373201)
(0.417367 -1.24292e-07 -0.000353458)
(0.417974 -1.12308e-07 -0.000330342)
(0.418539 -9.66397e-08 -0.000304254)
(0.419059 -8.00155e-08 -0.00027567)
(0.419529 -6.53549e-08 -0.000245146)
(0.419948 -5.49521e-08 -0.00021332)
(0.420314 -4.98314e-08 -0.000180916)
(0.420626 -4.94787e-08 -0.00014874)
(0.420887 -5.21763e-08 -0.000117674)
(0.421098 -5.56114e-08 -8.86605e-05)
(0.421264 -5.76319e-08 -6.26877e-05)
(0.421393 -5.68736e-08 -4.07562e-05)
(0.42149 -5.32204e-08 -2.38467e-05)
(0.421566 -4.77216e-08 -1.288e-05)
(0.421631 -4.21857e-08 -8.67422e-06)
(0.421697 -3.8542e-08 -1.1901e-05)
(0.421777 -3.81132e-08 -2.30437e-05)
(0.421884 -4.11693e-08 -4.23589e-05)
(0.422031 -4.67868e-08 -6.98441e-05)
(0.422233 -5.33799e-08 -0.000105216)
(0.4225 -5.93913e-08 -0.0001479)
(0.422844 -6.39158e-08 -0.000197039)
(0.423274 -6.70689e-08 -0.000251506)
(0.423797 -7.00158e-08 -0.000309944)
(0.424418 -7.455e-08 -0.000370813)
(0.42514 -8.20126e-08 -0.000432445)
(0.425961 -9.24019e-08 -0.000493107)
(0.426878 -1.04326e-07 -0.000551074)
(0.427885 -1.15511e-07 -0.000604697)
(0.428973 -1.23276e-07 -0.000652472)
(0.430132 -1.25342e-07 -0.000693091)
(0.431348 -1.21148e-07 -0.000725497)
(0.432608 -1.12318e-07 -0.000748926)
(0.433896 -1.01507e-07 -0.000762932)
(0.435198 -9.09683e-08 -0.000767393)
(0.436498 -8.24475e-08 -0.000762503)
(0.437781 -7.70093e-08 -0.000748762)
(0.439034 -7.39614e-08 -0.000726952)
(0.440245 -7.07527e-08 -0.000698087)
(0.441403 -6.52915e-08 -0.000663351)
(0.442501 -5.75191e-08 -0.000624062)
(0.443532 -4.79753e-08 -0.000581631)
(0.444493 -3.63433e-08 -0.000537502)
(0.445383 -2.26147e-08 -0.00049308)
(0.446202 -8.47064e-09 -0.000449686)
(0.446953 4.49842e-09 -0.000408546)
(0.44764 1.68104e-08 -0.000370748)
(0.448271 2.91592e-08 -0.000337191)
(0.448851 3.94498e-08 -0.000308544)
(0.44939 4.38845e-08 -0.00028525)
(0.449897 4.10654e-08 -0.000267541)
(0.450379 3.30071e-08 -0.000255422)
(0.450847 2.22991e-08 -0.000248662)
(0.451307 1.03961e-08 -0.000246805)
(0.451767 -1.01572e-09 -0.000249226)
(0.452233 -9.30349e-09 -0.000255158)
(0.45271 -1.31984e-08 -0.000263727)
(0.4532 -1.43163e-08 -0.000273981)
(0.453706 -1.51307e-08 -0.000284955)
(0.454227 -1.62854e-08 -0.000295724)
(0.454762 -1.66624e-08 -0.000305431)
(0.455309 -1.56484e-08 -0.000313325)
(0.455865 -1.36238e-08 -0.000318805)
(0.456424 -1.06657e-08 -0.000321469)
(0.456982 -6.20257e-09 -0.000321129)
(0.457535 -1.15485e-10 -0.000317798)
(0.458078 6.90676e-09 -0.000311672)
(0.458607 1.46899e-08 -0.000303123)
(0.459119 2.41874e-08 -0.000292687)
(0.459612 3.59324e-08 -0.000281025)
(0.460084 4.83896e-08 -0.000268882)
(0.460536 5.8705e-08 -0.000257031)
(0.460969 6.47987e-08 -0.000246247)
(0.461386 6.64931e-08 -0.000237257)
(0.461791 6.4916e-08 -0.000230693)
(0.462188 6.14586e-08 -0.000227051)
(0.462581 5.72856e-08 -0.00022666)
(0.462977 5.32449e-08 -0.000229687)
(0.463381 5.02819e-08 -0.000236129)
(0.463799 4.94976e-08 -0.000245808)
(0.464234 5.14367e-08 -0.000258362)
(0.464692 5.52996e-08 -0.000273269)
(0.465175 5.962e-08 -0.000289879)
(0.465685 6.35097e-08 -0.000307443)
(0.466222 6.66468e-08 -0.000325123)
(0.466787 6.86627e-08 -0.000342015)
(0.467376 6.98523e-08 -0.00035719)
(0.467986 7.1833e-08 -0.000369721)
(0.468612 7.57576e-08 -0.000378684)
(0.469246 8.01731e-08 -0.000383174)
(0.469881 8.22894e-08 -0.000382322)
(0.470507 8.1416e-08 -0.000375321)
(0.471113 7.90495e-08 -0.000361405)
(0.471688 7.53155e-08 -0.000339828)
(0.472217 6.81413e-08 -0.00030987)
(0.472687 5.73222e-08 -0.000270843)
(0.473081 4.79613e-08 -0.000222038)
(0.473383 4.82932e-08 -0.000162544)
(0.473572 6.33941e-08 -9.08407e-05)
(0.473625 9.47585e-08 -4.83678e-06)
(0.473519 1.35444e-07 9.83482e-05)
(0.473217 1.70454e-07 0.000222619)
(0.472679 1.86324e-07 0.000372735)
(0.471856 1.76679e-07 0.000554639)
(0.470685 1.48463e-07 0.000775942)
(0.469089 1.19419e-07 0.00104639)
(0.466973 1.07512e-07 0.0013784)
(0.464216 1.20273e-07 0.00178753)
(0.460672 1.51711e-07 0.00229297)
(0.456156 1.873e-07 0.00291794)
(0.450445 2.1285e-07 0.00368995)
(0.443267 2.22823e-07 0.00464067)
(0.434302 2.23561e-07 0.0058055)
(0.423173 2.30237e-07 0.00722237)
(0.409447 2.60434e-07 0.00892969)
(0.392644 3.2768e-07 0.0109632)
(0.372242 4.37539e-07 0.013351)
(0.347705 5.93273e-07 0.0161069)
(0.318511 8.18971e-07 0.0192198)
(0.284211 1.18371e-06 0.0226397)
(0.244507 1.78008e-06 0.0262545)
(0.199366 2.63276e-06 0.0298519)
(0.149245 3.60466e-06 0.0330431)
(0.0952188 4.46604e-06 0.0350985)
(0.0405246 5.20608e-06 0.0345505)
(-0.0121177 6.0198e-06 0.0273957)
(-0.0489751 6.72553e-06 0.0104165)
(-0.0594953 8.59931e-06 -0.0131929)
(-0.0265408 1.22115e-05 -0.03117)
(-0.025192 4.61988e-07 0.0251091)
(-0.056756 4.7032e-06 0.012992)
(-0.051711 1.19089e-05 -0.00795611)
(-0.0228793 7.68331e-06 -0.0245332)
(0.0238896 3.66153e-06 -0.0339439)
(0.0765307 7.50713e-07 -0.037311)
(0.132869 -1.47724e-06 -0.0379088)
(0.189123 -2.7734e-06 -0.0368266)
(0.24342 -3.3876e-06 -0.0346942)
(0.294453 -3.55551e-06 -0.0319074)
(0.341362 -3.44565e-06 -0.0287257)
(0.3836 -3.14061e-06 -0.0253304)
(0.420858 -2.68811e-06 -0.0218555)
(0.453008 -2.1371e-06 -0.0184039)
(0.480072 -1.55446e-06 -0.0150567)
(0.50219 -1.00288e-06 -0.0118776)
(0.519599 -5.25619e-07 -0.00891571)
(0.532611 -1.39067e-07 -0.00620807)
(0.541595 1.64369e-07 -0.00378156)
(0.546965 4.01899e-07 -0.0016533)
(0.549142 5.83067e-07 0.000175666)
(0.548606 7.34356e-07 0.00171811)
(0.545761 8.59148e-07 0.00298911)
(0.54101 9.33411e-07 0.00400335)
(0.534742 9.57231e-07 0.00478095)
(0.527312 9.36951e-07 0.00534381)
(0.519047 8.82696e-07 0.0057145)
(0.510242 8.05983e-07 0.00591573)
(0.501158 7.16976e-07 0.0059701)
(0.49202 6.22273e-07 0.00589981)
(0.483019 5.24981e-07 0.00572636)
(0.474312 4.26288e-07 0.00547023)
(0.466022 3.2732e-07 0.00515059)
(0.458244 2.30854e-07 0.00478513)
(0.451044 1.4185e-07 0.00438982)
(0.444461 6.56445e-08 0.00397882)
(0.438516 4.93872e-09 0.00356435)
(0.433208 -4.09819e-08 0.00315663)
(0.428522 -7.48034e-08 0.00276393)
(0.424433 -9.93035e-08 0.0023926)
(0.420905 -1.16635e-07 0.00204722)
(0.417895 -1.28444e-07 0.00173075)
(0.415359 -1.35881e-07 0.00144472)
(0.41325 -1.39623e-07 0.00118938)
(0.411522 -1.40086e-07 0.000964016)
(0.410129 -1.37474e-07 0.000767061)
(0.409029 -1.31838e-07 0.000596374)
(0.408185 -1.23315e-07 0.000449389)
(0.407562 -1.12499e-07 0.000323287)
(0.40713 -1.00648e-07 0.000215107)
(0.406863 -8.95561e-08 0.000121903)
(0.40674 -8.14266e-08 4.10048e-05)
(0.406743 -7.87552e-08 -2.90944e-05)
(0.406857 -8.36314e-08 -8.96456e-05)
(0.407066 -9.63847e-08 -0.000142287)
(0.40736 -1.14954e-07 -0.0001883)
(0.407728 -1.35596e-07 -0.000228758)
(0.408163 -1.54324e-07 -0.000264493)
(0.408656 -1.67932e-07 -0.000296092)
(0.4092 -1.74525e-07 -0.000323909)
(0.409791 -1.73578e-07 -0.000348098)
(0.41042 -1.66084e-07 -0.000368663)
(0.411082 -1.54324e-07 -0.000385511)
(0.41177 -1.41435e-07 -0.000398495)
(0.412477 -1.30548e-07 -0.000407459)
(0.413197 -1.23937e-07 -0.00041227)
(0.413921 -1.22353e-07 -0.000412837)
(0.414643 -1.24848e-07 -0.000409129)
(0.415355 -1.29046e-07 -0.000401184)
(0.416051 -1.31961e-07 -0.000389108)
(0.416723 -1.30877e-07 -0.000373082)
(0.417365 -1.24292e-07 -0.000353358)
(0.417972 -1.12308e-07 -0.000330261)
(0.418537 -9.66398e-08 -0.000304191)
(0.419057 -8.00156e-08 -0.000275626)
(0.419527 -6.53549e-08 -0.000245123)
(0.419946 -5.49521e-08 -0.000213323)
(0.420312 -4.98315e-08 -0.000180947)
(0.420624 -4.94788e-08 -0.000148801)
(0.420884 -5.21763e-08 -0.000117764)
(0.421096 -5.56114e-08 -8.87804e-05)
(0.421262 -5.7632e-08 -6.28336e-05)
(0.42139 -5.68736e-08 -4.09234e-05)
(0.421488 -5.32204e-08 -2.40292e-05)
(0.421563 -4.77216e-08 -1.30708e-05)
(0.421628 -4.21857e-08 -8.86591e-06)
(0.421695 -3.8542e-08 -1.20866e-05)
(0.421774 -3.81133e-08 -2.32171e-05)
(0.421882 -4.11694e-08 -4.25147e-05)
(0.422029 -4.67868e-08 -6.99777e-05)
(0.42223 -5.338e-08 -0.000105323)
(0.422498 -5.93914e-08 -0.000147978)
(0.422842 -6.39158e-08 -0.000197083)
(0.423272 -6.7069e-08 -0.000251514)
(0.423795 -7.00159e-08 -0.000309913)
(0.424416 -7.45501e-08 -0.00037074)
(0.425138 -8.20127e-08 -0.000432328)
(0.425959 -9.2402e-08 -0.000492947)
(0.426876 -1.04327e-07 -0.000550872)
(0.427883 -1.15512e-07 -0.000604459)
(0.428971 -1.23277e-07 -0.000652202)
(0.430129 -1.25342e-07 -0.000692795)
(0.431346 -1.21149e-07 -0.000725185)
(0.432606 -1.12319e-07 -0.000748612)
(0.433894 -1.01508e-07 -0.00076263)
(0.435196 -9.09684e-08 -0.000767115)
(0.436496 -8.24476e-08 -0.000762261)
(0.437779 -7.70094e-08 -0.000748572)
(0.439032 -7.39615e-08 -0.000726827)
(0.440242 -7.07528e-08 -0.000698028)
(0.441401 -6.52916e-08 -0.000663357)
(0.442499 -5.75192e-08 -0.000624131)
(0.44353 -4.79753e-08 -0.00058176)
(0.444491 -3.63433e-08 -0.000537682)
(0.445381 -2.26147e-08 -0.000493295)
(0.446199 -8.47064e-09 -0.000449929)
(0.44695 4.49843e-09 -0.000408811)
(0.447638 1.68104e-08 -0.000371025)
(0.448268 2.91593e-08 -0.000337461)
(0.448849 3.94499e-08 -0.000308796)
(0.449388 4.38845e-08 -0.000285486)
(0.449894 4.10654e-08 -0.000267764)
(0.450377 3.30071e-08 -0.000255624)
(0.450844 2.22991e-08 -0.000248829)
(0.451304 1.03961e-08 -0.000246934)
(0.451764 -1.01573e-09 -0.000249321)
(0.45223 -9.3035e-09 -0.000255226)
(0.452707 -1.31985e-08 -0.000263771)
(0.453197 -1.43163e-08 -0.000274008)
(0.453703 -1.51307e-08 -0.000284976)
(0.454224 -1.62854e-08 -0.000295743)
(0.45476 -1.66625e-08 -0.000305447)
(0.455307 -1.56484e-08 -0.000313336)
(0.455862 -1.36238e-08 -0.000318821)
(0.456421 -1.06657e-08 -0.000321502)
(0.45698 -6.20258e-09 -0.000321184)
(0.457533 -1.15485e-10 -0.000317872)
(0.458076 6.90677e-09 -0.000311765)
(0.458605 1.46899e-08 -0.000303246)
(0.459117 2.41875e-08 -0.000292853)
(0.459609 3.59324e-08 -0.000281242)
(0.460081 4.83897e-08 -0.000269143)
(0.460533 5.87051e-08 -0.000257331)
(0.460967 6.47988e-08 -0.000246579)
(0.461384 6.64931e-08 -0.000237609)
(0.461788 6.49161e-08 -0.000231049)
(0.462185 6.14587e-08 -0.000227394)
(0.462579 5.72856e-08 -0.000226985)
(0.462975 5.3245e-08 -0.000229999)
(0.463379 5.0282e-08 -0.000236436)
(0.463796 4.94977e-08 -0.000246109)
(0.464232 5.14367e-08 -0.000258652)
(0.464689 5.52997e-08 -0.000273549)
(0.465172 5.96201e-08 -0.000290156)
(0.465682 6.35098e-08 -0.000307722)
(0.46622 6.66469e-08 -0.000325403)
(0.466784 6.86628e-08 -0.0003423)
(0.467374 6.98524e-08 -0.000357492)
(0.467984 7.18331e-08 -0.000370048)
(0.468609 7.57576e-08 -0.000379039)
(0.469243 8.01732e-08 -0.000383559)
(0.469878 8.22895e-08 -0.000382751)
(0.470504 8.14161e-08 -0.000375808)
(0.47111 7.90496e-08 -0.000361951)
(0.471685 7.53156e-08 -0.000340422)
(0.472214 6.81413e-08 -0.000310492)
(0.472684 5.73223e-08 -0.000271466)
(0.473079 4.79613e-08 -0.000222643)
(0.47338 4.82933e-08 -0.000163143)
(0.473569 6.33942e-08 -9.15015e-05)
(0.473623 9.47586e-08 -5.65069e-06)
(0.473516 1.35444e-07 9.73254e-05)
(0.473215 1.70455e-07 0.000221416)
(0.472677 1.86325e-07 0.00037146)
(0.471853 1.76679e-07 0.000553429)
(0.470682 1.48464e-07 0.000774897)
(0.469086 1.19419e-07 0.00104555)
(0.46697 1.07512e-07 0.00137772)
(0.464214 1.20273e-07 0.00178691)
(0.460669 1.51711e-07 0.00229231)
(0.456154 1.873e-07 0.00291717)
(0.450443 2.1285e-07 0.00368906)
(0.443266 2.22823e-07 0.00463972)
(0.4343 2.23562e-07 0.00580457)
(0.423171 2.30237e-07 0.00722152)
(0.409445 2.60434e-07 0.00892899)
(0.392642 3.2768e-07 0.0109626)
(0.372241 4.37539e-07 0.0133504)
(0.347704 5.93274e-07 0.016106)
(0.31851 8.18971e-07 0.0192182)
(0.284211 1.18371e-06 0.0226368)
(0.244507 1.78007e-06 0.0262494)
(0.199368 2.63274e-06 0.0298435)
(0.149247 3.60461e-06 0.0330309)
(0.0952189 4.46597e-06 0.0350842)
(0.0405202 5.20604e-06 0.034539)
(-0.0121292 6.01972e-06 0.0273925)
(-0.0489865 6.72548e-06 0.0104206)
(-0.0594995 8.60032e-06 -0.013188)
(-0.0265387 1.22126e-05 -0.0311638)
(-0.0116554 -1.04146e-05 0.057153)
(-0.00823186 -1.21972e-05 0.012937)
(0.0213475 -3.07579e-06 -0.032297)
(0.0592358 -1.19783e-06 -0.0619002)
(0.104446 -3.78276e-07 -0.0786752)
(0.153642 1.74363e-07 -0.0864211)
(0.204863 3.76922e-07 -0.0885861)
(0.256047 4.65442e-07 -0.0870363)
(0.305774 4.8678e-07 -0.0830077)
(0.352969 4.34468e-07 -0.0773108)
(0.39686 3.09691e-07 -0.0705114)
(0.436906 1.40091e-07 -0.0630276)
(0.472763 -3.55398e-08 -0.0551828)
(0.504243 -1.88133e-07 -0.0472355)
(0.531296 -3.0269e-07 -0.0393949)
(0.553978 -3.76407e-07 -0.03183)
(0.57244 -4.14012e-07 -0.0246757)
(0.586903 -4.22432e-07 -0.0180363)
(0.597648 -4.09235e-07 -0.0119895)
(0.604991 -3.8182e-07 -0.00658945)
(0.609281 -3.44154e-07 -0.00187217)
(0.610866 -3.04889e-07 0.00216214)
(0.610137 -2.67525e-07 0.00554356)
(0.60747 -2.29045e-07 0.00830538)
(0.603225 -1.91486e-07 0.0104839)
(0.597736 -1.54123e-07 0.012121)
(0.591315 -1.15921e-07 0.0132638)
(0.584244 -7.74899e-08 0.0139636)
(0.576774 -4.09296e-08 0.0142745)
(0.569123 -8.87099e-09 0.0142513)
(0.561478 1.66278e-08 0.0139484)
(0.553994 3.49203e-08 0.0134187)
(0.546796 4.66814e-08 0.0127123)
(0.53998 5.30603e-08 0.0118756)
(0.533615 5.52093e-08 0.0109507)
(0.527749 5.424e-08 0.00997488)
(0.522409 5.09724e-08 0.00898037)
(0.517602 4.57401e-08 0.00799408)
(0.513324 3.85804e-08 0.00703774)
(0.509559 2.95691e-08 0.00612812)
(0.50628 1.90578e-08 0.00527735)
(0.503457 7.85661e-09 0.00449338)
(0.501054 -2.80079e-09 0.00378049)
(0.499033 -1.16411e-08 0.00313986)
(0.497357 -1.77471e-08 0.0025701)
(0.49599 -2.08085e-08 0.0020679)
(0.494895 -2.10344e-08 0.00162844)
(0.494041 -1.89605e-08 0.00124595)
(0.493398 -1.52782e-08 0.000914081)
(0.492939 -1.07749e-08 0.000626231)
(0.492642 -6.14599e-09 0.000375906)
(0.492487 -1.85408e-09 0.000156907)
(0.492456 1.72456e-09 -3.55224e-05)
(0.492534 4.13292e-09 -0.000204336)
(0.492709 4.8922e-09 -0.000352475)
(0.492971 3.85977e-09 -0.000483146)
(0.49331 1.39818e-09 -0.000598958)
(0.493718 -1.85691e-09 -0.000701851)
(0.494187 -5.24638e-09 -0.000793127)
(0.49471 -8.11678e-09 -0.000873537)
(0.495279 -9.8237e-09 -0.000943388)
(0.495888 -9.82001e-09 -0.00100267)
(0.49653 -7.89984e-09 -0.00105118)
(0.497198 -4.36017e-09 -0.0010886)
(0.497884 1.65417e-11 -0.00111463)
(0.498581 4.13632e-09 -0.00112903)
(0.499282 6.90003e-09 -0.00113166)
(0.49998 7.54808e-09 -0.00112255)
(0.500667 5.89038e-09 -0.0011019)
(0.501336 2.38138e-09 -0.00107007)
(0.501981 -2.0081e-09 -0.00102762)
(0.502596 -6.05726e-09 -0.000975294)
(0.503174 -8.63674e-09 -0.00091403)
(0.503712 -9.02098e-09 -0.000844964)
(0.504204 -7.07152e-09 -0.00076944)
(0.504647 -3.2354e-09 -0.000689016)
(0.50504 1.57051e-09 -0.000605473)
(0.50538 6.21265e-09 -0.000520812)
(0.505669 9.62312e-09 -0.00043724)
(0.505908 1.10729e-08 -0.000357152)
(0.506099 1.02887e-08 -0.000283084)
(0.506249 7.51592e-09 -0.000217652)
(0.506363 3.42011e-09 -0.000163477)
(0.506449 -1.11161e-09 -0.00012309)
(0.506516 -5.2045e-09 -9.88237e-05)
(0.506575 -8.19199e-09 -9.27059e-05)
(0.506638 -9.78907e-09 -0.000106344)
(0.506717 -1.00881e-08 -0.00014082)
(0.506825 -9.51481e-09 -0.0001966)
(0.506974 -8.56984e-09 -0.000273457)
(0.507177 -7.68064e-09 -0.000370435)
(0.507445 -7.0847e-09 -0.000485834)
(0.507789 -6.78455e-09 -0.000617238)
(0.508216 -6.49439e-09 -0.000761581)
(0.508733 -5.86761e-09 -0.000915244)
(0.509345 -4.85587e-09 -0.00107418)
(0.510052 -3.72501e-09 -0.00123407)
(0.510853 -2.66667e-09 -0.00139049)
(0.511746 -1.77002e-09 -0.00153906)
(0.512723 -1.40669e-09 -0.00167567)
(0.513776 -1.97665e-09 -0.00179657)
(0.514895 -3.1091e-09 -0.00189858)
(0.516068 -3.77329e-09 -0.00197918)
(0.517281 -3.49594e-09 -0.00203658)
(0.51852 -2.78284e-09 -0.00206981)
(0.519772 -2.00729e-09 -0.00207869)
(0.52102 -8.97633e-10 -0.00206387)
(0.522253 3.51155e-10 -0.00202672)
(0.523458 5.06745e-10 -0.00196929)
(0.524623 -1.20075e-09 -0.00189419)
(0.525739 -3.89975e-09 -0.00180448)
(0.526798 -6.28461e-09 -0.00170354)
(0.527795 -8.10452e-09 -0.00159493)
(0.528726 -9.48364e-09 -0.00148228)
(0.529591 -9.50711e-09 -0.00136913)
(0.530389 -7.01924e-09 -0.00125883)
(0.531123 -2.56577e-09 -0.00115445)
(0.531798 1.8794e-09 -0.00105861)
(0.532419 5.25393e-09 -0.0009735)
(0.532993 8.35521e-09 -0.000900766)
(0.533527 1.20773e-08 -0.000841482)
(0.53403 1.57519e-08 -0.000796117)
(0.534509 1.7886e-08 -0.000764552)
(0.534972 1.79011e-08 -0.000746113)
(0.535426 1.64647e-08 -0.00073962)
(0.535878 1.45025e-08 -0.000743445)
(0.536333 1.25395e-08 -0.000755602)
(0.536795 1.09039e-08 -0.000773853)
(0.537267 9.7474e-09 -0.000795832)
(0.53775 8.64508e-09 -0.000819155)
(0.538244 6.82947e-09 -0.000841528)
(0.538748 4.16974e-09 -0.000860876)
(0.53926 1.56581e-09 -0.00087545)
(0.539777 -4.48872e-11 -0.000883916)
(0.540294 -9.08147e-10 -0.000885401)
(0.540808 -2.16888e-09 -0.000879523)
(0.541315 -4.35122e-09 -0.000866413)
(0.541811 -6.44024e-09 -0.000846693)
(0.542292 -6.74772e-09 -0.000821432)
(0.542756 -4.41621e-09 -0.000792056)
(0.543202 -1.1476e-11 -0.000760265)
(0.543629 5.28823e-09 -0.000727934)
(0.544036 1.06913e-08 -0.000697008)
(0.544427 1.58236e-08 -0.000669383)
(0.544803 2.0211e-08 -0.000646783)
(0.545168 2.33868e-08 -0.000630672)
(0.545526 2.57119e-08 -0.000622182)
(0.545881 2.81961e-08 -0.000622054)
(0.54624 3.10345e-08 -0.000630598)
(0.546606 3.30705e-08 -0.000647672)
(0.546984 3.3499e-08 -0.000672685)
(0.547378 3.34534e-08 -0.000704631)
(0.547792 3.4521e-08 -0.000742124)
(0.548229 3.62853e-08 -0.000783447)
(0.548688 3.66687e-08 -0.000826621)
(0.549172 3.46681e-08 -0.000869474)
(0.549678 3.1305e-08 -0.000909709)
(0.550203 2.7681e-08 -0.000944954)
(0.550744 2.34796e-08 -0.00097282)
(0.551296 1.78782e-08 -0.00099095)
(0.551851 1.10002e-08 -0.000997058)
(0.552401 3.92893e-09 -0.00098895)
(0.552938 -1.97822e-09 -0.000964517)
(0.553449 -5.50961e-09 -0.000921712)
(0.553924 -6.41276e-09 -0.00085852)
(0.554348 -6.48509e-09 -0.000772886)
(0.554708 -9.01812e-09 -0.000662615)
(0.554986 -1.5991e-08 -0.000525216)
(0.555165 -2.57629e-08 -0.000357609)
(0.555223 -3.42432e-08 -0.000155837)
(0.555137 -3.93302e-08 8.58353e-05)
(0.554874 -4.13e-08 0.000376636)
(0.554402 -4.08107e-08 0.000728165)
(0.553678 -3.79675e-08 0.00115374)
(0.552649 -3.21333e-08 0.0016704)
(0.551251 -2.37755e-08 0.00229993)
(0.549402 -1.44071e-08 0.00307003)
(0.547002 -5.31231e-09 0.00401526)
(0.543925 2.2306e-09 0.00517814)
(0.540016 5.84271e-09 0.00660983)
(0.535087 3.47294e-09 0.00837066)
(0.528909 -3.09776e-09 0.0105299)
(0.52121 -8.28676e-09 0.0131647)
(0.511673 -8.21101e-09 0.016358)
(0.499935 -5.03583e-09 0.0201939)
(0.485587 -4.26096e-09 0.0247518)
(0.468188 -1.00674e-08 0.0300971)
(0.447276 -2.66658e-08 0.0362674)
(0.422397 -6.31545e-08 0.0432547)
(0.393137 -1.33366e-07 0.0509798)
(0.359179 -2.45641e-07 0.0592571)
(0.320377 -3.82928e-07 0.0677421)
(0.276856 -4.9246e-07 0.0758501)
(0.229168 -5.22264e-07 0.08262)
(0.178429 -4.9866e-07 0.0864423)
(0.126776 -4.83293e-07 0.0846969)
(0.0766732 -4.51154e-07 0.072602)
(0.0324394 -4.60092e-07 0.0444269)
(-0.00339123 3.19919e-07 -0.00424384)
(-0.00917114 7.97636e-06 -0.0630728)
(-0.0117044 -1.04121e-05 0.0571807)
(-0.00824323 -1.21988e-05 0.0129306)
(0.0213571 -3.07575e-06 -0.0323116)
(0.0592421 -1.19782e-06 -0.0619138)
(0.104454 -3.78274e-07 -0.078688)
(0.153651 1.74361e-07 -0.0864325)
(0.204872 3.76918e-07 -0.088595)
(0.256054 4.65438e-07 -0.0870421)
(0.305778 4.86777e-07 -0.0830105)
(0.352972 4.34467e-07 -0.077311)
(0.396861 3.0969e-07 -0.0705098)
(0.436906 1.40091e-07 -0.0630252)
(0.472762 -3.55398e-08 -0.0551803)
(0.504243 -1.88134e-07 -0.0472332)
(0.531295 -3.02691e-07 -0.0393931)
(0.553976 -3.76408e-07 -0.0318288)
(0.572438 -4.14013e-07 -0.0246751)
(0.586901 -4.22433e-07 -0.0180362)
(0.597645 -4.09236e-07 -0.0119899)
(0.604988 -3.81821e-07 -0.00659041)
(0.609278 -3.44155e-07 -0.00187355)
(0.610863 -3.0489e-07 0.00216045)
(0.610134 -2.67526e-07 0.00554163)
(0.607467 -2.29045e-07 0.00830332)
(0.603221 -1.91486e-07 0.0104818)
(0.597733 -1.54123e-07 0.0121189)
(0.591312 -1.15921e-07 0.0132618)
(0.584241 -7.749e-08 0.0139618)
(0.576771 -4.09296e-08 0.0142728)
(0.56912 -8.871e-09 0.0142498)
(0.561475 1.66278e-08 0.0139472)
(0.553991 3.49203e-08 0.0134177)
(0.546793 4.66814e-08 0.0127115)
(0.539977 5.30603e-08 0.011875)
(0.533612 5.52094e-08 0.0109502)
(0.527746 5.424e-08 0.0099746)
(0.522406 5.09724e-08 0.00898021)
(0.517599 4.57401e-08 0.00799401)
(0.513322 3.85804e-08 0.00703774)
(0.509556 2.95691e-08 0.00612817)
(0.506277 1.90578e-08 0.00527743)
(0.503454 7.85661e-09 0.00449346)
(0.501051 -2.8008e-09 0.00378056)
(0.49903 -1.16411e-08 0.00313991)
(0.497354 -1.77472e-08 0.00257014)
(0.495987 -2.08085e-08 0.00206791)
(0.494892 -2.10344e-08 0.00162845)
(0.494038 -1.89605e-08 0.00124596)
(0.493395 -1.52782e-08 0.000914093)
(0.492936 -1.07749e-08 0.000626253)
(0.49264 -6.14599e-09 0.000375936)
(0.492484 -1.85408e-09 0.000156944)
(0.492453 1.72457e-09 -3.54819e-05)
(0.492531 4.13292e-09 -0.000204293)
(0.492706 4.8922e-09 -0.00035243)
(0.492968 3.85977e-09 -0.000483099)
(0.493308 1.39818e-09 -0.000598908)
(0.493715 -1.85692e-09 -0.000701797)
(0.494184 -5.24639e-09 -0.000793069)
(0.494707 -8.11679e-09 -0.000873473)
(0.495276 -9.82371e-09 -0.000943319)
(0.495885 -9.82002e-09 -0.0010026)
(0.496527 -7.89985e-09 -0.0010511)
(0.497195 -4.36018e-09 -0.00108851)
(0.497881 1.65417e-11 -0.00111454)
(0.498578 4.13633e-09 -0.00112893)
(0.499279 6.90003e-09 -0.00113157)
(0.499977 7.54808e-09 -0.00112246)
(0.500664 5.89039e-09 -0.00110181)
(0.501333 2.38138e-09 -0.00106998)
(0.501978 -2.0081e-09 -0.00102754)
(0.502593 -6.05726e-09 -0.000975215)
(0.503172 -8.63675e-09 -0.000913954)
(0.503709 -9.02099e-09 -0.000844891)
(0.504201 -7.07153e-09 -0.000769369)
(0.504644 -3.2354e-09 -0.000688948)
(0.505037 1.57051e-09 -0.000605407)
(0.505377 6.21265e-09 -0.000520748)
(0.505666 9.62313e-09 -0.00043718)
(0.505905 1.10729e-08 -0.000357098)
(0.506097 1.02887e-08 -0.000283036)
(0.506246 7.51593e-09 -0.000217614)
(0.50636 3.42011e-09 -0.000163451)
(0.506446 -1.11161e-09 -0.000123076)
(0.506513 -5.2045e-09 -9.88231e-05)
(0.506572 -8.192e-09 -9.27177e-05)
(0.506635 -9.78908e-09 -0.000106367)
(0.506714 -1.00881e-08 -0.000140853)
(0.506822 -9.51481e-09 -0.000196639)
(0.506971 -8.56984e-09 -0.000273502)
(0.507174 -7.68065e-09 -0.000370483)
(0.507442 -7.08471e-09 -0.000485883)
(0.507786 -6.78455e-09 -0.000617287)
(0.508213 -6.49439e-09 -0.000761629)
(0.508731 -5.86761e-09 -0.000915291)
(0.509342 -4.85588e-09 -0.00107423)
(0.510049 -3.72501e-09 -0.00123411)
(0.510851 -2.66667e-09 -0.00139052)
(0.511743 -1.77002e-09 -0.00153909)
(0.51272 -1.40669e-09 -0.00167568)
(0.513773 -1.97665e-09 -0.00179658)
(0.514893 -3.1091e-09 -0.00189858)
(0.516065 -3.7733e-09 -0.00197916)
(0.517278 -3.49595e-09 -0.00203656)
(0.518518 -2.78284e-09 -0.00206977)
(0.519769 -2.00729e-09 -0.00207865)
(0.521018 -8.97634e-10 -0.00206383)
(0.52225 3.51155e-10 -0.00202668)
(0.523455 5.06746e-10 -0.00196925)
(0.52462 -1.20075e-09 -0.00189416)
(0.525736 -3.89976e-09 -0.00180445)
(0.526795 -6.28462e-09 -0.00170352)
(0.527792 -8.10453e-09 -0.00159492)
(0.528723 -9.48365e-09 -0.00148227)
(0.529587 -9.50712e-09 -0.00136913)
(0.530386 -7.01925e-09 -0.00125883)
(0.53112 -2.56578e-09 -0.00115444)
(0.531795 1.87941e-09 -0.00105861)
(0.532416 5.25394e-09 -0.000973499)
(0.53299 8.35522e-09 -0.000900764)
(0.533524 1.20773e-08 -0.000841472)
(0.534027 1.5752e-08 -0.000796099)
(0.534505 1.7886e-08 -0.000764531)
(0.534969 1.79011e-08 -0.000746093)
(0.535423 1.64647e-08 -0.000739601)
(0.535875 1.45025e-08 -0.000743424)
(0.53633 1.25395e-08 -0.000755573)
(0.536792 1.09039e-08 -0.000773818)
(0.537264 9.74742e-09 -0.00079579)
(0.537747 8.64509e-09 -0.000819105)
(0.538241 6.82948e-09 -0.000841474)
(0.538745 4.16974e-09 -0.000860823)
(0.539257 1.56581e-09 -0.000875402)
(0.539774 -4.48872e-11 -0.00088387)
(0.540291 -9.08148e-10 -0.000885351)
(0.540805 -2.16888e-09 -0.000879469)
(0.541312 -4.35122e-09 -0.00086636)
(0.541808 -6.44024e-09 -0.00084665)
(0.542289 -6.74773e-09 -0.000821398)
(0.542753 -4.41621e-09 -0.000792028)
(0.543199 -1.1476e-11 -0.00076024)
(0.543625 5.28824e-09 -0.000727913)
(0.544033 1.06913e-08 -0.000696995)
(0.544424 1.58236e-08 -0.000669377)
(0.5448 2.0211e-08 -0.000646784)
(0.545164 2.33869e-08 -0.00063068)
(0.545522 2.57119e-08 -0.000622198)
(0.545878 2.81961e-08 -0.000622077)
(0.546237 3.10346e-08 -0.000630625)
(0.546602 3.30705e-08 -0.0006477)
(0.546981 3.3499e-08 -0.000672716)
(0.547375 3.34534e-08 -0.000704668)
(0.547789 3.4521e-08 -0.000742166)
(0.548225 3.62853e-08 -0.000783493)
(0.548685 3.66688e-08 -0.000826672)
(0.549169 3.46681e-08 -0.000869533)
(0.549674 3.1305e-08 -0.000909779)
(0.5502 2.7681e-08 -0.000945038)
(0.550741 2.34796e-08 -0.000972914)
(0.551293 1.78782e-08 -0.000991048)
(0.551848 1.10002e-08 -0.000997164)
(0.552398 3.92894e-09 -0.000989071)
(0.552934 -1.97822e-09 -0.000964657)
(0.553446 -5.50962e-09 -0.00092187)
(0.55392 -6.41277e-09 -0.000858687)
(0.554345 -6.4851e-09 -0.000773055)
(0.554705 -9.01813e-09 -0.000662781)
(0.554983 -1.5991e-08 -0.000525376)
(0.555162 -2.57629e-08 -0.000357763)
(0.55522 -3.42432e-08 -0.000155985)
(0.555133 -3.93303e-08 8.56796e-05)
(0.554871 -4.13e-08 0.000376446)
(0.554399 -4.08108e-08 0.000727919)
(0.553674 -3.79675e-08 0.00115344)
(0.552646 -3.21334e-08 0.00167004)
(0.551248 -2.37755e-08 0.00229956)
(0.549399 -1.44072e-08 0.00306968)
(0.546999 -5.31232e-09 0.00401496)
(0.543922 2.2306e-09 0.00517787)
(0.540013 5.84272e-09 0.00660957)
(0.535084 3.47295e-09 0.00837036)
(0.528906 -3.09776e-09 0.0105296)
(0.521207 -8.28676e-09 0.0131644)
(0.511671 -8.21101e-09 0.0163576)
(0.499932 -5.03583e-09 0.0201935)
(0.485584 -4.26096e-09 0.0247516)
(0.468185 -1.00674e-08 0.030097)
(0.447274 -2.66658e-08 0.0362674)
(0.422394 -6.31545e-08 0.0432548)
(0.393134 -1.33366e-07 0.0509801)
(0.359176 -2.45641e-07 0.0592574)
(0.320373 -3.82928e-07 0.0677423)
(0.276852 -4.92461e-07 0.0758496)
(0.229166 -5.22265e-07 0.0826181)
(0.178429 -4.98661e-07 0.0864388)
(0.126776 -4.83292e-07 0.0846926)
(0.0766711 -4.51152e-07 0.0725988)
(0.0324339 -4.6009e-07 0.0444254)
(-0.00339482 3.19923e-07 -0.0042458)
(-0.00916875 7.97645e-06 -0.0630739)
(0.00670358 1.18479e-05 0.0497868)
(0.0342225 4.98485e-07 -0.0194914)
(0.071016 1.31713e-06 -0.0713907)
(0.110611 1.19651e-06 -0.104827)
(0.152664 9.79624e-07 -0.124734)
(0.196576 8.03586e-07 -0.13463)
(0.241517 5.31844e-07 -0.137499)
(0.286353 2.40137e-07 -0.135358)
(0.330101 1.25123e-08 -0.129644)
(0.371925 -1.24665e-07 -0.121393)
(0.411162 -1.87367e-07 -0.111384)
(0.447317 -2.06351e-07 -0.100224)
(0.480046 -2.0057e-07 -0.0884016)
(0.509139 -1.77786e-07 -0.0763183)
(0.5345 -1.38827e-07 -0.0643048)
(0.556134 -8.54375e-08 -0.0526329)
(0.57413 -2.32156e-08 -0.0415216)
(0.588644 3.99599e-08 -0.0311426)
(0.599885 9.61528e-08 -0.0216239)
(0.608102 1.39675e-07 -0.0130542)
(0.613573 1.69183e-07 -0.00548612)
(0.616593 1.87456e-07 0.00105735)
(0.617461 1.98983e-07 0.00657938)
(0.616508 2.07275e-07 0.0111182)
(0.614042 2.11581e-07 0.014731)
(0.610361 2.09633e-07 0.017483)
(0.605738 1.99679e-07 0.0194488)
(0.600426 1.81642e-07 0.0207092)
(0.59465 1.57616e-07 0.0213489)
(0.588608 1.31133e-07 0.0214545)