/*--------------------------------*- C++ -*----------------------------------*\
  =========                 |
  \\      /  F ield         | OpenFOAM: The Open Source CFD Toolbox
   \\    /   O peration     | Website:  https://openfoam.org
    \\  /    A nd           | Version:  8
     \\/     M anipulation  |
\*---------------------------------------------------------------------------*/
FoamFile
{
    version     2.0;
    format      ascii;
    class       volScalarField;
    location    "1000";
    object      epsilon;
}
// * * * * * * * * * * * * * * * * * * * * * * * * * * * * * * * * * * * * * //

dimensions      [0 2 -3 0 0 0 0];

internalField   nonuniform List<scalar> 
48000
(
0.185943
0.190791
1.20079
1.12036
1.46916
1.84161
2.21457
2.59314
2.97777
3.36718
3.76268
4.16462
4.57327
4.9888
5.41129
5.84071
6.27696
6.71984
7.1691
7.62443
8.08545
8.55176
9.02291
9.49841
9.97777
10.4604
10.9459
11.4336
11.9229
12.4134
12.9044
13.3953
13.8857
14.3749
14.8623
15.3476
15.83
16.3092
16.7845
17.2555
17.7217
18.1827
18.6379
19.087
19.5295
19.9651
20.3932
20.8136
21.2259
21.6297
22.0248
22.4107
22.7873
23.1543
23.5113
23.8582
24.1948
24.5207
24.8359
25.1402
25.4334
25.7153
25.9859
26.245
26.4924
26.7282
26.9521
27.1641
27.3647
27.554
27.7318
27.8977
28.0519
28.1943
28.325
28.4439
28.5512
28.6468
28.7309
28.8036
28.8648
28.9148
28.9535
28.9812
28.998
29.0039
28.9991
28.9837
28.9579
28.9218
28.8756
28.8193
28.7533
28.6776
28.5924
28.4978
28.3941
28.2814
28.1598
28.0296
27.891
27.744
27.5889
27.4258
27.255
27.0765
26.8907
26.6975
26.4973
26.2901
26.0762
25.8558
25.6289
25.3957
25.1564
24.9112
24.6602
24.4035
24.1414
23.874
23.6014
23.3237
23.0412
22.7539
22.4621
22.1658
21.8652
21.5605
21.2518
20.9393
20.623
20.3032
19.98
19.6536
19.3241
18.9917
18.6565
18.3188
17.9786
17.6362
17.2917
16.9453
16.5971
16.2475
15.8965
15.5443
15.1912
14.8374
14.4829
14.1281
13.7732
13.4183
13.0637
12.7096
12.3561
12.0036
11.6522
11.3022
10.9538
10.6071
10.2625
9.92018
9.58031
9.24314
8.90889
8.57779
8.25005
7.92589
7.60551
7.28914
6.97697
6.66921
6.36604
6.06765
5.77421
5.4859
5.20286
4.92524
4.65317
4.38675
4.12609
3.87125
3.62228
3.37924
3.14219
2.91141
2.68698
2.47132
2.26098
2.05446
1.85155
1.65133
1.4528
1.25513
1.06295
0.895128
0.994334
0.180308
0.178414
0.175726
0.18596
0.190833
1.20067
1.12016
1.46919
1.84172
2.2147
2.59329
2.97792
3.36734
3.76284
4.16478
4.57343
4.98896
5.41145
5.84087
6.27712
6.72
7.16925
7.62458
8.0856
8.5519
9.02305
9.49855
9.9779
10.4606
10.946
11.4337
11.9231
12.4135
12.9045
13.3954
13.8858
14.3749
14.8624
15.3476
15.8301
16.3092
16.7845
17.2556
17.7218
18.1827
18.638
19.0871
19.5296
19.9651
20.3932
20.8136
21.2259
21.6297
22.0248
22.4107
22.7873
23.1543
23.5113
23.8582
24.1947
24.5207
24.8359
25.1402
25.4333
25.7153
25.9858
26.2449
26.4924
26.7281
26.9521
27.164
27.3646
27.554
27.7317
27.8977
28.0518
28.1943
28.3249
28.4438
28.5511
28.6468
28.7308
28.8035
28.8647
28.9147
28.9534
28.9811
28.9979
29.0038
28.999
28.9836
28.9578
28.9217
28.8754
28.8192
28.7532
28.6775
28.5923
28.4977
28.394
28.2813
28.1597
28.0295
27.8909
27.7439
27.5888
27.4257
27.2549
27.0764
26.8905
26.6974
26.4972
26.29
26.0761
25.8557
25.6287
25.3956
25.1563
24.9111
24.6601
24.4034
24.1413
23.8739
23.6013
23.3236
23.0411
22.7538
22.462
22.1657
21.8651
21.5604
21.2517
20.9392
20.6229
20.3031
19.9799
19.6535
19.324
18.9916
18.6564
18.3187
17.9785
17.6361
17.2916
16.9452
16.5971
16.2474
15.8964
15.5443
15.1912
14.8373
14.4829
14.1281
13.7731
13.4182
13.0636
12.7095
12.3561
12.0035
11.6522
11.3021
10.9537
10.6071
10.2625
9.92013
9.58026
9.24309
8.90885
8.57775
8.25001
7.92585
7.60548
7.28911
6.97694
6.66918
6.36601
6.06762
5.77419
5.48587
5.20284
4.92522
4.65315
4.38674
4.12607
3.87124
3.62227
3.37923
3.14218
2.9114
2.68697
2.47131
2.26097
2.05445
1.85155
1.65133
1.45281
1.25518
1.06306
0.895283
0.994234
0.180305
0.178474
0.175748
0.295473
0.367789
0.570335
0.651487
0.784038
0.929954
1.08063
1.23522
1.39351
1.55534
1.7208
1.89001
2.06304
2.23994
2.42074
2.60542
2.79394
2.98623
3.18217
3.38164
3.58447
3.79049
3.99949
4.21125
4.42553
4.64209
4.86066
5.08096
5.30272
5.52566
5.74949
5.9739
6.19862
6.42334
6.64779
6.87167
7.0947
7.3166
7.5371
7.75594
7.97286
8.1876
8.39993
8.60961
8.81642
9.02014
9.22057
9.4175
9.61076
9.80016
9.98553
10.1667
10.3436
10.516
10.6838
10.8468
11.0051
11.1583
11.3066
11.4497
11.5877
11.7204
11.8477
11.9697
12.0862
12.1973
12.3028
12.4028
12.4976
12.5871
12.671
12.7495
12.8224
12.8898
12.9517
13.0081
13.0591
13.1046
13.1447
13.1795
13.2089
13.233
13.2519
13.2657
13.2743
13.2779
13.2764
13.2701
13.2588
13.2428
13.2221
13.1967
13.1667
13.1322
13.0933
13.0501
13.0025
12.9508
12.895
12.8352
12.7715
12.7038
12.6325
12.5574
12.4787
12.3965
12.3108
12.2218
12.1295
12.034
11.9354
11.8338
11.7291
11.6216
11.5113
11.3983
11.2826
11.1643
11.0435
10.9203
10.7947
10.6667
10.5366
10.4043
10.27
10.1336
9.99523
9.85501
9.71298
9.56921
9.42377
9.27674
9.12817
8.97815
8.82675
8.67404
8.5201
8.365
8.20882
8.05165
7.89356
7.73463
7.57495
7.4146
7.25368
7.09227
6.93045
6.76833
6.60599
6.44353
6.28105
6.11865
5.95642
5.79446
5.63288
5.47177
5.31125
5.15141
4.99236
4.83421
4.67706
4.52101
4.36618
4.21267
4.06057
3.91
3.76106
3.61385
3.46846
3.325
3.18356
3.04423
2.9071
2.77224
2.63975
2.5097
2.38214
2.25715
2.13478
2.01507
1.89805
1.78377
1.67224
1.56347
1.45748
1.35432
1.25402
1.1567
1.06189
0.969158
0.878813
0.790565
0.70442
0.620844
0.541733
0.471306
0.428226
0.306613
0.243616
0.264659
0.295449
0.367588
0.570078
0.651991
0.784133
0.929921
1.08057
1.23516
1.39344
1.55526
1.72072
1.88993
2.06295
2.23985
2.42064
2.60532
2.79384
2.98612
3.18206
3.38152
3.58435
3.79036
3.99936
4.21111
4.42539
4.64195
4.86051
5.08081
5.30257
5.52551
5.74932
5.97374
6.19845
6.42317
6.64762
6.87149
7.09452
7.31642
7.53692
7.75576
7.97267
8.18741
8.39974
8.60942
8.81622
9.01994
9.22037
9.4173
9.61055
9.79995
9.98532
10.1665
10.3434
10.5158
10.6835
10.8466
11.0048
11.1581
11.3064
11.4495
11.5875
11.7201
11.8475
11.9694
12.086
12.197
12.3026
12.4026
12.4974
12.5868
12.6708
12.7493
12.8222
12.8896
12.9515
13.0079
13.0589
13.1044
13.1445
13.1792
13.2087
13.2328
13.2517
13.2655
13.2741
13.2777
13.2762
13.2699
13.2586
13.2426
13.2219
13.1965
13.1665
13.132
13.0931
13.0499
13.0023
12.9506
12.8948
12.835
12.7713
12.7036
12.6323
12.5572
12.4785
12.3963
12.3106
12.2216
12.1293
12.0338
11.9352
11.8336
11.729
11.6215
11.5112
11.3981
11.2824
11.1641
11.0433
10.9201
10.7945
10.6666
10.5365
10.4042
10.2698
10.1334
9.99507
9.85486
9.71283
9.56906
9.42363
9.27659
9.12803
8.97801
8.82661
8.6739
8.51996
8.36487
8.2087
8.05152
7.89343
7.73451
7.57483
7.41449
7.25357
7.09215
6.93034
6.76822
6.60589
6.44343
6.28095
6.11855
5.95632
5.79436
5.63278
5.47168
5.31116
5.15132
4.99228
4.83413
4.67698
4.52094
4.36611
4.21259
4.0605
3.90993
3.76099
3.61378
3.4684
3.32494
3.1835
3.04417
2.90704
2.77219
2.6397
2.50965
2.38209
2.2571
2.13473
2.01502
1.89801
1.78373
1.6722
1.56343
1.45745
1.35429
1.25399
1.15667
1.06186
0.969135
0.878792
0.790548
0.704407
0.620828
0.541655
0.470994
0.428633
0.307355
0.243686
0.2647
0.330928
0.517553
0.57999
0.644365
0.72931
0.826275
0.930418
1.03977
1.15343
1.27095
1.39211
1.5168
1.64499
1.77662
1.91167
2.0501
2.19186
2.33686
2.48503
2.63625
2.79041
2.94736
3.10696
3.26902
3.43337
3.59981
3.76814
3.93815
4.1096
4.28228
4.45596
4.63039
4.80533
4.98056
5.15583
5.33091
5.50556
5.67955
5.85265
6.02463
6.1953
6.36442
6.5318
6.69724
6.86055
7.02154
7.18005
7.3359
7.48893
7.639
7.78596
7.92968
8.07003
8.20689
8.34015
8.46971
8.59547
8.71735
8.83527
8.94915
9.05893
9.16454
9.26595
9.3631
9.45595
9.54447
9.62864
9.70846
9.78396
9.85515
9.92205
9.98456
10.0427
10.0965
10.1459
10.1909
10.2316
10.268
10.3001
10.3279
10.3516
10.371
10.3863
10.3975
10.4046
10.4077
10.4069
10.4021
10.3935
10.381
10.3649
10.345
10.3215
10.2944
10.2638
10.2298
10.1924
10.1517
10.1077
10.0605
10.0102
9.95685
9.90051
9.84125
9.77913
9.71422
9.64658
9.57628
9.50339
9.42797
9.35008
9.26979
9.18716
9.10225
9.01513
8.92585
8.83448
8.74107
8.64568
8.54838
8.44922
8.34825
8.24554
8.14113
8.0351
7.92749
7.81835
7.70775
7.59574
7.48238
7.36772
7.25182
7.13473
7.01652
6.89725
6.77697
6.65574
6.53363
6.4107
6.28701
6.16263
6.03762
5.91205
5.78599
5.65951
5.53269
5.40558
5.27827
5.15084
5.02335
4.8959
4.76854
4.64138
4.51448
4.38793
4.26181
4.1362
4.01119
3.88687
3.76332
3.64062
3.51885
3.39812
3.27849
3.16005
3.04289
2.92708
2.81272
2.69987
2.58862
2.47904
2.3712
2.26518
2.16103
2.05882
1.95862
1.86046
1.76441
1.6705
1.57877
1.48926
1.40199
1.31698
1.23425
1.15383
1.07573
0.999977
0.926566
0.855421
0.78649
0.719851
0.655574
0.593966
0.535546
0.480998
0.43109
0.389368
0.343901
0.308487
0.334186
0.330787
0.517392
0.579699
0.644386
0.729291
0.826214
0.930342
1.03969
1.15335
1.27086
1.39202
1.51671
1.64489
1.77653
1.91158
2.05
2.19175
2.33676
2.48492
2.63615
2.7903
2.94726
3.10685
3.26891
3.43326
3.5997
3.76803
3.93803
4.10949
4.28217
4.45584
4.63027
4.80522
4.98045
5.15572
5.3308
5.50545
5.67943
5.85253
6.02452
6.19518
6.36431
6.53169
6.69713
6.86044
7.02143
7.17994
7.33579
7.48883
7.6389
7.78586
7.92958
8.06993
8.20679
8.34005
8.46961
8.59537
8.71725
8.83517
8.94905
9.05883
9.16445
9.26586
9.363
9.45585
9.54438
9.62855
9.70837
9.78387
9.85507
9.92196
9.98448
10.0426
10.0964
10.1458
10.1908
10.2315
10.2679
10.3
10.3279
10.3515
10.3709
10.3862
10.3974
10.4045
10.4076
10.4068
10.402
10.3934
10.381
10.3648
10.3449
10.3214
10.2943
10.2638
10.2297
10.1923
10.1516
10.1076
10.0604
10.0101
9.9568
9.90046
9.8412
9.77907
9.71416
9.64653
9.57623
9.50334
9.42792
9.35003
9.26974
9.18711
9.10221
9.01508
8.92581
8.83443
8.74102
8.64564
8.54834
8.44917
8.34821
8.2455
8.1411
8.03506
7.92745
7.81832
7.70772
7.59571
7.48234
7.36768
7.25178
7.1347
7.01649
6.89722
6.77694
6.65571
6.5336
6.41067
6.28698
6.1626
6.03759
5.91203
5.78597
5.65949
5.53266
5.40556
5.27825
5.15082
5.02333
4.89588
4.76852
4.64136
4.51446
4.38791
4.26179
4.13618
4.01118
3.88686
3.7633
3.6406
3.51884
3.3981
3.27847
3.16004
3.04287
2.92707
2.81271
2.69986
2.58861
2.47903
2.37119
2.26516
2.16102
2.05881
1.95861
1.86045
1.7644
1.67049
1.57876
1.48925
1.40198
1.31697
1.23425
1.15382
1.07573
0.999971
0.92656
0.855416
0.786484
0.719846
0.655569
0.593966
0.535558
0.481038
0.431175
0.389917
0.344491
0.309091
0.334295
1.82222
0.79033
0.691305
0.711382
0.768667
0.842847
0.926705
1.01722
1.11291
1.213
1.31701
1.42469
1.53585
1.65038
1.76817
1.88915
2.01324
2.14036
2.2704
2.40327
2.53886
2.67703
2.81765
2.96058
3.10565
3.2527
3.40154
3.552
3.70387
3.85697
4.01108
4.166
4.32152
4.47743
4.63351
4.78955
4.94535
5.10068
5.25535
5.40916
5.5619
5.71338
5.86341
6.01182
6.15841
6.30303
6.44551
6.5857
6.72344
6.85859
6.99102
7.12061
7.24723
7.37077
7.49112
7.6082
7.7219
7.83215
7.93886
8.04197
8.14142
8.23715
8.3291
8.41724
8.50152
8.58192
8.65842
8.73099
8.79965
8.86439
8.92521
8.9821
9.03505
9.08405
9.12911
9.17024
9.20746
9.24078
9.27022
9.29582
9.3176
9.3356
9.34984
9.36036
9.36721
9.37043
9.37005
9.36613
9.35871
9.34785
9.33358
9.31597
9.29507
9.27092
9.2436
9.21314
9.17962
9.14308
9.1036
9.06121
9.01599
8.968
8.91729
8.86392
8.80796
8.74946
8.68849
8.6251
8.55936
8.49131
8.42103
8.34857
8.27398
8.19732
8.11866
8.03803
7.95551
7.87114
7.78498
7.69708
7.6075
7.51629
7.42349
7.32917
7.23337
7.13615
7.03755
6.93763
6.83645
6.73404
6.63047
6.52579
6.42004
6.31329
6.20558
6.09698
5.98754
5.87731
5.76636
5.65473
5.5425
5.42972
5.31645
5.20277
5.08872
4.97438
4.85982
4.7451
4.6303
4.51548
4.40071
4.28607
4.17163
4.05747
3.94366
3.83028
3.7174
3.6051
3.49346
3.38256
3.27247
3.16328
3.05505
2.94788
2.84183
2.73698
2.6334
2.53118
2.43037
2.33105
2.23329
2.13716
2.04271
1.95
1.85909
1.77004
1.68289
1.59768
1.51446
1.43326
1.35412
1.27706
1.20212
1.12932
1.05869
0.990261
0.924069
0.860147
0.798533
0.739295
0.68258
0.628622
0.577836
0.530884
0.488743
0.452805
0.425125
0.404115
0.381158
0.346675
1.82218
0.789762
0.691088
0.711383
0.768643
0.842784
0.926627
1.01713
1.11282
1.21291
1.31692
1.4246
1.53576
1.65028
1.76807
1.88906
2.01315
2.14026
2.2703
2.40317
2.53876
2.67693
2.81755
2.96048
3.10555
3.2526
3.40144
3.5519
3.70378
3.85687
4.01098
4.16591
4.32143
4.47733
4.63342
4.78946
4.94526
5.10059
5.25527
5.40907
5.56182
5.7133
5.86333
6.01174
6.15833
6.30296
6.44544
6.58562
6.72337
6.85852
6.99096
7.12054
7.24716
7.37071
7.49106
7.60814
7.72184
7.83209
7.9388
8.04192
8.14137
8.2371
8.32905
8.41719
8.50148
8.58188
8.65837
8.73095
8.79961
8.86434
8.92517
8.98207
9.03501
9.08402
9.12908
9.17021
9.20742
9.24074
9.27019
9.29579
9.31757
9.33557
9.34981
9.36034
9.36719
9.3704
9.37003
9.36611
9.35869
9.34783
9.33356
9.31595
9.29505
9.27091
9.24358
9.21313
9.17961
9.14307
9.10358
9.0612
9.01598
8.96799
8.91728
8.86391
8.80795
8.74945
8.68848
8.62509
8.55935
8.49131
8.42102
8.34856
8.27397
8.19732
8.11865
8.03803
7.95551
7.87114
7.78498
7.69708
7.6075
7.51628
7.42349
7.32917
7.23337
7.13615
7.03755
6.93764
6.83645
6.73404
6.63047
6.52579
6.42004
6.31329
6.20559
6.09699
5.98754
5.87731
5.76636
5.65474
5.5425
5.42972
5.31646
5.20277
5.08873
4.97439
4.85983
4.74511
4.63031
4.51548
4.40072
4.28608
4.17164
4.05748
3.94367
3.83028
3.7174
3.6051
3.49347
3.38256
3.27248
3.16328
3.05506
2.94788
2.84183
2.73698
2.63341
2.53118
2.43037
2.33106
2.2333
2.13716
2.04271
1.95
1.8591
1.77004
1.68289
1.59768
1.51446
1.43326
1.35412
1.27706
1.20212
1.12932
1.05869
0.990263
0.92407
0.860149
0.798534
0.739296
0.68258
0.628622
0.577835
0.530888
0.488774
0.452933
0.425654
0.405263
0.382152
0.346743
1.75766
0.909027
0.797547
0.799817
0.841378
0.90213
0.974375
1.05455
1.14077
1.23195
1.32743
1.42678
1.52971
1.63602
1.74554
1.85814
1.97373
2.09218
2.2134
2.33728
2.46369
2.59253
2.72365
2.85693
2.99223
3.12938
3.26823
3.40861
3.55035
3.69328
3.8372
3.98193
4.12728
4.27306
4.41908
4.56513
4.71103
4.85659
5.00161
5.1459
5.28927
5.43156
5.57257
5.71214
5.8501
5.98628
6.12054
6.25271
6.38266
6.51025
6.63535
6.75784
6.87759
6.99451
7.10848
7.2194
7.3272
7.43179
7.53308
7.63102
7.72553
7.81656
7.90406
7.98799
8.0683
8.14496
8.21794
8.28724
8.35282
8.4147
8.47286
8.5273
8.57802
8.62501
8.66826
8.7078
8.74363
8.77577
8.80423
8.82905
8.85024
8.86784
8.88187
8.89238
8.89939
8.90294
8.90307
8.89983
8.89326
8.8834
8.87031
8.85402
8.8346
8.81208
8.78653
8.75799
8.72652
8.69217
8.655
8.61506
8.57241
8.52711
8.47921
8.42877
8.37584
8.32049
8.26276
8.20273
8.14043
8.07594
8.0093
7.94056
7.8698
7.79705
7.72237
7.64582
7.56745
7.48731
7.40546
7.32193
7.2368
7.1501
7.0619
6.97222
6.88114
6.7887
6.69494
6.59992
6.50369
6.4063
6.30779
6.20823
6.10765
6.00612
5.90369
5.8004
5.69632
5.59149
5.48598
5.37985
5.27314
5.16592
5.05825
4.95019
4.84181
4.73316
4.62431
4.51534
4.40629
4.29725
4.18829
4.07946
3.97085
3.86253
3.75457
3.64703
3.54001
3.43356
3.32777
3.22271
3.11846
3.01509
2.91267
2.81127
2.71098
2.61186
2.51399
2.41743
2.32224
2.22851
2.13628
2.04563
1.9566
1.86926
1.78366
1.69984
1.61786
1.53775
1.45956
1.38333
1.30908
1.23686
1.1667
1.09864
1.03272
0.968995
0.907516
0.848359
0.791626
0.73746
0.686086
0.637843
0.593269
0.553227
0.519142
0.4934
0.4798
0.481277
0.481165
0.290171
1.75855
0.908914
0.797588
0.799838
0.841341
0.902059
0.974291
1.05446
1.14068
1.23186
1.32734
1.42669
1.52962
1.63592
1.74544
1.85805
1.97363
2.09209
2.2133
2.33718
2.46359
2.59243
2.72356
2.85684
2.99213
3.12928
3.26813
3.40852
3.55026
3.69318
3.83711
3.98184
4.12719
4.27297
4.41899
4.56505
4.71095
4.85651
5.00153
5.14582
5.2892
5.43149
5.5725
5.71207
5.85003
5.98622
6.12047
6.25265
6.3826
6.5102
6.6353
6.75778
6.87754
6.99446
7.10843
7.21936
7.32716
7.43174
7.53304
7.63098
7.72549
7.81653
7.90403
7.98795
8.06826
8.14492
8.21791
8.28721
8.3528
8.41467
8.47284
8.52728
8.578
8.62498
8.66824
8.70778
8.74361
8.77575
8.80422
8.82904
8.85023
8.86783
8.88186
8.89237
8.89938
8.90293
8.90306
8.89982
8.89325
8.8834
8.8703
8.85402
8.83459
8.81208
8.78653
8.75799
8.72652
8.69217
8.655
8.61506
8.57241
8.52711
8.47921
8.42877
8.37584
8.32049
8.26277
8.20273
8.14044
8.07594
8.0093
7.94057
7.8698
7.79705
7.72238
7.64583
7.56746
7.48732
7.40546
7.32194
7.23681
7.15011
7.0619
6.97223
6.88115
6.78871
6.69495
6.59993
6.5037
6.40631
6.3078
6.20824
6.10766
6.00613
5.9037
5.80041
5.69633
5.59151
5.486
5.37986
5.27315
5.16593
5.05827
4.95021
4.84182
4.73317
4.62433
4.51535
4.40631
4.29727
4.1883
4.07948
3.97087
3.86254
3.75458
3.64705
3.54002
3.43358
3.32779
3.22273
3.11847
3.0151
2.91268
2.81128
2.71099
2.61187
2.514
2.41744
2.32225
2.22852
2.13629
2.04564
1.95661
1.86927
1.78366
1.69985
1.61786
1.53776
1.45957
1.38333
1.30909
1.23687
1.16671
1.09865
1.03273
0.969
0.90752
0.848363
0.791629
0.737464
0.686088
0.637845
0.593269
0.553228
0.519162
0.493522
0.48034
0.482794
0.4817
0.290191
2.11571
1.07287
0.921952
0.905227
0.933975
0.985051
1.04956
1.12327
1.2039
1.29007
1.38092
1.47587
1.57453
1.67661
1.78189
1.89018
2.00135
2.11526
2.23179
2.35081
2.47221
2.59587
2.72167
2.84946
2.97913
3.11053
3.24351
3.37792
3.51361
3.65042
3.78817
3.9267
4.06585
4.20542
4.34524
4.48515
4.62494
4.76446
4.90352
5.04194
5.17955
5.31617
5.45165
5.58581
5.7185
5.84956
5.97883
6.10618
6.23146
6.35454
6.47529
6.59359
6.70933
6.82239
6.93268
7.04009
7.14454
7.24594
7.34421
7.43929
7.53111
7.6196
7.70472
7.78642
7.86466
7.9394
8.01061
8.07827
8.14237
8.20288
8.2598
8.31312
8.36284
8.40896
8.45147
8.49039
8.52572
8.55747
8.58567
8.61032
8.63146
8.64911
8.66329
8.67404
8.6814
8.68539
8.68605
8.68343
8.67756
8.66848
8.65625
8.6409
8.62249
8.60106
8.57666
8.54934
8.51916
8.48616
8.45039
8.41192
8.37079
8.32706
8.28079
8.23202
8.18081
8.12723
8.07131
8.01312
7.95272
7.89015
7.82548
7.75874
7.69001
7.61933
7.54675
7.47233
7.39612
7.31816
7.23852
7.15724
7.07437
6.98997
6.90407
6.81674
6.72802
6.63796
6.54661
6.45402
6.36024
6.26531
6.1693
6.07225
5.9742
5.87522
5.77536
5.67466
5.57319
5.47099
5.36813
5.26465
5.16062
5.0561
4.95114
4.84581
4.74017
4.63428
4.5282
4.42201
4.31577
4.20954
4.1034
3.99741
3.89164
3.78617
3.68106
3.5764
3.47224
3.36867
3.26576
3.16358
3.06221
2.96171
2.86216
2.76363
2.6662
2.56992
2.47488
2.38113
2.28875
2.19779
2.10831
2.02038
1.93405
1.84937
1.7664
1.68517
1.60575
1.52816
1.45245
1.37867
1.30685
1.23703
1.16925
1.10357
1.04004
0.978732
0.91973
0.863143
0.80912
0.757864
0.709669
0.664964
0.6244
0.589017
0.560573
0.542211
0.539503
0.559723
0.58525
0.330634
2.11602
1.0729
0.921963
0.905196
0.93391
0.984969
1.04947
1.12318
1.2038
1.28997
1.38082
1.47578
1.57444
1.67652
1.78179
1.89009
2.00125
2.11516
2.23169
2.35071
2.47211
2.59578
2.72157
2.84937
2.97904
3.11043
3.24341
3.37783
3.51352
3.65033
3.78808
3.92662
4.06576
4.20533
4.34516
4.48506
4.62487
4.76438
4.90344
5.04186
5.17948
5.3161
5.45158
5.58575
5.71844
5.84949
5.97877
6.10612
6.2314
6.35449
6.47524
6.59354
6.70928
6.82235
6.93264
7.04005
7.1445
7.2459
7.34417
7.43925
7.53107
7.61957
7.70469
7.78639
7.86463
7.93937
8.01059
8.07825
8.14234
8.20286
8.25978
8.3131
8.36283
8.40894
8.45146
8.49038
8.52571
8.55746
8.58566
8.61031
8.63145
8.6491
8.66328
8.67404
8.68139
8.68538
8.68605
8.68342
8.67755
8.66848
8.65625
8.6409
8.62249
8.60106
8.57666
8.54935
8.51916
8.48616
8.4504
8.41193
8.3708
8.32707
8.28079
8.23203
8.18082
8.12723
8.07132
8.01313
7.95273
7.89016
7.82548
7.75875
7.69002
7.61934
7.54676
7.47234
7.39613
7.31818
7.23853
7.15725
7.07439
6.98998
6.90409
6.81675
6.72803
6.63797
6.54662
6.45403
6.36025
6.26533
6.16931
6.07226
5.97422
5.87524
5.77537
5.67468
5.5732
5.471
5.36814
5.26466
5.16064
5.05611
4.95116
4.84582
4.74018
4.63429
4.52822
4.42203
4.31578
4.20955
4.10341
3.99742
3.89165
3.78618
3.68108
3.57641
3.47226
3.36869
3.26577
3.16359
3.06222
2.96172
2.86217
2.76364
2.66621
2.56993
2.47489
2.38114
2.28876
2.1978
2.10832
2.02039
1.93406
1.84938
1.7664
1.68518
1.60575
1.52817
1.45246
1.37868
1.30685
1.23703
1.16926
1.10358
1.04005
0.978738
0.919735
0.863148
0.809124
0.757868
0.709673
0.664966
0.624401
0.589016
0.560578
0.542273
0.53985
0.560821
0.584484
0.330517
2.53491
1.26013
1.06133
1.02433
1.0414
1.08468
1.14354
1.21294
1.29012
1.37343
1.4618
1.55452
1.65109
1.75112
1.85434
1.96052
2.06948
2.18105
2.29509
2.41147
2.53007
2.65075
2.7734
2.8979
3.02411
3.1519
3.28115
3.41171
3.54344
3.6762
3.80984
3.9442
4.07913
4.21447
4.35005
4.48572
4.6213
4.75664
4.89156
5.02591
5.15952
5.29223
5.42387
5.55429
5.68335
5.81088
5.93675
6.06081
6.18292
6.30297
6.42081
6.53633
6.64941
6.75995
6.86784
6.97299
7.07531
7.1747
7.2711
7.36442
7.45461
7.54159
7.62532
7.70574
7.78281
7.8565
7.92676
7.99357
8.05691
8.11676
8.1731
8.22594
8.27525
8.32105
8.36332
8.40208
8.43732
8.46906
8.49731
8.52209
8.54341
8.56131
8.57581
8.58693
8.59471
8.59917
8.60036
8.59831
8.59306
8.58464
8.57311
8.5585
8.54086
8.52024
8.49668
8.47023
8.44094
8.40886
8.37405
8.33655
8.29641
8.25369
8.20844
8.16072
8.11058
8.05806
8.00323
7.94615
7.88685
7.8254
7.76185
7.69625
7.62865
7.55912
7.48769
7.41442
7.33936
7.26257
7.18409
7.10398
7.02228
6.93905
6.85433
6.76817
6.68063
6.59175
6.50158
6.41017
6.31757
6.22384
6.12902
6.03316
5.93631
5.83854
5.73988
5.64039
5.54013
5.43915
5.33751
5.23526
5.13247
5.02919
4.92548
4.8214
4.71702
4.61239
4.50759
4.40268
4.29772
4.19279
4.08794
3.98326
3.87881
3.77466
3.67088
3.56754
3.46473
3.3625
3.26093
3.1601
3.06007
2.96092
2.86272
2.76554
2.66945
2.57451
2.4808
2.38837
2.2973
2.20763
2.11944
2.03277
1.94768
1.86422
1.78245
1.7024
1.62412
1.54767
1.47307
1.40037
1.32962
1.26086
1.19415
1.12955
1.06713
1.00698
0.949204
0.893952
0.841411
0.791837
0.745586
0.703168
0.665341
0.633293
0.609032
0.596272
0.602709
0.646699
0.787685
1.67889
2.53514
1.26011
1.06127
1.02426
1.04132
1.08459
1.14345
1.21284
1.29002
1.37333
1.4617
1.55442
1.65099
1.75102
1.85424
1.96042
2.06938
2.18095
2.29499
2.41137
2.52997
2.65065
2.77331
2.8978
3.02401
3.15181
3.28105
3.41162
3.54335
3.67611
3.80975
3.94412
4.07905
4.21439
4.34997
4.48564
4.62123
4.75656
4.89149
5.02584
5.15945
5.29216
5.4238
5.55423
5.68329
5.81082
5.93669
6.06075
6.18287
6.30291
6.42076
6.53628
6.64937
6.75991
6.8678
6.97295
7.07527
7.17467
7.27106
7.36439
7.45458
7.54156
7.62529
7.70571
7.78279
7.85647
7.92673
7.99355
8.05689
8.11674
8.17309
8.22592
8.27524
8.32104
8.36331
8.40206
8.43731
8.46905
8.4973
8.52208
8.54341
8.56131
8.5758
8.58693
8.5947
8.59917
8.60036
8.59831
8.59306
8.58464
8.57311
8.5585
8.54087
8.52024
8.49668
8.47023
8.44095
8.40887
8.37406
8.33655
8.29642
8.2537
8.20845
8.16073
8.11058
8.05807
8.00324
7.94615
7.88686
7.82541
7.76186
7.69626
7.62866
7.55913
7.4877
7.41443
7.33938
7.26258
7.18411
7.10399
7.02229
6.93906
6.85434
6.76818
6.68064
6.59176
6.50159
6.41018
6.31759
6.22385
6.12903
6.03317
5.93633
5.83855
5.73989
5.6404
5.54014
5.43916
5.33752
5.23528
5.13248
5.0292
4.92549
4.82141
4.71703
4.61241
4.5076
4.40269
4.29774
4.1928
4.08796
3.98327
3.87882
3.77467
3.67089
3.56756
3.46474
3.36251
3.26094
3.16011
3.06008
2.96093
2.86273
2.76555
2.66946
2.57452
2.48081
2.38838
2.29731
2.20764
2.11945
2.03278
1.94769
1.86423
1.78246
1.70241
1.62413
1.54767
1.47307
1.40038
1.32962
1.26087
1.19416
1.12956
1.06714
1.00698
0.949209
0.893956
0.841415
0.791841
0.74559
0.70317
0.665341
0.633291
0.609024
0.59626
0.602723
0.646746
0.786635
1.67775
2.97621
1.46017
1.2121
1.15501
1.16129
1.19796
1.25248
1.31891
1.394
1.4758
1.56305
1.65488
1.75069
1.85002
1.95252
2.05792
2.16599
2.27655
2.38943
2.50448
2.62157
2.74057
2.86136
2.98382
3.10782
3.23325
3.35999
3.4879
3.61687
3.74675
3.87742
4.00874
4.14057
4.27275
4.40516
4.53764
4.67003
4.80219
4.93397
5.0652
5.19575
5.32545
5.45416
5.58172
5.708
5.83285
5.95612
6.07769
6.19741
6.31516
6.43083
6.54428
6.6554
6.76409
6.87024
6.97376
7.07456
7.17254
7.26762
7.35974
7.44882
7.5348
7.61762
7.69723
7.77358
7.84663
7.91634
7.98268
8.04562
8.10515
8.16125
8.2139
8.26309
8.30882
8.35109
8.38989
8.42524
8.45713
8.48559
8.51062
8.53224
8.55047
8.56534
8.57687
8.58509
8.59002
8.59171
8.59019
8.58548
8.57764
8.5667
8.5527
8.53569
8.51571
8.4928
8.46702
8.4384
8.407
8.37287
8.33606
8.29662
8.25459
8.21004
8.16301
8.11356
8.06174
8.00759
7.95119
7.89256
7.83178
7.76889
7.70395
7.637
7.56809
7.49729
7.42464
7.35019
7.274
7.19611
7.11657
7.03544
6.95276
6.86858
6.78296
6.69594
6.60758
6.51791
6.42701
6.3349
6.24165
6.1473
6.05191
5.95553
5.85821
5.76
5.66096
5.56114
5.4606
5.3594
5.25759
5.15523
5.05238
4.9491
4.84545
4.7415
4.63732
4.53295
4.42848
4.32396
4.21947
4.11508
4.01084
3.90685
3.80315
3.69984
3.59697
3.49462
3.39286
3.29177
3.19141
3.09186
2.99319
2.89546
2.79876
2.70314
2.60866
2.51541
2.42343
2.3328
2.24356
2.15578
2.06951
1.9848
1.90171
1.82028
1.74056
1.66258
1.58641
1.51208
1.43964
1.36914
1.30063
1.23417
1.16984
1.10773
1.04794
0.990606
0.935905
0.884064
0.835385
0.790286
0.749357
0.713463
0.683949
0.663058
0.65492
0.668263
0.725678
0.913234
1.99072
2.97644
1.46011
1.21202
1.15492
1.16119
1.19786
1.25238
1.31881
1.3939
1.4757
1.56295
1.65478
1.75059
1.84992
1.95242
2.05782
2.16589
2.27645
2.38933
2.50438
2.62147
2.74048
2.86127
2.98372
3.10773
3.23316
3.3599
3.48781
3.61678
3.74666
3.87733
4.00865
4.14048
4.27267
4.40508
4.53756
4.66995
4.80212
4.93389
5.06513
5.19568
5.32538
5.45409
5.58166
5.70794
5.83279
5.95606
6.07763
6.19736
6.31511
6.43078
6.54423
6.65536
6.76405
6.8702
6.97373
7.07452
7.1725
7.26759
7.35971
7.44879
7.53478
7.6176
7.69721
7.77356
7.8466
7.91632
7.98266
8.04561
8.10514
8.16123
8.21388
8.26308
8.30881
8.35108
8.38988
8.42523
8.45712
8.48558
8.51061
8.53223
8.55047
8.56534
8.57687
8.58508
8.59002
8.59171
8.59019
8.58548
8.57764
8.5667
8.55271
8.53569
8.51571
8.49281
8.46702
8.43841
8.40701
8.37288
8.33607
8.29662
8.2546
8.21005
8.16302
8.11357
8.06175
8.0076
7.9512
7.89257
7.83179
7.7689
7.70396
7.63701
7.56811
7.4973
7.42465
7.3502
7.27401
7.19612
7.11658
7.03545
6.95277
6.86859
6.78297
6.69595
6.60759
6.51793
6.42702
6.33491
6.24166
6.14731
6.05192
5.95554
5.85822
5.76001
5.66097
5.56115
5.46061
5.35941
5.2576
5.15524
5.05239
4.94911
4.84546
4.74152
4.63733
4.53296
4.42849
4.32397
4.21948
4.11509
4.01086
3.90686
3.80316
3.69985
3.59698
3.49463
3.39287
3.29178
3.19142
3.09187
2.9932
2.89547
2.79877
2.70314
2.60867
2.51542
2.42344
2.3328
2.24357
2.15579
2.06952
1.98481
1.90172
1.82029
1.74056
1.66259
1.58642
1.51209
1.43965
1.36914
1.30063
1.23418
1.16985
1.10773
1.04794
0.990611
0.93591
0.884068
0.835389
0.790289
0.749359
0.713464
0.683949
0.663057
0.654917
0.668268
0.725694
0.912973
1.99041
3.43572
1.67084
1.37314
1.29638
1.29259
1.3235
1.37459
1.43897
1.5129
1.59411
1.68115
1.773
1.86895
1.96846
2.07112
2.17661
2.28467
2.39506
2.50762
2.62218
2.73859
2.85671
2.97644
3.09764
3.22021
3.34402
3.46898
3.59497
3.72187
3.84957
3.97794
4.10687
4.23623
4.3659
4.49573
4.62561
4.75539
4.88493
5.0141
5.14275
5.27074
5.39793
5.52419
5.64936
5.77331
5.89591
6.01701
6.13649
6.25422
6.37007
6.48392
6.59566
6.70517
6.81234
6.91707
7.01927
7.11884
7.21569
7.30974
7.40091
7.48914
7.57435
7.65649
7.73549
7.81132
7.88392
7.95326
8.0193
8.08201
8.14137
8.19735
8.24994
8.29912
8.34489
8.38725
8.42619
8.46171
8.49382
8.52253
8.54784
8.56978
8.58836
8.60361
8.61554
8.62418
8.62955
8.6317
8.63065
8.62644
8.61909
8.60866
8.59518
8.57869
8.55923
8.53685
8.51159
8.48351
8.45263
8.41902
8.38273
8.34379
8.30227
8.25821
8.21167
8.16269
8.11133
8.05763
8.00166
7.94346
7.88308
7.82058
7.75601
7.68942
7.62085
7.55038
7.47803
7.40387
7.32795
7.25031
7.17101
7.09009
7.00761
6.92362
6.83817
6.7513
6.66307
6.57353
6.48272
6.3907
6.29753
6.20324
6.1079
6.01156
5.91426
5.81607
5.71704
5.61722
5.51667
5.41545
5.31361
5.21122
5.10834
5.00502
4.90133
4.79734
4.6931
4.58868
4.48416
4.37959
4.27505
4.1706
4.06631
3.96226
3.85852
3.75515
3.65223
3.54984
3.44803
3.34689
3.24648
3.14688
3.04816
2.95038
2.85361
2.75793
2.66338
2.57005
2.47798
2.38725
2.2979
2.20998
2.12357
2.0387
1.95542
1.87378
1.79383
1.71562
1.63918
1.56457
1.49184
1.42103
1.35222
1.28548
1.22088
1.15853
1.09856
1.04113
0.986442
0.934758
0.88643
0.841937
0.80195
0.767456
0.739981
0.722073
0.718435
0.739088
0.810541
1.03589
2.29491
3.43599
1.67077
1.37304
1.29628
1.29248
1.32339
1.37448
1.43886
1.51279
1.594
1.68104
1.77289
1.86884
1.96836
2.07102
2.17651
2.28456
2.39496
2.50752
2.62208
2.73849
2.85661
2.97634
3.09754
3.22011
3.34393
3.46889
3.59488
3.72178
3.84948
3.97785
4.10679
4.23615
4.36582
4.49565
4.62553
4.75531
4.88486
5.01402
5.14268
5.27067
5.39787
5.52412
5.6493
5.77325
5.89585
6.01695
6.13644
6.25417
6.37002
6.48388
6.59561
6.70513
6.8123
6.91704
7.01923
7.1188
7.21565
7.30971
7.40088
7.48911
7.57432
7.65646
7.73547
7.8113
7.8839
7.95324
8.01928
8.08199
8.14135
8.19733
8.24992
8.29911
8.34488
8.38724
8.42618
8.4617
8.49381
8.52252
8.54784
8.56978
8.58836
8.60361
8.61554
8.62418
8.62955
8.6317
8.63065
8.62644
8.6191
8.60866
8.59518
8.57869
8.55924
8.53686
8.5116
8.48351
8.45264
8.41903
8.38274
8.3438
8.30228
8.25822
8.21168
8.1627
8.11134
8.05764
8.00167
7.94347
7.88309
7.82059
7.75602
7.68943
7.62087
7.55039
7.47804
7.40388
7.32796
7.25032
7.17102
7.0901
7.00762
6.92363
6.83818
6.75131
6.66308
6.57354
6.48273
6.39072
6.29754
6.20326
6.10792
6.01157
5.91428
5.81608
5.71705
5.61723
5.51668
5.41546
5.31363
5.21123
5.10835
5.00503
4.90134
4.79735
4.69311
4.5887
4.48417
4.3796
4.27506
4.17061
4.06632
3.96227
3.85853
3.75516
3.65224
3.54985
3.44804
3.3469
3.24649
3.14689
3.04817
2.95039
2.85362
2.75794
2.66339
2.57006
2.47799
2.38725
2.2979
2.20999
2.12357
2.0387
1.95543
1.87379
1.79384
1.71562
1.63919
1.56458
1.49184
1.42104
1.35223
1.28548
1.22088
1.15854
1.09857
1.04114
0.986446
0.934761
0.886433
0.84194
0.801953
0.767458
0.739982
0.722073
0.718436
0.739095
0.81056
1.03587
2.29487
3.916
1.89263
1.54454
1.44836
1.43499
1.46076
1.50907
1.57208
1.64552
1.72681
1.81429
1.9068
2.00353
2.10384
2.20727
2.31345
2.42207
2.53288
2.64567
2.76028
2.87653
2.9943
3.11347
3.23391
3.35551
3.47819
3.60182
3.72631
3.85157
3.97749
4.10396
4.23088
4.35815
4.48564
4.61325
4.74085
4.86832
4.99555
5.12239
5.24874
5.37444
5.49938
5.62342
5.74643
5.86828
5.98883
6.10797
6.22556
6.34147
6.45559
6.5678
6.67798
6.78602
6.89182
6.99526
7.09626
7.19472
7.29055
7.38367
7.47399
7.56145
7.64598
7.72751
7.80599
7.88136
7.95358
8.02259
8.08838
8.15089
8.21011
8.26601
8.31856
8.36776
8.41359
8.45605
8.49512
8.53082
8.56314
8.59209