/*--------------------------------*- C++ -*----------------------------------*\
  =========                 |
  \\      /  F ield         | OpenFOAM: The Open Source CFD Toolbox
   \\    /   O peration     | Website:  https://openfoam.org
    \\  /    A nd           | Version:  8
     \\/     M anipulation  |
\*---------------------------------------------------------------------------*/
FoamFile
{
    version     2.0;
    format      ascii;
    class       volScalarField;
    location    "1000";
    object      k;
}
// * * * * * * * * * * * * * * * * * * * * * * * * * * * * * * * * * * * * * //

dimensions      [0 2 -2 0 0 0 0];

internalField   nonuniform List<scalar> 
48000
(
0.0181468
0.0223734
0.024521
0.025397
0.0305267
0.0354731
0.0401082
0.0445569
0.0488597
0.053031
0.0571057
0.0611027
0.0650364
0.0689179
0.0727552
0.0765544
0.0803197
0.0840539
0.087759
0.0914358
0.0950847
0.0987055
0.102298
0.10586
0.109391
0.112891
0.116356
0.119786
0.123179
0.126533
0.129847
0.133119
0.136347
0.139529
0.142665
0.145752
0.14879
0.151776
0.15471
0.15759
0.160414
0.163183
0.165894
0.168547
0.171141
0.173675
0.176147
0.178559
0.180908
0.183194
0.185416
0.187575
0.189669
0.191698
0.193663
0.195562
0.197395
0.199163
0.200865
0.202501
0.204071
0.205575
0.207013
0.208386
0.209692
0.210933
0.212109
0.213218
0.214266
0.215252
0.216175
0.217036
0.217834
0.21857
0.219243
0.219856
0.220407
0.220898
0.221329
0.221701
0.222015
0.22227
0.222468
0.222609
0.222694
0.222723
0.222698
0.222619
0.222486
0.2223
0.222063
0.221774
0.221434
0.221045
0.220606
0.220119
0.219584
0.219002
0.218374
0.2177
0.216981
0.216218
0.215411
0.214561
0.213669
0.212735
0.21176
0.210744
0.209689
0.208595
0.207461
0.20629
0.205081
0.203835
0.202553
0.201234
0.19988
0.198491
0.197067
0.195609
0.194117
0.192592
0.191033
0.189442
0.187819
0.186164
0.184477
0.18276
0.181011
0.179232
0.177423
0.175584
0.173716
0.171819
0.169894
0.16794
0.165958
0.16395
0.161914
0.159852
0.157764
0.15565
0.153511
0.151348
0.14916
0.14695
0.144716
0.14246
0.140183
0.137884
0.135566
0.133227
0.13087
0.128494
0.126102
0.123692
0.121267
0.118826
0.116372
0.113904
0.111424
0.108933
0.106431
0.103919
0.101399
0.0988713
0.096337
0.0937972
0.0912527
0.0887048
0.0861542
0.0836021
0.0810495
0.0784971
0.075946
0.0733969
0.0708506
0.0683078
0.065769
0.0632345
0.0607046
0.058179
0.0556576
0.0531396
0.0506249
0.0481152
0.0456101
0.0431364
0.040653
0.0381385
0.0355844
0.032971
0.0302743
0.0274713
0.0246295
0.0220608
0.0221954
0.0213017
0.0191571
0.0159347
0.0181556
0.0223682
0.0245158
0.0254047
0.0305301
0.0354752
0.04011
0.0445587
0.0488613
0.0530326
0.0571073
0.0611043
0.065038
0.0689194
0.0727567
0.0765558
0.080321
0.0840552
0.0877602
0.091437
0.0950859
0.0987067
0.102299
0.105861
0.109392
0.112891
0.116357
0.119787
0.12318
0.126534
0.129848
0.133119
0.136347
0.13953
0.142666
0.145753
0.14879
0.151777
0.15471
0.15759
0.160415
0.163183
0.165894
0.168547
0.171141
0.173675
0.176148
0.178559
0.180908
0.183194
0.185416
0.187575
0.189669
0.191698
0.193663
0.195562
0.197395
0.199163
0.200865
0.202501
0.204071
0.205575
0.207013
0.208385
0.209692
0.210933
0.212108
0.213218
0.214265
0.215251
0.216175
0.217036
0.217834
0.218569
0.219243
0.219855
0.220407
0.220898
0.221329
0.221701
0.222014
0.22227
0.222467
0.222608
0.222693
0.222723
0.222698
0.222618
0.222485
0.2223
0.222062
0.221773
0.221434
0.221044
0.220606
0.220119
0.219584
0.219002
0.218373
0.217699
0.21698
0.216217
0.21541
0.21456
0.213668
0.212734
0.211759
0.210744
0.209688
0.208594
0.207461
0.20629
0.205081
0.203835
0.202552
0.201234
0.19988
0.198491
0.197067
0.195609
0.194117
0.192591
0.191033
0.189442
0.187819
0.186163
0.184477
0.182759
0.18101
0.179231
0.177422
0.175584
0.173716
0.171819
0.169893
0.167939
0.165958
0.163949
0.161913
0.159851
0.157763
0.155649
0.15351
0.151347
0.14916
0.146949
0.144716
0.14246
0.140182
0.137884
0.135565
0.133227
0.13087
0.128494
0.126101
0.123692
0.121266
0.118826
0.116372
0.113904
0.111424
0.108932
0.10643
0.103919
0.101399
0.0988709
0.0963367
0.0937968
0.0912524
0.0887045
0.086154
0.0836019
0.0810492
0.0784969
0.0759458
0.0733967
0.0708505
0.0683077
0.0657689
0.0632344
0.0607044
0.0581789
0.0556575
0.0531396
0.0506248
0.0481151
0.0456101
0.0431363
0.0406529
0.0381384
0.0355844
0.032971
0.0302743
0.0274708
0.0246276
0.0220573
0.0221991
0.0213075
0.0191565
0.0159353
0.0238825
0.0341382
0.045633
0.0577377
0.0686841
0.0788774
0.0885357
0.0978152
0.106809
0.11558
0.124177
0.132634
0.14098
0.149236
0.157415
0.16553
0.173588
0.181595
0.189554
0.197466
0.205331
0.213149
0.220917
0.228632
0.236292
0.243894
0.251432
0.258904
0.266304
0.273629
0.280875
0.288036
0.295109
0.302089
0.308973
0.315757
0.322437
0.329008
0.335469
0.341815
0.348043
0.354151
0.360135
0.365994
0.371724
0.377324
0.382791
0.388124
0.393321
0.39838
0.4033
0.40808
0.412718
0.417214
0.421567
0.425776
0.42984
0.43376
0.437534
0.441163
0.444647
0.447985
0.451178
0.454226
0.457129
0.459887
0.462501
0.464969
0.467291
0.469469
0.471508
0.473408
0.475171
0.476797
0.478287
0.479643
0.480864
0.481953
0.482911
0.483739
0.484437
0.485009
0.485454
0.485774
0.485972
0.486047
0.486002
0.485839
0.485558
0.485161
0.48465
0.484026
0.483292
0.482447
0.481495
0.480436
0.479272
0.478005
0.476636
0.475167
0.473599
0.471934
0.470173
0.468318
0.466369
0.464329
0.4622
0.459981
0.457675
0.455283
0.452806
0.450245
0.447602
0.444878
0.442074
0.43919
0.436229
0.43319
0.430076
0.426887
0.423623
0.420287
0.416878
0.413398
0.409848
0.406228
0.402539
0.398782
0.394958
0.391067
0.387111
0.383091
0.379006
0.374859
0.370649
0.366379
0.362048
0.357657
0.353209
0.348702
0.34414
0.339522
0.334851
0.330126
0.32535
0.320523
0.315647
0.310724
0.305754
0.300739
0.295681
0.290581
0.285441
0.280263
0.275047
0.269798
0.264515
0.259201
0.253857
0.248487
0.243092
0.237674
0.232235
0.226778
0.221304
0.215817
0.210317
0.204809
0.199293
0.193773
0.18825
0.182727
0.177207
0.17169
0.166179
0.160677
0.155184
0.149702
0.144232
0.138775
0.133331
0.127899
0.122478
0.117066
0.111661
0.106258
0.100852
0.0954349
0.0899866
0.0844828
0.0789216
0.0732656
0.0674752
0.0614978
0.0552488
0.048639
0.0414564
0.0349218
0.0274765
0.0210629
0.0238919
0.0341412
0.0456345
0.0577392
0.0686847
0.0788782
0.0885365
0.0978161
0.10681
0.115581
0.124177
0.132635
0.140981
0.149236
0.157415
0.16553
0.173589
0.181595
0.189554
0.197466
0.205331
0.213149
0.220916
0.228632
0.236292
0.243894
0.251432
0.258904
0.266304
0.273629
0.280874
0.288035
0.295108
0.302089
0.308973
0.315756
0.322436
0.329007
0.335468
0.341814
0.348042
0.35415
0.360134
0.365993
0.371723
0.377323
0.38279
0.388123
0.39332
0.398379
0.403299
0.408078
0.412717
0.417212
0.421565
0.425774
0.429838
0.433758
0.437532
0.441162
0.444645
0.447984
0.451177
0.454225
0.457128
0.459886
0.462499
0.464968
0.46729
0.469467
0.471506
0.473406
0.475169
0.476795
0.478286
0.479641
0.480863
0.481952
0.482909
0.483737
0.484436
0.485007
0.485452
0.485772
0.48597
0.486045
0.486
0.485837
0.485556
0.485159
0.484648
0.484024
0.48329
0.482445
0.481493
0.480434
0.479271
0.478003
0.476635
0.475165
0.473597
0.471932
0.470171
0.468316
0.466367
0.464328
0.462198
0.459979
0.457673
0.455281
0.452804
0.450243
0.4476
0.444876
0.442072
0.439188
0.436227
0.433189
0.430074
0.426885
0.423622
0.420285
0.416876
0.413396
0.409846
0.406226
0.402537
0.39878
0.394956
0.391066
0.38711
0.383089
0.379005
0.374857
0.370648
0.366377
0.362046
0.357656
0.353207
0.348701
0.344139
0.339521
0.334849
0.330125
0.325348
0.320522
0.315646
0.310722
0.305752
0.300738
0.295679
0.29058
0.28544
0.280261
0.275046
0.269796
0.264513
0.259199
0.253856
0.248486
0.243091
0.237673
0.232234
0.226777
0.221303
0.215815
0.210316
0.204808
0.199292
0.193772
0.188249
0.182726
0.177206
0.171689
0.166179
0.160676
0.155183
0.149701
0.144231
0.138774
0.13333
0.127898
0.122477
0.117066
0.111661
0.106258
0.100852
0.0954344
0.0899861
0.0844824
0.0789212
0.0732653
0.067475
0.0614979
0.0552491
0.048638
0.0414581
0.0349221
0.0274755
0.0210644
0.0284432
0.0472902
0.0636126
0.0779049
0.0910305
0.103427
0.115307
0.126803
0.138001
0.148964
0.159741
0.170368
0.180873
0.191277
0.201596
0.211844
0.222027
0.232151
0.242221
0.252236
0.262197
0.272102
0.281948
0.291732
0.30145
0.311097
0.320668
0.330158
0.339561
0.348872
0.358085
0.367195
0.376195
0.385082
0.393849
0.40249
0.411003
0.41938
0.427618
0.435713
0.443661
0.451456
0.459097
0.466579
0.473899
0.481054
0.488041
0.494858
0.501503
0.507973
0.514267
0.520382
0.526318
0.532073
0.537645
0.543034
0.54824
0.55326
0.558096
0.562747
0.567212
0.571492
0.575586
0.579495
0.583219
0.586759
0.590114
0.593285
0.596273
0.599078
0.601701
0.604146
0.606416
0.608511
0.610432
0.61218
0.613757
0.615165
0.616405
0.617478
0.618386
0.619131
0.619715
0.62014
0.620407
0.620517
0.620474
0.620279
0.619934
0.619441
0.618801
0.618018
0.617092
0.616026
0.614821
0.613481
0.612006
0.610398
0.608661
0.606795
0.604802
0.602685
0.600446
0.598085
0.595606
0.593009
0.590297
0.587472
0.584535
0.581487
0.578331
0.575067
0.571699
0.568226
0.564651
0.560974
0.557198
0.553323
0.549352
0.545284
0.541122
0.536866
0.532518
0.528079
0.52355
0.518932
0.514227
0.509434
0.504556
0.499593
0.494547
0.489418
0.484208
0.478918
0.473549
0.468102
0.462578
0.456979
0.451305
0.445559
0.439741
0.433853
0.427897
0.421873
0.415784
0.409631
0.403416
0.39714
0.390806
0.384415
0.37797
0.371472
0.364923
0.358326
0.351684
0.344998
0.33827
0.331504
0.324702
0.317866
0.311
0.304105
0.297186
0.290244
0.283283
0.276305
0.269313
0.262312
0.255302
0.248288
0.241273
0.234258
0.227247
0.220243
0.213248
0.206265
0.199294
0.192338
0.185398
0.178475
0.171569
0.164679
0.157804
0.150941
0.144086
0.137234
0.130377
0.123505
0.116601
0.109647
0.102619
0.0954838
0.0882054
0.0807319
0.0729763
0.0648211
0.0561229
0.0468798
0.036703
0.0273728
0.0284546
0.0472883
0.063609
0.077904
0.0910303
0.103427
0.115307
0.126803
0.138001
0.148964
0.159741
0.170368
0.180872
0.191276
0.201596
0.211843
0.222026
0.232151
0.24222
0.252235
0.262196
0.272101
0.281947
0.291731
0.301449
0.311096
0.320667
0.330157
0.33956
0.348871
0.358084
0.367193
0.376194
0.38508
0.393847
0.402489
0.411001
0.419378
0.427617
0.435712
0.443659
0.451454
0.459095
0.466577
0.473897
0.481052
0.488039
0.494856
0.501501
0.507971
0.514265
0.52038
0.526316
0.53207
0.537643
0.543032
0.548237
0.553258
0.558094
0.562745
0.56721
0.571489
0.575584
0.579493
0.583217
0.586756
0.590112
0.593283
0.596271
0.599075
0.601698
0.604144
0.606414
0.608508
0.610429
0.612178
0.613755
0.615163
0.616402
0.617475
0.618384
0.619129
0.619713
0.620137
0.620404
0.620515
0.620472
0.620277
0.619932
0.619439
0.618799
0.618015
0.617089
0.616023
0.614819
0.613478
0.612003
0.610396
0.608658
0.606792
0.6048
0.602683
0.600443
0.598083
0.595603
0.593007
0.590295
0.58747
0.584532
0.581485
0.578328
0.575065
0.571696
0.568224
0.564648
0.560972
0.557196
0.553321
0.549349
0.545282
0.54112
0.536864
0.532516
0.528077
0.523548
0.51893
0.514224
0.509432
0.504554
0.499591
0.494545
0.489416
0.484207
0.478916
0.473547
0.4681
0.462576
0.456977
0.451304
0.445557
0.439739
0.433852
0.427895
0.421871
0.415782
0.409629
0.403414
0.397138
0.390804
0.384413
0.377968
0.37147
0.364921
0.358325
0.351682
0.344996
0.338269
0.331503
0.3247
0.317865
0.310998
0.304104
0.297184
0.290243
0.283281
0.276303
0.269312
0.26231
0.255301
0.248287
0.241271
0.234257
0.227246
0.220242
0.213247
0.206264
0.199293
0.192337
0.185398
0.178475
0.171568
0.164678
0.157803
0.15094
0.144085
0.137233
0.130376
0.123504
0.116601
0.109646
0.102618
0.0954834
0.088205
0.0807317
0.0729762
0.0648199
0.0561222
0.0468788
0.0367027
0.0273782
0.025297
0.058156
0.0783104
0.0944714
0.109158
0.123045
0.136402
0.149375
0.162052
0.174497
0.186756
0.198863
0.210844
0.222721
0.234509
0.246219
0.257859
0.269434
0.280948
0.292402
0.303794
0.315122
0.326385
0.337577
0.348695
0.359733
0.370685
0.381547
0.392311
0.402971
0.413522
0.423956
0.434269
0.444453
0.454502
0.464412
0.474175
0.483787
0.493242
0.502535
0.511662
0.520618
0.529398
0.537999
0.546416
0.554646
0.562686
0.570533
0.578183
0.585635
0.592886
0.599933
0.606776
0.613412
0.61984
0.626058
0.632067
0.637864
0.643449
0.648822
0.653983
0.65893
0.663666
0.668188
0.672499
0.676597
0.680484
0.684161
0.687627
0.690884
0.693933
0.696775
0.699415
0.701852
0.70409
0.706128
0.707969
0.709615
0.711067
0.712327
0.713397
0.714279
0.714975
0.715487
0.715816
0.715966
0.715938
0.715735
0.715358
0.71481
0.714093
0.71321
0.712162
0.710953
0.709583
0.708056
0.706374
0.704539
0.702553
0.700419
0.698138
0.695714
0.693147
0.690441
0.687597
0.684618
0.681505
0.678261
0.674888
0.671386
0.66776
0.664009
0.660136
0.656143
0.652031
0.647802
0.643458
0.639
0.63443
0.629748
0.624958
0.620059
0.615054
0.609943
0.604729
0.599411
0.593993
0.588474
0.582856
0.577141
0.571329
0.565422
0.559422
0.553329
0.547145
0.540871
0.534509
0.52806
0.521526
0.514907
0.508207
0.501426
0.494566
0.487629
0.480617
0.473532
0.466376
0.45915
0.451857
0.4445
0.43708
0.4296
0.422063
0.414471
0.406827
0.399133
0.391392
0.383608
0.375783
0.367921
0.360023
0.352095
0.344139
0.336158
0.328156
0.320135
0.312101
0.304055
0.296002
0.287944
0.279885
0.271828
0.263777
0.255734
0.247702
0.239683
0.23168
0.223694
0.215726
0.207778
0.19985
0.19194
0.184047
0.176168
0.168301
0.160437
0.152571
0.144691
0.136784
0.12883
0.120807
0.112685
0.104425
0.0959712
0.0872347
0.0780844
0.0683106
0.0575014
0.0447877
0.0312516
0.0252956
0.0581516
0.0783098
0.0944726
0.109159
0.123045
0.136402
0.149374
0.162052
0.174497
0.186755
0.198862
0.210843
0.22272
0.234508
0.246218
0.257858
0.269433
0.280947
0.292401
0.303793
0.315121
0.326384
0.337576
0.348694
0.359732
0.370684
0.381545
0.392309
0.40297
0.41352
0.423955
0.434267
0.444451
0.454501
0.46441
0.474173
0.483785
0.49324
0.502534
0.51166
0.520616
0.529396
0.537997
0.546414
0.554644
0.562684
0.570531
0.578181
0.585633
0.592884
0.599931
0.606774
0.61341
0.619838
0.626056
0.632065
0.637862
0.643447
0.64882
0.65398
0.658928
0.663663
0.668186
0.672496
0.676595
0.680482
0.684159
0.687625
0.690882
0.693931
0.696773
0.699412
0.70185
0.704087
0.706126
0.707967
0.709613
0.711065
0.712325
0.713395
0.714277
0.714973
0.715485
0.715814
0.715964
0.715936
0.715733
0.715356
0.714808
0.714091
0.713208
0.71216
0.71095
0.709581
0.708054
0.706372
0.704537
0.702551
0.700417
0.698136
0.695712
0.693145
0.690439
0.687595
0.684616
0.681503
0.678259
0.674886
0.671384
0.667758
0.664007
0.660134
0.656141
0.652029
0.6478
0.643456
0.638998
0.634428
0.629746
0.624956
0.620057
0.615052
0.609941
0.604727
0.599409
0.593991
0.588472
0.582854
0.577139
0.571327
0.56542
0.55942
0.553327
0.547143
0.540869
0.534507
0.528058
0.521524
0.514906
0.508205
0.501424
0.494565
0.487628
0.480616
0.473531
0.466374
0.459149
0.451856
0.444499
0.437079
0.429599
0.422062
0.41447
0.406825
0.399131
0.391391
0.383607
0.375782
0.367919
0.360022
0.352094
0.344138
0.336157
0.328154
0.320134
0.3121
0.304054
0.296
0.287943
0.279884
0.271827
0.263776
0.255733
0.247701
0.239682
0.231679
0.223693
0.215726
0.207777
0.199849
0.191939
0.184046
0.176168
0.1683
0.160437
0.152571
0.144691
0.136783
0.128829
0.120806
0.112685
0.104425
0.0959708
0.0872341
0.0780831
0.0683093
0.0575
0.0447914
0.0312651
0.0303244
0.0691158
0.0916373
0.109559
0.125669
0.140831
0.155407
0.169575
0.183441
0.197071
0.210513
0.2238
0.236957
0.250005
0.262957
0.275824
0.288614
0.301331
0.313978
0.326556
0.339063
0.351499
0.36386
0.376141
0.388338
0.400447
0.412461
0.424374
0.436181
0.447875
0.459448
0.470896
0.482211
0.493387
0.504418
0.515297
0.526018
0.536576
0.546965
0.557178
0.567212
0.577061
0.58672
0.596184
0.60545
0.614514
0.623371
0.632018
0.640452
0.64867
0.656669
0.664447
0.672002
0.679331
0.686433
0.693307
0.699951
0.706363
0.712544
0.718492
0.724208
0.72969
0.734939
0.739954
0.744737
0.749287
0.753605
0.757691
0.761546
0.765172
0.768569
0.771738
0.774682
0.777404
0.779904
0.782185
0.784248
0.786096
0.787729
0.78915
0.790361
0.791364
0.792162
0.792755
0.793148
0.793341
0.793338
0.79314
0.79275
0.792171
0.791405
0.790455
0.789322
0.788009
0.78652
0.784856
0.78302
0.781014
0.778841
0.776504
0.774004
0.771344
0.768527
0.765555
0.76243
0.759154
0.755731
0.752161
0.748448
0.744593
0.740598
0.736466
0.732198
0.727796
0.723262
0.718599
0.713807
0.708889
0.703846
0.69868
0.693393
0.687985
0.68246
0.676817
0.671059
0.665186
0.659202
0.653106
0.6469
0.640587
0.634166
0.627641
0.621011
0.614279
0.607446
0.600514
0.593484
0.586357
0.579137
0.571824
0.56442
0.556927
0.549347
0.541682
0.533934
0.526105
0.518198
0.510215
0.502158
0.49403
0.485833
0.47757
0.469245
0.460859
0.452416
0.443919
0.435371
0.426775
0.418136
0.409455
0.400737
0.391985
0.383203
0.374394
0.365563
0.356712
0.347846
0.338969
0.330083
0.321194
0.312303
0.303415
0.294533
0.28566
0.276799
0.267952
0.259122
0.25031
0.241518
0.232747
0.223996
0.215266
0.206553
0.197857
0.189173
0.180495
0.171816
0.163127
0.154414
0.14566
0.136844
0.127937
0.118897
0.109666
0.100153
0.0902048
0.0795509
0.0676217
0.0528932
0.0321446
0.0303171
0.0691151
0.0916394
0.109561
0.125669
0.140831
0.155406
0.169574
0.18344
0.19707
0.210512
0.223799
0.236956
0.250004
0.262956
0.275823
0.288613
0.30133
0.313977
0.326555
0.339062
0.351498
0.363858
0.37614
0.388337
0.400446
0.41246
0.424373
0.43618
0.447873
0.459447
0.470895
0.48221
0.493386
0.504417
0.515296
0.526017
0.536575
0.546963
0.557177
0.567211
0.577059
0.586718
0.596183
0.605449
0.614512
0.623369
0.632016
0.64045
0.648668
0.656668
0.664446
0.672
0.67933
0.686432
0.693305
0.699949
0.706361
0.712542
0.71849
0.724206
0.729688
0.734937
0.739952
0.744735
0.749285
0.753603
0.757689
0.761544
0.76517
0.768567
0.771736
0.77468
0.777402
0.779902
0.782183
0.784246
0.786094
0.787727
0.789148
0.790359
0.791363
0.79216
0.792754
0.793146
0.793339
0.793336
0.793138
0.792749
0.792169
0.791403
0.790453
0.78932
0.788008
0.786518
0.784854
0.783018
0.781012
0.77884
0.776502
0.774002
0.771342
0.768525
0.765553
0.762428
0.759153
0.755729
0.752159
0.748446
0.744591
0.740596
0.736464
0.732196
0.727794
0.723261
0.718597
0.713806
0.708888
0.703845
0.698679
0.693391
0.687984
0.682458
0.676815
0.671057
0.665185
0.6592
0.653104
0.646899
0.640585
0.634165
0.627639
0.621009
0.614277
0.607444
0.600512
0.593482
0.586356
0.579136
0.571823
0.564419
0.556926
0.549346
0.541681
0.533933
0.526104
0.518197
0.510214
0.502157
0.494028
0.485832
0.477569
0.469243
0.460858
0.452415
0.443918
0.43537
0.426774
0.418135
0.409454
0.400736
0.391984
0.383202
0.374393
0.365562
0.356711
0.347845
0.338968
0.330083
0.321193
0.312302
0.303414
0.294532
0.285659
0.276798
0.267951
0.259121
0.25031
0.241518
0.232746
0.223996
0.215265
0.206553
0.197857
0.189172
0.180494
0.171816
0.163126
0.154413
0.14566
0.136844
0.127936
0.118897
0.109666
0.100152
0.0902032
0.0795487
0.0676205
0.0529004
0.0321482
0.0351574
0.0792387
0.104289
0.123941
0.141424
0.157788
0.17348
0.188722
0.20364
0.218308
0.232778
0.247084
0.261253
0.275303
0.289247
0.303097
0.316857
0.330534
0.344129
0.357644
0.371077
0.384426
0.39769
0.410863
0.423941
0.436921
0.449795
0.462559
0.475207
0.487732
0.500128
0.512389
0.524508
0.536479
0.548296
0.559951
0.57144
0.582756
0.593893
0.604846
0.615608
0.626175
0.636542
0.646704
0.656656
0.666394
0.675913
0.685211
0.694283
0.703126
0.711737
0.720114
0.728253
0.736152
0.74381
0.751225
0.758394
0.765318
0.771994
0.778421
0.7846
0.79053
0.79621
0.801641
0.806822
0.811753
0.816436
0.820871
0.825058
0.828999
0.832694
0.836145
0.839353
0.842321
0.84505
0.847544
0.849803
0.851828
0.853624
0.85519
0.856529
0.857645
0.858538
0.859211
0.859666
0.859907
0.859934
0.859752
0.859363
0.858768
0.857971
0.856974
0.855781
0.854392
0.852813
0.851044
0.849088
0.846949
0.844628
0.84213
0.839455
0.836607
0.833588
0.830401
0.827048
0.823532
0.819855
0.816019
0.812028
0.807883
0.803586
0.799139
0.794546
0.789807
0.784925
0.779902
0.774739
0.769439
0.764004
0.758435
0.752734
0.746903
0.740943
0.734856
0.728644
0.722308
0.715851
0.709272
0.702575
0.69576
0.68883
0.681785
0.674628
0.66736
0.659982
0.652497
0.644907
0.637212
0.629415
0.621518
0.613523
0.605431
0.597246
0.588969
0.580602
0.572148
0.563609
0.554989
0.546289
0.537512
0.528662
0.519741
0.510752
0.501699
0.492584
0.483411
0.474184
0.464906
0.45558
0.446211
0.436802
0.427357
0.41788
0.408374
0.398844
0.389294
0.379727
0.370148
0.36056
0.350967
0.341374
0.331782
0.322196
0.312619
0.303054
0.293503
0.283968
0.274452
0.264955
0.255479
0.246023
0.236586
0.227168
0.217766
0.208377
0.198994
0.189612
0.180222
0.17081
0.161362
0.151855
0.14226
0.132533
0.122609
0.112384
0.10168
0.0901661
0.0771517
0.0607379
0.036648
0.0351566
0.07924
0.104291
0.123942
0.141424
0.157788
0.17348
0.188722
0.203639
0.218307
0.232777
0.247084
0.261252
0.275302
0.289247
0.303096
0.316856
0.330533
0.344128
0.357643
0.371076
0.384425
0.397689
0.410862
0.42394
0.43692
0.449794
0.462558
0.475206
0.487731
0.500127
0.512388
0.524507
0.536478
0.548294
0.55995
0.571439
0.582755
0.593892
0.604844
0.615607
0.626174
0.636541
0.646703
0.656655
0.666392
0.675912
0.68521
0.694282
0.703125
0.711736
0.720112
0.728251
0.736151
0.743809
0.751223
0.758393
0.765316
0.771992
0.77842
0.784599
0.790529
0.796209
0.801639
0.80682
0.811752
0.816435
0.820869
0.825057
0.828997
0.832693
0.836143
0.839351
0.842319
0.845049
0.847542
0.849801
0.851827
0.853622
0.855188
0.856528
0.857643
0.858536
0.859209
0.859665
0.859905
0.859933
0.859751
0.859361
0.858766
0.857969
0.856973
0.855779
0.854391
0.852811
0.851042
0.849087
0.846947
0.844627
0.842128
0.839453
0.836605
0.833586
0.830399
0.827046
0.82353
0.819853
0.816018
0.812027
0.807881
0.803584
0.799138
0.794544
0.789805
0.784923
0.7799
0.774738
0.769438
0.764003
0.758434
0.752733
0.746901
0.740942
0.734855
0.728643
0.722307
0.715849
0.709271
0.702574
0.695759
0.688829
0.681784
0.674627
0.667359
0.659981
0.652496
0.644905
0.637211
0.629414
0.621517
0.613522
0.60543
0.597245
0.588967
0.580601
0.572147
0.563608
0.554988
0.546288
0.537512
0.528661
0.51974
0.510751
0.501698
0.492583
0.483411
0.474183
0.464905
0.45558
0.44621
0.436801
0.427356
0.417879
0.408373
0.398843
0.389293
0.379726
0.370147
0.360559
0.350967
0.341373
0.331781
0.322196
0.312619
0.303053
0.293502
0.283968
0.274451
0.264955
0.255478
0.246022
0.236586
0.227168
0.217766
0.208376
0.198994
0.189612
0.180221
0.17081
0.161362
0.151855
0.14226
0.132533
0.122609
0.112384
0.101679
0.090164
0.0771513
0.0607489
0.0366485
0.0397425
0.0890067
0.116594
0.137966
0.156813
0.174358
0.19113
0.207392
0.223293
0.238921
0.254332
0.269564
0.284644
0.299591
0.314419
0.329137
0.343751
0.358267
0.372687
0.387011
0.401239
0.41537
0.4294
0.443327
0.457147
0.470856
0.484448
0.497919
0.511263
0.524475
0.537548
0.550477
0.563255
0.575877
0.588336
0.600626
0.612742
0.624678
0.636427
0.647983
0.659342
0.670498
0.681446
0.69218
0.702697
0.71299
0.723057
0.732892
0.742493
0.751855
0.760976
0.769851
0.778479
0.786856
0.79498
0.80285
0.810464
0.817819
0.824915
0.83175
0.838323
0.844635
0.850684
0.856471
0.861994
0.867255
0.872254
0.876991
0.881466
0.885681
0.889637
0.893335
0.896776
0.899961
0.902895
0.905577
0.908011
0.910198
0.91214
0.913839
0.915297
0.916517
0.9175
0.91825
0.918769
0.919058
0.919122
0.918962
0.918581
0.917982
0.917167
0.91614
0.914902
0.913457
0.911808
0.909957
0.907908
0.905662
0.903222
0.900593
0.897775
0.894772
0.891587
0.888223
0.884681
0.880964
0.877076
0.873018
0.868794
0.864404
0.859853
0.855142
0.850273
0.845249
0.840071
0.834743
0.829266
0.823641
0.817872
0.811959
0.805905
0.799712
0.793381
0.786915
0.780314
0.773581
0.766718
0.759726
0.752606
0.745361
0.737992
0.730502
0.722891
0.715161
0.707315
0.699354
0.69128
0.683096
0.674802
0.666401
0.657896
0.649289
0.640581
0.631775
0.622875
0.613881
0.604798
0.595627
0.586372
0.577036
0.567621
0.558131
0.548569
0.538939
0.529243
0.519487
0.509672
0.499804
0.489885
0.47992
0.469913
0.459868
0.449788
0.439678
0.429543
0.419385
0.40921
0.39902
0.388821
0.378616
0.368409
0.358203
0.348001
0.337807
0.327623
0.317452
0.307296
0.297157
0.287035
0.276932
0.266848
0.256782
0.246732
0.236697
0.226672
0.216654
0.206636
0.196609
0.186561
0.176477
0.166335
0.156102
0.14573
0.135145
0.124223
0.11275
0.100308
0.0859571
0.0668608
0.0305201
0.0397442
0.0890083
0.116595
0.137966
0.156813
0.174358
0.191129
0.207392
0.223292
0.23892
0.254331
0.269563
0.284643
0.29959
0.314418
0.329136
0.34375
0.358266
0.372686
0.38701
0.401238
0.415368
0.429399
0.443326
0.457146
0.470855
0.484447
0.497918
0.511262
0.524474
0.537547
0.550475
0.563254
0.575875
0.588335
0.600625
0.612741
0.624676
0.636425
0.647982
0.659341
0.670497
0.681445
0.692179
0.702695
0.712989
0.723056
0.732891
0.742492
0.751854
0.760974
0.76985
0.778477
0.786855
0.794979
0.802849
0.810462
0.817817
0.824913
0.831748
0.838322
0.844634
0.850683
0.856469
0.861993
0.867254
0.872252
0.876989
0.881465
0.88568
0.889636
0.893334
0.896775
0.89996
0.902893
0.905576
0.90801
0.910197
0.912139
0.913837
0.915296
0.916515
0.917499
0.918249
0.918767
0.919057
0.919121
0.918961
0.91858
0.917981
0.917166
0.916138
0.914901
0.913456
0.911807
0.909956
0.907906
0.90566
0.903221
0.900591
0.897774
0.894771
0.891586
0.888221
0.88468
0.880963
0.877075
0.873017
0.868792
0.864403
0.859852
0.855141
0.850272
0.845248
0.84007
0.834742
0.829264
0.82364
0.817871
0.811958
0.805904
0.799711
0.79338
0.786914
0.780313
0.77358
0.766717
0.759725
0.752605
0.74536
0.737991
0.730501
0.72289
0.71516
0.707314
0.699353
0.691279
0.683095
0.674801
0.6664
0.657895
0.649288
0.64058
0.631775
0.622874
0.61388
0.604797
0.595626
0.586371
0.577035
0.56762
0.55813
0.548568
0.538938
0.529243
0.519486
0.509672
0.499803
0.489884
0.47992
0.469912
0.459867
0.449787
0.439678
0.429542
0.419384
0.409209
0.39902
0.388821
0.378616
0.368408
0.358202
0.348
0.337806
0.327623
0.317452
0.307296
0.297156
0.287035
0.276932
0.266848
0.256781
0.246732
0.236696
0.226672
0.216654
0.206636
0.196609
0.186561
0.176477
0.166335
0.156102
0.14573
0.135145
0.124223
0.112749
0.100307
0.0859569
0.0668655
0.0305177
0.0442384
0.0985966
0.12872
0.151826
0.17205
0.190781
0.208624
0.225886
0.242738
0.259283
0.275584
0.291684
0.307611
0.323386
0.339022
0.35453
0.369917
0.385186
0.40034
0.415381
0.430309
0.445122
0.459819
0.474397
0.488853
0.503184
0.517385
0.531452
0.545381
0.559167
0.572804
0.586288
0.599612
0.612772
0.625761
0.638575
0.651207
0.663652
0.675904
0.687958
0.699808
0.711448
0.722875
0.734082
0.745065
0.755819
0.76634
0.776622
0.786663
0.796459
0.806005
0.815299
0.824337
0.833117
0.841635
0.84989
0.85788
0.865603
0.873056
0.88024
0.887152
0.893792
0.900158
0.906252
0.912072
0.917619
0.922892
0.927892
0.93262
0.937076
0.941261
0.945177
0.948824
0.952203
0.955318
0.958171
0.960762
0.963094
0.96517
0.96699
0.968558
0.969875
0.970944
0.971767
0.972348
0.972687
0.972789
0.972655
0.972289
0.971693
0.97087
0.969823
0.968554
0.967068
0.965365
0.96345
0.961325
0.958993
0.956457
0.95372
0.950784
0.947653
0.94433
0.940816
0.937115
0.93323
0.929163
0.924917
0.920494
0.915897
0.911129
0.906191
0.901087
0.895818
0.890387
0.884797
0.879048
0.873144
0.867086
0.860877
0.854518
0.848012
0.84136
0.834564
0.827626
0.820549
0.813333
0.805981
0.798494
0.790875
0.783124
0.775245
0.767239
0.759107
0.750852
0.742476
0.73398
0.725368
0.71664
0.7078
0.698849
0.68979
0.680626
0.671358
0.66199
0.652525
0.642964
0.633312
0.623571
0.613744
0.603835
0.593847
0.583783
0.573647
0.563442
0.553173
0.542844
0.532457
0.522018
0.511529
0.500996
0.490423
0.479813
0.469171
0.458501
0.447808
0.437094
0.426365
0.415625
0.404876
0.394123
0.383369
0.372617
0.361871
0.351132
0.340404
0.329688
0.318985
0.308297
0.297625
0.286967
0.276324
0.265694
0.255075
0.244463
0.233855
0.223244
0.212621
0.201976
0.19129
0.180541
0.169694
0.158695
0.147458
0.135843
0.1236
0.110247
0.0946937
0.0737539
0.0338312
0.0442407
0.0985984
0.128721
0.151826
0.17205
0.19078
0.208623
0.225885
0.242737
0.259282
0.275583
0.291683
0.30761
0.323385
0.339021
0.354529
0.369916
0.385185
0.400339
0.41538
0.430308
0.445121
0.459818
0.474396
0.488852
0.503183
0.517384
0.531451
0.54538
0.559166
0.572803
0.586287
0.599611
0.612771
0.62576
0.638574
0.651206
0.663651
0.675903
0.687957
0.699806
0.711447
0.722874
0.734081
0.745064
0.755818
0.766338
0.776621
0.786662
0.796458
0.806004
0.815298
0.824336
0.833115
0.841634
0.849889
0.857879
0.865602
0.873055
0.880239
0.887151
0.89379
0.900157
0.906251
0.912071
0.917618
0.922891
0.927891
0.932619
0.937075
0.94126
0.945176
0.948823
0.952202
0.955317
0.958169
0.960761
0.963093
0.965168
0.966989
0.968557
0.969874
0.970943
0.971766
0.972346
0.972686
0.972788
0.972654
0.972288
0.971692
0.970869
0.969822
0.968553
0.967066
0.965364
0.963449
0.961324
0.958992
0.956456
0.953719
0.950783
0.947652
0.944329
0.940815
0.937114
0.933229
0.929162
0.924916
0.920493
0.915896
0.911128
0.90619
0.901086
0.895817
0.890387
0.884796
0.879047
0.873143
0.867085
0.860876
0.854517
0.848011
0.841359
0.834563
0.827626
0.820548
0.813332
0.80598
0.798493
0.790874
0.783123
0.775244
0.767238
0.759106
0.750851
0.742475
0.733979
0.725367
0.716639
0.707799
0.698848
0.689789
0.680625
0.671357
0.66199
0.652524
0.642964
0.633311
0.62357
0.613743
0.603834
0.593846
0.583782
0.573646
0.563442
0.553173
0.542843
0.532457
0.522017
0.511529
0.500996
0.490422
0.479813
0.469171
0.458501
0.447807
0.437094
0.426365
0.415624
0.404875
0.394122
0.383369
0.372617
0.361871
0.351132
0.340404
0.329688
0.318985
0.308297
0.297624
0.286967
0.276324
0.265694
0.255074
0.244463
0.233855
0.223244
0.212621
0.201976
0.19129
0.180541
0.169694
0.158695
0.147458
0.135843
0.123601
0.110247
0.0946952
0.0737568
0.0338302
0.048683
0.108112
0.140784
0.165649
0.187274
0.207206
0.226127
0.244385
0.262176
0.279615
0.296776
0.313706
0.330437
0.346992
0.363384
0.379625
0.395722
0.41168
0.427502
0.443189
0.458742
0.474161
0.489445
0.504593
0.519601
0.534469
0.549192
0.563767
0.578191
0.592461
0.606571
0.620517
0.634295
0.6479
0.661328
0.674572
0.687629
0.700492
0.713157
0.725619
0.737872
0.749911
0.761731
0.773327
0.784694
0.795828
0.806724
0.817377
0.827784
0.83794
0.847841
0.857485
0.866867
0.875985
0.884835
0.893416
0.901725
0.909759
0.917517
0.924997
0.932199
0.93912
0.94576
0.952119
0.958195
0.963989
0.969501
0.974731
0.979679