/*--------------------------------*- C++ -*----------------------------------*\
  =========                 |
  \\      /  F ield         | OpenFOAM: The Open Source CFD Toolbox
   \\    /   O peration     | Website:  https://openfoam.org
    \\  /    A nd           | Version:  8
     \\/     M anipulation  |
\*---------------------------------------------------------------------------*/
FoamFile
{
    version     2.0;
    format      ascii;
    class       surfaceScalarField;
    location    "1000";
    object      phi;
}
// * * * * * * * * * * * * * * * * * * * * * * * * * * * * * * * * * * * * * //

dimensions      [1 0 -1 0 0 0 0];

internalField   nonuniform List<scalar> 
119360
(
-8.05879e-08
-1.52433e-11
8.06038e-08
-1.41828e-07
-8.26717e-12
6.11751e-08
-1.73634e-07
-6.36249e-12
3.17831e-08
-1.73215e-07
-8.55443e-12
-4.43233e-10
-1.41486e-07
-1.04446e-11
-3.178e-08
-9.01494e-08
-1.02859e-11
-5.13946e-08
-2.57878e-08
-9.5111e-12
-6.44167e-08
4.71412e-08
-8.95266e-12
-7.29858e-08
1.25511e-07
-8.45751e-12
-7.84264e-08
2.07237e-07
-8.1134e-12
-8.17818e-08
2.90927e-07
-7.97219e-12
-8.37446e-08
3.75601e-07
-7.862e-12
-8.47287e-08
4.6056e-07
-7.58223e-12
-8.50106e-08
5.45285e-07
-7.03356e-12
-8.47735e-08
6.29383e-07
-6.25191e-12
-8.4142e-08
7.12546e-07
-5.36168e-12
-8.32028e-08
7.94525e-07
-4.50526e-12
-8.20177e-08
8.7512e-07
-3.78933e-12
-8.0632e-08
9.54161e-07
-3.26348e-12
-7.90797e-08
1.03151e-06
-2.92547e-12
-7.73872e-08
1.10704e-06
-2.73762e-12
-7.55756e-08
1.18066e-06
-2.64775e-12
-7.36625e-08
1.25228e-06
-2.60445e-12
-7.16631e-08
1.32183e-06
-2.56793e-12
-6.95909e-08
1.38925e-06
-2.51164e-12
-6.74583e-08
1.45449e-06
-2.42338e-12
-6.5277e-08
1.51751e-06
-2.30159e-12
-6.3058e-08
1.57828e-06
-2.15287e-12
-6.08116e-08
1.63679e-06
-1.98779e-12
-5.85479e-08
1.69303e-06
-1.81764e-12
-5.62761e-08
1.747e-06
-1.65178e-12
-5.4005e-08
1.79871e-06
-1.4966e-12
-5.1743e-08
1.84818e-06
-1.35468e-12
-4.94974e-08
1.89543e-06
-1.2267e-12
-4.72753e-08
1.94048e-06
-1.11171e-12
-4.50829e-08
1.98338e-06
-1.00838e-12
-4.29256e-08
2.02416e-06
-9.14899e-13
-4.08082e-08
2.06287e-06
-8.29079e-13
-3.8735e-08
2.09956e-06
-7.4906e-13
-3.67095e-08
2.13427e-06
-6.73482e-13
-3.47345e-08
2.16706e-06
-6.01679e-13
-3.28123e-08
2.19799e-06
-5.34095e-13
-3.09449e-08
2.2271e-06
-4.70896e-13
-2.91333e-08
2.25446e-06
-4.13636e-13
-2.73785e-08
2.28013e-06
-3.63094e-13
-2.56809e-08
2.30415e-06
-3.20517e-13
-2.40405e-08
2.3266e-06
-2.86433e-13
-2.24572e-08
2.34751e-06
-2.60843e-13
-2.09305e-08
2.36696e-06
-2.43774e-13
-1.94595e-08
2.38499e-06
-2.3442e-13
-1.80434e-08
2.40167e-06
-2.31784e-13
-1.6681e-08
2.41703e-06
-2.34615e-13
-1.53709e-08
2.43113e-06
-2.41082e-13
-1.41119e-08
2.44403e-06
-2.49742e-13
-1.29025e-08
2.45576e-06
-2.59707e-13
-1.17412e-08
2.46639e-06
-2.70115e-13
-1.06265e-08
2.47594e-06
-2.79969e-13
-9.55674e-09
2.48447e-06
-2.88851e-13
-8.53038e-09
2.49201e-06
-2.95928e-13
-7.54581e-09
2.49861e-06
-3.00647e-13
-6.60144e-09
2.50431e-06
-3.0259e-13
-5.69566e-09
2.50914e-06
-3.02174e-13
-4.82692e-09
2.51314e-06
-3.00203e-13
-3.9937e-09
2.51633e-06
-2.97483e-13
-3.1945e-09
2.51877e-06
-2.95374e-13
-2.42786e-09
2.52047e-06
-2.94958e-13
-1.69236e-09
2.52146e-06
-2.97095e-13
-9.86637e-10
2.52178e-06
-3.02452e-13
-3.09097e-10
2.52144e-06
-3.11223e-13
3.41558e-10
2.52049e-06
-3.23685e-13
9.66061e-10
2.51893e-06
-3.39534e-13
1.56536e-09
2.5168e-06
-3.58602e-13
2.14071e-09
2.51412e-06
-3.80473e-13
2.69334e-09
2.51091e-06
-4.04343e-13
3.22441e-09
2.50719e-06
-4.29517e-13
3.73499e-09
2.50298e-06
-4.54664e-13
4.22615e-09
2.4983e-06
-4.78894e-13
4.69891e-09
2.49316e-06
-5.01154e-13
5.15424e-09
2.48758e-06
-5.21083e-13
5.59311e-09
2.48159e-06
-5.37514e-13
6.01641e-09
2.47518e-06
-5.50282e-13
6.42502e-09
2.46838e-06
-5.59774e-13
6.81974e-09
2.4612e-06
-5.66103e-13
7.20135e-09
2.45365e-06
-5.69822e-13
7.57053e-09
2.44574e-06
-5.71681e-13
7.92796e-09
2.43749e-06
-5.72348e-13
8.27425e-09
2.4289e-06
-5.72486e-13
8.60996e-09
2.41999e-06
-5.72625e-13
8.93564e-09
2.41076e-06
-5.73291e-13
9.2518e-09
2.40123e-06
-5.74651e-13
9.55892e-09
2.3914e-06
-5.76622e-13
9.85746e-09
2.38128e-06
-5.79009e-13
1.01478e-08
2.37087e-06
-5.81646e-13
1.04304e-08
2.36019e-06
-5.84088e-13
1.07057e-08
2.34925e-06
-5.86531e-13
1.09738e-08
2.33804e-06
-5.89001e-13
1.12353e-08
2.32658e-06
-5.91582e-13
1.14904e-08
2.31487e-06
-5.94719e-13
1.17394e-08
2.30291e-06
-5.98549e-13
1.19826e-08
2.29072e-06
-6.03684e-13
1.22204e-08
2.2783e-06
-6.10123e-13
1.24531e-08
2.26565e-06
-6.17811e-13
1.26809e-08
2.25277e-06
-6.26582e-13
1.29041e-08
2.23968e-06
-6.36435e-13
1.31229e-08
2.22638e-06
-6.46788e-13
1.33375e-08
2.21286e-06
-6.5753e-13
1.35481e-08
2.19914e-06
-6.68632e-13
1.37549e-08
2.18521e-06
-6.79595e-13
1.39583e-08
2.17108e-06
-6.90198e-13
1.41586e-08
2.15676e-06
-7.00162e-13
1.43562e-08
2.14224e-06
-7.09571e-13
1.45516e-08
2.12753e-06
-7.1812e-13
1.47452e-08
2.11263e-06
-7.25531e-13
1.49376e-08
2.09753e-06
-7.3111e-13
1.51291e-08
2.08224e-06
-7.34246e-13
1.53204e-08
2.06677e-06
-7.35134e-13
1.55118e-08
2.0511e-06
-7.34163e-13
1.57039e-08
2.03523e-06
-7.31692e-13
1.58973e-08
2.01917e-06
-7.27751e-13
1.60925e-08
2.00292e-06
-7.21811e-13
1.62901e-08
1.98646e-06
-7.13457e-13
1.64906e-08
1.9698e-06
-7.0291e-13
1.66945e-08
1.95293e-06
-6.92613e-13
1.69023e-08
1.93585e-06
-6.85008e-13
1.71145e-08
1.91856e-06
-6.8115e-13
1.73317e-08
1.90103e-06
-6.79651e-13
1.75546e-08
1.88329e-06
-6.77708e-13
1.77837e-08
1.8653e-06
-6.71935e-13
1.80196e-08
1.84707e-06
-6.62109e-13
1.82625e-08
1.82859e-06
-6.50702e-13
1.85131e-08
1.80985e-06
-6.40876e-13
1.87717e-08
1.79085e-06
-6.34798e-13
1.90388e-08
1.77157e-06
-6.31606e-13
1.93149e-08
1.752e-06
-6.28109e-13
1.96005e-08
1.73214e-06
-6.21669e-13
1.98958e-08
1.71197e-06
-6.11372e-13
2.02013e-08
1.69148e-06
-5.99076e-13
2.05172e-08
1.67067e-06
-5.87475e-13
2.0844e-08
1.64952e-06
-5.78759e-13
2.11818e-08
1.62802e-06
-5.71987e-13
2.15312e-08
1.60616e-06
-5.65714e-13
2.18925e-08
1.58393e-06
-5.57943e-13
2.22659e-08
1.56131e-06
-5.48422e-13
2.26519e-08
1.53829e-06
-5.38153e-13
2.30508e-08
1.51486e-06
-5.29188e-13
2.3463e-08
1.491e-06
-5.23165e-13
2.38889e-08
1.4667e-06
-5.19473e-13
2.43288e-08
1.44195e-06
-5.16837e-13
2.47833e-08
1.41672e-06
-5.13256e-13
2.52528e-08
1.39101e-06
-5.07455e-13
2.57378e-08
1.3648e-06
-4.99267e-13
2.62388e-08
1.33808e-06
-4.89497e-13
2.67565e-08
1.31081e-06
-4.78395e-13
2.72914e-08
1.283e-06
-4.65683e-13
2.78443e-08
1.25461e-06
-4.49973e-13
2.84158e-08
1.22563e-06
-4.29878e-13
2.90068e-08
1.19604e-06
-4.0451e-13
2.9618e-08
1.16581e-06
-3.74978e-13
3.02503e-08
1.13494e-06
-3.42948e-13
3.09044e-08
1.10338e-06
-3.10307e-13
3.1581e-08
1.07112e-06
-2.7961e-13
3.22808e-08
1.03814e-06
-2.51799e-13
3.30044e-08
1.00442e-06
-2.28761e-13
3.37523e-08
9.69915e-07
-2.12386e-13
3.45248e-08
9.34616e-07
-2.03837e-13
3.5322e-08
8.98495e-07
-2.04503e-13
3.61437e-08
8.61528e-07
-2.14218e-13
3.69893e-08
8.23691e-07
-2.29761e-13
3.78579e-08
7.84965e-07
-2.4708e-13
3.87477e-08
7.45329e-07
-2.59293e-13
3.96564e-08
7.04768e-07
-2.58849e-13
4.0581e-08
6.63271e-07
-2.38531e-13
4.15171e-08
6.20832e-07
-1.91236e-13
4.24592e-08
5.77451e-07
-1.14408e-13
4.34001e-08
5.33138e-07
-8.65974e-15
4.43309e-08
4.87916e-07
1.16573e-13
4.52401e-08
4.41819e-07
2.44138e-13
4.61139e-08
3.949e-07
3.46723e-13
4.69348e-08
3.47233e-07
3.94573e-13
4.76816e-08
2.98918e-07
3.62821e-13
4.83284e-08
2.50086e-07
2.44582e-13
4.88438e-08
2.00908e-07
6.18394e-14
4.91892e-08
1.516e-07
-1.29952e-13
4.93177e-08
1.0244e-07
-2.57794e-13
4.91711e-08
5.37771e-08
-2.60847e-13
4.86738e-08
6.05139e-09
-1.33671e-13
4.77371e-08
-4.01341e-08
5.4845e-14
4.61968e-08
-8.40294e-08
1.78524e-13
4.39058e-08
-1.24757e-07
1.61871e-13
4.07374e-08
-1.61254e-07
7.42739e-14
3.65053e-08
-1.92193e-07
9.55902e-14
3.09488e-08
-2.15899e-07
3.193e-13
2.3716e-08
-2.30341e-07
5.59219e-13
1.44523e-08
-2.33113e-07
5.57998e-13
2.78159e-09
-2.21451e-07
5.29354e-13
-1.16516e-08
-1.90765e-07
5.81202e-13
-3.06856e-08
-1.46843e-07
5.44897e-13
-4.39237e-08
-9.63809e-08
-2.91655e-13
-5.04564e-08
-4.2321e-08
-9.71223e-13
-5.40543e-08
-1.14864e-12
-4.23204e-08
-8.0616e-08
8.05669e-08
-1.4184e-07
6.11392e-08
-1.7363e-07
3.17469e-08
-1.73205e-07
-4.8764e-10
-1.41472e-07
-3.18211e-08
-9.01334e-08
-5.14296e-08
-2.5772e-08
-6.44484e-08
4.71567e-08
-7.30145e-08
1.25525e-07
-7.84525e-08
2.07248e-07
-8.18064e-08
2.90934e-07
-8.37681e-08
3.75606e-07
-8.4751e-08
4.60563e-07
-8.50316e-08
5.45288e-07
-8.4793e-08
6.29386e-07
-8.416e-08
7.12549e-07
-8.32195e-08
7.94528e-07
-8.20334e-08
8.75122e-07
-8.0647e-08
9.54163e-07
-7.90941e-08
1.03151e-06
-7.74011e-08
1.10704e-06
-7.55891e-08
1.18066e-06
-7.36755e-08
1.25228e-06
-7.16755e-08
1.32183e-06
-6.96027e-08
1.38925e-06
-6.74696e-08
1.45449e-06
-6.52877e-08
1.5175e-06
-6.30681e-08
1.57828e-06
-6.08211e-08
1.63679e-06
-5.85568e-08
1.69303e-06
-5.62844e-08
1.747e-06
-5.40129e-08
1.79871e-06
-5.17503e-08
1.84818e-06
-4.95043e-08
1.89542e-06
-4.72818e-08
1.94048e-06
-4.50889e-08
1.98338e-06
-4.29312e-08
2.02416e-06
-4.08134e-08
2.06287e-06
-3.87399e-08
2.09956e-06
-3.6714e-08
2.13427e-06
-3.47386e-08
2.16706e-06
-3.28162e-08
2.19798e-06
-3.09484e-08
2.2271e-06
-2.91365e-08
2.25446e-06
-2.73814e-08
2.28012e-06
-2.56835e-08
2.30415e-06
-2.40429e-08
2.32659e-06
-2.24594e-08
2.34751e-06
-2.09324e-08
2.36696e-06
-1.94612e-08
2.38499e-06
-1.80449e-08
2.40166e-06
-1.66823e-08
2.41702e-06
-1.5372e-08
2.43113e-06
-1.41129e-08
2.44402e-06
-1.29033e-08
2.45576e-06
-1.17418e-08
2.46638e-06
-1.06269e-08
2.47593e-06
-9.557e-09
2.48446e-06
-8.53049e-09
2.49201e-06
-7.54576e-09
2.49861e-06
-6.60123e-09
2.50431e-06
-5.69529e-09
2.50913e-06
-4.82641e-09
2.51313e-06
-3.99304e-09
2.51633e-06
-3.19368e-09
2.51876e-06
-2.42688e-09
2.52046e-06
-1.69123e-09
2.52146e-06
-9.85352e-10
2.52177e-06
-3.07663e-10
2.52144e-06
3.43131e-10
2.52048e-06
9.67758e-10
2.51893e-06
1.56717e-09
2.5168e-06
2.14262e-09
2.51412e-06
2.69533e-09
2.51091e-06
3.22647e-09
2.50719e-06
3.73713e-09
2.50298e-06
4.22836e-09
2.49829e-06
4.70119e-09
2.49316e-06
5.1566e-09
2.48758e-06
5.59555e-09
2.48158e-06
6.01894e-09
2.47518e-06
6.42765e-09
2.46838e-06
6.82247e-09
2.4612e-06
7.20416e-09
2.45365e-06
7.57344e-09
2.44574e-06
7.93096e-09
2.43749e-06
8.27732e-09
2.4289e-06
8.61311e-09
2.41999e-06
8.93886e-09
2.41076e-06
9.25509e-09
2.40123e-06
9.56228e-09
2.3914e-06
9.86088e-09
2.38127e-06
1.01513e-08
2.37087e-06
1.0434e-08
2.36019e-06
1.07093e-08
2.34924e-06
1.09775e-08
2.33804e-06
1.1239e-08
2.32657e-06
1.14941e-08
2.31486e-06
1.17432e-08
2.30291e-06
1.19865e-08
2.29072e-06
1.22243e-08
2.2783e-06
1.24571e-08
2.26565e-06
1.26849e-08
2.25277e-06
1.29082e-08
2.23968e-06
1.3127e-08
2.22637e-06
1.33416e-08
2.21286e-06
1.35522e-08
2.19914e-06
1.3759e-08
2.18521e-06
1.39624e-08
2.17108e-06
1.41628e-08
2.15676e-06
1.43604e-08
2.14224e-06
1.45558e-08
2.12753e-06
1.47494e-08
2.11262e-06
1.49417e-08
2.09753e-06
1.51333e-08
2.08224e-06
1.53245e-08
2.06676e-06
1.55159e-08
2.05109e-06
1.5708e-08
2.03523e-06
1.59015e-08
2.01917e-06
1.60967e-08
2.00292e-06
1.62944e-08
1.98646e-06
1.64949e-08
1.9698e-06
1.66987e-08
1.95293e-06
1.69064e-08
1.93585e-06
1.71185e-08
1.91855e-06
1.73358e-08
1.90103e-06
1.75588e-08
1.88328e-06
1.7788e-08
1.8653e-06
1.80238e-08
1.84707e-06
1.82667e-08
1.82859e-06
1.85172e-08
1.80985e-06
1.87756e-08
1.79085e-06
1.90427e-08
1.77157e-06
1.93189e-08
1.752e-06
1.96046e-08
1.73214e-06
1.98999e-08
1.71197e-06
2.02053e-08
1.69148e-06
2.05212e-08
1.67067e-06
2.08478e-08
1.64952e-06
2.11857e-08
1.62802e-06
2.15351e-08
1.60616e-06
2.18963e-08
1.58393e-06
2.22698e-08
1.56131e-06
2.26557e-08
1.53829e-06
2.30545e-08
1.51486e-06
2.34667e-08
1.491e-06
2.38925e-08
1.4667e-06
2.43324e-08
1.44195e-06
2.47869e-08
1.41672e-06
2.52563e-08
1.39101e-06
2.57412e-08
1.3648e-06
2.62422e-08
1.33808e-06
2.67598e-08
1.31081e-06
2.72947e-08
1.283e-06
2.78475e-08
1.25461e-06
2.8419e-08
1.22563e-06
2.901e-08
1.19604e-06
2.96212e-08
1.16581e-06
3.02534e-08
1.13494e-06
3.09074e-08
1.10338e-06
3.1584e-08
1.07113e-06
3.22838e-08
1.03815e-06
3.30073e-08
1.00442e-06
3.37552e-08
9.69916e-07
3.45276e-08
9.34617e-07
3.53248e-08
8.98496e-07
3.61464e-08
8.61529e-07
3.6992e-08
8.23693e-07
3.78604e-08
7.84966e-07
3.87502e-08
7.4533e-07
3.96589e-08
7.0477e-07
4.05833e-08
6.63273e-07
4.15194e-08
6.20833e-07
4.24614e-08
5.77452e-07
4.34024e-08
5.3314e-07
4.43331e-08
4.87918e-07
4.52423e-08
4.41821e-07
4.6116e-08
3.94902e-07
4.69367e-08
3.47235e-07
4.76834e-08
2.9892e-07
4.83301e-08
2.50088e-07
4.88453e-08
2.0091e-07
4.91907e-08
1.51603e-07
4.93191e-08
1.02442e-07
4.91726e-08
5.3779e-08
4.86754e-08
6.05305e-09
4.77388e-08
-4.01328e-08
4.61985e-08
-8.40286e-08
4.39074e-08
-1.24757e-07
4.07387e-08
-1.61252e-07
3.65066e-08
-1.92191e-07
3.09503e-08
-2.15896e-07
2.37175e-08
-2.30338e-07
1.44532e-08
-2.33112e-07
2.78226e-09
-2.21451e-07
-1.165e-08
-1.90763e-07
-3.06839e-08
-1.4684e-07
-4.39248e-08
-9.63739e-08
-5.04624e-08
-4.23185e-08
-5.40504e-08
-4.23191e-08
-5.31148e-08
-9.70068e-12
1.33655e-07
-6.73852e-08
-4.64897e-12
7.53775e-08
-5.4338e-08
-2.8938e-12
1.8692e-08
-2.36531e-08
-2.64944e-12
-3.11886e-08
1.59607e-08
-2.64859e-12
-7.14587e-08
6.52758e-08
-2.35923e-12
-1.0077e-07
1.2237e-07
-2.1447e-12
-1.21571e-07
1.85409e-07
-2.0127e-12
-1.36084e-07
2.52878e-07
-1.94582e-12
-1.45952e-07
3.23533e-07
-1.93188e-12
-1.52493e-07
3.9638e-07
-1.93046e-12
-1.56646e-07
4.70643e-07
-1.88864e-12
-1.59043e-07
5.45714e-07
-1.77863e-12
-1.6013e-07
6.2111e-07
-1.60863e-12
-1.60214e-07
6.96442e-07
-1.41142e-12
-1.59515e-07
7.71391e-07
-1.22521e-12
-1.58191e-07
8.45693e-07
-1.07776e-12
-1.56358e-07
9.19124e-07
-9.81035e-13
-1.54102e-07
9.91495e-07
-9.32325e-13
-1.5149e-07
1.06264e-06
-9.19641e-13
-1.48575e-07
1.13243e-06
-9.27497e-13
-1.454e-07
1.20072e-06
-9.41458e-13
-1.42002e-07
1.26743e-06
-9.50875e-13
-1.38411e-07
1.33246e-06
-9.49599e-13
-1.34658e-07
1.39573e-06
-9.35263e-13
-1.30768e-07
1.45718e-06
-9.08535e-13
-1.26766e-07
1.51676e-06
-8.71968e-13
-1.22674e-07
1.57443e-06
-8.29079e-13
-1.18514e-07
1.63015e-06
-7.8338e-13
-1.14305e-07
1.68391e-06
-7.37784e-13
-1.10068e-07
1.73569e-06
-6.9425e-13
-1.05819e-07
1.7855e-06
-6.53797e-13
-1.01575e-07
1.83332e-06
-6.1666e-13
-9.7352e-08
1.87919e-06
-5.82861e-13
-9.31627e-08
1.9231e-06
-5.52192e-13
-8.90199e-08
1.96508e-06
-5.2418e-13
-8.49348e-08
2.00517e-06
-4.98353e-13
-8.09171e-08
2.04339e-06
-4.7413e-13
-7.69754e-08
2.07977e-06
-4.5094e-13
-7.31168e-08
2.11437e-06
-4.28584e-13
-6.93475e-08
2.14721e-06
-4.06865e-13
-6.56724e-08
2.17834e-06
-3.85868e-13
-6.20955e-08
2.20781e-06
-3.65767e-13
-5.86195e-08
2.23566e-06
-3.46747e-13
-5.52466e-08
2.26195e-06
-3.28963e-13
-5.1978e-08
2.28671e-06
-3.12601e-13
-4.88143e-08
2.30999e-06
-2.97808e-13
-4.57555e-08
2.33185e-06
-2.84742e-13
-4.28008e-08
2.35233e-06
-2.73432e-13
-3.99493e-08
2.37148e-06
-2.63787e-13
-3.71994e-08
2.38934e-06
-2.55572e-13
-3.45493e-08
2.40596e-06
-2.48438e-13
-3.19968e-08
2.42138e-06
-2.41965e-13
-2.95397e-08
2.43565e-06
-2.35865e-13
-2.71755e-08
2.44881e-06
-2.29954e-13
-2.49015e-08
2.46089e-06
-2.24132e-13
-2.27151e-08
2.47195e-06
-2.18248e-13
-2.06135e-08
2.48201e-06
-2.12156e-13
-1.85938e-08
2.49112e-06
-2.05529e-13
-1.6653e-08
2.49931e-06
-1.98153e-13
-1.47884e-08
2.50661e-06
-1.8991e-13
-1.2997e-08
2.51306e-06
-1.8091e-13
-1.1276e-08
2.5187e-06
-1.71487e-13
-9.62273e-09
2.52354e-06
-1.61974e-13
-8.03436e-09
2.52763e-06
-1.52725e-13
-6.50824e-09
2.53099e-06
-1.44002e-13
-5.04171e-09
2.53364e-06
-1.36023e-13
-3.63216e-09
2.53562e-06
-1.28917e-13
-2.27698e-09
2.53694e-06
-1.22617e-13
-9.73691e-10
2.53764e-06
-1.17052e-13
2.79887e-10
2.53773e-06
-1.12396e-13
1.48557e-09
2.53724e-06
-1.0851e-13
2.64531e-09
2.53618e-06
-1.0536e-13
3.7614e-09
2.53458e-06
-1.02869e-13
4.83602e-09
2.53246e-06
-1.00808e-13
5.87125e-09
2.52983e-06
-9.89554e-14
6.86907e-09
2.52672e-06
-9.70958e-14
7.8314e-09
2.52313e-06
-9.49378e-14
8.76007e-09
2.51908e-06
-9.22802e-14
9.65682e-09
2.51459e-06
-8.89773e-14
1.05233e-08
2.50967e-06
-8.49528e-14
1.13612e-08
2.50434e-06
-8.0269e-14
1.21719e-08
2.4986e-06
-7.49608e-14
1.29569e-08
2.49248e-06
-6.9146e-14
1.37175e-08
2.48597e-06
-6.29426e-14
1.44551e-08
2.4791e-06
-5.6545e-14
1.51707e-08
2.47186e-06
-4.99947e-14
1.58656e-08
2.46428e-06
-4.34236e-14
1.65408e-08
2.45636e-06
-3.68039e-14
1.71973e-08
2.44811e-06
-3.02327e-14
1.7836e-08
2.43953e-06
-2.3613e-14
1.84579e-08
2.43064e-06
-1.70072e-14
1.90636e-08
2.42144e-06
-1.03806e-14
1.96541e-08
2.41194e-06
-3.83024e-15
2.02299e-08
2.40215e-06
2.57436e-15
2.07918e-08
2.39207e-06
8.66671e-15
2.13404e-08
2.38171e-06
1.4315e-14
2.18764e-08
2.37108e-06
1.94359e-14
2.24003e-08
2.36017e-06
2.40433e-14
2.29127e-08
2.34901e-06
2.81927e-14
2.34143e-08
2.33758e-06
3.20577e-14
2.39055e-08
2.32591e-06
3.5777e-14
2.4387e-08
2.31398e-06
3.95031e-14
2.48591e-08
2.30181e-06
4.3271e-14
2.53224e-08
2.2894e-06
4.69971e-14
2.57773e-08
2.27675e-06
5.04874e-14
2.62244e-08
2.26387e-06
5.35128e-14
2.66643e-08
2.25076e-06
5.60593e-14
2.70977e-08
2.23743e-06
5.81618e-14
2.75251e-08
2.22386e-06
6.00908e-14
2.79476e-08
2.21008e-06
6.2228e-14
2.83658e-08
2.19608e-06
6.48579e-14
2.87806e-08
2.18185e-06
6.82093e-14
2.91929e-08
2.16741e-06
7.22547e-14
2.96036e-08
2.15275e-06
7.65776e-14
3.00136e-08
2.13787e-06
8.04842e-14
3.04239e-08
2.12276e-06
8.33361e-14
3.08353e-08
2.10744e-06
8.51541e-14
3.12492e-08
2.0919e-06
8.6757e-14
3.16664e-08
2.07613e-06
8.95534e-14
3.20883e-08
2.06014e-06
9.44592e-14
3.25158e-08
2.04392e-06
1.01003e-13
3.29499e-08
2.02746e-06
1.07386e-13
3.33916e-08
2.01076e-06
1.11626e-13
3.38419e-08
1.99382e-06
1.12951e-13
3.43021e-08
1.97664e-06
1.125e-13
3.47732e-08
1.95919e-06
1.12535e-13
3.52563e-08
1.94149e-06
1.14624e-13
3.57524e-08
1.92352e-06
1.18537e-13
3.62622e-08
1.90528e-06
1.22284e-13
3.67867e-08
1.88676e-06
1.23936e-13
3.73268e-08
1.86794e-06
1.23117e-13
3.78835e-08
1.84883e-06
1.21403e-13
3.84576e-08
1.82941e-06
1.20931e-13
3.90499e-08
1.80967e-06
1.22777e-13
3.96611e-08
1.78961e-06
1.26066e-13
4.02919e-08
1.76922e-06
1.28793e-13
4.09428e-08
1.74848e-06
1.29265e-13
4.16147e-08
1.72738e-06
1.27412e-13
4.23082e-08
1.70591e-06
1.24754e-13
4.3024e-08
1.68407e-06
1.23054e-13
4.37627e-08
1.66184e-06
1.2311e-13
4.4525e-08
1.63921e-06
1.24192e-13
4.53114e-08
1.61617e-06
1.24852e-13
4.61228e-08
1.5927e-06
1.23998e-13
4.69596e-08
1.56879e-06
1.21472e-13
4.78228e-08
1.54443e-06
1.18114e-13
4.8713e-08
1.51961e-06
1.14929e-13
4.9631e-08
1.49432e-06
1.12452e-13
5.05777e-08
1.46853e-06
1.10557e-13
5.15539e-08
1.44223e-06
1.08795e-13
5.25608e-08
1.41541e-06
1.06817e-13
5.35991e-08
1.38806e-06
1.04805e-13
5.46701e-08
1.36015e-06
1.03216e-13
5.57748e-08
1.33168e-06
1.0246e-13
5.69144e-08
1.30262e-06
1.0271e-13
5.80901e-08
1.27296e-06
1.03681e-13
5.9303e-08
1.24268e-06
1.04847e-13
6.05545e-08
1.21176e-06
1.05818e-13
6.18455e-08
1.18019e-06
1.0629e-13
6.31771e-08
1.14794e-06
1.06228e-13
6.45501e-08
1.115e-06
1.05492e-13
6.59651e-08
1.08135e-06
1.03757e-13
6.74227e-08
1.04697e-06
1.00572e-13
6.89228e-08
1.01185e-06
9.56665e-14
7.04648e-08
9.75965e-07
8.90676e-14
7.20475e-08
9.39304e-07
8.11989e-14
7.36692e-08
9.01854e-07
7.28861e-14
7.53267e-08
8.63604e-07
6.50313e-14
7.70161e-08
8.24546e-07
5.89945e-14
7.87317e-08
7.84679e-07
5.57332e-14
8.04665e-08
7.44002e-07
5.62605e-14
8.22108e-08
7.02525e-07
6.13537e-14
8.39529e-08
6.60264e-07
7.11098e-14
8.56779e-08
6.17243e-07
8.44047e-14
8.73673e-08
5.73499e-07
9.87405e-14
8.89986e-08
5.29082e-07
1.09884e-13
9.05441e-08
4.84059e-07
1.12368e-13
9.19704e-08
4.38515e-07
1.01169e-13
9.32373e-08
3.92558e-07
7.38298e-14
9.42959e-08
3.46323e-07
3.30153e-14
9.50879e-08
2.99979e-07
-1.15186e-14
9.55426e-08
2.53731e-07
-4.47142e-14
9.55749e-08
2.07831e-07
-5.12229e-14
9.50815e-08
1.62581e-07
-2.5771e-14
9.3933e-08
1.1835e-07
1.95399e-14
9.19776e-08
7.5561e-08
5.45397e-14
8.8995e-08
3.47143e-08
5.06817e-14
8.4761e-08
-3.59189e-09
1.11161e-14
7.90517e-08
-3.8627e-08
-1.60427e-14
7.15489e-08
-6.95647e-08
2.21351e-14
6.18956e-08
-9.5513e-08
9.12465e-14
4.96726e-08
-1.15492e-07
6.57946e-14
3.44369e-08
-1.28519e-07
-1.18516e-14
1.58121e-08
-1.33728e-07
8.87346e-14
-6.43625e-09
-1.32693e-07
2.02727e-13
-3.17143e-08
-1.20522e-07
2.03809e-13
-5.60926e-08
-9.3037e-08
3.95073e-13
-7.79428e-08
-5.42324e-08
3.82472e-14
-9.28552e-08
-5.60663e-13
-9.65492e-08
-5.31199e-08
1.33597e-07
-6.73783e-08
7.53241e-08
-5.43274e-08
1.86513e-08
-2.3644e-08
-3.1226e-08
1.5969e-08
-7.14921e-08
6.52831e-08
-1.00799e-07
1.22377e-07
-1.21597e-07
1.85415e-07
-1.36107e-07
2.52882e-07
-1.45973e-07
3.23536e-07
-1.52513e-07
3.96381e-07
-1.56664e-07
4.70643e-07
-1.5906e-07
5.45713e-07
-1.60145e-07
6.21108e-07
-1.60229e-07
6.9644e-07
-1.59529e-07
7.71389e-07
-1.58204e-07
8.45691e-07
-1.56371e-07
9.19122e-07
-1.54114e-07
9.91493e-07
-1.51501e-07
1.06264e-06
-1.48586e-07
1.13242e-06
-1.4541e-07
1.20072e-06
-1.4201e-07
1.26743e-06
-1.3842e-07
1.33246e-06
-1.34666e-07
1.39573e-06
-1.30776e-07
1.45718e-06
-1.26773e-07
1.51676e-06
-1.2268e-07
1.57442e-06
-1.1852e-07
1.63015e-06
-1.14311e-07
1.68391e-06
-1.10073e-07
1.73569e-06
-1.05824e-07
1.78549e-06
-1.0158e-07
1.83332e-06
-9.7356e-08
1.87918e-06
-9.31664e-08
1.92309e-06
-8.90233e-08
1.96508e-06
-8.49379e-08
2.00516e-06
-8.09199e-08
2.04338e-06
-7.69779e-08
2.07977e-06
-7.31191e-08
2.11436e-06
-6.93497e-08
2.1472e-06
-6.56744e-08
2.17834e-06
-6.20972e-08
2.20781e-06
-5.86211e-08
2.23566e-06
-5.5248e-08
2.26194e-06
-5.19793e-08
2.2867e-06
-4.88155e-08
2.30999e-06
-4.57565e-08
2.33185e-06
-4.28017e-08
2.35233e-06
-3.99501e-08
2.37148e-06
-3.72001e-08
2.38934e-06
-3.45499e-08
2.40596e-06
-3.19973e-08
2.42138e-06
-2.95402e-08
2.43565e-06
-2.71759e-08
2.4488e-06
-2.49019e-08
2.46089e-06
-2.27155e-08
2.47194e-06
-2.06138e-08
2.48201e-06
-1.8594e-08
2.49112e-06
-1.66532e-08
2.4993e-06
-1.47885e-08
2.50661e-06
-1.29971e-08
2.51306e-06
-1.12761e-08
2.51869e-06
-9.6228e-09
2.52354e-06
-8.03441e-09
2.52762e-06
-6.50825e-09
2.53098e-06
-5.04169e-09
2.53363e-06
-3.63211e-09
2.53561e-06
-2.2769e-09
2.53694e-06
-9.7358e-10
2.53763e-06
2.80018e-10
2.53772e-06
1.48571e-09
2.53723e-06
2.64545e-09
2.53618e-06
3.76154e-09
2.53458e-06
4.83615e-09
2.53246e-06
5.87137e-09
2.52983e-06
6.86919e-09
2.52671e-06
7.83151e-09
2.52312e-06
8.76018e-09
2.51908e-06
9.65694e-09
2.51459e-06
1.05235e-08
2.50967e-06
1.13613e-08
2.50434e-06
1.21721e-08
2.4986e-06
1.29571e-08
2.49248e-06
1.37177e-08
2.48597e-06
1.44552e-08
2.47909e-06
1.51709e-08
2.47186e-06
1.58658e-08
2.46428e-06
1.6541e-08
2.45636e-06
1.71975e-08
2.4481e-06
1.78362e-08
2.43953e-06
1.84581e-08
2.43064e-06
1.90638e-08
2.42144e-06
1.96543e-08
2.41194e-06
2.02301e-08
2.40215e-06
2.0792e-08
2.39207e-06
2.13406e-08
2.38171e-06
2.18765e-08
2.37107e-06
2.24004e-08
2.36017e-06
2.29129e-08
2.34901e-06
2.34145e-08
2.33758e-06
2.39058e-08
2.3259e-06
2.43872e-08
2.31398e-06
2.48594e-08
2.30181e-06
2.53226e-08
2.2894e-06
2.57776e-08
2.27675e-06
2.62247e-08
2.26387e-06
2.66645e-08
2.25076e-06
2.70979e-08
2.23742e-06
2.75253e-08
2.22386e-06
2.79478e-08
2.21008e-06
2.8366e-08
2.19608e-06
2.87808e-08
2.18185e-06
2.91931e-08
2.16741e-06
2.96037e-08
2.15274e-06
3.00137e-08
2.13786e-06
3.04239e-08
2.12276e-06
3.08354e-08
2.10744e-06
3.12493e-08
2.0919e-06
3.16667e-08
2.07613e-06
3.20886e-08
2.06014e-06
3.2516e-08
2.04392e-06
3.295e-08
2.02746e-06
3.33916e-08
2.01076e-06
3.38419e-08
1.99382e-06
3.43021e-08
1.97663e-06
3.47733e-08
1.95919e-06
3.52565e-08
1.94149e-06
3.57526e-08
1.92352e-06
3.62623e-08
1.90528e-06
3.67867e-08
1.88675e-06
3.73268e-08
1.86794e-06
3.78835e-08
1.84883e-06
3.84577e-08
1.82941e-06
3.90501e-08
1.80967e-06
3.96613e-08
1.78961e-06
4.02919e-08
1.76922e-06
4.09428e-08
1.74848e-06
4.16147e-08
1.72738e-06
4.23082e-08
1.70591e-06
4.30241e-08
1.68407e-06
4.37628e-08
1.66184e-06
4.45251e-08
1.63921e-06
4.53115e-08
1.61617e-06
4.61228e-08
1.5927e-06
4.69596e-08
1.56879e-06
4.78228e-08
1.54443e-06
4.8713e-08
1.51961e-06
4.9631e-08
1.49432e-06
5.05777e-08
1.46853e-06
5.15539e-08
1.44223e-06
5.25607e-08
1.41541e-06
5.35991e-08
1.38806e-06
5.46701e-08
1.36015e-06
5.57748e-08
1.33168e-06
5.69144e-08
1.30262e-06
5.809e-08
1.27296e-06
5.9303e-08
1.24268e-06
6.05544e-08
1.21176e-06
6.18455e-08
1.18019e-06
6.3177e-08
1.14794e-06
6.45501e-08
1.115e-06
6.59652e-08
1.08135e-06
6.74227e-08
1.04697e-06
6.89228e-08
1.01185e-06
7.04648e-08
9.75965e-07
7.20476e-08
9.39304e-07
7.36692e-08
9.01854e-07
7.53267e-08
8.63604e-07
7.70161e-08
8.24547e-07
7.87317e-08
7.84679e-07
8.04664e-08
7.44002e-07
8.22108e-08
7.02525e-07
8.39529e-08
6.60264e-07
8.56779e-08
6.17243e-07
8.73674e-08
5.73499e-07
8.89986e-08
5.29083e-07
9.05441e-08
4.8406e-07
9.19705e-08
4.38516e-07
9.32373e-08
3.92559e-07
9.4296e-08
3.46324e-07
9.5088e-08
2.9998e-07
9.55428e-08
2.53732e-07
9.55751e-08
2.07831e-07
9.50817e-08
1.62582e-07
9.39332e-08
1.18351e-07
9.19778e-08
7.55614e-08
8.89953e-08
3.47146e-08
8.47613e-08
-3.59152e-09
7.9052e-08
-3.86264e-08
7.15492e-08
-6.95638e-08
6.18958e-08
-9.5512e-08
4.96728e-08
-1.15491e-07
3.4437e-08
-1.28517e-07
1.58123e-08
-1.33727e-07
-6.43608e-09
-1.32691e-07
-3.17142e-08
-1.20521e-07
-5.60929e-08
-9.30426e-08
-7.79431e-08
-5.42333e-08
-9.28555e-08
-9.65511e-08
-1.86178e-08
-1.21293e-11
1.52233e-07
-1.58442e-09
-4.82932e-12
5.82743e-08
3.14785e-08
-2.43029e-12
-1.4391e-08
7.14846e-08
-1.9224e-12
-7.1208e-08
1.15676e-07
-1.63074e-12
-1.15661e-07
1.64343e-07
-1.34672e-12
-1.49449e-07
2.17373e-07
-1.14194e-12
-1.74611e-07
2.74302e-07
-1.03352e-12
-1.93023e-07
3.34557e-07
-9.9986e-13
-2.06217e-07
3.97498e-07
-9.98973e-13
-2.15444e-07
4.625e-07
-9.88594e-13
-2.21658e-07
5.29006e-07
-9.43207e-13
-2.25559e-07
5.96531e-07
-8.60448e-13
-2.27664e-07
6.64662e-07
-7.55026e-13
-2.28352e-07
7.33044e-07
-6.47924e-13
-2.27904e-07
8.01373e-07
-5.57171e-13
-2.26528e-07
8.69389e-07
-4.92633e-13
-2.24381e-07
9.36866e-07
-4.55857e-13
-2.21586e-07
1.00361e-06
-4.42098e-13
-2.1824e-07
1.06944e-06
-4.43514e-13
-2.14419e-07
1.13422e-06
-4.51882e-13
-2.10189e-07
1.19782e-06
-4.6066e-13
-2.05605e-07
1.26012e-06
-4.65435e-13
-2.00716e-07
1.32101e-06
-4.6413e-13
-1.95565e-07
1.38043e-06
-4.5621e-13
-1.90193e-07
1.43829e-06
-4.4245e-13
-1.84637e-07
1.49454e-06
-4.24319e-13
-1.7893e-07
1.54913e-06
-4.03569e-13
-1.73107e-07
1.60201e-06
-3.81885e-13
-1.67197e-07
1.65317e-06
-3.60468e-13
-1.61228e-07
1.70257e-06
-3.4012e-13
-1.55228e-07
1.75021e-06
-3.21181e-13
-1.4922e-07
1.79608e-06
-3.03771e-13
-1.43228e-07
1.84018e-06
-2.8794e-13
-1.37273e-07
1.88253e-06
-2.73674e-13
-1.31372e-07
1.92313e-06
-2.60803e-13
-1.25543e-07
1.96201e-06
-2.49104e-13
-1.198e-07
1.99919e-06
-2.38245e-13
-1.14157e-07
2.03469e-06
-2.27927e-13
-1.08624e-07
2.06855e-06
-2.18025e-13
-1.0321e-07
2.1008e-06
-2.08453e-13
-9.79242e-08
2.13147e-06
-1.99256e-13
-9.27716e-08
2.1606e-06
-1.90527e-13
-8.77574e-08
2.18824e-06
-1.8228e-13
-8.28849e-08
2.21441e-06
-1.74606e-13
-7.81565e-08
2.23917e-06
-1.67535e-13
-7.35735e-08
2.26255e-06
-1.61207e-13
-6.91363e-08
2.28459e-06
-1.55687e-13
-6.48445e-08
2.30533e-06
-1.51076e-13
-6.06968e-08
2.32482e-06
-1.47301e-13
-5.66916e-08
2.3431e-06
-1.44262e-13
-5.28266e-08
2.3602e-06
-1.41726e-13
-4.90992e-08
2.37617e-06
-1.39544e-13
-4.55063e-08
2.39103e-06
-1.37587e-13
-4.20447e-08
2.40484e-06
-1.35745e-13
-3.87111e-08
2.41763e-06
-1.3401e-13
-3.55016e-08
2.42943e-06
-1.32279e-13
-3.24125e-08
2.44027e-06
-1.30385e-13
-2.94399e-08
2.4502e-06
-1.2813e-13
-2.65799e-08
2.45924e-06
-1.25389e-13
-2.38285e-08
2.46743e-06
-1.22121e-13
-2.11818e-08
2.47479e-06
-1.18419e-13
-1.86359e-08
2.48135e-06
-1.14519e-13
-1.6187e-08
2.48715e-06
-1.10609e-13
-1.38312e-08
2.49221e-06
-1.06845e-13
-1.15649e-08
2.49655e-06
-1.0333e-13
-9.38425e-09
2.50021e-06
-1.00142e-13
-7.2857e-09
2.5032e-06
-9.72416e-14
-5.26562e-09
2.50555e-06
-9.46152e-14
-3.32057e-09
2.50728e-06
-9.2263e-14
-1.44727e-09
2.50841e-06
-9.02333e-14
3.57324e-10
2.50896e-06
-8.8516e-14
2.09601e-09
2.50895e-06
-8.71525e-14
3.77167e-09
2.5084e-06
-8.60908e-14
5.38739e-09
2.50733e-06
-8.53033e-14
6.94611e-09
2.50575e-06
-8.46684e-14
8.45067e-09
2.50369e-06
-8.40716e-14
9.90375e-09
2.50114e-06
-8.33847e-14
1.1308e-08
2.49814e-06
-8.25277e-14
1.26657e-08
2.49468e-06
-8.13793e-14
1.39795e-08
2.4908e-06
-7.99534e-14
1.52514e-08
2.48649e-06
-7.82256e-14
1.64837e-08
2.48177e-06
-7.62029e-14
1.76783e-08
2.47666e-06
-7.39582e-14
1.88372e-08
2.47116e-06
-7.14914e-14
1.99623e-08
2.46528e-06
-6.88685e-14
2.10552e-08
2.45903e-06
-6.61242e-14
2.21177e-08
2.45242e-06
-6.3255e-14
2.31513e-08
2.44547e-06
-6.02608e-14
2.41574e-08
2.43817e-06
-5.71522e-14
2.51373e-08
2.43054e-06
-5.39013e-14
2.60925e-08
2.42259e-06
-5.05602e-14
2.70239e-08
2.41432e-06
-4.71637e-14
2.79327e-08
2.40573e-06
-4.38261e-14
2.882e-08
2.39684e-06
-4.06238e-14
2.96866e-08
2.38765e-06
-3.7699e-14
3.05337e-08
2.37817e-06
-3.50345e-14
3.1362e-08
2.36841e-06
-3.26579e-14
3.21724e-08
2.35836e-06
-3.05034e-14
3.29659e-08
2.34804e-06
-2.84703e-14
3.37432e-08
2.33745e-06
-2.64372e-14
3.45051e-08
2.32659e-06
-2.43416e-14
3.52524e-08
2.31547e-06
-2.22079e-14
3.59858e-08
2.30409e-06
-2.01228e-14
3.67062e-08
2.29246e-06
-1.82215e-14
3.74142e-08
2.28058e-06
-1.66637e-14
3.81108e-08
2.26845e-06
-1.54737e-14
3.87969e-08
2.25608e-06
-1.45023e-14
3.94735e-08
2.24347e-06
-1.34684e-14
4.01416e-08
2.23063e-06
-1.2098e-14
4.08024e-08
2.21754e-06
-1.02765e-14
4.14571e-08
2.20422e-06
-8.05605e-15
4.21069e-08
2.19067e-06
-5.65172e-15
4.2753e-08
2.17688e-06
-3.24046e-15
4.33967e-08
2.16286e-06
-9.81848e-16
4.40393e-08
2.14861e-06
9.43695e-16
4.46823e-08
2.13413e-06
2.4078e-15
4.53271e-08
2.11941e-06
3.51802e-15
4.59753e-08
2.10445e-06
4.6907e-15
4.66286e-08
2.08926e-06
6.59542e-15
4.72884e-08
2.07382e-06
9.59302e-15
4.79563e-08
2.05815e-06
1.33608e-14
4.86339e-08
2.04222e-06
1.69274e-14
4.93227e-08
2.02605e-06
1.93075e-14
5.00241e-08
2.00962e-06
2.02408e-14
5.07399e-08
1.99292e-06
2.04385e-14
5.14716e-08
1.97597e-06
2.107e-14
5.22206e-08
1.95874e-06
2.26832e-14
5.29884e-08
1.94123e-06
2.48412e-14
5.37763e-08
1.92344e-06
2.63678e-14
5.45856e-08
1.90535e-06
2.65066e-14
5.54175e-08
1.88697e-06
2.56531e-14
5.62735e-08
1.86828e-06
2.50598e-14
5.71548e-08
1.84927e-06
2.59098e-14