/*--------------------------------*- C++ -*----------------------------------*\
  =========                 |
  \\      /  F ield         | OpenFOAM: The Open Source CFD Toolbox
   \\    /   O peration     | Website:  https://openfoam.org
    \\  /    A nd           | Version:  8
     \\/     M anipulation  |
\*---------------------------------------------------------------------------*/
FoamFile
{
    version     2.0;
    format      ascii;
    class       volVectorField;
    location    "1000";
    object      U;
}
// * * * * * * * * * * * * * * * * * * * * * * * * * * * * * * * * * * * * * //

dimensions      [0 1 -1 0 0 0 0];

internalField   nonuniform List<vector> 
48000
(
(-0.00407228 -1.48123e-06 0.00479189)
(-0.00775309 -9.36447e-07 0.00401135)
(-0.0113745 -7.45018e-07 0.00273087)
(-0.0124004 -1.107e-06 0.000850469)
(-0.0111787 -1.42536e-06 -0.00178314)
(-0.0081555 -1.43432e-06 -0.00304989)
(-0.0041343 -1.36377e-06 -0.00385714)
(0.000641858 -1.28994e-06 -0.00437085)
(0.00586817 -1.19089e-06 -0.00466456)
(0.0113754 -1.09261e-06 -0.0048207)
(0.0170659 -1.02258e-06 -0.00489496)
(0.0228512 -9.76103e-07 -0.00491413)
(0.0286768 -9.35021e-07 -0.00489526)
(0.0345017 -8.82989e-07 -0.00484944)
(0.0402956 -8.139e-07 -0.00478397)
(0.0460347 -7.31722e-07 -0.00470381)
(0.0517007 -6.45821e-07 -0.00461238)
(0.0572781 -5.6586e-07 -0.0045121)
(0.0627547 -4.98707e-07 -0.00440475)
(0.0681197 -4.47415e-07 -0.00429168)
(0.0733643 -4.11421e-07 -0.00417393)
(0.0784809 -3.87693e-07 -0.00405236)
(0.083463 -3.71954e-07 -0.00392771)
(0.0883054 -3.60014e-07 -0.00380061)
(0.0930033 -3.48257e-07 -0.00367163)
(0.0975532 -3.34376e-07 -0.0035413)
(0.101952 -3.17243e-07 -0.00341014)
(0.106198 -2.96996e-07 -0.00327862)
(0.110289 -2.7454e-07 -0.00314719)
(0.114224 -2.51251e-07 -0.00301628)
(0.118003 -2.28461e-07 -0.00288629)
(0.121627 -2.07201e-07 -0.00275761)
(0.125097 -1.87982e-07 -0.00263058)
(0.128413 -1.70998e-07 -0.00250552)
(0.131577 -1.56085e-07 -0.00238271)
(0.134593 -1.42931e-07 -0.00226241)
(0.137461 -1.31174e-07 -0.00214482)
(0.140187 -1.20369e-07 -0.00203012)
(0.142771 -1.10166e-07 -0.00191846)
(0.145219 -1.00282e-07 -0.00180995)
(0.147533 -9.06155e-08 -0.00170468)
(0.149717 -8.12193e-08 -0.00160272)
(0.151774 -7.21999e-08 -0.00150409)
(0.15371 -6.38697e-08 -0.00140882)
(0.155527 -5.6438e-08 -0.00131689)
(0.15723 -5.01446e-08 -0.00122829)
(0.158823 -4.51572e-08 -0.00114297)
(0.160309 -4.15213e-08 -0.00106091)
(0.161692 -3.92408e-08 -0.000982019)
(0.162976 -3.82014e-08 -0.000906243)
(0.164166 -3.82243e-08 -0.0008335)
(0.165263 -3.90924e-08 -0.000763705)
(0.166273 -4.05087e-08 -0.000696768)
(0.167198 -4.22182e-08 -0.000632598)
(0.168042 -4.40038e-08 -0.000571102)
(0.168808 -4.57056e-08 -0.000512185)
(0.169499 -4.7141e-08 -0.000455755)
(0.170118 -4.82984e-08 -0.000401716)
(0.170669 -4.90751e-08 -0.000349975)
(0.171153 -4.94825e-08 -0.000300436)
(0.171574 -4.94863e-08 -0.000253008)
(0.171935 -4.91627e-08 -0.0002076)
(0.172237 -4.8603e-08 -0.000164124)
(0.172483 -4.79254e-08 -0.000122494)
(0.172676 -4.72781e-08 -8.26273e-05)
(0.172817 -4.68441e-08 -4.44466e-05)
(0.172909 -4.67528e-08 -7.87723e-06)
(0.172953 -4.71449e-08 2.72001e-05)
(0.172953 -4.80929e-08 6.08637e-05)
(0.172908 -4.96881e-08 9.3109e-05)
(0.172822 -5.18887e-08 0.000123977)
(0.172695 -5.46756e-08 0.000153551)
(0.17253 -5.7946e-08 0.000181903)
(0.172327 -6.15629e-08 0.0002091)
(0.172089 -6.53854e-08 0.000235201)
(0.171817 -6.91812e-08 0.000260264)
(0.171512 -7.27981e-08 0.000284345)
(0.171175 -7.60685e-08 0.0003075)
(0.170807 -7.89201e-08 0.000329781)
(0.17041 -8.12044e-08 0.00035124)
(0.169985 -8.2891e-08 0.000371925)
(0.169532 -8.40142e-08 0.000391882)
(0.169052 -8.46157e-08 0.000411152)
(0.168547 -8.4749e-08 0.000429776)
(0.168016 -8.4532e-08 0.000447787)
(0.167462 -8.40751e-08 0.000465219)
(0.166885 -8.3485e-08 0.000482102)
(0.166284 -8.28796e-08 0.000498464)
(0.165662 -8.2358e-08 0.000514331)
(0.165019 -8.19849e-08 0.00052973)
(0.164355 -8.17679e-08 0.000544684)
(0.16367 -8.1707e-08 0.000559217)
(0.162966 -8.17641e-08 0.00057335)
(0.162243 -8.18593e-08 0.000587104)
(0.161502 -8.19583e-08 0.000600496)
(0.160742 -8.20535e-08 0.000613546)
(0.159964 -8.21144e-08 0.000626269)
(0.15917 -8.21829e-08 0.000638683)
(0.158358 -8.23238e-08 0.000650805)
(0.15753 -8.26207e-08 0.000662652)
(0.156686 -8.31271e-08 0.000674241)
(0.155826 -8.38505e-08 0.000685586)
(0.154951 -8.47756e-08 0.000696701)
(0.154061 -8.58911e-08 0.000707596)
(0.153155 -8.7079e-08 0.00071828)
(0.152235 -8.83011e-08 0.000728763)
(0.151301 -8.95156e-08 0.000739055)
(0.150353 -9.06654e-08 0.000749168)
(0.149391 -9.17543e-08 0.000759119)
(0.148416 -9.27708e-08 0.000768931)
(0.147427 -9.37645e-08 0.000778626)
(0.146424 -9.47163e-08 0.000788234)
(0.145409 -9.55843e-08 0.000797784)
(0.14438 -9.62582e-08 0.000807303)
(0.143338 -9.66237e-08 0.000816819)
(0.142283 -9.66428e-08 0.000826358)
(0.141215 -9.63496e-08 0.000835946)
(0.140134 -9.57899e-08 0.000845613)
(0.139039 -9.49828e-08 0.000855388)
(0.137931 -9.38901e-08 0.000865303)
(0.13681 -9.24815e-08 0.000875388)
(0.135674 -9.08291e-08 0.000885669)
(0.134525 -8.92377e-08 0.000896171)
(0.133361 -8.80574e-08 0.000906924)
(0.132182 -8.74711e-08 0.000917959)
(0.130988 -8.73303e-08 0.000929312)
(0.129779 -8.72427e-08 0.000941019)
(0.128553 -8.67249e-08 0.000953108)
(0.127312 -8.55751e-08 0.000965602)
(0.126053 -8.40484e-08 0.000978525)
(0.124777 -8.2556e-08 0.000991899)
(0.123483 -8.1509e-08 0.00100575)
(0.12217 -8.09532e-08 0.00102012)
(0.120838 -8.05953e-08 0.00103502)
(0.119486 -8.00851e-08 0.00105048)
(0.118113 -7.91485e-08 0.00106652)
(0.116719 -7.78693e-08 0.00108316)
(0.115304 -7.64606e-08 0.00110041)
(0.113865 -7.52119e-08 0.00111829)
(0.112403 -7.4123e-08 0.00113684)
(0.110916 -7.31788e-08 0.00115607)
(0.109404 -7.22156e-08 0.001176)
(0.107866 -7.12523e-08 0.00119666)
(0.106301 -7.03348e-08 0.00121807)
(0.104708 -6.96343e-08 0.00124025)
(0.103087 -6.92345e-08 0.00126323)
(0.101436 -6.90518e-08 0.00128704)
(0.099754 -6.89375e-08 0.00131171)
(0.0980405 -6.86939e-08 0.00133726)
(0.0962942 -6.82256e-08 0.00136374)
(0.0945141 -6.75022e-08 0.00139118)
(0.092699 -6.65961e-08 0.00141961)
(0.0908479 -6.5492e-08 0.00144909)
(0.0889594 -6.41062e-08 0.00147966)
(0.0870324 -6.22939e-08 0.00151137)
(0.0850655 -5.98954e-08 0.00154428)
(0.0830573 -5.68648e-08 0.00157846)
(0.0810065 -5.33089e-08 0.00161395)
(0.0789115 -4.94026e-08 0.00165083)
(0.076771 -4.53594e-08 0.00168914)
(0.0745832 -4.14151e-08 0.00172897)
(0.0723465 -3.77601e-08 0.00177035)
(0.0700594 -3.46154e-08 0.00181334)
(0.0677201 -3.22929e-08 0.001858)
(0.065327 -3.09909e-08 0.00190437)
(0.0628783 -3.08614e-08 0.00195246)
(0.0603724 -3.18437e-08 0.00200228)
(0.0578076 -3.36103e-08 0.00205383)
(0.0551825 -3.5689e-08 0.00210706)
(0.0524956 -3.72957e-08 0.00216189)
(0.0497458 -3.76612e-08 0.0022182)
(0.046932 -3.59784e-08 0.00227581)
(0.0440537 -3.1364e-08 0.00233447)
(0.0411107 -2.33916e-08 0.00239384)
(0.0381034 -1.19623e-08 0.00245349)
(0.0350326 2.11682e-09 0.00251283)
(0.0319005 1.71021e-08 0.00257112)
(0.0287098 3.02447e-08 0.00262744)
(0.0254649 3.85825e-08 0.00268062)
(0.0221716 3.95115e-08 0.00272919)
(0.0188378 3.21559e-08 0.00277136)
(0.0154737 1.81529e-08 0.00280486)
(0.0120922 1.99499e-09 0.00282687)
(0.00871056 -1.03709e-08 0.00283382)
(0.0053478 -1.43e-08 0.00282103)
(0.00204151 -9.8379e-09 0.00278223)
(-0.00120284 -3.0001e-09 0.00269752)
(-0.0042989 -3.12193e-09 0.00255699)
(-0.00721667 -1.3371e-08 0.00236223)
(-0.00988454 -2.30109e-08 0.00210488)
(-0.0122203 -1.27314e-08 0.0017677)
(-0.0141236 2.36506e-08 0.00132673)
(-0.0154667 6.2804e-08 0.000756974)
(-0.0160861 7.72855e-08 2.37409e-05)
(-0.0159132 8.48182e-08 -0.000940352)
(-0.0142606 6.79072e-08 -0.00264687)
(-0.0118076 5.74361e-08 -0.00322589)
(-0.00860662 -2.35631e-08 -0.00296097)
(-0.00438516 -1.19129e-07 -0.00322113)
(-0.00201921 -1.35648e-07 -0.00198181)
(-0.00407425 -1.48066e-06 0.0047886)
(-0.00775475 -9.35982e-07 0.00400845)
(-0.011375 -7.45028e-07 0.00272768)
(-0.0124002 -1.1068e-06 0.000846245)
(-0.0111778 -1.42513e-06 -0.00178653)
(-0.0081546 -1.43421e-06 -0.00305281)
(-0.00413327 -1.3637e-06 -0.00385978)
(0.000642972 -1.28987e-06 -0.00437319)
(0.00586929 -1.19083e-06 -0.00466665)
(0.0113764 -1.09256e-06 -0.00482264)
(0.0170666 -1.02253e-06 -0.00489684)
(0.0228516 -9.76066e-07 -0.00491596)
(0.028677 -9.34988e-07 -0.00489704)
(0.0345019 -8.82961e-07 -0.00485113)
(0.0402957 -8.13877e-07 -0.00478556)
(0.0460349 -7.31703e-07 -0.00470529)
(0.0517008 -6.45806e-07 -0.00461374)
(0.0572783 -5.65847e-07 -0.00451337)
(0.0627548 -4.98696e-07 -0.00440594)
(0.0681198 -4.47406e-07 -0.0042928)
(0.0733643 -4.11413e-07 -0.00417499)
(0.0784809 -3.87686e-07 -0.00405337)
(0.083463 -3.71948e-07 -0.00392867)
(0.0883053 -3.60008e-07 -0.00380152)
(0.0930032 -3.48252e-07 -0.0036725)
(0.0975531 -3.34371e-07 -0.00354213)
(0.101952 -3.17239e-07 -0.00341093)
(0.106198 -2.96992e-07 -0.00327936)
(0.110288 -2.74537e-07 -0.00314788)
(0.114224 -2.51248e-07 -0.00301692)
(0.118003 -2.28459e-07 -0.00288689)
(0.121627 -2.07199e-07 -0.00275816)
(0.125096 -1.8798e-07 -0.00263109)
(0.128412 -1.70996e-07 -0.002506)
(0.131577 -1.56084e-07 -0.00238316)
(0.134592 -1.4293e-07 -0.00226282)
(0.137461 -1.31173e-07 -0.00214519)
(0.140186 -1.20368e-07 -0.00203046)
(0.142771 -1.10165e-07 -0.00191877)
(0.145218 -1.00281e-07 -0.00181023)
(0.147532 -9.06149e-08 -0.00170493)
(0.149716 -8.12187e-08 -0.00160294)
(0.151774 -7.21995e-08 -0.00150428)
(0.15371 -6.38693e-08 -0.00140898)
(0.155527 -5.64376e-08 -0.00131702)
(0.15723 -5.01443e-08 -0.0012284)
(0.158822 -4.51569e-08 -0.00114306)
(0.160308 -4.15211e-08 -0.00106097)
(0.161692 -3.92406e-08 -0.000982066)
(0.162976 -3.82012e-08 -0.000906272)
(0.164165 -3.82241e-08 -0.000833511)
(0.165263 -3.90922e-08 -0.000763698)
(0.166272 -4.05085e-08 -0.000696744)
(0.167198 -4.2218e-08 -0.000632557)
(0.168041 -4.40036e-08 -0.000571045)
(0.168807 -4.57054e-08 -0.000512114)
(0.169499 -4.71408e-08 -0.000455669)
(0.170118 -4.82982e-08 -0.000401616)
(0.170669 -4.90749e-08 -0.00034986)
(0.171153 -4.94823e-08 -0.000300307)
(0.171574 -4.94861e-08 -0.000252865)
(0.171935 -4.91625e-08 -0.000207443)
(0.172237 -4.86029e-08 -0.000163953)
(0.172483 -4.79252e-08 -0.000122308)
(0.172676 -4.7278e-08 -8.24274e-05)
(0.172817 -4.6844e-08 -4.42326e-05)
(0.172909 -4.67526e-08 -7.64937e-06)
(0.172953 -4.71447e-08 2.74414e-05)
(0.172952 -4.80928e-08 6.11174e-05)
(0.172908 -4.9688e-08 9.33737e-05)
(0.172821 -5.18886e-08 0.000124252)
(0.172695 -5.46755e-08 0.000153834)
(0.172529 -5.79459e-08 0.000182194)
(0.172327 -6.15627e-08 0.000209397)
(0.172089 -6.53852e-08 0.000235504)
(0.171817 -6.9181e-08 0.000260573)
(0.171512 -7.27979e-08 0.000284661)
(0.171175 -7.60683e-08 0.000307822)
(0.170807 -7.89199e-08 0.00033011)
(0.17041 -8.12042e-08 0.000351577)
(0.169984 -8.28908e-08 0.00037227)
(0.169531 -8.4014e-08 0.000392235)
(0.169052 -8.46155e-08 0.000411514)
(0.168546 -8.47488e-08 0.000430145)
(0.168016 -8.45317e-08 0.000448164)
(0.167462 -8.40749e-08 0.000465603)
(0.166884 -8.34848e-08 0.000482492)
(0.166284 -8.28794e-08 0.000498858)
(0.165662 -8.23578e-08 0.00051473)
(0.165019 -8.19847e-08 0.000530133)
(0.164354 -8.17677e-08 0.000545092)
(0.16367 -8.17068e-08 0.000559628)
(0.162966 -8.17639e-08 0.000573765)
(0.162243 -8.18591e-08 0.000587522)
(0.161501 -8.19581e-08 0.000600918)
(0.160742 -8.20533e-08 0.00061397)
(0.159964 -8.21142e-08 0.000626695)
(0.15917 -8.21827e-08 0.000639112)
(0.158358 -8.23236e-08 0.000651236)
(0.15753 -8.26205e-08 0.000663086)
(0.156686 -8.31269e-08 0.000674678)
(0.155826 -8.38503e-08 0.000686026)
(0.154951 -8.47754e-08 0.000697142)
(0.15406 -8.58909e-08 0.000708038)
(0.153155 -8.70788e-08 0.000718722)
(0.152235 -8.83009e-08 0.000729203)
(0.151301 -8.95154e-08 0.000739491)
(0.150353 -9.06652e-08 0.000749602)
(0.149391 -9.17541e-08 0.000759551)
(0.148416 -9.27706e-08 0.000769361)
(0.147427 -9.37643e-08 0.000779057)
(0.146424 -9.47161e-08 0.000788665)
(0.145409 -9.55841e-08 0.000798213)
(0.14438 -9.6258e-08 0.000807729)
(0.143338 -9.66235e-08 0.00081724)
(0.142283 -9.66425e-08 0.000826774)
(0.141215 -9.63494e-08 0.000836359)
(0.140134 -9.57897e-08 0.000846026)
(0.139039 -9.49826e-08 0.000855804)
(0.137931 -9.38899e-08 0.000865723)
(0.13681 -9.24813e-08 0.000875808)
(0.135674 -9.08289e-08 0.000886083)
(0.134524 -8.92375e-08 0.000896577)
(0.13336 -8.80573e-08 0.000907322)
(0.132182 -8.74709e-08 0.000918356)
(0.130988 -8.73301e-08 0.000929714)
(0.129778 -8.72425e-08 0.000941425)
(0.128553 -8.67247e-08 0.000953513)
(0.127311 -8.5575e-08 0.000966001)
(0.126053 -8.40483e-08 0.000978913)
(0.124777 -8.25558e-08 0.000992279)
(0.123483 -8.15088e-08 0.00100613)
(0.12217 -8.0953e-08 0.0010205)
(0.120838 -8.05951e-08 0.00103541)
(0.119486 -8.00849e-08 0.00105087)
(0.118113 -7.91484e-08 0.0010669)
(0.116719 -7.78691e-08 0.00108353)
(0.115304 -7.64605e-08 0.00110077)
(0.113865 -7.52117e-08 0.00111866)
(0.112403 -7.41228e-08 0.0011372)
(0.110916 -7.31786e-08 0.00115643)
(0.109404 -7.22154e-08 0.00117636)
(0.107866 -7.12522e-08 0.00119702)
(0.106301 -7.03346e-08 0.00121842)
(0.104708 -6.96341e-08 0.0012406)
(0.103087 -6.92343e-08 0.00126358)
(0.101436 -6.90516e-08 0.00128739)
(0.099754 -6.89374e-08 0.00131205)
(0.0980405 -6.86937e-08 0.0013376)
(0.0962942 -6.82254e-08 0.00136408)
(0.0945141 -6.75021e-08 0.00139151)
(0.0926991 -6.65959e-08 0.00141993)
(0.0908479 -6.54918e-08 0.00144941)
(0.0889595 -6.4106e-08 0.00147997)
(0.0870324 -6.22938e-08 0.00151169)
(0.0850655 -5.98952e-08 0.0015446)
(0.0830573 -5.68647e-08 0.00157877)
(0.0810065 -5.33087e-08 0.00161426)
(0.0789116 -4.94025e-08 0.00165114)
(0.076771 -4.53592e-08 0.00168945)
(0.0745832 -4.1415e-08 0.00172927)
(0.0723466 -3.776e-08 0.00177065)
(0.0700595 -3.46153e-08 0.00181365)
(0.0677202 -3.22929e-08 0.0018583)
(0.0653271 -3.09908e-08 0.00190466)
(0.0628784 -3.08613e-08 0.00195274)
(0.0603725 -3.18436e-08 0.00200257)
(0.0578077 -3.36101e-08 0.00205411)
(0.0551826 -3.56889e-08 0.00210733)
(0.0524957 -3.72955e-08 0.00216215)
(0.0497459 -3.7661e-08 0.00221846)
(0.0469321 -3.59782e-08 0.00227606)
(0.0440538 -3.13639e-08 0.00233472)
(0.0411108 -2.33916e-08 0.0023941)
(0.0381035 -1.19623e-08 0.00245374)
(0.0350328 2.11681e-09 0.00251308)
(0.0319006 1.7102e-08 0.00257137)
(0.0287099 3.02445e-08 0.00262768)
(0.0254651 3.85823e-08 0.00268085)
(0.0221718 3.95113e-08 0.00272943)
(0.018838 3.21557e-08 0.00277158)
(0.0154738 1.81528e-08 0.00280507)
(0.0120924 1.99498e-09 0.00282707)
(0.00871069 -1.03709e-08 0.00283401)
(0.00534791 -1.42999e-08 0.00282121)
(0.0020416 -9.83784e-09 0.00278241)
(-0.00120278 -3.00008e-09 0.00269769)
(-0.00429886 -3.12191e-09 0.00255716)
(-0.00721662 -1.33709e-08 0.00236241)
(-0.00988447 -2.30108e-08 0.00210507)
(-0.0122202 -1.27313e-08 0.0017679)
(-0.0141234 2.36504e-08 0.00132693)
(-0.0154664 6.2804e-08 0.000757146)
(-0.0160859 7.72879e-08 2.39568e-05)
(-0.0159132 8.48319e-08 -0.00094009)
(-0.0142605 6.79347e-08 -0.00264687)
(-0.0118076 5.74355e-08 -0.00322587)
(-0.00860589 -2.35551e-08 -0.00296201)
(-0.00438482 -1.19112e-07 -0.00322101)
(-0.00201925 -1.35609e-07 -0.00198149)
(-0.00329207 -1.21883e-06 0.00856757)
(-0.00441802 -6.45982e-07 0.00594247)
(-0.00456582 -4.26824e-07 0.00241386)
(-0.0028401 -3.96248e-07 -0.00108936)
(-0.000430142 -3.88178e-07 -0.00400959)
(0.00264645 -3.52403e-07 -0.0061211)
(0.00632336 -3.2285e-07 -0.00758345)
(0.0104717 -2.98005e-07 -0.0085751)
(0.0149695 -2.77176e-07 -0.0092251)
(0.0197239 -2.62873e-07 -0.00963957)
(0.0246595 -2.54165e-07 -0.00989154)
(0.0297154 -2.46564e-07 -0.0100272)
(0.0348452 -2.36086e-07 -0.0100784)
(0.0400121 -2.21343e-07 -0.0100663)
(0.0451866 -2.03483e-07 -0.0100057)
(0.0503448 -1.84951e-07 -0.00990696)
(0.0554669 -1.68135e-07 -0.00977759)
(0.0605364 -1.54644e-07 -0.00962304)
(0.0655392 -1.45065e-07 -0.00944746)
(0.0704634 -1.39099e-07 -0.00925411)
(0.0752985 -1.35864e-07 -0.0090456)
(0.0800356 -1.34209e-07 -0.00882416)
(0.0846669 -1.33009e-07 -0.0085917)
(0.0891859 -1.31376e-07 -0.00834991)
(0.0935867 -1.28733e-07 -0.00810038)
(0.0978648 -1.24845e-07 -0.00784454)
(0.102016 -1.19784e-07 -0.00758377)
(0.106037 -1.13857e-07 -0.00731934)
(0.109926 -1.07472e-07 -0.00705247)
(0.113681 -1.01053e-07 -0.00678431)
(0.1173 -9.49175e-08 -0.00651593)
(0.120784 -8.92741e-08 -0.00624832)
(0.124132 -8.41847e-08 -0.0059824)
(0.127344 -7.96541e-08 -0.00571901)
(0.130423 -7.56193e-08 -0.0054589)
(0.133368 -7.19729e-08 -0.00520274)
(0.136182 -6.86073e-08 -0.00495111)
(0.138866 -6.54044e-08 -0.00470453)
(0.141424 -6.22606e-08 -0.00446341)
(0.143857 -5.91348e-08 -0.00422813)
(0.146169 -5.60043e-08 -0.00399897)
(0.148362 -5.28948e-08 -0.00377615)
(0.15044 -4.98537e-08 -0.00355984)
(0.152404 -4.69355e-08 -0.00335014)
(0.15426 -4.41933e-08 -0.00314712)
(0.15601 -4.1672e-08 -0.0029508)
(0.157656 -3.94076e-08 -0.00276116)
(0.159204 -3.74326e-08 -0.00257815)
(0.160655 -3.57479e-08 -0.00240168)
(0.162013 -3.43412e-08 -0.00223165)
(0.163281 -3.31657e-08 -0.00206794)
(0.164463 -3.21672e-08 -0.0019104)
(0.165561 -3.12725e-08 -0.00175887)
(0.166578 -3.04283e-08 -0.00161319)
(0.167518 -2.95945e-08 -0.0014732)
(0.168383 -2.87398e-08 -0.00133871)
(0.169176 -2.7847e-08 -0.00120954)
(0.169899 -2.68924e-08 -0.00108551)
(0.170556 -2.58511e-08 -0.000966431)
(0.171149 -2.47013e-08 -0.000852118)
(0.171679 -2.34373e-08 -0.000742386)
(0.172151 -2.20743e-08 -0.000637055)
(0.172565 -2.06561e-08 -0.000535946)
(0.172923 -1.92256e-08 -0.000438886)
(0.173229 -1.7834e-08 -0.000345704)
(0.173484 -1.65205e-08 -0.000256232)
(0.17369 -1.53203e-08 -0.000170305)
(0.173848 -1.42647e-08 -8.77589e-05)
(0.173961 -1.33443e-08 -8.43931e-06)
(0.17403 -1.25601e-08 6.77828e-05)
(0.174056 -1.19347e-08 0.000141016)
(0.174042 -1.14512e-08 0.000211388)
(0.173989 -1.10905e-08 0.000279047)
(0.173897 -1.08325e-08 0.000344129)
(0.17377 -1.06355e-08 0.000406763)
(0.173606 -1.04566e-08 0.000467076)
(0.173409 -1.02624e-08 0.000525187)
(0.173179 -1.00035e-08 0.000581212)
(0.172917 -9.65705e-09 0.000635262)
(0.172624 -9.20113e-09 0.000687443)
(0.172301 -8.631e-09 0.000737855)
(0.171949 -7.95331e-09 0.000786595)
(0.17157 -7.17854e-09 0.000833751)
(0.171163 -6.32381e-09 0.000879408)
(0.170729 -5.41103e-09 0.000923644)
(0.17027 -4.46683e-09 0.000966533)
(0.169786 -3.50551e-09 0.00100815)
(0.169278 -2.55179e-09 0.00104855)
(0.168746 -1.6076e-09 0.0010878)
(0.168191 -6.84346e-10 0.00112596)
(0.167614 2.18921e-10 0.00116308)
(0.167015 1.09934e-09 0.00119921)
(0.166395 1.96264e-09 0.00123441)
(0.165753 2.80689e-09 0.0012687)
(0.165092 3.62925e-09 0.00130214)
(0.16441 4.41164e-09 0.00133477)
(0.163709 5.14548e-09 0.00136662)
(0.162989 5.81841e-09 0.00139774)
(0.162251 6.42662e-09 0.00142815)
(0.161494 6.97105e-09 0.00145791)
(0.160719 7.46695e-09 0.00148703)
(0.159927 7.93048e-09 0.00151556)
(0.159117 8.37497e-09 0.00154352)
(0.158291 8.80709e-09 0.00157094)
(0.157448 9.21256e-09 0.00159785)
(0.156588 9.56854e-09 0.00162428)
(0.155713 9.84932e-09 0.00165026)
(0.154822 1.00559e-08 0.00167582)
(0.153915 1.02072e-08 0.00170102)
(0.152992 1.03528e-08 0.0017259)
(0.152055 1.0546e-08 0.00175052)
(0.151102 1.0823e-08 0.00177493)
(0.150134 1.11933e-08 0.00179918)
(0.149151 1.16263e-08 0.00182333)
(0.148153 1.20547e-08 0.00184745)
(0.147139 1.23992e-08 0.00187157)
(0.146111 1.262e-08 0.00189578)
(0.145068 1.27609e-08 0.00192013)
(0.14401 1.29551e-08 0.00194469)
(0.142936 1.33624e-08 0.00196954)
(0.141847 1.40468e-08 0.00199474)
(0.140742 1.48815e-08 0.00202034)
(0.139622 1.56097e-08 0.00204642)
(0.138485 1.59837e-08 0.00207302)
(0.137331 1.59571e-08 0.00210023)
(0.136161 1.57286e-08 0.00212812)
(0.134974 1.56144e-08 0.00215675)
(0.133769 1.58038e-08 0.00218618)
(0.132546 1.62483e-08 0.00221646)
(0.131304 1.66795e-08 0.00224765)
(0.130043 1.68432e-08 0.00227981)
(0.128763 1.66957e-08 0.00231299)
(0.127463 1.64273e-08 0.00234725)
(0.126141 1.63016e-08 0.00238264)
(0.124799 1.64444e-08 0.0024192)
(0.123434 1.67461e-08 0.00245697)
(0.122047 1.69869e-08 0.002496)
(0.120637 1.69841e-08 0.00253631)
(0.119202 1.67442e-08 0.00257797)
(0.117743 1.64434e-08 0.00262101)
(0.116258 1.6254e-08 0.00266546)
(0.114747 1.62369e-08 0.00271138)
(0.113209 1.62873e-08 0.00275881)
(0.111642 1.62436e-08 0.00280777)
(0.110048 1.60132e-08 0.00285833)
(0.108423 1.56068e-08 0.00291052)
(0.106768 1.51328e-08 0.00296439)
(0.105082 1.47026e-08 0.00302)
(0.103364 1.43552e-08 0.0030774)
(0.101612 1.40573e-08 0.00313665)
(0.0998261 1.37679e-08 0.00319781)
(0.0980049 1.34681e-08 0.00326096)
(0.0961476 1.3194e-08 0.00332616)
(0.0942529 1.29988e-08 0.00339348)
(0.0923197 1.29198e-08 0.00346302)
(0.0903471 1.2956e-08 0.00353484)
(0.0883337 1.3074e-08 0.00360905)
(0.0862784 1.32235e-08 0.00368573)
(0.0841801 1.33729e-08 0.00376495)
(0.0820374 1.34995e-08 0.00384679)
(0.0798491 1.35899e-08 0.00393133)
(0.0776141 1.35994e-08 0.00401863)
(0.0753309 1.34652e-08 0.00410872)
(0.0729984 1.31216e-08 0.00420164)
(0.0706154 1.25372e-08 0.00429737)
(0.0681806 1.17282e-08 0.00439587)
(0.0656931 1.07592e-08 0.00449705)
(0.0631519 9.72939e-09 0.00460076)
(0.0605561 8.74332e-09 0.00470678)
(0.0579052 7.93047e-09 0.00481481)
(0.0551987 7.40698e-09 0.00492443)
(0.0524365 7.29466e-09 0.00503509)
(0.0496191 7.70394e-09 0.0051461)
(0.0467472 8.68621e-09 0.00525657)
(0.0438221 1.01349e-08 0.00536538)
(0.0408461 1.17815e-08 0.00547116)
(0.0378219 1.31597e-08 0.00557221)
(0.0347535 1.36851e-08 0.00566644)
(0.0316461 1.28532e-08 0.00575132)
(0.0285063 1.04128e-08 0.00582378)
(0.0253423 6.60937e-09 0.00588008)
(0.0221644 2.32051e-09 0.0059157)
(0.0189853 -1.12314e-09 0.00592508)
(0.0158207 -2.40618e-09 0.00590143)
(0.012689 -1.17073e-09 0.0058359)
(0.00961427 1.41058e-09 0.00571839)
(0.00662154 2.67078e-09 0.00553117)
(0.00374459 4.54966e-10 0.00525809)
(0.00101967 -4.02235e-09 0.00488576)
(-0.00151002 -5.34537e-09 0.00439137)
(-0.00378577 1.44866e-09 0.00374895)
(-0.00575257 1.15873e-08 0.00292543)
(-0.00734496 1.17548e-08 0.00188528)
(-0.00848984 7.69416e-09 0.000597823)
(-0.00913 2.01302e-08 -0.000952698)
(-0.00926519 3.14545e-08 -0.0026635)
(-0.00888192 2.684e-08 -0.00418357)
(-0.00758191 4.60102e-08 -0.00542353)
(-0.00512804 -3.20494e-09 -0.00582613)
(-0.00267386 -4.80922e-08 -0.00540601)
(-0.00329258 -1.21855e-06 0.0085636)
(-0.00441811 -6.45327e-07 0.00593866)
(-0.00456523 -4.26666e-07 0.00241069)
(-0.0028393 -3.96031e-07 -0.00109241)
(-0.000429599 -3.88058e-07 -0.00401245)
(0.00264696 -3.52354e-07 -0.0061236)
(0.00632384 -3.22823e-07 -0.00758564)
(0.0104721 -2.97984e-07 -0.00857704)
(0.0149698 -2.77159e-07 -0.00922685)
(0.0197242 -2.62858e-07 -0.00964118)
(0.0246596 -2.54152e-07 -0.00989306)
(0.0297154 -2.46551e-07 -0.0100287)
(0.0348452 -2.36075e-07 -0.0100797)
(0.040012 -2.21334e-07 -0.0100676)
(0.0451865 -2.03474e-07 -0.0100069)
(0.0503447 -1.84943e-07 -0.0099081)
(0.0554668 -1.68129e-07 -0.00977865)
(0.0605363 -1.54639e-07 -0.00962404)
(0.0655391 -1.4506e-07 -0.0094484)
(0.0704632 -1.39094e-07 -0.00925499)
(0.0752983 -1.3586e-07 -0.00904643)
(0.0800354 -1.34205e-07 -0.00882494)
(0.0846667 -1.33005e-07 -0.00859243)
(0.0891857 -1.31373e-07 -0.0083506)
(0.0935865 -1.2873e-07 -0.00810102)
(0.0978646 -1.24842e-07 -0.00784515)
(0.102016 -1.19781e-07 -0.00758433)
(0.106037 -1.13854e-07 -0.00731987)
(0.109926 -1.0747e-07 -0.00705296)
(0.113681 -1.01051e-07 -0.00678477)
(0.1173 -9.49156e-08 -0.00651635)
(0.120784 -8.92724e-08 -0.00624871)
(0.124132 -8.41832e-08 -0.00598276)
(0.127344 -7.96527e-08 -0.00571935)
(0.130422 -7.5618e-08 -0.00545921)
(0.133367 -7.19717e-08 -0.00520303)
(0.136181 -6.86062e-08 -0.00495138)
(0.138866 -6.54034e-08 -0.00470477)
(0.141424 -6.22597e-08 -0.00446364)
(0.143857 -5.9134e-08 -0.00422834)
(0.146169 -5.60036e-08 -0.00399916)
(0.148362 -5.28941e-08 -0.00377632)
(0.150439 -4.98531e-08 -0.00355999)
(0.152404 -4.69349e-08 -0.00335028)
(0.15426 -4.41928e-08 -0.00314724)
(0.156009 -4.16715e-08 -0.00295091)
(0.157656 -3.94072e-08 -0.00276125)
(0.159203 -3.74322e-08 -0.00257823)
(0.160655 -3.57475e-08 -0.00240175)
(0.162013 -3.43408e-08 -0.00223172)
(0.163281 -3.31653e-08 -0.002068)
(0.164463 -3.21669e-08 -0.00191044)
(0.165561 -3.12722e-08 -0.00175891)
(0.166578 -3.0428e-08 -0.00161323)
(0.167518 -2.95942e-08 -0.00147323)
(0.168383 -2.87395e-08 -0.00133873)
(0.169176 -2.78468e-08 -0.00120956)
(0.169899 -2.68921e-08 -0.00108552)
(0.170556 -2.58509e-08 -0.000966437)
(0.171148 -2.47011e-08 -0.000852118)
(0.171679 -2.34371e-08 -0.000742381)
(0.17215 -2.20741e-08 -0.000637045)
(0.172564 -2.0656e-08 -0.000535932)
(0.172923 -1.92254e-08 -0.000438867)
(0.173229 -1.78339e-08 -0.00034568)
(0.173484 -1.65204e-08 -0.000256203)
(0.173689 -1.53202e-08 -0.000170271)
(0.173848 -1.42646e-08 -8.77201e-05)
(0.173961 -1.33442e-08 -8.39617e-06)
(0.174029 -1.256e-08 6.78294e-05)
(0.174056 -1.19346e-08 0.000141065)
(0.174042 -1.14511e-08 0.000211438)
(0.173989 -1.10904e-08 0.000279098)
(0.173897 -1.08325e-08 0.00034418)
(0.173769 -1.06354e-08 0.000406816)
(0.173606 -1.04565e-08 0.000467129)
(0.173409 -1.02623e-08 0.00052524)
(0.173179 -1.00034e-08 0.000581266)
(0.172917 -9.65699e-09 0.000635318)
(0.172624 -9.20108e-09 0.000687501)
(0.172301 -8.63095e-09 0.000737916)
(0.171949 -7.95326e-09 0.000786658)
(0.171569 -7.1785e-09 0.000833817)
(0.171162 -6.32378e-09 0.000879475)
(0.170729 -5.411e-09 0.000923713)
(0.17027 -4.46681e-09 0.000966604)
(0.169786 -3.50549e-09 0.00100822)
(0.169278 -2.55178e-09 0.00104862)
(0.168746 -1.60759e-09 0.00108787)
(0.168191 -6.84342e-10 0.00112603)
(0.167614 2.1892e-10 0.00116316)
(0.167015 1.09934e-09 0.00119929)
(0.166394 1.96263e-09 0.00123449)
(0.165753 2.80688e-09 0.00126878)
(0.165091 3.62923e-09 0.00130222)
(0.16441 4.41162e-09 0.00133485)
(0.163709 5.14546e-09 0.0013667)
(0.162989 5.81838e-09 0.00139782)
(0.16225 6.42659e-09 0.00142824)
(0.161494 6.97102e-09 0.00145799)
(0.160719 7.46691e-09 0.00148712)
(0.159926 7.93044e-09 0.00151565)
(0.159117 8.37493e-09 0.00154361)
(0.158291 8.80705e-09 0.00157104)
(0.157448 9.21252e-09 0.00159794)
(0.156588 9.56849e-09 0.00162437)
(0.155713 9.84928e-09 0.00165034)
(0.154822 1.00558e-08 0.00167591)
(0.153915 1.02072e-08 0.00170111)
(0.152992 1.03528e-08 0.00172599)
(0.152055 1.0546e-08 0.00175061)
(0.151102 1.0823e-08 0.00177501)
(0.150134 1.11932e-08 0.00179926)
(0.149151 1.16263e-08 0.00182341)
(0.148152 1.20546e-08 0.00184752)
(0.147139 1.23992e-08 0.00187165)
(0.146111 1.262e-08 0.00189585)
(0.145068 1.27608e-08 0.00192021)
(0.14401 1.2955e-08 0.00194478)
(0.142936 1.33624e-08 0.00196963)
(0.141847 1.40467e-08 0.00199483)
(0.140742 1.48815e-08 0.00202043)
(0.139622 1.56096e-08 0.00204649)
(0.138485 1.59837e-08 0.00207309)
(0.137331 1.5957e-08 0.0021003)
(0.136161 1.57286e-08 0.00212819)
(0.134974 1.56144e-08 0.00215683)
(0.133769 1.58038e-08 0.00218626)
(0.132546 1.62483e-08 0.00221654)
(0.131304 1.66794e-08 0.00224772)
(0.130043 1.68431e-08 0.00227987)
(0.128763 1.66956e-08 0.00231306)
(0.127463 1.64272e-08 0.00234732)
(0.126141 1.63016e-08 0.00238272)
(0.124799 1.64443e-08 0.00241928)
(0.123434 1.67461e-08 0.00245704)
(0.122047 1.69869e-08 0.00249606)
(0.120637 1.6984e-08 0.00253637)
(0.119202 1.67442e-08 0.00257803)
(0.117743 1.64434e-08 0.00262107)
(0.116258 1.6254e-08 0.00266554)
(0.114747 1.62368e-08 0.00271146)
(0.113208 1.62873e-08 0.00275887)
(0.111642 1.62435e-08 0.00280783)
(0.110048 1.60132e-08 0.00285838)
(0.108423 1.56067e-08 0.00291057)
(0.106768 1.51327e-08 0.00296445)
(0.105082 1.47025e-08 0.00302006)
(0.103364 1.43551e-08 0.00307746)
(0.101612 1.40572e-08 0.00313671)
(0.099826 1.37679e-08 0.00319787)
(0.0980049 1.3468e-08 0.00326101)
(0.0961475 1.31939e-08 0.00332621)
(0.0942528 1.29988e-08 0.00339353)
(0.0923197 1.29198e-08 0.00346307)
(0.0903471 1.2956e-08 0.00353489)
(0.0883337 1.3074e-08 0.0036091)
(0.0862784 1.32234e-08 0.00368577)
(0.0841801 1.33729e-08 0.003765)
(0.0820374 1.34994e-08 0.00384684)
(0.0798492 1.35899e-08 0.00393139)
(0.0776141 1.35994e-08 0.00401868)
(0.0753309 1.34652e-08 0.00410877)
(0.0729984 1.31216e-08 0.00420169)
(0.0706154 1.25372e-08 0.00429742)
(0.0681807 1.17281e-08 0.00439592)
(0.0656932 1.07592e-08 0.0044971)
(0.063152 9.72935e-09 0.0046008)
(0.0605562 8.74328e-09 0.00470682)
(0.0579052 7.93044e-09 0.00481485)
(0.0551987 7.40694e-09 0.00492446)
(0.0524366 7.29463e-09 0.00503512)
(0.0496191 7.70391e-09 0.00514614)
(0.0467472 8.68617e-09 0.00525661)
(0.0438222 1.01348e-08 0.00536542)
(0.0408461 1.17814e-08 0.0054712)
(0.0378219 1.31596e-08 0.00557224)
(0.0347536 1.3685e-08 0.00566647)
(0.0316462 1.28532e-08 0.00575135)
(0.0285063 1.04127e-08 0.00582381)
(0.0253423 6.60933e-09 0.00588012)
(0.0221644 2.3205e-09 0.00591573)
(0.0189854 -1.12313e-09 0.00592512)
(0.0158207 -2.40616e-09 0.00590146)
(0.012689 -1.17072e-09 0.00583594)
(0.00961429 1.41057e-09 0.00571843)
(0.00662156 2.67076e-09 0.00553121)
(0.00374462 4.54962e-10 0.00525813)
(0.00101969 -4.02232e-09 0.00488581)
(-0.00150998 -5.34532e-09 0.00439142)
(-0.00378572 1.44864e-09 0.003749)
(-0.0057525 1.15873e-08 0.00292547)
(-0.00734487 1.17548e-08 0.00188531)
(-0.00848973 7.69465e-09 0.000597845)
(-0.00912994 2.01351e-08 -0.00095268)
(-0.00926518 3.14637e-08 -0.00266342)
(-0.00888176 2.68267e-08 -0.00418367)
(-0.00758209 4.59876e-08 -0.0054236)
(-0.00512843 -3.20642e-09 -0.00582592)
(-0.00267354 -4.80936e-08 -0.00540601)
(-0.00169443 -1.9303e-06 0.0122347)
(-0.000945087 -7.59586e-07 0.00587049)
(0.000881861 -3.76572e-07 0.000449533)
(0.00345566 -2.85575e-07 -0.00393958)
(0.00634312 -2.42282e-07 -0.00737286)
(0.00952667 -2.05398e-07 -0.00993467)
(0.0130202 -1.76017e-07 -0.0118029)
(0.0168006 -1.55763e-07 -0.0131404)
(0.0208296 -1.43743e-07 -0.0140769)
(0.0250651 -1.37066e-07 -0.014716)
(0.0294625 -1.32085e-07 -0.0151346)
(0.0339809 -1.26026e-07 -0.0153877)
(0.0385847 -1.17875e-07 -0.0155148)
(0.043243 -1.08079e-07 -0.0155441)
(0.0479298 -9.78027e-08 -0.015496)
(0.0526226 -8.82948e-08 -0.0153855)
(0.0573023 -8.04326e-08 -0.0152237)
(0.0619522 -7.4634e-08 -0.0150192)
(0.0665579 -7.08637e-08 -0.0147784)
(0.0711071 -6.87706e-08 -0.0145066)
(0.0755886 -6.78035e-08 -0.0142083)
(0.079993 -6.73875e-08 -0.013887)