0 	0 	0 	0
0 	0 	0 	0
0.142857 	0 	0 	0
0.285714 	0 	0 	0
0.428571 	0 	0 	0
0.571429 	0 	0 	0
0.714286 	-1.03775e-31 	8.49802e-30 	1.41471e-30
0.857143 	0 	0 	0
1 	0 	0 	0
