0 	0 	0 	0
0 	0 	0 	0
0.142857 	0 	0 	0
0.285714 	0 	0 	0
0.428571 	0 	0 	0
0.571429 	0 	0 	0
0.714286 	-1.14044e-31 	-4.51863e-30 	-4.36745e-31
0.857143 	0 	0 	0
1 	1.02153e-31 	8.78439e-30 	7.8704e-31
