0 	0 	0 	0
0.142857 	0 	0 	0
0.285714 	0 	0 	0
0.428571 	-3.56345e-32 	-7.64585e-31 	-4.83419e-32
0.571429 	0 	0 	0
0.714286 	0 	0 	0
0.857143 	0 	0 	0
1 	0 	0 	0
