0 	294.718
0.142857 	307.75
0.285714 	307.75
0.428571 	307.75
0.571429 	307.75
0.714286 	307.75
0.857143 	307.75
