0 	0 	0 	0
0.142857 	5.95405e-18 	1.17418e-16 	-4.42421e-18
0.285714 	6.59704e-18 	1.06589e-16 	-7.67701e-19
0.428571 	4.9186e-18 	9.9942e-17 	1.33156e-18
0.571429 	2.64445e-18 	9.8943e-17 	1.6846e-18
0.714286 	6.32351e-19 	9.88915e-17 	1.41858e-18
0.857143 	-7.79375e-19 	9.87287e-17 	9.62763e-19
