/*--------------------------------*- C++ -*----------------------------------*\
  =========                 |
  \\      /  F ield         | OpenFOAM: The Open Source CFD Toolbox
   \\    /   O peration     | Website:  https://openfoam.org
    \\  /    A nd           | Version:  8
     \\/     M anipulation  |
\*---------------------------------------------------------------------------*/
FoamFile
{
    version     2.0;
    format      ascii;
    class       volScalarField;
    location    "3200";
    object      alphat;
}
// * * * * * * * * * * * * * * * * * * * * * * * * * * * * * * * * * * * * * //

dimensions      [1 -1 -1 0 0 0 0];

internalField   nonuniform List<scalar> 
48000
(
4.08975e-05
8.51096e-05
0.000104582
0.000119417
0.000131879
0.00014235
0.000151421
0.000159492
0.000166972
0.000173815
0.000180175
0.000186122
0.000191711
0.000196983
0.000201973
0.000206706
0.000211205
0.000215486
0.000219564
0.000223451
0.000227158
0.000230691
0.000234061
0.000237272
0.000240331
0.000243244
0.000246016
0.000248651
0.000251153
0.000253528
0.000255778
0.000257909
0.000259923
0.000261824
0.000263616
0.000265303
0.000266887
0.000268373
0.000269764
0.000271063
0.000272273
0.000273397
0.000274438
0.0002754
0.000276299
0.000277129
0.000277887
0.000278576
0.0002792
0.000279761
0.000280261
0.000280704
0.000281092
0.000281428
0.000281714
0.000281952
0.000282144
0.000282294
0.000282401
0.000282469
0.0002825
0.000282494
0.000282454
0.000282382
0.000282278
0.000282145
0.000281983
0.000281795
0.00028158
0.000281341
0.000281078
0.000280792
0.000280485
0.000280158
0.00027981
0.000279443
0.000279058
0.000278656
0.000278236
0.0002778
0.000277348
0.000276881
0.000276399
0.000275902
0.000275392
0.000274868
0.00027433
0.00027378
0.000273216
0.00027264
0.000272052
0.000271452
0.000270839
0.000270215
0.000269579
0.000268931
0.000268272
0.0002676
0.000266918
0.000266223
0.000265517
0.000264799
0.00026407
0.000263328
0.000262575
0.000261809
0.000261032
0.000260242
0.000259439
0.000258624
0.000257796
0.000256955
0.0002561
0.000255232
0.000254351
0.000253455
0.000252545
0.000251621
0.000250682
0.000249728
0.000248759
0.000247774
0.000246773
0.000245756
0.000244723
0.000243673
0.000242606
0.000241521
0.000240419
0.000239298
0.000238159
0.000237002
0.000235825
0.000234629
0.000233414
0.000232178
0.000230922
0.000229645
0.000228347
0.000227028
0.000225687
0.000224324
0.000222938
0.00022153
0.000220099
0.000218644
0.000217166
0.000215663
0.000214137
0.000212585
0.000211009
0.000209407
0.000207779
0.000206125
0.000204445
0.000202738
0.000201003
0.000199241
0.000197451
0.000195632
0.000193784
0.000191907
0.000189999
0.000188061
0.000186091
0.000184089
0.000182053
0.000179984
0.00017788
0.00017574
0.000173563
0.000171346
0.00016909
0.000166791
0.000164448
0.000162059
0.00015962
0.000157129
0.000154582
0.000151976
0.000149307
0.000146575
0.000143789
0.000140926
0.000137964
0.000134893
0.000131697
0.000128356
0.000124847
0.000121139
0.00011719
0.000112946
0.00010838
0.00010337
9.77475e-05
9.12621e-05
8.34578e-05
7.32995e-05
5.64223e-05
5.99741e-05
4.09022e-05
8.51128e-05
0.000104582
0.000119417
0.00013188
0.000142351
0.000151421
0.000159492
0.000166973
0.000173815
0.000180175
0.000186122
0.000191711
0.000196983
0.000201973
0.000206707
0.000211205
0.000215486
0.000219565
0.000223452
0.000227158
0.000230692
0.000234061
0.000237272
0.000240332
0.000243245
0.000246016
0.000248651
0.000251154
0.000253528
0.000255779
0.000257909
0.000259923
0.000261824
0.000263616
0.000265303
0.000266887
0.000268373
0.000269764
0.000271063
0.000272273
0.000273397
0.000274438
0.0002754
0.0002763
0.000277129
0.000277887
0.000278576
0.0002792
0.000279761
0.000280261
0.000280704
0.000281092
0.000281428
0.000281714
0.000281952
0.000282144
0.000282294
0.000282401
0.000282469
0.0002825
0.000282494
0.000282454
0.000282382
0.000282278
0.000282145
0.000281983
0.000281795
0.00028158
0.000281341
0.000281078
0.000280792
0.000280485
0.000280158
0.00027981
0.000279443
0.000279058
0.000278656
0.000278236
0.0002778
0.000277348
0.000276881
0.000276399
0.000275902
0.000275392
0.000274868
0.00027433
0.00027378
0.000273216
0.00027264
0.000272052
0.000271452
0.000270839
0.000270215
0.000269579
0.000268931
0.000268272
0.0002676
0.000266918
0.000266223
0.000265517
0.000264799
0.00026407
0.000263328
0.000262575
0.000261809
0.000261032
0.000260242
0.000259439
0.000258624
0.000257796
0.000256954
0.0002561
0.000255232
0.000254351
0.000253455
0.000252545
0.000251621
0.000250682
0.000249728
0.000248759
0.000247774
0.000246773
0.000245756
0.000244723
0.000243673
0.000242606
0.000241521
0.000240419
0.000239298
0.000238159
0.000237002
0.000235825
0.000234629
0.000233414
0.000232178
0.000230922
0.000229645
0.000228347
0.000227028
0.000225687
0.000224324
0.000222938
0.00022153
0.000220099
0.000218644
0.000217166
0.000215663
0.000214137
0.000212585
0.000211009
0.000209407
0.000207779
0.000206125
0.000204445
0.000202738
0.000201003
0.000199241
0.000197451
0.000195632
0.000193784
0.000191907
0.000189999
0.000188061
0.000186091
0.000184089
0.000182053
0.000179984
0.00017788
0.00017574
0.000173563
0.000171346
0.00016909
0.000166791
0.000164448
0.000162059
0.00015962
0.000157129
0.000154582
0.000151976
0.000149307
0.000146575
0.000143789
0.000140926
0.000137964
0.000134893
0.000131697
0.000128356
0.000124847
0.000121139
0.00011719
0.000112946
0.00010838
0.00010337
9.77476e-05
9.12623e-05
8.34584e-05
7.33002e-05
5.64158e-05
5.99722e-05
7.33958e-05
0.000543188
0.000859944
0.001082
0.00124732
0.00138272
0.00149883
0.00160089
0.00169162
0.0017739
0.00184918
0.00191859
0.00198299
0.00204304
0.00209925
0.00215203
0.00220171
0.00224859
0.00229288
0.00233478
0.00237448
0.00241211
0.0024478
0.00248167
0.00251381
0.00254432
0.00257328
0.00260077
0.00262685
0.00265158
0.00267502
0.00269723
0.00271826
0.00273816
0.00275696
0.00277472
0.00279147
0.00280725
0.00282209
0.00283604
0.00284912
0.00286137
0.00287278
0.00288335
0.00289289
0.00290167
0.00290976
0.00291721
0.00292407
0.00293037
0.00293612
0.00294135
0.00294608
0.00295033
0.00295413
0.00295748
0.00296041
0.00296294
0.00296507
0.00296683
0.00296823
0.00296928
0.00297
0.00297041
0.0029705
0.0029703
0.00296982
0.00296906
0.00296804
0.00296677
0.00296525
0.0029635
0.00296152
0.00295932
0.00295691
0.00295429
0.00295147
0.00294846
0.00294527
0.00294189
0.00293833
0.0029346
0.0029307
0.00292664
0.00292241
0.00291803
0.00291349
0.0029088
0.00290395
0.00289896
0.00289382
0.00288854
0.00288311
0.00287754
0.00287183
0.00286597
0.00285998
0.00285384
0.00284756
0.00284115
0.00283458
0.00282788
0.00282104
0.00281405
0.00280692
0.00279964
0.00279221
0.00278463
0.00277691
0.00276903
0.002761
0.00275281
0.00274447
0.00273597
0.0027273
0.00271847
0.00270947
0.0027003
0.00269096
0.00268144
0.00267175
0.00266187
0.00265181
0.00264157
0.00263113
0.0026205
0.00260968
0.00259865
0.00258743
0.00257599
0.00256435
0.0025525
0.00254043
0.00252814
0.00251563
0.00250289
0.00248992
0.00247672
0.00246328
0.00244961
0.00243569
0.00242152
0.00240711
0.00239244
0.00237751
0.00236233
0.00234688
0.00233116
0.00231517
0.0022989
0.00228236
0.00226553
0.00224841
0.00223101
0.0022133
0.0021953
0.00217699
0.00215837
0.00213943
0.00212017
0.00210058
0.00208066
0.00206039
0.00203977
0.00201879
0.00199744
0.00197571
0.00195358
0.00193104
0.00190809
0.00188469
0.00186083
0.0018365
0.00181165
0.00178628
0.00176034
0.00173379
0.00170659
0.00167869
0.00165002
0.00162047
0.00158992
0.00155819
0.00152523
0.00149099
0.00145533
0.00141804
0.00137887
0.00133748
0.00129339
0.00124592
0.00119396
0.00113539
0.00106915
0.000992531
0.000900846
0.000785548
0.000629179
0.000391922
5.00942e-05
7.33993e-05
0.0005432
0.000859975
0.00108202
0.00124734
0.00138274
0.00149885
0.00160091
0.00169164
0.00177392
0.0018492
0.00191861
0.00198301
0.00204305
0.00209926
0.00215204
0.00220173
0.0022486
0.00229289
0.0023348
0.00237449
0.00241212
0.00244781
0.00248168
0.00251382
0.00254433
0.0025733
0.00260078
0.00262686
0.00265159
0.00267503
0.00269724
0.00271827
0.00273817
0.00275697
0.00277473
0.00279148
0.00280726
0.0028221
0.00283605
0.00284913
0.00286137
0.00287279
0.00288335
0.0028929
0.00290168
0.00290977
0.00291722
0.00292408
0.00293038
0.00293612
0.00294135
0.00294609
0.00295034
0.00295413
0.00295749
0.00296042
0.00296294
0.00296508
0.00296684
0.00296824
0.00296929
0.00297001
0.00297041
0.00297051
0.00297031
0.00296982
0.00296907
0.00296805
0.00296678
0.00296526
0.00296351
0.00296153
0.00295933
0.00295691
0.0029543
0.00295148
0.00294847
0.00294527
0.00294189
0.00293834
0.00293461
0.00293071
0.00292664
0.00292242
0.00291804
0.0029135
0.0029088
0.00290396
0.00289897
0.00289383
0.00288855
0.00288312
0.00287755
0.00287183
0.00286598
0.00285998
0.00285385
0.00284757
0.00284115
0.00283459
0.00282789
0.00282104
0.00281405
0.00280692
0.00279964
0.00279222
0.00278464
0.00277692
0.00276904
0.00276101
0.00275282
0.00274448
0.00273597
0.0027273
0.00271847
0.00270947
0.00270031
0.00269096
0.00268145
0.00267175
0.00266188
0.00265182
0.00264157
0.00263114
0.00262051
0.00260968
0.00259866
0.00258743
0.002576
0.00256436
0.0025525
0.00254043
0.00252814
0.00251563
0.00250289
0.00248993
0.00247673
0.00246329
0.00244961
0.00243569
0.00242153
0.00240711
0.00239244
0.00237752
0.00236233
0.00234688
0.00233116
0.00231517
0.00229891
0.00228236
0.00226553
0.00224842
0.00223101
0.00221331
0.00219531
0.002177
0.00215838
0.00213944
0.00212018
0.00210059
0.00208066
0.0020604
0.00203978
0.00201879
0.00199744
0.00197571
0.00195358
0.00193105
0.00190809
0.00188469
0.00186084
0.0018365
0.00181166
0.00178628
0.00176034
0.00173379
0.0017066
0.0016787
0.00165002
0.00162047
0.00158993
0.0015582
0.00152524
0.001491
0.00145533
0.00141805
0.00137888
0.00133749
0.0012934
0.00124593
0.00119397
0.00113539
0.00106916
0.000992534
0.00090085
0.000785556
0.000629191
0.000391932
5.01141e-05
9.00212e-05
0.000822004
0.00146149
0.00193978
0.00231639
0.00262871
0.0028969
0.00313257
0.00334281
0.00353272
0.00370582
0.00386469
0.00401132
0.00414727
0.00427377
0.00439184
0.00450232
0.00460592
0.00470325
0.00479484
0.00488113
0.00496254
0.00503941
0.00511207
0.00518079
0.00524582
0.0053074
0.00536573
0.005421
0.00547337
0.00552302
0.00557007
0.00561467
0.00565693
0.00569696
0.00573487
0.00577076
0.00580471
0.00583681
0.00586714
0.00589575
0.0059227
0.00594803
0.00597174
0.00599379
0.00601434
0.00603354
0.00605146
0.00606818
0.00608378
0.00609828
0.00611175
0.00612423
0.00613575
0.00614636
0.00615608
0.00616496
0.00617302
0.00618029
0.0061868
0.00619258
0.00619766
0.00620206
0.0062058
0.0062089
0.0062114
0.0062133
0.00621464
0.00621542
0.00621566
0.00621539
0.00621461
0.00621335
0.00621161
0.00620942
0.00620677
0.00620369
0.00620019
0.00619627
0.00619195
0.00618723
0.00618212
0.00617664
0.00617078
0.00616456
0.00615797
0.00615103
0.00614374
0.0061361
0.00612812
0.0061198
0.00611115
0.00610216
0.00609284
0.00608319
0.0060732
0.00606289
0.00605226
0.00604129
0.00602999
0.00601836
0.0060064
0.00599411
0.00598149
0.00596852
0.00595522
0.00594158
0.00592759
0.00591325
0.00589856
0.00588352
0.00586811
0.00585235
0.00583621
0.0058197
0.00580281
0.00578554
0.00576787
0.00574982
0.00573136
0.0057125
0.00569323
0.00567353
0.00565341
0.00563286
0.00561188
0.00559044
0.00556856
0.00554622
0.00552341
0.00550012
0.00547636
0.00545211
0.00542736
0.00540211
0.00537635
0.00535007
0.00532326
0.00529592
0.00526803
0.00523959
0.00521059
0.00518102
0.00515088
0.00512014
0.00508881
0.00505688
0.00502433
0.00499115
0.00495734
0.00492288
0.00488776
0.00485197
0.0048155
0.00477833
0.00474045
0.00470185
0.00466251
0.00462241
0.00458153
0.00453986
0.00449738
0.00445405
0.00440986
0.00436479
0.00431879
0.00427183
0.00422389
0.00417492
0.00412488
0.00407371
0.00402135
0.00396776
0.00391285
0.00385654
0.00379874
0.00373933
0.0036782
0.00361518
0.0035501
0.00348272
0.00341277
0.00333993
0.00326393
0.00318442
0.0031009
0.00301275
0.00291921
0.00281924
0.00271148
0.00259406
0.00246431
0.00231841
0.0021519
0.00195825
0.001727
0.00144153
0.00107492
0.000588494
6.45564e-05
9.00212e-05
0.000822029
0.00146153
0.00193982
0.00231643
0.00262875
0.00289694
0.00313261
0.00334286
0.00353276
0.00370586
0.00386473
0.00401136
0.0041473
0.0042738
0.00439187
0.00450235
0.00460595
0.00470328
0.00479486
0.00488116
0.00496256
0.00503944
0.00511209
0.00518081
0.00524584
0.00530742
0.00536575
0.00542101
0.00547339
0.00552303
0.00557009
0.00561468
0.00565694
0.00569697
0.00573488
0.00577077
0.00580472
0.00583682
0.00586715
0.00589576
0.00592271
0.00594804
0.00597175
0.00599379
0.00601435
0.00603354
0.00605146
0.00606819
0.00608378
0.00609829
0.00611176
0.00612424
0.00613576
0.00614637
0.00615609
0.00616496
0.00617302
0.00618029
0.0061868
0.00619259
0.00619766
0.00620206
0.0062058
0.00620891
0.0062114
0.00621331
0.00621464
0.00621542
0.00621567
0.00621539
0.00621462
0.00621335
0.00621162
0.00620942
0.00620678
0.0062037
0.00620019
0.00619627
0.00619195
0.00618723
0.00618213
0.00617664
0.00617078
0.00616456
0.00615797
0.00615103
0.00614374
0.0061361
0.00612812
0.0061198
0.00611115
0.00610216
0.00609284
0.00608319
0.00607321
0.0060629
0.00605226
0.00604129
0.00602999
0.00601836
0.00600641
0.00599411
0.00598149
0.00596853
0.00595522
0.00594158
0.00592759
0.00591325
0.00589856
0.00588352
0.00586811
0.00585235
0.00583621
0.0058197
0.00580281
0.00578554
0.00576788
0.00574982
0.00573136
0.0057125
0.00569323
0.00567353
0.00565341
0.00563287
0.00561188
0.00559044
0.00556856
0.00554622
0.00552341
0.00550012
0.00547636
0.00545211
0.00542736
0.00540211
0.00537635
0.00535007
0.00532326
0.00529592
0.00526803
0.00523959
0.00521059
0.00518102
0.00515088
0.00512014
0.00508881
0.00505688
0.00502433
0.00499115
0.00495734
0.00492288
0.00488776
0.00485197
0.0048155
0.00477833
0.00474045
0.00470185
0.00466251
0.00462241
0.00458153
0.00453986
0.00449738
0.00445405
0.00440986
0.00436479
0.00431879
0.00427183
0.00422389
0.00417492
0.00412488
0.00407371
0.00402135
0.00396776
0.00391285
0.00385654
0.00379874
0.00373933
0.0036782
0.00361518
0.0035501
0.00348272
0.00341277
0.00333993
0.00326393
0.00318442
0.0031009
0.00301275
0.00291921
0.00281924
0.00271148
0.00259406
0.00246431
0.00231841
0.0021519
0.00195825
0.001727
0.00144154
0.00107493
0.000588485
6.45557e-05
0.000102034
0.000991518
0.00186443
0.0025569
0.00312218
0.00359925
0.00401248
0.00437739
0.00470423
0.00500015
0.0052703
0.0055185
0.00574771
0.00596025
0.00615798
0.00634246
0.00651497
0.0066766
0.00682831
0.00697091
0.00710513
0.0072316
0.00735091
0.00746356
0.00757002
0.00767069
0.00776597
0.00785619
0.00794166
0.00802268
0.0080995
0.00817236
0.00824148
0.00830707
0.00836931
0.00842838
0.00848442
0.00853758
0.008588
0.00863579
0.00868107
0.00872392
0.00876443
0.00880264
0.00883859
0.00887244
0.00890432
0.00893434
0.00896259
0.00898917
0.00901416
0.00903762
0.00905962
0.00908021
0.00909946
0.00911741
0.0091341
0.00914959
0.00916393
0.00917714
0.00918927
0.00920035
0.00921043
0.00921953
0.00922768
0.00923493
0.00924128
0.00924678
0.00925145
0.00925531
0.00925838
0.00926069
0.00926226
0.00926311
0.00926325
0.0092627
0.00926149
0.00925962
0.0092571
0.00925396
0.00925021
0.00924584
0.00924089
0.00923535
0.00922923
0.00922254
0.0092153
0.00920749
0.00919914
0.00919025
0.00918082
0.00917085
0.00916035
0.00914932
0.00913776
0.00912567
0.00911306
0.00909992
0.00908625
0.00907206
0.00905734
0.00904208
0.0090263
0.00900998
0.00899311
0.00897571
0.00895776
0.00893925
0.00892019
0.00890057
0.00888038
0.00885961
0.00883826
0.00881633
0.0087938
0.00877067
0.00874692
0.00872256
0.00869757
0.00867195
0.00864568
0.00861875
0.00859116
0.0085629
0.00853395
0.00850431
0.00847396
0.0084429
0.00841111
0.00837858
0.0083453
0.00831125
0.00827644
0.00824083
0.00820443
0.00816721
0.00812917
0.00809029
0.00805056
0.00800997
0.00796849
0.00792611
0.00788283
0.00783862
0.00779347
0.00774736
0.00770028
0.0076522
0.00760311
0.00755299
0.00750182
0.00744957
0.00739624
0.00734178
0.00728618
0.00722942
0.00717145
0.00711226
0.00705182
0.00699007
0.006927
0.00686257
0.00679671
0.0067294
0.00666058
0.00659019
0.00651817
0.00644445
0.00636897
0.00629162
0.00621233
0.00613099
0.00604747
0.00596165
0.00587338
0.00578248
0.00568875
0.00559196
0.00549183
0.00538806
0.00528025
0.00516796
0.00505068
0.00492782
0.00479869
0.00466239
0.00451782
0.00436359
0.0041979
0.00401843
0.00382219
0.00360514
0.00336191
0.00308539
0.00276643
0.00239159
0.00194191
0.00139168
0.000717784
7.36498e-05
0.000102034
0.000991537
0.00186447
0.00255695
0.00312224
0.0035993
0.00401254
0.00437745
0.00470429
0.00500021
0.00527035
0.00551856
0.00574776
0.0059603
0.00615803
0.00634251
0.00651501
0.00667664
0.00682835
0.00697095
0.00710516
0.00723164
0.00735095
0.00746359
0.00757005
0.00767072
0.007766
0.00785621
0.00794168
0.0080227
0.00809952
0.00817238
0.0082415
0.00830709
0.00836933
0.00842839
0.00848443
0.00853759
0.00858801
0.0086358
0.00868108
0.00872393
0.00876444
0.00880264
0.0088386
0.00887245
0.00890432
0.00893434
0.0089626
0.00898918
0.00901417
0.00903763
0.00905962
0.00908022
0.00909946
0.00911741
0.0091341
0.0091496
0.00916393
0.00917714
0.00918927
0.00920035
0.00921043
0.00921953
0.00922768
0.00923493
0.00924128
0.00924678
0.00925145
0.00925531
0.00925838
0.00926069
0.00926226
0.00926311
0.00926325
0.0092627
0.00926149
0.00925962
0.0092571
0.00925396
0.0092502
0.00924584
0.00924089
0.00923534
0.00922923
0.00922254
0.00921529
0.00920749
0.00919914
0.00919025
0.00918082
0.00917085
0.00916035
0.00914932
0.00913776
0.00912567
0.00911306
0.00909992
0.00908625
0.00907206
0.00905734
0.00904208
0.0090263
0.00900997
0.00899311
0.00897571
0.00895775
0.00893925
0.00892019
0.00890057
0.00888037
0.00885961
0.00883826
0.00881633
0.0087938
0.00877066
0.00874692
0.00872256
0.00869757
0.00867194
0.00864567
0.00861875
0.00859116
0.0085629
0.00853395
0.00850431
0.00847396
0.0084429
0.0084111
0.00837857
0.00834529
0.00831125
0.00827643
0.00824083
0.00820442
0.00816721
0.00812917
0.00809029
0.00805056
0.00800996
0.00796848
0.00792611
0.00788283
0.00783862
0.00779347
0.00774736
0.00770027
0.00765219
0.0076031
0.00755298
0.00750181
0.00744957
0.00739623
0.00734177
0.00728618
0.00722941
0.00717145
0.00711226
0.00705181
0.00699007
0.006927
0.00686256
0.00679671
0.0067294
0.00666057
0.00659018
0.00651817
0.00644445
0.00636896
0.00629162
0.00621233
0.00613098
0.00604747
0.00596165
0.00587337
0.00578247
0.00568874
0.00559195
0.00549183
0.00538805
0.00528025
0.00516796
0.00505068
0.00492782
0.00479868
0.00466238
0.00451782
0.00436359
0.0041979
0.00401843
0.00382219
0.00360514
0.00336191
0.00308539
0.00276643
0.00239159
0.00194191
0.00139168
0.000717778
7.36494e-05
0.000111743
0.00110722
0.0021519
0.00301622
0.00373878
0.00435721
0.00489761
0.00537771
0.00580971
0.00620232
0.00656189
0.00689318
0.00719988
0.00748491
0.00775061
0.00799893
0.0082315
0.0084497
0.00865474
0.00884766
0.00902941
0.0092008
0.00936259
0.00951544
0.00965996
0.00979671
0.0099262
0.0100489
0.0101652
0.0102755
0.0103802
0.0104795
0.0105739
0.0106636
0.0107488
0.0108297
0.0109067
0.0109798
0.0110493
0.0111154
0.0111781
0.0112377
0.0112942
0.0113478
0.0113985
0.0114465
0.011492
0.0115351
0.0115758
0.0116144
0.0116509
0.0116853
0.0117179
0.0117486
0.0117776
0.0118048
0.0118304
0.0118545
0.011877
0.0118981
0.0119177
0.011936
0.0119529
0.0119686
0.011983
0.0119963
0.0120083
0.0120193
0.0120291
0.0120379
0.0120456
0.0120523
0.012058
0.0120628
0.0120666
0.0120696
0.0120716
0.0120727
0.012073
0.0120724
0.012071
0.0120688
0.0120658
0.012062
0.0120574
0.012052
0.0120459
0.012039
0.0120314
0.0120231
0.012014
0.0120041
0.0119936
0.0119823
0.0119703
0.0119575
0.0119441
0.0119299
0.011915
0.0118994
0.011883
0.011866
0.0118482
0.0118296
0.0118103
0.0117903
0.0117695
0.011748
0.0117257
0.0117026
0.0116787
0.0116541
0.0116286
0.0116024
0.0115753
0.0115474
0.0115187
0.0114891
0.0114587
0.0114274
0.0113952
0.0113621
0.0113281
0.0112932
0.0112574
0.0112206
0.0111828
0.011144
0.0111043
0.0110635
0.0110217
0.0109789
0.010935
0.01089
0.0108439
0.0107967
0.0107484
0.0106989
0.0106482
0.0105964
0.0105433
0.010489
0.0104334
0.0103766
0.0103184
0.0102589
0.0101981
0.0101358
0.0100722
0.0100071
0.00994056
0.0098725
0.0098029
0.00973173
0.00965894
0.00958451
0.00950837
0.00943049
0.00935083
0.00926931
0.0091859
0.00910053
0.00901312
0.00892362
0.00883193
0.00873798
0.00864167
0.0085429
0.00844155
0.00833749
0.00823059
0.00812068
0.00800759
0.00789111
0.00777102
0.00764706
0.00751893
0.00738628
0.00724872
0.00710578
0.00695691
0.00680147
0.00663872
0.00646777
0.00628758
0.00609685
0.00589399
0.00567703
0.00544349
0.00519026
0.00491336
0.00460768
0.00426666
0.00388185
0.00344248
0.00293439
0.00233928
0.00163594
0.000816241
8.08356e-05
0.000111744
0.00110724
0.00215194
0.00301627
0.00373884
0.00435727
0.00489768
0.00537778
0.00580978
0.00620239
0.00656196
0.00689325
0.00719995
0.00748497
0.00775067
0.00799899
0.00823155
0.00844975
0.00865479
0.00884771
0.00902946
0.00920085
0.00936263
0.00951548
0.00966
0.00979675
0.00992623
0.0100489
0.0101652
0.0102755
0.0103802
0.0104796
0.0105739
0.0106636
0.0107488
0.0108297
0.0109067
0.0109798
0.0110493
0.0111154
0.0111781
0.0112377
0.0112942
0.0113478
0.0113985
0.0114465
0.011492
0.0115351
0.0115758
0.0116144
0.0116509
0.0116853
0.0117179
0.0117486
0.0117776
0.0118048
0.0118304
0.0118545
0.011877
0.0118981
0.0119177
0.011936
0.0119529
0.0119686
0.011983
0.0119963
0.0120083
0.0120193
0.0120291
0.0120379
0.0120456
0.0120523
0.012058
0.0120628
0.0120666
0.0120695
0.0120716
0.0120727
0.012073
0.0120724
0.012071
0.0120688
0.0120658
0.012062
0.0120574
0.012052
0.0120459
0.012039
0.0120314
0.012023
0.0120139
0.0120041
0.0119936
0.0119823
0.0119703
0.0119575
0.0119441
0.0119299
0.011915
0.0118994
0.011883
0.011866
0.0118481
0.0118296
0.0118103
0.0117903
0.0117695
0.011748
0.0117257
0.0117026
0.0116787
0.0116541
0.0116286
0.0116024
0.0115753
0.0115474
0.0115187
0.0114891
0.0114587
0.0114274
0.0113952
0.0113621
0.0113281
0.0112932
0.0112574
0.0112205
0.0111828
0.011144
0.0111043
0.0110635
0.0110217
0.0109789
0.010935
0.01089
0.0108439
0.0107967
0.0107484
0.0106989
0.0106482
0.0105964
0.0105433
0.010489
0.0104334
0.0103766
0.0103184
0.0102589
0.0101981
0.0101358
0.0100722
0.0100071
0.00994056
0.0098725
0.0098029
0.00973172
0.00965894
0.0095845
0.00950836
0.00943049
0.00935082
0.00926931
0.00918589
0.00910052
0.00901312
0.00892361
0.00883193
0.00873798
0.00864167
0.00854289
0.00844154
0.00833748
0.00823058
0.00812067
0.00800758
0.0078911
0.00777101
0.00764705
0.00751892
0.00738628
0.00724872
0.00710577
0.0069569
0.00680147
0.00663871
0.00646777
0.00628757
0.00609684
0.00589398
0.00567702
0.00544349
0.00519026
0.00491336
0.00460768
0.00426666
0.00388185
0.00344248
0.00293439
0.00233928
0.00163594
0.000816238
8.08356e-05
0.000120009
0.00119936
0.00237479
0.0033756
0.00422705
0.00496405
0.00561306
0.00619295
0.00671717
0.00719549
0.00763511
0.00804151
0.0084189
0.00877064
0.00909943
0.0094075
0.00969673
0.00996871
0.0102248
0.0104663
0.0106941
0.0109094
0.0111129
0.0113054
0.0114877
0.0116604
0.0118241
0.0119794
0.0121267
0.0122667
0.0123996
0.0125259
0.012646
0.0127602
0.0128689
0.0129723
0.0130707
0.0131644
0.0132535
0.0133384
0.0134192
0.0134961
0.0135693
0.0136388
0.0137049
0.0137678
0.0138275
0.0138842
0.0139381
0.0139892
0.0140379
0.014084
0.0141278
0.0141693
0.0142086
0.0142459
0.0142811
0.0143144
0.0143458
0.0143755
0.0144034
0.0144296
0.0144541
0.0144771
0.0144986
0.0145186
0.0145372
0.0145544
0.0145702
0.0145847
0.0145979
0.0146098
0.0146206
0.0146301
0.0146385
0.0146458
0.0146519
0.0146569
0.0146609
0.0146638
0.0146657
0.0146666
0.0146664
0.0146653
0.0146632
0.0146601
0.0146561
0.0146511
0.0146452
0.0146383
0.0146306
0.0146219
0.0146122
0.0146017
0.0145903
0.0145779
0.0145646
0.0145505
0.0145354
0.0145194
0.0145024
0.0144846
0.0144658
0.0144461
0.0144255
0.0144039
0.0143813
0.0143579
0.0143334
0.014308
0.0142815
0.0142541
0.0142257
0.0141962
0.0141657
0.0141342
0.0141016
0.014068
0.0140332
0.0139974
0.0139604
0.0139223
0.0138831
0.0138426
0.013801
0.0137582
0.0137142
0.0136689
0.0136224
0.0135745
0.0135254
0.0134749
0.0134231
0.0133699
0.0133154
0.0132594
0.0132019
0.013143
0.0130826
0.0130206
0.0129572
0.0128921
0.0128254
0.0127571
0.0126871
0.0126153
0.0125419
0.0124667
0.0123896
0.0123107
0.0122299
0.0121471
0.0120623
0.0119755
0.0118866
0.0117956
0.0117023
0.0116068
0.011509
0.0114087
0.0113059
0.0112006
0.0110926
0.0109818
0.0108681
0.0107515
0.0106318
0.0105087
0.0103823
0.0102523
0.0101185
0.00998074
0.00983872
0.00969219
0.00954086
0.00938436
0.0092223
0.00905423
0.00887961
0.00869782
0.00850815
0.00830977
0.00810169
0.00788276
0.0076516
0.00740652
0.00714552
0.00686611
0.00656524
0.00623915
0.00588314
0.00549138
0.00505653
0.00456944
0.00401864
0.00339041
0.00266826
0.00183584
0.000897137
8.69024e-05
0.000120009
0.00119938
0.00237482
0.00337565
0.00422711
0.00496412
0.00561313
0.00619303
0.00671725
0.00719557
0.00763519
0.00804158
0.00841898
0.00877071
0.0090995
0.00940757
0.0096968
0.00996877
0.0102249
0.0104663
0.0106942
0.0109094
0.0111129
0.0113055
0.0114877
0.0116604
0.0118241
0.0119794
0.0121268
0.0122667
0.0123996
0.0125259
0.012646
0.0127603
0.0128689
0.0129723
0.0130707
0.0131644
0.0132536
0.0133385
0.0134193
0.0134962
0.0135693
0.0136389
0.013705
0.0137678
0.0138275
0.0138842
0.0139381
0.0139893
0.0140379
0.014084
0.0141278
0.0141693
0.0142086
0.0142459
0.0142811
0.0143144
0.0143458
0.0143755
0.0144034
0.0144296
0.0144541
0.0144771
0.0144986
0.0145186
0.0145372
0.0145544
0.0145702
0.0145847
0.0145979
0.0146098
0.0146206
0.0146301
0.0146385
0.0146458
0.0146519
0.0146569
0.0146609
0.0146638
0.0146657
0.0146666
0.0146664
0.0146653
0.0146632
0.0146601
0.0146561
0.0146511
0.0146452
0.0146383
0.0146306
0.0146219
0.0146122
0.0146017
0.0145903
0.0145779
0.0145646
0.0145505
0.0145354
0.0145194
0.0145024
0.0144846
0.0144658
0.0144461
0.0144255
0.0144039
0.0143813
0.0143579
0.0143334
0.014308
0.0142815
0.0142541
0.0142257
0.0141962
0.0141657
0.0141342
0.0141016
0.014068
0.0140332
0.0139974
0.0139604
0.0139223
0.0138831
0.0138426
0.013801
0.0137582
0.0137142
0.0136689
0.0136224
0.0135745
0.0135254
0.0134749
0.0134231
0.0133699
0.0133154
0.0132594
0.0132019
0.013143
0.0130826
0.0130206
0.0129571
0.0128921
0.0128254
0.0127571
0.0126871
0.0126153
0.0125419
0.0124666
0.0123896
0.0123107
0.0122299
0.0121471
0.0120623
0.0119755
0.0118866
0.0117956
0.0117023
0.0116068
0.0115089
0.0114087
0.0113059
0.0112006
0.0110926
0.0109818
0.0108681
0.0107515
0.0106318
0.0105087
0.0103823
0.0102523
0.0101185
0.00998073
0.00983871
0.00969218
0.00954085
0.00938435
0.0092223
0.00905422
0.0088796
0.00869781
0.00850814
0.00830976
0.00810169
0.00788276
0.00765159
0.00740652
0.00714551
0.0068661
0.00656523
0.00623914
0.00588314
0.00549137
0.00505652
0.00456944
0.00401864
0.00339041
0.00266826
0.00183584
0.000897134
8.69024e-05
0.000127363
0.00127829
0.00255885
0.00366972
0.004627
0.00546304
0.00620407
0.00686955
0.00747372
0.00802705
0.00853738
0.00901068
0.0094516
0.00986378
0.0102502
0.0106133
0.0109551
0.0112774
0.0115816
0.011869
0.0121409
0.0123983
0.0126421
0.0128732
0.0130924
0.0133004
0.0134979
0.0136855
0.0138638
0.0140333
0.0141945
0.0143479
0.0144939
0.0146329
0.0147654
0.0148915
0.0150118
0.0151264
0.0152356
0.0153398
0.015439
0.0155337
0.0156239
0.0157099
0.0157918
0.0158698
0.0159441
0.016015
0.0160824
0.0161467
0.0162079
0.0162661
0.0163216
0.0163743
0.0164245
0.0164722
0.0165175
0.0165606
0.0166014
0.01664
0.0166767
0.0167113
0.016744
0.0167748
0.0168038
0.0168311
0.0168567
0.0168806
0.0169029
0.0169237
0.0169429
0.0169607
0.016977
0.0169919
0.0170054
0.0170176
0.0170284
0.017038
0.0170462
0.0170532
0.017059
0.0170636
0.0170669
0.0170691
0.0170701
0.01707
0.0170687
0.0170663
0.0170628
0.0170581
0.0170523
0.0170454
0.0170375
0.0170284
0.0170182
0.017007
0.0169946
0.0169812
0.0169666
0.016951
0.0169342
0.0169163
0.0168974
0.0168773
0.016856
0.0168337
0.0168102
0.0167855
0.0167597
0.0167327
0.0167045
0.0166752
0.0166446
0.0166127
0.0165797
0.0165453
0.0165098
0.0164729
0.0164347
0.0163951
0.0163543
0.016312
0.0162684
0.0162233
0.0161769
0.0161289
0.0160795
0.0160286
0.0159762
0.0159222
0.0158666
0.0158095
0.0157507
0.0156902
0.015628
0.0155642
0.0154985
0.0154311
0.0153619
0.0152908
0.0152178
0.0151429
0.0150661
0.0149872
0.0149063
0.0148233
0.0147381
0.0146508
0.0145613
0.0144694
0.0143753
0.0142787
0.0141797
0.0140782
0.0139741
0.0138674
0.0137579
0.0136456
0.0135305
0.0134123
0.0132911
0.0131666
0.0130389
0.0129077
0.0127729
0.0126345
0.0124921
0.0123457
0.012195
0.0120399
0.01188
0.0117152
0.011545
0.0113692
0.0111874
0.0109992
0.010804
0.0106013
0.0103904
0.0101705
0.00994089
0.0097004
0.00944787
0.00918189
0.00890077
0.00860252
0.00828473
0.0079445
0.00757833
0.00718193
0.00675011
0.00627651
0.00575337
0.00517129
0.0045189
0.0037831
0.00294946
0.002006
0.000966508
9.22136e-05
0.000127364
0.0012783
0.00255889
0.00366978
0.00462707
0.00546311
0.00620415
0.00686964
0.0074738
0.00802713
0.00853746
0.00901077
0.00945168
0.00986386
0.0102503
0.0106134
0.0109552
0.0112774
0.0115816
0.0118691
0.012141
0.0123984
0.0126422
0.0128733
0.0130925
0.0133005
0.013498
0.0136856
0.0138638
0.0140333
0.0141945
0.0143479
0.0144939
0.014633
0.0147654
0.0148916
0.0150118
0.0151264
0.0152356
0.0153398
0.0154391
0.0155337
0.0156239
0.0157099
0.0157918
0.0158698
0.0159442
0.016015
0.0160824
0.0161467
0.0162079
0.0162661
0.0163216
0.0163743
0.0164245
0.0164722
0.0165175
0.0165606
0.0166014
0.01664
0.0166767
0.0167113
0.016744
0.0167748
0.0168038
0.0168311
0.0168567
0.0168806
0.0169029
0.0169237
0.0169429
0.0169607
0.016977
0.0169919
0.0170054
0.0170176
0.0170284
0.017038
0.0170462
0.0170532
0.017059
0.0170636
0.0170669
0.0170691
0.0170701
0.01707
0.0170687
0.0170663
0.0170628
0.0170581
0.0170523
0.0170454
0.0170375
0.0170284
0.0170182
0.017007
0.0169946
0.0169812
0.0169666
0.0169509
0.0169342
0.0169163
0.0168974
0.0168773
0.016856
0.0168337
0.0168102
0.0167855
0.0167597
0.0167327
0.0167045
0.0166752
0.0166446
0.0166127
0.0165797
0.0165453
0.0165097
0.0164729
0.0164347
0.0163951
0.0163543
0.016312
0.0162684
0.0162233
0.0161769
0.0161289
0.0160795
0.0160286