/*--------------------------------*- C++ -*----------------------------------*\
  =========                 |
  \\      /  F ield         | OpenFOAM: The Open Source CFD Toolbox
   \\    /   O peration     | Website:  https://openfoam.org
    \\  /    A nd           | Version:  8
     \\/     M anipulation  |
\*---------------------------------------------------------------------------*/
FoamFile
{
    version     2.0;
    format      ascii;
    class       volScalarField;
    location    "3200";
    object      epsilon;
}
// * * * * * * * * * * * * * * * * * * * * * * * * * * * * * * * * * * * * * //

dimensions      [0 2 -3 0 0 0 0];

internalField   nonuniform List<scalar> 
48000
(
1.53267
4.67275
8.97525
13.3868
18.0311
22.6759
27.2924
31.8935
36.5953
41.2808
45.9803
50.6857
55.39
60.087
64.7699
69.4316
74.0645
78.6606
83.212
87.7104
92.1477
96.5159
100.807
105.014
109.129
113.146
117.059
120.861
124.548
128.115
131.557
134.873
138.058
141.11
144.029
146.812
149.459
151.971
154.347
156.588
158.695
160.67
162.514
164.229
165.845
167.344
168.722
169.982
171.127
172.162
173.089
173.912
174.636
175.264
175.8
176.247
176.61
176.891
177.094
177.224
177.282
177.273
177.199
177.064
176.87
176.621
176.318
175.966
175.565
175.119
174.629
174.099
173.529
172.922
172.28
171.604
170.897
170.159
169.392
168.597
167.776
166.93
166.061
165.168
164.253
163.317
162.362
161.386
160.393
159.381
158.352
157.306
156.244
155.166
154.073
152.965
151.842
150.706
149.555
148.391
147.214
146.023
144.819
143.603
142.374
141.132
139.878
138.612
137.333
136.042
134.74
133.425
132.098
130.76
129.409
128.047
126.673
125.287
123.889
122.48
121.06
119.627
118.184
116.728
115.262
113.784
112.296
110.796
109.286
107.765
106.233
104.692
103.14
101.579
100.008
98.4274
96.8383
95.2405
93.6346
92.0208
90.3995
88.7712
87.1364
85.4954
83.8488
82.1971
80.5409
78.8806
77.217
75.5506
73.8819
72.2118
70.5408
68.8696
67.1988
65.5293
63.8616
62.1966
60.5348
58.8772
57.2243
55.5769
53.9357
52.3014
50.6748
49.0565
47.4472
45.8475
44.2582
42.6797
41.1126
39.5576
38.0151
36.4855
34.9693
33.4668
31.9784
30.5044
29.0448
27.6002
26.1716
24.7606
23.3754
22.0064
20.6477
19.2994
17.9597
16.6274
15.3006
13.9772
12.6543
11.3287
10.0097
8.68457
7.34332
5.977
4.57396
3.12038
1.62771
0.649513
1.5326
4.67288
8.97543
13.387
18.0313
22.6761
27.2927
31.8937
36.5956
41.2811
45.9806
50.6859
55.3903
60.0873
64.7702
69.4319
74.0647
78.6609
83.2122
87.7106
92.1479
96.5162
100.807
105.014
109.13
113.147
117.059
120.861
124.548
128.115
131.557
134.873
138.058
141.11
144.029
146.812
149.459
151.971
154.347
156.588
158.695
160.67
162.514
164.229
165.845
167.344
168.722
169.982
171.127
172.162
173.089
173.912
174.636
175.264
175.8
176.247
176.61
176.891
177.094
177.224
177.282
177.273
177.199
177.064
176.87
176.621
176.318
175.966
175.565
175.119
174.629
174.099
173.529
172.922
172.28
171.604
170.897
170.159
169.392
168.597
167.776
166.93
166.061
165.168
164.253
163.317
162.362
161.386
160.393
159.381
158.352
157.306
156.244
155.166
154.073
152.965
151.842
150.706
149.555
148.391
147.213
146.023
144.819
143.603
142.374
141.132
139.878
138.612
137.333
136.042
134.74
133.425
132.098
130.76
129.409
128.047
126.673
125.287
123.889
122.48
121.06
119.627
118.183
116.728
115.262
113.784
112.296
110.796
109.286
107.765
106.233
104.692
103.14
101.579
100.008
98.4274
96.8382
95.2405
93.6346
92.0208
90.3995
88.7712
87.1363
85.4954
83.8488
82.1971
80.5408
78.8806
77.217
75.5505
73.8819
72.2118
70.5408
68.8696
67.1988
65.5293
63.8616
62.1966
60.5348
58.8772
57.2243
55.5769
53.9357
52.3014
50.6748
49.0565
47.4472
45.8475
44.2582
42.6797
41.1126
39.5576
38.0151
36.4855
34.9693
33.4669
31.9785
30.5044
29.0449
27.6002
26.1716
24.7606
23.3754
22.0064
20.6477
19.2994
17.9598
16.6274
15.3007
13.9772
12.6543
11.3288
10.0097
8.68459
7.34333
5.977
4.57395
3.12036
1.62778
0.64949
5.56819
4.80672
6.17405
7.83554
9.64637
11.5284
13.4415
15.3752
17.3391
19.3233
21.3268
23.3475
25.3827
27.4293
29.4841
31.5434
33.6033
35.6595
37.7076
39.743
41.7612
43.7575
45.7272
47.6659
49.5691
51.4328
53.253
55.026
56.7485
58.4174
60.03
61.5839
63.0772
64.5082
65.8754
67.178
68.4152
69.5867
70.6924
71.7324
72.7073
73.6178
74.465
75.2515
75.9835
76.6584
77.2756
77.8356
78.3399
78.7901
79.1881
79.5356
79.8347
80.0873
80.2952
80.4605
80.585
80.6706
80.719
80.7322
80.7118
80.6595
80.5769
80.4656
80.327
80.1627
79.974
79.7622
79.5287
79.2744
79.0007
78.7086
78.3991
78.0732
77.7318
77.3757
77.0059
76.6229
76.2276
75.8205
75.4025
74.9739
74.5354
74.0875
73.6307
73.1654
72.6919
72.2108
71.7222
71.2267
70.7243
70.2155
69.7005
69.1795
68.6526
68.1201
67.5822
67.039
66.4907
65.9373
65.379
64.8158
64.248
63.6754
63.0982
62.5165
61.9303
61.3396
60.7445
60.1449
59.541
58.9327
58.3201
57.7032
57.082
56.4564
55.8266
55.1924
54.554
53.9114
53.2645
52.6134
51.9582
51.2987
50.6352
49.9675
49.2958
48.6201
47.9405
47.257
46.5698
45.8788
45.1842
44.4861
43.7845
43.0797
42.3717
41.6607
40.9468
40.2302
39.5111
38.7896
38.066
37.3404
36.613
35.8841
35.1539
34.4227
33.6906
32.9581
32.2252
31.4924
30.7599
30.0279
29.2968
28.5669
27.8385
27.1119
26.3874
25.6653
24.9459
24.2296
23.5166
22.8072
22.1018
21.4006
20.704
20.0121
19.3253
18.6439
17.9679
17.2978
16.6336
15.9756
15.3239
14.6787
14.0401
13.4083
12.7833
12.1652
11.5544
10.9513
10.3563
9.76818
9.18546
8.60905
8.03814
7.47222
6.91087
6.35367
5.80032
5.25116
4.70855
4.17011
3.63496
3.10417
2.58279
2.0881
1.68775
1.98669
5.56836
4.8067
6.17389
7.83542
9.64626
11.5283
13.4413
15.375
17.3389
19.3231
21.3266
23.3474
25.3825
27.4291
29.4839
31.5432
33.603
35.6592
37.7073
39.7428
41.761
43.7572
45.7269
47.6656
49.5689
51.4325
53.2527
55.0257
56.7482
58.4171
60.0297
61.5837
63.0769
64.5079
65.8751
67.1777
68.4149
69.5864
70.6921
71.7321
72.707
73.6175
74.4647
75.2512
75.9832
76.6581
77.2753
77.8353
78.3396
78.7898
79.1878
79.5353
79.8344
80.087
80.2949
80.4602
80.5847
80.6703
80.7187
80.7319
80.7115
80.6592
80.5766
80.4653
80.3267
80.1624
79.9737
79.762
79.5284
79.2741
79.0004
78.7083
78.3989
78.0729
77.7315
77.3755
77.0056
76.6226
76.2273
75.8203
75.4022
74.9737
74.5352
74.0873
73.6305
73.1651
72.6917
72.2105
71.722
71.2264
70.7241
70.2153
69.7003
69.1792
68.6524
68.1199
67.582
67.0388
66.4905
65.9371
65.3788
64.8156
64.2477
63.6752
63.098
62.5163
61.9301
61.3394
60.7442
60.1447
59.5408
58.9325
58.3199
57.703
57.0818
56.4562
55.8264
55.1922
54.5538
53.9112
53.2643
52.6132
51.958
51.2985
50.635
49.9673
49.2956
48.62
47.9404
47.2569
46.5696
45.8786
45.184
44.4859
43.7844
43.0795
42.3716
41.6606
40.9467
40.2301
39.511
38.7895
38.0658
37.3402
36.6129
35.884
35.1538
34.4225
33.6905
32.9579
32.2251
31.4923
30.7597
30.0278
29.2967
28.5668
27.8384
27.1118
26.3873
25.6652
24.9458
24.2295
23.5165
22.8071
22.1017
21.4006
20.7039
20.012
19.3253
18.6438
17.9678
17.2977
16.6335
15.9755
15.3238
14.6786
14.0401
13.4082
12.7832
12.1652
11.5544
10.9512
10.3562
9.76813
9.18542
8.60901
8.03811
7.47218
6.91084
6.35364
5.80029
5.25114
4.70853
4.17009
3.63494
3.10415
2.58277
2.08807
1.68772
1.98629
10.3861
6.46031
6.86561
7.86468
9.07232
10.387
11.7655
13.1874
14.6438
16.1277
17.6344
19.1607
20.7032
22.2592
23.8255
25.3992
26.9769
28.5552
30.1306
31.6992
33.2573
34.8011
36.3267
37.8304
39.3084
40.7573
42.1736
43.5541
44.896
46.1964
47.4531
48.6637
49.8265
50.9399
52.0025
53.0136
53.9722
54.8781
55.7309
56.5309
57.2784
57.9738
58.6183
59.2134
59.761
60.2617
60.7158
61.124
61.4875
61.8077
62.0859
62.3237
62.5226
62.6843
62.8103
62.9023
62.9618
62.9903
62.9895
62.9607
62.9054
62.8251
62.721
62.5945
62.4468
62.2791
62.0926
61.8883
61.6673
61.4306
61.1791
60.9138
60.6353
60.3447
60.0425
59.7295
59.4063
59.0737
58.7321
58.3821
58.0242
57.6589
57.2866
56.9077
56.5227
56.1318
55.7354
55.3338
54.9273
54.5161
54.1005
53.6807
53.2568
52.8291
52.3976
51.9626
51.5242
51.0825
50.6376
50.1896
49.7386
49.2846
48.8278
48.3681
47.9056
47.4403
46.9723
46.5017
46.0284
45.5524
45.0738
44.5926
44.1087
43.6223
43.1332
42.6416
42.1473
41.6505
41.1511
40.6491
40.1446
39.6375
39.1278
38.6157
38.1011
37.584
37.0644
36.5425
36.0182
35.4916
34.9627
34.4316
33.8984
33.3631
32.8259
32.2867
31.7458
31.2032
30.659
30.1133
29.5663
29.0181
28.4688
27.9187
27.3678
26.8163
26.2644
25.7123
25.1601
24.6081
24.0565
23.5054
22.9551
22.4058
21.8577
21.3111
20.7661
20.223
19.682
19.1434
18.6074
18.0742
17.544
17.0171
16.4936
15.9739
15.4581
14.9463
14.4389
13.936
13.4377
12.9443
12.4559
11.9726
11.4945
11.0219
10.5547
10.0932
9.63732
9.18727
8.74315
8.30509
7.87315
7.44707
7.02656
6.61166
6.20217
5.79823
5.40004
5.00767
4.62158
4.24258
3.87216
3.51176
3.16411
2.8354
2.53989
2.31585
2.31009
3.84331
10.3863
6.46018
6.86546
7.86454
9.07216
10.3869
11.7653
13.1872
14.6436
16.1275
17.6343
19.1605
20.703
22.259
23.8253
25.399
26.9767
28.555
30.1303
31.699
33.2571
34.8009
36.3265
37.8302
39.3082
40.7571
42.1734
43.5539
44.8958
46.1963
47.4529
48.6635
49.8263
50.9397
52.0024
53.0134
53.972
54.8779
55.7308
56.5308
57.2782
57.9737
58.6182
59.2132
59.7609
60.2615
60.7156
61.1238
61.4874
61.8075
62.0857
62.3235
62.5225
62.6841
62.8102
62.9021
62.9616
62.9902
62.9893
62.9606
62.9053
62.8249
62.7209
62.5944
62.4467
62.279
62.0925
61.8882
61.6672
61.4305
61.179
60.9137
60.6352
60.3446
60.0424
59.7294
59.4062
59.0736
58.732
58.382
58.0241
57.6588
57.2865
56.9076
56.5226
56.1317
55.7353
55.3337
54.9272
54.5161
54.1004
53.6806
53.2567
52.829
52.3975
51.9625
51.5242
51.0825
50.6376
50.1895
49.7385
49.2845
48.8277
48.368
47.9055
47.4402
46.9723
46.5016
46.0283
45.5523
45.0737
44.5925
44.1086
43.6222
43.1331
42.6415
42.1472
41.6504
41.151
40.649
40.1445
39.6374
39.1278
38.6156
38.101
37.5839
37.0644
36.5424
36.0181
35.4915
34.9626
34.4315
33.8983
33.3631
32.8258
32.2867
31.7457
31.2031
30.6589
30.1132
29.5662
29.018
28.4688
27.9186
27.3677
26.8162
26.2643
25.7122
25.1601
24.6081
24.0564
23.5054
22.9551
22.4058
21.8577
21.311
20.7661
20.223
19.682
19.1434
18.6074
18.0741
17.544
17.017
16.4936
15.9739
15.458
14.9463
14.4389
13.936
13.4377
12.9443
12.4559
11.9726
11.4945
11.0219
10.5547
10.0932
9.6373
9.18725
8.74314
8.30508
7.87313
7.44705
7.02655
6.61164
6.20216
5.79822
5.40003
5.00766
4.62157
4.24257
3.87215
3.51176
3.1641
2.83539
2.53989
2.31585
2.31011
3.84334
15.1212
8.43159
8.14268
8.74914
9.66317
10.7305
11.8891
13.1083
14.371
15.6664
16.9872
18.3282
19.6853
21.055
22.4341
23.8195
25.2083
26.5973
27.9833
29.3632
30.7337
32.0914
33.433
34.7552
36.0549
37.3287
38.5739
39.7874
40.9666
42.1091
43.2126
44.2752
45.2952
46.2709
47.2014
48.0854
48.9225
49.7121
50.4541
51.1484
51.7953
52.3954
52.9494
53.4582
53.9233
54.3453
54.7251
55.0634
55.3615
55.6205
55.8417
56.0265
56.1764
56.2927
56.377
56.4307
56.4553
56.4521
56.4226
56.3681
56.2901
56.1896
56.0681
55.9267
55.7665
55.5887
55.3943
55.1843
54.9597
54.7214
54.4702
54.2071
53.9326
53.6477
53.3528
53.0488
52.7362
52.4156
52.0875
51.7524
51.4107
51.063
50.7095
50.3507
49.9869
49.6185
49.2457
48.8688
48.488
48.1037
47.7159
47.3249
46.9308
46.5339
46.1342
45.7319
45.3271
44.9199
44.5104
44.0987
43.6848
43.2689
42.8509
42.4309
42.0089
41.585
41.1593
40.7316
40.3022
39.8708
39.4377
39.0027
38.5659
38.1273
37.6869
37.2447
36.8006
36.3548
35.9072
35.4578
35.0066
34.5537
34.0989
33.6424
33.1842
32.7243
32.2627
31.7994
31.3345
30.8681
30.4
29.9306
29.4596
28.9873
28.5137
28.0389
27.563
27.086
26.608
26.1292
25.6496
25.1694
24.6887
24.2076
23.7263
23.2448
22.7635
22.2823
21.8015
21.3212
20.8417
20.363
19.8854
19.409
18.934
18.4607
17.9892
17.5197
17.0525
16.5876
16.1253
15.6658
15.2093
14.756
14.3061
13.8597
13.417
12.9782
12.5435
12.113
11.6869
11.2654
10.8485
10.4364
10.0292
9.62711
9.23015
8.83846
8.45214
8.07131
7.69609
7.32658
6.96285
6.60492
6.25282
5.90666
5.5666
5.2329
4.90597
4.58634
4.27512
3.9736
3.68388
3.40922
3.15512
2.93215
2.76323
2.70871
3.00208
5.68862
15.1214
8.43149
8.14254
8.74898
9.663
10.7303
11.889
13.1081
14.3708
15.6662
16.987
18.328
19.6851
21.0548
22.4339
23.8193
25.2081
26.5971
27.9831
29.363
30.7335
32.0912
33.4328
34.7551
36.0547
37.3286
38.5737
39.7872
40.9664
42.1089
43.2125
44.2751
45.295
46.2708
47.2012
48.0853
48.9224
49.712
50.454
51.1483
51.7952
52.3953
52.9492
53.4581
53.9232
54.3452
54.7249
55.0633
55.3614
55.6204
55.8416
56.0264
56.1763
56.2927
56.377
56.4307
56.4552
56.452
56.4225
56.3681
56.29
56.1895
56.068
55.9266
55.7664
55.5886
55.3942
55.1842
54.9596
54.7213
54.4702
54.207
53.9326
53.6476
53.3528
53.0488
52.7362
52.4156
52.0874
51.7523
51.4107
51.0629
50.7094
50.3507
49.9869
49.6185
49.2456
48.8687
48.488
48.1036
47.7158
47.3248
46.9308
46.5339
46.1342
45.7319
45.3271
44.9199
44.5104
44.0987
43.6848
43.2688
42.8508
42.4308
42.0089
41.585
41.1592
40.7316
40.3021
39.8708
39.4376
39.0027
38.5659
38.1273
37.6868
37.2446
36.8006
36.3548
35.9072
35.4578
35.0066
34.5536
34.0989
33.6424
33.1842
32.7243
32.2627
31.7994
31.3345
30.868
30.4
29.9305
29.4596
28.9873
28.5137
28.0389
27.5629
27.0859
26.608
26.1291
25.6496
25.1694
24.6887
24.2076
23.7263
23.2448
22.7635
22.2823
21.8015
21.3212
20.8416
20.363
19.8853
19.409
18.934
18.4607
17.9892
17.5197
17.0525
16.5876
16.1253
15.6658
15.2093
14.756
14.3061
13.8597
13.417
12.9782
12.5435
12.113
11.6869
11.2654
10.8485
10.4364
10.0292
9.62711
9.23014
8.83845
8.45214
8.07131
7.69609
7.32657
6.96284
6.60492
6.25282
5.90666
5.56659
5.2329
4.90597
4.58634
4.27512
3.9736
3.68388
3.40922
3.15511
2.93215
2.76323
2.70872
3.0021
5.68864
19.8596
10.5687
9.66907
9.97804
10.6971
11.6167
12.6536
13.7662
14.9309
16.1329
17.3621
18.6115
19.8759
21.1511
22.4334
23.7198
25.0073
26.293
27.5741
28.8479
30.1113
31.3615
32.5957
33.811
35.0045
36.1736
37.3155
38.4277
39.5078
40.5536
41.5631
42.5345
43.4662
44.3568
45.2051
46.0103
46.7717
47.4888
48.1615
48.7896
49.3735
49.9136
50.4104
50.8648
51.2777
51.65
51.9826
52.2763
52.5323
52.7516
52.9356
53.0856
53.2028
53.2886
53.3445
53.3717
53.3717
53.3457
53.2952
53.2214
53.1256
53.0089
52.8727
52.7179
52.5458
52.3573
52.1535
51.9354
51.7038
51.4596
51.2036
50.9367
50.6595
50.3727
50.0771
49.7731
49.4615
49.1426
48.8171
48.4854
48.1479
47.8051
47.4572
47.1048
46.7481
46.3874
46.023
45.6551
45.284
44.9099
44.533
44.1534
43.7714
43.3871
43.0006
42.612
42.2215
41.8291
41.435
41.0391
40.6416
40.2426
39.842
39.4399
39.0364
38.6314
38.2251
37.8173
37.4082
36.9978
36.586
36.1729
35.7585
35.3427
34.9256
34.5072
34.0875
33.6664
33.2441
32.8204
32.3954
31.9691
31.5415
31.1126
30.6824
30.2511
29.8184
29.3846
28.9496
28.5135
28.0763
27.6381
27.1988
26.7586
26.3176
25.8757
25.4331
24.9898
24.546
24.1017
23.657
23.212
22.7669
22.3217
21.8767
21.4318
20.9873
20.5432
20.0998
19.6571
19.2154
18.7748
18.3354
17.8975
17.4611
17.0265
16.5939
16.1633
15.735
15.3092
14.886
14.4656
14.0482
13.6339
13.223
12.8156
12.4118
12.0118
11.6157
11.2238
10.8361
10.4529
10.0741
9.70007
9.33079
8.96642
8.6071
8.25294
7.90408
7.56064
7.22277
6.89061
6.56432
6.24403
5.92996
5.62235
5.32157
5.02808
4.74258
4.46598
4.19966
3.94556
3.70663
3.48757
3.29625
3.14741
3.07244
3.15394
3.71234
7.52009
19.8598
10.5686
9.66892
9.97787
10.6969
11.6165
12.6534
13.766
14.9307
16.1327
17.3619
18.6113
19.8757
21.1508
22.4332
23.7196
25.0071
26.2928
27.5739
28.8477
30.1111
31.3613
32.5955
33.8108
35.0044
36.1734
37.3153
38.4275
39.5076
40.5535
41.563
42.5344
43.4661
44.3566
45.205
46.0102
46.7716
47.4887
48.1614
48.7895
49.3734
49.9135
50.4103
50.8647
51.2776
51.6499
51.9825
52.2762
52.5322
52.7515
52.9356
53.0855
53.2027
53.2886
53.3444
53.3716
53.3716
53.3457
53.2951
53.2213
53.1255
53.0089
52.8726
52.7179
52.5457
52.3573
52.1535
51.9354
51.7037
51.4596
51.2036
50.9367
50.6595
50.3727
50.077
49.7731
49.4614
49.1426
48.8171
48.4853
48.1479
47.805
47.4572
47.1048
46.7481
46.3874
46.0229
45.6551
45.284
44.9098
44.5329
44.1534
43.7714
43.3871
43.0006
42.612
42.2215
41.8291
41.4349
41.0391
40.6416
40.2425
39.8419
39.4399
39.0363
38.6314
38.225
37.8173
37.4082
36.9978
36.586
36.1729
35.7585
35.3427
34.9256
34.5072
34.0875
33.6664
33.244
32.8204
32.3954
31.9691
31.5415
31.1126
30.6824
30.251
29.8184
29.3846
28.9496
28.5135
28.0763
27.638
27.1988
26.7586
26.3175
25.8757
25.4331
24.9898
24.546
24.1017
23.657
23.212
22.7669
22.3217
21.8767
21.4318
20.9873
20.5432
20.0998
19.6571
19.2154
18.7748
18.3354
17.8975
17.4611
17.0265
16.5939
16.1633
15.735
15.3092
14.886
14.4656
14.0482
13.6339
13.223
12.8155
12.4117
12.0118
11.6157
11.2238
10.8361
10.4529
10.0741
9.70007
9.33079
8.96642
8.6071
8.25294
7.90407
7.56064
7.22277
6.89061
6.56432
6.24403
5.92996
5.62235
5.32157
5.02808
4.74258
4.46598
4.19966
3.94556
3.70663
3.48757
3.29625
3.14742
3.07244
3.15395
3.71236
7.52009
24.6003
12.8207
11.3543
11.4135
11.9848
12.8024
13.7617
14.8103
15.9187
17.0679
18.2455
19.4427
20.653
21.8715
23.0944
24.3182
25.5402
26.7576
27.9678
29.1685
30.3572
31.5313
32.6885
33.8262
34.9422
36.0339
37.0992
38.1358
39.1415
40.1145
41.0529
41.9551
42.8197
43.6454
44.4311
45.1761
45.8796
46.5413
47.1609
47.7384
48.2739
48.7679
49.2209
49.6335
50.0065
50.3408
50.6372
50.8967
51.1203
51.3091
51.4642
51.5871
51.6787
51.7406
51.774
51.7801
51.7603
51.7159
51.6482
51.5583
51.4475
51.3169
51.1678
51.0012
50.8181
50.6195
50.4065
50.18
49.9408
49.6897
49.4276
49.1552
48.8732
48.5823
48.2832
47.9763
47.6623
47.3417
47.015
46.6826
46.3449
46.0024
45.6554
45.3043
44.9493
44.5907
44.2289
43.8641
43.4965
43.1262
42.7536
42.3787
42.0018
41.6229
41.2422
40.8598
40.4759
40.0904
39.7035
39.3153
38.9258
38.535
38.1431
37.7501
37.3559
36.9606
36.5643
36.167
35.7686
35.3692
34.9688
34.5674
34.165
33.7617
33.3573
32.9519
32.5455
32.1382
31.7298
31.3205
30.9102
30.4989
30.0867
29.6734
29.2593
28.8442
28.4282
28.0114
27.5936
27.1751
26.7558
26.3357
25.915
25.4936
25.0716
24.6491
24.2261
23.8028
23.3792
22.9554
22.5314
22.1075
21.6836
21.2599
20.8365
20.4135
19.9911
19.5693
19.1484
18.7284
18.3095
17.8918
17.4755
17.0608
16.6477
16.2365
15.8273
15.4203
15.0156
14.6134
14.2138
13.8171
13.4233
13.0327
12.6454
12.2615
11.8812
11.5047
11.132
10.7634
10.399
10.0389
9.68324
9.3322
8.98588
8.64443
8.30799
7.9767
7.65072
7.33021
7.01536
6.70636
6.40343
6.10684
5.81689
5.534
5.25869
4.99164
4.73377
4.48634
4.25112
4.03063
3.82866
3.65115
3.50814
3.41847
3.4219
3.62329
4.42982
9.3434
24.6005
12.8206
11.3541
11.4133
11.9846
12.8022
13.7615
14.8101
15.9184
17.0677
18.2453
19.4425
20.6528
21.8713
23.0942
24.318
25.54
26.7574
27.9676
29.1683
30.357
31.5311
32.6883
33.8261
34.942
36.0338
37.099
38.1356
39.1413
40.1143
41.0528
41.955
42.8196
43.6453
44.431
45.176
45.8795
46.5412
47.1608
47.7383
48.2738
48.7678
49.2208
49.6334
50.0064
50.3407
50.6371
50.8966
51.1202
51.309
51.4642
51.587
51.6787
51.7405
51.7739
51.78
51.7603
51.7159
51.6481
51.5582
51.4474
51.3169
51.1678
51.0011
50.818
50.6195
50.4065
50.1799
49.9407
49.6897
49.4276
49.1552
48.8732
48.5823
48.2832
47.9763
47.6623
47.3417
47.015
46.6826
46.3449
46.0024
45.6554
45.3042
44.9493
44.5907
44.2289
43.8641
43.4965
43.1262
42.7536
42.3787
42.0018
41.6229
41.2422
40.8598
40.4758
40.0904
39.7035
39.3153
38.9258
38.535
38.1431
37.75
37.3559
36.9606
36.5643
36.167
35.7686
35.3692
34.9688
34.5674
34.165
33.7616
33.3573
32.9519
32.5455
32.1382
31.7298
31.3205
30.9102
30.4989
30.0866
29.6734
29.2593
28.8442
28.4282
28.0113
27.5936
27.1751
26.7558
26.3357
25.9149
25.4936
25.0716
24.6491
24.2261
23.8028
23.3792
22.9554
22.5314
22.1075
21.6836
21.2599
20.8365
20.4135
19.9911
19.5693
19.1484
18.7284
18.3095
17.8918
17.4755
17.0608
16.6477
16.2365
15.8273
15.4203
15.0156
14.6134
14.2138
13.8171
13.4233
13.0327
12.6454
12.2615
11.8812
11.5047
11.132
10.7634
10.399
10.0389
9.68324
9.3322
8.98588
8.64443
8.30799
7.9767
7.65072
7.33022
7.01536
6.70636
6.40343
6.10684
5.81689
5.534
5.25869
4.99164
4.73377
4.48634
4.25112
4.03063
3.82866
3.65115
3.50814
3.41847
3.42191
3.6233
4.42985
9.3434
29.4061
15.1443
13.1582
13.0003
13.4522
14.194
15.0999
16.1074
17.1809
18.298
19.4438
20.6078
21.7826
22.9625
24.1434
25.3216
26.4945
27.6595
28.8144
29.957
31.0853
32.1972
33.2908
34.364
35.4148
36.4413
37.4415
38.4134
39.3555
40.2658
41.143
41.9855
42.792
43.5614
44.2929
44.9855
45.6388
46.2523
46.8258
47.3593
47.8529
48.307
48.7219
49.0983
49.4368
49.7384
50.0037
50.2338
50.4295
50.5921
50.7225
50.8219
50.8916
50.9328
50.9467
50.9346
50.8977
50.8372
50.7544
50.6504
50.5264
50.3835
50.2228
50.0454
49.8523
49.6445
49.4229
49.1883
48.9417
48.6838
48.4155
48.1374
47.8502
47.5546
47.2511
46.9405
46.6231
46.2996
45.9703
45.6357
45.2962
44.9523
44.6042
44.2524
43.897
43.5384
43.1768
42.8125
42.4457
42.0767
41.7055
41.3323
40.9574
40.5808
40.2026
39.8231
39.4422
39.06
38.6767
38.2924
37.907
37.5206
37.1333
36.7451
36.356
35.9661
35.5754
35.1839
34.7916
34.3985
34.0047
33.6101
33.2148
32.8187
32.4219
32.0243
31.626
31.2269
30.8271
30.4265
30.0252
29.6231
29.2203
28.8169
28.4127
28.0078
27.6022
27.196
26.7892
26.3818
25.9738
25.5654
25.1564
24.7471
24.3373
23.9273
23.517
23.1066
22.696
22.2855
21.875
21.4647
21.0546
20.6449
20.2356
19.8269
19.419
19.0118
18.6056
18.2004
17.7964
17.3938
16.9926
16.5931
16.1953
15.7994
15.4056
15.0139
14.6247
14.2379
13.8538
13.4725
13.0941
12.7189
12.3469
11.9784
11.6133
11.252
10.8945
10.541
10.1917
9.84656
9.50587
9.16972
8.83828
8.51169
8.19011
7.87371
7.56268
7.25722
6.95755
6.66392
6.37665
6.09606
5.8226
5.5568
5.29933
5.05107
4.81319
4.58723
4.37537
4.18068
4.00776
3.86382
3.76101
3.72202
3.79505
4.10729
5.15265
11.1634
29.4064
15.1442
13.158
13.0001
13.452
14.1938
15.0997
16.1071
17.1806
18.2978
19.4435
20.6076
21.7824
22.9623
24.1432
25.3214
26.4943
27.6593
28.8142
29.9568
31.0851
32.197
33.2906
34.3638
35.4146
36.4411
37.4413
38.4133
39.3553
40.2657
41.1428
41.9853
42.7918
43.5613
44.2927
44.9854
45.6386
46.2522
46.8257
47.3592
47.8528
48.3069
48.7218
49.0982
49.4368
49.7383
50.0037
50.2337
50.4295
50.592
50.7224
50.8219
50.8916
50.9327
50.9467
50.9345
50.8976
50.8371
50.7543
50.6503
50.5263
50.3834
50.2228
50.0454
49.8523
49.6445
49.4228
49.1883
48.9417
48.6838
48.4154
48.1373
47.8501
47.5545
47.2511
46.9405
46.6231
46.2995
45.9702
45.6357
45.2962
44.9523
44.6042
44.2523
43.897
43.5383
43.1768
42.8125
42.4457
42.0766
41.7054
41.3323
40.9574
40.5807
40.2026
39.823
39.4421
39.06
38.6767
38.2924
37.9069
37.5206
37.1333
36.7451
36.356
35.9661
35.5754
35.1839
34.7916
34.3985
34.0047
33.6101
33.2148
32.8187
32.4219
32.0243
31.626
31.2269
30.8271
30.4265
30.0252
29.6231
29.2203
28.8168
28.4126
28.0078
27.6022
27.196
26.7892
26.3818
25.9738
25.5653
25.1564
24.747
24.3373
23.9273
23.517
23.1066
22.696
22.2855
21.875
21.4646
21.0546
20.6449
20.2356
19.8269
19.419
19.0118
18.6055
18.2004
17.7964
17.3938
16.9926
16.5931
16.1953
15.7994
15.4056
15.0139
14.6247
14.2379
13.8538
13.4725
13.0941
12.7189
12.3469
11.9784
11.6133
11.252
10.8945
10.541
10.1917
9.84656
9.50587
9.16972
8.83828
8.51169
8.19011
7.87371
7.56268
7.25722
6.95755
6.66393
6.37665
6.09607
5.82261
5.5568
5.29933
5.05107
4.81319
4.58723
4.37537
4.18068
4.00776
3.86382
3.76101
3.72202
3.79505
4.1073
5.15268
11.1634
34.4902
17.5758
15.0739
14.7158
15.0658
15.748
16.6151
17.5948
18.6457
19.742
20.8664
22.0071
23.1556
24.3057
25.4528
26.5934
27.7248
28.8446
29.951
31.0421
32.1164
33.1722
34.2079
35.2221
36.2131
37.1793
38.1192
39.0312
39.9139
40.7659
41.5858
42.3724
43.1245
43.8413
44.5218
45.1654
45.7715
46.3398
46.8702
47.3624
47.8168
48.2335
48.6128
48.9555
49.2621
49.5332
49.7698
49.9727
50.1428
50.2811
50.3887
50.4667
50.5163
50.5385
50.5347
50.5059
50.4533
50.3781
50.2816
50.1647
50.0287
49.8746
49.7034
49.5162
49.3139
49.0975
48.8679
48.6259
48.3724
48.1082
47.8339
47.5504
47.2582
46.9579
46.6503
46.3358
46.0149
45.6881
45.356
45.0189
44.6772
44.3313
43.9816
43.6283
43.2718
42.9123
42.5501
42.1854
41.8184
41.4494
41.0785
40.7058
40.3315
39.9558
39.5788
39.2005
38.8211
38.4407
38.0593
37.677
37.2939
36.91
36.5253
36.1399
35.7539
35.3672
34.9799
34.5919
34.2034
33.8143
33.4246
33.0343
32.6435
32.2521
31.8601
31.4676
31.0745
30.6808
30.2866
29.8918
29.4965
29.1006
28.7041
28.3072
27.9097
27.5117
27.1132
26.7142
26.3148
25.915
25.5148
25.1143
24.7135
24.3124
23.9111
23.5097
23.1081
22.7066
22.3051
21.9038
21.5026
21.1018
20.7013
20.3013
19.9019
19.5032
19.1053
18.7083
18.3123
17.9174
17.5238
17.1316
16.741
16.352
15.9647
15.5795
15.1963
14.8153
14.4366
14.0605
13.6869
13.3162
12.9484
12.5837
12.2221
11.864
11.5093
11.1583
10.811
10.4677
10.1284
9.79338
9.4627
9.13654
8.81507
8.49844
8.18685
7.88048
7.57956
7.28432
6.99503
6.71202
6.43563
6.16632
5.90462
5.65116
5.4068
5.17257
4.94987
4.74054
4.54715
4.37331
4.22443
4.10895
4.04116
4.04755
4.1849
4.60285
5.8826
12.9909
34.4905
17.5756
15.0737
14.7156
15.0656
15.7477
16.6149
17.5946
18.6455
19.7418
20.8662
22.0069
23.1554
24.3055
25.4526
26.5932
27.7245
28.8444
29.9508
31.0419
32.1162
33.172
34.2078
35.2219
36.2129
37.1791
38.119
39.0311
39.9138
40.7658
41.5856
42.3722
43.1244
43.8411
44.5216
45.1652
45.7714
46.3397
46.8701
47.3623
47.8167
48.2334
48.6128
48.9554
49.262
49.5332
49.7698
49.9726
50.1427
50.2811
50.3887
50.4667
50.5162
50.5385
50.5346
50.5058
50.4532
50.3781
50.2815
50.1647
50.0286
49.8745
49.7033
49.5161
49.3139
49.0975
48.8679
48.6259
48.3724
48.1082
47.8339
47.5503
47.2581
46.9579
46.6503
46.3357
46.0149
45.6881
45.356
45.0189
44.6772
44.3313
43.9816
43.6283
43.2718
42.9123
42.5501
42.1854
41.8184
41.4494
41.0784
40.7058
40.3315
39.9558
39.5788
39.2005
38.8211
38.4407
38.0593
37.677
37.2939
36.9099
36.5253
36.1399
35.7539
35.3672
34.9799
34.5919
34.2034
33.8143
33.4246
33.0343
32.6435
32.2521
31.8601
31.4676
31.0745
30.6808
30.2866
29.8918
29.4965
29.1006
28.7041
28.3072
27.9097
27.5117
27.1132
26.7142
26.3148
25.915
25.5148
25.1143
24.7134
24.3124
23.9111
23.5097
23.1081
22.7066
22.3051
21.9038
21.5026
21.1018
20.7013
20.3013
19.9019
19.5032
19.1053
18.7083
18.3123
17.9174
17.5238
17.1316
16.741
16.352
15.9647
15.5795
15.1963
14.8153
14.4366
14.0605
13.6869
13.3162
12.9484
12.5837
12.2221
11.864
11.5093
11.1583
10.811
10.4677
10.1284
9.79338
9.4627
9.13654
8.81507
8.49844
8.18685
7.88048
7.57956
7.28432
6.99503
6.71202
6.43564
6.16633
5.90462
5.65117
5.4068
5.17257
4.94987
4.74054
4.54715
4.37331
4.22443
4.10895
4.04116
4.04755
4.18491
4.60285
5.88263
12.9909
39.7407
20.1091
17.097
16.5498
16.8092
17.4423
18.2803
19.2403
20.2757
21.3573
22.4657
23.5877
24.714
25.8379
26.9546
28.0606
29.1532
30.2304
31.2907
32.3326
33.3549
34.3565
35.3363
36.2931
37.2258
38.1333
39.0144
39.8679
40.6926
41.4874
42.2511
42.9829
43.6818
44.3468
44.9774
45.5729
46.1328
46.6569
47.1449
47.5968
48.0127
48.3928
48.7376
49.0473
49.3228
49.5645
49.7733
49.9499
50.0953
50.2104
50.2961
50.3536
50.3839
50.3881
50.3674
50.3228
50.2554
50.1665
50.057
49.9281
49.7808
49.6162
49.4353
49.239
49.0283
48.804
48.5671
48.3183
48.0586
47.7885
47.5088
47.2203
46.9235
46.619
46.3075
45.9894
45.6653
45.3357
45.0009
44.6614
44.3176
43.9698
43.6184
43.2637
42.9059
42.5454
42.1824
41.8171
41.4497
41.0804
40.7094
40.3368
39.9628
39.5875
39.211
38.8335
38.455
38.0756
37.6954
37.3144
36.9328
36.5505
36.1676
35.7841
35.4001
35.0156
34.6307
34.2452
33.8593
33.473
33.0862
32.699
32.3113
31.9232
31.5347
31.1458
30.7565
30.3667
29.9765
29.5859
29.1949
28.8035
28.4117
28.0194
27.6268
27.2339
26.8406
26.4469
26.053
25.6587
25.2643
24.8696
24.4747
24.0798
23.6847
23.2896
22.8946
22.4996
22.1049
21.7103
21.3161
20.9222
20.5288
20.136
19.7439
19.3525
18.9619
18.5724
18.1839
17.7966
17.4106
17.026
16.643
16.2616
15.8821
15.5044
15.1289
14.7555
14.3845
14.0159
13.6499
13.2867
12.9263
12.5689
12.2147
11.8638
11.5163
11.1724
10.8322
10.4958
10.1635
9.83527
9.51141
9.19203
8.87731
8.56745
8.26263
7.9631
7.66909
7.38089
7.09881
6.82323
6.55458
6.29337
6.04024
5.79595
5.56148
5.33805
5.12727
4.93128
4.753
4.59661
4.46828
4.37775
4.34139
4.38965
4.58785
5.10857
6.62168
14.831
39.741
20.1089
17.0968
16.5496
16.809
17.4421
18.28
19.2401
20.2755
21.357
22.4654
23.5875
24.7138
25.8377
26.9544
28.0604
29.153
30.2302
31.2905
32.3324
33.3547
34.3563
35.3361
36.2929
37.2257
38.1332
39.0143
39.8677
40.6924
41.4872
42.251
42.9828
43.6816
44.3467
44.9773
45.5728
46.1327
46.6568
47.1448
47.5967
48.0126
48.3927
48.7375
49.0473
49.3227
49.5644
49.7732
49.9498
50.0952
50.2103
50.2961
50.3536
50.3839
50.3881
50.3673
50.3227
50.2554
50.1664
50.057
49.9281
49.7808
49.6162
49.4353
49.239
49.0282
48.804
48.5671
48.3183
48.0585
47.7885
47.5088
47.2203
46.9235
46.619
46.3075
45.9894
45.6653
45.3356
45.0009
44.6614
44.3175
43.9698
43.6184
43.2637
42.9059
42.5454
42.1824
41.8171
41.4497
41.0804
40.7094
40.3368
39.9628
39.5875
39.211
38.8335
38.455
38.0756
37.6954
37.3144
36.9328
36.5505
36.1676
35.7841
35.4001
35.0156
34.6307
34.2452
33.8593
33.4729
33.0862
32.6989
32.3113
31.9232
31.5347
31.1458
30.7565
30.3667
29.9765
29.5859
29.1949
28.8035
28.4116
28.0194
27.6268
27.2339
26.8405
26.4469
26.0529
25.6587
25.2643
24.8696
24.4747
24.0797
23.6847
23.2896
22.8946
22.4996
22.1048
21.7103
21.3161
20.9222
20.5288
20.136
19.7439
19.3525
18.9619
18.5724
18.1839
17.7966
17.4106
17.026
16.643
16.2616
15.8821
15.5044
15.1289
14.7555
14.3845
14.0159
13.6499
13.2867
12.9263
12.5689
12.2147
11.8638
11.5163
11.1724
10.8322
10.4958
10.1635
9.83527
9.51141
9.19203
8.87731
8.56745
8.26264
7.9631
7.66909
7.38089
7.09881
6.82323
6.55458
6.29337
6.04024
5.79595
5.56148
5.33805
5.12727
4.93128
4.753
4.59661
4.46829
4.37775
4.34139
4.38966
4.58786
5.10858
6.62171
14.831
45.1856
22.7504
19.2279
18.4986
18.6754
19.2665
20.0812
21.0265
22.0502
23.1199
24.2144
25.3193
26.4244
27.5228
28.6094
29.6808
30.7346
31.7689
32.7827
33.775
34.7449
35.6918
36.6152
37.5142
38.3883
39.2366
40.0584
40.8529
41.6192
42.3564
43.0638
43.7404
44.3856
44.9987
45.5791
46.1262
46.6397
47.1193
47.5648
47.9762
48.3536
48.6971
49.0072
49.2841
49.5285
49.7409
49.9221
50.0727
50.1936
50.2857
50.35
50.3873
50.3988
50.3854
50.3482
50.2883
50.2067
50.1044
49.9826
49.8422
49.6843
49.5097
49.3196
49.1148
48.8962
48.6646
48.421
48.1661
47.9006
47.6252
47.3407
47.0478
46.7469
46.4387
46.1238
45.8027
45.4758
45.1437
44.8066
44.4652
44.1196
43.7703
43.4175
43.0617
42.703
42.3417
41.9781
41.6123
41.2446
40.8752
40.5042
40.1318
39.7581
39.3832
39.0073
38.6304
38.2527
37.8742
37.495
37.1152
36.7348
36.3539
35.9725
35.5906
35.2083
34.8256
34.4426
34.0592