/*--------------------------------*- C++ -*----------------------------------*\
  =========                 |
  \\      /  F ield         | OpenFOAM: The Open Source CFD Toolbox
   \\    /   O peration     | Website:  https://openfoam.org
    \\  /    A nd           | Version:  8
     \\/     M anipulation  |
\*---------------------------------------------------------------------------*/
FoamFile
{
    version     2.0;
    format      ascii;
    class       volScalarField;
    location    "3200";
    object      k;
}
// * * * * * * * * * * * * * * * * * * * * * * * * * * * * * * * * * * * * * //

dimensions      [0 2 -2 0 0 0 0];

internalField   nonuniform List<scalar> 
48000
(
0.0263182
0.0662916
0.101844
0.132909
0.1621
0.188862
0.213696
0.237084
0.259847
0.281579
0.302563
0.322867
0.342548
0.361649
0.380203
0.398234
0.415757
0.432784
0.449321
0.465371
0.480937
0.496018
0.510614
0.524722
0.538342
0.551473
0.564113
0.576262
0.587922
0.599093
0.609777
0.619979
0.6297
0.638948
0.647727
0.656044
0.663907
0.671322
0.6783
0.68485
0.69098
0.6967
0.702019
0.706949
0.711577
0.715857
0.719781
0.72336
0.726605
0.729528
0.732144
0.734463
0.736499
0.738262
0.739765
0.741018
0.742032
0.742819
0.743388
0.743748
0.743911
0.743884
0.743677
0.743298
0.742755
0.742055
0.741207
0.740218
0.739093
0.737839
0.736463
0.73497
0.733365
0.731653
0.72984
0.72793
0.725927
0.723835
0.721658
0.719399
0.717061
0.714649
0.712163
0.709608
0.706986
0.704298
0.701547
0.698735
0.695863
0.692933
0.689947
0.686905
0.68381
0.680661
0.677461
0.674209
0.670906
0.667554
0.664152
0.6607
0.6572
0.653652
0.650055
0.646409
0.642715
0.638973
0.635183
0.631343
0.627455
0.623518
0.619531
0.615494
0.611407
0.60727
0.603082
0.598842
0.59455
0.590206
0.585809
0.581358
0.576854
0.572295
0.567681
0.563012
0.558287
0.553506
0.548668
0.543772
0.538819
0.533808
0.528739
0.523612
0.518425
0.513179
0.507875
0.502511
0.497088
0.491605
0.486063
0.480462
0.474803
0.469084
0.463307
0.457472
0.451579
0.44563
0.439623
0.433561
0.427444
0.421272
0.415046
0.408768
0.402437
0.396056
0.389624
0.383144
0.376616
0.370041
0.363421
0.356756
0.350047
0.343296
0.336505
0.329673
0.322801
0.315892
0.308945
0.301962
0.294943
0.287888
0.280797
0.273671
0.26651
0.259313
0.252078
0.244805
0.237492
0.230137
0.222736
0.215288
0.207794
0.200257
0.192717
0.185117
0.177417
0.169607
0.161665
0.153567
0.145285
0.136782
0.128009
0.118906
0.109487
0.0995974
0.0890586
0.0776361
0.0649466
0.0502726
0.031856
0.0207469
0.026319
0.0662938
0.101845
0.13291
0.162101
0.188863
0.213698
0.237086
0.259848
0.28158
0.302564
0.322869
0.342549
0.36165
0.380204
0.398235
0.415758
0.432785
0.449322
0.465372
0.480938
0.496019
0.510614
0.524723
0.538343
0.551473
0.564113
0.576263
0.587922
0.599093
0.609778
0.619979
0.629701
0.638948
0.647727
0.656044
0.663907
0.671323
0.678301
0.68485
0.69098
0.6967
0.70202
0.70695
0.711577
0.715857
0.719781
0.72336
0.726605
0.729528
0.732144
0.734463
0.736499
0.738262
0.739765
0.741018
0.742032
0.742819
0.743388
0.743748
0.743911
0.743884
0.743677
0.743298
0.742755
0.742055
0.741207
0.740217
0.739093
0.737839
0.736463
0.73497
0.733365
0.731653
0.72984
0.72793
0.725927
0.723835
0.721658
0.719399
0.717061
0.714649
0.712163
0.709608
0.706986
0.704298
0.701547
0.698734
0.695863
0.692933
0.689947
0.686905
0.68381
0.680661
0.677461
0.674209
0.670906
0.667554
0.664151
0.6607
0.6572
0.653652
0.650055
0.646409
0.642715
0.638973
0.635183
0.631343
0.627455
0.623518
0.619531
0.615494
0.611407
0.60727
0.603082
0.598842
0.59455
0.590206
0.585809
0.581358
0.576854
0.572295
0.567681
0.563012
0.558287
0.553506
0.548668
0.543772
0.538819
0.533808
0.528739
0.523611
0.518425
0.513179
0.507875
0.502511
0.497088
0.491605
0.486063
0.480462
0.474803
0.469084
0.463307
0.457472
0.451579
0.44563
0.439623
0.433561
0.427444
0.421272
0.415046
0.408768
0.402437
0.396056
0.389624
0.383144
0.376616
0.370041
0.363421
0.356756
0.350047
0.343296
0.336505
0.329673
0.322801
0.315892
0.308945
0.301962
0.294943
0.287888
0.280797
0.273671
0.26651
0.259313
0.252078
0.244805
0.237492
0.230137
0.222736
0.215289
0.207794
0.200257
0.192717
0.185117
0.177417
0.169607
0.161665
0.153567
0.145285
0.136782
0.128009
0.118906
0.109487
0.0995975
0.0890587
0.0776362
0.0649468
0.0502726
0.0318549
0.0207462
0.067201
0.169857
0.242216
0.306077
0.364631
0.419695
0.471826
0.521524
0.569309
0.615443
0.660139
0.703549
0.745782
0.786916
0.827006
0.866086
0.904178
0.941293
0.977433
1.0126
1.04677
1.07996
1.11214
1.14329
1.17342
1.20251
1.23055
1.25753
1.28344
1.30829
1.33208
1.3548
1.37646
1.39707
1.41664
1.43517
1.45269
1.46921
1.48475
1.49932
1.51296
1.52567
1.53748
1.54841
1.5585
1.56778
1.57627
1.584
1.59099
1.59727
1.60287
1.60781
1.61212
1.61584
1.61897
1.62156
1.62362
1.62517
1.62624
1.62686
1.62703
1.6268
1.62616
1.62515
1.62377
1.62206
1.62001
1.61766
1.61501
1.61208
1.60889
1.60543
1.60174
1.59781
1.59366
1.58931
1.58475
1.57999
1.57506
1.56995
1.56467
1.55922
1.55362
1.54787
1.54198
1.53595
1.52978
1.52348
1.51705
1.5105
1.50383
1.49704
1.49014
1.48312
1.476
1.46876
1.46142
1.45397
1.44642
1.43877
1.43101
1.42314
1.41518
1.40711
1.39895
1.39067
1.3823
1.37383
1.36525
1.35657
1.34778
1.33889
1.32989
1.32079
1.31157
1.30225
1.29282
1.28328
1.27363
1.26387
1.25399
1.244
1.23389
1.22366
1.21332
1.20286
1.19227
1.18157
1.17075
1.1598
1.14873
1.13754
1.12622
1.11478
1.10322
1.09153
1.07971
1.06777
1.05571
1.04352
1.03121
1.01878
1.00622
0.993543
0.980745
0.967828
0.954792
0.941641
0.928374
0.914994
0.901503
0.887902
0.874193
0.86038
0.846463
0.832446
0.81833
0.804118
0.789814
0.775418
0.760934
0.746364
0.73171
0.716975
0.702161
0.68727
0.672303
0.657263
0.64215
0.626966
0.61171
0.596384
0.580985
0.565513
0.549966
0.534341
0.518633
0.502838
0.486949
0.470957
0.454854
0.438629
0.422269
0.405744
0.389014
0.372079
0.354895
0.337415
0.319586
0.301339
0.282585
0.263209
0.243049
0.221958
0.199664
0.175782
0.14973
0.120487
0.085493
0.0331616
0.0672036
0.169858
0.242217
0.306078
0.364632
0.419696
0.471827
0.521525
0.569309
0.615443
0.660139
0.703549
0.745783
0.786917
0.827006
0.866086
0.904178
0.941293
0.977433
1.0126
1.04677
1.07996
1.11213
1.14329
1.17342
1.20251
1.23055
1.25753
1.28344
1.30829
1.33208
1.3548
1.37646
1.39707
1.41664
1.43517
1.45269
1.46921
1.48475
1.49932
1.51295
1.52566
1.53748
1.54841
1.5585
1.56778
1.57627
1.58399
1.59099
1.59727
1.60286
1.60781
1.61212
1.61584
1.61897
1.62156
1.62361
1.62517
1.62624
1.62686
1.62703
1.62679
1.62616
1.62514
1.62377
1.62205
1.62001
1.61766
1.61501
1.61208
1.60888
1.60543
1.60174
1.59781
1.59366
1.58931
1.58475
1.57999
1.57506
1.56995
1.56466
1.55922
1.55362
1.54787
1.54198
1.53594
1.52978
1.52348
1.51705
1.5105
1.50383
1.49704
1.49014
1.48312
1.476
1.46876
1.46142
1.45397
1.44642
1.43876
1.431
1.42314
1.41518
1.40711
1.39894
1.39067
1.3823
1.37383
1.36525
1.35656
1.34778
1.33889
1.32989
1.32079
1.31157
1.30225
1.29282
1.28328
1.27363
1.26387
1.25399
1.244
1.23389
1.22366
1.21332
1.20285
1.19227
1.18157
1.17074
1.1598
1.14873
1.13754
1.12622
1.11478
1.10321
1.09153
1.07971
1.06777
1.05571
1.04352
1.03121
1.01878
1.00622
0.993542
0.980744
0.967827
0.954792
0.94164
0.928373
0.914993
0.901502
0.887901
0.874193
0.860379
0.846462
0.832445
0.818329
0.804118
0.789813
0.775417
0.760933
0.746363
0.731709
0.716974
0.70216
0.687269
0.672302
0.657262
0.64215
0.626965
0.61171
0.596383
0.580984
0.565513
0.549966
0.534341
0.518633
0.502838
0.486948
0.470957
0.454854
0.438629
0.422268
0.405744
0.389014
0.372079
0.354894
0.337415
0.319586
0.301338
0.282584
0.263208
0.243048
0.221958
0.199663
0.175782
0.14973
0.120487
0.0854932
0.0331649
0.101644
0.24224
0.332982
0.410582
0.48189
0.549288
0.613697
0.675635
0.735472
0.793457
0.849779
0.904577
0.957956
1.00999
1.06074
1.11024
1.1585
1.20555
1.25137
1.29597
1.33933
1.38144
1.42228
1.46184
1.50011
1.53706
1.57269
1.60698
1.63993
1.67153
1.70178
1.73067
1.75822
1.78444
1.80932
1.83289
1.85517
1.87617
1.89591
1.91442
1.93173
1.94786
1.96284
1.9767
1.98948
2.00122
2.01195
2.0217
2.0305
2.03839
2.04541
2.05159
2.05695
2.06155
2.0654
2.06855
2.07102
2.07284
2.07404
2.07466
2.07472
2.07424
2.07326
2.07179
2.06986
2.0675
2.06472
2.06154
2.05798
2.05407
2.04982
2.04524
2.04035
2.03517
2.02971
2.02398
2.018
2.01177
2.00531
1.99863
1.99173
1.98463
1.97734
1.96985
1.96219
1.95435
1.94634
1.93816
1.92983
1.92134
1.9127
1.90392
1.89499
1.88592
1.87672
1.86738
1.8579
1.8483
1.83857
1.8287
1.81871
1.80859
1.79835
1.78797
1.77748
1.76685
1.7561
1.74522
1.73422
1.72308
1.71182
1.70043
1.6889
1.67725
1.66546
1.65353
1.64147
1.62928
1.61694
1.60447
1.59186
1.5791
1.5662
1.55315
1.53996
1.52663
1.51314
1.4995
1.48572
1.47178
1.45769
1.44345
1.42906
1.41451
1.3998
1.38495
1.36993
1.35477
1.33945
1.32398
1.30835
1.29257
1.27664
1.26056
1.24434
1.22796
1.21144
1.19477
1.17797
1.16102
1.14394
1.12672
1.10937
1.09189
1.07428
1.05655
1.0387
1.02073
1.00264
0.984447
0.966142
0.947733
0.929221
0.910609
0.891901
0.873099
0.854204
0.83522
0.816148
0.796988
0.777741
0.758408
0.738987
0.719478
0.699877
0.680182
0.660386
0.640485
0.620469
0.600331
0.580056
0.559632
0.539039
0.518251
0.497237
0.475966
0.454392
0.432471
0.410149
0.387345
0.363967
0.339891
0.314955
0.288968
0.261659
0.232611
0.201139
0.165852
0.122564
0.05236
0.101645
0.242242
0.332983
0.410582
0.481891
0.549288
0.613697
0.675635
0.735472
0.793457
0.849778
0.904576
0.957956
1.00999
1.06074
1.11024
1.1585
1.20554
1.25137
1.29596
1.33932
1.38144
1.42228
1.46184
1.50011
1.53706
1.57269
1.60698
1.63993
1.67153
1.70177
1.73067
1.75822
1.78443
1.80932
1.83289
1.85517
1.87616
1.89591
1.91442
1.93173
1.94786
1.96284
1.9767
1.98948
2.00122
2.01195
2.0217
2.0305
2.03839
2.04541
2.05158
2.05695
2.06155
2.0654
2.06855
2.07101
2.07284
2.07404
2.07466
2.07472
2.07424
2.07326
2.07179
2.06986
2.0675
2.06471
2.06154
2.05798
2.05407
2.04981
2.04524
2.04035
2.03517
2.02971
2.02398
2.01799
2.01177
2.00531
1.99863
1.99173
1.98463
1.97734
1.96985
1.96219
1.95434
1.94633
1.93816
1.92983
1.92134
1.9127
1.90392
1.89499
1.88592
1.87672
1.86738
1.8579
1.8483
1.83856
1.8287
1.81871
1.80859
1.79835
1.78797
1.77748
1.76685
1.7561
1.74522
1.73422
1.72308
1.71182
1.70042
1.6889
1.67724
1.66546
1.65353
1.64147
1.62928
1.61694
1.60447
1.59185
1.5791
1.5662
1.55315
1.53996
1.52662
1.51314
1.4995
1.48572
1.47178
1.45769
1.44345
1.42905
1.41451
1.3998
1.38495
1.36993
1.35477
1.33945
1.32398
1.30835
1.29257
1.27664
1.26056
1.24433
1.22796
1.21144
1.19477
1.17797
1.16102
1.14394
1.12672
1.10937
1.09189
1.07428
1.05655
1.0387
1.02073
1.00264
0.984446
0.966141
0.947732
0.92922
0.910608
0.8919
0.873098
0.854204
0.835219
0.816147
0.796987
0.77774
0.758407
0.738987
0.719477
0.699877
0.680181
0.660386
0.640484
0.620469
0.60033
0.580056
0.559632
0.539038
0.51825
0.497237
0.475965
0.454391
0.432471
0.410149
0.387345
0.363967
0.339891
0.314955
0.288968
0.261659
0.232611
0.201139
0.165852
0.122563
0.0523599
0.130571
0.30394
0.409581
0.49719
0.577393
0.653279
0.726047
0.796278
0.864313
0.930377
0.99463
1.05719
1.11815
1.17759
1.23554
1.29205
1.34713
1.40081
1.45308
1.50393
1.55337
1.60138
1.64794
1.69303
1.73665
1.77878
1.81939
1.85849
1.89606
1.9321
1.9666
1.99957
2.031
2.06091
2.08931
2.11622
2.14164
2.16561
2.18814
2.20927
2.22902
2.24742
2.2645
2.28031
2.29488
2.30825
2.32046
2.33154
2.34154
2.35049
2.35843
2.3654
2.37144
2.37659
2.38089
2.38437
2.38707
2.38903
2.39027
2.39084
2.39076
2.39007
2.38879
2.38695
2.38458
2.38171
2.37836
2.37455
2.37032
2.36566
2.36062
2.3552
2.34943
2.34332
2.33689
2.33016
2.32313
2.31582
2.30825
2.30042
2.29235
2.28404
2.27552
2.26677
2.25782
2.24867
2.23932
2.22979
2.22008
2.2102
2.20014
2.18992
2.17953
2.16899
2.15829
2.14743
2.13643
2.12528
2.11398
2.10254
2.09095
2.07922
2.06734
2.05532
2.04316
2.03086
2.01842
2.00583
1.9931
1.98022
1.9672
1.95403
1.94072
1.92726
1.91364
1.89988
1.88596
1.87189
1.85766
1.84328
1.82874
1.81404
1.79918
1.78415
1.76896
1.75361
1.73808
1.72239
1.70654
1.69051
1.67431
1.65794
1.64139
1.62468
1.60779
1.59072
1.57349
1.55608
1.5385
1.52074
1.50281
1.48472
1.46645
1.44801
1.42941
1.41064
1.39171
1.37262
1.35337
1.33396
1.3144
1.29468
1.27482
1.25481
1.23466
1.21438
1.19395
1.1734
1.15271
1.1319
1.11097
1.08993
1.06876
1.04749
1.02611
1.00462
0.983032
0.961342
0.939553
0.917667
0.895684
0.873605
0.851429
0.829155
0.806779
0.7843
0.76171
0.739005
0.716175
0.693211
0.6701
0.646826
0.623369
0.599706
0.575806
0.551636
0.527153
0.502308
0.477041
0.451272
0.42492
0.39786
0.369933
0.340926
0.310559
0.278364
0.243501
0.204093
0.154307
0.0680403
0.130572
0.303941
0.409582
0.49719
0.577393
0.653279
0.726047
0.796277
0.864313
0.930377
0.994629
1.05719
1.11815
1.17759
1.23554
1.29205
1.34713
1.40081
1.45308
1.50393
1.55337
1.60138
1.64794
1.69303
1.73665
1.77877
1.81939
1.85849
1.89606
1.9321
1.9666
1.99957
2.031
2.06091
2.08931
2.11622
2.14164
2.16561
2.18814
2.20927
2.22901
2.24742
2.2645
2.28031
2.29488
2.30825
2.32046
2.33154
2.34154
2.35048
2.35843
2.3654
2.37144
2.37659
2.38089
2.38437
2.38707
2.38902
2.39027
2.39084
2.39076
2.39006
2.38878
2.38695
2.38458
2.38171
2.37836
2.37455
2.37031
2.36566
2.36062
2.3552
2.34943
2.34332
2.33689
2.33016
2.32313
2.31582
2.30825
2.30042
2.29235
2.28404
2.27551
2.26677
2.25782
2.24867
2.23932
2.22979
2.22008
2.21019
2.20014
2.18991
2.17953
2.16899
2.15829
2.14743
2.13643
2.12528
2.11398
2.10254
2.09095
2.07921
2.06734
2.05532
2.04316
2.03086
2.01842
2.00583
1.9931
1.98022
1.9672
1.95403
1.94072
1.92725
1.91364
1.89988
1.88596
1.87189
1.85766
1.84328
1.82874
1.81404
1.79917
1.78415
1.76896
1.7536
1.73808
1.72239
1.70653
1.69051
1.67431
1.65793
1.64139
1.62468
1.60779
1.59072
1.57349
1.55608
1.53849
1.52074
1.50281
1.48472
1.46645
1.44801
1.42941
1.41064
1.39171
1.37262
1.35337
1.33396
1.3144
1.29468
1.27482
1.25481
1.23466
1.21437
1.19395
1.1734
1.15271
1.1319
1.11097
1.08993
1.06876
1.04749
1.02611
1.00462
0.983031
0.961341
0.939552
0.917666
0.895684
0.873605
0.851429
0.829154
0.806779
0.784299
0.76171
0.739004
0.716174
0.69321
0.670099
0.646825
0.623369
0.599705
0.575806
0.551635
0.527152
0.502308
0.477041
0.451272
0.42492
0.39786
0.369933
0.340926
0.310559
0.278364
0.243501
0.204093
0.154307
0.0680402
0.156595
0.359592
0.479498
0.576683
0.664785
0.747875
0.827526
0.904458
0.979047
1.05152
1.12201
1.19065
1.2575
1.32264
1.38611
1.44795
1.50819
1.56683
1.6239
1.6794
1.73331
1.78564
1.83637
1.8855
1.933
1.97887
2.0231
2.06568
2.10659
2.14584
2.18343
2.21934
2.25359
2.28619
2.31715
2.34648
2.37421
2.40035
2.42493
2.44797
2.46952
2.48959
2.50824
2.52548
2.54138
2.55595
2.56926
2.58133
2.59221
2.60194
2.61056
2.61812
2.62465
2.63021
2.63483
2.63855
2.64141
2.64345
2.6447
2.64521
2.64501
2.64413
2.6426
2.64046
2.63774
2.63446
2.63065
2.62633
2.62154
2.6163
2.61062
2.60453
2.59805
2.5912
2.58399
2.57645
2.56858
2.56041
2.55195
2.5432
2.53419
2.52492
2.5154
2.50565
2.49567
2.48547
2.47506
2.46444
2.45363
2.44262
2.43143
2.42005
2.4085
2.39678
2.38488
2.37282
2.36059
2.3482
2.33565
2.32294
2.31008
2.29706
2.28388
2.27055
2.25706
2.24342
2.22962
2.21567
2.20156
2.18729
2.17287
2.15828
2.14354
2.12863
2.11357
2.09834
2.08294
2.06738
2.05164
2.03574
2.01967
2.00342
1.987
1.9704
1.95362
1.93667
1.91953
1.90221
1.88471
1.86702
1.84915
1.83109
1.81285
1.79441
1.77579
1.75699
1.73799
1.71881
1.69944
1.67988
1.66014
1.64021
1.6201
1.59981
1.57933
1.55868
1.53785
1.51685
1.49567
1.47432
1.45281
1.43113
1.40929
1.38729
1.36514
1.34284
1.32039
1.2978
1.27507
1.25221
1.22921
1.20609
1.18284
1.15947
1.13598
1.11238
1.08866
1.06484
1.04091
1.01687
0.992727
0.968481
0.94413
0.919673
0.895108
0.87043
0.845636
0.820719
0.795671
0.770481
0.745139
0.719627
0.693927
0.668016
0.641866
0.615444
0.58871
0.561615
0.534101
0.506093
0.4775
0.448201
0.418033
0.386774
0.354097
0.319458
0.281812
0.238775
0.182983
0.0819577
0.156597
0.359593
0.479498
0.576683
0.664785
0.747874
0.827526
0.904457
0.979046
1.05152
1.12201
1.19065
1.2575
1.32264
1.38611
1.44795
1.50819
1.56683
1.6239
1.6794
1.73331
1.78564
1.83637
1.8855
1.933
1.97887
2.0231
2.06568
2.10659
2.14584
2.18342
2.21934
2.25359
2.28619
2.31715
2.34648
2.37421
2.40035
2.42493
2.44797
2.46952
2.48959
2.50824
2.52548
2.54137
2.55595
2.56926
2.58133
2.5922
2.60193
2.61056
2.61812
2.62465
2.63021
2.63483
2.63855
2.64141
2.64345
2.6447
2.64521
2.64501
2.64413
2.6426
2.64046
2.63774
2.63445
2.63064
2.62633
2.62154
2.61629
2.61062
2.60453
2.59805
2.5912
2.58399
2.57645
2.56858
2.56041
2.55195
2.5432
2.53419
2.52492
2.5154
2.50565
2.49567
2.48547
2.47506
2.46444
2.45363
2.44262
2.43143
2.42005
2.4085
2.39678
2.38488
2.37282
2.36059
2.3482
2.33565
2.32294
2.31008
2.29706
2.28388
2.27055
2.25706
2.24342
2.22962
2.21566
2.20156
2.18729
2.17286
2.15828
2.14354
2.12863
2.11357
2.09834
2.08294
2.06738
2.05164
2.03574
2.01967
2.00342
1.987
1.9704
1.95362
1.93666
1.91953
1.90221
1.88471
1.86702
1.84915
1.83109
1.81284
1.79441
1.77579
1.75699
1.73799
1.71881
1.69944
1.67988
1.66014
1.64021
1.6201
1.59981
1.57933
1.55868
1.53785
1.51684
1.49567
1.47432
1.45281
1.43113
1.40929
1.38729
1.36514
1.34284
1.32039
1.2978
1.27507
1.25221
1.22921
1.20609
1.18284
1.15947
1.13598
1.11237
1.08866
1.06484
1.0409
1.01687
0.992726
0.96848
0.94413
0.919673
0.895107
0.87043
0.845636
0.820718
0.79567
0.770481
0.745138
0.719627
0.693927
0.668016
0.641866
0.615444
0.58871
0.561615
0.5341
0.506092
0.4775
0.448201
0.418033
0.386774
0.354097
0.319458
0.281812
0.238775
0.182983
0.0819577
0.180618
0.412206
0.545852
0.652481
0.748198
0.838007
0.923885
1.00673
1.087
1.16494
1.2407
1.31441
1.38612
1.45592
1.52385
1.58996
1.65427
1.71682
1.77762
1.83669
1.89403
1.94964
2.00352
2.05566
2.10607
2.15474
2.20165
2.2468
2.2902
2.33182
2.37169
2.40979
2.44613
2.48073
2.5136
2.54474
2.57419
2.60196
2.62808
2.65257
2.67548
2.69683
2.71665
2.735
2.7519
2.7674
2.78155
2.79438
2.80594
2.81627
2.82542
2.83344
2.84036
2.84623
2.8511
2.855
2.85798
2.86008
2.86134
2.8618
2.8615
2.86046
2.85874
2.85635
2.85333
2.84971
2.84553
2.8408
2.83556
2.82983
2.82363
2.817
2.80994
2.80248
2.79464
2.78643
2.77788
2.769
2.7598
2.7503
2.74051
2.73044
2.72011
2.70953
2.69869
2.68763
2.67633
2.66482
2.65309
2.64116
2.62903
2.6167
2.60417
2.59147
2.57858
2.56551
2.55226
2.53885
2.52525
2.51149
2.49756
2.48347
2.4692
2.45478
2.44018
2.42542
2.41049
2.3954
2.38014
2.36472
2.34912
2.33336
2.31742
2.30131
2.28503
2.26858
2.25195
2.23514
2.21815
2.20098
2.18362
2.16608
2.14836
2.13045
2.11235
2.09405
2.07557
2.05689
2.03802
2.01895
1.99968
1.98022
1.96056
1.94069
1.92063
1.90037
1.87991
1.85925
1.83839
1.81734
1.79608
1.77463
1.75298
1.73114
1.70911
1.68688
1.66447
1.64187
1.61909
1.59613
1.57299
1.54967
1.52619
1.50253
1.47871
1.45473
1.4306
1.40631
1.38187
1.35728
1.33256
1.30769
1.28269
1.25757
1.23231
1.20693
1.18143
1.15582
1.13009
1.10424
1.07828
1.05221
1.02602
0.999724
0.97331
0.946777
0.92012
0.893335
0.866413
0.839345
0.812119
0.78472
0.757131
0.729331
0.701291
0.672983
0.644366
0.615395
0.586011
0.556142
0.525695
0.494543
0.462516
0.429361
0.394689
0.357865
0.317632
0.27111
0.209556
0.0947208
0.180619
0.412207
0.545853
0.652481
0.748198
0.838006
0.923885
1.00673
1.087
1.16494
1.2407
1.3144
1.38612
1.45592
1.52385
1.58996
1.65427
1.71682
1.77762
1.83669
1.89403
1.94963
2.00352
2.05566
2.10607
2.15474
2.20165
2.2468
2.2902
2.33182
2.37169
2.40979
2.44613
2.48073
2.5136
2.54474
2.57419
2.60196
2.62808
2.65257
2.67548
2.69683
2.71665
2.735
2.7519
2.7674
2.78155
2.79438
2.80594
2.81627
2.82542
2.83344
2.84036
2.84623
2.85109
2.855
2.85798
2.86008
2.86134
2.8618
2.8615
2.86046
2.85873
2.85635
2.85333
2.84971
2.84553
2.8408
2.83556
2.82983
2.82363
2.817
2.80994
2.80248
2.79463
2.78643
2.77788
2.76899
2.7598
2.7503
2.74051
2.73044
2.72011
2.70952
2.69869
2.68763
2.67633
2.66482
2.65309
2.64116
2.62902
2.61669
2.60417
2.59147
2.57858
2.56551
2.55226
2.53884
2.52525
2.51149
2.49756
2.48347
2.4692
2.45477
2.44018
2.42542
2.41049
2.3954
2.38014
2.36471
2.34912
2.33335
2.31742
2.30131
2.28503
2.26858
2.25194
2.23513
2.21815
2.20097
2.18362
2.16608
2.14836
2.13045
2.11234
2.09405
2.07557
2.05689
2.03802
2.01895
1.99968
1.98022
1.96055
1.94069
1.92063
1.90037
1.87991
1.85925
1.83839
1.81734
1.79608
1.77463
1.75298
1.73114
1.70911
1.68688
1.66447
1.64187
1.61909
1.59613
1.57299
1.54967
1.52619
1.50253
1.47871
1.45473
1.4306
1.40631
1.38187
1.35728
1.33256
1.30769
1.28269
1.25757
1.23231
1.20693
1.18143
1.15582
1.13008
1.10424
1.07828
1.05221
1.02602
0.999723
0.973309
0.946776
0.92012
0.893335
0.866413
0.839345
0.812119
0.78472
0.757131
0.72933
0.701291
0.672982
0.644366
0.615395
0.586011
0.556142
0.525695
0.494543
0.462516
0.429361
0.394689
0.357865
0.317632
0.27111
0.209556
0.0947208
0.203434
0.462511
0.609963
0.726067
0.829335
0.925664
1.01744
1.10576
1.19117
1.27398
1.35436
1.43244
1.50831
1.58203
1.65367
1.72327
1.79089
1.85656
1.92031
1.98216
2.04214
2.10026
2.15653
2.21095
2.26352
2.31426
2.36315
2.41021
2.45542
2.49879
2.54033
2.58003
2.61791
2.65398
2.68825
2.72074
2.75147
2.78045
2.80772
2.8333
2.85723
2.87954
2.90026
2.91944
2.93712
2.95333
2.96813
2.98155
2.99363
3.00444
3.014
3.02237
3.02959
3.03571
3.04078
3.04482
3.0479
3.05006
3.05132
3.05174
3.05136
3.0502
3.04831
3.04572
3.04247
3.03858
3.03409
3.02903
3.02343
3.0173
3.01068
3.0036
2.99606
2.9881
2.97974
2.97099
2.96187
2.9524
2.9426
2.93247
2.92204
2.91132
2.90031
2.88903
2.87749
2.8657
2.85367
2.8414
2.82891
2.8162
2.80328
2.79015
2.77681
2.76328
2.74955
2.73564
2.72153
2.70724
2.69277
2.67812
2.6633
2.64829
2.63311
2.61775
2.60222
2.58651
2.57062
2.55456
2.53833
2.52192
2.50533
2.48856
2.47161
2.45448
2.43716
2.41966
2.40198
2.38411
2.36605
2.3478
2.32935
2.31072
2.29188
2.27285
2.25362
2.23419
2.21455
2.19471
2.17467
2.15442
2.13397
2.1133
2.09243
2.07135
2.05006
2.02856
2.00684
1.98492
1.96279
1.94045
1.91791
1.89515
1.87219
1.84903
1.82566
1.80209
1.77833
1.75436
1.73021
1.70586
1.68132
1.6566
1.6317
1.60662
1.58137
1.55595
1.53035
1.5046
1.47869
1.45262
1.4264
1.40003
1.37352
1.34687
1.32009
1.29317
1.26612
1.23894
1.21164
1.18421
1.15667
1.129
1.10121
1.0733
1.04526
1.0171
0.988812
0.960386
0.931817
0.903096
0.874214
0.845156
0.815906
0.786444
0.756745
0.726779
0.696509
0.665889
0.634863
0.603355
0.571268
0.538468
0.504765
0.469878
0.433357
0.394448
0.351688
0.301731
0.234582
0.106653
0.203435
0.462512
0.609963
0.726067
0.829335
0.925663
1.01744
1.10576
1.19117
1.27398
1.35436
1.43244
1.50831
1.58203
1.65367
1.72327
1.79089
1.85656
1.92031
1.98216
2.04214
2.10026
2.15653
2.21095
2.26352
2.31426
2.36315
2.4102
2.45542
2.49879
2.54033
2.58003
2.61791
2.65398
2.68825
2.72074
2.75147
2.78045
2.80772
2.8333
2.85723
2.87954
2.90026
2.91944
2.93712
2.95333
2.96813
2.98154
2.99363
3.00443
3.014
3.02237
3.02959
3.03571
3.04077
3.04482
3.0479
3.05006
3.05132
3.05174
3.05136
3.0502
3.04831
3.04572
3.04247
3.03858
3.03409
3.02903
3.02343
3.0173
3.01068
3.0036
2.99606
2.9881
2.97974
2.97099
2.96187
2.9524
2.9426
2.93247
2.92204
2.91132
2.90031
2.88903
2.87749
2.8657
2.85367
2.8414
2.82891
2.8162
2.80328
2.79015
2.77681
2.76328
2.74955
2.73564
2.72153
2.70724
2.69277
2.67812
2.66329
2.64829
2.63311
2.61775
2.60222
2.58651
2.57062
2.55456
2.53833
2.52191
2.50532
2.48856
2.47161
2.45448
2.43716
2.41966
2.40198
2.38411
2.36605
2.3478
2.32935
2.31071
2.29188
2.27285
2.25362
2.23419
2.21455
2.19471
2.17467
2.15442
2.13397
2.1133
2.09243
2.07135
2.05006
2.02855
2.00684
1.98492
1.96279
1.94045
1.9179
1.89515
1.87219
1.84903
1.82566
1.80209
1.77832
1.75436
1.73021
1.70586
1.68132
1.6566
1.6317
1.60662
1.58137
1.55595
1.53035
1.5046
1.47869
1.45262
1.4264
1.40003
1.37352
1.34687
1.32009
1.29317
1.26612
1.23894
1.21164
1.18421
1.15667
1.129
1.10121
1.0733
1.04526
1.0171
0.988812
0.960386
0.931816
0.903096
0.874214
0.845156
0.815906
0.786444
0.756745
0.726778
0.696509
0.665889
0.634863
0.603355
0.571268
0.538468
0.504765
0.469878
0.433357
0.394449
0.351688
0.301731
0.234583
0.106653
0.226253
0.511666
0.672723
0.798281
0.909072
1.01182
1.10929
1.20279
1.29298
1.38024
1.46476
1.54671
1.62618
1.70326
1.77802
1.85052
1.92084
1.98901
2.05509
2.11912
2.18113
2.24114
2.29919
2.35528
2.40944
2.46167
2.51199
2.56039
2.60689
2.6515
2.69422
2.73506
2.77403
2.81114
2.84641
2.87986
2.9115
2.94136
2.96946
2.99583
3.02051
3.04352
3.06491
3.08471
3.10296
3.11971
3.13499
3.14885
3.16134
3.1725
3.18238
3.19103
3.19849
3.2048
3.21002
3.21418
3.21734
3.21954
3.22081
3.2212
3.22075
3.2195
3.21748
3.21474
3.2113
3.2072
3.20247
3.19714
3.19124
3.1848
3.17784
3.17039
3.16247
3.15411
3.14532
3.13612
3.12654
3.11659
3.10629
3.09565
3.08469
3.07342
3.06185
3.04999
3.03787
3.02548
3.01283
2.99994
2.98681
2.97344
2.95986
2.94605
2.93203
2.91781
2.90338
2.88874
2.87392
2.85889
2.84368
2.82827
2.81268
2.7969
2.78094
2.76479
2.74846
2.73195
2.71525
2.69836
2.68129
2.66404
2.6466
2.62897
2.61115
2.59314
2.57494
2.55655
2.53797
2.51918
2.5002
2.48103
2.46164
2.44206
2.42227
2.40228
2.38207
2.36166
2.34104
2.3202
2.29915
2.27789
2.2564
2.23471
2.21279
2.19065
2.1683
2.14573
2.12293
2.09992
2.07669
2.05324
2.02958
2.0057
1.9816
1.95729
1.93276
1.90803
1.88309
1.85794
1.83259
1.80704
1.78129
1.75535
1.72921
1.70289
1.67638
1.64969
1.62283
1.59579
1.56858
1.54121
1.51368
1.48599
1.45814
1.43015
1.402
1.37372
1.34529
1.31673
1.28803
1.2592
1.23024
1.20114
1.17191
1.14256
1.11307
1.08344
1.05368
1.02377
0.993719
0.963507
0.933128
0.902569
0.871815
0.840847
0.809643
0.778172
0.746399
0.714277
0.681748
0.648735
0.615131
0.580792
0.545507
0.508958
0.470636
0.429662
0.384382
0.331032
0.258435
0.117996
0.226255
0.511667
0.672723
0.798281
0.909071
1.01181
1.10929
1.20279
1.29298
1.38024
1.46476
1.54671
1.62618
1.70325
1.77801
1.85052
1.92084
1.98901
2.05509
2.11912
2.18113
2.24114
2.29919
2.35528
2.40944
2.46167
2.51198
2.56039
2.60689
2.6515
2.69422
2.73506
2.77403
2.81114
2.84641
2.87986
2.9115
2.94136
2.96946
2.99583
3.02051
3.04352
3.06491
3.08471
3.10296
3.11971
3.13499
3.14885
3.16134
3.1725
3.18238
3.19103
3.19848
3.2048
3.21002
3.21418
3.21734
3.21954
3.22081
3.2212
3.22075
3.2195
3.21748
3.21474
3.2113
3.2072
3.20247
3.19714
3.19124
3.1848
3.17784
3.17039
3.16247
3.15411
3.14532
3.13612
3.12654
3.11659
3.10629
3.09565
3.08469
3.07341
3.06185
3.04999
3.03787
3.02547
3.01283
2.99994
2.98681
2.97344
2.95986
2.94605
2.93203
2.91781
2.90338
2.88874
2.87391
2.85889
2.84368
2.82827
2.81268
2.7969
2.78094
2.76479
2.74846
2.73194
2.71524
2.69836
2.68129
2.66404
2.64659
2.62897
2.61115
2.59314
2.57494
2.55655
2.53797
2.51918
2.5002
2.48102
2.46164
2.44206
2.42227
2.40228
2.38207
2.36166
2.34104
2.3202
2.29915
2.27788
2.2564
2.2347
2.21279
2.19065
2.1683
2.14573
2.12293
2.09992
2.07669
2.05324
2.02958
2.0057
1.9816
1.95729
1.93276
1.90803
1.88309
1.85794
1.83259
1.80704
1.78129
1.75534
1.72921
1.70289
1.67638
1.64969
1.62283
1.59579
1.56858
1.54121
1.51368
1.48599
1.45814
1.43014
1.402
1.37372
1.34529
1.31673
1.28803
1.2592
1.23023
1.20114
1.17191
1.14256
1.11307
1.08344
1.05368
1.02377
0.993719
0.963507
0.933127
0.902568
0.871815
0.840847
0.809643
0.778172
0.746399
0.714277
0.681748
0.648735
0.615131
0.580792
0.545507
0.508958
0.470636
0.429662
0.384383
0.331032
0.258435
0.117996
0.248668
0.56013
0.734657
0.869643
0.987929
1.09701
1.20003
1.2985
1.3932
1.48456
1.57286
1.65825
1.74089
1.82086
1.89826
1.97318
2.04569
2.11587
2.18377
2.24946
2.31299
2.37439
2.43372
2.49099
2.54625
2.5995
2.65077
2.70008
2.74744
2.79286
2.83635
2.87793
2.91761
2.95541
2.99134
3.02542
3.05767
3.08811
3.11677
3.14369
3.16887
3.19238
3.21423
3.23446
3.25312
3.27025
3.28588
3.30006
3.31284
3.32427
3.33438
3.34323
3.35086
3.35733
3.36266
3.36691
3.37013
3.37236
3.37364
3.37401
3.37352
3.37219
3.37008
3.36722
3.36363
3.35937
3.35445
3.34891
3.34278
3.33609
3.32886
3.32112
3.3129
3.30421
3.29508
3.28553
3.27557
3.26523
3.25452
3.24347
3.23207
3.22036
3.20833
3.196
3.18339
3.17051
3.15735
3.14394
3.13028
3.11638
3.10224
3.08788
3.07329
3.05848
3.04346
3.02823
3.01279
2.99715
2.98131
2.96527
2.94904
2.93261
2.91598
2.89916
2.88216
2.86495
2.84756
2.82997
2.81219
2.79422
2.77606
2.75769
2.73913
2.72038
2.70142
2.68226
2.66291
2.64334
2.62357
2.6036
2.58341
2.56301
2.5424
2.52158
2.50054
2.47928
2.4578
2.43611
2.41419
2.39204
2.36967
2.34708
2.32426
2.30121
2.27794
2.25444
2.23071
2.20675
2.18256
2.15815
2.13351
2.10865
2.08356
2.05825
2.03272
2.00697
1.981
1.95481
1.92842
1.90181
1.87499
1.84797
1.82075
1.79333
1.76572
1.73792
1.70993
1.68175
1.6534
1.62486
1.59616
1.56729
1.53825
1.50905
1.47969
1.45018
1.42052
1.39071
1.36075
1.33064
1.30039
1.27
1.23947
1.20879
1.17797
1.14701
1.1159
1.08464
1.05322
1.02163
0.989871
0.957926
0.925782
0.89342
0.860818
0.827947
0.794771
0.761242
0.727299
0.69286
0.65781
0.621989
0.585163
0.546976
0.506856
0.463819
0.41601
0.359271
0.281319
0.12889
0.24867
0.560131
0.734658
0.869642
0.987929
1.09701
1.20003
1.2985
1.3932
1.48456
1.57286
1.65825
1.74088
1.82086
1.89826
1.97318
2.04569
2.11587
2.18377
2.24946
2.31299
2.37439
2.43372
2.49099
2.54625
2.5995
2.65077
2.70008
2.74744
2.79285
2.83635
2.87793
2.91761
2.95541
2.99134
3.02542
3.05767
3.08811
3.11677
3.14368
3.16887
3.19238
3.21423
3.23446
3.25312
3.27024
3.28588
3.30006
3.31284
3.32427
3.33438
3.34323
3.35086
3.35732
3.36266
3.36691
3.37013
3.37236
3.37364
3.37401
3.37352
3.37219
3.37008
3.36722
3.36363
3.35937
3.35445
3.34891
3.34278
3.33609
3.32886
3.32112
3.3129
3.30421
3.29508
3.28552
3.27557
3.26523
3.25452
3.24347
3.23207
3.22036
3.20833
3.196
3.18339
3.17051
3.15735
3.14394
3.13028
3.11638
3.10224
3.08788
3.07329
3.05848
3.04346
3.02823
3.01279
2.99715
2.98131
2.96527
2.94904
2.93261
2.91598
2.89916
2.88215
2.86495
2.84756
2.82997
2.81219
2.79422
2.77605
2.75769
2.73913
2.72038
2.70142
2.68226
2.6629
2.64334
2.62357
2.6036
2.58341
2.56301
2.5424
2.52158
2.50054
2.47928
2.4578
2.43611
2.41419
2.39204
2.36967
2.34708
2.32426
2.30121
2.27794
2.25444
2.23071
2.20675
2.18256
2.15815
2.13351
2.10865
2.08356
2.05825
2.03272
2.00697
1.981
1.95481
1.92842
1.90181
1.87499
1.84797
1.82075
1.79333
1.76572
1.73792
1.70993
1.68175
1.65339
1.62486
1.59616
1.56729
1.53825
1.50905
1.47969
1.45018
1.42052
1.39071
1.36074
1.33064
1.30039
1.27
1.23947
1.20879
1.17797
1.14701
1.1159
1.08464
1.05322
1.02163
0.989871