/*--------------------------------*- C++ -*----------------------------------*\
  =========                 |
  \\      /  F ield         | OpenFOAM: The Open Source CFD Toolbox
   \\    /   O peration     | Website:  https://openfoam.org
    \\  /    A nd           | Version:  8
     \\/     M anipulation  |
\*---------------------------------------------------------------------------*/
FoamFile
{
    version     2.0;
    format      ascii;
    class       volScalarField;
    location    "3200";
    object      nut;
}
// * * * * * * * * * * * * * * * * * * * * * * * * * * * * * * * * * * * * * //

dimensions      [0 2 -1 0 0 0 0];

internalField   nonuniform List<scalar> 
48000
(
4.06729e-05
8.46422e-05
0.000104008
0.000118761
0.000131155
0.000141569
0.000150589
0.000158616
0.000166055
0.00017286
0.000179185
0.0001851
0.000190658
0.000195901
0.000200863
0.000205571
0.000210045
0.000214302
0.000218358
0.000222224
0.00022591
0.000229424
0.000232775
0.000235968
0.000239011
0.000241908
0.000244664
0.000247284
0.000249773
0.000252135
0.000254373
0.000256491
0.000258494
0.000260385
0.000262167
0.000263844
0.00026542
0.000266898
0.000268281
0.000269572
0.000270776
0.000271894
0.000272929
0.000273885
0.00027478
0.000275604
0.000276358
0.000277044
0.000277664
0.000278221
0.000278719
0.000279159
0.000279545
0.000279879
0.000280163
0.0002804
0.000280591
0.000280739
0.000280846
0.000280914
0.000280944
0.000280938
0.000280899
0.000280827
0.000280723
0.000280591
0.00028043
0.000280242
0.000280029
0.000279791
0.000279529
0.000279245
0.00027894
0.000278614
0.000278268
0.000277903
0.00027752
0.00027712
0.000276702
0.000276269
0.000275819
0.000275354
0.000274875
0.000274381
0.000273873
0.000273352
0.000272818
0.00027227
0.00027171
0.000271137
0.000270552
0.000269955
0.000269346
0.000268725
0.000268092
0.000267448
0.000266792
0.000266124
0.000265445
0.000264755
0.000264053
0.000263339
0.000262613
0.000261876
0.000261126
0.000260365
0.000259592
0.000258806
0.000258008
0.000257197
0.000256373
0.000255537
0.000254687
0.000253824
0.000252947
0.000252056
0.000251152
0.000250233
0.000249299
0.00024835
0.000247386
0.000246407
0.000245412
0.0002444
0.000243373
0.000242328
0.000241267
0.000240188
0.000239092
0.000237978
0.000236845
0.000235694
0.000234524
0.000233335
0.000232126
0.000230897
0.000229647
0.000228378
0.000227087
0.000225775
0.000224441
0.000223086
0.000221708
0.000220307
0.000218884
0.000217437
0.000215967
0.000214473
0.000212955
0.000211412
0.000209844
0.000208251
0.000206632
0.000204988
0.000203317
0.000201619
0.000199894
0.000198142
0.000196361
0.000194553
0.000192715
0.000190848
0.000188951
0.000187023
0.000185064
0.000183073
0.000181049
0.000178991
0.000176899
0.00017477
0.000172605
0.000170401
0.000168157
0.000165871
0.000163541
0.000161164
0.000158739
0.000156262
0.000153729
0.000151137
0.000148483
0.000145766
0.000142996
0.000140148
0.000137202
0.000134148
0.00013097
0.000127648
0.000124158
0.00012047
0.000116543
0.000112323
0.000107782
0.000102799
9.72081e-05
9.07584e-05
8.29972e-05
7.28949e-05
5.61109e-05
5.96431e-05
4.06775e-05
8.46454e-05
0.000104008
0.000118762
0.000131156
0.000141569
0.00015059
0.000158616
0.000166056
0.00017286
0.000179185
0.0001851
0.000190658
0.000195901
0.000200864
0.000205571
0.000210045
0.000214303
0.000218358
0.000222224
0.00022591
0.000229424
0.000232775
0.000235968
0.000239011
0.000241908
0.000244664
0.000247285
0.000249773
0.000252135
0.000254373
0.000256491
0.000258494
0.000260385
0.000262167
0.000263844
0.00026542
0.000266898
0.000268281
0.000269572
0.000270776
0.000271894
0.000272929
0.000273885
0.00027478
0.000275604
0.000276358
0.000277044
0.000277664
0.000278221
0.000278719
0.000279159
0.000279545
0.000279879
0.000280163
0.0002804
0.000280591
0.000280739
0.000280846
0.000280914
0.000280944
0.000280938
0.000280899
0.000280827
0.000280723
0.000280591
0.00028043
0.000280242
0.000280029
0.000279791
0.000279529
0.000279245
0.00027894
0.000278614
0.000278268
0.000277903
0.00027752
0.00027712
0.000276702
0.000276269
0.000275819
0.000275354
0.000274875
0.000274381
0.000273873
0.000273352
0.000272818
0.00027227
0.00027171
0.000271137
0.000270552
0.000269955
0.000269346
0.000268725
0.000268092
0.000267448
0.000266792
0.000266124
0.000265445
0.000264755
0.000264053
0.000263339
0.000262613
0.000261876
0.000261126
0.000260365
0.000259592
0.000258806
0.000258008
0.000257197
0.000256373
0.000255537
0.000254687
0.000253824
0.000252947
0.000252056
0.000251152
0.000250233
0.000249299
0.00024835
0.000247386
0.000246407
0.000245411
0.0002444
0.000243373
0.000242328
0.000241267
0.000240188
0.000239092
0.000237978
0.000236845
0.000235694
0.000234524
0.000233335
0.000232126
0.000230897
0.000229647
0.000228378
0.000227087
0.000225775
0.000224441
0.000223086
0.000221708
0.000220307
0.000218884
0.000217437
0.000215967
0.000214473
0.000212955
0.000211412
0.000209844
0.000208251
0.000206632
0.000204988
0.000203317
0.000201619
0.000199894
0.000198142
0.000196361
0.000194553
0.000192715
0.000190848
0.000188951
0.000187023
0.000185064
0.000183073
0.000181049
0.000178991
0.000176899
0.00017477
0.000172605
0.000170401
0.000168157
0.000165871
0.000163541
0.000161164
0.000158739
0.000156262
0.000153729
0.000151137
0.000148483
0.000145766
0.000142996
0.000140148
0.000137202
0.000134148
0.00013097
0.000127648
0.000124158
0.00012047
0.000116543
0.000112323
0.000107782
0.000102799
9.72081e-05
9.07586e-05
8.29978e-05
7.28956e-05
5.61045e-05
5.96412e-05
7.29928e-05
0.000540205
0.000855222
0.00107606
0.00124047
0.00137512
0.00149059
0.0015921
0.00168233
0.00176416
0.00183902
0.00190805
0.0019721
0.00203182
0.00208772
0.0021402
0.00218962
0.00223623
0.00228028
0.00232196
0.00236143
0.00239886
0.00243435
0.00246803
0.0025
0.00253034
0.00255914
0.00258648
0.00261241
0.00263701
0.00266032
0.00268241
0.00270332
0.0027231
0.0027418
0.00275946
0.00277612
0.00279181
0.00280658
0.00282045
0.00283346
0.00284563
0.00285698
0.00286749
0.00287698
0.00288571
0.00289375
0.00290116
0.00290799
0.00291424
0.00291996
0.00292516
0.00292986
0.00293409
0.00293787
0.0029412
0.00294411
0.00294662
0.00294874
0.00295049
0.00295188
0.00295293
0.00295365
0.00295405
0.00295414
0.00295394
0.00295346
0.0029527
0.00295169
0.00295042
0.00294891
0.00294717
0.0029452
0.00294301
0.00294061
0.00293801
0.00293521
0.00293221
0.00292903
0.00292567
0.00292213
0.00291842
0.00291454
0.0029105
0.0029063
0.00290194
0.00289742
0.00289276
0.00288794
0.00288298
0.00287787
0.00287261
0.00286721
0.00286167
0.00285599
0.00285017
0.0028442
0.0028381
0.00283186
0.00282547
0.00281895
0.00281228
0.00280548
0.00279852
0.00279143
0.00278419
0.00277681
0.00276927
0.00276159
0.00275375
0.00274577
0.00273763
0.00272933
0.00272087
0.00271225
0.00270347
0.00269452
0.0026854
0.00267611
0.00266665
0.00265701
0.00264718
0.00263718
0.00262699
0.00261661
0.00260604
0.00259528
0.00258431
0.00257315
0.00256178
0.0025502
0.00253841
0.00252641
0.00251419
0.00250174
0.00248908
0.00247618
0.00246305
0.00244969
0.00243609
0.00242225
0.00240816
0.00239382
0.00237924
0.00236439
0.00234929
0.00233392
0.00231829
0.00230239
0.00228622
0.00226976
0.00225303
0.00223601
0.0022187
0.00220109
0.00218319
0.00216498
0.00214646
0.00212763
0.00210847
0.00208899
0.00206918
0.00204902
0.00202851
0.00200765
0.00198641
0.0019648
0.0019428
0.00192039
0.00189756
0.00187429
0.00185056
0.00182636
0.00180166
0.00177642
0.00175062
0.00172422
0.00169717
0.00166943
0.00164091
0.00161153
0.00158115
0.00154959
0.00151682
0.00148276
0.0014473
0.00141022
0.00137126
0.0013301
0.00128626
0.00123905
0.00118737
0.00112912
0.00106325
0.000987054
0.000895875
0.000781213
0.000625707
0.000389759
4.98177e-05
7.29962e-05
0.000540217
0.000855252
0.00107608
0.00124049
0.00137514
0.00149061
0.00159212
0.00168235
0.00176418
0.00183904
0.00190807
0.00197212
0.00203183
0.00208773
0.00214022
0.00218963
0.00223625
0.0022803
0.00232197
0.00236145
0.00239887
0.00243436
0.00246804
0.00250001
0.00253035
0.00255915
0.00258649
0.00261242
0.00263702
0.00266033
0.00268242
0.00270333
0.00272311
0.00274181
0.00275947
0.00277613
0.00279182
0.00280658
0.00282046
0.00283346
0.00284564
0.00285699
0.00286749
0.00287699
0.00288571
0.00289376
0.00290117
0.00290799
0.00291425
0.00291997
0.00292517
0.00292987
0.0029341
0.00293787
0.00294121
0.00294412
0.00294663
0.00294875
0.0029505
0.00295189
0.00295294
0.00295365
0.00295405
0.00295415
0.00295395
0.00295346
0.00295271
0.0029517
0.00295043
0.00294892
0.00294718
0.00294521
0.00294302
0.00294062
0.00293801
0.00293521
0.00293222
0.00292904
0.00292568
0.00292214
0.00291843
0.00291455
0.00291051
0.00290631
0.00290195
0.00289743
0.00289276
0.00288795
0.00288298
0.00287787
0.00287262
0.00286722
0.00286168
0.002856
0.00285017
0.00284421
0.00283811
0.00283186
0.00282548
0.00281895
0.00281229
0.00280548
0.00279853
0.00279144
0.0027842
0.00277681
0.00276928
0.00276159
0.00275376
0.00274577
0.00273763
0.00272933
0.00272088
0.00271226
0.00270347
0.00269452
0.00268541
0.00267612
0.00266665
0.00265701
0.00264719
0.00263719
0.002627
0.00261662
0.00260605
0.00259528
0.00258432
0.00257315
0.00256178
0.00255021
0.00253842
0.00252641
0.00251419
0.00250175
0.00248908
0.00247618
0.00246306
0.0024497
0.00243609
0.00242225
0.00240817
0.00239383
0.00237924
0.0023644
0.0023493
0.00233393
0.0023183
0.0023024
0.00228622
0.00226977
0.00225303
0.00223601
0.0022187
0.0022011
0.00218319
0.00216498
0.00214646
0.00212763
0.00210848
0.002089
0.00206918
0.00204903
0.00202852
0.00200765
0.00198642
0.00196481
0.0019428
0.00192039
0.00189756
0.00187429
0.00185057
0.00182637
0.00180166
0.00177642
0.00175063
0.00172422
0.00169718
0.00166943
0.00164091
0.00161153
0.00158115
0.0015496
0.00151682
0.00148277
0.0014473
0.00141022
0.00137127
0.00133011
0.00128626
0.00123905
0.00118738
0.00112913
0.00106326
0.000987057
0.000895879
0.00078122
0.000625718
0.000389769
4.98376e-05
8.95269e-05
0.000817489
0.00145346
0.00192912
0.00230367
0.00261427
0.00288099
0.00311537
0.00332446
0.00351332
0.00368546
0.00384346
0.00398929
0.00412449
0.0042503
0.00436771
0.00447759
0.00458062
0.00467741
0.0047685
0.00485432
0.00493528
0.00501173
0.00508398
0.00515232
0.00521699
0.00527823
0.00533624
0.0053912
0.00544329
0.00549266
0.00553945
0.0055838
0.00562583
0.00566564
0.00570334
0.00573903
0.0057728
0.00580472
0.00583487
0.00586332
0.00589012
0.00591532
0.0059389
0.00596081
0.00598125
0.00600034
0.00601816
0.00603479
0.0060503
0.00606472
0.00607812
0.00609052
0.00610198
0.00611253
0.00612219
0.00613102
0.00613903
0.00614626
0.00615273
0.00615848
0.00616353
0.0061679
0.00617162
0.0061747
0.00617718
0.00617908
0.0061804
0.00618117
0.00618142
0.00618114
0.00618037
0.00617911
0.00617738
0.0061752
0.00617257
0.0061695
0.00616602
0.00616212
0.00615782
0.00615312
0.00614804
0.00614259
0.00613676
0.00613057
0.00612402
0.00611711
0.00610986
0.00610226
0.00609433
0.00608605
0.00607744
0.0060685
0.00605923
0.00604963
0.00603971
0.00602945
0.00601887
0.00600796
0.00599673
0.00598516
0.00597327
0.00596105
0.00594849
0.0059356
0.00592237
0.0059088
0.00589489
0.00588063
0.00586602
0.00585106
0.00583574
0.00582005
0.00580401
0.00578759
0.00577079
0.00575361
0.00573605
0.00571809
0.00569974
0.00568098
0.00566181
0.00564223
0.00562222
0.00560178
0.00558091
0.00555959
0.00553783
0.00551561
0.00549293
0.00546977
0.00544614
0.00542202
0.00539741
0.0053723
0.00534668
0.00532054
0.00529388
0.00526669
0.00523896
0.00521067
0.00518183
0.00515243
0.00512245
0.00509189
0.00506073
0.00502897
0.0049966
0.0049636
0.00492998
0.00489571
0.00486078
0.00482519
0.00478892
0.00475196
0.00471429
0.0046759
0.00463678
0.0045969
0.00455625
0.00451481
0.00447256
0.00442947
0.00438553
0.0043407
0.00429495
0.00424826
0.00420058
0.00415188
0.00410211
0.00405122
0.00399916
0.00394586
0.00389125
0.00383526
0.00377777
0.0037187
0.0036579
0.00359523
0.00353051
0.0034635
0.00339393
0.0033215
0.00324592
0.00316684
0.00308378
0.00299612
0.0029031
0.00280368
0.00269652
0.00257974
0.00245071
0.00230561
0.00214002
0.00194744
0.00171746
0.00143358
0.00106899
0.000585246
6.42001e-05
8.95268e-05
0.000817515
0.0014535
0.00192916
0.00230371
0.00261431
0.00288104
0.00311541
0.0033245
0.00351336
0.0036855
0.0038435
0.00398933
0.00412453
0.00425033
0.00436775
0.00447762
0.00458065
0.00467744
0.00476852
0.00485434
0.0049353
0.00501175
0.005084
0.00515234
0.00521701
0.00527825
0.00533626
0.00539122
0.00544331
0.00549268
0.00553947
0.00558382
0.00562584
0.00566565
0.00570335
0.00573904
0.00577281
0.00580473
0.00583488
0.00586333
0.00589013
0.00591532
0.0059389
0.00596082
0.00598126
0.00600035
0.00601817
0.0060348
0.0060503
0.00606473
0.00607812
0.00609053
0.00610199
0.00611253
0.0061222
0.00613102
0.00613903
0.00614626
0.00615274
0.00615848
0.00616353
0.0061679
0.00617162
0.00617471
0.00617719
0.00617908
0.0061804
0.00618118
0.00618142
0.00618115
0.00618037
0.00617911
0.00617739
0.0061752
0.00617257
0.0061695
0.00616602
0.00616212
0.00615782
0.00615312
0.00614804
0.00614259
0.00613676
0.00613057
0.00612402
0.00611711
0.00610986
0.00610227
0.00609433
0.00608606
0.00607745
0.00606851
0.00605924
0.00604964
0.00603971
0.00602945
0.00601887
0.00600796
0.00599673
0.00598517
0.00597327
0.00596105
0.00594849
0.0059356
0.00592237
0.0059088
0.00589489
0.00588063
0.00586602
0.00585106
0.00583574
0.00582006
0.00580401
0.00578759
0.00577079
0.00575361
0.00573605
0.00571809
0.00569974
0.00568098
0.00566181
0.00564223
0.00562222
0.00560178
0.00558091
0.0055596
0.00553783
0.00551561
0.00549293
0.00546977
0.00544614
0.00542202
0.00539741
0.0053723
0.00534668
0.00532054
0.00529388
0.00526669
0.00523896
0.00521067
0.00518183
0.00515243
0.00512245
0.00509189
0.00506073
0.00502897
0.0049966
0.0049636
0.00492998
0.00489571
0.00486078
0.00482519
0.00478892
0.00475196
0.00471429
0.0046759
0.00463678
0.0045969
0.00455625
0.00451481
0.00447256
0.00442947
0.00438553
0.0043407
0.00429495
0.00424826
0.00420058
0.00415188
0.00410211
0.00405122
0.00399916
0.00394586
0.00389125
0.00383526
0.00377777
0.0037187
0.0036579
0.00359523
0.00353051
0.0034635
0.00339393
0.0033215
0.00324592
0.00316684
0.00308378
0.00299612
0.0029031
0.00280368
0.00269652
0.00257974
0.00245071
0.00230561
0.00214002
0.00194744
0.00171747
0.00143358
0.00106899
0.000585237
6.41995e-05
0.000101473
0.000986073
0.0018542
0.00254286
0.00310504
0.00357948
0.00399044
0.00435335
0.0046784
0.00497269
0.00524135
0.00548819
0.00571614
0.00592751
0.00612416
0.00630762
0.00647918
0.00663993
0.0067908
0.00693261
0.00706609
0.00719187
0.00731052
0.00742255
0.00752842
0.00762854
0.00772329
0.00781301
0.00789801
0.00797858
0.00805498
0.00812744
0.00819618
0.00826141
0.0083233
0.00838203
0.00843776
0.00849063
0.00854077
0.0085883
0.00863332
0.00867594
0.00871622
0.00875421
0.00878997
0.00882363
0.00885533
0.00888517
0.00891327
0.00893971
0.00896455
0.00898788
0.00900975
0.00903023
0.00904937
0.00906721
0.00908381
0.00909922
0.00911347
0.0091266
0.00913866
0.00914968
0.0091597
0.00916875
0.00917685
0.00918405
0.00919037
0.00919584
0.00920048
0.00920431
0.00920736
0.00920966
0.00921122
0.00921206
0.0092122
0.00921165
0.00921044
0.00920858
0.00920608
0.00920295
0.00919921
0.00919487
0.00918994
0.00918443
0.00917834
0.00917169
0.00916448
0.00915672
0.00914842
0.00913957
0.00913019
0.00912027
0.00910983
0.00909886
0.00908736
0.00907534
0.00906279
0.00904972
0.00903613
0.00902202
0.00900737
0.0089922
0.0089765
0.00896027
0.0089435
0.00892619
0.00890834
0.00888993
0.00887098
0.00885146
0.00883138
0.00881073
0.0087895
0.00876768
0.00874528
0.00872227
0.00869866
0.00867443
0.00864958
0.0086241
0.00859797
0.00857119
0.00854376
0.00851565
0.00848686
0.00845738
0.0084272
0.00839631
0.00836469
0.00833234
0.00829924
0.00826539
0.00823076
0.00819536
0.00815915
0.00812214
0.00808431
0.00804565
0.00800614
0.00796576
0.00792451
0.00788237
0.00783933
0.00779536
0.00775046
0.00770461
0.00765778
0.00760997
0.00756115
0.00751131
0.00746042
0.00740846
0.00735542
0.00730126
0.00724597
0.00718952
0.00713188
0.00707301
0.0070129
0.0069515
0.00688878
0.00682469
0.0067592
0.00669226
0.00662382
0.00655382
0.0064822
0.00640889
0.00633382
0.0062569
0.00617805
0.00609715
0.0060141
0.00592875
0.00584096
0.00575056
0.00565735
0.0055611
0.00546153
0.00535832
0.00525111
0.00513944
0.00502281
0.00490063
0.0047722
0.00463666
0.00449289
0.00433951
0.00417474
0.00399625
0.0038011
0.00358525
0.00334336
0.00306836
0.00275116
0.00237839
0.00193119
0.001384
0.000713823
7.32433e-05
0.000101474
0.000986092
0.00185423
0.00254291
0.00310509
0.00357954
0.0039905
0.00435341
0.00467846
0.00497275
0.00524141
0.00548825
0.00571619
0.00592756
0.00612421
0.00630767
0.00647923
0.00663997
0.00679084
0.00693265
0.00706613
0.00719191
0.00731056
0.00742258
0.00752845
0.00762857
0.00772332
0.00781304
0.00789804
0.0079786
0.008055
0.00812746
0.0081962
0.00826142
0.00832332
0.00838205
0.00843778
0.00849064
0.00854078
0.00858831
0.00863333
0.00867595
0.00871623
0.00875422
0.00878997
0.00882363
0.00885533
0.00888518
0.00891328
0.00893971
0.00896456
0.00898788
0.00900976
0.00903023
0.00904937
0.00906721
0.00908381
0.00909922
0.00911347
0.0091266
0.00913866
0.00914968
0.0091597
0.00916875
0.00917685
0.00918405
0.00919037
0.00919584
0.00920047
0.00920431
0.00920736
0.00920966
0.00921122
0.00921206
0.0092122
0.00921165
0.00921044
0.00920858
0.00920607
0.00920295
0.00919921
0.00919487
0.00918994
0.00918442
0.00917834
0.00917169
0.00916448
0.00915672
0.00914841
0.00913957
0.00913018
0.00912027
0.00910983
0.00909885
0.00908736
0.00907533
0.00906279
0.00904972
0.00903613
0.00902201
0.00900737
0.0089922
0.0089765
0.00896027
0.0089435
0.00892619
0.00890833
0.00888993
0.00887098
0.00885146
0.00883138
0.00881073
0.0087895
0.00876768
0.00874528
0.00872227
0.00869866
0.00867443
0.00864958
0.00862409
0.00859797
0.00857119
0.00854375
0.00851565
0.00848686
0.00845738
0.0084272
0.00839631
0.00836469
0.00833234
0.00829924
0.00826538
0.00823076
0.00819535
0.00815915
0.00812214
0.00808431
0.00804564
0.00800613
0.00796576
0.00792451
0.00788237
0.00783932
0.00779536
0.00775046
0.0077046
0.00765778
0.00760996
0.00756114
0.0075113
0.00746041
0.00740846
0.00735541
0.00730126
0.00724597
0.00718951
0.00713187
0.00707301
0.00701289
0.00695149
0.00688877
0.00682469
0.0067592
0.00669226
0.00662382
0.00655381
0.00648219
0.00640888
0.00633381
0.0062569
0.00617804
0.00609715
0.00601409
0.00592875
0.00584096
0.00575056
0.00565735
0.00556109
0.00546152
0.00535832
0.0052511
0.00513944
0.0050228
0.00490062
0.0047722
0.00463665
0.00449288
0.00433951
0.00417473
0.00399625
0.00380109
0.00358525
0.00334336
0.00306836
0.00275116
0.00237839
0.00193119
0.001384
0.000713817
7.3243e-05
0.00011113
0.00110114
0.00214008
0.00299965
0.00371825
0.00433328
0.00487072
0.00534817
0.00577781
0.00616826
0.00652585
0.00685532
0.00716034
0.0074438
0.00770804
0.00795499
0.00818628
0.00840328
0.00860719
0.00879906
0.0089798
0.00915025
0.00931115
0.00946315
0.00960688
0.00974288
0.00987165
0.00999365
0.0101093
0.010219
0.0103231
0.0104219
0.0105158
0.0106049
0.0106897
0.0107702
0.0108467
0.0109194
0.0109885
0.0110542
0.0111166
0.0111759
0.0112321
0.0112853
0.0113358
0.0113836
0.0114288
0.0114716
0.0115121
0.0115505
0.0115867
0.011621
0.0116534
0.0116839
0.0117127
0.0117398
0.0117653
0.0117892
0.0118116
0.0118325
0.0118521
0.0118702
0.0118871
0.0119027
0.011917
0.0119302
0.0119422
0.011953
0.0119628
0.0119715
0.0119792
0.0119859
0.0119916
0.0119963
0.0120001
0.012003
0.012005
0.0120062
0.0120064
0.0120059
0.0120045
0.0120023
0.0119993
0.0119955
0.0119909
0.0119856
0.0119795
0.0119726
0.0119651
0.0119567
0.0119477
0.0119379
0.0119274
0.0119162
0.0119042
0.0118916
0.0118782
0.0118641
0.0118493
0.0118337
0.0118175
0.0118005
0.0117828
0.0117643
0.0117452
0.0117252
0.0117046
0.0116832
0.011661
0.011638
0.0116143
0.0115898
0.0115645
0.0115384
0.0115115
0.0114837
0.0114552
0.0114257
0.0113955
0.0113643
0.0113323
0.0112994
0.0112656
0.0112309
0.0111952
0.0111586
0.0111211
0.0110825
0.011043
0.0110025
0.0109609
0.0109183
0.0108746
0.0108299
0.0107841
0.0107371
0.0106891
0.0106399
0.0105895
0.0105379
0.0104851
0.0104311
0.0103758
0.0103193
0.0102615
0.0102023
0.0101418
0.0100799
0.0100166
0.00995189
0.0098857
0.00981802
0.0097488
0.00967802
0.00960564
0.00953161
0.0094559
0.00937845
0.00929922
0.00921816
0.00913521
0.0090503
0.00896338
0.00887437
0.00878319
0.00868976
0.00859398
0.00849575
0.00839496
0.00829148
0.00818516
0.00807586
0.00796339
0.00784756
0.00772813
0.00760486
0.00747743
0.00734552
0.00720872
0.00706657
0.00691852
0.00676394
0.00660208
0.00643208
0.00625288
0.0060632
0.00586146
0.00564569
0.00541345
0.00516162
0.00488625
0.00458225
0.00424311
0.00386043
0.00342348
0.0029182
0.00232637
0.00162692
0.000811737
8.03895e-05
0.00011113
0.00110116
0.00214012
0.0029997
0.00371831
0.00433335
0.00487079
0.00534824
0.00577788
0.00616833
0.00652592
0.00685539
0.0071604
0.00744386
0.0077081
0.00795505
0.00818634
0.00840334
0.00860724
0.00879911
0.00897985
0.0091503
0.00931119
0.0094632
0.00960692
0.00974292
0.00987168
0.00999369
0.0101093
0.010219
0.0103231
0.010422
0.0105158
0.010605
0.0106897
0.0107702
0.0108467
0.0109194
0.0109886
0.0110542
0.0111166
0.0111759
0.0112321
0.0112854
0.0113358
0.0113836
0.0114288
0.0114716
0.0115121
0.0115505
0.0115867
0.011621
0.0116534
0.0116839
0.0117127
0.0117398
0.0117653
0.0117892
0.0118116
0.0118325
0.0118521
0.0118702
0.0118871
0.0119027
0.011917
0.0119302
0.0119422
0.011953
0.0119628
0.0119715
0.0119792
0.0119859
0.0119916
0.0119963
0.0120001
0.012003
0.012005
0.0120062
0.0120064
0.0120059
0.0120045
0.0120023
0.0119993
0.0119955
0.0119909
0.0119856
0.0119795
0.0119726
0.0119651
0.0119567
0.0119477
0.0119379
0.0119274
0.0119162
0.0119042
0.0118916
0.0118782
0.0118641
0.0118493
0.0118337
0.0118175
0.0118005
0.0117828
0.0117643
0.0117452
0.0117252
0.0117046
0.0116831
0.011661
0.011638
0.0116143
0.0115898
0.0115645
0.0115384
0.0115115
0.0114837
0.0114552
0.0114257
0.0113955
0.0113643
0.0113323
0.0112994
0.0112656
0.0112309
0.0111952
0.0111586
0.0111211
0.0110825
0.011043
0.0110024
0.0109609
0.0109183
0.0108746
0.0108299
0.0107841
0.0107371
0.0106891
0.0106398
0.0105895
0.0105379
0.0104851
0.0104311
0.0103758
0.0103193
0.0102615
0.0102023
0.0101418
0.0100799
0.0100166
0.00995189
0.0098857
0.00981801
0.0097488
0.00967802
0.00960563
0.0095316
0.00945589
0.00937844
0.00929921
0.00921815
0.0091352
0.00905029
0.00896337
0.00887436
0.00878318
0.00868975
0.00859397
0.00849575
0.00839495
0.00829147
0.00818516
0.00807585
0.00796339
0.00784755
0.00772813
0.00760485
0.00747743
0.00734551
0.00720871
0.00706656
0.00691851
0.00676393
0.00660208
0.00643207
0.00625287
0.00606319
0.00586145
0.00564569
0.00541344
0.00516161
0.00488624
0.00458225
0.00424311
0.00386043
0.00342348
0.0029182
0.00232637
0.00162692
0.000811733
8.03895e-05
0.00011935
0.00119277
0.00236174
0.00335706
0.00420383
0.00493679
0.00558223
0.00615894
0.00668029
0.00715597
0.00759318
0.00799734
0.00837266
0.00872246
0.00904945
0.00935583
0.00964346
0.00991394
0.0101686
0.0104088
0.0106354
0.0108494
0.0110518
0.0112433
0.0114246
0.0115963
0.0117591
0.0119135
0.0120601
0.0121992
0.0123314
0.0124571
0.0125765
0.0126901
0.0127981
0.012901
0.0129988
0.013092
0.0131807
0.0132651
0.0133454
0.0134219
0.0134946
0.0135638
0.0136295
0.013692
0.0137514
0.0138078
0.0138614
0.0139123
0.0139606
0.0140065
0.01405
0.0140913
0.0141304
0.0141674
0.0142025
0.0142356
0.0142668
0.0142963
0.014324
0.0143501
0.0143745
0.0143974
0.0144188
0.0144386
0.0144571
0.0144742
0.0144899
0.0145043
0.0145174
0.0145293
0.01454
0.0145495
0.0145578
0.014565
0.0145711
0.0145762
0.0145801
0.014583
0.0145849
0.0145857
0.0145856
0.0145844
0.0145823
0.0145793
0.0145753
0.0145703
0.0145644
0.0145576
0.0145499
0.0145412
0.0145317
0.0145212
0.0145098
0.0144975
0.0144843
0.0144702
0.0144552
0.0144393
0.0144224
0.0144047
0.014386
0.0143664
0.0143459
0.0143244
0.014302
0.0142786
0.0142543
0.014229
0.0142027
0.0141755
0.0141472
0.0141179
0.0140876
0.0140562
0.0140238
0.0139904
0.0139558
0.0139201
0.0138834
0.0138455
0.0138065
0.0137663
0.0137249
0.0136823
0.0136385
0.0135935
0.0135472
0.0134996
0.0134508
0.0134006
0.013349
0.0132962
0.0132419
0.0131862
0.0131291
0.0130705
0.0130104
0.0129488
0.0128856
0.0128209
0.0127546
0.0126867
0.012617
0.0125457
0.0124727
0.0123979
0.0123212
0.0122427
0.0121624
0.0120801
0.0119958
0.0119094
0.011821
0.0117305
0.0116378
0.0115428
0.0114454
0.0113457
0.0112435
0.0111388
0.0110313
0.0109212
0.0108082
0.0106922
0.0105731
0.0104508
0.010325
0.0101957
0.0100627
0.00992565
0.00978442
0.0096387
0.0094882
0.00933257
0.00917141
0.00900426
0.0088306
0.00864982
0.0084612
0.00826391
0.00805698
0.00783926
0.00760937
0.00736565
0.00710608
0.00682821
0.00652901
0.00620472
0.00585068
0.00546107
0.00502862
0.00454422
0.00399646
0.0033717
0.00265353
0.00182571
0.000892186
8.64228e-05
0.00011935
0.00119279
0.00236178
0.00335711
0.0042039
0.00493686
0.00558231
0.00615901
0.00668036
0.00715605
0.00759326
0.00799742
0.00837273
0.00872254
0.00904952
0.0093559
0.00964353
0.00991401
0.0101687
0.0104088
0.0106354
0.0108495
0.0110519
0.0112433
0.0114246
0.0115964
0.0117592
0.0119136
0.0120601
0.0121993
0.0123315
0.0124571
0.0125765
0.0126901
0.0127982
0.012901
0.0129988
0.013092
0.0131807
0.0132651
0.0133455
0.0134219
0.0134947
0.0135638
0.0136296
0.013692
0.0137514
0.0138078
0.0138614
0.0139123
0.0139606
0.0140065
0.01405
0.0140913
0.0141304
0.0141674
0.0142025
0.0142356
0.0142668
0.0142963
0.014324
0.0143501
0.0143745
0.0143974
0.0144188
0.0144386
0.0144571
0.0144742
0.0144899
0.0145043
0.0145174
0.0145293
0.01454
0.0145495
0.0145578
0.014565
0.0145711
0.0145762
0.0145801
0.014583
0.0145849
0.0145857
0.0145856
0.0145844
0.0145823
0.0145793
0.0145753
0.0145703
0.0145644
0.0145576
0.0145499
0.0145412
0.0145317
0.0145212
0.0145098
0.0144975
0.0144843
0.0144702
0.0144552
0.0144393
0.0144224
0.0144047
0.014386
0.0143664
0.0143459
0.0143244
0.014302
0.0142786
0.0142543
0.014229
0.0142027
0.0141755
0.0141472
0.0141179
0.0140876
0.0140562
0.0140238
0.0139903
0.0139558
0.0139201
0.0138834
0.0138455
0.0138065
0.0137663
0.0137249
0.0136823
0.0136385
0.0135935
0.0135472
0.0134996
0.0134508
0.0134006
0.013349
0.0132962
0.0132419
0.0131862
0.0131291
0.0130705
0.0130104
0.0129488
0.0128856
0.0128209
0.0127546
0.0126867
0.012617
0.0125457
0.0124727
0.0123978
0.0123212
0.0122427
0.0121624
0.01208
0.0119958
0.0119094
0.011821
0.0117305
0.0116378
0.0115428
0.0114454
0.0113457
0.0112435
0.0111387
0.0110313
0.0109212
0.0108082
0.0106922
0.0105731
0.0104507
0.010325
0.0101957
0.0100627
0.00992565
0.00978441
0.0096387
0.00948819
0.00933256
0.0091714
0.00900425
0.00883059
0.00864981
0.00846119
0.0082639
0.00805698
0.00783925
0.00760936
0.00736564
0.00710608
0.00682821
0.006529
0.00620471
0.00585067
0.00546107
0.00502862
0.00454422
0.00399646
0.0033717
0.00265353
0.00182571
0.000892182
8.64228e-05
0.000126664
0.00127127
0.0025448
0.00364957
0.00460159
0.00543304
0.00617
0.00683183
0.00743267
0.00798296
0.00849049
0.0089612
0.00939968
0.0098096
0.0101939
0.010555
0.0108949
0.0112154
0.0115179
0.0118038
0.0120742
0.0123302
0.0125727
0.0128025
0.0130205
0.0132273
0.0134237
0.0136103
0.0137876
0.0139561
0.0141165
0.014269
0.0144142
0.0145525
0.0146842
0.0148096
0.0149292
0.0150432
0.0151518
0.0152554
0.0153541
0.0154482
0.015538
0.0156234
0.0157049
0.0157825
0.0158564
0.0159268
0.0159939
0.0160578
0.0161186
0.0161766
0.0162317
0.0162842
0.0163341
0.0163815
0.0164266
0.0164694
0.0165099
0.0165484
0.0165848
0.0166192
0.0166517
0.0166824
0.0167113
0.0167384
0.0167638
0.0167876
0.0168098
0.0168304
0.0168496
0.0168672
0.0168834
0.0168983
0.0169117
0.0169238
0.0169346
0.0169441
0.0169523
0.0169592
0.016965
0.0169695
0.0169728
0.016975
0.016976
0.0169759
0.0169746
0.0169722
0.0169687
0.016964
0.0169583
0.0169514
0.0169435
0.0169345
0.0169244
0.0169132
0.0169009
0.0168875
0.016873
0.0168574
0.0168408
0.016823
0.0168041
0.0167842
0.016763
0.0167408
0.0167174
0.0166929
0.0166672
0.0166404
0.0166124
0.0165831
0.0165527
0.0165211
0.0164882
0.0164541
0.0164187
0.016382
0.016344
0.0163047
0.016264
0.016222
0.0161786
0.0161338
0.0160876
0.0160399
0.0159908
0.0159402
0.015888
0.0158343
0.0157791
0.0157222
0.0156637
0.0156036
0.0155418
0.0154783
0.015413
0.015346
0.0152771
0.0152064
0.0151338
0.0150594
0.0149829
0.0149045
0.014824
0.0147415
0.0146568
0.01457
0.0144809
0.0143896
0.014296
0.0141999
0.0141015
0.0140005
0.013897
0.0137909
0.013682
0.0135703
0.0134558
0.0133383
0.0132177
0.013094
0.0129669
0.0128365
0.0127025
0.0125648
0.0124232
0.0122776
0.0121277
0.0119734
0.0118145
0.0116505
0.0114813
0.0113065
0.0111257
0.0109385
0.0107444
0.0105428
0.010333
0.0101144
0.00988603
0.00964687
0.00939573
0.00913121
0.00885165
0.00855504
0.00823901
0.00790066
0.0075365
0.0071423
0.00671286
0.00624187
0.00572162
0.00514275
0.00449396
0.00376222
0.00293319
0.00199493
0.000961174
9.17047e-05
0.000126664
0.00127128
0.00254484
0.00364962
0.00460166
0.00543311
0.00617008
0.00683191
0.00743276
0.00798305
0.00849057
0.00896128
0.00939977
0.00980969
0.010194
0.0105551
0.010895
0.0112155
0.011518
0.0118039
0.0120743
0.0123303
0.0125727
0.0128026
0.0130205
0.0132274
0.0134238
0.0136103
0.0137876
0.0139562
0.0141165
0.014269
0.0144143
0.0145525
0.0146842
0.0148097
0.0149292
0.0150432
0.0151518
0.0152554
0.0153541
0.0154483
0.015538
0.0156235
0.0157049
0.0157825
0.0158564
0.0159268
0.0159939
0.0160578
0.0161187
0.0161766
0.0162317
0.0162842
0.0163341
0.0163815
0.0164266
0.0164694
0.01651
0.0165484
0.0165848
0.0166192
0.0166518
0.0166824
0.0167113
0.0167384
0.0167638
0.0167876
0.0168098
0.0168304
0.0168496
0.0168672
0.0168834
0.0168983
0.0169117
0.0169238
0.0169346
0.0169441
0.0169523
0.0169592
0.016965
0.0169695
0.0169728
0.016975
0.016976
0.0169759
0.0169746
0.0169722
0.0169687
0.016964
0.0169583
0.0169514
0.0169435
0.0169345
0.0169244
0.0169132
0.0169009
0.0168875
0.016873
0.0168574
0.0168408
0.016823
0.0168041
0.0167842
0.016763
0.0167408
0.0167174
0.0166929
0.0166672
0.0166404
0.0166124
0.0165831
0.0165527
0.0165211
0.0164882
0.0164541
0.0164186
0.016382
0.016344
0.0163047
0.016264
0.016222
0.0161786
0.0161338
0.0160876
0.0160399
0.0159908
0.0159402
0.015888