/*--------------------------------*- C++ -*----------------------------------*\
  =========                 |
  \\      /  F ield         | OpenFOAM: The Open Source CFD Toolbox
   \\    /   O peration     | Website:  https://openfoam.org
    \\  /    A nd           | Version:  8
     \\/     M anipulation  |
\*---------------------------------------------------------------------------*/
FoamFile
{
    version     2.0;
    format      ascii;
    class       surfaceScalarField;
    location    "3200";
    object      phi;
}
// * * * * * * * * * * * * * * * * * * * * * * * * * * * * * * * * * * * * * //

dimensions      [1 0 -1 0 0 0 0];

internalField   nonuniform List<scalar> 
119360
(
-3.47687e-07
2.96675e-12
3.47687e-07
-6.07483e-07
1.06382e-12
2.59699e-07
-7.26101e-07
1.85635e-12
1.18606e-07
-7.17595e-07
1.30424e-12
-8.51737e-09
-6.15958e-07
6.4815e-13
-1.01649e-07
-4.51041e-07
2.50524e-13
-1.64928e-07
-2.44626e-07
-3.64413e-14
-2.06427e-07
-1.20706e-08
-3.22796e-13
-2.32568e-07
2.3525e-07
-5.79535e-13
-2.47333e-07
4.89093e-07
-7.04074e-13
-2.53854e-07
7.44209e-07
-6.8656e-13
-2.55125e-07
9.96846e-07
-5.85586e-13
-2.52646e-07
1.24435e-06
-4.46863e-13
-2.47508e-07
1.4848e-06
-3.08974e-13
-2.40458e-07
1.71682e-06
-1.93233e-13
-2.32032e-07
1.93944e-06
-1.07191e-13
-2.22624e-07
2.15196e-06
-4.96533e-14
-2.12531e-07
2.35394e-06
-1.51531e-14
-2.01982e-07
2.54508e-06
2.4717e-15
-1.91154e-07
2.72526e-06
8.68895e-15
-1.8019e-07
2.89446e-06
8.21712e-15
-1.69202e-07
3.05273e-06
4.77544e-15
-1.58283e-07
3.20023e-06
8.34161e-16
-1.47508e-07
3.33716e-06
-1.98302e-15
-1.36937e-07
3.46377e-06
-2.49648e-15
-1.26621e-07
3.58036e-06
-6.7847e-16
-1.166e-07
3.68726e-06
3.42937e-15
-1.06906e-07
3.78481e-06
9.46623e-15
-9.75647e-08
3.8734e-06
1.66827e-14
-8.85958e-08
3.95341e-06
2.43294e-14
-8.00134e-08
4.02523e-06
3.18789e-14
-7.18271e-08
4.08926e-06
3.87484e-14
-6.40424e-08
4.14592e-06
4.47159e-14
-5.66615e-08
4.19559e-06
4.9476e-14
-4.96832e-08
4.23869e-06
5.29177e-14
-4.31036e-08
4.2756e-06
5.51937e-14
-3.69166e-08
4.30671e-06
5.63456e-14
-3.11138e-08
4.33239e-06
5.66509e-14
-2.56853e-08
4.353e-06
5.62068e-14
-2.06197e-08
4.3689e-06
5.52493e-14
-1.59044e-08
4.38042e-06
5.3917e-14
-1.1526e-08
4.38788e-06
5.23211e-14
-7.47049e-09
4.3916e-06
5.06974e-14
-3.72329e-09
4.39186e-06
4.9046e-14
-2.68014e-10
4.38895e-06
4.745e-14
2.91037e-09
4.38312e-06
4.61872e-14
5.82631e-09
4.37461e-06
4.50353e-14
8.49574e-09
4.36368e-06
4.41472e-14
1.09339e-08
4.35051e-06
4.34394e-14
1.31553e-08
4.33534e-06
4.30508e-14
1.51742e-08
4.31833e-06
4.27733e-14
1.70041e-08
4.29966e-06
4.26761e-14
1.86581e-08
4.27951e-06
4.28427e-14
2.01489e-08
4.25802e-06
4.3148e-14
2.14885e-08
4.23532e-06
4.35921e-14
2.26883e-08
4.21156e-06
4.41611e-14
2.37592e-08
4.18684e-06
4.48272e-14
2.47114e-08
4.16128e-06
4.5535e-14
2.55545e-08
4.13498e-06
4.64231e-14
2.62975e-08
4.10803e-06
4.73946e-14
2.69489e-08
4.0805e-06
4.84077e-14
2.75163e-08
4.05249e-06
4.9504e-14
2.80072e-08
4.02406e-06
5.06003e-14
2.84283e-08
3.99527e-06
5.17105e-14
2.87858e-08
3.96618e-06
5.28208e-14
2.90855e-08
3.93684e-06
5.40281e-14
2.93328e-08
3.9073e-06
5.51522e-14
2.95324e-08
3.87761e-06
5.6304e-14
2.96891e-08
3.8478e-06
5.74836e-14
2.98068e-08
3.8179e-06
5.858e-14
2.98894e-08
3.78796e-06
5.9704e-14
2.99405e-08
3.75799e-06
6.07449e-14
2.99633e-08
3.72803e-06
6.16885e-14
2.99606e-08
3.69809e-06
6.26877e-14
2.99353e-08
3.66819e-06
6.36175e-14
2.98898e-08
3.63836e-06
6.44918e-14
2.98264e-08
3.60861e-06
6.53799e-14
2.97472e-08
3.57895e-06
6.61571e-14
2.96543e-08
3.54939e-06
6.68926e-14
2.95493e-08
3.51995e-06
6.75587e-14
2.9434e-08
3.49064e-06
6.8197e-14
2.93098e-08
3.46146e-06
6.87521e-14
2.91783e-08
3.43241e-06
6.92378e-14
2.90408e-08
3.40351e-06
6.9668e-14
2.88984e-08
3.37475e-06
6.99733e-14
2.87524e-08
3.34614e-06
7.03618e-14
2.86037e-08
3.31768e-06
7.05283e-14
2.84535e-08
3.28937e-06
7.07365e-14
2.83027e-08
3.26122e-06
7.08752e-14
2.81521e-08
3.23321e-06
7.0903e-14
2.80026e-08
3.20535e-06
7.09584e-14
2.7855e-08
3.17763e-06
7.10139e-14
2.771e-08
3.15006e-06
7.09445e-14
2.75684e-08
3.12263e-06
7.0889e-14
2.74307e-08
3.09532e-06
7.07918e-14
2.72977e-08
3.06815e-06
7.06114e-14
2.717e-08
3.04109e-06
7.03615e-14
2.70481e-08
3.01416e-06
7.02227e-14
2.69327e-08
2.98733e-06
6.99868e-14
2.68242e-08
2.9606e-06
6.96953e-14
2.67231e-08
2.93396e-06
6.92928e-14
2.663e-08
2.90741e-06
6.9043e-14
2.65454e-08
2.88094e-06
6.87932e-14
2.64696e-08
2.85453e-06
6.8474e-14
2.64032e-08
2.82818e-06
6.81547e-14
2.63466e-08
2.80187e-06
6.78494e-14
2.63002e-08
2.7756e-06
6.74747e-14
2.62644e-08
2.74936e-06
6.71138e-14
2.62396e-08
2.72313e-06
6.67807e-14
2.62263e-08
2.6969e-06
6.64615e-14
2.62247e-08
2.67066e-06
6.61978e-14
2.62353e-08
2.64439e-06
6.59202e-14
2.62584e-08
2.61809e-06
6.56704e-14
2.62943e-08
2.59174e-06
6.54483e-14
2.63435e-08
2.56533e-06
6.53373e-14
2.64063e-08
2.53885e-06
6.51569e-14
2.64829e-08
2.51227e-06
6.50319e-14
2.65737e-08
2.48558e-06
6.49486e-14
2.6679e-08
2.45878e-06
6.49486e-14
2.67992e-08
2.43184e-06
6.49208e-14
2.69344e-08
2.40475e-06
6.49486e-14
2.70851e-08
2.37749e-06
6.50318e-14
2.72514e-08
2.35005e-06
6.52816e-14
2.74335e-08
2.32242e-06
6.55036e-14
2.76319e-08
2.29456e-06
6.57812e-14
2.78466e-08
2.26648e-06
6.61975e-14
2.8078e-08
2.23815e-06
6.65583e-14
2.83261e-08
2.20955e-06
6.70024e-14
2.85913e-08
2.18068e-06
6.7613e-14
2.88735e-08
2.1515e-06
6.83068e-14
2.9173e-08
2.122e-06
6.9084e-14
2.949e-08
2.09217e-06
6.98611e-14
2.98244e-08
2.06199e-06
7.07493e-14
3.01763e-08
2.03144e-06
7.17207e-14
3.05458e-08
2.0005e-06
7.28032e-14
3.09329e-08
1.96916e-06
7.39966e-14
3.13375e-08
1.9374e-06
7.52179e-14
3.17595e-08
1.90519e-06
7.67167e-14
3.21989e-08
1.87253e-06
7.81599e-14
3.26554e-08
1.8394e-06
7.97698e-14
3.3129e-08
1.80577e-06
8.15183e-14
3.36192e-08
1.77164e-06
8.34057e-14
3.41258e-08
1.73699e-06
8.52376e-14
3.46484e-08
1.70179e-06
8.7236e-14
3.51866e-08
1.66605e-06
8.94564e-14
3.57398e-08
1.62974e-06
9.18989e-14
3.63076e-08
1.59284e-06
9.43691e-14
3.68892e-08
1.55535e-06
9.69226e-14
3.74839e-08
1.51725e-06
9.96704e-14
3.80909e-08
1.47854e-06
1.02446e-13
3.87092e-08
1.4392e-06
1.05499e-13
3.93379e-08
1.39921e-06
1.08635e-13
3.99758e-08
1.35859e-06
1.11883e-13
4.06215e-08
1.31731e-06
1.1513e-13
4.12739e-08
1.27537e-06
1.18461e-13
4.19312e-08
1.23277e-06
1.21875e-13
4.25918e-08
1.18951e-06
1.25317e-13
4.32538e-08
1.14559e-06
1.28786e-13
4.39153e-08
1.10101e-06
1.322e-13
4.45739e-08
1.05577e-06
1.35725e-13
4.52271e-08
1.00989e-06
1.39111e-13
4.58722e-08
9.6338e-07
1.42525e-13
4.65063e-08
9.16246e-07
1.463e-13
4.71259e-08
8.68511e-07
1.50047e-13
4.77273e-08
8.20197e-07
1.54321e-13
4.83065e-08
7.7133e-07
1.59067e-13
4.8859e-08
7.21942e-07
1.64369e-13
4.93796e-08
6.72071e-07
1.70197e-13
4.98627e-08
6.2176e-07
1.76831e-13
5.0302e-08
5.71061e-07
1.84408e-13
5.06903e-08
5.20032e-07
1.92596e-13
5.10198e-08
4.68741e-07
2.01395e-13
5.12813e-08
4.17266e-07
2.10526e-13
5.14647e-08
3.65698e-07
2.19713e-13
5.15583e-08
3.14139e-07
2.28401e-13
5.15488e-08
2.62707e-07
2.36589e-13
5.1421e-08
2.11538e-07
2.43972e-13
5.11575e-08
1.60789e-07
2.50605e-13
5.0738e-08
1.10638e-07
2.56684e-13
5.01386e-08
6.12961e-08
2.6254e-13
4.93297e-08
1.30049e-08
2.68952e-13
4.82785e-08
-3.39346e-08
2.7367e-13
4.69263e-08
-7.91681e-08
2.77833e-13
4.522e-08
-1.22303e-07
2.85161e-13
4.31209e-08
-1.62901e-07
2.93821e-13
4.05835e-08
-2.0045e-07
3.00204e-13
3.75348e-08
-2.34333e-07
3.00926e-13
3.38686e-08
-2.63828e-07
2.92488e-13
2.94786e-08
-2.88074e-07
2.73115e-13
2.42306e-08
-3.06053e-07
2.45137e-13
1.79623e-08
-3.16555e-07
2.17104e-13
1.04853e-08
-3.18152e-07
2.03282e-13
1.57999e-09
-3.09238e-07
2.1716e-13
-8.93122e-09
-2.88074e-07
2.64233e-13
-2.11819e-08
-2.52913e-07
3.21243e-13
-3.51789e-08
-2.02498e-07
3.28459e-13
-5.04355e-08
-1.37325e-07
2.59792e-13
-6.51974e-08
-6.26344e-08
2.19713e-13
-7.47175e-08
-2.36392e-09
3.63265e-13
-6.03002e-08
6.50146e-13
-2.4011e-09
-3.47697e-07
3.47674e-07
-6.07479e-07
2.59694e-07
-7.26099e-07
1.18602e-07
-7.17592e-07
-8.52085e-09
-6.15953e-07
-1.01652e-07
-4.51036e-07
-1.64931e-07
-2.44621e-07
-2.06429e-07
-1.20661e-08
-2.32571e-07
2.35254e-07
-2.47335e-07
4.89097e-07
-2.53857e-07
7.44212e-07
-2.55127e-07
9.9685e-07
-2.52648e-07
1.24435e-06
-2.47509e-07
1.4848e-06
-2.40459e-07
1.71682e-06
-2.32033e-07
1.93944e-06
-2.22626e-07
2.15196e-06
-2.12533e-07
2.35394e-06
-2.01983e-07
2.54508e-06
-1.91156e-07
2.72526e-06
-1.80191e-07
2.89446e-06
-1.69203e-07
3.05273e-06
-1.58284e-07
3.20023e-06
-1.47509e-07
3.33716e-06
-1.36938e-07
3.46377e-06
-1.26622e-07
3.58036e-06
-1.16601e-07
3.68726e-06
-1.06907e-07
3.78481e-06
-9.75657e-08
3.8734e-06
-8.85968e-08
3.95341e-06
-8.00144e-08
4.02523e-06
-7.18281e-08
4.08926e-06
-6.40434e-08
4.14592e-06
-5.66625e-08
4.19559e-06
-4.96841e-08
4.23869e-06
-4.31046e-08
4.2756e-06
-3.69175e-08
4.30671e-06
-3.11147e-08
4.33239e-06
-2.56862e-08
4.353e-06
-2.06206e-08
4.3689e-06
-1.59053e-08
4.38042e-06
-1.15269e-08
4.38788e-06
-7.47135e-09
4.3916e-06
-3.72414e-09
4.39186e-06
-2.68858e-10
4.38895e-06
2.90953e-09
4.38311e-06
5.82548e-09
4.37461e-06
8.49492e-09
4.36367e-06
1.09331e-08
4.35051e-06
1.31545e-08
4.33533e-06
1.51734e-08
4.31832e-06
1.70033e-08
4.29966e-06
1.86573e-08
4.27951e-06
2.01481e-08
4.25801e-06
2.14877e-08
4.23532e-06
2.26875e-08
4.21156e-06
2.37585e-08
4.18684e-06
2.47107e-08
4.16128e-06
2.55538e-08
4.13498e-06
2.62968e-08
4.10802e-06
2.69481e-08
4.0805e-06
2.75156e-08
4.05249e-06
2.80065e-08
4.02406e-06
2.84276e-08
3.99527e-06
2.87851e-08
3.96618e-06
2.90848e-08
3.93684e-06
2.9332e-08
3.9073e-06
2.95317e-08
3.87761e-06
2.96883e-08
3.8478e-06
2.98061e-08
3.8179e-06
2.98887e-08
3.78796e-06
2.99398e-08
3.75799e-06
2.99625e-08
3.72802e-06
2.99599e-08
3.69808e-06
2.99346e-08
3.66819e-06
2.9889e-08
3.63836e-06
2.98257e-08
3.60861e-06
2.97465e-08
3.57895e-06
2.96535e-08
3.54939e-06
2.95486e-08
3.51995e-06
2.94332e-08
3.49064e-06
2.93091e-08
3.46146e-06
2.91776e-08
3.43241e-06
2.90401e-08
3.40351e-06
2.88977e-08
3.37475e-06
2.87516e-08
3.34614e-06
2.8603e-08
3.31768e-06
2.84528e-08
3.28937e-06
2.8302e-08
3.26122e-06
2.81514e-08
3.23321e-06
2.80019e-08
3.20535e-06
2.78543e-08
3.17763e-06
2.77093e-08
3.15006e-06
2.75676e-08
3.12262e-06
2.743e-08
3.09532e-06
2.7297e-08
3.06815e-06
2.71693e-08
3.04109e-06
2.70474e-08
3.01416e-06
2.69319e-08
2.98733e-06
2.68234e-08
2.9606e-06
2.67224e-08
2.93396e-06
2.66293e-08
2.90741e-06
2.65446e-08
2.88094e-06
2.64689e-08
2.85453e-06
2.64025e-08
2.82818e-06
2.63459e-08
2.80187e-06
2.62995e-08
2.7756e-06
2.62637e-08
2.74936e-06
2.62389e-08
2.72313e-06
2.62255e-08
2.6969e-06
2.6224e-08
2.67066e-06
2.62345e-08
2.64439e-06
2.62576e-08
2.61809e-06
2.62936e-08
2.59174e-06
2.63428e-08
2.56533e-06
2.64055e-08
2.53884e-06
2.64822e-08
2.51227e-06
2.6573e-08
2.48558e-06
2.66783e-08
2.45878e-06
2.67985e-08
2.43184e-06
2.69337e-08
2.40475e-06
2.70843e-08
2.37749e-06
2.72506e-08
2.35005e-06
2.74328e-08
2.32242e-06
2.76312e-08
2.29456e-06
2.78459e-08
2.26648e-06
2.80773e-08
2.23815e-06
2.83254e-08
2.20955e-06
2.85905e-08
2.18068e-06
2.88728e-08
2.1515e-06
2.91723e-08
2.122e-06
2.94892e-08
2.09217e-06
2.98236e-08
2.06199e-06
3.01756e-08
2.03144e-06
3.05451e-08
2.0005e-06
3.09321e-08
1.96916e-06
3.13367e-08
1.9374e-06
3.17588e-08
1.90519e-06
3.21981e-08
1.87253e-06
3.26547e-08
1.8394e-06
3.31282e-08
1.80577e-06
3.36184e-08
1.77164e-06
3.4125e-08
1.73699e-06
3.46476e-08
1.70179e-06
3.51858e-08
1.66605e-06
3.5739e-08
1.62974e-06
3.63068e-08
1.59284e-06
3.68884e-08
1.55535e-06
3.74831e-08
1.51726e-06
3.80901e-08
1.47854e-06
3.87084e-08
1.4392e-06
3.9337e-08
1.39921e-06
3.99749e-08
1.35859e-06
4.06207e-08
1.31731e-06
4.12729e-08
1.27537e-06
4.19302e-08
1.23277e-06
4.25908e-08
1.18951e-06
4.32529e-08
1.14559e-06
4.39143e-08
1.10101e-06
4.45729e-08
1.05577e-06
4.52261e-08
1.00989e-06
4.58712e-08
9.6338e-07
4.65052e-08
9.16247e-07
4.71248e-08
8.68512e-07
4.77262e-08
8.20197e-07
4.83054e-08
7.7133e-07
4.88578e-08
7.21942e-07
4.93784e-08
6.72071e-07
4.98615e-08
6.21761e-07
5.03007e-08
5.71061e-07
5.06891e-08
5.20032e-07
5.10185e-08
4.68741e-07
5.128e-08
4.17267e-07
5.14633e-08
3.65699e-07
5.15568e-08
3.14139e-07
5.15473e-08
2.62708e-07
5.14195e-08
2.11539e-07
5.1156e-08
1.60789e-07
5.07364e-08
1.10639e-07
5.01369e-08
6.12967e-08
4.93279e-08
1.30055e-08
4.82767e-08
-3.3934e-08
4.69244e-08
-7.91675e-08
4.52181e-08
-1.22302e-07
4.3119e-08
-1.629e-07
4.05816e-08
-2.00449e-07
3.75328e-08
-2.34333e-07
3.38665e-08
-2.63827e-07
2.94765e-08
-2.88074e-07
2.42284e-08
-3.06053e-07
1.796e-08
-3.16555e-07
1.04829e-08
-3.18152e-07
1.57757e-09
-3.09238e-07
-8.9337e-09
-2.88074e-07
-2.11845e-08
-2.52914e-07
-3.51817e-08
-2.025e-07
-5.04388e-08
-1.37327e-07
-6.52016e-08
-6.26377e-08
-7.47223e-08
-2.36802e-09
-6.03061e-08
-2.40921e-09
-2.33014e-07
-3.01525e-13
5.80693e-07
-2.83495e-07
-1.93149e-14
3.10155e-07
-2.54512e-07
1.88726e-13
8.96122e-08
-1.73912e-07
1.87948e-13
-8.91291e-08
-5.16931e-08
1.39979e-13
-2.23879e-07
1.03777e-07
6.56497e-14
-3.2041e-07
2.84087e-07
-1.38909e-14
-3.86748e-07
4.81846e-07
-7.96508e-14
-4.30338e-07
6.91073e-07
-1.16663e-13
-4.56571e-07
9.06997e-07
-1.21714e-13
-4.69787e-07
1.12563e-06
-1.0384e-13
-4.73762e-07
1.34387e-06
-7.58206e-14
-4.70899e-07
1.55935e-06
-4.76348e-14
-4.62994e-07
1.77023e-06
-2.55413e-14
-4.51346e-07
1.97511e-06
-1.15664e-14
-4.36921e-07
2.17293e-06
-5.15482e-15
-4.20451e-07
2.36289e-06
-4.51642e-15
-4.02502e-07
2.54442e-06
-7.52788e-15
-3.83516e-07
2.7171e-06
-1.24198e-14
-3.63846e-07
2.88068e-06
-1.78043e-14
-3.43773e-07
3.035e-06
-2.26893e-14
-3.23528e-07
3.18e-06
-2.65161e-14
-3.03299e-07
3.31573e-06
-2.89412e-14
-2.83241e-07
3.44226e-06
-2.99751e-14
-2.63481e-07
3.55976e-06
-2.96663e-14
-2.44124e-07
3.66841e-06
-2.83167e-14
-2.25257e-07
3.76844e-06
-2.61829e-14
-2.06949e-07
3.86013e-06
-2.35947e-14
-1.89256e-07
3.94375e-06
-2.08053e-14
-1.72222e-07
4.01961e-06
-1.8113e-14
-1.55881e-07
4.08803e-06
-1.5667e-14
-1.40255e-07
4.14934e-06
-1.35679e-14
-1.25362e-07
4.20388e-06
-1.18887e-14
-1.11209e-07
4.25199e-06
-1.06501e-14
-9.77983e-08
4.29401e-06
-9.82437e-15
-8.51263e-08
4.33027e-06
-9.31435e-15
-7.31846e-08
4.36111e-06
-9.09576e-15
-6.19606e-08
4.38686e-06
-9.08187e-15
-5.14381e-08
4.40783e-06
-9.22758e-15
-4.15978e-08
4.42434e-06
-9.46349e-15
-3.2418e-08
4.43668e-06
-9.73063e-15
-2.38751e-08
4.44515e-06
-1.00151e-14
-1.59436e-08
4.45002e-06
-1.02788e-14
-8.5971e-09
4.45155e-06
-1.04835e-14
-1.80787e-09
4.45001e-06
-1.06708e-14
4.45156e-09
4.44562e-06
-1.08616e-14
1.0209e-08
4.43862e-06
-1.09657e-14
1.5493e-08
4.42921e-06
-1.10282e-14
2.03312e-08
4.41761e-06
-1.10455e-14
2.47509e-08
4.40401e-06
-1.10316e-14
2.87784e-08
4.38857e-06
-1.09796e-14
3.24394e-08
4.37146e-06
-1.09241e-14
3.57587e-08
4.35284e-06
-1.08374e-14
3.87601e-08
4.33286e-06
-1.0761e-14
4.14664e-08
4.31165e-06
-1.06569e-14
4.38993e-08
4.28932e-06
-1.05563e-14
4.60793e-08
4.266e-06
-1.04557e-14
4.80261e-08
4.24179e-06
-1.03517e-14
4.97578e-08
4.2168e-06
-1.02372e-14
5.12919e-08
4.19109e-06
-1.014e-14
5.26445e-08
4.16478e-06
-1.00221e-14
5.38306e-08
4.13791e-06
-9.91454e-15
5.48644e-08
4.11058e-06
-9.82087e-15
5.57589e-08
4.08283e-06
-9.72721e-15
5.65263e-08
4.05474e-06
-9.64048e-15
5.71779e-08
4.02634e-06
-9.56416e-15
5.77239e-08
3.9977e-06
-9.48785e-15
5.81742e-08
3.96884e-06
-9.4046e-15
5.85374e-08
3.93982e-06
-9.33522e-15
5.88219e-08
3.91067e-06
-9.27625e-15
5.90351e-08
3.88143e-06
-9.21729e-15
5.9184e-08
3.85211e-06
-9.1722e-15
5.9275e-08
3.82275e-06
-9.14099e-15
5.93139e-08
3.79338e-06
-9.10284e-15
5.93063e-08
3.764e-06
-9.0751e-15
5.9257e-08
3.73466e-06
-9.04736e-15
5.91707e-08
3.70535e-06
-9.04044e-15
5.90516e-08
3.67609e-06
-9.03004e-15
5.89037e-08
3.64691e-06
-9.02659e-15
5.87305e-08
3.6178e-06
-9.03008e-15
5.85355e-08
3.58878e-06
-9.05091e-15
5.83218e-08
3.55987e-06
-9.07175e-15
5.80922e-08
3.53105e-06
-9.08911e-15
5.78494e-08
3.50235e-06
-9.14117e-15
5.7596e-08
3.47376e-06
-9.16894e-15
5.73343e-08
3.4453e-06
-9.221e-15
5.70664e-08
3.41695e-06
-9.26265e-15
5.67945e-08
3.38873e-06
-9.31471e-15
5.65203e-08
3.36063e-06
-9.38065e-15
5.62459e-08
3.33266e-06
-9.43965e-15
5.59728e-08
3.3048e-06
-9.50211e-15
5.57026e-08
3.27707e-06
-9.55417e-15
5.54369e-08
3.24946e-06
-9.62011e-15
5.51772e-08
3.22196e-06
-9.68951e-15
5.49247e-08
3.19457e-06
-9.75198e-15
5.46809e-08
3.16729e-06
-9.81792e-15
5.44468e-08
3.14011e-06
-9.88732e-15
5.42239e-08
3.11302e-06
-9.93938e-15
5.4013e-08
3.08603e-06
-1.00123e-14
5.38155e-08
3.05911e-06
-1.00921e-14
5.36322e-08
3.03228e-06
-1.0158e-14
5.34642e-08
3.0055e-06
-1.02135e-14
5.33125e-08
2.97879e-06
-1.02829e-14
5.3178e-08
2.95213e-06
-1.03246e-14
5.30617e-08
2.92551e-06
-1.0394e-14
5.29642e-08
2.89891e-06
-1.04495e-14
5.28867e-08
2.87234e-06
-1.05016e-14
5.28297e-08
2.84578e-06
-1.0564e-14
5.27942e-08
2.81923e-06
-1.06022e-14
5.2781e-08
2.79265e-06
-1.06473e-14
5.27907e-08
2.76606e-06
-1.0689e-14
5.28241e-08
2.73943e-06
-1.07237e-14
5.28819e-08
2.71276e-06
-1.07688e-14
5.29649e-08
2.68602e-06
-1.07896e-14
5.30736e-08
2.65922e-06
-1.08139e-14
5.32088e-08
2.63232e-06
-1.08417e-14
5.33711e-08
2.60533e-06
-1.08452e-14
5.35611e-08
2.57823e-06
-1.0866e-14
5.37794e-08
2.55099e-06
-1.08695e-14
5.40266e-08
2.52362e-06
-1.08799e-14
5.43032e-08
2.49609e-06
-1.08869e-14
5.46098e-08
2.46839e-06
-1.08973e-14
5.49468e-08
2.44051e-06
-1.08765e-14
5.53148e-08
2.41242e-06
-1.08765e-14
5.57143e-08
2.38411e-06
-1.08453e-14
5.61455e-08
2.35558e-06
-1.08314e-14
5.66089e-08
2.3268e-06
-1.08175e-14
5.71049e-08
2.29775e-06
-1.07967e-14
5.76338e-08
2.26842e-06
-1.07655e-14
5.81958e-08
2.2388e-06
-1.07308e-14
5.87912e-08
2.20886e-06
-1.06892e-14
5.94201e-08
2.1786e-06
-1.06753e-14
6.00827e-08
2.14799e-06
-1.06511e-14
6.07789e-08
2.11703e-06
-1.06129e-14
6.15088e-08
2.08568e-06
-1.05747e-14
6.22724e-08
2.05395e-06
-1.05296e-14
6.30694e-08
2.0218e-06
-1.04707e-14
6.38997e-08
1.98923e-06
-1.0429e-14
6.47629e-08
1.95622e-06
-1.04048e-14
6.56587e-08
1.92276e-06
-1.03458e-14
6.65865e-08
1.88883e-06
-1.03007e-14
6.75457e-08
1.85442e-06
-1.02452e-14
6.85356e-08
1.8195e-06
-1.02313e-14
6.95554e-08
1.78408e-06
-1.01966e-14
7.06041e-08
1.74814e-06
-1.01515e-14
7.16806e-08
1.71165e-06
-1.01168e-14
7.27837e-08
1.67463e-06
-1.00787e-14
7.3912e-08
1.63704e-06
-1.00544e-14
7.50638e-08
1.59889e-06
-1.00301e-14
7.62375e-08
1.56016e-06
-1.00058e-14
7.74311e-08
1.52085e-06
-1.00024e-14
7.86423e-08
1.48095e-06
-1.00162e-14
7.9869e-08
1.44046e-06
-1.00475e-14
8.11084e-08
1.39937e-06
-1.00822e-14
8.23576e-08
1.35768e-06
-1.01307e-14
8.36136e-08
1.3154e-06
-1.0214e-14
8.48727e-08
1.27251e-06
-1.03042e-14
8.61313e-08
1.22904e-06
-1.04291e-14
8.73851e-08
1.18498e-06
-1.05748e-14
8.86295e-08
1.14034e-06
-1.07344e-14
8.98597e-08
1.09513e-06
-1.09148e-14
9.10699e-08
1.04938e-06
-1.11022e-14
9.22542e-08
1.00309e-06
-1.12896e-14
9.34059e-08
9.56293e-07
-1.14491e-14
9.45177e-08
9.09011e-07
-1.15671e-14
9.55815e-08
8.61274e-07
-1.16712e-14
9.65884e-08
8.13118e-07
-1.17128e-14
9.75283e-08
7.64582e-07
-1.17267e-14
9.83904e-08
7.15714e-07
-1.17267e-14
9.91623e-08
6.66566e-07
-1.16781e-14
9.98303e-08
6.17198e-07
-1.16643e-14
1.00379e-07
5.67679e-07
-1.17059e-14
1.00792e-07
5.18086e-07
-1.18586e-14
1.01048e-07
4.68508e-07
-1.21708e-14
1.01128e-07
4.19043e-07
-1.2712e-14
1.01004e-07
3.69804e-07
-1.351e-14
1.0065e-07
3.20919e-07
-1.44815e-14
1.00033e-07
2.72531e-07
-1.56958e-14
9.91154e-08
2.24804e-07
-1.69517e-14
9.78545e-08
1.77924e-07
-1.82146e-14
9.61983e-08
1.32103e-07
-1.93248e-14
9.40884e-08
8.75747e-08
-2.00048e-14
9.14425e-08
4.46046e-08
-1.99909e-14
8.81779e-08
3.49199e-09
-1.95469e-14
8.42211e-08
-3.54058e-08
-1.91999e-14
7.94685e-08
-7.16861e-08
-1.9526e-14
7.3802e-08
-1.04915e-07
-2.12399e-14
6.70839e-08
-1.34601e-07
-2.49384e-14
5.91507e-08
-1.60196e-07
-3.08434e-14
4.98107e-08
-1.81094e-07
-3.81223e-14
3.88461e-08
-1.96648e-07
-4.47142e-14
2.6024e-08
-2.06189e-07
-4.70873e-14
1.11058e-08
-2.0905e-07
-4.19942e-14
-6.08598e-09
-2.04652e-07
-3.09613e-14
-2.55957e-08
-1.92654e-07
-2.80054e-14
-4.71958e-08
-1.73096e-07
-6.15341e-14
-7.00136e-08
-1.46517e-07
-1.45592e-13
-9.17997e-08
-1.13591e-07
-1.62856e-13
-1.07671e-07
-6.8466e-08
2.5424e-14
-1.05459e-07
1.65199e-13
-7.08955e-08
-2.33017e-07
5.80688e-07
-2.83493e-07
3.10151e-07
-2.5451e-07
8.96095e-08
-1.7391e-07
-8.91312e-08
-5.16908e-08
-2.2388e-07
1.0378e-07
-3.20411e-07
2.84089e-07
-3.86749e-07
4.81848e-07
-4.30339e-07
6.91075e-07
-4.56571e-07
9.06998e-07
-4.69788e-07
1.12563e-06
-4.73763e-07
1.34387e-06
-4.70899e-07
1.55935e-06
-4.62994e-07
1.77023e-06
-4.51346e-07
1.97511e-06
-4.36921e-07
2.17293e-06
-4.20451e-07
2.36289e-06
-4.02502e-07
2.54442e-06
-3.83516e-07
2.7171e-06
-3.63846e-07
2.88068e-06
-3.43773e-07
3.03499e-06
-3.23528e-07
3.18e-06
-3.03299e-07
3.31573e-06
-2.83241e-07
3.44226e-06
-2.63481e-07
3.55976e-06
-2.44124e-07
3.66841e-06
-2.25257e-07
3.76844e-06
-2.06949e-07
3.86013e-06
-1.89256e-07
3.94375e-06
-1.72222e-07
4.01961e-06
-1.55881e-07
4.08803e-06
-1.40255e-07
4.14934e-06
-1.25362e-07
4.20388e-06
-1.11209e-07
4.25199e-06
-9.77984e-08
4.29401e-06
-8.51264e-08
4.33027e-06
-7.31848e-08
4.36111e-06
-6.19608e-08
4.38686e-06
-5.14382e-08
4.40783e-06
-4.1598e-08
4.42434e-06
-3.24182e-08
4.43668e-06
-2.38752e-08
4.44515e-06
-1.59438e-08
4.45002e-06
-8.59727e-09
4.45155e-06
-1.80805e-09
4.45001e-06
4.45138e-09
4.44562e-06
1.02089e-08
4.43862e-06
1.54928e-08
4.42921e-06
2.0331e-08
4.41761e-06
2.47507e-08
4.404e-06
2.87782e-08
4.38856e-06
3.24392e-08
4.37146e-06
3.57585e-08
4.35284e-06
3.87599e-08
4.33286e-06
4.14662e-08
4.31164e-06
4.38991e-08
4.28932e-06
4.60791e-08
4.266e-06
4.80259e-08
4.24179e-06
4.97576e-08
4.21679e-06
5.12917e-08
4.19109e-06
5.26443e-08
4.16477e-06
5.38304e-08
4.13791e-06
5.48642e-08
4.11058e-06
5.57588e-08
4.08283e-06
5.65262e-08
4.05474e-06
5.71777e-08
4.02634e-06
5.77238e-08
3.99769e-06
5.8174e-08
3.96884e-06
5.85373e-08
3.93982e-06
5.88217e-08
3.91067e-06
5.90349e-08
3.88142e-06
5.91838e-08
3.85211e-06
5.92748e-08
3.82275e-06
5.93138e-08
3.79338e-06
5.93061e-08
3.764e-06
5.92568e-08
3.73465e-06
5.91705e-08
3.70535e-06
5.90514e-08
3.67609e-06
5.89035e-08
3.64691e-06
5.87304e-08
3.6178e-06
5.85354e-08
3.58878e-06
5.83217e-08
3.55987e-06
5.80921e-08
3.53105e-06
5.78493e-08
3.50235e-06
5.75959e-08
3.47376e-06
5.73342e-08
3.4453e-06
5.70663e-08
3.41695e-06
5.67943e-08
3.38873e-06
5.65202e-08
3.36063e-06
5.62457e-08
3.33265e-06
5.59726e-08
3.3048e-06
5.57025e-08
3.27707e-06
5.54368e-08
3.24946e-06
5.5177e-08
3.22196e-06
5.49246e-08
3.19457e-06
5.46807e-08
3.16729e-06
5.44467e-08
3.14011e-06
5.42237e-08
3.11302e-06
5.40129e-08
3.08603e-06
5.38154e-08
3.05911e-06
5.36321e-08
3.03228e-06
5.34641e-08
3.0055e-06
5.33124e-08
2.97879e-06
5.31779e-08
2.95213e-06
5.30615e-08
2.9255e-06
5.29641e-08
2.89891e-06
5.28866e-08
2.87234e-06
5.28296e-08
2.84578e-06
5.27941e-08
2.81922e-06
5.27809e-08
2.79265e-06
5.27906e-08
2.76606e-06
5.2824e-08
2.73943e-06
5.28818e-08
2.71276e-06
5.29648e-08
2.68602e-06
5.30735e-08
2.65922e-06
5.32087e-08
2.63232e-06
5.3371e-08
2.60533e-06
5.3561e-08
2.57823e-06
5.37793e-08
2.55099e-06
5.40265e-08
2.52362e-06
5.43031e-08
2.49609e-06
5.46097e-08
2.46839e-06
5.49467e-08
2.44051e-06
5.53147e-08
2.41242e-06
5.57141e-08
2.38411e-06
5.61454e-08
2.35558e-06
5.66088e-08
2.3268e-06
5.71048e-08
2.29775e-06
5.76337e-08
2.26842e-06
5.81957e-08
2.2388e-06
5.87911e-08
2.20886e-06
5.942e-08
2.1786e-06
6.00825e-08
2.14799e-06
6.07788e-08
2.11703e-06
6.15087e-08
2.08568e-06
6.22723e-08
2.05395e-06
6.30693e-08
2.0218e-06
6.38996e-08
1.98923e-06
6.47628e-08
1.95622e-06
6.56586e-08
1.92276e-06
6.65863e-08
1.88883e-06
6.75455e-08
1.85442e-06
6.85355e-08
1.8195e-06
6.95553e-08
1.78408e-06
7.0604e-08
1.74814e-06
7.16805e-08
1.71165e-06
7.27836e-08
1.67463e-06
7.39118e-08
1.63704e-06
7.50637e-08
1.59889e-06
7.62374e-08
1.56016e-06
7.74309e-08
1.52085e-06
7.86422e-08
1.48095e-06
7.98689e-08
1.44046e-06
8.11083e-08
1.39937e-06
8.23575e-08
1.35768e-06
8.36134e-08
1.3154e-06
8.48726e-08
1.27251e-06
8.61311e-08
1.22904e-06
8.73849e-08
1.18498e-06
8.86294e-08
1.14034e-06
8.98595e-08
1.09513e-06
9.10697e-08
1.04938e-06
9.22541e-08
1.00309e-06
9.34058e-08
9.56293e-07
9.45176e-08
9.09011e-07
9.55814e-08
8.61274e-07
9.65882e-08
8.13118e-07
9.75282e-08
7.64582e-07
9.83902e-08
7.15714e-07
9.91621e-08
6.66566e-07
9.98302e-08
6.17198e-07
1.00379e-07
5.67679e-07
1.00792e-07
5.18087e-07
1.01048e-07
4.68508e-07
1.01127e-07
4.19043e-07
1.01004e-07
3.69804e-07
1.0065e-07
3.20919e-07
1.00033e-07
2.72531e-07
9.91153e-08
2.24804e-07
9.78543e-08
1.77924e-07
9.61981e-08
1.32103e-07
9.40882e-08
8.75749e-08
9.14424e-08
4.46048e-08
8.81778e-08
3.49223e-09
8.42209e-08
-3.54056e-08
7.94684e-08
-7.16859e-08
7.38019e-08
-1.04915e-07
6.70837e-08
-1.34601e-07
5.91506e-08
-1.60195e-07
4.98106e-08
-1.81094e-07
3.8846e-08
-1.96648e-07
2.60238e-08
-2.06189e-07
1.11056e-08
-2.0905e-07
-6.08622e-09
-2.04653e-07
-2.5596e-08
-1.92654e-07
-4.71962e-08
-1.73097e-07
-7.0014e-08
-1.46518e-07
-9.18002e-08
-1.13593e-07
-1.07671e-07
-6.847e-08
-1.05461e-07
-7.08988e-08
-7.60208e-08
-2.65665e-13
6.56693e-07
-3.18243e-08
-8.1696e-14
2.65945e-07
5.99687e-08
3.41405e-14
-2.18452e-09
1.75307e-07
7.04583e-14
-2.0447e-07
3.09254e-07
8.34755e-14
-3.57828e-07
4.59817e-07
6.78525e-14
-4.70975e-07
6.24603e-07
4.05167e-14
-5.51536e-07
8.00573e-07
1.67093e-14
-6.06311e-07
9.84798e-07
3.82724e-15
-6.40797e-07
1.17453e-06
2.93559e-15
-6.59519e-07
1.36701e-06
1.04539e-14
-6.66248e-07
1.55991e-06
2.08588e-14
-6.63794e-07
1.75123e-06
3.01638e-14
-6.54322e-07
1.93937e-06
3.61105e-14
-6.39488e-07
2.12302e-06
3.82338e-14
-6.20572e-07
2.30114e-06
3.71062e-14
-5.98572e-07
2.47292e-06
3.36888e-14
-5.74279e-07
2.63773e-06
2.89947e-14
-5.48325e-07
2.7951e-06
2.3853e-14
-5.21219e-07
2.9447e-06
1.88761e-14
-4.93379e-07
3.08632e-06
1.44647e-14
-4.65146e-07
3.21982e-06
1.08756e-14
-4.36804e-07
3.34517e-06
8.18327e-15
-4.08587e-07
3.46238e-06
6.3705e-15
-3.80691e-07
3.57153e-06
5.36784e-15
-3.53278e-07
3.67275e-06
5.00703e-15
-3.26482e-07
3.76621e-06
5.1302e-15
-3.00413e-07
3.85212e-06
5.58124e-15
-2.75159e-07
3.93069e-06
6.1884e-15
-2.50793e-07
4.00217e-06
6.83893e-15
-2.27368e-07
4.06684e-06
7.43395e-15
-2.04926e-07
4.12497e-06
7.9058e-15
-1.83495e-07
4.17686e-06
8.23367e-15
-1.63093e-07
4.22278e-06
8.39501e-15
-1.43727e-07
4.26305e-06
8.41236e-15
-1.25396e-07
4.29796e-06
8.31695e-15
-1.08092e-07
4.3278e-06
8.11573e-15
-9.18017e-08
4.35286e-06
7.84512e-15
-7.6504e-08
4.37344e-06
7.53287e-15
-6.21746e-08
4.3898e-06
7.19634e-15
-4.87848e-08
4.40223e-06
6.87368e-15
-3.63029e-08
4.41098e-06
6.57184e-15
-2.46946e-08
4.4163e-06
6.29949e-15
-1.39237e-08
4.41845e-06
6.04795e-15
-3.95248e-09
4.41764e-06
5.8207e-15
5.25723e-09
4.4141e-06
5.63335e-15
1.37442e-08
4.40805e-06
5.47202e-15
2.15477e-08
4.39967e-06
5.33845e-15
2.87065e-08
4.38916e-06
5.23783e-15
3.52588e-08
4.3767e-06
5.15282e-15
4.12421e-08
4.36244e-06
5.0817e-15
4.66925e-08
4.34656e-06
5.03833e-15
5.16454e-08
4.32918e-06
4.99842e-15
5.61345e-08
4.31045e-06
4.96372e-15
6.01923e-08
4.2905e-06
4.94637e-15
6.385e-08
4.26944e-06
4.92381e-15
6.71369e-08
4.24739e-06
4.91513e-15
7.00811e-08
4.22443e-06
4.90645e-15
7.2709e-08
4.20068e-06
4.90471e-15
7.50455e-08
4.17621e-06
4.89603e-15
7.71139e-08
4.1511e-06
4.89602e-15
7.89361e-08
4.12543e-06
4.90296e-15
8.05324e-08
4.09927e-06
4.89774e-15
8.19219e-08
4.07267e-06
4.90467e-15
8.31223e-08
4.0457e-06
4.90467e-15
8.415e-08
4.0184e-06
4.91333e-15
8.50202e-08
3.99083e-06
4.91679e-15
8.57471e-08
3.96302e-06
4.91852e-15
8.63435e-08
3.93502e-06
4.93412e-15
8.68216e-08
3.90686e-06
4.93411e-15
8.71925e-08
3.87858e-06
4.93584e-15
8.74664e-08
3.8502e-06
4.94624e-15
8.76528e-08
3.82175e-06
4.94449e-15
8.77604e-08
3.79326e-06
4.95663e-15
8.77972e-08
3.76475e-06
4.95488e-15
8.77707e-08
3.73623e-06
4.95487e-15
8.76878e-08
3.70772e-06
4.9566e-15
8.75547e-08
3.67925e-06
4.96179e-15
8.73773e-08
3.65082e-06
4.95658e-15
8.71611e-08
3.62244e-06
4.95483e-15
8.6911e-08
3.59413e-06
4.94788e-15
8.66319e-08
3.56589e-06
4.93399e-15
8.63279e-08
3.53774e-06
4.92878e-15
8.60032e-08
3.50967e-06
4.91489e-15
8.56615e-08
3.4817e-06
4.89927e-15
8.53063e-08
3.45382e-06
4.88191e-15
8.49409e-08
3.42605e-06
4.86803e-15
8.45684e-08
3.39838e-06
4.84546e-15
8.41918e-08
3.37081e-06
4.82464e-15
8.38136e-08
3.34334e-06
4.80381e-15
8.34366e-08
3.31598e-06
4.77952e-15
8.30631e-08
3.28872e-06
4.75349e-15
8.26954e-08
3.26156e-06
4.72399e-15
8.23358e-08
3.2345e-06
4.69969e-15
8.19862e-08
3.20753e-06
4.67539e-15
8.16486e-08
3.18065e-06
4.64416e-15
8.13249e-08
3.15386e-06
4.61987e-15
8.10169e-08
3.12714e-06
4.59731e-15
8.07263e-08
3.1005e-06
4.56954e-15
8.04548e-08
3.07393e-06
4.5331e-15
8.02038e-08
3.04742e-06
4.49666e-15
7.9975e-08
3.02096e-06
4.47757e-15
7.97697e-08
2.99455e-06
4.44287e-15
7.95894e-08
2.96817e-06
4.41511e-15
7.94355e-08
2.94183e-06
4.38734e-15
7.93091e-08
2.9155e-06
4.35611e-15
7.92116e-08
2.88919e-06
4.33008e-15
7.91443e-08
2.86287e-06
4.30232e-15
7.91082e-08
2.83655e-06
4.28149e-15
7.91046e-08
2.8102e-06
4.25373e-15
7.91346e-08
2.78383e-06
4.23117e-15
7.91992e-08
2.75741e-06
4.20688e-15
7.92995e-08
2.73094e-06
4.18779e-15
7.94365e-08
2.7044e-06
4.1687e-15
7.96112e-08
2.67778e-06
4.15655e-15
7.98247e-08
2.65107e-06
4.14093e-15
8.00777e-08
2.62426e-06
4.13919e-15
8.03712e-08
2.59733e-06
4.12878e-15
8.07061e-08
2.57028e-06
4.1253e-15
8.10832e-08
2.54308e-06
4.1253e-15
8.15032e-08
2.51572e-06
4.12356e-15
8.19671e-08
2.48819e-06
4.12355e-15
8.24753e-08
2.46047e-06
4.13222e-15
8.30288e-08
2.43256e-06
4.14436e-15
8.3628e-08
2.40443e-06
4.1617e-15
8.42735e-08
2.37607e-06
4.18598e-15
8.49659e-08
2.34747e-06
4.212e-15
8.57056e-08
2.31861e-06
4.23455e-15
8.64931e-08
2.28948e-06
4.26577e-15
8.73286e-08
2.26006e-06
4.30566e-15
8.82125e-08
2.23033e-06
4.34729e-15
8.91449e-08
2.20029e-06
4.39759e-15
9.01259e-08
2.16991e-06
4.44616e-15
9.11556e-08
2.13918e-06
4.50167e-15
9.22338e-08
2.10809e-06
4.56759e-15
9.33603e-08
2.07663e-06
4.64044e-15
9.4535e-08
2.04477e-06
4.7133e-15
9.57572e-08
2.0125e-06
4.8035e-15
9.70265e-08
1.97982e-06
4.89197e-15
9.83423e-08
1.9467e-06
4.98217e-15
9.97035e-08
1.91314e-06
5.08105e-15
1.01109e-07
1.87911e-06