/*--------------------------------*- C++ -*----------------------------------*\
  =========                 |
  \\      /  F ield         | OpenFOAM: The Open Source CFD Toolbox
   \\    /   O peration     | Website:  https://openfoam.org
    \\  /    A nd           | Version:  8
     \\/     M anipulation  |
\*---------------------------------------------------------------------------*/
FoamFile
{
    version     2.0;
    format      ascii;
    class       volVectorField;
    location    "3200";
    object      U;
}
// * * * * * * * * * * * * * * * * * * * * * * * * * * * * * * * * * * * * * //

dimensions      [0 1 -1 0 0 0 0];

internalField   nonuniform List<vector> 
48000
(
(-0.0166725 3.72024e-07 0.0183074)
(-0.0349079 8.28107e-08 0.0165663)
(-0.0480123 1.36737e-07 0.00795663)
(-0.0512106 8.96176e-08 -0.000160016)
(-0.0468023 3.35125e-08 -0.00601613)
(-0.0373128 -2.76389e-09 -0.00992772)
(-0.0242895 -2.56917e-08 -0.0124944)
(-0.00916734 -4.38413e-08 -0.0141316)
(0.00760361 -5.92116e-08 -0.0149775)
(0.0247843 -6.61409e-08 -0.0151992)
(0.0423153 -6.4005e-08 -0.0151121)
(0.0597728 -5.73155e-08 -0.0148225)
(0.0769586 -4.81284e-08 -0.0143965)
(0.0937175 -3.84996e-08 -0.013878)
(0.109939 -2.96551e-08 -0.0132973)
(0.125544 -2.21928e-08 -0.0126762)
(0.140476 -1.62495e-08 -0.0120303)
(0.154697 -1.16997e-08 -0.0113713)
(0.168182 -8.31501e-09 -0.010708)
(0.180918 -5.86309e-09 -0.0100471)
(0.192899 -4.08506e-09 -0.0093938)
(0.204128 -2.74869e-09 -0.0087522)
(0.214611 -1.67883e-09 -0.00812548)
(0.224362 -7.49836e-10 -0.00751616)
(0.233395 1.65828e-10 -0.00692619)
(0.241731 1.07388e-09 -0.0063571)
(0.249389 2.00667e-09 -0.00581004)
(0.256395 2.96802e-09 -0.00528584)
(0.262772 3.90653e-09 -0.00478507)
(0.268547 4.78793e-09 -0.00430807)
(0.273747 5.58746e-09 -0.00385497)
(0.2784 6.26707e-09 -0.00342575)
(0.282532 6.82484e-09 -0.0030202)
(0.286171 7.24555e-09 -0.00263799)
(0.289346 7.52158e-09 -0.0022787)
(0.292083 7.68149e-09 -0.00194177)
(0.29441 7.72337e-09 -0.00162658)
(0.296351 7.68339e-09 -0.00133244)
(0.297932 7.57679e-09 -0.00105859)
(0.299178 7.41688e-09 -0.000804245)
(0.300113 7.23032e-09 -0.000568578)
(0.300759 7.01521e-09 -0.000350755)
(0.301137 6.8039e-09 -0.000149913)
(0.301268 6.5926e-09 3.51831e-05)
(0.301173 6.38891e-09 0.000205234)
(0.300868 6.229e-09 0.000360722)
(0.300373 6.08051e-09 0.0005027)
(0.299702 5.96439e-09 0.000632114)
(0.298872 5.86921e-09 0.000749808)
(0.297897 5.8121e-09 0.000856568)
(0.29679 5.77021e-09 0.000953147)
(0.295563 5.74927e-09 0.00104027)
(0.29423 5.7664e-09 0.00111862)
(0.292799 5.79305e-09 0.00118887)
(0.291281 5.84255e-09 0.00125164)
(0.289686 5.91108e-09 0.00130752)
(0.288021 5.99674e-09 0.00135707)
(0.286295 6.08811e-09 0.00140081)
(0.284515 6.20042e-09 0.00143923)
(0.282687 6.32606e-09 0.00147278)
(0.280817 6.45741e-09 0.00150188)
(0.278912 6.60018e-09 0.00152693)
(0.276975 6.74485e-09 0.0015483)
(0.275011 6.89714e-09 0.00156631)
(0.273025 7.04752e-09 0.00158127)
(0.271021 7.21123e-09 0.00159348)
(0.269001 7.36922e-09 0.00160319)
(0.266969 7.52532e-09 0.00161064)
(0.264928 7.69093e-09 0.00161606)
(0.262879 7.84322e-09 0.00161964)
(0.260827 8.00121e-09 0.00162158)
(0.258772 8.14779e-09 0.00162204)
(0.256716 8.28675e-09 0.00162118)
(0.254661 8.42761e-09 0.00161915)
(0.252609 8.56276e-09 0.00161606)
(0.25056 8.6922e-09 0.00161206)
(0.248517 8.81784e-09 0.00160724)
(0.246479 8.93395e-09 0.00160171)
(0.244448 9.04055e-09 0.00159556)
(0.242425 9.13763e-09 0.00158889)
(0.24041 9.23471e-09 0.00158177)
(0.238404 9.31656e-09 0.00157427)
(0.236407 9.3946e-09 0.00156648)
(0.234419 9.45932e-09 0.00155844)
(0.232442 9.51262e-09 0.00155023)
(0.230475 9.56972e-09 0.00154189)
(0.228518 9.60588e-09 0.00153349)
(0.226571 9.64205e-09 0.00152507)
(0.224634 9.6725e-09 0.00151668)
(0.222708 9.68391e-09 0.00150836)
(0.220793 9.70104e-09 0.00150015)
(0.218887 9.71246e-09 0.0014921)
(0.216991 9.71055e-09 0.00148424)
(0.215104 9.70864e-09 0.00147661)
(0.213227 9.69721e-09 0.00146924)
(0.211359 9.67817e-09 0.00146216)
(0.2095 9.65342e-09 0.00145541)
(0.207648 9.63628e-09 0.00144902)
(0.205804 9.60582e-09 0.00144302)
(0.203968 9.56774e-09 0.00143742)
(0.202138 9.51824e-09 0.00143227)
(0.200314 9.48587e-09 0.00142759)
(0.198496 9.4497e-09 0.00142339)
(0.196683 9.40591e-09 0.00141972)
(0.194874 9.36212e-09 0.00141659)
(0.193068 9.31834e-09 0.00141402)
(0.191265 9.26693e-09 0.00141203)
(0.189464 9.21743e-09 0.00141066)
(0.187665 9.16984e-09 0.00140992)
(0.185866 9.12605e-09 0.00140984)
(0.184067 9.08417e-09 0.00141043)
(0.182267 9.04228e-09 0.00141171)
(0.180465 9.0023e-09 0.00141372)
(0.178659 8.96613e-09 0.00141645)
(0.17685 8.94328e-09 0.00141995)
(0.175036 8.90901e-09 0.00142422)
(0.173217 8.88807e-09 0.00142928)
(0.171391 8.87094e-09 0.00143516)
(0.169557 8.86712e-09 0.00144186)
(0.167714 8.8557e-09 0.00144942)
(0.165861 8.85189e-09 0.00145784)
(0.163998 8.85569e-09 0.00146715)
(0.162122 8.88234e-09 0.00147736)
(0.160234 8.90518e-09 0.00148848)
(0.158331 8.93564e-09 0.00150054)
(0.156414 8.98513e-09 0.00151354)
(0.154479 9.027e-09 0.0015275)
(0.152527 9.07649e-09 0.00154244)
(0.150557 9.15644e-09 0.00155836)
(0.148566 9.2402e-09 0.00157527)
(0.146554 9.33919e-09 0.00159319)
(0.14452 9.43436e-09 0.00161213)
(0.142463 9.54858e-09 0.00163209)
(0.14038 9.67802e-09 0.00165308)
(0.138272 9.8227e-09 0.0016751)
(0.136136 9.9826e-09 0.00169815)
(0.133973 1.01463e-08 0.00172224)
(0.131779 1.03443e-08 0.00174737)
(0.129555 1.05346e-08 0.00177353)
(0.127299 1.07516e-08 0.00180072)
(0.12501 1.09839e-08 0.00182892)
(0.122687 1.12352e-08 0.00185813)
(0.120328 1.14864e-08 0.00188834)
(0.117934 1.17606e-08 0.00191952)
(0.115501 1.20575e-08 0.00195166)
(0.11303 1.23773e-08 0.00198473)
(0.11052 1.27162e-08 0.0020187)
(0.107969 1.30664e-08 0.00205354)
(0.105378 1.34395e-08 0.00208922)
(0.102744 1.38203e-08 0.00212569)
(0.100067 1.42314e-08 0.0021629)
(0.0973469 1.46655e-08 0.0022008)
(0.0945828 1.51109e-08 0.00223933)
(0.091774 1.55716e-08 0.00227842)
(0.0889204 1.60437e-08 0.002318)
(0.0860215 1.65348e-08 0.00235798)
(0.0830772 1.70374e-08 0.00239827)
(0.0800874 1.75399e-08 0.00243876)
(0.0770524 1.80577e-08 0.00247934)
(0.0739723 1.85945e-08 0.00251989)
(0.0708476 1.91199e-08 0.00256024)
(0.067679 1.96644e-08 0.00260026)
(0.0644674 2.02431e-08 0.00263976)
(0.0612138 2.08141e-08 0.00267853)
(0.0579196 2.14461e-08 0.00271636)
(0.0545865 2.21048e-08 0.002753)
(0.0512165 2.28129e-08 0.00278817)
(0.047812 2.3563e-08 0.00282154)
(0.0443757 2.43701e-08 0.00285276)
(0.0409109 2.52572e-08 0.00288142)
(0.0374213 2.61937e-08 0.00290705)
(0.0339113 2.7176e-08 0.00292914)
(0.0303859 2.82078e-08 0.00294708)
(0.0268507 2.927e-08 0.00296017)
(0.0233124 3.03246e-08 0.00296762)
(0.0197785 3.14097e-08 0.00296851)
(0.0162577 3.25176e-08 0.00296178)
(0.0127599 3.3675e-08 0.00294617)
(0.00929674 3.49047e-08 0.00292021)
(0.0058806 3.62448e-08 0.00288207)
(0.0025314 3.77373e-08 0.00282944)
(-0.000744158 3.90013e-08 0.00275444)
(-0.0039096 4.01054e-08 0.00265258)
(-0.00694588 4.14074e-08 0.00252575)
(-0.00982544 4.26029e-08 0.00237354)
(-0.0125141 4.31131e-08 0.00219143)
(-0.0149746 4.24126e-08 0.00197231)
(-0.0171605 4.00597e-08 0.00170952)
(-0.0190182 3.5925e-08 0.00139446)
(-0.0204836 3.06634e-08 0.00101636)
(-0.0214804 2.59653e-08 0.000562258)
(-0.0219205 2.43739e-08 1.62928e-05)
(-0.0216944 2.79831e-08 -0.000635234)
(-0.0206903 3.70139e-08 -0.00140506)
(-0.0187851 4.69812e-08 -0.0023008)
(-0.0158667 4.89838e-08 -0.00330044)
(-0.0118755 4.0151e-08 -0.00429873)
(-0.00711409 3.55901e-08 -0.00493742)
(-0.00134219 5.22348e-08 -0.00347339)
(0.000301585 8.65589e-08 0.000587144)
(-0.0166736 3.72023e-07 0.0183065)
(-0.0349082 8.28092e-08 0.016566)
(-0.0480121 1.36736e-07 0.00795641)
(-0.0512103 8.96169e-08 -0.00016027)
(-0.0468019 3.35123e-08 -0.00601639)
(-0.0373124 -2.76387e-09 -0.00992797)
(-0.0242891 -2.56915e-08 -0.0124946)
(-0.00916697 -4.3841e-08 -0.0141318)
(0.00760395 -5.92111e-08 -0.0149777)
(0.0247846 -6.61405e-08 -0.0151994)
(0.0423156 -6.40046e-08 -0.0151123)
(0.059773 -5.73151e-08 -0.0148227)
(0.0769588 -4.81281e-08 -0.0143967)
(0.0937177 -3.84994e-08 -0.0138782)
(0.109939 -2.9655e-08 -0.0132975)
(0.125544 -2.21927e-08 -0.0126764)
(0.140476 -1.62494e-08 -0.0120305)
(0.154697 -1.16997e-08 -0.0113715)
(0.168182 -8.31499e-09 -0.0107082)
(0.180918 -5.86307e-09 -0.0100472)
(0.192899 -4.08505e-09 -0.00939396)
(0.204128 -2.74868e-09 -0.00875235)
(0.214611 -1.67882e-09 -0.00812563)
(0.224362 -7.49835e-10 -0.0075163)
(0.233395 1.65827e-10 -0.00692632)
(0.24173 1.07387e-09 -0.00635723)
(0.249389 2.00667e-09 -0.00581017)
(0.256395 2.96802e-09 -0.00528596)
(0.262772 3.90652e-09 -0.00478519)
(0.268547 4.78792e-09 -0.00430819)
(0.273747 5.58745e-09 -0.00385509)
(0.278399 6.26706e-09 -0.00342586)
(0.282532 6.82483e-09 -0.00302031)
(0.286171 7.24554e-09 -0.0026381)
(0.289346 7.52157e-09 -0.0022788)
(0.292083 7.68148e-09 -0.00194187)
(0.294409 7.72336e-09 -0.00162668)
(0.296351 7.68338e-09 -0.00133254)
(0.297932 7.57678e-09 -0.00105869)
(0.299178 7.41687e-09 -0.000804344)
(0.300113 7.23031e-09 -0.000568675)
(0.300758 7.0152e-09 -0.00035085)
(0.301137 6.8039e-09 -0.000150007)
(0.301268 6.59259e-09 3.50901e-05)
(0.301173 6.3889e-09 0.000205143)
(0.300868 6.22899e-09 0.000360632)
(0.300373 6.08051e-09 0.000502611)
(0.299702 5.96438e-09 0.000632026)
(0.298872 5.8692e-09 0.000749721)
(0.297897 5.81209e-09 0.000856482)
(0.29679 5.77021e-09 0.000953063)
(0.295563 5.74927e-09 0.00104018)
(0.294229 5.7664e-09 0.00111854)
(0.292799 5.79305e-09 0.00118879)
(0.291281 5.84254e-09 0.00125156)
(0.289686 5.91107e-09 0.00130744)
(0.288021 5.99673e-09 0.00135699)
(0.286295 6.0881e-09 0.00140073)
(0.284515 6.20042e-09 0.00143915)
(0.282687 6.32605e-09 0.0014727)
(0.280817 6.4574e-09 0.0015018)
(0.278912 6.60017e-09 0.00152686)
(0.276975 6.74484e-09 0.00154822)
(0.275011 6.89713e-09 0.00156623)
(0.273025 7.04751e-09 0.0015812)
(0.271021 7.21122e-09 0.0015934)
(0.269001 7.36922e-09 0.00160311)
(0.266969 7.52531e-09 0.00161057)
(0.264928 7.69092e-09 0.00161598)
(0.262879 7.84321e-09 0.00161957)
(0.260827 8.00121e-09 0.00162151)
(0.258772 8.14778e-09 0.00162197)
(0.256716 8.28674e-09 0.00162111)
(0.254661 8.4276e-09 0.00161907)
(0.252609 8.56276e-09 0.00161599)
(0.25056 8.6922e-09 0.00161198)
(0.248517 8.81783e-09 0.00160716)
(0.246479 8.93395e-09 0.00160163)
(0.244448 9.04054e-09 0.00159549)
(0.242425 9.13762e-09 0.00158881)
(0.24041 9.2347e-09 0.00158169)
(0.238404 9.31655e-09 0.0015742)
(0.236407 9.3946e-09 0.0015664)
(0.234419 9.45931e-09 0.00155836)
(0.232442 9.51261e-09 0.00155015)
(0.230475 9.56971e-09 0.00154182)
(0.228517 9.60587e-09 0.00153341)
(0.226571 9.64204e-09 0.00152499)
(0.224634 9.67249e-09 0.0015166)
(0.222708 9.68391e-09 0.00150828)
(0.220792 9.70103e-09 0.00150007)
(0.218887 9.71245e-09 0.00149202)
(0.216991 9.71054e-09 0.00148416)
(0.215104 9.70863e-09 0.00147653)
(0.213227 9.6972e-09 0.00146916)
(0.211359 9.67816e-09 0.00146208)
(0.2095 9.65341e-09 0.00145534)
(0.207648 9.63627e-09 0.00144894)
(0.205804 9.60581e-09 0.00144294)
(0.203968 9.56773e-09 0.00143734)
(0.202138 9.51823e-09 0.00143219)
(0.200314 9.48586e-09 0.00142751)
(0.198496 9.44969e-09 0.00142332)
(0.196683 9.4059e-09 0.00141964)
(0.194874 9.36211e-09 0.00141651)
(0.193068 9.31833e-09 0.00141394)
(0.191265 9.26692e-09 0.00141196)
(0.189464 9.21743e-09 0.00141059)
(0.187665 9.16983e-09 0.00140985)
(0.185866 9.12604e-09 0.00140976)
(0.184067 9.08416e-09 0.00141035)
(0.182267 9.04228e-09 0.00141164)
(0.180465 9.0023e-09 0.00141364)
(0.178659 8.96612e-09 0.00141638)
(0.17685 8.94328e-09 0.00141987)
(0.175036 8.90901e-09 0.00142414)
(0.173217 8.88806e-09 0.0014292)
(0.171391 8.87093e-09 0.00143508)
(0.169557 8.86712e-09 0.00144179)
(0.167714 8.85569e-09 0.00144934)
(0.165861 8.85188e-09 0.00145777)
(0.163998 8.85568e-09 0.00146708)
(0.162122 8.88233e-09 0.00147728)
(0.160234 8.90517e-09 0.00148841)
(0.158331 8.93563e-09 0.00150046)
(0.156414 8.98512e-09 0.00151346)
(0.154479 9.02699e-09 0.00152743)
(0.152527 9.07649e-09 0.00154236)
(0.150557 9.15644e-09 0.00155828)
(0.148566 9.24019e-09 0.00157519)
(0.146554 9.33918e-09 0.00159312)
(0.14452 9.43436e-09 0.00161205)
(0.142463 9.54857e-09 0.00163201)
(0.14038 9.67801e-09 0.001653)
(0.138272 9.82269e-09 0.00167502)
(0.136136 9.98259e-09 0.00169807)
(0.133973 1.01463e-08 0.00172216)
(0.131779 1.03443e-08 0.00174729)
(0.129555 1.05346e-08 0.00177345)
(0.127299 1.07516e-08 0.00180064)
(0.12501 1.09839e-08 0.00182884)
(0.122687 1.12352e-08 0.00185805)
(0.120328 1.14864e-08 0.00188825)
(0.117934 1.17605e-08 0.00191944)
(0.115501 1.20575e-08 0.00195157)
(0.11303 1.23773e-08 0.00198464)
(0.11052 1.27162e-08 0.00201861)
(0.107969 1.30664e-08 0.00205346)
(0.105378 1.34395e-08 0.00208913)
(0.102744 1.38202e-08 0.0021256)
(0.100067 1.42314e-08 0.00216281)
(0.097347 1.46654e-08 0.00220071)
(0.0945828 1.51109e-08 0.00223924)
(0.0917741 1.55716e-08 0.00227833)
(0.0889204 1.60437e-08 0.0023179)
(0.0860215 1.65348e-08 0.00235788)
(0.0830772 1.70373e-08 0.00239817)
(0.0800875 1.75399e-08 0.00243866)
(0.0770524 1.80577e-08 0.00247924)
(0.0739723 1.85945e-08 0.00251978)
(0.0708477 1.91199e-08 0.00256014)
(0.0676791 1.96643e-08 0.00260015)
(0.0644674 2.0243e-08 0.00263964)
(0.0612138 2.08141e-08 0.00267842)
(0.0579196 2.14461e-08 0.00271624)
(0.0545865 2.21048e-08 0.00275288)
(0.0512165 2.28129e-08 0.00278804)
(0.047812 2.35629e-08 0.00282141)
(0.0443757 2.43701e-08 0.00285262)
(0.0409109 2.52571e-08 0.00288128)
(0.0374214 2.61937e-08 0.00290691)
(0.0339114 2.7176e-08 0.002929)
(0.0303859 2.82077e-08 0.00294693)
(0.0268507 2.92699e-08 0.00296002)
(0.0233124 3.03245e-08 0.00296746)
(0.0197785 3.14096e-08 0.00296835)
(0.0162577 3.25175e-08 0.00296161)
(0.0127599 3.36749e-08 0.00294599)
(0.00929679 3.49046e-08 0.00292003)
(0.00588065 3.62448e-08 0.00288188)
(0.00253145 3.77372e-08 0.00282925)
(-0.000744118 3.90012e-08 0.00275424)
(-0.00390956 4.01053e-08 0.00265238)
(-0.00694584 4.14074e-08 0.00252554)
(-0.0098254 4.26028e-08 0.00237333)
(-0.0125141 4.3113e-08 0.00219121)
(-0.0149745 4.24125e-08 0.00197208)
(-0.0171604 4.00596e-08 0.00170929)
(-0.0190182 3.5925e-08 0.00139422)
(-0.0204836 3.06634e-08 0.00101611)
(-0.0214804 2.59653e-08 0.000562005)
(-0.0219205 2.43739e-08 1.60332e-05)
(-0.0216944 2.79831e-08 -0.0006355)
(-0.0206903 3.70138e-08 -0.00140533)
(-0.0187851 4.69811e-08 -0.0023011)
(-0.0158668 4.89837e-08 -0.00330078)
(-0.0118756 4.0151e-08 -0.00429914)
(-0.00711427 3.55898e-08 -0.00493789)
(-0.00134249 5.22355e-08 -0.00347404)
(0.00030125 8.65633e-08 0.00058631)
(-0.0135294 2.06223e-08 0.0393724)
(-0.0195332 6.26735e-09 0.0250261)
(-0.0193611 1.92445e-08 0.0101818)
(-0.0154624 1.36305e-08 -0.00277376)
(-0.00835315 7.68433e-09 -0.0125974)
(0.00131528 1.62395e-09 -0.0195302)
(0.0129671 -3.59308e-09 -0.0242016)
(0.0260304 -7.62412e-09 -0.0272189)
(0.0400858 -1.00799e-08 -0.0289782)
(0.0547304 -1.07547e-08 -0.0298101)
(0.0696924 -1.01065e-08 -0.0300243)
(0.0847183 -8.80343e-09 -0.0297908)
(0.0996268 -7.3119e-09 -0.0292363)
(0.114275 -5.9917e-09 -0.0284483)
(0.128553 -4.98561e-09 -0.0274904)
(0.142378 -4.31456e-09 -0.0264101)
(0.155688 -3.93382e-09 -0.025243)
(0.168436 -3.76106e-09 -0.0240168)
(0.180588 -3.72108e-09 -0.0227534)
(0.192123 -3.74582e-09 -0.0214699)
(0.203026 -3.77866e-09 -0.0201804)
(0.213291 -3.78341e-09 -0.0188961)
(0.222918 -3.73296e-09 -0.0176263)
(0.231909 -3.61969e-09 -0.0163785)
(0.240275 -3.4436e-09 -0.0151589)
(0.248026 -3.21801e-09 -0.0139726)
(0.255179 -2.95863e-09 -0.0128235)
(0.261749 -2.6845e-09 -0.011715)
(0.267755 -2.41132e-09 -0.0106494)
(0.273219 -2.15909e-09 -0.00962859)
(0.278161 -1.93588e-09 -0.00865388)
(0.282605 -1.74837e-09 -0.00772604)
(0.286572 -1.59988e-09 -0.00684543)
(0.290086 -1.49232e-09 -0.00601201)
(0.293171 -1.42283e-09 -0.00522543)
(0.295849 -1.37952e-09 -0.00448502)
(0.298145 -1.36191e-09 -0.00378989)
(0.30008 -1.36143e-09 -0.00313893)
(0.301677 -1.37476e-09 -0.00253084)
(0.302957 -1.3976e-09 -0.00196419)
(0.303941 -1.42044e-09 -0.00143743)
(0.30465 -1.44661e-09 -0.000948942)
(0.305102 -1.46898e-09 -0.000497009)
(0.305317 -1.48468e-09 -7.98884e-05)
(0.305312 -1.50039e-09 0.000304217)
(0.305105 -1.51609e-09 0.000657144)
(0.30471 -1.52466e-09 0.000980683)
(0.304144 -1.52894e-09 0.00127658)
(0.30342 -1.52704e-09 0.00154655)
(0.302553 -1.5218e-09 0.00179225)
(0.301553 -1.51371e-09 0.00201529)
(0.300435 -1.50514e-09 0.00221722)
(0.299207 -1.49324e-09 0.00239955)
(0.297881 -1.48182e-09 0.00256368)
(0.296466 -1.46754e-09 0.00271099)
(0.29497 -1.45279e-09 0.00284276)
(0.293403 -1.43899e-09 0.0029602)
(0.291771 -1.42281e-09 0.00306446)
(0.290082 -1.40663e-09 0.00315661)
(0.288342 -1.3914e-09 0.00323765)
(0.286557 -1.37427e-09 0.00330851)
(0.284732 -1.35904e-09 0.00337008)
(0.282872 -1.34381e-09 0.00342315)
(0.280982 -1.33001e-09 0.00346849)
(0.279066 -1.31526e-09 0.00350677)
(0.277128 -1.30289e-09 0.00353865)
(0.275171 -1.29004e-09 0.00356471)
(0.273198 -1.27767e-09 0.0035855)
(0.271213 -1.26672e-09 0.00360152)
(0.269217 -1.25721e-09 0.00361323)
(0.267214 -1.24769e-09 0.00362106)
(0.265205 -1.2396e-09 0.00362539)
(0.263193 -1.23437e-09 0.00362659)
(0.261178 -1.22818e-09 0.00362499)
(0.259163 -1.22295e-09 0.00362089)
(0.257149 -1.21867e-09 0.00361456)
(0.255137 -1.21677e-09 0.00360628)
(0.253128 -1.21534e-09 0.00359627)
(0.251124 -1.21487e-09 0.00358476)
(0.249125 -1.21487e-09 0.00357196)
(0.247131 -1.21725e-09 0.00355804)
(0.245144 -1.22058e-09 0.00354318)
(0.243165 -1.22296e-09 0.00352755)
(0.241192 -1.22963e-09 0.0035113)
(0.239227 -1.23391e-09 0.00349457)
(0.237271 -1.24106e-09 0.0034775)
(0.235322 -1.24772e-09 0.0034602)
(0.233382 -1.25534e-09 0.00344279)
(0.231451 -1.26486e-09 0.00342538)
(0.229528 -1.27343e-09 0.00340808)
(0.227614 -1.28247e-09 0.00339097)
(0.225707 -1.29104e-09 0.00337417)
(0.22381 -1.30008e-09 0.00335774)
(0.22192 -1.31103e-09 0.00334178)
(0.220037 -1.32055e-09 0.00332636)
(0.218163 -1.33102e-09 0.00331156)
(0.216295 -1.34102e-09 0.00329744)
(0.214434 -1.35054e-09 0.00328409)
(0.21258 -1.36101e-09 0.00327156)
(0.210731 -1.37243e-09 0.00325992)
(0.208888 -1.38291e-09 0.00324923)
(0.20705 -1.39195e-09 0.00323954)
(0.205216 -1.40242e-09 0.00323093)
(0.203385 -1.41052e-09 0.00322343)
(0.201558 -1.41908e-09 0.0032171)
(0.199734 -1.42718e-09 0.003212)
(0.197911 -1.43574e-09 0.00320817)
(0.196089 -1.44479e-09 0.00320567)
(0.194268 -1.45002e-09 0.00320453)
(0.192446 -1.45717e-09 0.00320482)
(0.190623 -1.46288e-09 0.00320656)
(0.188798 -1.46811e-09 0.00320982)
(0.18697 -1.4743e-09 0.00321462)
(0.185139 -1.47811e-09 0.00322101)
(0.183303 -1.48097e-09 0.00322904)
(0.181462 -1.48525e-09 0.00323873)
(0.179614 -1.48573e-09 0.00325014)
(0.177759 -1.48906e-09 0.00326329)
(0.175896 -1.48954e-09 0.00327823)
(0.174024 -1.48954e-09 0.00329499)
(0.172141 -1.4905e-09 0.00331359)
(0.170247 -1.49097e-09 0.00333408)
(0.168342 -1.48717e-09 0.00335649)
(0.166422 -1.48669e-09 0.00338084)
(0.164489 -1.48194e-09 0.00340716)
(0.16254 -1.48003e-09 0.00343547)
(0.160575 -1.4767e-09 0.0034658)
(0.158592 -1.47242e-09 0.00349818)
(0.15659 -1.46861e-09 0.00353261)
(0.154569 -1.46243e-09 0.00356911)
(0.152527 -1.45672e-09 0.0036077)
(0.150463 -1.45339e-09 0.00364838)
(0.148376 -1.4472e-09 0.00369117)
(0.146264 -1.44102e-09 0.00373605)
(0.144128 -1.43388e-09 0.00378304)
(0.141965 -1.42769e-09 0.00383212)
(0.139775 -1.41913e-09 0.00388328)
(0.137556 -1.41247e-09 0.00393652)
(0.135307 -1.40723e-09 0.00399179)
(0.133028 -1.39914e-09 0.00404909)
(0.130717 -1.392e-09 0.00410837)
(0.128374 -1.38392e-09 0.00416959)
(0.125996 -1.38106e-09 0.00423271)
(0.123585 -1.37487e-09 0.00429767)
(0.121137 -1.36869e-09 0.0043644)
(0.118654 -1.36393e-09 0.00443285)
(0.116133 -1.35822e-09 0.00450291)
(0.113575 -1.35394e-09 0.0045745)
(0.110978 -1.35013e-09 0.00464752)
(0.108342 -1.34728e-09 0.00472186)
(0.105666 -1.3468e-09 0.00479737)
(0.102949 -1.34775e-09 0.00487393)
(0.100193 -1.35013e-09 0.00495138)
(0.0973951 -1.35299e-09 0.00502954)
(0.0945565 -1.3587e-09 0.00510823)
(0.0916767 -1.36679e-09 0.00518723)
(0.088756 -1.37726e-09 0.00526633)
(0.0857944 -1.39154e-09 0.00534525)
(0.0827924 -1.40772e-09 0.00542374)
(0.0797504 -1.42675e-09 0.00550148)
(0.0766693 -1.44865e-09 0.00557814)
(0.0735498 -1.47054e-09 0.00565335)
(0.0703931 -1.49529e-09 0.0057267)
(0.0672006 -1.51813e-09 0.00579775)
(0.0639739 -1.54097e-09 0.00586599)
(0.0607149 -1.56382e-09 0.00593087)
(0.0574259 -1.58476e-09 0.00599179)
(0.0541093 -1.60379e-09 0.00604805)
(0.0507683 -1.62568e-09 0.0060989)
(0.0474061 -1.64472e-09 0.00614347)
(0.0440266 -1.66852e-09 0.00618081)
(0.0406343 -1.69897e-09 0.00620983)
(0.0372342 -1.73514e-09 0.00622932)
(0.0338317 -1.78369e-09 0.00623787)
(0.0304335 -1.8465e-09 0.00623392)
(0.0270467 -1.92741e-09 0.00621565)
(0.0236795 -2.01307e-09 0.00618099)
(0.0203411 -2.11301e-09 0.00612753)
(0.0170422 -2.20724e-09 0.00605247)
(0.0137945 -2.29957e-09 0.00595231)
(0.010612 -2.38142e-09 0.00582327)
(0.00750917 -2.42425e-09 0.00565876)
(0.00450392 -2.40617e-09 0.0054528)
(0.00161548 -2.37571e-09 0.00520149)
(-0.00113552 -2.41093e-09 0.00489818)
(-0.00372012 -2.59367e-09 0.00453493)
(-0.00611163 -3.02008e-09 0.00410177)
(-0.00827791 -3.76154e-09 0.00358696)
(-0.0101833 -4.81234e-09 0.00297621)
(-0.0117883 -5.96688e-09 0.00225293)
(-0.0130495 -6.81685e-09 0.00139864)
(-0.0139214 -6.76926e-09 0.000393345)
(-0.0143581 -5.41007e-09 -0.000778491)
(-0.0143138 -3.24757e-09 -0.00212353)
(-0.0137558 -2.60986e-09 -0.00362846)
(-0.012671 -7.27562e-09 -0.00522318)
(-0.0110815 -1.80063e-08 -0.00670426)
(-0.00902331 -2.09017e-08 -0.00759869)
(-0.00639989 1.29434e-10 -0.00664837)
(-0.00367781 3.39568e-09 -0.0019238)
(-0.0135298 2.06218e-08 0.0393719)
(-0.0195333 6.2672e-09 0.0250258)
(-0.019361 1.92442e-08 0.0101816)
(-0.0154622 1.36303e-08 -0.00277395)
(-0.00835299 7.68422e-09 -0.0125975)
(0.00131545 1.62393e-09 -0.0195303)
(0.0129672 -3.59304e-09 -0.0242018)
(0.0260306 -7.62403e-09 -0.027219)
(0.0400859 -1.00798e-08 -0.0289783)
(0.0547305 -1.07546e-08 -0.0298102)
(0.0696925 -1.01064e-08 -0.0300244)
(0.0847184 -8.80336e-09 -0.0297909)
(0.0996268 -7.31184e-09 -0.0292363)
(0.114275 -5.99166e-09 -0.0284483)
(0.128553 -4.98557e-09 -0.0274905)
(0.142378 -4.31453e-09 -0.0264101)
(0.155688 -3.9338e-09 -0.025243)
(0.168436 -3.76104e-09 -0.0240169)
(0.180588 -3.72106e-09 -0.0227534)
(0.192123 -3.7458e-09 -0.02147)
(0.203026 -3.77864e-09 -0.0201805)
(0.213291 -3.7834e-09 -0.0188962)
(0.222917 -3.73295e-09 -0.0176263)
(0.231909 -3.61968e-09 -0.0163786)
(0.240275 -3.44358e-09 -0.015159)
(0.248026 -3.218e-09 -0.0139726)
(0.255179 -2.95862e-09 -0.0128236)
(0.261749 -2.68449e-09 -0.011715)
(0.267755 -2.41132e-09 -0.0106494)
(0.273219 -2.15908e-09 -0.00962861)
(0.278161 -1.93587e-09 -0.0086539)
(0.282604 -1.74836e-09 -0.00772607)
(0.286572 -1.59987e-09 -0.00684545)
(0.290086 -1.49231e-09 -0.00601204)
(0.293171 -1.42283e-09 -0.00522545)
(0.295849 -1.37952e-09 -0.00448504)
(0.298145 -1.36191e-09 -0.00378991)
(0.30008 -1.36143e-09 -0.00313895)
(0.301676 -1.37475e-09 -0.00253086)
(0.302956 -1.3976e-09 -0.00196421)
(0.303941 -1.42044e-09 -0.00143746)
(0.304649 -1.44661e-09 -0.000948967)
(0.305102 -1.46898e-09 -0.000497033)
(0.305317 -1.48468e-09 -7.99133e-05)
(0.305312 -1.50039e-09 0.000304192)
(0.305105 -1.51609e-09 0.000657119)
(0.30471 -1.52465e-09 0.000980658)
(0.304144 -1.52894e-09 0.00127656)
(0.30342 -1.52703e-09 0.00154652)
(0.302553 -1.5218e-09 0.00179222)
(0.301553 -1.51371e-09 0.00201526)
(0.300434 -1.50514e-09 0.0022172)
(0.299207 -1.49324e-09 0.00239952)
(0.297881 -1.48182e-09 0.00256366)
(0.296466 -1.46754e-09 0.00271097)
(0.29497 -1.45279e-09 0.00284274)
(0.293403 -1.43899e-09 0.00296018)
(0.291771 -1.42281e-09 0.00306444)
(0.290082 -1.40663e-09 0.00315658)
(0.288342 -1.3914e-09 0.00323762)
(0.286557 -1.37427e-09 0.00330849)
(0.284732 -1.35904e-09 0.00337006)
(0.282872 -1.34381e-09 0.00342313)
(0.280982 -1.33001e-09 0.00346846)
(0.279066 -1.31526e-09 0.00350675)
(0.277128 -1.30289e-09 0.00353863)
(0.275171 -1.29004e-09 0.00356469)
(0.273198 -1.27766e-09 0.00358548)
(0.271213 -1.26672e-09 0.0036015)
(0.269217 -1.2572e-09 0.00361321)
(0.267214 -1.24769e-09 0.00362103)
(0.265205 -1.2396e-09 0.00362537)
(0.263192 -1.23436e-09 0.00362657)
(0.261178 -1.22818e-09 0.00362497)
(0.259163 -1.22295e-09 0.00362086)
(0.257149 -1.21867e-09 0.00361454)
(0.255137 -1.21676e-09 0.00360626)
(0.253128 -1.21534e-09 0.00359625)
(0.251124 -1.21486e-09 0.00358474)
(0.249125 -1.21487e-09 0.00357194)
(0.247131 -1.21725e-09 0.00355802)
(0.245144 -1.22058e-09 0.00354316)
(0.243164 -1.22296e-09 0.00352753)
(0.241192 -1.22963e-09 0.00351128)
(0.239227 -1.23391e-09 0.00349455)
(0.237271 -1.24105e-09 0.00347748)
(0.235322 -1.24772e-09 0.00346018)
(0.233382 -1.25533e-09 0.00344277)
(0.231451 -1.26485e-09 0.00342536)
(0.229528 -1.27342e-09 0.00340806)
(0.227614 -1.28247e-09 0.00339095)
(0.225707 -1.29104e-09 0.00337415)
(0.22381 -1.30008e-09 0.00335772)
(0.22192 -1.31103e-09 0.00334176)
(0.220037 -1.32055e-09 0.00332634)
(0.218163 -1.33102e-09 0.00331154)
(0.216295 -1.34102e-09 0.00329742)
(0.214434 -1.35054e-09 0.00328407)
(0.21258 -1.36101e-09 0.00327154)
(0.210731 -1.37243e-09 0.0032599)
(0.208888 -1.3829e-09 0.00324921)
(0.20705 -1.39195e-09 0.00323953)
(0.205216 -1.40242e-09 0.00323091)
(0.203385 -1.41051e-09 0.00322341)
(0.201558 -1.41908e-09 0.00321708)
(0.199734 -1.42717e-09 0.00321198)
(0.197911 -1.43574e-09 0.00320815)
(0.196089 -1.44479e-09 0.00320565)
(0.194267 -1.45002e-09 0.00320451)
(0.192446 -1.45716e-09 0.0032048)
(0.190623 -1.46288e-09 0.00320655)
(0.188798 -1.46811e-09 0.0032098)
(0.18697 -1.4743e-09 0.0032146)
(0.185139 -1.47811e-09 0.00322099)
(0.183303 -1.48097e-09 0.00322902)
(0.181462 -1.48525e-09 0.00323872)
(0.179614 -1.48573e-09 0.00325012)
(0.177759 -1.48906e-09 0.00326328)
(0.175896 -1.48954e-09 0.00327821)
(0.174024 -1.48954e-09 0.00329497)
(0.172141 -1.49049e-09 0.00331357)
(0.170247 -1.49097e-09 0.00333406)
(0.168342 -1.48717e-09 0.00335647)
(0.166422 -1.48669e-09 0.00338082)
(0.164489 -1.48193e-09 0.00340714)
(0.16254 -1.48003e-09 0.00343545)
(0.160575 -1.4767e-09 0.00346579)
(0.158592 -1.47242e-09 0.00349816)
(0.15659 -1.46861e-09 0.00353259)
(0.154569 -1.46243e-09 0.00356909)
(0.152527 -1.45672e-09 0.00360768)
(0.150463 -1.45339e-09 0.00364836)
(0.148376 -1.4472e-09 0.00369115)
(0.146264 -1.44102e-09 0.00373603)
(0.144128 -1.43388e-09 0.00378302)
(0.141965 -1.42769e-09 0.0038321)
(0.139775 -1.41913e-09 0.00388327)
(0.137556 -1.41246e-09 0.0039365)
(0.135307 -1.40723e-09 0.00399177)
(0.133028 -1.39914e-09 0.00404907)
(0.130717 -1.392e-09 0.00410835)
(0.128374 -1.38391e-09 0.00416957)
(0.125996 -1.38106e-09 0.00423269)
(0.123585 -1.37487e-09 0.00429765)
(0.121137 -1.36869e-09 0.00436438)
(0.118654 -1.36393e-09 0.00443283)
(0.116133 -1.35822e-09 0.00450289)
(0.113575 -1.35393e-09 0.00457448)
(0.110978 -1.35013e-09 0.0046475)
(0.108342 -1.34727e-09 0.00472184)
(0.105666 -1.3468e-09 0.00479735)
(0.102949 -1.34775e-09 0.00487391)
(0.100193 -1.35013e-09 0.00495136)
(0.0973951 -1.35299e-09 0.00502952)
(0.0945565 -1.3587e-09 0.00510821)
(0.0916767 -1.36679e-09 0.00518721)
(0.088756 -1.37726e-09 0.0052663)
(0.0857944 -1.39154e-09 0.00534523)
(0.0827924 -1.40772e-09 0.00542371)
(0.0797504 -1.42675e-09 0.00550145)
(0.0766693 -1.44864e-09 0.00557811)
(0.0735498 -1.47054e-09 0.00565332)
(0.0703931 -1.49528e-09 0.00572667)
(0.0672006 -1.51813e-09 0.00579772)
(0.0639739 -1.54097e-09 0.00586596)
(0.0607149 -1.56381e-09 0.00593085)
(0.0574259 -1.58475e-09 0.00599176)
(0.0541093 -1.60379e-09 0.00604802)
(0.0507683 -1.62568e-09 0.00609887)
(0.0474061 -1.64472e-09 0.00614344)
(0.0440267 -1.66851e-09 0.00618078)
(0.0406344 -1.69897e-09 0.0062098)
(0.0372342 -1.73514e-09 0.00622929)
(0.0338318 -1.78368e-09 0.00623784)
(0.0304335 -1.8465e-09 0.00623389)
(0.0270467 -1.9274e-09 0.00621562)
(0.0236795 -2.01307e-09 0.00618096)
(0.0203411 -2.11301e-09 0.0061275)
(0.0170422 -2.20724e-09 0.00605243)
(0.0137945 -2.29956e-09 0.00595228)
(0.010612 -2.38142e-09 0.00582323)
(0.00750919 -2.42425e-09 0.00565872)
(0.00450394 -2.40616e-09 0.00545276)
(0.00161549 -2.37571e-09 0.00520145)
(-0.00113551 -2.41092e-09 0.00489814)
(-0.00372011 -2.59367e-09 0.00453489)
(-0.00611162 -3.02008e-09 0.00410173)
(-0.0082779 -3.76154e-09 0.00358691)
(-0.0101833 -4.81233e-09 0.00297617)
(-0.0117883 -5.96687e-09 0.00225288)
(-0.0130495 -6.81683e-09 0.00139859)
(-0.0139214 -6.76924e-09 0.000393293)
(-0.0143581 -5.41006e-09 -0.000778546)
(-0.0143138 -3.24756e-09 -0.00212359)
(-0.0137558 -2.60985e-09 -0.00362853)
(-0.012671 -7.2756e-09 -0.00522326)
(-0.0110816 -1.80062e-08 -0.00670436)
(-0.00902339 -2.09016e-08 -0.00759883)
(-0.00640007 1.29435e-10 -0.00664862)
(-0.00367819 3.39592e-09 -0.00192424)
(-0.00513663 1.75459e-08 0.0518918)
(-0.00489272 -2.44206e-09 0.024214)
(0.000523455 6.38891e-09 0.00418118)
(0.00771124 7.28549e-09 -0.0112709)
(0.0163129 8.08406e-09 -0.0229398)
(0.0261111 7.30687e-09 -0.0314471)
(0.0369757 5.85102e-09 -0.037416)
(0.0487125 4.4737e-09 -0.0414123)
(0.0611141 3.4895e-09 -0.0438835)
(0.0739843 3.03261e-09 -0.0451908)
(0.087135 3.02405e-09 -0.0456336)
(0.100387 3.20156e-09 -0.0454263)
(0.113593 3.39669e-09 -0.0447307)
(0.126631 3.48949e-09 -0.0436674)
(0.1394 3.44285e-09 -0.0423278)
(0.151822 3.2701e-09 -0.0407822)
(0.163833 3.00406e-09 -0.0390857)
(0.175385 2.68377e-09 -0.0372814)
(0.18644 2.34539e-09 -0.0354042)
(0.196972 2.01844e-09 -0.0334821)
(0.206962 1.72337e-09 -0.0315381)
(0.216398 1.47804e-09 -0.029591)
(0.225275 1.28719e-09 -0.0276564)
(0.233592 1.15204e-09 -0.0257472)
(0.241352 1.07066e-09 -0.023874)
(0.248564 1.03163e-09 -0.0220456)
(0.255238 1.02545e-09 -0.0202692)
(0.261385 1.04139e-09 -0.0185505)
(0.267021 1.06804e-09 -0.016894)
(0.272162 1.09731e-09 -0.0153032)
(0.276827 1.12206e-09 -0.0137807)
(0.281033 1.13753e-09 -0.0123282)
(0.284801 1.14276e-09 -0.0109467)
(0.28815 1.13491e-09 -0.00963651)
(0.2911 1.11706e-09 -0.00839752)
(0.293673 1.09184e-09 -0.00722898)
(0.295889 1.05924e-09 -0.0061298)
(0.297766 1.02164e-09 -0.0050985)
(0.299327 9.82619e-10 -0.00413331)
(0.300589 9.42642e-10 -0.00323218)