/*--------------------------------*- C++ -*----------------------------------*\
  =========                 |
  \\      /  F ield         | OpenFOAM: The Open Source CFD Toolbox
   \\    /   O peration     | Website:  https://openfoam.org
    \\  /    A nd           | Version:  8
     \\/     M anipulation  |
\*---------------------------------------------------------------------------*/
FoamFile
{
    version     2.0;
    format      ascii;
    class       volScalarField;
    location    "4500";
    object      alphat;
}
// * * * * * * * * * * * * * * * * * * * * * * * * * * * * * * * * * * * * * //

dimensions      [1 -1 -1 0 0 0 0];

internalField   nonuniform List<scalar> 
48000
(
5.4402e-05
9.48368e-05
0.000117454
0.000134066
0.00014791
0.000159639
0.000169833
0.000178873
0.000187117
0.000194804
0.000201915
0.000208568
0.000214821
0.000220721
0.000226306
0.000231605
0.000236643
0.000241437
0.000246005
0.00025036
0.000254513
0.000258473
0.000262248
0.000265847
0.000269275
0.000272538
0.000275641
0.00027859
0.000281389
0.000284042
0.000286553
0.000288927
0.000291167
0.000293277
0.000295262
0.000297123
0.000298866
0.000300494
0.000302011
0.000303419
0.000304723
0.000305926
0.000307032
0.000308042
0.000308961
0.000309814
0.000310585
0.000311275
0.000311885
0.000312421
0.000312884
0.000313279
0.000313608
0.000313874
0.000314081
0.000314232
0.000314328
0.000314373
0.00031437
0.00031432
0.000314227
0.000314092
0.000313918
0.000313707
0.00031346
0.000313181
0.00031287
0.000312529
0.00031216
0.000311765
0.000311345
0.000310901
0.000310435
0.000309948
0.000309442
0.000308916
0.000308373
0.000307813
0.000307236
0.000306645
0.000306039
0.00030542
0.000304787
0.000304142
0.000303485
0.000302816
0.000302136
0.000301445
0.000300743
0.000300031
0.00029931
0.000298578
0.000297837
0.000297086
0.000296325
0.000295556
0.000294776
0.000293988
0.000293189
0.000292382
0.000291564
0.000290737
0.0002899
0.000289053
0.000288195
0.000287327
0.000286449
0.000285559
0.000284659
0.000283747
0.000282823
0.000281888
0.00028094
0.000279979
0.000279006
0.000278019
0.000277019
0.000276004
0.000274976
0.000273932
0.000272874
0.0002718
0.000270711
0.000269605
0.000268483
0.000267344
0.000266187
0.000265013
0.00026382
0.000262609
0.000261379
0.00026013
0.000258861
0.000257572
0.000256262
0.000254932
0.00025358
0.000252206
0.00025081
0.000249392
0.000247951
0.000246487
0.000244999
0.000243487
0.000241951
0.00024039
0.000238803
0.000237191
0.000235553
0.000233889
0.000232198
0.00023048
0.000228734
0.00022696
0.000225158
0.000223327
0.000221466
0.000219575
0.000217654
0.000215702
0.000213718
0.000211702
0.000209653
0.00020757
0.000205452
0.000203299
0.000201109
0.000198882
0.000196616
0.000194309
0.000191961
0.000189569
0.000187132
0.000184648
0.000182113
0.000179526
0.000176883
0.000174181
0.000171417
0.000168588
0.000165697
0.000162748
0.000159711
0.000156573
0.000153324
0.000149949
0.000146431
0.000142747
0.000138872
0.00013477
0.000130393
0.000125708
0.000120648
0.000115072
0.000108808
0.000101578
9.28878e-05
8.17826e-05
6.60532e-05
5.30718e-05
5.44024e-05
9.4837e-05
0.000117454
0.000134066
0.00014791
0.000159639
0.000169833
0.000178873
0.000187117
0.000194805
0.000201915
0.000208568
0.000214821
0.000220721
0.000226306
0.000231606
0.000236643
0.000241437
0.000246005
0.00025036
0.000254513
0.000258473
0.000262248
0.000265847
0.000269275
0.000272538
0.000275642
0.00027859
0.000281389
0.000284042
0.000286553
0.000288927
0.000291167
0.000293278
0.000295262
0.000297123
0.000298866
0.000300494
0.000302011
0.000303419
0.000304723
0.000305926
0.000307032
0.000308042
0.000308961
0.000309814
0.000310585
0.000311275
0.000311885
0.000312421
0.000312884
0.000313279
0.000313608
0.000313874
0.000314081
0.000314232
0.000314328
0.000314373
0.00031437
0.00031432
0.000314227
0.000314092
0.000313918
0.000313707
0.00031346
0.000313181
0.00031287
0.000312529
0.00031216
0.000311765
0.000311345
0.000310901
0.000310435
0.000309948
0.000309442
0.000308916
0.000308373
0.000307813
0.000307236
0.000306645
0.000306039
0.00030542
0.000304787
0.000304142
0.000303485
0.000302816
0.000302136
0.000301445
0.000300743
0.000300031
0.00029931
0.000298578
0.000297837
0.000297086
0.000296325
0.000295556
0.000294776
0.000293988
0.000293189
0.000292382
0.000291564
0.000290737
0.0002899
0.000289053
0.000288195
0.000287327
0.000286449
0.000285559
0.000284659
0.000283747
0.000282823
0.000281888
0.00028094
0.000279979
0.000279006
0.000278019
0.000277019
0.000276004
0.000274976
0.000273932
0.000272874
0.0002718
0.000270711
0.000269605
0.000268483
0.000267344
0.000266187
0.000265013
0.00026382
0.000262609
0.000261379
0.00026013
0.000258861
0.000257572
0.000256262
0.000254932
0.00025358
0.000252206
0.00025081
0.000249392
0.000247951
0.000246487
0.000244999
0.000243487
0.000241951
0.00024039
0.000238803
0.000237191
0.000235553
0.000233889
0.000232198
0.00023048
0.000228734
0.00022696
0.000225158
0.000223327
0.000221466
0.000219575
0.000217654
0.000215702
0.000213718
0.000211702
0.000209653
0.00020757
0.000205452
0.000203299
0.000201109
0.000198882
0.000196616
0.000194309
0.000191961
0.000189569
0.000187132
0.000184648
0.000182113
0.000179526
0.000176883
0.000174181
0.000171417
0.000168588
0.000165697
0.000162748
0.000159711
0.000156573
0.000153324
0.000149949
0.000146431
0.000142747
0.000138872
0.00013477
0.000130393
0.000125708
0.000120648
0.000115072
0.000108808
0.000101578
9.28886e-05
8.17848e-05
6.60493e-05
5.30725e-05
8.26026e-05
0.000612769
0.000969844
0.00121928
0.00140718
0.00155929
0.00168961
0.00180423
0.00190661
0.00199892
0.00208342
0.00216134
0.00223361
0.002301
0.00236406
0.00242325
0.00247896
0.00253148
0.00258107
0.00262795
0.00267232
0.00271433
0.00275413
0.00279183
0.00282757
0.00286143
0.0028935
0.00292388
0.00295263
0.00297984
0.00300555
0.00302984
0.00305276
0.00307437
0.00309472
0.00311386
0.00313183
0.00314867
0.00316444
0.00317917
0.00319289
0.00320565
0.00321746
0.00322835
0.00323827
0.003247
0.00325485
0.00326195
0.00326834
0.00327408
0.0032792
0.00328372
0.00328768
0.0032911
0.003294
0.00329642
0.00329836
0.00329984
0.0033009
0.00330155
0.00330181
0.00330169
0.00330121
0.00330039
0.00329924
0.00329777
0.00329601
0.00329397
0.00329165
0.00328907
0.00328624
0.00328317
0.00327987
0.00327636
0.00327263
0.00326871
0.00326459
0.00326028
0.0032558
0.00325115
0.00324633
0.00324134
0.00323621
0.00323092
0.00322548
0.0032199
0.00321419
0.00320833
0.00320235
0.00319623
0.00318998
0.0031836
0.0031771
0.00317047
0.00316371
0.00315683
0.00314982
0.00314269
0.00313544
0.00312805
0.00312055
0.00311291
0.00310514
0.00309724
0.00308921
0.00308104
0.00307274
0.00306429
0.00305571
0.00304698
0.0030381
0.00302907
0.0030199
0.00301056
0.00300107
0.00299141
0.00298159
0.00297159
0.00296143
0.00295109
0.00294057
0.00292987
0.00291897
0.00290789
0.00289661
0.00288514
0.00287346
0.00286157
0.00284948
0.00283717
0.00282464
0.00281189
0.00279891
0.0027857
0.00277225
0.00275857
0.00274465
0.00273048
0.00271605
0.00270138
0.00268644
0.00267124
0.00265577
0.00264003
0.00262402
0.00260772
0.00259115
0.00257428
0.00255712
0.00253966
0.0025219
0.00250383
0.00248545
0.00246675
0.00244772
0.00242837
0.00240868
0.00238865
0.00236827
0.00234754
0.00232644
0.00230496
0.00228311
0.00226086
0.00223821
0.00221514
0.00219165
0.00216771
0.00214331
0.00211843
0.00209306
0.00206716
0.00204072
0.00201369
0.00198606
0.00195778
0.0019288
0.00189906
0.0018685
0.001837
0.00180442
0.00177063
0.00173562
0.00169931
0.00166158
0.00162222
0.00158102
0.00153767
0.00149176
0.00144273
0.0013897
0.00133107
0.0012657
0.00119185
0.00110645
0.00100431
0.00087608
0.000702911
0.00044165
5.78674e-05
8.26028e-05
0.000612775
0.000969852
0.00121929
0.00140719
0.0015593
0.00168962
0.00180424
0.00190661
0.00199893
0.00208343
0.00216134
0.00223362
0.002301
0.00236406
0.00242326
0.00247896
0.00253148
0.00258107
0.00262796
0.00267233
0.00271433
0.00275413
0.00279184
0.00282757
0.00286143
0.00289351
0.00292389
0.00295264
0.00297984
0.00300556
0.00302985
0.00305277
0.00307438
0.00309473
0.00311386
0.00313183
0.00314868
0.00316444
0.00317917
0.00319289
0.00320565
0.00321747
0.00322836
0.00323828
0.003247
0.00325486
0.00326195
0.00326835
0.00327408
0.0032792
0.00328373
0.00328768
0.0032911
0.00329401
0.00329642
0.00329836
0.00329985
0.00330091
0.00330156
0.00330181
0.00330169
0.00330121
0.00330039
0.00329924
0.00329778
0.00329602
0.00329397
0.00329165
0.00328907
0.00328624
0.00328317
0.00327988
0.00327636
0.00327264
0.00326871
0.00326459
0.00326029
0.00325581
0.00325115
0.00324633
0.00324135
0.00323621
0.00323092
0.00322549
0.00321991
0.00321419
0.00320834
0.00320235
0.00319623
0.00318998
0.0031836
0.0031771
0.00317047
0.00316371
0.00315683
0.00314983
0.0031427
0.00313544
0.00312806
0.00312055
0.00311291
0.00310514
0.00309724
0.00308921
0.00308104
0.00307274
0.0030643
0.00305571
0.00304698
0.0030381
0.00302908
0.0030199
0.00301056
0.00300107
0.00299141
0.00298159
0.0029716
0.00296143
0.00295109
0.00294057
0.00292987
0.00291898
0.0029079
0.00289662
0.00288514
0.00287346
0.00286158
0.00284948
0.00283717
0.00282464
0.00281189
0.00279891
0.0027857
0.00277226
0.00275858
0.00274465
0.00273048
0.00271606
0.00270138
0.00268644
0.00267124
0.00265577
0.00264004
0.00262402
0.00260773
0.00259115
0.00257428
0.00255712
0.00253966
0.0025219
0.00250383
0.00248545
0.00246675
0.00244773
0.00242837
0.00240869
0.00238866
0.00236828
0.00234754
0.00232644
0.00230497
0.00228311
0.00226086
0.00223821
0.00221515
0.00219165
0.00216771
0.00214331
0.00211844
0.00209306
0.00206716
0.00204072
0.0020137
0.00198606
0.00195778
0.0019288
0.00189907
0.0018685
0.001837
0.00180443
0.00177063
0.00173562
0.00169932
0.00166158
0.00162222
0.00158102
0.00153767
0.00149176
0.00144273
0.0013897
0.00133107
0.00126571
0.00119185
0.00110645
0.00100431
0.000876076
0.000702895
0.000441655
5.78738e-05
0.000101646
0.000930053
0.0016548
0.00219822
0.00262534
0.00297864
0.00328145
0.00354742
0.00378475
0.00399892
0.00419404
0.00437305
0.0045382
0.00469122
0.00483351
0.0049662
0.00509023
0.00520638
0.00531534
0.00541768
0.00551391
0.00560448
0.00568979
0.00577019
0.005846
0.00591751
0.00598498
0.00604866
0.00610875
0.00616546
0.00621898
0.00626948
0.0063171
0.00636201
0.00640433
0.0064442
0.00648173
0.00651702
0.00655019
0.00658133
0.00661052
0.00663783
0.00666334
0.00668706
0.006709
0.00672907
0.00674753
0.00676451
0.00678013
0.00679449
0.00680764
0.00681966
0.0068306
0.00684051
0.00684943
0.0068574
0.00686448
0.00687069
0.00687606
0.00688065
0.00688447
0.00688755
0.00688993
0.00689164
0.0068927
0.00689313
0.00689296
0.00689221
0.00689091
0.00688907
0.00688671
0.00688386
0.00688052
0.00687672
0.00687248
0.00686779
0.00686269
0.00685718
0.00685127
0.00684498
0.00683832
0.00683128
0.0068239
0.00681616
0.00680808
0.00679967
0.00679093
0.00678187
0.00677248
0.00676279
0.00675277
0.00674245
0.00673182
0.00672088
0.00670964
0.00669809
0.00668624
0.00667408
0.00666161
0.00664883
0.00663575
0.00662234
0.00660862
0.00659459
0.00658022
0.00656553
0.00655051
0.00653515
0.00651945
0.00650341
0.00648701
0.00647025
0.00645313
0.00643564
0.00641777
0.00639951
0.00638087
0.00636183
0.00634238
0.00632252
0.00630224
0.00628153
0.00626038
0.00623879
0.00621675
0.00619424
0.00617127
0.00614782
0.00612388
0.00609945
0.00607451
0.00604906
0.00602309
0.00599658
0.00596953
0.00594194
0.00591378
0.00588506
0.00585575
0.00582586
0.00579536
0.00576426
0.00573254
0.00570018
0.00566718
0.00563354
0.00559922
0.00556423
0.00552855
0.00549217
0.00545507
0.00541725
0.00537868
0.00533935
0.00529925
0.00525836
0.00521666
0.00517413
0.00513075
0.0050865
0.00504136
0.0049953
0.00494829
0.00490031
0.00485132
0.00480129
0.00475018
0.00469795
0.00464454
0.00458991
0.004534
0.00447674
0.00441807
0.00435788
0.0042961
0.00423261
0.00416728
0.00409995
0.00403044
0.00395852
0.00388392
0.00380636
0.00372561
0.00364133
0.00355305
0.00346022
0.00336216
0.00325796
0.00314645
0.00302606
0.00289463
0.00274915
0.0025856
0.00239948
0.00218321
0.0019252
0.00160707
0.001199
0.000657662
7.1858e-05
0.000101646
0.00093006
0.00165482
0.00219824
0.00262535
0.00297866
0.00328147
0.00354743
0.00378476
0.00399893
0.00419405
0.00437306
0.00453821
0.00469123
0.00483352
0.00496621
0.00509024
0.00520639
0.00531535
0.00541769
0.00551392
0.00560449
0.0056898
0.0057702
0.00584601
0.00591752
0.00598499
0.00604867
0.00610876
0.00616547
0.00621899
0.00626948
0.00631711
0.00636202
0.00640434
0.00644421
0.00648173
0.00651703
0.0065502
0.00658133
0.00661052
0.00663784
0.00666334
0.00668707
0.00670901
0.00672908
0.00674753
0.00676451
0.00678014
0.00679449
0.00680765
0.00681966
0.0068306
0.00684051
0.00684943
0.00685741
0.00686448
0.00687069
0.00687607
0.00688065
0.00688447
0.00688756
0.00688994
0.00689164
0.0068927
0.00689313
0.00689296
0.00689221
0.00689091
0.00688907
0.00688672
0.00688386
0.00688053
0.00687673
0.00687248
0.0068678
0.00686269
0.00685718
0.00685127
0.00684498
0.00683832
0.00683129
0.0068239
0.00681616
0.00680809
0.00679968
0.00679093
0.00678187
0.00677249
0.00676279
0.00675277
0.00674245
0.00673182
0.00672089
0.00670964
0.00669809
0.00668624
0.00667408
0.00666161
0.00664884
0.00663575
0.00662234
0.00660863
0.00659459
0.00658023
0.00656554
0.00655051
0.00653516
0.00651946
0.00650341
0.00648701
0.00647025
0.00645313
0.00643564
0.00641777
0.00639951
0.00638087
0.00636183
0.00634238
0.00632252
0.00630224
0.00628153
0.00626038
0.00623879
0.00621675
0.00619425
0.00617127
0.00614782
0.00612388
0.00609945
0.00607451
0.00604906
0.00602309
0.00599658
0.00596953
0.00594194
0.00591378
0.00588506
0.00585575
0.00582586
0.00579536
0.00576426
0.00573254
0.00570018
0.00566719
0.00563354
0.00559922
0.00556423
0.00552855
0.00549217
0.00545507
0.00541725
0.00537868
0.00533935
0.00529925
0.00525836
0.00521666
0.00517413
0.00513075
0.0050865
0.00504136
0.0049953
0.00494829
0.00490031
0.00485132
0.00480129
0.00475018
0.00469795
0.00464454
0.00458991
0.004534
0.00447674
0.00441807
0.00435789
0.0042961
0.00423261
0.00416728
0.00409995
0.00403044
0.00395852
0.00388392
0.00380637
0.00372561
0.00364133
0.00355305
0.00346022
0.00336216
0.00325796
0.00314645
0.00302606
0.00289463
0.00274915
0.0025856
0.00239948
0.00218321
0.0019252
0.00160707
0.001199
0.00065767
7.18567e-05
0.000115045
0.00112568
0.00211904
0.00290851
0.00355235
0.004095
0.0045644
0.00497847
0.00534899
0.00568411
0.00598973
0.00627024
0.00652899
0.00676864
0.0069913
0.0071987
0.00739231
0.00757335
0.00774289
0.00790186
0.00805107
0.00819124
0.00832302
0.008447
0.00856371
0.00867363
0.00877719
0.00887481
0.00896685
0.00905365
0.00913554
0.00921279
0.00928567
0.00935444
0.00941933
0.00948054
0.00953828
0.00959273
0.00964404
0.00969239
0.00973791
0.00978072
0.00982092
0.00985861
0.00989383
0.00992663
0.0099572
0.00998569
0.0100122
0.010037
0.01006
0.0100814
0.0101012
0.0101196
0.0101366
0.0101522
0.0101666
0.0101797
0.0101916
0.0102024
0.0102121
0.0102207
0.0102283
0.010235
0.0102407
0.0102455
0.0102494
0.0102525
0.0102547
0.0102562
0.0102569
0.0102569
0.0102561
0.0102547
0.0102526
0.0102498
0.0102463
0.0102423
0.0102376
0.0102324
0.0102265
0.0102201
0.0102131
0.0102056
0.0101975
0.0101889
0.0101798
0.0101702
0.01016
0.0101493
0.0101382
0.0101265
0.0101143
0.0101016
0.0100884
0.0100747
0.0100605
0.0100458
0.0100306
0.0100149
0.00999872
0.00998198
0.00996472
0.00994694
0.00992863
0.00990977
0.00989038
0.00987043
0.00984992
0.00982884
0.00980719
0.00978496
0.00976213
0.00973869
0.00971465
0.00968998
0.00966467
0.00963872
0.00961211
0.00958484
0.00955688
0.00952823
0.00949888
0.00946881
0.00943802
0.00940647
0.00937418
0.00934111
0.00930726
0.00927261
0.00923715
0.00920086
0.00916373
0.00912575
0.00908689
0.00904715
0.0090065
0.00896494
0.00892244
0.00887898
0.00883456
0.00878914
0.00874272
0.00869528
0.00864678
0.00859723
0.00854659
0.00849484
0.00844196
0.00838793
0.00833272
0.00827631
0.00821867
0.00815977
0.00809958
0.00803807
0.00797522
0.00791097
0.0078453
0.00777816
0.00770951
0.00763931
0.0075675
0.00749403
0.00741883
0.00734185
0.00726301
0.00718223
0.00709943
0.00701451
0.00692735
0.00683786
0.00674588
0.00665126
0.00655383
0.00645339
0.00634971
0.00624251
0.00613148
0.00601625
0.0058964
0.00577143
0.00564082
0.00550391
0.00535988
0.00520772
0.00504618
0.00487366
0.00468816
0.00448711
0.00426709
0.00402363
0.00375081
0.00344134
0.00308472
0.0026661
0.00216449
0.00155135
0.000800623
8.18748e-05
0.000115045
0.00112569
0.00211905
0.00290853
0.00355237
0.00409502
0.00456442
0.00497849
0.00534901
0.00568413
0.00598975
0.00627026
0.00652901
0.00676866
0.00699131
0.00719872
0.00739233
0.00757337
0.00774291
0.00790188
0.00805108
0.00819125
0.00832304
0.00844702
0.00856373
0.00867364
0.00877721
0.00887482
0.00896686
0.00905366
0.00913555
0.00921279
0.00928568
0.00935445
0.00941934
0.00948055
0.00953829
0.00959273
0.00964405
0.0096924
0.00973791
0.00978072
0.00982093
0.00985862
0.00989384
0.00992664
0.0099572
0.0099857
0.0100123
0.010037
0.01006
0.0100814
0.0101013
0.0101196
0.0101366
0.0101522
0.0101666
0.0101797
0.0101916
0.0102024
0.0102121
0.0102207
0.0102283
0.010235
0.0102407
0.0102455
0.0102494
0.0102525
0.0102547
0.0102562
0.0102569
0.0102569
0.0102561
0.0102547
0.0102526
0.0102498
0.0102463
0.0102423
0.0102376
0.0102324
0.0102265
0.0102201
0.0102131
0.0102056
0.0101975
0.0101889
0.0101798
0.0101702
0.01016
0.0101493
0.0101382
0.0101265
0.0101143
0.0101016
0.0100884
0.0100747
0.0100605
0.0100458
0.0100306
0.0100149
0.00999872
0.00998198
0.00996472
0.00994694
0.00992862
0.00990977
0.00989038
0.00987043
0.00984992
0.00982884
0.00980719
0.00978496
0.00976213
0.00973869
0.00971465
0.00968997
0.00966467
0.00963872
0.00961211
0.00958484
0.00955688
0.00952823
0.00949888
0.00946881
0.00943801
0.00940647
0.00937417
0.00934111
0.00930726
0.00927261
0.00923715
0.00920086
0.00916373
0.00912575
0.00908689
0.00904715
0.0090065
0.00896494
0.00892243
0.00887898
0.00883455
0.00878914
0.00874272
0.00869527
0.00864678
0.00859723
0.00854659
0.00849484
0.00844196
0.00838793
0.00833272
0.00827631
0.00821866
0.00815976
0.00809958
0.00803807
0.00797521
0.00791097
0.0078453
0.00777816
0.00770951
0.00763931
0.0075675
0.00749402
0.00741883
0.00734185
0.00726301
0.00718223
0.00709943
0.0070145
0.00692735
0.00683785
0.00674587
0.00665126
0.00655383
0.00645339
0.00634971
0.00624251
0.00613148
0.00601625
0.0058964
0.00577143
0.00564082
0.00550391
0.00535988
0.00520772
0.00504618
0.00487366
0.00468816
0.00448711
0.00426709
0.00402363
0.00375081
0.00344134
0.00308472
0.0026661
0.00216449
0.00155135
0.000800623
8.18744e-05
0.000125946
0.0012585
0.00245154
0.00344029
0.00426696
0.00497398
0.00559106
0.00613853
0.00663044
0.00707682
0.00748497
0.00786042
0.0082074
0.00852926
0.00882871
0.00910797
0.0093689
0.00961308
0.00984189
0.0100565
0.0102581
0.0104474
0.0106255
0.010793
0.0109508
0.0110993
0.0112393
0.0113713
0.0114957
0.0116131
0.0117239
0.0118285
0.0119272
0.0120205
0.0121086
0.0121918
0.0122704
0.0123447
0.0124149
0.0124812
0.0125438
0.0126029
0.0126587
0.0127112
0.0127606
0.0128071
0.0128507
0.0128917
0.0129303
0.0129665
0.0130005
0.0130324
0.0130623
0.0130904
0.0131167
0.0131412
0.0131641
0.0131854
0.0132052
0.0132235
0.0132405
0.0132561
0.0132704
0.0132834
0.0132953
0.013306
0.0133155
0.013324
0.0133314
0.0133378
0.0133432
0.0133476
0.0133511
0.0133536
0.0133553
0.0133561
0.0133561
0.0133552
0.0133535
0.0133511
0.0133478
0.0133438
0.013339
0.0133335
0.0133272
0.0133202
0.0133125
0.0133041
0.013295
0.0132852
0.0132746
0.0132634
0.0132515
0.0132389
0.0132256
0.0132116
0.0131969
0.0131815
0.0131654
0.0131486
0.013131
0.0131128
0.0130938
0.0130741
0.0130536
0.0130324
0.0130105
0.0129877
0.0129642
0.0129399
0.0129148
0.0128889
0.0128621
0.0128346
0.0128061
0.0127768
0.0127466
0.0127155
0.0126835
0.0126506
0.0126167
0.0125819
0.0125461
0.0125093
0.0124714
0.0124326
0.0123927
0.0123517
0.0123097
0.0122665
0.0122222
0.0121768
0.0121302
0.0120824
0.0120334
0.0119831
0.0119316
0.0118788
0.0118248
0.0117693
0.0117126
0.0116544
0.0115948
0.0115338
0.0114714
0.0114074
0.0113419
0.0112749
0.0112062
0.011136
0.011064
0.0109904
0.010915
0.0108378
0.0107588
0.0106779
0.0105951
0.0105103
0.0104234
0.0103344
0.0102433
0.0101499
0.0100542
0.0099561
0.00985549
0.00975228
0.00964637
0.00953763
0.00942594
0.00931115
0.00919309
0.00907159
0.00894644
0.00881741
0.00868424
0.00854664
0.00840426
0.0082567
0.0081035
0.00794415
0.00777802
0.0076044
0.00742248
0.00723126
0.00702955
0.00681589
0.00658849
0.00634512
0.00608303
0.00579872
0.00548776
0.00514458
0.00476196
0.00433063
0.00383892
0.00327105
0.00260679
0.00182269
0.000909519
8.98389e-05
0.000125946
0.0012585
0.00245155
0.00344031
0.00426698
0.004974
0.00559109
0.00613855
0.00663047
0.00707684
0.007485
0.00786045
0.00820743
0.00852929
0.00882874
0.00910799
0.00936892
0.0096131
0.00984191
0.0100566
0.0102581
0.0104474
0.0106255
0.0107931
0.0109508
0.0110993
0.0112393
0.0113713
0.0114957
0.0116131
0.0117239
0.0118285
0.0119272
0.0120205
0.0121086
0.0121918
0.0122705
0.0123447
0.0124149
0.0124812
0.0125438
0.0126029
0.0126587
0.0127112
0.0127606
0.0128071
0.0128507
0.0128917
0.0129303
0.0129665
0.0130005
0.0130324
0.0130624
0.0130904
0.0131167
0.0131412
0.0131641
0.0131854
0.0132052
0.0132235
0.0132405
0.0132561
0.0132704
0.0132834
0.0132953
0.013306
0.0133155
0.013324
0.0133314
0.0133378
0.0133432
0.0133476
0.0133511
0.0133536
0.0133553
0.0133561
0.0133561
0.0133552
0.0133535
0.0133511
0.0133478
0.0133438
0.013339
0.0133335
0.0133272
0.0133202
0.0133125
0.0133041
0.013295
0.0132852
0.0132746
0.0132634
0.0132515
0.0132389
0.0132256
0.0132116
0.0131969
0.0131815
0.0131654
0.0131486
0.013131
0.0131128
0.0130938
0.0130741
0.0130536
0.0130324
0.0130105
0.0129877
0.0129642
0.0129399
0.0129148
0.0128889
0.0128621
0.0128346
0.0128061
0.0127768
0.0127466
0.0127155
0.0126835
0.0126506
0.0126167
0.0125819
0.0125461
0.0125093
0.0124714
0.0124326
0.0123927
0.0123517
0.0123097
0.0122665
0.0122222
0.0121768
0.0121302
0.0120824
0.0120334
0.0119831
0.0119316
0.0118788
0.0118247
0.0117693
0.0117126
0.0116544
0.0115948
0.0115338
0.0114714
0.0114074
0.0113419
0.0112749
0.0112062
0.011136
0.011064
0.0109904
0.010915
0.0108378
0.0107588
0.0106779
0.0105951
0.0105103
0.0104234
0.0103344
0.0102433
0.0101499
0.0100542
0.00995609
0.00985548
0.00975228
0.00964636
0.00953763
0.00942594
0.00931114
0.00919309
0.00907159
0.00894644
0.00881741
0.00868424
0.00854664
0.00840425
0.00825669
0.0081035
0.00794414
0.00777801
0.0076044
0.00742248
0.00723126
0.00702955
0.00681589
0.00658849
0.00634512
0.00608303
0.00579872
0.00548776
0.00514458
0.00476195
0.00433063
0.00383892
0.00327105
0.00260679
0.00182269
0.000909518
8.98389e-05
0.000135172
0.00136349
0.00270909
0.0038577
0.00483578
0.00568214
0.00642667
0.0070909
0.0076903
0.00823614
0.00873679
0.00919858
0.00962645
0.0100243
0.0103952
0.0107418
0.0110663
0.0113705
0.0116561
0.0119243
0.0121765
0.0124138
0.0126372
0.0128476
0.0130459
0.0132329
0.0134092
0.0135756
0.0137326
0.0138809
0.0140209
0.0141533
0.0142783
0.0143966
0.0145084
0.0146143
0.0147144
0.0148091
0.0148988
0.0149837
0.0150641
0.0151401
0.0152121
0.0152802
0.0153445
0.0154053
0.0154627
0.0155169
0.0155682
0.0156166
0.0156624
0.0157056
0.0157464
0.0157849
0.0158213
0.0158555
0.0158878
0.0159181
0.0159467
0.0159734
0.0159985
0.016022
0.0160439
0.0160643
0.0160832
0.0161007
0.0161168
0.0161317
0.0161452
0.0161575
0.0161686
0.0161785
0.0161873
0.016195
0.0162015
0.016207
0.0162115
0.0162149
0.0162174
0.0162188
0.0162193
0.0162188
0.0162174
0.0162151
0.0162118
0.0162077
0.0162026
0.0161966
0.0161898
0.016182
0.0161734
0.0161639
0.0161535
0.0161423
0.0161301
0.0161171
0.0161032
0.0160883
0.0160726
0.016056
0.0160385
0.01602
0.0160006
0.0159803
0.015959
0.0159368
0.0159136
0.0158894
0.0158642
0.015838
0.0158108
0.0157825
0.0157532
0.0157227
0.0156912
0.0156586
0.0156249
0.01559
0.0155539
0.0155167
0.0154783
0.0154386
0.0153976
0.0153554
0.0153119
0.0152671
0.015221
0.0151734
0.0151245
0.0150742
0.0150224
0.0149691
0.0149144
0.0148581
0.0148002
0.0147408
0.0146798
0.0146171
0.0145527
0.0144866
0.0144188
0.0143492
0.0142778
0.0142045
0.0141293
0.0140522
0.0139731
0.0138919
0.0138087
0.0137234
0.0136359
0.0135462
0.0134542
0.0133599
0.0132632
0.013164
0.0130623
0.0129579
0.0128509
0.0127411
0.0126285
0.0125129
0.0123942
0.0122723
0.0121472
0.0120186
0.0118864
0.0117505
0.0116106
0.0114666
0.0113183
0.0111654
0.0110076
0.0108447
0.0106762
0.0105018
0.0103211
0.0101334
0.00993828
0.00973494
0.00952259
0.00930031
0.009067
0.00882135
0.00856182
0.00828652
0.00799319
0.00767905
0.00734072
0.006974
0.00657371
0.0061334
0.00564502
0.00509848
0.00448163
0.00377907
0.00297264
0.00204445
0.000998899
9.65582e-05
0.000135172
0.0013635
0.00270911
0.00385772
0.0048358
0.00568217
0.0064267
0.00709093
0.00769033
0.00823617
0.00873682
0.00919861
0.00962648
0.0100243
0.0103952
0.0107419
0.0110664
0.0113706
0.0116561
0.0119243
0.0121765
0.0124138
0.0126372
0.0128477
0.013046
0.0132329
0.0134092
0.0135756
0.0137326
0.0138809
0.0140209
0.0141533
0.0142784
0.0143966
0.0145085
0.0146143
0.0147144
0.0148091
0.0148988
0.0149837
0.0150641
0.0151402
0.0152121
0.0152802
0.0153445
0.0154053
0.0154627
0.0155169
0.0155682
0.0156166
0.0156624
0.0157056
0.0157464
0.0157849
0.0158213
0.0158555
0.0158878
0.0159181
0.0159467
0.0159734
0.0159985
0.016022
0.0160439
0.0160643
0.0160832
0.0161007
0.0161168
0.0161317
0.0161452
0.0161575
0.0161686
0.0161785
0.0161873
0.016195
0.0162015
0.016207
0.0162115
0.0162149
0.0162174
0.0162188
0.0162193
0.0162188
0.0162174
0.0162151
0.0162118
0.0162077
0.0162026
0.0161966
0.0161898
0.016182
0.0161734
0.0161639
0.0161535
0.0161423
0.0161301
0.0161171
0.0161032
0.0160883
0.0160726
0.016056
0.0160385
0.01602
0.0160006
0.0159803
0.015959
0.0159368
0.0159136
0.0158894
0.0158642
0.015838
0.0158108
0.0157825
0.0157532
0.0157227
0.0156912
0.0156586
0.0156249
0.01559
0.0155539
0.0155167
0.0154783
0.0154386
0.0153976
0.0153554
0.0153119
0.0152671
0.015221
0.0151734
0.0151245
0.0150742
0.0150224
0.0149691
0.0149144
0.0148581
0.0148002
0.0147408
0.0146798
0.0146171
0.0145527
0.0144866
0.0144188
0.0143492
0.0142778
0.0142045
0.0141293
0.0140522
0.0139731
0.0138919
0.0138087
0.0137234
0.0136359
0.0135462
0.0134542
0.0133599
0.0132632
0.013164
0.0130623
0.0129579
0.0128509
0.0127411
0.0126285
0.0125129
0.0123942
0.0122723
0.0121472
0.0120186
0.0118864
0.0117505
0.0116106
0.0114666
0.0113183
0.0111654
0.0110076
0.0108447
0.0106762
0.0105018
0.0103211
0.0101334
0.00993828
0.00973493
0.00952259
0.00930031
0.00906699
0.00882135
0.00856182
0.00828652
0.00799319
0.00767905
0.00734072
0.006974
0.00657371
0.0061334
0.00564502
0.00509848
0.00448163
0.00377907
0.00297264
0.00204445
0.000998897
9.65582e-05
0.000143329
0.00145325
0.00292135
0.00419985
0.00530339
0.00626729
0.00712088
0.00788623
0.00857966
0.0092133
0.00979626
0.0103355
0.0108365
0.0113035
0.0117399
0.0121488
0.0125324
0.0128928
0.0132317
0.0135508
0.0138514
0.0141347
0.0144019
0.014654
0.0148919
0.0151165
0.0153286
0.015529
0.0157185
0.0158976
0.0160669
0.0162272
0.0163788
0.0165224
0.0166583
0.0167871
0.0169091
0.0170248
0.0171345
0.0172384
0.0173371
0.0174306
0.0175193
0.0176035
0.0176832
0.0177589
0.0178306
0.0178986
0.0179631
0.0180243
0.0180823
0.0181374
0.0181896
0.0182392
0.0182861
0.0183307
0.0183729
0.0184129
0.0184507
0.0184865
0.0185203
0.0185522
0.0185823
0.0186106
0.0186372
0.0186622
0.0186856
0.0187074
0.0187277
0.0187466
0.0187641
0.0187802
0.0187949
0.0188084
0.0188206
0.0188315
0.0188412
0.0188496
0.018857
0.0188631
0.0188681
0.018872
0.0188747
0.0188764
0.0188769
0.0188764
0.0188748
0.0188721
0.0188684
0.0188636
0.0188577
0.0188508
0.0188428
0.0188338
0.0188237
0.0188125
0.0188003
0.0187869
0.0187725
0.018757
0.0187404
0.0187227
0.0187038
0.0186839
0.0186627
0.0186404
0.0186169
0.0185922
0.0185663
0.0185392
0.0185108
0.0184812
0.0184503
0.018418
0.0183845
0.0183496
0.0183133
0.0182756
0.0182365
0.018196
0.018154
0.0181105
0.0180654
0.0180189
0.0179707
0.017921
0.0178696
0.0178165
0.0177618
0.0177053
0.017647
0.017587
0.0175251
0.0174614
0.0173957
0.0173282
0.0172586
0.017187
0.0171134
0.0170377
0.0169598
0.0168798
0.0167975
0.0167129
0.016626
0.0165367
0.016445
0.0163508
0.016254
0.0161546
0.0160526
0.0159478
0.0158401
0.0157296
0.0156161
0.0154996
0.0153799
0.015257
0.0151307
0.015001
0.0148677
0.0147308
0.01459
0.0144453
0.0142964
0.0141433
0.0139856
0.0138233
0.0136561
0.0134838
0.0133059
0.0131224
0.0129328
0.0127367
0.0125336
0.0123232
0.0121048
0.0118778
0.0116414
0.0113948
0.0111369
0.0108667
0.0105828
0.0102836
0.00996723
0.00963142
0.0092735
0.00889025
0.00847776
0.00803133
0.0075452
0.0070124
0.00642444
0.00577101
0.00503977
0.0042164
0.0032851
0.0022331
0.00107553
0.000102435
0.00014333
0.00145325
0.00292137
0.00419987
0.00530342
0.00626732
0.0071209
0.00788626
0.0085797
0.00921334
0.0097963
0.0103355
0.0108365
0.0113035
0.01174
0.0121488
0.0125324
0.0128928
0.0132318
0.0135509
0.0138514
0.0141347
0.0144019
0.014654
0.0148919
0.0151165
0.0153286
0.0155291
0.0157185
0.0158976
0.016067
0.0162272
0.0163788
0.0165224
0.0166583
0.0167871
0.0169091
0.0170248
0.0171345
0.0172385
0.0173371
0.0174306
0.0175193
0.0176035
0.0176832
0.0177589
0.0178306
0.0178986
0.0179631
0.0180243
0.0180823
0.0181374
0.0181896
0.0182392
0.0182861
0.0183307
0.0183729
0.0184129
0.0184507
0.0184865
0.0185203
0.0185522
0.0185823
0.0186106
0.0186372
0.0186622
0.0186856
0.0187074
0.0187277
0.0187466
0.0187641
0.0187802
0.0187949
0.0188084
0.0188206
0.0188315
0.0188412
0.0188497
0.018857
0.0188631
0.0188681
0.018872
0.0188747
0.0188764
0.0188769
0.0188764
0.0188748
0.0188721
0.0188684
0.0188636
0.0188577
0.0188508
0.0188428
0.0188338
0.0188237
0.0188125
0.0188003
0.0187869
0.0187725
0.018757
0.0187404
0.0187227
0.0187038
0.0186839
0.0186627
0.0186404
0.0186169
0.0185922
0.0185663
0.0185392
0.0185108
0.0184812
0.0184503
0.018418
0.0183845
0.0183496
0.0183133
0.0182756
0.0182365
0.018196
0.018154
0.0181105
0.0180654
0.0180189
0.0179707
0.017921
0.0178696
0.0178165
0.0177617
0.0177053
0.017647
0.017587
0.0175251
0.0174614
0.0173957
0.0173282
0.0172586
0.017187
0.0171134
0.0170377
0.0169598
0.0168798
0.0167975