/*--------------------------------*- C++ -*----------------------------------*\
  =========                 |
  \\      /  F ield         | OpenFOAM: The Open Source CFD Toolbox
   \\    /   O peration     | Website:  https://openfoam.org
    \\  /    A nd           | Version:  8
     \\/     M anipulation  |
\*---------------------------------------------------------------------------*/
FoamFile
{
    version     2.0;
    format      ascii;
    class       volScalarField;
    location    "4500";
    object      epsilon;
}
// * * * * * * * * * * * * * * * * * * * * * * * * * * * * * * * * * * * * * //

dimensions      [0 2 -3 0 0 0 0];

internalField   nonuniform List<scalar> 
48000
(
1.72392
6.7123
12.7509
18.9625
25.4644
32.0154
38.5486
45.0376
51.5569
58.1756
64.781
71.3977
78.0141
84.6207
91.208
97.7662
104.285
110.753
117.158
123.491
129.738
135.888
141.93
147.853
153.646
159.299
164.803
170.149
175.328
180.333
185.158
189.797
194.246
198.499
202.555
206.41
210.063
213.514
216.762
219.808
222.654
225.301
227.751
230.006
232.071
233.998
235.749
237.322
238.721
239.952
241.021
241.934
242.696
243.315
243.797
244.147
244.372
244.477
244.469
244.353
244.135
243.821
243.416
242.925
242.353
241.705
240.985
240.199
239.35
238.443
237.48
236.467
235.406
234.3
233.153
231.967
230.745
229.49
228.204
226.889
225.548
224.181
222.791
221.379
219.948
218.497
217.028
215.543
214.042
212.526
210.996
209.453
207.897
206.329
204.749
203.157
201.555
199.941
198.317
196.683
195.038
193.383
191.718
190.042
188.356
186.66
184.953
183.235
181.507
179.769
178.019
176.258
174.486
172.702
170.907
169.1
167.282
165.451
163.608
161.753
159.886
158.006
156.113
154.208
152.29
150.36
148.417
146.461
144.493
142.512
140.519
138.514
136.497
134.467
132.427
130.375
128.311
126.237
124.153
122.059
119.955
117.843
115.721
113.592
111.455
109.312
107.162
105.006
102.846
100.681
98.5132
96.3423
94.1695
91.9955
89.8211
87.6472
85.4745
83.3039
81.1363
78.9725
76.8134
74.6597
72.5125
70.3724
68.2403
66.1171
64.0035
61.9003
59.8082
57.7279
55.6601
53.6055
51.5645
49.5378
47.5257
45.5288
43.5474
41.5819
39.6331
37.703
35.7967
33.9188
32.0551
30.2026
28.3612
26.5291
24.7052
22.8875
21.0736
19.2605
17.4445
15.6306
13.818
11.9895
10.1362
8.24708
6.30634
4.29026
2.15824
0.685352
1.72395
6.71235
12.751
18.9626
25.4645
32.0155
38.5488
45.0378
51.557
58.1757
64.7811
71.3979
78.0142
84.6208
91.2081
97.7663
104.285
110.753
117.158
123.491
129.738
135.888
141.93
147.853
153.646
159.299
164.803
170.149
175.328
180.333
185.158
189.797
194.246
198.499
202.555
206.41
210.063
213.514
216.762
219.809
222.654
225.301
227.751
230.006
232.071
233.998
235.749
237.322
238.721
239.952
241.021
241.934
242.696
243.316
243.797
244.147
244.372
244.477
244.469
244.353
244.135
243.821
243.416
242.925
242.353
241.705
240.985
240.199
239.35
238.443
237.48
236.467
235.406
234.3
233.153
231.967
230.745
229.49
228.204
226.889
225.548
224.181
222.791
221.379
219.948
218.497
217.028
215.543
214.042
212.526
210.996
209.453
207.897
206.329
204.749
203.157
201.555
199.941
198.317
196.683
195.038
193.383
191.718
190.042
188.356
186.66
184.953
183.235
181.507
179.769
178.019
176.258
174.486
172.702
170.907
169.1
167.282
165.451
163.608
161.753
159.886
158.006
156.113
154.208
152.29
150.36
148.417
146.461
144.493
142.512
140.519
138.514
136.497
134.467
132.427
130.375
128.311
126.237
124.153
122.059
119.955
117.843
115.721
113.592
111.455
109.312
107.162
105.006
102.846
100.681
98.5132
96.3423
94.1695
91.9955
89.8211
87.6472
85.4745
83.3039
81.1363
78.9725
76.8134
74.6597
72.5125
70.3724
68.2403
66.1171
64.0035
61.9003
59.8082
57.7279
55.6601
53.6055
51.5645
49.5378
47.5258
45.5288
43.5474
41.5819
39.6331
37.703
35.7967
33.9188
32.0551
30.2026
28.3612
26.5291
24.7052
22.8875
21.0736
19.2605
17.4445
15.6306
13.818
11.9895
10.1363
8.24708
6.30633
4.29022
2.15825
0.685304
8.03045
6.85941
8.76453
11.0883
13.6103
16.2331
18.9188
21.6234
24.3577
27.1276
29.9226
32.7406
35.5781
38.4314
41.2961
44.1675
47.0406
49.9099
52.7695
55.6134
58.4353
61.2289
63.9879
66.7059
69.3767
71.9943
74.5529
77.0471
79.4716
81.8217
84.0931
86.2818
88.3843
90.3976
92.3193
94.1472
95.8797
97.5158
99.0547
100.496
101.84
103.088
104.24
105.298
106.266
107.155
107.959
108.676
109.309
109.86
110.33
110.723
111.041
111.288
111.468
111.582
111.634
111.628
111.566
111.452
111.288
111.077
110.823
110.527
110.192
109.822
109.418
108.982
108.518
108.026
107.51
106.97
106.409
105.828
105.229
104.614
103.983
103.337
102.68
102.01
101.329
100.639
99.9392
99.2315
98.5163
97.7941
97.0657
96.3314
95.5919
94.8474
94.0984
93.3451
92.588
91.8271
91.0627
90.295
89.5241
88.7502
87.9732
87.1933
86.4105
85.6249
84.8364
84.045
83.2506
82.4533
81.653
80.8497
80.0431
79.2334
78.4204
77.6039
76.7841
75.9606
75.1335
74.3027
73.4681
72.6296
71.7871
70.9406
70.09
69.2352
68.3763
67.5131
66.6455
65.7737
64.8976
64.0172
63.1325
62.2435
61.3502
60.4528
59.5513
58.6457
57.7361
56.8227
55.9056
54.9849
54.0608
53.1334
52.2029
51.2695
50.3334
49.3948
48.4541
47.5113
46.5668
45.6209
44.6739
43.726
42.7775
41.8289
40.8803
39.9322
38.9849
38.0386
37.0939
36.1511
35.2104
34.2723
33.3371
32.4052
31.4769
30.5526
29.6326
28.7173
27.807
26.9019
26.0025
25.109
24.2216
23.3407
22.4664
21.599
20.7386
19.8855
19.0397
18.2016
17.3713
16.5493
15.7362
14.9322
14.1353
13.3446
12.561
11.7834
11.0114
10.2445
9.48232
8.72438
7.97079
7.2235
6.48191
5.74358
5.00813
4.27736
3.55816
2.8729
2.30719
2.6631
8.03053
6.85939
8.76449
11.0882
13.6102
16.233
18.9188
21.6234
24.3576
27.1275
29.9225
32.7405
35.578
38.4313
41.2959
44.1674
47.0405
49.9098
52.7694
55.6132
58.4352
61.2288
63.9878
66.7057
69.3765
71.9941
74.5528
77.0469
79.4714
81.8215
84.0929
86.2816
88.3841
90.3974
92.3191
94.147
95.8795
97.5156
99.0545
100.496
101.84
103.088
104.239
105.297
106.265
107.154
107.958
108.676
109.309
109.859
110.33
110.722
111.041
111.288
111.467
111.582
111.634
111.628
111.566
111.452
111.288
111.077
110.822
110.527
110.192
109.822
109.418
108.982
108.518
108.026
107.51
106.97
106.409
105.828
105.229
104.613
103.982
103.337
102.679
102.01
101.329
100.639
99.939
99.2313
98.5161
97.7939
97.0655
96.3313
95.5917
94.8472
94.0982
93.345
92.5878
91.8269
91.0625
90.2948
89.524
88.75
87.973
87.1932
86.4104
85.6247
84.8362
84.0448
83.2505
82.4532
81.6529
80.8495
80.043
79.2332
78.4202
77.6038
76.7839
75.9605
75.1334
74.3026
73.468
72.6295
71.787
70.9405
70.0899
69.2351
68.3761
67.5129
66.6454
65.7736
64.8975
64.0171
63.1324
62.2434
61.3501
60.4527
59.5512
58.6456
57.736
56.8226
55.9055
54.9848
54.0607
53.1333
52.2028
51.2694
50.3333
49.3947
48.454
47.5112
46.5667
45.6208
44.6738
43.7259
42.7774
41.8288
40.8802
39.9321
38.9848
38.0386
37.0939
36.151
35.2103
34.2722
33.337
32.4051
31.4768
30.5525
29.6325
28.7172
27.8069
26.9019
26.0025
25.109
24.2216
23.3407
22.4664
21.5989
20.7386
19.8854
19.0397
18.2015
17.3712
16.5492
15.7362
14.9322
14.1352
13.3446
12.561
11.7833
11.0113
10.2445
9.4823
8.72436
7.97077
7.22349
6.48189
5.74357
5.00812
4.27735
3.55818
2.87298
2.30717
2.66299
14.9631
9.19673
9.70466
11.0713
12.7342
14.5487
16.4555
18.4221
20.435
22.4871
24.5714
26.6832
28.8184
30.973
33.1432
35.325
37.5142
39.7064
41.8968
44.0807
46.253
48.4085
50.5419
52.6482
54.722
56.7583
58.7522
60.6989
62.5938
64.4329
66.2121
67.9279
69.5771
71.1568
72.6646
74.0985
75.4568
76.7383
77.9421
79.0677
80.1151
81.0846
81.9768
82.7933
83.5362
84.2089
84.8113
85.3439
85.8078
86.2047
86.5367
86.806
87.0149
87.166
87.2619
87.305
87.2981
87.2437
87.1443
87.0026
86.8211
86.602
86.3479
86.061
85.7434
85.3974
85.025
84.628
84.2085
83.768
83.3083
82.831
82.3375
81.8293
81.3076
80.7737
80.2286
79.6735
79.1093
78.5369
77.9572
77.3709
76.7788
76.1813
75.5792
74.973
74.3631
73.7499
73.1338
72.5152
71.8943
71.2715
70.6468
70.0206
69.3929
68.7639
68.1337
67.5024
66.87
66.2366
65.6023
64.9669
64.3305
63.6931
63.0546
62.4151
61.7744
61.1325
60.4894
59.8449
59.199
58.5517
57.9028
57.2522
56.6
55.946
55.2901
54.6323
53.9725
53.3107
52.6468
51.9807
51.3124
50.6419
49.969
49.2939
48.6165
47.9367
47.2547
46.5703
45.8836
45.1947
44.5036
43.8103
43.1149
42.4175
41.7182
41.017
40.3141
39.6096
38.9037
38.1964
37.4879
36.7784
36.0681
35.3571
34.6457
33.934
33.2223
32.5107
31.7995
31.089
30.3793
29.6708
28.9636
28.2581
27.5544
26.8529
26.1538
25.4574
24.7639
24.0735
23.3867
22.7035
22.0243
21.3494
20.6788
20.0129
19.3519
18.6959
18.0453
17.4001
16.7606
16.127
15.4992
14.8776
14.2623
13.6533
13.051
12.4553
11.8666
11.2848
10.7095
10.1405
9.57774
9.02101
8.47082
7.92701
7.3897
6.85925
6.33637
5.82236
5.31884
4.82735
4.35195
3.90133
3.49514
3.1858
3.17379
5.28224
14.9632
9.1967
9.7046
11.0713
12.7341
14.5486
16.4554
18.422
20.435
22.487
24.5714
26.6831
28.8183
30.9729
33.1431
35.3249
37.5141
39.7063
41.8967
44.0806
46.2529
48.4084
50.5418
52.6481
54.7219
56.7582
58.7521
60.6987
62.5937
64.4328
66.212
67.9278
69.5769
71.1567
72.6645
74.0984
75.4567
76.7382
77.942
79.0676
80.115
81.0844
81.9767
82.7932
83.5361
84.2088
84.8112
85.3437
85.8077
86.2046
86.5366
86.8059
87.0148
87.1659
87.2617
87.3049
87.298
87.2436
87.1442
87.0025
86.821
86.6019
86.3478
86.0609
85.7433
85.3973
85.0249
84.6279
84.2084
83.7679
83.3082
82.8309
82.3374
81.8292
81.3075
80.7736
80.2285
79.6734
79.1092
78.5369
77.9571
77.3709
76.7787
76.1813
75.5792
74.9729
74.363
73.7498
73.1337
72.5151
71.8943
71.2714
70.6468
70.0205
69.3928
68.7638
68.1337
67.5023
66.87
66.2366
65.6022
64.9668
64.3304
63.693
63.0546
62.415
61.7743
61.1325
60.4893
59.8448
59.199
58.5516
57.9027
57.2522
56.5999
55.9459
55.2901
54.6323
53.9725
53.3107
52.6467
51.9807
51.3124
50.6418
49.969
49.2939
48.6165
47.9367
47.2546
46.5702
45.8836
45.1947
44.5035
43.8102
43.1149
42.4175
41.7181
41.017
40.3141
39.6096
38.9036
38.1964
37.4879
36.7784
36.0681
35.3571
34.6457
33.934
33.2222
32.5107
31.7995
31.0889
30.3793
29.6707
28.9636
28.258
27.5544
26.8529
26.1538
25.4573
24.7638
24.0735
23.3867
22.7035
22.0243
21.3493
20.6788
20.0129
19.3518
18.6959
18.0453
17.4001
16.7606
16.1269
15.4992
14.8776
14.2623
13.6533
13.0509
12.4553
11.8666
11.2848
10.7095
10.1404
9.57773
9.021
8.47081
7.927
7.38969
6.85925
6.33637
5.82235
5.31884
4.82734
4.35195
3.90133
3.49514
3.1858
3.17373
5.28226
21.695
11.948
11.4529
12.2507
13.485
14.9367
16.5182
18.1859
19.9155
21.6924
23.5066
25.3509
27.2195
29.1077
31.0112
32.9261
34.8482
36.7735
38.6979
40.6171
42.5266
44.4221
46.2989
48.1524
49.9782
51.7717
53.5285
55.2445
56.9154
58.5375
60.1071
61.621
63.0762
64.4699
65.7998
67.064
68.2607
69.3888
70.4472
71.4355
72.3533
73.201
73.979
74.6882
75.3302
75.9066
76.4184
76.8666
77.2524
77.5775
77.8436
78.0527
78.207
78.3088
78.3603
78.3639
78.322
78.2369
78.1111
77.9468
77.7465
77.5122
77.2462
76.9507
76.6276
76.279
75.9068
75.5127
75.0985
74.6658
74.2162
73.7512
73.2721
72.7802
72.2767
71.7629
71.2397
70.7081
70.169
69.6233
69.0718
68.5151
67.9538
67.3887
66.8202
66.2487
65.6748
65.0988
64.5211
63.9419
63.3616
62.7803
62.1983
61.6157
61.0327
60.4494
59.8659
59.2822
58.6985
58.1146
57.5307
56.9468
56.3628
55.7788
55.1946
54.6103
54.0258
53.441
52.856
52.2705
51.6846
51.0981
50.5111
49.9234
49.335
48.7457
48.1556
47.5645
46.9724
46.3793
45.785
45.1896
44.5929
43.9949
43.3957
42.7951
42.1932
41.59
40.9854
40.3795
39.7722
39.1636
38.5538
37.9427
37.3304
36.717
36.1026
35.4872
34.871
34.2539
33.6362
33.018
32.3993
31.7803
31.1613
30.5422
29.9233
29.3048
28.6868
28.0695
27.4532
26.8379
26.224
25.6116
25.0009
24.3921
23.7856
23.1813
22.5797
21.9809
21.3852
20.7927
20.2037
19.6184
19.0369
18.4596
17.8866
17.3181
16.7543
16.1953
15.6414
15.0927
14.5493
14.0115
13.4794
12.953
12.4327
11.9184
11.4103
10.9087
10.4136
9.925
9.44304
8.96771
8.49912
8.03743
7.58298
7.13609
6.69745
6.26798
5.84887
5.44206
5.05034
4.67801
4.33264
4.02883
3.79807
3.72325
4.12482
7.82012
21.6951
11.948
11.4528
12.2506
13.485
14.9366
16.5181
18.1858
19.9154
21.6923
23.5065
25.3508
27.2194
29.1076
31.0111
32.926
34.8481
36.7734
38.6978
40.617
42.5265
44.422
46.2987
48.1523
49.9781
51.7716
53.5284
55.2444
56.9153
58.5374
60.107
61.6209
63.0761
64.4698
65.7997
67.0639
68.2606
69.3887
70.4471
71.4354
72.3533
73.2009
73.9789
74.6881
75.3301
75.9065
76.4184
76.8665
77.2524
77.5774
77.8435
78.0526
78.2069
78.3087
78.3602
78.3638
78.3219
78.2368
78.111
77.9468
77.7464
77.5121
77.2461
76.9506
76.6276
76.2789
75.9067
75.5126
75.0984
74.6657
74.2161
73.7511
73.272
72.7801
72.2767
71.7628
71.2396
70.708
70.169
69.6233
69.0717
68.515
67.9538
67.3886
66.8201
66.2487
65.6748
65.0988
64.5211
63.9419
63.3616
62.7803
62.1983
61.6157
61.0327
60.4494
59.8659
59.2822
58.6984
58.1146
57.5307
56.9468
56.3628
55.7788
55.1946
54.6103
54.0258
53.441
52.8559
52.2705
51.6845
51.0981
50.5111
49.9234
49.3349
48.7457
48.1556
47.5645
46.9724
46.3793
45.785
45.1895
44.5929
43.9949
43.3957
42.7951
42.1932
41.59
40.9854
40.3794
39.7722
39.1636
38.5537
37.9427
37.3304
36.717
36.1026
35.4872
34.8709
34.2539
33.6362
33.0179
32.3993
31.7803
31.1612
30.5422
29.9233
29.3048
28.6868
28.0695
27.4532
26.8379
26.224
25.6116
25.0009
24.3921
23.7855
23.1813
22.5797
21.9809
21.3852
20.7927
20.2037
19.6184
19.0369
18.4596
17.8866
17.3181
16.7542
16.1953
15.6414
15.0927
14.5493
14.0115
13.4794
12.953
12.4326
11.9184
11.4103
10.9087
10.4136
9.925
9.44304
8.9677
8.49911
8.03742
7.58298
7.13609
6.69745
6.26797
5.84887
5.44205
5.05034
4.67801
4.33264
4.02883
3.79807
3.72325
4.12482
7.82012
28.4651
14.9294
13.5443
13.9005
14.8431
16.0716
17.4679
18.9735
20.555
22.192
23.8704
25.5805
27.3148
29.0674
30.8336
32.6089
34.3892
36.1707
37.9495
39.7218
41.4837
43.2312
44.9603
46.667
48.3473
49.9973
51.6129
53.1905
54.7264
56.2171
57.6592
59.0499
60.3862
61.6656
62.886
64.0455
65.1424
66.1754
67.1438
68.0467
68.884
69.6557
70.3621
71.004
71.5824
72.0986
72.5535
72.9483
73.2844
73.5631
73.7864
73.9559
74.0737
74.1419
74.1627
74.1382
74.0707
73.9624
73.8156
73.6325
73.4152
73.1659
72.8868
72.5797
72.2468
71.8898
71.5106
71.111
70.6926
70.2569
69.8056
69.3399
68.8613
68.3709
67.87
67.3597
66.841
66.3147
65.7819
65.2433
64.6997
64.1517
63.6
63.0451
62.4875
61.9278
61.3664
60.8035
60.2396
59.6749
59.1098
58.5443
57.9788
57.4133
56.848
56.2831
55.7186
55.1545
54.591
54.028
53.4656
52.9037
52.3425
51.7817
51.2215
50.6617
50.1023
49.5433
48.9846
48.4261
47.8678
47.3096
46.7514
46.1932
45.6348
45.0763
44.5175
43.9584
43.399
42.8391
42.2786
41.7177
41.1562
40.594
40.0311
39.4676
38.9034
38.3384
37.7727
37.2063
36.6391
36.0713
35.5028
34.9336
34.3639
33.7936
33.2228
32.6516
32.0801
31.5083
30.9364
30.3644
29.7925
29.2208
28.6495
28.0786
27.5083
26.9387
26.37
25.8025
25.2362
24.6712
24.1079
23.5464
22.9869
22.4295
21.8744
21.3219
20.7722
20.2254
19.6817
19.1413
18.6045
18.0714
17.5422
17.017
16.4962
15.9798
15.4679
14.9609
14.4589
13.9619
13.4703
12.984
12.5033
12.0284
11.5594
11.0964
10.6396
10.1892
9.74535
9.30822
8.87799
8.45486
8.03911
7.63114
7.23145
6.84074
6.45994
6.09038
5.73384
5.39314
5.07224
4.77745
4.51963
4.31897
4.21857
4.33184
5.09855
10.3306
28.4652
14.9293
13.5442
13.9004
14.843
16.0715
17.4678
18.9734
20.5549
22.1919
23.8703
25.5804
27.3147
29.0673
30.8335
32.6088
34.3891
36.1706
37.9494
39.7217
41.4836
43.2311
44.9602
46.6669
48.3472
49.9972
51.6128
53.1904
54.7263
56.217
57.6592
59.0498
60.3861
61.6655
62.886
64.0454
65.1423
66.1754
67.1437
68.0466
68.8839
69.6556
70.362
71.0039
71.5824
72.0985
72.5534
72.9483
73.2843
73.5631
73.7863
73.9558
74.0737
74.1419
74.1626
74.1381
74.0706
73.9624
73.8155
73.6324
73.4151
73.1659
72.8867
72.5797
72.2467
71.8897
71.5106
71.1109
70.6925
70.2569
69.8055
69.3399
68.8612
68.3709
67.87
67.3597
66.8409
66.3147
65.7819
65.2433
64.6996
64.1516
63.5999
63.045
62.4875
61.9278
61.3663
60.8035
60.2396
59.6749
59.1097
58.5443
57.9787
57.4133
56.848
56.2831
55.7186
55.1545
54.591
54.028
53.4656
52.9037
52.3424
51.7817
51.2214
50.6617
50.1023
49.5433
48.9846
48.4261
47.8678
47.3096
46.7514
46.1931
45.6348
45.0763
44.5175
43.9584
43.3989
42.839
42.2786
41.7177
41.1561
40.594
40.0311
39.4676
38.9034
38.3384
37.7727
37.2063
36.6391
36.0713
35.5028
34.9336
34.3638
33.7936
33.2228
32.6516
32.0801
31.5083
30.9364
30.3644
29.7925
29.2208
28.6495
28.0786
27.5082
26.9387
26.37
25.8025
25.2361
24.6712
24.1079
23.5464
22.9869
22.4295
21.8744
21.3219
20.7722
20.2254
19.6817
19.1413
18.6045
18.0714
17.5422
17.017
16.4962
15.9797
15.4679
14.9609
14.4589
13.9619
13.4703
12.984
12.5033
12.0284
11.5594
11.0964
10.6396
10.1892
9.74535
9.30822
8.87799
8.45486
8.03911
7.63114
7.23145
6.84074
6.45994
6.09038
5.73384
5.39314
5.07224
4.77745
4.51963
4.31897
4.21857
4.33184
5.09857
10.3306
35.1899
18.0408
15.8371
15.8218
16.5391
17.609
18.8827
20.2868
21.7795
23.3345
24.9343
26.5665
28.222
29.8937
31.5761
33.2643
34.9544
36.6424
38.3247
39.9979
41.6585
43.303
44.928
46.53
48.1055
49.651
51.1632
52.6387
54.0742
55.4667
56.8133
58.111
59.3575
60.5504
61.6876
62.7674
63.7883
64.7489
65.6485
66.4863
67.262
67.9756
68.6273
69.2177
69.7475
70.2178
70.6295
70.9837
71.2818
71.5251
71.7154
71.8543
71.9437
71.9856
71.982
71.935
71.8467
71.7192
71.5548
71.3554
71.1232
70.8602
70.5685
70.25
69.9066
69.5402
69.1524
68.7451
68.3197
67.8779
67.4212
66.9508
66.4681
65.9743
65.4707
64.9581
64.4378
63.9105
63.3771
62.8385
62.2954
61.7484
61.1982
60.6453
60.0903
59.5336
58.9755
58.4166
57.857
57.2971
56.7372
56.1775
55.6181
55.0592
54.501
53.9435
53.3869
52.8312
52.2765
51.7227
51.17
50.6183
50.0675
49.5178
48.969
48.4211
47.874
47.3278
46.7823
46.2375
45.6933
45.1497
44.6065
44.0638
43.5214
42.9793
42.4374
41.8956
41.3539
40.8122
40.2705
39.7287
39.1868
38.6446
38.1023
37.5598
37.017
36.4739
35.9305
35.3869
34.8429
34.2988
33.7543
33.2097
32.6648
32.1199
31.5748
31.0298
30.4848
29.9399
29.3953
28.851
28.3071
27.7637
27.221
26.679
26.1379
25.5979
25.059
24.5215
23.9855
23.4511
22.9184
22.3878
21.8593
21.3331
20.8094
20.2883
19.7701
19.2549
18.7429
18.2343
17.7292
17.2278
16.7304
16.237
15.7479
15.2632
14.7831
14.3077
13.8373
13.3719
12.9118
12.457
12.0079
11.5645
11.127
10.6956
10.2705
9.85189
9.44006
9.03523
8.6377
8.24781
7.86602
7.49289
7.12914
6.77572
6.43391
6.10544
5.7927
5.49918
5.23002
4.99335
4.80312
4.68496
4.69345
4.97246
6.08057
12.8261
35.19
18.0407
15.837
15.8217
16.539
17.6089
18.8826
20.2867
21.7794
23.3344
24.9342
26.5664
28.2219
29.8936
31.576
33.2642
34.9543
36.6422
38.3246
39.9978
41.6584
43.3029
44.9279
46.5299
48.1054
49.6509
51.1631
52.6386
54.0741
55.4666
56.8132
58.1109
59.3574
60.5503
61.6876
62.7674
63.7882
64.7489
65.6484
66.4862
67.2619
67.9755
68.6273
69.2176
69.7475
70.2177
70.6294
70.9836
71.2817
71.5251
71.7153
71.8542
71.9436
71.9855
71.9819
71.9349
71.8466
71.7192
71.5547
71.3553
71.1232
70.8602
70.5685
70.25
69.9066
69.5401
69.1524
68.745
68.3197
67.8779
67.4211
66.9508
66.4681
65.9743
65.4706
64.9581
64.4377
63.9104
63.3771
62.8385
62.2954
61.7484
61.1982
60.6453
60.0903
59.5335
58.9755
58.4165
57.857
57.2971
56.7372
56.1775
55.6181
55.0592
54.501
53.9435
53.3869
52.8312
52.2764
51.7227
51.17
50.6182
50.0675
49.5178
48.969
48.4211
47.874
47.3278
46.7823
46.2375
45.6933
45.1497
44.6065
44.0638
43.5214
42.9793
42.4373
41.8956
41.3539
40.8122
40.2705
39.7287
39.1867
38.6446
38.1023
37.5598
37.017
36.4739
35.9305
35.3869
34.8429
34.2987
33.7543
33.2097
32.6648
32.1199
31.5748
31.0298
30.4848
29.9399
29.3953
28.851
28.3071
27.7637
27.221
26.679
26.1379
25.5979
25.059
24.5215
23.9855
23.451
22.9184
22.3878
21.8593
21.3331
20.8094
20.2883
19.7701
19.2549
18.7429
18.2343
17.7292
17.2278
16.7304
16.237
15.7479
15.2632
14.7831
14.3077
13.8373
13.3719
12.9118
12.457
12.0079
11.5645
11.127
10.6956
10.2705
9.85189
9.44006
9.03523
8.6377
8.24782
7.86602
7.49289
7.12914
6.77572
6.43391
6.10544
5.79271
5.49918
5.23002
4.99335
4.80312
4.68496
4.69345
4.97247
6.08058
12.8261
41.9536
21.2518
18.279
17.9353
18.4665
19.4143
20.5998
21.9348
23.3693
24.872
26.4217
28.0038
29.6073
31.2243
32.8484
34.4744
36.0982
37.716
39.3245
40.9205
42.5009
44.0628
45.6032
47.1192
48.6079
50.0662
51.4914
52.8805
54.2308
55.5394
56.804
58.0219
59.1909
60.309
61.3743
62.385
63.3399
64.2377
65.0776
65.8588
66.5811
67.2443
67.8486
68.3944
68.8823
69.313
69.6877
70.0072
70.2729
70.486
70.6482
70.761
70.8261
70.8455
70.8211
70.7547
70.6485
70.5044
70.3246
70.1109
69.8654
69.5902
69.287
68.9579
68.6047
68.2291
67.8328
67.4176
66.9849
66.5364
66.0733
65.5971
65.1091
64.6104
64.1022
63.5856
63.0615
62.5308
61.9945
61.4532
60.9078
60.3589
59.8071
59.2529
58.6969
58.1395
57.5812
57.0222
56.463
55.9038
55.3449
54.7864
54.2287
53.6717
53.1158
52.5609
52.0072
51.4547
50.9036
50.3537
49.8052
49.2581
48.7123
48.1677
47.6245
47.0825
46.5417
46.0021
45.4636
44.926
44.3895
43.8538
43.319
42.785
42.2516
41.7189
41.1867
40.655
40.1238
39.5929
39.0624
38.5321
38.002
37.4721
36.9424
36.4128
35.8832
35.3538
34.8244
34.295
33.7657
33.2365
32.7074
32.1784
31.6495
31.1208
30.5923
30.0641
29.5363
29.0089
28.482
27.9556
27.43
26.9051
26.3811
25.858
25.3361
24.8155
24.2962
23.7784
23.2622
22.7479
22.2354
21.7251
21.217
20.7113
20.2082
19.7078
19.2103
18.7159
18.2247
17.7369
17.2526
16.7721
16.2955
15.8229
15.3546
14.8906
14.4312
13.9766
13.5268
13.0821
12.6426
12.2085
11.78
11.3573
10.9405
10.53
10.1259
9.72854
9.33818
8.95517
8.5799
8.21285
7.85461
7.50591
7.16769
6.84114
6.52786
6.22998
5.95044
5.69346
5.46532
5.27589
5.14187
5.09441
5.19955
5.6316
7.06775
15.3135
41.9537
21.2518
18.2789
17.9353
18.4664
19.4142
20.5997
21.9347
23.3692
24.8719
26.4216
28.0037
29.6072
31.2242
32.8483
34.4743
36.0981
37.7159
39.3244
40.9204
42.5008
44.0627
45.6031
47.1191
48.6078
50.0661
51.4913
52.8804
54.2307
55.5394
56.8039
58.0218
59.1908
60.3089
61.3742
62.385
63.3398
64.2376
65.0775
65.8588
66.581
67.2443
67.8486
68.3943
68.8822
69.313
69.6876
70.0072
70.2728
70.486
70.6481
70.7609
70.8261
70.8455
70.821
70.7547
70.6485
70.5044
70.3245
70.1108
69.8654
69.5901
69.287
68.9579
68.6047
68.2291
67.8328
67.4176
66.9849
66.5363
66.0733
65.5971
65.1091
64.6104
64.1022
63.5856
63.0614
62.5308
61.9945
61.4532
60.9078
60.3589
59.8071
59.2529
58.6969
58.1395
57.5812
57.0222
56.463
55.9038
55.3449
54.7864
54.2286
53.6717
53.1157
52.5609
52.0072
51.4547
50.9036
50.3537
49.8052
49.2581
48.7122
48.1677
47.6245
47.0825
46.5417
46.0021
45.4635
44.926
44.3895
43.8538
43.319
42.785
42.2516
41.7189
41.1867
40.655
40.1238
39.5929
39.0624
38.5321
38.002
37.4721
36.9424
36.4128
35.8832
35.3538
34.8244
34.295
33.7657
33.2365
32.7074
32.1784
31.6495
31.1208
30.5923
30.0641
29.5363
29.0089
28.482
27.9556
27.43
26.9051
26.3811
25.858
25.3361
24.8155
24.2962
23.7784
23.2622
22.7478
22.2354
21.7251
21.217
20.7113
20.2082
19.7078
19.2103
18.7159
18.2247
17.7369
17.2526
16.7721
16.2955
15.8229
15.3546
14.8906
14.4312
13.9766
13.5268
13.0821
12.6426
12.2085
11.78
11.3573
10.9405
10.53
10.1259
9.72854
9.33818
8.95517
8.5799
8.21285
7.85461
7.50591
7.16769
6.84114
6.52786
6.22998
5.95044
5.69346
5.46532
5.27589
5.14187
5.09441
5.19955
5.63161
7.06776
15.3135
48.9395
24.5656
20.8499
20.2047
20.5746
21.4231
22.541
23.826
25.22
26.6866
28.2016
29.7479
31.3133
32.8886
34.4668
36.0426
37.6117
39.1703
40.7153
42.2441
43.7539
45.2423
46.7068
48.1451
49.5548
50.9335
52.2787
53.5882
54.8595
56.0903
57.2785
58.422
59.5187
60.5667
61.5646
62.5106
63.4036
64.2425
65.0263
65.7546
66.4268
67.0429
67.6028
68.107
68.5558
68.9501
69.2905
69.5782
69.8141
69.9997
70.1362
70.2252
70.2684
70.2674
70.2242
70.1404
70.0181
69.8592
69.6655
69.439
69.1817
68.8954
68.5821
68.2434
67.8813
67.4973
67.0933
66.6708
66.2313
65.7763
65.3072
64.8254
64.332
63.8284
63.3155
62.7944
62.2662
61.7317
61.1917
60.6471
60.0986
59.5468
58.9923
58.4357
57.8775
57.3182
56.7582
56.1977
55.6372
55.077
54.5173
53.9583
53.4002
52.8432
52.2874
51.733
51.1799
50.6284
50.0784
49.53
48.9831
48.4379
47.8943
47.3522
46.8117
46.2727
45.7351
45.199
44.6643
44.1308
43.5986
43.0676
42.5376
42.0087
41.4808
40.9538
40.4277
39.9023
39.3776
38.8536
38.3302
37.8073
37.285
36.7631
36.2416
35.7205
35.1998
34.6795
34.1594
33.6397
33.1204
32.6013
32.0826
31.5642
31.0463
30.5287
30.0117
29.4951
28.9792
28.4638
27.9492
27.4353
26.9224
26.4103
25.8994
25.3895
24.881
24.3738
23.8682
23.3641
22.8618
22.3614
21.8631
21.3669
20.873
20.3815
19.8927
19.4066
18.9235
18.4434
17.9666
17.4931
17.0232
16.5569
16.0946
15.6363
15.1821
14.7323
14.2871
13.8465
13.4108
12.9801
12.5546
12.1346
11.7201
11.3115
10.909
10.5128
10.1233
9.7406
9.36524
8.99759
8.63815
8.28751
7.94639
7.61569
7.29653
6.99036
6.69906
6.42516
6.17214
5.94495
5.75096
5.60173
5.51679
5.53266
5.72686
6.30423
8.06065
17.7987
48.9397
24.5655
20.8498
20.2046
20.5745
21.423
22.5409
23.8259
25.2199
26.6865
28.2015
29.7478
31.3132
32.8885
34.4667
36.0425
37.6115
39.1701
40.7152
42.244
43.7538
45.2421
46.7067
48.145
49.5547
50.9334
52.2786
53.5881
54.8594
56.0902
57.2784
58.4219
59.5186
60.5667
61.5645
62.5105
63.4035
64.2424
65.0263
65.7545
66.4267
67.0428
67.6027
68.1069
68.5557
68.95
69.2905
69.5781
69.8141
69.9996
70.1361
70.2252
70.2683
70.2674
70.2241
70.1404
70.0181
69.8591
69.6655
69.439
69.1817
68.8954
68.582
68.2434
67.8812
67.4973
67.0933
66.6708
66.2313
65.7763
65.3072
64.8254
64.332
63.8283
63.3155
62.7944
62.2662
61.7317
61.1917
60.6471
60.0986
59.5468
58.9923
58.4357
57.8775
57.3182
56.7581
56.1977
55.6372
55.077
54.5173
53.9583
53.4002
52.8432
52.2874
51.733
51.1799
50.6284
50.0784
49.53
48.9831
48.4379
47.8942
47.3522
46.8117
46.2727
45.7351
45.199
44.6642
44.1308
43.5986
43.0675
42.5376
42.0087
41.4808
40.9538
40.4277
39.9023
39.3776
38.8536
38.3302
37.8073
37.285
36.7631
36.2416
35.7205
35.1998
34.6795
34.1594
33.6397
33.1203
32.6013
32.0826
31.5642
31.0463
30.5287
30.0117
29.4951
28.9792
28.4638
27.9492
27.4353
26.9223
26.4103
25.8993
25.3895
24.881
24.3738
23.8682
23.3641
22.8618
22.3614
21.8631
21.3669
20.873
20.3815
19.8927
19.4066
18.9235
18.4434
17.9666
17.4931
17.0232
16.5569
16.0946
15.6363
15.1821
14.7323
14.2871
13.8465
13.4108
12.9801
12.5546
12.1346
11.7201
11.3116
10.909
10.5128
10.1233
9.7406
9.36524
8.99759
8.63815
8.28751
7.94639
7.61569
7.29653
6.99036
6.69906
6.42516
6.17214
5.94495
5.75096
5.60173
5.51679
5.53266
5.72686
6.30424
8.06067
17.7987
56.2208
28.0037
23.5454
22.6129
22.8371
23.6008
24.6643
25.9109
27.2746
28.7143
30.2026
31.7205
33.2543
34.7939
36.3319
37.8626
39.3815
40.8853
42.3711
43.8365
45.2792
46.6975
48.0893
49.4528
50.7862
52.0877
53.3554
54.5873
55.7817
56.9366
58.0503
59.1209
60.1468
61.1263
62.058
62.9407
63.773
64.5541
65.2831
65.9594
66.5826
67.1526
67.6692
68.1328
68.5438
68.9026
69.2101
69.4671
69.6746
69.8338
69.946
70.0125
70.035
70.015
69.9541
69.8542
69.7171
69.5444
69.3382
69.1001
68.8321
68.5359
68.2133
67.8662
67.4962
67.1049
66.6941
66.2651
65.8197
65.3591
64.8847
64.3979
63.8999
63.3918
62.8747
62.3497
61.8177
61.2797
60.7363
60.1886
59.6371
59.0824
58.5253
57.9663
57.4058
56.8443
56.2823
55.7201
55.158
54.5963
54.0353
53.4752
52.9162
52.3584
51.8021
51.2472
50.694
50.1424
49.5926
49.0446
48.4983
47.9539
47.4112
46.8703
46.3312
45.7938
45.2581
44.724
44.1915
43.6605
43.131
42.6029
42.0761
41.5506
41.0262
40.5031
39.9809
39.4598
38.9397
38.4204
37.9019
37.3843
36.8673
36.3511
35.8355
35.3205
34.8061
34.2923
33.779
33.2663
32.7541
32.2424
31.7313
31.2207
30.7108
30.2014
29.6927
29.1847
28.6774
28.171
27.6654
27.1607
26.6571
26.1545
25.6531
25.153
24.6543
24.157
23.6613
23.1674
22.6752
22.185
21.6969
21.2109
20.7274
20.2462
19.7677
19.292
18.8191
18.3493
17.8827
17.4195
16.9597
16.5036
16.0514
15.603
15.1589
14.719
14.2836
13.8528
13.4268
13.0059
12.5902
12.1799
11.7752
11.3764
10.9838
10.5977
10.2183
9.84604
9.4814
9.12483
8.77693
8.43841
8.1101
7.79306
7.4886
7.1984
6.92464
6.67023
6.43915
6.2371
6.07251
5.95868
5.918
5.99222
6.27071
6.98933
9.06385
20.3009
56.2209
28.0036
23.5453
22.6128
22.837
23.6007
24.6642
25.9108
27.2745
28.7142
30.2025
31.7204
33.2542
34.7938
36.3318
37.8625
39.3814
40.8852
42.371
43.8364
45.2791
46.6974
48.0892
49.4527
50.7861
52.0876
53.3553
54.5872
55.7816
56.9365
58.0502
59.1208
60.1467
61.1262
62.058
62.9406
63.7729
64.554
65.283
65.9593
66.5825
67.1525
67.6692
68.1328
68.5437
68.9026
69.21
69.467
69.6745
69.8337
69.9459
70.0125
70.0349
70.0149
69.9541
69.8542
69.717
69.5444
69.3381
69.1001
68.832
68.5359
68.2133
67.8662
67.4961
67.1049
66.694
66.2651
65.8197
65.3591
64.8847
64.3979
63.8999
63.3918
62.8747
62.3497
61.8177
61.2796
60.7363
60.1886
59.637
59.0824
58.5253
57.9663
57.4058
56.8443
56.2823
55.7201
55.158
54.5963
54.0353
53.4752
52.9162
52.3584
51.8021
51.2472
50.694
50.1424
49.5926
49.0446
48.4983
47.9539
47.4112
46.8703
46.3312
45.7938
45.2581
44.724
44.1915
43.6605
43.131
42.6029
42.0761
41.5506
41.0262
40.503
39.9809
39.4598
38.9397
38.4204
37.9019
37.3843
36.8673
36.3511
35.8355
35.3205
34.8061
34.2923
33.779
33.2663
32.7541
32.2424
31.7313
31.2207
30.7108
30.2014
29.6927
29.1847
28.6774
28.171
27.6654
27.1607
26.6571
26.1545
25.6531
25.153
24.6543
24.157
23.6613
23.1674
22.6752
22.185
21.6969
21.2109
20.7274
20.2462
19.7677
19.292
18.8191
18.3493
17.8827
17.4195
16.9597
16.5036
16.0514
15.603
15.1589
14.719
14.2836
13.8528
13.4268
13.0059
12.5902
12.1799
11.7752
11.3764
10.9838
10.5977
10.2183
9.84604
9.4814
9.12483
8.77693
8.43841
8.1101
7.79306
7.4886
7.1984
6.92464
6.67023
6.43915
6.2371
6.07251
5.95868
5.918
5.99222
6.27072
6.98934
9.06388
20.3009
63.7066
31.56
26.3611
25.1508
25.2397
25.9282
26.9456
28.1608
29.5
30.9174
32.3828
33.8752
35.3796
36.8854
38.3844
39.8709
41.3406
42.7901
44.2169
45.6191
46.9949
48.343
49.662
50.9507
52.2077
53.4318
54.6216
55.7759
56.8931
57.9718
59.0106
60.0081
60.9628
61.8735
62.7389
63.5579
64.3293
65.0524
65.7264
66.3506
66.9247
67.4485
67.9219
68.3451
68.7182
69.0419
69.3168
69.5435
69.723
69.8564
69.9449
69.9896
69.992
69.9537
69.8761
69.7608
69.6097
69.4242
69.2063
68.9575
68.6798
68.3747
68.044
67.6893
67.3124
66.9148
66.4981
66.0638
65.6133
65.1481
64.6694
64.1785
63.6767
63.1651
62.6446
62.1165
61.5815
61.0407
60.4947
59.9444
59.3906
58.8337
58.2745
57.7135
57.1512
56.588
56.0244
55.4607
54.8972
54.3343
53.7722
53.2111
52.6513
52.0928
51.5359
50.9806
50.4271
49.8754
49.3256
48.7777
48.2317
47.6877
47.1457
46.6056
46.0674
45.5312
44.9967
44.4641
43.9332
43.4041
42.8765
42.3506
41.8261
41.3031
40.7815
40.2612