/*--------------------------------*- C++ -*----------------------------------*\
  =========                 |
  \\      /  F ield         | OpenFOAM: The Open Source CFD Toolbox
   \\    /   O peration     | Website:  https://openfoam.org
    \\  /    A nd           | Version:  8
     \\/     M anipulation  |
\*---------------------------------------------------------------------------*/
FoamFile
{
    version     2.0;
    format      ascii;
    class       volScalarField;
    location    "4500";
    object      k;
}
// * * * * * * * * * * * * * * * * * * * * * * * * * * * * * * * * * * * * * //

dimensions      [0 2 -2 0 0 0 0];

internalField   nonuniform List<scalar> 
48000
(
0.032192
0.08387
0.128643
0.167606
0.204008
0.237646
0.268967
0.298361
0.3265
0.353877
0.380181
0.405647
0.430336
0.4543
0.477582
0.500209
0.522203
0.543578
0.564341
0.584496
0.604046
0.622989
0.641322
0.659042
0.676147
0.692633
0.708496
0.723735
0.738348
0.752335
0.765696
0.778433
0.790549
0.802049
0.812937
0.82322
0.832905
0.842002
0.850521
0.858471
0.865865
0.872713
0.879029
0.884823
0.890112
0.895031
0.89949
0.903487
0.907035
0.910151
0.912852
0.915155
0.917078
0.918637
0.919848
0.920729
0.921293
0.921558
0.921537
0.921246
0.920698
0.919908
0.918888
0.917652
0.916211
0.914577
0.912761
0.910775
0.908627
0.906329
0.903888
0.901314
0.898615
0.895799
0.892872
0.889842
0.886715
0.883496
0.880193
0.876808
0.873348
0.869816
0.866216
0.862553
0.858829
0.855048
0.851212
0.847324
0.843385
0.839398
0.835365
0.831287
0.827164
0.822999
0.818792
0.814544
0.810254
0.805924
0.801554
0.797144
0.792693
0.788202
0.78367
0.779097
0.774482
0.769824
0.765124
0.76038
0.755592
0.750759
0.745879
0.740952
0.735977
0.730953
0.725879
0.720754
0.715577
0.710347
0.705062
0.699722
0.694326
0.688873
0.683361
0.67779
0.672159
0.666467
0.660713
0.654896
0.649015
0.643071
0.637061
0.630986
0.624844
0.618636
0.612361
0.606018
0.599608
0.593129
0.586582
0.579968
0.573284
0.566533
0.559714
0.552827
0.545872
0.53885
0.531762
0.524607
0.517387
0.510102
0.502752
0.495339
0.487863
0.480325
0.472727
0.465068
0.45735
0.449574
0.441742
0.433853
0.425908
0.41791
0.409858
0.401754
0.393598
0.385391
0.377133
0.368825
0.360468
0.35206
0.343602
0.335093
0.326533
0.31792
0.309252
0.300528
0.291744
0.282898
0.273989
0.265019
0.256009
0.246976
0.237844
0.22859
0.219202
0.209657
0.199934
0.190003
0.179827
0.169358
0.158538
0.147349
0.135725
0.12347
0.110394
0.0962113
0.0804535
0.0622657
0.0396893
0.0200477
0.0321924
0.0838704
0.128644
0.167607
0.204009
0.237647
0.268967
0.298362
0.326501
0.353878
0.380181
0.405648
0.430336
0.454301
0.477582
0.500209
0.522203
0.543578
0.564341
0.584497
0.604046
0.622989
0.641322
0.659043
0.676147
0.692633
0.708496
0.723735
0.738348
0.752335
0.765696
0.778434
0.79055
0.802049
0.812937
0.82322
0.832905
0.842003
0.850521
0.858471
0.865865
0.872714
0.879029
0.884823
0.890112
0.895031
0.89949
0.903487
0.907035
0.910151
0.912852
0.915155
0.917078
0.918637
0.919848
0.920729
0.921293
0.921558
0.921537
0.921246
0.920698
0.919908
0.918888
0.917652
0.916211
0.914577
0.912761
0.910775
0.908627
0.906329
0.903888
0.901314
0.898615
0.895799
0.892872
0.889842
0.886715
0.883496
0.880192
0.876808
0.873348
0.869816
0.866216
0.862553
0.858829
0.855048
0.851212
0.847324
0.843385
0.839398
0.835365
0.831287
0.827164
0.822999
0.818792
0.814543
0.810254
0.805924
0.801554
0.797144
0.792693
0.788202
0.78367
0.779097
0.774482
0.769824
0.765124
0.76038
0.755592
0.750758
0.745879
0.740952
0.735977
0.730953
0.725879
0.720754
0.715577
0.710347
0.705062
0.699722
0.694326
0.688873
0.683361
0.67779
0.672159
0.666467
0.660713
0.654896
0.649015
0.643071
0.637061
0.630986
0.624844
0.618636
0.612361
0.606018
0.599607
0.593129
0.586582
0.579968
0.573284
0.566533
0.559714
0.552827
0.545872
0.53885
0.531762
0.524607
0.517387
0.510102
0.502752
0.495339
0.487863
0.480325
0.472727
0.465068
0.45735
0.449574
0.441742
0.433853
0.425908
0.41791
0.409858
0.401754
0.393598
0.385391
0.377133
0.368825
0.360468
0.35206
0.343602
0.335093
0.326533
0.31792
0.309252
0.300528
0.291744
0.282898
0.273989
0.265019
0.256009
0.246976
0.237844
0.22859
0.219202
0.209657
0.199934
0.190003
0.179827
0.169358
0.158538
0.147349
0.135725
0.12347
0.110394
0.0962114
0.0804538
0.0622663
0.0396883
0.0200472
0.0856149
0.215514
0.306477
0.386515
0.460035
0.528867
0.594324
0.656586
0.71636
0.774081
0.829987
0.884274
0.937084
0.988516
1.03864
1.08751
1.13515
1.18158
1.2268
1.27081
1.3136
1.35517
1.39548
1.43453
1.4723
1.50877
1.54393
1.57776
1.61025
1.64139
1.67118
1.69962
1.7267
1.75242
1.7768
1.79984
1.82156
1.84197
1.86109
1.87894
1.89554
1.91092
1.92511
1.93812
1.95
1.96078
1.9705
1.97919
1.98689
1.99363
1.99945
2.00439
2.00848
2.01176
2.01427
2.01604
2.01711
2.0175
2.01727
2.01643
2.01503
2.01308
2.01062
2.00769
2.0043
2.00048
1.99627
1.99167
1.98672
1.98144
1.97585
1.96996
1.9638
1.95738
1.95073
1.94385
1.93675
1.92946
1.92199
1.91434
1.90652
1.89856
1.89045
1.8822
1.87383
1.86533
1.85672
1.848
1.83918
1.83025
1.82122
1.81211
1.8029
1.7936
1.78421
1.77474
1.76519
1.75555
1.74583
1.73603
1.72614
1.71617
1.70612
1.69598
1.68576
1.67545
1.66505
1.65456
1.64398
1.6333
1.62253
1.61166
1.6007
1.58963
1.57846
1.56718
1.55579
1.54429
1.53268
1.52095
1.50911
1.49715
1.48506
1.47286
1.46052
1.44806
1.43547
1.42275
1.40989
1.3969
1.38378
1.37052
1.35712
1.34358
1.3299
1.31607
1.30211
1.28801
1.27376
1.25937
1.24484
1.23016
1.21535
1.20039
1.18529
1.17006
1.15468
1.13917
1.12352
1.10773
1.09181
1.07577
1.05959
1.04328
1.02685
1.01029
0.993615
0.976819
0.959905
0.942876
0.925735
0.908482
0.89112
0.873651
0.856076
0.838397
0.820615
0.80273
0.784743
0.766654
0.748462
0.730165
0.711763
0.693251
0.674626
0.655884
0.637017
0.618018
0.598879
0.57959
0.56014
0.540509
0.520662
0.500573
0.48023
0.459586
0.438598
0.41721
0.395352
0.372938
0.349855
0.32595
0.301089
0.27503
0.247446
0.217871
0.185593
0.149378
0.10611
0.0412655
0.0856155
0.215514
0.306478
0.386515
0.460036
0.528868
0.594325
0.656586
0.71636
0.774081
0.829987
0.884274
0.937084
0.988516
1.03864
1.08751
1.13515
1.18158
1.2268
1.27081
1.3136
1.35516
1.39548
1.43453
1.4723
1.50877
1.54393
1.57776
1.61025
1.64139
1.67118
1.69962
1.7267
1.75242
1.7768
1.79984
1.82156
1.84197
1.86109
1.87894
1.89554
1.91092
1.92511
1.93812
1.95
1.96078
1.9705
1.97919
1.98689
1.99363
1.99945
2.00439
2.00848
2.01176
2.01427
2.01604
2.0171
2.0175
2.01727
2.01643
2.01502
2.01308
2.01062
2.00769
2.0043
2.00048
1.99627
1.99167
1.98672
1.98144
1.97585
1.96996
1.9638
1.95738
1.95073
1.94384
1.93675
1.92946
1.92199
1.91434
1.90652
1.89856
1.89045
1.8822
1.87383
1.86533
1.85672
1.848
1.83918
1.83025
1.82122
1.81211
1.8029
1.7936
1.78421
1.77474
1.76519
1.75555
1.74583
1.73603
1.72614
1.71617
1.70612
1.69598
1.68576
1.67545
1.66505
1.65456
1.64398
1.6333
1.62253
1.61166
1.6007
1.58963
1.57845
1.56718
1.55579
1.54429
1.53268
1.52095
1.50911
1.49715
1.48506
1.47286
1.46052
1.44806
1.43547
1.42275
1.40989
1.3969
1.38378
1.37052
1.35712
1.34358
1.3299
1.31607
1.30211
1.28801
1.27376
1.25937
1.24484
1.23016
1.21535
1.20039
1.18529
1.17006
1.15468
1.13917
1.12352
1.10773
1.09181
1.07576
1.05959
1.04328
1.02685
1.01029
0.993615
0.976818
0.959905
0.942876
0.925734
0.908481
0.89112
0.873651
0.856076
0.838397
0.820615
0.80273
0.784743
0.766654
0.748461
0.730165
0.711762
0.693251
0.674626
0.655883
0.637016
0.618018
0.598879
0.57959
0.560139
0.540509
0.520662
0.500573
0.48023
0.459586
0.438598
0.417209
0.395352
0.372938
0.349855
0.32595
0.301089
0.275029
0.247446
0.217871
0.185593
0.149379
0.106111
0.0412669
0.12964
0.307435
0.421256
0.518583
0.607801
0.691996
0.772451
0.849783
0.924462
0.99683
1.06712
1.13552
1.20215
1.26712
1.33049
1.39231
1.45261
1.5114
1.5687
1.62448
1.67874
1.73145
1.78261
1.83218
1.88015
1.92649
1.97118
2.0142
2.05553
2.09517
2.1331
2.16931
2.20381
2.2366
2.26767
2.29705
2.32475
2.35078
2.37517
2.39794
2.41912
2.43873
2.45682
2.47341
2.48856
2.50229
2.51467
2.52572
2.5355
2.54405
2.55141
2.55763
2.56276
2.56684
2.56992
2.57206
2.57328
2.57364
2.57318
2.57194
2.56997
2.5673
2.56398
2.56003
2.5555
2.55041
2.54482
2.53873
2.53219
2.52522
2.51785
2.51011
2.50201
2.49359
2.48486
2.47584
2.46656
2.45702
2.44725
2.43726
2.42707
2.41668
2.40611
2.39537
2.38447
2.37342
2.36223
2.3509
2.33944
2.32786
2.31615
2.30433
2.2924
2.28037
2.26822
2.25597
2.24363
2.23117
2.21862
2.20597
2.19322
2.18037
2.16741
2.15436
2.1412
2.12793
2.11456
2.10108
2.08748
2.07378
2.05995
2.04601
2.03195
2.01776
2.00345
1.989
1.97443
1.95972
1.94487
1.92988
1.91474
1.89946
1.88404
1.86845
1.85272
1.83683
1.82078
1.80456
1.78819
1.77165
1.75494
1.73806
1.72101
1.70379
1.6864
1.66884
1.6511
1.63318
1.61509
1.59683
1.57838
1.55977
1.54098
1.52201
1.50287
1.48356
1.46408
1.44443
1.42461
1.40463
1.38448
1.36417
1.34371
1.32308
1.3023
1.28137
1.26029
1.23906
1.21768
1.19617
1.17452
1.15273
1.13081
1.10876
1.08657
1.06426
1.04182
1.01926
0.996575
0.973762
0.950823
0.927758
0.904562
0.881234
0.857767
0.834158
0.810397
0.786476
0.762385
0.73811
0.713634
0.688936
0.663988
0.638757
0.61321
0.587295
0.560982
0.534201
0.506875
0.47891
0.450188
0.420557
0.389822
0.357759
0.324016
0.288086
0.249131
0.205445
0.151868
0.0647625
0.129641
0.307436
0.421256
0.518583
0.607801
0.691996
0.772451
0.849783
0.924462
0.99683
1.06712
1.13552
1.20215
1.26712
1.33049
1.39231
1.45261
1.5114
1.5687
1.62448
1.67874
1.73145
1.78261
1.83218
1.88015
1.92649
1.97118
2.0142
2.05553
2.09517
2.1331
2.16931
2.20381
2.23659
2.26767
2.29705
2.32475
2.35078
2.37517
2.39794
2.41912
2.43873
2.45682
2.47341
2.48856
2.50229
2.51467
2.52572
2.5355
2.54405
2.55141
2.55763
2.56276
2.56684
2.56992
2.57205
2.57328
2.57364
2.57318
2.57194
2.56997
2.5673
2.56397
2.56003
2.5555
2.55041
2.54481
2.53873
2.53219
2.52522
2.51785
2.51011
2.50201
2.49359
2.48486
2.47584
2.46656
2.45702
2.44725
2.43726
2.42707
2.41668
2.40611
2.39537
2.38447
2.37342
2.36223
2.3509
2.33944
2.32785
2.31615
2.30433
2.2924
2.28036
2.26822
2.25597
2.24362
2.23117
2.21862
2.20597
2.19322
2.18037
2.16741
2.15436
2.1412
2.12793
2.11456
2.10108
2.08748
2.07378
2.05995
2.04601
2.03195
2.01776
2.00345
1.989
1.97443
1.95972
1.94487
1.92988
1.91474
1.89946
1.88403
1.86845
1.85272
1.83683
1.82078
1.80456
1.78819
1.77165
1.75494
1.73806
1.72101
1.70379
1.6864
1.66884
1.6511
1.63318
1.61509
1.59683
1.57838
1.55977
1.54098
1.52201
1.50287
1.48356
1.46408
1.44443
1.42461
1.40463
1.38448
1.36417
1.3437
1.32308
1.3023
1.28137
1.26028
1.23906
1.21768
1.19617
1.17452
1.15273
1.13081
1.10876
1.08657
1.06426
1.04182
1.01926
0.996574
0.973761
0.950823
0.927757
0.904562
0.881233
0.857767
0.834157
0.810397
0.786476
0.762385
0.738109
0.713634
0.688936
0.663987
0.638757
0.61321
0.587295
0.560982
0.534201
0.506875
0.47891
0.450188
0.420557
0.389822
0.357758
0.324016
0.288086
0.249131
0.205445
0.151868
0.064762
0.166072
0.385513
0.517857
0.627478
0.727557
0.822123
0.91276
1.00022
1.08496
1.16726
1.24733
1.32532
1.40135
1.47549
1.54782
1.61838
1.68719
1.75426
1.81961
1.88322
1.94509
2.0052
2.06352
2.12003
2.17472
2.22756
2.27852
2.32759
2.37475
2.41998
2.46327
2.50462
2.54403
2.58148
2.617
2.65059
2.68227
2.71205
2.73995
2.76601
2.79025
2.81271
2.83343
2.85243
2.86978
2.88551
2.89967
2.91232
2.9235
2.93326
2.94165
2.94873
2.95455
2.95916
2.96261
2.96496
2.96626
2.96656
2.96591
2.96436
2.96195
2.95873
2.95475
2.95005
2.94467
2.93866
2.93204
2.92485
2.91714
2.90894
2.90027
2.89116
2.88165
2.87176
2.86151
2.85093
2.84004
2.82887
2.81742
2.80572
2.79379
2.78163
2.76927
2.75672
2.74398
2.73107
2.71799
2.70477
2.69139
2.67788
2.66423
2.65045
2.63655
2.62252
2.60838
2.59413
2.57976
2.56527
2.55068
2.53598
2.52116
2.50623
2.49119
2.47604
2.46077
2.44538
2.42988
2.41426
2.39851
2.38263
2.36663
2.3505
2.33423
2.31782
2.30128
2.28458
2.26775
2.25076
2.23362
2.21632
2.19886
2.18124
2.16345
2.14549
2.12736
2.10906
2.09057
2.07191
2.05307
2.03404
2.01482
1.99541
1.97582
1.95603
1.93605
1.91587
1.8955
1.87494
1.85418
1.83322
1.81206
1.79071
1.76916
1.74742
1.72549
1.70336
1.68104
1.65853
1.63584
1.61295
1.58989
1.56664
1.54322
1.51962
1.49584
1.4719
1.44779
1.42351
1.39908
1.37448
1.34973
1.32483
1.29978
1.27458
1.24923
1.22375
1.19812
1.17235
1.14644
1.12039
1.0942
1.06787
1.0414
1.01478
0.988006
0.961074
0.933976
0.906703
0.879243
0.851582
0.823702
0.795581
0.767192
0.738505
0.709482
0.680079
0.650247
0.619919
0.589024
0.557473
0.525144
0.49189
0.457509
0.421766
0.384292
0.344512
0.301395
0.252635
0.191026
0.0841122
0.166072
0.385513
0.517857
0.627478
0.727557
0.822123
0.91276
1.00022
1.08496
1.16726
1.24733
1.32532
1.40135
1.47549
1.54782
1.61838
1.68719
1.75426
1.81961
1.88322
1.94509
2.0052
2.06352
2.12003
2.17472
2.22756
2.27852
2.32759
2.37475
2.41998
2.46327
2.50462
2.54403
2.58148
2.617
2.65059
2.68227
2.71205
2.73995
2.76601
2.79025
2.81271
2.83343
2.85243
2.86978
2.88551
2.89967
2.91232
2.9235
2.93326
2.94165
2.94873
2.95455
2.95916
2.96261
2.96496
2.96626
2.96656
2.96591
2.96435
2.96195
2.95873
2.95475
2.95005
2.94467
2.93865
2.93204
2.92485
2.91714
2.90894
2.90026
2.89116
2.88165
2.87175
2.86151
2.85093
2.84004
2.82887
2.81742
2.80572
2.79379
2.78163
2.76927
2.75672
2.74398
2.73107
2.71799
2.70476
2.69139
2.67788
2.66423
2.65045
2.63655
2.62252
2.60838
2.59413
2.57976
2.56527
2.55068
2.53597
2.52116
2.50623
2.49119
2.47604
2.46077
2.44538
2.42988
2.41426
2.39851
2.38263
2.36663
2.3505
2.33423
2.31782
2.30127
2.28458
2.26775
2.25076
2.23362
2.21632
2.19886
2.18124
2.16345
2.14549
2.12736
2.10906
2.09057
2.07191
2.05307
2.03404
2.01482
1.99541
1.97582
1.95603
1.93605
1.91587
1.8955
1.87494
1.85418
1.83322
1.81206
1.79071
1.76916
1.74742
1.72549
1.70336
1.68104
1.65853
1.63584
1.61295
1.58989
1.56664
1.54322
1.51962
1.49584
1.4719
1.44779
1.42351
1.39908
1.37448
1.34973
1.32483
1.29978
1.27458
1.24923
1.22375
1.19812
1.17235
1.14644
1.12039
1.0942
1.06787
1.0414
1.01478
0.988005
0.961074
0.933976
0.906703
0.879243
0.851581
0.823701
0.79558
0.767192
0.738505
0.709482
0.680079
0.650247
0.619919
0.589024
0.557473
0.525144
0.491889
0.457509
0.421766
0.384292
0.344512
0.301395
0.252635
0.191026
0.084112
0.199036
0.455648
0.605732
0.726934
0.836574
0.939863
1.03884
1.13446
1.22719
1.31735
1.4051
1.4906
1.57393
1.65517
1.73438
1.8116
1.88685
1.96016
2.03154
2.10098
2.16847
2.23401
2.29759
2.35917
2.41875
2.4763
2.53181
2.58526
2.63663
2.6859
2.73308
2.77815
2.82111
2.86197
2.90072
2.93738
2.97197
3.00449
3.03499
3.06347
3.08998
3.11455
3.13722
3.15803
3.17703
3.19426
3.20977
3.22363
3.23587
3.24655
3.25573
3.26347
3.26982
3.27483
3.27857
3.2811
3.28246
3.28271
3.28191
3.28011
3.27737
3.27373
3.26924
3.26395
3.2579
3.25115
3.24373
3.23568
3.22704
3.21785
3.20815
3.19796
3.18732
3.17625
3.1648
3.15297
3.1408
3.12831
3.11552
3.10245
3.08912
3.07555
3.06175
3.04773
3.03351
3.0191
3.00451
2.98976
2.97484
2.95977
2.94455
2.9292
2.9137
2.89808
2.88233
2.86645
2.85045
2.83433
2.81809
2.80173
2.78525
2.76865
2.75193
2.73509
2.71813
2.70104
2.68382
2.66647
2.64899
2.63138
2.61363
2.59573
2.5777
2.55951
2.54117
2.52268
2.50404
2.48523
2.46625
2.44711
2.42779
2.4083
2.38863
2.36878
2.34874
2.32851
2.3081
2.28748
2.26668
2.24567
2.22446
2.20305
2.18143
2.15961
2.13758
2.11534
2.09288
2.07022
2.04734
2.02426
2.00096
1.97745
1.95373
1.92979
1.90565
1.8813
1.85674
1.83198
1.80702
1.78185
1.75649
1.73093
1.70518
1.67923
1.6531
1.62678
1.60029
1.57361
1.54676
1.51974
1.49255
1.46519
1.43767
1.40999
1.38216
1.35417
1.32602
1.29772
1.26928
1.24067
1.21192
1.18302
1.15396
1.12474
1.09536
1.06581
1.03608
1.00617
0.976059
0.945737
0.915188
0.884388
0.853314
0.821934
0.790214
0.758112
0.725576
0.692546
0.658948
0.624691
0.589654
0.553698
0.516618
0.478135
0.437858
0.395103
0.348588
0.295372
0.226364
0.101268
0.199036
0.455649
0.605732
0.726934
0.836573
0.939863
1.03884
1.13446
1.22719
1.31735
1.4051
1.4906
1.57393
1.65517
1.73438
1.8116
1.88685
1.96016
2.03154
2.10098
2.16847
2.23401
2.29759
2.35917
2.41875
2.4763
2.53181
2.58526
2.63663
2.6859
2.73308
2.77815
2.82111
2.86197
2.90072
2.93738
2.97196
3.00449
3.03498
3.06347
3.08998
3.11455
3.13722
3.15803
3.17703
3.19426
3.20977
3.22362
3.23587
3.24655
3.25573
3.26347
3.26982
3.27483
3.27857
3.2811
3.28246
3.28271
3.28191
3.28011
3.27737
3.27372
3.26923
3.26395
3.2579
3.25115
3.24373
3.23568
3.22704
3.21785
3.20815
3.19796
3.18732
3.17625
3.1648
3.15297
3.1408
3.12831
3.11552
3.10245
3.08912
3.07555
3.06175
3.04773
3.03351
3.0191
3.00451
2.98976
2.97484
2.95977
2.94455
2.9292
2.9137
2.89808
2.88233
2.86645
2.85045
2.83433
2.81809
2.80173
2.78525
2.76865
2.75193
2.73509
2.71813
2.70104
2.68382
2.66647
2.64899
2.63138
2.61363
2.59573
2.5777
2.55951
2.54117
2.52268
2.50403
2.48522
2.46625
2.44711
2.42779
2.4083
2.38863
2.36878
2.34874
2.32851
2.30809
2.28748
2.26668
2.24567
2.22446
2.20305
2.18143
2.15961
2.13758
2.11533
2.09288
2.07022
2.04734
2.02426
2.00096
1.97745
1.95372
1.92979
1.90565
1.8813
1.85674
1.83198
1.80702
1.78185
1.75649
1.73093
1.70517
1.67923
1.6531
1.62678
1.60029
1.57361
1.54676
1.51974
1.49255
1.46519
1.43767
1.40999
1.38216
1.35417
1.32602
1.29772
1.26927
1.24067
1.21192
1.18302
1.15396
1.12474
1.09536
1.06581
1.03608
1.00617
0.976058
0.945737
0.915188
0.884388
0.853314
0.821934
0.790214
0.758111
0.725576
0.692546
0.658948
0.624691
0.589654
0.553698
0.516618
0.478135
0.437858
0.395104
0.348588
0.295372
0.226364
0.101268
0.229263
0.521359
0.688545
0.821249
0.940094
1.05149
1.158
1.26078
1.36044
1.45728
1.55152
1.64328
1.73264
1.8197
1.90449
1.98706
2.06745
2.14568
2.22176
2.29571
2.36753
2.43722
2.50476
2.57016
2.6334
2.69447
2.75336
2.81005
2.86453
2.9168
2.96685
3.01467
3.06026
3.10363
3.14479
3.18374
3.2205
3.25509
3.28753
3.31786
3.34609
3.37228
3.39645
3.41865
3.43892
3.45732
3.4739
3.4887
3.50178
3.51321
3.52303
3.5313
3.53808
3.54344
3.54743
3.5501
3.55153
3.55177
3.55087
3.54889
3.5459
3.54193
3.53704
3.53129
3.52473
3.51739
3.50933
3.50058
3.4912
3.48122
3.47068
3.45961
3.44805
3.43603
3.42358
3.41074
3.39751
3.38394
3.37005
3.35585
3.34136
3.32661
3.31161
3.29638
3.28093
3.26528
3.24943
3.2334
3.21719
3.20082
3.1843
3.16762
3.1508
3.13383
3.11673
3.0995
3.08213
3.06464
3.04702
3.02927
3.01139
2.99339
2.97526
2.957
2.93861
2.92009
2.90143
2.88263
2.8637
2.84463
2.8254
2.80603
2.78651
2.76683
2.74699
2.72699
2.70683
2.68649
2.66597
2.64528
2.62441
2.60335
2.58211
2.56067
2.53903
2.5172
2.49516
2.47292
2.45047
2.42781
2.40494
2.38185
2.35855
2.33502
2.31128
2.28731
2.26312
2.23871
2.21407
2.18921
2.16412
2.13881
2.11327
2.08751
2.06153
2.03532
2.0089
1.98226
1.9554
1.92833
1.90105
1.87356
1.84586
1.81796
1.78986
1.76156
1.73307
1.70439
1.67552
1.64646
1.61723
1.58781
1.55823
1.52847
1.49854
1.46844
1.43818
1.40776
1.37717
1.34642
1.31551
1.28443
1.25319
1.22178
1.1902
1.15844
1.12649
1.09435
1.06201
1.02945
0.996648
0.963597
0.930267
0.896632
0.862656
0.8283
0.793516
0.758243
0.72241
0.685925
0.648669
0.610488
0.571165
0.530388
0.487704
0.442306
0.39264
0.335159
0.259066
0.116982
0.229264
0.521359
0.688545
0.821249
0.940094
1.05149
1.158
1.26078
1.36044
1.45728
1.55152
1.64327
1.73264
1.8197
1.90449
1.98706
2.06745
2.14568
2.22176
2.29571
2.36753
2.43722
2.50476
2.57016
2.6334
2.69447
2.75336
2.81005
2.86453
2.9168
2.96685
3.01467
3.06026
3.10363
3.14479
3.18374
3.2205
3.25509
3.28753
3.31786
3.34609
3.37228
3.39645
3.41865
3.43892
3.45732
3.47389
3.4887
3.50178
3.51321
3.52303
3.5313
3.53808
3.54344
3.54742
3.5501
3.55153
3.55177
3.55087
3.54889
3.5459
3.54193
3.53704
3.53129
3.52472
3.51739
3.50933
3.50058
3.4912
3.48122
3.47068
3.45961
3.44805
3.43603
3.42358
3.41074
3.39751
3.38394
3.37005
3.35584
3.34136
3.32661
3.31161
3.29638
3.28093
3.26528
3.24943
3.2334
3.21719
3.20082
3.1843
3.16762
3.1508
3.13383
3.11673
3.0995
3.08213
3.06464
3.04701
3.02927
3.01139
2.99339
2.97526
2.957
2.93861
2.92008
2.90143
2.88263
2.8637
2.84462
2.8254
2.80603
2.78651
2.76683
2.74699
2.72699
2.70682
2.68649
2.66597
2.64528
2.62441
2.60335
2.58211
2.56067
2.53903
2.5172
2.49516
2.47292
2.45047
2.42781
2.40494
2.38185
2.35855
2.33502
2.31128
2.28731
2.26312
2.23871
2.21407
2.18921
2.16412
2.13881
2.11327
2.08751
2.06153
2.03532
2.0089
1.98226
1.9554
1.92833
1.90105
1.87356
1.84586
1.81796
1.78986
1.76156
1.73307
1.70439
1.67552
1.64646
1.61723
1.58781
1.55823
1.52847
1.49854
1.46844
1.43818
1.40776
1.37717
1.34642
1.31551
1.28443
1.25319
1.22178
1.1902
1.15844
1.12649
1.09435
1.06201
1.02945
0.996648
0.963597
0.930267
0.896632
0.862656
0.8283
0.793516
0.758243
0.72241
0.685925
0.648669
0.610488
0.571165
0.530388
0.487704
0.442306
0.39264
0.335159
0.259066
0.116982
0.257772
0.584186
0.768158
0.912335
1.04028
1.15954
1.27315
1.38256
1.48847
1.59128
1.69119
1.78837
1.8829
1.97485
2.0643
2.15128
2.23585
2.31803
2.39785
2.47534
2.55052
2.62338
2.69395
2.76222
2.8282
2.89188
2.95326
3.01233
3.0691
3.12355
3.17569
3.22552
3.27304
3.31825
3.36117
3.40181
3.44018
3.4763
3.51021
3.54191
3.57145
3.59887
3.62419
3.64746
3.66873
3.68805
3.70546
3.72102
3.73478
3.74681
3.75715
3.76587
3.77302
3.77867
3.78288
3.78571
3.78722
3.78747
3.78652
3.78443
3.78125
3.77704
3.77186
3.76576
3.75878
3.75099
3.74242
3.73313
3.72315
3.71254
3.70132
3.68954
3.67723
3.66443
3.65117
3.63748
3.62339
3.60893
3.59411
3.57897
3.56352
3.54779
3.53179
3.51555
3.49907
3.48236
3.46545
3.44835
3.43106
3.41359
3.39595
3.37816
3.36021
3.3421
3.32386
3.30547
3.28694
3.26828
3.24948
3.23055
3.21148
3.19228
3.17295
3.15347
3.13387
3.11412
3.09423
3.0742
3.05403
3.0337
3.01322
2.99259
2.97179
2.95084
2.92971
2.90842
2.88695
2.8653
2.84348
2.82146
2.79926
2.77686
2.75426
2.73146
2.70846
2.68525
2.66183
2.63819
2.61434
2.59027
2.56597
2.54145
2.5167
2.49172
2.46651
2.44106
2.41539
2.38947
2.36333
2.33694
2.31032
2.28347
2.25638
2.22905
2.20149
2.1737
2.14568
2.11742
2.08894
2.06024
2.0313
2.00215
1.97278
1.9432
1.9134
1.88339
1.85318
1.82277
1.79215
1.76134
1.73033
1.69914
1.66776
1.63619
1.60444
1.57252
1.54041
1.50813
1.47568
1.44305
1.41025
1.37728
1.34413
1.3108
1.27729
1.24359
1.20969
1.1756
1.14129
1.10676
1.07199
1.03696
1.00166
0.966044
0.930093
0.893766
0.857015
0.819782
0.781994
0.743557
0.704347
0.6642
0.622877
0.58003
0.53511
0.487186
0.434445
0.372775
0.289821
0.131655
0.257772
0.584186
0.768158
0.912335
1.04028
1.15953
1.27315
1.38256
1.48847
1.59128
1.69119
1.78837
1.8829
1.97485
2.0643
2.15128
2.23585
2.31803
2.39785
2.47534
2.55052
2.62338
2.69395
2.76222
2.8282
2.89188
2.95326
3.01233
3.06909
3.12355
3.17569
3.22552
3.27304
3.31825
3.36117
3.40181
3.44018
3.4763
3.51021
3.54191
3.57145
3.59887
3.62419
3.64746
3.66873
3.68805
3.70546
3.72102
3.73478
3.74681
3.75715
3.76587
3.77302
3.77867
3.78288
3.78571
3.78722
3.78747
3.78652
3.78443
3.78125
3.77704
3.77186
3.76576
3.75878
3.75099
3.74242
3.73313
3.72315
3.71254
3.70132
3.68954
3.67723
3.66443
3.65117
3.63748
3.62339
3.60893
3.59411
3.57897
3.56352
3.54779
3.53179
3.51555
3.49906
3.48236
3.46545
3.44835
3.43106
3.41359
3.39595
3.37816
3.3602
3.3421
3.32386
3.30547
3.28694
3.26828
3.24948
3.23055
3.21148
3.19228
3.17294
3.15347
3.13387
3.11412
3.09423
3.0742
3.05403
3.0337
3.01322
2.99259
2.97179
2.95084
2.92971
2.90842
2.88695
2.8653
2.84348
2.82146
2.79926
2.77686
2.75426
2.73146
2.70846
2.68525
2.66183
2.63819
2.61434
2.59026
2.56597
2.54144
2.51669
2.49172
2.4665
2.44106
2.41538
2.38947
2.36333
2.33694
2.31032
2.28347
2.25638
2.22905
2.20149
2.1737
2.14568
2.11742
2.08894
2.06024
2.0313
2.00215
1.97278
1.9432
1.9134
1.88339
1.85318
1.82276
1.79215
1.76134
1.73033
1.69914
1.66776
1.63619
1.60444
1.57252
1.54041
1.50813
1.47568
1.44305
1.41025
1.37728
1.34413
1.3108
1.27729
1.24359
1.20969
1.1756
1.14129
1.10676
1.07199
1.03696
1.00166
0.966044
0.930093
0.893766
0.857015
0.819782
0.781994
0.743556
0.704347
0.6642
0.622877
0.580031
0.53511
0.487186
0.434445
0.372776
0.289821
0.131655
0.285646
0.644996
0.845608
1.00123
1.13824
1.2652
1.38568
1.50136
1.61308
1.72132
1.82633
1.92829
2.02731
2.12348
2.21686
2.30752
2.39551
2.48088
2.56368
2.64395
2.7217
2.79699
2.86982
2.94021
3.00818
3.07374
3.1369
3.19766
3.25604
3.31202
3.36563
3.41687
3.46574
3.51225
3.55641
3.59825
3.63777
3.67499
3.70995
3.74267
3.77317
3.80149
3.82768
3.85177
3.8738
3.89382
3.91189
3.92805
3.94236
3.95487
3.96564
3.97473
3.9822
3.98812
3.99253
3.99551
3.99712
3.99741
3.99645
3.99429
3.991
3.98662
3.98123
3.97487
3.96759
3.95945
3.95049
3.94077
3.93033
3.91921
3.90745
3.8951
3.88219
3.86876
3.85484
3.84047
3.82567
3.81047
3.7949
3.77898
3.76273
3.74619
3.72935
3.71226
3.69491
3.67733
3.65953
3.64152
3.62331
3.60492
3.58634
3.5676
3.54869
3.52962
3.5104
3.49103
3.47151
3.45185
3.43204
3.4121
3.39201
3.37179
3.35142
3.33091
3.31026
3.28946
3.26852
3.24743
3.22618
3.20478
3.18322
3.16149
3.1396
3.11755
3.09532
3.07291
3.05032
3.02754
3.00458
2.98142
2.95807
2.93451
2.91075
2.88678
2.86259
2.8382
2.81358
2.78873
2.76367
2.73837
2.71284
2.68708
2.66108
2.63484
2.60836
2.58164
2.55467
2.52746
2.50001
2.47231
2.44436
2.41617
2.38773
2.35904
2.33011
2.30094
2.27152
2.24186
2.21196
2.18183
2.15146
2.12086
2.09003
2.05897
2.02768
1.99618
1.96445
1.93251
1.90036
1.868
1.83543
1.80266
1.76969
1.73653
1.70317
1.66961
1.63587
1.60194
1.56782
1.53352
1.49903
1.46435
1.42949
1.39444
1.35919
1.32375
1.2881
1.25224
1.21617
1.17986
1.14331
1.1065
1.06941
1.03201
0.994273
0.956162
0.917629
0.878615
0.839047
0.798825
0.757818
0.715843
0.672638
0.627808
0.580722
0.530317
0.47453
0.40872
0.319081
0.145539
0.285646
0.644996
0.845608
1.00123
1.13824
1.2652
1.38568
1.50136
1.61308
1.72132
1.82633
1.92829
2.02731
2.12348
2.21686
2.30752
2.39551
2.48088
2.56368
2.64394
2.7217
2.79699
2.86982
2.94021
3.00818
3.07374
3.1369
3.19766
3.25604
3.31202
3.36563
3.41687
3.46573
3.51225
3.55641
3.59825
3.63777
3.67499
3.70995
3.74267
3.77317
3.80149
3.82768
3.85177
3.8738
3.89382
3.91189
3.92805
3.94236
3.95487
3.96564
3.97473
3.9822
3.98812
3.99253
3.99551
3.99712
3.99741
3.99645
3.99429
3.991
3.98662
3.98123
3.97487
3.96759
3.95945
3.95049
3.94077
3.93033
3.91921
3.90745
3.8951
3.88219
3.86876
3.85484
3.84047
3.82567
3.81047
3.79489
3.77898
3.76273
3.74619
3.72935
3.71226
3.69491
3.67733
3.65953
3.64152
3.62331
3.60492
3.58634
3.5676
3.54869
3.52962
3.5104
3.49103
3.47151
3.45185
3.43204
3.4121
3.39201
3.37179
3.35142
3.33091
3.31026
3.28946
3.26852
3.24742
3.22618
3.20478
3.18322
3.16149
3.1396
3.11755
3.09531
3.07291
3.05032
3.02754
3.00458
2.98142
2.95806
2.93451
2.91075
2.88678
2.86259
2.83819
2.81358
2.78873
2.76367
2.73837
2.71284
2.68708
2.66108
2.63484
2.60836
2.58164
2.55467
2.52746
2.50001
2.47231
2.44436
2.41617
2.38773
2.35904
2.33011
2.30094
2.27152
2.24186
2.21196
2.18183
2.15146
2.12086
2.09003
2.05897
2.02768
1.99618
1.96445
1.93251
1.90036
1.868
1.83543
1.80266
1.76969
1.73653
1.70317
1.66961
1.63587
1.60194
1.56782
1.53352
1.49903
1.46435
1.42949
1.39444
1.35919
1.32375
1.2881
1.25224
1.21617
1.17986
1.14331
1.1065
1.06941
1.03201
0.994273
0.956162
0.917629
0.878615
0.839047
0.798825
0.757818
0.715843
0.672638
0.627808
0.580722
0.530317
0.47453
0.40872
0.319081
0.145539
0.313318
0.704611
0.921595
1.08858
1.23459
1.36916
1.49632
1.61799
1.73518
1.84844
1.95809
2.06432
2.16729
2.26709
2.36382
2.45754
2.54834
2.63628
2.72142
2.80382
2.88353
2.9606
3.03506
3.10695
3.1763
3.24314
3.30749
3.36936
3.42879
3.48577
3.54032
3.59246
3.64219
3.68954
3.73452
3.77714
3.81742
3.85538
3.89106
3.92446
3.95564
3.98461
4.01141
4.03609
4.05869
4.07924
4.09781
4.11443
4.12916
4.14207
4.15319
4.16259
4.17034
4.17648
4.18109
4.18422
4.18593
4.18629
4.18535
4.18317
4.17982
4.17535
4.16982
4.16328
4.15578
4.14739
4.13815
4.12811
4.11731
4.10581
4.09363
4.08084
4.06746
4.05352
4.03908
4.02415
4.00878
3.99299
3.9768
3.96025
3.94335
3.92614
3.90862
3.89082
3.87276
3.85445
3.8359
3.81714
3.79816
3.77899
3.75963
3.74009
3.72037
3.70048
3.68044
3.66023
3.63988
3.61937
3.59871
3.5779
3.55695
3.53585
3.5146
3.4932
3.47166
3.44996
3.42811
3.4061
3.38394
3.36161
3.33912
3.31646
3.29363
3.27063
3.24744
3.22407
3.20051
3.17677
3.15282
3.12868
3.10433
3.07977
3.055
3.03002
3.00481
2.97939
2.95373
2.92784
2.90172
2.87537
2.84877
2.82193
2.79485
2.76751
2.73993
2.7121
2.68401
2.65568
2.62708
2.59823
2.56913
2.53976
2.51014
2.48027
2.45014
2.41976
2.38912
2.35823
2.32709
2.2957
2.26406
2.23218
2.20006
2.16769
2.13509
2.10226
2.06919
2.0359
2.00238
1.96864
1.93467
1.9005
1.8661
1.8315
1.79669
1.76167
1.72645
1.69103
1.6554
1.61958
1.58355
1.54733
1.51091
1.47428
1.43745
1.40041
1.36316
1.32569
1.28799
1.25005
1.21186
1.1734
1.13466
1.09561
1.05622
1.01645
0.976264
0.935588
0.89435
0.852444
0.809728
0.765999
0.720967
0.67419
0.62496
0.572068
0.513228
0.443305
0.347144
0.158878
0.313319
0.704611
0.921595
1.08858
1.23459
1.36916
1.49632
1.61799
1.73518
1.84844
1.95809
2.06432
2.16729
2.26709
2.36382
2.45754
2.54834
2.63628
2.72142
2.80382
2.88353
2.9606
3.03506
3.10695
3.1763
3.24314
3.30749
3.36936
3.42879
3.48577
3.54032
3.59246
3.64219
3.68954
3.73452
3.77714
3.81742
3.85538
3.89106
3.92446
3.95564
3.98461
4.01141
4.03609
4.05869
4.07924
4.09781
4.11443
4.12916
4.14206
4.15319
4.16259
4.17034
4.17648
4.18109
4.18422
4.18593
4.18629
4.18535
4.18317
4.17982
4.17535
4.16982
4.16328
4.15578
4.14739
4.13815
4.12811
4.11731
4.10581
4.09363
4.08084
4.06745
4.05352
4.03908
4.02415
4.00878
3.99299
3.9768
3.96025
3.94335
3.92613
3.90862
3.89082
3.87276
3.85445
3.8359
3.81714
3.79816
3.77899
3.75963
3.74008
3.72037
3.70048
3.68044
3.66023
3.63988
3.61937
3.59871
3.5779
3.55695
3.53585
3.5146
3.4932
3.47166
3.44996
3.42811
3.4061
3.38394
3.36161
3.33912
3.31646
3.29363
3.27062
3.24744
3.22407
3.20051
3.17677
3.15282
3.12868
3.10433
3.07977
3.055
3.03002
3.00481
2.97939
2.95373
2.92784
2.90172
2.87537
2.84877
2.82193
2.79485
2.76751
2.73993
2.7121
2.68401
2.65567
2.62708
2.59823
2.56912
2.53976
2.51014
2.48027
2.45014
2.41976
2.38912
2.35823
2.32709
2.2957
2.26406
2.23218
2.20006
2.16769
2.13509
2.10226
2.06919
2.0359
2.00238
1.96864
1.93467
1.9005
1.8661
1.8315
1.79669
1.76167
1.72645
1.69103
1.6554
1.61958
1.58355
1.54733
1.51091
1.47428
1.43745
1.40041
1.36316
1.32569
1.28799
1.25005
1.21186
1.1734
1.13466
1.09561
1.05622
1.01645
0.976264
0.935588
0.89435
0.852444
0.809728
0.765999
0.720967
0.67419
0.62496
0.572068