/*--------------------------------*- C++ -*----------------------------------*\
  =========                 |
  \\      /  F ield         | OpenFOAM: The Open Source CFD Toolbox
   \\    /   O peration     | Website:  https://openfoam.org
    \\  /    A nd           | Version:  8
     \\/     M anipulation  |
\*---------------------------------------------------------------------------*/
FoamFile
{
    version     2.0;
    format      ascii;
    class       volScalarField;
    location    "4500";
    object      nut;
}
// * * * * * * * * * * * * * * * * * * * * * * * * * * * * * * * * * * * * * //

dimensions      [0 2 -1 0 0 0 0];

internalField   nonuniform List<scalar> 
48000
(
5.41033e-05
9.43159e-05
0.000116809
0.00013333
0.000147097
0.000158762
0.0001689
0.00017789
0.00018609
0.000193734
0.000200806
0.000207422
0.000213641
0.000219509
0.000225063
0.000230333
0.000235343
0.000240111
0.000244654
0.000248985
0.000253114
0.000257053
0.000260808
0.000264386
0.000267796
0.000271041
0.000274127
0.00027706
0.000279843
0.000282481
0.000284979
0.00028734
0.000289567
0.000291666
0.000293639
0.000295491
0.000297224
0.000298843
0.000300351
0.000301752
0.000303048
0.000304245
0.000305344
0.000306349
0.000307263
0.000308111
0.000308877
0.000309563
0.00031017
0.000310703
0.000311163
0.000311556
0.000311883
0.000312148
0.000312354
0.000312503
0.000312599
0.000312644
0.00031264
0.000312591
0.000312498
0.000312364
0.00031219
0.00031198
0.000311735
0.000311457
0.000311147
0.000310808
0.000310442
0.000310049
0.000309631
0.00030919
0.000308726
0.000308242
0.000307738
0.000307215
0.000306674
0.000306117
0.000305544
0.000304956
0.000304353
0.000303737
0.000303108
0.000302466
0.000301813
0.000301147
0.000300471
0.000299784
0.000299086
0.000298378
0.00029766
0.000296932
0.000296195
0.000295448
0.000294692
0.000293926
0.000293151
0.000292367
0.000291573
0.00029077
0.000289957
0.000289134
0.000288301
0.000287459
0.000286606
0.000285743
0.000284869
0.000283985
0.000283089
0.000282182
0.000281263
0.000280333
0.00027939
0.000278435
0.000277467
0.000276485
0.000275491
0.000274482
0.000273459
0.000272421
0.000271369
0.000270301
0.000269218
0.000268118
0.000267002
0.000265869
0.000264719
0.000263551
0.000262365
0.00026116
0.000259937
0.000258695
0.000257433
0.000256151
0.000254848
0.000253525
0.00025218
0.000250814
0.000249426
0.000248016
0.000246583
0.000245127
0.000243647
0.000242143
0.000240616
0.000239063
0.000237485
0.000235882
0.000234254
0.000232599
0.000230917
0.000229208
0.000227472
0.000225708
0.000223916
0.000222094
0.000220244
0.000218364
0.000216453
0.000214512
0.000212539
0.000210534
0.000208496
0.000206424
0.000204318
0.000202177
0.000199999
0.000197784
0.00019553
0.000193237
0.000190902
0.000188523
0.0001861
0.000183629
0.000181108
0.000178536
0.000175907
0.00017322
0.000170471
0.000167657
0.000164783
0.00016185
0.000158829
0.000155709
0.000152478
0.000149121
0.000145622
0.00014196
0.000138106
0.000134026
0.000129674
0.000125014
0.000119982
0.000114437
0.000108208
0.000101017
9.23752e-05
8.13312e-05
6.56887e-05
5.27789e-05
5.41036e-05
9.43162e-05
0.000116809
0.00013333
0.000147097
0.000158762
0.0001689
0.00017789
0.00018609
0.000193735
0.000200806
0.000207422
0.000213641
0.000219509
0.000225063
0.000230333
0.000235343
0.000240111
0.000244654
0.000248985
0.000253114
0.000257053
0.000260808
0.000264386
0.000267796
0.000271041
0.000274127
0.00027706
0.000279843
0.000282481
0.000284979
0.00028734
0.000289567
0.000291666
0.000293639
0.000295491
0.000297224
0.000298843
0.000300351
0.000301752
0.000303048
0.000304245
0.000305344
0.000306349
0.000307263
0.000308111
0.000308877
0.000309563
0.00031017
0.000310703
0.000311163
0.000311556
0.000311883
0.000312148
0.000312354
0.000312503
0.000312599
0.000312644
0.00031264
0.000312591
0.000312498
0.000312364
0.00031219
0.00031198
0.000311735
0.000311457
0.000311147
0.000310808
0.000310442
0.000310049
0.000309631
0.00030919
0.000308726
0.000308242
0.000307738
0.000307215
0.000306674
0.000306117
0.000305544
0.000304956
0.000304353
0.000303737
0.000303108
0.000302466
0.000301812
0.000301147
0.000300471
0.000299784
0.000299086
0.000298378
0.00029766
0.000296932
0.000296195
0.000295448
0.000294692
0.000293926
0.000293151
0.000292367
0.000291573
0.00029077
0.000289957
0.000289134
0.000288301
0.000287459
0.000286606
0.000285743
0.000284869
0.000283985
0.000283089
0.000282182
0.000281263
0.000280333
0.00027939
0.000278435
0.000277467
0.000276485
0.000275491
0.000274482
0.000273459
0.000272421
0.000271369
0.000270301
0.000269218
0.000268118
0.000267002
0.000265869
0.000264719
0.000263551
0.000262365
0.00026116
0.000259937
0.000258695
0.000257433
0.000256151
0.000254848
0.000253525
0.00025218
0.000250814
0.000249426
0.000248016
0.000246583
0.000245127
0.000243647
0.000242143
0.000240616
0.000239063
0.000237485
0.000235882
0.000234254
0.000232599
0.000230917
0.000229208
0.000227472
0.000225708
0.000223916
0.000222094
0.000220244
0.000218364
0.000216453
0.000214512
0.000212539
0.000210534
0.000208496
0.000206424
0.000204318
0.000202177
0.000199999
0.000197784
0.00019553
0.000193237
0.000190902
0.000188523
0.0001861
0.000183629
0.000181108
0.000178536
0.000175907
0.00017322
0.000170471
0.000167657
0.000164783
0.00016185
0.000158829
0.000155709
0.000152478
0.000149121
0.000145622
0.00014196
0.000138106
0.000134026
0.000129674
0.000125014
0.000119982
0.000114437
0.000108208
0.000101017
9.2376e-05
8.13334e-05
6.56848e-05
5.27796e-05
8.21489e-05
0.000609404
0.000964517
0.00121258
0.00139945
0.00155073
0.00168033
0.00179432
0.00189614
0.00198794
0.00207198
0.00214946
0.00222135
0.00228836
0.00235107
0.00240994
0.00246534
0.00251757
0.00256689
0.00261352
0.00265764
0.00269942
0.002739
0.0027765
0.00281203
0.00284571
0.00287761
0.00290782
0.00293641
0.00296346
0.00298904
0.00301319
0.00303599
0.00305748
0.00307772
0.00309674
0.00311461
0.00313137
0.00314705
0.00316169
0.00317534
0.00318802
0.00319978
0.0032106
0.00322047
0.00322914
0.00323696
0.00324401
0.00325037
0.00325608
0.00326116
0.00326566
0.0032696
0.003273
0.00327588
0.00327828
0.00328021
0.00328169
0.00328274
0.00328339
0.00328364
0.00328352
0.00328304
0.00328222
0.00328108
0.00327962
0.00327787
0.00327583
0.00327353
0.00327096
0.00326814
0.00326509
0.00326181
0.00325832
0.00325461
0.00325071
0.00324661
0.00324233
0.00323787
0.00323324
0.00322844
0.00322349
0.00321838
0.00321312
0.00320771
0.00320216
0.00319648
0.00319065
0.0031847
0.00317861
0.0031724
0.00316605
0.00315958
0.00315299
0.00314627
0.00313943
0.00313246
0.00312537
0.00311815
0.00311081
0.00310334
0.00309574
0.00308802
0.00308016
0.00307217
0.00306405
0.00305579
0.00304739
0.00303886
0.00303017
0.00302135
0.00301237
0.00300324
0.00299395
0.00298451
0.00297491
0.00296514
0.0029552
0.00294509
0.00293481
0.00292435
0.0029137
0.00290287
0.00289185
0.00288063
0.00286922
0.00285761
0.00284579
0.00283376
0.00282151
0.00280905
0.00279637
0.00278346
0.00277033
0.00275696
0.00274335
0.0027295
0.00271541
0.00270107
0.00268647
0.00267161
0.0026565
0.00264112
0.00262546
0.00260954
0.00259333
0.00257685
0.00256007
0.00254301
0.00252564
0.00250798
0.00249001
0.00247173
0.00245313
0.00243422
0.00241497
0.00239539
0.00237547
0.0023552
0.00233458
0.0023136
0.00229224
0.00227051
0.00224839
0.00222586
0.00220292
0.00217955
0.00215575
0.00213148
0.00210674
0.00208151
0.00205575
0.00202945
0.00200258
0.0019751
0.00194697
0.00191815
0.00188858
0.00185819
0.00182686
0.00179446
0.00176086
0.00172604
0.00168994
0.00165241
0.00161327
0.0015723
0.00152918
0.00148353
0.00143476
0.00138203
0.00132372
0.00125872
0.00118527
0.00110034
0.000998768
0.000871245
0.000699032
0.000439213
5.75481e-05
8.21492e-05
0.000609409
0.000964525
0.00121259
0.00139946
0.00155074
0.00168034
0.00179433
0.00189614
0.00198795
0.00207199
0.00214947
0.00222135
0.00228837
0.00235108
0.00240995
0.00246535
0.00251758
0.0025669
0.00261352
0.00265765
0.00269942
0.002739
0.0027765
0.00281204
0.00284571
0.00287761
0.00290782
0.00293642
0.00296347
0.00298904
0.0030132
0.00303599
0.00305748
0.00307772
0.00309675
0.00311462
0.00313137
0.00314705
0.0031617
0.00317534
0.00318803
0.00319978
0.00321061
0.00322047
0.00322915
0.00323696
0.00324401
0.00325037
0.00325608
0.00326117
0.00326567
0.0032696
0.003273
0.00327589
0.00327829
0.00328021
0.00328169
0.00328275
0.00328339
0.00328364
0.00328352
0.00328304
0.00328223
0.00328108
0.00327963
0.00327787
0.00327584
0.00327353
0.00327096
0.00326815
0.0032651
0.00326182
0.00325832
0.00325462
0.00325071
0.00324661
0.00324233
0.00323787
0.00323324
0.00322845
0.00322349
0.00321838
0.00321312
0.00320771
0.00320217
0.00319648
0.00319066
0.0031847
0.00317861
0.0031724
0.00316606
0.00315959
0.00315299
0.00314627
0.00313943
0.00313246
0.00312537
0.00311815
0.00311081
0.00310334
0.00309575
0.00308802
0.00308017
0.00307218
0.00306405
0.0030558
0.0030474
0.00303886
0.00303018
0.00302135
0.00301237
0.00300324
0.00299396
0.00298452
0.00297491
0.00296514
0.00295521
0.0029451
0.00293481
0.00292435
0.00291371
0.00290287
0.00289185
0.00288064
0.00286922
0.00285761
0.00284579
0.00283376
0.00282152
0.00280906
0.00279637
0.00278347
0.00277033
0.00275696
0.00274335
0.00272951
0.00271541
0.00270107
0.00268647
0.00267162
0.0026565
0.00264112
0.00262547
0.00260954
0.00259334
0.00257685
0.00256008
0.00254301
0.00252565
0.00250798
0.00249001
0.00247173
0.00245314
0.00243422
0.00241497
0.00239539
0.00237547
0.00235521
0.00233459
0.0023136
0.00229225
0.00227051
0.00224839
0.00222586
0.00220292
0.00217956
0.00215575
0.00213149
0.00210675
0.00208151
0.00205576
0.00202946
0.00200258
0.0019751
0.00194698
0.00191816
0.00188859
0.00185819
0.00182687
0.00179447
0.00176086
0.00172604
0.00168994
0.00165241
0.00161327
0.0015723
0.00152919
0.00148353
0.00143477
0.00138203
0.00132373
0.00125872
0.00118528
0.00110034
0.000998768
0.000871241
0.000699016
0.000439218
5.75544e-05
0.000101088
0.000924946
0.00164572
0.00218615
0.00261092
0.00296229
0.00326343
0.00352793
0.00376396
0.00397696
0.004171
0.00434903
0.00451327
0.00466545
0.00480696
0.00493892
0.00506227
0.00517778
0.00528614
0.00538792
0.00548362
0.00557369
0.00565853
0.00573849
0.00581388
0.005885
0.0059521
0.00601542
0.00607519
0.00613159
0.00618481
0.00623502
0.00628239
0.00632705
0.00636914
0.00640878
0.0064461
0.0064812
0.00651419
0.00654515
0.00657418
0.00660134
0.0066267
0.0066503
0.00667211
0.00669208
0.00671043
0.00672731
0.00674285
0.00675712
0.0067702
0.00678215
0.00679303
0.00680288
0.00681175
0.00681968
0.00682671
0.00683288
0.00683823
0.00684279
0.00684658
0.00684965
0.00685202
0.00685371
0.00685476
0.00685519
0.00685502
0.00685427
0.00685297
0.00685114
0.00684879
0.00684595
0.00684263
0.00683885
0.00683463
0.00682997
0.00682489
0.00681941
0.00681353
0.00680727
0.00680064
0.00679365
0.0067863
0.00677861
0.00677057
0.00676221
0.00675351
0.00674449
0.00673516
0.00672551
0.00671555
0.00670529
0.00669471
0.00668384
0.00667265
0.00666117
0.00664938
0.00663728
0.00662488
0.00661218
0.00659916
0.00658583
0.00657218
0.00655822
0.00654394
0.00652933
0.00651439
0.00649911
0.0064835
0.00646754
0.00645123
0.00643456
0.00641754
0.00640014
0.00638237
0.00636421
0.00634567
0.00632673
0.00630739
0.00628764
0.00626747
0.00624687
0.00622585
0.00620437
0.00618245
0.00616007
0.00613722
0.0061139
0.00609009
0.0060658
0.00604099
0.00601568
0.00598985
0.00596349
0.0059366
0.00590915
0.00588115
0.00585258
0.00582344
0.00579371
0.00576338
0.00573245
0.0057009
0.00566873
0.00563591
0.00560245
0.00556832
0.00553353
0.00549804
0.00546186
0.00542497
0.00538735
0.005349
0.00530989
0.00527001
0.00522934
0.00518787
0.00514558
0.00510244
0.00505843
0.00501354
0.00496773
0.00492099
0.00487327
0.00482455
0.0047748
0.00472397
0.00467202
0.00461891
0.00456458
0.00450898
0.00445204
0.00439368
0.00433383
0.00427239
0.00420925
0.00414428
0.00407732
0.0040082
0.00393667
0.00386248
0.00378536
0.00370505
0.00362123
0.00353344
0.00344113
0.00334361
0.00323998
0.00312908
0.00300936
0.00287866
0.00273397
0.00257133
0.00238624
0.00217116
0.00191458
0.0015982
0.00119238
0.000654033
7.14614e-05
0.000101088
0.000924952
0.00164573
0.00218616
0.00261093
0.0029623
0.00326344
0.00352795
0.00376398
0.00397697
0.00417102
0.00434904
0.00451328
0.00466547
0.00480697
0.00493894
0.00506228
0.0051778
0.00528615
0.00538793
0.00548363
0.0055737
0.00565854
0.0057385
0.00581389
0.00588501
0.00595211
0.00601543
0.00607519
0.00613159
0.00618482
0.00623503
0.00628239
0.00632705
0.00636914
0.00640879
0.00644611
0.00648121
0.00651419
0.00654516
0.00657418
0.00660135
0.00662671
0.0066503
0.00667212
0.00669208
0.00671043
0.00672732
0.00674285
0.00675712
0.0067702
0.00678216
0.00679303
0.00680288
0.00681175
0.00681968
0.00682671
0.00683289
0.00683823
0.00684279
0.00684658
0.00684965
0.00685202
0.00685371
0.00685476
0.00685519
0.00685502
0.00685427
0.00685297
0.00685114
0.0068488
0.00684596
0.00684264
0.00683886
0.00683463
0.00682997
0.00682489
0.00681941
0.00681354
0.00680728
0.00680065
0.00679365
0.0067863
0.00677861
0.00677057
0.00676221
0.00675351
0.0067445
0.00673516
0.00672552
0.00671556
0.00670529
0.00669472
0.00668384
0.00667266
0.00666117
0.00664938
0.00663729
0.00662489
0.00661218
0.00659916
0.00658583
0.00657219
0.00655822
0.00654394
0.00652933
0.00651439
0.00649911
0.0064835
0.00646754
0.00645123
0.00643457
0.00641754
0.00640014
0.00638237
0.00636422
0.00634567
0.00632674
0.00630739
0.00628764
0.00626747
0.00624688
0.00622585
0.00620437
0.00618245
0.00616007
0.00613722
0.0061139
0.0060901
0.0060658
0.006041
0.00601568
0.00598985
0.00596349
0.0059366
0.00590915
0.00588115
0.00585258
0.00582344
0.00579371
0.00576338
0.00573245
0.0057009
0.00566873
0.00563591
0.00560245
0.00556832
0.00553353
0.00549804
0.00546186
0.00542497
0.00538735
0.005349
0.00530989
0.00527001
0.00522934
0.00518787
0.00514558
0.00510244
0.00505843
0.00501354
0.00496773
0.00492099
0.00487327
0.00482455
0.0047748
0.00472397
0.00467202
0.00461891
0.00456458
0.00450898
0.00445204
0.00439368
0.00433384
0.00427239
0.00420925
0.00414428
0.00407732
0.0040082
0.00393667
0.00386248
0.00378536
0.00370505
0.00362123
0.00353344
0.00344113
0.00334361
0.00323998
0.00312908
0.00300936
0.00287866
0.00273397
0.00257133
0.00238624
0.00217116
0.00191458
0.0015982
0.00119238
0.000654041
7.14602e-05
0.000114413
0.0011195
0.0021074
0.00289254
0.00353284
0.00407251
0.00453933
0.00495113
0.00531961
0.00565289
0.00595683
0.0062358
0.00649313
0.00673146
0.00695289
0.00715916
0.0073517
0.00753175
0.00770036
0.00785846
0.00800684
0.00814624
0.0082773
0.0084006
0.00851666
0.00862597
0.00872897
0.00882605
0.00891758
0.00900391
0.00908534
0.00916216
0.00923464
0.00930303
0.00936756
0.00942844
0.00948586
0.00954
0.00959103
0.00963911
0.00968438
0.00972695
0.00976693
0.00980441
0.00983943
0.00987205
0.00990245
0.00993078
0.00995719
0.00998178
0.0100047
0.0100259
0.0100457
0.010064
0.0100808
0.0100964
0.0101106
0.0101237
0.0101355
0.0101462
0.0101559
0.0101644
0.010172
0.0101786
0.0101843
0.0101891
0.010193
0.010196
0.0101983
0.0101997
0.0102004
0.0102004
0.0101997
0.0101982
0.0101961
0.0101933
0.0101899
0.0101859
0.0101812
0.010176
0.0101702
0.0101638
0.0101569
0.0101494
0.0101414
0.0101328
0.0101237
0.0101141
0.010104
0.0100934
0.0100823
0.0100707
0.0100585
0.0100459
0.0100328
0.0100192
0.0100051
0.00999046
0.00997534
0.00995972
0.00994359
0.00992694
0.00990978
0.00989209
0.00987387
0.00985512
0.00983583
0.00981599
0.0097956
0.00977464
0.0097531
0.00973099
0.00970828
0.00968498
0.00966106
0.00963653
0.00961136
0.00958555
0.00955909
0.00953196
0.00950416
0.00947567
0.00944648
0.00941658
0.00938595
0.00935458
0.00932246
0.00928957
0.00925591
0.00922145
0.00918618
0.0091501
0.00911317
0.0090754
0.00903676
0.00899723
0.00895681
0.00891547
0.0088732
0.00882999
0.00878581
0.00874064
0.00869448
0.00864729
0.00859907
0.00854979
0.00849943
0.00844796
0.00839538
0.00834164
0.00828674
0.00823064
0.00817331
0.00811474
0.00805488
0.00799372
0.0079312
0.00786731
0.007802
0.00773524
0.00766697
0.00759715
0.00752574
0.00745267
0.00737789
0.00730133
0.00722293
0.00714259
0.00706025
0.00697579
0.00688912
0.00680012
0.00670865
0.00661455
0.00651766
0.00641778
0.00631467
0.00620806
0.00609765
0.00598305
0.00586386
0.00573958
0.00560969
0.00547353
0.0053303
0.00517898
0.00501833
0.00484676
0.00466229
0.00446235
0.00424354
0.00400142
0.00373011
0.00342235
0.00306769
0.00265138
0.00215254
0.00154279
0.000796204
8.14229e-05
0.000114413
0.00111951
0.00210741
0.00289256
0.00353286
0.00407253
0.00453936
0.00495115
0.00531963
0.00565291
0.00595685
0.00623582
0.00649315
0.00673148
0.00695291
0.00715918
0.00735172
0.00753177
0.00770038
0.00785847
0.00800686
0.00814626
0.00827731
0.00840061
0.00851668
0.00862599
0.00872898
0.00882606
0.00891759
0.00900392
0.00908535
0.00916217
0.00923465
0.00930304
0.00936757
0.00942844
0.00948586
0.00954001
0.00959104
0.00963912
0.00968438
0.00972695
0.00976694
0.00980441
0.00983944
0.00987205
0.00990245
0.00993078
0.00995719
0.00998179
0.0100047
0.010026
0.0100457
0.010064
0.0100808
0.0100964
0.0101106
0.0101237
0.0101355
0.0101462
0.0101559
0.0101644
0.010172
0.0101786
0.0101843
0.0101891
0.010193
0.010196
0.0101983
0.0101997
0.0102004
0.0102004
0.0101997
0.0101982
0.0101961
0.0101933
0.0101899
0.0101859
0.0101812
0.010176
0.0101702
0.0101638
0.0101569
0.0101494
0.0101414
0.0101328
0.0101237
0.0101141
0.010104
0.0100934
0.0100823
0.0100707
0.0100585
0.0100459
0.0100328
0.0100192
0.0100051
0.00999046
0.00997534
0.00995972
0.00994359
0.00992694
0.00990978
0.00989209
0.00987387
0.00985512
0.00983583
0.00981599
0.0097956
0.00977463
0.0097531
0.00973099
0.00970828
0.00968498
0.00966106
0.00963652
0.00961136
0.00958555
0.00955909
0.00953196
0.00950416
0.00947567
0.00944648
0.00941657
0.00938595
0.00935458
0.00932246
0.00928957
0.00925591
0.00922145
0.00918618
0.0091501
0.00911317
0.0090754
0.00903675
0.00899723
0.00895681
0.00891547
0.0088732
0.00882999
0.00878581
0.00874064
0.00869448
0.00864729
0.00859907
0.00854979
0.00849942
0.00844796
0.00839537
0.00834164
0.00828673
0.00823063
0.00817331
0.00811474
0.00805488
0.00799371
0.0079312
0.00786731
0.007802
0.00773523
0.00766697
0.00759715
0.00752573
0.00745267
0.00737789
0.00730133
0.00722292
0.00714259
0.00706025
0.00697579
0.00688912
0.00680012
0.00670865
0.00661455
0.00651766
0.00641777
0.00631466
0.00620806
0.00609764
0.00598305
0.00586385
0.00573958
0.00560969
0.00547353
0.0053303
0.00517898
0.00501833
0.00484676
0.00466229
0.00446234
0.00424354
0.00400142
0.00373011
0.00342235
0.00306769
0.00265138
0.00215254
0.00154279
0.000796205
8.14226e-05
0.000125254
0.00125159
0.00243807
0.00342139
0.00424353
0.00494666
0.00556035
0.00610481
0.00659403
0.00703795
0.00744386
0.00781725
0.00816232
0.00848242
0.00878022
0.00905794
0.00931744
0.00956028
0.00978783
0.0100013
0.0102017
0.01039
0.0105671
0.0107337
0.0108906
0.0110383
0.0111775
0.0113088
0.0114325
0.0115493
0.0116595
0.0117635
0.0118617
0.0119544
0.012042
0.0121248
0.012203
0.0122769
0.0123467
0.0124126
0.0124749
0.0125336
0.0125891
0.0126413
0.0126905
0.0127367
0.0127801
0.0128208
0.0128592
0.0128952
0.012929
0.0129607
0.0129905
0.0130184
0.0130445
0.0130689
0.0130916
0.0131128
0.0131325
0.0131508
0.0131676
0.0131831
0.0131973
0.0132103
0.0132221
0.0132327
0.0132422
0.0132506
0.013258
0.0132643
0.0132697
0.0132741
0.0132775
0.0132801
0.0132818
0.0132826
0.0132825
0.0132817
0.01328
0.0132775
0.0132743
0.0132703
0.0132655
0.01326
0.0132538
0.0132468
0.0132392
0.0132308
0.0132217
0.0132119
0.0132015
0.0131903
0.0131784
0.0131659
0.0131527
0.0131387
0.0131241
0.0131088
0.0130928
0.0130761
0.0130586
0.0130405
0.0130216
0.013002
0.0129817
0.0129606
0.0129387
0.0129161
0.0128927
0.0128686
0.0128436
0.0128178
0.0127912
0.0127638
0.0127355
0.0127063
0.0126763
0.0126454
0.0126136
0.0125808
0.0125471
0.0125125
0.0124768
0.0124402
0.0124026
0.012364
0.0123243
0.0122836
0.0122417
0.0121988
0.0121548
0.0121096
0.0120632
0.0120157
0.011967
0.011917
0.0118658
0.0118133
0.0117595
0.0117044
0.0116479
0.0115901
0.0115309
0.0114702
0.0114081
0.0113445
0.0112793
0.0112127
0.0111444
0.0110745
0.011003
0.0109297
0.0108548
0.010778
0.0106994
0.010619
0.0105366
0.0104523
0.0103659
0.0102774
0.0101868
0.0100939
0.00999873
0.00990115
0.0098011
0.00969846
0.00959313
0.009485
0.00937392
0.00925976
0.00914236
0.00902153
0.00889707
0.00876875
0.00863632
0.00849947
0.00835787
0.00821113
0.00805878
0.0079003
0.00773509
0.00756243
0.00738152
0.00719135
0.00699076
0.00677828
0.00655213
0.00631011
0.00604946
0.00576672
0.00545748
0.00511619
0.00473568
0.00430673
0.00381774
0.003253
0.0025924
0.00181263
0.0009045
8.93431e-05
0.000125254
0.00125159
0.00243809
0.00342141
0.00424355
0.00494669
0.00556038
0.00610484
0.00659405
0.00703798
0.00744389
0.00781727
0.00816235
0.00848244
0.00878025
0.00905797
0.00931746
0.0095603
0.00978785
0.0100013
0.0102017
0.0103901
0.0105671
0.0107338
0.0108906
0.0110384
0.0111776
0.0113088
0.0114326
0.0115493
0.0116595
0.0117635
0.0118617
0.0119544
0.012042
0.0121248
0.012203
0.0122769
0.0123467
0.0124126
0.0124749
0.0125337
0.0125891
0.0126413
0.0126905
0.0127367
0.0127801
0.0128208
0.0128592
0.0128952
0.012929
0.0129607
0.0129905
0.0130184
0.0130445
0.0130689
0.0130916
0.0131128
0.0131325
0.0131508
0.0131676
0.0131831
0.0131973
0.0132103
0.0132221
0.0132327
0.0132422
0.0132506
0.013258
0.0132643
0.0132697
0.0132741
0.0132775
0.0132801
0.0132818
0.0132826
0.0132825
0.0132817
0.01328
0.0132775
0.0132743
0.0132703
0.0132655
0.01326
0.0132538
0.0132468
0.0132392
0.0132308
0.0132217
0.0132119
0.0132015
0.0131903
0.0131784
0.0131659
0.0131527
0.0131387
0.0131241
0.0131088
0.0130928
0.0130761
0.0130586
0.0130405
0.0130216
0.013002
0.0129817
0.0129606
0.0129387
0.0129161
0.0128927
0.0128686
0.0128436
0.0128178
0.0127912
0.0127638
0.0127355
0.0127063
0.0126763
0.0126454
0.0126135
0.0125808
0.0125471
0.0125125
0.0124768
0.0124402
0.0124026
0.012364
0.0123243
0.0122836
0.0122417
0.0121988
0.0121548
0.0121096
0.0120632
0.0120157
0.011967
0.011917
0.0118658
0.0118133
0.0117595
0.0117044
0.0116479
0.0115901
0.0115309
0.0114702
0.0114081
0.0113445
0.0112793
0.0112127
0.0111444
0.0110745
0.011003
0.0109297
0.0108548
0.010778
0.0106994
0.010619
0.0105366
0.0104523
0.0103659
0.0102774
0.0101868
0.0100939
0.00999872
0.00990115
0.00980109
0.00969846
0.00959313
0.00948499
0.00937392
0.00925976
0.00914235
0.00902152
0.00889706
0.00876875
0.00863632
0.00849947
0.00835787
0.00821112
0.00805878
0.0079003
0.00773509
0.00756243
0.00738151
0.00719135
0.00699075
0.00677827
0.00655213
0.0063101
0.00604946
0.00576672
0.00545747
0.00511619
0.00473567
0.00430673
0.00381774
0.003253
0.0025924
0.00181263
0.000904499
8.93431e-05
0.000134429
0.001356
0.00269421
0.00383651
0.00480922
0.00565093
0.00639137
0.00705196
0.00764807
0.00819091
0.0086888
0.00914806
0.00957357
0.00996921
0.0103381
0.0106828
0.0110055
0.0113081
0.011592
0.0118588
0.0121096
0.0123456
0.0125678
0.0127771
0.0129743
0.0131602
0.0133355
0.013501
0.0136571
0.0138046
0.0139439
0.0140755
0.0141999
0.0143175
0.0144287
0.0145339
0.0146335
0.0147277
0.0148169
0.0149014
0.0149813
0.0150569
0.0151285
0.0151962
0.0152601
0.0153206
0.0153777
0.0154316
0.0154826
0.0155307
0.0155762
0.0156192
0.0156598
0.0156981
0.0157342
0.0157683
0.0158004
0.0158306
0.0158589
0.0158855
0.0159105
0.0159338
0.0159556
0.0159758
0.0159946
0.0160121
0.0160281
0.0160429
0.0160563
0.0160686
0.0160796
0.0160895
0.0160982
0.0161058
0.0161123
0.0161178
0.0161222
0.0161256
0.016128
0.0161295
0.01613
0.0161295
0.0161281
0.0161258
0.0161225
0.0161184
0.0161133
0.0161074
0.0161006
0.0160929
0.0160843
0.0160748
0.0160645
0.0160533
0.0160412
0.0160282
0.0160144
0.0159996
0.015984
0.0159675
0.01595
0.0159317
0.0159124
0.0158922
0.015871
0.0158489
0.0158258
0.0158018
0.0157767
0.0157506
0.0157236
0.0156954
0.0156663
0.015636
0.0156047
0.0155723
0.0155387
0.015504
0.0154681
0.0154311
0.0153929
0.0153534
0.0153127
0.0152707
0.0152275
0.0151829
0.015137
0.0150897
0.0150411
0.014991
0.0149395
0.0148865
0.0148321
0.0147761
0.0147186
0.0146595
0.0145988
0.0145364
0.0144724
0.0144067
0.0143393
0.01427
0.014199
0.0141261
0.0140513
0.0139746
0.013896
0.0138153
0.0137325
0.0136477
0.0135607
0.0134715
0.01338
0.0132862
0.01319
0.0130914
0.0129902
0.0128864
0.01278
0.0126708
0.0125588
0.0124438
0.0123258
0.0122046
0.0120801
0.0119523
0.0118208
0.0116856
0.0115465
0.0114034
0.0112559
0.0111038
0.0109469
0.0107848
0.0106173
0.0104439
0.0102641
0.0100775
0.00988344
0.00968121
0.00947004
0.00924898
0.00901696
0.00877267
0.00851457
0.00824079
0.00794908
0.00763667
0.00730021
0.00693551
0.00653743
0.00609955
0.00561387
0.00507034
0.0044569
0.00375821
0.00295623
0.00203316
0.000993386
9.60253e-05
0.000134429
0.00135601
0.00269423
0.00383653
0.00480924
0.00565096
0.0063914
0.00705198
0.00764809
0.00819094
0.00868883
0.00914809
0.0095736
0.00996924
0.0103381
0.0106829
0.0110056
0.0113081
0.0115921
0.0118588
0.0121096
0.0123456
0.0125678
0.0127771
0.0129743
0.0131602
0.0133355
0.013501
0.0136572
0.0138046
0.0139439
0.0140755
0.0141999
0.0143175
0.0144287
0.0145339
0.0146335
0.0147277
0.0148169
0.0149014
0.0149813
0.0150569
0.0151285
0.0151962
0.0152601
0.0153206
0.0153777
0.0154316
0.0154826
0.0155307
0.0155762
0.0156192
0.0156598
0.0156981
0.0157342
0.0157683
0.0158004
0.0158306
0.0158589
0.0158855
0.0159105
0.0159338
0.0159556
0.0159758
0.0159946
0.0160121
0.0160281
0.0160429
0.0160563
0.0160686
0.0160796
0.0160895
0.0160982
0.0161058
0.0161123
0.0161178
0.0161222
0.0161256
0.016128
0.0161295
0.01613
0.0161295
0.0161281
0.0161258
0.0161225
0.0161184
0.0161133
0.0161074
0.0161006
0.0160929
0.0160843
0.0160748
0.0160645
0.0160533
0.0160412
0.0160282
0.0160144
0.0159996
0.015984
0.0159675
0.01595
0.0159317
0.0159124
0.0158922
0.015871
0.0158489
0.0158258
0.0158018
0.0157767
0.0157506
0.0157236
0.0156954
0.0156663
0.015636
0.0156047
0.0155723
0.0155387
0.015504
0.0154681
0.0154311
0.0153929
0.0153534
0.0153127
0.0152707
0.0152275
0.0151829
0.015137
0.0150897
0.0150411
0.014991
0.0149395
0.0148865
0.0148321
0.0147761
0.0147186
0.0146595
0.0145988
0.0145364
0.0144724
0.0144067
0.0143393
0.01427
0.014199
0.0141261
0.0140513
0.0139746
0.013896
0.0138153
0.0137325
0.0136477
0.0135607
0.0134715
0.01338
0.0132862
0.01319
0.0130913
0.0129902
0.0128864
0.01278
0.0126708
0.0125588
0.0124438
0.0123258
0.0122046
0.0120801
0.0119523
0.0118208
0.0116856
0.0115465
0.0114034
0.0112558
0.0111038
0.0109469
0.0107848
0.0106173
0.0104439
0.0102641
0.0100775
0.00988343
0.00968121
0.00947003
0.00924898
0.00901696
0.00877267
0.00851456
0.00824079
0.00794907
0.00763667
0.0073002
0.00693551
0.00653743
0.00609955
0.00561387
0.00507034
0.0044569
0.00375821
0.00295623
0.00203316
0.000993385
9.60253e-05
0.000142542
0.00144527
0.00290531
0.00417678
0.00527427
0.00623287
0.00708177
0.00784292
0.00853254
0.0091627
0.00974246
0.0102787
0.010777
0.0112414
0.0116755
0.012082
0.0124635
0.012822
0.0131591
0.0134764
0.0137753
0.0140571
0.0143228
0.0145735
0.01481
0.0150334
0.0152444
0.0154437
0.0156321
0.0158102
0.0159786
0.016138
0.0162888
0.0164316
0.0165668
0.0166948
0.0168162
0.0169312
0.0170403
0.0171437
0.0172418
0.0173348
0.017423
0.0175067
0.017586
0.0176612
0.0177325
0.0178001
0.0178643
0.0179251
0.0179828
0.0180376
0.0180895
0.0181388
0.0181855
0.0182298
0.0182718
0.0183116
0.0183492
0.0183848
0.0184184
0.0184501
0.01848
0.0185082
0.0185346
0.0185594
0.0185827
0.0186044
0.0186246
0.0186434
0.0186608
0.0186768
0.0186914
0.0187048
0.0187169
0.0187278
0.0187374
0.0187458
0.0187531
0.0187592
0.0187641
0.018768
0.0187707
0.0187723
0.0187729
0.0187724
0.0187708
0.0187681
0.0187644
0.0187596
0.0187538
0.0187469
0.018739
0.01873
0.0187199
0.0187088
0.0186966
0.0186834
0.018669
0.0186536
0.0186371
0.0186195
0.0186007
0.0185808
0.0185598
0.0185376
0.0185142
0.0184897
0.0184639
0.018437
0.0184087
0.0183793
0.0183485
0.0183165
0.0182831
0.0182484
0.0182123
0.0181748
0.0181359
0.0180956
0.0180538
0.0180106
0.0179658
0.0179195
0.0178716
0.0178221
0.017771
0.0177182
0.0176638
0.0176076
0.0175497
0.0174899
0.0174284
0.017365
0.0172998
0.0172326
0.0171634
0.0170922
0.017019
0.0169437
0.0168662
0.0167866
0.0167048
0.0166207
0.0165343
0.0164455
0.0163543
0.0162606
0.0161643
0.0160655
0.015964
0.0158598
0.0157527
0.0156428
0.01553
0.0154141
0.015295
0.0151728
0.0150472
0.0149182
0.0147857
0.0146495
0.0145095
0.0143656
0.0142175
0.0140652
0.0139085
0.0137471
0.0135808
0.0134093
0.0132325
0.01305
0.0128614
0.0126664
0.0124645
0.0122552
0.012038
0.0118122
0.0115771
0.0113319
0.0110755
0.0108068
0.0105244
0.0102269
0.00991222
0.00957826
0.00922232
0.00884118
0.00843098
0.007987
0.00750356
0.0069737
0.00638898
0.00573916
0.00501195
0.00419313
0.00326697
0.00222078
0.0010696
0.00010187
0.000142542
0.00144527
0.00290532
0.0041768
0.00527429
0.0062329
0.0070818
0.00784295
0.00853258
0.00916274
0.00974249
0.0102788
0.010777
0.0112414
0.0116755
0.0120821
0.0124636
0.012822
0.0131591
0.0134764
0.0137753
0.0140571
0.0143228
0.0145735
0.0148101
0.0150334
0.0152444
0.0154437
0.0156321
0.0158102
0.0159787
0.016138
0.0162888
0.0164316
0.0165668
0.0166948
0.0168162
0.0169312
0.0170403
0.0171437
0.0172418
0.0173348
0.017423
0.0175067
0.017586
0.0176612
0.0177325
0.0178001
0.0178643
0.0179251
0.0179828
0.0180376
0.0180895
0.0181388
0.0181855
0.0182298
0.0182718
0.0183116
0.0183492
0.0183848
0.0184184
0.0184501
0.01848
0.0185082
0.0185346
0.0185594
0.0185827
0.0186044
0.0186246
0.0186434
0.0186608
0.0186768
0.0186914
0.0187048
0.0187169
0.0187278
0.0187374
0.0187458
0.0187531
0.0187592
0.0187641
0.018768
0.0187707
0.0187723
0.0187729
0.0187724
0.0187708
0.0187681
0.0187644
0.0187596
0.0187538
0.0187469
0.018739
0.01873
0.0187199
0.0187088
0.0186966
0.0186834
0.018669
0.0186536
0.0186371
0.0186195
0.0186007
0.0185808
0.0185598
0.0185376
0.0185142
0.0184897
0.0184639
0.018437
0.0184087
0.0183793
0.0183485
0.0183165
0.0182831
0.0182484
0.0182123
0.0181748
0.0181359
0.0180956
0.0180538
0.0180106
0.0179658
0.0179195
0.0178716
0.0178221
0.017771
0.0177182
0.0176638
0.0176076
0.0175497
0.0174899
0.0174284
0.017365
0.0172998
0.0172325
0.0171634
0.0170922
0.017019
0.0169437
0.0168662
0.0167866
0.0167048
0.0166207
0.0165343