/*--------------------------------*- C++ -*----------------------------------*\
  =========                 |
  \\      /  F ield         | OpenFOAM: The Open Source CFD Toolbox
   \\    /   O peration     | Website:  https://openfoam.org
    \\  /    A nd           | Version:  8
     \\/     M anipulation  |
\*---------------------------------------------------------------------------*/
FoamFile
{
    version     2.0;
    format      ascii;
    class       volScalarField;
    location    "2800";
    object      k;
}
// * * * * * * * * * * * * * * * * * * * * * * * * * * * * * * * * * * * * * //

dimensions      [0 2 -2 0 0 0 0];

internalField   nonuniform List<scalar> 
48000
(
0.0257967
0.0577805
0.0891056
0.116491
0.142082
0.165551
0.187308
0.207915
0.227926
0.247038
0.265505
0.283388
0.30074
0.3176
0.333998
0.349956
0.365488
0.380605
0.395312
0.409614
0.423511
0.437003
0.45009
0.462771
0.475043
0.486905
0.498357
0.509397
0.520025
0.530242
0.540049
0.549447
0.558439
0.567029
0.57522
0.583017
0.590425
0.597451
0.6041
0.61038
0.616298
0.62186
0.627075
0.63195
0.636496
0.640782
0.644765
0.648442
0.651822
0.654915
0.657731
0.660279
0.662569
0.664612
0.666415
0.667988
0.66934
0.670479
0.671415
0.672153
0.672704
0.673074
0.673271
0.673302
0.673173
0.672891
0.672463
0.671894
0.67119
0.670358
0.669401
0.668326
0.667137
0.665838
0.664435
0.66293
0.661329
0.659634
0.65785
0.655979
0.654026
0.651992
0.649881
0.647695
0.645436
0.643108
0.640713
0.638251
0.635726
0.633138
0.63049
0.627783
0.625019
0.622198
0.619322
0.616393
0.61341
0.610374
0.607287
0.60415
0.600962
0.597724
0.594438
0.591102
0.587717
0.584285
0.580804
0.577274
0.573697
0.570072
0.566398
0.562677
0.558907
0.555088
0.551221
0.547304
0.543339
0.539324
0.535259
0.531144
0.526979
0.522763
0.518495
0.514177
0.509806
0.505384
0.500909
0.496381
0.4918
0.487166
0.482479
0.477738
0.472943
0.468094
0.463191
0.458234
0.453223
0.448157
0.443038
0.437864
0.432637
0.427357
0.422023
0.416637
0.411198
0.405707
0.400165
0.394573
0.38893
0.383238
0.377498
0.37171
0.365875
0.359994
0.354068
0.348099
0.342087
0.336033
0.329939
0.323805
0.317633
0.311424
0.305179
0.298899
0.292585
0.286238
0.279859
0.27345
0.26701
0.26054
0.254041
0.247512
0.240955
0.234368
0.227751
0.221103
0.214423
0.207708
0.200957
0.194167
0.187335
0.180465
0.173567
0.166665
0.159689
0.152614
0.145429
0.138111
0.130633
0.122964
0.115058
0.10686
0.0983567
0.0894698
0.080006
0.0697531
0.0583695
0.0452589
0.0294
0.018315
0.0257966
0.0577823
0.0891071
0.116492
0.142083
0.165553
0.187309
0.207916
0.227927
0.247039
0.265506
0.28339
0.300741
0.317601
0.333999
0.349957
0.365489
0.380606
0.395313
0.409615
0.423512
0.437004
0.450091
0.462771
0.475044
0.486906
0.498358
0.509398
0.520026
0.530243
0.540049
0.549447
0.558439
0.567029
0.57522
0.583017
0.590426
0.597451
0.604101
0.61038
0.616298
0.62186
0.627075
0.63195
0.636497
0.640783
0.644765
0.648442
0.651822
0.654915
0.65773
0.660279
0.662569
0.664612
0.666415
0.667988
0.66934
0.670479
0.671414
0.672153
0.672704
0.673074
0.673271
0.673301
0.673173
0.672891
0.672463
0.671894
0.67119
0.670358
0.669401
0.668326
0.667137
0.665838
0.664435
0.66293
0.661329
0.659634
0.65785
0.655979
0.654026
0.651992
0.64988
0.647694
0.645436
0.643108
0.640712
0.638251
0.635725
0.633138
0.63049
0.627783
0.625019
0.622198
0.619322
0.616392
0.613409
0.610374
0.607287
0.60415
0.600962
0.597724
0.594437
0.591102
0.587717
0.584285
0.580803
0.577274
0.573697
0.570072
0.566398
0.562676
0.558906
0.555088
0.55122
0.547304
0.543339
0.539324
0.535259
0.531144
0.526979
0.522762
0.518495
0.514177
0.509806
0.505383
0.500909
0.496381
0.4918
0.487166
0.482479
0.477738
0.472943
0.468094
0.463191
0.458234
0.453222
0.448157
0.443037
0.437864
0.432637
0.427357
0.422023
0.416637
0.411198
0.405707
0.400165
0.394573
0.38893
0.383238
0.377498
0.37171
0.365875
0.359994
0.354068
0.348099
0.342087
0.336033
0.329939
0.323805
0.317633
0.311424
0.305179
0.298899
0.292585
0.286238
0.279859
0.27345
0.26701
0.26054
0.25404
0.247512
0.240955
0.234368
0.227751
0.221103
0.214423
0.207708
0.200957
0.194167
0.187335
0.180465
0.173567
0.166665
0.159689
0.152614
0.145429
0.138111
0.130633
0.122964
0.115058
0.10686
0.0983568
0.0894698
0.0800061
0.0697532
0.0583697
0.0452592
0.0294
0.0183157
0.0585836
0.148253
0.211768
0.267822
0.319246
0.367672
0.413416
0.457094
0.499127
0.539739
0.579121
0.617408
0.654696
0.691055
0.726535
0.761167
0.79497
0.827955
0.860125
0.891475
0.922001
0.951693
0.98054
1.00853
1.03566
1.06191
1.08728
1.11175
1.13533
1.158
1.17978
1.20065
1.22062
1.2397
1.25789
1.2752
1.29164
1.30723
1.32197
1.33589
1.34899
1.36129
1.37282
1.38359
1.39361
1.40291
1.41153
1.41947
1.42676
1.43342
1.43946
1.44492
1.44981
1.45415
1.45796
1.46127
1.46408
1.46644
1.46834
1.46981
1.47086
1.47152
1.4718
1.47172
1.47128
1.47051
1.46942
1.46802
1.46633
1.46435
1.46211
1.4596
1.45685
1.45386
1.45064
1.4472
1.44355
1.4397
1.43566
1.43142
1.42701
1.42243
1.41767
1.41276
1.40769
1.40247
1.3971
1.3916
1.38595
1.38017
1.37427
1.36823
1.36208
1.3558
1.34941
1.3429
1.33627
1.32954
1.32269
1.31574
1.30868
1.30152
1.29425
1.28687
1.2794
1.27182
1.26413
1.25635
1.24846
1.24047
1.23238
1.22419
1.21589
1.2075
1.19899
1.19039
1.18168
1.17286
1.16394
1.15492
1.14579
1.13655
1.1272
1.11774
1.10817
1.0985
1.08871
1.07881
1.0688
1.05867
1.04844
1.03809
1.02762
1.01705
1.00635
0.995548
0.984628
0.973594
0.962447
0.951187
0.939813
0.928328
0.916731
0.905024
0.893207
0.881282
0.869249
0.857111
0.844869
0.832524
0.820079
0.807535
0.794894
0.782158
0.76933
0.756412
0.743406
0.730315
0.717141
0.703887
0.690555
0.677148
0.663669
0.650119
0.636501
0.622817
0.60907
0.59526
0.581391
0.567462
0.553474
0.539429
0.525326
0.511164
0.496942
0.482657
0.468307
0.453887
0.439392
0.424814
0.410146
0.395378
0.380498
0.365489
0.350318
0.334955
0.319389
0.30357
0.287452
0.270973
0.254053
0.236588
0.218432
0.199449
0.179397
0.157931
0.134528
0.108284
0.0769607
0.0303939
0.0585857
0.148256
0.21177
0.267823
0.319247
0.367673
0.413417
0.457095
0.499128
0.53974
0.579122
0.617408
0.654696
0.691056
0.726535
0.761167
0.794971
0.827956
0.860125
0.891476
0.922001
0.951693
0.98054
1.00853
1.03566
1.06191
1.08728
1.11175
1.13533
1.158
1.17978
1.20065
1.22062
1.2397
1.25789
1.2752
1.29164
1.30723
1.32197
1.33588
1.34899
1.36129
1.37282
1.38358
1.39361
1.40291
1.41153
1.41947
1.42676
1.43341
1.43946
1.44492
1.4498
1.45414
1.45796
1.46126
1.46408
1.46643
1.46834
1.46981
1.47086
1.47152
1.4718
1.47171
1.47128
1.47051
1.46942
1.46802
1.46633
1.46435
1.46211
1.4596
1.45685
1.45386
1.45064
1.4472
1.44355
1.4397
1.43565
1.43142
1.42701
1.42242
1.41767
1.41276
1.40769
1.40247
1.3971
1.39159
1.38595
1.38017
1.37427
1.36823
1.36208
1.3558
1.34941
1.3429
1.33627
1.32954
1.32269
1.31574
1.30868
1.30152
1.29425
1.28687
1.27939
1.27181
1.26413
1.25635
1.24846
1.24047
1.23238
1.22419
1.21589
1.20749
1.19899
1.19039
1.18168
1.17286
1.16394
1.15492
1.14578
1.13654
1.1272
1.11774
1.10817
1.09849
1.08871
1.07881
1.0688
1.05867
1.04844
1.03809
1.02762
1.01704
1.00635
0.995547
0.984627
0.973593
0.962446
0.951186
0.939812
0.928327
0.91673
0.905023
0.893206
0.881281
0.869248
0.85711
0.844868
0.832523
0.820078
0.807534
0.794893
0.782157
0.769329
0.756411
0.743405
0.730314
0.71714
0.703886
0.690554
0.677148
0.663668
0.650118
0.6365
0.622816
0.609069
0.59526
0.58139
0.567461
0.553474
0.539428
0.525325
0.511163
0.496941
0.482657
0.468306
0.453886
0.439391
0.424813
0.410145
0.395377
0.380497
0.365489
0.350317
0.334954
0.319388
0.30357
0.287452
0.270973
0.254053
0.236588
0.218431
0.199449
0.179397
0.157931
0.134528
0.108284
0.076961
0.0303954
0.0885831
0.211547
0.291267
0.359328
0.421981
0.481247
0.537898
0.592407
0.645098
0.696194
0.745862
0.794229
0.841389
0.887412
0.932348
0.976228
1.01907
1.06089
1.10169
1.14146
1.18018
1.21786
1.25448
1.29001
1.32446
1.35779
1.39001
1.4211
1.45105
1.47986
1.50752
1.53404
1.55942
1.58365
1.60676
1.62874
1.64962
1.6694
1.6881
1.70575
1.72236
1.73795
1.75255
1.76618
1.77886
1.79062
1.8015
1.81152
1.8207
1.82907
1.83666
1.8435
1.84961
1.85501
1.85975
1.86383
1.86729
1.87015
1.87244
1.87417
1.87538
1.87607
1.87629
1.87603
1.87533
1.87421
1.87267
1.87074
1.86844
1.86578
1.86277
1.85943
1.85578
1.85183
1.84758
1.84306
1.83827
1.83322
1.82793
1.8224
1.81665
1.81067
1.80449
1.7981
1.79151
1.78473
1.77777
1.77064
1.76333
1.75585
1.74821
1.74041
1.73246
1.72436
1.71611
1.70771
1.69918
1.6905
1.68169
1.67274
1.66366
1.65445
1.6451
1.63563
1.62603
1.6163
1.60644
1.59645
1.58634
1.5761
1.56574
1.55525
1.54463
1.53388
1.523
1.512
1.50086
1.4896
1.4782
1.46667
1.45501
1.44322
1.43129
1.41923
1.40703
1.39469
1.38222
1.36961
1.35686
1.34397
1.33094
1.31777
1.30445
1.291
1.27741
1.26367
1.24979
1.23577
1.22161
1.20731
1.19287
1.17829
1.16358
1.14873
1.13374
1.11861
1.10336
1.08797
1.07246
1.05682
1.04105
1.02517
1.00916
0.99304
0.976804
0.960457
0.944003
0.927444
0.910783
0.894024
0.87717
0.860223
0.843188
0.826067
0.808863
0.791579
0.774218
0.756781
0.73927
0.721688
0.704034
0.686311
0.668517
0.650653
0.632715
0.614702
0.59661
0.578434
0.560166
0.5418
0.523324
0.504727
0.485992
0.467098
0.448018
0.428721
0.409171
0.389317
0.36912
0.348509
0.327398
0.305678
0.283206
0.259793
0.23521
0.209078
0.180783
0.149068
0.11017
0.0471229
0.0885846
0.211549
0.291268
0.359328
0.421982
0.481248
0.537898
0.592407
0.645098
0.696194
0.745862
0.794229
0.841389
0.887412
0.932347
0.976228
1.01907
1.06089
1.10169
1.14146
1.18018
1.21786
1.25448
1.29001
1.32446
1.35779
1.39001
1.4211
1.45105
1.47986
1.50752
1.53404
1.55941
1.58365
1.60675
1.62874
1.64961
1.6694
1.6881
1.70575
1.72236
1.73795
1.75255
1.76618
1.77886
1.79062
1.8015
1.81152
1.8207
1.82907
1.83666
1.8435
1.8496
1.85501
1.85974
1.86383
1.86729
1.87015
1.87243
1.87417
1.87537
1.87607
1.87628
1.87603
1.87533
1.8742
1.87267
1.87074
1.86844
1.86577
1.86277
1.85943
1.85578
1.85183
1.84758
1.84306
1.83827
1.83322
1.82793
1.8224
1.81664
1.81067
1.80448
1.79809
1.79151
1.78473
1.77777
1.77064
1.76333
1.75585
1.74821
1.74041
1.73246
1.72436
1.71611
1.70771
1.69918
1.6905
1.68169
1.67274
1.66366
1.65444
1.6451
1.63563
1.62602
1.61629
1.60644
1.59645
1.58634
1.5761
1.56574
1.55524
1.54462
1.53388
1.523
1.512
1.50086
1.4896
1.4782
1.46667
1.45501
1.44322
1.43129
1.41923
1.40703
1.39469
1.38222
1.36961
1.35686
1.34397
1.33094
1.31776
1.30445
1.291
1.2774
1.26367
1.24979
1.23577
1.22161
1.20731
1.19287
1.17829
1.16358
1.14872
1.13374
1.11861
1.10336
1.08797
1.07246
1.05682
1.04105
1.02517
1.00916
0.993039
0.976803
0.960456
0.944002
0.927443
0.910782
0.894023
0.877169
0.860222
0.843187
0.826066
0.808862
0.791578
0.774217
0.75678
0.739269
0.721687
0.704034
0.68631
0.668517
0.650652
0.632714
0.614701
0.596609
0.578433
0.560166
0.541799
0.523324
0.504726
0.485991
0.467098
0.448018
0.428721
0.40917
0.389316
0.36912
0.348509
0.327398
0.305678
0.283206
0.259793
0.235209
0.209078
0.180782
0.149068
0.11017
0.0471227
0.113939
0.265503
0.358255
0.435254
0.505806
0.572599
0.636673
0.698539
0.758499
0.816754
0.873448
0.928692
0.982571
1.03515
1.08647
1.13658
1.18549
1.23321
1.27974
1.3251
1.36925
1.41221
1.45394
1.49445
1.5337
1.5717
1.60842
1.64386
1.678
1.71085
1.74239
1.77263
1.80156
1.8292
1.85555
1.88062
1.90443
1.92698
1.94831
1.96843
1.98737
2.00514
2.02177
2.03729
2.05174
2.06513
2.0775
2.08889
2.09932
2.10882
2.11742
2.12515
2.13205
2.13815
2.14347
2.14804
2.1519
2.15506
2.15757
2.15944
2.16071
2.16139
2.16151
2.1611
2.16017
2.15876
2.15687
2.15453
2.15176
2.14858
2.14501
2.14105
2.13673
2.13207
2.12707
2.12176
2.11613
2.11022
2.10402
2.09755
2.09082
2.08384
2.07662
2.06916
2.06148
2.05358
2.04548
2.03717
2.02866
2.01997
2.01109
2.00202
1.99279
1.98338
1.9738
1.96406
1.95415
1.94409
1.93388
1.92351
1.91299
1.90231
1.8915
1.88053
1.86942
1.85816
1.84676
1.83522
1.82353
1.8117
1.79972
1.7876
1.77534
1.76293
1.75038
1.73768
1.72484
1.71185
1.69871
1.68542
1.67199
1.6584
1.64466
1.63077
1.61672
1.60252
1.58817
1.57366
1.55899
1.54417
1.52918
1.51404
1.49874
1.48328
1.46767
1.45189
1.43595
1.41986
1.4036
1.38719
1.37062
1.3539
1.33702
1.31999
1.3028
1.28547
1.26798
1.25035
1.23258
1.21466
1.1966
1.17841
1.16008
1.14163
1.12304
1.10433
1.0855
1.06656
1.04749
1.02832
1.00905
0.989667
0.970188
0.950613
0.930945
0.911188
0.891344
0.871416
0.851406
0.831316
0.811148
0.790901
0.770577
0.750173
0.72969
0.709123
0.68847
0.667724
0.64688
0.625928
0.604857
0.583655
0.562305
0.540785
0.51907
0.497128
0.474922
0.452408
0.429533
0.406228
0.38241
0.357977
0.332784
0.306636
0.279282
0.250302
0.218937
0.183497
0.138729
0.0612141
0.11394
0.265504
0.358256
0.435255
0.505806
0.572598
0.636672
0.698538
0.758499
0.816753
0.873447
0.928691
0.98257
1.03515
1.08647
1.13658
1.18549
1.23321
1.27974
1.32509
1.36925
1.41221
1.45394
1.49444
1.5337
1.5717
1.60842
1.64386
1.678
1.71085
1.74239
1.77262
1.80156
1.8292
1.85555
1.88062
1.90442
1.92698
1.94831
1.96843
1.98737
2.00514
2.02177
2.03729
2.05174
2.06513
2.0775
2.08889
2.09932
2.10882
2.11742
2.12515
2.13205
2.13815
2.14347
2.14804
2.1519
2.15506
2.15757
2.15944
2.16071
2.16139
2.16151
2.1611
2.16017
2.15875
2.15687
2.15453
2.15176
2.14858
2.145
2.14105
2.13673
2.13207
2.12707
2.12175
2.11613
2.11021
2.10402
2.09755
2.09082
2.08384
2.07661
2.06916
2.06148
2.05358
2.04548
2.03717
2.02866
2.01997
2.01109
2.00202
1.99279
1.98338
1.9738
1.96406
1.95415
1.94409
1.93388
1.92351
1.91298
1.90231
1.89149
1.88053
1.86942
1.85816
1.84676
1.83522
1.82353
1.8117
1.79972
1.7876
1.77534
1.76293
1.75038
1.73768
1.72484
1.71185
1.69871
1.68542
1.67198
1.6584
1.64466
1.63077
1.61672
1.60252
1.58817
1.57366
1.55899
1.54416
1.52918
1.51404
1.49874
1.48328
1.46766
1.45189
1.43595
1.41986
1.4036
1.38719
1.37062
1.3539
1.33702
1.31999
1.3028
1.28547
1.26798
1.25035
1.23258
1.21466
1.1966
1.17841
1.16008
1.14162
1.12304
1.10433
1.0855
1.06655
1.04749
1.02832
1.00905
0.989667
0.970187
0.950612
0.930945
0.911187
0.891343
0.871415
0.851406
0.831316
0.811147
0.7909
0.770576
0.750173
0.729689
0.709122
0.688469
0.667723
0.646879
0.625927
0.604857
0.583655
0.562304
0.540784
0.519069
0.497127
0.474922
0.452408
0.429533
0.406228
0.382409
0.357977
0.332784
0.306636
0.279282
0.250302
0.218937
0.183497
0.138729
0.061214
0.136704
0.314322
0.419597
0.505087
0.582659
0.655856
0.726051
0.79387
0.859647
0.923581
0.98581
1.04643
1.10553
1.16317
1.21938
1.27422
1.3277
1.37984
1.43065
1.48014
1.5283
1.57512
1.6206
1.66473
1.70748
1.74886
1.78885
1.82744
1.86463
1.9004
1.93475
1.96769
1.99921
2.02932
2.05803
2.08536
2.11131
2.1359
2.15915
2.18108
2.20172
2.2211
2.23923
2.25616
2.2719
2.2865
2.29998
2.31238
2.32373
2.33407
2.34342
2.35182
2.3593
2.3659
2.37165
2.37659
2.38073
2.38412
2.38678
2.38874
2.39004
2.3907
2.39074
2.39019
2.38907
2.38742
2.38525
2.38258
2.37944
2.37585
2.37182
2.36737
2.36252
2.35729
2.3517
2.34575
2.33947
2.33286
2.32594
2.31873
2.31122
2.30345
2.2954
2.2871
2.27855
2.26977
2.26075
2.25151
2.24205
2.23239
2.22252
2.21245
2.20219
2.19174
2.18111
2.1703
2.15931
2.14814
2.13681
2.12531
2.11364
2.10181
2.08982
2.07767
2.06535
2.05288
2.04026
2.02747
2.01453
2.00143
1.98817
1.97476
1.96119
1.94747
1.93358
1.91954
1.90534
1.89097
1.87645
1.86177
1.84692
1.83191
1.81673
1.80139
1.78588
1.7702
1.75435
1.73834
1.72215
1.7058
1.68927
1.67257
1.6557
1.63866
1.62144
1.60405
1.58649
1.56875
1.55084
1.53277
1.51452
1.4961
1.47752
1.45876
1.43985
1.42077
1.40153
1.38213
1.36257
1.34286
1.323
1.30299
1.28284
1.26254
1.24211
1.22154
1.20084
1.18001
1.15906
1.138
1.11681
1.09551
1.07411
1.0526
1.03099
1.00929
0.987486
0.965594
0.943612
0.921543
0.899389
0.877151
0.854827
0.832419
0.809924
0.787341
0.764664
0.74189
0.719012
0.696021
0.672906
0.649655
0.626251
0.602674
0.578899
0.554897
0.530633
0.506063
0.481134
0.455782
0.429924
0.403452
0.376218
0.348023
0.318566
0.287364
0.253477
0.214755
0.16457
0.0737541
0.136706
0.314324
0.419598
0.505087
0.582659
0.655856
0.72605
0.793869
0.859646
0.92358
0.985809
1.04643
1.10553
1.16317
1.21938
1.27422
1.3277
1.37984
1.43065
1.48014
1.5283
1.57512
1.6206
1.66473
1.70748
1.74886
1.78885
1.82744
1.86463
1.90039
1.93475
1.96768
1.99921
2.02932
2.05803
2.08536
2.1113
2.13589
2.15915
2.18108
2.20172
2.2211
2.23923
2.25616
2.2719
2.2865
2.29998
2.31238
2.32373
2.33406
2.34341
2.35182
2.3593
2.3659
2.37165
2.37658
2.38073
2.38412
2.38678
2.38874
2.39004
2.39069
2.39073
2.39019
2.38907
2.38742
2.38525
2.38258
2.37944
2.37585
2.37182
2.36737
2.36252
2.35729
2.3517
2.34575
2.33947
2.33286
2.32594
2.31873
2.31122
2.30344
2.2954
2.2871
2.27855
2.26977
2.26075
2.25151
2.24205
2.23239
2.22252
2.21245
2.20219
2.19174
2.18111
2.1703
2.15931
2.14814
2.13681
2.12531
2.11364
2.10181
2.08982
2.07767
2.06535
2.05288
2.04025
2.02747
2.01453
2.00143
1.98817
1.97476
1.96119
1.94747
1.93358
1.91954
1.90534
1.89097
1.87645
1.86176
1.84692
1.8319
1.81673
1.80139
1.78588
1.7702
1.75435
1.73834
1.72215
1.7058
1.68927
1.67257
1.6557
1.63865
1.62144
1.60405
1.58648
1.56875
1.55084
1.53277
1.51452
1.4961
1.47751
1.45876
1.43985
1.42077
1.40152
1.38212
1.36257
1.34286
1.323
1.30299
1.28283
1.26254
1.24211
1.22154
1.20084
1.18001
1.15906
1.13799
1.11681
1.09551
1.07411
1.0526
1.03099
1.00929
0.987485
0.965593
0.943611
0.921543
0.899389
0.87715
0.854827
0.832418
0.809924
0.78734
0.764664
0.74189
0.719011
0.69602
0.672906
0.649654
0.62625
0.602673
0.578899
0.554897
0.530633
0.506062
0.481134
0.455782
0.429924
0.403451
0.376217
0.348023
0.318566
0.287364
0.253477
0.214755
0.16457
0.0737541
0.157728
0.360454
0.477919
0.571799
0.656145
0.735322
0.811057
0.884134
0.954954
1.02374
1.09064
1.15575
1.21916
1.28092
1.34108
1.3997
1.45681
1.51242
1.56656
1.61923
1.67045
1.72022
1.76853
1.81538
1.86076
1.90467
1.94709
1.98803
2.02747
2.06541
2.10185
2.1368
2.17025
2.20221
2.23268
2.26169
2.28925
2.31536
2.34006
2.36337
2.38531
2.4059
2.42517
2.44317
2.4599
2.47542
2.48975
2.50293
2.515
2.52597
2.5359
2.54482
2.55276
2.55976
2.56584
2.57105
2.57542
2.57899
2.58177
2.58381
2.58513
2.58576
2.58573
2.58508
2.58381
2.58197
2.57957
2.57664
2.5732
2.56927
2.56488
2.56003
2.55476
2.54908
2.543
2.53654
2.52972
2.52255
2.51505
2.50722
2.49909
2.49066
2.48194
2.47295
2.46369
2.45418
2.44441
2.43441
2.42417
2.41371
2.40303
2.39213
2.38103
2.36972
2.35822
2.34652
2.33463
2.32256
2.3103
2.29787
2.28525
2.27246
2.25949
2.24635
2.23304
2.21957
2.20592
2.1921
2.17812
2.16396
2.14964
2.13516
2.1205
2.10568
2.09068
2.07552
2.06019
2.04468
2.02901
2.01316
1.99714
1.98094
1.96456
1.94801
1.93128
1.91438
1.89729
1.88002
1.86257
1.84494
1.82713
1.80913
1.79095
1.77258
1.75403
1.7353
1.71638
1.69728
1.678
1.65854
1.63889
1.61906
1.59906
1.57888
1.55852
1.53799
1.51728
1.49641
1.47537
1.45417
1.4328
1.41128
1.3896
1.36778
1.3458
1.32368
1.30142
1.27903
1.2565
1.23385
1.21107
1.18817
1.16516
1.14203
1.11879
1.09545
1.07201
1.04846
1.02483
1.00109
0.977266
0.953349
0.929341
0.905241
0.881048
0.856761
0.832375
0.807886
0.783288
0.758573
0.733731
0.70875
0.683613
0.658303
0.632795
0.607064
0.581073
0.554783
0.528142
0.501085
0.473528
0.44536
0.416425
0.386499
0.35523
0.322038
0.285802
0.243927
0.188538
0.0852629
0.157729
0.360455
0.47792
0.571799
0.656145
0.735322
0.811056
0.884134
0.954953
1.02374
1.09064
1.15575
1.21915
1.28092
1.34108
1.3997
1.45681
1.51242
1.56655
1.61923
1.67045
1.72022
1.76853
1.81538
1.86076
1.90466
1.94709
1.98802
2.02747
2.06541
2.10185
2.1368
2.17025
2.2022
2.23268
2.26169
2.28925
2.31536
2.34006
2.36337
2.3853
2.4059
2.42517
2.44316
2.4599
2.47542
2.48975
2.50293
2.51499
2.52597
2.5359
2.54482
2.55276
2.55975
2.56584
2.57105
2.57542
2.57898
2.58177
2.5838
2.58512
2.58576
2.58573
2.58508
2.58381
2.58197
2.57957
2.57664
2.5732
2.56927
2.56488
2.56003
2.55476
2.54907
2.543
2.53654
2.52972
2.52255
2.51505
2.50722
2.49909
2.49066
2.48194
2.47295
2.46369
2.45418
2.44441
2.43441
2.42417
2.41371
2.40303
2.39213
2.38103
2.36972
2.35822
2.34652
2.33463
2.32256
2.3103
2.29786
2.28525
2.27246
2.25949
2.24635
2.23304
2.21956
2.20592
2.1921
2.17812
2.16396
2.14964
2.13516
2.1205
2.10568
2.09068
2.07552
2.06019
2.04468
2.02901
2.01316
1.99713
1.98094
1.96456
1.94801
1.93128
1.91438
1.89729
1.88002
1.86257
1.84494
1.82713
1.80913
1.79095
1.77258
1.75403
1.7353
1.71638
1.69728
1.678
1.65854
1.63889
1.61906
1.59906
1.57887
1.55852
1.53798
1.51728
1.49641
1.47537
1.45417
1.4328
1.41128
1.3896
1.36778
1.3458
1.32368
1.30142
1.27903
1.2565
1.23385
1.21107
1.18817
1.16515
1.14203
1.11879
1.09545
1.07201
1.04846
1.02482
1.00109
0.977266
0.953349
0.92934
0.90524
0.881048
0.85676
0.832374
0.807886
0.783288
0.758573
0.733731
0.708749
0.683613
0.658302
0.632795
0.607063
0.581073
0.554783
0.528142
0.501085
0.473528
0.445359
0.416425
0.386499
0.35523
0.322038
0.285802
0.243927
0.188539
0.085263
0.177896
0.404723
0.534397
0.63669
0.727754
0.812735
0.893717
0.97166
1.04705
1.12016
1.19115
1.26014
1.32722
1.39246
1.45591
1.51763
1.57767
1.63605
1.69282
1.74799
1.80158
1.8536
1.90406
1.95297
2.00031
2.04611
2.09034
2.13301
2.17412
2.21367
2.25166
2.28808
2.32295
2.35628
2.38806
2.41832
2.44707
2.47433
2.50012
2.52445
2.54736
2.56887
2.58901
2.60782
2.62532
2.64154
2.65653
2.67031
2.68292
2.6944
2.70478
2.7141
2.7224
2.72971
2.73606
2.7415
2.74605
2.74975
2.75263
2.75473
2.75607
2.75669
2.75662
2.75588
2.7545
2.75251
2.74993
2.7468
2.74312
2.73892
2.73424
2.72907
2.72346
2.7174
2.71093
2.70406
2.69681
2.68918
2.6812
2.67288
2.66423
2.65527
2.646
2.63644
2.62659
2.61647
2.60609
2.59546
2.58457
2.57345
2.56209
2.5505
2.5387
2.52668
2.51445
2.50201
2.48937
2.47653
2.4635
2.45027
2.43686
2.42326
2.40947
2.3955
2.38135
2.36702
2.35251
2.33783
2.32296
2.30792
2.2927
2.2773
2.26172
2.24596
2.23003
2.21392
2.19762
2.18115
2.1645
2.14766
2.13063
2.11343
2.09604
2.07846
2.06069
2.04274
2.02459
2.00626
1.98773
1.96901
1.9501
1.931
1.9117
1.89221
1.87252
1.85265
1.83257
1.81231
1.79185
1.7712
1.75036
1.72933
1.70811
1.68671
1.66512
1.64334
1.62139
1.59926
1.57695
1.55447
1.53182
1.509
1.48601
1.46287
1.43957
1.41612
1.39252
1.36878
1.34489
1.32087
1.29671
1.27243
1.24802
1.22349
1.19885
1.17409
1.14922
1.12424
1.09916
1.07398
1.04869
1.02331
0.997827
0.972246
0.946565
0.920782
0.894895
0.868899
0.842789
0.816557
0.790194
0.763688
0.737026
0.71019
0.683157
0.655903
0.628393
0.600589
0.572438
0.543875
0.514812
0.48513
0.454659
0.423146
0.390189
0.355097
0.316564
0.271581
0.211131
0.0960302
0.177898
0.404725
0.534397
0.636689
0.727753
0.812735
0.893716
0.971659
1.04705
1.12016
1.19115
1.26014
1.32722
1.39245
1.45591
1.51763
1.57767
1.63605
1.69282
1.74799
1.80158
1.8536
1.90406
1.95297
2.00031
2.04611
2.09034
2.13301
2.17412
2.21367
2.25165
2.28808
2.32295
2.35628
2.38806
2.41832
2.44707
2.47433
2.50011
2.52445
2.54736
2.56887
2.58901
2.60782
2.62532
2.64154
2.65653
2.67031
2.68292
2.6944
2.70478
2.7141
2.7224
2.72971
2.73606
2.74149
2.74605
2.74975
2.75263
2.75473
2.75607
2.75669
2.75662
2.75588
2.7545
2.75251
2.74993
2.74679
2.74312
2.73892
2.73423
2.72907
2.72346
2.7174
2.71093
2.70406
2.6968
2.68918
2.6812
2.67288
2.66423
2.65527
2.646
2.63644
2.62659
2.61647
2.60609
2.59546
2.58457
2.57345
2.56209
2.5505
2.5387
2.52668
2.51444
2.50201
2.48937
2.47653
2.46349
2.45027
2.43686
2.42326
2.40947
2.3955
2.38135
2.36702
2.35251
2.33782
2.32296
2.30792
2.29269
2.2773
2.26172
2.24596
2.23003
2.21392
2.19762
2.18115
2.16449
2.14766
2.13063
2.11343
2.09604
2.07846
2.06069
2.04273
2.02459
2.00626
1.98773
1.96901
1.9501
1.931
1.9117
1.89221
1.87252
1.85265
1.83257
1.81231
1.79185
1.7712
1.75036
1.72933
1.70811
1.68671
1.66512
1.64334
1.62139
1.59926
1.57695
1.55447
1.53181
1.509
1.48601
1.46287
1.43957
1.41612
1.39252
1.36878
1.34489
1.32087
1.29671
1.27243
1.24802
1.22349
1.19885
1.17409
1.14922
1.12424
1.09916
1.07398
1.04869
1.02331
0.997826
0.972245
0.946564
0.920782
0.894895
0.868899
0.842789
0.816557
0.790194
0.763688
0.737026
0.710189
0.683157
0.655903
0.628393
0.600589
0.572438
0.543875
0.514812
0.48513
0.454659
0.423146
0.390189
0.355097
0.316564
0.271582
0.211131
0.0960303
0.198039
0.448081
0.589801
0.700495
0.798255
0.888951
0.975005
1.05756
1.1372
1.21425
1.28892
1.36134
1.43161
1.49982
1.56604
1.63034
1.69277
1.75339
1.81224
1.86936
1.92477
1.9785
2.03058
2.08101
2.1298
2.17697
2.22251
2.26643
2.30874
2.34943
2.38852
2.426
2.46189
2.49619
2.52891
2.56007
2.58968
2.61776
2.64433
2.66942
2.69304
2.71523
2.73601
2.75542
2.77348
2.79023
2.80571
2.81994
2.83297
2.84484
2.85556
2.8652
2.87377
2.88132
2.88788
2.8935
2.89819
2.90201
2.90497
2.90713
2.90849
2.90911
2.909
2.9082
2.90674
2.90464
2.90192
2.89862
2.89476
2.89036
2.88544
2.88003
2.87414
2.86779
2.86101
2.85381
2.8462
2.83821
2.82984
2.82112
2.81205
2.80265
2.79293
2.7829
2.77258
2.76197
2.75108
2.73992
2.7285
2.71682
2.7049
2.69274
2.68035
2.66773
2.65489
2.64184
2.62857
2.61509
2.6014
2.58751
2.57343
2.55914
2.54467
2.53
2.51513
2.50008
2.48484
2.46942
2.4538
2.438
2.42201
2.40584
2.38947
2.37293
2.35619
2.33926
2.32215
2.30485
2.28735
2.26967
2.25179
2.23372
2.21545
2.19699
2.17833
2.15948
2.14043
2.12117
2.10172
2.08207
2.06221
2.04216
2.0219
2.00144
1.98077
1.95991
1.93884
1.91757
1.8961
1.87442
1.85255
1.83048
1.80821
1.78575
1.76309
1.74024
1.7172
1.69398
1.67056
1.64697
1.6232
1.59925
1.57513
1.55084
1.52639
1.50177
1.477
1.45207
1.427
1.40178
1.37641
1.35091
1.32527
1.29951
1.27362
1.2476
1.22147
1.19522
1.16885
1.14237
1.11579
1.0891
1.06229
1.03538
1.00837
0.981241
0.954002
0.926648
0.899172
0.871569
0.84383
0.815945
0.7879
0.759679
0.731261
0.702621
0.673728
0.64454
0.615005
0.585055
0.554597
0.523499
0.491573
0.458534
0.423924
0.38695
0.346123
0.298054
0.232676
0.106299
0.198041
0.448083
0.589802
0.700494
0.798254
0.88895
0.975005
1.05756
1.1372
1.21425
1.28892
1.36134
1.43161
1.49982
1.56604
1.63034
1.69277
1.75339
1.81224
1.86936
1.92477
1.9785
2.03058
2.08101
2.1298
2.17696
2.22251
2.26643
2.30874
2.34943
2.38852
2.426
2.46189
2.49618
2.52891
2.56007
2.58968
2.61776
2.64433
2.66942
2.69304
2.71523
2.73601
2.75541
2.77348
2.79023
2.80571
2.81994
2.83297
2.84483
2.85556
2.8652
2.87377
2.88132
2.88788
2.8935
2.89819
2.90201
2.90497
2.90712
2.90849
2.90911
2.909
2.9082
2.90674
2.90464
2.90192
2.89862
2.89476
2.89036
2.88544
2.88003
2.87414
2.86779
2.86101
2.85381
2.8462
2.83821
2.82984
2.82112
2.81205
2.80265
2.79293
2.7829
2.77258
2.76196
2.75107
2.73991
2.72849
2.71682
2.7049
2.69274
2.68035
2.66773
2.65489
2.64184
2.62856
2.61508
2.6014
2.58751
2.57343
2.55914
2.54467
2.53
2.51513
2.50008
2.48484
2.46942
2.4538
2.438
2.42201
2.40584
2.38947
2.37292
2.35619
2.33926
2.32215
2.30485
2.28735
2.26967
2.25179
2.23372
2.21545
2.19699
2.17833
2.15948
2.14042
2.12117
2.10172
2.08207
2.06221
2.04216
2.0219
2.00144
1.98077
1.95991
1.93884
1.91757
1.8961
1.87442
1.85255
1.83048
1.80821
1.78575
1.76309
1.74024
1.7172
1.69398
1.67056
1.64697
1.6232
1.59925
1.57513
1.55084
1.52639
1.50177
1.477
1.45207
1.427
1.40177
1.37641
1.35091
1.32527
1.29951
1.27361
1.2476
1.22147
1.19522
1.16885
1.14237
1.11579
1.08909
1.06229
1.03538
1.00837
0.981241
0.954002
0.926648
0.899172
0.871569
0.84383
0.815945
0.7879
0.759679
0.731261
0.702621
0.673728
0.64454
0.615005
0.585055
0.554597
0.523499
0.491573
0.458534
0.423924
0.386951
0.346123
0.298054
0.232677
0.106299
0.217855
0.490912
0.644588
0.763672
0.868115
0.964464
1.05547
1.14245
1.22609
1.3068
1.38481
1.46028
1.53336
1.60413
1.6727
1.73914
1.80353
1.86594
1.92643
1.98504
2.04183
2.09683
2.15008
2.20159
2.2514
2.29951
2.34595
2.39072
2.43383
2.47529
2.51511
2.5533
2.58986
2.62481
2.65816
2.68992
2.72011
2.74874
2.77585
2.80145
2.82556
2.84822
2.86944
2.88927
2.90773
2.92486
2.94069
2.95525
2.96859
2.98073
2.99171
3.00157
3.01035
3.01809
3.02481
3.03056
3.03537
3.03927
3.04231
3.0445
3.04589
3.04651
3.04639
3.04555
3.04402
3.04184
3.03902
3.0356
3.0316
3.02704
3.02195
3.01634
3.01024
3.00367
2.99664
2.98918
2.9813
2.97301
2.96434
2.9553
2.94589
2.93614
2.92606
2.91566
2.90494
2.89393
2.88262
2.87103
2.85918
2.84705
2.83467
2.82204
2.80917
2.79605
2.78271
2.76914
2.75534
2.74133
2.7271
2.71265
2.698
2.68315
2.66809
2.65283
2.63737
2.62171
2.60585
2.5898
2.57355
2.5571
2.54046
2.52363
2.5066
2.48937
2.47195
2.45433
2.43652
2.4185
2.40029
2.38188
2.36327
2.34446
2.32544
2.30622
2.2868
2.26717
2.24734
2.22729
2.20704
2.18658
2.16592
2.14504
2.12395
2.10265
2.08114
2.05942
2.03748
2.01534
1.99299
1.97043
1.94766
1.92468
1.9015
1.87812
1.85453
1.83074
1.80676
1.78258
1.7582
1.73363
1.70888
1.68394
1.65882
1.63353
1.60805
1.58241
1.5566
1.53063
1.5045
1.47821
1.45177
1.42518
1.39845
1.37158
1.34457
1.31743
1.29016
1.26276
1.23524
1.2076
1.17983
1.15195
1.12395
1.09583
1.06759
1.03924
1.01076
0.982157
0.953427
0.924561
0.895553
0.866393
0.837068
0.807562
0.777857
0.747926
0.717739
0.687253
0.656414
0.625148
0.593355
0.560891
0.527546
0.493002
0.456744
0.417886
0.374749
0.323598
0.253367
0.116143
0.217857
0.490913
0.644588
0.763672
0.868115
0.964463
1.05547
1.14244
1.22609
1.3068
1.3848
1.46028
1.53336
1.60413
1.6727
1.73914
1.80353
1.86594
1.92643
1.98504
2.04183
2.09683
2.15007
2.20159
2.2514
2.29951
2.34595
2.39072
2.43383
2.47529
2.51511
2.5533
2.58986
2.62481
2.65815
2.68991
2.7201
2.74874
2.77585
2.80145
2.82556
2.84821
2.86944
2.88927
2.90773
2.92486
2.94069
2.95525
2.96859
2.98073
2.99171
3.00157
3.01035
3.01809
3.02481
3.03056
3.03537
3.03927
3.04231
3.0445
3.04589
3.04651
3.04638
3.04554
3.04402
3.04184
3.03902
3.0356
3.0316
3.02704
3.02195
3.01634
3.01024
3.00367
2.99664
2.98918
2.9813
2.97301
2.96434
2.95529
2.94589
2.93614
2.92606
2.91565
2.90494
2.89393
2.88262
2.87103
2.85918
2.84705
2.83467
2.82204
2.80917
2.79605
2.78271
2.76913
2.75534
2.74132
2.7271
2.71265
2.698
2.68315
2.66809
2.65283
2.63737
2.62171
2.60585
2.5898
2.57355
2.5571
2.54046
2.52363
2.5066
2.48937
2.47195
2.45433
2.43652
2.4185
2.40029
2.38188
2.36327
2.34446
2.32544
2.30622
2.2868
2.26717
2.24734
2.22729
2.20704
2.18658
2.16591
2.14504
2.12395
2.10265
2.08114
2.05942
2.03748
2.01534
1.99299
1.97043
1.94766
1.92468
1.9015
1.87812
1.85453
1.83074
1.80676
1.78257
1.7582
1.73363
1.70888
1.68394
1.65882
1.63353
1.60805
1.58241
1.5566
1.53063
1.5045
1.47821
1.45177
1.42518
1.39845
1.37158
1.34457
1.31743
1.29016
1.26276
1.23524
1.2076
1.17983
1.15195
1.12395
1.09583
1.06759
1.03924