/*--------------------------------*- C++ -*----------------------------------*\
  =========                 |
  \\      /  F ield         | OpenFOAM: The Open Source CFD Toolbox
   \\    /   O peration     | Website:  https://openfoam.org
    \\  /    A nd           | Version:  8
     \\/     M anipulation  |
\*---------------------------------------------------------------------------*/
FoamFile
{
    version     2.0;
    format      ascii;
    class       volVectorField;
    location    "2800";
    object      U;
}
// * * * * * * * * * * * * * * * * * * * * * * * * * * * * * * * * * * * * * //

dimensions      [0 1 -1 0 0 0 0];

internalField   nonuniform List<vector> 
48000
(
(-0.0167806 -1.25417e-06 0.0183347)
(-0.0332638 -4.37402e-07 0.0154998)
(-0.0454101 -2.96294e-07 0.00684707)
(-0.047481 -2.13774e-07 -0.000963045)
(-0.0424459 -1.79112e-07 -0.00648066)
(-0.0326053 -1.76554e-07 -0.0101157)
(-0.0195636 -1.78975e-07 -0.0124571)
(-0.00456497 -1.82775e-07 -0.0138778)
(0.011766 -1.80719e-07 -0.0145272)
(0.0284174 -1.64854e-07 -0.0146294)
(0.0452894 -1.45764e-07 -0.0144589)
(0.0619964 -1.28931e-07 -0.0141085)
(0.0783628 -1.14783e-07 -0.0136391)
(0.094251 -1.02504e-07 -0.0130913)
(0.109566 -9.36029e-08 -0.0124932)
(0.12424 -8.80365e-08 -0.0118647)
(0.138231 -8.29461e-08 -0.01122)
(0.151508 -7.66868e-08 -0.0105697)
(0.164058 -7.07854e-08 -0.00992171)
(0.175875 -6.6605e-08 -0.00928186)
(0.18696 -6.29918e-08 -0.00865468)
(0.197321 -5.75854e-08 -0.00804356)
(0.206973 -4.98413e-08 -0.0074511)
(0.215932 -4.14918e-08 -0.00687923)
(0.224219 -3.43835e-08 -0.00632937)
(0.231855 -2.88477e-08 -0.00580252)
(0.238866 -2.39952e-08 -0.00529933)
(0.245276 -1.93236e-08 -0.00482015)
(0.251113 -1.5562e-08 -0.0043651)
(0.256402 -1.40029e-08 -0.00393409)
(0.261173 -1.52346e-08 -0.00352683)
(0.265452 -1.83927e-08 -0.00314294)
(0.269265 -2.16975e-08 -0.00278186)
(0.272641 -2.37744e-08 -0.00244295)
(0.275604 -2.44159e-08 -0.00212549)
(0.278181 -2.45891e-08 -0.00182871)
(0.280395 -2.55219e-08 -0.00155175)
(0.28227 -2.7753e-08 -0.00129376)
(0.28383 -3.08197e-08 -0.00105384)
(0.285095 -3.36828e-08 -0.000831095)
(0.286087 -3.54208e-08 -0.000624617)
(0.286825 -3.59748e-08 -0.000433519)
(0.287327 -3.59843e-08 -0.000256935)
(0.287612 -3.64488e-08 -9.39905e-05)
(0.287696 -3.80136e-08 5.64515e-05)
(0.287594 -4.06539e-08 0.000195007)
(0.287321 -4.37968e-08 0.00032214)
(0.28689 -4.66484e-08 0.000438802)
(0.286315 -4.86549e-08 0.000545782)
(0.285606 -4.98047e-08 0.00064377)
(0.284776 -5.06118e-08 0.000733398)
(0.283835 -5.17178e-08 0.000815259)
(0.282791 -5.34767e-08 0.000889911)
(0.281654 -5.57782e-08 0.000957879)
(0.280433 -5.79579e-08 0.00101965)
(0.279134 -5.91057e-08 0.0010757)
(0.277766 -5.83538e-08 0.00112644)
(0.276334 -5.53041e-08 0.00117229)
(0.274844 -5.00767e-08 0.00121361)
(0.273303 -4.33569e-08 0.00125074)
(0.271715 -3.61897e-08 0.00128402)
(0.270086 -2.9626e-08 0.00131372)
(0.268419 -2.44842e-08 0.00134014)
(0.266719 -2.11643e-08 0.00136352)
(0.264989 -1.96128e-08 0.00138409)
(0.263234 -1.94168e-08 0.00140207)
(0.261456 -1.99783e-08 0.00141768)
(0.259658 -2.05913e-08 0.00143108)
(0.257843 -2.07912e-08 0.00144247)
(0.256014 -2.0281e-08 0.00145201)
(0.254173 -1.90551e-08 0.00145984)
(0.252321 -1.72885e-08 0.00146611)
(0.250462 -1.52935e-08 0.00147095)
(0.248596 -1.34089e-08 0.00147449)
(0.246726 -1.19241e-08 0.00147684)
(0.244852 -1.10179e-08 0.00147811)
(0.242977 -1.07457e-08 0.0014784)
(0.241102 -1.10351e-08 0.0014778)
(0.239226 -1.1728e-08 0.00147641)
(0.237353 -1.26456e-08 0.00147431)
(0.235482 -1.35498e-08 0.00147158)
(0.233614 -1.42979e-08 0.00146829)
(0.23175 -1.47928e-08 0.00146452)
(0.22989 -1.49585e-08 0.00146033)
(0.228036 -1.48823e-08 0.00145579)
(0.226187 -1.46025e-08 0.00145095)
(0.224344 -1.42903e-08 0.00144588)
(0.222507 -1.40828e-08 0.00144062)
(0.220676 -1.41209e-08 0.00143523)
(0.218852 -1.4534e-08 0.00142976)
(0.217034 -1.5402e-08 0.00142425)
(0.215223 -1.6786e-08 0.00141875)
(0.213419 -1.86496e-08 0.0014133)
(0.211621 -2.09568e-08 0.00140794)
(0.209829 -2.36219e-08 0.00140271)
(0.208044 -2.65192e-08 0.00139764)
(0.206265 -2.94926e-08 0.00139278)
(0.204491 -3.2409e-08 0.00138815)
(0.202723 -3.51045e-08 0.00138378)
(0.20096 -3.74859e-08 0.00137972)
(0.199202 -3.94143e-08 0.00137598)
(0.197448 -4.08591e-08 0.00137259)
(0.195697 -4.17481e-08 0.00136959)
(0.193951 -4.2106e-08 0.001367)
(0.192207 -4.19385e-08 0.00136485)
(0.190465 -4.13274e-08 0.00136315)
(0.188725 -4.03623e-08 0.00136194)
(0.186987 -3.91307e-08 0.00136124)
(0.185248 -3.77696e-08 0.00136107)
(0.18351 -3.63438e-08 0.00136145)
(0.18177 -3.49922e-08 0.00136241)
(0.180029 -3.37663e-08 0.00136397)
(0.178286 -3.2685e-08 0.00136614)
(0.176539 -3.17903e-08 0.00136896)
(0.174789 -3.10098e-08 0.00137244)
(0.173033 -3.0275e-08 0.00137661)
(0.171272 -2.94527e-08 0.00138148)
(0.169505 -2.8459e-08 0.00138708)
(0.16773 -2.71379e-08 0.00139343)
(0.165946 -2.5417e-08 0.00140054)
(0.164154 -2.32317e-08 0.00140845)
(0.162351 -2.05818e-08 0.00141716)
(0.160536 -1.75094e-08 0.00142669)
(0.15871 -1.41857e-08 0.00143708)
(0.15687 -1.07935e-08 0.00144832)
(0.155016 -7.45071e-09 0.00146045)
(0.153146 -4.35924e-09 0.00147348)
(0.15126 -1.57996e-09 0.00148742)
(0.149356 9.29002e-10 0.0015023)
(0.147433 3.25141e-09 0.00151811)
(0.14549 5.62331e-09 0.00153489)
(0.143526 8.29218e-09 0.00155265)
(0.14154 1.14788e-08 0.00157139)
(0.139531 1.52632e-08 0.00159114)
(0.137497 1.96073e-08 0.0016119)
(0.135437 2.42407e-08 0.00163368)
(0.13335 2.87294e-08 0.0016565)
(0.131235 3.25442e-08 0.00168034)
(0.12909 3.51598e-08 0.00170523)
(0.126915 3.63058e-08 0.00173116)
(0.124708 3.59745e-08 0.00175813)
(0.122468 3.44631e-08 0.00178613)
(0.120194 3.24262e-08 0.00181516)
(0.117885 3.05987e-08 0.00184522)
(0.115539 2.9605e-08 0.0018763)
(0.113156 2.96736e-08 0.00190837)
(0.110734 3.06482e-08 0.00194143)
(0.108273 3.19084e-08 0.00197546)
(0.105771 3.25823e-08 0.00201042)
(0.103227 3.20226e-08 0.00204628)
(0.100641 2.99934e-08 0.00208301)
(0.098012 2.68334e-08 0.00212056)
(0.0953387 2.33383e-08 0.00215888)
(0.0926207 2.03573e-08 0.00219793)
(0.0898573 1.84003e-08 0.00223763)
(0.0870481 1.7361e-08 0.00227792)
(0.0841927 1.64282e-08 0.00231872)
(0.0812908 1.47035e-08 0.00235994)
(0.0783423 1.17072e-08 0.00240146)
(0.0753471 7.79721e-09 0.00244319)
(0.0723054 4.11562e-09 0.00248498)
(0.0692176 1.85032e-09 0.00252671)
(0.0660842 1.44675e-09 0.0025682)
(0.0629059 1.93408e-09 0.00260928)
(0.0596839 1.56858e-09 0.00264973)
(0.0564194 -1.24877e-09 0.00268932)
(0.053114 -6.60554e-09 0.00272779)
(0.0497696 -1.27847e-08 0.00276484)
(0.0463887 -1.72201e-08 0.00280013)
(0.0429741 -1.83204e-08 0.00283327)
(0.039529 -1.70221e-08 0.00286383)
(0.0360572 -1.61236e-08 0.0028913)
(0.0325634 -1.79473e-08 0.0029151)
(0.0290526 -2.212e-08 0.00293455)
(0.025531 -2.56074e-08 0.00294888)
(0.0220055 -2.55579e-08 0.0029572)
(0.0184844 -2.24132e-08 0.00295847)
(0.0149768 -1.99232e-08 0.00295147)
(0.0114937 -2.12748e-08 0.00293474)
(0.00804781 -2.51963e-08 0.00290656)
(0.00465312 -2.68334e-08 0.00286473)
(0.00133173 -2.33307e-08 0.00280585)
(-0.00191091 -1.78864e-08 0.00271983)
(-0.00502528 -1.6135e-08 0.00260466)
(-0.00800092 -1.76427e-08 0.00246346)
(-0.010799 -1.59218e-08 0.00229292)
(-0.0133828 -8.93176e-09 0.00208671)
(-0.0157074 -4.28694e-09 0.00183681)
(-0.0177185 -7.61446e-09 0.00153488)
(-0.0193523 -1.17187e-08 0.00116976)
(-0.0205317 -8.22362e-09 0.000727948)
(-0.0211663 -3.45696e-09 0.000192956)
(-0.0211467 -2.14728e-09 -0.000451156)
(-0.0203515 8.28454e-09 -0.00121853)
(-0.0186541 2.11454e-08 -0.00211859)
(-0.015931 9.29726e-09 -0.00313448)
(-0.0121021 3.45697e-09 -0.00416927)
(-0.00746191 1.41172e-08 -0.00488274)
(-0.00176989 1.76045e-08 -0.00368128)
(0.000308286 6.62169e-08 0.000624897)
(-0.0167809 -1.25409e-06 0.0183347)
(-0.0332635 -4.37396e-07 0.0154999)
(-0.0454098 -2.96291e-07 0.00684705)
(-0.0474805 -2.13771e-07 -0.000963142)
(-0.0424455 -1.7911e-07 -0.00648078)
(-0.0326048 -1.76551e-07 -0.0101158)
(-0.0195631 -1.78973e-07 -0.0124572)
(-0.00456451 -1.82773e-07 -0.0138779)
(0.0117664 -1.80717e-07 -0.0145273)
(0.0284178 -1.64852e-07 -0.0146294)
(0.0452898 -1.45762e-07 -0.014459)
(0.0619967 -1.2893e-07 -0.0141086)
(0.0783631 -1.14782e-07 -0.0136391)
(0.0942512 -1.02504e-07 -0.0130913)
(0.109566 -9.36023e-08 -0.0124932)
(0.12424 -8.8036e-08 -0.0118647)
(0.138231 -8.29456e-08 -0.01122)
(0.151508 -7.66864e-08 -0.0105698)
(0.164058 -7.07851e-08 -0.00992173)
(0.175875 -6.66047e-08 -0.00928189)
(0.186959 -6.29916e-08 -0.0086547)
(0.197321 -5.75852e-08 -0.00804358)
(0.206973 -4.98411e-08 -0.00745111)
(0.215932 -4.14917e-08 -0.00687924)
(0.224219 -3.43834e-08 -0.00632938)
(0.231855 -2.88476e-08 -0.00580253)
(0.238866 -2.39952e-08 -0.00529934)
(0.245276 -1.93236e-08 -0.00482017)
(0.251112 -1.5562e-08 -0.00436512)
(0.256402 -1.40029e-08 -0.0039341)
(0.261173 -1.52345e-08 -0.00352685)
(0.265452 -1.83927e-08 -0.00314296)
(0.269265 -2.16974e-08 -0.00278188)
(0.272641 -2.37743e-08 -0.00244297)
(0.275604 -2.44158e-08 -0.00212551)
(0.27818 -2.45891e-08 -0.00182872)
(0.280395 -2.55218e-08 -0.00155176)
(0.28227 -2.77529e-08 -0.00129377)
(0.28383 -3.08197e-08 -0.00105385)
(0.285095 -3.36828e-08 -0.000831104)
(0.286087 -3.54208e-08 -0.000624624)
(0.286825 -3.59747e-08 -0.000433522)
(0.287327 -3.59842e-08 -0.000256935)
(0.287612 -3.64487e-08 -9.3989e-05)
(0.287696 -3.80135e-08 5.6455e-05)
(0.287594 -4.06538e-08 0.000195013)
(0.287321 -4.37967e-08 0.000322149)
(0.28689 -4.66484e-08 0.000438814)
(0.286314 -4.86548e-08 0.000545798)
(0.285606 -4.98046e-08 0.000643789)
(0.284776 -5.06117e-08 0.000733421)
(0.283835 -5.17177e-08 0.000815286)
(0.282791 -5.34767e-08 0.000889941)
(0.281654 -5.57781e-08 0.000957912)
(0.280433 -5.79578e-08 0.00101969)
(0.279134 -5.91057e-08 0.00107574)
(0.277766 -5.83537e-08 0.00112648)
(0.276334 -5.53041e-08 0.00117233)
(0.274844 -5.00767e-08 0.00121365)
(0.273303 -4.33568e-08 0.00125079)
(0.271715 -3.61897e-08 0.00128406)
(0.270086 -2.96259e-08 0.00131377)
(0.268419 -2.44842e-08 0.00134018)
(0.266719 -2.11643e-08 0.00136355)
(0.264989 -1.96128e-08 0.00138412)
(0.263234 -1.94167e-08 0.0014021)
(0.261456 -1.99783e-08 0.0014177)
(0.259658 -2.05913e-08 0.00143111)
(0.257843 -2.07911e-08 0.00144249)
(0.256014 -2.0281e-08 0.00145203)
(0.254172 -1.9055e-08 0.00145986)
(0.252321 -1.72885e-08 0.00146612)
(0.250462 -1.52935e-08 0.00147097)
(0.248596 -1.34089e-08 0.0014745)
(0.246726 -1.19241e-08 0.00147685)
(0.244852 -1.10179e-08 0.00147812)
(0.242977 -1.07457e-08 0.00147841)
(0.241102 -1.10351e-08 0.00147781)
(0.239226 -1.1728e-08 0.00147642)
(0.237353 -1.26455e-08 0.00147432)
(0.235482 -1.35498e-08 0.00147159)
(0.233614 -1.42979e-08 0.0014683)
(0.23175 -1.47928e-08 0.00146453)
(0.22989 -1.49584e-08 0.00146034)
(0.228036 -1.48823e-08 0.0014558)
(0.226187 -1.46025e-08 0.00145096)
(0.224344 -1.42903e-08 0.00144589)
(0.222507 -1.40828e-08 0.00144063)
(0.220676 -1.41209e-08 0.00143524)
(0.218852 -1.4534e-08 0.00142977)
(0.217034 -1.5402e-08 0.00142426)
(0.215223 -1.67859e-08 0.00141876)
(0.213419 -1.86496e-08 0.00141331)
(0.211621 -2.09568e-08 0.00140795)
(0.209829 -2.36218e-08 0.00140271)
(0.208044 -2.65191e-08 0.00139765)
(0.206265 -2.94926e-08 0.00139278)
(0.204491 -3.24089e-08 0.00138815)
(0.202723 -3.51045e-08 0.00138379)
(0.20096 -3.74859e-08 0.00137972)
(0.199202 -3.94142e-08 0.00137599)
(0.197448 -4.08591e-08 0.00137261)
(0.195697 -4.17481e-08 0.00136961)
(0.193951 -4.2106e-08 0.00136702)
(0.192207 -4.19384e-08 0.00136487)
(0.190465 -4.13274e-08 0.00136318)
(0.188725 -4.03622e-08 0.00136197)
(0.186986 -3.91306e-08 0.00136127)
(0.185248 -3.77695e-08 0.0013611)
(0.18351 -3.63437e-08 0.00136148)
(0.18177 -3.49922e-08 0.00136244)
(0.180029 -3.37662e-08 0.001364)
(0.178286 -3.2685e-08 0.00136618)
(0.176539 -3.17903e-08 0.001369)
(0.174789 -3.10098e-08 0.00137248)
(0.173033 -3.0275e-08 0.00137665)
(0.171272 -2.94526e-08 0.00138152)
(0.169505 -2.8459e-08 0.00138712)
(0.16773 -2.71379e-08 0.00139346)
(0.165946 -2.5417e-08 0.00140058)
(0.164154 -2.32316e-08 0.00140848)
(0.162351 -2.05818e-08 0.00141719)
(0.160536 -1.75094e-08 0.00142673)
(0.15871 -1.41857e-08 0.00143711)
(0.15687 -1.07934e-08 0.00144836)
(0.155016 -7.4507e-09 0.00146048)
(0.153146 -4.35923e-09 0.00147351)
(0.15126 -1.57996e-09 0.00148745)
(0.149356 9.29001e-10 0.00150232)
(0.147433 3.25141e-09 0.00151814)
(0.14549 5.62331e-09 0.00153491)
(0.143526 8.29217e-09 0.00155267)
(0.14154 1.14788e-08 0.00157141)
(0.139531 1.52632e-08 0.00159115)
(0.137497 1.96072e-08 0.00161191)
(0.135437 2.42406e-08 0.00163368)
(0.13335 2.87293e-08 0.00165649)
(0.131235 3.25442e-08 0.00168034)
(0.12909 3.51598e-08 0.00170522)
(0.126915 3.63057e-08 0.00173114)
(0.124708 3.59745e-08 0.0017581)
(0.122468 3.4463e-08 0.0017861)
(0.120194 3.24262e-08 0.00181514)
(0.117885 3.05987e-08 0.00184519)
(0.115539 2.9605e-08 0.00187627)
(0.113156 2.96735e-08 0.00190834)
(0.110734 3.06482e-08 0.0019414)
(0.108273 3.19084e-08 0.00197543)
(0.105771 3.25822e-08 0.00201038)
(0.103227 3.20226e-08 0.00204625)
(0.100641 2.99933e-08 0.00208297)
(0.098012 2.68333e-08 0.00212052)
(0.0953387 2.33383e-08 0.00215885)
(0.0926207 2.03572e-08 0.00219789)
(0.0898573 1.84003e-08 0.0022376)
(0.0870482 1.7361e-08 0.00227789)
(0.0841928 1.64282e-08 0.00231869)
(0.0812909 1.47035e-08 0.00235991)
(0.0783423 1.17072e-08 0.00240144)
(0.0753471 7.7972e-09 0.00244316)
(0.0723054 4.11562e-09 0.00248496)
(0.0692176 1.85032e-09 0.00252669)
(0.0660842 1.44675e-09 0.00256819)
(0.062906 1.93407e-09 0.00260927)
(0.059684 1.56858e-09 0.00264972)
(0.0564194 -1.24877e-09 0.00268932)
(0.053114 -6.60553e-09 0.00272779)
(0.0497697 -1.27847e-08 0.00276484)
(0.0463888 -1.72201e-08 0.00280013)
(0.0429741 -1.83204e-08 0.00283328)
(0.039529 -1.70221e-08 0.00286384)
(0.0360573 -1.61236e-08 0.00289132)
(0.0325634 -1.79473e-08 0.00291511)
(0.0290526 -2.212e-08 0.00293456)
(0.025531 -2.56074e-08 0.0029489)
(0.0220056 -2.55579e-08 0.00295723)
(0.0184844 -2.24131e-08 0.0029585)
(0.0149769 -1.99232e-08 0.0029515)
(0.0114938 -2.12748e-08 0.00293477)
(0.00804786 -2.51962e-08 0.00290659)
(0.00465317 -2.68333e-08 0.00286477)
(0.00133179 -2.33307e-08 0.00280589)
(-0.00191085 -1.78863e-08 0.00271987)
(-0.00502523 -1.6135e-08 0.00260469)
(-0.00800088 -1.76427e-08 0.0024635)
(-0.010799 -1.59218e-08 0.00229296)
(-0.0133828 -8.93174e-09 0.00208675)
(-0.0157073 -4.28693e-09 0.00183684)
(-0.0177185 -7.61445e-09 0.00153492)
(-0.0193523 -1.17186e-08 0.0011698)
(-0.0205316 -8.2236e-09 0.000727988)
(-0.0211663 -3.45696e-09 0.000192985)
(-0.0211467 -2.14727e-09 -0.000451135)
(-0.0203515 8.28452e-09 -0.00121853)
(-0.0186541 2.11453e-08 -0.00211861)
(-0.015931 9.29724e-09 -0.0031345)
(-0.0121021 3.45696e-09 -0.00416927)
(-0.00746196 1.41172e-08 -0.00488278)
(-0.00176991 1.76046e-08 -0.00368132)
(0.000308347 6.62135e-08 0.000624876)
(-0.0126405 -2.11176e-08 0.0375783)
(-0.0178064 5.67961e-08 0.0230404)
(-0.0171075 2.96699e-08 0.00842548)
(-0.0128187 1.8295e-08 -0.0040551)
(-0.00551972 1.19594e-08 -0.013338)
(0.00419534 9.90146e-09 -0.0197859)
(0.0157063 9.85572e-09 -0.0240354)
(0.0285 9.48732e-09 -0.0266925)
(0.0421534 9.40638e-09 -0.0281534)
(0.0562949 9.70524e-09 -0.028759)
(0.0706611 9.42253e-09 -0.0287966)
(0.0850177 8.95421e-09 -0.0284267)
(0.0991981 8.68578e-09 -0.0277689)
(0.113073 8.05185e-09 -0.0269056)
(0.126545 6.86871e-09 -0.0258965)
(0.139542 5.86071e-09 -0.024786)
(0.152011 5.55516e-09 -0.0236075)
(0.163915 5.5247e-09 -0.0223865)
(0.175229 5.11255e-09 -0.0211432)
(0.185936 4.40629e-09 -0.0198932)
(0.196031 4.07076e-09 -0.0186491)
(0.205513 4.47148e-09 -0.0174207)
(0.214386 5.26435e-09 -0.0162159)
(0.222658 5.84021e-09 -0.0150412)
(0.230344 5.98346e-09 -0.0139015)
(0.237457 5.943e-09 -0.0128005)
(0.244017 6.02105e-09 -0.0117413)
(0.250041 6.15145e-09 -0.0107258)
(0.25555 5.95632e-09 -0.00975558)
(0.260566 5.14821e-09 -0.00883141)
(0.265111 3.8542e-09 -0.00795364)
(0.269208 2.54924e-09 -0.00712215)
(0.272879 1.71353e-09 -0.0063365)
(0.276146 1.48985e-09 -0.00559592)
(0.279032 1.63072e-09 -0.00489938)
(0.281559 1.75112e-09 -0.00424564)
(0.283747 1.59454e-09 -0.00363331)
(0.285618 1.2219e-09 -0.00306087)
(0.287192 9.15889e-10 -0.00252667)
(0.288487 9.66809e-10 -0.00202903)
(0.289522 1.46556e-09 -0.00156621)
(0.290314 2.25272e-09 -0.00113645)
(0.290882 3.04892e-09 -0.000738)
(0.291239 3.62334e-09 -0.000369127)
(0.291402 3.89984e-09 -2.81206e-05)
(0.291384 4.00692e-09 0.000286703)
(0.291199 4.18348e-09 0.000577005)
(0.29086 4.58752e-09 0.000844359)
(0.290378 5.24951e-09 0.00109026)
(0.289764 6.03809e-09 0.00131614)
(0.28903 6.76861e-09 0.00152334)
(0.288184 7.29258e-09 0.00171315)
(0.287236 7.5786e-09 0.00188677)
(0.286195 7.74468e-09 0.00204535)
(0.285067 7.98882e-09 0.00218995)
(0.283861 8.51374e-09 0.00232158)
(0.282582 9.41987e-09 0.00244118)
(0.281239 1.0682e-08 0.00254963)
(0.279836 1.21344e-08 0.00264776)
(0.278379 1.3526e-08 0.00273632)
(0.276873 1.45987e-08 0.00281602)
(0.275323 1.51674e-08 0.00288754)
(0.273733 1.51545e-08 0.00295148)
(0.272107 1.46039e-08 0.00300841)
(0.270449 1.36597e-08 0.00305887)
(0.268763 1.25194e-08 0.00310336)
(0.267051 1.13729e-08 0.00314232)
(0.265317 1.03711e-08 0.0031762)
(0.263563 9.60302e-09 0.00320539)
(0.261793 9.07143e-09 0.00323026)
(0.260007 8.73971e-09 0.00325116)
(0.258209 8.52317e-09 0.00326842)
(0.256401 8.3328e-09 0.00328235)
(0.254583 8.10674e-09 0.00329321)
(0.252759 7.79645e-09 0.00330129)
(0.250929 7.40239e-09 0.00330682)
(0.249094 6.94171e-09 0.00331005)
(0.247257 6.45628e-09 0.0033112)
(0.245418 5.99607e-09 0.00331046)
(0.243578 5.60868e-09 0.00330804)
(0.241739 5.31552e-09 0.00330412)
(0.2399 5.12991e-09 0.00329888)
(0.238064 5.0471e-09 0.00329247)
(0.236229 5.03662e-09 0.00328505)
(0.234398 5.06898e-09 0.00327676)
(0.23257 5.09373e-09 0.00326775)
(0.230745 5.08563e-09 0.00325815)
(0.228925 4.99854e-09 0.00324807)
(0.227109 4.82292e-09 0.00323765)
(0.225298 4.55308e-09 0.00322698)
(0.223492 4.19853e-09 0.00321618)
(0.22169 3.77878e-09 0.00320535)
(0.219894 3.32857e-09 0.00319458)
(0.218102 2.88121e-09 0.00318397)
(0.216314 2.48097e-09 0.0031736)
(0.214532 2.16354e-09 0.00316356)
(0.212753 1.9608e-09 0.00315392)
(0.210979 1.89893e-09 0.00314477)
(0.209209 1.99364e-09 0.00313618)
(0.207443 2.24491e-09 0.00312821)
(0.20568 2.64324e-09 0.00312094)
(0.203919 3.17482e-09 0.00311442)
(0.202161 3.80968e-09 0.00310871)
(0.200406 4.52068e-09 0.00310389)
(0.198651 5.27593e-09 0.00309999)
(0.196898 6.03357e-09 0.00309709)
(0.195146 6.75885e-09 0.00309522)
(0.193393 7.42939e-09 0.00309445)
(0.19164 8.01142e-09 0.00309483)
(0.189885 8.49446e-09 0.0030964)
(0.188129 8.86471e-09 0.00309921)
(0.186369 9.12598e-09 0.00310332)
(0.184607 9.28779e-09 0.00310876)
(0.18284 9.36774e-09 0.00311559)
(0.181069 9.38677e-09 0.00312385)
(0.179292 9.3782e-09 0.00313358)
(0.177508 9.36297e-09 0.00314483)
(0.175717 9.37058e-09 0.00315764)
(0.173918 9.41627e-09 0.00317205)
(0.17211 9.50574e-09 0.00318811)
(0.170293 9.6428e-09 0.00320585)
(0.168464 9.80079e-09 0.00322531)
(0.166623 9.95737e-09 0.00324653)
(0.16477 1.00749e-08 0.00326954)
(0.162903 1.01135e-08 0.00329439)
(0.161022 1.00487e-08 0.00332109)
(0.159125 9.85504e-09 0.00334969)
(0.157211 9.53999e-09 0.00338022)
(0.155279 9.12786e-09 0.00341269)
(0.153329 8.65814e-09 0.00344714)
(0.151358 8.18033e-09 0.0034836)
(0.149367 7.73916e-09 0.00352207)
(0.147354 7.37081e-09 0.00356259)
(0.145317 7.07433e-09 0.00360517)
(0.143257 6.81115e-09 0.00364982)
(0.141171 6.50943e-09 0.00369654)
(0.139058 6.07921e-09 0.00374535)
(0.136919 5.43103e-09 0.00379624)
(0.13475 4.51443e-09 0.00384921)
(0.132553 3.33038e-09 0.00390424)
(0.130324 1.94503e-09 0.00396133)
(0.128064 5.03038e-10 0.00402045)
(0.125771 -8.39963e-10 0.00408157)
(0.123444 -1.93311e-09 0.00414466)
(0.121083 -2.69694e-09 0.00420967)
(0.118686 -3.15666e-09 0.00427656)
(0.116252 -3.43459e-09 0.00434525)
(0.113782 -3.70776e-09 0.00441569)
(0.111272 -4.1494e-09 0.00448779)
(0.108724 -4.84089e-09 0.00456146)
(0.106137 -5.73749e-09 0.00463659)
(0.103509 -6.6893e-09 0.00471307)
(0.10084 -7.47549e-09 0.00479076)
(0.0981297 -7.94569e-09 0.00486951)
(0.0953779 -8.09512e-09 0.00494917)
(0.0925843 -8.05229e-09 0.00502954)
(0.0897485 -8.058e-09 0.00511042)
(0.0868707 -8.28548e-09 0.00519159)
(0.083951 -8.72332e-09 0.00527278)
(0.0809895 -9.1621e-09 0.00535374)
(0.0779868 -9.29821e-09 0.00543413)
(0.0749435 -8.95556e-09 0.00551363)
(0.0718604 -8.22362e-09 0.00559185)
(0.0687386 -7.4793e-09 0.00566837)
(0.0655794 -7.15188e-09 0.00574272)
(0.0623844 -7.41839e-09 0.00581437)
(0.0591555 -8.0028e-09 0.00588273)
(0.0558949 -8.30643e-09 0.00594716)
(0.0526051 -7.86003e-09 0.00600691)
(0.0492894 -6.68074e-09 0.00606117)
(0.045951 -5.37391e-09 0.006109)
(0.0425941 -4.64006e-09 0.00614934)
(0.0392232 -4.62959e-09 0.00618101)
(0.0358436 -4.76951e-09 0.00620264)
(0.0324612 -4.22888e-09 0.00621267)
(0.0290829 -2.83543e-09 0.00620934)
(0.0257164 -1.34681e-09 0.0061906)
(0.0223705 -7.47168e-10 0.00615407)
(0.0190553 -1.07364e-09 0.00609697)
(0.0157823 -1.2107e-09 0.00601604)
(0.0125645 -1.57999e-10 0.00590717)
(0.0094174 1.61427e-09 0.00576575)
(0.00635669 2.62604e-09 0.00558364)
(0.00340287 2.49754e-09 0.005355)
(0.000576281 2.75358e-09 0.00507543)
(-0.00209751 4.47255e-09 0.00473609)
(-0.0045878 6.03446e-09 0.00432732)
(-0.00686409 5.33774e-09 0.00383702)
(-0.00888992 3.75964e-09 0.00325078)
(-0.0106253 4.26791e-09 0.00255109)
(-0.012026 5.43102e-09 0.0017183)
(-0.0130447 3.95952e-09 0.000731014)
(-0.0136338 2.72788e-09 -0.000429697)
(-0.0137443 4.19367e-09 -0.00177323)
(-0.0133391 2.40236e-09 -0.00329027)
(-0.0123995 1.29446e-10 -0.00491902)
(-0.0109395 4.82948e-09 -0.00646794)
(-0.00899072 3.38083e-09 -0.00748521)
(-0.00644906 8.41406e-09 -0.00673956)
(-0.00381797 1.07537e-07 -0.00240976)
(-0.0126405 -2.11175e-08 0.0375781)
(-0.0178063 5.67949e-08 0.0230403)
(-0.0171073 2.9669e-08 0.00842532)
(-0.0128185 1.82946e-08 -0.00405526)
(-0.00551948 1.19592e-08 -0.0133381)
(0.00419557 9.90127e-09 -0.019786)
(0.0157065 9.85554e-09 -0.0240355)
(0.0285002 9.48716e-09 -0.0266925)
(0.0421536 9.40624e-09 -0.0281534)
(0.056295 9.70511e-09 -0.0287591)
(0.0706612 9.42241e-09 -0.0287966)
(0.0850178 8.9541e-09 -0.0284268)
(0.0991982 8.68568e-09 -0.027769)
(0.113073 8.05176e-09 -0.0269056)
(0.126545 6.86864e-09 -0.0258965)
(0.139542 5.86065e-09 -0.024786)
(0.152011 5.55511e-09 -0.0236075)
(0.163915 5.52465e-09 -0.0223865)
(0.175228 5.11251e-09 -0.0211432)
(0.185936 4.40625e-09 -0.0198932)
(0.196031 4.07073e-09 -0.0186491)
(0.205513 4.47145e-09 -0.0174207)
(0.214385 5.26432e-09 -0.0162159)
(0.222658 5.84018e-09 -0.0150412)
(0.230344 5.98342e-09 -0.0139015)
(0.237457 5.94297e-09 -0.0128005)
(0.244016 6.02102e-09 -0.0117413)
(0.25004 6.15142e-09 -0.0107258)
(0.25555 5.95629e-09 -0.00975558)
(0.260566 5.14819e-09 -0.00883142)
(0.265111 3.85418e-09 -0.00795364)
(0.269208 2.54923e-09 -0.00712216)
(0.272879 1.71352e-09 -0.00633651)
(0.276146 1.48984e-09 -0.00559593)
(0.279032 1.63071e-09 -0.00489938)
(0.281559 1.75112e-09 -0.00424565)
(0.283747 1.59454e-09 -0.00363332)
(0.285618 1.2219e-09 -0.00306088)
(0.287192 9.15886e-10 -0.00252668)
(0.288487 9.66806e-10 -0.00202904)
(0.289522 1.46556e-09 -0.00156621)
(0.290314 2.25271e-09 -0.00113645)
(0.290881 3.04891e-09 -0.000738005)
(0.291239 3.62333e-09 -0.000369131)
(0.291401 3.89983e-09 -2.8125e-05)
(0.291384 4.00691e-09 0.000286699)
(0.291199 4.18347e-09 0.000577001)
(0.29086 4.58751e-09 0.000844356)
(0.290378 5.2495e-09 0.00109026)
(0.289764 6.03807e-09 0.00131614)
(0.28903 6.76859e-09 0.00152334)
(0.288184 7.29256e-09 0.00171315)
(0.287236 7.57858e-09 0.00188677)
(0.286194 7.74467e-09 0.00204535)
(0.285067 7.9888e-09 0.00218995)
(0.28386 8.51372e-09 0.00232158)
(0.282582 9.41985e-09 0.00244118)
(0.281239 1.0682e-08 0.00254963)
(0.279836 1.21344e-08 0.00264776)
(0.278379 1.3526e-08 0.00273632)
(0.276873 1.45987e-08 0.00281602)
(0.275323 1.51674e-08 0.00288754)
(0.273733 1.51545e-08 0.00295148)
(0.272107 1.46039e-08 0.00300841)
(0.270449 1.36597e-08 0.00305887)
(0.268763 1.25194e-08 0.00310335)
(0.267051 1.13729e-08 0.00314232)
(0.265317 1.03711e-08 0.0031762)
(0.263563 9.603e-09 0.00320538)
(0.261793 9.07141e-09 0.00323026)
(0.260007 8.7397e-09 0.00325116)
(0.258209 8.52315e-09 0.00326842)
(0.2564 8.33279e-09 0.00328234)
(0.254583 8.10673e-09 0.00329321)
(0.252759 7.79643e-09 0.00330128)
(0.250928 7.40238e-09 0.00330682)
(0.249094 6.94169e-09 0.00331005)
(0.247257 6.45627e-09 0.00331119)
(0.245418 5.99606e-09 0.00331046)
(0.243578 5.60867e-09 0.00330804)
(0.241739 5.31551e-09 0.00330412)
(0.2399 5.1299e-09 0.00329887)
(0.238063 5.04709e-09 0.00329246)
(0.236229 5.03662e-09 0.00328504)
(0.234398 5.06897e-09 0.00327676)
(0.232569 5.09372e-09 0.00326775)
(0.230745 5.08562e-09 0.00325815)
(0.228925 4.99853e-09 0.00324807)
(0.227109 4.82292e-09 0.00323764)
(0.225298 4.55307e-09 0.00322698)
(0.223492 4.19852e-09 0.00321618)
(0.22169 3.77877e-09 0.00320534)
(0.219893 3.32856e-09 0.00319457)
(0.218102 2.88121e-09 0.00318396)
(0.216314 2.48097e-09 0.00317359)
(0.214532 2.16354e-09 0.00316355)
(0.212753 1.9608e-09 0.00315392)
(0.210979 1.89893e-09 0.00314477)
(0.209209 1.99363e-09 0.00313618)
(0.207443 2.24491e-09 0.00312821)
(0.205679 2.64324e-09 0.00312094)
(0.203919 3.17482e-09 0.00311442)
(0.202161 3.80967e-09 0.00310871)
(0.200406 4.52067e-09 0.00310389)
(0.198651 5.27593e-09 0.0031)
(0.196898 6.03356e-09 0.00309709)
(0.195146 6.75884e-09 0.00309523)
(0.193393 7.42938e-09 0.00309446)
(0.19164 8.01141e-09 0.00309483)
(0.189885 8.49445e-09 0.0030964)
(0.188129 8.8647e-09 0.00309922)
(0.186369 9.12597e-09 0.00310332)
(0.184607 9.28777e-09 0.00310877)
(0.18284 9.36772e-09 0.00311559)
(0.181069 9.38675e-09 0.00312385)
(0.179292 9.37819e-09 0.00313358)
(0.177508 9.36296e-09 0.00314483)
(0.175717 9.37057e-09 0.00315764)
(0.173918 9.41625e-09 0.00317206)
(0.17211 9.50572e-09 0.00318811)
(0.170293 9.64278e-09 0.00320585)
(0.168464 9.80078e-09 0.00322531)
(0.166623 9.95735e-09 0.00324653)
(0.16477 1.00749e-08 0.00326955)
(0.162903 1.01134e-08 0.00329439)
(0.161022 1.00487e-08 0.00332109)
(0.159125 9.85502e-09 0.00334969)
(0.157211 9.53997e-09 0.00338022)
(0.155279 9.12784e-09 0.00341269)
(0.153329 8.65812e-09 0.00344714)
(0.151358 8.18031e-09 0.0034836)
(0.149367 7.73915e-09 0.00352207)
(0.147354 7.3708e-09 0.00356259)
(0.145317 7.07431e-09 0.00360517)
(0.143257 6.81114e-09 0.00364981)
(0.141171 6.50941e-09 0.00369654)
(0.139058 6.0792e-09 0.00374534)
(0.136919 5.43102e-09 0.00379623)
(0.13475 4.51443e-09 0.0038492)
(0.132553 3.33038e-09 0.00390424)
(0.130324 1.94502e-09 0.00396132)
(0.128064 5.03038e-10 0.00402044)
(0.125771 -8.39961e-10 0.00408156)
(0.123444 -1.93311e-09 0.00414465)
(0.121083 -2.69694e-09 0.00420966)
(0.118686 -3.15666e-09 0.00427654)
(0.116252 -3.43459e-09 0.00434524)
(0.113782 -3.70775e-09 0.00441568)
(0.111272 -4.14939e-09 0.00448778)
(0.108724 -4.84088e-09 0.00456145)
(0.106137 -5.73748e-09 0.00463658)
(0.103509 -6.68929e-09 0.00471306)
(0.10084 -7.47548e-09 0.00479075)
(0.0981297 -7.94567e-09 0.0048695)
(0.095378 -8.09511e-09 0.00494916)
(0.0925843 -8.05228e-09 0.00502953)
(0.0897486 -8.05799e-09 0.00511041)
(0.0868707 -8.28547e-09 0.00519158)
(0.083951 -8.7233e-09 0.00527278)
(0.0809895 -9.16208e-09 0.00535373)
(0.0779868 -9.29819e-09 0.00543413)
(0.0749435 -8.95554e-09 0.00551363)
(0.0718604 -8.2236e-09 0.00559185)
(0.0687387 -7.47929e-09 0.00566837)
(0.0655795 -7.15187e-09 0.00574271)
(0.0623844 -7.41837e-09 0.00581436)
(0.0591555 -8.00278e-09 0.00588273)
(0.0558949 -8.30641e-09 0.00594716)
(0.0526052 -7.86001e-09 0.00600691)
(0.0492894 -6.68072e-09 0.00606117)
(0.0459511 -5.37389e-09 0.006109)
(0.0425942 -4.64005e-09 0.00614935)
(0.0392233 -4.62958e-09 0.00618101)
(0.0358436 -4.7695e-09 0.00620264)
(0.0324613 -4.22887e-09 0.00621268)
(0.0290829 -2.83543e-09 0.00620935)
(0.0257164 -1.3468e-09 0.0061906)
(0.0223705 -7.47167e-10 0.00615407)
(0.0190553 -1.07364e-09 0.00609698)
(0.0157823 -1.2107e-09 0.00601605)
(0.0125645 -1.57999e-10 0.00590718)
(0.00941742 1.61426e-09 0.00576576)
(0.00635671 2.62603e-09 0.00558365)
(0.00340289 2.49754e-09 0.005355)
(0.000576301 2.75357e-09 0.00507544)
(-0.00209749 4.47254e-09 0.0047361)
(-0.00458778 6.03445e-09 0.00432733)
(-0.00686408 5.33773e-09 0.00383702)
(-0.00888991 3.75963e-09 0.00325079)
(-0.0106253 4.2679e-09 0.00255111)
(-0.012026 5.431e-09 0.00171831)
(-0.0130447 3.95951e-09 0.000731027)
(-0.0136338 2.72788e-09 -0.000429683)
(-0.0137443 4.19366e-09 -0.00177322)
(-0.0133391 2.40236e-09 -0.00329026)
(-0.0123995 1.29446e-10 -0.00491901)
(-0.0109395 4.82946e-09 -0.00646794)
(-0.00899072 3.3808e-09 -0.00748521)
(-0.00644903 8.41387e-09 -0.00673956)
(-0.00381796 1.07526e-07 -0.00240978)
(-0.00422336 -3.92628e-08 0.0489366)
(-0.00343737 5.1344e-08 0.0215916)
(0.00224008 2.84266e-08 0.00211136)
(0.00951249 1.76124e-08 -0.0126537)
(0.018074 1.36145e-08 -0.0236416)
(0.0277331 1.20054e-08 -0.031527)
(0.0383592 1.06889e-08 -0.0369503)
(0.0497692 1.03081e-08 -0.0404799)
(0.0617622 1.04376e-08 -0.0425594)
(0.074149 1.02172e-08 -0.0435484)
(0.0867463 9.58613e-09 -0.0437347)
(0.0993857 8.94172e-09 -0.0433243)
(0.11193 8.2345e-09 -0.0424715)
(0.124267 7.32692e-09 -0.0412911)
(0.136307 6.39459e-09 -0.0398699)
(0.147978 5.71688e-09 -0.0382745)
(0.159226 5.29759e-09 -0.0365565)
(0.170011 4.84023e-09 -0.0347565)
(0.180302 4.16347e-09 -0.0329066)
(0.19008 3.46625e-09 -0.0310328)
(0.199331 3.10313e-09 -0.0291559)
(0.208049 3.1431e-09 -0.0272925)
(0.216235 3.31419e-09 -0.0254564)
(0.223891 3.3387e-09 -0.0236584)
(0.231026 3.2221e-09 -0.0219074)
(0.237649 3.15523e-09 -0.0202102)
(0.243774 3.224e-09 -0.0185722)
(0.249415 3.28158e-09 -0.0169975)
(0.25459 3.09145e-09 -0.0154889)
(0.259316 2.58388e-09 -0.0140483)
(0.26361 1.93474e-09 -0.0126768)
(0.267493 1.43122e-09 -0.0113747)
(0.270983 1.25537e-09 -0.0101417)
(0.274101 1.36197e-09 -0.00897703)
(0.276864 1.55638e-09 -0.00787939)
(0.279293 1.65251e-09 -0.00684718)
(0.281407 1.60016e-09 -0.00587849)
(0.283223 1.5045e-09 -0.00497117)
(0.28476 1.52829e-09 -0.00412289)
(0.286034 1.77267e-09 -0.0033312)
(0.287063 2.21669e-09 -0.00259354)