/*--------------------------------*- C++ -*----------------------------------*\
  =========                 |
  \\      /  F ield         | OpenFOAM: The Open Source CFD Toolbox
   \\    /   O peration     | Website:  https://openfoam.org
    \\  /    A nd           | Version:  8
     \\/     M anipulation  |
\*---------------------------------------------------------------------------*/
FoamFile
{
    version     2.0;
    format      ascii;
    class       volScalarField;
    location    "3500";
    object      alphat;
}
// * * * * * * * * * * * * * * * * * * * * * * * * * * * * * * * * * * * * * //

dimensions      [1 -1 -1 0 0 0 0];

internalField   nonuniform List<scalar> 
48000
(
5.00413e-05
8.51659e-05
0.000108449
0.000123966
0.000136909
0.000147775
0.000157195
0.000165567
0.000173288
0.000180395
0.000186988
0.000193152
0.000198943
0.000204405
0.000209573
0.000214473
0.00021913
0.000223559
0.000227777
0.000231795
0.000235624
0.000239273
0.000242751
0.000246063
0.000249216
0.000252216
0.000255068
0.000257777
0.000260347
0.000262783
0.000265088
0.000267268
0.000269325
0.000271263
0.000273087
0.000274801
0.000276406
0.000277909
0.00027931
0.000280616
0.000281827
0.000282949
0.000283983
0.000284935
0.000285823
0.000286636
0.000287374
0.00028804
0.000288638
0.000289169
0.000289638
0.000290046
0.000290398
0.000290695
0.00029094
0.000291136
0.000291285
0.000291389
0.000291451
0.000291472
0.000291454
0.0002914
0.000291311
0.00029119
0.000291037
0.000290854
0.000290642
0.000290404
0.00029014
0.000289852
0.00028954
0.000289206
0.000288851
0.000288477
0.000288082
0.00028767
0.00028724
0.000286793
0.00028633
0.000285851
0.000285357
0.000284849
0.000284327
0.000283791
0.000283243
0.000282681
0.000282107
0.000281521
0.000280923
0.000280313
0.000279692
0.000279059
0.000278416
0.000277761
0.000277095
0.000276418
0.00027573
0.000275031
0.000274321
0.0002736
0.000272868
0.000272125
0.000271371
0.000270605
0.000269828
0.000269039
0.000268238
0.000267425
0.0002666
0.000265762
0.000264912
0.000264049
0.000263173
0.000262284
0.000261381
0.000260464
0.000259533
0.000258588
0.000257628
0.000256653
0.000255662
0.000254656
0.000253634
0.000252595
0.00025154
0.000250468
0.000249379
0.000248272
0.000247147
0.000246004
0.000244842
0.000243661
0.00024246
0.00024124
0.00024
0.000238739
0.000237458
0.000236155
0.000234831
0.000233485
0.000232117
0.000230727
0.000229313
0.000227877
0.000226417
0.000224933
0.000223424
0.000221892
0.000220334
0.000218751
0.000217142
0.000215508
0.000213847
0.000212159
0.000210444
0.000208702
0.000206931
0.000205133
0.000203305
0.000201448
0.000199561
0.000197644
0.000195696
0.000193716
0.000191703
0.000189658
0.000187578
0.000185463
0.000183312
0.000181124
0.000178897
0.000176631
0.000174322
0.00017197
0.000169571
0.000167125
0.000164627
0.000162075
0.000159465
0.000156793
0.000154058
0.000151262
0.000148408
0.000145465
0.000142421
0.000139262
0.000135972
0.000132533
0.000128918
0.000125096
0.000121023
0.000116646
0.000111942
0.000106768
0.000100961
9.42644e-05
8.62329e-05
7.60273e-05
6.31625e-05
0.000193119
0.000130123
8.84716e-05
0.000108621
0.000123984
0.000136912
0.000147776
0.000157196
0.000165567
0.000173288
0.000180395
0.000186988
0.000193152
0.000198943
0.000204405
0.000209573
0.000214474
0.00021913
0.000223559
0.000227777
0.000231795
0.000235624
0.000239274
0.000242751
0.000246063
0.000249216
0.000252216
0.000255068
0.000257777
0.000260347
0.000262783
0.000265088
0.000267268
0.000269325
0.000271263
0.000273087
0.000274801
0.000276406
0.000277909
0.000279311
0.000280616
0.000281828
0.000282949
0.000283983
0.000284935
0.000285823
0.000286636
0.000287374
0.00028804
0.000288638
0.000289169
0.000289638
0.000290046
0.000290398
0.000290695
0.00029094
0.000291136
0.000291285
0.000291389
0.000291451
0.000291472
0.000291454
0.0002914
0.000291311
0.00029119
0.000291036
0.000290853
0.000290642
0.000290404
0.00029014
0.000289852
0.00028954
0.000289206
0.000288851
0.000288477
0.000288082
0.00028767
0.00028724
0.000286793
0.00028633
0.000285851
0.000285357
0.000284849
0.000284327
0.000283791
0.000283243
0.000282681
0.000282107
0.000281521
0.000280923
0.000280313
0.000279692
0.000279059
0.000278416
0.000277761
0.000277095
0.000276418
0.00027573
0.000275031
0.000274321
0.0002736
0.000272868
0.000272125
0.000271371
0.000270605
0.000269828
0.000269039
0.000268238
0.000267425
0.0002666
0.000265762
0.000264912
0.000264049
0.000263173
0.000262284
0.000261381
0.000260464
0.000259533
0.000258588
0.000257628
0.000256653
0.000255662
0.000254656
0.000253634
0.000252595
0.00025154
0.000250468
0.000249379
0.000248272
0.000247147
0.000246004
0.000244842
0.000243661
0.00024246
0.00024124
0.00024
0.000238739
0.000237458
0.000236155
0.000234831
0.000233485
0.000232117
0.000230727
0.000229313
0.000227877
0.000226417
0.000224933
0.000223424
0.000221892
0.000220334
0.000218751
0.000217142
0.000215508
0.000213847
0.000212159
0.000210444
0.000208702
0.000206931
0.000205133
0.000203305
0.000201448
0.000199561
0.000197644
0.000195696
0.000193716
0.000191703
0.000189658
0.000187578
0.000185463
0.000183312
0.000181124
0.000178897
0.000176631
0.000174322
0.00017197
0.000169571
0.000167125
0.000164627
0.000162075
0.000159465
0.000156793
0.000154058
0.000151262
0.000148408
0.000145466
0.000142421
0.000139262
0.000135972
0.000132533
0.000128918
0.000125096
0.000121023
0.000116646
0.000111942
0.000106768
0.000100961
9.42642e-05
8.62322e-05
7.60261e-05
6.31677e-05
0.000193128
7.46734e-05
0.000562143
0.00089373
0.00112534
0.00129716
0.00143767
0.0015582
0.00166418
0.00175851
0.00184387
0.00192197
0.00199397
0.00206075
0.00212299
0.00218123
0.00223589
0.00228731
0.0023358
0.00238158
0.00242486
0.00246583
0.00250462
0.00254139
0.00257624
0.00260928
0.0026406
0.0026703
0.00269845
0.00272511
0.00275037
0.00277427
0.00279688
0.00281825
0.00283843
0.00285746
0.0028754
0.00289228
0.00290815
0.00292304
0.00293699
0.00295004
0.00296221
0.0029735
0.00298389
0.00299321
0.00300173
0.00300954
0.00301671
0.00302326
0.00302922
0.00303463
0.00303951
0.00304387
0.00304775
0.00305116
0.00305412
0.00305665
0.00305877
0.00306049
0.00306184
0.00306282
0.00306345
0.00306376
0.00306374
0.00306341
0.0030628
0.0030619
0.00306072
0.00305929
0.00305761
0.00305569
0.00305354
0.00305117
0.00304858
0.00304578
0.00304279
0.0030396
0.00303623
0.00303267
0.00302894
0.00302504
0.00302097
0.00301675
0.00301236
0.00300782
0.00300313
0.00299829
0.0029933
0.00298817
0.0029829
0.00297749
0.00297194
0.00296625
0.00296043
0.00295447
0.00294837
0.00294214
0.00293577
0.00292927
0.00292263
0.00291585
0.00290894
0.00290188
0.00289469
0.00288735
0.00287987
0.00287224
0.00286447
0.00285655
0.00284848
0.00284026
0.00283188
0.00282335
0.00281465
0.00280579
0.00279677
0.00278758
0.00277822
0.00276868
0.00275897
0.00274908
0.002739
0.00272874
0.00271829
0.00270764
0.0026968
0.00268576
0.00267452
0.00266307
0.00265142
0.00263954
0.00262746
0.00261515
0.00260261
0.00258986
0.00257686
0.00256364
0.00255018
0.00253647
0.00252252
0.00250833
0.00249387
0.00247917
0.0024642
0.00244897
0.00243347
0.00241771
0.00240166
0.00238534
0.00236874
0.00235185
0.00233467
0.00231719
0.00229941
0.00228133
0.00226294
0.00224424
0.00222521
0.00220586
0.00218617
0.00216614
0.00214577
0.00212505
0.00210395
0.00208249
0.00206064
0.0020384
0.00201574
0.00199267
0.00196916
0.00194518
0.00192074
0.00189579
0.00187031
0.00184428
0.00181766
0.00179041
0.00176248
0.00173381
0.00170433
0.00167392
0.00164243
0.00160973
0.00157579
0.00154053
0.0015038
0.00146537
0.00142499
0.00138229
0.00133678
0.00128773
0.00123396
0.00117328
0.00110481
0.00102564
0.000930948
0.000812016
0.000651233
0.000408598
5.49178e-05
7.70961e-05
0.000564343
0.000894222
0.00112544
0.00129719
0.00143769
0.00155821
0.00166419
0.00175853
0.00184389
0.00192199
0.00199398
0.00206076
0.00212301
0.00218124
0.0022359
0.00228733
0.00233581
0.00238159
0.00242487
0.00246584
0.00250464
0.0025414
0.00257625
0.00260929
0.00264061
0.00267031
0.00269846
0.00272512
0.00275038
0.00277428
0.00279689
0.00281826
0.00283843
0.00285747
0.0028754
0.00289229
0.00290815
0.00292305
0.002937
0.00295005
0.00296221
0.00297351
0.00298389
0.00299321
0.00300174
0.00300955
0.00301671
0.00302326
0.00302923
0.00303464
0.00303951
0.00304388
0.00304775
0.00305116
0.00305412
0.00305665
0.00305877
0.0030605
0.00306184
0.00306283
0.00306346
0.00306376
0.00306374
0.00306342
0.0030628
0.0030619
0.00306073
0.0030593
0.00305762
0.0030557
0.00305355
0.00305117
0.00304858
0.00304579
0.00304279
0.00303961
0.00303623
0.00303268
0.00302895
0.00302505
0.00302098
0.00301675
0.00301236
0.00300782
0.00300313
0.00299829
0.00299331
0.00298818
0.00298291
0.0029775
0.00297195
0.00296626
0.00296044
0.00295448
0.00294838
0.00294215
0.00293578
0.00292928
0.00292263
0.00291586
0.00290894
0.00290189
0.00289469
0.00288735
0.00287987
0.00287225
0.00286448
0.00285656
0.00284849
0.00284026
0.00283189
0.00282335
0.00281466
0.0028058
0.00279677
0.00278758
0.00277822
0.00276869
0.00275897
0.00274908
0.002739
0.00272874
0.00271829
0.00270765
0.00269681
0.00268577
0.00267453
0.00266308
0.00265142
0.00263955
0.00262746
0.00261515
0.00260262
0.00258986
0.00257687
0.00256364
0.00255018
0.00253648
0.00252253
0.00250833
0.00249388
0.00247917
0.00246421
0.00244898
0.00243348
0.00241771
0.00240167
0.00238535
0.00236874
0.00235185
0.00233467
0.0023172
0.00229942
0.00228134
0.00226295
0.00224424
0.00222521
0.00220586
0.00218617
0.00216615
0.00214578
0.00212505
0.00210396
0.00208249
0.00206065
0.0020384
0.00201575
0.00199267
0.00196916
0.00194519
0.00192074
0.00189579
0.00187032
0.00184429
0.00181767
0.00179041
0.00176248
0.00173381
0.00170433
0.00167392
0.00164244
0.00160973
0.00157579
0.00154054
0.0015038
0.00146538
0.001425
0.0013823
0.00133678
0.00128773
0.00123396
0.00117329
0.00110481
0.00102564
0.000930948
0.000812016
0.000651239
0.000408593
5.4909e-05
9.35464e-05
0.000855033
0.00152118
0.00201977
0.00241186
0.00273676
0.00301562
0.00326062
0.00347919
0.00367652
0.00385631
0.00402127
0.00417345
0.00431448
0.00444562
0.00456795
0.00468232
0.00478948
0.00489005
0.00498459
0.00507357
0.0051574
0.00523645
0.00531106
0.00538153
0.00544811
0.00551104
0.00557056
0.00562685
0.0056801
0.00573048
0.00577814
0.00582322
0.00586585
0.00590615
0.00594424
0.00598021
0.00601416
0.00604619
0.00607637
0.00610477
0.00613145
0.00615644
0.00617974
0.00620129
0.00622132
0.00623996
0.0062573
0.00627342
0.00628838
0.00630224
0.00631506
0.00632687
0.00633771
0.00634763
0.00635666
0.00636484
0.0063722
0.00637877
0.00638458
0.00638966
0.00639404
0.00639774
0.00640079
0.00640322
0.00640503
0.00640627
0.00640693
0.00640706
0.00640665
0.00640574
0.00640434
0.00640245
0.00640011
0.00639732
0.00639409
0.00639044
0.00638637
0.0063819
0.00637705
0.00637181
0.00636619
0.00636021
0.00635386
0.00634717
0.00634012
0.00633274
0.00632501
0.00631695
0.00630856
0.00629984
0.0062908
0.00628143
0.00627174
0.00626173
0.00625139
0.00624074
0.00622977
0.00621847
0.00620685
0.00619491
0.00618263
0.00617004
0.00615711
0.00614384
0.00613024
0.0061163
0.00610202
0.00608739
0.00607241
0.00605706
0.00604136
0.0060253
0.00600886
0.00599204
0.00597484
0.00595726
0.00593927
0.00592089
0.00590211
0.00588291
0.00586329
0.00584324
0.00582276
0.00580184
0.00578047
0.00575865
0.00573636
0.00571361
0.00569038
0.00566666
0.00564245
0.00561774
0.00559252
0.00556679
0.00554053
0.00551373
0.0054864
0.00545851
0.00543006
0.00540105
0.00537146
0.00534129
0.00531052
0.00527914
0.00524715
0.00521454
0.00518129
0.0051474
0.00511285
0.00507763
0.00504173
0.00500514
0.00496784
0.00492983
0.00489107
0.00485157
0.00481131
0.00477025
0.0047284
0.00468572
0.00464219
0.0045978
0.0045525
0.00450629
0.00445911
0.00441095
0.00436176
0.00431149
0.00426011
0.00420756
0.00415378
0.00409871
0.00404226
0.00398436
0.0039249
0.00386377
0.00380084
0.00373594
0.00366887
0.0035994
0.00352724
0.00345209
0.00337367
0.00329161
0.00320538
0.00311434
0.0030177
0.00291439
0.00280297
0.00268149
0.00254719
0.00239609
0.00222389
0.00202366
0.00178464
0.00148973
0.00111124
0.000608982
6.67861e-05
9.37107e-05
0.000855474
0.00152138
0.00201985
0.0024119
0.0027368
0.00301566
0.00326066
0.00347922
0.00367655
0.00385634
0.0040213
0.00417348
0.0043145
0.00444565
0.00456797
0.00468234
0.0047895
0.00489008
0.00498461
0.00507359
0.00515742
0.00523647
0.00531108
0.00538154
0.00544812
0.00551106
0.00557057
0.00562687
0.00568012
0.0057305
0.00577815
0.00582323
0.00586586
0.00590616
0.00594425
0.00598022
0.00601417
0.0060462
0.00607638
0.00610477
0.00613145
0.00615645
0.00617974
0.0062013
0.00622133
0.00623997
0.0062573
0.00627342
0.00628839
0.00630225
0.00631506
0.00632687
0.00633772
0.00634763
0.00635667
0.00636484
0.0063722
0.00637877
0.00638458
0.00638967
0.00639405
0.00639775
0.0064008
0.00640322
0.00640504
0.00640627
0.00640694
0.00640706
0.00640666
0.00640574
0.00640434
0.00640246
0.00640011
0.00639732
0.00639409
0.00639044
0.00638637
0.00638191
0.00637705
0.00637181
0.00636619
0.00636021
0.00635387
0.00634717
0.00634013
0.00633274
0.00632501
0.00631695
0.00630856
0.00629984
0.0062908
0.00628143
0.00627174
0.00626173
0.0062514
0.00624074
0.00622977
0.00621847
0.00620685
0.00619491
0.00618264
0.00617004
0.00615711
0.00614385
0.00613025
0.00611631
0.00610202
0.00608739
0.00607241
0.00605707
0.00604136
0.0060253
0.00600886
0.00599204
0.00597484
0.00595726
0.00593928
0.0059209
0.00590211
0.00588291
0.00586329
0.00584324
0.00582276
0.00580184
0.00578047
0.00575865
0.00573636
0.00571361
0.00569038
0.00566666
0.00564245
0.00561774
0.00559252
0.00556679
0.00554053
0.00551373
0.0054864
0.00545851
0.00543007
0.00540105
0.00537146
0.00534129
0.00531052
0.00527914
0.00524715
0.00521454
0.00518129
0.0051474
0.00511285
0.00507763
0.00504173
0.00500514
0.00496784
0.00492983
0.00489107
0.00485157
0.00481131
0.00477025
0.0047284
0.00468572
0.00464219
0.0045978
0.0045525
0.00450629
0.00445911
0.00441095
0.00436176
0.00431149
0.00426011
0.00420756
0.00415378
0.00409871
0.00404226
0.00398436
0.0039249
0.00386377
0.00380084
0.00373594
0.00366887
0.0035994
0.00352724
0.00345209
0.00337367
0.00329161
0.00320538
0.00311434
0.0030177
0.00291439
0.00280297
0.00268149
0.00254719
0.00239609
0.00222389
0.00202366
0.00178463
0.00148973
0.00111124
0.000608978
6.67872e-05
0.000106078
0.00103291
0.00194285
0.002665
0.00325427
0.00375136
0.00418175
0.00456167
0.00490181
0.00520963
0.0054905
0.00574841
0.00598644
0.006207
0.00641205
0.00660319
0.00678175
0.00694889
0.00710558
0.00725268
0.00739095
0.00752105
0.0076436
0.00775912
0.0078681
0.00797099
0.00806817
0.00816003
0.00824689
0.00832906
0.00840682
0.00848042
0.00855011
0.0086161
0.00867858
0.00873775
0.00879378
0.00884682
0.00889701
0.00894449
0.00898936
0.00903173
0.00907168
0.00910925
0.0091445
0.0091776
0.00920869
0.00923789
0.00926531
0.00929104
0.00931516
0.00933775
0.00935886
0.00937857
0.00939693
0.00941399
0.0094298
0.00944442
0.00945788
0.00947023
0.0094815
0.00949175
0.00950099
0.00950927
0.00951662
0.00952307
0.00952864
0.00953337
0.00953729
0.00954042
0.00954277
0.00954438
0.00954527
0.00954545
0.00954494
0.00954376
0.00954193
0.00953947
0.00953638
0.00953268
0.00952838
0.00952349
0.00951803
0.009512
0.00950541
0.00949827
0.00949058
0.00948236
0.0094736
0.00946431
0.0094545
0.00944416
0.0094333
0.00942193
0.00941004
0.00939763
0.0093847
0.00937125
0.00935729
0.0093428
0.00932779
0.00931225
0.00929619
0.00927958
0.00926244
0.00924476
0.00922653
0.00920774
0.0091884
0.00916849
0.009148
0.00912694
0.00910528
0.00908303
0.00906018
0.00903672
0.00901263
0.00898791
0.00896256
0.00893655
0.00890989
0.00888255
0.00885454
0.00882583
0.00879643
0.00876631
0.00873546
0.00870388
0.00867156
0.00863847
0.00860461
0.00856997
0.00853453
0.00849827
0.0084612
0.00842329
0.00838452
0.00834489
0.00830438
0.00826298
0.00822067
0.00817743
0.00813325
0.00808812
0.00804201
0.00799491
0.00794679
0.00789766
0.00784747
0.00779621
0.00774387
0.00769041
0.00763582
0.00758007
0.00752314
0.00746499
0.0074056
0.00734493
0.00728296
0.00721964
0.00715494
0.00708881
0.00702122
0.00695211
0.00688142
0.0068091
0.00673509
0.00665931
0.00658168
0.00650213
0.00642054
0.00633681
0.00625082
0.00616243
0.00607149
0.0059778
0.00588117
0.00578135
0.00567805
0.00557094
0.00545962
0.00534364
0.00522247
0.00509551
0.00496203
0.0048211
0.0046716
0.00451204
0.00434059
0.00415484
0.00395169
0.00372696
0.00347514
0.00318897
0.00285902
0.00247143
0.00200663
0.00143812
0.000741901
7.60477e-05
0.000106091
0.00103299
0.00194292
0.00266506
0.00325432
0.00375141
0.0041818
0.00456172
0.00490186
0.00520968
0.00549054
0.00574845
0.00598648
0.00620704
0.00641209
0.00660323
0.00678179
0.00694892
0.00710561
0.00725271
0.00739098
0.00752108
0.00764362
0.00775914
0.00786813
0.00797101
0.0080682
0.00816005
0.00824691
0.00832908
0.00840684
0.00848044
0.00855013
0.00861611
0.0086786
0.00873777
0.00879379
0.00884683
0.00889702
0.0089445
0.00898937
0.00903174
0.00907169
0.00910926
0.00914451
0.00917761
0.0092087
0.0092379
0.00926532
0.00929105
0.00931517
0.00933775
0.00935886
0.00937857
0.00939693
0.00941399
0.00942981
0.00944442
0.00945788
0.00947023
0.00948151
0.00949175
0.00950099
0.00950927
0.00951662
0.00952307
0.00952864
0.00953337
0.00953729
0.00954042
0.00954277
0.00954438
0.00954527
0.00954544
0.00954494
0.00954376
0.00954193
0.00953947
0.00953637
0.00953267
0.00952838
0.00952349
0.00951803
0.009512
0.00950541
0.00949827
0.00949058
0.00948235
0.0094736
0.00946431
0.0094545
0.00944416
0.0094333
0.00942193
0.00941003
0.00939762
0.0093847
0.00937125
0.00935729
0.0093428
0.00932779
0.00931225
0.00929618
0.00927958
0.00926244
0.00924476
0.00922653
0.00920774
0.0091884
0.00916848
0.009148
0.00912693
0.00910528
0.00908303
0.00906018
0.00903671
0.00901263
0.00898791
0.00896255
0.00893655
0.00890988
0.00888255
0.00885453
0.00882583
0.00879642
0.0087663
0.00873546
0.00870388
0.00867155
0.00863847
0.00860461
0.00856996
0.00853452
0.00849827
0.00846119
0.00842328
0.00838452
0.00834489
0.00830438
0.00826298
0.00822066
0.00817743
0.00813325
0.00808811
0.008042
0.0079949
0.00794679
0.00789765
0.00784746
0.00779621
0.00774387
0.00769041
0.00763582
0.00758007
0.00752313
0.00746498
0.00740559
0.00734493
0.00728295
0.00721963
0.00715493
0.00708881
0.00702121
0.0069521
0.00688142
0.0068091
0.00673508
0.0066593
0.00658168
0.00650212
0.00642053
0.00633681
0.00625082
0.00616243
0.00607148
0.0059778
0.00588117
0.00578134
0.00567804
0.00557093
0.00545962
0.00534363
0.00522246
0.0050955
0.00496202
0.0048211
0.00467159
0.00451204
0.00434058
0.00415484
0.00395169
0.00372696
0.00347514
0.00318897
0.00285902
0.00247143
0.00200663
0.00143813
0.000741901
7.60481e-05
0.000116162
0.00115385
0.00224388
0.00314606
0.00390023
0.00454554
0.00510919
0.00560969
0.00605981
0.00646863
0.00684279
0.00718729
0.00750597
0.00780187
0.00807746
0.00833476
0.00857547
0.00880104
0.00901274
0.00921166
0.00939878
0.00957497
0.00974101
0.00989762
0.0100454
0.010185
0.010317
0.0104417
0.0105598
0.0106715
0.0107773
0.0108776
0.0109726
0.0110627
0.0111481
0.0112291
0.011306
0.0113789
0.011448
0.0115136
0.0115758
0.0116347
0.0116905
0.0117433
0.0117931
0.0118402
0.0118847
0.0119268
0.0119665
0.0120041
0.0120395
0.0120729
0.0121045
0.0121342
0.0121621
0.0121883
0.012213
0.012236
0.0122576
0.0122777
0.0122964
0.0123138
0.0123299
0.0123447
0.0123583
0.0123707
0.012382
0.0123921
0.0124012
0.0124093
0.0124163
0.0124224
0.0124275
0.0124316
0.0124348
0.0124372
0.0124387
0.0124393
0.0124391
0.012438
0.0124362
0.0124335
0.0124301
0.0124259
0.012421
0.0124153
0.0124088
0.0124016
0.0123937
0.0123851
0.0123758
0.0123657
0.0123549
0.0123434
0.0123312
0.0123183
0.0123046
0.0122903
0.0122752
0.0122594
0.0122429
0.0122257
0.0122077
0.012189
0.0121695
0.0121493
0.0121284
0.0121067
0.0120842
0.0120609
0.0120368
0.012012
0.0119863
0.0119598
0.0119325
0.0119043
0.0118753
0.0118454
0.0118146
0.0117829
0.0117504
0.0117169
0.0116825
0.0116471
0.0116107
0.0115734
0.0115351
0.0114958
0.0114554
0.011414
0.0113716
0.011328
0.0112834
0.0112376
0.0111907
0.0111427
0.0110934
0.011043
0.0109914
0.0109385
0.0108844
0.010829
0.0107723
0.0107142
0.0106548
0.010594
0.0105318
0.0104682
0.0104031
0.0103365
0.0102683
0.0101986
0.0101273
0.0100544
0.00997979
0.00990346
0.00982536
0.00974544
0.00966367
0.00957997
0.00949429
0.00940656
0.00931672
0.00922469
0.00913039
0.00903372
0.0089346
0.00883291
0.00872852
0.00862132
0.00851115
0.00839785
0.00828123
0.00816108
0.00803717
0.00790922
0.00777692
0.00763992
0.00749779
0.00735006
0.00719615
0.00703541
0.00686706
0.00669019
0.00650371
0.00630629
0.00609627
0.00587161
0.00562976
0.00536747
0.00508066
0.00476402
0.00441088
0.00401248
0.00355784
0.00303233
0.00241707
0.00169022
0.000843339
8.34509e-05
0.000116163
0.00115387
0.00224392
0.0031461
0.00390028
0.00454559
0.00510924
0.00560974
0.00605986
0.00646869
0.00684285
0.00718734
0.00750602
0.00780192
0.00807751
0.0083348
0.00857551
0.00880109
0.00901278
0.0092117
0.00939882
0.00957501
0.00974105
0.00989765
0.0100455
0.0101851
0.010317
0.0104418
0.0105598
0.0106715
0.0107774
0.0108776
0.0109726
0.0110627
0.0111481
0.0112291
0.011306
0.0113789
0.0114481
0.0115136
0.0115758
0.0116347
0.0116905
0.0117433
0.0117931
0.0118402
0.0118847
0.0119268
0.0119665
0.0120041
0.0120395
0.012073
0.0121045
0.0121342
0.0121621
0.0121884
0.012213
0.012236
0.0122576
0.0122777
0.0122964
0.0123138
0.0123299
0.0123447
0.0123583
0.0123707
0.012382
0.0123921
0.0124012
0.0124093
0.0124163
0.0124224
0.0124275
0.0124316
0.0124348
0.0124372
0.0124387
0.0124393
0.0124391
0.012438
0.0124362
0.0124335
0.0124301
0.0124259
0.012421
0.0124153
0.0124088
0.0124016
0.0123937
0.0123851
0.0123758
0.0123657
0.0123549
0.0123434
0.0123312
0.0123183
0.0123046
0.0122903
0.0122752
0.0122594
0.0122429
0.0122257
0.0122077
0.012189
0.0121695
0.0121493
0.0121284
0.0121067
0.0120842
0.0120609
0.0120368
0.012012
0.0119863
0.0119598
0.0119325
0.0119043
0.0118753
0.0118454
0.0118146
0.0117829
0.0117504
0.0117169
0.0116825
0.0116471
0.0116107
0.0115734
0.0115351
0.0114958
0.0114554
0.011414
0.0113716
0.011328
0.0112834
0.0112376
0.0111907
0.0111427
0.0110934
0.011043
0.0109914
0.0109385
0.0108844
0.010829
0.0107722
0.0107142
0.0106548
0.010594
0.0105318
0.0104682
0.0104031
0.0103365
0.0102683
0.0101986
0.0101273
0.0100544
0.00997978
0.00990345
0.00982535
0.00974544
0.00966366
0.00957996
0.00949428
0.00940655
0.00931671
0.00922468
0.00913038
0.00903372
0.00893459
0.0088329
0.00872852
0.00862132
0.00851115
0.00839784
0.00828122
0.00816107
0.00803716
0.00790921
0.00777692
0.00763991
0.00749779
0.00735005
0.00719615
0.0070354
0.00686705
0.00669018
0.00650371
0.00630629
0.00609627
0.00587161
0.00562975
0.00536747
0.00508065
0.00476402
0.00441088
0.00401247
0.00355784
0.00303233
0.00241707
0.00169022
0.000843337
8.3451e-05
0.000124729
0.00124993
0.0024772
0.0035228
0.0044125
0.0051825
0.00586029
0.00646557
0.00701238
0.00751095
0.00796881
0.0083917
0.00878404
0.00914935
0.00949046
0.00980972
0.0101091
0.0103902
0.0106546
0.0109035
0.011138
0.0113591
0.0115679
0.011765
0.0119514
0.0121275
0.0122942
0.0124521
0.0126015
0.0127432
0.0128775
0.0130048
0.0131257
0.0132404
0.0133493
0.0134528
0.013551
0.0136444
0.0137331
0.0138174
0.0138976
0.0139737
0.0140459
0.0141145
0.0141796
0.0142414
0.0143
0.0143556
0.0144083
0.0144583
0.0145058
0.0145508
0.0145934
0.0146338
0.0146721
0.0147083
0.0147424
0.0147747
0.0148051
0.0148338
0.0148608
0.0148861
0.0149098
0.0149319
0.0149526
0.0149718
0.0149896
0.0150061
0.0150212
0.0150351
0.0150477
0.0150591
0.0150693
0.0150784
0.0150863
0.0150931
0.0150988
0.0151035
0.0151071
0.0151097
0.0151113
0.0151119
0.0151116
0.0151102
0.015108
0.0151047
0.0151006
0.0150955
0.0150895
0.0150826
0.0150747
0.015066
0.0150564
0.0150458
0.0150344
0.015022
0.0150088
0.0149946
0.0149796
0.0149636
0.0149467
0.0149289
0.0149101
0.0148904
0.0148698
0.0148482
0.0148257
0.0148022
0.0147777
0.0147522
0.0147257
0.0146982
0.0146697
0.0146401
0.0146095
0.0145778
0.014545
0.0145112
0.0144762
0.01444
0.0144028
0.0143643
0.0143247
0.0142838
0.0142417
0.0141984
0.0141539
0.014108
0.0140608
0.0140123
0.0139625
0.0139112
0.0138586
0.0138046
0.0137491
0.0136921
0.0136336
0.0135736
0.0135121
0.0134489
0.0133842
0.0133178
0.0132497
0.0131799
0.0131084
0.0130351
0.01296
0.012883
0.0128042
0.0127234
0.0126406
0.0125558
0.0124689
0.0123799
0.0122887
0.0121952
0.0120995
0.0120013
0.0119008
0.0117977
0.011692
0.0115837
0.0114725
0.0113585
0.0112414
0.0111213
0.0109979
0.0108711
0.0107407
0.0106066
0.0104686
0.0103263
0.0101797
0.0100284
0.00987202
0.00971028
0.00954275
0.00936895
0.00918832
0.00900023
0.00880394
0.00859857
0.00838312
0.00815638
0.00791692
0.00766302
0.00739258
0.00710303
0.00679123
0.00645328
0.00608435
0.00567842
0.00522796
0.00472355
0.00415341
0.00350351
0.00275679
0.00189647
0.000926696
8.97062e-05
0.000124729
0.00124995
0.00247723
0.00352284
0.00441255
0.00518255
0.00586035
0.00646563
0.00701245
0.00751101
0.00796887
0.00839176
0.0087841
0.00914941
0.00949052
0.00980977
0.0101091
0.0103903
0.0106546
0.0109035
0.011138
0.0113592
0.0115679
0.0117651
0.0119514
0.0121276
0.0122943
0.0124521
0.0126016
0.0127432
0.0128775
0.0130049
0.0131257
0.0132404
0.0133493
0.0134528
0.013551
0.0136444
0.0137331
0.0138175
0.0138976
0.0139737
0.0140459
0.0141145
0.0141796
0.0142414
0.0143
0.0143556
0.0144083
0.0144583
0.0145058
0.0145508
0.0145935
0.0146338
0.0146721
0.0147083
0.0147424
0.0147747
0.0148051
0.0148338
0.0148608
0.0148861
0.0149098
0.0149319
0.0149526
0.0149718
0.0149896
0.0150061
0.0150212
0.0150351
0.0150477
0.0150591
0.0150693
0.0150784
0.0150863
0.0150931
0.0150988
0.0151035
0.0151071
0.0151097
0.0151113
0.0151119
0.0151116
0.0151102
0.015108
0.0151047
0.0151006
0.0150955
0.0150895
0.0150826
0.0150747
0.015066
0.0150564
0.0150458
0.0150344
0.015022
0.0150088
0.0149946
0.0149796
0.0149636
0.0149467
0.0149289
0.0149101
0.0148904
0.0148698
0.0148482
0.0148257
0.0148022
0.0147777
0.0147522
0.0147257
0.0146982
0.0146697
0.0146401
0.0146095
0.0145778
0.014545
0.0145112
0.0144762
0.01444
0.0144027
0.0143643
0.0143247
0.0142838
0.0142417
0.0141984
0.0141539
0.014108
0.0140608
0.0140123
0.0139625
0.0139112
0.0138586
0.0138046
0.0137491
0.0136921
0.0136336
0.0135736
0.0135121
0.0134489
0.0133842
0.0133178
0.0132497
0.0131799
0.0131084
0.0130351
0.01296
0.012883
0.0128042
0.0127234
0.0126406
0.0125558
0.0124689
0.0123798
0.0122886
0.0121952
0.0120995
0.0120013
0.0119008
0.0117977
0.011692
0.0115837
0.0114725
0.0113585
0.0112414
0.0111213
0.0109979
0.0108711
0.0107407
0.0106066
0.0104686
0.0103263
0.0101797
0.0100284
0.00987201
0.00971028
0.00954275
0.00936894
0.00918832
0.00900023
0.00880393
0.00859856
0.00838311
0.00815637
0.00791692
0.00766302
0.00739257
0.00710302
0.00679122
0.00645328
0.00608435
0.00567842
0.00522796
0.00472355
0.00415341
0.00350351
0.00275679
0.00189647
0.000926693
8.97063e-05
0.000132322
0.00133222
0.00266978
0.00383128
0.00483258
0.00570701
0.00648179
0.00717718
0.00780803
0.00838532
0.00891727
0.00941013
0.00986877
0.010297
0.0106981
0.0110744
0.0114282
0.0117613
0.0120753
0.0123716
0.0126514
0.0129157
0.0131658
0.0134023
0.0136263
0.0138384
0.0140394
0.01423
0.0144108
0.0145823
0.0147451
0.0148997
0.0150467
0.0151863
0.015319
0.0154453
0.0155653
0.0156796
0.0157883
0.0158918
0.0159903
0.0160841
0.0161733
0.0162583
0.0163391
0.0164159
0.016489
0.0165586
0.0166249
0.0166879
0.0167478
0.0168049
0.0168591
0.0169107
0.0169598
0.0170064
0.0170506
0.0170926
0.0171324
0.0171701
0.0172058
0.0172396
0.0172714
0.0173015
0.0173298
0.0173564
0.0173813
0.0174046
0.0174264
0.0174466
0.0174654
0.0174827
0.0174987
0.0175132
0.0175265
0.0175384
0.017549
0.0175584
0.0175665
0.0175734
0.0175791
0.0175836
0.017587
0.0175892
0.0175903
0.0175903
0.0175891
0.0175868
0.0175834
0.017579
0.0175734
0.0175667
0.017559
0.0175502
0.0175403
0.0175293
0.0175172
0.017504
0.0174898
0.0174744
0.0174579
0.0174403
0.0174216
0.0174018
0.0173808
0.0173587
0.0173354
0.0173109
0.0172853
0.0172585
0.0172304
0.0172012
0.0171706
0.0171389
0.0171058
0.0170715
0.0170358
0.0169989
0.0169605
0.0169208
0.0168798
0.0168373
0.0167933
0.0167479
0.016701
0.0166527
0.0166028
0.0165513
0.0164982
0.0164436
0.0163873
0.0163293
0.0162696
0.0162083
0.0161451
0.0160802
0.0160134
0.0159448
0.0158743
0.0158018
0.0157274
0.015651
0.0155725
0.015492
0.0154093
0.0153244
0.0152373
0.015148
0.0150563
0.0149622
0.0148657
0.0147667
0.0146652
0.014561
0.0144541
0.0143445
0.014232
0.0141166
0.0139981
0.0138765
0.0137518
0.0136236
0.013492
0.0133569
0.0132179
0.0130752
0.0129283
0.0127772
0.0126217
0.0124615
0.0122963
0.012126
0.0119501
0.0117684
0.0115804
0.0113856
0.0111836
0.0109738
0.0107554
0.0105277
0.0102898
0.0100407
0.00977895
0.00950325
0.00921181
0.00890258
0.00857306
0.00822026
0.00784056
0.00742955
0.00698187
0.00649098
0.00594891
0.00534599
0.00467057
0.00390924
0.00304711
0.00207202
0.000998193
9.51817e-05
0.000132323
0.00133224
0.00266981
0.00383132
0.00483263
0.00570706
0.00648185
0.00717724
0.0078081
0.00838539
0.00891733
0.00941019
0.00986883
0.0102971
0.0106981
0.0110745
0.0114283
0.0117614
0.0120754
0.0123716
0.0126514
0.0129158
0.0131658
0.0134024
0.0136263
0.0138385
0.0140395
0.01423
0.0144108
0.0145823
0.0147451
0.0148998
0.0150467
0.0151863
0.015319
0.0154453
0.0155654
0.0156796
0.0157884
0.0158919
0.0159904
0.0160841
0.0161734
0.0162583
0.0163391
0.0164159
0.0164891
0.0165586
0.0166249
0.0166879
0.0167478
0.0168049
0.0168591
0.0169107
0.0169598
0.0170064
0.0170506
0.0170926
0.0171324
0.0171701
0.0172058
0.0172396
0.0172714
0.0173015
0.0173298
0.0173564
0.0173813
0.0174046
0.0174264
0.0174466
0.0174654
0.0174827
0.0174987
0.0175132
0.0175265
0.0175384
0.017549
0.0175584
0.0175665
0.0175734
0.0175791
0.0175836
0.017587
0.0175892
0.0175903
0.0175903
0.0175891
0.0175868
0.0175834
0.017579
0.0175734
0.0175667
0.017559
0.0175502
0.0175403
0.0175293
0.0175172
0.017504
0.0174897
0.0174744
0.0174579
0.0174403
0.0174216
0.0174018
0.0173808
0.0173587
0.0173354
0.0173109
0.0172853
0.0172585
0.0172304
0.0172012
0.0171706
0.0171389
0.0171058
0.0170715
0.0170358
0.0169989
0.0169605
0.0169208
0.0168797
0.0168372
0.0167933
0.0167479
0.016701
0.0166527
0.0166028