/*--------------------------------*- C++ -*----------------------------------*\
  =========                 |
  \\      /  F ield         | OpenFOAM: The Open Source CFD Toolbox
   \\    /   O peration     | Website:  https://openfoam.org
    \\  /    A nd           | Version:  8
     \\/     M anipulation  |
\*---------------------------------------------------------------------------*/
FoamFile
{
    version     2.0;
    format      ascii;
    class       volScalarField;
    location    "3500";
    object      epsilon;
}
// * * * * * * * * * * * * * * * * * * * * * * * * * * * * * * * * * * * * * //

dimensions      [0 2 -3 0 0 0 0];

internalField   nonuniform List<scalar> 
48000
(
1.88195
5.3559
10.0713
14.9863
20.1816
25.3773
30.5463
35.6913
40.9213
46.1652
51.4142
56.6684
61.9199
67.1613
72.385
77.5829
82.7463
87.8663
92.9338
97.9395
102.874
107.729
112.494
117.162
121.725
126.174
130.503
134.705
138.774
142.706
146.495
150.138
153.632
156.974
160.163
163.196
166.074
168.797
171.365
173.779
176.041
178.151
180.113
181.93
183.637
185.209
186.645
187.946
189.118
190.166
191.093
191.904
192.603
193.196
193.686
194.078
194.377
194.586
194.71
194.754
194.72
194.612
194.435
194.192
193.887
193.522
193.102
192.628
192.104
191.533
190.916
190.258
189.559
188.823
188.05
187.244
186.407
185.538
184.642
183.718
182.768
181.794
180.796
179.777
178.737
177.676
176.597
175.498
174.383
173.25
172.101
170.936
169.756
168.561
167.352
166.129
164.892
163.641
162.377
161.101
159.811
158.509
157.195
155.868
154.528
153.177
151.813
150.437
149.049
147.649
146.237
144.812
143.376
141.927
140.466
138.993
137.508
136.011
134.501
132.98
131.446
129.9
128.342
126.772
125.19
123.596
121.99
120.372
118.743
117.103
115.451
113.788
112.115
110.43
108.736
107.031
105.317
103.593
101.86
100.118
98.3688
96.6113
94.8466
93.075
91.2971
89.5135
87.7248
85.9314
84.1342
82.3336
80.5303
78.7251
76.9187
75.1116
73.3048
71.4988
69.6945
67.8926
66.0939
64.2992
62.5091
60.7245
58.9462
57.1748
55.4112
53.6561
51.9101
50.1739
48.4483
46.7339
45.0312
43.3408
41.6633
39.9992
38.3488
36.7126
35.0909
33.4839
31.892
30.3158
28.7568
27.2191
25.707
24.2079
22.7193
21.2409
19.7709
18.3081
16.8505
15.3956
13.9403
12.482
11.0319
9.5717
8.09304
6.58636
5.03876
3.43401
1.75816
0.189671
0.81348
5.32418
10.069
14.9861
20.1817
25.3774
30.5465
35.6915
40.9215
46.1655
51.4144
56.6686
61.9201
67.1615
72.3852
77.5831
82.7465
87.8665
92.934
97.9397
102.874
107.729
112.494
117.162
121.725
126.174
130.503
134.705
138.775
142.706
146.495
150.139
153.632
156.974
160.163
163.196
166.074
168.797
171.365
173.779
176.041
178.151
180.113
181.93
183.637
185.209
186.645
187.946
189.118
190.166
191.093
191.904
192.603
193.196
193.686
194.078
194.377
194.586
194.71
194.754
194.72
194.612
194.435
194.192
193.887
193.522
193.102
192.628
192.104
191.533
190.916
190.258
189.559
188.823
188.05
187.244
186.407
185.538
184.641
183.718
182.768
181.794
180.796
179.777
178.737
177.676
176.597
175.498
174.383
173.25
172.101
170.936
169.756
168.561
167.352
166.129
164.892
163.641
162.377
161.101
159.811
158.509
157.195
155.868
154.528
153.177
151.813
150.437
149.049
147.649
146.237
144.812
143.376
141.927
140.466
138.993
137.508
136.011
134.501
132.98
131.446
129.9
128.342
126.772
125.19
123.596
121.99
120.372
118.743
117.103
115.451
113.788
112.115
110.43
108.736
107.031
105.317
103.593
101.86
100.118
98.3688
96.6113
94.8465
93.075
91.2971
89.5135
87.7248
85.9314
84.1342
82.3336
80.5303
78.7251
76.9187
75.1116
73.3048
71.4988
69.6945
67.8926
66.0939
64.2992
62.5091
60.7245
58.9462
57.1748
55.4112
53.6561
51.9101
50.1739
48.4483
46.7339
45.0312
43.3408
41.6633
39.9992
38.3488
36.7126
35.0909
33.4839
31.892
30.3158
28.7568
27.2191
25.707
24.2079
22.7193
21.2409
19.7709
18.3081
16.8505
15.3956
13.9403
12.482
11.0319
9.57172
8.09306
6.58637
5.03879
3.43405
1.75809
0.18967
6.36371
5.41488
6.92286
8.77237
10.7926
12.8912
15.0284
17.186
19.3738
21.586
23.8188
26.0699
28.3363
30.6146
32.9012
35.1921
37.4828
39.7687
42.0449
44.3062
46.5476
48.7638
50.9496
53.1
55.21
57.275
59.2905
61.2524
63.1568
65.0002
66.7795
68.4921
70.1355
71.7078
73.2076
74.6335
75.9849
77.2613
78.4626
79.589
80.641
81.6196
82.5263
83.3643
84.1409
84.8521
85.4975
86.0779
86.5951
87.051
87.4479
87.788
88.0735
88.3069
88.4904
88.6262
88.7167
88.7642
88.7707
88.7384
88.6693
88.5655
88.4289
88.2613
88.0645
87.8402
87.59
87.3155
87.0181
86.6992
86.3602
86.0023
85.6267
85.2344
84.8265
84.4041
83.9679
83.5189
83.0578
82.5854
82.1024
81.6094
81.1069
80.5957
80.076
79.5485
79.0135
78.4714
77.9226
77.3673
76.806
76.2388
75.6659
75.0877
74.5042
73.9157
73.3222
72.724
72.1211
71.5136
70.9017
70.2853
69.6645
69.0394
68.4099
67.7762
67.1383
66.496
65.8496
65.1988
64.5439
63.8846
63.2211
62.5533
61.8811
61.2047
60.5239
59.8388
59.1493
58.4554
57.7572
57.0547
56.3477
55.6365
54.9209
54.201
53.4768
52.7484
52.0159
51.2792
50.5385
49.7938
49.0452
48.2928
47.5367
46.7771
46.0141
45.2478
44.4783
43.7059
42.9307
42.1529
41.3727
40.5903
39.8059
39.0198
38.2323
37.4435
36.6538
35.8633
35.0725
34.2816
33.4908
32.7006
31.9111
31.1228
30.336
29.5509
28.7679
27.9874
27.2096
26.4349
25.6636
24.8961
24.1325
23.3734
22.6188
21.8692
21.1248
20.3859
19.6527
18.9255
18.2045
17.4898
16.7816
16.0802
15.3856
14.6979
14.0174
13.3442
12.6786
12.0212
11.372
10.7293
10.0924
9.46189
8.83682
8.21684
7.60147
6.99028
6.38301
5.78019
5.1845
4.59246
4.00354
3.41901
2.84427
2.29751
1.85049
2.15956
6.31007
5.40568
6.92096
8.7719
10.7924
12.891
15.0283
17.1858
19.3737
21.5859
23.8187
26.0697
28.3361
30.6144
32.901
35.1919
37.4826
39.7685
42.0447
44.306
46.5474
48.7635
50.9493
53.0997
55.2098
57.2748
59.2903
61.2521
63.1565
64.9999
66.7793
68.4918
70.1352
71.7076
73.2073
74.6333
75.9846
77.261
78.4623
79.5887
80.6407
81.6193
82.526
83.364
84.1406
84.8518
85.4972
86.0776
86.5948
87.0507
87.4476
87.7877
88.0732
88.3066
88.4901
88.6259
88.7165
88.7639
88.7704
88.7381
88.669
88.5652
88.4286
88.261
88.0642
87.8399
87.5897
87.3152
87.0178
86.699
86.36
86.002
85.6264
85.2341
84.8263
84.4038
83.9677
83.5186
83.0576
82.5852
82.1021
81.6091
81.1067
80.5954
80.0758
79.5482
79.0132
78.4712
77.9223
77.3671
76.8057
76.2385
75.6657
75.0875
74.504
73.9155
73.322
72.7238
72.1209
71.5134
70.9015
70.2851
69.6643
69.0391
68.4097
67.776
67.1381
66.4958
65.8494
65.1987
64.5437
63.8844
63.2209
62.5531
61.8809
61.2045
60.5237
59.8386
59.1491
58.4553
57.7571
57.0545
56.3476
55.6363
54.9207
54.2008
53.4767
52.7483
52.0157
51.279
50.5383
49.7936
49.045
48.2927
47.5366
46.777
46.0139
45.2476
44.4782
43.7057
42.9305
42.1527
41.3725
40.5901
39.8058
39.0197
38.2322
37.4434
36.6536
35.8632
35.0724
34.2814
33.4907
32.7005
31.911
31.1227
30.3359
29.5508
28.7678
27.9873
27.2095
26.4348
25.6635
24.896
24.1325
23.3733
22.6187
21.8692
21.1248
20.3859
19.6527
18.9254
18.2044
17.4897
16.7816
16.0801
15.3855
14.6979
14.0173
13.3441
12.6785
12.0211
11.372
10.7293
10.0924
9.46185
8.83678
8.2168
7.60144
6.99025
6.38298
5.78017
5.18449
4.59245
4.00353
3.41901
2.84427
2.29749
1.85051
2.15983
11.7006
7.24919
7.68578
8.79336
10.1356
11.5976
13.1312
14.7128
16.3323
17.9823
19.6575
21.3541
23.0685
24.7975
26.5377
28.2858
30.0381
31.7907
33.5398
35.2811
37.0106
38.7238
40.4166
42.0846
43.7238
45.3301
46.8996
48.4289
49.9144
51.3531
52.7421
54.0791
55.3618
56.5883
57.7573
58.8674
59.9179
60.9082
61.8381
62.7076
63.5172
64.2674
64.9596
65.5955
66.1775
66.7059
67.181
67.6039
67.9759
68.2986
68.5737
68.803
68.9884
69.1319
69.2353
69.3005
69.3294
69.324
69.2859
69.217
69.119
68.9936
68.8423
68.6668
68.4684
68.2487
68.009
67.7505
67.4746
67.1822
66.8746
66.5528
66.2177
65.8703
65.5113
65.1417
64.7621
64.3733
63.9758
63.5704
63.1575
62.7377
62.3114
61.8791
61.4413
60.9982
60.5501
60.0975
59.6406
59.1796
58.7148
58.2464
57.7746
57.2994
56.8212
56.3399
55.8558
55.3689
54.8792
54.3869
53.8921
53.3947
52.8948
52.3924
51.8876
51.3804
50.8708
50.3587
49.8442
49.3272
48.8079
48.286
47.7617
47.235
46.7057
46.1739
45.6396
45.1027
44.5633
44.0213
43.4767
42.9296
42.3799
41.8276
41.2727
40.7154
40.1554
39.593
39.0282
38.4609
37.8912
37.3192
36.745
36.1685
35.59
35.0094
34.4269
33.8426
33.2566
32.669
32.0799
31.4896
30.8981
30.3055
29.7122
29.1182
28.5237
27.9289
27.334
26.7392
26.1447
25.5508
24.9577
24.3655
23.7746
23.1851
22.5973
22.0114
21.4278
20.8465
20.2679
19.6922
19.1196
18.5504
17.9848
17.4231
16.8653
16.3119
15.7629
15.2185
14.679
14.1445
13.6152
13.0912
12.5727
12.0597
11.5525
11.0511
10.5556
10.0662
9.58301
9.10614
8.63557
8.17097
7.71215
7.2591
6.81157
6.37002
5.93439
5.50487
5.08196
4.66661
4.26048
3.86489
3.48296
3.12153
2.79625
2.54899
2.54113
4.22919
11.6951
7.24719
7.68512
8.7931
10.1354
11.5974
13.131
14.7127
16.3321
17.9821
19.6574
21.3539
23.0683
24.7973
26.5376
28.2856
30.0379
31.7905
33.5396
35.281
37.0104
38.7236
40.4164
42.0844
43.7236
45.3299
46.8994
48.4287
49.9142
51.3529
52.742
54.0789
55.3616
56.5882
57.7571
58.8673
59.9177
60.908
61.8379
62.7075
63.517
64.2673
64.9595
65.5953
66.1774
66.7057
67.1808
67.6037
67.9757
68.2984
68.5735
68.8029
68.9883
69.1318
69.2351
69.3004
69.3293
69.3238
69.2858
69.2169
69.1189
68.9934
68.8422
68.6666
68.4683
68.2486
68.0089
67.7504
67.4744
67.1821
66.8745
66.5527
66.2176
65.8702
65.5112
65.1416
64.762
64.3732
63.9757
63.5703
63.1574
62.7376
62.3113
61.8791
61.4412
60.9981
60.55
60.0974
59.6405
59.1795
58.7147
58.2463
57.7745
57.2993
56.8211
56.3398
55.8557
55.3688
54.8791
54.3869
53.892
53.3946
52.8947
52.3924
51.8876
51.3803
50.8707
50.3586
49.8441
49.3272
48.8078
48.286
47.7617
47.2349
46.7056
46.1738
45.6395
45.1026
44.5632
44.0212
43.4767
42.9295
42.3798
41.8275
41.2727
40.7153
40.1554
39.593
39.0281
38.4608
37.8911
37.3192
36.7449
36.1685
35.5899
35.0094
34.4269
33.8426
33.2565
32.6689
32.0799
31.4895
30.898
30.3055
29.7121
29.1181
28.5236
27.9288
27.3339
26.7392
26.1447
25.5508
24.9576
24.3655
23.7745
23.185
22.5973
22.0114
21.4277
20.8465
20.2679
19.6922
19.1196
18.5504
17.9848
17.423
16.8653
16.3119
15.7629
15.2185
14.679
14.1445
13.6152
13.0912
12.5727
12.0597
11.5525
11.0511
10.5556
10.0662
9.58299
9.10613
8.63556
8.17096
7.71214
7.25909
6.81156
6.37001
5.93438
5.50487
5.08195
4.66661
4.26047
3.86489
3.48296
3.12153
2.79625
2.54899
2.54115
4.22917
16.9993
9.44484
9.10198
9.76766
10.7781
11.9603
13.2446
14.5967
15.9974
17.4346
18.9002
20.3884
21.8946
23.4148
24.9454
26.4831
28.0244
29.566
31.1044
32.6358
34.1568
35.6636
37.1524
38.6195
40.0614
41.4745
42.8553
44.2006
45.5074
46.7728
47.9943
49.1695
50.2964
51.3733
52.3987
53.3715
54.2908
55.156
55.9669
56.7234
57.4259
58.0749
58.6712
59.216
59.7109
60.1566
60.5539
60.904
61.2081
61.4677
61.6842
61.8595
61.9951
62.0928
62.1544
62.1815
62.176
62.1395
62.0737
61.9802
61.8607
61.7167
61.5496
61.3609
61.152
60.9242
60.6787
60.4168
60.1395
59.8479
59.5431
59.2259
58.8973
58.5582
58.2092
57.8512
57.4849
57.1108
56.7296
56.3418
55.948
55.5485
55.1439
54.7345
54.3208
53.903
53.4814
53.0564
52.6281
52.1969
51.7629
51.3263
50.8872
50.4459
50.0024
49.5569
49.1094
48.66
48.2089
47.756
47.3015
46.8453
46.3875
45.9282
45.4672
45.0047
44.5406
44.075
43.6078
43.1391
42.6687
42.1968
41.7232
41.248
40.7712
40.2927
39.8125
39.3306
38.8471
38.3618
37.8747
37.386
36.8955
36.4032
35.9093
35.4136
34.9162
34.4172
33.9165
33.4142
32.9103
32.4048
31.8979
31.3895
30.8798
30.3689
29.8567
29.3434
28.8291
28.3139
27.7979
27.2812
26.7639
26.2463
25.7284
25.2103
24.6923
24.1745
23.657
23.1401
22.6239
22.1086
21.5943
21.0814
20.57
20.0602
19.5523
19.0465
18.543
18.042
17.5436
17.0482
16.5559
16.0669
15.5814
15.0996
14.6217
14.1478
13.6781
13.2129
12.7522
12.2962
11.8451
11.399
10.958
10.5223
10.092
9.66716
9.24794
8.83446
8.42685
8.0252
7.62958
7.24
6.8565
6.47921
6.10831
5.74414
5.3871
5.03792
4.69766
4.36781
4.05068
3.7498
3.47121
3.22657
3.04109
2.98113
3.30357
6.2612
16.9988
9.44441
9.10173
9.76748
10.778
11.9601
13.2445
14.5966
15.9972
17.4344
18.9001
20.3883
21.8944
23.4146
24.9452
26.4829
28.0243
29.5659
31.1042
32.6357
34.1566
35.6634
37.1522
38.6194
40.0612
41.4743
42.8551
44.2004
45.5072
46.7726
47.9941
49.1693
50.2963
51.3732
52.3986
53.3714
54.2907
55.1559
55.9668
56.7233
57.4258
58.0747
58.6711
59.2159
59.7108
60.1565
60.5538
60.9039
61.208
61.4676
61.6842
61.8594
61.995
62.0927
62.1543
62.1814
62.1759
62.1394
62.0736
61.9802
61.8606
61.7166
61.5495
61.3609
61.152
60.9242
60.6787
60.4167
60.1394
59.8478
59.543
59.2258
58.8973
58.5581
58.2092
57.8512
57.4848
57.1108
56.7296
56.3418
55.9479
55.5485
55.1439
54.7345
54.3207
53.9029
53.4814
53.0563
52.6281
52.1969
51.7628
51.3262
50.8872
50.4458
50.0024
49.5568
49.1093
48.66
48.2089
47.756
47.3015
46.8453
46.3875
45.9281
45.4672
45.0047
44.5406
44.075
43.6078
43.139
42.6687
42.1967
41.7232
41.248
40.7711
40.2927
39.8125
39.3306
38.847
38.3617
37.8747
37.3859
36.8954
36.4032
35.9093
35.4136
34.9162
34.4172
33.9165
33.4141
32.9102
32.4048
31.8979
31.3895
30.8798
30.3688
29.8567
29.3434
28.8291
28.3139
27.7978
27.2812
26.7639
26.2463
25.7283
25.2103
24.6923
24.1745
23.657
23.1401
22.6239
22.1086
21.5943
21.0814
20.57
20.0602
19.5523
19.0465
18.543
18.042
17.5436
17.0482
16.5559
16.0669
15.5814
15.0996
14.6216
14.1478
13.6781
13.2129
12.7522
12.2962
11.8451
11.399
10.958
10.5223
10.092
9.66716
9.24794
8.83446
8.42684
8.0252
7.62958
7.23999
6.8565
6.47921
6.10831
5.74414
5.3871
5.03791
4.69766
4.36781
4.05068
3.7498
3.47121
3.22657
3.04109
2.98113
3.30358
6.26119
22.3178
11.8275
10.7955
11.1237
11.9123
12.9259
14.0711
15.3014
16.5903
17.9212
19.283
20.6678
22.0696
23.4836
24.906
26.3331
27.7616
29.1884
30.6102
32.0239
33.4263
34.8141
36.1842
37.5332
38.858
40.1555
41.4227
42.6566
43.8546
45.0141
46.1327
47.2083
48.239
49.2232
50.1596
51.047
51.8846
52.6718
53.4084
54.0942
54.7294
55.3146
55.8503
56.3376
56.7774
57.1708
57.5186
57.8221
58.0824
58.3008
58.479
58.6183
58.7204
58.787
58.8196
58.8199
58.7896
58.7302
58.6433
58.5306
58.3935
58.2334
58.0519
57.8502
57.6298
57.3917
57.1373
56.8676
56.5838
56.2869
55.9778
55.6575
55.3267
54.9864
54.6373
54.28
53.9153
53.5436
53.1657
52.7821
52.3931
51.9993
51.6011
51.1989
50.793
50.3837
49.9714
49.5562
49.1385
48.7184
48.2962
47.872
47.4459
47.0182
46.5889
46.1581
45.7259
45.2925
44.8578
44.422
43.985
43.5469
43.1077
42.6676
42.2263
41.7841
41.3408
40.8965
40.4512
40.0048
39.5574
39.1089
38.6593
38.2086
37.7568
37.3039
36.8498
36.3945
35.9381
35.4804
35.0216
34.5615
34.1003
33.6378
33.1741
32.7092
32.2431
31.7758
31.3074
30.8379
30.3673
29.8956
29.4229
28.9493
28.4748
27.9995
27.5235
27.0467
26.5694
26.0917
25.6135
25.135
24.6564
24.1778
23.6992
23.2209
22.7429
22.2654
21.7886
21.3126
20.8376
20.3637
19.8911
19.42
18.9505
18.4829
18.0173
17.5539
17.0929
16.6345
16.1788
15.726
15.2764
14.83
14.3871
13.9479
13.5124
13.0809
12.6536
12.2306
11.812
11.3979
10.9887
10.5843
10.1849
9.79059
9.4016
9.01802
8.63999
8.26766
7.90116
7.54067
7.18632
6.8383
6.49681
6.16214
5.83469
5.51501
5.20384
4.90221
4.61163
4.33419
4.07323
3.83382
3.62466
3.46195
3.38021
3.47032
4.08481
8.27548
22.3179
11.8273
10.7954
11.1235
11.9122
12.9258
14.0709
15.3012
16.5901
17.921
19.2829
20.6676
22.0694
23.4835
24.9058
26.3329
27.7615
29.1882
30.6101
32.0238
33.4261
34.814
36.184
37.533
38.8579
40.1554
41.4226
42.6565
43.8545
45.0139
46.1325
47.2081
48.2389
49.2231
50.1595
51.0469
51.8845
52.6717
53.4083
54.094
54.7293
55.3145
55.8502
56.3375
56.7773
57.1707
57.5186
57.822
58.0823
58.3008
58.4789
58.6182
58.7204
58.7869
58.8195
58.8199
58.7895
58.7301
58.6433
58.5305
58.3934
58.2334
58.0519
57.8502
57.6297
57.3917
57.1372
56.8676
56.5838
56.2869
55.9778
55.6574
55.3267
54.9864
54.6372
54.28
53.9152
53.5436
53.1657
52.782
52.3931
51.9993
51.6011
51.1989
50.793
50.3837
49.9714
49.5562
49.1385
48.7184
48.2962
47.872
47.4459
47.0182
46.5888
46.1581
45.7259
45.2925
44.8578
44.4219
43.9849
43.5469
43.1077
42.6675
42.2263
41.7841
41.3408
40.8965
40.4512
40.0048
39.5574
39.1089
38.6593
38.2086
37.7568
37.3039
36.8498
36.3945
35.9381
35.4804
35.0216
34.5615
34.1002
33.6378
33.1741
32.7092
32.2431
31.7758
31.3074
30.8379
30.3672
29.8956
29.4229
28.9493
28.4748
27.9995
27.5235
27.0467
26.5694
26.0917
25.6135
25.135
24.6564
24.1778
23.6992
23.2209
22.7429
22.2654
21.7886
21.3126
20.8376
20.3637
19.8911
19.42
18.9505
18.4829
18.0173
17.5539
17.0929
16.6345
16.1788
15.726
15.2764
14.83
14.3871
13.9479
13.5124
13.0809
12.6536
12.2306
11.812
11.3979
10.9887
10.5843
10.1849
9.79059
9.4016
9.01802
8.63999
8.26766
7.90116
7.54067
7.18632
6.8383
6.49681
6.16214
5.83469
5.51501
5.20384
4.90221
4.61163
4.33419
4.07323
3.83382
3.62466
3.46195
3.38021
3.47032
4.08483
8.27547
27.628
14.3315
12.6616
12.7062
13.3258
14.222
15.2774
16.4336
17.6574
18.9277
20.2305
21.5559
22.8966
24.2471
25.603
26.9605
28.3162
29.6673
31.0107
32.3437
33.6635
34.9673
36.2524
37.5161
38.7555
39.9679
41.1509
42.3018
43.4182
44.4978
45.5386
46.5387
47.4963
48.4099
49.2783
50.1005
50.8756
51.6031
52.2826
52.9142
53.4978
54.034
54.5232
54.9662
55.3639
55.7172
56.0272
56.2948
56.5213
56.708
56.8562
56.9675
57.0434
57.0853
57.0948
57.0735
57.023
56.9448
56.8404
56.7113
56.559
56.3849
56.1903
55.9766
55.745
55.4967
55.2329
54.9547
54.6632
54.3593
54.044
53.7181
53.3825
53.0379
52.6852
52.3249
51.9577
51.5843
51.2051
50.8207
50.4315
50.038
49.6406
49.2396
48.8354
48.4284
48.0187
47.6066
47.1924
46.7763
46.3584
45.939
45.5181
45.096
44.6727
44.2483
43.823
43.3967
42.9696
42.5417
42.113
41.6836
41.2536
40.8229
40.3915
39.9594
39.5267
39.0934
38.6594
38.2247
37.7893
37.3532
36.9165
36.4789
36.0407
35.6016
35.1618
34.7212
34.2797
33.8375
33.3944
32.9504
32.5056
32.06
31.6134
31.1661
30.7179
30.2689
29.8191
29.3686
28.9173
28.4653
28.0127
27.5594
27.1056
26.6513
26.1965
25.7414
25.2861
24.8305
24.3749
23.9192
23.4637
23.0084
22.5534
22.0989
21.645
21.1918
20.7395
20.2881
19.838
19.3891
18.9417
18.4959
18.0519
17.6098
17.1698
16.7321
16.2969
15.8643
15.4344
15.0075
14.5837
14.1632
13.7462
13.3327
12.923
12.5173
12.1156
11.7181
11.325
10.9365
10.5526
10.1735
9.7994
9.43039
9.06663
8.70828
8.35552
8.00852
7.66747
7.33259
7.00413
6.68236
6.36764
6.06041
5.76125
5.47092
5.19043
4.92118
4.66509
4.42494
4.2049
4.0115
3.85579
3.7585
3.76335
3.98568
4.87341
10.2796
27.6282
14.3314
12.6614
12.706
13.3256
14.2218
15.2772
16.4335
17.6572
18.9275
20.2303
21.5557
22.8964
24.247
25.6028
26.9603
28.316
29.6671
31.0105
32.3435
33.6633
34.9672
36.2523
37.5159
38.7553
39.9678
41.1507
42.3016
43.418
44.4977
45.5385
46.5385
47.4961
48.4098
49.2782
50.1004
50.8755
51.603
52.2825
52.9141
53.4977
54.0339
54.5231
54.9661
55.3638
55.7172
56.0271
56.2947
56.5212
56.7079
56.8562
56.9675
57.0433
57.0852
57.0947
57.0735
57.023
56.9448
56.8404
56.7113
56.559
56.3848
56.1903
55.9765
55.7449
55.4967
55.2329
54.9547
54.6632
54.3593
54.0439
53.718
53.3824
53.0379
52.6851
52.3249
51.9577
51.5843
51.2051
50.8207
50.4315
50.038
49.6406
49.2396
48.8354
48.4283
48.0186
47.6066
47.1924
46.7763
46.3584
45.939
45.5181
45.096
44.6727
44.2483
43.8229
43.3967
42.9696
42.5417
42.113
41.6836
41.2536
40.8228
40.3915
39.9594
39.5267
39.0934
38.6594
38.2247
37.7893
37.3532
36.9164
36.4789
36.0407
35.6016
35.1618
34.7212
34.2797
33.8375
33.3943
32.9504
32.5056
32.0599
31.6134
31.1661
30.7179
30.2689
29.8191
29.3686
28.9173
28.4653
28.0126
27.5594
27.1056
26.6513
26.1965
25.7414
25.2861
24.8305
24.3749
23.9192
23.4637
23.0084
22.5534
22.0989
21.645
21.1918
20.7395
20.2881
19.838
19.3891
18.9417
18.4959
18.0519
17.6098
17.1698
16.7321
16.2969
15.8643
15.4344
15.0075
14.5837
14.1632
13.7462
13.3327
12.923
12.5173
12.1156
11.7181
11.325
10.9365
10.5526
10.1735
9.7994
9.43039
9.06663
8.70828
8.35552
8.00852
7.66747
7.33259
7.00413
6.68236
6.36764
6.06041
5.76125
5.47092
5.19043
4.92118
4.66509
4.42494
4.2049
4.0115
3.85579
3.7585
3.76335
3.98569
4.87343
10.2796
32.9881
16.9146
14.6562
14.4531
14.9352
15.7431
16.7359
17.8435
19.0263
20.259
21.525
22.8126
24.1131
25.4204
26.7294
28.0363
29.3377
30.6309
31.9133
33.1823
34.4358
35.6712
36.8864
38.0791
39.2469
40.3877
41.4992
42.5792
43.6258
44.6368
45.6106
46.5454
47.4397
48.2921
49.1015
49.867
50.5878
51.2633
51.8934
52.4777
53.0166
53.5101
53.9589
54.3636
54.7249
55.0438
55.3211
55.5579
55.7554
55.9147
56.0373
56.1244
56.1775
56.1981
56.1876
56.1476
56.0795
55.9848
55.865
55.7214
55.5556
55.3688
55.1624
54.9376
54.6956
54.4377
54.165
53.8785
53.5792
53.2682
52.9462
52.6142
52.2731
51.9234
51.566
51.2016
50.8307
50.4539
50.0718
49.6848
49.2935
48.8982
48.4993
48.0973
47.6923
47.2849
46.8751
46.4633
46.0496
45.6344
45.2177
44.7998
44.3807
43.9606
43.5397
43.118
42.6956
42.2725
41.8489
41.4248
41.0002
40.5752
40.1498
39.724
39.2978
38.8712
38.4442
38.0169
37.5891
37.161
36.7325
36.3035
35.8741
35.4442
35.0139
34.5831
34.1517
33.7198
33.2874
32.8545
32.4209
31.9868
31.5522
31.1169
30.6811
30.2447
29.8077
29.3702
28.9321
28.4936
28.0545
27.6151
27.1752
26.7349
26.2944
25.8536
25.4126
24.9715
24.5303
24.0892
23.6482
23.2074
22.7669
22.3268
21.8873
21.4483
21.0102
20.5729
20.1366
19.7014
19.2676
18.8351
18.4042
17.975
17.5477
17.1224
16.6993
16.2784
15.8601
15.4444
15.0314
14.6215
14.2146
13.811
13.4108
13.0141
12.6212
12.2322
11.8472
11.4664
11.0899
10.7179
10.3505
9.98785
9.63018
9.27761
8.93031
8.58848
8.25231
7.92202
7.59785
7.28009
6.96905
6.66513
6.36879
6.08062
5.80137
5.532
5.27379
5.02845
4.79836
4.5869
4.39913
4.24296
4.13175
4.09051
4.17221
4.51673
5.66726
12.2792
32.9883
16.9145
14.656
14.4529
14.935
15.743
16.7357
17.8433
19.0261
20.2588
21.5248
22.8124
24.1129
25.4202
26.7292
28.0361
29.3376
30.6308
31.9131
33.1822
34.4356
35.671
36.8862
38.0789
39.2468
40.3875
41.499
42.5791
43.6256
44.6367
45.6105
46.5453
47.4396
48.292
49.1014
49.8669
50.5877
51.2632
51.8933
52.4776
53.0165
53.51
53.9589
54.3635
54.7249
55.0437
55.321
55.5578
55.7553
55.9147
56.0372
56.1243
56.1774
56.198
56.1876
56.1476
56.0795
55.9848
55.8649
55.7214
55.5555
55.3687
55.1623
54.9375
54.6956
54.4377
54.165
53.8785
53.5792
53.2681
52.9462
52.6142
52.273
51.9234
51.566
51.2015
50.8306
50.4539
50.0717
49.6848
49.2934
48.8981
48.4993
48.0972
47.6923
47.2848
46.8751
46.4633
46.0496
45.6344
45.2177
44.7997
44.3807
43.9606
43.5397
43.118
42.6956
42.2725
41.8489
41.4248
41.0002
40.5752
40.1498
39.724
39.2977
38.8712
38.4442
38.0169
37.5891
37.161
36.7325
36.3035
35.8741
35.4442
35.0139
34.5831
34.1517
33.7198
33.2874
32.8545
32.4209
31.9868
31.5522
31.1169
30.6811
30.2447
29.8077
29.3702
28.9321
28.4936
28.0545
27.6151
27.1752
26.7349
26.2944
25.8536
25.4126
24.9715
24.5303
24.0892
23.6482
23.2074
22.7669
22.3268
21.8873
21.4483
21.0102
20.5729
20.1366
19.7014
19.2676
18.8351
18.4042
17.975
17.5477
17.1224
16.6993
16.2784
15.8601
15.4444
15.0314
14.6215
14.2146
13.811
13.4108
13.0141
12.6212
12.2322
11.8472
11.4664
11.0899
10.7179
10.3505
9.98785
9.63018
9.27761
8.93031
8.58848
8.25231
7.92202
7.59785
7.28009
6.96905
6.66513
6.36879
6.08062
5.80137
5.532
5.27379
5.02846
4.79836
4.5869
4.39913
4.24296
4.13175
4.09051
4.17222
4.51674
5.66728
12.2792
38.6508
19.6105
16.7699
16.3381
16.702
17.4397
18.3862
19.4602
20.6157
21.8235
23.0645
24.3252
25.596
26.8698
28.1414
29.4067
30.6625
31.906
33.1352
34.3477
35.5419
36.7158
37.8676
38.9955
40.0977
41.1724
42.2178
43.2321
44.2137
45.1608
46.072
46.9457
47.7807
48.5757
49.3298
50.0421
50.7119
51.3387
51.9223
52.4624
52.9592
53.413
53.824
54.1929
54.5204
54.8073
55.0544
55.2628
55.4335
55.5677
55.6666
55.7315
55.7638
55.7649
55.7362
55.679
55.5949
55.4852
55.3512
55.1945
55.0163
54.8179
54.6006
54.3657
54.1143
53.8475
53.5664
53.2721
52.9656
52.6478
52.3195
51.9817
51.635
51.2803
50.9182
50.5494
50.1745
49.7941
49.4087
49.0187
48.6246
48.2269
47.8259
47.422
47.0154
46.6066
46.1957
45.783
45.3688
44.9532
44.5363
44.1185
43.6997
43.2802
42.86
42.4393
42.0181
41.5965
41.1745
40.7522
40.3297
39.907
39.484
39.0609
38.6376
38.2141
37.7905
37.3667
36.9427
36.5185
36.0942
35.6696
35.2448
34.8197
34.3944
33.9688
33.5429
33.1167
32.6901
32.2632
31.836
31.4084
30.9805
30.5521
30.1234
29.6944
29.2649
28.8352
28.4051
27.9747
27.544
27.1131
26.682
26.2507
25.8193
25.3878
24.9563
24.5249
24.0936
23.6625
23.2316
22.8012
22.3711
21.9417
21.5128
21.0848
20.6576
20.2314
19.8063
19.3824
18.9599
18.5389
18.1195
17.7018
17.2861
16.8724
16.4609
16.0517
15.645
15.241
14.8397
14.4413
14.046
13.654
13.2653
12.8801
12.4986
12.1209
11.7472
11.3777
11.0124
10.6515
10.2952
9.9437
9.59711
9.25564
8.91948
8.58884
8.26397
7.94512
7.63258
7.32671
7.0279
6.73663
6.45348
6.17918
5.91463
5.661
5.41979
5.19306
4.9836
4.79539
4.63435
4.5098
4.43741
4.44635
4.59901
5.05984
6.46759
14.2829
38.651
19.6103
16.7697
16.3379
16.7018
17.4395
18.386
19.4601
20.6155
21.8234
23.0644
24.325
25.5958
26.8697
28.1412
29.4065
30.6623
31.9059
33.135
34.3476
35.5417
36.7156
37.8674
38.9953
40.0975
41.1722
42.2176
43.232
44.2135
45.1607
46.0718
46.9456
47.7806
48.5756
49.3297
50.042
50.7118
51.3386
51.9222
52.4623
52.9591
53.4129
53.8239
54.1928
54.5203
54.8072
55.0544
55.2627
55.4334
55.5676
55.6665
55.7315
55.7638
55.7649
55.7361
55.679
55.5948
55.4851
55.3512
55.1945
55.0163
54.8179
54.6006
54.3657
54.1142
53.8475
53.5664
53.2721
52.9656
52.6478
52.3195
51.9816
51.635
51.2803
50.9182
50.5494
50.1745
49.7941
49.4086
49.0187
48.6246
48.2269
47.8259
47.4219
47.0154
46.6066
46.1957
45.783
45.3688
44.9531
44.5363
44.1185
43.6997
43.2802
42.86
42.4393
42.0181
41.5965
41.1745
40.7522
40.3297
39.907
39.484
39.0609
38.6376
38.2141
37.7905
37.3667
36.9427
36.5185
36.0941
35.6696
35.2448
34.8197
34.3944
33.9688
33.5429
33.1167
32.6901
32.2632
31.836
31.4084
30.9804
30.5521
30.1234
29.6944
29.2649
28.8352
28.4051
27.9747
27.544
27.1131
26.682
26.2507
25.8193
25.3878
24.9563
24.5249
24.0936
23.6625
23.2316
22.8012
22.3711
21.9417
21.5128
21.0848
20.6576
20.2314
19.8063
19.3824
18.9599
18.5389
18.1195
17.7018
17.2861
16.8724
16.4609
16.0517
15.645
15.241
14.8397
14.4413
14.046
13.654
13.2653
12.8801
12.4986
12.1209
11.7472
11.3777
11.0124
10.6515
10.2952
9.9437
9.59711
9.25564
8.91948
8.58885
8.26397
7.94512
7.63258
7.32671
7.0279
6.73663
6.45348
6.17918
5.91463
5.661
5.4198
5.19306
4.9836
4.79539
4.63435
4.5098
4.43741
4.44635
4.59902
5.05985
6.46762
14.2829
44.4894
22.413
18.9968
18.3487
18.6071
19.2863
20.1969
21.2465
22.3825
23.5724
24.7944
26.0336
27.2794
28.5241
29.7621
30.9893
32.2026
33.3996
34.5782
35.737
36.8743
37.9889
39.0794
40.1445
41.183
42.1933
43.1743
44.1245
45.0425
45.9271
46.7769
47.5908
48.3677
49.1065
49.8063
50.4664
51.0862
51.6652
52.2032
52.7001
53.1558
53.5705
53.9447
54.2788
54.5734
54.8293
55.0473
55.2282
55.3731
55.4832
55.5595
55.6032
55.6157
55.5983
55.5522
55.4789
55.3797
55.2558
55.1087
54.9397
54.75
54.5409
54.3136
54.0693
53.8091
53.5342
53.2455
52.9441
52.6309
52.3069
51.9729
51.6297
51.278
50.9186
50.5523
50.1795
49.8009
49.417
49.0284
48.6356
48.2389
47.8388
47.4356
47.0298
46.6215
46.2112
45.799
45.3852
44.9701
44.5537
44.1364
43.7182
43.2992
42.8797
42.4597
42.0393
41.6186
41.1977
40.7766
40.3554
39.934
39.5126
39.0912
38.6698
38.2483
37.8269
37.4054
36.9839
36.5625
36.141
35.7195
35.2979
34.8762
34.4545
34.0327
33.6108
33.1887
32.7665
32.3442
31.9216
31.4989
31.076
30.6529
30.2295
29.806
29.3823
28.9584
28.5343
28.11
27.6856
27.2611
26.8365
26.4118
25.9871
25.5624
25.1378
24.7133
24.289
23.865
23.4412
23.0179
22.595
22.1728
21.7511
21.3302
20.9101
20.491
20.073
19.6561
19.2405
18.8263
18.4136
18.0026
17.5933
17.186
16.7807
16.3776
15.9768
15.5785
15.1827
14.7898
14.3996
14.0126
13.6286
13.248
12.8709
12.4973
12.1275
11.7617
11.3998
11.0422
10.689
10.3404
9.99644
9.65744
9.32356
8.99504
8.6721
8.35503
8.04413
7.73975
7.4423
7.15224
6.87015
6.59672
6.33279
6.07943
5.83798
5.6102
5.39845
5.20593
5.03723
4.89913
4.80232
4.7648
4.82003
5.03987
5.61386
7.27809
16.3022
44.4897
22.4128
18.9967
18.3485
18.6069
19.2861
20.1967
21.2463
22.3823
23.5722
24.7942
26.0335
27.2792
28.5239
29.7619
30.9892
32.2025
33.3994
34.5781
35.7368
36.8741
37.9887
39.0792
40.1444
41.1828
42.1932
43.1741
44.1243
45.0424
45.927
46.7768
47.5907
48.3676
49.1063
49.8062
50.4663
51.0861
51.6651
52.2031
52.7
53.1557
53.5704
53.9446
54.2787
54.5734
54.8293
55.0472
55.2282
55.3731
55.4831
55.5594
55.6032
55.6157
55.5983
55.5522
55.4789
55.3796
55.2558
55.1087
54.9397
54.75
54.5409
54.3136
54.0693
53.8091
53.5342
53.2455
52.9441
52.6309
52.3069
51.9729
51.6296
51.278
50.9186
50.5522
50.1794
49.8009
49.417
49.0284
48.6356
48.2389
47.8388
47.4356
47.0297
46.6215
46.2112
45.799
45.3852
44.97
44.5537
44.1363
43.7181
43.2992
42.8797
42.4597
42.0393
41.6186
41.1977
40.7766
40.3553
39.934
39.5126
39.0912
38.6698
38.2483
37.8268
37.4054
36.9839
36.5625
36.141
35.7194
35.2979
34.8762
34.4545
34.0327
33.6108
33.1887
32.7665
32.3441
31.9216
31.4989
31.076
30.6528
30.2295
29.806
29.3823
28.9584
28.5343
28.11
27.6856
27.2611
26.8365
26.4118
25.9871
25.5624
25.1378
24.7133
24.289
23.865
23.4412
23.0179
22.595
22.1727
21.7511
21.3302
20.9101
20.491
20.073
19.6561
19.2405
18.8263
18.4136
18.0026
17.5933
17.186
16.7807
16.3776
15.9768
15.5785
15.1827
14.7898
14.3996
14.0126
13.6286
13.248
12.8709
12.4973
12.1275
11.7617
11.3998
11.0422
10.689
10.3404
9.99644
9.65744
9.32356
8.99504
8.6721
8.35503
8.04413
7.73975
7.4423
7.15224
6.87015
6.59672
6.33279
6.07943
5.83798
5.61021
5.39845
5.20593
5.03723
4.89913
4.80232
4.7648
4.82003
5.03987
5.61387
7.27813
16.3022
50.5368
25.3288
21.3367
20.4799
20.6414
21.2697
22.1512
23.1817
24.3026
25.4778
26.6834
27.9029
29.125
30.3414
31.5463
32.7357
33.9066
35.0568
36.1848
37.2894
38.3696
39.4245
40.4533
41.4553
42.4295
43.3752
44.2913
45.1769
46.0311
46.8527
47.6409
48.3947
49.1131
49.7953
50.4406
51.0482
51.6178
52.1489
52.6412
53.0946
53.5091
53.8848
54.2222
54.5215
54.7834
55.0085
55.1975
55.3512
55.4708
55.557
55.6111
55.6341
55.6273
55.5918
55.529
55.44
55.3262
55.1889
55.0292
54.8485
54.648
54.4288
54.1922
53.9392
53.6709
53.3885
53.0929
52.785
52.4659
52.1363
51.7972
51.4492
51.0931
50.7297
50.3596
49.9833
49.6016
49.2148
48.8236
48.4283
48.0294
47.6273
47.2223
46.8149
46.4052
45.9937
45.5804
45.1657
44.7499
44.3329
43.9152
43.4967
43.0776
42.6581
42.2383
41.8182
41.3979
40.9775
40.5571
40.1367
39.7163
39.296
38.8758
38.4557
38.0357
37.6159
37.1962
36.7766
36.3571
35.9377
35.5185
35.0993
34.6802