/*--------------------------------*- C++ -*----------------------------------*\
  =========                 |
  \\      /  F ield         | OpenFOAM: The Open Source CFD Toolbox
   \\    /   O peration     | Website:  https://openfoam.org
    \\  /    A nd           | Version:  8
     \\/     M anipulation  |
\*---------------------------------------------------------------------------*/
FoamFile
{
    version     2.0;
    format      ascii;
    class       volScalarField;
    location    "3500";
    object      nut;
}
// * * * * * * * * * * * * * * * * * * * * * * * * * * * * * * * * * * * * * //

dimensions      [0 2 -1 0 0 0 0];

internalField   nonuniform List<scalar> 
48000
(
4.97665e-05
8.46982e-05
0.000107854
0.000123285
0.000136157
0.000146963
0.000156332
0.000164658
0.000172336
0.000179404
0.000185961
0.000192091
0.00019785
0.000203282
0.000208421
0.000213295
0.000217926
0.000222331
0.000226525
0.000230521
0.00023433
0.000237959
0.000241417
0.000244711
0.000247847
0.000250831
0.000253667
0.000256361
0.000258916
0.000261339
0.000263631
0.000265799
0.000267844
0.000269772
0.000271586
0.00027329
0.000274887
0.000276381
0.000277775
0.000279073
0.000280278
0.000281393
0.000282422
0.000283368
0.000284251
0.00028506
0.000285794
0.000286456
0.00028705
0.000287578
0.000288044
0.00028845
0.0002888
0.000289095
0.000289339
0.000289534
0.000289682
0.000289785
0.000289846
0.000289867
0.00028985
0.000289796
0.000289708
0.000289586
0.000289434
0.000289252
0.000289042
0.000288804
0.000288542
0.000288255
0.000287945
0.000287613
0.00028726
0.000286887
0.000286495
0.000286085
0.000285657
0.000285212
0.000284752
0.000284276
0.000283785
0.000283279
0.00028276
0.000282227
0.000281681
0.000281123
0.000280552
0.000279969
0.000279374
0.000278768
0.00027815
0.000277521
0.00027688
0.000276229
0.000275567
0.000274893
0.000274209
0.000273514
0.000272808
0.000272091
0.000271363
0.000270624
0.000269874
0.000269112
0.000268339
0.000267554
0.000266758
0.00026595
0.000265129
0.000264296
0.000263451
0.000262593
0.000261722
0.000260837
0.000259939
0.000259027
0.000258102
0.000257161
0.000256206
0.000255237
0.000254252
0.000253251
0.000252234
0.000251202
0.000250152
0.000249086
0.000248003
0.000246902
0.000245783
0.000244646
0.000243491
0.000242316
0.000241122
0.000239909
0.000238675
0.000237422
0.000236147
0.000234852
0.000233535
0.000232197
0.000230836
0.000229453
0.000228048
0.000226619
0.000225167
0.000223691
0.000222191
0.000220667
0.000219118
0.000217544
0.000215944
0.000214318
0.000212667
0.000210988
0.000209283
0.00020755
0.000205789
0.000204001
0.000202183
0.000200336
0.00019846
0.000196553
0.000194616
0.000192647
0.000190645
0.000188611
0.000186543
0.00018444
0.000182301
0.000180125
0.00017791
0.000175656
0.00017336
0.000171021
0.000168636
0.000166202
0.000163718
0.00016118
0.000158585
0.000155928
0.000153208
0.000150428
0.000147589
0.000144663
0.000141635
0.000138493
0.000135222
0.000131801
0.000128206
0.000124405
0.000120355
0.000116003
0.000111325
0.000106179
0.000100404
9.37442e-05
8.5757e-05
7.56077e-05
6.28139e-05
0.000192053
0.000129409
8.79857e-05
0.000108024
0.000123303
0.000136161
0.000146964
0.000156332
0.000164658
0.000172337
0.000179404
0.000185961
0.000192091
0.00019785
0.000203282
0.000208422
0.000213296
0.000217926
0.000222331
0.000226526
0.000230522
0.00023433
0.000237959
0.000241417
0.000244711
0.000247847
0.000250831
0.000253667
0.000256361
0.000258917
0.000261339
0.000263632
0.000265799
0.000267845
0.000269772
0.000271586
0.00027329
0.000274887
0.000276381
0.000277775
0.000279073
0.000280278
0.000281393
0.000282422
0.000283368
0.000284251
0.00028506
0.000285794
0.000286456
0.00028705
0.000287578
0.000288044
0.00028845
0.0002888
0.000289095
0.000289339
0.000289534
0.000289682
0.000289785
0.000289846
0.000289867
0.00028985
0.000289796
0.000289708
0.000289586
0.000289434
0.000289252
0.000289041
0.000288804
0.000288542
0.000288255
0.000287945
0.000287613
0.00028726
0.000286887
0.000286495
0.000286085
0.000285657
0.000285212
0.000284752
0.000284276
0.000283784
0.000283279
0.00028276
0.000282227
0.000281681
0.000281123
0.000280552
0.000279969
0.000279374
0.000278768
0.00027815
0.000277521
0.00027688
0.000276229
0.000275567
0.000274893
0.000274209
0.000273514
0.000272808
0.000272091
0.000271363
0.000270624
0.000269874
0.000269112
0.000268339
0.000267554
0.000266758
0.00026595
0.000265129
0.000264296
0.000263451
0.000262593
0.000261722
0.000260837
0.000259939
0.000259027
0.000258102
0.000257161
0.000256206
0.000255237
0.000254252
0.000253251
0.000252234
0.000251202
0.000250152
0.000249086
0.000248003
0.000246902
0.000245783
0.000244646
0.000243491
0.000242316
0.000241122
0.000239909
0.000238675
0.000237422
0.000236147
0.000234852
0.000233535
0.000232197
0.000230836
0.000229453
0.000228048
0.000226619
0.000225167
0.000223691
0.000222191
0.000220667
0.000219118
0.000217544
0.000215944
0.000214318
0.000212667
0.000210988
0.000209283
0.00020755
0.000205789
0.000204001
0.000202183
0.000200336
0.00019846
0.000196553
0.000194616
0.000192647
0.000190645
0.000188611
0.000186543
0.00018444
0.000182301
0.000180125
0.00017791
0.000175656
0.00017336
0.000171021
0.000168636
0.000166202
0.000163718
0.00016118
0.000158585
0.000155928
0.000153208
0.000150428
0.000147589
0.000144663
0.000141635
0.000138493
0.000135222
0.000131801
0.000128206
0.000124405
0.000120355
0.000116003
0.000111325
0.000106179
0.000100404
9.3744e-05
8.57563e-05
7.56065e-05
6.28191e-05
0.000192063
7.42634e-05
0.000559056
0.000888822
0.00111916
0.00129003
0.00142977
0.00154964
0.00165504
0.00174885
0.00183375
0.00191142
0.00198302
0.00204943
0.00211133
0.00216925
0.00222361
0.00227475
0.00232297
0.0023685
0.00241154
0.00245228
0.00249087
0.00252743
0.00256208
0.00259494
0.0026261
0.00265563
0.00268362
0.00271014
0.00273526
0.00275903
0.00278151
0.00280276
0.00282282
0.00284175
0.00285959
0.00287638
0.00289216
0.00290697
0.00292084
0.00293382
0.00294592
0.00295715
0.00296748
0.00297674
0.00298522
0.00299299
0.00300011
0.00300662
0.00301256
0.00301793
0.00302278
0.00302712
0.00303098
0.00303437
0.00303731
0.00303982
0.00304193
0.00304364
0.00304498
0.00304596
0.00304659
0.00304689
0.00304687
0.00304654
0.00304593
0.00304503
0.00304387
0.00304244
0.00304077
0.00303886
0.00303672
0.00303436
0.00303178
0.003029
0.00302602
0.00302285
0.00301949
0.00301596
0.00301225
0.00300837
0.00300432
0.00300012
0.00299575
0.00299124
0.00298657
0.00298176
0.0029768
0.0029717
0.00296646
0.00296107
0.00295555
0.0029499
0.00294411
0.00293818
0.00293211
0.00292592
0.00291958
0.00291311
0.00290651
0.00289977
0.00289289
0.00288587
0.00287872
0.00287142
0.00286398
0.0028564
0.00284867
0.00284079
0.00283277
0.00282459
0.00281626
0.00280777
0.00279912
0.00279031
0.00278134
0.0027722
0.00276289
0.0027534
0.00274375
0.00273391
0.00272389
0.00271368
0.00270329
0.0026927
0.00268192
0.00267094
0.00265976
0.00264838
0.00263678
0.00262498
0.00261296
0.00260072
0.00258825
0.00257556
0.00256264
0.00254949
0.0025361
0.00252248
0.0025086
0.00249448
0.00248011
0.00246549
0.0024506
0.00243546
0.00242005
0.00240436
0.00238841
0.00237218
0.00235567
0.00233887
0.00232178
0.0023044
0.00228672
0.00226874
0.00225045
0.00223185
0.00221293
0.00219368
0.00217411
0.00215419
0.00213393
0.00211332
0.00209234
0.002071
0.00204927
0.00202715
0.00200462
0.00198167
0.00195829
0.00193445
0.00191014
0.00188533
0.00185999
0.0018341
0.00180763
0.00178053
0.00175275
0.00172424
0.00169492
0.00166468
0.00163337
0.00160084
0.00156709
0.00153203
0.0014955
0.00145728
0.00141713
0.00137467
0.0013294
0.00128062
0.00122715
0.00116681
0.00109871
0.00101998
0.00092581
0.000807535
0.000647639
0.000406343
5.46147e-05
7.66728e-05
0.000561244
0.000889312
0.00111926
0.00129007
0.00142979
0.00154966
0.00165505
0.00174887
0.00183376
0.00191143
0.00198303
0.00204945
0.00211135
0.00216926
0.00222362
0.00227476
0.00232298
0.00236851
0.00241155
0.00245229
0.00249088
0.00252744
0.00256209
0.00259495
0.00262611
0.00265564
0.00268363
0.00271015
0.00273526
0.00275903
0.00278152
0.00280277
0.00282283
0.00284176
0.0028596
0.00287639
0.00289217
0.00290698
0.00292085
0.00293383
0.00294592
0.00295716
0.00296748
0.00297675
0.00298523
0.002993
0.00300012
0.00300663
0.00301256
0.00301794
0.00302279
0.00302713
0.00303098
0.00303437
0.00303731
0.00303983
0.00304194
0.00304365
0.00304499
0.00304596
0.00304659
0.00304689
0.00304687
0.00304655
0.00304593
0.00304504
0.00304387
0.00304245
0.00304078
0.00303886
0.00303672
0.00303436
0.00303179
0.00302901
0.00302603
0.00302286
0.0030195
0.00301596
0.00301225
0.00300837
0.00300433
0.00300012
0.00299576
0.00299124
0.00298658
0.00298176
0.00297681
0.0029717
0.00296646
0.00296108
0.00295556
0.0029499
0.00294411
0.00293818
0.00293212
0.00292592
0.00291959
0.00291312
0.00290652
0.00289977
0.0028929
0.00288588
0.00287872
0.00287143
0.00286399
0.00285641
0.00284868
0.0028408
0.00283277
0.0028246
0.00281626
0.00280777
0.00279913
0.00279032
0.00278134
0.0027722
0.00276289
0.00275341
0.00274375
0.00273391
0.00272389
0.00271369
0.00270329
0.00269271
0.00268193
0.00267095
0.00265977
0.00264838
0.00263679
0.00262498
0.00261296
0.00260072
0.00258826
0.00257557
0.00256265
0.0025495
0.00253611
0.00252248
0.00250861
0.00249449
0.00248012
0.00246549
0.00245061
0.00243546
0.00242005
0.00240437
0.00238842
0.00237218
0.00235567
0.00233887
0.00232179
0.00230441
0.00228673
0.00226875
0.00225046
0.00223185
0.00221293
0.00219369
0.00217411
0.00215419
0.00213393
0.00211332
0.00209235
0.002071
0.00204927
0.00202715
0.00200462
0.00198168
0.00195829
0.00193445
0.00191014
0.00188533
0.00186
0.00183411
0.00180763
0.00178053
0.00175276
0.00172425
0.00169492
0.00166468
0.00163337
0.00160085
0.0015671
0.00153203
0.0014955
0.00145729
0.00141713
0.00137467
0.00132941
0.00128062
0.00122715
0.00116681
0.00109872
0.00101998
0.00092581
0.000807535
0.000647645
0.000406338
5.46059e-05
9.30327e-05
0.000850337
0.00151283
0.00200868
0.00239861
0.00272173
0.00299906
0.00324272
0.00346008
0.00365632
0.00383513
0.00399918
0.00415053
0.00429078
0.00442121
0.00454286
0.0046566
0.00476317
0.00486319
0.00495721
0.0050457
0.00512906
0.00520768
0.00528188
0.00535196
0.00541817
0.00548076
0.00553995
0.00559593
0.00564889
0.00569899
0.00574638
0.00579121
0.00583361
0.00587368
0.00591156
0.00594733
0.0059811
0.00601295
0.00604296
0.0060712
0.00609773
0.00612258
0.00614575
0.00616718
0.0061871
0.00620563
0.00622288
0.0062389
0.00625378
0.00626757
0.00628031
0.00629205
0.00630283
0.0063127
0.00632168
0.00632981
0.00633712
0.00634365
0.00634943
0.00635448
0.00635884
0.00636252
0.00636555
0.00636795
0.00636976
0.00637098
0.00637164
0.00637176
0.00637136
0.00637045
0.00636905
0.00636718
0.00636485
0.00636207
0.00635885
0.00635522
0.00635118
0.00634673
0.0063419
0.00633669
0.0063311
0.00632515
0.00631884
0.00631218
0.00630517
0.00629782
0.00629014
0.00628212
0.00627378
0.0062651
0.00625611
0.00624679
0.00623715
0.00622719
0.00621692
0.00620632
0.00619541
0.00618417
0.00617261
0.00616074
0.00614853
0.006136
0.00612314
0.00610995
0.00609643
0.00608256
0.00606836
0.00605381
0.00603891
0.00602365
0.00600803
0.00599205
0.0059757
0.00595898
0.00594188
0.00592439
0.00590651
0.00588823
0.00586954
0.00585045
0.00583093
0.005811
0.00579063
0.00576982
0.00574857
0.00572687
0.00570471
0.00568208
0.00565898
0.00563539
0.00561131
0.00558674
0.00556166
0.00553607
0.00550995
0.0054833
0.00545612
0.00542839
0.0054001
0.00537125
0.00534182
0.00531181
0.00528121
0.00525001
0.0052182
0.00518576
0.0051527
0.00511899
0.00508463
0.00504961
0.00501391
0.00497752
0.00494043
0.00490262
0.00486408
0.0048248
0.00478475
0.00474393
0.0047023
0.00465986
0.00461657
0.00457242
0.00452738
0.00448142
0.0044345
0.00438661
0.00433768
0.0042877
0.0042366
0.00418434
0.00413086
0.00407609
0.00401995
0.00396237
0.00390324
0.00384245
0.00377986
0.00371532
0.00364862
0.00357954
0.00350777
0.00343304
0.00335505
0.00327344
0.00318769
0.00309715
0.00300105
0.0028983
0.0027875
0.00266669
0.00253313
0.00238286
0.00221162
0.00201249
0.00177479
0.00148151
0.00110511
0.000605621
6.64175e-05
9.31961e-05
0.000850776
0.00151303
0.00200876
0.00239866
0.00272177
0.00299909
0.00324275
0.00346011
0.00365636
0.00383516
0.00399921
0.00415056
0.00429081
0.00442123
0.00454288
0.00465662
0.00476319
0.00486321
0.00495723
0.00504572
0.00512908
0.0052077
0.0052819
0.00535197
0.00541819
0.00548078
0.00553996
0.00559595
0.0056489
0.005699
0.0057464
0.00579122
0.00583362
0.0058737
0.00591157
0.00594734
0.00598111
0.00601296
0.00604296
0.00607121
0.00609774
0.00612259
0.00614576
0.00616719
0.00618711
0.00620564
0.00622288
0.00623891
0.00625379
0.00626757
0.00628031
0.00629206
0.00630284
0.0063127
0.00632168
0.00632981
0.00633713
0.00634366
0.00634944
0.00635449
0.00635884
0.00636252
0.00636555
0.00636796
0.00636976
0.00637098
0.00637165
0.00637177
0.00637136
0.00637045
0.00636905
0.00636718
0.00636485
0.00636207
0.00635886
0.00635522
0.00635118
0.00634673
0.0063419
0.00633669
0.0063311
0.00632515
0.00631884
0.00631218
0.00630517
0.00629782
0.00629014
0.00628212
0.00627378
0.00626511
0.00625611
0.00624679
0.00623715
0.0062272
0.00621692
0.00620632
0.00619541
0.00618417
0.00617262
0.00616074
0.00614853
0.006136
0.00612315
0.00610995
0.00609643
0.00608257
0.00606836
0.00605381
0.00603891
0.00602365
0.00600803
0.00599205
0.00597571
0.00595898
0.00594188
0.00592439
0.00590651
0.00588823
0.00586954
0.00585045
0.00583093
0.005811
0.00579063
0.00576983
0.00574858
0.00572687
0.00570471
0.00568208
0.00565898
0.00563539
0.00561132
0.00558674
0.00556166
0.00553607
0.00550995
0.0054833
0.00545612
0.00542839
0.0054001
0.00537125
0.00534182
0.00531181
0.00528121
0.00525001
0.0052182
0.00518576
0.0051527
0.00511899
0.00508463
0.00504961
0.00501391
0.00497752
0.00494043
0.00490262
0.00486408
0.0048248
0.00478475
0.00474393
0.0047023
0.00465986
0.00461657
0.00457242
0.00452738
0.00448142
0.0044345
0.00438661
0.00433768
0.0042877
0.0042366
0.00418434
0.00413086
0.00407609
0.00401995
0.00396237
0.00390324
0.00384245
0.00377986
0.00371532
0.00364862
0.00357954
0.00350777
0.00343304
0.00335505
0.00327344
0.00318769
0.00309715
0.00300105
0.0028983
0.0027875
0.00266669
0.00253314
0.00238286
0.00221162
0.00201249
0.00177479
0.00148151
0.00110511
0.000605617
6.64186e-05
0.000105495
0.00102724
0.00193218
0.00265037
0.0032364
0.00373076
0.00415879
0.00453662
0.00487489
0.00518102
0.00546034
0.00571684
0.00595356
0.00617291
0.00637683
0.00656692
0.0067445
0.00691072
0.00706654
0.00721284
0.00735034
0.00747973
0.0076016
0.00771649
0.00782487
0.00792719
0.00802384
0.00811519
0.00820157
0.00828329
0.00836062
0.00843381
0.00850311
0.00856874
0.00863088
0.00868972
0.00874544
0.00879818
0.00884809
0.0088953
0.00893993
0.00898206
0.00902179
0.00905915
0.00909421
0.00912712
0.00915804
0.00918707
0.00921434
0.00923992
0.00926391
0.00928636
0.00930736
0.00932695
0.00934521
0.00936217
0.0093779
0.00939243
0.00940581
0.00941809
0.0094293
0.00943948
0.00944867
0.0094569
0.00946421
0.00947062
0.00947616
0.00948086
0.00948475
0.00948786
0.0094902
0.0094918
0.00949267
0.00949285
0.00949234
0.00949117
0.00948935
0.00948689
0.00948382
0.00948013
0.00947586
0.009471
0.00946556
0.00945956
0.00945301
0.0094459
0.00943826
0.00943008
0.00942136
0.00941212
0.00940236
0.00939208
0.00938128
0.00936997
0.00935814
0.0093458
0.00933294
0.00931957
0.00930568
0.00929127
0.00927634
0.00926089
0.00924491
0.0092284
0.00921135
0.00919376
0.00917563
0.00915695
0.00913771
0.00911791
0.00909753
0.00907658
0.00905505
0.00903292
0.00901019
0.00898686
0.0089629
0.00893832
0.00891311
0.00888724
0.00886072
0.00883354
0.00880568
0.00877713
0.00874789
0.00871793
0.00868726
0.00865585
0.00862371
0.0085908
0.00855713
0.00852268
0.00848743
0.00845138
0.00841451
0.0083768
0.00833825
0.00829884
0.00825856
0.00821738
0.0081753
0.0081323
0.00808837
0.00804348
0.00799763
0.00795078
0.00790294
0.00785407
0.00780416
0.00775319
0.00770113
0.00764797
0.00759368
0.00753824
0.00748162
0.00742379
0.00736473
0.00730439
0.00724276
0.00717979
0.00711545
0.00704969
0.00698247
0.00691374
0.00684344
0.00677152
0.00669792
0.00662256
0.00654536
0.00646624
0.0063851
0.00630184
0.00621633
0.00612842
0.00603798
0.00594481
0.00584871
0.00574944
0.00564671
0.00554019
0.00542949
0.00531415
0.00519364
0.00506738
0.00493464
0.0047945
0.00464582
0.00448714
0.00431663
0.00413191
0.00392988
0.0037064
0.00345596
0.00317137
0.00284324
0.00245779
0.00199555
0.00143019
0.000737807
7.5628e-05
0.000105508
0.00102732
0.00193225
0.00265042
0.00323645
0.00373081
0.00415884
0.00453666
0.00487494
0.00518107
0.00546039
0.00571688
0.0059536
0.00617295
0.00637687
0.00656696
0.00674454
0.00691075
0.00706658
0.00721287
0.00735037
0.00747976
0.00760163
0.00771651
0.00782489
0.00792721
0.00802386
0.00811521
0.00820159
0.00828331
0.00836063
0.00843383
0.00850313
0.00856875
0.00863089
0.00868973
0.00874545
0.00879819
0.0088481
0.00889531
0.00893994
0.00898207
0.00902179
0.00905916
0.00909421
0.00912713
0.00915804
0.00918708
0.00921434
0.00923993
0.00926391
0.00928637
0.00930736
0.00932696
0.00934521
0.00936218
0.0093779
0.00939243
0.00940581
0.00941809
0.0094293
0.00943948
0.00944867
0.0094569
0.00946421
0.00947062
0.00947616
0.00948086
0.00948476
0.00948786
0.0094902
0.0094918
0.00949267
0.00949285
0.00949234
0.00949117
0.00948935
0.00948689
0.00948382
0.00948013
0.00947586
0.00947099
0.00946556
0.00945956
0.009453
0.0094459
0.00943826
0.00943007
0.00942136
0.00941212
0.00940236
0.00939208
0.00938128
0.00936997
0.00935814
0.0093458
0.00933294
0.00931957
0.00930568
0.00929127
0.00927634
0.00926089
0.00924491
0.00922839
0.00921135
0.00919376
0.00917563
0.00915695
0.00913771
0.0091179
0.00909753
0.00907658
0.00905505
0.00903292
0.00901019
0.00898685
0.0089629
0.00893832
0.0089131
0.00888724
0.00886072
0.00883354
0.00880568
0.00877713
0.00874788
0.00871793
0.00868726
0.00865585
0.0086237
0.0085908
0.00855712
0.00852267
0.00848743
0.00845137
0.0084145
0.0083768
0.00833825
0.00829884
0.00825855
0.00821738
0.0081753
0.0081323
0.00808836
0.00804348
0.00799762
0.00795078
0.00790293
0.00785407
0.00780416
0.00775318
0.00770113
0.00764797
0.00759368
0.00753824
0.00748161
0.00742379
0.00736472
0.00730439
0.00724276
0.00717979
0.00711545
0.00704969
0.00698247
0.00691373
0.00684344
0.00677152
0.00669792
0.00662255
0.00654536
0.00646624
0.0063851
0.00630183
0.00621632
0.00612842
0.00603798
0.00594481
0.00584871
0.00574944
0.00564671
0.00554019
0.00542949
0.00531414
0.00519364
0.00506738
0.00493464
0.00479449
0.00464581
0.00448714
0.00431663
0.00413191
0.00392988
0.00370639
0.00345596
0.00317137
0.00284324
0.00245779
0.00199555
0.00143019
0.000737806
7.56284e-05
0.000115524
0.00114752
0.00223156
0.00312878
0.00387882
0.00452057
0.00508113
0.00557888
0.00602653
0.00643311
0.00680521
0.00714782
0.00746474
0.00775902
0.00803309
0.00828898
0.00852836
0.0087527
0.00896323
0.00916106
0.00934715
0.00952237
0.00968749
0.00984324
0.00999023
0.0101291
0.0102603
0.0103844
0.0105017
0.0106129
0.0107181
0.0108178
0.0109123
0.0110019
0.0110868
0.0111674
0.0112438
0.0113163
0.0113851
0.0114503
0.0115121
0.0115707
0.0116262
0.0116787
0.0117282
0.0117751
0.0118193
0.0118612
0.0119007
0.011938
0.0119733
0.0120065
0.0120379
0.0120674
0.0120952
0.0121213
0.0121457
0.0121687
0.0121901
0.0122101
0.0122287
0.012246
0.012262
0.0122767
0.0122902
0.0123026
0.0123138
0.0123239
0.0123329
0.0123409
0.0123479
0.0123539
0.012359
0.0123631
0.0123663
0.0123687
0.0123701
0.0123707
0.0123705
0.0123695
0.0123676
0.012365
0.0123616
0.0123574
0.0123525
0.0123468
0.0123404
0.0123333
0.0123254
0.0123168
0.0123075
0.0122975
0.0122868
0.0122753
0.0122632
0.0122503
0.0122368
0.0122225
0.0122075
0.0121918
0.0121754
0.0121582
0.0121404
0.0121217
0.0121024
0.0120823
0.0120615
0.0120399
0.0120175
0.0119944
0.0119704
0.0119457
0.0119202
0.0118938
0.0118666
0.0118386
0.0118098
0.01178
0.0117494
0.0117179
0.0116855
0.0116522
0.011618
0.0115828
0.0115467
0.0115096
0.0114715
0.0114323
0.0113922
0.011351
0.0113088
0.0112655
0.0112211
0.0111756
0.011129
0.0110812
0.0110322
0.0109821
0.0109307
0.0108782
0.0108243
0.0107692
0.0107128
0.0106551
0.010596
0.0105355
0.0104737
0.0104104
0.0103456
0.0102794
0.0102117
0.0101423
0.0100714
0.00999891
0.00992471
0.0098488
0.00977113
0.00969166
0.00961033
0.0095271
0.00944189
0.00935465
0.0092653
0.00917378
0.00908
0.00898387
0.00888529
0.00878416
0.00868035
0.00857374
0.00846418
0.0083515
0.00823553
0.00811604
0.00799281
0.00786557
0.007734
0.00759776
0.00745642
0.0073095
0.00715644
0.00699658
0.00682916
0.00665327
0.00646782
0.00627149
0.00606263
0.00583921
0.00559869
0.00533785
0.00505262
0.00473773
0.00438654
0.00399033
0.00353821
0.0030156
0.00240373
0.0016809
0.000838685
8.29903e-05
0.000115526
0.00114754
0.00223159
0.00312883
0.00387886
0.00452063
0.00508118
0.00557894
0.00602658
0.00643316
0.00680527
0.00714787
0.0074648
0.00775907
0.00803314
0.00828902
0.00852841
0.00875274
0.00896327
0.0091611
0.00934719
0.00952241
0.00968753
0.00984327
0.00999026
0.0101291
0.0102603
0.0103844
0.0105018
0.0106129
0.0107181
0.0108178
0.0109123
0.0110019
0.0110868
0.0111674
0.0112438
0.0113163
0.0113851
0.0114503
0.0115122
0.0115707
0.0116262
0.0116787
0.0117282
0.0117751
0.0118193
0.0118612
0.0119007
0.011938
0.0119733
0.0120065
0.0120379
0.0120674
0.0120952
0.0121213
0.0121458
0.0121687
0.0121901
0.0122101
0.0122287
0.012246
0.012262
0.0122767
0.0122902
0.0123026
0.0123138
0.0123239
0.0123329
0.0123409
0.0123479
0.0123539
0.012359
0.0123631
0.0123663
0.0123687
0.0123701
0.0123707
0.0123705
0.0123695
0.0123676
0.012365
0.0123616
0.0123574
0.0123525
0.0123468
0.0123404
0.0123333
0.0123254
0.0123168
0.0123075
0.0122975
0.0122868
0.0122753
0.0122632
0.0122503
0.0122368
0.0122225
0.0122075
0.0121918
0.0121754
0.0121582
0.0121404
0.0121217
0.0121024
0.0120823
0.0120615
0.0120399
0.0120175
0.0119943
0.0119704
0.0119457
0.0119202
0.0118938
0.0118666
0.0118386
0.0118097
0.01178
0.0117494
0.0117179
0.0116855
0.0116522
0.011618
0.0115828
0.0115467
0.0115096
0.0114714
0.0114323
0.0113922
0.011351
0.0113088
0.0112655
0.0112211
0.0111756
0.011129
0.0110812
0.0110322
0.0109821
0.0109307
0.0108782
0.0108243
0.0107692
0.0107128
0.0106551
0.010596
0.0105355
0.0104737
0.0104104
0.0103456
0.0102794
0.0102117
0.0101423
0.0100714
0.00999891
0.00992471
0.0098488
0.00977113
0.00969166
0.00961033
0.00952709
0.00944188
0.00935464
0.0092653
0.00917377
0.00907999
0.00898386
0.00888528
0.00878415
0.00868035
0.00857374
0.00846417
0.0083515
0.00823552
0.00811603
0.0079928
0.00786556
0.007734
0.00759775
0.00745641
0.00730949
0.00715643
0.00699657
0.00682915
0.00665326
0.00646782
0.00627148
0.00606262
0.00583921
0.00559868
0.00533785
0.00505261
0.00473773
0.00438653
0.00399033
0.00353821
0.0030156
0.00240373
0.0016809
0.000838683
8.29904e-05
0.000124044
0.00124307
0.0024636
0.00350345
0.00438827
0.00515404
0.00582811
0.00643006
0.00697387
0.0074697
0.00792504
0.00834561
0.0087358
0.0090991
0.00943834
0.00975584
0.0100535
0.0103331
0.0105961
0.0108436
0.0110768
0.0112967
0.0115043
0.0117004
0.0118857
0.0120609
0.0122267
0.0123836
0.0125323
0.0126731
0.0128067
0.0129333
0.0130535
0.0131676
0.0132759
0.0133788
0.0134765
0.0135694
0.0136576
0.0137415
0.0138211
0.0138968
0.0139687
0.0140369
0.0141016
0.014163
0.0142213
0.0142766
0.014329
0.0143788
0.014426
0.0144707
0.0145131
0.0145533
0.0145913
0.0146273
0.0146613
0.0146934
0.0147236
0.0147521
0.0147789
0.0148041
0.0148277
0.0148497
0.0148702
0.0148894
0.0149071
0.0149234
0.0149385
0.0149523
0.0149648
0.0149761
0.0149863
0.0149953
0.0150032
0.0150099
0.0150156
0.0150203
0.0150239
0.0150264
0.015028
0.0150286
0.0150283
0.0150269
0.0150247
0.0150215
0.0150173
0.0150123
0.0150063
0.0149994
0.0149916
0.0149829
0.0149733
0.0149628
0.0149515
0.0149392
0.014926
0.0149119
0.0148969
0.014881
0.0148642
0.0148465
0.0148279
0.0148083
0.0147878
0.0147663
0.0147439
0.0147205
0.0146962
0.0146708
0.0146445
0.0146172
0.0145888
0.0145594
0.0145289
0.0144974
0.0144648
0.0144311
0.0143963
0.0143604
0.0143233
0.014285
0.0142456
0.014205
0.0141632
0.0141201
0.0140758
0.0140301
0.0139832
0.013935
0.0138854
0.0138345
0.0137821
0.0137284
0.0136732
0.0136165
0.0135584
0.0134987
0.0134375
0.0133747
0.0133103
0.0132443
0.0131766
0.0131072
0.0130361
0.0129632
0.0128885
0.0128119
0.0127335
0.0126531
0.0125708
0.0124865
0.0124001
0.0123115
0.0122208
0.0121279
0.0120327
0.0119351
0.0118351
0.0117326
0.0116275
0.0115197
0.0114092
0.0112958
0.0111794
0.0110599
0.0109372
0.0108111
0.0106814
0.0105481
0.0104108
0.0102694
0.0101235
0.00997302
0.00981754
0.00965669
0.00949009
0.00931725
0.00913761
0.00895056
0.00875535
0.00855112
0.00833685
0.00811136
0.00787323
0.00762073
0.00735178
0.00706383
0.00675375
0.00641766
0.00605078
0.00564708
0.00519911
0.00469748
0.00413049
0.00348418
0.00274157
0.00188601
0.000921581
8.92112e-05
0.000124044
0.00124308
0.00246363
0.00350349
0.00438832
0.00515409
0.00582817
0.00643012
0.00697394
0.00746976
0.00792511
0.00834567
0.00873586
0.00909916
0.00943839
0.00975589
0.0100536
0.0103332
0.0105961
0.0108436
0.0110768
0.0112968
0.0115044
0.0117004
0.0118857
0.0120609
0.0122267
0.0123837
0.0125323
0.0126732
0.0128067
0.0129334
0.0130536
0.0131676
0.0132759
0.0133788
0.0134765
0.0135694
0.0136576
0.0137415
0.0138211
0.0138968
0.0139687
0.0140369
0.0141016
0.014163
0.0142213
0.0142766
0.014329
0.0143788
0.014426
0.0144707
0.0145131
0.0145533
0.0145913
0.0146273
0.0146613
0.0146934
0.0147236
0.0147521
0.0147789
0.0148041
0.0148277
0.0148497
0.0148702
0.0148894
0.0149071
0.0149234
0.0149385
0.0149523
0.0149648
0.0149761
0.0149863
0.0149953
0.0150031
0.0150099
0.0150156
0.0150203
0.0150239
0.0150264
0.015028
0.0150286
0.0150283
0.0150269
0.0150247
0.0150215
0.0150173
0.0150122
0.0150063
0.0149994
0.0149916
0.0149829
0.0149733
0.0149628
0.0149515
0.0149392
0.014926
0.0149119
0.0148969
0.014881
0.0148642
0.0148465
0.0148279
0.0148083
0.0147878
0.0147663
0.0147439
0.0147205
0.0146962
0.0146708
0.0146445
0.0146172
0.0145888
0.0145594
0.0145289
0.0144974
0.0144648
0.0144311
0.0143963
0.0143604
0.0143233
0.014285
0.0142456
0.014205
0.0141632
0.0141201
0.0140757
0.0140301
0.0139832
0.013935
0.0138854
0.0138345
0.0137821
0.0137284
0.0136732
0.0136165
0.0135584
0.0134987
0.0134375
0.0133747
0.0133103
0.0132443
0.0131766
0.0131072
0.0130361
0.0129632
0.0128885
0.0128119
0.0127335
0.0126531
0.0125708
0.0124865
0.0124001
0.0123115
0.0122208
0.0121279
0.0120327
0.0119351
0.0118351
0.0117326
0.0116275
0.0115197
0.0114092
0.0112958
0.0111794
0.0110599
0.0109372
0.0108111
0.0106814
0.0105481
0.0104108
0.0102693
0.0101235
0.00997302
0.00981753
0.00965669
0.00949008
0.00931724
0.00913761
0.00895055
0.00875534
0.00855111
0.00833685
0.00811136
0.00787322
0.00762072
0.00735177
0.00706382
0.00675374
0.00641766
0.00605077
0.00564708
0.00519911
0.00469748
0.00413049
0.00348418
0.00274157
0.00188601
0.000921579
8.92112e-05
0.000131596
0.00132491
0.00265512
0.00381024
0.00480604
0.00567567
0.00644619
0.00713776
0.00776515
0.00833927
0.00886829
0.00935844
0.00981457
0.0102405
0.0106393
0.0110136
0.0113655
0.0116967
0.012009
0.0123036
0.0125819
0.0128448
0.0130934
0.0133287
0.0135514
0.0137624
0.0139623
0.0141518
0.0143316
0.0145021
0.0146641
0.0148178
0.0149639
0.0151028
0.0152348
0.0153603
0.0154798
0.0155934
0.0157015
0.0158044
0.0159024
0.0159957
0.0160844
0.0161688
0.0162492
0.0163256
0.0163983
0.0164675
0.0165334
0.0165961
0.0166557
0.0167124
0.0167664
0.0168177
0.0168664
0.0169128
0.0169567
0.0169985
0.0170381
0.0170756
0.0171111
0.0171446
0.0171763
0.0172062
0.0172343
0.0172608
0.0172855
0.0173087
0.0173304
0.0173505
0.0173692
0.0173864
0.0174023
0.0174167
0.0174299
0.0174417
0.0174523
0.0174616
0.0174697
0.0174765
0.0174822
0.0174867
0.0174901
0.0174923
0.0174933
0.0174933
0.0174921
0.0174898
0.0174865
0.017482
0.0174765
0.0174699
0.0174622
0.0174534
0.0174435
0.0174326
0.0174206
0.0174075
0.0173933
0.017378
0.0173616
0.0173441
0.0173255
0.0173058
0.0172849
0.0172629
0.0172398
0.0172154
0.0171899
0.0171633
0.0171354
0.0171063
0.0170759
0.0170443
0.0170114
0.0169773
0.0169418
0.0169051
0.016867
0.0168275
0.0167866
0.0167443
0.0167007
0.0166555
0.0166089
0.0165608
0.0165111
0.01646
0.0164072
0.0163528
0.0162968
0.0162392
0.0161799
0.0161188
0.016056
0.0159914
0.015925
0.0158568
0.0157867
0.0157146
0.0156406
0.0155646
0.0154866
0.0154065
0.0153242
0.0152399
0.0151533
0.0150644
0.0149732
0.0148797
0.0147837
0.0146852
0.0145843
0.0144806
0.0143744
0.0142653
0.0141535
0.0140387
0.0139209
0.0138
0.0136759
0.0135484
0.0134176
0.0132831
0.013145
0.013003
0.012857
0.0127067
0.012552
0.0123927
0.0122285
0.0120591
0.0118842
0.0117034
0.0115165
0.0113228
0.0111219
0.0109132
0.0106961
0.0104696
0.0102331
0.00998525
0.00972498
0.0094508
0.00916098
0.00885345
0.00852575
0.0081749
0.00779729
0.00738855
0.00694333
0.00645515
0.00591608
0.00531649
0.00464479
0.00388766
0.00303029
0.00206058
0.000992684
9.46564e-05
0.000131596
0.00132492
0.00265515
0.00381028
0.00480609
0.00567572
0.00644625
0.00713783
0.00776522
0.00833934
0.00886836
0.00935851
0.00981463
0.0102406
0.0106394
0.0110137
0.0113655
0.0116968
0.0120091
0.0123037
0.0125819
0.0128448
0.0130935
0.0133287
0.0135515
0.0137624
0.0139623
0.0141518
0.0143316
0.0145022
0.0146641
0.0148179
0.014964
0.0151028
0.0152348
0.0153604
0.0154798
0.0155934
0.0157015
0.0158045
0.0159024
0.0159957
0.0160844
0.0161689
0.0162492
0.0163256
0.0163983
0.0164675
0.0165334
0.0165961
0.0166557
0.0167124
0.0167664
0.0168177
0.0168664
0.0169128
0.0169568
0.0169985
0.0170381
0.0170756
0.0171111
0.0171446
0.0171763
0.0172062
0.0172343
0.0172608
0.0172855
0.0173087
0.0173304
0.0173505
0.0173692
0.0173864
0.0174023
0.0174167
0.0174299
0.0174417
0.0174523
0.0174616
0.0174697
0.0174765
0.0174822
0.0174867
0.0174901
0.0174923
0.0174933
0.0174933
0.0174921
0.0174898
0.0174865
0.017482
0.0174765
0.0174699
0.0174622
0.0174534
0.0174435
0.0174326
0.0174206
0.0174075
0.0173933
0.017378
0.0173616
0.0173441
0.0173255
0.0173058
0.0172849
0.0172629
0.0172398
0.0172154
0.0171899
0.0171633
0.0171354
0.0171063
0.0170759
0.0170443
0.0170114
0.0169773
0.0169418
0.0169051
0.016867
0.0168275
0.0167866
0.0167443
0.0167006
0.0166555
0.0166089