/*--------------------------------*- C++ -*----------------------------------*\
  =========                 |
  \\      /  F ield         | OpenFOAM: The Open Source CFD Toolbox
   \\    /   O peration     | Website:  https://openfoam.org
    \\  /    A nd           | Version:  8
     \\/     M anipulation  |
\*---------------------------------------------------------------------------*/
FoamFile
{
    version     2.0;
    format      ascii;
    class       surfaceScalarField;
    location    "3500";
    object      phi;
}
// * * * * * * * * * * * * * * * * * * * * * * * * * * * * * * * * * * * * * //

dimensions      [1 0 -1 0 0 0 0];

internalField   nonuniform List<scalar> 
119360
(
-3.5143e-07
2.3373e-10
3.51193e-07
-6.20691e-07
-8.98625e-10
2.70158e-07
-7.50442e-07
3.49489e-10
1.29385e-07
-7.50499e-07
1.88726e-10
-1.43497e-10
-6.54501e-07
7.89858e-11
-9.60885e-08
-4.92684e-07
3.19776e-11
-1.61861e-07
-2.87167e-07
1.26339e-11
-2.05539e-07
-5.36888e-08
4.84696e-12
-2.33492e-07
1.96163e-07
1.75818e-12
-2.49862e-07
4.53885e-07
5.94969e-13
-2.57733e-07
7.1387e-07
1.69476e-13
-2.59995e-07
9.7219e-07
-2.6284e-14
-2.58331e-07
1.22603e-06
-1.46937e-13
-2.53849e-07
1.47334e-06
-2.28844e-13
-2.47327e-07
1.71265e-06
-2.75834e-13
-2.39317e-07
1.94287e-06
-2.90239e-13
-2.30228e-07
2.16322e-06
-2.77638e-13
-2.20366e-07
2.37318e-06
-2.46164e-13
-2.09967e-07
2.57239e-06
-2.03947e-13
-1.99217e-07
2.76065e-06
-1.57845e-13
-1.88263e-07
2.93786e-06
-1.12548e-13
-1.77223e-07
3.10405e-06
-7.1109e-14
-1.66194e-07
3.2593e-06
-3.52349e-14
-1.55255e-07
3.40376e-06
-5.59189e-15
-1.44471e-07
3.53765e-06
1.78755e-14
-1.33898e-07
3.66122e-06
3.57223e-14
-1.23579e-07
3.77477e-06
4.85732e-14
-1.13552e-07
3.87861e-06
5.7455e-14
-1.03846e-07
3.97309e-06
6.31727e-14
-9.44861e-08
4.05857e-06
6.65311e-14
-8.54897e-08
4.13543e-06
6.80438e-14
-7.68714e-08
4.20407e-06
6.82243e-14
-6.86411e-08
4.26487e-06
6.75304e-14
-6.08052e-08
4.31823e-06
6.61704e-14
-5.33666e-08
4.36455e-06
6.43247e-14
-4.63254e-08
4.40422e-06
6.22847e-14
-3.96792e-08
4.43763e-06
5.99533e-14
-3.34231e-08
4.46518e-06
5.76635e-14
-2.75505e-08
4.48723e-06
5.5332e-14
-2.20528e-08
4.50414e-06
5.30561e-14
-1.69201e-08
4.51628e-06
5.09328e-14
-1.21414e-08
4.52397e-06
4.89206e-14
-7.70471e-09
4.52757e-06
4.71997e-14
-3.59699e-09
4.52736e-06
4.56593e-14
1.96902e-10
4.52367e-06
4.44103e-14
3.6909e-09
4.51676e-06
4.33834e-14
6.89864e-09
4.50692e-06
4.25369e-14
9.8357e-09
4.4944e-06
4.19679e-14
1.25171e-08
4.47944e-06
4.15516e-14
1.49576e-08
4.46226e-06
4.13712e-14
1.71714e-08
4.44308e-06
4.13018e-14
1.91727e-08
4.4221e-06
4.1399e-14
2.09754e-08
4.3995e-06
4.16211e-14
2.25928e-08
4.37546e-06
4.18431e-14
2.40381e-08
4.35013e-06
4.23011e-14
2.53236e-08
4.32367e-06
4.28007e-14
2.64615e-08
4.2962e-06
4.34391e-14
2.74632e-08
4.26785e-06
4.4022e-14
2.83395e-08
4.23875e-06
4.47714e-14
2.91008e-08
4.20899e-06
4.56179e-14
2.97568e-08
4.17867e-06
4.65061e-14
3.03167e-08
4.14787e-06
4.74776e-14
3.07889e-08
4.11669e-06
4.85184e-14
3.11815e-08
4.08518e-06
4.95176e-14
3.15018e-08
4.05342e-06
5.06001e-14
3.17569e-08
4.02146e-06
5.17381e-14
3.19532e-08
3.98936e-06
5.29593e-14
3.20964e-08
3.95716e-06
5.41528e-14
3.21922e-08
3.92491e-06
5.53879e-14
3.22455e-08
3.89265e-06
5.66508e-14
3.2261e-08
3.8604e-06
5.78443e-14
3.22428e-08
3.8282e-06
5.91765e-14
3.21949e-08
3.79607e-06
6.04394e-14
3.21208e-08
3.76404e-06
6.17023e-14
3.20238e-08
3.73213e-06
6.29096e-14
3.19068e-08
3.70036e-06
6.40615e-14
3.17725e-08
3.66873e-06
6.52411e-14
3.16234e-08
3.63726e-06
6.63374e-14
3.14618e-08
3.60597e-06
6.73505e-14
3.12896e-08
3.57485e-06
6.83496e-14
3.11087e-08
3.54393e-06
6.93766e-14
3.0921e-08
3.51319e-06
7.02092e-14
3.07278e-08
3.48266e-06
7.10696e-14
3.05307e-08
3.45232e-06
7.17913e-14
3.0331e-08
3.42219e-06
7.25406e-14
3.01299e-08
3.39225e-06
7.3179e-14
2.99284e-08
3.36252e-06
7.37757e-14
2.97276e-08
3.33299e-06
7.43169e-14
2.95285e-08
3.30365e-06
7.47888e-14
2.93319e-08
3.27451e-06
7.51634e-14
2.91386e-08
3.24555e-06
7.54687e-14
2.89494e-08
3.21678e-06
7.58018e-14
2.8765e-08
3.18819e-06
7.60377e-14
2.85861e-08
3.15977e-06
7.62458e-14
2.84132e-08
3.13152e-06
7.64262e-14
2.8247e-08
3.10343e-06
7.64539e-14
2.80881e-08
3.07548e-06
7.64817e-14
2.7937e-08
3.04768e-06
7.64539e-14
2.77941e-08
3.02002e-06
7.64122e-14
2.766e-08
2.99248e-06
7.63428e-14
2.75351e-08
2.96505e-06
7.61901e-14
2.742e-08
2.93773e-06
7.60097e-14
2.73149e-08
2.91051e-06
7.59264e-14
2.72204e-08
2.88337e-06
7.57182e-14
2.71368e-08
2.8563e-06
7.54129e-14
2.70645e-08
2.82929e-06
7.52186e-14
2.70039e-08
2.80232e-06
7.4941e-14
2.69554e-08
2.7754e-06
7.46356e-14
2.69194e-08
2.7485e-06
7.43026e-14
2.68962e-08
2.72161e-06
7.39556e-14
2.6886e-08
2.69471e-06
7.36502e-14
2.68894e-08
2.6678e-06
7.33449e-14
2.69066e-08
2.64086e-06
7.30257e-14
2.69378e-08
2.61387e-06
7.2651e-14
2.69835e-08
2.58682e-06
7.23873e-14
2.70439e-08
2.55969e-06
7.20958e-14
2.71194e-08
2.53248e-06
7.18044e-14
2.72101e-08
2.50515e-06
7.1499e-14
2.73164e-08
2.47771e-06
7.13464e-14
2.74385e-08
2.45013e-06
7.11798e-14
2.75767e-08
2.42239e-06
7.10549e-14
2.77312e-08
2.39448e-06
7.09855e-14
2.79023e-08
2.36639e-06
7.09993e-14
2.80901e-08
2.33809e-06
7.10271e-14
2.82949e-08
2.30957e-06
7.11103e-14
2.85168e-08
2.2808e-06
7.12213e-14
2.8756e-08
2.25179e-06
7.14433e-14
2.90126e-08
2.22249e-06
7.18042e-14
2.92868e-08
2.19291e-06
7.21094e-14
2.95786e-08
2.16301e-06
7.2498e-14
2.98881e-08
2.13279e-06
7.30531e-14
3.02154e-08
2.10223e-06
7.36637e-14
3.05605e-08
2.0713e-06
7.44131e-14
3.09234e-08
2.03999e-06
7.53013e-14
3.1304e-08
2.00828e-06
7.61062e-14
3.17023e-08
1.97616e-06
7.71609e-14
3.21181e-08
1.9436e-06
7.82711e-14
3.25512e-08
1.91059e-06
7.94645e-14
3.30015e-08
1.87712e-06
8.0769e-14
3.34687e-08
1.84316e-06
8.21846e-14
3.39525e-08
1.8087e-06
8.37389e-14
3.44526e-08
1.77373e-06
8.53764e-14
3.49684e-08
1.73822e-06
8.7014e-14
3.54997e-08
1.70217e-06
8.89291e-14
3.60457e-08
1.66556e-06
9.10108e-14
3.66059e-08
1.62837e-06
9.33422e-14
3.71797e-08
1.5906e-06
9.58125e-14
3.77662e-08
1.55223e-06
9.85047e-14
3.83646e-08
1.51325e-06
1.01391e-13
3.8974e-08
1.47365e-06
1.04444e-13
3.95933e-08
1.43342e-06
1.07969e-13
4.02214e-08
1.39255e-06
1.11772e-13
4.08569e-08
1.35105e-06
1.15935e-13
4.14987e-08
1.3089e-06
1.20515e-13
4.2145e-08
1.26609e-06
1.25539e-13
4.27943e-08
1.22264e-06
1.3084e-13
4.34448e-08
1.17854e-06
1.36585e-13
4.40944e-08
1.13379e-06
1.42747e-13
4.4741e-08
1.0884e-06
1.49159e-13
4.53822e-08
1.04238e-06
1.56014e-13
4.60154e-08
9.95732e-07
1.62814e-13
4.66378e-08
9.48478e-07
1.70003e-13
4.7246e-08
9.00633e-07
1.77192e-13
4.78368e-08
8.52217e-07
1.84047e-13
4.84063e-08
8.03258e-07
1.90653e-13
4.89502e-08
7.53785e-07
1.96648e-13
4.94638e-08
7.03834e-07
2.01839e-13
4.9942e-08
6.53445e-07
2.06002e-13
5.03789e-08
6.02667e-07
2.08722e-13
5.07681e-08
5.51554e-07
2.10387e-13
5.11023e-08
5.0017e-07
2.10804e-13
5.13734e-08
4.48587e-07
2.10193e-13
5.15722e-08
3.96887e-07
2.09388e-13
5.16884e-08
3.45165e-07
2.09055e-13
5.17101e-08
2.9353e-07
2.09971e-13
5.1624e-08
2.42103e-07
2.1369e-13
5.14148e-08
1.91026e-07
2.20934e-13
5.10649e-08
1.40459e-07
2.32342e-13
5.05537e-08
9.05893e-08
2.48135e-13
4.98571e-08
4.16311e-08
2.67203e-13
4.8945e-08
-6.16466e-09
2.87104e-13
4.7782e-08
-5.24847e-08
3.02591e-13
4.63058e-08
-9.69734e-08
3.13638e-13
4.44742e-08
-1.39245e-07
3.20632e-13
4.22563e-08
-1.78857e-07
3.20966e-13
3.95969e-08
-2.1529e-07
3.13194e-13
3.64172e-08
-2.47925e-07
2.97651e-13
3.26189e-08
-2.76039e-07
2.76612e-13
2.80979e-08
-2.98774e-07
2.54408e-13
2.27189e-08
-3.15117e-07
2.40141e-13
1.63259e-08
-3.2387e-07
2.4547e-13
8.73487e-09
-3.23625e-07
2.77001e-13
-2.62938e-10
-3.12816e-07
3.29903e-13
-1.08274e-08
-2.89757e-07
3.83194e-13
-2.30794e-08
-2.52773e-07
4.09006e-13
-3.70056e-08
-2.00716e-07
4.2133e-13
-5.20796e-08
-1.34231e-07
4.82503e-13
-6.65097e-08
-5.8629e-08
5.5167e-13
-7.56304e-08
3.63639e-09
5.79425e-13
-6.2306e-08
3.38839e-13
3.57242e-09
-3.51806e-07
3.52009e-07
-6.22537e-07
2.698e-07
-7.51204e-07
1.29001e-07
-7.50789e-07
-2.41662e-10
-6.54613e-07
-9.6112e-08
-4.92724e-07
-1.61869e-07
-2.87179e-07
-2.05543e-07
-5.36897e-08
-2.33495e-07
1.96165e-07
-2.49864e-07
4.53889e-07
-2.57735e-07
7.13873e-07
-2.59997e-07
9.72193e-07
-2.58333e-07
1.22603e-06
-2.53851e-07
1.47335e-06
-2.47329e-07
1.71265e-06
-2.39319e-07
1.94287e-06
-2.30229e-07
2.16323e-06
-2.20367e-07
2.37318e-06
-2.09969e-07
2.57239e-06
-1.99219e-07
2.76065e-06
-1.88264e-07
2.93786e-06
-1.77224e-07
3.10405e-06
-1.66195e-07
3.25929e-06
-1.55256e-07
3.40376e-06
-1.44472e-07
3.53765e-06
-1.33899e-07
3.66122e-06
-1.2358e-07
3.77477e-06
-1.13553e-07
3.87861e-06
-1.03847e-07
3.97309e-06
-9.4487e-08
4.05857e-06
-8.54906e-08
4.13543e-06
-7.68723e-08
4.20407e-06
-6.8642e-08
4.26486e-06
-6.08061e-08
4.31822e-06
-5.33675e-08
4.36454e-06
-4.63263e-08
4.40422e-06
-3.96801e-08
4.43763e-06
-3.3424e-08
4.46518e-06
-2.75513e-08
4.48722e-06
-2.20536e-08
4.50414e-06
-1.6921e-08
4.51627e-06
-1.21423e-08
4.52397e-06
-7.70553e-09
4.52756e-06
-3.5978e-09
4.52736e-06
1.96098e-10
4.52366e-06
3.6901e-09
4.51676e-06
6.89785e-09
4.50692e-06
9.83491e-09
4.4944e-06
1.25163e-08
4.47943e-06
1.49568e-08
4.46226e-06
1.71706e-08
4.44308e-06
1.9172e-08
4.4221e-06
2.09747e-08
4.3995e-06
2.25921e-08
4.37546e-06
2.40373e-08
4.35013e-06
2.53229e-08
4.32366e-06
2.64608e-08
4.2962e-06
2.74624e-08
4.26785e-06
2.83388e-08
4.23875e-06
2.91001e-08
4.20899e-06
2.97561e-08
4.17866e-06
3.0316e-08
4.14787e-06
3.07882e-08
4.11668e-06
3.11807e-08
4.08518e-06
3.15011e-08
4.05342e-06
3.17562e-08
4.02146e-06
3.19525e-08
3.98936e-06
3.20957e-08
3.95716e-06
3.21915e-08
3.92491e-06
3.22448e-08
3.89264e-06
3.22603e-08
3.8604e-06
3.22421e-08
3.8282e-06
3.21942e-08
3.79607e-06
3.21201e-08
3.76404e-06
3.20231e-08
3.73213e-06
3.19061e-08
3.70035e-06
3.17718e-08
3.66873e-06
3.16227e-08
3.63726e-06
3.1461e-08
3.60597e-06
3.12888e-08
3.57485e-06
3.1108e-08
3.54393e-06
3.09202e-08
3.51319e-06
3.07271e-08
3.48266e-06
3.053e-08
3.45232e-06
3.03303e-08
3.42219e-06
3.01291e-08
3.39225e-06
2.99277e-08
3.36252e-06
2.97269e-08
3.33299e-06
2.95278e-08
3.30365e-06
2.93311e-08
3.27451e-06
2.91379e-08
3.24555e-06
2.89487e-08
3.21678e-06
2.87643e-08
3.18819e-06
2.85853e-08
3.15977e-06
2.84125e-08
3.13152e-06
2.82463e-08
3.10343e-06
2.80874e-08
3.07548e-06
2.79362e-08
3.04768e-06
2.77933e-08
3.02002e-06
2.76592e-08
2.99248e-06
2.75344e-08
2.96505e-06
2.74192e-08
2.93773e-06
2.73141e-08
2.91051e-06
2.72196e-08
2.88336e-06
2.7136e-08
2.85629e-06
2.70637e-08
2.82929e-06
2.70031e-08
2.80232e-06
2.69547e-08
2.7754e-06
2.69186e-08
2.7485e-06
2.68954e-08
2.72161e-06
2.68853e-08
2.69471e-06
2.68886e-08
2.6678e-06
2.69058e-08
2.64086e-06
2.6937e-08
2.61387e-06
2.69827e-08
2.58682e-06
2.70431e-08
2.55969e-06
2.71186e-08
2.53248e-06
2.72093e-08
2.50515e-06
2.73156e-08
2.47771e-06
2.74377e-08
2.45013e-06
2.75759e-08
2.42239e-06
2.77304e-08
2.39448e-06
2.79015e-08
2.36639e-06
2.80893e-08
2.33809e-06
2.82941e-08
2.30956e-06
2.8516e-08
2.2808e-06
2.87551e-08
2.25179e-06
2.90118e-08
2.22249e-06
2.92859e-08
2.19291e-06
2.95778e-08
2.16301e-06
2.98873e-08
2.13279e-06
3.02146e-08
2.10223e-06
3.05597e-08
2.0713e-06
3.09226e-08
2.03999e-06
3.13032e-08
2.00828e-06
3.17014e-08
1.97616e-06
3.21172e-08
1.9436e-06
3.25504e-08
1.91059e-06
3.30006e-08
1.87712e-06
3.34678e-08
1.84316e-06
3.39516e-08
1.8087e-06
3.44517e-08
1.77373e-06
3.49675e-08
1.73822e-06
3.54988e-08
1.70217e-06
3.60448e-08
1.66556e-06
3.6605e-08
1.62837e-06
3.71788e-08
1.5906e-06
3.77653e-08
1.55223e-06
3.83637e-08
1.51325e-06
3.8973e-08
1.47365e-06
3.95923e-08
1.43342e-06
4.02204e-08
1.39255e-06
4.0856e-08
1.35105e-06
4.14977e-08
1.3089e-06
4.2144e-08
1.26609e-06
4.27933e-08
1.22264e-06
4.34437e-08
1.17854e-06
4.40933e-08
1.13379e-06
4.47399e-08
1.0884e-06
4.53811e-08
1.04238e-06
4.60143e-08
9.95733e-07
4.66366e-08
9.48478e-07
4.72448e-08
9.00633e-07
4.78356e-08
8.52218e-07
4.8405e-08
8.03259e-07
4.89489e-08
7.53786e-07
4.94625e-08
7.03834e-07
4.99406e-08
6.53445e-07
5.03775e-08
6.02667e-07
5.07667e-08
5.51554e-07
5.11008e-08
5.0017e-07
5.13719e-08
4.48587e-07
5.15707e-08
3.96887e-07
5.16868e-08
3.45166e-07
5.17085e-08
2.9353e-07
5.16224e-08
2.42103e-07
5.14131e-08
1.91026e-07
5.10631e-08
1.4046e-07
5.05519e-08
9.05898e-08
4.98552e-08
4.16315e-08
4.89431e-08
-6.1642e-09
4.77801e-08
-5.24842e-08
4.63039e-08
-9.6973e-08
4.44722e-08
-1.39244e-07
4.22542e-08
-1.78856e-07
3.95948e-08
-2.15289e-07
3.6415e-08
-2.47924e-07
3.26167e-08
-2.76038e-07
2.80956e-08
-2.98774e-07
2.27166e-08
-3.15117e-07
1.63235e-08
-3.2387e-07
8.73238e-09
-3.23625e-07
-2.65533e-10
-3.12817e-07
-1.08301e-08
-2.89758e-07
-2.30824e-08
-2.52774e-07
-3.70088e-08
-2.00717e-07
-5.20828e-08
-1.34234e-07
-6.65127e-08
-5.86348e-08
-7.56346e-08
3.62689e-09
-6.23139e-08
3.54895e-09
-2.4382e-07
7.60291e-10
5.94175e-07
-3.00377e-07
-4.17534e-11
3.26722e-07
-2.75686e-07
3.4459e-11
1.04645e-07
-1.98317e-07
2.74915e-11
-7.75517e-08
-7.81062e-08
1.31489e-11
-2.16323e-07
7.66931e-08
5.46718e-12
-3.16675e-07
2.57629e-07
2.12506e-12
-3.86485e-07
4.57169e-07
7.96578e-13
-4.33042e-07
6.69193e-07
2.90303e-13
-4.61895e-07
8.88792e-07
9.32381e-14
-4.77342e-07
1.11189e-06
5.21828e-15
-4.83107e-07
1.33529e-06
-4.39299e-14
-4.81733e-07
1.55647e-06
-7.43361e-14
-4.75048e-07
1.77353e-06
-9.12739e-14
-4.64392e-07
1.98496e-06
-9.6825e-14
-4.50759e-07
2.18963e-06
-9.33937e-14
-4.34903e-07
2.38666e-06
-8.39464e-14
-4.17404e-07
2.5754e-06
-7.12551e-14
-3.9872e-07
2.75539e-06
-5.76444e-14
-3.79212e-07
2.92629e-06
-4.46652e-14
-3.59174e-07
3.08791e-06
-3.32923e-14
-3.38844e-07
3.24013e-06
-2.39769e-14
-3.1842e-07
3.38293e-06
-1.67951e-14
-2.98063e-07
3.51636e-06
-1.16186e-14
-2.7791e-07
3.64053e-06
-8.15611e-15
-2.58074e-07
3.7556e-06
-6.06401e-15
-2.38649e-07
3.86175e-06
-5.06132e-15
-2.19714e-07
3.95923e-06
-4.8115e-15
-2.01332e-07
4.04829e-06
-5.04393e-15
-1.83556e-07
4.12922e-06
-5.55739e-15
-1.66428e-07
4.20233e-06
-6.23391e-15
-1.49981e-07
4.26792e-06
-6.94513e-15
-1.34238e-07
4.32632e-06
-7.62859e-15
-1.19216e-07
4.37788e-06
-8.28083e-15
-1.04925e-07
4.42291e-06
-8.8498e-15
-9.13684e-08
4.46177e-06
-9.33898e-15
-7.85458e-08
4.4948e-06
-9.74141e-15
-6.64509e-08
4.52231e-06
-1.00571e-14
-5.50737e-08
4.54465e-06
-1.02791e-14
-4.44008e-08
4.56214e-06
-1.04699e-14
-3.44155e-08
4.5751e-06
-1.05775e-14
-2.50986e-08
4.58382e-06
-1.0626e-14
-1.64288e-08
4.5886e-06
-1.05913e-14
-8.38264e-09
4.58972e-06
-1.05393e-14
-9.35175e-10
4.58747e-06
-1.04768e-14
5.93902e-09
4.5821e-06
-1.0397e-14
1.22663e-08
4.57385e-06
-1.03033e-14
1.80742e-08
4.56298e-06
-1.01888e-14
2.339e-08
4.54969e-06
-1.00778e-14
2.82409e-08
4.5342e-06
-9.98758e-15
3.26539e-08
4.51671e-06
-9.89737e-15
3.66554e-08
4.49741e-06
-9.82797e-15
4.02714e-08
4.47647e-06
-9.76898e-15
4.35273e-08
4.45406e-06
-9.72041e-15
4.64477e-08
4.43032e-06
-9.68918e-15
4.90562e-08
4.4054e-06
-9.66142e-15
5.13757e-08
4.37943e-06
-9.64407e-15
5.34279e-08
4.35254e-06
-9.63366e-15
5.52336e-08
4.32482e-06
-9.60937e-15
5.68125e-08
4.29639e-06
-9.59549e-15
5.81832e-08
4.26734e-06
-9.57121e-15
5.93632e-08
4.23775e-06
-9.54692e-15
6.03691e-08
4.20772e-06
-9.5157e-15
6.12162e-08
4.17729e-06
-9.48795e-15
6.19191e-08
4.14656e-06
-9.45673e-15
6.2491e-08
4.11556e-06
-9.41163e-15
6.29446e-08
4.08436e-06
-9.37694e-15
6.32913e-08
4.05301e-06
-9.33878e-15
6.35418e-08
4.02154e-06
-9.29022e-15
6.3706e-08
3.99001e-06
-9.23471e-15
6.37931e-08
3.95843e-06
-9.2035e-15
6.38113e-08
3.92685e-06
-9.14799e-15
6.37683e-08
3.8953e-06
-9.10637e-15
6.36712e-08
3.86379e-06
-9.06822e-15
6.35265e-08
3.83236e-06
-9.02659e-15
6.33401e-08
3.80101e-06
-8.98844e-15
6.31173e-08
3.76976e-06
-8.98845e-15
6.28631e-08
3.73864e-06
-8.96418e-15
6.25821e-08
3.70764e-06
-8.95031e-15
6.22785e-08
3.67679e-06
-8.93297e-15
6.19559e-08
3.64609e-06
-8.93993e-15
6.16178e-08
3.61555e-06
-8.95729e-15
6.12676e-08
3.58516e-06
-8.96424e-15
6.09079e-08
3.55495e-06
-8.97813e-15
6.05417e-08
3.5249e-06
-9.00243e-15
6.01712e-08
3.49503e-06
-9.04061e-15
5.97988e-08
3.46532e-06
-9.06144e-15
5.94266e-08
3.43579e-06
-9.09962e-15
5.90566e-08
3.40643e-06
-9.13085e-15
5.86904e-08
3.37723e-06
-9.1725e-15
5.83299e-08
3.3482e-06
-9.22456e-15
5.79765e-08
3.31933e-06
-9.27662e-15
5.76318e-08
3.29061e-06
-9.31132e-15
5.72971e-08
3.26205e-06
-9.35644e-15
5.69736e-08
3.23363e-06
-9.4085e-15
5.66627e-08
3.20535e-06
-9.46055e-15
5.63655e-08
3.17719e-06
-9.50567e-15
5.60831e-08
3.14917e-06
-9.55773e-15
5.58165e-08
3.12126e-06
-9.59938e-15
5.55667e-08
3.09345e-06
-9.64449e-15
5.53346e-08
3.06574e-06
-9.68961e-15
5.51213e-08
3.03813e-06
-9.72779e-15
5.49275e-08
3.01059e-06
-9.7625e-15
5.47542e-08
2.98312e-06
-9.7868e-15
5.4602e-08
2.95571e-06
-9.82845e-15
5.44719e-08
2.92834e-06
-9.84928e-15
5.43646e-08
2.90101e-06
-9.88052e-15
5.42808e-08
2.8737e-06
-9.90828e-15
5.42213e-08
2.84641e-06
-9.91871e-15
5.41868e-08
2.81911e-06
-9.93607e-15
5.41779e-08
2.7918e-06
-9.96037e-15
5.41953e-08
2.76446e-06
-9.97079e-15
5.42396e-08
2.73708e-06
-9.97774e-15
5.43115e-08
2.70965e-06
-9.97081e-15
5.44116e-08
2.68215e-06
-9.98123e-15
5.45404e-08
2.65456e-06
-9.97431e-15
5.46986e-08
2.62688e-06
-9.96738e-15
5.48866e-08
2.59909e-06
-9.95351e-15
5.5105e-08
2.57117e-06
-9.93618e-15
5.53543e-08
2.5431e-06
-9.90149e-15
5.5635e-08
2.51488e-06
-9.87375e-15
5.59474e-08
2.48649e-06
-9.846e-15
5.6292e-08
2.4579e-06
-9.80785e-15
5.66693e-08
2.42911e-06
-9.77317e-15
5.70795e-08
2.4001e-06
-9.70726e-15
5.75229e-08
2.37085e-06
-9.66563e-15
5.79999e-08
2.34135e-06
-9.60666e-15
5.85107e-08
2.31158e-06
-9.57545e-15
5.90555e-08
2.28152e-06
-9.51301e-15
5.96344e-08
2.25115e-06
-9.45056e-15
6.02474e-08
2.22047e-06
-9.40894e-15
6.08948e-08
2.18945e-06
-9.35691e-15
6.15763e-08
2.15807e-06
-9.31528e-15
6.2292e-08
2.12633e-06
-9.25284e-15
6.30417e-08
2.0942e-06
-9.1904e-15
6.38251e-08
2.06167e-06
-9.14183e-15
6.46419e-08
2.02873e-06
-9.1002e-15
6.54918e-08
1.99535e-06
-9.06205e-15
6.63742e-08
1.96152e-06
-9.02736e-15
6.72886e-08
1.92723e-06
-8.99614e-15
6.82343e-08
1.89247e-06
-8.96492e-15
6.92105e-08
1.85722e-06
-8.95105e-15
7.02163e-08
1.82146e-06
-8.94065e-15
7.12506e-08
1.78519e-06
-8.9233e-15
7.23124e-08
1.74839e-06
-8.90249e-15
7.34002e-08
1.71105e-06
-8.87127e-15
7.45126e-08
1.67316e-06
-8.84352e-15
7.56481e-08
1.63472e-06
-8.82271e-15
7.68048e-08
1.5957e-06
-8.8019e-15
7.79807e-08
1.55612e-06
-8.80537e-15
7.91738e-08
1.51595e-06
-8.77415e-15
8.03815e-08
1.4752e-06
-8.76028e-15
8.16014e-08
1.43386e-06
-8.72906e-15
8.28305e-08
1.39194e-06
-8.7013e-15
8.40658e-08
1.34942e-06
-8.69784e-15
8.53039e-08
1.30632e-06
-8.69437e-15
8.6541e-08
1.26263e-06
-8.7256e-15
8.77732e-08
1.21837e-06
-8.77071e-15
8.8996e-08
1.17354e-06
-8.85397e-15
9.02047e-08
1.12815e-06
-8.98582e-15
9.13939e-08
1.08223e-06
-9.16623e-15
9.2558e-08
1.03577e-06
-9.40216e-15
9.36906e-08
9.88818e-07
-9.70747e-15
9.47848e-08
9.41383e-07
-1.01169e-14
9.58332e-08
8.93498e-07
-1.0672e-14
9.68273e-08
8.45195e-07
-1.12965e-14
9.7758e-08
7.96513e-07
-1.20806e-14
9.86151e-08
7.47496e-07
-1.29965e-14
9.93873e-08
6.98193e-07
-1.40582e-14
1.00062e-07
6.48659e-07
-1.51961e-14
1.00626e-07
5.9896e-07
-1.63966e-14
1.01063e-07
5.49167e-07
-1.75901e-14
1.01356e-07
4.99361e-07
-1.86517e-14
1.01484e-07
4.49634e-07
-1.94428e-14
1.01427e-07
4.00088e-07
-1.98938e-14
1.01159e-07
3.5084e-07
-1.98175e-14
1.00652e-07
3.02021e-07
-1.92207e-14
9.98727e-08
2.5378e-07
-1.81868e-14
9.87841e-08
2.06283e-07
-1.68407e-14
9.73426e-08
1.5972e-07
-1.54876e-14
9.5496e-08
1.14305e-07
-1.45161e-14
9.31842e-08
7.0275e-08
-1.40304e-14
9.03231e-08
2.78967e-08
-1.42455e-14
8.68394e-08
-1.25215e-08
-1.56819e-14
8.26611e-08
-5.06205e-08
-1.84227e-14
7.76823e-08
-8.60044e-08
-2.22391e-14
7.1787e-08
-1.18239e-07
-2.69645e-14
6.48396e-08
-1.46837e-07
-3.19536e-14
5.66807e-08
-1.71253e-07
-3.60961e-14
4.71197e-08
-1.90891e-07
-3.71994e-14
3.59487e-08
-2.05115e-07
-3.26961e-14
2.2943e-08
-2.13275e-07
-2.16701e-14
7.87999e-09
-2.14727e-07
-7.84787e-15
-9.39315e-09
-2.08928e-07
-1.38776e-15
-2.88968e-08
-1.95584e-07
-9.57566e-15
-5.03698e-08
-1.74804e-07
-1.45855e-14
-7.28813e-08
-1.47233e-07
2.56184e-14
-9.41068e-08
-1.13856e-07
-1.58762e-14
-1.0904e-07
-7.08744e-08
-2.30482e-13
-1.05341e-07
-2.50577e-12
-6.73602e-08
-2.43211e-07
5.95921e-07
-3.00162e-07
3.26685e-07
-2.75714e-07
1.04575e-07
-1.98347e-07
-7.75914e-08
-7.8118e-08
-2.16336e-07
7.66905e-08
-3.16679e-07
2.5763e-07
-3.86487e-07
4.57171e-07
-4.33043e-07
6.69194e-07
-4.61895e-07
8.88794e-07
-4.77343e-07
1.1119e-06
-4.83108e-07
1.33529e-06
-4.81733e-07
1.55647e-06
-4.75048e-07
1.77353e-06
-4.64392e-07
1.98496e-06
-4.5076e-07
2.18963e-06
-4.34903e-07
2.38666e-06
-4.17405e-07
2.5754e-06
-3.9872e-07
2.75539e-06
-3.79212e-07
2.92629e-06
-3.59174e-07
3.08791e-06
-3.38844e-07
3.24013e-06
-3.1842e-07
3.38293e-06
-2.98063e-07
3.51636e-06
-2.7791e-07
3.64053e-06
-2.58074e-07
3.75559e-06
-2.38649e-07
3.86175e-06
-2.19714e-07
3.95923e-06
-2.01332e-07
4.04829e-06
-1.83556e-07
4.12922e-06
-1.66428e-07
4.20233e-06
-1.49981e-07
4.26792e-06
-1.34238e-07
4.32632e-06
-1.19216e-07
4.37787e-06
-1.04925e-07
4.42291e-06
-9.13685e-08
4.46177e-06
-7.85459e-08
4.49479e-06
-6.6451e-08
4.52231e-06
-5.50738e-08
4.54465e-06
-4.44009e-08
4.56214e-06
-3.44156e-08
4.57509e-06
-2.50987e-08
4.58381e-06
-1.64289e-08
4.58859e-06
-8.38278e-09
4.58972e-06
-9.35318e-10
4.58747e-06
5.93887e-09
4.5821e-06
1.22662e-08
4.57385e-06
1.8074e-08
4.56297e-06
2.33898e-08
4.54969e-06
2.82407e-08
4.5342e-06
3.26537e-08
4.51671e-06
3.66552e-08
4.49741e-06
4.02712e-08
4.47647e-06
4.35272e-08
4.45406e-06
4.64475e-08
4.43032e-06
4.90561e-08
4.4054e-06
5.13755e-08
4.37943e-06
5.34277e-08
4.35254e-06
5.52334e-08
4.32482e-06
5.68123e-08
4.29639e-06
5.8183e-08
4.26734e-06
5.9363e-08
4.23775e-06
6.03689e-08
4.20771e-06
6.12161e-08
4.17729e-06
6.19189e-08
4.14655e-06
6.24909e-08
4.11556e-06
6.29444e-08
4.08436e-06
6.32911e-08
4.05301e-06
6.35416e-08
4.02154e-06
6.37059e-08
3.99e-06
6.37929e-08
3.95843e-06
6.38111e-08
3.92685e-06
6.37681e-08
3.8953e-06
6.36711e-08
3.86379e-06
6.35264e-08
3.83235e-06
6.33399e-08
3.80101e-06
6.31171e-08
3.76976e-06
6.2863e-08
3.73864e-06
6.2582e-08
3.70764e-06
6.22783e-08
3.67679e-06
6.19557e-08
3.64609e-06
6.16177e-08
3.61555e-06
6.12674e-08
3.58516e-06
6.09078e-08
3.55495e-06
6.05415e-08
3.5249e-06
6.01711e-08
3.49503e-06
5.97987e-08
3.46532e-06
5.94265e-08
3.43579e-06
5.90564e-08
3.40643e-06
5.86903e-08
3.37723e-06
5.83297e-08
3.3482e-06
5.79764e-08
3.31933e-06
5.76316e-08
3.29061e-06
5.72969e-08
3.26205e-06
5.69735e-08
3.23363e-06
5.66626e-08
3.20534e-06
5.63654e-08
3.17719e-06
5.6083e-08
3.14917e-06
5.58164e-08
3.12125e-06
5.55666e-08
3.09345e-06
5.53345e-08
3.06574e-06
5.51212e-08
3.03813e-06
5.49274e-08
3.01059e-06
5.4754e-08
2.98312e-06
5.46019e-08
2.95571e-06
5.44718e-08
2.92834e-06
5.43645e-08
2.90101e-06
5.42807e-08
2.8737e-06
5.42212e-08
2.84641e-06
5.41867e-08
2.81911e-06
5.41777e-08
2.7918e-06
5.41951e-08
2.76446e-06
5.42395e-08
2.73708e-06
5.43114e-08
2.70965e-06
5.44115e-08
2.68215e-06
5.45403e-08
2.65456e-06
5.46985e-08
2.62688e-06
5.48865e-08
2.59909e-06
5.51049e-08
2.57117e-06
5.53542e-08
2.5431e-06
5.56348e-08
2.51488e-06
5.59473e-08
2.48649e-06
5.62919e-08
2.4579e-06
5.66692e-08
2.42911e-06
5.70794e-08
2.4001e-06
5.75228e-08
2.37085e-06
5.79998e-08
2.34135e-06
5.85106e-08
2.31158e-06
5.90554e-08
2.28151e-06
5.96342e-08
2.25115e-06
6.02473e-08
2.22047e-06
6.08946e-08
2.18944e-06
6.15762e-08
2.15807e-06
6.22919e-08
2.12633e-06
6.30415e-08
2.0942e-06
6.38249e-08
2.06167e-06
6.46418e-08
2.02873e-06
6.54916e-08
1.99535e-06
6.63741e-08
1.96152e-06
6.72885e-08
1.92723e-06
6.82342e-08
1.89247e-06
6.92104e-08
1.85722e-06
7.02161e-08
1.82146e-06
7.12505e-08
1.78519e-06
7.23122e-08
1.74839e-06
7.34e-08
1.71105e-06
7.45125e-08
1.67316e-06
7.56479e-08
1.63472e-06
7.68046e-08
1.5957e-06
7.79806e-08
1.55612e-06
7.91736e-08
1.51595e-06
8.03814e-08
1.4752e-06
8.16012e-08
1.43386e-06
8.28304e-08
1.39194e-06
8.40657e-08
1.34942e-06
8.53037e-08
1.30632e-06
8.65409e-08
1.26263e-06
8.77731e-08
1.21837e-06
8.89959e-08
1.17354e-06
9.02045e-08
1.12815e-06
9.13938e-08
1.08223e-06
9.25578e-08
1.03577e-06
9.36904e-08
9.88818e-07
9.47847e-08
9.41383e-07
9.5833e-08
8.93498e-07
9.68271e-08
8.45195e-07
9.77578e-08
7.96513e-07
9.86149e-08
7.47496e-07
9.93872e-08
6.98193e-07
1.00062e-07
6.4866e-07
1.00626e-07
5.98961e-07
1.01063e-07
5.49168e-07
1.01355e-07
4.99361e-07
1.01484e-07
4.49634e-07
1.01427e-07
4.00088e-07
1.01159e-07
3.5084e-07
1.00652e-07
3.02022e-07
9.98725e-08
2.5378e-07
9.87839e-08
2.06283e-07
9.73424e-08
1.5972e-07
9.54958e-08
1.14305e-07
9.31841e-08
7.02752e-08
9.03229e-08
2.7897e-08
8.68392e-08
-1.25213e-08
8.2661e-08
-5.06203e-08
7.76821e-08
-8.60042e-08
7.17869e-08
-1.18239e-07
6.48394e-08
-1.46837e-07
5.66805e-08
-1.71252e-07
4.71195e-08
-1.90891e-07
3.59485e-08
-2.05115e-07
2.29428e-08
-2.13275e-07
7.87974e-09
-2.14727e-07
-9.39344e-09
-2.08928e-07
-2.88971e-08
-1.95584e-07
-5.03702e-08
-1.74805e-07
-7.28817e-08
-1.47235e-07
-9.41075e-08
-1.1386e-07
-1.09041e-07
-7.08842e-08
-1.05342e-07
-6.73593e-08
-8.62788e-08
-3.47813e-10
6.80796e-07
-4.65345e-08
-6.52485e-11
2.87027e-07
4.30748e-08
-8.66972e-12
1.50406e-08
1.57495e-07
2.99271e-12
-1.91978e-07
2.91377e-07
2.95102e-12
-3.5021e-07
4.42686e-07
1.60784e-12
-4.67988e-07
6.0898e-07
7.46077e-13
-5.52781e-07
7.87235e-07
3.35228e-13
-6.11299e-07
9.74427e-07
1.58252e-13
-6.49088e-07
1.16775e-06
8.04878e-14
-6.70669e-07
1.36445e-06
4.07939e-14
-6.79809e-07
1.56211e-06
1.61227e-14
-6.7939e-07
1.75867e-06
-1.48998e-16
-6.71617e-07
1.95246e-06
-9.80792e-15
-6.58183e-07
2.1421e-06
-1.38498e-14
-6.40397e-07
2.32647e-06
-1.35896e-14
-6.19281e-07
2.50471e-06
-1.0474e-14
-5.95646e-07
2.67613e-06
-5.88565e-15
-5.70139e-07
2.8402e-06
-8.93097e-16
-5.43285e-07
2.99654e-06
3.77159e-15
-5.15513e-07
3.14487e-06
7.69728e-15
-4.87177e-07
3.28502e-06
1.07157e-14
-4.58571e-07
3.4169e-06
1.27922e-14
-4.29943e-07
3.54049e-06
1.4003e-14
-4.01497e-07
3.65582e-06
1.45113e-14
-3.73409e-07
3.76299e-06
1.44662e-14
-3.45823e-07
3.86214e-06
1.40256e-14
-3.18862e-07
3.95343e-06
1.33231e-14
-2.92626e-07
4.03707e-06
1.24748e-14
-2.672e-07
4.11329e-06
1.15832e-14
-2.42649e-07
4.18234e-06
1.06967e-14
-2.19028e-07
4.24447e-06
9.86062e-15
-1.96376e-07
4.29998e-06
9.08174e-15
-1.74723e-07
4.34914e-06
8.38786e-15
-1.54088e-07
4.39225e-06
7.77031e-15
-1.34482e-07
4.42961e-06
7.2447e-15
-1.15906e-07
4.46152e-06
6.79368e-15
-9.83564e-08
4.48826e-06
6.41552e-15
-8.18216e-08
4.51015e-06
6.10154e-15
-6.62854e-08
4.52746e-06
5.84134e-15
-5.17267e-08
4.54048e-06
5.64012e-15
-3.81202e-08
4.54949e-06
5.4892e-15
-2.54375e-08
4.55475e-06
5.38166e-15
-1.36471e-08
4.55653e-06
5.30186e-15
-2.71525e-09
4.55507e-06
5.23942e-15
7.39316e-09
4.55062e-06
5.20126e-15
1.67146e-08
4.54341e-06
5.17177e-15
2.52869e-08
4.53365e-06
5.14749e-15
3.31481e-08
4.52155e-06
5.13361e-15
4.03364e-08
4.50732e-06
5.11453e-15
4.68897e-08
4.49113e-06
5.09025e-15
5.28454e-08
4.47316e-06
5.06943e-15
5.82404e-08
4.45357e-06
5.04515e-15
6.31107e-08
4.43253e-06
5.00525e-15
6.74912e-08
4.41017e-06
4.96882e-15
7.14157e-08
4.38662e-06
4.92719e-15
7.49169e-08
4.36202e-06
4.88902e-15
7.80259e-08
4.33648e-06
4.84739e-15
8.07726e-08
4.31011e-06
4.79881e-15
8.31852e-08
4.283e-06
4.76585e-15
8.52905e-08
4.25525e-06
4.73115e-15
8.71141e-08
4.22694e-06
4.71033e-15
8.86796e-08
4.19815e-06
4.68084e-15
9.00094e-08
4.16894e-06
4.65828e-15
9.11246e-08
4.13938e-06
4.64267e-15
9.20446e-08
4.10954e-06
4.64093e-15
9.27876e-08
4.07946e-06
4.62357e-15
9.33706e-08
4.04919e-06
4.6201e-15
9.38091e-08
4.01878e-06
4.62703e-15
9.41178e-08
3.98826e-06
4.63397e-15
9.43099e-08
3.95767e-06
4.63222e-15
9.43977e-08
3.92705e-06
4.63916e-15
9.43927e-08
3.89641e-06
4.64782e-15
9.43053e-08
3.86579e-06
4.65996e-15
9.41449e-08
3.83521e-06
4.6773e-15
9.39206e-08
3.80469e-06
4.6877e-15
9.36402e-08
3.77424e-06
4.6981e-15
9.33112e-08
3.74388e-06
4.71371e-15
9.29403e-08
3.71362e-06
4.72411e-15
9.25339e-08
3.68348e-06
4.73277e-15
9.20975e-08
3.65346e-06
4.74317e-15
9.16364e-08
3.62357e-06
4.75704e-15
9.11555e-08
3.59382e-06
4.76918e-15
9.0659e-08
3.56421e-06
4.77784e-15
9.01511e-08
3.53475e-06
4.79171e-15
8.96354e-08
3.50543e-06
4.79691e-15
8.91156e-08
3.47626e-06
4.81078e-15
8.85946e-08
3.44724e-06
4.81771e-15
8.80756e-08
3.41837e-06
4.82638e-15
8.75612e-08
3.38964e-06
4.83678e-15
8.70539e-08
3.36106e-06
4.84891e-15
8.65563e-08
3.33262e-06
4.85584e-15
8.60704e-08
3.30432e-06
4.87144e-15
8.55985e-08
3.27615e-06
4.88531e-15
8.51424e-08
3.24811e-06
4.89745e-15
8.47041e-08
3.22019e-06
4.90785e-15
8.42853e-08
3.19238e-06
4.92866e-15
8.38876e-08
3.16468e-06
4.94947e-15
8.35126e-08
3.13709e-06
4.96681e-15
8.31619e-08
3.10959e-06
4.98761e-15
8.28369e-08
3.08217e-06
5.00495e-15
8.2539e-08
3.05482e-06
5.02576e-15
8.22695e-08
3.02755e-06
5.04831e-15
8.20297e-08
3.00033e-06
5.08646e-15
8.18209e-08
2.97315e-06
5.10727e-15
8.16441e-08
2.94602e-06
5.13675e-15
8.15006e-08
2.9189e-06
5.17144e-15
8.13915e-08
2.89181e-06
5.20092e-15
8.13179e-08
2.86471e-06
5.23908e-15
8.12807e-08
2.83761e-06
5.26336e-15
8.12811e-08
2.81048e-06
5.30672e-15
8.13199e-08
2.78332e-06
5.34661e-15
8.13982e-08
2.75612e-06
5.39171e-15
8.15168e-08
2.72885e-06
5.43507e-15
8.16766e-08
2.70151e-06
5.48017e-15
8.18786e-08
2.67409e-06
5.53047e-15
8.21234e-08
2.64656e-06
5.58424e-15
8.24119e-08
2.61892e-06
5.6328e-15
8.27448e-08
2.59115e-06
5.69004e-15
8.31228e-08
2.56324e-06
5.74729e-15
8.35467e-08
2.53517e-06
5.80279e-15
8.4017e-08
2.50692e-06
5.87391e-15
8.45342e-08
2.47849e-06
5.93982e-15
8.50991e-08
2.44986e-06
6.00574e-15
8.57119e-08
2.42101e-06
6.0838e-15
8.63732e-08
2.39192e-06
6.16359e-15
8.70833e-08
2.36259e-06
6.23124e-15
8.78425e-08
2.33299e-06
6.31276e-15
8.8651e-08
2.30312e-06
6.39776e-15
8.9509e-08
2.27295e-06
6.48276e-15
9.04166e-08
2.24247e-06
6.56082e-15
9.13737e-08
2.21166e-06
6.64755e-15
9.23802e-08
2.18052e-06
6.73775e-15
9.3436e-08
2.14902e-06
6.83316e-15
9.45407e-08
2.11715e-06
6.93203e-15
9.56939e-08
2.08489e-06
7.01877e-15
9.68951e-08
2.05224e-06
7.11417e-15
9.81435e-08
2.01918e-06
7.21825e-15
9.94384e-08
1.98568e-06
7.31366e-15
1.00779e-07
1.95175e-06
7.42121e-15
1.02164e-07
1.91737e-06