/*--------------------------------*- C++ -*----------------------------------*\
  =========                 |
  \\      /  F ield         | OpenFOAM: The Open Source CFD Toolbox
   \\    /   O peration     | Website:  https://openfoam.org
    \\  /    A nd           | Version:  8
     \\/     M anipulation  |
\*---------------------------------------------------------------------------*/
FoamFile
{
    version     2.0;
    format      ascii;
    class       surfaceScalarField;
    location    "3900";
    object      phi;
}
// * * * * * * * * * * * * * * * * * * * * * * * * * * * * * * * * * * * * * //

dimensions      [1 0 -1 0 0 0 0];

internalField   nonuniform List<scalar> 
119360
(
-3.54471e-07
2.32969e-12
3.54468e-07
-6.34966e-07
3.15523e-13
2.80445e-07
-7.74928e-07
2.92265e-13
1.39948e-07
-7.84197e-07
1.22401e-13
9.25722e-09
-6.95254e-07
1.149e-14
-8.89539e-08
-5.3814e-07
-7.19987e-14
-1.57124e-07
-3.35164e-07
-1.28814e-13
-2.02986e-07
-1.02356e-07
-1.66728e-13
-2.32817e-07
1.48546e-07
-1.96815e-13
-2.50912e-07
4.08825e-07
-2.10138e-13
-2.60288e-07
6.72512e-07
-2.017e-13
-2.63696e-07
9.35515e-07
-1.86101e-13
-2.63012e-07
1.19486e-06
-1.6645e-13
-2.59354e-07
1.44838e-06
-1.45051e-13
-2.5353e-07
1.69449e-06
-1.22985e-13
-2.4611e-07
1.93199e-06
-1.01336e-13
-2.37515e-07
2.16004e-06
-8.06854e-14
-2.2806e-07
2.37803e-06
-6.1645e-14
-2.17989e-07
2.58551e-06
-4.41312e-14
-2.07492e-07
2.78223e-06
-2.83382e-14
-1.96721e-07
2.96802e-06
-1.42661e-14
-1.85798e-07
3.14283e-06
-1.62341e-15
-1.74824e-07
3.30671e-06
9.53437e-15
-1.6388e-07
3.45974e-06
1.9235e-14
-1.53035e-07
3.60208e-06
2.77698e-14
-1.42347e-07
3.73393e-06
3.51806e-14
-1.31864e-07
3.85555e-06
4.14534e-14
-1.21625e-07
3.96721e-06
4.67131e-14
-1.11663e-07
4.06921e-06
5.10985e-14
-1.02008e-07
4.16188e-06
5.46651e-14
-9.26797e-08
4.24557e-06
5.74962e-14
-8.36977e-08
4.32064e-06
5.96612e-14
-7.50755e-08
4.38746e-06
6.12711e-14
-6.68233e-08
4.4464e-06
6.23536e-14
-5.89483e-08
4.49785e-06
6.29226e-14
-5.14546e-08
4.54219e-06
6.30891e-14
-4.43438e-08
4.5798e-06
6.28532e-14
-3.76149e-08
4.61106e-06
6.24369e-14
-3.12651e-08
4.63634e-06
6.17153e-14
-2.52895e-08
4.65602e-06
6.07717e-14
-1.96818e-08
4.67045e-06
5.97308e-14
-1.44341e-08
4.67998e-06
5.84402e-14
-9.53747e-09
4.68496e-06
5.71496e-14
-4.98187e-09
4.68571e-06
5.56786e-14
-7.54728e-10
4.68255e-06
5.42631e-14
3.15594e-09
4.67578e-06
5.29447e-14
6.76189e-09
4.6657e-06
5.16125e-14
1.00768e-08
4.65258e-06
5.03496e-14
1.31145e-08
4.63669e-06
4.91423e-14
1.58885e-08
4.61827e-06
4.79766e-14
1.84124e-08
4.59756e-06
4.68248e-14
2.06999e-08
4.5748e-06
4.58811e-14
2.27643e-08
4.55017e-06
4.49929e-14
2.46191e-08
4.52389e-06
4.42158e-14
2.62774e-08
4.49613e-06
4.35358e-14
2.77522e-08
4.46707e-06
4.29668e-14
2.90559e-08
4.43687e-06
4.25228e-14
3.02008e-08
4.40567e-06
4.21065e-14
3.11985e-08
4.3736e-06
4.18706e-14
3.20604e-08
4.3408e-06
4.16763e-14
3.27972e-08
4.30738e-06
4.16347e-14
3.34191e-08
4.27344e-06
4.16486e-14
3.3936e-08
4.23908e-06
4.17735e-14
3.4357e-08
4.20438e-06
4.19123e-14
3.46908e-08
4.16943e-06
4.21343e-14
3.49456e-08
4.1343e-06
4.24258e-14
3.51291e-08
4.09904e-06
4.27172e-14
3.52485e-08
4.06373e-06
4.31197e-14
3.53103e-08
4.02841e-06
4.35915e-14
3.53209e-08
3.99312e-06
4.40356e-14
3.52859e-08
3.9579e-06
4.45075e-14
3.52106e-08
3.9228e-06
4.49932e-14
3.51e-08
3.88783e-06
4.54373e-14
3.49585e-08
3.85304e-06
4.59646e-14
3.47903e-08
3.81844e-06
4.65059e-14
3.45992e-08
3.78404e-06
4.70055e-14
3.43885e-08
3.74988e-06
4.75189e-14
3.41616e-08
3.71595e-06
4.80047e-14
3.39211e-08
3.68228e-06
4.85181e-14
3.36698e-08
3.64886e-06
4.89761e-14
3.34101e-08
3.61572e-06
4.94896e-14
3.3144e-08
3.58284e-06
4.9892e-14
3.28735e-08
3.55023e-06
5.02251e-14
3.26004e-08
3.5179e-06
5.06969e-14
3.23263e-08
3.48585e-06
5.10438e-14
3.20526e-08
3.45406e-06
5.13769e-14
3.17807e-08
3.42255e-06
5.16961e-14
3.15117e-08
3.3913e-06
5.20014e-14
3.12467e-08
3.36031e-06
5.22928e-14
3.09867e-08
3.32957e-06
5.24732e-14
3.07325e-08
3.29908e-06
5.27507e-14
3.04851e-08
3.26883e-06
5.29728e-14
3.02451e-08
3.23881e-06
5.31809e-14
3.00132e-08
3.20902e-06
5.33752e-14
2.979e-08
3.17944e-06
5.35833e-14
2.95762e-08
3.15006e-06
5.36943e-14
2.93722e-08
3.12088e-06
5.37221e-14
2.91786e-08
3.09188e-06
5.39163e-14
2.89958e-08
3.06305e-06
5.40135e-14
2.88243e-08
3.03438e-06
5.41245e-14
2.86644e-08
3.00586e-06
5.42355e-14
2.85166e-08
2.97747e-06
5.43187e-14
2.83812e-08
2.94921e-06
5.44714e-14
2.82587e-08
2.92106e-06
5.45546e-14
2.81493e-08
2.893e-06
5.46934e-14
2.80533e-08
2.86502e-06
5.48321e-14
2.79712e-08
2.83712e-06
5.49431e-14
2.79031e-08
2.80926e-06
5.50958e-14
2.78495e-08
2.78145e-06
5.52068e-14
2.78105e-08
2.75366e-06
5.5401e-14
2.77865e-08
2.72588e-06
5.55675e-14
2.77778e-08
2.69809e-06
5.58173e-14
2.77845e-08
2.67028e-06
5.60116e-14
2.78071e-08
2.64243e-06
5.63308e-14
2.78456e-08
2.61452e-06
5.66499e-14
2.79004e-08
2.58654e-06
5.68858e-14
2.79717e-08
2.55848e-06
5.72466e-14
2.80597e-08
2.53031e-06
5.75797e-14
2.81646e-08
2.50202e-06
5.79405e-14
2.82867e-08
2.47359e-06
5.83984e-14
2.8426e-08
2.445e-06
5.8898e-14
2.85828e-08
2.41624e-06
5.93976e-14
2.87573e-08
2.38729e-06
5.99943e-14
2.89495e-08
2.35812e-06
6.06049e-14
2.91596e-08
2.32873e-06
6.12294e-14
2.93878e-08
2.29909e-06
6.18678e-14
2.9634e-08
2.26919e-06
6.25616e-14
2.98984e-08
2.239e-06
6.33665e-14
3.0181e-08
2.20852e-06
6.40882e-14
3.04819e-08
2.17771e-06
6.49208e-14
3.08009e-08
2.14657e-06
6.59755e-14
3.11382e-08
2.11507e-06
6.69192e-14
3.14935e-08
2.0832e-06
6.78629e-14
3.18668e-08
2.05093e-06
6.90008e-14
3.2258e-08
2.01826e-06
7.01388e-14
3.26668e-08
1.98517e-06
7.12767e-14
3.30931e-08
1.95162e-06
7.2498e-14
3.35366e-08
1.91762e-06
7.38857e-14
3.3997e-08
1.88314e-06
7.51347e-14
3.44739e-08
1.84817e-06
7.6578e-14
3.49669e-08
1.81269e-06
7.80213e-14
3.54756e-08
1.77669e-06
7.95756e-14
3.59993e-08
1.74014e-06
8.10744e-14
3.65376e-08
1.70305e-06
8.27119e-14
3.70897e-08
1.66539e-06
8.44328e-14
3.7655e-08
1.62715e-06
8.62369e-14
3.82326e-08
1.58832e-06
8.80965e-14
3.88216e-08
1.5489e-06
9.00116e-14
3.94211e-08
1.50886e-06
9.20378e-14
4.003e-08
1.46821e-06
9.39529e-14
4.06471e-08
1.42693e-06
9.60345e-14
4.12712e-08
1.38502e-06
9.79774e-14
4.19008e-08
1.34248e-06
1.00031e-13
4.25345e-08
1.29931e-06
1.02057e-13
4.31706e-08
1.25549e-06
1.04084e-13
4.38074e-08
1.21104e-06
1.06082e-13
4.44428e-08
1.16596e-06
1.08025e-13
4.50747e-08
1.12026e-06
1.10079e-13
4.57009e-08
1.07393e-06
1.11994e-13
4.63189e-08
1.027e-06
1.1402e-13
4.69258e-08
9.79473e-07
1.16213e-13
4.75186e-08
9.31372e-07
1.18489e-13
4.80942e-08
8.82717e-07
1.21292e-13
4.86489e-08
8.33531e-07
1.24317e-13
4.91786e-08
7.83845e-07
1.27953e-13
4.96791e-08
7.33692e-07
1.32366e-13
5.01455e-08
6.83112e-07
1.37751e-13
5.05725e-08
6.3215e-07
1.4419e-13
5.09541e-08
5.80858e-07
1.51573e-13
5.12837e-08
5.29296e-07
1.60261e-13
5.1554e-08
4.77531e-07
1.69809e-13
5.17566e-08
4.25641e-07
1.79745e-13
5.18822e-08
3.73712e-07
1.89682e-13
5.19204e-08
3.21843e-07
1.98341e-13
5.18592e-08
2.70149e-07
2.0467e-13
5.1685e-08
2.18757e-07
2.07168e-13
5.13826e-08
1.67813e-07
2.04448e-13
5.09339e-08
1.17484e-07
1.95011e-13
5.03185e-08
6.79624e-08
1.78163e-13
4.95108e-08
1.94692e-08
1.52961e-13
4.84824e-08
-2.77274e-08
1.18794e-13
4.71856e-08
-7.33098e-08
7.90202e-14
4.55714e-08
-1.16927e-07
4.07453e-14
4.36064e-08
-1.58193e-07
1.0686e-14
4.12558e-08
-1.96665e-07
-1.9428e-15
3.84609e-08
-2.31811e-07
1.4655e-14
3.51361e-08
-2.63014e-07
7.21091e-14
3.11939e-08
-2.89551e-07
1.77747e-13
2.65275e-08
-3.10568e-07
3.25851e-13
2.10067e-08
-3.25059e-07
4.89886e-13
1.44801e-08
-3.31839e-07
6.16784e-13
6.7679e-09
-3.29536e-07
6.35103e-13
-2.31655e-09
-3.16629e-07
4.94382e-13
-1.29233e-08
-2.91483e-07
2.23877e-13
-2.51646e-08
-2.52511e-07
-3.29735e-14
-3.89903e-08
-1.98703e-07
-7.62167e-14
-5.38262e-08
-1.30912e-07
1.34948e-13
-6.78082e-08
-5.48547e-08
2.61902e-13
-7.60785e-08
5.93089e-09
-3.48611e-14
-6.08156e-08
-1.24034e-12
5.88928e-09
-3.54483e-07
3.54457e-07
-6.34966e-07
2.80441e-07
-7.74927e-07
1.39945e-07
-7.84194e-07
9.2548e-09
-6.95251e-07
-8.89561e-08
-5.38136e-07
-1.57126e-07
-3.3516e-07
-2.02988e-07
-1.02353e-07
-2.32819e-07
1.48549e-07
-2.50913e-07
4.08827e-07
-2.60289e-07
6.72514e-07
-2.63697e-07
9.35517e-07
-2.63013e-07
1.19486e-06
-2.59356e-07
1.44838e-06
-2.53531e-07
1.69449e-06
-2.46111e-07
1.93199e-06
-2.37516e-07
2.16005e-06
-2.28061e-07
2.37803e-06
-2.1799e-07
2.58551e-06
-2.07493e-07
2.78223e-06
-1.96722e-07
2.96802e-06
-1.85799e-07
3.14283e-06
-1.74825e-07
3.30671e-06
-1.63881e-07
3.45973e-06
-1.53036e-07
3.60208e-06
-1.42348e-07
3.73393e-06
-1.31865e-07
3.85555e-06
-1.21625e-07
3.96721e-06
-1.11664e-07
4.06921e-06
-1.02008e-07
4.16188e-06
-9.26806e-08
4.24557e-06
-8.36985e-08
4.32064e-06
-7.50763e-08
4.38746e-06
-6.68241e-08
4.4464e-06
-5.89491e-08
4.49785e-06
-5.14554e-08
4.54219e-06
-4.43445e-08
4.5798e-06
-3.76156e-08
4.61106e-06
-3.12658e-08
4.63634e-06
-2.52903e-08
4.65602e-06
-1.96825e-08
4.67045e-06
-1.44348e-08
4.67998e-06
-9.53816e-09
4.68496e-06
-4.98256e-09
4.68571e-06
-7.55411e-10
4.68254e-06
3.15526e-09
4.67578e-06
6.76122e-09
4.6657e-06
1.00761e-08
4.65258e-06
1.31138e-08
4.63668e-06
1.58878e-08
4.61827e-06
1.84118e-08
4.59756e-06
2.06992e-08
4.57479e-06
2.27636e-08
4.55017e-06
2.46184e-08
4.52389e-06
2.62767e-08
4.49613e-06
2.77515e-08
4.46707e-06
2.90553e-08
4.43687e-06
3.02001e-08
4.40566e-06
3.11979e-08
4.3736e-06
3.20598e-08
4.3408e-06
3.27966e-08
4.30738e-06
3.34185e-08
4.27343e-06
3.39354e-08
4.23907e-06
3.43563e-08
4.20438e-06
3.46902e-08
4.16943e-06
3.4945e-08
4.1343e-06
3.51285e-08
4.09904e-06
3.52479e-08
4.06373e-06
3.53097e-08
4.0284e-06
3.53203e-08
3.99311e-06
3.52852e-08
3.9579e-06
3.521e-08
3.9228e-06
3.50994e-08
3.88783e-06
3.49579e-08
3.85304e-06
3.47897e-08
3.81844e-06
3.45986e-08
3.78404e-06
3.43879e-08
3.74988e-06
3.4161e-08
3.71595e-06
3.39205e-08
3.68228e-06
3.36692e-08
3.64886e-06
3.34095e-08
3.61572e-06
3.31433e-08
3.58284e-06
3.28729e-08
3.55023e-06
3.25998e-08
3.5179e-06
3.23257e-08
3.48585e-06
3.2052e-08
3.45406e-06
3.178e-08
3.42255e-06
3.1511e-08
3.3913e-06
3.1246e-08
3.3603e-06
3.0986e-08
3.32957e-06
3.07319e-08
3.29908e-06
3.04845e-08
3.26883e-06
3.02445e-08
3.23881e-06
3.00126e-08
3.20902e-06
2.97894e-08
3.17944e-06
2.95756e-08
3.15006e-06
2.93716e-08
3.12088e-06
2.9178e-08
3.09188e-06
2.89952e-08
3.06305e-06
2.88236e-08
3.03438e-06
2.86638e-08
3.00586e-06
2.8516e-08
2.97747e-06
2.83806e-08
2.94921e-06
2.8258e-08
2.92106e-06
2.81486e-08
2.893e-06
2.80527e-08
2.86502e-06
2.79705e-08
2.83712e-06
2.79025e-08
2.80926e-06
2.78488e-08
2.78145e-06
2.78099e-08
2.75366e-06
2.77859e-08
2.72588e-06
2.77771e-08
2.69809e-06
2.77839e-08
2.67027e-06
2.78064e-08
2.64242e-06
2.7845e-08
2.61452e-06
2.78998e-08
2.58654e-06
2.79711e-08
2.55848e-06
2.80591e-08
2.53031e-06
2.8164e-08
2.50202e-06
2.8286e-08
2.47359e-06
2.84254e-08
2.445e-06
2.85822e-08
2.41624e-06
2.87566e-08
2.38729e-06
2.89488e-08
2.35812e-06
2.9159e-08
2.32873e-06
2.93871e-08
2.29909e-06
2.96334e-08
2.26919e-06
2.98978e-08
2.239e-06
3.01804e-08
2.20852e-06
3.04812e-08
2.17771e-06
3.08003e-08
2.14657e-06
3.11375e-08
2.11507e-06
3.14928e-08
2.0832e-06
3.18661e-08
2.05093e-06
3.22573e-08
2.01826e-06
3.26661e-08
1.98517e-06
3.30924e-08
1.95162e-06
3.35359e-08
1.91762e-06
3.39963e-08
1.88314e-06
3.44732e-08
1.84817e-06
3.49662e-08
1.81269e-06
3.54748e-08
1.77669e-06
3.59986e-08
1.74014e-06
3.65369e-08
1.70305e-06
3.7089e-08
1.66539e-06
3.76542e-08
1.62715e-06
3.82318e-08
1.58832e-06
3.88209e-08
1.5489e-06
3.94203e-08
1.50886e-06
4.00292e-08
1.46821e-06
4.06463e-08
1.42693e-06
4.12704e-08
1.38502e-06
4.19e-08
1.34248e-06
4.25337e-08
1.29931e-06
4.31698e-08
1.25549e-06
4.38065e-08
1.21105e-06
4.44419e-08
1.16596e-06
4.50738e-08
1.12026e-06
4.57e-08
1.07393e-06
4.63179e-08
1.027e-06
4.69248e-08
9.79474e-07
4.75177e-08
9.31373e-07
4.80932e-08
8.82717e-07
4.86479e-08
8.33531e-07
4.91776e-08
7.83845e-07
4.96781e-08
7.33692e-07
5.01444e-08
6.83112e-07
5.05714e-08
6.3215e-07
5.0953e-08
5.80859e-07
5.12826e-08
5.29297e-07
5.15528e-08
4.77532e-07
5.17554e-08
4.25641e-07
5.1881e-08
3.73712e-07
5.19191e-08
3.21844e-07
5.18579e-08
2.70149e-07
5.16837e-08
2.18757e-07
5.13812e-08
1.67813e-07
5.09325e-08
1.17484e-07
5.03171e-08
6.79628e-08
4.95093e-08
1.94695e-08
4.84809e-08
-2.77271e-08
4.71841e-08
-7.33095e-08
4.55699e-08
-1.16927e-07
4.36049e-08
-1.58193e-07
4.12543e-08
-1.96664e-07
3.84595e-08
-2.3181e-07
3.51347e-08
-2.63014e-07
3.11924e-08
-2.89551e-07
2.6526e-08
-3.10567e-07
2.10052e-08
-3.25058e-07
1.44785e-08
-3.31839e-07
6.7661e-09
-3.29537e-07
-2.31863e-09
-3.1663e-07
-1.29258e-08
-2.91484e-07
-2.51673e-08
-2.52512e-07
-3.8993e-08
-1.98703e-07
-5.38285e-08
-1.30914e-07
-6.781e-08
-5.48593e-08
-7.60811e-08
5.92407e-09
-6.08209e-08
5.8761e-09
-2.5446e-07
2.34861e-13
6.08882e-07
-3.17685e-07
3.15564e-14
3.43644e-07
-2.9869e-07
4.23125e-14
1.20942e-07
-2.2566e-07
6.36239e-15
-6.37836e-08
-1.08542e-07
-7.01565e-15
-2.06081e-07
4.43852e-08
-1.83537e-14
-3.1006e-07
2.24731e-07
-2.74089e-14
-3.8334e-07
4.24874e-07
-3.40216e-14
-4.32969e-07
6.38587e-07
-3.86706e-14
-4.64633e-07
8.60847e-07
-4.07176e-14
-4.82556e-07
1.08752e-06
-4.06065e-14
-4.90378e-07
1.31528e-06
-3.96489e-14
-4.90783e-07
1.54154e-06
-3.80044e-14
-4.85622e-07
1.76428e-06
-3.5999e-14
-4.76273e-07
1.98192e-06
-3.37716e-14
-4.63756e-07
2.19324e-06
-3.14713e-14
-4.48842e-07
2.3973e-06
-2.92231e-14
-4.32126e-07
2.59338e-06
-2.70755e-14
-4.14076e-07
2.78094e-06
-2.50528e-14
-3.95063e-07
2.9596e-06
-2.31723e-14
-3.75388e-07
3.12909e-06
-2.14341e-14
-3.55295e-07
3.28925e-06
-1.98624e-14
-3.34988e-07
3.44e-06
-1.84156e-14
-3.14634e-07
3.58133e-06
-1.71145e-14
-2.94375e-07
3.71331e-06
-1.5928e-14
-2.7433e-07
3.83604e-06
-1.48732e-14
-2.54598e-07
3.94967e-06
-1.39746e-14
-2.35266e-07
4.05441e-06
-1.31732e-14
-2.16402e-07
4.15046e-06
-1.24793e-14
-1.98067e-07
4.23808e-06
-1.1879e-14
-1.8031e-07
4.31755e-06
-1.13968e-14
-1.63169e-07
4.38915e-06
-1.09665e-14
-1.46678e-07
4.45318e-06
-1.063e-14
-1.3086e-07
4.50996e-06
-1.03663e-14
-1.15733e-07
4.55981e-06
-1.01824e-14
-1.01309e-07
4.60305e-06
-1.00471e-14
-8.75948e-08
4.64002e-06
-9.95683e-15
-7.45912e-08
4.67105e-06
-9.91518e-15
-6.22959e-08
4.69646e-06
-9.90128e-15
-5.07025e-08
4.71657e-06
-9.90473e-15
-3.98011e-08
4.73171e-06
-9.95329e-15
-2.95788e-08
4.74219e-06
-1.00227e-14
-2.00201e-08
4.74831e-06
-1.0099e-14
-1.11072e-08
4.75037e-06
-1.01614e-14
-2.81986e-09
4.74866e-06
-1.02412e-14
4.86301e-09
4.74345e-06
-1.03591e-14
1.1964e-08
4.73502e-06
-1.04355e-14
1.85074e-08
4.72361e-06
-1.05048e-14
2.45178e-08
4.70948e-06
-1.05673e-14
3.00202e-08
4.69284e-06
-1.06228e-14
3.504e-08
4.67394e-06
-1.06609e-14
3.96025e-08
4.65296e-06
-1.06956e-14
4.37331e-08
4.63012e-06
-1.07199e-14
4.74569e-08
4.6056e-06
-1.07164e-14
5.07987e-08
4.57956e-06
-1.0706e-14
5.37829e-08
4.55218e-06
-1.06851e-14
5.64331e-08
4.52361e-06
-1.06539e-14
5.87724e-08
4.49398e-06
-1.06123e-14
6.08231e-08
4.46343e-06
-1.05463e-14
6.26068e-08
4.43208e-06
-1.04839e-14
6.41439e-08
4.40004e-06
-1.04006e-14
6.54542e-08
4.36741e-06
-1.03069e-14
6.65564e-08
4.3343e-06
-1.02063e-14
6.74682e-08
4.30078e-06
-1.01092e-14
6.82064e-08
4.26693e-06
-1.00086e-14
6.87868e-08
4.23283e-06
-9.89059e-15
6.92243e-08
4.19855e-06
-9.77262e-15
6.95328e-08
4.16413e-06
-9.65813e-15
6.97253e-08
4.12963e-06
-9.52629e-15
6.98139e-08
4.0951e-06
-9.39792e-15
6.98098e-08
4.06059e-06
-9.2869e-15
6.97235e-08
4.02612e-06
-9.17588e-15
6.95646e-08
3.99173e-06
-9.04405e-15
6.9342e-08
3.95745e-06
-8.92262e-15
6.90638e-08
3.92331e-06
-8.81507e-15
6.87376e-08
3.88933e-06
-8.67976e-15
6.83702e-08
3.85552e-06
-8.58956e-15
6.79679e-08
3.8219e-06
-8.46814e-15
6.75366e-08
3.78848e-06
-8.36753e-15
6.70814e-08
3.75528e-06
-8.26345e-15
6.66072e-08
3.7223e-06
-8.17672e-15
6.61182e-08
3.68955e-06
-8.07959e-15
6.56184e-08
3.65704e-06
-8.01021e-15
6.51115e-08
3.62476e-06
-7.92695e-15
6.46007e-08
3.59272e-06
-7.82981e-15
6.4089e-08
3.56092e-06
-7.77431e-15
6.35791e-08
3.52935e-06
-7.69452e-15
6.30733e-08
3.49802e-06
-7.63902e-15
6.25741e-08
3.46692e-06
-7.57311e-15
6.20833e-08
3.43605e-06
-7.51761e-15
6.16028e-08
3.40539e-06
-7.45517e-15
6.11345e-08
3.37496e-06
-7.41701e-15
6.06796e-08
3.34472e-06
-7.36151e-15
6.02399e-08
3.31469e-06
-7.30254e-15
5.98164e-08
3.28486e-06
-7.26786e-15
5.94105e-08
3.2552e-06
-7.24706e-15
5.90232e-08
3.22572e-06
-7.21237e-15
5.86557e-08
3.1964e-06
-7.16728e-15
5.83089e-08
3.16724e-06
-7.13607e-15
5.79837e-08
3.13822e-06
-7.10832e-15
5.7681e-08
3.10933e-06
-7.08058e-15
5.74016e-08
3.08056e-06
-7.05284e-15
5.71463e-08
3.0519e-06
-7.02856e-15
5.69158e-08
3.02334e-06
-7.01123e-15
5.67108e-08
2.99485e-06
-6.99389e-15
5.65321e-08
2.96644e-06
-6.96962e-15
5.63802e-08
2.93808e-06
-6.94881e-15
5.62558e-08
2.90977e-06
-6.92107e-15
5.61595e-08
2.88148e-06
-6.90373e-15
5.60919e-08
2.85321e-06
-6.88293e-15
5.60536e-08
2.82494e-06
-6.88294e-15
5.6045e-08
2.79666e-06
-6.86214e-15
5.60668e-08
2.76834e-06
-6.85174e-15
5.61193e-08
2.73998e-06
-6.84828e-15
5.62032e-08
2.71155e-06
-6.84482e-15
5.63188e-08
2.68306e-06
-6.83442e-15
5.64667e-08
2.65446e-06
-6.83097e-15
5.66471e-08
2.62576e-06
-6.83445e-15
5.68606e-08
2.59694e-06
-6.84833e-15
5.71076e-08
2.56797e-06
-6.85528e-15
5.73882e-08
2.53885e-06
-6.85876e-15
5.77029e-08
2.50955e-06
-6.86571e-15
5.8052e-08
2.48006e-06
-6.87266e-15
5.84356e-08
2.45036e-06
-6.87961e-15
5.88541e-08
2.42044e-06
-6.90044e-15
5.93075e-08
2.39027e-06
-6.92473e-15
5.97961e-08
2.35985e-06
-6.94209e-15
6.03198e-08
2.32914e-06
-6.97332e-15
6.08788e-08
2.29815e-06
-7.00109e-15
6.1473e-08
2.26684e-06
-7.02191e-15
6.21023e-08
2.23521e-06
-7.04621e-15
6.27666e-08
2.20323e-06
-7.07744e-15
6.34657e-08
2.1709e-06
-7.11561e-15
6.41994e-08
2.13818e-06
-7.14338e-15
6.49672e-08
2.10508e-06
-7.18155e-15
6.57689e-08
2.07156e-06
-7.23707e-15
6.66038e-08
2.03762e-06
-7.28218e-15
6.74713e-08
2.00324e-06
-7.34116e-15
6.83709e-08
1.96841e-06
-7.38627e-15
6.93016e-08
1.93311e-06
-7.44526e-15
7.02626e-08
1.89733e-06
-7.4869e-15
7.1253e-08
1.86105e-06
-7.54242e-15
7.22714e-08
1.82427e-06
-7.62222e-15
7.33168e-08
1.78697e-06
-7.70896e-15
7.43877e-08
1.74913e-06
-7.77142e-15
7.54826e-08
1.71076e-06
-7.83387e-15
7.65998e-08
1.67184e-06
-7.90327e-15
7.77374e-08
1.63236e-06
-7.99001e-15
7.88934e-08
1.59232e-06
-8.06981e-15
8.00656e-08
1.55171e-06
-8.17737e-15
8.12517e-08
1.51053e-06
-8.27799e-15
8.24489e-08
1.46877e-06
-8.39249e-15
8.36545e-08
1.42644e-06
-8.51045e-15
8.48653e-08
1.38352e-06
-8.64576e-15
8.60781e-08
1.34004e-06
-8.79148e-15
8.72891e-08
1.29598e-06
-8.94761e-15
8.84945e-08
1.25136e-06
-9.10374e-15
8.96899e-08
1.20618e-06
-9.26681e-15
9.08708e-08
1.16046e-06
-9.45763e-15
9.2032e-08
1.11421e-06
-9.63805e-15
9.31681e-08
1.06745e-06
-9.7803e-15
9.42731e-08
1.0202e-06
-9.90173e-15
9.53405e-08
9.72481e-07
-1.00058e-14
9.6363e-08
9.2432e-07
-1.00821e-14
9.73331e-08
8.75751e-07
-1.0096e-14
9.8242e-08
8.2681e-07
-1.00683e-14
9.90803e-08
7.77538e-07
-9.9295e-15
9.98376e-08
7.27982e-07
-9.74215e-15
1.00503e-07
6.78196e-07
-9.54093e-15
1.01062e-07
6.2824e-07
-9.28419e-15
1.01503e-07
5.78181e-07
-9.09684e-15
1.01808e-07
5.28095e-07
-9.04133e-15
1.01961e-07
4.78067e-07
-9.17317e-15
1.01941e-07
4.28191e-07
-9.6589e-15
1.01726e-07
3.78576e-07
-1.06165e-14
1.01292e-07
3.29342e-07
-1.21777e-14
1.00608e-07
2.80623e-07
-1.44467e-14
9.96435e-08
2.32573e-07
-1.74374e-14
9.83598e-08
1.85362e-07
-2.10803e-14
9.67123e-08
1.39184e-07
-2.52853e-14
9.46504e-08
9.42553e-08
-2.9636e-14
9.21051e-08
5.08144e-08
-3.33969e-14
8.9003e-08
9.13089e-09
-3.60406e-14
8.52807e-08
-3.04771e-08
-3.66234e-14
8.08548e-08
-6.76503e-08
-3.37438e-14
7.56255e-08
-1.02002e-07
-2.57363e-14
6.94788e-08
-1.33097e-07
-1.10397e-14
6.22804e-08
-1.6045e-07
1.08663e-14
5.38718e-08
-1.83524e-07
3.74978e-14
4.40707e-08
-2.01733e-07
6.13676e-14
3.26781e-08
-2.14457e-07
6.91392e-14
1.94793e-08
-2.21061e-07
4.54359e-14
4.27271e-09
-2.20929e-07
-1.52725e-14
-1.30708e-08
-2.13563e-07
-9.11285e-14
-3.25459e-08
-1.98722e-07
-1.23623e-13
-5.3847e-08
-1.76589e-07
-4.8822e-14
-7.59763e-08
-1.47897e-07
1.045e-13
-9.65188e-08
-1.13692e-07
1.17087e-13
-1.10307e-07
-6.96923e-08
-8.84016e-14
-1.04852e-07
-1.88172e-12
-6.38404e-08
-2.54463e-07
6.08878e-07
-3.17684e-07
3.43642e-07
-2.98689e-07
1.2094e-07
-2.25658e-07
-6.37849e-08
-1.0854e-07
-2.06082e-07
4.43868e-08
-3.10061e-07
2.24732e-07
-3.83341e-07
4.24876e-07
-4.3297e-07
6.38588e-07
-4.64633e-07
8.60848e-07
-4.82557e-07
1.08752e-06
-4.90379e-07
1.31529e-06
-4.90783e-07
1.54155e-06
-4.85622e-07
1.76428e-06
-4.76274e-07
1.98192e-06
-4.63756e-07
2.19324e-06
-4.48842e-07
2.3973e-06
-4.32126e-07
2.59338e-06
-4.14076e-07
2.78094e-06
-3.95063e-07
2.9596e-06
-3.75388e-07
3.12909e-06
-3.55295e-07
3.28925e-06
-3.34988e-07
3.44e-06
-3.14634e-07
3.58133e-06
-2.94375e-07
3.71331e-06
-2.7433e-07
3.83604e-06
-2.54598e-07
3.94967e-06
-2.35266e-07
4.05441e-06
-2.16402e-07
4.15046e-06
-1.98067e-07
4.23808e-06
-1.80309e-07
4.31755e-06
-1.63169e-07
4.38915e-06
-1.46678e-07
4.45318e-06
-1.3086e-07
4.50996e-06
-1.15733e-07
4.55981e-06
-1.01309e-07
4.60305e-06
-8.75949e-08
4.64002e-06
-7.45912e-08
4.67105e-06
-6.22959e-08
4.69646e-06
-5.07025e-08
4.71657e-06
-3.98011e-08
4.73171e-06
-2.95789e-08
4.74219e-06
-2.00202e-08
4.74831e-06
-1.11073e-08
4.75037e-06
-2.81995e-09
4.74866e-06
4.86292e-09
4.74345e-06
1.19639e-08
4.73502e-06
1.85073e-08
4.72361e-06
2.45176e-08
4.70947e-06
3.00201e-08
4.69284e-06
3.50399e-08
4.67394e-06
3.96024e-08
4.65296e-06
4.3733e-08
4.63012e-06
4.74568e-08
4.6056e-06
5.07986e-08
4.57956e-06
5.37827e-08
4.55218e-06
5.64329e-08
4.5236e-06
5.87722e-08
4.49398e-06
6.0823e-08
4.46343e-06
6.26066e-08
4.43207e-06
6.41438e-08
4.40004e-06
6.54541e-08
4.36741e-06
6.65562e-08
4.3343e-06
6.7468e-08
4.30078e-06
6.82062e-08
4.26693e-06
6.87866e-08
4.23283e-06
6.92241e-08
4.19855e-06
6.95326e-08
4.16413e-06
6.97251e-08
4.12963e-06
6.98137e-08
4.0951e-06
6.98097e-08
4.06059e-06
6.97233e-08
4.02612e-06
6.95644e-08
3.99173e-06
6.93418e-08
3.95745e-06
6.90636e-08
3.92331e-06
6.87374e-08
3.88933e-06
6.837e-08
3.85552e-06
6.79678e-08
3.8219e-06
6.75365e-08
3.78848e-06
6.70813e-08
3.75528e-06
6.6607e-08
3.7223e-06
6.6118e-08
3.68955e-06
6.56183e-08
3.65704e-06
6.51114e-08
3.62476e-06
6.46006e-08
3.59272e-06
6.40889e-08
3.56092e-06
6.35789e-08
3.52935e-06
6.30732e-08
3.49802e-06
6.25739e-08
3.46692e-06
6.20832e-08
3.43605e-06
6.16027e-08
3.40539e-06
6.11343e-08
3.37495e-06
6.06795e-08
3.34472e-06
6.02397e-08
3.31469e-06
5.98163e-08
3.28486e-06
5.94104e-08
3.2552e-06
5.90231e-08
3.22572e-06
5.86556e-08
3.1964e-06
5.83088e-08
3.16724e-06
5.79836e-08
3.13822e-06
5.76809e-08
3.10933e-06
5.74015e-08
3.08056e-06
5.71462e-08
3.0519e-06
5.69157e-08
3.02334e-06
5.67107e-08
2.99485e-06
5.6532e-08
2.96644e-06
5.63801e-08
2.93808e-06
5.62557e-08
2.90977e-06
5.61594e-08
2.88148e-06
5.60918e-08
2.85321e-06
5.60535e-08
2.82494e-06
5.60449e-08
2.79665e-06
5.60667e-08
2.76834e-06
5.61192e-08
2.73998e-06
5.62031e-08
2.71155e-06
5.63187e-08
2.68306e-06
5.64666e-08
2.65446e-06
5.6647e-08
2.62576e-06
5.68605e-08
2.59694e-06
5.71074e-08
2.56797e-06
5.73881e-08
2.53885e-06
5.77028e-08
2.50955e-06
5.80519e-08
2.48006e-06
5.84355e-08
2.45036e-06
5.8854e-08
2.42044e-06
5.93074e-08
2.39027e-06
5.9796e-08
2.35985e-06
6.03197e-08
2.32914e-06
6.08787e-08
2.29815e-06
6.14729e-08
2.26684e-06
6.21022e-08
2.23521e-06
6.27665e-08
2.20323e-06
6.34656e-08
2.1709e-06
6.41993e-08
2.13818e-06
6.49671e-08
2.10508e-06
6.57688e-08
2.07156e-06
6.66036e-08
2.03762e-06
6.74712e-08
2.00324e-06
6.83708e-08
1.96841e-06
6.93015e-08
1.93311e-06
7.02625e-08
1.89733e-06
7.12528e-08
1.86105e-06
7.22713e-08
1.82427e-06
7.33167e-08
1.78697e-06
7.43876e-08
1.74913e-06
7.54825e-08
1.71076e-06
7.65997e-08
1.67184e-06
7.77373e-08
1.63236e-06
7.88933e-08
1.59232e-06
8.00655e-08
1.55171e-06
8.12516e-08
1.51053e-06
8.24488e-08
1.46877e-06
8.36544e-08
1.42644e-06
8.48652e-08
1.38352e-06
8.6078e-08
1.34004e-06
8.7289e-08
1.29598e-06
8.84944e-08
1.25136e-06
8.96898e-08
1.20618e-06
9.08706e-08
1.16046e-06
9.20319e-08
1.11421e-06
9.3168e-08
1.06745e-06
9.4273e-08
1.0202e-06
9.53403e-08
9.72481e-07
9.63629e-08
9.24321e-07
9.73329e-08
8.75751e-07
9.82418e-08
8.2681e-07
9.90801e-08
7.77538e-07
9.98375e-08
7.27982e-07
1.00502e-07
6.78197e-07
1.01062e-07
6.28241e-07
1.01503e-07
5.78182e-07
1.01808e-07
5.28095e-07
1.01961e-07
4.78067e-07
1.01941e-07
4.28191e-07
1.01726e-07
3.78577e-07
1.01291e-07
3.29342e-07
1.00608e-07
2.80624e-07
9.96434e-08
2.32573e-07
9.83597e-08
1.85362e-07
9.67122e-08
1.39185e-07
9.46502e-08
9.42555e-08
9.2105e-08
5.08145e-08
8.90029e-08
9.13108e-09
8.52806e-08
-3.04769e-08
8.08547e-08
-6.76501e-08
7.56253e-08
-1.02001e-07
6.94787e-08
-1.33096e-07
6.22802e-08
-1.6045e-07
5.38716e-08
-1.83524e-07
4.40705e-08
-2.01733e-07
3.26779e-08
-2.14457e-07
1.94791e-08
-2.21061e-07
4.27247e-09
-2.20929e-07
-1.3071e-08
-2.13564e-07
-3.25461e-08
-1.98723e-07
-5.38473e-08
-1.76589e-07
-7.59767e-08
-1.47898e-07
-9.65195e-08
-1.13695e-07
-1.10308e-07
-6.96998e-08
-1.04853e-07
-6.38405e-08
-9.66204e-08
3.84574e-13
7.05488e-07
-6.27262e-08
3.17508e-14
3.09737e-07
2.33539e-08
4.81899e-14
3.48583e-08
1.35724e-07
3.28899e-14
-1.76156e-07
2.68503e-07
3.20435e-14
-3.38863e-07
4.19554e-07
3.05587e-14
-4.61113e-07
5.86378e-07
2.85916e-14
-5.50166e-07
7.65987e-07
2.64891e-14
-6.1258e-07
9.55272e-07
2.40015e-14
-6.53919e-07
1.15139e-06
2.14377e-14
-6.78672e-07
1.35159e-06
1.91652e-14
-6.90583e-07
1.5534e-06
1.71044e-14
-6.92592e-07
1.75471e-06
1.53592e-14
-6.86935e-07
1.95377e-06
1.39056e-14
-6.75338e-07
2.14915e-06
1.26965e-14
-6.59134e-07
2.33967e-06
1.16852e-14
-6.39365e-07
2.5244e-06
1.08317e-14
-6.16858e-07
2.7026e-06
1.00979e-14
-5.92272e-07
2.87367e-06
9.4821e-15
-5.66142e-07
3.03719e-06
8.93221e-15
-5.38906e-07
3.19282e-06
8.44997e-15
-5.10926e-07
3.34033e-06
8.01977e-15
-4.82504e-07
3.47959e-06
7.63641e-15
-4.53894e-07
3.61053e-06
7.28601e-15
-4.2531e-07
3.73313e-06
6.9703e-15
-3.96933e-07
3.84745e-06
6.67715e-15
-3.68918e-07
3.95357e-06
6.39787e-15
-3.41395e-07
4.05164e-06
6.14982e-15
-3.14474e-07
4.14182e-06
5.9087e-15
-2.88249e-07
4.22431e-06
5.68493e-15
-2.62796e-07
4.29932e-06
5.46637e-15
-2.38181e-07
4.36709e-06
5.25128e-15
-2.14454e-07
4.42789e-06
5.05526e-15
-1.91655e-07
4.48197e-06
4.86272e-15
-1.69816e-07
4.52962e-06
4.67365e-15
-1.48957e-07
4.57111e-06
4.49498e-15
-1.29093e-07
4.60675e-06
4.31978e-15
-1.10229e-07
4.63682e-06
4.15326e-15
-9.23648e-08
4.66161e-06
3.99888e-15
-7.54949e-08
4.68141e-06
3.84276e-15
-5.96077e-08
4.69652e-06
3.70052e-15
-4.46871e-08
4.70721e-06
3.57043e-15
-3.07131e-08
4.71377e-06
3.43513e-15
-1.76622e-08
4.71645e-06
3.31544e-15
-5.50767e-09
4.71554e-06
3.19922e-15
5.77926e-09
4.71127e-06
3.09167e-15
1.62295e-08
4.7039e-06
3.00147e-15
2.58762e-08
4.69366e-06
2.93036e-15
3.47533e-08
4.68079e-06
2.86097e-15
4.28959e-08
4.66549e-06
2.80373e-15
5.03393e-08
4.64797e-06
2.74996e-15
5.71194e-08
4.62843e-06
2.71701e-15
6.3272e-08
4.60705e-06
2.68926e-15
6.88326e-08
4.58401e-06
2.66498e-15
7.38365e-08
4.55948e-06
2.66151e-15
7.83182e-08
4.5336e-06
2.65284e-15
8.23117e-08
4.50652e-06
2.65978e-15
8.58499e-08
4.47838e-06
2.67019e-15
8.89648e-08
4.44929e-06
2.69795e-15
9.16871e-08
4.41939e-06
2.72397e-15
9.40464e-08
4.38877e-06
2.75693e-15
9.60712e-08
4.35754e-06
2.79683e-15
9.77883e-08
4.32578e-06
2.83673e-15
9.92236e-08
4.29359e-06
2.8853e-15
1.00401e-07
4.26103e-06
2.93908e-15
1.01344e-07
4.22818e-06
2.99112e-15
1.02074e-07
4.1951e-06
3.0449e-15
1.02611e-07
4.16185e-06
3.10561e-15
1.02974e-07
4.12848e-06
3.16979e-15
1.03181e-07
4.09504e-06
3.23051e-15
1.03249e-07
4.06157e-06
3.28602e-15
1.03192e-07
4.02811e-06
3.34846e-15
1.03025e-07
3.99469e-06
3.41264e-15
1.02761e-07
3.96134e-06
3.48203e-15
1.02412e-07
3.92809e-06
3.54448e-15
1.01989e-07
3.89496e-06
3.61907e-15
1.01502e-07
3.86197e-06
3.67457e-15
1.00961e-07
3.82913e-06
3.74222e-15
1.00374e-07
3.79646e-06
3.79599e-15
9.97491e-08
3.76397e-06
3.85844e-15
9.90937e-08
3.73168e-06
3.91568e-15
9.8414e-08
3.69958e-06
3.97292e-15
9.77162e-08
3.66768e-06
4.03016e-15
9.70055e-08
3.636e-06
4.09087e-15
9.62869e-08
3.60452e-06
4.14811e-15
9.5565e-08
3.57325e-06
4.20188e-15
9.48438e-08
3.5422e-06
4.24871e-15
9.41271e-08
3.51135e-06
4.30075e-15
9.34183e-08
3.48072e-06
4.35279e-15
9.27205e-08
3.45028e-06
4.39615e-15
9.20365e-08
3.42005e-06
4.45165e-15
9.13689e-08
3.39001e-06
4.49328e-15
9.07202e-08
3.36015e-06
4.54184e-15
9.00925e-08
3.33048e-06
4.58521e-15
8.94879e-08
3.30098e-06
4.63204e-15
8.89082e-08
3.27165e-06
4.67019e-15
8.83551e-08
3.24247e-06
4.71356e-15
8.78304e-08
3.21345e-06
4.75692e-15
8.73354e-08
3.18456e-06
4.80375e-15
8.68717e-08
3.1558e-06
4.84017e-15
8.64405e-08
3.12715e-06
4.87312e-15
8.60431e-08
3.09862e-06
4.91128e-15
8.56807e-08
3.07018e-06
4.95638e-15
8.53544e-08
3.04182e-06
4.9876e-15
8.50653e-08
3.01354e-06
5.02055e-15
8.48145e-08
2.98532e-06
5.05871e-15
8.46029e-08
2.95714e-06
5.10207e-15
8.44315e-08
2.929e-06
5.13329e-15
8.43012e-08
2.90088e-06
5.1645e-15
8.42128e-08
2.87276e-06
5.19919e-15
8.41672e-08
2.84464e-06
5.23388e-15
8.41653e-08
2.8165e-06
5.2599e-15
8.42077e-08
2.78832e-06
5.29805e-15
8.42952e-08
2.7601e-06
5.32927e-15
8.44286e-08
2.73181e-06
5.36223e-15
8.46085e-08
2.70344e-06
5.39345e-15
8.48355e-08
2.67497e-06
5.42293e-15
8.51102e-08
2.6464e-06
5.45415e-15
8.54333e-08
2.6177e-06
5.47843e-15
8.58052e-08
2.58886e-06
5.50618e-15
8.62264e-08
2.55987e-06
5.53566e-15
8.66974e-08
2.5307e-06
5.56515e-15
8.72185e-08
2.50134e-06
5.59117e-15
8.779e-08
2.47179e-06
5.61892e-15
8.84123e-08
2.44201e-06
5.65187e-15
8.90855e-08
2.41199e-06
5.67962e-15
8.98098e-08
2.38173e-06
5.71258e-15
9.05852e-08
2.35119e-06
5.74727e-15
9.14118e-08
2.32037e-06
5.76808e-15
9.22894e-08
2.28926e-06
5.81491e-15
9.3218e-08
2.25783e-06
5.84787e-15
9.41971e-08
2.22607e-06
5.88603e-15
9.52266e-08
2.19396e-06
5.91898e-15
9.63058e-08
2.16149e-06
5.96235e-15
9.74342e-08
2.12865e-06
5.99704e-15
9.86111e-08
2.09541e-06
6.03693e-15
9.98357e-08
2.06178e-06
6.06989e-15
1.01107e-07
2.02772e-06
6.12887e-15
1.02424e-07
1.99324e-06
6.17396e-15
1.03785e-07
1.95831e-06
6.22947e-15
1.05189e-07
1.92293e-06
6.28151e-15