/*--------------------------------*- C++ -*----------------------------------*\
  =========                 |
  \\      /  F ield         | OpenFOAM: The Open Source CFD Toolbox
   \\    /   O peration     | Website:  https://openfoam.org
    \\  /    A nd           | Version:  8
     \\/     M anipulation  |
\*---------------------------------------------------------------------------*/
FoamFile
{
    version     2.0;
    format      ascii;
    class       volVectorField;
    location    "3900";
    object      U;
}
// * * * * * * * * * * * * * * * * * * * * * * * * * * * * * * * * * * * * * //

dimensions      [0 1 -1 0 0 0 0];

internalField   nonuniform List<vector> 
48000
(
(-0.0163718 3.23198e-07 0.0179276)
(-0.0364344 4.36471e-08 0.0177768)
(-0.050487 4.0312e-08 0.00932906)
(-0.0552934 1.69197e-08 0.000964626)
(-0.0518908 1.62942e-09 -0.00521842)
(-0.0430955 -9.8573e-09 -0.00943296)
(-0.0304545 -1.7689e-08 -0.0122564)
(-0.0153763 -2.29164e-08 -0.0141126)
(0.00141398 -2.7074e-08 -0.0152008)
(0.0190607 -2.89282e-08 -0.01564)
(0.0370655 -2.77746e-08 -0.015678)
(0.0551852 -2.56424e-08 -0.015488)
(0.0731361 -2.29582e-08 -0.0151413)
(0.0907533 -2.00304e-08 -0.0146861)
(0.107909 -1.70074e-08 -0.0141553)
(0.12451 -1.40452e-08 -0.0135726)
(0.140488 -1.12278e-08 -0.0129551)
(0.155793 -8.62358e-09 -0.0123155)
(0.17039 -6.23638e-09 -0.0116636)
(0.184256 -4.07762e-09 -0.0110067)
(0.197375 -2.15301e-09 -0.0103507)
(0.209742 -4.32091e-10 -0.00970018)
(0.221356 1.09084e-09 -0.00905874)
(0.232222 2.4177e-09 -0.00842936)
(0.242349 3.58275e-09 -0.00781443)
(0.251749 4.58979e-09 -0.00721589)
(0.260437 5.44644e-09 -0.0066353)
(0.268432 6.16412e-09 -0.00607392)
(0.275754 6.76378e-09 -0.00553273)
(0.282425 7.25112e-09 -0.00501249)
(0.288467 7.63566e-09 -0.00451377)
(0.293905 7.93073e-09 -0.00403696)
(0.298765 8.14775e-09 -0.00358228)
(0.303071 8.29433e-09 -0.00314983)
(0.306851 8.37048e-09 -0.00273957)
(0.310129 8.39713e-09 -0.00235136)
(0.312933 8.36668e-09 -0.00198495)
(0.315288 8.30957e-09 -0.00163999)
(0.317221 8.21248e-09 -0.00131608)
(0.318757 8.08875e-09 -0.00101274)
(0.31992 7.94978e-09 -0.000729425)
(0.320736 7.77845e-09 -0.000465573)
(0.321228 7.60903e-09 -0.00022055)
(0.321419 7.41295e-09 6.70841e-06)
(0.321331 7.2283e-09 0.000216777)
(0.320985 7.05507e-09 0.000409941)
(0.320403 6.88184e-09 0.000587097)
(0.319602 6.71242e-09 0.000749155)
(0.318603 6.55441e-09 0.000896923)
(0.317422 6.40783e-09 0.00103117)
(0.316076 6.25935e-09 0.00115264)
(0.314582 6.13942e-09 0.00126208)
(0.312953 6.02901e-09 0.00136023)
(0.311204 5.93383e-09 0.0014478)
(0.309348 5.85197e-09 0.00152552)
(0.307397 5.78344e-09 0.00159405)
(0.305361 5.73585e-09 0.00165406)
(0.303253 5.69017e-09 0.0017062)
(0.301081 5.67303e-09 0.00175106)
(0.298855 5.65781e-09 0.00178924)
(0.296582 5.66161e-09 0.00182129)
(0.29427 5.67684e-09 0.00184773)
(0.291926 5.70159e-09 0.00186907)
(0.289556 5.73585e-09 0.00188578)
(0.287166 5.77583e-09 0.00189828)
(0.284762 5.82913e-09 0.00190701)
(0.282347 5.88243e-09 0.00191233)
(0.279926 5.94716e-09 0.00191462)
(0.277503 6.0233e-09 0.0019142)
(0.27508 6.09373e-09 0.00191138)
(0.272662 6.16988e-09 0.00190644)
(0.27025 6.24602e-09 0.00189965)
(0.267846 6.31836e-09 0.00189125)
(0.265453 6.40021e-09 0.00188145)
(0.263073 6.48016e-09 0.00187046)
(0.260707 6.55821e-09 0.00185847)
(0.258355 6.64006e-09 0.00184564)
(0.25602 6.71621e-09 0.00183212)
(0.253702 6.79045e-09 0.00181806)
(0.251401 6.86088e-09 0.00180357)
(0.249118 6.93702e-09 0.00178877)
(0.246854 6.99603e-09 0.00177377)
(0.244608 7.05123e-09 0.00175866)
(0.242381 7.11595e-09 0.00174352)
(0.240173 7.17496e-09 0.00172844)
(0.237984 7.22064e-09 0.00171347)
(0.235813 7.26823e-09 0.00169868)
(0.233661 7.31391e-09 0.00168413)
(0.231526 7.35579e-09 0.00166986)
(0.229409 7.38434e-09 0.00165594)
(0.22731 7.42241e-09 0.00164239)
(0.225227 7.45667e-09 0.00162926)
(0.22316 7.48522e-09 0.00161659)
(0.221109 7.51187e-09 0.0016044)
(0.219073 7.53852e-09 0.00159273)
(0.217052 7.55184e-09 0.0015816)
(0.215044 7.55945e-09 0.00157105)
(0.213049 7.58229e-09 0.0015611)
(0.211066 7.59371e-09 0.00155176)
(0.209094 7.60703e-09 0.00154308)
(0.207133 7.61654e-09 0.00153505)
(0.205182 7.62796e-09 0.00152772)
(0.203239 7.64318e-09 0.00152108)
(0.201305 7.64889e-09 0.00151518)
(0.199378 7.66221e-09 0.00151001)
(0.197456 7.67553e-09 0.00150561)
(0.19554 7.68695e-09 0.00150199)
(0.193628 7.69837e-09 0.00149916)
(0.191719 7.71169e-09 0.00149714)
(0.189813 7.72882e-09 0.00149596)
(0.187907 7.74785e-09 0.00149562)
(0.186002 7.77259e-09 0.00149614)
(0.184095 7.79163e-09 0.00149754)
(0.182187 7.82399e-09 0.00149983)
(0.180275 7.86015e-09 0.00150302)
(0.178359 7.88109e-09 0.00150714)
(0.176437 7.91916e-09 0.00151219)
(0.174509 7.95722e-09 0.00151819)
(0.172574 7.9972e-09 0.00152516)
(0.170629 8.04669e-09 0.00153309)
(0.168674 8.10379e-09 0.00154201)
(0.166707 8.15899e-09 0.00155193)
(0.164728 8.22752e-09 0.00156286)
(0.162736 8.30176e-09 0.00157481)
(0.160728 8.37409e-09 0.00158778)
(0.158704 8.45214e-09 0.00160179)
(0.156662 8.5378e-09 0.00161683)
(0.154602 8.63869e-09 0.00163293)
(0.152522 8.73387e-09 0.00165007)
(0.15042 8.83666e-09 0.00166828)
(0.148296 8.96229e-09 0.00168753)
(0.146148 9.08032e-09 0.00170785)
(0.143975 9.20976e-09 0.00172922)
(0.141776 9.35062e-09 0.00175164)
(0.13955 9.4953e-09 0.00177511)
(0.137295 9.64378e-09 0.00179962)
(0.13501 9.80748e-09 0.00182516)
(0.132694 9.98642e-09 0.00185172)
(0.130346 1.01539e-08 0.00187929)
(0.127964 1.03443e-08 0.00190784)
(0.125549 1.05423e-08 0.00193736)
(0.123098 1.07517e-08 0.00196783)
(0.12061 1.09573e-08 0.00199921)
(0.118085 1.11781e-08 0.00203148)
(0.115522 1.14103e-08 0.00206461)
(0.112919 1.16578e-08 0.00209856)
(0.110277 1.19167e-08 0.00213328)
(0.107593 1.21794e-08 0.00216874)
(0.104868 1.24611e-08 0.00220487)
(0.102102 1.27314e-08 0.00224163)
(0.0992921 1.30208e-08 0.00227894)
(0.0964396 1.33063e-08 0.00231674)
(0.0935437 1.36071e-08 0.00235496)
(0.0906043 1.39116e-08 0.00239351)
(0.0876212 1.42086e-08 0.0024323)
(0.0845944 1.45208e-08 0.00247123)
(0.0815241 1.48292e-08 0.00251019)
(0.0784107 1.51452e-08 0.00254906)
(0.0752545 1.54574e-08 0.00258771)
(0.0720562 1.57848e-08 0.00262598)
(0.0688168 1.61198e-08 0.00266373)
(0.0655372 1.64701e-08 0.00270076)
(0.0622188 1.6866e-08 0.00273688)
(0.0588631 1.72772e-08 0.00277188)
(0.055472 1.77493e-08 0.0028055)
(0.0520476 1.82823e-08 0.00283749)
(0.0485925 1.89143e-08 0.00286752)
(0.0451096 1.96377e-08 0.00289528)
(0.0416021 2.04372e-08 0.00292036)
(0.038074 2.13624e-08 0.00294235)
(0.0345295 2.23675e-08 0.00296075)
(0.0309735 2.34145e-08 0.00297501)
(0.0274117 2.44843e-08 0.0029845)
(0.0238505 2.54742e-08 0.00298851)
(0.0202971 2.62965e-08 0.00298622)
(0.0167598 2.68448e-08 0.00297667)
(0.0132479 2.70199e-08 0.00295879)
(0.00977217 2.67077e-08 0.00293128)
(0.00634427 2.58816e-08 0.00289258)
(0.00298147 2.44538e-08 0.00284072)
(-0.000307345 2.22875e-08 0.00276947)
(-0.00349469 1.96415e-08 0.00267388)
(-0.0065581 1.72125e-08 0.00255528)
(-0.0094763 1.54612e-08 0.0024143)
(-0.0122185 1.49624e-08 0.00224749)
(-0.0147524 1.64625e-08 0.0020491)
(-0.0170386 2.0658e-08 0.00181364)
(-0.0190314 2.79679e-08 0.00153436)
(-0.020677 3.78667e-08 0.00120277)
(-0.0219119 4.85498e-08 0.000808725)
(-0.0226615 5.65145e-08 0.000339643)
(-0.0228388 5.70628e-08 -0.000218099)
(-0.0223403 4.72097e-08 -0.000876584)
(-0.0210613 2.95441e-08 -0.00164743)
(-0.018886 1.37898e-08 -0.0025348)
(-0.0157163 1.24192e-08 -0.00351107)
(-0.0115212 2.65974e-08 -0.00446321)
(-0.00657751 3.19657e-08 -0.00502756)
(-0.000974587 1.17109e-08 -0.0035657)
(0.000986113 -6.95643e-08 0.00138438)
(-0.0163729 3.23194e-07 0.0179266)
(-0.0364347 4.36468e-08 0.0177764)
(-0.0504869 4.03117e-08 0.00932881)
(-0.0552932 1.69196e-08 0.000964401)
(-0.0518906 1.62942e-09 -0.00521863)
(-0.0430952 -9.85726e-09 -0.00943316)
(-0.0304543 -1.76889e-08 -0.0122566)
(-0.0153761 -2.29163e-08 -0.0141128)
(0.0014142 -2.70739e-08 -0.015201)
(0.0190609 -2.89281e-08 -0.0156401)
(0.0370657 -2.77745e-08 -0.0156782)
(0.0551853 -2.56423e-08 -0.0154882)
(0.0731363 -2.29582e-08 -0.0151415)
(0.0907535 -2.00303e-08 -0.0146862)
(0.107909 -1.70073e-08 -0.0141554)
(0.124511 -1.40452e-08 -0.0135727)
(0.140489 -1.12278e-08 -0.0129552)
(0.155793 -8.62357e-09 -0.0123156)
(0.17039 -6.23637e-09 -0.0116637)
(0.184256 -4.07761e-09 -0.0110069)
(0.197375 -2.153e-09 -0.0103509)
(0.209742 -4.32091e-10 -0.00970029)
(0.221356 1.09084e-09 -0.00905885)
(0.232222 2.4177e-09 -0.00842947)
(0.242349 3.58274e-09 -0.00781454)
(0.251749 4.58978e-09 -0.007216)
(0.260437 5.44643e-09 -0.00663541)
(0.268432 6.16412e-09 -0.00607402)
(0.275754 6.76377e-09 -0.00553282)
(0.282425 7.25111e-09 -0.00501259)
(0.288467 7.63565e-09 -0.00451387)
(0.293905 7.93072e-09 -0.00403705)
(0.298765 8.14774e-09 -0.00358237)
(0.303071 8.29432e-09 -0.00314992)
(0.306851 8.37047e-09 -0.00273966)
(0.310129 8.39713e-09 -0.00235145)
(0.312933 8.36667e-09 -0.00198503)
(0.315288 8.30956e-09 -0.00164007)
(0.317221 8.21248e-09 -0.00131616)
(0.318757 8.08874e-09 -0.00101282)
(0.31992 7.94977e-09 -0.000729503)
(0.320736 7.77845e-09 -0.00046565)
(0.321228 7.60902e-09 -0.000220626)
(0.321419 7.41295e-09 6.63299e-06)
(0.321331 7.2283e-09 0.000216703)
(0.320985 7.05507e-09 0.000409868)
(0.320402 6.88183e-09 0.000587024)
(0.319602 6.71241e-09 0.000749083)
(0.318603 6.55441e-09 0.000896852)
(0.317422 6.40783e-09 0.0010311)
(0.316076 6.25935e-09 0.00115257)
(0.314582 6.13942e-09 0.00126201)
(0.312953 6.02901e-09 0.00136016)
(0.311204 5.93383e-09 0.00144774)
(0.309348 5.85197e-09 0.00152545)
(0.307396 5.78344e-09 0.00159398)
(0.305361 5.73585e-09 0.001654)
(0.303253 5.69016e-09 0.00170613)
(0.301081 5.67303e-09 0.001751)
(0.298854 5.6578e-09 0.00178917)
(0.296581 5.66161e-09 0.00182122)
(0.29427 5.67684e-09 0.00184767)
(0.291926 5.70159e-09 0.00186901)
(0.289556 5.73585e-09 0.00188571)
(0.287166 5.77583e-09 0.00189822)
(0.284762 5.82913e-09 0.00190694)
(0.282347 5.88243e-09 0.00191227)
(0.279926 5.94715e-09 0.00191456)
(0.277502 6.0233e-09 0.00191413)
(0.27508 6.09373e-09 0.00191131)
(0.272662 6.16987e-09 0.00190638)
(0.270249 6.24602e-09 0.00189959)
(0.267846 6.31835e-09 0.00189118)
(0.265453 6.40021e-09 0.00188139)
(0.263073 6.48016e-09 0.0018704)
(0.260707 6.55821e-09 0.00185841)
(0.258355 6.64006e-09 0.00184557)
(0.25602 6.7162e-09 0.00183206)
(0.253702 6.79044e-09 0.00181799)
(0.251401 6.86087e-09 0.0018035)
(0.249118 6.93701e-09 0.00178871)
(0.246854 6.99602e-09 0.00177371)
(0.244608 7.05123e-09 0.0017586)
(0.242381 7.11595e-09 0.00174346)
(0.240173 7.17496e-09 0.00172837)
(0.237984 7.22064e-09 0.0017134)
(0.235813 7.26823e-09 0.00169861)
(0.233661 7.31391e-09 0.00168406)
(0.231526 7.35579e-09 0.0016698)
(0.229409 7.38434e-09 0.00165587)
(0.22731 7.42241e-09 0.00164232)
(0.225227 7.45667e-09 0.0016292)
(0.22316 7.48522e-09 0.00161652)
(0.221109 7.51186e-09 0.00160433)
(0.219073 7.53851e-09 0.00159266)
(0.217052 7.55183e-09 0.00158154)
(0.215044 7.55944e-09 0.00157098)
(0.213049 7.58228e-09 0.00156103)
(0.211066 7.5937e-09 0.0015517)
(0.209094 7.60702e-09 0.00154301)
(0.207133 7.61654e-09 0.00153498)
(0.205182 7.62795e-09 0.00152765)
(0.203239 7.64318e-09 0.00152101)
(0.201305 7.64889e-09 0.00151511)
(0.199377 7.66221e-09 0.00150994)
(0.197456 7.67553e-09 0.00150554)
(0.19554 7.68695e-09 0.00150192)
(0.193628 7.69836e-09 0.00149909)
(0.191719 7.71169e-09 0.00149707)
(0.189813 7.72881e-09 0.00149589)
(0.187907 7.74785e-09 0.00149555)
(0.186002 7.77259e-09 0.00149607)
(0.184095 7.79162e-09 0.00149747)
(0.182187 7.82398e-09 0.00149976)
(0.180275 7.86015e-09 0.00150295)
(0.178359 7.88108e-09 0.00150707)
(0.176437 7.91915e-09 0.00151212)
(0.174509 7.95722e-09 0.00151812)
(0.172573 7.99719e-09 0.00152508)
(0.170629 8.04668e-09 0.00153302)
(0.168674 8.10379e-09 0.00154194)
(0.166707 8.15899e-09 0.00155186)
(0.164728 8.22752e-09 0.00156279)
(0.162736 8.30175e-09 0.00157474)
(0.160728 8.37409e-09 0.00158771)
(0.158704 8.45213e-09 0.00160171)
(0.156662 8.53779e-09 0.00161676)
(0.154602 8.63868e-09 0.00163286)
(0.152522 8.73386e-09 0.00165)
(0.15042 8.83665e-09 0.0016682)
(0.148296 8.96229e-09 0.00168746)
(0.146148 9.08031e-09 0.00170777)
(0.143975 9.20975e-09 0.00172914)
(0.141776 9.35062e-09 0.00175157)
(0.13955 9.49529e-09 0.00177504)
(0.137295 9.64377e-09 0.00179955)
(0.13501 9.80748e-09 0.00182509)
(0.132694 9.98642e-09 0.00185165)
(0.130346 1.01539e-08 0.00187921)
(0.127964 1.03443e-08 0.00190776)
(0.125549 1.05423e-08 0.00193728)
(0.123098 1.07517e-08 0.00196775)
(0.12061 1.09572e-08 0.00199913)
(0.118085 1.11781e-08 0.0020314)
(0.115522 1.14103e-08 0.00206453)
(0.112919 1.16578e-08 0.00209848)
(0.110277 1.19167e-08 0.0021332)
(0.107593 1.21794e-08 0.00216865)
(0.104868 1.24611e-08 0.00220478)
(0.102102 1.27314e-08 0.00224154)
(0.0992921 1.30208e-08 0.00227885)
(0.0964396 1.33063e-08 0.00231665)
(0.0935437 1.36071e-08 0.00235487)
(0.0906043 1.39116e-08 0.00239342)
(0.0876212 1.42086e-08 0.00243221)
(0.0845944 1.45208e-08 0.00247114)
(0.0815241 1.48292e-08 0.0025101)
(0.0784107 1.51452e-08 0.00254896)
(0.0752545 1.54574e-08 0.00258761)
(0.0720562 1.57848e-08 0.00262588)
(0.0688168 1.61198e-08 0.00266362)
(0.0655372 1.64701e-08 0.00270065)
(0.0622188 1.6866e-08 0.00273677)
(0.0588631 1.72772e-08 0.00277177)
(0.055472 1.77493e-08 0.00280539)
(0.0520476 1.82823e-08 0.00283737)
(0.0485926 1.89143e-08 0.00286741)
(0.0451096 1.96377e-08 0.00289516)
(0.0416022 2.04372e-08 0.00292024)
(0.038074 2.13624e-08 0.00294222)
(0.0345295 2.23675e-08 0.00296062)
(0.0309735 2.34145e-08 0.00297488)
(0.0274117 2.44843e-08 0.00298437)
(0.0238505 2.54742e-08 0.00298837)
(0.0202971 2.62965e-08 0.00298607)
(0.0167598 2.68448e-08 0.00297653)
(0.0132479 2.70199e-08 0.00295864)
(0.0097722 2.67077e-08 0.00293113)
(0.0063443 2.58815e-08 0.00289242)
(0.0029815 2.44538e-08 0.00284056)
(-0.00030732 2.22875e-08 0.00276931)
(-0.00349467 1.96415e-08 0.00267372)
(-0.00655807 1.72125e-08 0.00255511)
(-0.00947627 1.54612e-08 0.00241412)
(-0.0122185 1.49624e-08 0.00224731)
(-0.0147524 1.64625e-08 0.00204892)
(-0.0170386 2.0658e-08 0.00181346)
(-0.0190314 2.79679e-08 0.00153417)
(-0.020677 3.78667e-08 0.00120258)
(-0.0219119 4.85497e-08 0.000808523)
(-0.0226615 5.65145e-08 0.000339431)
(-0.0228388 5.70627e-08 -0.000218321)
(-0.0223403 4.72096e-08 -0.000876818)
(-0.0210613 2.95441e-08 -0.00164768)
(-0.018886 1.37898e-08 -0.00253506)
(-0.0157163 1.24192e-08 -0.00351135)
(-0.0115213 2.65972e-08 -0.00446352)
(-0.00657771 3.19653e-08 -0.00502795)
(-0.000974931 1.17111e-08 -0.00356629)
(0.000985798 -6.95672e-08 0.00138336)
(-0.0145961 3.26585e-08 0.0410737)
(-0.0215457 4.2602e-09 0.027262)
(-0.0220566 5.75279e-09 0.0123761)
(-0.0188087 8.10886e-10 -0.000929464)
(-0.0121134 -1.02424e-09 -0.011271)
(-0.00272159 -2.57952e-09 -0.018718)
(0.0088544 -3.8169e-09 -0.0238723)
(0.0220064 -4.72113e-09 -0.0272993)
(0.0362945 -5.356e-09 -0.0294353)
(0.0513204 -5.63203e-09 -0.0305915)
(0.0667752 -5.61203e-09 -0.0310561)
(0.0824084 -5.47782e-09 -0.0310339)
(0.0980161 -5.24937e-09 -0.0306541)
(0.113443 -4.96953e-09 -0.0300111)
(0.128568 -4.66208e-09 -0.0291726)
(0.143297 -4.34369e-09 -0.0281887)
(0.157555 -4.03243e-09 -0.0270975)
(0.171288 -3.73593e-09 -0.0259283)
(0.184452 -3.45561e-09 -0.0247043)
(0.197017 -3.19528e-09 -0.023444)
(0.20896 -2.95399e-09 -0.0221623)
(0.220266 -2.73554e-09 -0.0208716)
(0.230929 -2.5347e-09 -0.0195818)
(0.240945 -2.35432e-09 -0.0183016)
(0.250316 -2.19013e-09 -0.0170378)
(0.259049 -2.04212e-09 -0.0157965)
(0.267151 -1.916e-09 -0.0145826)
(0.274636 -1.8032e-09 -0.0134003)
(0.281518 -1.70659e-09 -0.0122529)
(0.287812 -1.62187e-09 -0.0111434)
(0.293538 -1.55334e-09 -0.0100739)
(0.298713 -1.49384e-09 -0.00904625)
(0.303359 -1.4453e-09 -0.00806179)
(0.307496 -1.40817e-09 -0.00712146)
(0.311147 -1.38009e-09 -0.00622584)
(0.314334 -1.36058e-09 -0.0053752)
(0.317079 -1.3463e-09 -0.00456951)
(0.319406 -1.33915e-09 -0.00380852)
(0.321335 -1.33534e-09 -0.00309171)
(0.322891 -1.33534e-09 -0.00241837)
(0.324094 -1.34057e-09 -0.00178764)
(0.324967 -1.34866e-09 -0.00119847)
(0.325531 -1.35818e-09 -0.000649705)
(0.325807 -1.36531e-09 -0.000140063)
(0.325814 -1.3753e-09 0.000331866)
(0.325572 -1.39101e-09 0.000767612)
(0.325099 -1.401e-09 0.00116872)
(0.324415 -1.41099e-09 0.00153673)
(0.323534 -1.41908e-09 0.00187324)
(0.322475 -1.42717e-09 0.00217984)
(0.321253 -1.43145e-09 0.00245813)
(0.319882 -1.43668e-09 0.0027097)
(0.318376 -1.44001e-09 0.00293614)
(0.316748 -1.44096e-09 0.00313899)
(0.315011 -1.43953e-09 0.0033198)
(0.313177 -1.43715e-09 0.00348003)
(0.311255 -1.43382e-09 0.00362114)
(0.309257 -1.4281e-09 0.00374451)
(0.307191 -1.42049e-09 0.00385148)
(0.305066 -1.41192e-09 0.00394333)
(0.30289 -1.4024e-09 0.00402129)
(0.300671 -1.3905e-09 0.00408652)
(0.298415 -1.37813e-09 0.00414012)
(0.296128 -1.36575e-09 0.00418313)
(0.293817 -1.3529e-09 0.00421653)
(0.291486 -1.33767e-09 0.00424123)
(0.289139 -1.32339e-09 0.0042581)
(0.286782 -1.30864e-09 0.00426793)
(0.284418 -1.29198e-09 0.00427147)
(0.28205 -1.27628e-09 0.00426942)
(0.279681 -1.26295e-09 0.00426241)
(0.277315 -1.24772e-09 0.00425103)
(0.274953 -1.23202e-09 0.00423583)
(0.272598 -1.21679e-09 0.00421731)
(0.270251 -1.20299e-09 0.00419592)
(0.267914 -1.18633e-09 0.00417209)
(0.265589 -1.17491e-09 0.0041462)
(0.263276 -1.16063e-09 0.0041186)
(0.260977 -1.14778e-09 0.00408961)
(0.258693 -1.13493e-09 0.00405952)
(0.256423 -1.12399e-09 0.00402859)
(0.254169 -1.11209e-09 0.00399706)
(0.251931 -1.10305e-09 0.00396515)
(0.249709 -1.09258e-09 0.00393306)
(0.247503 -1.08164e-09 0.00390096)
(0.245314 -1.07497e-09 0.00386901)
(0.24314 -1.06451e-09 0.00383737)
(0.240984 -1.05784e-09 0.00380617)
(0.238843 -1.04928e-09 0.00377553)
(0.236717 -1.04309e-09 0.00374555)
(0.234607 -1.035e-09 0.00371635)
(0.232513 -1.02977e-09 0.00368801)
(0.230432 -1.02311e-09 0.00366062)
(0.228366 -1.01645e-09 0.00363425)
(0.226313 -1.01169e-09 0.00360899)
(0.224273 -1.00884e-09 0.00358489)
(0.222245 -1.00455e-09 0.00356201)
(0.220229 -9.99321e-10 0.00354043)
(0.218223 -9.95039e-10 0.00352019)
(0.216228 -9.91709e-10 0.00350134)
(0.214243 -9.87903e-10 0.00348394)
(0.212265 -9.85049e-10 0.00346802)
(0.210296 -9.81243e-10 0.00345364)
(0.208334 -9.78865e-10 0.00344084)
(0.206378 -9.76963e-10 0.00342965)
(0.204427 -9.73157e-10 0.00342012)
(0.20248 -9.70779e-10 0.00341229)
(0.200537 -9.6745e-10 0.00340619)
(0.198596 -9.64596e-10 0.00340186)
(0.196657 -9.61742e-10 0.00339933)
(0.194718 -9.61743e-10 0.00339863)
(0.192779 -9.59841e-10 0.00339981)
(0.190838 -9.56987e-10 0.00340288)
(0.188895 -9.56037e-10 0.00340789)
(0.186948 -9.55086e-10 0.00341485)
(0.184996 -9.53184e-10 0.0034238)
(0.183039 -9.53185e-10 0.00343476)
(0.181074 -9.52711e-10 0.00344776)
(0.179102 -9.53664e-10 0.00346282)
(0.17712 -9.54617e-10 0.00347997)
(0.175129 -9.54143e-10 0.00349922)
(0.173125 -9.5462e-10 0.00352059)
(0.17111 -9.54145e-10 0.00354411)
(0.16908 -9.55098e-10 0.00356977)
(0.167036 -9.56527e-10 0.00359761)
(0.164976 -9.59384e-10 0.00362762)
(0.162898 -9.61289e-10 0.00365981)
(0.160802 -9.6367e-10 0.00369419)
(0.158687 -9.66526e-10 0.00373076)
(0.15655 -9.68431e-10 0.00376951)
(0.154392 -9.6986e-10 0.00381045)
(0.152211 -9.74144e-10 0.00385355)
(0.150006 -9.77476e-10 0.0038988)
(0.147776 -9.81285e-10 0.0039462)
(0.145519 -9.84617e-10 0.0039957)
(0.143234 -9.90329e-10 0.00404729)
(0.140922 -9.96041e-10 0.00410093)
(0.138579 -1.00223e-09 0.00415658)
(0.136206 -1.00699e-09 0.0042142)
(0.133801 -1.01413e-09 0.00427373)
(0.131364 -1.01936e-09 0.00433512)
(0.128893 -1.02555e-09 0.00439829)
(0.126388 -1.03412e-09 0.00446318)
(0.123847 -1.04411e-09 0.00452971)
(0.121271 -1.05125e-09 0.00459777)
(0.118658 -1.05887e-09 0.00466728)
(0.116007 -1.06791e-09 0.00473812)
(0.113319 -1.0779e-09 0.00481017)
(0.110592 -1.08742e-09 0.0048833)
(0.107827 -1.10027e-09 0.00495737)
(0.105022 -1.11217e-09 0.00503222)
(0.102178 -1.12597e-09 0.00510767)
(0.0992937 -1.14025e-09 0.00518355)
(0.0963703 -1.15548e-09 0.00525965)
(0.0934073 -1.17357e-09 0.00533575)
(0.0904051 -1.19355e-09 0.00541162)
(0.087364 -1.21211e-09 0.00548698)
(0.0842845 -1.23258e-09 0.00556157)
(0.0811673 -1.25637e-09 0.00563507)
(0.0780132 -1.28017e-09 0.00570714)
(0.0748234 -1.30063e-09 0.00577743)
(0.0715991 -1.32015e-09 0.00584553)
(0.0683418 -1.33918e-09 0.005911)
(0.0650533 -1.35536e-09 0.00597336)
(0.0617356 -1.36869e-09 0.00603209)
(0.058391 -1.37726e-09 0.00608659)
(0.0550223 -1.37726e-09 0.00613622)
(0.0516324 -1.37345e-09 0.00618026)
(0.0482248 -1.36964e-09 0.00621793)
(0.0448033 -1.36108e-09 0.00624832)
(0.0413723 -1.35822e-09 0.00627045)
(0.0379367 -1.36869e-09 0.00628321)
(0.034502 -1.39249e-09 0.00628533)
(0.0310744 -1.44674e-09 0.0062754)
(0.0276607 -1.54097e-09 0.00625181)
(0.0242687 -1.68279e-09 0.00621273)
(0.0209073 -1.87886e-09 0.00615604)
(0.0175861 -2.13395e-09 0.0060793)
(0.0143162 -2.43757e-09 0.00597952)
(0.0111104 -2.78403e-09 0.00585339)
(0.00798212 -3.13335e-09 0.00569553)
(0.00494734 -3.41508e-09 0.00550045)
(0.0020237 -3.60068e-09 0.0052647)
(-0.000770331 -3.6359e-09 0.00498321)
(-0.00340939 -3.43412e-09 0.00464929)
(-0.00586906 -2.88968e-09 0.00425485)
(-0.0081212 -1.92169e-09 0.00379035)
(-0.0101342 -5.12068e-10 0.00324417)
(-0.011873 1.14979e-09 0.00260272)
(-0.013299 2.54799e-09 0.00185066)
(-0.0143704 2.80498e-09 0.000970738)
(-0.0150441 9.36583e-10 -5.4125e-05)
(-0.015276 -3.30848e-09 -0.00123591)
(-0.015026 -8.36733e-09 -0.0025782)
(-0.0142668 -1.04166e-08 -0.00406159)
(-0.0129933 -5.66516e-09 -0.005606)
(-0.0112405 3.48173e-09 -0.00699499)
(-0.00905308 3.31231e-09 -0.00773195)
(-0.00638359 -8.44063e-09 -0.0065645)
(-0.00378218 -1.73548e-07 -0.00152297)
(-0.0145964 3.26583e-08 0.0410733)
(-0.0215458 4.26015e-09 0.0272618)
(-0.0220565 5.75273e-09 0.0123759)
(-0.0188086 8.10878e-10 -0.000929596)
(-0.0121133 -1.02423e-09 -0.0112711)
(-0.00272148 -2.5795e-09 -0.0187181)
(0.00885451 -3.81687e-09 -0.0238724)
(0.0220065 -4.7211e-09 -0.0272994)
(0.0362946 -5.35597e-09 -0.0294354)
(0.0513205 -5.632e-09 -0.0305916)
(0.0667753 -5.612e-09 -0.0310562)
(0.0824085 -5.47779e-09 -0.031034)
(0.0980161 -5.24935e-09 -0.0306541)
(0.113443 -4.96951e-09 -0.0300112)
(0.128568 -4.66206e-09 -0.0291726)
(0.143297 -4.34367e-09 -0.0281887)
(0.157555 -4.03242e-09 -0.0270975)
(0.171288 -3.73592e-09 -0.0259283)
(0.184452 -3.4556e-09 -0.0247043)
(0.197017 -3.19527e-09 -0.023444)
(0.20896 -2.95398e-09 -0.0221624)
(0.220266 -2.73553e-09 -0.0208716)
(0.230929 -2.53469e-09 -0.0195819)
(0.240945 -2.35432e-09 -0.0183016)
(0.250316 -2.19012e-09 -0.0170378)
(0.259049 -2.04211e-09 -0.0157965)
(0.267151 -1.91599e-09 -0.0145826)
(0.274636 -1.8032e-09 -0.0134003)
(0.281518 -1.70658e-09 -0.0122529)
(0.287812 -1.62187e-09 -0.0111434)
(0.293537 -1.55333e-09 -0.0100739)
(0.298713 -1.49384e-09 -0.00904626)
(0.303359 -1.44529e-09 -0.00806181)
(0.307496 -1.40817e-09 -0.00712147)
(0.311147 -1.38009e-09 -0.00622585)
(0.314334 -1.36057e-09 -0.00537521)
(0.317079 -1.34629e-09 -0.00456953)
(0.319405 -1.33915e-09 -0.00380853)
(0.321335 -1.33534e-09 -0.00309172)
(0.322891 -1.33534e-09 -0.00241839)
(0.324094 -1.34057e-09 -0.00178765)
(0.324967 -1.34866e-09 -0.00119848)
(0.325531 -1.35818e-09 -0.000649721)
(0.325807 -1.36531e-09 -0.00014008)
(0.325814 -1.3753e-09 0.000331849)
(0.325572 -1.39101e-09 0.000767595)
(0.325099 -1.401e-09 0.0011687)
(0.324415 -1.41099e-09 0.00153671)
(0.323534 -1.41908e-09 0.00187322)
(0.322475 -1.42717e-09 0.00217982)
(0.321253 -1.43145e-09 0.00245811)
(0.319882 -1.43668e-09 0.00270968)
(0.318376 -1.44001e-09 0.00293612)
(0.316748 -1.44096e-09 0.00313897)
(0.315011 -1.43953e-09 0.00331978)
(0.313177 -1.43715e-09 0.00348001)
(0.311255 -1.43381e-09 0.00362112)
(0.309257 -1.4281e-09 0.00374449)
(0.307191 -1.42049e-09 0.00385146)
(0.305066 -1.41192e-09 0.00394331)
(0.30289 -1.4024e-09 0.00402128)
(0.300671 -1.3905e-09 0.0040865)
(0.298415 -1.37813e-09 0.0041401)
(0.296128 -1.36575e-09 0.00418311)
(0.293817 -1.3529e-09 0.00421651)
(0.291485 -1.33767e-09 0.00424121)
(0.289139 -1.32339e-09 0.00425808)
(0.286782 -1.30864e-09 0.00426791)
(0.284418 -1.29198e-09 0.00427145)
(0.28205 -1.27628e-09 0.0042694)
(0.279681 -1.26295e-09 0.00426239)
(0.277315 -1.24772e-09 0.00425101)
(0.274953 -1.23202e-09 0.00423581)
(0.272598 -1.21679e-09 0.00421729)
(0.270251 -1.20299e-09 0.0041959)
(0.267914 -1.18633e-09 0.00417207)
(0.265589 -1.17491e-09 0.00414618)
(0.263276 -1.16063e-09 0.00411858)
(0.260977 -1.14778e-09 0.00408959)
(0.258693 -1.13493e-09 0.0040595)
(0.256423 -1.12399e-09 0.00402857)
(0.254169 -1.11209e-09 0.00399704)
(0.251931 -1.10305e-09 0.00396513)
(0.249709 -1.09258e-09 0.00393304)
(0.247503 -1.08164e-09 0.00390094)
(0.245314 -1.07497e-09 0.00386899)
(0.24314 -1.0645e-09 0.00383736)
(0.240984 -1.05784e-09 0.00380615)
(0.238843 -1.04928e-09 0.00377551)
(0.236717 -1.04309e-09 0.00374553)
(0.234607 -1.035e-09 0.00371633)
(0.232513 -1.02977e-09 0.00368799)
(0.230432 -1.02311e-09 0.0036606)
(0.228366 -1.01645e-09 0.00363423)
(0.226313 -1.01169e-09 0.00360897)
(0.224273 -1.00883e-09 0.00358487)
(0.222245 -1.00455e-09 0.003562)
(0.220229 -9.9932e-10 0.00354041)
(0.218223 -9.95038e-10 0.00352017)
(0.216228 -9.91708e-10 0.00350132)
(0.214243 -9.87902e-10 0.00348392)
(0.212265 -9.85048e-10 0.00346801)
(0.210296 -9.81242e-10 0.00345362)
(0.208334 -9.78864e-10 0.00344082)
(0.206378 -9.76962e-10 0.00342964)
(0.204427 -9.73156e-10 0.00342011)
(0.20248 -9.70778e-10 0.00341227)
(0.200537 -9.67449e-10 0.00340617)
(0.198596 -9.64595e-10 0.00340184)
(0.196657 -9.61741e-10 0.00339931)
(0.194718 -9.61742e-10 0.00339862)
(0.192779 -9.5984e-10 0.00339979)
(0.190838 -9.56986e-10 0.00340286)
(0.188895 -9.56036e-10 0.00340787)
(0.186948 -9.55085e-10 0.00341483)
(0.184996 -9.53183e-10 0.00342378)
(0.183039 -9.53184e-10 0.00343474)
(0.181074 -9.5271e-10 0.00344774)
(0.179102 -9.53663e-10 0.0034628)
(0.17712 -9.54616e-10 0.00347995)
(0.175129 -9.54142e-10 0.0034992)
(0.173125 -9.54619e-10 0.00352058)
(0.17111 -9.54144e-10 0.00354409)
(0.16908 -9.55097e-10 0.00356976)
(0.167036 -9.56526e-10 0.00359759)
(0.164976 -9.59383e-10 0.0036276)
(0.162898 -9.61288e-10 0.0036598)
(0.160802 -9.63669e-10 0.00369418)
(0.158687 -9.66525e-10 0.00373074)
(0.15655 -9.6843e-10 0.0037695)
(0.154392 -9.69859e-10 0.00381043)
(0.152211 -9.74143e-10 0.00385353)
(0.150006 -9.77475e-10 0.00389879)
(0.147776 -9.81284e-10 0.00394618)
(0.145519 -9.84616e-10 0.00399568)
(0.143234 -9.90328e-10 0.00404727)
(0.140922 -9.96039e-10 0.00410091)
(0.138579 -1.00223e-09 0.00415656)
(0.136206 -1.00699e-09 0.00421418)
(0.133801 -1.01413e-09 0.00427371)
(0.131364 -1.01936e-09 0.0043351)
(0.128893 -1.02555e-09 0.00439827)
(0.126388 -1.03412e-09 0.00446316)
(0.123847 -1.04411e-09 0.00452969)
(0.121271 -1.05125e-09 0.00459775)
(0.118658 -1.05887e-09 0.00466726)
(0.116007 -1.06791e-09 0.0047381)
(0.113319 -1.0779e-09 0.00481015)
(0.110592 -1.08742e-09 0.00488328)
(0.107827 -1.10027e-09 0.00495735)
(0.105022 -1.11217e-09 0.0050322)
(0.102178 -1.12597e-09 0.00510765)
(0.0992937 -1.14025e-09 0.00518353)
(0.0963703 -1.15548e-09 0.00525963)
(0.0934073 -1.17356e-09 0.00533573)
(0.0904051 -1.19355e-09 0.00541159)
(0.087364 -1.21211e-09 0.00548696)
(0.0842845 -1.23258e-09 0.00556155)
(0.0811673 -1.25637e-09 0.00563504)
(0.0780132 -1.28017e-09 0.00570712)
(0.0748234 -1.30063e-09 0.00577741)
(0.0715991 -1.32015e-09 0.00584551)
(0.0683418 -1.33918e-09 0.00591098)
(0.0650533 -1.35536e-09 0.00597334)
(0.0617356 -1.36869e-09 0.00603206)
(0.058391 -1.37726e-09 0.00608656)
(0.0550223 -1.37726e-09 0.00613619)
(0.0516324 -1.37345e-09 0.00618024)
(0.0482248 -1.36964e-09 0.0062179)
(0.0448033 -1.36108e-09 0.0062483)
(0.0413724 -1.35822e-09 0.00627043)
(0.0379368 -1.36869e-09 0.00628318)
(0.034502 -1.39249e-09 0.0062853)
(0.0310744 -1.44674e-09 0.00627537)
(0.0276607 -1.54097e-09 0.00625178)
(0.0242688 -1.68279e-09 0.0062127)
(0.0209073 -1.87886e-09 0.00615601)
(0.0175861 -2.13394e-09 0.00607927)
(0.0143162 -2.43757e-09 0.00597949)
(0.0111104 -2.78403e-09 0.00585336)
(0.00798213 -3.13334e-09 0.0056955)
(0.00494735 -3.41508e-09 0.00550041)
(0.00202371 -3.60068e-09 0.00526466)
(-0.000770318 -3.63589e-09 0.00498317)
(-0.00340938 -3.43411e-09 0.00464925)
(-0.00586905 -2.88968e-09 0.00425482)
(-0.00812119 -1.92169e-09 0.00379031)
(-0.0101342 -5.12067e-10 0.00324413)
(-0.011873 1.14979e-09 0.00260268)
(-0.013299 2.54799e-09 0.00185062)
(-0.0143704 2.80498e-09 0.000970694)
(-0.0150441 9.36582e-10 -5.41723e-05)
(-0.015276 -3.30847e-09 -0.00123596)
(-0.015026 -8.36732e-09 -0.00257825)
(-0.0142668 -1.04166e-08 -0.00406165)
(-0.0129934 -5.66514e-09 -0.00560607)
(-0.0112406 3.4817e-09 -0.00699508)
(-0.00905317 3.31226e-09 -0.00773207)
(-0.00638381 -8.44064e-09 -0.0065647)
(-0.00378266 -1.7355e-07 -0.00152341)
(-0.00627929 5.31115e-08 0.05483)
(-0.00676913 4.3078e-09 0.0273075)
(-0.00183065 6.59138e-09 0.0069478)
(0.00506187 4.48976e-09 -0.00909474)
(0.01353 4.37222e-09 -0.0214391)
(0.0233049 4.16854e-09 -0.0306133)
(0.034257 3.90155e-09 -0.0372031)
(0.0461898 3.61648e-09 -0.0417524)
(0.0588916 3.27716e-09 -0.044717)
(0.0721555 2.92688e-09 -0.046455)
(0.0857906 2.61754e-09 -0.0472625)
(0.0996154 2.33628e-09 -0.0473666)
(0.113472 2.09784e-09 -0.046935)
(0.127229 1.89939e-09 -0.0460942)
(0.140777 1.73496e-09 -0.0449401)
(0.154029 1.59695e-09 -0.0435464)
(0.166912 1.48059e-09 -0.0419708)
(0.179369 1.38184e-09 -0.0402588)
(0.191355 1.2976e-09 -0.0384469)
(0.202836 1.22384e-09 -0.0365648)
(0.213785 1.15887e-09 -0.0346369)
(0.224184 1.10058e-09 -0.0326834)
(0.23402 1.04918e-09 -0.0307211)
(0.243286 1.00183e-09 -0.0287643)
(0.25198 9.59948e-10 -0.0268249)
(0.260104 9.20448e-10 -0.0249131)
(0.267662 8.83328e-10 -0.0230375)
(0.274662 8.49778e-10 -0.0212051)
(0.281114 8.17417e-10 -0.0194222)
(0.287032 7.87673e-10 -0.0176937)
(0.292429 7.58168e-10 -0.0160237)
(0.297321 7.29376e-10 -0.0144155)
(0.301726 7.03202e-10 -0.0128717)
(0.30566 6.77266e-10 -0.0113941)
(0.309144 6.52282e-10 -0.00998409)
(0.312196 6.2825e-10 -0.00864239)
(0.314836 6.04693e-10 -0.0073693)
(0.317084 5.82326e-10 -0.00616468)
(0.318961 5.61149e-10 -0.005028)
(0.320485 5.4021e-10 -0.00395838)