/*--------------------------------*- C++ -*----------------------------------*\
  =========                 |
  \\      /  F ield         | OpenFOAM: The Open Source CFD Toolbox
   \\    /   O peration     | Website:  https://openfoam.org
    \\  /    A nd           | Version:  8
     \\/     M anipulation  |
\*---------------------------------------------------------------------------*/
FoamFile
{
    version     2.0;
    format      ascii;
    class       volScalarField;
    location    "900";
    object      alphat;
}
// * * * * * * * * * * * * * * * * * * * * * * * * * * * * * * * * * * * * * //

dimensions      [1 -1 -1 0 0 0 0];

internalField   nonuniform List<scalar> 
48000
(
0.000132352
0.000198739
3.94751e-05
4.76391e-05
5.2727e-05
5.68995e-05
6.05497e-05
6.38251e-05
6.68643e-05
6.96952e-05
7.2359e-05
7.48848e-05
7.72939e-05
7.96027e-05
8.18242e-05
8.39685e-05
8.60435e-05
8.80555e-05
9.00099e-05
9.19106e-05
9.37611e-05
9.55642e-05
9.73222e-05
9.90371e-05
0.000100711
0.000102344
0.000103939
0.000105496
0.000107016
0.000108501
0.00010995
0.000111365
0.000112746
0.000114093
0.000115407
0.000116689
0.000117939
0.000119158
0.000120345
0.000121501
0.000122627
0.000123722
0.000124788
0.000125824
0.000126831
0.000127808
0.000128757
0.000129677
0.000130569
0.000131433
0.000132269
0.000133078
0.000133859
0.000134614
0.000135342
0.000136044
0.000136719
0.000137369
0.000137992
0.00013859
0.000139163
0.000139712
0.000140235
0.000140734
0.00014121
0.000141661
0.000142089
0.000142493
0.000142875
0.000143234
0.000143569
0.000143883
0.000144174
0.000144445
0.000144695
0.000144923
0.000145131
0.000145319
0.000145486
0.000145632
0.000145759
0.000145866
0.000145954
0.000146022
0.000146072
0.000146102
0.000146114
0.000146107
0.000146082
0.000146039
0.000145978
0.0001459
0.000145804
0.000145691
0.000145561
0.000145414
0.000145251
0.000145071
0.000144875
0.000144663
0.000144436
0.000144192
0.000143932
0.000143657
0.000143366
0.00014306
0.000142739
0.000142403
0.000142052
0.000141686
0.000141306
0.000140911
0.000140501
0.000140077
0.000139639
0.000139185
0.000138718
0.000138236
0.000137739
0.000137229
0.000136704
0.000136165
0.000135611
0.000135043
0.00013446
0.000133862
0.00013325
0.000132623
0.000131981
0.000131324
0.000130652
0.000129965
0.000129263
0.000128547
0.000127815
0.000127067
0.000126305
0.000125526
0.000124732
0.000123922
0.000123097
0.000122256
0.000121399
0.000120525
0.000119636
0.00011873
0.000117808
0.000116869
0.000115914
0.000114941
0.000113952
0.000112945
0.000111921
0.00011088
0.000109822
0.000108747
0.000107654
0.000106543
0.000105415
0.000104268
0.000103104
0.000101921
0.00010072
9.94995e-05
9.82605e-05
9.70025e-05
9.57251e-05
9.4428e-05
9.31111e-05
9.17741e-05
9.04168e-05
8.90388e-05
8.764e-05
8.62197e-05
8.47775e-05
8.33128e-05
8.18246e-05
8.03123e-05
7.87747e-05
7.72108e-05
7.56192e-05
7.3998e-05
7.23453e-05
7.06586e-05
6.89348e-05
6.7171e-05
6.5366e-05
6.35181e-05
6.16367e-05
5.96798e-05
5.76269e-05
5.54515e-05
5.31223e-05
5.07494e-05
5.03392e-05
0.0003241
0.000256689
0.000193449
0.00015787
0.000109862
0.000132448
0.000198454
3.94722e-05
4.76794e-05
5.27322e-05
5.68994e-05
6.05498e-05
6.38253e-05
6.68646e-05
6.96957e-05
7.23595e-05
7.48854e-05
7.72944e-05
7.96032e-05
8.18246e-05
8.39688e-05
8.60437e-05
8.80558e-05
9.00101e-05
9.19108e-05
9.37613e-05
9.55643e-05
9.73223e-05
9.90372e-05
0.000100711
0.000102344
0.000103939
0.000105496
0.000107016
0.000108501
0.00010995
0.000111365
0.000112746
0.000114093
0.000115407
0.000116689
0.000117939
0.000119158
0.000120345
0.000121501
0.000122627
0.000123722
0.000124788
0.000125824
0.00012683
0.000127808
0.000128756
0.000129676
0.000130568
0.000131432
0.000132269
0.000133078
0.000133859
0.000134614
0.000135342
0.000136044
0.000136719
0.000137368
0.000137992
0.00013859
0.000139163
0.000139711
0.000140235
0.000140734
0.000141209
0.000141661
0.000142089
0.000142493
0.000142875
0.000143233
0.000143569
0.000143882
0.000144174
0.000144445
0.000144694
0.000144923
0.000145131
0.000145318
0.000145485
0.000145632
0.000145759
0.000145866
0.000145954
0.000146022
0.000146072
0.000146102
0.000146114
0.000146107
0.000146082
0.000146039
0.000145978
0.000145899
0.000145804
0.000145691
0.000145561
0.000145414
0.000145251
0.000145071
0.000144875
0.000144663
0.000144435
0.000144191
0.000143932
0.000143657
0.000143366
0.00014306
0.000142739
0.000142402
0.000142051
0.000141686
0.000141305
0.00014091
0.000140501
0.000140077
0.000139638
0.000139185
0.000138717
0.000138235
0.000137739
0.000137229
0.000136704
0.000136165
0.000135611
0.000135043
0.00013446
0.000133862
0.00013325
0.000132623
0.000131981
0.000131324
0.000130652
0.000129965
0.000129264
0.000128547
0.000127815
0.000127067
0.000126304
0.000125526
0.000124732
0.000123922
0.000123096
0.000122255
0.000121398
0.000120525
0.000119636
0.00011873
0.000117808
0.000116869
0.000115913
0.000114941
0.000113951
0.000112945
0.000111921
0.00011088
0.000109822
0.000108746
0.000107653
0.000106543
0.000105415
0.000104268
0.000103104
0.000101921
0.000100719
9.94994e-05
9.82605e-05
9.70024e-05
9.57248e-05
9.44277e-05
9.31106e-05
9.17735e-05
9.04162e-05
8.90383e-05
8.76395e-05
8.62194e-05
8.47773e-05
8.33126e-05
8.18245e-05
8.03122e-05
7.87747e-05
7.72108e-05
7.56192e-05
7.39982e-05
7.23455e-05
7.06588e-05
6.8935e-05
6.71712e-05
6.53662e-05
6.35183e-05
6.1637e-05
5.96801e-05
5.76274e-05
5.54526e-05
5.31248e-05
5.07553e-05
5.03577e-05
0.000324359
0.000256822
0.000193349
0.00015777
0.000109892
0.000159779
0.000270628
0.00030814
0.000424038
0.00049938
0.000555881
0.000603201
0.000644706
0.000681904
0.000715823
0.000747207
0.000776532
0.000804147
0.000830314
0.000855231
0.000879052
0.000901901
0.000923876
0.000945058
0.000965513
0.000985296
0.00100445
0.00102303
0.00104105
0.00105855
0.00107555
0.00109208
0.00110816
0.0011238
0.00113902
0.00115384
0.00116827
0.00118232
0.00119599
0.00120931
0.00122228
0.0012349
0.00124719
0.00125914
0.00127078
0.00128209
0.0012931
0.0013038
0.00131419
0.00132429
0.00133409
0.0013436
0.00135282
0.00136176
0.00137042
0.0013788
0.0013869
0.00139474
0.0014023
0.0014096
0.00141664
0.00142341
0.00142992
0.00143618
0.00144219
0.00144794
0.00145345
0.00145871
0.00146372
0.0014685
0.00147303
0.00147733
0.0014814
0.00148524
0.00148884
0.00149221
0.00149535
0.00149824
0.00150085
0.00150324
0.00150542
0.0015074
0.00150916
0.00151073
0.00151209
0.00151326
0.00151422
0.001515
0.00151558
0.00151596
0.00151617
0.00151618
0.00151601
0.00151566
0.00151512
0.00151441
0.00151352
0.00151245
0.00151121
0.0015098
0.00150822
0.00150647
0.00150456
0.00150248
0.00150024
0.00149784
0.00149528
0.00149256
0.00148968
0.00148665
0.00148346
0.00148011
0.00147662
0.00147297
0.00146917
0.00146521
0.00146111
0.00145686
0.00145246
0.00144791
0.00144321
0.00143836
0.00143337
0.00142822
0.00142293
0.00141748
0.00141189
0.00140615
0.00140026
0.00139422
0.00138803
0.00138168
0.00137519
0.00136854
0.00136174
0.00135478
0.00134767
0.00134041
0.00133299
0.00132541
0.00131767
0.00130978
0.00130172
0.00129351
0.00128513
0.0012766
0.0012679
0.00125903
0.00125
0.00124081
0.00123145
0.00122192
0.00121223
0.00120236
0.00119233
0.00118212
0.00117175
0.0011612
0.00115047
0.00113957
0.0011285
0.00111725
0.00110582
0.00109421
0.00108241
0.00107044
0.00105828
0.00104594
0.00103341
0.00102068
0.00100777
0.000994658
0.00098135
0.000967841
0.000954127
0.000940205
0.00092607
0.000911718
0.000897143
0.000882337
0.000867292
0.000851999
0.000836447
0.000820622
0.000804508
0.000788085
0.000771329
0.000754207
0.000736679
0.000718689
0.000700155
0.000680958
0.000660893
0.000639835
0.000617688
0.000594218
0.000569019
0.000541481
0.000511194
0.000481422
0.00049153
0.000421036
0.000336703
0.000250289
0.000127958
0.000159809
0.000271051
0.000308314
0.000423843
0.000499352
0.000555907
0.000603241
0.00064475
0.000681949
0.000715867
0.00074725
0.000776574
0.000804189
0.000830354
0.00085527
0.000879091
0.000901939
0.000923914
0.000945095
0.000965549
0.000985331
0.00100449
0.00102306
0.00104108
0.00105858
0.00107558
0.00109211
0.00110819
0.00112383
0.00113905
0.00115387
0.0011683
0.00118234
0.00119602
0.00120934
0.0012223
0.00123492
0.00124721
0.00125917
0.0012708
0.00128212
0.00129312
0.00130382
0.00131421
0.00132431
0.00133411
0.00134362
0.00135284
0.00136178
0.00137044
0.00137882
0.00138692
0.00139476
0.00140232
0.00140962
0.00141665
0.00142343
0.00142994
0.0014362
0.0014422
0.00144796
0.00145346
0.00145872
0.00146374
0.00146851
0.00147305
0.00147735
0.00148142
0.00148525
0.00148886
0.00149223
0.00149537
0.00149826
0.00150086
0.00150325
0.00150544
0.00150741
0.00150918
0.00151074
0.00151211
0.00151327
0.00151424
0.00151501
0.00151559
0.00151598
0.00151618
0.00151619
0.00151602
0.00151567
0.00151513
0.00151442
0.00151353
0.00151246
0.00151122
0.00150981
0.00150823
0.00150648
0.00150457
0.00150249
0.00150025
0.00149785
0.00149529
0.00149257
0.00148969
0.00148666
0.00148347
0.00148012
0.00147663
0.00147298
0.00146918
0.00146523
0.00146112
0.00145687
0.00145247
0.00144792
0.00144322
0.00143837
0.00143338
0.00142823
0.00142294
0.00141749
0.0014119
0.00140616
0.00140027
0.00139423
0.00138804
0.0013817
0.0013752
0.00136855
0.00136175
0.00135479
0.00134768
0.00134042
0.001333
0.00132542
0.00131768
0.00130979
0.00130173
0.00129352
0.00128514
0.0012766
0.0012679
0.00125904
0.00125001
0.00124082
0.00123146
0.00122193
0.00121224
0.00120237
0.00119234
0.00118213
0.00117175
0.0011612
0.00115048
0.00113958
0.00112851
0.00111725
0.00110582
0.00109421
0.00108242
0.00107045
0.00105829
0.00104595
0.00103341
0.00102069
0.00100778
0.000994666
0.000981357
0.000967848
0.000954134
0.000940212
0.000926077
0.000911725
0.00089715
0.000882344
0.000867299
0.000852007
0.000836455
0.00082063
0.000804516
0.000788094
0.000771338
0.000754217
0.000736689
0.000718699
0.000700165
0.000680968
0.000660903
0.000639844
0.000617696
0.000594224
0.000569014
0.000541432
0.000510979
0.00048079
0.000490976
0.000421329
0.000337243
0.000250602
0.000127945
0.000220407
0.000375153
0.00059199
0.000785366
0.000944361
0.00107608
0.00118832
0.00128656
0.0013743
0.0014539
0.00152701
0.00159481
0.00165819
0.0017178
0.00177414
0.00182762
0.00187856
0.00192721
0.0019738
0.00201851
0.00206147
0.00210283
0.00214269
0.00218115
0.0022183
0.00225421
0.00228895
0.00232259
0.00235517
0.00238674
0.00241736
0.00244706
0.00247588
0.00250385
0.00253101
0.00255737
0.00258298
0.00260784
0.00263199
0.00265544
0.00267821
0.00270032
0.00272178
0.00274261
0.00276281
0.00278241
0.0028014
0.0028198
0.00283763
0.00285488
0.00287157
0.00288771
0.00290329
0.00291833
0.00293284
0.00294682
0.00296027
0.00297321
0.00298563
0.00299755
0.00300897
0.00301989
0.00303032
0.00304026
0.00304972
0.00305871
0.00306722
0.00307527
0.00308285
0.00308997
0.00309663
0.00310283
0.00310856
0.00311381
0.00311856
0.00312289
0.00312681
0.0031303
0.00313339
0.00313607
0.00313836
0.00314024
0.00314174
0.00314284
0.00314356
0.00314391
0.00314388
0.00314347
0.0031427
0.00314157
0.00314008
0.00313823
0.00313603
0.00313348
0.00313058
0.00312735
0.00312378
0.00311988
0.00311564
0.00311108
0.00310619
0.00310098
0.00309545
0.0030896
0.00308344
0.00307696
0.00307018
0.00306309
0.00305568
0.00304798
0.00303997
0.00303165
0.00302304
0.00301412
0.0030049
0.00299538
0.00298555
0.00297543
0.00296501
0.00295428
0.00294326
0.00293193
0.0029203
0.00290837
0.00289613
0.00288358
0.00287073
0.00285758
0.00284411
0.00283033
0.00281624
0.00280184
0.00278712
0.00277209
0.00275674
0.00274107
0.00272508
0.00270877
0.00269213
0.00267517
0.00265789
0.00264027
0.00262232
0.00260404
0.00258543
0.00256648
0.00254719
0.00252756
0.00250759
0.00248727
0.0024666
0.00244559
0.00242422
0.0024025
0.00238042
0.00235797
0.00233517
0.00231199
0.00228844
0.00226452
0.00224021
0.00221551
0.00219042
0.00216493
0.00213902
0.00211271
0.00208596
0.00205878
0.00203115
0.00200305
0.00197448
0.00194542
0.00191584
0.00188573
0.00185505
0.00182378
0.00179189
0.00175932
0.00172604
0.00169198
0.00165707
0.00162123
0.00158436
0.0015463
0.0015069
0.00146593
0.00142307
0.00137794
0.00133008
0.00127891
0.00122352
0.00116257
0.00109398
0.00101487
0.000922299
0.000820055
0.000685303
0.00052644
0.000349172
0.000170881
0.000220302
0.000376369
0.000592159
0.000785494
0.000944463
0.00107617
0.00118841
0.00128666
0.0013744
0.00145399
0.0015271
0.00159491
0.00165828
0.00171788
0.00177422
0.0018277
0.00187863
0.00192729
0.00197388
0.00201858
0.00206154
0.00210289
0.00214275
0.00218121
0.00221836
0.00225426
0.00228901
0.00232264
0.00235522
0.00238679
0.00241741
0.0024471
0.00247592
0.00250389
0.00253104
0.00255741
0.00258301
0.00260788
0.00263202
0.00265547
0.00267824
0.00270035
0.00272181
0.00274263
0.00276283
0.00278243
0.00280142
0.00281982
0.00283765
0.0028549
0.00287159
0.00288772
0.00290331
0.00291835
0.00293285
0.00294683
0.00296028
0.00297322
0.00298564
0.00299756
0.00300898
0.0030199
0.00303033
0.00304027
0.00304973
0.00305871
0.00306723
0.00307527
0.00308285
0.00308997
0.00309664
0.00310284
0.00310856
0.00311381
0.00311856
0.00312289
0.0031268
0.0031303
0.00313339
0.00313607
0.00313835
0.00314024
0.00314173
0.00314284
0.00314356
0.00314391
0.00314387
0.00314347
0.0031427
0.00314156
0.00314007
0.00313822
0.00313602
0.00313347
0.00313058
0.00312734
0.00312377
0.00311987
0.00311563
0.00311107
0.00310618
0.00310097
0.00309544
0.00308959
0.00308343
0.00307696
0.00307017
0.00306308
0.00305568
0.00304797
0.00303996
0.00303164
0.00302303
0.00301411
0.00300489
0.00299536
0.00298554
0.00297542
0.002965
0.00295427
0.00294325
0.00293192
0.00292029
0.00290836
0.00289612
0.00288357
0.00287072
0.00285756
0.0028441
0.00283032
0.00281623
0.00280183
0.00278711
0.00277208
0.00275673
0.00274106
0.00272507
0.00270876
0.00269212
0.00267516
0.00265787
0.00264026
0.00262231
0.00260403
0.00258541
0.00256646
0.00254718
0.00252755
0.00250757
0.00248725
0.00246659
0.00244557
0.00242421
0.00240248
0.0023804
0.00235796
0.00233515
0.00231198
0.00228843
0.0022645
0.00224019
0.0022155
0.00219041
0.00216491
0.00213901
0.00211269
0.00208595
0.00205876
0.00203113
0.00200304
0.00197447
0.00194541
0.00191583
0.00188572
0.00185504
0.00182377
0.00179188
0.00175931
0.00172603
0.00169197
0.00165706
0.00162123
0.00158435
0.0015463
0.0015069
0.00146592
0.00142306
0.00137793
0.00133007
0.0012789
0.00122351
0.00116255
0.00109397
0.00101485
0.00092234
0.00082071
0.00068603
0.000526734
0.000349168
0.00017085
4.39886e-05
0.000319826
0.000729592
0.00104261
0.00128862
0.00149361
0.00166986
0.00182483
0.00196349
0.00208929
0.0022047
0.00231152
0.00241113
0.00250456
0.00259262
0.00267597
0.00275513
0.00283051
0.00290248
0.00297133
0.00303731
0.00310063
0.00316148
0.00322003
0.00327643
0.00333079
0.00338324
0.00343388
0.00348281
0.00353011
0.00357587
0.00362015
0.00366301
0.00370453
0.00374476
0.00378374
0.00382153
0.00385816
0.00389367
0.00392811
0.00396149
0.00399387
0.00402525
0.00405567
0.00408514
0.0041137
0.00414136
0.00416814
0.00419405
0.00421911
0.00424333
0.00426674
0.00428933
0.00431112
0.00433213
0.00435236
0.00437182
0.00439052
0.00440848
0.0044257
0.00444218
0.00445795
0.004473
0.00448734
0.00450098
0.00451393
0.00452619
0.00453777
0.00454869
0.00455893
0.00456851
0.00457742
0.00458567
0.00459326
0.00460017
0.00460643
0.00461207
0.00461712
0.00462157
0.00462543
0.00462871
0.00463142
0.00463355
0.00463513
0.00463615
0.00463662
0.00463654
0.00463593
0.00463478
0.00463311
0.00463092
0.00462822
0.00462501
0.00462129
0.00461708
0.00461237
0.00460718
0.0046015
0.00459535
0.00458872
0.00458162
0.00457406
0.00456603
0.00455755
0.00454861
0.00453922
0.00452938
0.0045191
0.00450837
0.0044972
0.00448559
0.00447354
0.00446106
0.00444813
0.00443478
0.00442098
0.00440675
0.00439209
0.00437699
0.00436146
0.00434549
0.00432908
0.00431224
0.00429495
0.00427723
0.00425907
0.00424046
0.0042214
0.0042019
0.00418195
0.00416155
0.0041407
0.0041194
0.00409763
0.00407541
0.00405273
0.00402958
0.00400597
0.00398188
0.00395733
0.00393231
0.0039068
0.00388082
0.00385436
0.00382741
0.00379997
0.00377204
0.00374362
0.00371469
0.00368527
0.00365533
0.00362489
0.00359392
0.00356244
0.00353042
0.00349788
0.00346479
0.00343115
0.00339696
0.0033622
0.00332686
0.00329094
0.00325441
0.00321728
0.00317951
0.0031411
0.00310202
0.00306226
0.00302178
0.00298056
0.00293858
0.00289579
0.00285215
0.00280763
0.00276216
0.00271569
0.00266814
0.00261943
0.00256947
0.00251814
0.0024653
0.00241079
0.0023544
0.00229588
0.00223491
0.00217109
0.00210391
0.00203269
0.0019566
0.00187452
0.00178493
0.00168572
0.00157397
0.0014457
0.00129593
0.00111974
0.000907935
0.000658562
0.000390287
0.000203527
4.39637e-05
0.000320679
0.000728693
0.00104238
0.0012887
0.00149374
0.00167
0.00182498
0.00196364
0.00208944
0.00220484
0.00231166
0.00241126
0.00250468
0.00259274
0.00267609
0.00275524
0.00283062
0.00290259
0.00297143
0.0030374
0.00310072
0.00316157
0.00322012
0.00327651
0.00333087
0.00338331
0.00343395
0.00348288
0.00353018
0.00357593
0.0036202
0.00366307
0.00370459
0.00374481
0.00378379
0.00382157
0.0038582
0.00389371
0.00392814
0.00396153
0.0039939
0.00402528
0.00405569
0.00408517
0.00411373
0.00414138
0.00416816
0.00419406
0.00421912
0.00424335
0.00426675
0.00428934
0.00431113
0.00433213
0.00435236
0.00437182
0.00439053
0.00440848
0.0044257
0.00444218
0.00445795
0.00447299
0.00448733
0.00450097
0.00451392
0.00452618
0.00453777
0.00454868
0.00455892
0.0045685
0.00457741
0.00458566
0.00459325
0.00460016
0.00460641
0.00461206
0.0046171
0.00462155
0.00462542
0.00462869
0.0046314
0.00463354
0.00463511
0.00463613
0.0046366
0.00463652
0.00463591
0.00463476
0.00463309
0.0046309
0.0046282
0.00462498
0.00462127
0.00461705
0.00461235
0.00460715
0.00460148
0.00459532
0.00458869
0.0045816
0.00457403
0.00456601
0.00455752
0.00454858
0.0045392
0.00452936
0.00451907
0.00450834
0.00449717
0.00448556
0.00447351
0.00446103
0.00444811
0.00443475
0.00442095
0.00440672
0.00439206
0.00437696
0.00436143
0.00434546
0.00432905
0.00431221
0.00429492
0.0042772
0.00425903
0.00424043
0.00422137
0.00420187
0.00418192
0.00416152
0.00414067
0.00411936
0.0040976
0.00407538
0.00405269
0.00402955
0.00400593
0.00398185
0.0039573
0.00393227
0.00390677
0.00388079
0.00385432
0.00382738
0.00379994
0.00377201
0.00374358
0.00371466
0.00368523
0.0036553
0.00362485
0.00359389
0.0035624
0.00353039
0.00349784
0.00346476
0.00343112
0.00339692
0.00336216
0.00332683
0.0032909
0.00325438
0.00321724
0.00317948
0.00314107
0.00310199
0.00306222
0.00302175
0.00298053
0.00293855
0.00289576
0.00285212
0.0028076
0.00276213
0.00271566
0.00266811
0.0026194
0.00256944
0.00251811
0.00246527
0.00241076
0.00235437
0.00229585
0.00223489
0.00217107
0.00210388
0.00203267
0.00195658
0.0018745
0.00178491
0.0016857
0.00157396
0.00144571
0.00129599
0.00112
0.000908177
0.000658799
0.000391146
0.000203414
4.40188e-05
0.000350816
0.000841627
0.0012407
0.00155991
0.00182879
0.00206215
0.00226866
0.00245417
0.00262285
0.00277777
0.00292122
0.00305495
0.00318034
0.00329846
0.00341017
0.00351617
0.00361702
0.0037132
0.0038051
0.00389308
0.00397742
0.00405837
0.00413616
0.00421099
0.00428302
0.00435243
0.00441935
0.00448392
0.00454625
0.00460645
0.00466464
0.00472089
0.00477529
0.00482792
0.00487886
0.00492817
0.00497591
0.00502214
0.0050669
0.00511026
0.00515225
0.00519291
0.00523228
0.00527039
0.00530728
0.00534298
0.0053775
0.00541088
0.00544314
0.00547431
0.00550439
0.00553341
0.00556139
0.00558834
0.00561428
0.00563922
0.00566317
0.00568616
0.00570819
0.00572927
0.00574942
0.00576865
0.00578696
0.00580437
0.0058209
0.00583653
0.0058513
0.0058652
0.00587825
0.00589045
0.0059018
0.00591231
0.00592198
0.00593082
0.00593884
0.00594604
0.00595248
0.00595815
0.00596307
0.00596725
0.00597069
0.00597341
0.00597541
0.00597669
0.00597728
0.00597717
0.00597638
0.00597491
0.00597277
0.00596996
0.00596651
0.0059624
0.00595766
0.00595228
0.00594628
0.00593965
0.00593242
0.00592457
0.00591612
0.00590708
0.00589745
0.00588723
0.00587642
0.00586504
0.00585309
0.00584057
0.00582748
0.00581383
0.00579962
0.00578484
0.00576952
0.00575363
0.0057372
0.00572021
0.00570267
0.00568457
0.00566593
0.00564673
0.00562699
0.00560668
0.00558583
0.00556442
0.00554245
0.00551992
0.00549684
0.00547319
0.00544898
0.0054242
0.00539885
0.00537293
0.00534644
0.00531937
0.00529172
0.00526349
0.00523467
0.00520527
0.00517527
0.00514468
0.00511349
0.0050817
0.0050493
0.00501629
0.00498267
0.00494843
0.00491356
0.00487807
0.00484194
0.00480518
0.00476776
0.0047297
0.00469098
0.00465159
0.00461152
0.00457077
0.00452933
0.00448718
0.00444431
0.00440071
0.00435637
0.00431127
0.00426539
0.0042187
0.0041712
0.00412285
0.00407363
0.0040235
0.00397243
0.00392039
0.00386732
0.00381319
0.00375792
0.00370147
0.00364375
0.00358469
0.00352419
0.00346214
0.00339841
0.00333286
0.0032653
0.00319553
0.00312329
0.00304829
0.00297013
0.00288837
0.00280241
0.00271152
0.00261477
0.00251096
0.00239854
0.00227546
0.00213901
0.00198563
0.00181058
0.00160759
0.00136818
0.00107912
0.000721994
0.000302637
3.57087e-05
4.40339e-05
0.000350734
0.000839615
0.00123992
0.00155984
0.00182891
0.00206232
0.00226884
0.00245435
0.00262303
0.00277794
0.00292139
0.00305512
0.0031805
0.00329862
0.00341032
0.00351631
0.00361716
0.00371333
0.00380524
0.00389321
0.00397754
0.00405849
0.00413627
0.00421109
0.00428313
0.00435253
0.00441944
0.00448401
0.00454633
0.00460654
0.00466471
0.00472096
0.00477536
0.00482799
0.00487892
0.00492823
0.00497596
0.00502219
0.00506695
0.0051103
0.00515229
0.00519295
0.00523231
0.00527043
0.00530731
0.005343
0.00537753
0.00541091
0.00544317
0.00547433
0.00550441
0.00553342
0.0055614
0.00558835
0.00561429
0.00563922
0.00566318
0.00568616
0.00570819
0.00572927
0.00574942
0.00576865
0.00578696
0.00580437
0.00582089
0.00583653
0.00585129
0.00586519
0.00587824
0.00589043
0.00590178
0.00591229
0.00592197
0.00593081
0.00593882
0.00594602
0.00595246
0.00595813
0.00596305
0.00596723
0.00597067
0.00597339
0.00597538
0.00597667
0.00597725
0.00597715
0.00597635
0.00597488
0.00597274
0.00596994
0.00596648
0.00596237
0.00595763
0.00595225
0.00594625
0.00593962
0.00593239
0.00592454
0.00591609
0.00590705
0.00589741
0.00588719
0.00587639
0.00586501
0.00585306
0.00584054
0.00582745
0.00581379
0.00579958
0.00578481
0.00576948
0.0057536
0.00573716
0.00572017
0.00570263
0.00568454
0.00566589
0.0056467
0.00562695
0.00560665
0.00558579
0.00556438
0.00554241
0.00551988
0.0054968
0.00547315
0.00544894
0.00542416
0.00539881
0.00537289
0.0053464
0.00531933
0.00529168
0.00526345
0.00523463
0.00520523
0.00517523
0.00514464
0.00511345
0.00508166
0.00504926
0.00501625
0.00498263
0.00494839
0.00491352
0.00487803
0.0048419
0.00480513
0.00476772
0.00472966
0.00469093
0.00465154
0.00461148
0.00457073
0.00452928
0.00448714
0.00444427
0.00440067
0.00435633
0.00431123
0.00426534
0.00421866
0.00417116
0.00412281
0.00407359
0.00402346
0.00397239
0.00392035
0.00386728
0.00381315
0.00375788
0.00370143
0.00364371
0.00358465
0.00352415
0.0034621
0.00339838
0.00333282
0.00326527
0.0031955
0.00312326
0.00304825
0.0029701
0.00288834
0.00280238
0.00271149
0.00261475
0.00251094
0.00239852
0.00227544
0.002139
0.00198563
0.00181061
0.0016077
0.00136852
0.0010799
0.000723465
0.000302774
3.57302e-05
5.06855e-05
0.000476238
0.000975485
0.00141103
0.00178273
0.00210419
0.00238664
0.00263838
0.00286555
0.00307272
0.00326336
0.00344012
0.00360507
0.00375982
0.00390566
0.00404362
0.00417455
0.00429913
0.00441794
0.00453147
0.00464013
0.00474428
0.00484421
0.00494022
0.00503252
0.00512135
0.00520689
0.00528932
0.0053688
0.00544548
0.00551949
0.00559095
0.00565999
0.0057267
0.00579119
0.00585354
0.00591384
0.00597217
0.00602861
0.00608321
0.00613604
0.00618716
0.00623661
0.00628446
0.00633074
0.0063755
0.00641877
0.00646059
0.006501
0.00654002
0.00657768
0.00661401
0.00664904
0.00668279
0.00671528
0.00674653
0.00677656
0.00680539
0.00683303
0.00685952
0.00688485
0.00690904
0.00693212
0.0069541
0.00697498
0.00699478
0.00701352
0.00703121
0.00704785
0.00706346
0.00707806
0.00709164
0.00710422
0.0071158
0.0071264
0.00713601
0.00714466
0.00715237
0.00715917
0.00716506
0.00717007
0.00717419
0.00717744
0.00717984
0.00718138
0.00718209
0.00718197
0.00718103
0.00717928
0.00717673
0.00717339
0.00716928
0.00716439
0.00715874
0.00715233
0.00714518
0.0071373
0.00712868
0.00711934
0.00710928
0.00709852
0.00708706
0.00707489
0.00706204
0.0070485
0.00703428
0.00701939
0.00700382
0.00698759
0.00697069
0.00695312
0.0069349
0.00691602
0.00689648
0.00687629
0.00685544
0.00683394
0.00681179
0.00678898
0.00676552
0.0067414
0.00671663
0.00669119
0.0066651
0.00663835
0.00661093
0.00658285
0.0065541
0.00652468
0.00649458
0.00646381
0.00643236
0.00640023
0.00636741
0.00633389
0.00629969
0.00626478
0.00622918
0.00619286
0.00615584
0.00611809
0.00607963
0.00604044
0.00600052
0.00595986
0.00591846
0.0058763
0.00583339
0.00578971
0.00574525
0.00570001
0.00565398
0.00560714
0.00555948
0.005511
0.00546167
0.00541148
0.00536041
0.00530845
0.00525557
0.00520176
0.00514698
0.00509121
0.00503441
0.00497656
0.00491761
0.00485751
0.00479623
0.00473371
0.00466988
0.00460469
0.00453804
0.00446985
0.00440003
0.00432846
0.00425501
0.00417953
0.00410185
0.00402177
0.00393904
0.0038534
0.00376449
0.00367192
0.0035752
0.00347372
0.00336672
0.00325329
0.00313223
0.00300206
0.00286086
0.00270618
0.00253487
0.00234284
0.00212483
0.00187395
0.00158115
0.0012346
0.000822897
0.000356799
3.01591e-05
5.07357e-05
0.000475593
0.000974712
0.00141078
0.00178278
0.00210435
0.00238683
0.00263858
0.00286575
0.00307292
0.00326356
0.00344032
0.00360526
0.00376001
0.00390584
0.0040438
0.00417472
0.0042993
0.0044181
0.00453163
0.00464028
0.00474442
0.00484436
0.00494035
0.00503266
0.00512148
0.00520701
0.00528944
0.00536892
0.00544559
0.00551959
0.00559105
0.00566008
0.00572679
0.00579127
0.00585362
0.00591392
0.00597224
0.00602867
0.00608327
0.0061361
0.00618721
0.00623667
0.00628451
0.00633079
0.00637554
0.00641881
0.00646063
0.00650103
0.00654005
0.00657771
0.00661404
0.00664906
0.00668281
0.00671529
0.00674654
0.00677657
0.0068054
0.00683304
0.00685952
0.00688485
0.00690905
0.00693212
0.0069541
0.00697498
0.00699478
0.00701351
0.0070312
0.00704784
0.00706345
0.00707805
0.00709163
0.00710421
0.00711579
0.00712638
0.007136
0.00714464
0.00715235
0.00715915
0.00716504
0.00717005
0.00717417
0.00717742
0.00717981
0.00718136
0.00718206
0.00718194
0.007181
0.00717925
0.0071767
0.00717336
0.00716925
0.00716436
0.00715871
0.0071523
0.00714515
0.00713726
0.00712865
0.00711931
0.00710925
0.00709849
0.00708702
0.00707486
0.00706201
0.00704847
0.00703425
0.00701935
0.00700379
0.00698755
0.00697065
0.00695309
0.00693486
0.00691598
0.00689645
0.00687625
0.00685541
0.00683391
0.00681175
0.00678894
0.00676548
0.00674136
0.00671659
0.00669115
0.00666506
0.00663831
0.00661089
0.00658281
0.00655406
0.00652464
0.00649454
0.00646377
0.00643232
0.00640018
0.00636736
0.00633385
0.00629964
0.00626474
0.00622913
0.00619282
0.00615579
0.00611805
0.00607959
0.0060404
0.00600048
0.00595982
0.00591841
0.00587626
0.00583334
0.00578966
0.00574521
0.00569997
0.00565393
0.00560709
0.00555944
0.00551095
0.00546162
0.00541143
0.00536037
0.00530841
0.00525553
0.00520171
0.00514693
0.00509116
0.00503437
0.00497651
0.00491756
0.00485747
0.00479619
0.00473367
0.00466984
0.00460464
0.00453799
0.00446981
0.00439999
0.00432842
0.00425497
0.00417949
0.00410181
0.00402173
0.00393901
0.00385336
0.00376445
0.00367189
0.00357516
0.00347368
0.00336669
0.00325326
0.0031322
0.00300203
0.00286083
0.00270616
0.00253485
0.00234283
0.00212485
0.00187403
0.00158133
0.00123485
0.000823014
0.000356467
3.01887e-05
5.22211e-05
0.0005248
0.00106879
0.0015501
0.00196864
0.00233526
0.00266008
0.00295122
0.003215
0.00345625
0.00367873
0.00388535
0.00407842
0.00425974
0.00443078
0.0045927
0.00474647
0.00489288
0.00503258
0.00516614
0.00529402
0.00541663
0.00553432
0.0056474
0.00575615
0.0058608
0.00596158
0.0060587
0.00615232
0.00624263
0.00632977
0.00641389
0.00649511
0.00657357
0.00664938
0.00672264
0.00679345
0.00686191
0.0069281
0.0069921
0.00705398
0.00711382
0.00717167
0.0072276
0.00728167
0.00733391
0.00738439
0.00743315
0.00748023
0.00752566
0.00756948
0.00761173
0.00765244
0.00769164
0.00772935
0.00776561
0.00780043
0.00783384
0.00786587
0.00789653
0.00792584
0.00795383
0.00798052
0.00800591
0.00803003
0.0080529
0.00807453
0.00809494
0.00811414
0.00813215
0.00814898
0.00816463
0.00817914
0.0081925
0.00820472
0.00821583
0.00822583
0.00823474
0.00824259
0.0082494
0.00825518
0.00825995
0.00826372
0.0082665
0.00826831
0.00826915
0.00826904
0.00826799
0.00826601
0.00826312
0.00825932
0.00825463
0.00824906
0.00824262
0.00823531
0.00822715
0.00821815
0.00820831
0.00819765
0.00818617
0.00817389
0.0081608
0.00814691
0.00813224
0.00811679
0.00810056
0.00808356
0.0080658
0.00804727
0.00802799
0.00800795
0.00798716
0.00796562
0.00794333
0.0079203
0.00789652
0.007872
0.00784674
0.00782073
0.00779398
0.00776648
0.00773824
0.00770925
0.00767951
0.00764901
0.00761777
0.00758576
0.007553
0.00751948
0.00748518
0.00745012
0.00741429
0.00737768
0.00734028
0.0073021
0.00726313
0.00722337
0.0071828
0.00714143
0.00709924
0.00705624
0.00701241
0.00696775
0.00692226
0.00687591
0.00682872
0.00678066
0.00673172
0.00668191
0.0066312
0.00657958
0.00652705
0.00647358
0.00641916
0.00636378
0.00630741
0.00625004
0.00619164
0.00613219
0.00607165
0.00601001
0.00594723
0.00588327
0.00581808
0.00575164
0.00568387
0.00561474
0.00554417
0.0054721
0.00539845
0.00532313
0.00524604
0.00516707
0.0050861
0.00500298
0.00491755
0.00482963
0.00473898
0.00464537
0.00454849
0.00444801
0.00434349
0.00423446
0.0041203
0.00400029
0.00387353
0.00373891
0.00359504
0.00344019
0.00327215
0.00308818
0.00288476
0.00265746
0.00240071
0.00210742
0.00176865
0.00137344
0.000912408
0.00040232
3.13647e-05
5.22336e-05
0.000524713
0.0010687
0.00155014
0.00196878
0.00233545
0.00266028
0.00295144
0.00321522
0.00345647
0.00367895
0.00388557
0.00407863
0.00425995
0.00443098
0.0045929
0.00474666
0.00489307
0.00503277
0.00516632
0.00529419
0.0054168
0.00553448
0.00564756
0.0057563
0.00586095
0.00596173
0.00605883
0.00615245
0.00624275
0.00632989
0.006414
0.00649522
0.00657368
0.00664948
0.00672274