/*--------------------------------*- C++ -*----------------------------------*\
  =========                 |
  \\      /  F ield         | OpenFOAM: The Open Source CFD Toolbox
   \\    /   O peration     | Website:  https://openfoam.org
    \\  /    A nd           | Version:  8
     \\/     M anipulation  |
\*---------------------------------------------------------------------------*/
FoamFile
{
    version     2.0;
    format      ascii;
    class       volScalarField;
    location    "900";
    object      epsilon;
}
// * * * * * * * * * * * * * * * * * * * * * * * * * * * * * * * * * * * * * //

dimensions      [0 2 -3 0 0 0 0];

internalField   nonuniform List<scalar> 
48000
(
0.16515
0.168811
0.980512
0.879179
1.14332
1.43587
1.73101
2.02774
2.33086
2.6402
2.9548
3.27529
3.60181
3.93447
4.27333
4.61835
4.96946
5.32652
5.68932
6.05764
6.43118
6.80965
7.19269
7.57995
7.97103
8.36553
8.76305
9.16314
9.56538
9.96932
10.3745
10.7805
11.1869
11.5932
11.9989
12.4037
12.807
13.2085
13.6078
14.0043
14.3977
14.7875
15.1734
15.555
15.9319
16.3036
16.67
17.0305
17.3849
17.7329
18.0741
18.4083
18.7351
19.0543
19.3657
19.669
19.9639
20.2503
20.528
20.7967
21.0564
21.3069
21.5479
21.7795
22.0014
22.2136
22.416
22.6085
22.7911
22.9636
23.1261
23.2784
23.4207
23.5536
23.6765
23.7895
23.8926
23.9857
24.0689
24.1423
24.2058
24.2595
24.3036
24.3381
24.363
24.3785
24.3846
24.3816
24.3694
24.3482
24.3181
24.2793
24.2318
24.1758
24.1114
24.0388
23.9581
23.8694
23.7729
23.6688
23.5571
23.4381
23.3118
23.1785
23.0383
22.8912
22.7376
22.5775
22.4111
22.2385
22.0598
21.8753
21.685
21.4891
21.2878
21.0811
20.8693
20.6524
20.4305
20.2039
19.9726
19.7368
19.4967
19.2523
19.0038
18.7513
18.4949
18.2349
17.9712
17.7041
17.4337
17.1602
16.8836
16.6042
16.3219
16.0371
15.7498
15.4603
15.1686
14.875
14.5795
14.2824
13.9837
13.6838
13.3827
13.0807
12.7779
12.4746
12.1708
11.8667
11.5626
11.2587
10.9551
10.6521
10.3498
10.0484
9.74806
9.44908
9.15161
8.85586
8.56203
8.27031
7.98089
7.69398
7.40975
7.1284
6.85013
6.57514
6.30359
6.03568
5.77156
5.51142
5.2554
5.00368
4.75641
4.51373
4.27579
4.04271
3.8146
3.59156
3.37367
3.16101
2.95363
2.75156
2.55484
2.36359
2.17792
1.99937
1.82698
1.65834
1.49297
1.33027
1.16939
1.0102
0.85995
0.18311
0.184428
0.168666
0.162963
0.155981
0.165099
0.168899
0.980184
0.878799
1.1433
1.43597
1.73112
2.02785
2.33097
2.64031
2.95491
3.27541
3.60193
3.93459
4.27344
4.61847
4.96958
5.32663
5.68944
6.05775
6.4313
6.80977
7.19281
7.58006
7.97113
8.36563
8.76315
9.16324
9.56547
9.96941
10.3746
10.7806
11.187
11.5932
11.999
12.4038
12.8071
13.2086
13.6078
14.0043
14.3977
14.7875
15.1734
15.555
15.9319
16.3037
16.67
17.0305
17.3849
17.7329
18.0741
18.4083
18.7351
19.0543
19.3657
19.669
19.9639
20.2503
20.528
20.7967
21.0564
21.3068
21.5479
21.7794
22.0013
22.2135
22.4159
22.6085
22.791
22.9636
23.1261
23.2784
23.4206
23.5535
23.6765
23.7895
23.8925
23.9857
24.0689
24.1422
24.2057
24.2595
24.3035
24.338
24.3629
24.3784
24.3846
24.3815
24.3693
24.3481
24.318
24.2792
24.2317
24.1757
24.1113
24.0387
23.958
23.8693
23.7728
23.6687
23.557
23.438
23.3117
23.1784
23.0382
22.8911
22.7375
22.5774
22.411
22.2384
22.0597
21.8752
21.6849
21.489
21.2877
21.081
20.8692
20.6523
20.4304
20.2038
19.9725
19.7367
19.4966
19.2522
19.0037
18.7512
18.4948
18.2348
17.9711
17.7041
17.4337
17.1601
16.8835
16.6041
16.3218
16.037
15.7498
15.4602
15.1686
14.8749
14.5794
14.2823
13.9837
13.6837
13.3827
13.0807
12.7779
12.4745
12.1707
11.8666
11.5626
11.2586
10.9551
10.652
10.3497
10.0483
9.748
9.44902
9.15155
8.85581
8.56198
8.27026
7.98084
7.69392
7.40968
7.12834
6.85008
6.57509
6.30356
6.03565
5.77153
5.51139
5.25537
5.00365
4.75637
4.5137
4.27576
4.04268
3.81458
3.59154
3.37365
3.16099
2.95361
2.75154
2.55482
2.36358
2.17791
1.99936
1.82697
1.65833
1.49295
1.33025
1.16938
1.01026
0.86008
0.183088
0.184397
0.168738
0.163047
0.156008
0.257574
0.297321
0.44836
0.513095
0.615398
0.72971
0.849027
0.971324
1.09683
1.22557
1.35746
1.49259
1.631
1.77274
1.91783
2.06627
2.21802
2.37305
2.53127
2.69259
2.85689
3.02405
3.19392
3.36633
3.5411
3.71804
3.89696
4.07765
4.25989
4.44346
4.62813
4.81368
4.99987
5.18648
5.37326
5.55999
5.74644
5.93238
6.11757
6.30181
6.48486
6.66651
6.84656
7.02479
7.20102
7.37504
7.54667
7.71575
7.88208
8.04552
8.20589
8.36306
8.51688
8.6672
8.81391
8.95688
9.09599
9.23115
9.36226
9.48922
9.61196
9.73039
9.84446
9.95408
10.0592
10.1598
10.2558
10.3472
10.434
10.5161
10.5934
10.6661
10.7342
10.7978
10.8567
10.911
10.9607
11.0057
11.046
11.0818
11.1129
11.1395
11.1615
11.179
11.1921
11.2007
11.205
11.205
11.2006
11.1921
11.1794
11.1626
11.1417
11.1169
11.0882
11.0555
11.0191
10.979
10.9352
10.8879
10.837
10.7826
10.7249
10.6638
10.5996
10.5321
10.4616
10.388
10.3115
10.2321
10.1499
10.065
9.97732
9.88709
9.79431
9.69905
9.60139
9.50138
9.39909
9.29459
9.18795
9.07921
8.96845
8.85573
8.74111
8.62464
8.5064
8.38644
8.26484
8.14166
8.01696
7.89081
7.76326
7.63438
7.50425
7.37293
7.24049
7.10701
6.97256
6.8372
6.70102
6.56409
6.42648
6.28828
6.14958
6.01045
5.87097
5.73123
5.59131
5.45131
5.31131
5.1714
5.03168
4.89222
4.75314
4.61451
4.47642
4.33898
4.20228
4.06642
3.93148
3.79756
3.66475
3.53315
3.40285
3.27394
3.14652
3.02067
2.89647
2.77403
2.6534
2.53469
2.41795
2.30328
2.19073
2.08037
1.97227
1.86647
1.76304
1.662
1.5634
1.46725
1.37359
1.28242
1.19375
1.10761
1.02404
0.943146
0.864721
0.788314
0.714005
0.641786
0.571655
0.503758
0.435851
0.342052
0.294572
0.249564
0.208132
0.233454
0.257622
0.296822
0.448228
0.513381
0.615451
0.729694
0.848987
0.971274
1.09678
1.22551
1.3574
1.49252
1.63093
1.77266
1.91775
2.06618
2.21793
2.37296
2.53117
2.69249
2.85679
3.02395
3.19382
3.36622
3.54099
3.71793
3.89685
4.07753
4.25977
4.44333
4.628
4.81355
4.99974
5.18634
5.37312
5.55985
5.7463
5.93223
6.11742
6.30166
6.4847
6.66636
6.8464
7.02463
7.20085
7.37487
7.54651
7.71558
7.88191
8.04534
8.20572
8.36289
8.5167
8.66702
8.81373
8.95669
9.0958
9.23096
9.36207
9.48903
9.61177
9.7302
9.84426
9.95389
10.059
10.1596
10.2556
10.347
10.4338
10.5159
10.5932
10.6659
10.734
10.7976
10.8565
10.9109
10.9605
11.0055
11.0459
11.0816
11.1127
11.1393
11.1613
11.1788
11.1919
11.2005
11.2048
11.2048
11.2004
11.1919
11.1792
11.1624
11.1416
11.1167
11.088
11.0554
11.019
10.9788
10.935
10.8877
10.8368
10.7824
10.7247
10.6637
10.5994
10.5319
10.4614
10.3879
10.3113
10.2319
10.1497
10.0648
9.97716
9.88692
9.79415
9.6989
9.60124
9.50124
9.39896
9.29445
9.1878
9.07906
8.9683
8.85558
8.74095
8.62449
8.50625
8.3863
8.2647
8.14152
8.01682
7.89067
7.76312
7.63425
7.50412
7.3728
7.24037
7.10689
6.97244
6.83709
6.7009
6.56397
6.42637
6.28817
6.14947
6.01034
5.87086
5.73113
5.59121
5.45121
5.31122
5.17131
5.03159
4.89214
4.75306
4.61443
4.47635
4.33891
4.20221
4.06634
3.93141
3.79749
3.66468
3.53308
3.40279
3.27388
3.14646
3.02061
2.89642
2.77397
2.65335
2.53464
2.41791
2.30323
2.19068
2.08033
1.97223
1.86644
1.763
1.66197
1.56336
1.46722
1.37355
1.28238
1.19372
1.10758
1.02402
0.94312
0.864698
0.788293
0.713988
0.641779
0.571688
0.503942
0.436406
0.342427
0.294385
0.249193
0.20786
0.233495
0.309242
0.402604
0.447896
0.505193
0.573529
0.650199
0.732715
0.819562
0.910069
1.00389
1.10084
1.2008
1.30375
1.40964
1.51844
1.63013
1.74467
1.862
1.98207
2.1048
2.2301
2.35787
2.488
2.62036
2.75482
2.89124
3.02945
3.16929
3.3106
3.45319
3.59689
3.74152
3.88688
4.03279
4.17905
4.32547
4.47187
4.61805
4.76383
4.90902
5.05343
5.19688
5.33921
5.48024
5.6198
5.75773
5.89388
6.02809
6.16023
6.29015
6.41772
6.54282
6.66531
6.7851
6.90207
7.01613
7.12717
7.2351
7.33986
7.44135
7.53952
7.63429
7.72561
7.81342
7.89769
7.97836
8.05541
8.12879
8.19849
8.26448
8.32676
8.38531
8.44016
8.49134
8.53887
8.58269
8.62281
8.65922
8.69195
8.72099
8.74638
8.76814
8.78628
8.80083
8.81184
8.81933
8.82333
8.82389
8.82105
8.81484
8.80532
8.79252
8.7765
8.7573
8.73496
8.70956
8.68112
8.64971
8.61539
8.5782
8.5382
8.49545
8.45001
8.40192
8.35125
8.29806
8.24239
8.18431
8.12388
8.06114
7.99617
7.929
7.85971
7.78833
7.71493
7.63957
7.56228
7.48314
7.40218
7.31946
7.23504
7.14896
7.06127
6.97204
6.88129
6.7891
6.69551
6.60056
6.50431
6.40681
6.30812
6.20828
6.10735
6.00538
5.90242
5.79854
5.69378
5.5882
5.48187
5.37484
5.26717
5.15892
5.05015
4.94093
4.83133
4.72141
4.61124
4.50088
4.39041
4.2799
4.16941
4.05903
3.94882
3.83886
3.72922
3.61998
3.51121
3.40299
3.2954
3.18852
3.08241
2.97716
2.87285
2.76954
2.66732
2.56627
2.46644
2.36792
2.27078
2.17508
2.08089
1.98828
1.89731
1.80803
1.72051
1.63479
1.55093
1.46896
1.38893
1.31088
1.23482
1.16079
1.0888
1.01888
0.95104
0.8853
0.821684
0.760212
0.700856
0.643568
0.58841
0.535512
0.485139
0.437982
0.394408
0.35149
0.315968
0.285387
0.264133
0.294844
0.309231
0.401276
0.447819
0.505118
0.57347
0.650145
0.732656
0.819498
0.910002
1.00382
1.10076
1.20073
1.30367
1.40956
1.51836
1.63005
1.74458
1.86192
1.98198
2.10471
2.23001
2.35778
2.48791
2.62027
2.75473
2.89115
3.02936
3.1692
3.3105
3.4531
3.5968
3.74143
3.88679
4.03269
4.17895
4.32538
4.47178
4.61796
4.76374
4.90892
5.05333
5.19679
5.33912
5.48015
5.61971
5.75764
5.89379
6.028
6.16014
6.29006
6.41763
6.54273
6.66523
6.78502
6.90199
7.01604
7.12708
7.23502
7.33977
7.44127
7.53943
7.63421
7.72553
7.81334
7.89761
7.97828
8.05533
8.12871
8.19841
8.26441
8.32668
8.38524
8.44009
8.49127
8.5388
8.58262
8.62274
8.65915
8.69188
8.72093
8.74632
8.76807
8.78621
8.80077
8.81177
8.81926
8.82326
8.82383
8.82099
8.81478
8.80526
8.79246
8.77644
8.75724
8.73491
8.7095
8.68107
8.64966
8.61533
8.57815
8.53815
8.4954
8.44996
8.40187
8.35121
8.29801
8.24235
8.18427
8.12383
8.0611
7.99612
7.92896
7.85966
7.78829
7.71489
7.63953
7.56225
7.4831
7.40215
7.31943
7.235
7.14892
7.06124
6.972
6.88126
6.78907
6.69547
6.60053
6.50428
6.40678
6.30809
6.20825
6.10732
6.00535
5.9024
5.79851
5.69375
5.58818
5.48185
5.37482
5.26714
5.15889
5.05013
4.94091
4.83131
4.72139
4.61122
4.50086
4.39039
4.27988
4.1694
4.05901
3.94881
3.83884
3.72921
3.61996
3.5112
3.40298
3.29539
3.1885
3.0824
2.97715
2.87284
2.76953
2.66731
2.56626
2.46643
2.36791
2.27077
2.17507
2.08088
1.98827
1.8973
1.80802
1.7205
1.63478
1.55092
1.46896
1.38893
1.31087
1.23481
1.16078
1.0888
1.01887
0.951034
0.885294
0.821678
0.760208
0.700852
0.643566
0.588409
0.53551
0.485135
0.437976
0.394388
0.351217
0.315656
0.285245
0.264144
0.294957
1.69895
0.693217
0.54658
0.559565
0.60531
0.664103
0.730729
0.802919
0.879506
0.959842
1.04354
1.13037
1.22018
1.31286
1.40834
1.50654
1.6074
1.71086
1.81684
1.92528
2.03609
2.14918
2.26444
2.38178
2.50106
2.62217
2.74497
2.86932
2.99507
3.12206
3.25015
3.37917
3.50895
3.63933
3.77013
3.90118
4.03231
4.16336
4.29415
4.4245
4.55426
4.68326
4.81134
4.93834
5.0641
5.18849
5.31135
5.43254
5.55193
5.6694
5.7848
5.89804
6.00899
6.11756
6.22362
6.3271
6.42791
6.52595
6.62115
6.71344
6.80276
6.88903
6.97221
7.05225
7.12909
7.20271
7.27305
7.34011
7.40384
7.46423
7.52127
7.57494
7.62525
7.67221
7.71582
7.75609
7.79301
7.82656
7.85678
7.88366
7.90722
7.92748
7.94447
7.9582
7.9687
7.97601
7.98016
7.98117
7.97908
7.97394
7.96577
7.95463
7.94054
7.92356
7.90373
7.88109
7.8557
7.82759
7.79682
7.76344
7.7275
7.68905
7.64813
7.6048
7.55912
7.51112
7.46087
7.40842
7.35381
7.2971
7.23835
7.17759
7.11488
7.05028
6.98383
6.91558
6.84559
6.77389
6.70054
6.62558
6.54907
6.47104
6.39155
6.31065
6.22838
6.14479
6.05992
5.97382
5.88654
5.79812
5.70862
5.61808
5.52655
5.43408
5.34072
5.24651
5.15152
5.0558
4.95939
4.86236
4.76475
4.66663
4.56805
4.46908
4.36976
4.27017
4.17037
4.07041
3.97037
3.8703
3.77029
3.67038
3.57065
3.47117
3.37201
3.27323
3.17491
3.07712
2.97993
2.88341
2.78763
2.69266
2.59858
2.50545
2.41334
2.32232
2.23246
2.14382
2.05647
1.97047
1.88589
1.80277
1.72119
1.64118
1.5628
1.48611
1.41113
1.33792
1.2665
1.19692
1.1292
1.06336
0.999437
0.937451
0.877429
0.8194
0.763401
0.709471
0.657657
0.608027
0.56071
0.515913
0.473966
0.435427
0.401053
0.371622
0.350246
0.341021
0.347017
0.314728
1.69813
0.691497
0.5473
0.559678
0.605266
0.664041
0.730663
0.80285
0.879436
0.959771
1.04347
1.1303
1.22011
1.31279
1.40826
1.50646
1.60732
1.71078
1.81677
1.9252
2.03601
2.1491
2.26436
2.3817
2.50098
2.62209
2.74489
2.86924
2.99499
3.12199
3.25008
3.37909
3.50887
3.63925
3.77005
3.9011
4.03224
4.16329
4.29407
4.42443
4.55419
4.68319
4.81127
4.93827
5.06404
5.18842
5.31128
5.43248
5.55187
5.66934
5.78475
5.89799
6.00894
6.1175
6.22357
6.32705
6.42786
6.5259
6.6211
6.7134
6.80271
6.88899
6.97217
7.0522
7.12905
7.20267
7.27302
7.34007
7.4038
7.4642
7.52123
7.57491
7.62522
7.67218
7.71579
7.75607
7.79298
7.82654
7.85675
7.88363
7.9072
7.92746
7.94444
7.95818
7.96868
7.97599
7.98014
7.98115
7.97907
7.97392
7.96576
7.95461
7.94053
7.92355
7.90372
7.88108
7.85569
7.82758
7.79681
7.76344
7.72749
7.68904
7.64813
7.6048
7.55911
7.51112
7.46087
7.40841
7.35381
7.2971
7.23834
7.17759
7.11488
7.05028
6.98383
6.91558
6.84559
6.77389
6.70054
6.62558
6.54907
6.47104
6.39155
6.31065
6.22838
6.14479
6.05992
5.97382
5.88654
5.79813
5.70862
5.61808
5.52655
5.43408
5.34072
5.24652
5.15153
5.0558
4.9594
4.86237
4.76476
4.66664
4.56806
4.46908
4.36977
4.27018
4.17037
4.07042
3.97038
3.87031
3.77029
3.67039
3.57066
3.47118
3.37201
3.27324
3.17492
3.07713
2.97994
2.88342
2.78764
2.69267
2.59858
2.50545
2.41334
2.32232
2.23246
2.14382
2.05647
1.97048
1.88589
1.80278
1.72119
1.64118
1.56281
1.48611
1.41114
1.33792
1.26651
1.19692
1.1292
1.06336
0.99944
0.937454
0.877431
0.819402
0.763402
0.709473
0.657659
0.60803
0.560714
0.515915
0.473965
0.43542
0.401036
0.371548
0.35018
0.340925
0.346299
0.314773
2.20224
0.867722
0.648696
0.633152
0.663501
0.711318
0.768946
0.833293
0.902778
0.976495
1.05389
1.13459
1.21837
1.30503
1.39446
1.48653
1.58115
1.67824
1.77772
1.8795
1.9835
2.08963
2.1978
2.30789
2.41981
2.53343
2.64865
2.76533
2.88334
3.00255
3.12281
3.24398
3.3659
3.48843
3.61141
3.73468
3.85809
3.98147
4.10467
4.22754
4.34991
4.47163
4.59255
4.71252
4.8314
4.94904
5.0653
5.18006
5.29318
5.40453
5.514
5.62148
5.72684
5.83
5.93084
6.02929
6.12524
6.21861
6.30934
6.39734
6.48255
6.56491
6.64437
6.72087
6.79437
6.86483
6.9322
6.99647
7.0576
7.11557
7.17037
7.22198
7.27039
7.31562
7.35765
7.39649
7.43215
7.46461
7.4939
7.52001
7.54297
7.56278
7.57947
7.59305
7.60356
7.61102
7.61546
7.6169
7.61539
7.61095
7.60362
7.59344
7.58045
7.56468
7.54619
7.52501
7.50118
7.47475
7.44577
7.41429
7.38034
7.34398
7.30526
7.26422
7.22092
7.17539
7.1277
7.07789
7.02601
6.9721
6.91622
6.85842
6.79875
6.73725
6.67397
6.60895
6.54226
6.47392
6.404
6.33253
6.25956
6.18513
6.1093
6.03211
5.9536
5.87381
5.7928
5.71061
5.62729
5.54287
5.45741
5.37096
5.28355
5.19525
5.10609
5.01613
4.92542
4.834
4.74194
4.64927
4.55607
4.46238
4.36825
4.27375
4.17894
4.08387
3.9886
3.8932
3.79773
3.70225
3.60682
3.51152
3.4164
3.32153
3.22699
3.13283
3.03913
2.94596
2.85337
2.76145
2.67026
2.57987
2.49035
2.40176
2.31418
2.22766
2.14227
2.05807
1.97513
1.8935
1.81325
1.73443
1.65709
1.58128
1.50705
1.43444
1.3635
1.29426
1.22676
1.16104
1.09711
1.03503
0.974802
0.916476
0.860085
0.805672
0.753292
0.703017
0.654939
0.609189
0.565962
0.525541
0.488354
0.455083
0.426903
0.406101
0.398597
0.42391
0.580777
1.5599
2.20153
0.868216
0.650273
0.633526
0.663517
0.711263
0.768878
0.833221
0.902705
0.976421
1.05381
1.13452
1.21829
1.30496
1.39438
1.48645
1.58107
1.67816
1.77764
1.87943
1.98343
2.08956
2.19772
2.30781
2.41973
2.53336
2.64857
2.76525
2.88327
3.00248
3.12274
3.2439
3.36583
3.48836
3.61134
3.73461
3.85802
3.9814
4.10461
4.22747
4.34984
4.47157
4.59249
4.71246
4.83134
4.94898
5.06525
5.18001
5.29313
5.40448
5.51395
5.62143
5.7268
5.82995
5.9308
6.02924
6.1252
6.21857
6.3093
6.3973
6.48252
6.56488
6.64434
6.72084
6.79434
6.8648
6.93218
6.99645
7.05758
7.11555
7.17034
7.22195
7.27037
7.3156
7.35763
7.39648
7.43213
7.4646
7.49389
7.52
7.54295
7.56277
7.57946
7.59304
7.60355
7.61101
7.61545
7.6169
7.61538
7.61095
7.60362
7.59344
7.58045
7.56468
7.54619
7.52501
7.50118
7.47475
7.44578
7.41429
7.38035
7.34399
7.30527
7.26423
7.22092
7.1754
7.12771
7.0779
7.02601
6.97211
6.91623
6.85843
6.79876
6.73726
6.67398
6.60897
6.54227
6.47393
6.40401
6.33254
6.25957
6.18514
6.10931
6.03212
5.95361
5.87383
5.79282
5.71063
5.6273
5.54289
5.45743
5.37097
5.28357
5.19526
5.10611
5.01614
4.92543
4.83402
4.74195
4.64929
4.55608
4.46239
4.36827
4.27377
4.17895
4.08388
3.98862
3.89322
3.79774
3.70226
3.60684
3.51153
3.41641
3.32155
3.227
3.13285
3.03915
2.94597
2.85339
2.76147
2.67028
2.57989
2.49036
2.40178
2.31419
2.22767
2.14228
2.05808
1.97514
1.89351
1.81326
1.73444
1.6571
1.58129
1.50706
1.43445
1.36351
1.29427
1.22677
1.16104
1.09712
1.03503
0.974807
0.916481
0.860089
0.805676
0.753297
0.703021
0.654943
0.609193
0.565966
0.525543
0.488352
0.455074
0.426875
0.40601
0.39833
0.423068
0.58052
1.55894
1.68925
0.861252
0.729785
0.713504
0.7358
0.776675
0.82872
0.888466
0.954036
1.02431
1.09859
1.17638
1.25735
1.34127
1.42793
1.51719
1.60892
1.70301
1.79937
1.8979
1.99851
2.1011
2.20558
2.31186
2.41984
2.5294
2.64045
2.75286
2.86652
2.9813
3.09708
3.21373
3.3311
3.44906
3.56747
3.68618
3.80505
3.92393
4.04267
4.16113
4.27916
4.39662
4.51335
4.62923
4.7441
4.85783
4.97029
5.08135
5.19089
5.29877
5.40489
5.50914
5.61139
5.71156
5.80953
5.90523
5.99856
6.08944
6.17779
6.26354
6.34662
6.42698
6.50454
6.57927
6.65111
6.72003
6.78598
6.84892
6.90885
6.96572
7.01952
7.07023
7.11785
7.16237
7.20378
7.24209
7.2773
7.30941
7.33843
7.36436
7.38721
7.407
7.42375
7.43747
7.44819
7.45593
7.46072
7.46259
7.46157
7.45768
7.45097
7.44146
7.4292
7.41422
7.39657
7.37628
7.3534
7.32797
7.30003
7.26962
7.2368
7.20161
7.16409
7.1243
7.08227
7.03806
6.99171
6.94328
6.8928
6.84033
6.78592
6.72961
6.67145
6.61149
6.54977
6.48634
6.42125
6.35454
6.28626
6.21645
6.14516
6.07244
5.99833
5.92287
5.84611
5.76809
5.68886
5.60847
5.52695
5.44437
5.36075
5.27615
5.19061
5.10419
5.01692
4.92887
4.84008
4.75059
4.66047
4.56977
4.47853
4.38682
4.29468
4.20218
4.10938
4.01633
3.92309
3.82973
3.7363
3.64288
3.54951
3.45628
3.36323
3.27045
3.17799
3.08592
2.99431
2.90323
2.81274
2.72292
2.63383
2.54554
2.45811
2.37161
2.28611
2.20166
2.11834
2.0362
1.9553
1.87571
1.79747
1.72064
1.64526
1.5714
1.49909
1.42838
1.3593
1.2919
1.22621
1.16226
1.10009
1.03974
0.981231
0.924617
0.869943
0.817269
0.766668
0.718241
0.672116
0.628476
0.587572
0.549767
0.515603
0.485943
0.462293
0.447626
0.448864
0.48601
0.647649
1.61625
1.6888
0.862482
0.730337
0.713608
0.735767
0.776611
0.828648
0.888391
0.95396
1.02424
1.09851
1.1763
1.25728
1.34119
1.42785
1.51711
1.60884
1.70294
1.79929
1.89782
1.99843
2.10102
2.2055
2.31178
2.41976
2.52933
2.64037
2.75278
2.86645
2.98123
3.09701
3.21365
3.33103
3.44899
3.5674
3.68611
3.80498
3.92386
4.04261
4.16107
4.2791
4.39656
4.51329
4.62917
4.74404
4.85778
4.97024
5.0813
5.19084
5.29873
5.40485
5.50909
5.61135
5.71152
5.80949
5.90519
5.99852
6.08941
6.17776
6.26351
6.34659
6.42695
6.50452
6.57924
6.65109
6.72
6.78595
6.8489
6.90883
6.9657
7.0195
7.07021
7.11783
7.16235
7.20377
7.24208
7.27729
7.3094
7.33842
7.36435
7.3872
7.40699
7.42374
7.43747
7.44819
7.45593
7.46072
7.46259
7.46157
7.45768
7.45097
7.44146
7.4292
7.41423
7.39657
7.37629
7.35341
7.32797
7.30003
7.26963
7.23681
7.20162
7.1641
7.12431
7.08228
7.03807
6.99172
6.94329
6.89281
6.84035
6.78593
6.72962
6.67146
6.6115
6.54978
6.48635
6.42126
6.35455
6.28627
6.21647
6.14518
6.07246
5.99834
5.92288
5.84612
5.7681
5.68888
5.60848
5.52697
5.44438
5.36076
5.27616
5.19063
5.1042
5.01694
4.92889
4.84009
4.75061
4.66049
4.56978
4.47855
4.38683
4.2947
4.2022
4.1094
4.01635
3.92311
3.82975
3.73632
3.64289
3.54953
3.45629
3.36325
3.27046
3.178
3.08593
2.99432
2.90324
2.81276
2.72294
2.63384
2.54555
2.45812
2.37162
2.28612
2.20167
2.11835
2.03621
1.95531
1.87572
1.79748
1.72064
1.64527
1.57141
1.4991
1.42839
1.35931
1.2919
1.22621
1.16227
1.1001
1.03974
0.981237
0.924623
0.869949
0.817274
0.766673
0.718245
0.672121
0.62848
0.587575
0.549769
0.515603
0.485938
0.462275
0.447578
0.448782
0.485986
0.648269
1.61555
1.98695
0.98876
0.833297
0.804977
0.819525
0.855111
0.903378
0.960336
1.02379
1.09242
1.16537
1.24203
1.32201
1.40497
1.49068
1.57894
1.6696
1.76251
1.85757
1.95467
2.0537
2.15458
2.25719
2.36146
2.46729
2.57457
2.68321
2.79311
2.90416
3.01624
3.12925
3.24305
3.35754
3.47258
3.58805
3.70381
3.81973
3.93568
4.05151
4.16708
4.28227
4.39694
4.51094
4.62414
4.73641
4.84761
4.95762
5.06631
5.17356
5.27925
5.38326
5.48549
5.58582
5.68415
5.78039
5.87444
5.96621
6.05563
6.14261
6.22707
6.30896
6.38821
6.46475
6.53854
6.60953
6.67767
6.74291
6.80524
6.86461
6.921
6.97439
7.02476
7.0721
7.11639
7.15764
7.19583
7.23097
7.26307
7.29212
7.31813
7.34111
7.36107
7.37804
7.39202
7.40303
7.41111
7.41626
7.41853
7.41794
7.41451
7.40829
7.3993
7.38758
7.37317
7.3561
7.33642
7.31416
7.28937
7.26208
7.23235
7.20021
7.16571
7.1289
7.08982
7.04851
7.00503
6.95942
6.91173
6.86199
6.81027
6.75661
6.70105
6.64365
6.58444
6.52347
6.46079
6.39645
6.33049
6.26296
6.1939
6.12336
6.05138
5.97801
5.90329
5.82727
5.74999
5.67149
5.59183
5.51105
5.42919
5.3463
5.26242
5.17762
5.09192
5.00538
4.91806
4.82999
4.74124
4.65185
4.56188
4.47138
4.3804
4.28901
4.19725
4.10519
4.01289
3.92041
3.82781
3.73514
3.64248
3.54989
3.45742
3.36516
3.27316
3.18149
3.09022
2.99941
2.90913
2.81945
2.73044
2.64216
2.55469
2.46808
2.3824
2.29771
2.21409
2.13158
2.05025
1.97016
1.89136
1.81391
1.73786
1.66326
1.59015
1.51857
1.44858
1.38021
1.31349
1.24847
1.18517
1.12365
1.06393
1.00605
0.950082
0.896069
0.844091
0.794241
0.746644
0.701465
0.658925
0.619332
0.583125
0.550955
0.523852
0.503598
0.493682
0.502153
0.551847
0.734959
1.85198
1.98691
0.988931
0.833348
0.804943
0.819461
0.855038
0.903302
0.960258
1.02371
1.09234
1.16529
1.24196
1.32193
1.40489
1.4906
1.57886
1.66952
1.76244
1.8575
1.95459
2.05362
2.1545
2.25711
2.36138
2.46721
2.57449
2.68314
2.79304
2.90408
3.01617
3.12917
3.24298
3.35747
3.47251
3.58798
3.70374
3.81967
3.93561
4.05144
4.16702
4.28221
4.39688
4.51088
4.62408
4.73635
4.84756
4.95757
5.06626
5.17351
5.2792
5.38322
5.48544
5.58577
5.68411
5.78035
5.8744
5.96618
6.05559
6.14257
6.22704
6.30893
6.38818
6.46473
6.53852
6.6095
6.67764
6.74289
6.80522
6.86459
6.92099
6.97438
7.02475
7.07208
7.11638
7.15763
7.19582
7.23096
7.26306
7.29211
7.31812
7.3411
7.36107
7.37803
7.39201
7.40303
7.4111
7.41626
7.41853
7.41794
7.41451
7.40829
7.3993
7.38758
7.37317
7.3561
7.33642
7.31416
7.28937
7.26209
7.23236
7.20022
7.16572
7.12891
7.08983
7.04852
7.00504
6.95943
6.91174
6.86201
6.81029
6.75662
6.70106
6.64366
6.58445
6.52348
6.4608
6.39646
6.33051
6.26298
6.19392
6.12338
6.0514
5.97802
5.9033
5.82728
5.75
5.67151
5.59185
5.51106
5.4292
5.34631
5.26244
5.17763
5.09193
5.0054
4.91807
4.83001
4.74126
4.65187
4.56189
4.47139
4.38042
4.28902
4.19727
4.10521
4.01291
3.92042
3.82782
3.73515
3.64249
3.5499
3.45744
3.36517
3.27317
3.1815
3.09023
2.99942
2.90914
2.81946
2.73045
2.64218
2.5547
2.46809
2.38241
2.29772
2.2141
2.13159
2.05026
1.97017
1.89137
1.81392
1.73787
1.66327
1.59015
1.51858
1.44859
1.38021
1.3135
1.24847
1.18518
1.12365
1.06393
1.00606
0.950088
0.896075
0.844096
0.794246
0.746649
0.701469
0.658929
0.619335
0.583128
0.550957
0.523851
0.503591
0.493659
0.502139
0.55209
0.735209
1.85296
2.33156
1.14235
0.949436
0.906426
0.913372
0.94452
0.990067
1.04536
1.10784
1.17596
1.24871
1.32539
1.40548
1.48862
1.57449
1.66287
1.75357
1.84642
1.94128
2.03803
2.13657
2.2368
2.33861
2.44192
2.54663
2.65266
2.75991
2.86829
2.97771
3.08806
3.19924
3.31115
3.42368
3.5367
3.65012
3.7638
3.87763
3.99147
4.10521
4.21872
4.33186
4.44451
4.55653
4.66781
4.7782
4.88759
4.99584
5.10284
5.20847
5.31261
5.41515
5.51597
5.61498
5.71206
5.80712
5.90008
5.99083
6.0793
6.1654
6.24907
6.33023
6.40881
6.48476
6.55802
6.62854
6.69628
6.76118
6.82322
6.88236
6.93857
6.99183
7.04211
7.08941
7.1337
7.17499
7.21326
7.24851
7.28074
7.30995
7.33616
7.35937
7.37958
7.39682
7.4111
7.42243
7.43084
7.43635
7.43899
7.43878
7.43574
7.42992
7.42135
7.41005
7.39606
7.37942
7.36017
7.33835
7.31399
7.28714
7.25784
7.22613
7.19206
7.15567
7.11701
7.07611
7.03303
6.98781
6.94051
6.89115
6.8398
6.78649
6.73127
6.6742
6.6153
6.55465
6.49226
6.42821
6.36252
6.29524
6.22642
6.15611
6.08435
6.01118
5.93665
5.86081
5.7837
5.70536
5.62585
5.5452
5.46347
5.38069
5.29693
5.21222
5.12661
5.04016
4.95291
4.86492
4.77623
4.6869
4.59699
4.50654
4.41562
4.32427
4.23256
4.14055
4.0483
3.95586
3.8633
3.77068
3.67807
3.58553
3.49312
3.40092
3.30898
3.21737
3.12617
3.03543
2.94523
2.85563
2.76671
2.67852
2.59113
2.50461
2.41903
2.33444
2.25091
2.1685
2.08727
2.00727
1.92855
1.85118
1.7752
1.70065
1.62759
1.55605
1.48608
1.41771
1.35099
1.28595
1.22262
1.16106
1.1013
1.04339
0.9874
0.933391
0.881455
0.831708
0.784296
0.739416
0.697327
0.65839
0.623109
0.592233
0.566927
0.549154
0.542559
0.554833
0.605203
0.757942
1.55575
2.33167
1.14232
0.949379
0.906356
0.913296
0.944441
0.989987
1.04528
1.10776
1.17588
1.24863
1.32531
1.4054
1.48854
1.57441
1.66279
1.75349
1.84634
1.9412
2.03795
2.13649
2.23672
2.33853
2.44184
2.54655
2.65258
2.75984
2.86822
2.97764
3.08799
3.19917
3.31108
3.42361
3.53663
3.65005
3.76373
3.87756
3.99141
4.10515
4.21866
4.3318
4.44445
4.55648
4.66775
4.77815
4.88753
4.99579
5.1028
5.20843
5.31257
5.4151
5.51593
5.61493
5.71202
5.80708
5.90004
5.99079
6.07926
6.16537
6.24904
6.3302
6.40878
6.48473
6.558
6.62852
6.69625
6.76116
6.8232
6.88234
6.93855
6.99181
7.0421
7.08939
7.13369
7.17498
7.21325
7.2485
7.28073
7.30995
7.33616
7.35936
7.37958
7.39682
7.4111
7.42243
7.43084
7.43635
7.43899
7.43878
7.43574
7.42992
7.42135
7.41005
7.39606
7.37942
7.36017
7.33835
7.314
7.28715
7.25785
7.22614
7.19207
7.15568
7.11701
7.07612
7.03304
6.98782
6.94052
6.89116
6.83981
6.7865
6.73128
6.67421
6.61532
6.55466
6.49228
6.42822
6.36253
6.29525
6.22644
6.15612
6.08436
6.01119
5.93667
5.86082
5.78371
5.70538
5.62586
5.54521
5.46348
5.38071
5.29694
5.21223
5.12663
5.04017
4.95293
4.86493
4.77625
4.68692
4.597
4.50655
4.41563
4.32428
4.23258
4.14056
4.04831
3.95587
3.86331
3.7707
3.67808
3.58554
3.49313
3.40093
3.30899
3.21738
3.12618
3.03544
2.94524
2.85564
2.76672
2.67853
2.59114
2.50462
2.41904
2.33445
2.25092
2.16851
2.08728
2.00727
1.92856
1.85119
1.7752
1.70066
1.62759
1.55606
1.48608
1.41772
1.35099
1.28595
1.22263
1.16107
1.10131
1.0434
0.987406
0.933396
0.88146
0.831712
0.784301
0.73942
0.697331
0.658393
0.623113
0.592237
0.566931
0.549161
0.542578
0.554906
0.605503
0.758058
1.55674
2.69161
1.30667
1.07494
1.01699
1.01664
1.04393
1.08746
1.14185
1.20414
1.27254
1.34588
1.42334
1.50433
1.58839
1.67518
1.76442
1.85588
1.94938
2.04475
2.14187
2.2406
2.34086
2.44253
2.54552
2.64976
2.75516
2.86162
2.96908
3.07745
3.18663
3.29655
3.40709
3.51818
3.62971
3.74157
3.85366
3.96586
4.07807
4.19017
4.30204
4.41355
4.5246
4.63505
4.74478
4.85368
4.96162
5.06847
5.17413
5.27848
5.38139
5.48277
5.58249
5.68046
5.77658
5.87075
5.96287
6.05286
6.14062
6.22609
6.30918
6.38982
6.46795
6.5435
6.61642
6.68666
6.75415
6.81887
6.88077
6.93981
6.99597
7.04921
7.09952
7.14688
7.19126
7.23267
7.27108
7.3065
7.33892
7.36835
7.39479
7.41825
7.43873
7.45625
7.47081
7.48245
7.49117
7.497
7.49996
7.50008
7.49738
7.49189
7.48364
7.47267
7.45902
7.4427
7.42377
7.40226
7.3782
7.35165
7.32264
7.2912
7.2574
7.22126
7.18283
7.14215
7.09928
7.05426
7.00712
6.95793
6.90671
6.85353
6.79842
6.74143
6.68261
6.62199
6.55964
6.49559
6.42989
6.36259
6.29373
6.22335
6.1515
6.07823
6.00358
5.9276
5.85033
5.77182
5.69212
5.61127
5.52931
5.44631
5.36229
5.27732
5.19145
5.10471
5.01717
4.92887
4.83987
4.75022
4.65997
4.56918
4.47791
4.38622
4.29416
4.20179
4.10917
4.01637
3.92345
3.83047
3.73749
3.64458
3.55181
3.45924
3.36694
3.27497
3.18341
3.09232
3.00177
2.91183
2.82255
2.73402
2.64629
2.55944
2.47351
2.38858
2.30471
2.22196
2.14038
2.06003
1.98095
1.90322
1.82686
1.75192
1.67846
1.60651
1.53612
1.46731
1.40013
1.33462
1.27082
1.20878
1.14853
1.09014
1.03368
0.979233
0.926897
0.876807
0.829136
0.784107
0.742018
0.703275
0.668451
0.638379
0.614353
0.598528
0.594853
0.611555
0.669608
0.846854
1.83127
2.69177
1.30661
1.07486
1.01691
1.01656
1.04385
1.08738
1.14176
1.20405
1.27246
1.3458
1.42326
1.50425
1.58831
1.6751
1.76434
1.8558
1.9493
2.04467
2.14179
2.24052
2.34078
2.44245
2.54544
2.64968
2.75508
2.86155
2.96901
3.07737
3.18656
3.29647
3.40702
3.51811
3.62964
3.7415
3.85359
3.9658
4.07801
4.19011
4.30198
4.41349
4.52454
4.63499
4.74473
4.85363
4.96156
5.06842
5.17408
5.27843
5.38135
5.48272
5.58245
5.68042
5.77654
5.87071
5.96283
6.05282
6.14059
6.22606
6.30915
6.38979
6.46792
6.54348
6.6164
6.68663
6.75413
6.81885
6.88075
6.93979
6.99595
7.0492
7.09951
7.14686
7.19125
7.23265
7.27107
7.30649
7.33892
7.36835
7.39479
7.41824
7.43872
7.45624
7.47081
7.48245
7.49117
7.497
7.49996
7.50008
7.49738
7.49189
7.48365
7.47268
7.45902
7.4427
7.42377
7.40226
7.37821
7.35166
7.32264
7.29121
7.2574
7.22126
7.18283
7.14216
7.09929
7.05427
7.00713
6.95794
6.90672
6.85354
6.79843
6.74144
6.68262
6.62201
6.55965
6.4956
6.42991
6.3626
6.29374
6.22336
6.15151
6.07824
6.00359
5.92761
5.85034
5.77183
5.69213
5.61128
5.52933
5.44632
5.36231
5.27734
5.19146
5.10472
5.01718
4.92888
4.83988
4.75023
4.65998
4.5692
4.47793
4.38623
4.29417
4.2018
4.10919
4.01639
3.92346
3.83048
3.7375
3.64459
3.55182
3.45925
3.36695
3.27498
3.18342
3.09233
3.00178
2.91184
2.82256
2.73403
2.6463
2.55944
2.47352
2.38859
2.30472
2.22197
2.14039
2.06003
1.98096
1.90322
1.82686
1.75193
1.67847
1.60652
1.53612
1.46732
1.40014
1.33463
1.27083
1.20878
1.14854
1.09015
1.03369
0.979238
0.926901
0.876812
0.82914
0.78411
0.742021
0.703279
0.668454
0.638382
0.614356
0.598532
0.594865
0.611597
0.669704
0.846736
1.83104
3.06829
1.48039
1.20921
1.13639
1.12907
1.15294
1.19498
1.24902
1.31169
1.38095
1.45545
1.53426
1.61669
1.70222
1.79046
1.88107
1.9738
2.06844
2.1648
2.26274
2.36212
2.46283
2.56478
2.66788
2.77203
2.87718
2.98323
3.09013
3.19779
3.30613
3.41509
3.52459
3.63453
3.74484
3.85542
3.96617
4.07701
4.18782
4.29851
4.40896
4.51906
4.6287
4.73777
4.84616
4.95373
5.06039
5.16601
5.27048
5.37368
5.47552
5.57586
5.67462
5.77168
5.86695
5.96033
6.05172
6.14104
6.22819
6.31311
6.3957
6.47591
6.55365
6.62887
6.7015
6.7715
6.83881
6.90338