/*--------------------------------*- C++ -*----------------------------------*\
  =========                 |
  \\      /  F ield         | OpenFOAM: The Open Source CFD Toolbox
   \\    /   O peration     | Website:  https://openfoam.org
    \\  /    A nd           | Version:  8
     \\/     M anipulation  |
\*---------------------------------------------------------------------------*/
FoamFile
{
    version     2.0;
    format      ascii;
    class       volScalarField;
    location    "900";
    object      k;
}
// * * * * * * * * * * * * * * * * * * * * * * * * * * * * * * * * * * * * * //

dimensions      [0 2 -2 0 0 0 0];

internalField   nonuniform List<scalar> 
48000
(
0.0155411
0.019254
0.0206808
0.0215129
0.0258095
0.0300463
0.0340318
0.0378164
0.0414986
0.0450919
0.0486059
0.0520596
0.0554641
0.0588282
0.0621588
0.0654606
0.0687372
0.071991
0.0752235
0.0784355
0.0816272
0.0847985
0.0879488
0.0910773
0.0941831
0.0972649
0.100322
0.103352
0.106354
0.109327
0.112269
0.115179
0.118054
0.120895
0.123699
0.126465
0.129191
0.131876
0.134519
0.137119
0.139674
0.142183
0.144646
0.14706
0.149425
0.151739
0.154003
0.156215
0.158374
0.160479
0.16253
0.164527
0.166468
0.168352
0.170181
0.171952
0.173666
0.175322
0.17692
0.17846
0.179942
0.181365
0.182729
0.184035
0.185282
0.186471
0.187601
0.188673
0.189687
0.190643
0.19154
0.192379
0.193161
0.19389
0.194564
0.195182
0.195744
0.196252
0.196705
0.197104
0.197449
0.197741
0.19798
0.198166
0.198301
0.198385
0.198418
0.198401
0.198334
0.198219
0.198055
0.197844
0.197585
0.19728
0.196929
0.196534
0.196093
0.195609
0.195081
0.194511
0.193899
0.193245
0.19255
0.191815
0.191041
0.190227
0.189374
0.188484
0.187556
0.186592
0.185591
0.184555
0.183484
0.182377
0.181236
0.180061
0.178853
0.177612
0.176338
0.175032
0.173694
0.172325
0.170925
0.169494
0.168032
0.166541
0.16502
0.16347
0.16189
0.160283
0.158647
0.156983
0.155292
0.153573
0.151828
0.150057
0.14826
0.146438
0.14459
0.142718
0.140822
0.138903
0.136961
0.134996
0.133009
0.131001
0.128972
0.126923
0.124854
0.122767
0.120661
0.118537
0.116397
0.114241
0.112069
0.109883
0.107684
0.105471
0.103247
0.101011
0.098765
0.0965094
0.0942453
0.0919735
0.089695
0.0874107
0.0851215
0.0828285
0.0805326
0.0782348
0.0759361
0.0736374
0.0713397
0.0690439
0.0667509
0.0644615
0.0621766
0.0598969
0.0576229
0.0553551
0.0530939
0.0508394
0.0485915
0.0463499
0.0441142
0.0418846
0.039662
0.0374604
0.0352747
0.0330695
0.0308329
0.0285498
0.0261996
0.0238011
0.0218709
0.0256078
0.0228714
0.0189878
0.0168605
0.0137606
0.0155444
0.0192452
0.0206766
0.0215174
0.0258105
0.0300472
0.0340329
0.0378175
0.0414997
0.045093
0.048607
0.0520607
0.0554651
0.0588293
0.0621598
0.0654615
0.0687381
0.0719919
0.0752244
0.0784363
0.081628
0.0847993
0.0879495
0.091078
0.0941838
0.0972656
0.100322
0.103352
0.106355
0.109327
0.112269
0.115179
0.118055
0.120895
0.123699
0.126465
0.129191
0.131876
0.13452
0.137119
0.139674
0.142184
0.144646
0.14706
0.149425
0.151739
0.154003
0.156215
0.158374
0.160479
0.16253
0.164527
0.166468
0.168352
0.170181
0.171952
0.173666
0.175322
0.17692
0.17846
0.179942
0.181365
0.182729
0.184035
0.185282
0.186471
0.187601
0.188673
0.189687
0.190642
0.19154
0.192379
0.193161
0.19389
0.194563
0.195181
0.195744
0.196252
0.196705
0.197103
0.197448
0.19774
0.197979
0.198166
0.198301
0.198384
0.198417
0.1984
0.198334
0.198218
0.198054
0.197843
0.197585
0.19728
0.196929
0.196533
0.196093
0.195609
0.195081
0.194511
0.193898
0.193244
0.19255
0.191815
0.19104
0.190226
0.189373
0.188483
0.187556
0.186591
0.185591
0.184555
0.183483
0.182376
0.181236
0.180061
0.178852
0.177611
0.176337
0.175031
0.173694
0.172324
0.170924
0.169493
0.168032
0.166541
0.16502
0.163469
0.16189
0.160282
0.158646
0.156982
0.155291
0.153573
0.151828
0.150057
0.14826
0.146437
0.14459
0.142718
0.140822
0.138902
0.13696
0.134995
0.133008
0.131
0.128971
0.126922
0.124854
0.122766
0.12066
0.118537
0.116397
0.11424
0.112069
0.109883
0.107683
0.105471
0.103246
0.101011
0.0987646
0.0965091
0.0942449
0.0919731
0.0896946
0.0874103
0.0851211
0.0828281
0.0805322
0.0782344
0.0759357
0.073637
0.0713393
0.0690435
0.0667505
0.0644612
0.0621764
0.0598967
0.0576227
0.0553549
0.0530937
0.0508393
0.0485914
0.0463498
0.0441141
0.0418845
0.0396619
0.0374604
0.0352747
0.0330694
0.0308329
0.0285499
0.0262002
0.0238031
0.0218766
0.0256165
0.0228755
0.0189869
0.0168595
0.0137636
0.021325
0.0298179
0.0390721
0.049032
0.0582737
0.0669491
0.0752264
0.0831843
0.0909097
0.0984577
0.105868
0.113169
0.120385
0.127533
0.134625
0.14167
0.148676
0.155646
0.162584
0.169489
0.176363
0.183205
0.190013
0.196785
0.203518
0.210209
0.216854
0.223452
0.229997
0.236486
0.242915
0.24928
0.255578
0.261805
0.267957
0.274031
0.280022
0.285928
0.291746
0.297471
0.303101
0.308633
0.314064
0.319391
0.324612
0.329725
0.334726
0.339615
0.344388
0.349044
0.353582
0.358
0.362296
0.366469
0.370518
0.374442
0.37824
0.38191
0.385454
0.388869
0.392156
0.395314
0.398343
0.401243
0.404013
0.406655
0.409168
0.411553
0.413809
0.415937
0.417937
0.419809
0.421553
0.423168
0.424659
0.426029
0.427277
0.428404
0.429411
0.430299
0.431069
0.431722
0.432259
0.432681
0.43299
0.433185
0.43327
0.433245
0.43311
0.432869
0.432521
0.432069
0.431513
0.430855
0.430097
0.429239
0.428284
0.427231
0.426084
0.424843
0.42351
0.422085
0.42057
0.418967
0.417277
0.415501
0.41364
0.411696
0.40967
0.407563
0.405377
0.403111
0.400768
0.398349
0.395854
0.393284
0.390642
0.387926
0.385139
0.382282
0.379355
0.376359
0.373295
0.370164
0.366966
0.363703
0.360375
0.356983
0.353528
0.35001
0.346431
0.342792
0.339092
0.335334
0.331517
0.327643
0.323713
0.319728
0.315688
0.311595
0.30745
0.303254
0.299007
0.294713
0.29037
0.285982
0.281549
0.277072
0.272554
0.267994
0.263396
0.258761
0.254089
0.249384
0.244646
0.239878
0.235081
0.230257
0.225408
0.220536
0.215643
0.210732
0.205803
0.20086
0.195904
0.190938
0.185964
0.180984
0.176
0.171015
0.166031
0.16105
0.156074
0.151106
0.146146
0.141198
0.136264
0.131343
0.126439
0.121551
0.116681
0.111828
0.106992
0.102172
0.0973654
0.0925696
0.0877802
0.0829912
0.0781896
0.0733519
0.06847
0.0635236
0.0584838
0.0533434
0.0481514
0.043102
0.0370197
0.0304713
0.023992
0.0181682
0.021329
0.0298162
0.0390773
0.0490344
0.0582745
0.0669499
0.0752272
0.0831851
0.0909104
0.0984583
0.105868
0.11317
0.120386
0.127533
0.134625
0.141671
0.148676
0.155646
0.162584
0.169489
0.176364
0.183205
0.190013
0.196785
0.203517
0.210208
0.216854
0.223451
0.229996
0.236485
0.242914
0.24928
0.255578
0.261805
0.267957
0.27403
0.280022
0.285928
0.291745
0.29747
0.3031
0.308632
0.314063
0.31939
0.324611
0.329724
0.334725
0.339614
0.344387
0.349043
0.353581
0.357999
0.362295
0.366468
0.370517
0.374441
0.378238
0.381909
0.385452
0.388867
0.392154
0.395312
0.398341
0.401241
0.404012
0.406654
0.409167
0.411551
0.413807
0.415935
0.417935
0.419807
0.421551
0.423166
0.424658
0.426027
0.427275
0.428402
0.42941
0.430298
0.431068
0.43172
0.432257
0.432679
0.432988
0.433183
0.433268
0.433243
0.433109
0.432867
0.432519
0.432067
0.431511
0.430854
0.430095
0.429237
0.428282
0.42723
0.426082
0.424841
0.423508
0.422083
0.420568
0.418965
0.417275
0.415499
0.413638
0.411694
0.409668
0.407561
0.405375
0.403109
0.400766
0.398347
0.395852
0.393283
0.39064
0.387924
0.385138
0.38228
0.379353
0.376357
0.373293
0.370162
0.366964
0.363701
0.360373
0.356981
0.353526
0.350008
0.34643
0.34279
0.33909
0.335332
0.331515
0.327641
0.323711
0.319726
0.315686
0.311593
0.307448
0.303252
0.299006
0.294711
0.290369
0.285981
0.281547
0.277071
0.272552
0.267993
0.263395
0.258759
0.254088
0.249383
0.244645
0.239876
0.235079
0.230256
0.225407
0.220535
0.215642
0.210731
0.205802
0.200859
0.195903
0.190937
0.185963
0.180983
0.175999
0.171014
0.16603
0.161049
0.156073
0.151105
0.146146
0.141198
0.136263
0.131342
0.126438
0.12155
0.11668
0.111827
0.106991
0.102171
0.0973647
0.092569
0.0877796
0.0829907
0.0781891
0.0733514
0.0684696
0.063523
0.0584829
0.0533419
0.0481504
0.0431014
0.0370208
0.0304731
0.0239914
0.0181688
0.0274436
0.0408528
0.0541283
0.066213
0.0773616
0.0879273
0.0980872
0.107941
0.117559
0.126996
0.136289
0.145469
0.154559
0.163575
0.172533
0.18144
0.190303
0.199128
0.207917
0.21667
0.225387
0.234067
0.242707
0.251305
0.259857
0.26836
0.276808
0.285197
0.293523
0.30178
0.309965
0.318071
0.326094
0.334029
0.341871
0.349616
0.357258
0.364794
0.372218
0.379527
0.386717
0.393783
0.400722
0.407529
0.414203
0.420739
0.427135
0.433388
0.439495
0.445453
0.451261
0.456916
0.462416
0.46776
0.472946
0.477972
0.482838
0.487542
0.492084
0.496462
0.500677
0.504727
0.508613
0.512334
0.51589
0.519282
0.522509
0.525571
0.52847
0.531205
0.533777
0.536186
0.538434
0.540519
0.542444
0.544211
0.545823
0.54728
0.548584
0.549735
0.550735
0.551585
0.552286
0.552841
0.55325
0.553515
0.553638
0.55362
0.553463
0.553169
0.552738
0.552174
0.551477
0.55065
0.549693
0.548609
0.5474
0.546068
0.544613
0.543038
0.541345
0.539535
0.53761
0.535572
0.533421
0.531161
0.528793
0.526317
0.523737
0.521052
0.518266
0.515378
0.512391
0.509307
0.506125
0.502848
0.499477
0.496014
0.492459
0.488813
0.485078
0.481255
0.477345
0.473349
0.469268
0.465103
0.460856
0.456527
0.452117
0.447627
0.443059
0.438414
0.433692
0.428895
0.424024
0.41908
0.414064
0.408977
0.403822
0.398599
0.393309
0.387954
0.382536
0.377056
0.371515
0.365916
0.36026
0.354549
0.348785
0.342969
0.337104
0.331192
0.325235
0.319234
0.313193
0.307114
0.300999
0.29485
0.28867
0.282461
0.276227
0.26997
0.263692
0.257397
0.251086
0.244764
0.238432
0.232095
0.225754
0.219412
0.213073
0.206739
0.200413
0.194097
0.187795
0.181508
0.175238
0.168988
0.162758
0.156551
0.150366
0.144204
0.138063
0.131943
0.12584
0.119751
0.113669
0.107587
0.101492
0.0953661
0.0891914
0.0829412
0.07658
0.0700825
0.0633995
0.0564358
0.0489147
0.0407445
0.0319233
0.023595
0.0274366
0.0408514
0.0541314
0.0662135
0.0773618
0.0879275
0.0980873
0.107941
0.117559
0.126995
0.136289
0.145469
0.154558
0.163575
0.172532
0.181439
0.190303
0.199128
0.207916
0.216669
0.225386
0.234066
0.242706
0.251304
0.259856
0.268359
0.276807
0.285196
0.293522
0.301779
0.309964
0.31807
0.326093
0.334028
0.34187
0.349615
0.357257
0.364793
0.372217
0.379526
0.386715
0.393781
0.40072
0.407528
0.414201
0.420738
0.427134
0.433386
0.439493
0.445451
0.451259
0.456914
0.462414
0.467758
0.472944
0.47797
0.482836
0.48754
0.492082
0.49646
0.500675
0.504725
0.508611
0.512332
0.515888
0.519279
0.522506
0.525569
0.528468
0.531203
0.533775
0.536184
0.538431
0.540517
0.542441
0.544209
0.545821
0.547278
0.548581
0.549732
0.550732
0.551582
0.552284
0.552839
0.553248
0.553513
0.553636
0.553618
0.553461
0.553166
0.552736
0.552172
0.551475
0.550647
0.549691
0.548607
0.547398
0.546065
0.544611
0.543036
0.541343
0.539533
0.537608
0.535569
0.533419
0.531159
0.52879
0.526315
0.523734
0.52105
0.518263
0.515376
0.512389
0.509304
0.506123
0.502846
0.499475
0.496012
0.492457
0.488811
0.485076
0.481253
0.477343
0.473347
0.469266
0.465101
0.460854
0.456525
0.452115
0.447625
0.443057
0.438412
0.43369
0.428893
0.424022
0.419078
0.414062
0.408976
0.40382
0.398597
0.393307
0.387952
0.382534
0.377054
0.371514
0.365914
0.360258
0.354547
0.348783
0.342968
0.337103
0.33119
0.325233
0.319233
0.313192
0.307112
0.300997
0.294848
0.288668
0.28246
0.276226
0.269968
0.263691
0.257395
0.251085
0.244763
0.238431
0.232094
0.225752
0.219411
0.213072
0.206738
0.200412
0.194096
0.187794
0.181507
0.175237
0.168987
0.162757
0.15655
0.150365
0.144203
0.138062
0.131942
0.125839
0.11975
0.113668
0.107586
0.101491
0.0953655
0.0891908
0.0829406
0.0765792
0.0700815
0.0633993
0.0564365
0.0489165
0.0407457
0.0319238
0.0235974
0.0287369
0.049496
0.0663813
0.0802908
0.092839
0.104692
0.116117
0.127241
0.138138
0.14886
0.159444
0.169918
0.180302
0.190614
0.200864
0.211062
0.221213
0.231323
0.241392
0.251421
0.261409
0.271356
0.281258
0.291111
0.300913
0.310658
0.320341
0.329959
0.339505
0.348974
0.358361
0.36766
0.376865
0.385971
0.394973
0.403865
0.412642
0.421298
0.429829
0.438229
0.446494
0.45462
0.462601
0.470434
0.478115
0.48564
0.493005
0.500207
0.507243
0.51411
0.520805
0.527326
0.53367
0.539835
0.54582
0.551622
0.557241
0.562674
0.567922
0.572982
0.577854
0.582537
0.587032
0.591337
0.595453
0.59938
0.603117
0.606666
0.610026
0.613198
0.616183
0.618981
0.621592
0.624019
0.626261
0.62832
0.630199
0.6319
0.633423
0.634771
0.635944
0.636944
0.637774
0.638433
0.638924
0.63925
0.63941
0.639409
0.639246
0.638925
0.638447
0.637814
0.637028
0.636091
0.635004
0.633771
0.632393
0.630872
0.629209
0.627408
0.62547
0.623396
0.62119
0.618852
0.616385
0.613791
0.611071
0.608227
0.605262
0.602176
0.598972
0.595651
0.592216
0.588666
0.585005
0.581234
0.577353
0.573366
0.569272
0.565073
0.560772
0.556368
0.551863
0.54726
0.542558
0.537759
0.532864
0.527875
0.522793
0.517619
0.512354
0.507
0.501558
0.496028
0.490413
0.484715
0.478933
0.47307
0.467128
0.461107
0.45501
0.448838
0.442593
0.436277
0.429891
0.423438
0.41692
0.410338
0.403696
0.396994
0.390236
0.383424
0.376561
0.369648
0.362689
0.355687
0.348643
0.341562
0.334445
0.327297
0.320119
0.312916
0.30569
0.298445
0.291183
0.283909
0.276625
0.269334
0.262041
0.254748
0.247459
0.240177
0.232904
0.225645
0.218401
0.211175
0.203969
0.196786
0.189628
0.182494
0.175387
0.168305
0.161248
0.154215
0.147202
0.140205
0.133219
0.126235
0.119242
0.112223
0.105162
0.0980296
0.0907922
0.0834015
0.0757823
0.0678089
0.0592776
0.0498157
0.0386852
0.0266045
0.0287218
0.0495005
0.0663841
0.0802898
0.0928382
0.104692
0.116117
0.12724
0.138138
0.14886
0.159444
0.169917
0.180302
0.190613
0.200863
0.211061
0.221212
0.231322
0.241391
0.25142
0.261409
0.271355
0.281257
0.29111
0.300912
0.310656
0.32034
0.329958
0.339504
0.348973
0.35836
0.367658
0.376864
0.38597
0.394972
0.403864
0.41264
0.421297
0.429827
0.438228
0.446493
0.454618
0.4626
0.470433
0.478113
0.485638
0.493003
0.500205
0.507241
0.514108
0.520803
0.527324
0.533668
0.539833
0.545818
0.55162
0.557239
0.562672
0.56792
0.57298
0.577852
0.582535
0.58703
0.591335
0.595451
0.599378
0.603115
0.606664
0.610024
0.613196
0.616181
0.618979
0.62159
0.624017
0.626259
0.628318
0.630197
0.631898
0.633421
0.634769
0.635942
0.636942
0.637771
0.638431
0.638922
0.639247
0.639408
0.639407
0.639244
0.638923
0.638445
0.637812
0.637026
0.636088
0.635002
0.633769
0.632391
0.630869
0.629207
0.627406
0.625467
0.623394
0.621188
0.61885
0.616383
0.613789
0.611069
0.608225
0.60526
0.602174
0.59897
0.595649
0.592214
0.588664
0.585003
0.581232
0.577352
0.573364
0.56927
0.565072
0.56077
0.556366
0.551862
0.547258
0.542556
0.537757
0.532863
0.527874
0.522792
0.517617
0.512353
0.506998
0.501556
0.496027
0.490412
0.484713
0.478931
0.473069
0.467126
0.461105
0.455008
0.448836
0.442591
0.436275
0.429889
0.423437
0.416918
0.410337
0.403694
0.396993
0.390235
0.383423
0.376559
0.369647
0.362688
0.355685
0.348642
0.341561
0.334444
0.327296
0.320118
0.312915
0.305689
0.298444
0.291182
0.283908
0.276623
0.269333
0.26204
0.254747
0.247458
0.240176
0.232903
0.225644
0.2184
0.211174
0.203968
0.196786
0.189627
0.182493
0.175386
0.168304
0.161247
0.154214
0.147201
0.140205
0.133219
0.126234
0.119241
0.112223
0.105161
0.0980293
0.0907918
0.0834012
0.0757826
0.06781
0.0592799
0.0498176
0.0386877
0.0265991
0.0327289
0.0579974
0.077671
0.0931678
0.106942
0.119893
0.132369
0.144531
0.156467
0.168229
0.179856
0.191373
0.202801
0.214154
0.225443
0.236675
0.247856
0.258989
0.270075
0.281115
0.292107
0.30305
0.313941
0.324776
0.335552
0.346264
0.356908
0.367477
0.377968
0.388374
0.398689
0.408908
0.419025
0.429035
0.438931
0.448708
0.45836
0.467881
0.477267
0.486511
0.495609
0.504555
0.513345
0.521975
0.530439
0.538733
0.546854
0.554798
0.562561
0.57014
0.577531
0.584732
0.59174
0.598554
0.605169
0.611585
0.6178
0.623812
0.62962
0.635223
0.640619
0.645808
0.65079
0.655564
0.66013
0.664487
0.668637
0.672578
0.676312
0.679839
0.683159
0.686273
0.689183
0.691888
0.694391
0.696692
0.698792
0.700696
0.702404
0.703917
0.705237
0.706366
0.707306
0.708058
0.708624
0.709007
0.709207
0.709227
0.709069
0.708736
0.708228
0.707549
0.7067
0.705684
0.704503
0.703158
0.701653
0.699989
0.698169
0.696194
0.694068
0.691791
0.689367
0.686797
0.684083
0.681228
0.678234
0.675102
0.671835
0.668434
0.664902
0.66124
0.65745
0.653534
0.649494
0.645331
0.641047
0.636644
0.632123
0.627485
0.622733
0.617867
0.61289
0.607802
0.602606
0.597301
0.591891
0.586376
0.580757
0.575036
0.569215
0.563294
0.557276
0.551161
0.544952
0.538649
0.532255
0.525771
0.519199
0.512541
0.505797
0.498972
0.492065
0.485079
0.478017
0.470881
0.463673
0.456394
0.449049
0.441639
0.434166
0.426635
0.419046
0.411404
0.403711
0.39597
0.388185
0.380358
0.372493
0.364593
0.356662
0.348703
0.340719
0.332715
0.324694
0.316659
0.308614
0.300563
0.292509
0.284456
0.276408
0.268367
0.260338
0.252322
0.244324
0.236346
0.22839
0.220458
0.212552
0.204673
0.196822
0.188999
0.181202
0.173431
0.165681
0.157951
0.150233
0.14252
0.134802
0.127065
0.11929
0.111452
0.103513
0.0954183
0.0870822
0.0783549
0.0689411
0.0581541
0.04407
0.0248092
0.0327292
0.0580071
0.0776725
0.093166
0.106941
0.119892
0.132369
0.144531
0.156466
0.168228
0.179855
0.191372
0.2028
0.214153
0.225442
0.236674
0.247855
0.258988
0.270074
0.281114
0.292106
0.303049
0.31394
0.324775
0.335551
0.346263
0.356907
0.367476
0.377967
0.388372
0.398688
0.408907
0.419024
0.429034
0.43893
0.448706
0.458358
0.46788
0.477265
0.486509
0.495607
0.504554
0.513344
0.521973
0.530437
0.538732
0.546853
0.554796
0.562559
0.570138
0.577529
0.584731
0.591739
0.598552
0.605167
0.611584
0.617798
0.62381
0.629618
0.635221
0.640617
0.645807
0.650789
0.655562
0.660128
0.664486
0.668635
0.672576
0.67631
0.679837
0.683157
0.686272
0.689181
0.691887
0.694389
0.69669
0.698791
0.700694
0.702402
0.703915
0.705235
0.706365
0.707304
0.708056
0.708623
0.709005
0.709205
0.709225
0.709068
0.708734
0.708226
0.707547
0.706698
0.705682
0.704501
0.703156
0.701651
0.699987
0.698167
0.696193
0.694066
0.691789
0.689365
0.686795
0.684082
0.681227
0.678232
0.6751
0.671833
0.668432
0.6649
0.661238
0.657448
0.653532
0.649492
0.645329
0.641045
0.636642
0.632121
0.627484
0.622731
0.617866
0.612889
0.607801
0.602604
0.5973
0.591889
0.586374
0.580755
0.575035
0.569213
0.563293
0.557274
0.55116
0.544951
0.538648
0.532254
0.52577
0.519198
0.512539
0.505796
0.49897
0.492064
0.485078
0.478016
0.47088
0.463671
0.456393
0.449048
0.441638
0.434165
0.426634
0.419045
0.411403
0.40371
0.395969
0.388184
0.380357
0.372492
0.364592
0.356661
0.348702
0.340719
0.332714
0.324693
0.316658
0.308613
0.300562
0.292508
0.284455
0.276407
0.268366
0.260337
0.252322
0.244324
0.236345
0.228389
0.220457
0.212552
0.204673
0.196822
0.188998
0.181202
0.17343
0.165681
0.15795
0.150233
0.14252
0.134802
0.127065
0.11929
0.111452
0.103512
0.0954182
0.0870824
0.0783557
0.068943
0.0581555
0.0440702
0.024809
0.0307587
0.0673218
0.0886924
0.105474
0.120393
0.134382
0.147835
0.160942
0.173806
0.18649
0.199034
0.211465
0.223802
0.236059
0.248244
0.260365
0.272427
0.284431
0.29638
0.308272
0.320108
0.331884
0.343599
0.355248
0.366829
0.378337
0.389768
0.401116
0.412377
0.423545
0.434614
0.445579
0.456435
0.467176
0.477795
0.488287
0.498646
0.508867
0.518944
0.528871
0.538643
0.548255
0.557701
0.566977
0.576078
0.584999
0.593737
0.602286
0.610644
0.618806
0.626768
0.634529
0.642084
0.649431
0.656568
0.663492
0.670201
0.676694
0.682968
0.689023
0.694857
0.70047
0.70586
0.711027
0.715971
0.720692
0.725189
0.729463
0.733514
0.737342
0.740948
0.744333
0.747497
0.750442
0.753169
0.755678
0.757972
0.760052
0.761921
0.76358
0.765031
0.766275
0.767315
0.768152
0.768788
0.769225
0.769466
0.769512
0.769365
0.769028
0.768503
0.767792
0.766898
0.765822
0.764568
0.763137
0.761532
0.759755
0.757808
0.755694
0.753415
0.750974
0.748372
0.745613
0.742697
0.739628
0.736408
0.733039
0.729522
0.725861
0.722057
0.718112
0.714028
0.709807
0.705451
0.700962
0.696342
0.691592
0.686713
0.681709
0.676579
0.671327
0.665953
0.66046
0.654848
0.649119
0.643275
0.637317
0.631247
0.625067
0.618777
0.61238
0.605876
0.599269
0.592558
0.585747
0.578837
0.571829
0.564726
0.557529
0.550241
0.542863
0.535398
0.527848
0.520216
0.512503
0.504712
0.496846
0.488907
0.480899
0.472824
0.464685
0.456484
0.448227
0.439914
0.431551
0.423139
0.414684
0.406187
0.397653
0.389086
0.38049
0.371867
0.363223
0.35456
0.345883
0.337196
0.328502
0.319805
0.311109
0.302418
0.293735
0.285063
0.276407
0.267767
0.259149
0.250552
0.241981
0.233436
0.224918
0.216428
0.207966
0.199531
0.191121
0.182734
0.174367
0.166013
0.157666
0.149317
0.140951
0.132552
0.124092
0.115533
0.106815
0.0978396
0.0884343
0.0782524
0.0664771
0.0505311
0.0232082
0.0307699
0.0673243
0.0886908
0.105472
0.120392
0.134381
0.147834
0.160941
0.173805
0.18649
0.199034
0.211465
0.223801
0.236058
0.248243
0.260365
0.272426
0.28443
0.296379
0.308271
0.320107
0.331883
0.343598
0.355247
0.366828
0.378336
0.389767
0.401115
0.412376
0.423543
0.434613
0.445578
0.456434
0.467174
0.477794
0.488286
0.498645
0.508866
0.518942
0.528869
0.538642
0.548253
0.5577
0.566976
0.576077
0.584998
0.593736
0.602285
0.610643
0.618804
0.626767
0.634528
0.642083
0.64943
0.656567
0.663491
0.6702
0.676692
0.682967
0.689022
0.694856
0.700468
0.705859
0.711026
0.71597
0.72069
0.725188
0.729461
0.733512
0.73734
0.740946
0.744331
0.747496
0.750441
0.753167
0.755677
0.75797
0.760051
0.761919
0.763578
0.765029
0.766274
0.767313
0.76815
0.768786
0.769224
0.769464
0.76951
0.769363
0.769027
0.768502
0.767791
0.766896
0.765821
0.764566
0.763135
0.76153
0.759753
0.757806
0.755693
0.753414
0.750972
0.748371
0.745611
0.742696
0.739627
0.736407
0.733037
0.729521
0.72586
0.722056
0.718111
0.714027
0.709806
0.70545
0.700961
0.696341
0.69159
0.686712
0.681707
0.676578
0.671326
0.665952
0.660459
0.654847
0.649118
0.643274
0.637316
0.631246
0.625066
0.618776
0.612378
0.605875
0.599268
0.592557
0.585746
0.578836
0.571828
0.564725
0.557528
0.55024
0.542862
0.535397
0.527847
0.520215
0.512502
0.504711
0.496845
0.488906
0.480898
0.472823
0.464684
0.456484
0.448226
0.439913
0.43155
0.423138
0.414683
0.406186
0.397653
0.389086
0.380489
0.371867
0.363222
0.354559
0.345882
0.337195
0.328501
0.319804
0.311108
0.302417
0.293734
0.285063
0.276406
0.267767
0.259148
0.250552
0.24198
0.233435
0.224917
0.216427
0.207965
0.19953
0.191121
0.182734
0.174366
0.166013
0.157666
0.149317
0.140951
0.132552
0.124092
0.115533
0.106815
0.0978397
0.0884347
0.0782533
0.0664803
0.0505317
0.0232145
0.0338607
0.0757218
0.099203
0.117422
0.133519
0.148545
0.162953
0.176967
0.190711
0.204257
0.21765
0.23092
0.244085
0.25716
0.270153
0.283071
0.295917
0.308693
0.321401
0.33404
0.346609
0.359107
0.371531
0.383878
0.396145
0.408328
0.420423
0.432426
0.444332
0.456136
0.467834
0.479419
0.490887
0.502233
0.513449
0.524532
0.535475
0.546273
0.55692
0.567411
0.577739
0.587901
0.59789
0.607701
0.61733
0.626771
0.636021
0.645074
0.653927
0.662576
0.671016
0.679245
0.687259
0.695055
0.702631
0.709983
0.71711
0.724009
0.730679
0.737118
0.743325
0.749298
0.755037
0.760541
0.76581
0.770842
0.775639
0.780199
0.784524
0.788614
0.792468
0.796088
0.799475
0.80263
0.805553
0.808246
0.81071
0.812946
0.814959
0.816748
0.818316
0.819665
0.820796
0.821711
0.822413
0.822904
0.823184
0.823258
0.823127
0.822793
0.822258
0.821526
0.820598
0.819477
0.818165
0.816665
0.814979
0.813109
0.811059
0.80883
0.806425
0.803846
0.801097
0.798178
0.795093
0.791844
0.788433
0.784863
0.781136
0.777253
0.773218
0.769032
0.764698
0.760217
0.755592
0.750824
0.745915
0.740867
0.735683
0.730363
0.72491
0.719325
0.713611
0.707768
0.701798
0.695704
0.689486
0.683146
0.676687
0.670109
0.663415
0.656606
0.649683
0.64265
0.635506
0.628255
0.620898
0.613437
0.605874
0.598212
0.590452
0.582596
0.574648
0.566609
0.558482
0.550269
0.541974
0.533599
0.525147
0.51662
0.508023
0.499358
0.490628
0.481837
0.472988
0.464084
0.455131
0.44613
0.437086
0.428003
0.418885
0.409735
0.400558
0.391358
0.382138
0.372904
0.363658
0.354404
0.345148
0.335892
0.32664
0.317395
0.308162
0.298943
0.289741
0.280558
0.271397
0.26226
0.253149
0.244063
0.235004
0.225971
0.216964
0.20798
0.199019
0.190075
0.181145
0.172221
0.163294
0.154352
0.145375
0.136337
0.127195
0.117883
0.108292
0.098225
0.0872969
0.07459
0.0571603
0.0253347
0.0338643
0.0757222
0.0992021
0.117421
0.133519
0.148544
0.162952
0.176966
0.19071
0.204256
0.217649
0.230919
0.244084
0.257159
0.270152
0.28307
0.295916
0.308692
0.3214
0.334039
0.346608
0.359106
0.37153
0.383877
0.396144
0.408327
0.420422
0.432425
0.444331
0.456135
0.467833
0.479418
0.490886
0.502231
0.513448
0.524531
0.535474
0.546272
0.556919
0.567409
0.577738
0.587899
0.597888
0.6077
0.617329
0.62677
0.63602
0.645073
0.653926
0.662575
0.671015
0.679244
0.687258
0.695054
0.702629
0.709982
0.717109
0.724008
0.730678
0.737117
0.743324
0.749297
0.755036
0.76054
0.765809
0.770841
0.775638
0.780198
0.784523
0.788612
0.792467
0.796087
0.799474
0.802628
0.805551
0.808244
0.810708
0.812945
0.814957
0.816747
0.818315
0.819664
0.820795
0.82171
0.822412
0.822902
0.823183
0.823257
0.823125
0.822791
0.822257
0.821525
0.820597
0.819476
0.818164
0.816664
0.814977
0.813108
0.811058
0.808829
0.806424
0.803845
0.801095
0.798177
0.795092
0.791843
0.788432
0.784862
0.781135
0.777252
0.773217
0.769031
0.764697
0.760216
0.755591
0.750822
0.745914
0.740866
0.735682
0.730362
0.724909
0.719324
0.71361
0.707767
0.701797
0.695703
0.689485
0.683145
0.676686
0.670108
0.663414
0.656605
0.649682
0.642649
0.635505
0.628254
0.620897
0.613436
0.605873
0.598211
0.590451
0.582595
0.574647
0.566608
0.558481
0.550269
0.541973
0.533598
0.525146
0.51662
0.508022
0.499357
0.490627
0.481836
0.472987
0.464084
0.45513
0.446129
0.437086
0.428003
0.418884
0.409735
0.400558
0.391357
0.382138
0.372903
0.363657
0.354404
0.345147
0.335891
0.326639
0.317395
0.308162
0.298942
0.28974
0.280558
0.271397
0.26226
0.253148
0.244063
0.235003
0.22597
0.216963
0.20798
0.199018
0.190075
0.181145
0.172221
0.163294
0.154352
0.145375
0.136337
0.127195
0.117883
0.108292
0.098225
0.0872967
0.0745907
0.0571569
0.0253224
0.0376052
0.0838711
0.109516
0.129226
0.146526
0.162599
0.17796
0.19287
0.207471
0.221848
0.236052
0.250116
0.26406
0.277898
0.291639
0.305289
0.318852
0.33233
0.345722
0.359031
0.372254
0.38539
0.398437
0.411394
0.424257
0.437023
0.449689
0.462252
0.474707
0.487051
0.499278
0.511385
0.523367
0.535218
0.546934
0.558508
0.569938
0.581215
0.592336
0.603295
0.614086
0.624705
0.635145
0.645402
0.655471
0.665347
0.675024
0.684499
0.693768
0.702825
0.711667
0.720291
0.728692
0.736868
0.744815
0.752531
0.760012
0.767258
0.774266
0.781034
0.78756
0.793843
0.799882
0.805676
0.811224
0.816527
0.821583
0.826392
0.830955
0.835272
0.839344
0.84317
0.846752
0.850091
0.853187
0.856042
0.858657
0.861034
0.863174
0.865081
0.866754
0.868198
0.869412
0.8704
0.871163
0.871704
0.872024
0.872126
0.872012
0.871685
0.871147
0.8704
0.869447
0.86829
0.866932
0.865376
0.863624
0.861678
0.859541
0.857215
0.854704
0.85201
0.849134
0.846081
0.842851
0.839448
0.835874
0.832132
0.828223
0.824151
0.819916
0.815523
0.810972
0.806266
0.801407
0.796397
0.791238
0.785932
0.780482
0.774888
0.769153
0.763278
0.757266
0.751119
0.744837
0.738423
0.731879
0.725206
0.718406
0.71148
0.704432
0.697262
0.689973
0.682565
0.675042
0.667405
0.659657
0.651798
0.643832
0.635761
0.627587
0.619312
0.61094
0.602472
0.593911
0.58526
0.576522
0.567699
0.558796
0.549815
0.540759
0.531631
0.522436
0.513176
0.503855
0.494478
0.485047
0.475567
0.466042
0.456476
0.446872
0.437236
0.42757
0.41788
0.408169
0.398442
0.388702
0.378954
0.369201
0.359448
0.349698
0.339954
0.330219
0.320497
0.310791
0.301102
0.291433
0.281785
0.272159
0.262557
0.252979
0.243424
0.233891
0.224379
0.214885
0.205406
0.195937
0.186472
0.177001
0.167511
0.157982
0.148385
0.138673
0.128773
0.118562
0.107819
0.0961106
0.0824455
0.063878
0.0287611
0.0376073
0.0838719
0.109516
0.129226
0.146526
0.162598
0.177959
0.192869
0.20747
0.221847
0.236052
0.250115
0.264059
0.277897
0.291638
0.305288
0.318851
0.332329
0.345722
0.35903
0.372253
0.385389
0.398436
0.411393
0.424256
0.437022
0.449688
0.462251
0.474706
0.48705
0.499277
0.511384
0.523366
0.535217
0.546932
0.558507
0.569936
0.581214
0.592335
0.603294
0.614085
0.624704
0.635144
0.645401
0.65547
0.665346
0.675023
0.684498
0.693767
0.702824
0.711666
0.72029
0.728691
0.736866
0.744814
0.752529
0.760011
0.767257
0.774265
0.781032
0.787558
0.793841
0.79988
0.805675
0.811223
0.816525
0.821581
0.826391
0.830954
0.835271
0.839343
0.843169
0.846751
0.850089
0.853186
0.856041
0.858656
0.861033
0.863173
0.86508
0.866753
0.868197
0.869411
0.870399
0.871162
0.871703
0.872023
0.872125
0.872011
0.871684
0.871146
0.870399
0.869446
0.868289
0.866931
0.865375
0.863623
0.861677
0.85954
0.857214
0.854703
0.852009
0.849133
0.84608
0.84285
0.839447
0.835873
0.832131
0.828222
0.82415
0.819915
0.815522
0.810971
0.806265
0.801406
0.796396
0.791237
0.785931
0.780481
0.774887
0.769152
0.763278
0.757266
0.751118
0.744836
0.738422
0.731878
0.725205
0.718405
0.71148
0.704431
0.697261
0.689972
0.682564
0.675041
0.667404
0.659656
0.651797
0.643832
0.63576
0.627586
0.619312
0.610939
0.602471
0.59391
0.585259
0.576521
0.567699
0.558795
0.549814
0.540758
0.53163
0.522435
0.513175
0.503855
0.494477
0.485047
0.475567
0.466042
0.456475
0.446872
0.437235
0.42757
0.41788
0.408169
0.398442
0.388702
0.378954
0.369201
0.359448
0.349697
0.339953
0.330219
0.320497
0.31079
0.301101
0.291432
0.281784
0.272159
0.262557
0.252979
0.243423
0.233891
0.224378
0.214885
0.205406
0.195937
0.186472
0.177001
0.167511
0.157982
0.148385
0.138673
0.128773
0.118562
0.107819
0.0961118
0.0824476
0.0638756
0.0287481
0.0413745
0.0919623
0.119789
0.141019
0.159544
0.176679
0.193002
0.208809
0.224261
0.239455
0.254448
0.269278
0.283967
0.29853
0.312977
0.327314
0.341544
0.355669
0.369691
0.383609
0.397424
0.411133
0.424737
0.438234
0.451621
0.464898
0.47806
0.491106
0.504032
0.516836
0.529513
0.542061
0.554475
0.566751
0.578884
0.59087
0.602703
0.61438
0.625895
0.637243
0.648418
0.659416
0.670231
0.680859
0.691294
0.701531
0.711566
0.721393
0.731009
0.740408
0.749588
0.758543
0.76727
0.775767
0.784028
0.792052
0.799835
0.807376
0.814671
0.821719