/*--------------------------------*- C++ -*----------------------------------*\
  =========                 |
  \\      /  F ield         | OpenFOAM: The Open Source CFD Toolbox
   \\    /   O peration     | Website:  https://openfoam.org
    \\  /    A nd           | Version:  8
     \\/     M anipulation  |
\*---------------------------------------------------------------------------*/
FoamFile
{
    version     2.0;
    format      ascii;
    class       surfaceScalarField;
    location    "900";
    object      phi;
}
// * * * * * * * * * * * * * * * * * * * * * * * * * * * * * * * * * * * * * //

dimensions      [1 0 -1 0 0 0 0];

internalField   nonuniform List<scalar> 
119360
(
-6.62592e-08
-3.13596e-11
6.62898e-08
-1.22369e-07
-1.76312e-11
5.61664e-08
-1.59574e-07
-1.43976e-11
3.72413e-08
-1.72288e-07
-1.98902e-11
1.27668e-08
-1.57333e-07
-2.00709e-11
-1.48782e-08
-1.23047e-07
-1.6899e-11
-3.41984e-08
-7.50007e-08
-1.40873e-11
-4.7955e-08
-1.72681e-08
-1.15441e-11
-5.76361e-08
4.71913e-08
-8.94322e-12
-6.43636e-08
1.16212e-07
-6.25149e-12
-6.89268e-08
1.88293e-07
-4.6364e-12
-7.19967e-08
2.62372e-07
-4.23051e-12
-7.4008e-08
3.37665e-07
-4.47032e-12
-7.5231e-08
4.13573e-07
-4.92535e-12
-7.58531e-08
4.89627e-07
-5.02516e-12
-7.60019e-08
5.65447e-07
-4.47977e-12
-7.5768e-08
6.40721e-07
-3.433e-12
-7.52184e-08
7.15184e-07
-2.18694e-12
-7.44038e-08
7.88609e-07
-1.0755e-12
-7.33648e-08
8.60803e-07
-2.76974e-13
-7.21344e-08
9.316e-07
2.76192e-13
-7.07401e-08
1.00086e-06
6.9097e-13
-6.92054e-08
1.06846e-06
9.88675e-13
-6.75509e-08
1.1343e-06
1.17985e-12
-6.57952e-08
1.19829e-06
1.31569e-12
-6.39549e-08
1.26037e-06
1.42971e-12
-6.20457e-08
1.32049e-06
1.5389e-12
-6.00822e-08
1.37859e-06
1.66502e-12
-5.80784e-08
1.43466e-06
1.79363e-12
-5.6047e-08
1.48867e-06
1.83954e-12
-5.40001e-08
1.54063e-06
1.71392e-12
-5.19484e-08
1.59053e-06
1.43298e-12
-4.99012e-08
1.63841e-06
1.13072e-12
-4.78663e-08
1.68428e-06
9.85055e-13
-4.58503e-08
1.72816e-06
1.14926e-12
-4.38589e-08
1.77008e-06
1.70054e-12
-4.18972e-08
1.81008e-06
2.56798e-12
-3.997e-08
1.84819e-06
3.4994e-12
-3.80821e-08
1.88445e-06
4.13473e-12
-3.62382e-08
1.91891e-06
4.17306e-12
-3.44424e-08
1.95161e-06
3.51361e-12
-3.2698e-08
1.98262e-06
2.29675e-12
-3.1007e-08
2.01199e-06
8.4705e-13
-2.93702e-08
2.03979e-06
-4.33343e-13
-2.77869e-08
2.06606e-06
-1.18516e-12
-2.62556e-08
2.09087e-06
-1.19537e-12
-2.47745e-08
2.11425e-06
-4.6407e-13
-2.33415e-08
2.13626e-06
8.10133e-13
-2.19551e-08
2.15694e-06
2.31396e-12
-2.06145e-08
2.17632e-06
3.71631e-12
-1.93194e-08
2.19444e-06
4.73735e-12
-1.80699e-08
2.21134e-06
5.17453e-12
-1.68663e-08
2.22707e-06
4.91227e-12
-1.57087e-08
2.24168e-06
3.93047e-12
-1.45969e-08
2.2552e-06
2.3197e-12
-1.35302e-08
2.26769e-06
2.89686e-13
-1.25069e-08
2.27921e-06
-1.85035e-12
-1.15247e-08
2.28978e-06
-3.73887e-12
-1.05809e-08
2.29945e-06
-5.03872e-12
-9.67248e-09
2.30826e-06
-5.51978e-12
-8.79639e-09
2.31623e-06
-5.12559e-12
-7.95022e-09
2.32339e-06
-4.00147e-12
-7.1322e-09
2.32976e-06
-2.46675e-12
-6.34135e-09
2.33536e-06
-9.34474e-13
-5.57744e-09
2.34022e-06
2.01562e-13
-4.84073e-09
2.34435e-06
6.79263e-13
-4.13167e-09
2.34779e-06
4.40037e-13
-3.45049e-09
2.35057e-06
-3.66068e-13
-2.79696e-09
2.35271e-06
-1.44026e-12
-2.17027e-09
2.35425e-06
-2.42914e-12
-1.56899e-09
2.35521e-06
-3.02858e-12
-9.91295e-10
2.35562e-06
-3.05442e-12
-4.34994e-10
2.35551e-06
-2.47694e-12
1.02135e-10
2.35489e-06
-1.40476e-12
6.21849e-10
2.35378e-06
-3.63319e-14
1.12555e-09
2.35219e-06
1.40377e-12
1.61447e-09
2.35014e-06
2.71072e-12
2.08952e-09
2.34763e-06
3.72022e-12
2.55125e-09
2.34468e-06
4.30819e-12
2.99997e-09
2.3413e-06
4.3788e-12
3.43579e-09
2.33748e-06
3.86455e-12
3.85871e-09
2.33325e-06
2.73406e-12
4.26868e-09
2.32862e-06
1.01838e-12
4.66569e-09
2.32359e-06
-1.16407e-12
5.04989e-09
2.31818e-06
-3.59027e-12
5.42166e-09
2.31241e-06
-5.94269e-12
5.78174e-09
2.30628e-06
-7.84681e-12
6.13119e-09
2.29982e-06
-8.93333e-12
6.47139e-09
2.29302e-06
-8.92048e-12
6.80393e-09
2.2859e-06
-7.69185e-12
7.13036e-09
2.27847e-06
-5.34972e-12
7.45196e-09
2.27073e-06
-2.22322e-12
7.76955e-09
2.26268e-06
1.18131e-12
8.08332e-09
2.25433e-06
4.27272e-12
8.39285e-09
2.24568e-06
6.49333e-12
8.69717e-09
2.23673e-06
7.43478e-12
8.99503e-09
2.22749e-06
6.92432e-12
9.28518e-09
2.21796e-06
5.06359e-12
9.56662e-09
2.20815e-06
2.21459e-12
9.83888e-09
2.19807e-06
-1.0735e-12
1.01022e-08
2.18771e-06
-4.17641e-12
1.03573e-08
2.1771e-06
-6.53194e-12
1.06055e-08
2.16625e-06
-7.76823e-12
1.08484e-08
2.15516e-06
-7.79343e-12
1.10874e-08
2.14385e-06
-6.81341e-12
1.13232e-08
2.13233e-06
-5.26604e-12
1.15563e-08
2.1206e-06
-3.68161e-12
1.17864e-08
2.10867e-06
-2.51588e-12
1.20131e-08
2.09653e-06
-2.02227e-12
1.22358e-08
2.08418e-06
-2.20554e-12
1.24544e-08
2.07162e-06
-2.87348e-12
1.26695e-08
2.05884e-06
-3.74165e-12
1.28822e-08
2.04585e-06
-4.53804e-12
1.30939e-08
2.03263e-06
-5.05632e-12
1.33066e-08
2.0192e-06
-5.14833e-12
1.3522e-08
2.00555e-06
-4.69008e-12
1.37416e-08
1.99169e-06
-3.56293e-12
1.39658e-08
1.9776e-06
-1.6902e-12
1.41944e-08
1.96328e-06
8.8024e-13
1.44262e-08
1.94871e-06
3.8822e-12
1.46593e-08
1.9339e-06
6.80675e-12
1.48925e-08
1.91883e-06
8.99128e-12
1.51252e-08
1.9035e-06
9.81729e-12
1.5358e-08
1.8879e-06
8.9608e-12
1.55922e-08
1.87204e-06
6.58543e-12
1.58299e-08
1.85592e-06
3.37133e-12
1.60728e-08
1.83954e-06
3.33428e-13
1.63217e-08
1.82291e-06
-1.5343e-12
1.65771e-08
1.80601e-06
-1.6562e-12
1.68387e-08
1.78885e-06
-1.56375e-13
1.71062e-08
1.77142e-06
2.13798e-12
1.73796e-08
1.75371e-06
4.0076e-12
1.76591e-08
1.73571e-06
4.37411e-12
1.79454e-08
1.71741e-06
2.81236e-12
1.82391e-08
1.69882e-06
-2.06279e-13
1.85409e-08
1.67992e-06
-3.50997e-12
1.88515e-08
1.66071e-06
-5.78002e-12
1.91717e-08
1.64117e-06
-6.18525e-12
1.95027e-08
1.62131e-06
-4.75048e-12
1.98453e-08
1.60111e-06
-2.26416e-12
2.02004e-08
1.58054e-06
1.90792e-13
2.05683e-08
1.5596e-06
1.79326e-12
2.0949e-08
1.53827e-06
2.30138e-12
2.13419e-08
1.51653e-06
2.00598e-12
2.17465e-08
1.49437e-06
1.40482e-12
2.21622e-08
1.47177e-06
8.53595e-13
2.25891e-08
1.44873e-06
3.70093e-13
2.30275e-08
1.42523e-06
-3.057e-13
2.34783e-08
1.40127e-06
-1.47155e-12
2.39424e-08
1.37684e-06
-3.17568e-12
2.44205e-08
1.35194e-06
-5.06589e-12
2.49132e-08
1.32654e-06
-6.49114e-12
2.54214e-08
1.30063e-06
-6.83864e-12
2.59462e-08
1.27419e-06
-5.89989e-12
2.6489e-08
1.24721e-06
-4.01729e-12
2.7051e-08
1.21964e-06
-1.89154e-12
2.76329e-08
1.19148e-06
-1.92013e-13
2.82352e-08
1.16269e-06
7.62002e-13
2.88585e-08
1.13325e-06
1.06876e-12
2.95032e-08
1.10313e-06
1.08386e-12
3.01699e-08
1.07232e-06
1.16696e-12
3.08592e-08
1.04078e-06
1.46172e-12
3.15722e-08
1.00849e-06
1.79357e-12
3.23098e-08
9.75433e-07
1.74194e-12
3.30731e-08
9.41585e-07
8.96061e-13
3.38624e-08
9.06922e-07
-8.42382e-13
3.46778e-08
8.71424e-07
-3.1285e-12
3.55194e-08
8.35068e-07
-5.32313e-12
3.63871e-08
7.9783e-07
-6.79323e-12
3.72803e-08
7.59687e-07
-7.156e-12
3.81983e-08
7.20615e-07
-6.38145e-12
3.91398e-08
6.80593e-07
-4.78784e-12
4.01025e-08
6.396e-07
-2.92405e-12
4.10824e-08
5.97623e-07
-1.29791e-12
4.20738e-08
5.54655e-07
-1.06803e-13
4.30689e-08
5.10697e-07
7.60558e-13
4.40575e-08
4.65764e-07
1.48903e-12
4.50268e-08
4.19888e-07
2.20224e-12
4.59604e-08
3.73119e-07
2.98367e-12
4.68386e-08
3.25535e-07
3.82155e-12
4.76368e-08
2.77246e-07
4.53737e-12
4.83241e-08
2.284e-07
4.93289e-12
4.88623e-08
1.79196e-07
4.93861e-12
4.92045e-08
1.29888e-07
4.585e-12
4.92929e-08
8.0807e-08
4.0199e-12
4.90534e-08
3.23758e-08
3.51563e-12
4.83959e-08
-1.48421e-08
3.20066e-12
4.71792e-08
-6.00933e-08
3.05989e-12
4.52102e-08
-1.02463e-07
3.25406e-12
4.23263e-08
-1.40858e-07
3.85025e-12
3.83497e-08
-1.73893e-07
4.3594e-12
3.29902e-08
-1.99773e-07
4.38072e-12
2.58282e-08
-2.16168e-07
4.46176e-12
1.63324e-08
-2.20217e-07
5.20661e-12
3.97633e-09
-2.09002e-07
6.07991e-12
-1.12986e-08
-1.82681e-07
6.47749e-12
-2.64213e-08
-1.44706e-07
6.25333e-12
-3.80982e-08
-9.60347e-08
3.73146e-12
-4.88111e-08
-4.40634e-08
1.29508e-12
-5.20899e-08
1.46438e-13
-4.41651e-08
-6.62777e-08
6.62609e-08
-1.22376e-07
5.61428e-08
-1.59575e-07
3.72259e-08
-1.72283e-07
1.27511e-08
-1.57324e-07
-1.48904e-08
-1.23032e-07
-3.4208e-08
-7.49828e-08
-4.79607e-08
-1.72482e-08
-5.7638e-08
4.72126e-08
-6.43633e-08
1.1623e-07
-6.89261e-08
1.88306e-07
-7.19963e-08
2.62381e-07
-7.40084e-08
3.37669e-07
-7.52326e-08
4.13574e-07
-7.58547e-08
4.89626e-07
-7.60028e-08
5.65448e-07
-7.57679e-08
6.40723e-07
-7.52168e-08
7.15187e-07
-7.4401e-08
7.88613e-07
-7.33611e-08
8.60807e-07
-7.21305e-08
9.31603e-07
-7.07363e-08
1.00086e-06
-6.92019e-08
1.06846e-06
-6.75478e-08
1.1343e-06
-6.57922e-08
1.19829e-06
-6.39521e-08
1.26037e-06
-6.20431e-08
1.32048e-06
-6.008e-08
1.37858e-06
-5.80766e-08
1.43465e-06
-5.60457e-08
1.48866e-06
-5.39991e-08
1.54061e-06
-5.19474e-08
1.59053e-06
-4.98998e-08
1.6384e-06
-4.78642e-08
1.68427e-06
-4.58473e-08
1.72816e-06
-4.3855e-08
1.77008e-06
-4.18926e-08
1.81008e-06
-3.9965e-08
1.84819e-06
-3.80773e-08
1.88445e-06
-3.62339e-08
1.9189e-06
-3.44388e-08
1.9516e-06
-3.26951e-08
1.98261e-06
-3.10045e-08
2.01198e-06
-2.93674e-08
2.03978e-06
-2.77833e-08
2.06605e-06
-2.62508e-08
2.09086e-06
-2.47682e-08
2.11425e-06
-2.33339e-08
2.13626e-06
-2.19469e-08
2.15694e-06
-2.06064e-08
2.17632e-06
-1.93122e-08
2.19444e-06
-1.80645e-08
2.21134e-06
-1.6863e-08
2.22706e-06
-1.57078e-08
2.24167e-06
-1.45982e-08
2.25519e-06
-1.3533e-08
2.26768e-06
-1.25106e-08
2.27919e-06
-1.15286e-08
2.28977e-06
-1.05844e-08
2.29944e-06
-9.67516e-09
2.30825e-06
-8.79824e-09
2.31623e-06
-7.95141e-09
2.32339e-06
-7.13307e-09
2.32976e-06
-6.34237e-09
2.33536e-06
-5.57903e-09
2.34022e-06
-4.84322e-09
2.34435e-06
-4.13515e-09
2.34779e-06
-3.4548e-09
2.35057e-06
-2.8017e-09
2.35271e-06
-2.1748e-09
2.35425e-06
-1.57257e-09
2.35521e-06
-9.93142e-10
2.35562e-06
-4.34457e-10
2.35551e-06
1.05464e-10
2.35489e-06
6.28041e-10
2.35378e-06
1.13431e-09
2.3522e-06
1.62514e-09
2.35014e-06
2.10115e-09
2.34764e-06
2.56274e-09
2.34468e-06
3.01018e-09
2.34129e-06
3.44367e-09
2.33747e-06
3.86346e-09
2.33324e-06
4.26985e-09
2.3286e-06
4.66328e-09
2.32358e-06
5.04436e-09
2.31817e-06
5.41391e-09
2.3124e-06
5.77301e-09
2.30628e-06
6.12295e-09
2.29982e-06
6.46516e-09
2.29302e-06
6.801e-09
2.28591e-06
7.13163e-09
2.27848e-06
7.45771e-09
2.27073e-06
7.77933e-09
2.26268e-06
8.09595e-09
2.25433e-06
8.40655e-09
2.24568e-06
8.70985e-09
2.23673e-06
9.00471e-09
2.22749e-06
9.29034e-09
2.21795e-06
9.56665e-09
2.20814e-06
9.83428e-09
2.19806e-06
1.00945e-08
2.1877e-06
1.03489e-08
2.1771e-06
1.05991e-08
2.16625e-06
1.08462e-08
2.15517e-06
1.10907e-08
2.14386e-06
1.13323e-08
2.13234e-06
1.15698e-08
2.12061e-06
1.18023e-08
2.10867e-06
1.20286e-08
2.09653e-06
1.22488e-08
2.08417e-06
1.24636e-08
2.07161e-06
1.26748e-08
2.05883e-06
1.2885e-08
2.04584e-06
1.30964e-08
2.03263e-06
1.33113e-08
2.01921e-06
1.35308e-08
2.00557e-06
1.37549e-08
1.9917e-06
1.39827e-08
1.97761e-06
1.42123e-08
1.96328e-06
1.44419e-08
1.94871e-06
1.46704e-08
1.9339e-06
1.48976e-08
1.91882e-06
1.51245e-08
1.90349e-06
1.53531e-08
1.8879e-06
1.55853e-08
1.87204e-06
1.58227e-08
1.85593e-06
1.60661e-08
1.83955e-06
1.63159e-08
1.82291e-06
1.65718e-08
1.80601e-06
1.68335e-08
1.78885e-06
1.71009e-08
1.77141e-06
1.73741e-08
1.7537e-06
1.76534e-08
1.7357e-06
1.79395e-08
1.71741e-06
1.82329e-08
1.69882e-06
1.85344e-08
1.67992e-06
1.88453e-08
1.6607e-06
1.91665e-08
1.64117e-06
1.94992e-08
1.62131e-06
1.98441e-08
1.6011e-06
2.02014e-08
1.58054e-06
2.05708e-08
1.5596e-06
2.09517e-08
1.53827e-06
2.13436e-08
1.51653e-06
2.17462e-08
1.49436e-06
2.21598e-08
1.47176e-06
2.25854e-08
1.44872e-06
2.30237e-08
1.42523e-06
2.34756e-08
1.40127e-06
2.39414e-08
1.37685e-06
2.44212e-08
1.35194e-06
2.49156e-08
1.32654e-06
2.54254e-08
1.30063e-06
2.59519e-08
1.2742e-06
2.64963e-08
1.24721e-06
2.70594e-08
1.21965e-06
2.76416e-08
1.19148e-06
2.82434e-08
1.16269e-06
2.88654e-08
1.13325e-06
2.95084e-08
1.10313e-06
3.01733e-08
1.07231e-06
3.08614e-08
1.04077e-06
3.15738e-08
1.00849e-06
3.23116e-08
9.75432e-07
3.30753e-08
9.41586e-07
3.3865e-08
9.06925e-07
3.46808e-08
8.71428e-07
3.55229e-08
8.35071e-07
3.63913e-08
7.97832e-07
3.72857e-08
7.59687e-07
3.82053e-08
7.20615e-07
3.91486e-08
6.80594e-07
4.0113e-08
6.39604e-07
4.10942e-08
5.97629e-07
4.2086e-08
5.54663e-07
4.30809e-08
5.10705e-07
4.40687e-08
4.65772e-07
4.50364e-08
4.19893e-07
4.59681e-08
3.73121e-07
4.68443e-08
3.25535e-07
4.76403e-08
2.77244e-07
4.83257e-08
2.28398e-07
4.88625e-08
1.79193e-07
4.92036e-08
1.29886e-07
4.92909e-08
8.08072e-08
4.90505e-08
3.23779e-08
4.83925e-08
-1.48383e-08
4.71757e-08
-6.00874e-08
4.52064e-08
-1.02455e-07
4.23222e-08
-1.40849e-07
3.83457e-08
-1.73886e-07
3.29869e-08
-1.99765e-07
2.5826e-08
-2.16157e-07
1.63298e-08
-2.20205e-07
3.97141e-09
-2.08994e-07
-1.13067e-08
-1.82677e-07
-2.64347e-08
-1.44705e-07
-3.81146e-08
-9.60329e-08
-4.88175e-08
-4.40675e-08
-5.2084e-08
-4.41856e-08
-5.07314e-08
-2.25963e-11
1.17065e-07
-7.18672e-08
-1.1747e-11
7.73892e-08
-6.91983e-08
-7.21933e-12
3.4632e-08
-4.98499e-08
-4.85867e-12
-6.50757e-09
-2.1659e-08
-3.28635e-12
-4.29881e-08
1.58831e-08
-2.36793e-12
-7.16611e-08
6.13244e-08
-1.45709e-12
-9.33136e-08
1.13139e-07
-6.58915e-13
-1.09367e-07
1.69963e-07
-7.27894e-14
-1.21108e-07
2.30657e-07
2.94817e-13
-1.29551e-07
2.94258e-07
4.07239e-13
-1.35539e-07
3.59976e-07
2.83142e-13
-1.39673e-07
4.27167e-07
8.4175e-14
-1.42376e-07
4.95308e-07
-1.00809e-15
-1.43949e-07
5.63965e-07
7.18908e-14
-1.44612e-07
6.32775e-07
2.65207e-13
-1.44527e-07
7.01428e-07
5.35365e-13
-1.43818e-07
7.69657e-07
8.00291e-13
-1.4258e-07
8.37234e-07
9.85795e-13
-1.40889e-07
9.03959e-07
1.09476e-12
-1.38809e-07
9.69657e-07
1.16192e-12
-1.36392e-07
1.03418e-06
1.19667e-12
-1.33685e-07
1.09739e-06
1.19919e-12
-1.30728e-07
1.15919e-06
1.18109e-12
-1.27559e-07
1.21948e-06
1.15267e-12
-1.2421e-07
1.27817e-06
1.12028e-12
-1.20713e-07
1.33521e-06
1.10031e-12
-1.17097e-07
1.39054e-06
1.10554e-12
-1.13389e-07
1.44411e-06
1.12167e-12
-1.09613e-07
1.49591e-06
1.11702e-12
-1.05792e-07
1.54592e-06
1.07719e-12
-1.01948e-07
1.59413e-06
1.02002e-12
-9.80979e-08
1.64054e-06
9.82401e-13
-9.42597e-08
1.68516e-06
1.00302e-12
-9.04481e-08
1.72801e-06
1.1121e-12
-8.66761e-08
1.76909e-06
1.31114e-12
-8.29554e-08
1.80844e-06
1.55326e-12
-7.92959e-08
1.84609e-06
1.75072e-12
-7.57064e-08
1.88205e-06
1.81783e-12
-7.2194e-08
1.91638e-06
1.71587e-12
-6.87646e-08
1.94911e-06
1.46965e-12
-6.54228e-08
1.98028e-06
1.15411e-12
-6.21716e-08
2.00993e-06
8.68364e-13
-5.90131e-08
2.03812e-06
7.04307e-13
-5.59484e-08
2.06487e-06
7.16311e-13
-5.29779e-08
2.09024e-06
9.03217e-13
-5.01015e-08
2.11427e-06
1.21002e-12
-4.73185e-08
2.137e-06
1.55179e-12
-4.46282e-08
2.15847e-06
1.84323e-12
-4.20291e-08
2.17871e-06
2.01887e-12
-3.95199e-08
2.19777e-06
2.03902e-12
-3.70987e-08
2.21568e-06
1.88701e-12
-3.47634e-08
2.23249e-06
1.56578e-12
-3.2512e-08
2.24823e-06
1.09914e-12
-3.0342e-08
2.26293e-06
5.34358e-13
-2.82507e-08
2.27665e-06
-5.84871e-14
-2.62353e-08
2.28941e-06
-5.9546e-13
-2.42929e-08
2.30125e-06
-9.9528e-13
-2.24205e-08
2.31221e-06
-1.19922e-12
-2.06152e-08
2.3223e-06
-1.18903e-12
-1.88744e-08
2.33157e-06
-9.95481e-13
-1.71956e-08
2.34003e-06
-6.95603e-13
-1.55767e-08
2.34773e-06
-3.93095e-13
-1.40156e-08
2.35467e-06
-1.88342e-13
-1.25103e-08
2.36088e-06
-1.47729e-13
-1.10588e-08
2.3664e-06
-2.82392e-13
-9.65921e-09
2.37124e-06
-5.45376e-13
-8.30926e-09
2.37542e-06
-8.47142e-13
-7.00676e-09
2.37897e-06
-1.08276e-12
-5.74945e-09
2.38191e-06
-1.16239e-12
-4.53508e-09
2.38427e-06
-1.03404e-12
-3.36145e-09
2.38606e-06
-6.94236e-13
-2.2264e-09
2.38729e-06
-1.85657e-13
-1.12793e-09
2.388e-06
4.16715e-13
-6.4285e-11
2.38819e-06
1.0265e-12
9.65919e-10
2.38789e-06
1.56318e-12
1.96393e-09
2.38709e-06
1.96271e-12
2.93102e-09
2.38582e-06
2.17884e-12
3.86838e-09
2.38409e-06
2.1806e-12
4.77702e-09
2.3819e-06
1.95086e-12
5.65796e-09
2.37928e-06
1.49002e-12
6.51225e-09
2.37623e-06
8.20934e-13
7.34105e-09
2.37276e-06
-4.17716e-15
8.14571e-09
2.36889e-06
-9.00287e-13
8.92779e-09
2.36462e-06
-1.75188e-12
9.68908e-09
2.35997e-06
-2.42528e-12
1.04315e-08
2.35495e-06
-2.79032e-12
1.11571e-08
2.34956e-06
-2.74841e-12
1.18677e-08
2.34381e-06
-2.25907e-12
1.25649e-08
2.33772e-06
-1.3597e-12
1.32497e-08
2.33128e-06
-1.7001e-13
1.39227e-08
2.32451e-06
1.12178e-12
1.45835e-08
2.31741e-06
2.28938e-12
1.52314e-08
2.30998e-06
3.11329e-12
1.58652e-08
2.30224e-06
3.42763e-12
1.64837e-08
2.29419e-06
3.15974e-12
1.70859e-08
2.28583e-06
2.35133e-12
1.76717e-08
2.27717e-06
1.15585e-12
1.82418e-08
2.26821e-06
-1.87357e-13
1.8798e-08
2.25897e-06
-1.40234e-12
1.93425e-08
2.24944e-06
-2.23595e-12
1.98782e-08
2.23964e-06
-2.52121e-12
2.04073e-08
2.22956e-06
-2.22357e-12
2.09313e-08
2.21922e-06
-1.45819e-12
2.14504e-08
2.20863e-06
-4.63969e-13
2.19636e-08
2.19778e-06
4.63962e-13
2.24688e-08
2.18668e-06
1.06824e-12
2.29638e-08
2.17533e-06
1.21804e-12
2.34471e-08
2.16374e-06
9.54854e-13
2.39184e-08
2.15191e-06
4.70422e-13
2.43793e-08
2.13983e-06
1.73889e-14
2.4833e-08
2.12751e-06
-2.07376e-13
2.52836e-08
2.11496e-06
-1.49429e-13
2.57351e-08
2.10216e-06
9.6416e-14
2.61902e-08
2.08912e-06
3.67324e-13
2.665e-08
2.07584e-06
5.5364e-13
2.71138e-08
2.06233e-06
6.8328e-13
2.75793e-08
2.04857e-06
9.05637e-13
2.8044e-08
2.03458e-06
1.3732e-12
2.85062e-08
2.02033e-06
2.09151e-12
2.89656e-08
2.00584e-06
2.84202e-12
2.94237e-08
1.99109e-06
3.24902e-12
2.98838e-08
1.97609e-06
2.97426e-12
3.03497e-08
1.96083e-06
1.93501e-12
3.0825e-08
1.9453e-06
4.06841e-13
3.13128e-08
1.92951e-06
-1.06468e-12
3.18146e-08
1.91345e-06
-1.91705e-12
3.23311e-08
1.89712e-06
-1.8542e-12
3.28616e-08
1.8805e-06
-1.00288e-12
3.34052e-08
1.8636e-06
1.46237e-13
3.39609e-08
1.8464e-06
9.86537e-13
3.45284e-08
1.8289e-06
1.0966e-12
3.51086e-08
1.81109e-06
4.38996e-13
3.57033e-08
1.79297e-06
-6.44131e-13
3.63151e-08
1.77452e-06
-1.6258e-12
3.69462e-08
1.75574e-06
-2.0669e-12
3.75984e-08
1.73662e-06
-1.82079e-12
3.82718e-08
1.71714e-06
-1.06969e-12
3.89661e-08
1.6973e-06
-1.88058e-13
3.96805e-08
1.67709e-06
4.7156e-13
4.04142e-08
1.6565e-06
7.4412e-13
4.11668e-08
1.63552e-06
6.85063e-13
4.19386e-08
1.61413e-06
4.76362e-13
4.27306e-08
1.59233e-06
2.86812e-13
4.35442e-08
1.5701e-06
1.76609e-13
4.4381e-08
1.54744e-06
9.27938e-14
4.5243e-08
1.52432e-06
-6.56072e-14
4.61319e-08
1.50074e-06
-3.6271e-13
4.7049e-08
1.47668e-06
-7.69704e-13
4.79952e-08
1.45214e-06
-1.16027e-12
4.89712e-08
1.4271e-06
-1.36425e-12
4.99773e-08
1.40155e-06
-1.25663e-12
5.10135e-08
1.37546e-06
-8.35415e-13
5.20799e-08
1.34883e-06
-2.34361e-13
5.31768e-08
1.32164e-06
3.46931e-13
5.43048e-08
1.29387e-06
7.49303e-13
5.5465e-08
1.26551e-06
9.25468e-13
5.66589e-08
1.23653e-06
9.34294e-13
5.78887e-08
1.20692e-06
8.78721e-13
5.91565e-08
1.17666e-06
8.40536e-13
6.04644e-08
1.14573e-06
8.40106e-13
6.18144e-08
1.11411e-06
8.30405e-13
6.32084e-08
1.08179e-06
7.23061e-13
6.4648e-08
1.04875e-06
4.447e-13
6.61345e-08
1.01496e-06
-9.29814e-16
6.76688e-08
9.80405e-07
-5.10175e-13
6.9251e-08
9.45075e-07
-9.25898e-13
7.08804e-08
9.08947e-07
-1.1154e-12
7.25551e-08
8.72007e-07
-1.02454e-12
7.42721e-08
8.34241e-07
-6.84008e-13
7.60271e-08
7.95639e-07
-1.94553e-13
7.78144e-08
7.56196e-07
2.99968e-13
7.96262e-08
7.15912e-07
6.72865e-13
8.14526e-08
6.74793e-07
8.82919e-13
8.32807e-08
6.32852e-07
9.7615e-13
8.50946e-08
5.90114e-07
1.01404e-12
8.68741e-08
5.46615e-07
1.03252e-12
8.85942e-08
5.02407e-07
1.05459e-12
9.02242e-08
4.57561e-07
1.07744e-12
9.17259e-08
4.1217e-07
1.04602e-12
9.30527e-08
3.66357e-07
9.18141e-13
9.41473e-08
3.20276e-07
7.21673e-13
9.49401e-08
2.74122e-07
4.87638e-13
9.53455e-08
2.28135e-07
2.13635e-13
9.52588e-08
1.82611e-07
-4.95576e-14
9.45498e-08
1.37915e-07
-2.21961e-13
9.30594e-08
9.44817e-08
-3.21701e-13
9.05767e-08
5.28135e-08
-4.04163e-13
8.68401e-08
1.35089e-08
-4.37692e-13
8.15904e-08
-2.26935e-08
-3.59365e-13
7.45077e-08
-5.49333e-08
-1.90514e-13
6.51809e-08
-8.22954e-08
-6.51562e-14
5.31371e-08
-1.0391e-07
-9.17044e-14
3.78874e-08
-1.19125e-07
-2.02366e-13
1.91202e-08
-1.27631e-07
-1.69365e-13
-2.88041e-09
-1.27625e-07
3.93574e-14
-2.65378e-08
-1.15389e-07
6.55309e-14
-5.04633e-08
-9.12216e-08
-2.83829e-13
-7.31002e-08
-5.34789e-08
-4.40092e-13
-8.99452e-08
-6.81422e-12
-9.77384e-08
-5.07283e-08
1.17025e-07
-7.18643e-08
7.73661e-08
-6.91923e-08
3.46113e-08
-4.98443e-08
-6.52593e-09
-2.16537e-08
-4.30047e-08
1.58896e-08
-7.16758e-08
6.1331e-08
-9.33267e-08
1.13145e-07
-1.09379e-07
1.69968e-07
-1.21119e-07
2.30661e-07
-1.29562e-07
2.94261e-07
-1.35549e-07
3.59976e-07
-1.39684e-07
4.27166e-07
-1.42386e-07
4.95306e-07
-1.43959e-07
5.63962e-07
-1.44622e-07
6.32772e-07
-1.44537e-07
7.01425e-07
-1.43827e-07
7.69655e-07
-1.42588e-07
8.37232e-07
-1.40897e-07
9.03957e-07
-1.38816e-07
9.69655e-07
-1.36399e-07
1.03418e-06
-1.33691e-07
1.09739e-06
-1.30734e-07
1.15919e-06
-1.27564e-07
1.21948e-06
-1.24215e-07
1.27817e-06
-1.20717e-07
1.3352e-06
-1.17101e-07
1.39053e-06
-1.13393e-07
1.44411e-06
-1.09616e-07
1.49591e-06
-1.05796e-07
1.54592e-06
-1.01951e-07
1.59413e-06
-9.81008e-08
1.64054e-06
-9.42623e-08
1.68516e-06
-9.04504e-08
1.728e-06
-8.66782e-08
1.76909e-06
-8.29572e-08
1.80844e-06
-7.92975e-08
1.84608e-06
-7.57078e-08
1.88205e-06
-7.21954e-08
1.91638e-06
-6.87661e-08
1.94911e-06
-6.54243e-08
1.98027e-06
-6.21731e-08
2.00993e-06
-5.90147e-08
2.03811e-06
-5.595e-08
2.06487e-06
-5.29795e-08
2.09024e-06
-5.01031e-08
2.11427e-06
-4.73202e-08
2.137e-06
-4.46298e-08
2.15846e-06
-4.20308e-08
2.17871e-06
-3.95217e-08
2.19777e-06
-3.71005e-08
2.21568e-06
-3.47654e-08
2.23248e-06
-3.2514e-08
2.24822e-06
-3.0344e-08
2.26293e-06
-2.82526e-08
2.27665e-06
-2.62371e-08
2.28941e-06
-2.42944e-08
2.30125e-06
-2.24217e-08
2.3122e-06
-2.06162e-08
2.3223e-06
-1.88751e-08
2.33156e-06
-1.71962e-08
2.34003e-06
-1.55771e-08
2.34772e-06
-1.40158e-08
2.35466e-06
-1.25103e-08
2.36088e-06
-1.10587e-08
2.3664e-06
-9.65874e-09
2.37123e-06
-8.30848e-09
2.37542e-06
-7.00569e-09
2.37897e-06
-5.74815e-09
2.38191e-06
-4.53361e-09
2.38427e-06
-3.35987e-09
2.38605e-06
-2.22479e-09
2.38729e-06
-1.12637e-09
2.388e-06
-6.28674e-11
2.38819e-06
9.67067e-10
2.38789e-06
1.96466e-09
2.38709e-06
2.93119e-09
2.38582e-06
3.86784e-09
2.38408e-06
4.77571e-09
2.3819e-06
5.65588e-09
2.37927e-06
6.50952e-09
2.37622e-06
7.33791e-09
2.37275e-06
8.14248e-09
2.36888e-06
8.92485e-09
2.36462e-06
9.68681e-09
2.35997e-06
1.04302e-08
2.35495e-06
1.11569e-08
2.34956e-06
1.18687e-08
2.34381e-06
1.25669e-08
2.33772e-06
1.32523e-08
2.33128e-06
1.39254e-08
2.32451e-06
1.45858e-08
2.3174e-06
1.52328e-08
2.30998e-06
1.58652e-08
2.30224e-06
1.64821e-08
2.29418e-06
1.70829e-08
2.28582e-06
1.76677e-08
2.27716e-06
1.82376e-08
2.26821e-06
1.87943e-08
2.25896e-06
1.93403e-08
2.24944e-06
1.98779e-08
2.23964e-06
2.04092e-08
2.22956e-06
2.0935e-08
2.21923e-06
2.14551e-08
2.20863e-06
2.19681e-08
2.19778e-06
2.24719e-08
2.18668e-06
2.29646e-08
2.17533e-06
2.34451e-08
2.16374e-06
2.39141e-08
2.1519e-06
2.43736e-08
2.13983e-06
2.48274e-08
2.12751e-06
2.52795e-08
2.11495e-06
2.57335e-08
2.10216e-06
2.61916e-08
2.08912e-06
2.6654e-08
2.07585e-06
2.71191e-08
2.06233e-06
2.75843e-08
2.04857e-06
2.80471e-08
2.03457e-06
2.85063e-08
2.02033e-06
2.89628e-08
2.00583e-06
2.9419e-08
1.99109e-06
2.98788e-08
1.97609e-06
3.0346e-08
1.96083e-06
3.08236e-08
1.9453e-06
3.13135e-08
1.92951e-06
3.18168e-08
1.91345e-06
3.23335e-08
1.89711e-06
3.28631e-08
1.8805e-06
3.34053e-08
1.86359e-06
3.39597e-08
1.8464e-06
3.45265e-08
1.8289e-06
3.51067e-08
1.81109e-06
3.57021e-08
1.79297e-06
3.63147e-08
1.77452e-06
3.69465e-08
1.75574e-06
3.75988e-08
1.73661e-06
3.82722e-08
1.71714e-06
3.89664e-08
1.6973e-06
3.96809e-08
1.67709e-06
4.04148e-08
1.6565e-06
4.11674e-08
1.63552e-06
4.19389e-08
1.61413e-06
4.273e-08
1.59233e-06
4.35425e-08
1.5701e-06
4.43786e-08
1.54743e-06
4.52405e-08
1.52432e-06
4.61301e-08
1.50074e-06
4.70483e-08
1.47668e-06
4.79956e-08
1.45214e-06
4.89722e-08
1.4271e-06
4.99783e-08
1.40155e-06
5.10144e-08
1.37546e-06
5.20806e-08
1.34883e-06
5.31774e-08
1.32164e-06
5.43053e-08
1.29387e-06
5.54652e-08
1.26551e-06
5.66587e-08
1.23653e-06
5.78878e-08
1.20692e-06
5.91549e-08
1.17666e-06
6.04624e-08
1.14573e-06
6.18125e-08
1.11411e-06
6.3207e-08
1.08179e-06
6.46473e-08
1.04875e-06
6.61345e-08
1.01496e-06
6.76691e-08
9.80407e-07
6.92513e-08
9.45076e-07
7.08805e-08
9.08948e-07
7.25551e-08
8.72008e-07
7.42721e-08
8.34241e-07
7.60274e-08
7.95639e-07
7.7815e-08
7.56197e-07
7.96271e-08
7.15913e-07
8.14535e-08
6.74794e-07
8.32815e-08
6.32854e-07
8.5095e-08
5.90115e-07
8.6874e-08
5.46616e-07
8.85937e-08
5.02407e-07
9.02233e-08
4.5756e-07
9.17248e-08
4.12169e-07
9.30516e-08
3.66356e-07
9.41465e-08
3.20275e-07
9.49395e-08
2.74121e-07
9.53452e-08
2.28135e-07
9.52587e-08
1.82612e-07
9.455e-08
1.37916e-07
9.30599e-08
9.44833e-08
9.05776e-08
5.28155e-08
8.68414e-08
1.35116e-08
8.1592e-08
-2.26903e-08
7.45091e-08
-5.49304e-08
6.5182e-08
-8.22934e-08
5.31379e-08
-1.03909e-07
3.78884e-08
-1.19124e-07
1.91214e-08
-1.2763e-07
-2.87974e-09
-1.27626e-07
-2.65383e-08
-1.15396e-07
-5.04625e-08
-9.12283e-08
-7.30985e-08
-5.34843e-08
-8.99436e-08
-9.77378e-08
-2.49969e-08
-2.06039e-11
1.42111e-07
-2.04126e-08
-8.20939e-12
7.29116e-08
1.09706e-09
-4.43294e-12
1.31737e-08
3.14562e-08
-2.48089e-12
-3.68275e-08
6.67154e-08
-1.42827e-12
-7.82147e-08
1.06532e-07
-8.54196e-13
-1.11449e-07
1.50768e-07
-4.00285e-13
-1.37525e-07
1.99085e-07
-2.37641e-15
-1.57663e-07
2.51003e-07
2.29186e-13
-1.73009e-07
3.05994e-07
2.93918e-13
-1.84532e-07
3.63502e-07
2.19025e-13
-1.93039e-07
4.2299e-07
5.8382e-14
-1.99156e-07
4.83974e-07
-7.41586e-14
-2.03357e-07
5.46028e-07
-1.00208e-13
-2.06e-07
6.08776e-07
-2.38947e-14
-2.07356e-07
6.71887e-07
1.15403e-13
-2.07635e-07
7.35074e-07
2.6624e-13
-2.07e-07
7.98082e-07
3.81453e-13
-2.05582e-07
8.60686e-07
4.4749e-13
-2.03489e-07
9.22691e-07
4.79395e-13
-2.00809e-07
9.83922e-07
4.90191e-13
-1.9762e-07
1.04423e-06
4.81982e-13
-1.93988e-07
1.10348e-06
4.56634e-13
-1.89974e-07
1.16155e-06
4.20142e-13
-1.85631e-07
1.21835e-06
3.81194e-13
-1.8101e-07
1.2738e-06
3.53896e-13
-1.76156e-07
1.32781e-06
3.51165e-13
-1.71112e-07
1.38034e-06
3.70236e-13
-1.65919e-07
1.43134e-06
3.92215e-13
-1.60612e-07
1.48077e-06
3.97925e-13
-1.55226e-07
1.52861e-06
3.82746e-13
-1.4979e-07
1.57485e-06
3.60389e-13
-1.44334e-07
1.61947e-06
3.5448e-13
-1.38881e-07
1.66247e-06
3.89046e-13
-1.33454e-07
1.70387e-06
4.78745e-13
-1.28073e-07
1.74368e-06
6.15024e-13
-1.22756e-07
1.7819e-06
7.59801e-13
-1.17516e-07
1.81856e-06
8.6141e-13
-1.12368e-07
1.85369e-06
8.81477e-13
-1.07322e-07
1.88731e-06
8.10437e-13
-1.02387e-07
1.91945e-06
6.69515e-13
-9.75695e-08
1.95015e-06
5.02731e-13
-9.28752e-08
1.97943e-06
3.62975e-13
-8.83074e-08
2.00735e-06
2.92413e-13
-8.38687e-08
2.03394e-06
3.08827e-13
-7.95602e-08
2.05922e-06
4.02002e-13
-7.53824e-08
2.08324e-06
5.40346e-13
-7.1335e-08
2.10604e-06
6.83846e-13
-6.74169e-08
2.12764e-06
7.96863e-13
-6.36269e-08
2.14809e-06
8.54747e-13
-5.99629e-08
2.16742e-06
8.42948e-13
-5.64226e-08
2.18566e-06
7.53561e-13
-5.30035e-08
2.20285e-06
5.85365e-13
-4.97025e-08
2.21901e-06
3.47653e-13
-4.65164e-08
2.2342e-06
6.46014e-14
-4.34418e-08
2.24844e-06
-2.25774e-13
-4.04748e-08
2.26175e-06
-4.781e-13
-3.76117e-08
2.27418e-06
-6.49255e-13
-3.48487e-08
2.28575e-06
-7.09526e-13
-3.21821e-08
2.29649e-06
-6.5304e-13
-2.96083e-08
2.30642e-06
-5.03736e-13
-2.7124e-08
2.31558e-06
-3.10168e-13
-2.47261e-08
2.32398e-06
-1.30808e-13
-2.24114e-08
2.33165e-06
-1.53384e-14
-2.01769e-08
2.33862e-06
9.69367e-15
-1.80197e-08
2.3449e-06
-5.15907e-14
-1.59367e-08
2.35051e-06
-1.6669e-13
-1.39249e-08
2.35549e-06
-2.84908e-13
-1.19812e-08
2.35984e-06
-3.54067e-13
-1.01028e-08
2.36359e-06
-3.36488e-13
-8.28658e-09
2.36676e-06
-2.19109e-13
-6.52969e-09
2.36937e-06
-1.58311e-14
-4.82935e-09
2.37143e-06
2.36745e-13
-3.18288e-09
2.37296e-06
4.90514e-13
-1.58776e-09
2.37397e-06
6.98507e-13
-4.17017e-11
2.37448e-06
8.25708e-13
1.45737e-09
2.37451e-06
8.52159e-13
2.91148e-09
2.37405e-06
7.71397e-13
4.32269e-09
2.37314e-06
5.87273e-13
5.69298e-09
2.37177e-06
3.12833e-13
7.02425e-09
2.36995e-06
-2.99864e-14
8.31837e-09
2.36771e-06
-4.09294e-13
9.57721e-09
2.36505e-06
-7.83103e-13
1.08027e-08
2.36198e-06
-1.09945e-12
1.19967e-08
2.35852e-06
-1.30054e-12
1.31611e-08
2.35466e-06
-1.33267e-12
1.42979e-08
2.35042e-06
-1.1599e-12
1.54087e-08
2.34581e-06
-7.77694e-13
1.64953e-08
2.34084e-06
-2.20868e-13
1.7559e-08
2.33551e-06
4.35148e-13
1.86008e-08
2.32983e-06
1.08216e-12
1.96214e-08
2.3238e-06
1.59639e-12
2.06212e-08
2.31744e-06
1.86483e-12
2.16005e-08
2.31074e-06
1.8151e-12
2.25594e-08
2.30372e-06
1.43933e-12
2.34979e-08
2.29638e-06
8.03406e-13
2.44163e-08
2.28872e-06
3.7529e-14
2.53152e-08
2.28076e-06
-6.90718e-13
2.61956e-08
2.2725e-06
-1.21501e-12
2.70586e-08
2.26394e-06
-1.41276e-12
2.79058e-08
2.2551e-06
-1.24196e-12
2.87385e-08
2.24596e-06
-7.59299e-13
2.95578e-08
2.23655e-06
-1.12611e-13
3.03646e-08
2.22686e-06
4.96228e-13
3.1159e-08
2.21689e-06
8.70668e-13
3.19408e-08
2.20666e-06
8.86111e-13
3.27095e-08
2.19616e-06
5.41914e-13
3.34649e-08
2.1854e-06
-2.43937e-14
3.42072e-08
2.17439e-06
-5.77715e-13
3.49376e-08
2.16312e-06
-8.76698e-13
3.56581e-08
2.1516e-06
-7.84081e-13
3.63714e-08
2.13983e-06
-3.41012e-13
3.70803e-08
2.12781e-06
2.42726e-13
3.77874e-08
2.11554e-06
6.94451e-13
3.84947e-08
2.10302e-06
8.30818e-13
3.92029e-08
2.09025e-06
6.7019e-13
3.99122e-08
2.07723e-06
4.27828e-13
4.0622e-08
2.06396e-06
3.8216e-13
4.13317e-08
2.05043e-06
6.85053e-13
4.20411e-08
2.03664e-06
1.2364e-12
4.27511e-08
2.0226e-06
1.71484e-12
4.34638e-08
2.0083e-06
1.76273e-12
4.41823e-08
1.99374e-06
1.21856e-12
4.49104e-08
1.97891e-06
2.48707e-13
4.56518e-08
1.96382e-06
-7.15625e-13
4.64092e-08
1.94845e-06
-1.21226e-12
4.71844e-08
1.9328e-06
-1.0151e-12
4.7978e-08
1.91686e-06
-2.71932e-13
4.87901e-08
1.90063e-06
5.75508e-13
4.96204e-08
1.88411e-06
1.04226e-12
5.04692e-08
1.86728e-06
8.71483e-13
5.13375e-08
1.85015e-06
1.6687e-13
5.22269e-08
1.8327e-06
-6.85431e-13
5.31399e-08
1.81493e-06
-1.24697e-12
5.40786e-08
1.79682e-06
-1.26846e-12
5.5045e-08
1.77838e-06
-8.03062e-13
5.604e-08
1.75958e-06
-1.41203e-13