/*--------------------------------*- C++ -*----------------------------------*\
  =========                 |
  \\      /  F ield         | OpenFOAM: The Open Source CFD Toolbox
   \\    /   O peration     | Website:  https://openfoam.org
    \\  /    A nd           | Version:  8
     \\/     M anipulation  |
\*---------------------------------------------------------------------------*/
FoamFile
{
    version     2.0;
    format      ascii;
    class       volVectorField;
    location    "900";
    object      U;
}
// * * * * * * * * * * * * * * * * * * * * * * * * * * * * * * * * * * * * * //

dimensions      [0 1 -1 0 0 0 0];

internalField   nonuniform List<vector> 
48000
(
(-0.00323682 -3.20206e-06 0.00376887)
(-0.00655758 -1.81499e-06 0.00354324)
(-0.0101351 -1.50382e-06 0.00295382)
(-0.0118377 -2.11991e-06 0.00160153)
(-0.0117735 -2.18781e-06 -0.000705795)
(-0.00991694 -1.89337e-06 -0.00196946)
(-0.00703606 -1.62423e-06 -0.00282786)
(-0.00337356 -1.37693e-06 -0.00342271)
(0.000863884 -1.12258e-06 -0.00382333)
(0.00546109 -8.56475e-07 -0.0040696)
(0.0103101 -6.93132e-07 -0.00421775)
(0.0153332 -6.44482e-07 -0.00430344)
(0.0204629 -6.55835e-07 -0.00434426)
(0.0256537 -6.84701e-07 -0.00435187)
(0.0308693 -6.69593e-07 -0.00433414)
(0.0360807 -5.76984e-07 -0.00429647)
(0.0412644 -4.22636e-07 -0.00424277)
(0.0464008 -2.43152e-07 -0.00417591)
(0.0514729 -8.25077e-08 -0.00409818)
(0.0564664 2.89694e-08 -0.00401143)
(0.0613691 9.03959e-08 -0.00391725)
(0.0661706 1.16057e-07 -0.00381696)
(0.070862 1.20808e-07 -0.00371167)
(0.075436 1.17975e-07 -0.00360226)
(0.0798864 1.16612e-07 -0.00348954)
(0.0842082 1.16848e-07 -0.00337424)
(0.0883971 1.17053e-07 -0.00325708)
(0.0924498 1.21172e-07 -0.00313875)
(0.096364 1.33599e-07 -0.00301988)
(0.100138 1.50305e-07 -0.00290104)
(0.103771 1.60851e-07 -0.00278275)
(0.107263 1.59389e-07 -0.00266544)
(0.110615 1.50137e-07 -0.00254949)
(0.113828 1.44616e-07 -0.00243523)
(0.116904 1.56822e-07 -0.00232296)
(0.119843 1.97529e-07 -0.00221295)
(0.12265 2.6499e-07 -0.00210543)
(0.125326 3.3952e-07 -0.00200062)
(0.127873 3.89167e-07 -0.0018987)
(0.130296 3.859e-07 -0.00179982)
(0.132597 3.19829e-07 -0.00170406)
(0.134781 2.03753e-07 -0.0016115)
(0.13685 6.80248e-08 -0.00152211)
(0.138808 -4.94403e-08 -0.00143587)
(0.140661 -1.14563e-07 -0.0013527)
(0.14241 -1.07444e-07 -0.00127248)
(0.14406 -2.90031e-08 -0.00119508)
(0.145614 1.00306e-07 -0.00112041)
(0.147074 2.48716e-07 -0.00104837)
(0.148445 3.83135e-07 -0.000978947)
(0.149728 4.76279e-07 -0.000912124)
(0.150926 5.09577e-07 -0.000847916)
(0.152043 4.7388e-07 -0.000786328)
(0.153081 3.69527e-07 -0.000727329)
(0.154044 2.06916e-07 -0.000670844)
(0.154935 6.72379e-09 -0.000616752)
(0.155758 -2.01711e-07 -0.0005649)
(0.156514 -3.84424e-07 -0.000515123)
(0.157207 -5.09568e-07 -0.000467268)
(0.157839 -5.55057e-07 -0.000421204)
(0.158412 -5.14902e-07 -0.000376827)
(0.158929 -4.02394e-07 -0.00033406)
(0.159391 -2.48087e-07 -0.000292846)
(0.159799 -9.26262e-08 -0.000253147)
(0.160155 2.42826e-08 -0.000214934)
(0.160462 7.53491e-08 -0.000178187)
(0.160721 5.3625e-08 -0.000142889)
(0.160933 -2.63993e-08 -0.000109019)
(0.161101 -1.34437e-07 -7.65464e-05)
(0.161227 -2.34061e-07 -4.54218e-05)
(0.161312 -2.93747e-07 -1.55765e-05)
(0.161358 -2.94672e-07 1.30993e-05)
(0.161367 -2.34499e-07 4.07391e-05)
(0.16134 -1.25658e-07 6.74197e-05)
(0.161278 1.01501e-08 9.32099e-05)
(0.161184 1.4919e-07 0.000118202)
(0.161056 2.71155e-07 0.000142455)
(0.160897 3.61364e-07 0.000165997)
(0.160708 4.10184e-07 0.000188833)
(0.160488 4.10934e-07 0.000210953)
(0.160239 3.58893e-07 0.000232351)
(0.159962 2.51437e-07 0.000253027)
(0.159657 9.05398e-08 0.000272999)
(0.159325 -1.14548e-07 0.000292301)
(0.158966 -3.44821e-07 0.000310984)
(0.158582 -5.71542e-07 0.00032911)
(0.158174 -7.59273e-07 0.000346749)
(0.157742 -8.71673e-07 0.000363971)
(0.157287 -8.79893e-07 0.000380845)
(0.156809 -7.70614e-07 0.000397426)
(0.156309 -5.5193e-07 0.000413761)
(0.155788 -2.5457e-07 0.000429874)
(0.155245 7.27372e-08 0.000445766)
(0.154682 3.72324e-07 0.000461415)
(0.154098 5.89333e-07 0.000476772)
(0.153493 6.83341e-07 0.000491776)
(0.152869 6.36984e-07 0.000506358)
(0.152224 4.59887e-07 0.000520464)
(0.151561 1.87244e-07 0.000534067)
(0.150879 -1.2739e-07 0.000547182)
(0.150178 -4.2333e-07 0.00055987)
(0.14946 -6.46449e-07 0.000572232)
(0.148724 -7.61778e-07 0.000584377)
(0.147972 -7.62143e-07 0.000596394)
(0.147204 -6.6938e-07 0.00060832)
(0.14642 -5.27172e-07 0.000620128)
(0.145622 -3.86643e-07 0.000631746)
(0.144809 -2.89738e-07 0.000643106)
(0.143981 -2.56942e-07 0.000654191)
(0.143139 -2.8384e-07 0.000665071)
(0.142282 -3.47726e-07 0.000675878)
(0.141411 -4.1918e-07 0.000686753)
(0.140524 -4.73045e-07 0.000697767)
(0.139623 -4.93284e-07 0.000708888)
(0.138707 -4.71099e-07 0.000720013)
(0.137776 -4.00228e-07 0.000731053)
(0.13683 -2.73972e-07 0.000742021)
(0.135869 -8.82212e-08 0.000753047)
(0.134893 1.50861e-07 0.00076432)
(0.133901 4.18125e-07 0.000775963)
(0.132893 6.67502e-07 0.000787934)
(0.131868 8.40888e-07 0.000800032)
(0.130826 8.86704e-07 0.000812012)
(0.129766 7.82196e-07 0.000823744)
(0.128688 5.49148e-07 0.000835334)
(0.127594 2.53866e-07 0.000847097)
(0.126482 -1.15511e-08 0.000859402)
(0.125352 -1.61933e-07 0.000872471)
(0.124205 -1.53169e-07 0.000886258)
(0.123041 -4.29074e-09 0.000900494)
(0.121857 2.05503e-07 0.000914867)
(0.120655 3.66751e-07 0.000929228)
(0.119433 3.87081e-07 0.000943688)
(0.118191 2.3491e-07 0.000958557)
(0.116929 -4.19976e-08 0.000974154)
(0.115646 -3.36712e-07 0.000990633)
(0.114342 -5.33549e-07 0.00100792)
(0.113016 -5.63443e-07 0.00102578)
(0.111667 -4.3394e-07 0.00104403)
(0.110295 -2.17975e-07 0.00106262)
(0.108898 -1.09496e-08 0.00108168)
(0.107476 1.17845e-07 0.00110143)
(0.106028 1.50698e-07 0.00112205)
(0.104553 1.15043e-07 0.00114354)
(0.10305 5.40893e-08 0.00116581)
(0.101517 -2.53561e-09 0.00118869)
(0.0999539 -5.40475e-08 0.00121212)
(0.0983599 -1.22128e-07 0.00123617)
(0.0967344 -2.30452e-07 0.00126102)
(0.0950768 -3.80838e-07 0.00128685)
(0.0933867 -5.41251e-07 0.00131377)
(0.091663 -6.55065e-07 0.00134181)
(0.0899048 -6.70385e-07 0.00137088)
(0.0881108 -5.71808e-07 0.00140092)
(0.0862794 -3.9299e-07 0.00143192)
(0.0844093 -1.99088e-07 0.00146397)
(0.0824988 -5.12529e-08 0.00149721)
(0.0805466 2.25693e-08 0.00153178)
(0.078551 3.39072e-08 0.00156779)
(0.0765102 1.86783e-08 0.00160522)
(0.0744226 1.29674e-08 0.00164406)
(0.0722864 3.20949e-08 0.00168429)
(0.0700998 6.08776e-08 0.00172598)
(0.0678614 6.01314e-08 0.0017693)
(0.0655696 -9.6323e-09 0.00181443)
(0.0632229 -1.60003e-07 0.00186156)
(0.0608197 -3.62152e-07 0.00191078)
(0.0583584 -5.59701e-07 0.00196207)
(0.0558372 -6.95939e-07 0.00201532)
(0.0532545 -7.35123e-07 0.00207039)
(0.0506084 -6.71823e-07 0.00212715)
(0.0478974 -5.31382e-07 0.00218552)
(0.0451204 -3.61047e-07 0.00224544)
(0.0422762 -2.06382e-07 0.00230678)
(0.0393643 -8.75207e-08 0.00236929)
(0.0363845 7.0053e-10 0.00243251)
(0.0333374 7.01673e-08 0.00249576)
(0.0302246 1.30908e-07 0.00255811)
(0.0270489 1.93027e-07 0.00261844)
(0.0238146 2.5829e-07 0.00267533)
(0.0205282 3.12338e-07 0.00272703)
(0.0171985 3.39339e-07 0.00277137)
(0.0138372 3.35547e-07 0.00280566)
(0.0104597 3.04609e-07 0.00282647)
(0.00708516 2.57658e-07 0.00282928)
(0.00374374 2.17028e-07 0.00280807)
(0.000459566 1.94793e-07 0.00274853)
(-0.00272288 1.88945e-07 0.00263181)
(-0.00573024 2.12885e-07 0.00245394)
(-0.0085122 2.77791e-07 0.00221148)
(-0.0109782 3.42331e-07 0.00188624)
(-0.0130224 3.64385e-07 0.00144784)
(-0.0144961 3.87467e-07 0.000854598)
(-0.0152765 4.77151e-07 6.11557e-05)
(-0.0151215 5.88225e-07 -0.00101203)
(-0.0137832 6.25768e-07 -0.00205778)
(-0.0116581 5.25541e-07 -0.0025432)
(-0.00821019 1.60299e-07 -0.00316079)
(-0.00454672 -3.40947e-08 -0.0030569)
(-0.00205889 -1.15459e-07 -0.00208093)
(-0.00323777 -3.20081e-06 0.00376719)
(-0.0065585 -1.81543e-06 0.0035423)
(-0.0101354 -1.50414e-06 0.00295291)
(-0.0118382 -2.12032e-06 0.00159992)
(-0.0117731 -2.18795e-06 -0.000707093)
(-0.00991628 -1.89334e-06 -0.00197056)
(-0.0070351 -1.62417e-06 -0.00282876)
(-0.00337244 -1.37688e-06 -0.00342341)
(0.000865117 -1.12253e-06 -0.00382388)
(0.00546228 -8.56438e-07 -0.00407006)
(0.0103111 -6.93105e-07 -0.00421814)
(0.015334 -6.44458e-07 -0.00430382)
(0.0204635 -6.55813e-07 -0.0043447)
(0.025654 -6.84681e-07 -0.00435236)
(0.0308693 -6.69575e-07 -0.00433461)
(0.0360807 -5.7697e-07 -0.00429687)
(0.0412645 -4.22626e-07 -0.00424304)
(0.0464009 -2.43147e-07 -0.00417604)
(0.0514732 -8.2506e-08 -0.00409819)
(0.0564667 2.89688e-08 -0.00401141)
(0.0613693 9.03942e-08 -0.00391727)
(0.0661707 1.16055e-07 -0.00381704)
(0.070862 1.20806e-07 -0.00371178)
(0.075436 1.17973e-07 -0.00360238)
(0.0798865 1.1661e-07 -0.00348965)
(0.0842082 1.16846e-07 -0.00337436)
(0.088397 1.17051e-07 -0.00325724)
(0.0924495 1.21171e-07 -0.00313895)
(0.0963635 1.33597e-07 -0.00302013)
(0.100137 1.50303e-07 -0.00290132)
(0.10377 1.60849e-07 -0.00278302)
(0.107263 1.59387e-07 -0.00266567)
(0.110615 1.50135e-07 -0.00254966)
(0.113828 1.44615e-07 -0.00243534)
(0.116903 1.56821e-07 -0.00232302)
(0.119843 1.97527e-07 -0.00221298)
(0.12265 2.64987e-07 -0.00210545)
(0.125326 3.39517e-07 -0.00200065)
(0.127873 3.89164e-07 -0.00189875)
(0.130296 3.85897e-07 -0.00179989)
(0.132597 3.19826e-07 -0.00170415)
(0.13478 2.03752e-07 -0.00161159)
(0.136849 6.80243e-08 -0.0015222)
(0.138808 -4.94399e-08 -0.00143594)
(0.14066 -1.14563e-07 -0.00135271)
(0.142409 -1.07443e-07 -0.00127242)
(0.14406 -2.90029e-08 -0.00119495)
(0.145614 1.00305e-07 -0.00112022)
(0.147074 2.48715e-07 -0.00104816)
(0.148445 3.83132e-07 -0.000978769)
(0.149728 4.76276e-07 -0.000912029)
(0.150926 5.09574e-07 -0.00084794)
(0.152043 4.73877e-07 -0.000786481)
(0.153081 3.69525e-07 -0.000727595)
(0.154044 2.06915e-07 -0.000671185)
(0.154935 6.72375e-09 -0.000617124)
(0.155757 -2.0171e-07 -0.000565266)
(0.156513 -3.84422e-07 -0.000515464)
(0.157206 -5.09566e-07 -0.00046758)
(0.157838 -5.55054e-07 -0.000421493)
(0.158412 -5.149e-07 -0.0003771)
(0.158929 -4.02393e-07 -0.000334321)
(0.15939 -2.48086e-07 -0.000293093)
(0.159799 -9.26258e-08 -0.000253374)
(0.160155 2.42825e-08 -0.000215139)
(0.160462 7.53487e-08 -0.000178371)
(0.160721 5.36247e-08 -0.000143057)
(0.160933 -2.63992e-08 -0.000109177)
(0.161101 -1.34437e-07 -7.66931e-05)
(0.161226 -2.3406e-07 -4.55439e-05)
(0.161311 -2.93746e-07 -1.56479e-05)
(0.161358 -2.94671e-07 1.31124e-05)
(0.161367 -2.34498e-07 4.0868e-05)
(0.16134 -1.25657e-07 6.76821e-05)
(0.161279 1.01501e-08 9.3601e-05)
(0.161184 1.4919e-07 0.000118691)
(0.161057 2.71154e-07 0.000142992)
(0.160898 3.61362e-07 0.000166518)
(0.160708 4.10182e-07 0.000189273)
(0.160488 4.10932e-07 0.000211262)
(0.160239 3.58892e-07 0.000232498)
(0.159961 2.51437e-07 0.000253006)
(0.159656 9.05396e-08 0.000272828)
(0.159324 -1.14548e-07 0.000292018)
(0.158966 -3.4482e-07 0.000310638)
(0.158582 -5.7154e-07 0.000328756)
(0.158174 -7.5927e-07 0.000346441)
(0.157742 -8.71671e-07 0.000363757)
(0.157287 -8.79891e-07 0.000380759)
(0.156809 -7.70612e-07 0.000397492)
(0.156309 -5.51929e-07 0.000413979)
(0.155788 -2.5457e-07 0.000430223)
(0.155245 7.2737e-08 0.0004462)
(0.154682 3.72324e-07 0.000461867)
(0.154097 5.89331e-07 0.000477166)
(0.153493 6.83339e-07 0.000492041)
(0.152868 6.36982e-07 0.000506448)
(0.152224 4.59886e-07 0.00052037)
(0.151561 1.87243e-07 0.000533829)
(0.150878 -1.2739e-07 0.000546884)
(0.150178 -4.23329e-07 0.000559623)
(0.149459 -6.46447e-07 0.000572142)
(0.148724 -7.61776e-07 0.000584518)
(0.147972 -7.62141e-07 0.000596788)
(0.147204 -6.69378e-07 0.000608931)
(0.14642 -5.27171e-07 0.000620877)
(0.145622 -3.86642e-07 0.000632539)
(0.144809 -2.89737e-07 0.000643858)
(0.143981 -2.56942e-07 0.00065484)
(0.143139 -2.8384e-07 0.000665577)
(0.142282 -3.47725e-07 0.000676221)
(0.14141 -4.19179e-07 0.000686934)
(0.140524 -4.73044e-07 0.000697825)
(0.139623 -4.93283e-07 0.000708925)
(0.138707 -4.71098e-07 0.000720186)
(0.137777 -4.00227e-07 0.000731525)
(0.136831 -2.73972e-07 0.000742868)
(0.13587 -8.8221e-08 0.000754182)
(0.134893 1.50861e-07 0.000765473)
(0.133901 4.18125e-07 0.000776771)
(0.132892 6.67502e-07 0.000788108)
(0.131867 8.40886e-07 0.000799519)
(0.130825 8.86702e-07 0.000811047)
(0.129766 7.82193e-07 0.00082276)
(0.128689 5.49146e-07 0.000834747)
(0.127594 2.53865e-07 0.000847093)
(0.126482 -1.15511e-08 0.000859843)
(0.125352 -1.61933e-07 0.000872978)
(0.124205 -1.53168e-07 0.000886429)
(0.12304 -4.29074e-09 0.000900131)
(0.121856 2.05503e-07 0.000914077)
(0.120654 3.6675e-07 0.000928344)
(0.119433 3.8708e-07 0.000943067)
(0.118191 2.34909e-07 0.000958368)
(0.116929 -4.19975e-08 0.0009743)
(0.115646 -3.36711e-07 0.00099083)
(0.114342 -5.33548e-07 0.00100788)
(0.113015 -5.63443e-07 0.00102541)
(0.111667 -4.3394e-07 0.00104344)
(0.110294 -2.17975e-07 0.00106206)
(0.108898 -1.09496e-08 0.00108138)
(0.107476 1.17845e-07 0.00110147)
(0.106028 1.50697e-07 0.00112228)
(0.104553 1.15043e-07 0.00114375)
(0.10305 5.40892e-08 0.00116582)
(0.101517 -2.53561e-09 0.0011885)
(0.0999535 -5.40473e-08 0.00121186)
(0.0983596 -1.22128e-07 0.00123605)
(0.0967344 -2.30451e-07 0.00126117)
(0.0950772 -3.80836e-07 0.00128727)
(0.0933872 -5.4125e-07 0.00131436)
(0.0916635 -6.55063e-07 0.00134239)
(0.0899052 -6.70384e-07 0.00137136)
(0.0881109 -5.71807e-07 0.00140128)
(0.0862793 -3.92989e-07 0.00143223)
(0.0844091 -1.99087e-07 0.0014643)
(0.0824987 -5.12529e-08 0.00149761)
(0.0805466 2.25692e-08 0.00153222)
(0.0785509 3.39071e-08 0.00156817)
(0.0765101 1.86782e-08 0.00160548)
(0.0744223 1.29674e-08 0.00164418)
(0.0722859 3.20949e-08 0.00168433)
(0.0700994 6.08775e-08 0.00172607)
(0.0678612 6.01313e-08 0.00176955)
(0.0655697 -9.63227e-09 0.0018149)
(0.0632233 -1.60002e-07 0.00186222)
(0.0608203 -3.6215e-07 0.00191154)
(0.0583589 -5.597e-07 0.00196282)
(0.0558375 -6.95938e-07 0.00201597)
(0.0532544 -7.35122e-07 0.00207093)
(0.0506081 -6.71823e-07 0.00212764)
(0.0478972 -5.31382e-07 0.00218606)
(0.0451203 -3.61047e-07 0.0022461)
(0.0422764 -2.06382e-07 0.0023076)
(0.0393647 -8.75204e-08 0.00237022)
(0.0363851 7.00528e-10 0.00243346)
(0.033338 7.01671e-08 0.00249664)
(0.030225 1.30908e-07 0.00255885)
(0.027049 1.93026e-07 0.002619)
(0.0238146 2.5829e-07 0.00267575)
(0.020528 3.12337e-07 0.00272738)
(0.0171983 3.39338e-07 0.00277173)
(0.013837 3.35546e-07 0.00280606)
(0.0104597 3.04608e-07 0.00282691)
(0.00708521 2.57657e-07 0.00282974)
(0.00374389 2.17027e-07 0.00280857)
(0.00045982 1.94793e-07 0.00274905)
(-0.00272254 1.88945e-07 0.00263232)
(-0.00572977 2.12885e-07 0.00245445)
(-0.00851162 2.7779e-07 0.00221199)
(-0.0109776 3.4233e-07 0.00188678)
(-0.0130218 3.64379e-07 0.00144841)
(-0.0144955 3.87441e-07 0.000855118)
(-0.0152757 4.77062e-07 6.15207e-05)
(-0.0151207 5.88056e-07 -0.00101193)
(-0.0137826 6.25408e-07 -0.00205826)
(-0.011658 5.25254e-07 -0.00254418)
(-0.00821009 1.603e-07 -0.00316085)
(-0.00454642 -3.41004e-08 -0.00305622)
(-0.00205911 -1.15411e-07 -0.00208086)
(-0.00280789 -2.27999e-06 0.00739688)
(-0.00449509 -1.17858e-06 0.00570976)
(-0.0052331 -7.23984e-07 0.0032022)
(-0.00428298 -5.01056e-07 0.000464746)
(-0.00262601 -3.54779e-07 -0.00212035)
(-0.000353511 -2.71482e-07 -0.00417767)
(0.00251549 -1.86719e-07 -0.00570385)
(0.00587353 -1.11767e-07 -0.00680918)
(0.00962004 -5.69946e-08 -0.00759648)
(0.0136661 -2.27075e-08 -0.00814482)
(0.0179418 -1.20224e-08 -0.0085223)
(0.0223875 -2.37149e-08 -0.00877535)
(0.0269541 -4.2076e-08 -0.00893442)
(0.0316023 -4.7275e-08 -0.00902097)
(0.0362994 -3.35211e-08 -0.00905002)
(0.0410185 -4.61029e-09 -0.00903244)
(0.0457366 3.39045e-08 -0.00897629)
(0.0504341 7.17148e-08 -0.00888776)
(0.0550941 9.81488e-08 -0.00877174)
(0.0597019 1.10568e-07 -0.00863219)
(0.0642448 1.12454e-07 -0.00847247)
(0.0687118 1.0814e-07 -0.00829544)
(0.0730933 1.01723e-07 -0.00810361)
(0.0773811 9.61719e-08 -0.00789922)
(0.0815683 9.16905e-08 -0.00768433)
(0.0856489 8.7352e-08 -0.00746083)
(0.0896179 8.44497e-08 -0.00723047)
(0.0934713 8.54681e-08 -0.00699486)
(0.097206 9.04012e-08 -0.00675553)
(0.10082 9.61044e-08 -0.00651386)
(0.104311 9.937e-08 -0.00627112)
(0.107679 9.94574e-08 -0.00602846)
(0.110923 9.81086e-08 -0.00578693)
(0.114044 9.86253e-08 -0.00554745)
(0.117043 1.04863e-07 -0.00531081)
(0.11992 1.1864e-07 -0.00507772)
(0.122677 1.37043e-07 -0.00484879)
(0.125316 1.52634e-07 -0.00462452)
(0.127839 1.57506e-07 -0.00440535)
(0.130249 1.47833e-07 -0.00419162)
(0.132548 1.25669e-07 -0.00398359)
(0.134738 9.78156e-08 -0.00378142)
(0.136823 7.34148e-08 -0.00358522)
(0.138805 6.10126e-08 -0.00339505)
(0.140688 6.55898e-08 -0.00321088)
(0.142475 8.67362e-08 -0.00303271)
(0.144167 1.18809e-07 -0.00286045)
(0.14577 1.53263e-07 -0.00269403)
(0.147284 1.81622e-07 -0.00253337)
(0.148713 1.97525e-07 -0.00237836)
(0.150059 1.97427e-07 -0.0022289)
(0.151326 1.80288e-07 -0.00208486)
(0.152516 1.4704e-07 -0.00194611)
(0.153631 1.00434e-07 -0.00181252)
(0.154674 4.51379e-08 -0.00168391)
(0.155648 -1.22925e-08 -0.0015601)
(0.156556 -6.40797e-08 -0.00144089)
(0.157399 -1.02633e-07 -0.00132608)
(0.158179 -1.22351e-07 -0.00121547)
(0.1589 -1.21349e-07 -0.00110887)
(0.159564 -1.02383e-07 -0.00100613)
(0.160171 -7.27678e-08 -0.000907092)
(0.160724 -4.26439e-08 -0.000811635)
(0.161225 -2.21391e-08 -0.000719634)
(0.161675 -1.82129e-08 -0.000630975)
(0.162077 -3.23111e-08 -0.000545537)
(0.162431 -5.98565e-08 -0.000463198)
(0.16274 -9.17136e-08 -0.000383831)
(0.163005 -1.16961e-07 -0.000307302)
(0.163228 -1.26158e-07 -0.000233478)
(0.163409 -1.13806e-07 -0.000162222)
(0.163551 -7.96246e-08 -9.3399e-05)
(0.163654 -2.82992e-08 -2.68799e-05)
(0.16372 3.20808e-08 3.74572e-05)
(0.16375 9.24427e-08 9.97099e-05)
(0.163745 1.4472e-07 0.000159968)
(0.163707 1.82971e-07 0.000218324)
(0.163635 2.03367e-07 0.000274861)
(0.163531 2.03649e-07 0.000329654)
(0.163397 1.82684e-07 0.000382771)
(0.163231 1.40601e-07 0.000434283)
(0.163036 7.92391e-08 0.000484262)
(0.162812 2.943e-09 0.000532789)
(0.16256 -8.08391e-08 0.000579954)
(0.162281 -1.61514e-07 0.000625856)
(0.161975 -2.26339e-07 0.000670602)
(0.161643 -2.62479e-07 0.000714298)
(0.161286 -2.59844e-07 0.000757044)
(0.160904 -2.13875e-07 0.000798921)
(0.160497 -1.27708e-07 0.000839988)
(0.160067 -1.27438e-08 0.000880271)
(0.159614 1.1264e-07 0.000919766)
(0.159138 2.26158e-07 0.000958439)
(0.158639 3.06119e-07 0.000996246)
(0.158119 3.36132e-07 0.00103314)
(0.157577 3.09074e-07 0.00106911)
(0.157014 2.2919e-07 0.00110415)
(0.15643 1.1183e-07 0.00113833)
(0.155826 -1.91704e-08 0.00117174)
(0.155202 -1.36466e-07 0.0012045)
(0.154558 -2.15244e-07 0.0012367)
(0.153896 -2.39578e-07 0.00126844)
(0.153214 -2.07026e-07 0.00129972)
(0.152514 -1.3015e-07 0.00133053)
(0.151796 -3.35551e-08 0.00136081)
(0.15106 5.32985e-08 0.0013905)
(0.150307 1.05869e-07 0.00141958)
(0.149537 1.13389e-07 0.0014481)
(0.14875 8.28359e-08 0.00147613)
(0.147946 3.55843e-08 0.0015038)
(0.147126 -2.73454e-09 0.00153119)
(0.146289 -1.4437e-08 0.00155835)
(0.145435 2.14824e-09 0.00158534)
(0.144565 3.36798e-08 0.00161221)
(0.143679 6.18466e-08 0.00163908)
(0.142776 7.65502e-08 0.00166608)
(0.141856 8.3722e-08 0.00169329)
(0.140921 1.01664e-07 0.00172074)
(0.139969 1.46876e-07 0.00174833)
(0.139 2.18076e-07 0.00177591)
(0.138015 2.89724e-07 0.00180339)
(0.137012 3.21701e-07 0.00183084)
(0.135992 2.81492e-07 0.00185846)
(0.134954 1.66316e-07 0.00188659)
(0.133899 1.05984e-08 0.00191552)
(0.132825 -1.27438e-07 0.00194542)
(0.131734 -1.94238e-07 0.00197629)
(0.130624 -1.68607e-07 0.002008)
(0.129495 -7.27248e-08 0.00204038)
(0.128346 3.95229e-08 0.00207335)
(0.127177 1.10461e-07 0.00210697)
(0.125988 1.06986e-07 0.00214143)
(0.124778 3.482e-08 0.00217694)
(0.123547 -6.77003e-08 0.00221366)
(0.122294 -1.51354e-07 0.00225163)
(0.121018 -1.80759e-07 0.00229081)
(0.119719 -1.49396e-07 0.00233113)
(0.118396 -7.85565e-08 0.00237258)
(0.117048 -2.53181e-09 0.00241521)
(0.115675 5.01337e-08 0.00245914)
(0.114277 6.8891e-08 0.00250442)
(0.112852 6.13212e-08 0.00255107)
(0.111399 4.34938e-08 0.00259907)
(0.109919 2.81973e-08 0.00264839)
(0.10841 1.83347e-08 0.00269906)
(0.106871 8.22458e-09 0.00275118)
(0.105301 -1.00606e-08 0.00280489)
(0.1037 -3.99227e-08 0.00286034)
(0.102068 -7.66453e-08 0.00291761)
(0.100402 -1.08124e-07 0.00297674)
(0.0987022 -1.19943e-07 0.0030377)
(0.0969678 -1.02828e-07 0.0031005)
(0.0951975 -5.86285e-08 0.00316515)
(0.0933903 -6.71024e-10 0.00323173)
(0.091545 5.28368e-08 0.00330034)
(0.0896605 8.81708e-08 0.0033711)
(0.0877359 1.02033e-07 0.0034441)
(0.08577 1.00584e-07 0.00351945)
(0.0837615 9.35485e-08 0.00359724)
(0.0817091 8.83183e-08 0.00367755)
(0.0796116 8.65594e-08 0.00376052)
(0.0774675 8.39857e-08 0.00384629)
(0.0752757 7.29047e-08 0.00393502)
(0.0730349 4.70974e-08 0.00402684)
(0.0707439 7.17473e-09 0.00412183)
(0.0684013 -3.75945e-08 0.00422001)
(0.0660059 -7.34454e-08 0.00432134)
(0.0635563 -8.89903e-08 0.0044257)
(0.0610515 -7.97044e-08 0.00453294)
(0.0584903 -4.82224e-08 0.00464286)
(0.055872 -3.12574e-09 0.00475519)
(0.0531961 4.30503e-08 0.00486955)
(0.0504624 7.90477e-08 0.00498539)
(0.047671 1.00846e-07 0.00510198)
(0.0448228 1.11657e-07 0.00521836)
(0.0419189 1.15896e-07 0.00533328)
(0.0389614 1.1665e-07 0.0054452)
(0.0359533 1.16979e-07 0.00555219)
(0.0328987 1.17507e-07 0.00565188)
(0.0298032 1.13254e-07 0.00574134)
(0.0266742 1.00273e-07 0.00581694)
(0.0235211 8.16862e-08 0.00587422)
(0.0203557 6.10072e-08 0.00590763)
(0.0171927 3.76365e-08 0.00591033)
(0.0140504 1.52632e-08 0.00587358)
(0.0109515 1.06984e-09 0.00578662)
(0.0079228 -6.70455e-09 0.00563382)
(0.004996 -1.33653e-08 0.00539503)
(0.00221017 -1.513e-08 0.00505321)
(-0.000392432 -6.30669e-09 0.00458687)
(-0.00275299 1.07574e-08 0.00396502)
(-0.00481157 2.61579e-08 0.00314942)
(-0.00650041 2.89322e-08 0.0020983)
(-0.0077642 2.26399e-08 0.000784966)
(-0.00860446 3.43559e-08 -0.000736978)
(-0.00895885 6.1415e-08 -0.0022933)
(-0.0085879 5.96396e-08 -0.00378301)
(-0.00730586 -1.24041e-08 -0.00505214)
(-0.0050475 -4.66455e-08 -0.00569843)
(-0.00257878 -5.22901e-07 -0.00561096)
(-0.00280753 -2.28145e-06 0.00739463)
(-0.00449493 -1.18043e-06 0.0057077)
(-0.00523297 -7.23983e-07 0.00320077)
(-0.00428268 -5.00893e-07 0.00046342)
(-0.00262573 -3.54729e-07 -0.00212171)
(-0.000353166 -2.71461e-07 -0.00417893)
(0.00251588 -1.86706e-07 -0.00570496)
(0.0058739 -1.1176e-07 -0.00681014)
(0.00962038 -5.6991e-08 -0.00759735)
(0.0136664 -2.27062e-08 -0.00814562)
(0.0179421 -1.20217e-08 -0.00852306)
(0.0223876 -2.37137e-08 -0.00877609)
(0.0269541 -4.2074e-08 -0.00893514)
(0.0316022 -4.7273e-08 -0.00902167)
(0.0362992 -3.35197e-08 -0.00905069)
(0.0410183 -4.61011e-09 -0.00903307)
(0.0457364 3.39032e-08 -0.00897687)
(0.0504339 7.17122e-08 -0.00888829)
(0.0550939 9.81455e-08 -0.00877221)
(0.0597018 1.10564e-07 -0.00863264)
(0.0642447 1.12451e-07 -0.00847289)
(0.0687116 1.08137e-07 -0.00829584)
(0.0730931 1.0172e-07 -0.00810398)
(0.077381 9.61693e-08 -0.00789956)
(0.0815682 9.16882e-08 -0.00768463)
(0.0856487 8.73498e-08 -0.0074611)
(0.0896176 8.44478e-08 -0.00723072)
(0.093471 8.54662e-08 -0.0069951)
(0.0972056 9.03993e-08 -0.00675575)
(0.100819 9.61024e-08 -0.00651406)
(0.104311 9.9368e-08 -0.0062713)
(0.107678 9.94555e-08 -0.00602863)
(0.110923 9.81068e-08 -0.00578708)
(0.114044 9.86236e-08 -0.00554757)
(0.117042 1.04862e-07 -0.00531092)
(0.11992 1.18638e-07 -0.00507781)
(0.122677 1.37041e-07 -0.00484886)
(0.125316 1.52632e-07 -0.00462459)
(0.127839 1.57504e-07 -0.00440542)
(0.130249 1.47831e-07 -0.00419169)
(0.132547 1.25667e-07 -0.00398366)
(0.134738 9.78143e-08 -0.00378149)
(0.136823 7.34139e-08 -0.0035853)
(0.138805 6.10118e-08 -0.00339511)
(0.140688 6.5589e-08 -0.00321094)
(0.142474 8.67352e-08 -0.00303275)
(0.144167 1.18807e-07 -0.00286047)
(0.145769 1.53261e-07 -0.00269405)
(0.147284 1.8162e-07 -0.00253339)
(0.148713 1.97523e-07 -0.00237839)
(0.150059 1.97425e-07 -0.00222895)
(0.151326 1.80286e-07 -0.00208494)
(0.152515 1.47038e-07 -0.00194623)
(0.153631 1.00433e-07 -0.00181266)
(0.154674 4.51375e-08 -0.00168407)
(0.155648 -1.22924e-08 -0.00156026)
(0.156555 -6.40791e-08 -0.00144104)
(0.157398 -1.02632e-07 -0.0013262)
(0.158179 -1.2235e-07 -0.00121557)
(0.1589 -1.21348e-07 -0.00110895)
(0.159563 -1.02383e-07 -0.0010062)
(0.160171 -7.27672e-08 -0.000907152)
(0.160724 -4.26436e-08 -0.000811689)
(0.161225 -2.21389e-08 -0.000719683)
(0.161675 -1.82127e-08 -0.000631016)
(0.162077 -3.23108e-08 -0.000545568)
(0.162431 -5.9856e-08 -0.000463218)
(0.16274 -9.17129e-08 -0.000383838)
(0.163005 -1.1696e-07 -0.000307296)
(0.163228 -1.26157e-07 -0.000233457)
(0.163409 -1.13805e-07 -0.000162183)
(0.16355 -7.96241e-08 -9.33383e-05)
(0.163654 -2.8299e-08 -2.67945e-05)
(0.16372 3.20806e-08 3.75677e-05)
(0.16375 9.2442e-08 9.98417e-05)
(0.163745 1.44719e-07 0.000160111)
(0.163707 1.8297e-07 0.000218465)
(0.163635 2.03365e-07 0.000274983)
(0.163531 2.03648e-07 0.000329738)
(0.163396 1.82683e-07 0.000382806)
(0.163231 1.406e-07 0.000434261)
(0.163036 7.92386e-08 0.000484186)
(0.162812 2.94298e-09 0.000532671)
(0.16256 -8.08386e-08 0.000579812)
(0.16228 -1.61513e-07 0.000625713)
(0.161975 -2.26338e-07 0.000670478)
(0.161643 -2.62477e-07 0.00071421)
(0.161286 -2.59843e-07 0.000757003)
(0.160904 -2.13874e-07 0.00079893)
(0.160497 -1.27707e-07 0.000840041)
(0.160067 -1.27437e-08 0.000880355)
(0.159614 1.12639e-07 0.00091986)
(0.159138 2.26157e-07 0.000958523)
(0.158639 3.06117e-07 0.0009963)
(0.158119 3.36131e-07 0.00103315)
(0.157577 3.09073e-07 0.00106907)
(0.157014 2.29189e-07 0.00110408)
(0.15643 1.11829e-07 0.00113825)
(0.155826 -1.91703e-08 0.00117167)
(0.155202 -1.36465e-07 0.00120446)
(0.154558 -2.15243e-07 0.00123671)
(0.153895 -2.39577e-07 0.0012685)
(0.153214 -2.07025e-07 0.00129984)
(0.152514 -1.3015e-07 0.00133068)
(0.151796 -3.35549e-08 0.00136098)
(0.15106 5.32982e-08 0.00139067)
(0.150307 1.05868e-07 0.00141974)
(0.149537 1.13388e-07 0.00144824)
(0.14875 8.28356e-08 0.00147622)
(0.147946 3.55842e-08 0.0015038)
(0.147126 -2.73453e-09 0.00153108)
(0.146289 -1.4437e-08 0.00155816)
(0.145435 2.14823e-09 0.00158514)
(0.144565 3.36796e-08 0.00161213)
(0.143679 6.18464e-08 0.00163923)
(0.142776 7.65499e-08 0.00166649)
(0.141857 8.37217e-08 0.0016939)
(0.140921 1.01663e-07 0.00172134)
(0.139969 1.46876e-07 0.00174869)
(0.139 2.18076e-07 0.0017759)
(0.138014 2.89723e-07 0.00180302)
(0.137012 3.217e-07 0.00183028)
(0.135992 2.81491e-07 0.00185797)
(0.134954 1.66315e-07 0.00188638)
(0.133899 1.05983e-08 0.00191563)
(0.132826 -1.27437e-07 0.00194575)
(0.131734 -1.94238e-07 0.00197661)
(0.130624 -1.68607e-07 0.00200811)
(0.129494 -7.27246e-08 0.00204021)
(0.128346 3.95228e-08 0.00207298)
(0.127177 1.10461e-07 0.00210658)
(0.125988 1.06986e-07 0.00214119)
(0.124778 3.48199e-08 0.00217691)
(0.123547 -6.77e-08 0.00221379)
(0.122294 -1.51353e-07 0.00225178)
(0.121018 -1.80758e-07 0.00229085)
(0.119719 -1.49395e-07 0.00233102)
(0.118396 -7.85563e-08 0.00237237)
(0.117048 -2.5318e-09 0.00241504)
(0.115675 5.01335e-08 0.00245909)
(0.114277 6.88907e-08 0.0025045)
(0.112852 6.1321e-08 0.00255122)
(0.111399 4.34937e-08 0.00259915)
(0.109919 2.81972e-08 0.00264833)
(0.10841 1.83346e-08 0.00269886)
(0.106871 8.22455e-09 0.00275093)
(0.105301 -1.00606e-08 0.00280472)
(0.1037 -3.99225e-08 0.00286031)
(0.102068 -7.6645e-08 0.00291772)
(0.100402 -1.08123e-07 0.00297691)
(0.0987024 -1.19943e-07 0.00303787)
(0.0969679 -1.02827e-07 0.00310061)
(0.0951975 -5.86284e-08 0.00316522)
(0.0933902 -6.71022e-10 0.0032318)
(0.0915449 5.28366e-08 0.00330045)
(0.0896605 8.81705e-08 0.00337124)
(0.0877359 1.02033e-07 0.00344424)
(0.08577 1.00584e-07 0.00351954)
(0.0837614 9.35482e-08 0.00359723)
(0.081709 8.8318e-08 0.00367746)
(0.0796114 8.65591e-08 0.00376039)
(0.0774674 8.39854e-08 0.0038462)
(0.0752757 7.29045e-08 0.00393501)
(0.073035 4.70972e-08 0.00402693)
(0.070744 7.1747e-09 0.00412199)
(0.0684015 -3.75944e-08 0.00422019)
(0.066006 -7.34451e-08 0.00432149)
(0.0635564 -8.899e-08 0.0044258)
(0.0610515 -7.97042e-08 0.00453301)
(0.0584903 -4.82223e-08 0.00464293)
(0.055872 -3.12573e-09 0.00475529)
(0.0531961 4.30501e-08 0.0048697)
(0.0504624 7.90474e-08 0.00498559)
(0.0476711 1.00846e-07 0.00510221)
(0.0448229 1.11656e-07 0.00521858)
(0.041919 1.15896e-07 0.00533346)
(0.0389615 1.16649e-07 0.00544532)
(0.0359533 1.16979e-07 0.00555226)
(0.0328987 1.17506e-07 0.00565191)
(0.0298032 1.13253e-07 0.00574136)
(0.0266742 1.00273e-07 0.00581697)
(0.023521 8.16857e-08 0.00587426)
(0.0203556 6.10068e-08 0.0059077)
(0.0171927 3.76362e-08 0.00591041)
(0.0140504 1.52631e-08 0.00587365)
(0.0109515 1.06983e-09 0.0057867)
(0.0079229 -6.7045e-09 0.00563391)
(0.00499613 -1.33652e-08 0.00539515)
(0.00221033 -1.51299e-08 0.00505335)
(-0.000392237 -6.30665e-09 0.00458701)
(-0.00275278 1.07573e-08 0.00396516)
(-0.00481139 2.61572e-08 0.00314957)
(-0.00650029 2.89301e-08 0.00209846)
(-0.00776414 2.26357e-08 0.000785143)
(-0.00860439 3.43417e-08 -0.000736881)
(-0.00895882 6.13605e-08 -0.00229341)
(-0.00858819 5.96027e-08 -0.00378305)
(-0.00730652 -1.2419e-08 -0.00505201)
(-0.0050477 -4.67534e-08 -0.00569791)
(-0.00257794 -5.23264e-07 -0.00561115)
(-0.00161582 -2.09945e-06 0.0109015)
(-0.00186948 -8.58801e-07 0.00648152)
(-0.000885111 -4.61785e-07 0.00220419)
(0.00100825 -2.71249e-07 -0.00156696)
(0.00327834 -1.70569e-07 -0.00472572)
(0.00585611 -1.10514e-07 -0.0072345)
(0.00874262 -6.27785e-08 -0.00917038)
(0.0119241 -2.38405e-08 -0.0106383)
(0.0153701 -2.74679e-09 -0.0117362)
(0.0190452 1.97797e-09 -0.0125449)
(0.0229121 -6.4812e-09 -0.0131307)
(0.0269324 -2.29319e-08 -0.0135439)
(0.0310711 -3.56609e-08 -0.0138211)
(0.0352968 -3.61007e-08 -0.0139894)
(0.0395822 -2.43627e-08 -0.0140692)
(0.0439032 -4.76075e-09 -0.0140754)
(0.0482385 1.66163e-08 -0.01402)
(0.0525697 3.35312e-08 -0.013912)
(0.0568805 4.29047e-08 -0.0137588)
(0.0611563 4.5386e-08 -0.0135667)
(0.0653847 4.31434e-08 -0.0133409)
(0.0695544 3.83813e-08 -0.0130858)
(0.0736558 3.28797e-08 -0.0128055)
(0.0776805 2.76018e-08 -0.0125037)
(0.081621 2.29596e-08 -0.0121837)
(0.0854711 2.00137e-08 -0.0118485)
(0.0892255 2.03311e-08 -0.0115012)