/*--------------------------------*- C++ -*----------------------------------*\
  =========                 |
  \\      /  F ield         | OpenFOAM: The Open Source CFD Toolbox
   \\    /   O peration     | Website:  https://openfoam.org
    \\  /    A nd           | Version:  8
     \\/     M anipulation  |
\*---------------------------------------------------------------------------*/
FoamFile
{
    version     2.0;
    format      ascii;
    class       volScalarField;
    location    "3300";
    object      epsilon;
}
// * * * * * * * * * * * * * * * * * * * * * * * * * * * * * * * * * * * * * //

dimensions      [0 2 -3 0 0 0 0];

internalField   nonuniform List<scalar> 
48000
(
0.784329
4.91242
9.35587
13.941
18.777
23.6132
28.4215
33.2112
38.0968
42.9761
47.8662
52.7617
57.6556
62.541
67.4109
72.2578
77.0737
81.8503
86.5793
91.252
95.86
100.395
104.848
109.213
113.48
117.644
121.698
125.635
129.452
133.141
136.7
140.126
143.414
146.563
149.571
152.437
155.16
157.741
160.18
162.477
164.635
166.653
168.534
170.281
171.927
173.448
174.843
176.115
177.268
178.304
179.229
180.046
180.76
181.375
181.893
182.321
182.66
182.916
183.092
183.191
183.217
183.174
183.065
182.893
182.661
182.373
182.03
181.636
181.194
180.706
180.174
179.6
178.987
178.337
177.651
176.932
176.181
175.399
174.589
173.751
172.888
171.999
171.087
170.152
169.196
168.218
167.221
166.205
165.171
164.119
163.05
161.965
160.863
159.747
158.615
157.468
156.308
155.133
153.945
152.743
151.528
150.3
149.059
147.805
146.539
145.261
143.97
142.666
141.351
140.023
138.684
137.332
135.968
134.592
133.204
131.804
130.393
128.969
127.533
126.086
124.626
123.155
121.673
120.178
118.672
117.155
115.626
114.086
112.535
110.973
109.401
107.817
106.224
104.62
103.007
101.384
99.7516
98.1106
96.461
94.8033
93.1378
91.4651
89.7855
88.0996
86.4078
84.7107
83.0089
81.3028
79.5931
77.8805
76.1655
74.4489
72.7312
71.0132
69.2956
67.5791
65.8644
64.1522
62.4433
60.7384
59.0383
57.3437
55.6553
53.9739
52.3001
50.6347
48.9784
47.3318
45.6955
44.0703
42.4566
40.855
39.2661
37.6903
36.128
34.5796
33.0454
31.5257
30.0207
28.5309
27.0576
25.6026
24.1742
22.7607
21.3573
19.9644
18.5801
17.2031
15.8315
14.463
13.0947
11.7236
10.3597
8.98837
7.60004
6.18558
4.73275
3.22618
1.65329
0.181083
0.784363
4.91265
9.35599
13.9412
18.7772
23.6134
28.4217
33.2115
38.097
42.9763
47.8664
52.762
57.6559
62.5413
67.4111
72.258
77.0739
81.8506
86.5795
91.2522
95.8602
100.395
104.848
109.213
113.48
117.644
121.698
125.636
129.452
133.141
136.701
140.126
143.414
146.563
149.571
152.437
155.161
157.741
160.18
162.477
164.635
166.653
168.535
170.281
171.927
173.448
174.844
176.115
177.268
178.304
179.229
180.046
180.76
181.375
181.893
182.321
182.66
182.916
183.092
183.191
183.217
183.174
183.065
182.893
182.661
182.373
182.03
181.636
181.194
180.706
180.174
179.6
178.987
178.337
177.651
176.932
176.181
175.399
174.589
173.751
172.888
171.999
171.087
170.152
169.196
168.218
167.221
166.205
165.171
164.119
163.05
161.965
160.863
159.747
158.615
157.468
156.308
155.133
153.945
152.743
151.528
150.3
149.059
147.805
146.539
145.261
143.97
142.666
141.351
140.023
138.684
137.332
135.968
134.592
133.204
131.804
130.393
128.969
127.533
126.086
124.626
123.155
121.673
120.178
118.672
117.155
115.626
114.086
112.535
110.973
109.401
107.817
106.224
104.62
103.007
101.384
99.7516
98.1105
96.461
94.8033
93.1378
91.4651
89.7855
88.0996
86.4078
84.7107
83.0088
81.3028
79.5931
77.8805
76.1655
74.4489
72.7312
71.0132
69.2956
67.5791
65.8644
64.1522
62.4433
60.7384
59.0383
57.3437
55.6553
53.9739
52.3001
50.6347
48.9784
47.3318
45.6955
44.0703
42.4566
40.855
39.2661
37.6903
36.128
34.5796
33.0454
31.5257
30.0207
28.5309
27.0576
25.6026
24.1742
22.7607
21.3574
19.9644
18.5801
17.2031
15.8315
14.4631
13.0948
11.7236
10.3598
8.98839
7.60006
6.1856
4.73278
3.22621
1.65323
0.181082
5.82319
5.01382
6.43239
8.1602
10.0441
12.0016
13.9926
16.0041
18.0458
20.1093
22.1925
24.2932
26.4085
28.5355
30.6706
32.81
34.9497
37.0852
39.212
41.3252
43.4202
45.492
47.5357
49.5469
51.5207
53.453
55.3396
57.1767
58.9607
60.6885
62.3573
63.9645
65.508
66.9861
68.3973
69.7408
71.0156
72.2215
73.3584
74.4265
75.4262
76.3584
77.2245
78.027
78.7732
79.4593
80.0847
80.6504
81.1578
81.6088
82.0052
82.3491
82.6426
82.8877
83.0865
83.241
83.3533
83.4253
83.4589
83.4562
83.4189
83.3487
83.2475
83.1169
82.9584
82.7737
82.5641
82.331
82.0759
81.7998
81.5041
81.1899
80.8582
80.51
80.1463
79.768
79.376
78.971
78.5537
78.1249
77.6852
77.2351
76.7754
76.3064
75.8286
75.3426
74.8487
74.3472
73.8387
73.3232
72.8013
72.273
71.7387
71.1986
70.6529
70.1017
69.5453
68.9837
68.4171
67.8457
67.2694
66.6884
66.1028
65.5126
64.9179
64.3187
63.7151
63.107
62.4946
61.8778
61.2567
60.6312
60.0013
59.3672
58.7287
58.0859
57.4387
56.7873
56.1315
55.4715
54.8071
54.1385
53.4656
52.7885
52.1072
51.4217
50.732
50.0383
49.3406
48.6389
47.9333
47.2239
46.5108
45.794
45.0738
44.3502
43.6233
42.8933
42.1603
41.4245
40.6861
39.9452
39.2021
38.457
37.71
36.9615
36.2115
35.4605
34.7086
33.9561
33.2033
32.4504
31.6979
30.9458
30.1947
29.4447
28.6961
27.9494
27.2047
26.4625
25.723
24.9866
24.2535
23.5242
22.7987
22.0776
21.361
20.6493
19.9427
19.2415
18.5459
17.8561
17.1723
16.4949
15.8238
15.1592
14.5014
13.8504
13.2063
12.5693
11.9397
11.3179
10.7044
10.0976
9.49618
8.90124
8.31177
7.72731
7.14745
6.57174
5.99991
5.43233
4.87156
4.31475
3.76117
3.21192
2.67203
2.15861
1.73918
2.0304
5.82352
5.01383
6.43233
8.1601
10.044
12.0015
13.9924
16.0039
18.0457
20.1091
22.1923
24.293
26.4083
28.5353
30.6704
32.8098
34.9495
37.085
39.2117
41.325
43.4199
45.4917
47.5355
49.5466
51.5205
53.4528
55.3393
57.1764
58.9605
60.6883
62.357
63.9642
65.5077
66.9858
68.3971
69.7405
71.0153
72.2212
73.3581
74.4262
75.4259
76.3581
77.2242
78.0267
78.7729
79.459
80.0844
80.6501
81.1575
81.6084
82.0049
82.3488
82.6423
82.8874
83.0862
83.2407
83.353
83.425
83.4586
83.4559
83.4186
83.3484
83.2472
83.1166
82.9581
82.7734
82.5638
82.3307
82.0756
81.7995
81.5038
81.1896
80.8579
80.5097
80.1461
79.7678
79.3757
78.9707
78.5534
78.1246
77.6849
77.2349
76.7751
76.3061
75.8284
75.3424
74.8484
74.347
73.8384
73.323
72.801
72.2728
71.7385
71.1984
70.6526
70.1015
69.5451
68.9835
68.4169
67.8454
67.2692
66.6882
66.1026
65.5124
64.9177
64.3185
63.7149
63.1068
62.4944
61.8776
61.2565
60.631
60.0011
59.367
58.7285
58.0857
57.4385
56.7871
56.1313
55.4713
54.8069
54.1383
53.4654
52.7883
52.107
51.4215
50.7319
50.0381
49.3404
48.6387
47.9331
47.2237
46.5106
45.7939
45.0736
44.35
43.6231
42.8931
42.1601
41.4244
40.686
39.9451
39.202
38.4569
37.7099
36.9613
36.2114
35.4603
34.7085
33.956
33.2032
32.4503
31.6977
30.9457
30.1946
29.4446
28.696
27.9493
27.2046
26.4624
25.7229
24.9865
24.2534
23.5241
22.7987
22.0775
21.361
20.6492
19.9426
19.2414
18.5458
17.856
17.1723
16.4948
15.8237
15.1592
14.5014
13.8503
13.2063
12.5693
11.9397
11.3178
10.7043
10.0975
9.49613
8.9012
8.31173
7.72728
7.14742
6.57171
5.99988
5.4323
4.87154
4.31474
3.76116
3.21191
2.67202
2.15859
1.7392
2.03064
10.8366
6.73215
7.14965
8.18706
9.44176
10.8079
12.2404
13.7179
15.2312
16.7729
18.3383
19.9238
21.526
23.1421
24.7688
26.4029
28.041
29.6796
31.3149
32.9431
34.5602
36.1622
37.7452
39.3051
40.8383
42.3408
43.8093
45.2403
46.6307
47.9779
49.2791
50.5321
51.735
52.886
53.984
55.0278
56.0167
56.9501
57.8281
58.6505
59.4179
60.1308
60.7903
61.398
61.9563
62.4652
62.9253
63.3374
63.7027
64.0226
64.2988
64.5327
64.7262
64.8809
64.9984
65.0806
65.1291
65.1455
65.1315
65.0886
65.0185
64.9225
64.8021
64.6588
64.4937
64.3083
64.1036
63.881
63.6414
63.3858
63.1154
62.831
62.5336
62.2238
61.9026
61.5706
61.2286
60.8771
60.5168
60.1483
59.7721
59.3886
58.9983
58.6016
58.199
57.7907
57.3771
56.9586
56.5353
56.1075
55.6755
55.2395
54.7996
54.356
53.909
53.4586
53.0049
52.5481
52.0882
51.6254
51.1597
50.6912
50.2199
49.7459
49.2692
48.7898
48.3078
47.8232
47.3361
46.8463
46.3539
45.859
45.3614
44.8613
44.3587
43.8534
43.3456
42.8352
42.3222
41.8066
41.2884
40.7677
40.2444
39.7186
39.1902
38.6594
38.126
37.5903
37.0521
36.5116
35.9687
35.4236
34.8764
34.327
33.7756
33.2222
32.667
32.1101
31.5515
30.9914
30.43
29.8673
29.3035
28.7388
28.1733
27.6071
27.0406
26.4738
25.9069
25.3402
24.7738
24.208
23.643
23.0789
22.5161
21.9547
21.395
20.8371
20.2815
19.7282
19.1775
18.6296
18.0849
17.5434
17.0055
16.4712
15.941
15.4149
14.8932
14.376
13.8636
13.356
12.8535
12.3562
11.8643
11.3778
10.8969
10.4216
9.95215
9.48858
9.03104
8.57965
8.13445
7.69516
7.26149
6.8335
6.41097
5.99413
5.58311
5.178
4.77928
4.38782
4.00516
3.63271
3.27331
2.93338
2.62761
2.39537
2.38836
3.97437
10.8368
6.73209
7.14953
8.18692
9.44161
10.8077
12.2402
13.7178
15.231
16.7727
18.3381
19.9236
21.5258
23.1419
24.7686
26.4027
28.0408
29.6794
31.3147
32.9429
34.56
36.162
37.745
39.3049
40.8381
42.3406
43.8091
45.2401
46.6306
47.9777
49.2789
50.5319
51.7348
52.8859
53.9838
55.0276
56.0165
56.95
57.8279
58.6504
59.4177
60.1306
60.7902
61.3979
61.9561
62.4651
62.9251
63.3372
63.7025
64.0225
64.2986
64.5326
64.7261
64.8807
64.9983
65.0805
65.1289
65.1454
65.1313
65.0885
65.0183
64.9224
64.802
64.6586
64.4936
64.3082
64.1035
63.8809
63.6412
63.3857
63.1153
62.8309
62.5334
62.2237
61.9025
61.5705
61.2285
60.877
60.5167
60.1482
59.772
59.3885
58.9982
58.6015
58.1989
57.7906
57.377
56.9585
56.5352
56.1074
55.6754
55.2394
54.7995
54.3559
53.9089
53.4585
53.0048
52.548
52.0881
51.6253
51.1596
50.6911
50.2198
49.7458
49.2691
48.7897
48.3078
47.8232
47.336
46.8462
46.3538
45.8589
45.3614
44.8613
44.3586
43.8533
43.3455
42.8351
42.3221
41.8065
41.2884
40.7676
40.2444
39.7185
39.1902
38.6593
38.126
37.5902
37.052
36.5115
35.9687
35.4236
34.8763
34.3269
33.7755
33.2222
32.667
32.11
31.5515
30.9914
30.4299
29.8672
29.3035
28.7387
28.1732
27.6071
27.0405
26.4737
25.9069
25.3402
24.7738
24.208
23.6429
23.0789
22.516
21.9546
21.3949
20.8371
20.2814
19.7281
19.1774
18.6296
18.0848
17.5434
17.0054
16.4712
15.941
15.4149
14.8932
14.376
13.8636
13.356
12.8535
12.3562
11.8643
11.3778
10.8968
10.4216
9.95213
9.48856
9.03102
8.57963
8.13444
7.69514
7.26148
6.83349
6.41096
5.99412
5.5831
5.17799
4.77927
4.38781
4.00516
3.63271
3.27331
2.93338
2.62762
2.39537
2.38838
3.97435
15.7704
8.78268
8.47582
9.10323
10.0511
11.1586
12.3612
13.6268
14.9377
16.2825
17.6538
19.0461
20.4551
21.8771
23.3088
24.7471
26.1887
27.6305
29.0691
30.5013
31.9236
33.3325
34.7246
36.0965
37.4447
38.7661
40.0573
41.3156
42.5379
43.7219
44.8651
45.9655
47.0211
48.0306
48.9925
49.9058
50.7699
51.5842
52.3485
53.0629
53.7275
54.3431
54.9103
55.4302
55.9043
56.3332
56.7178
57.0591
57.3581
57.6163
57.8349
58.0156
58.1597
58.2689
58.3447
58.3887
58.4024
58.3873
58.345
58.2768
58.1842
58.0687
57.9314
57.7737
57.5968
57.4019
57.1901
56.9624
56.7199
56.4636
56.1943
55.9129
55.6202
55.317
55.004
54.6819
54.3513
54.0127
53.6668
53.3141
52.955
52.59
52.2195
51.8438
51.4633
51.0784
50.6894
50.2964
49.8998
49.4998
49.0966
48.6904
48.2814
47.8696
47.4553
47.0386
46.6195
46.1982
45.7748
45.3493
44.9218
44.4924
44.061
43.6278
43.1928
42.7559
42.3173
41.8769
41.4347
40.9907
40.545
40.0976
39.6483
39.1974
38.7446
38.2901
37.8338
37.3758
36.916
36.4544
35.991
35.5258
35.0589
34.5903
34.1199
33.6478
33.1739
32.6984
32.2213
31.7426
31.2623
30.7805
30.2972
29.8126
29.3266
28.8394
28.351
27.8616
27.3711
26.8798
26.3877
25.895
25.4017
24.9081
24.4141
23.9201
23.4261
22.9324
22.439
21.9461
21.4539
20.9626
20.4724
19.9834
19.4959
19.0101
18.526
18.044
17.5643
17.087
16.6123
16.1404
15.6716
15.206
14.7438
14.2852
13.8304
13.3796
12.9328
12.4904
12.0524
11.619
11.1904
10.7666
10.3478
9.93413
9.5257
9.12261
8.72499
8.33295
7.9466
7.56605
7.19137
6.82258
6.4597
6.10286
5.75222
5.40807
5.07081
4.74105
4.41987
4.10864
3.80952
3.52588
3.26338
3.033
2.8584
2.80198
3.10522
5.88462
15.7706
8.7826
8.47568
9.10308
10.0509
11.1584
12.361
13.6266
14.9375
16.2824
17.6537
19.0459
20.4549
21.8769
23.3086
24.7469
26.1885
27.6303
29.0689
30.5011
31.9234
33.3323
34.7245
36.0963
37.4446
38.7659
40.0572
41.3154
42.5378
43.7217
44.865
45.9653
47.021
48.0304
48.9923
49.9057
50.7698
51.5841
52.3484
53.0627
53.7274
54.343
54.9102
55.4301
55.9042
56.3331
56.7177
57.059
57.358
57.6162
57.8348
58.0155
58.1596
58.2688
58.3446
58.3886
58.4023
58.3872
58.3449
58.2767
58.1842
58.0686
57.9313
57.7736
57.5967
57.4018
57.19
56.9623
56.7199
56.4635
56.1942
55.9128
55.6201
55.3169
55.0039
54.6818
54.3512
54.0127
53.6668
53.3141
52.955
52.5899
52.2194
51.8437
51.4633
51.0784
50.6893
50.2964
49.8998
49.4998
49.0966
48.6904
48.2813
47.8696
47.4553
47.0385
46.6195
46.1982
45.7748
45.3493
44.9218
44.4923
44.061
43.6278
43.1927
42.7559
42.3172
41.8768
41.4346
40.9907
40.545
40.0975
39.6483
39.1973
38.7446
38.2901
37.8338
37.3758
36.9159
36.4543
35.991
35.5258
35.0589
34.5903
34.1199
33.6477
33.1739
32.6984
32.2213
31.7426
31.2623
30.7805
30.2972
29.8126
29.3266
28.8394
28.351
27.8615
27.3711
26.8798
26.3877
25.895
25.4017
24.908
24.4141
23.9201
23.4261
22.9324
22.4389
21.9461
21.4539
20.9626
20.4724
19.9834
19.4959
19.01
18.526
18.044
17.5643
17.087
16.6123
16.1404
15.6716
15.206
14.7438
14.2852
13.8304
13.3796
12.9328
12.4904
12.0524
11.619
11.1904
10.7666
10.3478
9.93412
9.52569
9.12261
8.72499
8.33294
7.9466
7.56605
7.19137
6.82258
6.4597
6.10286
5.75221
5.40807
5.07081
4.74105
4.41987
4.10864
3.80952
3.52588
3.26338
3.033
2.8584
2.80198
3.10523
5.8846
20.7104
11.0055
10.0607
10.3768
11.1204
12.0731
13.1479
14.3018
15.51
16.757
18.0325
19.3292
20.6414
21.9649
23.2959
24.6311
25.9675
27.302
28.6317
29.9537
31.265
32.5625
33.8433
35.1044
36.3427
37.5555
38.74
39.8935
41.0134
42.0976
43.1437
44.15
45.1147
46.0364
46.9139
47.7462
48.5325
49.2725
49.9658
50.6124
51.2127
51.7669
52.2758
52.7402
53.1611
53.5395
53.8761
54.172
54.4284
54.6464
54.8274
54.9728
55.084
55.1624
55.2096
55.227
55.216
55.1781
55.1147
55.0272
54.9169
54.7851
54.6332
54.4622
54.2735
54.068
53.847
53.6113
53.3619
53.0998
52.8259
52.5409
52.2456
51.9408
51.6272
51.3053
50.9758
50.6393
50.2962
49.9471
49.5924
49.2325
48.8679
48.4988
48.1256
47.7487
47.3683
46.9846
46.598
46.2085
45.8165
45.422
45.0253
44.6265
44.2257
43.823
43.4186
43.0125
42.6047
42.1955
41.7848
41.3726
40.9591
40.5442
40.1281
39.7106
39.2918
38.8718
38.4505
38.0279
37.6041
37.1791
36.7528
36.3252
35.8964
35.4663
35.0349
34.6022
34.1683
33.7331
33.2966
32.8588
32.4197
31.9794
31.5378
31.095
30.651
30.2057
29.7593
29.3118
28.8631
28.4135
27.9628
27.5111
27.0586
26.6053
26.1512
25.6965
25.2412
24.7854
24.3292
23.8727
23.4161
22.9594
22.5028
22.0465
21.5904
21.1349
20.68
20.2259
19.7727
19.3206
18.8698
18.4204
17.9727
17.5267
17.0827
16.6409
16.2013
15.7643
15.3299
14.8984
14.4698
14.0445
13.6226
13.2042
12.7895
12.3787
11.9719
11.5693
11.171
10.7771
10.3879
10.0034
9.62373
9.24909
8.87957
8.5153
8.15642
7.80305
7.45535
7.11346
6.77753
6.44772
6.12423
5.80734
5.4974
5.19493
4.90062
4.61544
4.3408
4.07869
3.83221
3.60617
3.40874
3.25515
3.17787
3.26232
3.83994
7.7789
20.7106
11.0054
10.0605
10.3766
11.1203
12.0729
13.1478
14.3016
15.5098
16.7568
18.0323
19.329
20.6412
21.9647
23.2957
24.6309
25.9673
27.3018
28.6315
29.9535
31.2648
32.5623
33.8431
35.1042
36.3426
37.5554
38.7398
39.8933
41.0133
42.0974
43.1436
44.1499
45.1146
46.0363
46.9138
47.746
48.5324
49.2723
49.9657
50.6123
51.2125
51.7668
52.2757
52.7401
53.161
53.5394
53.876
54.1719
54.4283
54.6463
54.8273
54.9727
55.0839
55.1624
55.2095
55.2269
55.2159
55.178
55.1146
55.0271
54.9168
54.7851
54.6331
54.4622
54.2734
54.068
53.8469
53.6112
53.3619
53.0998
52.8258
52.5409
52.2456
51.9408
51.6271
51.3053
50.9758
50.6392
50.2962
49.947
49.5923
49.2325
48.8678
48.4988
48.1256
47.7487
47.3683
46.9846
46.598
46.2085
45.8165
45.422
45.0253
44.6265
44.2257
43.823
43.4186
43.0124
42.6047
42.1955
41.7848
41.3726
40.9591
40.5442
40.128
39.7106
39.2918
38.8718
38.4505
38.0279
37.6041
37.1791
36.7528
36.3252
35.8964
35.4662
35.0349
34.6022
34.1683
33.7331
33.2965
32.8588
32.4197
31.9794
31.5378
31.095
30.6509
30.2057
29.7593
29.3118
28.8631
28.4134
27.9628
27.5111
27.0586
26.6053
26.1512
25.6965
25.2411
24.7853
24.3292
23.8727
23.4161
22.9594
22.5028
22.0465
21.5904
21.1349
20.68
20.2258
19.7727
19.3206
18.8698
18.4204
17.9727
17.5267
17.0827
16.6409
16.2013
15.7643
15.3299
14.8983
14.4698
14.0445
13.6226
13.2042
12.7895
12.3787
11.9719
11.5693
11.171
10.7771
10.3879
10.0034
9.62373
9.24909
8.87957
8.5153
8.15641
7.80305
7.45535
7.11346
6.77753
6.44772
6.12424
5.80734
5.49741
5.19493
4.90062
4.61544
4.3408
4.07869
3.83221
3.60617
3.40874
3.25515
3.17787
3.26232
3.83995
7.77889
25.6487
13.3454
11.8092
11.8639
12.4525
13.298
14.2911
15.3775
16.5263
17.7179
18.9393
20.1813
21.437
22.7015
23.9706
25.2408
26.5092
27.7728
29.029
30.2753
31.5091
32.7278
33.9288
35.1096
36.2677
37.4005
38.5057
39.581
40.6241
41.633
42.6058
43.5407
44.4363
45.2911
46.1042
46.8745
47.6014
48.2844
48.9234
49.5181
50.0689
50.5761
51.0402
51.462
51.8422
52.1818
52.4817
52.7428
52.9663
53.1533
53.3052
53.4231
53.5085
53.5627
53.5871
53.5832
53.5523
53.4957
53.415
53.3112
53.1859
53.0402
52.8752
52.6923
52.4925
52.2769
52.0465
51.8023
51.5453
51.2763
50.9961
50.7056
50.4055
50.0965
49.7793
49.4545
49.1226
48.7843
48.4399
48.0901
47.7352
47.3756
47.0117
46.6439
46.2725
45.8977
45.5199
45.1393
44.7561
44.3705
43.9828
43.593
43.2014
42.8081
42.4131
42.0167
41.6189
41.2198
40.8194
40.4179
40.0153
39.6116
39.2069
38.8012
38.3945
37.9869
37.5783
37.1689
36.7585
36.3472
35.935
35.5219
35.1079
34.693
34.2772
33.8604
33.4427
33.024
32.6045
32.184
31.7625
31.3401
30.9168
30.4925
30.0673
29.6413
29.2143
28.7865
28.3578
27.9283
27.4981
27.0671
26.6354
26.2031
25.7702
25.3368
24.903
24.4688
24.0343
23.5996
23.1647
22.7299
22.2951
21.8606
21.4263
20.9925
20.5593
20.1267
19.695
19.2642
18.8345
18.4061
17.9791
17.5537
17.13
16.7082
16.2884
15.8708
15.4556
15.0429
14.6329
14.2258
13.8217
13.4208
13.0233
12.6292
12.2388
11.8522
11.4696
11.091
10.7167
10.3469
9.9815
9.62082
9.26494
8.91401
8.56818
8.22759
7.89241
7.5628
7.23894
6.92105
6.60935
6.30411
6.00566
5.71442
5.43092
5.15588
4.89025
4.63533
4.39295
4.16572
3.95755
3.77459
3.62723
3.53495
3.53887
3.74744
4.5818
9.6642
25.649
13.3453
11.809
11.8637
12.4523
13.2978
14.2909
15.3773
16.5261
17.7177
18.9391
20.1811
21.4368
22.7013
23.9704
25.2406
26.509
27.7726
29.0288
30.2751
31.5089
32.7276
33.9286
35.1094
36.2675
37.4004
38.5056
39.5808
40.624
41.6329
42.6056
43.5406
44.4362
45.291
46.1041
46.8744
47.6013
48.2843
48.9233
49.518
50.0688
50.576
51.0401
51.4619
51.8421
52.1817
52.4816
52.7428
52.9662
53.1533
53.3051
53.423
53.5084
53.5626
53.587
53.5831
53.5522
53.4957
53.4149
53.3112
53.1858
53.0401
52.8752
52.6923
52.4925
52.2769
52.0465
51.8023
51.5453
51.2762
50.9961
50.7056
50.4055
50.0965
49.7793
49.4544
49.1226
48.7842
48.4399
48.09
47.7351
47.3755
47.0117
46.6439
46.2724
45.8977
45.5199
45.1393
44.7561
44.3705
43.9828
43.593
43.2014
42.8081
42.4131
42.0167
41.6189
41.2198
40.8194
40.4179
40.0153
39.6116
39.2069
38.8012
38.3945
37.9869
37.5783
37.1689
36.7585
36.3472
35.935
35.5219
35.1079
34.693
34.2771
33.8604
33.4427
33.024
32.6045
32.1839
31.7625
31.3401
30.9168
30.4925
30.0673
29.6413
29.2143
28.7865
28.3578
27.9283
27.4981
27.0671
26.6354
26.2031
25.7702
25.3368
24.903
24.4688
24.0343
23.5996
23.1647
22.7299
22.2951
21.8606
21.4263
20.9925
20.5593
20.1267
19.695
19.2642
18.8345
18.4061
17.9791
17.5537
17.13
16.7082
16.2884
15.8708
15.4556
15.0429
14.6329
14.2258
13.8217
13.4208
13.0233
12.6292
12.2388
11.8522
11.4696
11.091
10.7167
10.3469
9.9815
9.62082
9.26494
8.91401
8.56818
8.22759
7.89241
7.5628
7.23895
6.92105
6.60936
6.30412
6.00566
5.71442
5.43092
5.15588
4.89025
4.63533
4.39295
4.16572
3.95755
3.77459
3.62723
3.53495
3.53887
3.74744
4.58182
9.6642
30.6469
15.7595
13.6798
13.5071
13.9701
14.7355
15.672
16.7148
17.8267
18.9844
20.1723
21.3795
22.5981
23.8224
25.0478
26.2707
27.4881
28.6975
29.8963
31.0825
32.2538
33.4081
34.5434
35.6574
36.7481
37.8134
38.8513
39.8598
40.8371
41.7813
42.6908
43.5641
44.3998
45.1967
45.9539
46.6704
47.3456
47.9792
48.5709
49.1206
49.6284
50.0947
50.52
50.9048
51.25
51.5562
51.8245
52.0557
52.2509
52.4112
52.5379
52.6322
52.6953
52.7286
52.7333
52.7109
52.6627
52.5899
52.4939
52.3759
52.2372
52.079
51.9024
51.7086
51.4986
51.2736
51.0344
50.7821
50.5175
50.2415
49.9549
49.6586
49.3531
49.0392
48.7176
48.3888
48.0534
47.712
47.3649
47.0128
46.6559
46.2948
45.9297
45.561
45.189
44.8141
44.4364
44.0562
43.6738
43.2893
42.9029
42.5147
42.125
41.7339
41.3414
40.9478
40.553
40.1572
39.7604
39.3627
38.9641
38.5648
38.1647
37.7639
37.3623
36.9601
36.5572
36.1536
35.7494
35.3445
34.939
34.5328
34.126
33.7184
33.3103
32.9014
32.4919
32.0817
31.6709
31.2593
30.847
30.4341
30.0205
29.6061
29.1912
28.7755
28.3593
27.9424
27.5249
27.1069
26.6883
26.2692
25.8497
25.4298
25.0095
24.5889
24.1681
23.7472
23.3261
22.9051
22.4841
22.0633
21.6428
21.2227
20.803
20.3839
19.9656
19.5481
19.1315
18.716
18.3018
17.8889
17.4775
17.0677
16.6598
16.2538
15.8499
15.4482
15.0489
14.6522
14.2582
13.867
13.4788
13.0938
12.7121
12.3339
11.9593
11.5884
11.2215
10.8586
10.4999
10.1455
9.79565
9.4504
9.10994
8.77441
8.44399
8.11885
7.79918
7.48519
7.1771
6.87518
6.57974
6.29114
6.00982
5.73634
5.47139
5.21589
4.97103
4.73842
4.5203
4.31986
4.14184
3.99371
3.88801
3.84825
3.92425
4.24757
5.32896
11.5457
30.6472
15.7594
13.6797
13.5069
13.9699
14.7353
15.6718
16.7146
17.8265
18.9842
20.1721
21.3793
22.5979
23.8222
25.0476
26.2705
27.4879
28.6973
29.8961
31.0823
32.2536
33.408
34.5432
35.6572
36.7479
37.8132
38.8511
39.8597
40.8369
41.7812
42.6907
43.564
44.3997
45.1966
45.9537
46.6702
47.3455
47.9791
48.5708
49.1205
49.6283
50.0947
50.5199
50.9047
51.2499
51.5561
51.8244
52.0556
52.2508
52.4112
52.5378
52.6321
52.6952
52.7285
52.7333
52.7109
52.6626
52.5899
52.4939
52.3759
52.2372
52.0789
51.9024
51.7085
51.4986
51.2735
51.0344
50.782
50.5175
50.2415
49.9549
49.6585
49.3531
49.0392
48.7176
48.3888
48.0534
47.7119
47.3649
47.0127
46.6559
46.2947
45.9297
45.561
45.189
44.8141
44.4364
44.0562
43.6738
43.2892
42.9028
42.5147
42.125
41.7339
41.3414
40.9478
40.553
40.1571
39.7604
39.3627
38.9641
38.5648
38.1647
37.7638
37.3623
36.9601
36.5572
36.1536
35.7494
35.3445
34.939
34.5328
34.1259
33.7184
33.3103
32.9014
32.4919
32.0817
31.6708
31.2593
30.847
30.4341
30.0204
29.6061
29.1912
28.7755
28.3593
27.9424
27.5249
27.1069
26.6883
26.2692
25.8497
25.4298
25.0095
24.5889
24.1681
23.7472
23.3261
22.9051
22.4841
22.0633
21.6428
21.2227
20.803
20.3839
19.9656
19.5481
19.1315
18.716
18.3018
17.8889
17.4775
17.0677
16.6598
16.2538
15.8499
15.4482
15.0489
14.6522
14.2582
13.867
13.4788
13.0938
12.7121
12.3339
11.9593
11.5884
11.2215
10.8586
10.4999
10.1455
9.79565
9.4504
9.10994
8.77442
8.444
8.11886
7.79918
7.48519
7.1771
6.87518
6.57974
6.29114
6.00983
5.73634
5.47139
5.21589
4.97103
4.73842
4.5203
4.31986
4.14184
3.99371
3.88801
3.84825
3.92425
4.24757
5.32899
11.5457
35.9328
18.2834
15.6651
15.2823
15.6379
16.34
17.2354
18.2484
19.3362
20.4716
21.6369
22.8196
24.0108
25.2039
26.3943
27.5782
28.7526
29.9152
31.0639
32.1968
33.3123
34.4085
35.484
36.5369
37.5658
38.5688
39.5444
40.491
41.407
42.2909
43.1413
43.9569
44.7365
45.4791
46.1838
46.8499
47.4767
48.0639
48.6112
49.1187
49.5863
50.0144
50.4033
50.7537
51.0662
51.3415
51.5805
51.784
51.9532
52.089
52.1926
52.2651
52.3078
52.3219
52.3087
52.2694
52.2054
52.1177
52.0078
51.8768
51.7259
51.5563
51.369
51.1652
50.946
50.7122
50.4649
50.205
49.9334
49.6509
49.3582
49.0562
48.7455
48.4269
48.1008
47.768
47.4289
47.0841
46.734
46.3791
46.0199
45.6566
45.2897
44.9194
44.5461
44.1701
43.7916
43.4108
43.0281
42.6434
42.2571
41.8694
41.4802
41.0899
40.6984
40.3059
39.9125
39.5183
39.1233
38.7276
38.3312
37.9343
37.5368
37.1387
36.7402
36.3411
35.9416
35.5416
35.1411
34.7402
34.3388
33.9369
33.5346
33.1318
32.7286
32.3249
31.9207
31.516
31.1108
30.7051
30.2989
29.8923
29.4851
29.0775
28.6693
28.2607
27.8517
27.4423
27.0324
26.6221
26.2115
25.8006
25.3894
24.978
24.5664
24.1547
23.7429
23.3311
22.9194
22.5079
22.0965
21.6855
21.2749
20.8648
20.4553
20.0465
19.6385
19.2315
18.8255
18.4206
18.0171
17.615
17.2145
16.8156
16.4186
16.0235
15.6306
15.2399
14.8516
14.4658
14.0828
13.7025
13.3253
12.9511
12.5803
12.2128
11.8489
11.4887
11.1323
10.78
10.4318
10.0878
9.74835
9.41347
9.08336
8.75819
8.43815
8.12344
7.81429
7.51093
7.21366
6.92279
6.6387
6.36184
6.09277
5.83216
5.58086
5.33997
5.11091
4.89561
4.6967
4.51793
4.36487
4.24628
4.17691
4.18417
4.32677
4.75942
6.08304
13.4337
35.9331
18.2833
15.6649
15.2821
15.6377
16.3398
17.2352
18.2482
19.336
20.4714
21.6367
22.8194
24.0105
25.2037
26.3941
27.578
28.7524
29.915
31.0637
32.1966
33.3121
34.4083
35.4838
36.5368
37.5656
38.5686
39.5443
40.4909
41.4069
42.2908
43.1412
43.9568
44.7364
45.479
46.1837
46.8497
47.4766
48.0638
48.6111
49.1186
49.5862
50.0143
50.4032
50.7536
51.0661
51.3414
51.5804
51.784
51.9531
52.0889
52.1925
52.265
52.3077
52.3219
52.3086
52.2694
52.2053
52.1177
52.0078
51.8768
51.7259
51.5563
51.369
51.1652
50.9459
50.7122
50.4649
50.205
49.9334
49.6508
49.3582
49.0562
48.7455
48.4269
48.1008
47.768
47.4289
47.0841
46.734
46.3791
46.0198
45.6566
45.2896
44.9194
44.5461
44.1701
43.7916
43.4108
43.028
42.6434
42.2571
41.8693
41.4802
41.0898
40.6984
40.3059
39.9125
39.5183
39.1233
38.7276
38.3312
37.9343
37.5368
37.1387
36.7402
36.3411
35.9416
35.5416
35.1411
34.7402
34.3388
33.9369
33.5346
33.1318
32.7286
32.3249
31.9206
31.516
31.1108
30.7051
30.2989
29.8922
29.4851
29.0774
28.6693
28.2607
27.8517
27.4422
27.0324
26.6221
26.2115
25.8006
25.3894
24.978
24.5664
24.1547
23.7429
23.3311
22.9194
22.5079
22.0965
21.6855
21.2749
20.8648
20.4553
20.0465
19.6385
19.2315
18.8255
18.4206
18.0171
17.615
17.2145
16.8156
16.4186
16.0235
15.6306
15.2399
14.8516
14.4658
14.0828
13.7025
13.3253
12.9511
12.5803
12.2128
11.8489
11.4887
11.1323
10.78
10.4318
10.0878
9.74836
9.41348
9.08337
8.7582
8.43816
8.12345
7.81429
7.51093
7.21366
6.92279
6.6387
6.36185
6.09277
5.83216
5.58086
5.33997
5.11091
4.89561
4.6967
4.51793
4.36487
4.24628
4.17691
4.18417
4.32678
4.75943
6.08308
13.4337
41.3885
20.9111
17.76
17.1786
17.4386
18.0885
18.9524
19.9442
21.0151
22.1348
23.283
24.4461
25.6141
26.7801
27.9389
29.087
30.2213
31.3399
32.4409
33.523
34.5847
35.625
36.6426
37.6363
38.605
39.5473
40.4622
41.3482
42.2043
43.0291
43.8216
44.5807
45.3054
45.9947
46.648
47.2645
47.8438
48.3855
48.8894
49.3555
49.7837
50.1744
50.528
50.8448
51.1255
51.3708
51.5815
51.7584
51.9024
52.0146
52.0961
52.1478
52.171
52.1669
52.1366
52.0814
52.0024
51.9008
51.7779
51.6347
51.4725
51.2922
51.0951
50.882
50.6542
50.4124
50.1576
49.8908
49.6127
49.3242
49.026
48.7189
48.4034
48.0804
47.7503
47.4137
47.0712
46.7233
46.3704
46.0129
45.6513
45.286
44.9172
44.5453
44.1706
43.7934
43.4139
43.0324
42.649
42.2639
41.8774
41.4896
41.1005
40.7104
40.3194
39.9275
39.5348
39.1415
38.7476
38.3531
37.9582
37.5628
37.1669
36.7707
36.3741
35.9772
35.58
35.1824
34.7845
34.3863
33.9878
33.589
33.1899
32.7904
32.3906
31.9906
31.5901
31.1894
30.7883
30.3868
29.9851
29.5829
29.1805
28.7777
28.3745
27.9711
27.5674
27.1633
26.759
26.3545
25.9498
25.5449
25.1398
24.7347
24.3295
23.9243
23.5192
23.1142
22.7094
22.3048
21.9006
21.4968
21.0935
20.6908
20.2888
19.8875
19.4872
19.0878
18.6896
18.2925
17.8968
17.5026
17.1099
16.719
16.3299
15.9428
15.5577
15.1749
14.7945
14.4166
14.0413
13.6688
13.2992
12.9327
12.5695
12.2095
11.8531
11.5002
11.1512
10.8061
10.465
10.1283
9.79586
9.46804
9.14497
8.82685
8.51388
8.2063
7.90436
7.60836
7.31862
7.03552
6.75951
6.49113
6.23102
5.97998
5.73902
5.5094
5.29279
5.09138
4.90821
4.74759
4.61591
4.52322
4.48645
4.5371
4.74272
5.2817
6.84661
15.3352
41.3888
20.9109
17.7597
17.1784
17.4384
18.0883
18.9522
19.944
21.0149
22.1346
23.2828
24.4459
25.6139
26.7799
27.9387
29.0867
30.2211
31.3397
32.4407
33.5228
34.5845
35.6248
36.6424
37.6361
38.6048
39.5472
40.462
41.3481
42.2041
43.029
43.8215
44.5806
45.3052
45.9946
46.6478
47.2644
47.8437
48.3854
48.8893
49.3554
49.7836
50.1744
50.5279
50.8447
51.1254
51.3708
51.5814
51.7583
51.9024
52.0146
52.096
52.1478
52.171
52.1669
52.1366
52.0814
52.0024
51.9008
51.7779
51.6347
51.4724
51.2922
51.095
50.882
50.6541
50.4124
50.1576
49.8908
49.6127
49.3242
49.026
48.7189
48.4034
48.0804
47.7503
47.4137
47.0712
46.7233
46.3703
46.0129
45.6513
45.286
44.9172
44.5453
44.1706
43.7934
43.4139
43.0324
42.649
42.2639
41.8774
41.4895
41.1005
40.7104
40.3194
39.9275
39.5348
39.1415
38.7476
38.3531
37.9582
37.5627
37.1669
36.7707
36.3741
35.9772
35.5799
35.1824
34.7845
34.3863
33.9878
33.589
33.1898
32.7904
32.3906
31.9905
31.5901
31.1894
30.7883
30.3868
29.9851
29.5829
29.1805
28.7777
28.3745
27.9711
27.5674
27.1633
26.759
26.3545
25.9498
25.5449
25.1398
24.7347
24.3295
23.9243
23.5192
23.1142
22.7094
22.3048
21.9006
21.4968
21.0935
20.6908
20.2888
19.8875
19.4872
19.0878
18.6896
18.2925
17.8968
17.5026
17.1099
16.719
16.3299
15.9428
15.5577
15.1749
14.7945
14.4166
14.0413
13.6688
13.2992
12.9327
12.5695
12.2095
11.8531
11.5002
11.1512
10.8061
10.465
10.1283
9.79586
9.46804
9.14497
8.82685
8.51388
8.2063
7.90437
7.60836
7.31862
7.03552
6.75951
6.49113
6.23102
5.97999
5.73902
5.5094
5.29279
5.09138
4.90821
4.74759
4.61591
4.52322
4.48645
4.5371
4.74272
5.28171
6.84664
15.3352
47.0439
23.6487
19.9645
19.192
19.3644
19.9694
20.808
21.7837
22.8418
23.9486
25.0821
26.2272
27.3731
28.5126
29.6403
30.7526
31.8468
32.9212
33.9743
35.0051
36.0127
36.9966
37.9559
38.8899
39.798
40.6792
41.5328
42.3579
43.1537
43.9191
44.6533
45.3555
46.0249
46.6607
47.2622
47.829
48.3606
48.8566
49.3169
49.7415
50.1303
50.4836
50.8016
51.0849
51.334
51.5495
51.7321
51.8825
52.0017
52.0907
52.1503
52.1817
52.1859
52.1639
52.1171
52.0464
51.9529
51.838
51.7025
51.5478
51.3747
51.1845
50.978
50.7564
50.5205
50.2714
50.0098
49.7366
49.4527
49.1588
48.8556
48.5439
48.2243
47.8974
47.5637
47.2239
46.8785
46.5279
46.1726
45.813
45.4495
45.0824
44.7121
44.3389
43.9631
43.585
43.2047
42.8226
42.4387
42.0534
41.6667
41.2788
40.8899
40.5001
40.1095
39.7181
39.3261
38.9336
38.5406
38.1471
37.7533
37.3592
36.9647
36.57
36.1751
35.7799
35.3845
34.9889
34.5931
34.1971
33.801
33.4046
33.008
32.6113