/*--------------------------------*- C++ -*----------------------------------*\
  =========                 |
  \\      /  F ield         | OpenFOAM: The Open Source CFD Toolbox
   \\    /   O peration     | Website:  https://openfoam.org
    \\  /    A nd           | Version:  8
     \\/     M anipulation  |
\*---------------------------------------------------------------------------*/
FoamFile
{
    version     2.0;
    format      ascii;
    class       volScalarField;
    location    "3300";
    object      nut;
}
// * * * * * * * * * * * * * * * * * * * * * * * * * * * * * * * * * * * * * //

dimensions      [0 2 -1 0 0 0 0];

internalField   nonuniform List<scalar> 
48000
(
0.000120973
8.6657e-05
0.00010547
0.000120384
0.000132937
0.000143488
0.000152632
0.000160765
0.000168289
0.000175187
0.000181594
0.000187585
0.000193214
0.000198524
0.000203549
0.000208314
0.000212843
0.000217152
0.000221256
0.000225167
0.000228894
0.000232448
0.000235835
0.000239063
0.000242137
0.000245062
0.000247845
0.00025049
0.000253
0.000255381
0.000257636
0.00025977
0.000261786
0.000263687
0.000265479
0.000267163
0.000268744
0.000270226
0.000271611
0.000272902
0.000274104
0.000275219
0.00027625
0.000277201
0.000278091
0.000278908
0.000279653
0.000280329
0.000280938
0.000281484
0.000281969
0.000282396
0.000282768
0.000283088
0.000283357
0.000283578
0.000283753
0.000283885
0.000283975
0.000284025
0.000284038
0.000284015
0.000283958
0.000283869
0.000283748
0.000283598
0.00028342
0.000283215
0.000282984
0.000282729
0.000282451
0.00028215
0.000281828
0.000281486
0.000281124
0.000280744
0.000280346
0.00027993
0.000279498
0.00027905
0.000278586
0.000278108
0.000277615
0.000277108
0.000276588
0.000276054
0.000275507
0.000274948
0.000274376
0.000273792
0.000273196
0.000272588
0.000271969
0.000271338
0.000270695
0.000270041
0.000269376
0.000268699
0.000268012
0.000267312
0.000266601
0.000265879
0.000265145
0.0002644
0.000263643
0.000262874
0.000262093
0.0002613
0.000260494
0.000259676
0.000258845
0.000258001
0.000257144
0.000256274
0.00025539
0.000254493
0.000253581
0.000252654
0.000251714
0.000250758
0.000249787
0.0002488
0.000247798
0.000246779
0.000245744
0.000244692
0.000243623
0.000242537
0.000241433
0.000240311
0.00023917
0.000238011
0.000236833
0.000235635
0.000234418
0.00023318
0.000231922
0.000230643
0.000229344
0.000228022
0.000226679
0.000225314
0.000223927
0.000222517
0.000221083
0.000219626
0.000218146
0.000216641
0.000215112
0.000213558
0.000211979
0.000210375
0.000208744
0.000207088
0.000205405
0.000203695
0.000201957
0.000200192
0.000198399
0.000196577
0.000194725
0.000192844
0.000190933
0.000188991
0.000187017
0.000185011
0.000182971
0.000180897
0.000178789
0.000176644
0.000174461
0.000172239
0.000169977
0.000167672
0.000165323
0.000162927
0.000160481
0.000157982
0.000155428
0.000152813
0.000150136
0.000147396
0.000144602
0.000141727
0.000138753
0.000135668
0.000132457
0.000129101
0.000125574
0.000121847
0.000117876
0.00011361
0.000109022
0.000103982
9.83269e-05
9.18073e-05
8.39885e-05
7.40525e-05
6.14962e-05
0.00018246
0.00012098
8.66522e-05
0.000105471
0.000120385
0.000132938
0.000143489
0.000152632
0.000160765
0.000168289
0.000175188
0.000181595
0.000187586
0.000193215
0.000198525
0.000203549
0.000208315
0.000212843
0.000217152
0.000221256
0.000225167
0.000228895
0.000232448
0.000235835
0.000239063
0.000242137
0.000245063
0.000247845
0.00025049
0.000253
0.000255381
0.000257636
0.00025977
0.000261786
0.000263687
0.000265479
0.000267163
0.000268744
0.000270226
0.000271611
0.000272902
0.000274104
0.000275219
0.00027625
0.000277201
0.000278091
0.000278908
0.000279653
0.000280329
0.000280938
0.000281484
0.000281969
0.000282396
0.000282768
0.000283088
0.000283357
0.000283578
0.000283753
0.000283885
0.000283975
0.000284025
0.000284038
0.000284015
0.000283958
0.000283869
0.000283748
0.000283598
0.00028342
0.000283215
0.000282984
0.000282729
0.000282451
0.00028215
0.000281828
0.000281486
0.000281124
0.000280744
0.000280346
0.00027993
0.000279498
0.00027905
0.000278586
0.000278108
0.000277615
0.000277108
0.000276588
0.000276054
0.000275507
0.000274948
0.000274376
0.000273792
0.000273196
0.000272588
0.000271969
0.000271338
0.000270695
0.000270041
0.000269376
0.000268699
0.000268011
0.000267312
0.000266601
0.000265879
0.000265145
0.0002644
0.000263643
0.000262874
0.000262093
0.0002613
0.000260494
0.000259676
0.000258845
0.000258001
0.000257144
0.000256274
0.00025539
0.000254492
0.000253581
0.000252654
0.000251713
0.000250758
0.000249787
0.0002488
0.000247798
0.000246779
0.000245744
0.000244692
0.000243623
0.000242537
0.000241433
0.000240311
0.00023917
0.000238011
0.000236833
0.000235635
0.000234418
0.00023318
0.000231922
0.000230643
0.000229344
0.000228022
0.000226679
0.000225314
0.000223927
0.000222517
0.000221083
0.000219626
0.000218146
0.000216641
0.000215112
0.000213558
0.000211979
0.000210375
0.000208744
0.000207088
0.000205405
0.000203695
0.000201957
0.000200192
0.000198399
0.000196577
0.000194725
0.000192844
0.000190933
0.000188991
0.000187017
0.000185011
0.000182971
0.000180897
0.000178789
0.000176644
0.000174461
0.000172239
0.000169977
0.000167672
0.000165323
0.000162927
0.000160481
0.000157982
0.000155428
0.000152813
0.000150136
0.000147396
0.000144602
0.000141727
0.000138753
0.000135668
0.000132457
0.000129101
0.000125574
0.000121847
0.000117876
0.00011361
0.000109022
0.000103982
9.83268e-05
9.18071e-05
8.39878e-05
7.40514e-05
6.15012e-05
0.000182468
7.52587e-05
0.000548176
0.000867445
0.00109142
0.00125807
0.00139452
0.00151155
0.00161444
0.00170594
0.00178885
0.00186471
0.00193465
0.00199953
0.00206001
0.00211662
0.00216976
0.00221978
0.00226695
0.00231151
0.00235366
0.00239357
0.00243139
0.00246724
0.00250125
0.00253352
0.00256413
0.00259317
0.00262072
0.00264684
0.0026716
0.00269506
0.00271726
0.00273828
0.00275814
0.0027769
0.00279461
0.00281129
0.002827
0.00284176
0.00285561
0.00286859
0.00288073
0.00289202
0.00290245
0.00291184
0.00292045
0.00292839
0.00293569
0.00294239
0.00294852
0.00295411
0.00295918
0.00296375
0.00296784
0.00297147
0.00297466
0.00297743
0.00297979
0.00298177
0.00298337
0.00298461
0.00298551
0.00298608
0.00298633
0.00298627
0.00298593
0.0029853
0.0029844
0.00298324
0.00298184
0.00298019
0.00297831
0.0029762
0.00297388
0.00297135
0.00296862
0.00296569
0.00296257
0.00295927
0.00295579
0.00295214
0.00294832
0.00294433
0.00294018
0.00293587
0.00293141
0.0029268
0.00292203
0.00291712
0.00291207
0.00290686
0.00290152
0.00289604
0.00289042
0.00288465
0.00287875
0.00287271
0.00286653
0.00286021
0.00285376
0.00284716
0.00284043
0.00283355
0.00282653
0.00281937
0.00281207
0.00280462
0.00279702
0.00278927
0.00278138
0.00277332
0.00276512
0.00275676
0.00274824
0.00273955
0.00273071
0.00272169
0.00271251
0.00270315
0.00269362
0.00268392
0.00267403
0.00266396
0.0026537
0.00264325
0.00263261
0.00262177
0.00261073
0.00259949
0.00258804
0.00257638
0.00256451
0.00255243
0.00254012
0.00252759
0.00251484
0.00250185
0.00248863
0.00247518
0.00246148
0.00244754
0.00243336
0.00241892
0.00240423
0.00238928
0.00237407
0.00235859
0.00234284
0.00232683
0.00231053
0.00229396
0.0022771
0.00225995
0.00224251
0.00222477
0.00220673
0.00218839
0.00216973
0.00215075
0.00213145
0.00211181
0.00209184
0.00207153
0.00205085
0.00202982
0.00200841
0.00198662
0.00196443
0.00194183
0.00191881
0.00189534
0.00187141
0.00184699
0.00182207
0.0017966
0.00177057
0.00174392
0.00171662
0.00168861
0.00165981
0.00163012
0.00159943
0.00156752
0.00153441
0.0015
0.00146416
0.00142668
0.00138731
0.00134569
0.00130135
0.0012536
0.0012013
0.00114231
0.00107566
0.000998581
0.00090638
0.000790557
0.000633939
0.000397562
5.34742e-05
7.52532e-05
0.00054818
0.000867461
0.00109144
0.00125809
0.00139454
0.00151157
0.00161446
0.00170596
0.00178887
0.00186473
0.00193466
0.00199955
0.00206003
0.00211664
0.00216978
0.00221979
0.00226696
0.00231152
0.00235367
0.00239358
0.0024314
0.00246725
0.00250126
0.00253353
0.00256414
0.00259318
0.00262073
0.00264685
0.00267161
0.00269507
0.00271727
0.00273829
0.00275815
0.00277691
0.00279461
0.0028113
0.002827
0.00284177
0.00285562
0.0028686
0.00288073
0.00289203
0.00290246
0.00291184
0.00292046
0.0029284
0.00293569
0.0029424
0.00294853
0.00295412
0.00295919
0.00296375
0.00296784
0.00297148
0.00297467
0.00297744
0.0029798
0.00298177
0.00298337
0.00298462
0.00298551
0.00298608
0.00298633
0.00298628
0.00298593
0.00298531
0.00298441
0.00298325
0.00298184
0.00298019
0.00297831
0.00297621
0.00297389
0.00297136
0.00296863
0.0029657
0.00296258
0.00295928
0.0029558
0.00295215
0.00294832
0.00294434
0.00294019
0.00293588
0.00293142
0.0029268
0.00292204
0.00291713
0.00291207
0.00290687
0.00290153
0.00289604
0.00289042
0.00288466
0.00287876
0.00287272
0.00286654
0.00286022
0.00285376
0.00284717
0.00284043
0.00283356
0.00282654
0.00281938
0.00281207
0.00280462
0.00279702
0.00278928
0.00278138
0.00277333
0.00276513
0.00275676
0.00274824
0.00273956
0.00273071
0.0027217
0.00271252
0.00270316
0.00269363
0.00268392
0.00267403
0.00266396
0.0026537
0.00264325
0.00263261
0.00262177
0.00261073
0.00259949
0.00258804
0.00257639
0.00256452
0.00255243
0.00254013
0.0025276
0.00251484
0.00250186
0.00248864
0.00247518
0.00246149
0.00244755
0.00243336
0.00241892
0.00240423
0.00238928
0.00237407
0.00235859
0.00234285
0.00232683
0.00231054
0.00229396
0.0022771
0.00225996
0.00224252
0.00222478
0.00220674
0.00218839
0.00216973
0.00215075
0.00213145
0.00211182
0.00209185
0.00207153
0.00205086
0.00202982
0.00200842
0.00198663
0.00196444
0.00194184
0.00191881
0.00189535
0.00187141
0.001847
0.00182207
0.00179661
0.00177057
0.00174393
0.00171662
0.00168861
0.00165981
0.00163013
0.00159943
0.00156753
0.00153441
0.0015
0.00146417
0.00142669
0.00138731
0.0013457
0.00130136
0.0012536
0.00120131
0.00114231
0.00107566
0.000998583
0.00090638
0.000790557
0.000633945
0.000397558
5.3466e-05
9.09265e-05
0.000829467
0.00147464
0.00195735
0.00233731
0.00265234
0.00292281
0.00316047
0.00337249
0.00356396
0.00373846
0.00389859
0.00404636
0.00418333
0.00431075
0.00442965
0.00454087
0.00464513
0.00474304
0.00483513
0.00492186
0.00500364
0.00508083
0.00515373
0.00522265
0.00528783
0.00534951
0.0054079
0.00546319
0.00551555
0.00556514
0.00561211
0.0056566
0.00569872
0.00573859
0.00577632
0.00581201
0.00584575
0.00587761
0.00590769
0.00593604
0.00596272
0.00598777
0.00601118
0.00603289
0.00605312
0.00607199
0.00608959
0.00610599
0.00612126
0.00613545
0.0061486
0.00616076
0.00617197
0.00618227
0.00619169
0.00620026
0.00620802
0.006215
0.00622123
0.00622673
0.00623153
0.00623565
0.00623913
0.00624198
0.00624422
0.00624588
0.00624697
0.00624752
0.00624754
0.00624705
0.00624606
0.00624459
0.00624266
0.00624027
0.00623744
0.00623418
0.00623051
0.00622643
0.00622195
0.00621708
0.00621183
0.00620621
0.00620023
0.00619388
0.00618718
0.00618013
0.00617274
0.00616501
0.00615694
0.00614853
0.0061398
0.00613074
0.00612135
0.00611163
0.00610159
0.00609123
0.00608054
0.00606953
0.00605819
0.00604653
0.00603453
0.00602221
0.00600956
0.00599657
0.00598324
0.00596958
0.00595557
0.00594122
0.00592651
0.00591145
0.00589604
0.00588026
0.00586411
0.00584759
0.00583069
0.00581341
0.00579574
0.00577767
0.0057592
0.00574033
0.00572104
0.00570134
0.00568121
0.00566065
0.00563964
0.00561819
0.00559629
0.00557393
0.0055511
0.0055278
0.00550401
0.00547973
0.00545496
0.00542968
0.00540388
0.00537757
0.00535072
0.00532334
0.00529541
0.00526693
0.00523788
0.00520827
0.00517807
0.00514728
0.00511589
0.00508389
0.00505128
0.00501803
0.00498415
0.00494961
0.00491442
0.00487854
0.00484198
0.00480472
0.00476675
0.00472804
0.00468859
0.00464838
0.00460739
0.0045656
0.00452298
0.00447952
0.00443519
0.00438996
0.00434381
0.00429669
0.00424858
0.00419943
0.00414919
0.00409782
0.00404526
0.00399144
0.0039363
0.00387975
0.00382169
0.00376201
0.00370059
0.00363726
0.00357184
0.00350411
0.00343378
0.00336054
0.00328411
0.00320415
0.00312015
0.00303148
0.00293737
0.0028368
0.00272836
0.00261017
0.00247956
0.00233265
0.00216508
0.00197021
0.00173754
0.00145041
0.00108183
0.000592721
6.50578e-05
9.09273e-05
0.000829481
0.00147467
0.00195739
0.00233735
0.00265238
0.00292285
0.00316051
0.00337253
0.003564
0.00373849
0.00389863
0.00404639
0.00418336
0.00431078
0.00442968
0.0045409
0.00464515
0.00474306
0.00483515
0.00492189
0.00500366
0.00508085
0.00515375
0.00522267
0.00528785
0.00534953
0.00540792
0.00546321
0.00551556
0.00556516
0.00561213
0.00565661
0.00569873
0.0057386
0.00577633
0.00581202
0.00584576
0.00587762
0.0059077
0.00593605
0.00596273
0.00598777
0.00601118
0.0060329
0.00605313
0.006072
0.0060896
0.006106
0.00612127
0.00613545
0.00614861
0.00616077
0.00617198
0.00618227
0.00619169
0.00620027
0.00620803
0.006215
0.00622123
0.00622673
0.00623153
0.00623566
0.00623913
0.00624198
0.00624422
0.00624588
0.00624698
0.00624752
0.00624754
0.00624705
0.00624606
0.00624459
0.00624266
0.00624027
0.00623744
0.00623419
0.00623051
0.00622643
0.00622195
0.00621708
0.00621184
0.00620622
0.00620023
0.00619388
0.00618718
0.00618013
0.00617274
0.00616501
0.00615694
0.00614854
0.0061398
0.00613074
0.00612135
0.00611164
0.0061016
0.00609123
0.00608054
0.00606953
0.00605819
0.00604653
0.00603454
0.00602221
0.00600956
0.00599657
0.00598325
0.00596958
0.00595557
0.00594122
0.00592651
0.00591146
0.00589604
0.00588026
0.00586411
0.00584759
0.00583069
0.00581341
0.00579574
0.00577767
0.0057592
0.00574033
0.00572105
0.00570134
0.00568121
0.00566065
0.00563964
0.0056182
0.00559629
0.00557393
0.0055511
0.0055278
0.00550401
0.00547973
0.00545496
0.00542968
0.00540388
0.00537757
0.00535072
0.00532334
0.00529541
0.00526693
0.00523788
0.00520827
0.00517807
0.00514728
0.00511589
0.00508389
0.00505128
0.00501803
0.00498415
0.00494961
0.00491442
0.00487854
0.00484198
0.00480472
0.00476675
0.00472804
0.00468859
0.00464838
0.00460739
0.0045656
0.00452298
0.00447952
0.00443519
0.00438996
0.00434381
0.00429669
0.00424858
0.00419943
0.00414919
0.00409782
0.00404526
0.00399144
0.0039363
0.00387975
0.00382169
0.00376201
0.00370059
0.00363726
0.00357185
0.00350411
0.00343378
0.00336054
0.00328411
0.00320415
0.00312015
0.00303148
0.00293737
0.0028368
0.00272836
0.00261017
0.00247956
0.00233265
0.00216508
0.00197021
0.00173754
0.00145041
0.00108182
0.000592716
6.50588e-05
0.000102918
0.00100073
0.00188186
0.00258092
0.00315151
0.00363298
0.00404997
0.00441815
0.00474787
0.00504633
0.00531875
0.00556899
0.00580002
0.00601419
0.00621338
0.00639915
0.00657281
0.00673545
0.00688803
0.00703139
0.00716625
0.00729326
0.007413
0.00752599
0.0076327
0.00773354
0.00782892
0.00791916
0.0080046
0.00808553
0.00816221
0.00823488
0.00830378
0.0083691
0.00843104
0.00848978
0.00854546
0.00859825
0.00864827
0.00869566
0.00874051
0.00878292
0.00882298
0.00886072
0.00889619
0.00892957
0.00896096
0.00899051
0.00901829
0.00904441
0.00906894
0.00909195
0.0091135
0.00913366
0.00915247
0.00917
0.00918629
0.00920138
0.00921532
0.00922815
0.00923991
0.00925064
0.00926036
0.00926913
0.00927695
0.00928388
0.00928993
0.00929513
0.00929951
0.0093031
0.00930591
0.00930797
0.0093093
0.00930991
0.00930983
0.00930908
0.00930767
0.00930561
0.00930292
0.00929961
0.00929569
0.00929118
0.00928609
0.00928042
0.00927419
0.00926739
0.00926004
0.00925215
0.00924372
0.00923475
0.00922525
0.00921522
0.00920467
0.00919359
0.00918199
0.00916988
0.00915724
0.00914407
0.00913039
0.00911619
0.00910146
0.0090862
0.00907042
0.0090541
0.00903724
0.00901985
0.00900191
0.00898341
0.00896437
0.00894476
0.00892459
0.00890384
0.00888251
0.00886059
0.00883808
0.00881497
0.00879124
0.00876689
0.00874192
0.00871631
0.00869005
0.00866313
0.00863555
0.00860729
0.00857835
0.0085487
0.00851835
0.00848728
0.00845548
0.00842293
0.00838964
0.00835557
0.00832073
0.00828509
0.00824866
0.0082114
0.00817332
0.00813439
0.00809461
0.00805395
0.00801241
0.00796996
0.0079266
0.00788231
0.00783708
0.00779087
0.00774369
0.0076955
0.0076463
0.00759606
0.00754475
0.00749237
0.00743889
0.00738428
0.00732852
0.00727158
0.00721344
0.00715406
0.00709341
0.00703146
0.00696817
0.00690349
0.00683739
0.00676982
0.00670073
0.00663005
0.00655774
0.00648371
0.00640789
0.0063302
0.00625054
0.00616881
0.0060849
0.00599866
0.00590994
0.00581857
0.00572434
0.00562703
0.00552635
0.00542199
0.00531355
0.0052006
0.00508261
0.004959
0.00482906
0.0046919
0.00454642
0.00439118
0.0042244
0.00404374
0.00384617
0.00362765
0.00338278
0.00310442
0.00278339
0.00240618
0.00195372
0.00140019
0.000722262
7.40838e-05
0.000102918
0.00100075
0.0018819
0.00258097
0.00315156
0.00363304
0.00405003
0.00441821
0.00474792
0.00504639
0.0053188
0.00556904
0.00580007
0.00601423
0.00621342
0.0063992
0.00657285
0.00673549
0.00688807
0.00703142
0.00716628
0.00729329
0.00741303
0.00752602
0.00763272
0.00773357
0.00782894
0.00791919
0.00800463
0.00808555
0.00816223
0.0082349
0.0083038
0.00836912
0.00843106
0.00848979
0.00854548
0.00859826
0.00864828
0.00869567
0.00874052
0.00878293
0.00882298
0.00886073
0.0088962
0.00892957
0.00896097
0.00899051
0.0090183
0.00904442
0.00906894
0.00909195
0.0091135
0.00913366
0.00915248
0.00917
0.00918629
0.00920138
0.00921532
0.00922815
0.00923991
0.00925064
0.00926037
0.00926913
0.00927695
0.00928388
0.00928993
0.00929513
0.00929951
0.0093031
0.00930591
0.00930797
0.00930929
0.00930991
0.00930983
0.00930908
0.00930767
0.00930561
0.00930292
0.00929961
0.00929569
0.00929118
0.00928609
0.00928042
0.00927418
0.00926739
0.00926004
0.00925215
0.00924372
0.00923475
0.00922525
0.00921522
0.00920467
0.00919359
0.00918199
0.00916987
0.00915723
0.00914407
0.00913039
0.00911619
0.00910146
0.0090862
0.00907041
0.00905409
0.00903724
0.00901984
0.0090019
0.00898341
0.00896437
0.00894476
0.00892458
0.00890384
0.00888251
0.00886059
0.00883808
0.00881496
0.00879124
0.00876689
0.00874192
0.0087163
0.00869005
0.00866313
0.00863555
0.00860729
0.00857834
0.0085487
0.00851835
0.00848728
0.00845547
0.00842293
0.00838963
0.00835557
0.00832072
0.00828509
0.00824865
0.0082114
0.00817331
0.00813439
0.0080946
0.00805394
0.0080124
0.00796996
0.0079266
0.00788231
0.00783707
0.00779087
0.00774368
0.0076955
0.00764629
0.00759605
0.00754475
0.00749237
0.00743889
0.00738428
0.00732852
0.00727158
0.00721343
0.00715405
0.00709341
0.00703145
0.00696816
0.00690349
0.00683739
0.00676982
0.00670072
0.00663005
0.00655773
0.0064837
0.00640788
0.00633019
0.00625054
0.00616881
0.00608489
0.00599865
0.00590993
0.00581856
0.00572434
0.00562702
0.00552635
0.00542198
0.00531355
0.00520059
0.0050826
0.00495899
0.00482906
0.0046919
0.00454641
0.00439118
0.0042244
0.00404373
0.00384617
0.00362765
0.00338278
0.00310442
0.00278339
0.00240618
0.00195372
0.0014002
0.000722261
7.40842e-05
0.000112692
0.00111758
0.00217246
0.00304531
0.00377499
0.00439944
0.00494503
0.00542963
0.00586561
0.00626174
0.00662443
0.00695852
0.00726772
0.00755496
0.00782264
0.00807271
0.00830681
0.00852636
0.00873256
0.00892648
0.00910906
0.00928114
0.00944347
0.00959674
0.00974156
0.0098785
0.0100081
0.0101307
0.010247
0.0103571
0.0104616
0.0105606
0.0106547
0.0107439
0.0108287
0.0109092
0.0109856
0.0110582
0.0111272
0.0111927
0.0112548
0.0113138
0.0113697
0.0114227
0.0114728
0.0115202
0.011565
0.0116075
0.0116477
0.0116856
0.0117215
0.0117554
0.0117874
0.0118176
0.011846
0.0118728
0.0118979
0.0119215
0.0119435
0.0119641
0.0119833
0.0120012
0.0120177
0.012033
0.0120471
0.01206
0.0120717
0.0120823
0.0120918
0.0121003
0.0121077
0.0121142
0.0121197
0.0121242
0.0121278
0.0121305
0.0121324
0.0121333
0.0121335
0.0121327
0.0121312
0.0121289
0.0121258
0.0121218
0.0121172
0.0121117
0.0121056
0.0120986
0.012091
0.0120826
0.0120735
0.0120636
0.0120531
0.0120418
0.0120298
0.0120171
0.0120036
0.0119895
0.0119746
0.0119591
0.0119428
0.0119257
0.011908
0.0118895
0.0118703
0.0118503
0.0118296
0.0118081
0.0117859
0.0117629
0.0117391
0.0117145
0.0116891
0.0116629
0.0116359
0.0116081
0.0115795
0.0115499
0.0115196
0.0114883
0.0114562
0.0114231
0.0113892
0.0113543
0.0113185
0.0112817
0.0112439
0.0112052
0.0111654
0.0111247
0.0110829
0.01104
0.0109961
0.0109511
0.010905
0.0108578
0.0108094
0.0107598
0.0107091
0.0106572
0.010604
0.0105496
0.010494
0.010437
0.0103787
0.0103191
0.0102581
0.0101957
0.0101319
0.0100667
0.00999993
0.00993167
0.00986186
0.00979046
0.00971744
0.00964275
0.00956634
0.00948818
0.00940821
0.00932639
0.00924264
0.00915691
0.00906914
0.00897924
0.00888715
0.00879277
0.00869601
0.00859676
0.00849491
0.00839033
0.00828287
0.00817238
0.00805868
0.00794157
0.00782081
0.00769614
0.00756727
0.00743383
0.00729544
0.00715162
0.00700181
0.00684538
0.00668158
0.00650951
0.00632813
0.00613611
0.00593188
0.00571344
0.00547829
0.00522331
0.00494449
0.00463668
0.00429332
0.0039059
0.00346364
0.00295229
0.00235344
0.00164581
0.000821171
8.12999e-05
0.000112692
0.0011176
0.00217249
0.00304536
0.00377504
0.0043995
0.00494509
0.0054297
0.00586568
0.0062618
0.0066245
0.00695858
0.00726778
0.00755502
0.0078227
0.00807277
0.00830687
0.00852641
0.00873261
0.00892653
0.0091091
0.00928118
0.00944351
0.00959678
0.0097416
0.00987853
0.0100081
0.0101308
0.010247
0.0103571
0.0104616
0.0105607
0.0106547
0.0107439
0.0108287
0.0109092
0.0109856
0.0110582
0.0111272
0.0111927
0.0112548
0.0113138
0.0113697
0.0114227
0.0114728
0.0115202
0.0115651
0.0116075
0.0116477
0.0116856
0.0117215
0.0117554
0.0117874
0.0118176
0.011846
0.0118728
0.0118979
0.0119215
0.0119435
0.0119641
0.0119833
0.0120012
0.0120177
0.012033
0.0120471
0.01206
0.0120717
0.0120823
0.0120918
0.0121003
0.0121077
0.0121142
0.0121197
0.0121242
0.0121278
0.0121305
0.0121324
0.0121333
0.0121335
0.0121327
0.0121312
0.0121289
0.0121258
0.0121218
0.0121172
0.0121117
0.0121056
0.0120986
0.012091
0.0120826
0.0120735
0.0120636
0.012053
0.0120418
0.0120298
0.0120171
0.0120036
0.0119895
0.0119746
0.0119591
0.0119428
0.0119257
0.011908
0.0118895
0.0118703
0.0118503
0.0118296
0.0118081
0.0117859
0.0117629
0.0117391
0.0117145
0.0116891
0.0116629
0.0116359
0.0116081
0.0115795
0.0115499
0.0115196
0.0114883
0.0114562
0.0114231
0.0113892
0.0113543
0.0113185
0.0112817
0.0112439
0.0112052
0.0111654
0.0111247
0.0110829
0.01104
0.0109961
0.0109511
0.010905
0.0108578
0.0108094
0.0107598
0.0107091
0.0106572
0.010604
0.0105496
0.010494
0.010437
0.0103787
0.0103191
0.0102581
0.0101957
0.0101319
0.0100667
0.00999993
0.00993167
0.00986186
0.00979046
0.00971743
0.00964274
0.00956634
0.00948817
0.00940821
0.00932638
0.00924263
0.0091569
0.00906913
0.00897924
0.00888714
0.00879276
0.008696
0.00859675
0.0084949
0.00839032
0.00828286
0.00817238
0.00805868
0.00794156
0.0078208
0.00769613
0.00756726
0.00743383
0.00729543
0.00715161
0.00700181
0.00684538
0.00668157
0.00650951
0.00632812
0.00613611
0.00593188
0.00571343
0.00547829
0.00522331
0.00494448
0.00463668
0.00429332
0.0039059
0.00346364
0.00295229
0.00235344
0.00164581
0.000821169
8.13e-05
0.000121017
0.00121059
0.00239777
0.00340878
0.00426896
0.00501346
0.00566898
0.00625456
0.00678381
0.00726657
0.00771015
0.00812006
0.00850059
0.00885512
0.00918639
0.00949664
0.00978778
0.0100614
0.010319
0.0105616
0.0107905
0.0110066
0.0112108
0.0114038
0.0115864
0.0117593
0.0119231
0.0120783
0.0122256
0.0123653
0.0124979
0.0126238
0.0127434
0.0128571
0.0129652
0.013068
0.0131658
0.0132588
0.0133473
0.0134315
0.0135116
0.0135877
0.0136601
0.0137289
0.0137943
0.0138563
0.0139153
0.0139713
0.0140245
0.0140749
0.0141229
0.0141683
0.0142115
0.0142523
0.0142911
0.0143277
0.0143624
0.0143952
0.0144261
0.0144552
0.0144826
0.0145083
0.0145325
0.0145551
0.0145761
0.0145958
0.014614
0.0146308
0.0146463
0.0146605
0.0146735
0.0146852
0.0146957
0.014705
0.0147132
0.0147203
0.0147263
0.0147312
0.014735
0.0147378
0.0147396
0.0147404
0.0147402
0.014739
0.0147369
0.0147338
0.0147298
0.0147248
0.0147189
0.0147121
0.0147044
0.0146957
0.0146862
0.0146757
0.0146643
0.0146521
0.0146389
0.0146248
0.0146099
0.014594
0.0145772
0.0145594
0.0145408
0.0145212
0.0145007
0.0144793
0.0144569
0.0144335
0.0144092
0.0143839
0.0143576
0.0143303
0.014302
0.0142727
0.0142423
0.0142109
0.0141785
0.0141449
0.0141103
0.0140745
0.0140377
0.0139997
0.0139605
0.0139201
0.0138786
0.0138359
0.0137919
0.0137466
0.0137001
0.0136523
0.0136032
0.0135528
0.0135009
0.0134478
0.0133931
0.0133371
0.0132796
0.0132206
0.0131602
0.0130981
0.0130346
0.0129694
0.0129026
0.0128341
0.012764
0.0126921
0.0126184
0.012543
0.0124657
0.0123866
0.0123055
0.0122225
0.0121375
0.0120504
0.0119611
0.0118698
0.0117762
0.0116802
0.011582
0.0114813
0.011378
0.0112722
0.0111637
0.0110524
0.0109382
0.010821
0.0107006
0.010577
0.0104499
0.0103191
0.0101846
0.010046
0.00990318
0.00975578
0.00960353
0.00944607
0.009283
0.00911386
0.0089381
0.00875512
0.00856419
0.00836447
0.00815497
0.00793453
0.00770175
0.00745496
0.0071921
0.0069107
0.00660769
0.00627927
0.00592073
0.00552619
0.00508831
0.00459787
0.00404338
0.00341107
0.00268435
0.00184681
0.00090247
8.73983e-05
0.000121017
0.00121061
0.0023978
0.00340883
0.00426901
0.00501352
0.00566904
0.00625463
0.00678388
0.00726664
0.00771022
0.00812014
0.00850066
0.00885519
0.00918645
0.00949671
0.00978785
0.0100615
0.010319
0.0105617
0.0107906
0.0110067
0.0112108
0.0114038
0.0115864
0.0117593
0.0119231
0.0120784
0.0122256
0.0123653
0.0124979
0.0126238
0.0127435
0.0128572
0.0129653
0.0130681
0.0131658
0.0132588
0.0133473
0.0134315
0.0135116
0.0135877
0.0136601
0.0137289
0.0137943
0.0138564
0.0139153
0.0139713
0.0140245
0.0140749
0.0141229
0.0141683
0.0142115
0.0142523
0.0142911
0.0143277
0.0143624
0.0143952
0.0144261
0.0144552
0.0144826
0.0145083
0.0145325
0.0145551
0.0145761
0.0145958
0.014614
0.0146308
0.0146463
0.0146605
0.0146735
0.0146852
0.0146957
0.014705
0.0147132
0.0147203
0.0147263
0.0147312
0.014735
0.0147378
0.0147396
0.0147404
0.0147402
0.014739
0.0147369
0.0147338
0.0147298
0.0147248
0.0147189
0.0147121
0.0147044
0.0146957
0.0146862
0.0146757
0.0146643
0.0146521
0.0146389
0.0146248
0.0146099
0.014594
0.0145772
0.0145594
0.0145408
0.0145212
0.0145007
0.0144793
0.0144569
0.0144335
0.0144092
0.0143839
0.0143576
0.0143303
0.014302
0.0142727
0.0142423
0.0142109
0.0141785
0.0141449
0.0141103
0.0140745
0.0140377
0.0139997
0.0139605
0.0139201
0.0138786
0.0138359
0.0137919
0.0137466
0.0137001
0.0136523
0.0136032
0.0135528
0.0135009
0.0134477
0.0133931
0.0133371
0.0132796
0.0132206
0.0131602
0.0130981
0.0130346
0.0129694
0.0129026
0.0128341
0.0127639
0.0126921
0.0126184
0.012543
0.0124657
0.0123866
0.0123055
0.0122225
0.0121375
0.0120504
0.0119611
0.0118698
0.0117761
0.0116802
0.011582
0.0114813
0.011378
0.0112722
0.0111637
0.0110524
0.0109382
0.010821
0.0107006
0.010577
0.0104499
0.0103191
0.0101846
0.010046
0.00990317
0.00975578
0.00960352
0.00944607
0.00928299
0.00911385
0.0089381
0.00875512
0.00856419
0.00836447
0.00815497
0.00793452
0.00770175
0.00745495
0.0071921
0.0069107
0.00660768
0.00627926
0.00592073
0.00552619
0.0050883
0.00459787
0.00404338
0.00341107
0.00268435
0.00184681
0.000902467
8.73983e-05
0.000128415
0.00129027
0.00258381
0.00370631
0.00467374
0.00551861
0.00626736
0.00693964
0.0075498
0.00810845
0.00862352
0.00910104
0.0095457
0.00996121
0.0103506
0.0107163
0.0110604
0.0113846
0.0116905
0.0119794
0.0122525
0.0125108
0.0127554
0.0129871
0.0132067
0.0134149
0.0136125
0.0138
0.0139781
0.0141473
0.0143081
0.014461
0.0146065
0.0147449
0.0148767
0.0150021
0.0151216
0.0152354
0.0153438
0.0154471
0.0155455
0.0156393
0.0157286
0.0158137
0.0158948
0.0159719
0.0160454
0.0161154
0.016182
0.0162455
0.0163059
0.0163634
0.0164181
0.0164701
0.0165196
0.0165667
0.0166114
0.0166538
0.016694
0.0167322
0.0167683
0.0168024
0.0168346
0.016865
0.0168936
0.0169205
0.0169457
0.0169693
0.0169914
0.0170118
0.0170308
0.0170484
0.0170645
0.0170792
0.0170926
0.0171046
0.0171153
0.0171248
0.017133
0.0171399
0.0171457
0.0171502
0.0171536
0.0171558
0.0171568
0.0171568
0.0171556
0.0171532
0.0171498
0.0171452
0.0171396
0.0171329
0.017125
0.0171161
0.0171061
0.017095
0.0170829
0.0170696
0.0170553
0.0170398
0.0170233
0.0170056
0.0169869
0.016967
0.016946
0.0169238
0.0169006
0.0168761
0.0168505
0.0168238
0.0167958
0.0167666
0.0167362
0.0167046
0.0166717
0.0166376
0.0166022
0.0165655
0.0165275
0.0164881
0.0164474
0.0164053
0.0163618
0.0163169
0.0162705
0.0162227
0.0161734
0.0161225
0.0160702
0.0160163
0.0159607
0.0159036
0.0158448
0.0157844
0.0157222
0.0156583
0.0155926
0.0155251
0.0154558
0.0153847
0.0153116
0.0152366
0.0151595
0.0150805
0.0149994
0.0149162
0.0148309
0.0147433
0.0146535
0.0145614
0.0144669
0.0143701
0.0142707
0.0141688
0.0140643
0.0139572
0.0138472
0.0137345
0.0136188
0.0135001
0.0133782
0.0132532
0.0131248
0.012993
0.0128575
0.0127183
0.0125751
0.0124279
0.0122764
0.0121203
0.0119595
0.0117936
0.0116224
0.0114455
0.0112626
0.0110731
0.0108766
0.0106725
0.0104602
0.0102388
0.0100076
0.00976536
0.00951103
0.00924312
0.00895996
0.00865953
0.00833941
0.00799668
0.00762781
0.00722851
0.00679355
0.00631654
0.0057897
0.00520357
0.00454676
0.00380613
0.00296719
0.00201789
0.000972196
9.27372e-05
0.000128416
0.00129029
0.00258384
0.00370636
0.0046738
0.00551867
0.00626743
0.00693971
0.00754988
0.00810853
0.0086236
0.00910112
0.00954578
0.00996129
0.0103507
0.0107163
0.0110604
0.0113846
0.0116905
0.0119794
0.0122525
0.0125109
0.0127555
0.0129871
0.0132067
0.0134149
0.0136125
0.0138
0.0139781
0.0141473
0.0143081
0.0144611
0.0146065
0.0147449
0.0148767
0.0150021
0.0151216
0.0152354
0.0153438
0.0154471
0.0155455
0.0156393
0.0157286
0.0158137
0.0158948
0.0159719
0.0160454
0.0161154
0.016182
0.0162455
0.0163059
0.0163634
0.0164181
0.0164701
0.0165196
0.0165667
0.0166114
0.0166538
0.016694
0.0167322
0.0167683
0.0168024
0.0168346
0.016865
0.0168936
0.0169205
0.0169457
0.0169693
0.0169914
0.0170118
0.0170308
0.0170484
0.0170645
0.0170792
0.0170926
0.0171046
0.0171153
0.0171248
0.017133
0.0171399
0.0171457
0.0171502
0.0171536
0.0171558
0.0171568
0.0171568
0.0171555
0.0171532
0.0171498
0.0171452
0.0171396
0.0171329
0.017125
0.0171161
0.0171061
0.017095
0.0170829
0.0170696
0.0170553
0.0170398
0.0170233
0.0170056
0.0169869
0.016967
0.016946
0.0169238
0.0169006
0.0168761
0.0168505
0.0168237
0.0167958
0.0167666
0.0167362
0.0167046
0.0166717
0.0166376
0.0166022
0.0165655
0.0165274
0.0164881
0.0164474
0.0164053
0.0163618
0.0163169
0.0162705
0.0162227