/*--------------------------------*- C++ -*----------------------------------*\
  =========                 |
  \\      /  F ield         | OpenFOAM: The Open Source CFD Toolbox
   \\    /   O peration     | Website:  https://openfoam.org
    \\  /    A nd           | Version:  8
     \\/     M anipulation  |
\*---------------------------------------------------------------------------*/
FoamFile
{
    version     2.0;
    format      ascii;
    class       surfaceScalarField;
    location    "3300";
    object      phi;
}
// * * * * * * * * * * * * * * * * * * * * * * * * * * * * * * * * * * * * * //

dimensions      [1 0 -1 0 0 0 0];

internalField   nonuniform List<scalar> 
119360
(
-3.49567e-07
2.37922e-12
3.49565e-07
-6.12929e-07
8.28118e-13
2.63279e-07
-7.35186e-07
1.07731e-12
1.22246e-07
-7.29538e-07
5.39237e-13
-5.65943e-09
-6.29756e-07
2.54964e-13
-9.97917e-08
-4.65791e-07
1.70587e-13
-1.63974e-07
-2.59544e-07
-1.02962e-14
-2.06257e-07
-2.65087e-08
-3.21908e-13
-2.33046e-07
2.2186e-07
-6.29662e-13
-2.4838e-07
4.77224e-07
-7.79819e-13
-2.55374e-07
7.34204e-07
-7.58559e-13
-2.56989e-07
9.88986e-07
-6.35685e-13
-2.54788e-07
1.23885e-06
-4.72121e-13
-2.49871e-07
1.48184e-06
-3.1558e-13
-2.42995e-07
1.71654e-06
-1.90763e-13
-2.34702e-07
1.94192e-06
-1.03971e-13
-2.25392e-07
2.15728e-06
-5.01809e-14
-2.15365e-07
2.36213e-06
-2.02604e-14
-2.04853e-07
2.55616e-06
-4.85606e-15
-1.94036e-07
2.73921e-06
3.05429e-15
-1.83058e-07
2.91124e-06
8.13358e-15
-1.72035e-07
3.07229e-06
1.29353e-14
-1.6106e-07
3.22249e-06
1.83477e-14
-1.5021e-07
3.36203e-06
2.42041e-14
-1.39549e-07
3.49115e-06
3.04075e-14
-1.29127e-07
3.61013e-06
3.62778e-14
-1.18986e-07
3.71928e-06
4.14126e-14
-1.09161e-07
3.81895e-06
4.56038e-14
-9.9679e-08
3.90951e-06
4.88928e-14
-9.05608e-08
3.99132e-06
5.10994e-14
-8.18224e-08
4.06479e-06
5.26121e-14
-7.34752e-08
4.13031e-06
5.35142e-14
-6.55263e-08
4.18828e-06
5.40138e-14
-5.79794e-08
4.23911e-06
5.42498e-14
-5.08346e-08
4.28319e-06
5.43747e-14
-4.40896e-08
4.32093e-06
5.44719e-14
-3.77394e-08
4.3527e-06
5.45135e-14
-3.1777e-08
4.37888e-06
5.46246e-14
-2.61934e-08
4.39986e-06
5.46246e-14
-2.09782e-08
4.41597e-06
5.46385e-14
-1.61198e-08
4.42757e-06
5.4583e-14
-1.16053e-08
4.43498e-06
5.43471e-14
-7.42134e-09
4.43853e-06
5.40557e-14
-3.55392e-09
4.43851e-06
5.36671e-14
1.32036e-11
4.43521e-06
5.32508e-14
3.29475e-09
4.4289e-06
5.27651e-14
6.3049e-09
4.41984e-06
5.2099e-14
9.0597e-09
4.40826e-06
5.15716e-14
1.15744e-08
4.39439e-06
5.10859e-14
1.38637e-08
4.37844e-06
5.06141e-14
1.59419e-08
4.36061e-06
5.01423e-14
1.7823e-08
4.34109e-06
4.97676e-14
1.95203e-08
4.32004e-06
4.96149e-14
2.10468e-08
4.29762e-06
4.95039e-14
2.24151e-08
4.27397e-06
4.95455e-14
2.36369e-08
4.24925e-06
4.97121e-14
2.47237e-08
4.22355e-06
4.9948e-14
2.5686e-08
4.19702e-06
5.02533e-14
2.65341e-08
4.16973e-06
5.06835e-14
2.72773e-08
4.1418e-06
5.11692e-14
2.79245e-08
4.11331e-06
5.16827e-14
2.84842e-08
4.08435e-06
5.22378e-14
2.89639e-08
4.05497e-06
5.28485e-14
2.93708e-08
4.02525e-06
5.34729e-14
2.97117e-08
3.99526e-06
5.41113e-14
2.99926e-08
3.96503e-06
5.47636e-14
3.02193e-08
3.93463e-06
5.54019e-14
3.0397e-08
3.90409e-06
5.60125e-14
3.05305e-08
3.87346e-06
5.66787e-14
3.06242e-08
3.84278e-06
5.7206e-14
3.06823e-08
3.81206e-06
5.77472e-14
3.07083e-08
3.78135e-06
5.83162e-14
3.07059e-08
3.75067e-06
5.88158e-14
3.06781e-08
3.72004e-06
5.9246e-14
3.06277e-08
3.68947e-06
5.96623e-14
3.05574e-08
3.659e-06
5.99953e-14
3.04697e-08
3.62863e-06
6.03006e-14
3.03666e-08
3.59837e-06
6.05365e-14
3.02504e-08
3.56824e-06
6.06892e-14
3.01227e-08
3.53825e-06
6.08418e-14
2.99854e-08
3.50841e-06
6.10638e-14
2.984e-08
3.47872e-06
6.11332e-14
2.9688e-08
3.44918e-06
6.12164e-14
2.95306e-08
3.4198e-06
6.12164e-14
2.93693e-08
3.39059e-06
6.12442e-14
2.92051e-08
3.36155e-06
6.12025e-14
2.90391e-08
3.33267e-06
6.11331e-14
2.88723e-08
3.30396e-06
6.10082e-14
2.87056e-08
3.27542e-06
6.09249e-14
2.854e-08
3.24704e-06
6.07444e-14
2.83762e-08
3.21882e-06
6.05779e-14
2.8215e-08
3.19075e-06
6.04391e-14
2.80572e-08
3.16284e-06
6.03003e-14
2.79034e-08
3.13508e-06
6.01753e-14
2.77543e-08
3.10747e-06
5.99949e-14
2.76105e-08
3.07999e-06
5.97728e-14
2.74727e-08
3.05264e-06
5.95924e-14
2.73413e-08
3.02542e-06
5.94675e-14
2.72169e-08
2.99832e-06
5.93148e-14
2.71001e-08
2.97132e-06
5.91205e-14
2.69914e-08
2.94442e-06
5.894e-14
2.68911e-08
2.91762e-06
5.88567e-14
2.67998e-08
2.8909e-06
5.88151e-14
2.6718e-08
2.86424e-06
5.87873e-14
2.66461e-08
2.83765e-06
5.87734e-14
2.65844e-08
2.81112e-06
5.88289e-14
2.65334e-08
2.78462e-06
5.88705e-14
2.64936e-08
2.75815e-06
5.89676e-14
2.64652e-08
2.73169e-06
5.90925e-14
2.64487e-08
2.70524e-06
5.93561e-14
2.64444e-08
2.67879e-06
5.96059e-14
2.64527e-08
2.65231e-06
5.98973e-14
2.6474e-08
2.62579e-06
6.02859e-14
2.65085e-08
2.59923e-06
6.05911e-14
2.65567e-08
2.57261e-06
6.10907e-14
2.66188e-08
2.54591e-06
6.16319e-14
2.66952e-08
2.51912e-06
6.2298e-14
2.67862e-08
2.49222e-06
6.29919e-14
2.6892e-08
2.4652e-06
6.36858e-14
2.7013e-08
2.43805e-06
6.45601e-14
2.71494e-08
2.41074e-06
6.53927e-14
2.73015e-08
2.38326e-06
6.63919e-14
2.74696e-08
2.3556e-06
6.75576e-14
2.76539e-08
2.32774e-06
6.864e-14
2.78546e-08
2.29967e-06
6.9778e-14
2.8072e-08
2.27136e-06
7.1138e-14
2.83062e-08
2.24279e-06
7.2498e-14
2.85574e-08
2.21396e-06
7.40245e-14
2.88258e-08
2.18485e-06
7.56621e-14
2.91115e-08
2.15543e-06
7.72164e-14
2.94147e-08
2.12568e-06
7.9076e-14
2.97354e-08
2.09561e-06
8.08246e-14
3.00736e-08
2.06517e-06
8.2712e-14
3.04295e-08
2.03436e-06
8.47659e-14
3.08031e-08
2.00316e-06
8.67365e-14
3.11942e-08
1.97155e-06
8.89014e-14
3.16028e-08
1.93952e-06
9.10941e-14
3.20289e-08
1.90704e-06
9.34255e-14
3.24723e-08
1.8741e-06
9.57015e-14
3.29328e-08
1.84069e-06
9.81162e-14
3.341e-08
1.80678e-06
1.00503e-13
3.39039e-08
1.77236e-06
1.03057e-13
3.44139e-08
1.73741e-06
1.05499e-13
3.49398e-08
1.70192e-06
1.08191e-13
3.54809e-08
1.66588e-06
1.10773e-13
3.60369e-08
1.62927e-06
1.13576e-13
3.6607e-08
1.59207e-06
1.16379e-13
3.71905e-08
1.55428e-06
1.19349e-13
3.77868e-08
1.51587e-06
1.22513e-13
3.83949e-08
1.47685e-06
1.25705e-13
3.90138e-08
1.4372e-06
1.29175e-13
3.96426e-08
1.39692e-06
1.32866e-13
4.02799e-08
1.35599e-06
1.36696e-13
4.09246e-08
1.3144e-06
1.40721e-13
4.15751e-08
1.27217e-06
1.45134e-13
4.22299e-08
1.22927e-06
1.49797e-13
4.28873e-08
1.18572e-06
1.54654e-13
4.35453e-08
1.14151e-06
1.59761e-13
4.42019e-08
1.09664e-06
1.65035e-13
4.48547e-08
1.05113e-06
1.70669e-13
4.55012e-08
1.00499e-06
1.76248e-13
4.61387e-08
9.58214e-07
1.81799e-13
4.67641e-08
9.10831e-07
1.87433e-13
4.73739e-08
8.62857e-07
1.92652e-13
4.79645e-08
8.14316e-07
1.97564e-13
4.85317e-08
7.65235e-07
2.01755e-13
4.90709e-08
7.15648e-07
2.05058e-13
4.95769e-08
6.65593e-07
2.07279e-13
5.00442e-08
6.15117e-07
2.08222e-13
5.04662e-08
5.6427e-07
2.07917e-13
5.08359e-08
5.13113e-07
2.06502e-13
5.11452e-08
4.61717e-07
2.04087e-13
5.1385e-08
4.1016e-07
2.01589e-13
5.1545e-08
3.58535e-07
1.99452e-13
5.16135e-08
3.06945e-07
1.98758e-13
5.15773e-08
2.55512e-07
2.00645e-13
5.14212e-08
2.04372e-07
2.06002e-13
5.11275e-08
1.53683e-07
2.15689e-13
5.06759e-08
1.03627e-07
2.29428e-13
5.00426e-08
5.44161e-08
2.46581e-13
4.91975e-08
6.29393e-09
2.65232e-13
4.81082e-08
-4.0433e-08
2.80109e-13
4.67126e-08
-8.54093e-08
2.89602e-13
4.49616e-08
-1.28245e-07
2.9543e-13
4.28201e-08
-1.685e-07
2.94376e-13
4.02397e-08
-2.05662e-07
2.85216e-13
3.71461e-08
-2.39111e-07
2.67675e-13
3.34333e-08
-2.68124e-07
2.44194e-13
2.89973e-08
-2.91844e-07
2.18936e-13
2.37034e-08
-3.09253e-07
2.00673e-13
1.73916e-08
-3.19145e-07
2.0145e-13
9.87503e-09
-3.201e-07
2.30815e-13
9.37318e-10
-3.10525e-07
2.8183e-13
-9.59296e-09
-2.88699e-07
3.31069e-13
-2.18458e-08
-2.52896e-07
3.51386e-13
-3.5824e-08
-2.01884e-07
3.55771e-13
-5.10341e-08
-1.36172e-07
4.07174e-13
-6.57354e-08
-6.08592e-08
4.67515e-13
-7.53411e-08
1.97443e-09
4.90829e-13
-6.28731e-08
2.27817e-13
1.91234e-09
-3.49576e-07
3.49552e-07
-6.12926e-07
2.63274e-07
-7.35184e-07
1.22241e-07
-7.29534e-07
-5.66264e-09
-6.29751e-07
-9.97941e-08
-4.65786e-07
-1.63977e-07
-2.5954e-07
-2.0626e-07
-2.6505e-08
-2.33049e-07
2.21863e-07
-2.48382e-07
4.77227e-07
-2.55376e-07
7.34208e-07
-2.5699e-07
9.8899e-07
-2.5479e-07
1.23885e-06
-2.49872e-07
1.48184e-06
-2.42996e-07
1.71654e-06
-2.34703e-07
1.94193e-06
-2.25393e-07
2.15728e-06
-2.15366e-07
2.36213e-06
-2.04854e-07
2.55616e-06
-1.94037e-07
2.73921e-06
-1.83059e-07
2.91124e-06
-1.72036e-07
3.07229e-06
-1.61061e-07
3.22249e-06
-1.50212e-07
3.36203e-06
-1.3955e-07
3.49115e-06
-1.29128e-07
3.61013e-06
-1.18987e-07
3.71928e-06
-1.09162e-07
3.81895e-06
-9.968e-08
3.90951e-06
-9.05618e-08
3.99132e-06
-8.18234e-08
4.06479e-06
-7.34762e-08
4.13031e-06
-6.55273e-08
4.18828e-06
-5.79803e-08
4.23911e-06
-5.08355e-08
4.28319e-06
-4.40905e-08
4.32092e-06
-3.77403e-08
4.35269e-06
-3.17779e-08
4.37888e-06
-2.61943e-08
4.39985e-06
-2.09791e-08
4.41597e-06
-1.61206e-08
4.42757e-06
-1.16061e-08
4.43498e-06
-7.42218e-09
4.43853e-06
-3.55475e-09
4.43851e-06
1.23795e-11
4.43521e-06
3.29393e-09
4.4289e-06
6.30409e-09
4.41984e-06
9.05889e-09
4.40826e-06
1.15736e-08
4.39439e-06
1.38629e-08
4.37844e-06
1.59411e-08
4.36061e-06
1.78222e-08
4.34109e-06
1.95195e-08
4.32003e-06
2.1046e-08
4.29761e-06
2.24143e-08
4.27397e-06
2.36361e-08
4.24924e-06
2.47229e-08
4.22355e-06
2.56852e-08
4.19701e-06
2.65333e-08
4.16973e-06
2.72765e-08
4.1418e-06
2.79238e-08
4.11331e-06
2.84834e-08
4.08434e-06
2.89631e-08
4.05497e-06
2.937e-08
4.02525e-06
2.97109e-08
3.99525e-06
2.99918e-08
3.96503e-06
3.02185e-08
3.93463e-06
3.03962e-08
3.90409e-06
3.05297e-08
3.87346e-06
3.06234e-08
3.84278e-06
3.06815e-08
3.81206e-06
3.07076e-08
3.78135e-06
3.07051e-08
3.75067e-06
3.06773e-08
3.72004e-06
3.06269e-08
3.68947e-06
3.05567e-08
3.659e-06
3.04689e-08
3.62863e-06
3.03659e-08
3.59837e-06
3.02496e-08
3.56824e-06
3.01219e-08
3.53825e-06
2.99846e-08
3.50841e-06
2.98392e-08
3.47871e-06
2.96872e-08
3.44918e-06
2.95299e-08
3.4198e-06
2.93685e-08
3.39059e-06
2.92043e-08
3.36155e-06
2.90383e-08
3.33267e-06
2.88715e-08
3.30396e-06
2.87049e-08
3.27542e-06
2.85392e-08
3.24703e-06
2.83754e-08
3.21881e-06
2.82142e-08
3.19075e-06
2.80564e-08
3.16284e-06
2.79026e-08
3.13508e-06
2.77535e-08
3.10747e-06
2.76098e-08
3.07999e-06
2.74719e-08
3.05264e-06
2.73405e-08
3.02542e-06
2.72162e-08
2.99832e-06
2.70994e-08
2.97132e-06
2.69906e-08
2.94442e-06
2.68903e-08
2.91762e-06
2.67991e-08
2.8909e-06
2.67173e-08
2.86424e-06
2.66453e-08
2.83765e-06
2.65836e-08
2.81112e-06
2.65327e-08
2.78462e-06
2.64928e-08
2.75815e-06
2.64644e-08
2.73169e-06
2.64479e-08
2.70524e-06
2.64437e-08
2.67879e-06
2.6452e-08
2.65231e-06
2.64732e-08
2.62579e-06
2.65078e-08
2.59923e-06
2.6556e-08
2.57261e-06
2.66181e-08
2.54591e-06
2.66945e-08
2.51911e-06
2.67854e-08
2.49222e-06
2.68913e-08
2.4652e-06
2.70122e-08
2.43805e-06
2.71487e-08
2.41074e-06
2.73008e-08
2.38326e-06
2.74689e-08
2.3556e-06
2.76531e-08
2.32774e-06
2.78539e-08
2.29967e-06
2.80712e-08
2.27136e-06
2.83054e-08
2.24279e-06
2.85566e-08
2.21396e-06
2.8825e-08
2.18485e-06
2.91107e-08
2.15543e-06
2.94139e-08
2.12568e-06
2.97346e-08
2.09561e-06
3.00728e-08
2.06517e-06
3.04287e-08
2.03436e-06
3.08023e-08
2.00316e-06
3.11934e-08
1.97155e-06
3.1602e-08
1.93952e-06
3.20281e-08
1.90704e-06
3.24715e-08
1.8741e-06
3.29319e-08
1.84069e-06
3.34092e-08
1.80678e-06
3.3903e-08
1.77236e-06
3.44131e-08
1.73741e-06
3.49389e-08
1.70192e-06
3.548e-08
1.66588e-06
3.6036e-08
1.62927e-06
3.6606e-08
1.59207e-06
3.71896e-08
1.55428e-06
3.77858e-08
1.51587e-06
3.83939e-08
1.47685e-06
3.90128e-08
1.4372e-06
3.96415e-08
1.39692e-06
4.02789e-08
1.35599e-06
4.09235e-08
1.3144e-06
4.1574e-08
1.27217e-06
4.22288e-08
1.22927e-06
4.28862e-08
1.18572e-06
4.35442e-08
1.14151e-06
4.42007e-08
1.09664e-06
4.48535e-08
1.05113e-06
4.55e-08
1.00499e-06
4.61375e-08
9.58214e-07
4.67628e-08
9.10831e-07
4.73726e-08
8.62858e-07
4.79632e-08
8.14316e-07
4.85303e-08
7.65236e-07
4.90695e-08
7.15648e-07
4.95755e-08
6.65594e-07
5.00427e-08
6.15117e-07
5.04647e-08
5.6427e-07
5.08343e-08
5.13114e-07
5.11436e-08
4.61717e-07
5.13833e-08
4.10161e-07
5.15433e-08
3.58535e-07
5.16118e-08
3.06946e-07
5.15756e-08
2.55512e-07
5.14194e-08
2.04372e-07
5.11257e-08
1.53683e-07
5.06741e-08
1.03628e-07
5.00407e-08
5.44166e-08
4.91955e-08
6.29443e-09
4.81062e-08
-4.04325e-08
4.67105e-08
-8.54089e-08
4.49595e-08
-1.28244e-07
4.2818e-08
-1.68499e-07
4.02376e-08
-2.05661e-07
3.71439e-08
-2.3911e-07
3.34311e-08
-2.68124e-07
2.89951e-08
-2.91844e-07
2.37011e-08
-3.09252e-07
1.73892e-08
-3.19145e-07
9.87257e-09
-3.201e-07
9.34743e-10
-3.10526e-07
-9.59568e-09
-2.887e-07
-2.18487e-08
-2.52897e-07
-3.58272e-08
-2.01886e-07
-5.10373e-08
-1.36175e-07
-6.57384e-08
-6.0865e-08
-7.53453e-08
1.96509e-09
-6.2881e-08
1.88945e-09
-2.36612e-07
-3.58651e-13
5.8616e-07
-2.89365e-07
-1.02139e-13
3.16007e-07
-2.61995e-07
3.06153e-14
9.48646e-08
-1.82482e-07
8.02143e-14
-8.5183e-08
-6.08782e-08
1.06672e-13
-2.21405e-07
9.4463e-08
7.57039e-14
-3.19326e-07
2.75109e-07
2.65811e-15
-3.86914e-07
4.73616e-07
-7.16783e-14
-4.31564e-07
6.83951e-07
-1.15976e-13
-4.58724e-07
9.01292e-07
-1.2193e-13
-4.72722e-07
1.12161e-06
-1.00225e-13
-4.77318e-07
1.34178e-06
-6.70292e-14
-4.74964e-07
1.55938e-06
-3.4687e-14
-4.67471e-07
1.77253e-06
-1.04078e-14
-4.56151e-07
1.9798e-06
3.86556e-15
-4.4198e-07
2.18011e-06
9.35424e-15
-4.25701e-07
2.37262e-06
8.74711e-15
-4.07882e-07
2.55673e-06
4.78849e-15
-3.88973e-07
2.73202e-06
-3.15047e-16
-3.69329e-07
2.89819e-06
-5.16531e-15
-3.49237e-07
3.05508e-06
-9.07536e-15
-3.2893e-07
3.20261e-06
-1.18474e-14
-3.08601e-07
3.3408e-06
-1.35683e-14
-2.88407e-07
3.46972e-06
-1.45293e-14
-2.68478e-07
3.58951e-06
-1.49352e-14
-2.48923e-07
3.70035e-06
-1.49872e-14
-2.29832e-07
3.80246e-06
-1.48831e-14
-2.11277e-07
3.89609e-06
-1.47061e-14
-1.93317e-07
3.98152e-06
-1.44702e-14
-1.76001e-07
4.05906e-06
-1.42308e-14
-1.59363e-07
4.12901e-06
-1.39497e-14
-1.43432e-07
4.1917e-06
-1.36305e-14
-1.28225e-07
4.24747e-06
-1.32732e-14
-1.13755e-07
4.29665e-06
-1.28707e-14
-1.00026e-07
4.33959e-06
-1.24543e-14
-8.70372e-08
4.37663e-06
-1.19929e-14
-7.47825e-08
4.4081e-06
-1.15349e-14
-6.32517e-08
4.43433e-06
-1.10977e-14
-5.24307e-08
4.45565e-06
-1.06987e-14
-4.23021e-08
4.47237e-06
-1.03587e-14
-3.28458e-08
4.4848e-06
-1.00881e-14
-2.40394e-08
4.49323e-06
-9.87992e-15
-1.5859e-08
4.49795e-06
-9.69256e-15
-8.27882e-09
4.49923e-06
-9.59194e-15
-1.27188e-09
4.49733e-06
-9.57111e-15
5.1888e-09
4.4925e-06
-9.58845e-15
1.11307e-08
4.48497e-06
-9.63008e-15
1.65823e-08
4.47497e-06
-9.67171e-15
2.15713e-08
4.46271e-06
-9.7168e-15
2.61251e-08
4.44837e-06
-9.76884e-15
3.02706e-08
4.43216e-06
-9.807e-15
3.40338e-08
4.41423e-06
-9.83129e-15
3.74403e-08
4.39476e-06
-9.83129e-15
4.05143e-08
4.37389e-06
-9.83129e-15
4.32796e-08
4.35176e-06
-9.79659e-15
4.57587e-08
4.32851e-06
-9.74455e-15
4.79729e-08
4.30425e-06
-9.69598e-15
4.99427e-08
4.27909e-06
-9.61966e-15
5.16874e-08
4.25314e-06
-9.54334e-15
5.32252e-08
4.22648e-06
-9.46354e-15
5.4573e-08
4.19922e-06
-9.37681e-15
5.57469e-08
4.17141e-06
-9.29702e-15
5.67618e-08
4.14315e-06
-9.21723e-15
5.76316e-08
4.11449e-06
-9.12357e-15
5.83692e-08
4.08549e-06
-9.04378e-15
5.89865e-08
4.05621e-06
-8.96746e-15
5.94948e-08
4.0267e-06
-8.88767e-15
5.99043e-08
3.997e-06
-8.81135e-15
6.02243e-08
3.96715e-06
-8.73851e-15
6.04637e-08
3.9372e-06
-8.67954e-15
6.06304e-08
3.90717e-06
-8.63445e-15
6.07319e-08
3.8771e-06
-8.57895e-15
6.07749e-08
3.84701e-06
-8.51304e-15
6.07657e-08
3.81692e-06
-8.46101e-15
6.07099e-08
3.78686e-06
-8.43674e-15
6.0613e-08
3.75684e-06
-8.39512e-15
6.04796e-08
3.72689e-06
-8.37779e-15
6.03142e-08
3.69702e-06
-8.36046e-15
6.0121e-08
3.66723e-06
-8.33618e-15
5.99036e-08
3.63755e-06
-8.31191e-15
5.96656e-08
3.60797e-06
-8.30846e-15
5.94101e-08
3.57851e-06
-8.30848e-15
5.91402e-08
3.54918e-06
-8.29114e-15
5.88585e-08
3.51998e-06
-8.28422e-15
5.85677e-08
3.49091e-06
-8.27383e-15
5.82699e-08
3.46198e-06
-8.27731e-15
5.79676e-08
3.43318e-06
-8.27039e-15
5.76626e-08
3.40452e-06
-8.28429e-15
5.73569e-08
3.37601e-06
-8.29471e-15
5.70523e-08
3.34763e-06
-8.29473e-15
5.67506e-08
3.31939e-06
-8.30862e-15
5.64532e-08
3.29128e-06
-8.31211e-15
5.61616e-08
3.2633e-06
-8.30865e-15
5.58774e-08
3.23545e-06
-8.31561e-15
5.56018e-08
3.20771e-06
-8.3191e-15
5.5336e-08
3.1801e-06
-8.32258e-15
5.50814e-08
3.1526e-06
-8.32954e-15
5.48391e-08
3.1252e-06
-8.33302e-15
5.461e-08
3.0979e-06
-8.33998e-15
5.43955e-08
3.07069e-06
-8.35387e-15
5.41963e-08
3.04356e-06
-8.36429e-15
5.40136e-08
3.01651e-06
-8.36431e-15
5.38482e-08
2.98952e-06
-8.37473e-15
5.37011e-08
2.96259e-06
-8.37128e-15
5.35731e-08
2.93571e-06
-8.36436e-15
5.34651e-08
2.90886e-06
-8.36437e-15
5.33779e-08
2.88203e-06
-8.36438e-15
5.33123e-08
2.85522e-06
-8.35052e-15
5.32691e-08
2.82842e-06
-8.36094e-15
5.3249e-08
2.80161e-06
-8.34361e-15
5.32527e-08
2.77477e-06
-8.32628e-15
5.32811e-08
2.74791e-06
-8.32282e-15
5.33347e-08
2.721e-06
-8.31936e-15
5.34142e-08
2.69403e-06
-8.31591e-15
5.35203e-08
2.66699e-06
-8.30551e-15
5.36537e-08
2.63987e-06
-8.29165e-15
5.38149e-08
2.61264e-06
-8.28472e-15
5.40045e-08
2.58531e-06
-8.27432e-15
5.42232e-08
2.55784e-06
-8.26393e-15
5.44714e-08
2.53024e-06
-8.26047e-15
5.47497e-08
2.50248e-06
-8.26048e-15
5.50586e-08
2.47454e-06
-8.26049e-15
5.53985e-08
2.44642e-06
-8.24315e-15
5.577e-08
2.4181e-06
-8.24663e-15
5.61734e-08
2.38956e-06
-8.25705e-15
5.66092e-08
2.36078e-06
-8.24318e-15
5.70776e-08
2.33175e-06
-8.24666e-15
5.7579e-08
2.30246e-06
-8.25361e-15
5.81137e-08
2.27289e-06
-8.2675e-15
5.86818e-08
2.24301e-06
-8.26404e-15
5.92836e-08
2.21282e-06
-8.2918e-15
5.99192e-08
2.1823e-06
-8.34038e-15
6.05886e-08
2.15144e-06
-8.35774e-15
6.12919e-08
2.12021e-06
-8.3855e-15
6.2029e-08
2.08859e-06
-8.40979e-15
6.27998e-08
2.05659e-06
-8.45837e-15
6.36041e-08
2.02417e-06
-8.49654e-15
6.44415e-08
1.99133e-06
-8.54512e-15
6.53118e-08
1.95804e-06
-8.60758e-15
6.62144e-08
1.92429e-06
-8.68391e-15
6.71488e-08
1.89008e-06
-8.75677e-15
6.81143e-08
1.85538e-06
-8.82617e-15
6.91102e-08
1.82018e-06
-8.93026e-15
7.01355e-08
1.78446e-06
-9.02047e-15
7.11892e-08
1.74822e-06
-9.10027e-15
7.22701e-08
1.71145e-06
-9.20089e-15
7.33769e-08
1.67412e-06
-9.27722e-15
7.45082e-08
1.63624e-06
-9.36743e-15
7.56622e-08
1.59779e-06
-9.45417e-15
7.68372e-08
1.55877e-06
-9.55479e-15
7.80311e-08
1.51916e-06
-9.62071e-15
7.92417e-08
1.47897e-06
-9.70051e-15
8.04665e-08
1.43819e-06
-9.76643e-15
8.17028e-08
1.39681e-06
-9.8393e-15
8.29478e-08
1.35483e-06
-9.92604e-15
8.41981e-08
1.31226e-06
-9.9989e-15
8.54501e-08
1.2691e-06
-1.00891e-14
8.67e-08
1.22535e-06
-1.0214e-14
8.79436e-08
1.18102e-06
-1.03528e-14
8.91762e-08
1.13612e-06
-1.05193e-14
9.03926e-08
1.09067e-06
-1.07136e-14
9.15873e-08
1.04467e-06
-1.09495e-14
9.27541e-08
9.98147e-07
-1.12687e-14
9.38863e-08
9.51126e-07
-1.16712e-14
9.49766e-08
9.03633e-07
-1.21708e-14
9.60166e-08
8.55697e-07
-1.27884e-14
9.69974e-08
8.07356e-07
-1.35169e-14
9.79089e-08
7.58651e-07
-1.43219e-14
9.87401e-08
7.09628e-07
-1.52864e-14
9.94787e-08
6.60344e-07
-1.63203e-14
1.00111e-07
6.10858e-07
-1.74027e-14
1.00621e-07
5.61241e-07
-1.84436e-14
1.00992e-07
5.11571e-07
-1.93387e-14
1.01204e-07
4.61937e-07
-1.9984e-14
1.01236e-07
4.12441e-07
-2.02754e-14
1.01063e-07
3.63196e-07
-2.00881e-14
1.00655e-07
3.1433e-07
-1.93595e-14
9.99817e-08
2.6599e-07
-1.81868e-14
9.90046e-08
2.1834e-07
-1.67088e-14
9.76807e-08
1.71567e-07
-1.51615e-14
9.59579e-08
1.25885e-07
-1.40166e-14
9.37783e-08
8.15272e-08
-1.3399e-14
9.10571e-08
3.87608e-08
-1.33921e-14
8.77148e-08
-2.11323e-09
-1.45231e-14
8.36807e-08
-4.07357e-08
-1.69864e-14
7.88485e-08
-7.67054e-08
-2.05877e-14
7.31017e-08
-1.0959e-07
-2.52229e-14
6.63033e-08
-1.38898e-07
-3.02952e-14
5.82911e-08
-1.64083e-07
-3.45973e-14
4.88738e-08
-1.84544e-07
-3.59296e-14
3.78372e-08
-1.99636e-07
-3.16136e-14
2.49511e-08
-2.08697e-07
-2.04836e-14
9.98245e-09
-2.1107e-07
-6.50173e-15
-7.23788e-09
-2.06187e-07
4.16446e-17
-2.67465e-08
-1.93724e-07
-8.56258e-15
-4.83064e-08
-1.73752e-07
-1.43913e-14
-7.10282e-08
-1.46865e-07
2.58682e-14
-9.26471e-08
-1.13994e-07
-1.46133e-14
-1.08244e-07
-7.12827e-08
-2.19796e-13
-1.05636e-07
-2.38543e-12
-6.94269e-08
-2.36615e-07
5.86156e-07
-2.89364e-07
3.16004e-07
-2.61993e-07
9.48621e-08
-1.82479e-07
-8.51849e-08
-6.0876e-08
-2.21406e-07
9.4465e-08
-3.19327e-07
2.75111e-07
-3.86915e-07
4.73618e-07
-4.31565e-07
6.83953e-07
-4.58724e-07
9.01293e-07
-4.72723e-07
1.12162e-06
-4.77318e-07
1.34179e-06
-4.74964e-07
1.55938e-06
-4.67471e-07
1.77253e-06
-4.56151e-07
1.9798e-06
-4.41981e-07
2.18011e-06
-4.25701e-07
2.37262e-06
-4.07882e-07
2.55673e-06
-3.88973e-07
2.73202e-06
-3.69329e-07
2.89819e-06
-3.49237e-07
3.05508e-06
-3.2893e-07
3.20261e-06
-3.08601e-07
3.3408e-06
-2.88407e-07
3.46972e-06
-2.68478e-07
3.58951e-06
-2.48923e-07
3.70035e-06
-2.29832e-07
3.80246e-06
-2.11277e-07
3.89609e-06
-1.93317e-07
3.98152e-06
-1.76001e-07
4.05905e-06
-1.59363e-07
4.129e-06
-1.43432e-07
4.1917e-06
-1.28225e-07
4.24747e-06
-1.13755e-07
4.29665e-06
-1.00026e-07
4.33959e-06
-8.70373e-08
4.37663e-06
-7.47826e-08
4.4081e-06
-6.32518e-08
4.43433e-06
-5.24308e-08
4.45565e-06
-4.23022e-08
4.47237e-06
-3.28459e-08
4.4848e-06
-2.40396e-08
4.49323e-06
-1.58592e-08
4.49795e-06
-8.27898e-09
4.49923e-06
-1.27204e-09
4.49733e-06
5.18863e-09
4.4925e-06
1.11306e-08
4.48497e-06
1.65821e-08
4.47497e-06
2.15711e-08
4.4627e-06
2.61249e-08
4.44837e-06
3.02704e-08
4.43216e-06
3.40336e-08
4.41423e-06
3.74401e-08
4.39476e-06
4.05141e-08
4.37389e-06
4.32794e-08
4.35176e-06
4.57585e-08
4.32851e-06
4.79727e-08
4.30425e-06
4.99425e-08
4.27909e-06
5.16873e-08
4.25314e-06
5.3225e-08
4.22648e-06
5.45728e-08
4.19922e-06
5.57467e-08
4.17141e-06
5.67616e-08
4.14315e-06
5.76314e-08
4.11449e-06
5.8369e-08
4.08549e-06
5.89864e-08
4.05621e-06
5.94946e-08
4.0267e-06
5.99041e-08
3.997e-06
6.02241e-08
3.96715e-06
6.04635e-08
3.9372e-06
6.06303e-08
3.90717e-06
6.07317e-08
3.8771e-06
6.07747e-08
3.84701e-06
6.07655e-08
3.81692e-06
6.07098e-08
3.78686e-06
6.06128e-08
3.75684e-06
6.04794e-08
3.72689e-06
6.0314e-08
3.69702e-06
6.01208e-08
3.66723e-06
5.99034e-08
3.63755e-06
5.96654e-08
3.60797e-06
5.941e-08
3.57851e-06
5.91401e-08
3.54918e-06
5.88584e-08
3.51998e-06
5.85675e-08
3.49091e-06
5.82698e-08
3.46198e-06
5.79674e-08
3.43318e-06
5.76624e-08
3.40452e-06
5.73568e-08
3.37601e-06
5.70522e-08
3.34763e-06
5.67504e-08
3.31938e-06
5.6453e-08
3.29128e-06
5.61615e-08
3.2633e-06
5.58773e-08
3.23544e-06
5.56016e-08
3.20771e-06
5.53359e-08
3.1801e-06
5.50813e-08
3.1526e-06
5.48389e-08
3.1252e-06
5.46099e-08
3.0979e-06
5.43953e-08
3.07069e-06
5.41962e-08
3.04356e-06
5.40135e-08
3.01651e-06
5.38481e-08
2.98952e-06
5.3701e-08
2.96259e-06
5.3573e-08
2.93571e-06
5.3465e-08
2.90886e-06
5.33778e-08
2.88203e-06
5.33122e-08
2.85522e-06
5.32689e-08
2.82842e-06
5.32488e-08
2.80161e-06
5.32526e-08
2.77477e-06
5.32809e-08
2.74791e-06
5.33345e-08
2.721e-06
5.34141e-08
2.69403e-06
5.35202e-08
2.66699e-06
5.36536e-08
2.63987e-06
5.38148e-08
2.61264e-06
5.40044e-08
2.58531e-06
5.42231e-08
2.55784e-06
5.44713e-08
2.53024e-06
5.47496e-08
2.50248e-06
5.50585e-08
2.47454e-06
5.53984e-08
2.44642e-06
5.57699e-08
2.4181e-06
5.61733e-08
2.38956e-06
5.66091e-08
2.36078e-06
5.70775e-08
2.33175e-06
5.75789e-08
2.30246e-06
5.81135e-08
2.27289e-06
5.86817e-08
2.24301e-06
5.92835e-08
2.21282e-06
5.99191e-08
2.1823e-06
6.05885e-08
2.15144e-06
6.12918e-08
2.12021e-06
6.20289e-08
2.08859e-06
6.27997e-08
2.05659e-06
6.36039e-08
2.02417e-06
6.44414e-08
1.99133e-06
6.53116e-08
1.95804e-06
6.62143e-08
1.92429e-06
6.71487e-08
1.89008e-06
6.81142e-08
1.85538e-06
6.911e-08
1.82018e-06
7.01353e-08
1.78446e-06
7.1189e-08
1.74822e-06
7.22699e-08
1.71145e-06
7.33768e-08
1.67412e-06
7.4508e-08
1.63624e-06
7.5662e-08
1.59779e-06
7.6837e-08
1.55877e-06
7.80309e-08
1.51916e-06
7.92415e-08
1.47897e-06
8.04663e-08
1.43819e-06
8.17027e-08
1.39681e-06
8.29476e-08
1.35483e-06
8.41979e-08
1.31226e-06
8.545e-08
1.2691e-06
8.66999e-08
1.22535e-06
8.79435e-08
1.18102e-06
8.9176e-08
1.13612e-06
9.03924e-08
1.09067e-06
9.15871e-08
1.04467e-06
9.27539e-08
9.98147e-07
9.38862e-08
9.51127e-07
9.49764e-08
9.03633e-07
9.60164e-08
8.55697e-07
9.69972e-08
8.07356e-07
9.79088e-08
7.58651e-07
9.874e-08
7.09629e-07
9.94785e-08
6.60344e-07
1.00111e-07
6.10858e-07
1.00621e-07
5.61241e-07
1.00992e-07
5.11571e-07
1.01204e-07
4.61937e-07
1.01236e-07
4.12441e-07
1.01063e-07
3.63196e-07
1.00655e-07
3.1433e-07
9.99815e-08
2.6599e-07
9.90044e-08
2.1834e-07
9.76805e-08
1.71567e-07
9.59578e-08
1.25885e-07
9.37782e-08
8.15274e-08
9.10569e-08
3.8761e-08
8.77147e-08
-2.113e-09
8.36805e-08
-4.07355e-08
7.88483e-08
-7.67052e-08
7.31016e-08
-1.09589e-07
6.63031e-08
-1.38898e-07
5.82909e-08
-1.64083e-07
4.88736e-08
-1.84544e-07
3.7837e-08
-1.99636e-07
2.49509e-08
-2.08697e-07
9.98217e-09
-2.1107e-07
-7.2382e-09
-2.06187e-07
-2.67469e-08
-1.93725e-07
-4.83068e-08
-1.73752e-07
-7.10286e-08
-1.46867e-07
-9.26478e-08
-1.13997e-07
-1.08245e-07
-7.12923e-08
-1.05637e-07
-6.94262e-08
-7.94885e-08
-1.48097e-13
6.65629e-07
-3.69277e-08
-8.16554e-14
2.73433e-07
5.41422e-08
5.00362e-15
3.79124e-09
1.69232e-07
5.39087e-14
-2.00275e-07
3.03247e-07
8.04221e-14
-3.55422e-07
4.5417e-07
7.08499e-14
-4.7025e-07
6.19587e-07
4.34864e-14
-5.52334e-07
7.96464e-07
1.7292e-14
-6.08444e-07
9.81838e-07
2.54341e-15
-6.44099e-07
1.17294e-06
1.3534e-15
-6.63822e-07
1.367e-06
9.9056e-15
-6.71388e-07
1.56167e-06
2.18821e-14
-6.6963e-07
1.75493e-06
3.26062e-14
-6.60732e-07
1.94514e-06
3.9448e-14
-6.46362e-07
2.13097e-06
4.19217e-14
-6.2781e-07
2.31135e-06
4.07768e-14
-6.06085e-07
2.48545e-06
3.73004e-14
-5.81984e-07
2.65262e-06
3.2719e-14
-5.56145e-07
2.81238e-06
2.79937e-14
-5.29084e-07
2.96436e-06
2.36794e-14
-5.01224e-07
3.10834e-06
2.004e-14
-4.72909e-07
3.24417e-06
1.71291e-14
-4.4443e-07
3.37178e-06
1.48653e-14
-4.16023e-07
3.49119e-06
1.30907e-14
-3.87891e-07
3.60247e-06
1.17082e-14
-3.60198e-07
3.70572e-06
1.05875e-14
-3.33084e-07
3.8011e-06
9.65254e-15
-3.06664e-07
3.88882e-06
8.87366e-15
-2.81031e-07
3.96907e-06
8.19366e-15
-2.5626e-07
4.04212e-06
7.64029e-15
-2.32411e-07
4.10822e-06
7.18754e-15
-2.0953e-07
4.16764e-06
6.81805e-15
-1.87649e-07
4.22067e-06
6.54571e-15
-1.66791e-07
4.26761e-06
6.35316e-15
-1.46966e-07
4.30875e-06
6.22653e-15
-1.28178e-07
4.34439e-06
6.16583e-15
-1.10422e-07
4.37482e-06
6.14675e-15
-9.36879e-08
4.40035e-06
6.13808e-15
-7.79581e-08
4.42126e-06
6.14503e-15
-6.32106e-08
4.43783e-06
6.13636e-15
-4.94193e-08
4.45034e-06
6.12422e-15
-3.65545e-08
4.45907e-06
6.10514e-15
-2.45836e-08
4.46426e-06
6.06698e-15
-1.34718e-08
4.46617e-06
6.0132e-15
-3.18248e-09
4.46503e-06
5.93341e-15
6.32186e-09
4.46108e-06
5.85708e-15
1.50794e-08
4.45453e-06
5.76861e-15
2.31294e-08
4.44559e-06
5.68708e-15
3.05106e-08
4.43446e-06
5.61769e-15
3.72614e-08
4.42131e-06
5.53789e-15
4.34198e-08
4.40632e-06
5.47544e-15
4.90228e-08
4.38965e-06
5.4338e-15
5.41063e-08
4.37146e-06
5.39911e-15
5.87051e-08
4.35188e-06
5.37135e-15
6.28529e-08
4.33106e-06
5.36441e-15
6.65818e-08
4.30911e-06
5.35746e-15
6.99226e-08
4.28615e-06
5.36787e-15
7.29045e-08
4.26228e-06
5.38174e-15
7.55551e-08
4.2376e-06
5.40776e-15
7.79007e-08
4.21221e-06
5.42857e-15
7.99659e-08
4.18618e-06
5.46152e-15
8.17737e-08
4.15959e-06
5.49621e-15
8.33459e-08
4.13252e-06
5.52743e-15
8.47025e-08
4.10503e-06
5.56732e-15
8.58624e-08
4.07717e-06
5.60374e-15
8.6843e-08
4.049e-06
5.6471e-15
8.76606e-08
4.02058e-06
5.67659e-15
8.83303e-08
3.99193e-06
5.71648e-15
8.88657e-08
3.96312e-06
5.7529e-15
8.92799e-08
3.93416e-06
5.78758e-15
8.95846e-08
3.9051e-06
5.80839e-15
8.97907e-08
3.87597e-06
5.85349e-15
8.99082e-08
3.84679e-06
5.88123e-15
8.99464e-08
3.81758e-06
5.92806e-15
8.99139e-08
3.78837e-06
5.95234e-15
8.98183e-08
3.75919e-06
5.97662e-15
8.9667e-08
3.73003e-06
5.99916e-15
8.94665e-08
3.70093e-06
6.01997e-15
8.92231e-08
3.67189e-06
6.03731e-15
8.89422e-08
3.64292e-06
6.05291e-15
8.86292e-08
3.61405e-06
6.07545e-15
8.82888e-08
3.58526e-06
6.09279e-15
8.79254e-08
3.55657e-06
6.11533e-15
8.75433e-08
3.52799e-06
6.12573e-15
8.71463e-08
3.49952e-06
6.13786e-15
8.67378e-08
3.47117e-06
6.15e-15
8.63213e-08
3.44293e-06
6.1604e-15
8.58997e-08
3.41481e-06
6.16733e-15
8.54761e-08
3.38681e-06
6.17772e-15
8.50531e-08
3.35893e-06
6.17598e-15
8.46332e-08
3.33116e-06
6.18985e-15
8.4219e-08
3.30351e-06
6.19157e-15
8.38125e-08
3.27597e-06
6.19503e-15
8.3416e-08
3.24854e-06
6.20023e-15
8.30316e-08
3.22121e-06
6.20889e-15
8.2661e-08
3.19399e-06
6.20195e-15
8.23062e-08
3.16685e-06
6.20194e-15
8.19689e-08
3.13981e-06
6.2054e-15
8.16507e-08
3.11285e-06
6.21753e-15
8.13533e-08
3.08597e-06
6.20712e-15
8.10782e-08
3.05916e-06
6.20537e-15
8.08268e-08
3.0324e-06
6.19322e-15
8.06005e-08
3.0057e-06
6.19495e-15
8.04008e-08
2.97905e-06
6.18974e-15
8.0229e-08
2.95242e-06
6.19146e-15
8.00862e-08
2.92583e-06
6.19146e-15
7.99738e-08
2.89925e-06
6.19145e-15
7.98929e-08
2.87267e-06
6.19317e-15
7.98447e-08
2.84609e-06
6.19664e-15
7.98303e-08
2.81949e-06
6.20357e-15
7.98507e-08
2.79286e-06
6.2105e-15
7.99071e-08
2.76619e-06
6.2157e-15
8.00004e-08
2.73948e-06
6.21569e-15
8.01317e-08
2.71269e-06
6.21915e-15
8.03018e-08
2.68583e-06
6.22956e-15
8.05118e-08
2.65889e-06
6.24169e-15
8.07625e-08
2.63183e-06
6.24516e-15
8.10548e-08
2.60467e-06
6.2625e-15
8.13894e-08
2.57737e-06
6.26943e-15
8.17673e-08
2.54993e-06
6.29371e-15
8.21891e-08
2.52233e-06
6.30411e-15
8.26556e-08
2.49456e-06
6.32145e-15
8.31674e-08
2.46661e-06
6.3492e-15
8.37252e-08
2.43845e-06
6.37869e-15
8.43296e-08
2.41008e-06
6.40124e-15
8.4981e-08
2.38147e-06
6.42725e-15
8.56799e-08
2.35262e-06
6.46368e-15
8.64268e-08
2.32352e-06
6.5001e-15
8.7222e-08
2.29413e-06
6.5452e-15
8.80657e-08
2.26446e-06
6.5851e-15
8.89583e-08
2.23447e-06
6.62672e-15
8.98997e-08
2.20417e-06
6.66662e-15
9.089e-08
2.17353e-06
6.72039e-15
9.19292e-08
2.14254e-06
6.78804e-15
9.30171e-08
2.11119e-06
6.84355e-15
9.41534e-08
2.07945e-06
6.906e-15
9.53378e-08
2.04733e-06
6.97712e-15
9.65697e-08
2.01479e-06
7.05344e-15
9.78485e-08
1.98183e-06
7.12803e-15
9.91734e-08
1.94843e-06
7.2113e-15
1.00543e-07
1.91459e-06
7.30497e-15
1.01958e-07
1.88028e-06
7.39691e-15